INSANE! Membrane UpperLeaflet>DPPC:DIPC:CHOL=20.0:65.0:15.0 LowerLeaflet>DPPC:DIPC:CHOL=20.0:65.0:15.0
72637
    1DPPC   NC3    1   8.104  10.286   6.148  0.1032 -0.1709  0.0682
    1DPPC   PO4    2   8.258  10.301   5.732 -0.1908 -0.0630  0.3363
    1DPPC   GL1    3   8.361  10.388   5.272 -0.1876  0.0570 -0.2272
    1DPPC   GL2    4   8.655  10.178   5.351  0.1389  0.0075  0.1286
    1DPPC   C1A    5   8.252  10.615   4.845  0.2686 -0.3284 -0.3199
    1DPPC   C2A    6   8.153  10.814   4.487 -0.1283 -0.0491 -0.1041
    1DPPC   C3A    7   8.124  10.621   4.087 -0.1827  0.2309 -0.0464
    1DPPC   C4A    8   8.291  10.462   3.671  0.1373 -0.3612  0.4954
    1DPPC   C1B    9   8.874  10.158   5.011 -0.1066 -0.0822  0.0436
    1DPPC   C2B   10   8.988  10.179   4.457  0.2091  0.0270 -0.1144
    1DPPC   C3B   11   8.956   9.957   4.065  0.0171 -0.1638 -0.0190
    1DPPC   C4B   12   8.841   9.712   3.648 -0.2153 -0.3110  0.0354
    1DPPC   NC3   13  28.246  17.463   7.770  0.1985  0.1457 -0.0743
    1DPPC   PO4   14  28.322  17.075   7.549 -0.1214  0.3251 -0.3109
    1DPPC   GL1   15  28.263  17.358   7.109 -0.1740  0.1281 -0.1453
    1DPPC   GL2   16  28.150  17.165   6.839  0.0612  0.0149  0.0821
    1DPPC   C1A   17  28.418  17.551   6.817  0.1521 -0.1624 -0.0407
    1DPPC   C2A   18  28.509  17.578   6.359 -0.0912 -0.0778  0.0952
    1DPPC   C3A   19  28.547  17.298   6.000 -0.1989 -0.0956 -0.2783
    1DPPC   C4A   20  28.780  17.343   5.755 -0.1215  0.3907 -0.2142
    1DPPC   C1B   21  28.379  17.036   6.497 -0.0260  0.1494  0.1809
    1DPPC   C2B   22  28.174  17.020   6.045 -0.1276  0.2424 -0.2213
    1DPPC   C3B   23  28.170  16.921   5.584 -0.0089  0.0914 -0.2047
    1DPPC   C4B   24  28.367  17.016   5.245 -0.0830  0.2060 -0.1270
    1DPPC   NC3   25  11.444  26.373   6.689 -0.0958  0.5083 -0.3369
    1DPPC   PO4   26  11.346  26.559   6.365  0.0759 -0.0743  0.4022
    1DPPC   GL1   27  11.210  26.470   5.918  0.1068 -0.1559  0.2381
    1DPPC   GL2   28  11.394  26.294   5.670  0.0738 -0.1353 -0.0741
    1DPPC   C1A   29  11.099  26.691   5.546 -0.0390  0.0554  0.0400
    1DPPC   C2A   30  10.961  26.762   5.143  0.1290  0.1488 -0.3283
    1DPPC   C3A   31  10.928  26.909   4.763 -0.0735  0.1087 -0.2276
    1DPPC   C4A   32  10.541  26.946   4.571 -0.0708 -0.1958 -0.0322
    1DPPC   C1B   33  11.258  26.349   5.202  0.2672  0.1584 -0.1956
    1DPPC   C2B   34  11.222  26.520   4.793  0.0248 -0.0302  0.5613
    1DPPC   C3B   35  11.431  26.811   4.532 -0.2455  0.4083 -0.0032
    1DPPC   C4B   36  11.625  27.148   4.351  0.1775  0.0127 -0.0737
    1DPPC   NC3   37  26.398   6.482   6.802  0.1638 -0.2747  0.1850
    1DPPC   PO4   38  26.620   6.942   6.833 -0.1285  0.0298 -0.3507
    1DPPC   GL1   39  26.464   6.834   6.445 -0.0533  0.0097 -0.1358
    1DPPC   GL2   40  26.332   7.004   6.283  0.2386  0.3857 -0.1054
    1DPPC   C1A   41  26.337   6.582   6.062  0.1872 -0.0500 -0.1144
    1DPPC   C2A   42  26.164   6.472   5.760  0.0165  0.2587 -0.1290
    1DPPC   C3A   43  26.131   6.405   5.350 -0.0423  0.2070  0.1940
    1DPPC   C4A   44  26.308   6.497   4.924 -0.1380  0.0265 -0.0972
    1DPPC   C1B   45  26.319   7.093   5.891 -0.2634 -0.0517 -0.1410
    1DPPC   C2B   46  26.212   6.999   5.399 -0.1296  0.1212  0.0014
    1DPPC   C3B   47  26.167   7.011   4.864  0.0591 -0.0426  0.1724
    1DPPC   C4B   48  26.021   7.071   4.435 -0.0516 -0.0168 -0.1688
    1DPPC   NC3   49  22.801  12.120   7.415 -0.4468  0.1679  0.1703
    1DPPC   PO4   50  22.708  12.342   7.081 -0.1441  0.0435  0.1258
    1DPPC   GL1   51  22.576  11.960   6.729 -0.0827  0.1952  0.1764
    1DPPC   GL2   52  22.370  12.128   6.454  0.0842  0.0609 -0.2149
    1DPPC   C1A   53  22.826  11.825   6.406 -0.0346  0.1347  0.2000
    1DPPC   C2A   54  22.950  11.632   6.133  0.0258  0.0956 -0.0539
    1DPPC   C3A   55  22.963  11.437   5.766 -0.0279  0.1034 -0.3260
    1DPPC   C4A   56  22.962  11.380   5.350  0.2981  0.0257  0.0657
    1DPPC   C1B   57  22.549  12.176   6.078  0.1818  0.0597  0.1533
    1DPPC   C2B   58  22.554  11.919   5.785 -0.1072  0.2814  0.1768
    1DPPC   C3B   59  22.691  11.860   5.538 -0.1618  0.1367 -0.0696
    1DPPC   C4B   60  22.995  12.039   5.241  0.1594  0.2253 -0.1082
    1DPPC   NC3   61  26.686   2.581   6.684  0.0780 -0.0279 -0.2897
    1DPPC   PO4   62  27.151   2.507   6.616  0.0556 -0.1344 -0.0961
    1DPPC   GL1   63  26.914   2.320   6.261 -0.0107 -0.2081  0.1546
    1DPPC   GL2   64  26.719   2.613   6.177 -0.2039 -0.2419  0.1909
    1DPPC   C1A   65  26.823   2.377   5.712  0.0210 -0.1101 -0.1999
    1DPPC   C2A   66  26.696   2.465   5.295 -0.1971  0.3104  0.1638
    1DPPC   C3A   67  26.713   2.818   4.968 -0.1362  0.0024  0.0003
    1DPPC   C4A   68  26.549   2.837   4.541  0.1780 -0.1854 -0.0804
    1DPPC   C1B   69  26.557   2.833   5.874 -0.0865 -0.0483 -0.1729
    1DPPC   C2B   70  26.344   2.848   5.517 -0.0793 -0.0098 -0.0040
    1DPPC   C3B   71  26.110   2.627   5.263  0.1905 -0.0966 -0.0580
    1DPPC   C4B   72  26.370   2.495   4.882 -0.1106 -0.1687  0.0757
    1DPPC   NC3   73  28.303  11.242   7.002 -0.2245 -0.3309  0.1877
    1DPPC   PO4   74  28.774  11.151   6.957  0.2895  0.0617  0.2241
    1DPPC   GL1   75  28.832  11.108   6.496 -0.0624 -0.0077  0.1908
    1DPPC   GL2   76  28.872  11.442   6.284 -0.0703  0.1424 -0.0218
    1DPPC   C1A   77  28.911  11.026   6.029  0.1260 -0.0869 -0.2317
    1DPPC   C2A   78  28.973  10.864   5.549  0.0285 -0.0987 -0.0470
    1DPPC   C3A   79  28.907  10.946   5.138  0.1770  0.0735 -0.1352
    1DPPC   C4A   80  28.800  11.148   4.803  0.2342 -0.1347 -0.3695
    1DPPC   C1B   81  28.674  11.473   5.958  0.0216 -0.0194  0.1245
    1DPPC   C2B   82  28.724  11.300   5.591  0.1222  0.0137  0.1907
    1DPPC   C3B   83  28.482  11.189   5.293 -0.1433  0.2015 -0.4218
    1DPPC   C4B   84  28.200  11.081   4.879 -0.1507  0.1754 -0.3182
    1DPPC   NC3   85  16.059  11.151   6.992  0.1031  0.1047  0.1843
    1DPPC   PO4   86  16.492  10.983   6.854 -0.1343  0.2235  0.1047
    1DPPC   GL1   87  16.656  10.993   6.459  0.0029 -0.0942  0.0988
    1DPPC   GL2   88  16.980  10.950   6.369  0.2003  0.1778  0.1099
    1DPPC   C1A   89  16.662  10.806   5.999 -0.1556  0.0532  0.0411
    1DPPC   C2A   90  16.511  10.771   5.623  0.0301 -0.3873  0.1212
    1DPPC   C3A   91  16.670  10.835   5.233  0.0718  0.0071 -0.0773
    1DPPC   C4A   92  16.688  10.852   4.841 -0.1435 -0.2093 -0.1877
    1DPPC   C1B   93  17.209  10.797   6.042 -0.3288  0.1287  0.2262
    1DPPC   C2B   94  17.024  10.894   5.590 -0.0975  0.0626 -0.1211
    1DPPC   C3B   95  17.102  11.132   5.092  0.1713  0.1243 -0.1703
    1DPPC   C4B   96  17.187  10.939   4.776 -0.1583  0.0168 -0.0183
    1DPPC   NC3   97  22.695   4.109   7.220 -0.2197 -0.2179  0.4378
    1DPPC   PO4   98  22.318   4.415   7.254 -0.2276  0.1072 -0.0042
    1DPPC   GL1   99  22.492   4.426   6.841 -0.0814  0.1741  0.1065
    1DPPC   GL2  100  22.532   4.109   6.719  0.0251  0.3428  0.1310
    1DPPC   C1A  101  22.487   4.666   6.465 -0.0075 -0.1199 -0.2555
    1DPPC   C2A  102  22.445   4.746   6.050 -0.0388  0.0986 -0.1628
    1DPPC   C3A  103  22.572   5.052   5.719  0.0720  0.3396  0.0764
    1DPPC   C4A  104  22.567   5.250   5.414 -0.0286 -0.1866 -0.0087
    1DPPC   C1B  105  22.425   4.207   6.256  0.0880  0.0975 -0.2217
    1DPPC   C2B  106  22.410   4.207   5.769  0.1493 -0.1930  0.1315
    1DPPC   C3B  107  22.126   4.255   5.422  0.1330  0.1234 -0.3074
    1DPPC   C4B  108  21.855   4.402   5.067 -0.4233  0.0599 -0.1995
    1DPPC   NC3  109  17.419  10.844   7.371  0.0423 -0.1280 -0.2567
    1DPPC   PO4  110  17.342  10.629   7.086  0.2336  0.3214  0.3437
    1DPPC   GL1  111  17.370  10.362   6.772  0.2127 -0.1557  0.1646
    1DPPC   GL2  112  16.980  10.394   6.618  0.1700  0.1469  0.1363
    1DPPC   C1A  113  17.433  10.328   6.347 -0.1713  0.0983  0.0635
    1DPPC   C2A  114  17.312  10.118   5.973 -0.0336 -0.1586 -0.1703
    1DPPC   C3A  115  17.507  10.138   5.567 -0.0055  0.3585  0.1292
    1DPPC   C4A  116  17.533  10.204   5.264  0.2158  0.0357  0.3527
    1DPPC   C1B  117  16.932  10.362   6.200 -0.1863  0.1937  0.0561
    1DPPC   C2B  118  16.969  10.420   5.708  0.0318  0.1206 -0.1970
    1DPPC   C3B  119  16.978  10.374   5.272 -0.1795 -0.2106 -0.1325
    1DPPC   C4B  120  17.083  10.488   4.907  0.0399 -0.2316 -0.0590
    1DPPC   NC3  121  26.355  16.584   7.158  0.0653 -0.2368  0.1033
    1DPPC   PO4  122  26.409  16.373   6.726 -0.0467  0.2491 -0.0151
    1DPPC   GL1  123  26.472  16.049   6.451 -0.0723 -0.0836 -0.1518
    1DPPC   GL2  124  26.666  15.789   6.575  0.2838  0.0131 -0.5041
    1DPPC   C1A  125  26.605  16.112   6.134  0.1198  0.3677  0.1526
    1DPPC   C2A  126  26.518  16.127   5.675 -0.0600  0.1836 -0.1081
    1DPPC   C3A  127  26.374  16.183   5.180  0.1365 -0.0076  0.1503
    1DPPC   C4A  128  26.241  16.274   4.722 -0.0404 -0.0800 -0.4814
    1DPPC   C1B  129  26.604  15.611   6.200  0.0530 -0.0449 -0.2019
    1DPPC   C2B  130  26.486  15.655   5.799  0.2236 -0.0223 -0.1524
    1DPPC   C3B  131  26.437  15.729   5.363 -0.2821  0.1040 -0.0758
    1DPPC   C4B  132  26.360  15.798   4.865  0.0365  0.0211 -0.1318
    1DPPC   NC3  133  26.421  15.216   7.423 -0.0493  0.0095 -0.0320
    1DPPC   PO4  134  26.789  15.145   7.080 -0.2085  0.1721  0.0153
    1DPPC   GL1  135  27.093  14.927   6.791 -0.2442  0.2468 -0.0793
    1DPPC   GL2  136  27.072  14.716   6.733  0.1644  0.1979 -0.2481
    1DPPC   C1A  137  27.274  14.942   6.326  0.0428 -0.0251 -0.1538
    1DPPC   C2A  138  27.323  14.920   5.883 -0.0703  0.3003 -0.2359
    1DPPC   C3A  139  27.146  14.935   5.475 -0.2766 -0.0116 -0.4156
    1DPPC   C4A  140  27.009  14.613   5.205 -0.1659  0.0048  0.0051
    1DPPC   C1B  141  27.203  14.436   6.410 -0.4454 -0.1819  0.1518
    1DPPC   C2B  142  27.265  14.398   6.007  0.0765  0.2959  0.0929
    1DPPC   C3B  143  27.250  14.378   5.598  0.0769  0.0259 -0.0533
    1DPPC   C4B  144  27.397  14.372   5.291 -0.4320 -0.0256  0.1626
    1DPPC   NC3  145  16.143  13.374   7.618 -0.0415  0.2307  0.4784
    1DPPC   PO4  146  16.592  13.451   7.356  0.1763  0.0856  0.1282
    1DPPC   GL1  147  16.593  13.456   6.959  0.1916 -0.3028 -0.3309
    1DPPC   GL2  148  16.461  13.283   6.815  0.1950 -0.0695  0.0711
    1DPPC   C1A  149  16.572  13.717   6.555 -0.1324  0.0209 -0.0326
    1DPPC   C2A  150  16.673  13.767   6.013  0.1463  0.1992 -0.1341
    1DPPC   C3A  151  16.627  13.734   5.583  0.1610  0.0542  0.1975
    1DPPC   C4A  152  16.547  13.764   5.156  0.0458  0.0641  0.0349
    1DPPC   C1B  153  16.426  13.238   6.423 -0.0094 -0.1192 -0.0167
    1DPPC   C2B  154  16.515  13.268   6.042  0.0423  0.0487 -0.0418
    1DPPC   C3B  155  16.654  13.158   5.637  0.2331  0.1322  0.1761
    1DPPC   C4B  156  16.701  13.296   5.206  0.1032  0.1580  0.0344
    1DPPC   NC3  157  20.693   6.181   7.749  0.2182 -0.0123 -0.1933
    1DPPC   PO4  158  20.866   6.166   7.300 -0.0558 -0.0731 -0.2080
    1DPPC   GL1  159  20.785   6.073   6.787 -0.0931  0.1744 -0.0522
    1DPPC   GL2  160  20.534   5.753   6.770 -0.0249  0.0340 -0.0292
    1DPPC   C1A  161  21.002   6.097   6.389  0.0829  0.3388  0.0511
    1DPPC   C2A  162  21.090   5.965   5.956 -0.0223  0.5241 -0.0128
    1DPPC   C3A  163  21.228   5.951   5.554  0.1257  0.0788 -0.0619
    1DPPC   C4A  164  21.362   5.813   5.105  0.0738 -0.0455 -0.1491
    1DPPC   C1B  165  20.744   5.521   6.427  0.0468 -0.1010  0.2438
    1DPPC   C2B  166  20.863   5.418   6.073 -0.1307 -0.0502  0.0251
    1DPPC   C3B  167  20.944   5.586   5.699  0.3325  0.1362  0.0514
    1DPPC   C4B  168  20.972   5.583   5.302 -0.0297 -0.4026  0.1430
    1DPPC   NC3  169  16.498  27.260   7.101  0.0259  0.0188  0.0219
    1DPPC   PO4  170  16.953  27.421   7.137  0.0945  0.1113  0.0856
    1DPPC   GL1  171  17.209  27.504   6.824  0.2152  0.1489 -0.0952
    1DPPC   GL2  172  17.368  27.140   6.933  0.0558 -0.1382 -0.0796
    1DPPC   C1A  173  17.405  27.826   6.496 -0.3538  0.0428 -0.1531
    1DPPC   C2A  174  17.465  27.876   6.107 -0.0553  0.2708 -0.0676
    1DPPC   C3A  175  17.538  28.058   5.643  0.0312 -0.0803  0.4217
    1DPPC   C4A  176  17.667  27.788   5.219  0.0356 -0.0384 -0.0509
    1DPPC   C1B  177  17.246  27.010   6.502 -0.2083 -0.2854  0.0175
    1DPPC   C2B  178  17.563  26.839   6.132  0.2299  0.1964 -0.1906
    1DPPC   C3B  179  17.764  26.782   5.748  0.1947 -0.1545 -0.0532
    1DPPC   C4B  180  17.868  26.503   5.478 -0.5018 -0.1898  0.1600
    1DPPC   NC3  181   1.833   7.348   6.405  0.0675 -0.0765  0.1280
    1DPPC   PO4  182   1.855   7.234   5.949  0.0125  0.0744 -0.0045
    1DPPC   GL1  183   1.822   7.356   5.480  0.3034 -0.1252 -0.0842
    1DPPC   GL2  184   2.041   7.599   5.207  0.1531 -0.0026 -0.0583
    1DPPC   C1A  185   1.664   7.186   5.190  0.4466 -0.1951 -0.0895
    1DPPC   C2A  186   1.403   6.912   4.868 -0.1111 -0.1044 -0.3180
    1DPPC   C3A  187   1.523   6.786   4.505 -0.2164 -0.2281 -0.1278
    1DPPC   C4A  188   1.347   6.944   4.126  0.0587 -0.2479 -0.1479
    1DPPC   C1B  189   2.413   7.758   4.976 -0.0515 -0.0689 -0.0683
    1DPPC   C2B  190   2.410   7.906   4.565 -0.0067 -0.1699  0.0899
    1DPPC   C3B  191   2.380   7.961   4.109  0.2174 -0.2782  0.1610
    1DPPC   C4B  192   2.428   8.259   3.786 -0.0579  0.0787 -0.0248
    1DPPC   NC3  193  21.847   2.585   7.040 -0.3675  0.1004 -0.0403
    1DPPC   PO4  194  21.767   2.953   6.851  0.0384 -0.1400 -0.1932
    1DPPC   GL1  195  21.800   2.843   6.511 -0.3507  0.1637 -0.1278
    1DPPC   GL2  196  22.174   2.667   6.627 -0.3155 -0.1006 -0.0469
    1DPPC   C1A  197  21.949   2.820   6.045  0.0619  0.2517  0.2993
    1DPPC   C2A  198  21.815   2.763   5.551  0.0796  0.1684 -0.2274
    1DPPC   C3A  199  21.969   2.611   5.160 -0.0537  0.2266  0.1626
    1DPPC   C4A  200  22.154   2.429   4.857 -0.0813  0.0176  0.0491
    1DPPC   C1B  201  22.431   2.624   6.189 -0.0484  0.0058 -0.4121
    1DPPC   C2B  202  22.709   2.530   5.929  0.0155 -0.0404  0.0580
    1DPPC   C3B  203  22.803   2.507   5.496 -0.1533 -0.0573 -0.1087
    1DPPC   C4B  204  22.607   2.440   5.089 -0.0639 -0.0760 -0.1345
    1DPPC   NC3  205  25.351  16.173   7.218 -0.1738 -0.2011  0.3116
    1DPPC   PO4  206  25.611  16.009   6.921  0.0442  0.0319 -0.0600
    1DPPC   GL1  207  25.788  16.050   6.498  0.1546  0.2189  0.0653
    1DPPC   GL2  208  25.999  16.299   6.389 -0.0087  0.1871 -0.1758
    1DPPC   C1A  209  25.479  15.924   6.281  0.1493 -0.0131 -0.3271
    1DPPC   C2A  210  25.272  15.819   5.890  0.1859 -0.0812  0.0295
    1DPPC   C3A  211  24.916  15.977   5.635  0.1352  0.3261  0.1896
    1DPPC   C4A  212  24.792  16.206   5.297 -0.1556  0.2090  0.1207
    1DPPC   C1B  213  26.169  16.231   5.988 -0.1624 -0.1094 -0.0709
    1DPPC   C2B  214  25.980  16.246   5.546  0.0291  0.2085 -0.2420
    1DPPC   C3B  215  25.714  16.406   5.199 -0.0637  0.0269  0.0130
    1DPPC   C4B  216  25.698  16.481   4.728 -0.1154 -0.0216  0.1675
    1DPPC   NC3  217  25.455   3.324   7.231  0.0611  0.0515 -0.3043
    1DPPC   PO4  218  25.391   3.697   7.100 -0.0146  0.1975 -0.2155
    1DPPC   GL1  219  25.327   3.791   6.779  0.0616  0.1557  0.3828
    1DPPC   GL2  220  24.977   3.868   6.777 -0.0466  0.0292 -0.3312
    1DPPC   C1A  221  25.322   3.726   6.375  0.0410 -0.1657 -0.0540
    1DPPC   C2A  222  25.191   3.671   6.056 -0.0821  0.0206 -0.2257
    1DPPC   C3A  223  25.258   3.344   5.785 -0.1694  0.0294 -0.1962
    1DPPC   C4A  224  25.036   3.247   5.453  0.2359 -0.1280 -0.1391
    1DPPC   C1B  225  24.879   3.993   6.410  0.0008  0.0645  0.1430
    1DPPC   C2B  226  24.703   3.952   5.985 -0.0488  0.0253 -0.0829
    1DPPC   C3B  227  24.907   3.740   5.620 -0.2758 -0.1480 -0.1756
    1DPPC   C4B  228  24.996   3.697   5.175  0.0579  0.0894  0.0284
    1DPPC   NC3  229  19.447   3.661   7.504  0.0496 -0.0053 -0.1550
    1DPPC   PO4  230  19.554   3.507   7.105 -0.1533 -0.0106  0.2270
    1DPPC   GL1  231  19.379   3.622   6.640 -0.5926  0.1885 -0.2497
    1DPPC   GL2  232  19.265   3.953   6.642  0.1053  0.1896 -0.1563
    1DPPC   C1A  233  19.414   3.513   6.105 -0.1399  0.1403  0.1454
    1DPPC   C2A  234  19.314   3.717   5.734 -0.3330  0.2863 -0.2762
    1DPPC   C3A  235  19.154   4.141   5.632 -0.1512  0.2968 -0.1082
    1DPPC   C4A  236  19.123   4.193   5.222 -0.0804  0.1618 -0.2777
    1DPPC   C1B  237  19.200   3.979   6.212 -0.0294 -0.2722 -0.1279
    1DPPC   C2B  238  18.845   3.938   5.956  0.0059  0.1479  0.1519
    1DPPC   C3B  239  18.815   3.795   5.552 -0.0342  0.0318  0.1447
    1DPPC   C4B  240  18.830   3.703   5.130  0.2537  0.0692 -0.0929
    1DPPC   NC3  241   4.414  12.167   6.170 -0.0461 -0.0161  0.1705
    1DPPC   PO4  242   4.051  12.507   6.316 -0.0021  0.2882 -0.2667
    1DPPC   GL1  243   3.902  12.368   5.915 -0.2218  0.0728 -0.2222
    1DPPC   GL2  244   3.549  12.338   5.772 -0.1108  0.0005 -0.0558
    1DPPC   C1A  245   3.892  12.644   5.490 -0.0998  0.0740  0.0422
    1DPPC   C2A  246   3.749  12.704   5.107 -0.1039  0.3606  0.1261
    1DPPC   C3A  247   4.086  12.649   4.734  0.1545 -0.0863  0.1058
    1DPPC   C4A  248   4.263  12.676   4.415  0.1679  0.0715  0.2222
    1DPPC   C1B  249   3.400  12.513   5.426  0.0375 -0.2205  0.3763
    1DPPC   C2B  250   3.307  12.636   4.935  0.3889 -0.1673 -0.3521
    1DPPC   C3B  251   3.274  12.511   4.422 -0.0536 -0.0972 -0.2185
    1DPPC   C4B  252   3.377  12.536   3.934 -0.1517  0.1654  0.0705
    1DPPC   NC3  253  21.792  13.415   7.107  0.0193  0.0288  0.0552
    1DPPC   PO4  254  22.021  13.782   7.104 -0.0037 -0.0626 -0.0454
    1DPPC   GL1  255  22.220  13.728   6.711  0.0671 -0.0003  0.2401
    1DPPC   GL2  256  22.262  13.374   6.712 -0.1391 -0.1368 -0.3609
    1DPPC   C1A  257  22.234  13.884   6.331  0.0245 -0.3948  0.0137
    1DPPC   C2A  258  22.196  14.078   6.018  0.0680 -0.4003  0.1109
    1DPPC   C3A  259  22.042  14.229   5.629 -0.0842  0.4287  0.4280
    1DPPC   C4A  260  22.210  14.288   5.287  0.1768 -0.1438  0.2692
    1DPPC   C1B  261  22.372  13.411   6.324  0.0740  0.7212 -0.1190
    1DPPC   C2B  262  22.461  13.604   5.988 -0.1008  0.1689 -0.0578
    1DPPC   C3B  263  22.362  13.748   5.575 -0.1984 -0.0419 -0.0830
    1DPPC   C4B  264  22.187  13.383   5.286 -0.1846  0.1917 -0.0540
    1DPPC   NC3  265   7.775   1.445   6.146 -0.2344  0.0310  0.0187
    1DPPC   PO4  266   7.741   1.276   5.729  0.0613  0.0780  0.1609
    1DPPC   GL1  267   7.904   1.306   5.379  0.1267  0.0277  0.0932
    1DPPC   GL2  268   8.235   1.118   5.257  0.3050 -0.0142  0.1102
    1DPPC   C1A  269   7.825   1.243   4.937  0.2234 -0.1607 -0.0375
    1DPPC   C2A  270   7.509   1.139   4.628 -0.2658 -0.1604  0.1134
    1DPPC   C3A  271   7.487   0.875   4.236 -0.1419  0.0887  0.1764
    1DPPC   C4A  272   7.784   0.672   3.959  0.1597  0.1918 -0.0188
    1DPPC   C1B  273   8.281   1.062   4.833 -0.2195  0.0837 -0.1666
    1DPPC   C2B  274   8.581   1.011   4.596  0.2971  0.0309 -0.1049
    1DPPC   C3B  275   8.795   0.896   4.274  0.0310  0.0956  0.0680
    1DPPC   C4B  276   8.901   0.651   3.961 -0.0974 -0.3688  0.1003
    1DPPC   NC3  277  16.929  14.830   7.619  0.3200  0.2787  0.3857
    1DPPC   PO4  278  16.804  15.132   7.335  0.0308  0.3158  0.0813
    1DPPC   GL1  279  16.851  15.167   6.887  0.0507  0.1167  0.2470
    1DPPC   GL2  280  16.995  15.380   6.731  0.2135  0.2018 -0.0900
    1DPPC   C1A  281  16.503  15.109   6.557 -0.0450 -0.0671 -0.1576
    1DPPC   C2A  282  16.473  15.062   6.150  0.0286 -0.0863  0.1326
    1DPPC   C3A  283  16.579  14.969   5.682 -0.0427  0.2435  0.0741
    1DPPC   C4A  284  16.561  14.861   5.259 -0.0744 -0.1103  0.1164
    1DPPC   C1B  285  17.172  15.641   6.493  0.1978  0.1230  0.0274
    1DPPC   C2B  286  17.429  15.654   6.127  0.0060 -0.1327  0.1135
    1DPPC   C3B  287  17.528  15.603   5.727 -0.0716 -0.0756  0.0001
    1DPPC   C4B  288  17.641  15.768   5.368 -0.2510 -0.1975 -0.1200
    1DPPC   NC3  289  20.276   7.150   7.441 -0.1246  0.2878  0.0297
    1DPPC   PO4  290  20.179   6.694   7.189  0.0034  0.0681  0.0647
    1DPPC   GL1  291  20.158   6.673   6.677  0.1536  0.2809 -0.2317
    1DPPC   GL2  292  20.354   6.455   6.498  0.2603 -0.0408 -0.1009
    1DPPC   C1A  293  20.074   6.744   6.190  0.0411 -0.2033 -0.0006
    1DPPC   C2A  294  19.937   6.728   5.735  0.0393  0.0896  0.1076
    1DPPC   C3A  295  19.891   6.576   5.278  0.0626 -0.1030  0.1854
    1DPPC   C4A  296  20.046   6.624   4.820  0.0782  0.3517  0.0853
    1DPPC   C1B  297  20.494   6.034   6.364  0.0250 -0.1267  0.0698
    1DPPC   C2B  298  20.485   5.834   5.971  0.3314 -0.3600  0.3049
    1DPPC   C3B  299  20.100   5.702   5.771 -0.0452  0.0270 -0.0840
    1DPPC   C4B  300  19.764   5.733   5.640 -0.1433 -0.0168  0.1489
    1DPPC   NC3  301  28.129   5.797   6.219 -0.0058  0.2716  0.3206
    1DPPC   PO4  302  28.317   5.433   6.050 -0.0754  0.1058 -0.1425
    1DPPC   GL1  303  28.027   5.501   5.721  0.1930 -0.0418  0.0562
    1DPPC   GL2  304  27.722   5.266   5.767  0.0672 -0.4035  0.0701
    1DPPC   C1A  305  28.126   5.662   5.375  0.1833  0.0359  0.0305
    1DPPC   C2A  306  28.150   5.579   4.975  0.0022  0.2071  0.0380
    1DPPC   C3A  307  28.352   5.768   4.528 -0.2679 -0.3635 -0.4034
    1DPPC   C4A  308  28.560   5.704   4.135 -0.0146 -0.1935 -0.1012
    1DPPC   C1B  309  27.562   5.579   5.484 -0.2170 -0.0520  0.4673
    1DPPC   C2B  310  27.563   5.608   4.926  0.1051  0.0891  0.1745
    1DPPC   C3B  311  27.342   5.593   4.553 -0.1492  0.1031  0.0053
    1DPPC   C4B  312  27.294   5.832   4.184 -0.0151  0.2707 -0.0250
    1DPPC   NC3  313  26.067   2.277   7.135  0.0262  0.0557 -0.0171
    1DPPC   PO4  314  26.289   2.135   6.753  0.1027  0.0879  0.2636
    1DPPC   GL1  315  26.416   1.877   6.394  0.1625  0.0614  0.1070
    1DPPC   GL2  316  26.575   1.717   6.410  0.6676 -0.2521  0.0405
    1DPPC   C1A  317  26.305   1.709   5.929 -0.1189 -0.1953 -0.0410
    1DPPC   C2A  318  26.110   1.634   5.573  0.0239 -0.1721  0.2625
    1DPPC   C3A  319  25.817   1.619   5.311  0.1815 -0.0379  0.2195
    1DPPC   C4A  320  25.814   1.739   4.835  0.0870  0.0199  0.2264
    1DPPC   C1B  321  26.777   1.951   6.028 -0.4883 -0.1175  0.1993
    1DPPC   C2B  322  26.700   1.770   5.502  0.0285  0.0289 -0.0715
    1DPPC   C3B  323  26.805   1.989   5.154  0.0011  0.1475  0.0317
    1DPPC   C4B  324  26.944   2.383   4.848  0.1606  0.3564  0.0624
    1DPPC   NC3  325  19.081  14.677   7.370  0.2424 -0.1484  0.1483
    1DPPC   PO4  326  19.442  14.933   7.291 -0.0236  0.1062 -0.0242
    1DPPC   GL1  327  19.459  14.730   6.936  0.1565  0.4885 -0.2401
    1DPPC   GL2  328  19.234  14.545   6.935  0.1055  0.0252  0.4360
    1DPPC   C1A  329  19.414  14.857   6.533  0.1466 -0.0339  0.0006
    1DPPC   C2A  330  19.457  14.939   6.080 -0.2619  0.0655 -0.4431
    1DPPC   C3A  331  19.427  14.914   5.716  0.0136  0.1579  0.2166
    1DPPC   C4A  332  19.634  14.811   5.390 -0.1584  0.1421 -0.0492
    1DPPC   C1B  333  18.927  14.523   6.594  0.1662  0.0394 -0.1268
    1DPPC   C2B  334  18.993  14.551   6.213  0.0470 -0.2329 -0.3950
    1DPPC   C3B  335  19.036  14.578   5.897 -0.0525  0.5821  0.1048
    1DPPC   C4B  336  18.970  14.519   5.441  0.1953 -0.0354  0.1107
    1DPPC   NC3  337  19.204   6.423   7.071  0.1129  0.0937  0.0457
    1DPPC   PO4  338  19.036   6.553   6.590 -0.1483 -0.0001  0.3390
    1DPPC   GL1  339  18.973   6.693   6.090  0.0631 -0.1276  0.2841
    1DPPC   GL2  340  18.806   6.953   5.998 -0.1041 -0.0490  0.2219
    1DPPC   C1A  341  19.206   6.719   5.741 -0.0236  0.1048  0.0300
    1DPPC   C2A  342  19.409   6.695   5.339  0.1706  0.3382 -0.1986
    1DPPC   C3A  343  19.480   6.539   4.923  0.0344 -0.2939  0.0862
    1DPPC   C4A  344  19.721   6.240   4.750  0.4377 -0.1349 -0.1599
    1DPPC   C1B  345  18.724   6.801   5.633  0.0024  0.0470 -0.1583
    1DPPC   C2B  346  18.877   6.704   5.134 -0.0557 -0.1724  0.1036
    1DPPC   C3B  347  19.032   6.587   4.768 -0.2177  0.2723  0.1423
    1DPPC   C4B  348  19.310   6.762   4.476  0.0051 -0.0024 -0.0417
    1DPPC   NC3  349  29.577   6.482   5.955  0.0595 -0.2265  0.1621
    1DPPC   PO4  350  29.546   6.950   5.964 -0.0002  0.1234  0.2440
    1DPPC   GL1  351  29.399   7.085   5.569  0.1115 -0.1780 -0.0286
    1DPPC   GL2  352  29.611   7.365   5.512  0.0773  0.2422  0.1070
    1DPPC   C1A  353  29.238   7.318   5.179  0.0441  0.3010 -0.2442
    1DPPC   C2A  354  29.189   7.368   4.781  0.1066 -0.0721  0.3123
    1DPPC   C3A  355  29.226   7.338   4.377 -0.0736 -0.0420 -0.1314
    1DPPC   C4A  356  29.084   7.545   4.069 -0.1185  0.2326 -0.0261
    1DPPC   C1B  357   0.084   7.402   5.101  0.2582 -0.3147 -0.0789
    1DPPC   C2B  358   0.055   7.444   4.670  0.0649 -0.0779 -0.0035
    1DPPC   C3B  359   0.015   7.410   4.150 -0.1372  0.1042  0.0209
    1DPPC   C4B  360   0.192   7.329   3.755 -0.2782 -0.0057  0.3088
    1DPPC   NC3  361  29.494  15.557   7.239 -0.0439  0.0316  0.1002
    1DPPC   PO4  362   0.279  15.266   7.077 -0.2223  0.3241 -0.0398
    1DPPC   GL1  363   0.106  15.278   6.698 -0.2503  0.0358  0.1686
    1DPPC   GL2  364  29.453  15.368   6.776 -0.1460  0.1256 -0.2703
    1DPPC   C1A  365   0.190  15.124   6.177 -0.3334 -0.0244 -0.3070
    1DPPC   C2A  366   0.145  15.140   5.776 -0.2455  0.3720 -0.2478
    1DPPC   C3A  367   0.166  15.220   5.310 -0.1399  0.3068 -0.0564
    1DPPC   C4A  368   0.228  15.160   4.831  0.2585  0.1720  0.1548
    1DPPC   C1B  369  29.342  15.250   6.423  0.0366  0.0178 -0.2794
    1DPPC   C2B  370  29.171  15.098   6.126  0.1533 -0.2541 -0.1677
    1DPPC   C3B  371  29.205  15.197   5.673  0.0598 -0.0666 -0.0683
    1DPPC   C4B  372  29.295  15.393   5.222  0.4387  0.1242 -0.1244
    1DPPC   NC3  373  18.196  13.429   7.411 -0.0969  0.0589 -0.1619
    1DPPC   PO4  374  18.264  13.695   7.210 -0.3509 -0.0935 -0.1552
    1DPPC   GL1  375  18.286  13.744   6.808  0.0489  0.2414 -0.4915
    1DPPC   GL2  376  18.639  13.692   6.748 -0.1646 -0.1549  0.1599
    1DPPC   C1A  377  18.354  13.793   6.322 -0.0157 -0.2759  0.2150
    1DPPC   C2A  378  18.145  13.745   5.926  0.1210  0.0024  0.0884
    1DPPC   C3A  379  18.041  13.682   5.460 -0.0139  0.2051 -0.1069
    1DPPC   C4A  380  17.974  13.845   5.131  0.1480  0.1787 -0.0662
    1DPPC   C1B  381  18.684  13.443   6.381 -0.0510 -0.3539  0.0303
    1DPPC   C2B  382  18.547  13.491   5.919  0.0306 -0.2915 -0.2373
    1DPPC   C3B  383  18.589  13.573   5.485  0.0727 -0.0579  0.0446
    1DPPC   C4B  384  18.386  13.508   5.056 -0.1626  0.1402 -0.3896
    1DPPC   NC3  385   5.668  17.304   6.691  0.1737 -0.2889 -0.0582
    1DPPC   PO4  386   5.557  16.827   6.448  0.2796  0.0580  0.2327
    1DPPC   GL1  387   5.352  16.888   6.116 -0.0000 -0.1860 -0.0324
    1DPPC   GL2  388   5.665  16.951   5.945  0.1506  0.2783  0.0071
    1DPPC   C1A  389   5.221  16.626   5.784 -0.1671  0.1128  0.0209
    1DPPC   C2A  390   5.421  16.381   5.464  0.2365  0.0311 -0.1036
    1DPPC   C3A  391   5.216  16.377   5.009  0.1406 -0.2608  0.0178
    1DPPC   C4A  392   5.393  16.043   4.597  0.1305  0.0303  0.3564
    1DPPC   C1B  393   5.624  16.906   5.440 -0.1901 -0.0578 -0.1298
    1DPPC   C2B  394   5.543  16.786   5.098 -0.1040  0.0570 -0.1100
    1DPPC   C3B  395   5.304  16.815   4.691  0.0102  0.0737 -0.1225
    1DPPC   C4B  396   5.147  17.011   4.386 -0.0691 -0.1660  0.0277
    1DPPC   NC3  397  17.856  25.336   7.055  0.2085 -0.1043  0.0306
    1DPPC   PO4  398  18.303  25.110   7.199  0.2166 -0.1877 -0.0442
    1DPPC   GL1  399  18.438  25.384   6.930  0.0606 -0.0877 -0.2356
    1DPPC   GL2  400  18.601  25.101   6.806  0.1495 -0.1444 -0.1061
    1DPPC   C1A  401  18.668  25.528   6.590 -0.1752  0.2519  0.2274
    1DPPC   C2A  402  18.884  25.484   6.241 -0.2839  0.1490  0.1179
    1DPPC   C3A  403  18.528  25.607   5.914 -0.2526  0.2118 -0.2647
    1DPPC   C4A  404  18.137  25.711   5.997 -0.1568  0.1082 -0.0328
    1DPPC   C1B  405  18.652  25.001   6.463 -0.4431 -0.1369  0.1994
    1DPPC   C2B  406  18.747  25.076   5.925  0.2270 -0.0017 -0.1553
    1DPPC   C3B  407  18.847  25.192   5.482 -0.0539 -0.2935  0.0315
    1DPPC   C4B  408  18.545  25.379   5.122 -0.1057  0.0351  0.0571
    1DPPC   NC3  409  17.824  13.894   7.509  0.0853  0.1103  0.1682
    1DPPC   PO4  410  17.605  14.316   7.600 -0.0715 -0.4759  0.3086
    1DPPC   GL1  411  17.604  14.052   7.063  0.0936  0.1911 -0.0727
    1DPPC   GL2  412  17.411  13.780   6.978 -0.0315  0.0733  0.0319
    1DPPC   C1A  413  17.528  14.163   6.674 -0.1137  0.4122  0.2081
    1DPPC   C2A  414  17.384  14.172   6.313 -0.1752  0.1887  0.0587
    1DPPC   C3A  415  17.432  14.266   5.864 -0.3058  0.0928 -0.0388
    1DPPC   C4A  416  17.394  14.357   5.432 -0.0432 -0.1014 -0.0290
    1DPPC   C1B  417  17.112  13.812   6.533 -0.4536  0.3512  0.0463
    1DPPC   C2B  418  17.205  13.721   6.125 -0.2847 -0.3297 -0.2410
    1DPPC   C3B  419  17.148  13.640   5.830 -0.2724 -0.0410  0.1249
    1DPPC   C4B  420  17.026  13.482   5.540 -0.2931 -0.1364 -0.0825
    1DPPC   NC3  421  23.960  12.460   7.171 -0.3402 -0.0662  0.0437
    1DPPC   PO4  422  24.088  12.838   6.901  0.0356  0.0610  0.2272
    1DPPC   GL1  423  23.858  12.664   6.529  0.0003 -0.1278  0.1398
    1DPPC   GL2  424  23.897  12.384   6.654 -0.0449 -0.1905  0.0397
    1DPPC   C1A  425  23.574  12.570   6.237 -0.1223  0.0374  0.0751
    1DPPC   C2A  426  23.607  12.514   5.844  0.0013  0.0861 -0.0939
    1DPPC   C3A  427  23.813  12.534   5.447  0.1947 -0.1912 -0.5066
    1DPPC   C4A  428  23.787  12.692   5.085  0.1375 -0.4638 -0.0717
    1DPPC   C1B  429  23.943  12.269   6.182 -0.1434  0.4042  0.3210
    1DPPC   C2B  430  23.923  12.151   5.755  0.0909  0.2003  0.3732
    1DPPC   C3B  431  23.720  11.998   5.441  0.1987  0.0016 -0.3318
    1DPPC   C4B  432  23.629  11.872   5.095  0.2519  0.0302  0.1238
    1DPPC   NC3  433  15.970  20.125   6.669 -0.0387  0.0845 -0.0072
    1DPPC   PO4  434  16.224  19.802   6.532  0.1002  0.1363 -0.2425
    1DPPC   GL1  435  16.494  20.013   6.208  0.0381  0.2059  0.0389
    1DPPC   GL2  436  16.370  20.348   6.412  0.0967  0.2624 -0.1865
    1DPPC   C1A  437  16.647  20.023   5.764 -0.0349 -0.0264 -0.0845
    1DPPC   C2A  438  16.720  20.033   5.326 -0.1469 -0.7155 -0.0635
    1DPPC   C3A  439  16.383  19.987   4.950 -0.2857  0.2111 -0.0225
    1DPPC   C4A  440  16.211  19.719   4.770  0.1935 -0.1854 -0.2755
    1DPPC   C1B  441  16.172  20.351   5.943 -0.3008  0.1689  0.1802
    1DPPC   C2B  442  16.170  20.135   5.603  0.2582  0.1509  0.0749
    1DPPC   C3B  443  16.132  19.751   5.373 -0.0715 -0.2089  0.0678
    1DPPC   C4B  444  16.126  19.260   5.080  0.1330 -0.0171  0.0968
    1DPPC   NC3  445  16.091  14.620   7.208 -0.0725 -0.0179 -0.0523
    1DPPC   PO4  446  15.910  14.410   6.774  0.1698  0.1916  0.0926
    1DPPC   GL1  447  15.721  14.383   6.471  0.2492 -0.3491 -0.2639
    1DPPC   GL2  448  15.792  14.658   6.313  0.0120 -0.0005 -0.0876
    1DPPC   C1A  449  15.757  14.177   6.101 -0.0943 -0.2975  0.0263
    1DPPC   C2A  450  15.807  14.296   5.731 -0.1814  0.1168 -0.2226
    1DPPC   C3A  451  15.822  14.319   5.235  0.2807  0.2507  0.1201
    1DPPC   C4A  452  15.652  14.143   4.861  0.0922  0.0566 -0.0226
    1DPPC   C1B  453  16.118  14.713   6.034  0.0750  0.0802  0.1787
    1DPPC   C2B  454  16.154  14.666   5.527  0.0778 -0.3281 -0.0432
    1DPPC   C3B  455  16.082  14.718   5.185  0.2513  0.1227 -0.0432
    1DPPC   C4B  456  15.971  14.534   4.784 -0.0369  0.0268 -0.2094
    1DPPC   NC3  457  22.073   5.729   7.133 -0.1284 -0.0079 -0.3021
    1DPPC   PO4  458  21.873   6.108   7.310  0.0475 -0.2504 -0.2370
    1DPPC   GL1  459  21.825   6.143   6.866 -0.0026 -0.0377 -0.1618
    1DPPC   GL2  460  22.037   6.421   6.670 -0.0577  0.0799 -0.2371
    1DPPC   C1A  461  21.640   5.995   6.358 -0.0995 -0.0863 -0.3068
    1DPPC   C2A  462  21.788   6.025   5.958 -0.1250 -0.2287  0.0705
    1DPPC   C3A  463  21.726   5.952   5.513  0.2274  0.1565 -0.0330
    1DPPC   C4A  464  21.830   5.734   5.188  0.1247  0.1300 -0.3503
    1DPPC   C1B  465  21.914   6.450   6.167  0.2070 -0.3274 -0.1441
    1DPPC   C2B  466  21.917   6.507   5.708  0.3289 -0.1962 -0.1404
    1DPPC   C3B  467  21.921   6.676   5.243  0.2857  0.1058 -0.0873
    1DPPC   C4B  468  21.735   6.606   4.870  0.1156 -0.0725 -0.1002
    1DPPC   NC3  469   1.137   9.336   6.561  0.1256  0.1124  0.0117
    1DPPC   PO4  470   1.047   9.544   6.065  0.3398 -0.0191 -0.0901
    1DPPC   GL1  471   0.924   9.590   5.669 -0.1090  0.1258  0.1373
    1DPPC   GL2  472   0.763   9.342   5.573 -0.1105 -0.1092  0.1401
    1DPPC   C1A  473   0.957   9.855   5.327 -0.1891  0.1355 -0.0625
    1DPPC   C2A  474   0.921  10.134   4.912 -0.0625 -0.1513  0.0654
    1DPPC   C3A  475   0.666  10.425   4.882  0.0676 -0.0791 -0.1889
    1DPPC   C4A  476   0.465  10.704   5.170  0.0477 -0.1281 -0.2692
    1DPPC   C1B  477   0.670   9.477   5.155  0.2488  0.1431 -0.1276
    1DPPC   C2B  478   0.538   9.858   4.801 -0.0919 -0.0416  0.1472
    1DPPC   C3B  479   0.499   9.810   4.385 -0.2229 -0.1897 -0.0799
    1DPPC   C4B  480   0.490   9.546   3.996 -0.0863  0.0244 -0.0134
    1DPPC   NC3  481  21.658  16.188   7.414  0.1177 -0.0303  0.1015
    1DPPC   PO4  482  21.971  16.541   7.198  0.0854 -0.0002 -0.1521
    1DPPC   GL1  483  21.851  16.240   6.921 -0.1831  0.0460  0.0721
    1DPPC   GL2  484  21.884  15.927   7.029 -0.1764  0.0648  0.2667
    1DPPC   C1A  485  21.896  16.285   6.532  0.1163 -0.2212  0.2295
    1DPPC   C2A  486  21.862  16.226   6.131  0.0293 -0.1595 -0.2270
    1DPPC   C3A  487  21.703  16.364   5.836 -0.1949 -0.0590  0.1664
    1DPPC   C4A  488  21.628  16.189   5.396  0.1580 -0.4456  0.0083
    1DPPC   C1B  489  22.036  15.661   6.764 -0.1246  0.0899 -0.0341
    1DPPC   C2B  490  22.128  15.431   6.402  0.1629 -0.2781  0.1068
    1DPPC   C3B  491  21.985  15.527   6.074 -0.0634 -0.0368 -0.0717
    1DPPC   C4B  492  21.792  15.792   5.829 -0.0388 -0.2182 -0.2854
    1DPPC   NC3  493  22.598   9.008   7.027  0.3738  0.1402 -0.3627
    1DPPC   PO4  494  22.099   8.971   7.011  0.1302 -0.2471 -0.2267
    1DPPC   GL1  495  22.293   8.939   6.604  0.2102 -0.2202  0.3132
    1DPPC   GL2  496  22.553   8.736   6.575 -0.0318  0.2415  0.0595
    1DPPC   C1A  497  22.305   9.005   6.202  0.0486  0.0571 -0.1590
    1DPPC   C2A  498  22.290   8.912   5.756  0.1281  0.3254 -0.0269
    1DPPC   C3A  499  22.606   8.836   5.411  0.0976  0.0539  0.3691
    1DPPC   C4A  500  22.627   8.866   4.960  0.0051  0.0622 -0.0352
    1DPPC   C1B  501  22.489   8.539   6.122  0.0200 -0.2381 -0.0851
    1DPPC   C2B  502  22.586   8.489   5.764  0.3474  0.0053 -0.1278
    1DPPC   C3B  503  22.743   8.335   5.348  0.0991 -0.3265 -0.2103
    1DPPC   C4B  504  22.957   8.503   5.022  0.0230  0.0728  0.1510
    1DPPC   NC3  505  18.697  14.225   7.910 -0.0468 -0.1418 -0.3610
    1DPPC   PO4  506  18.685  14.298   7.481  0.2651  0.0963  0.1839
    1DPPC   GL1  507  18.731  14.318   7.032 -0.2786 -0.0660 -0.2845
    1DPPC   GL2  508  18.579  14.647   6.924 -0.1703 -0.0282  0.3712
    1DPPC   C1A  509  18.556  14.169   6.736  0.5438 -0.1615  0.1542
    1DPPC   C2A  510  18.543  14.240   6.386 -0.1807 -0.0369  0.3607
    1DPPC   C3A  511  18.407  14.240   6.032 -0.1435 -0.0417 -0.3519
    1DPPC   C4A  512  18.420  14.072   5.623 -0.2615  0.0226 -0.2881
    1DPPC   C1B  513  18.504  14.779   6.459  0.4483  0.0792  0.1053
    1DPPC   C2B  514  18.546  14.775   6.022  0.1163 -0.2385 -0.0236
    1DPPC   C3B  515  18.499  14.547   5.591 -0.1163 -0.3558 -0.0612
    1DPPC   C4B  516  18.319  14.472   5.285 -0.0910  0.5495  0.0309
    1DPPC   NC3  517  25.752  10.809   7.146  0.0446  0.0037  0.2054
    1DPPC   PO4  518  25.563  10.438   7.314 -0.2629  0.2255 -0.2582
    1DPPC   GL1  519  25.414  10.545   6.885  0.1736  0.2602 -0.3595
    1DPPC   GL2  520  25.650  10.508   6.749 -0.0299  0.0233 -0.2320
    1DPPC   C1A  521  25.184  10.607   6.422  0.1307  0.4057 -0.0987
    1DPPC   C2A  522  25.062  10.629   5.997 -0.0327 -0.2151 -0.1459
    1DPPC   C3A  523  24.992  10.458   5.597 -0.1204 -0.1794 -0.1491
    1DPPC   C4A  524  25.075  10.428   5.157  0.0560  0.0136 -0.0141
    1DPPC   C1B  525  25.561  10.298   6.342 -0.0273  0.0712 -0.3952
    1DPPC   C2B  526  25.381  10.278   5.861 -0.1592 -0.1335  0.1078
    1DPPC   C3B  527  25.490  10.293   5.465  0.2124 -0.0506  0.0828
    1DPPC   C4B  528  25.491  10.218   5.066 -0.1586 -0.1555 -0.1184
    1DPPC   NC3  529  25.138   7.151   6.963 -0.1045 -0.1088  0.1853
    1DPPC   PO4  530  25.546   7.018   6.824 -0.1265  0.0265 -0.2732
    1DPPC   GL1  531  25.401   7.306   6.522 -0.8875  0.1289  0.0627
    1DPPC   GL2  532  25.494   7.281   6.265  0.1832 -0.0533 -0.0283
    1DPPC   C1A  533  25.079   7.544   6.252  0.1465 -0.1712  0.0948
    1DPPC   C2A  534  25.081   7.780   5.796  0.0982  0.2759  0.0140
    1DPPC   C3A  535  24.968   7.781   5.355 -0.1445  0.0589  0.3556
    1DPPC   C4A  536  24.879   7.681   4.969  0.1496  0.1275 -0.0795
    1DPPC   C1B  537  25.363   7.350   5.920 -0.1693 -0.0273  0.3233
    1DPPC   C2B  538  25.248   7.333   5.540 -0.0999 -0.0338  0.2530
    1DPPC   C3B  539  25.299   7.334   5.133  0.2159 -0.1341  0.0442
    1DPPC   C4B  540  25.178   7.352   4.717 -0.0354  0.1681  0.0610
    1DPPC   NC3  541  25.838  11.731   7.035  0.2747  0.0915 -0.0695
    1DPPC   PO4  542  25.573  11.425   7.190  0.0895  0.1490 -0.0346
    1DPPC   GL1  543  25.347  11.543   6.826  0.2338  0.3481  0.0880
    1DPPC   GL2  544  25.242  11.878   6.769  0.0430 -0.1566 -0.2644
    1DPPC   C1A  545  25.215  11.492   6.434 -0.0090 -0.0635  0.0068
    1DPPC   C2A  546  25.289  11.514   6.081  0.1031  0.1261 -0.1681
    1DPPC   C3A  547  25.317  11.490   5.669  0.1440  0.0806  0.3357
    1DPPC   C4A  548  25.369  11.374   5.257 -0.0820  0.1062 -0.0698
    1DPPC   C1B  549  25.067  11.964   6.430 -0.1475 -0.0625  0.2967
    1DPPC   C2B  550  25.047  11.973   6.008  0.2385 -0.1677 -0.0244
    1DPPC   C3B  551  25.060  11.895   5.541  0.1910  0.1995 -0.0416
    1DPPC   C4B  552  25.270  11.820   5.226  0.1461 -0.3360 -0.2023
    1DPPC   NC3  553  21.274  10.227   6.983 -0.0084  0.1595  0.0746
    1DPPC   PO4  554  21.350  10.689   6.887  0.1181  0.1216 -0.1582
    1DPPC   GL1  555  21.175  10.572   6.461 -0.2837 -0.2366 -0.1819
    1DPPC   GL2  556  20.844  10.516   6.518 -0.0441 -0.0092  0.2138
    1DPPC   C1A  557  21.222  10.822   6.095  0.0720 -0.2764 -0.0455
    1DPPC   C2A  558  21.146  10.696   5.684 -0.0098  0.0592 -0.0274
    1DPPC   C3A  559  21.114  10.541   5.346 -0.0242 -0.3668  0.1342
    1DPPC   C4A  560  21.126  10.484   4.942  0.0537  0.0795 -0.2113
    1DPPC   C1B  561  20.917  10.412   6.036  0.1064  0.0630 -0.2385
    1DPPC   C2B  562  20.851  10.208   5.717 -0.3808 -0.2055  0.0137
    1DPPC   C3B  563  20.889  10.091   5.263  0.0318 -0.0702 -0.0914
    1DPPC   C4B  564  20.842  10.064   4.865 -0.0642  0.0471  0.0312
    1DPPC   NC3  565   0.919   6.333   6.072 -0.1426 -0.4392  0.1513
    1DPPC   PO4  566   1.264   6.122   6.028  0.2427 -0.0952 -0.0548
    1DPPC   GL1  567   1.088   5.830   5.716 -0.1608  0.4414  0.1994
    1DPPC   GL2  568   0.999   5.448   5.684  0.0183  0.0770 -0.2365
    1DPPC   C1A  569   1.085   5.880   5.202  0.1366  0.0085  0.4599
    1DPPC   C2A  570   1.143   5.848   4.813  0.0130 -0.0617  0.0224
    1DPPC   C3A  571   1.257   5.871   4.421 -0.1005  0.0653  0.0253
    1DPPC   C4A  572   1.523   6.010   4.047  0.1150 -0.1408  0.0629
    1DPPC   C1B  573   0.700   5.413   5.258 -0.0954 -0.0486 -0.1864
    1DPPC   C2B  574   0.625   5.250   4.891  0.1157 -0.1460 -0.0081
    1DPPC   C3B  575   0.600   5.346   4.434  0.2219 -0.1553 -0.0423
    1DPPC   C4B  576   0.719   5.405   3.913  0.1098  0.0876 -0.0393
    1DPPC   NC3  577   0.444  16.091   7.212  0.0153  0.0353 -0.1027
    1DPPC   PO4  578   0.168  16.260   6.912 -0.1831 -0.1146  0.2132
    1DPPC   GL1  579   0.213  16.332   6.505 -0.2384  0.0201  0.1307
    1DPPC   GL2  580  29.529  16.120   6.409  0.2144  0.1731  0.0282
    1DPPC   C1A  581   0.264  16.388   6.042  0.3542  0.1071  0.1006
    1DPPC   C2A  582   0.240  16.450   5.596  0.2270  0.0184  0.1478
    1DPPC   C3A  583  29.587  16.690   5.385  0.2863 -0.0210 -0.1545
    1DPPC   C4A  584  29.562  17.060   5.210  0.1501  0.0898 -0.0861
    1DPPC   C1B  585  29.489  16.117   6.019  0.0150 -0.0102 -0.2190
    1DPPC   C2B  586  29.374  16.167   5.516 -0.0412 -0.4261 -0.0740
    1DPPC   C3B  587   0.043  16.261   5.118 -0.0413  0.0388  0.0741
    1DPPC   C4B  588   0.156  16.715   4.874  0.0596 -0.2546 -0.0990
    1DPPC   NC3  589  27.080  11.335   6.950 -0.0807  0.0373 -0.1636
    1DPPC   PO4  590  27.352  11.002   7.135  0.0313 -0.2794 -0.0812
    1DPPC   GL1  591  27.346  11.005   6.660  0.0488  0.0543 -0.1735
    1DPPC   GL2  592  27.452  11.301   6.529 -0.0055 -0.0209 -0.3843
    1DPPC   C1A  593  27.269  10.980   6.204 -0.2384  0.0490  0.1073
    1DPPC   C2A  594  27.262  10.947   5.744  0.0225  0.1860  0.0696
    1DPPC   C3A  595  27.105  10.861   5.285  0.0001  0.0758  0.0597
    1DPPC   C4A  596  27.189  10.942   4.727  0.2116 -0.1743 -0.1200
    1DPPC   C1B  597  27.514  11.384   6.124 -0.1013  0.3102 -0.2405
    1DPPC   C2B  598  27.559  11.307   5.727 -0.1304 -0.1523  0.1551
    1DPPC   C3B  599  27.545  11.222   5.266 -0.3289 -0.0494 -0.4054
    1DPPC   C4B  600  27.554  11.230   4.828  0.1778 -0.5604  0.2903
    1DPPC   NC3  601  27.495  12.398   7.146 -0.2531  0.2209  0.0169
    1DPPC   PO4  602  27.664  12.802   7.234  0.0535 -0.2709 -0.2782
    1DPPC   GL1  603  27.806  12.864   6.739  0.2142 -0.2789  0.0031
    1DPPC   GL2  604  27.913  13.050   6.597 -0.1495 -0.0822  0.1680
    1DPPC   C1A  605  27.931  12.739   6.268 -0.1643 -0.0202 -0.0204
    1DPPC   C2A  606  27.851  12.647   5.891 -0.0689  0.1655 -0.0815
    1DPPC   C3A  607  27.701  12.700   5.457 -0.2264 -0.2341  0.0309
    1DPPC   C4A  608  27.559  13.017   5.164  0.3540 -0.0956  0.0719
    1DPPC   C1B  609  27.759  13.170   6.182 -0.1372 -0.2453 -0.0343
    1DPPC   C2B  610  27.816  13.133   5.745  0.2957  0.0031 -0.3585
    1DPPC   C3B  611  27.989  13.145   5.314 -0.0398  0.1269 -0.3916
    1DPPC   C4B  612  27.914  13.247   4.873  0.0889  0.2017  0.1084
    1DPPC   NC3  613  19.857   3.116   7.262 -0.0642 -0.2249 -0.0888
    1DPPC   PO4  614  20.069   3.456   6.954  0.0520  0.0304 -0.3331
    1DPPC   GL1  615  20.039   3.612   6.549  0.0231 -0.1515 -0.1151
    1DPPC   GL2  616  19.883   3.500   6.308  0.0809 -0.1789 -0.0407
    1DPPC   C1A  617  20.336   3.847   6.328  0.0092  0.0810 -0.0969
    1DPPC   C2A  618  20.616   3.910   5.947  0.0404 -0.0913 -0.0065
    1DPPC   C3A  619  20.751   3.911   5.522 -0.1836 -0.2980 -0.1455
    1DPPC   C4A  620  20.956   3.748   5.077  0.3037 -0.2811 -0.1462
    1DPPC   C1B  621  19.822   3.718   5.953  0.1894 -0.0676  0.2262
    1DPPC   C2B  622  19.803   3.774   5.592 -0.1035  0.0408  0.1790
    1DPPC   C3B  623  19.542   3.642   5.270 -0.0284  0.0371 -0.2309
    1DPPC   C4B  624  19.386   3.703   4.919  0.1766  0.0243  0.2124
    1DPPC   NC3  625  21.251  13.745   7.680 -0.0830  0.3627  0.0021
    1DPPC   PO4  626  21.068  13.324   7.436 -0.1160 -0.1795  0.2968
    1DPPC   GL1  627  20.818  13.339   7.028  0.1329  0.2440 -0.3103
    1DPPC   GL2  628  20.582  13.577   7.010 -0.0754  0.3788 -0.1981
    1DPPC   C1A  629  20.873  13.453   6.617 -0.3341  0.2114  0.1065
    1DPPC   C2A  630  20.891  13.453   6.111 -0.1363 -0.2787  0.0279
    1DPPC   C3A  631  20.853  13.445   5.660 -0.0205  0.0328 -0.2717
    1DPPC   C4A  632  21.053  13.348   5.307 -0.2505 -0.0305  0.3176
    1DPPC   C1B  633  20.493  13.781   6.672  0.2789 -0.1117 -0.1661
    1DPPC   C2B  634  20.474  13.838   6.221 -0.0888  0.1795  0.1995
    1DPPC   C3B  635  20.368  13.838   5.823  0.1126  0.2295  0.2284
    1DPPC   C4B  636  20.154  13.943   5.510 -0.1196  0.0247  0.0064
    1DPPC   NC3  637   3.967  14.075   6.455  0.0938  0.1883 -0.3014
    1DPPC   PO4  638   4.021  14.377   6.076 -0.0751 -0.0167 -0.0513
    1DPPC   GL1  639   3.917  14.404   5.650  0.1635 -0.0794 -0.1209
    1DPPC   GL2  640   3.778  14.721   5.533  0.0286  0.2307 -0.1357
    1DPPC   C1A  641   3.894  14.240   5.207 -0.0143  0.0710  0.0291
    1DPPC   C2A  642   3.958  14.099   4.770  0.3198  0.0185 -0.1597
    1DPPC   C3A  643   4.216  14.281   4.423 -0.1291  0.1731 -0.0320
    1DPPC   C4A  644   4.583  14.371   4.218  0.2952 -0.0424  0.0456
    1DPPC   C1B  645   3.513  14.638   5.224 -0.2589 -0.1926  0.1558
    1DPPC   C2B  646   3.235  14.597   4.921  0.4400  0.3806 -0.2339
    1DPPC   C3B  647   3.170  14.570   4.491  0.0472  0.0767 -0.0900
    1DPPC   C4B  648   2.954  14.198   4.281  0.0934 -0.0488  0.0400
    1DPPC   NC3  649  22.889   5.459   6.992 -0.0692 -0.0419 -0.2137
    1DPPC   PO4  650  23.161   5.268   6.857  0.1251  0.0817  0.1147
    1DPPC   GL1  651  23.256   5.152   6.423  0.0758 -0.2603 -0.0610
    1DPPC   GL2  652  23.112   4.844   6.570  0.0860 -0.0215 -0.0193
    1DPPC   C1A  653  23.521   5.251   6.190 -0.0605  0.3729 -0.2306
    1DPPC   C2A  654  23.538   5.270   5.796  0.1072 -0.0664 -0.0485
    1DPPC   C3A  655  23.447   5.289   5.430 -0.5251  0.0405 -0.2297
    1DPPC   C4A  656  23.525   5.280   5.066  0.0486 -0.1031 -0.1185
    1DPPC   C1B  657  23.355   4.724   6.215 -0.1344 -0.1926 -0.6726
    1DPPC   C2B  658  23.398   4.670   5.825  0.2085 -0.0626  0.1214
    1DPPC   C3B  659  23.235   4.263   5.555  0.0191  0.0562 -0.2303
    1DPPC   C4B  660  23.232   4.062   5.226 -0.1979 -0.1547  0.1500
    1DPPC   NC3  661  28.048  15.967   6.846 -0.0054 -0.1575 -0.1944
    1DPPC   PO4  662  27.623  15.780   6.818 -0.2111 -0.0790 -0.0634
    1DPPC   GL1  663  27.732  15.758   6.473  0.1744 -0.1479 -0.0659
    1DPPC   GL2  664  27.930  16.096   6.369  0.1707 -0.0414  0.2587
    1DPPC   C1A  665  27.579  15.830   6.087  0.1795  0.0089 -0.1202
    1DPPC   C2A  666  27.605  15.794   5.665  0.0400  0.1254  0.1135
    1DPPC   C3A  667  27.566  15.846   5.261  0.1326 -0.0875  0.0450
    1DPPC   C4A  668  27.264  15.563   4.883  0.0575 -0.1909  0.0068
    1DPPC   C1B  669  27.960  16.138   5.895 -0.1082  0.1651  0.0281
    1DPPC   C2B  670  28.003  16.023   5.430 -0.1817 -0.0353 -0.3278
    1DPPC   C3B  671  28.156  15.932   5.100  0.3642 -0.0154 -0.1056
    1DPPC   C4B  672  28.413  16.148   4.844  0.1497 -0.0693  0.4374
    1DPPC   NC3  673  20.107  15.244   7.652 -0.1141 -0.0975 -0.0562
    1DPPC   PO4  674  19.896  14.920   7.504 -0.1423  0.2730 -0.1960
    1DPPC   GL1  675  19.911  15.048   7.088 -0.0098  0.1781  0.1437
    1DPPC   GL2  676  20.153  15.151   7.173  0.0891  0.1175  0.3785
    1DPPC   C1A  677  19.866  15.077   6.624 -0.0721 -0.1010 -0.0187
    1DPPC   C2A  678  19.815  15.277   6.170 -0.0675 -0.0915  0.1253
    1DPPC   C3A  679  19.879  15.286   5.695 -0.0875 -0.0190  0.2056
    1DPPC   C4A  680  20.030  15.254   5.319 -0.0244  0.1003  0.0602
    1DPPC   C1B  681  20.326  15.234   6.821 -0.0114  0.1103 -0.1347
    1DPPC   C2B  682  20.217  15.393   6.463  0.1562 -0.2477 -0.0795
    1DPPC   C3B  683  20.270  15.452   5.969 -0.2127  0.0393  0.3043
    1DPPC   C4B  684  20.437  15.349   5.600  0.0716  0.4101 -0.2213
    1DPPC   NC3  685  24.218  14.346   6.892  0.1301 -0.0068 -0.0628
    1DPPC   PO4  686  24.562  14.345   6.581 -0.1558 -0.3731 -0.1035
    1DPPC   GL1  687  24.566  14.440   6.222 -0.1995 -0.0134 -0.0907
    1DPPC   GL2  688  24.560  14.795   6.113  0.3799  0.0355  0.0703
    1DPPC   C1A  689  24.605  14.489   5.751 -0.2245 -0.0932 -0.0314
    1DPPC   C2A  690  24.557  14.655   5.434  0.0546  0.2936 -0.0754
    1DPPC   C3A  691  24.756  14.567   5.069  0.0099 -0.0017 -0.4025
    1DPPC   C4A  692  24.926  14.249   4.865  0.1831 -0.1762 -0.1522
    1DPPC   C1B  693  24.481  15.091   5.717 -0.1421  0.2679  0.0530
    1DPPC   C2B  694  24.262  15.073   5.296 -0.1141  0.0296  0.1076
    1DPPC   C3B  695  24.271  14.838   4.975  0.0089 -0.1130 -0.1019
    1DPPC   C4B  696  24.060  14.619   4.534 -0.1110 -0.0683  0.0919
    1DPPC   NC3  697   2.637   9.351   5.966 -0.1807  0.0884  0.0608
    1DPPC   PO4  698   2.799   9.233   5.598  0.1564  0.0315 -0.1296
    1DPPC   GL1  699   2.625   9.408   5.334  0.2437  0.1005 -0.0578
    1DPPC   GL2  700   2.344   9.570   5.354  0.3285  0.1107  0.2205
    1DPPC   C1A  701   2.715   9.456   4.907  0.1610  0.0139 -0.3580
    1DPPC   C2A  702   2.623   9.315   4.533  0.1368 -0.0766 -0.2140
    1DPPC   C3A  703   2.660   9.012   4.101 -0.0941 -0.0824  0.1535
    1DPPC   C4A  704   2.559   8.760   3.797  0.3490  0.5726 -0.0366
    1DPPC   C1B  705   2.299   9.718   4.933 -0.2868  0.3003 -0.1115
    1DPPC   C2B  706   2.313   9.660   4.492  0.1466  0.0970 -0.1126
    1DPPC   C3B  707   2.285   9.429   4.153 -0.1114  0.0364  0.1575
    1DPPC   C4B  708   2.221   9.056   3.960  0.1576  0.0142  0.1838
    1DPPC   NC3  709  23.253   8.608   7.464  0.1249 -0.1730  0.0628
    1DPPC   PO4  710  23.517   8.267   7.372 -0.2774 -0.1062  0.1726
    1DPPC   GL1  711  23.423   8.396   6.915  0.0509  0.0217 -0.2463
    1DPPC   GL2  712  23.402   8.061   6.703  0.0998 -0.1494 -0.0169
    1DPPC   C1A  713  23.559   8.586   6.603 -0.3923 -0.2510  0.2026
    1DPPC   C2A  714  23.456   8.783   6.180 -0.0255  0.0859 -0.1661
    1DPPC   C3A  715  23.524   8.966   5.789 -0.0220 -0.1223 -0.0593
    1DPPC   C4A  716  23.517   8.948   5.330  0.4392  0.0001 -0.2718
    1DPPC   C1B  717  23.556   8.196   6.303  0.3242 -0.1083 -0.0144
    1DPPC   C2B  718  23.565   8.439   5.920 -0.0461  0.0124  0.1266
    1DPPC   C3B  719  23.654   8.486   5.471  0.2898  0.0741  0.2613
    1DPPC   C4B  720  23.846   8.541   5.171  0.2299  0.1505 -0.2130
    1DPPC   NC3  721  15.723  24.468   6.921  0.2294  0.1726 -0.0385
    1DPPC   PO4  722  15.560  24.732   6.513 -0.0537  0.1677  0.2749
    1DPPC   GL1  723  15.768  24.817   6.227 -0.1626  0.0625 -0.2943
    1DPPC   GL2  724  15.944  25.044   6.225 -0.2771 -0.1389 -0.3753
    1DPPC   C1A  725  15.758  24.825   5.811  0.3184 -0.0120 -0.0751
    1DPPC   C2A  726  16.013  24.644   5.538 -0.1925  0.1755  0.0419
    1DPPC   C3A  727  16.302  24.419   5.306  0.0789  0.1465  0.1209
    1DPPC   C4A  728  16.682  24.391   5.000 -0.1250 -0.1408  0.1597
    1DPPC   C1B  729  16.242  24.698   6.030  0.3050  0.1385 -0.1325
    1DPPC   C2B  730  16.311  24.300   5.778  0.1845  0.0947  0.1339
    1DPPC   C3B  731  16.607  24.073   5.544  0.0729  0.2967  0.1616
    1DPPC   C4B  732  16.815  23.956   5.164  0.1186  0.1135 -0.3355
    1DPPC   NC3  733  25.400   4.689   6.877  0.2626  0.0232 -0.5854
    1DPPC   PO4  734  25.659   4.868   6.749 -0.0117  0.3361 -0.2870
    1DPPC   GL1  735  25.546   4.715   6.343  0.0637 -0.2493 -0.1786
    1DPPC   GL2  736  25.775   4.553   6.216  0.2048 -0.1394  0.1806
    1DPPC   C1A  737  25.385   4.765   5.953 -0.0631  0.1490  0.0151
    1DPPC   C2A  738  25.311   4.738   5.561 -0.0649 -0.0467  0.1526
    1DPPC   C3A  739  25.337   4.547   5.289  0.1592 -0.0793 -0.2675
    1DPPC   C4A  740  25.224   4.104   5.195  0.1980  0.0383  0.3770
    1DPPC   C1B  741  25.740   4.392   5.839  0.0737  0.4624 -0.2329
    1DPPC   C2B  742  25.654   4.179   5.492  0.1885  0.3791 -0.0467
    1DPPC   C3B  743  25.821   4.259   5.021  0.2384  0.1135  0.1445
    1DPPC   C4B  744  25.938   4.237   4.602  0.0877 -0.0676 -0.0020
    1DPPC   NC3  745   0.527  14.838   6.892 -0.2863 -0.0211  0.3900
    1DPPC   PO4  746   0.159  14.813   6.694  0.3311 -0.1346 -0.2727
    1DPPC   GL1  747  29.546  14.720   6.394  0.0090  0.1963  0.0905
    1DPPC   GL2  748  29.267  14.702   6.637  0.1789  0.2477  0.2938
    1DPPC   C1A  749  29.460  14.786   6.000  0.0493  0.4208  0.3505
    1DPPC   C2A  750  29.541  14.774   5.565 -0.3176 -0.3034  0.0167
    1DPPC   C3A  751  29.582  14.771   5.114 -0.0846  0.1362 -0.1648
    1DPPC   C4A  752  29.612  14.462   4.710 -0.2666  0.0685  0.2004
    1DPPC   C1B  753  29.226  14.373   6.260 -0.0977 -0.0451  0.1808
    1DPPC   C2B  754  29.083  14.426   5.968 -0.0872 -0.0798 -0.1318
    1DPPC   C3B  755  29.206  14.388   5.575  0.0680  0.2824  0.0916
    1DPPC   C4B  756  29.206  14.419   5.126 -0.2476  0.0832 -0.0420
    1DPPC   NC3  757  29.240  13.152   6.951 -0.0320 -0.2489 -0.1176
    1DPPC   PO4  758  29.220  12.674   6.977 -0.1803 -0.2084  0.0597
    1DPPC   GL1  759  29.276  12.586   6.607  0.0674  0.0144 -0.0009
    1DPPC   GL2  760  29.186  12.339   6.545 -0.0114  0.2516 -0.1011
    1DPPC   C1A  761  29.524  12.781   6.242  0.1142 -0.0278 -0.0233
    1DPPC   C2A  762  29.430  12.754   5.762 -0.0345 -0.1115  0.2732
    1DPPC   C3A  763  29.385  12.653   5.329  0.0448 -0.3844  0.0035
    1DPPC   C4A  764  29.354  12.692   4.870 -0.0704  0.2749  0.1445
    1DPPC   C1B  765  29.176  12.382   6.075  0.0087  0.2328  0.1871
    1DPPC   C2B  766  29.095  12.389   5.613  0.2646  0.1580 -0.1412
    1DPPC   C3B  767  28.864  12.453   5.182  0.0185  0.1747 -0.2361
    1DPPC   C4B  768  28.842  12.210   4.791  0.0695  0.0970 -0.0048
    1DPPC   NC3  769  22.567  13.670   7.047 -0.1153 -0.1929 -0.1360
    1DPPC   PO4  770  22.552  13.226   7.070  0.0122 -0.1868 -0.2917
    1DPPC   GL1  771  22.749  13.340   6.718  0.1918  0.2792 -0.0742
    1DPPC   GL2  772  23.140  13.292   6.606 -0.1011 -0.1248 -0.1472
    1DPPC   C1A  773  22.768  13.101   6.234  0.0302 -0.0740 -0.2146
    1DPPC   C2A  774  22.940  13.126   5.862 -0.6254 -0.1381  0.0411
    1DPPC   C3A  775  22.837  12.870   5.592 -0.0171 -0.0658  0.0458
    1DPPC   C4A  776  22.948  12.662   5.220  0.0000 -0.3233  0.1675
    1DPPC   C1B  777  23.289  12.953   6.304  0.1469  0.1985  0.3725
    1DPPC   C2B  778  23.393  12.961   5.865 -0.2895  0.0246  0.0682
    1DPPC   C3B  779  23.344  12.920   5.530  0.4036  0.0739  0.0624
    1DPPC   C4B  780  23.146  13.180   5.248 -0.2914  0.2258 -0.3352
    1DPPC   NC3  781  26.315   5.250   7.151 -0.1778  0.1812  0.1286
    1DPPC   PO4  782  26.262   5.467   6.782 -0.1039  0.1843  0.1889
    1DPPC   GL1  783  26.129   5.488   6.365  0.0466 -0.0201 -0.1813
    1DPPC   GL2  784  26.324   5.524   6.162 -0.1479  0.2265  0.2455
    1DPPC   C1A  785  25.782   5.593   6.073  0.1798 -0.0318 -0.0254
    1DPPC   C2A  786  25.819   5.500   5.586 -0.0841  0.4008  0.2402
    1DPPC   C3A  787  25.798   5.510   5.200  0.2331 -0.0871  0.2120
    1DPPC   C4A  788  25.946   5.324   4.772 -0.1292  0.0047 -0.0252
    1DPPC   C1B  789  26.272   5.459   5.734 -0.1181  0.4207  0.0192
    1DPPC   C2B  790  26.196   5.281   5.370  0.0659 -0.1204 -0.0925
    1DPPC   C3B  791  26.298   5.047   4.952  0.1511 -0.0346  0.0227
    1DPPC   C4B  792  26.620   4.715   4.712 -0.0078  0.2578  0.0385
    1DPPC   NC3  793  16.800   4.345   6.553  0.0694  0.1758  0.0617
    1DPPC   PO4  794  17.254   4.446   6.579 -0.0475  0.1409  0.3125
    1DPPC   GL1  795  17.036   4.487   6.144  0.1284 -0.2123  0.1893
    1DPPC   GL2  796  16.696   4.487   5.995 -0.1367  0.0286 -0.0551
    1DPPC   C1A  797  17.178   4.546   5.707 -0.4124 -0.0475 -0.1581
    1DPPC   C2A  798  17.351   4.475   5.319 -0.0890  0.0060 -0.2487
    1DPPC   C3A  799  17.344   4.423   5.006  0.3986 -0.3673  0.1009
    1DPPC   C4A  800  17.497   4.209   4.681 -0.0751 -0.3272  0.0844
    1DPPC   C1B  801  16.724   4.249   5.519  0.2010  0.0488 -0.0092
    1DPPC   C2B  802  16.899   4.304   5.068  0.1622  0.1399  0.0078
    1DPPC   C3B  803  16.852   4.498   4.624  0.1682 -0.0272 -0.0217
    1DPPC   C4B  804  16.598   4.521   4.241  0.0096  0.0212  0.1417
    1DPPC   NC3  805  27.915   6.848   6.808  0.1454 -0.0413  0.1616
    1DPPC   PO4  806  27.842   6.616   6.441 -0.0136  0.2474 -0.1126
    1DPPC   GL1  807  27.575   6.541   6.149  0.2384 -0.0132  0.0321
    1DPPC   GL2  808  27.670   6.396   5.878 -0.3734 -0.0294 -0.1160
    1DPPC   C1A  809  27.158   6.559   5.841  0.0482  0.2316 -0.0461
    1DPPC   C2A  810  27.064   6.535   5.395 -0.4737  0.0078  0.0183
    1DPPC   C3A  811  27.045   6.524   4.949  0.0264 -0.1513  0.2248
    1DPPC   C4A  812  26.666   6.569   4.630  0.0722  0.0340 -0.2254
    1DPPC   C1B  813  27.547   6.535   5.544  0.2062 -0.2826 -0.0677
    1DPPC   C2B  814  27.502   6.565   5.187 -0.2652 -0.0526  0.3358
    1DPPC   C3B  815  27.466   6.704   4.674  0.0509 -0.2261  0.1499
    1DPPC   C4B  816  27.119   6.807   4.511  0.1079  0.2945  0.1895
    1DPPC   NC3  817  26.476   7.368   6.633 -0.0313  0.0914 -0.3304
    1DPPC   PO4  818  26.869   7.304   6.328  0.0985 -0.0130 -0.0306
    1DPPC   GL1  819  27.098   7.298   6.000 -0.0684 -0.0557  0.1815
    1DPPC   GL2  820  27.239   6.994   6.047  0.2441 -0.0612 -0.0157
    1DPPC   C1A  821  27.120   7.347   5.577 -0.0819 -0.0801  0.0016
    1DPPC   C2A  822  27.065   7.426   5.261 -0.2241 -0.2318 -0.1092
    1DPPC   C3A  823  26.833   7.548   4.966 -0.0704  0.1390 -0.1716
    1DPPC   C4A  824  26.618   7.562   4.653  0.0915  0.0564  0.0661
    1DPPC   C1B  825  27.447   6.988   5.728 -0.0062 -0.0188  0.0301
    1DPPC   C2B  826  27.374   7.036   5.350 -0.1297 -0.1373  0.3817
    1DPPC   C3B  827  27.285   7.103   4.924 -0.1590 -0.1887 -0.1113
    1DPPC   C4B  828  27.213   7.307   4.534 -0.0449  0.2864 -0.3271
    1DPPC   NC3  829   3.795  25.506   6.913  0.0932  0.0991  0.0256
    1DPPC   PO4  830   3.683  25.114   7.043 -0.1418 -0.1374 -0.0504
    1DPPC   GL1  831   3.649  25.007   6.616 -0.0152  0.1879  0.4972
    1DPPC   GL2  832   3.570  24.712   6.466 -0.2842 -0.1495 -0.0547
    1DPPC   C1A  833   3.866  25.054   6.196 -0.2722  0.2558 -0.2704
    1DPPC   C2A  834   3.742  25.163   5.826 -0.4917 -0.2902  0.0516
    1DPPC   C3A  835   3.752  25.239   5.364 -0.0703  0.4344  0.1366
    1DPPC   C4A  836   3.960  25.304   5.025 -0.2618  0.0049  0.1618
    1DPPC   C1B  837   3.291  24.678   6.130  0.2129  0.0980 -0.1846
    1DPPC   C2B  838   3.404  24.754   5.676  0.0582 -0.0583  0.0263
    1DPPC   C3B  839   3.579  24.684   5.293  0.2257  0.0194  0.1809
    1DPPC   C4B  840   3.618  24.434   4.839 -0.2932  0.2349  0.0583
    1DPPC   NC3  841  18.179   8.310   6.814  0.0309  0.3674  0.1011
    1DPPC   PO4  842  18.108   8.733   6.915  0.1251  0.2952  0.1102
    1DPPC   GL1  843  18.239   8.834   6.562 -0.0241  0.2769  0.1980
    1DPPC   GL2  844  18.046   9.134   6.495 -0.2370 -0.0766 -0.0922
    1DPPC   C1A  845  18.118   8.729   6.220  0.0481  0.0505 -0.0252
    1DPPC   C2A  846  18.110   8.737   5.701  0.0973 -0.2217  0.0617
    1DPPC   C3A  847  18.222   8.831   5.268 -0.0058  0.1892 -0.1658
    1DPPC   C4A  848  18.024   8.874   4.887  0.2336  0.1000 -0.1785
    1DPPC   C1B  849  18.268   9.168   5.993 -0.2527 -0.1868  0.0749
    1DPPC   C2B  850  18.410   9.152   5.588  0.1283 -0.1197 -0.1327
    1DPPC   C3B  851  18.364   9.278   5.116  0.2124 -0.1584 -0.0416
    1DPPC   C4B  852  18.612   9.666   4.935  0.1925  0.2530  0.3176
    1DPPC   NC3  853  18.793  13.830   7.197  0.0776  0.1027  0.0644
    1DPPC   PO4  854  19.183  13.660   7.308  0.0513  0.1371  0.1164
    1DPPC   GL1  855  19.236  13.576   6.944 -0.1075  0.0033  0.0940
    1DPPC   GL2  856  19.170  13.529   6.595  0.2249 -0.0047 -0.2289
    1DPPC   C1A  857  19.591  13.753   6.663  0.2148  0.1663  0.1132
    1DPPC   C2A  858  19.582  13.847   6.276 -0.0838 -0.1021  0.1143
    1DPPC   C3A  859  19.458  13.693   5.874 -0.0093  0.0110 -0.1338
    1DPPC   C4A  860  19.393  13.736   5.416 -0.0603  0.0450  0.3517
    1DPPC   C1B  861  19.120  13.474   6.149 -0.1523 -0.0172  0.2358
    1DPPC   C2B  862  19.069  13.497   5.677 -0.1177  0.0535  0.0439
    1DPPC   C3B  863  19.058  13.391   5.296 -0.1034  0.1873 -0.1572
    1DPPC   C4B  864  19.278  13.167   4.961  0.2026  0.2481 -0.0061
    1DPPC   NC3  865   9.141   3.830   6.125 -0.2484  0.1262 -0.3026
    1DPPC   PO4  866   9.458   4.136   5.931  0.1021 -0.1288 -0.1773
    1DPPC   GL1  867   9.089   4.073   5.657 -0.2952 -0.0509 -0.0727
    1DPPC   GL2  868   8.870   3.812   5.625  0.0485 -0.0683  0.1090
    1DPPC   C1A  869   9.000   4.099   5.238 -0.0666  0.2067  0.1410
    1DPPC   C2A  870   8.955   3.950   4.799  0.3074  0.2275  0.0472
    1DPPC   C3A  871   8.674   3.732   4.513 -0.3657 -0.1352 -0.1130
    1DPPC   C4A  872   8.578   3.802   4.102  0.1145 -0.1622  0.0382
    1DPPC   C1B  873   9.127   3.615   5.196  0.0593  0.0804  0.2937
    1DPPC   C2B  874   9.186   3.475   4.772  0.1719  0.0108 -0.0055
    1DPPC   C3B  875   9.112   3.604   4.393 -0.2028 -0.0870  0.0191
    1DPPC   C4B  876   9.119   3.657   3.948 -0.0701  0.0584 -0.1920
    1DPPC   NC3  877  22.648   5.180   7.361 -0.1061  0.0206 -0.0044
    1DPPC   PO4  878  22.407   5.383   7.055  0.0286  0.1511  0.0571
    1DPPC   GL1  879  22.561   5.452   6.618 -0.1691  0.2829  0.0724
    1DPPC   GL2  880  22.896   5.537   6.520  0.1232  0.1166  0.1997
    1DPPC   C1A  881  22.741   5.062   6.334 -0.1674  0.1611 -0.1642
    1DPPC   C2A  882  23.005   4.946   5.954  0.0773  0.0520 -0.0875
    1DPPC   C3A  883  23.042   4.924   5.484  0.0284  0.0779  0.1045
    1DPPC   C4A  884  23.026   4.635   5.115 -0.2447  0.3384 -0.1006
    1DPPC   C1B  885  23.066   5.466   6.125 -0.1030  0.1067 -0.0477
    1DPPC   C2B  886  22.981   5.428   5.691 -0.1016 -0.2509 -0.0599
    1DPPC   C3B  887  23.052   5.467   5.214 -0.1016  0.1383 -0.1918
    1DPPC   C4B  888  23.102   5.514   4.781 -0.2047  0.0989 -0.1886
    1DPPC   NC3  889  23.254   7.024   6.851 -0.0235  0.3733 -0.0591
    1DPPC   PO4  890  22.960   7.512   6.901 -0.0312  0.3140  0.2304
    1DPPC   GL1  891  22.915   7.209   6.541 -0.1189 -0.1849 -0.2641
    1DPPC   GL2  892  22.832   6.927   6.482  0.1593  0.0231  0.0472
    1DPPC   C1A  893  23.015   7.290   6.116  0.0079 -0.1136  0.3427
    1DPPC   C2A  894  23.072   7.374   5.676 -0.3005  0.1863  0.1232
    1DPPC   C3A  895  23.105   7.315   5.325  0.1074 -0.1046  0.0541
    1DPPC   C4A  896  23.076   7.450   4.942  0.2275  0.1297  0.0612
    1DPPC   C1B  897  22.727   6.886   6.099  0.0563 -0.0706  0.0609
    1DPPC   C2B  898  22.713   6.922   5.628  0.3182  0.3082  0.0790
    1DPPC   C3B  899  22.776   7.009   5.150 -0.1335 -0.1405  0.0968
    1DPPC   C4B  900  22.737   6.860   4.721  0.1487  0.3973 -0.0259
    1DPPC   NC3  901   1.811  12.964   7.059  0.1962  0.2336  0.0179
    1DPPC   PO4  902   1.724  12.926   6.619 -0.2232  0.3857  0.3647
    1DPPC   GL1  903   1.850  13.114   6.197  0.2432  0.1106 -0.2785
    1DPPC   GL2  904   1.914  13.502   6.150 -0.0110 -0.3610 -0.0797
    1DPPC   C1A  905   1.836  13.104   5.712  0.1926 -0.0847 -0.1986
    1DPPC   C2A  906   1.905  13.106   5.174 -0.0619 -0.0565 -0.0758
    1DPPC   C3A  907   2.063  13.151   4.756  0.1611 -0.0614  0.0967
    1DPPC   C4A  908   2.222  13.261   4.329 -0.0800 -0.3383 -0.3036
    1DPPC   C1B  909   1.943  13.708   5.707  0.0217 -0.0591  0.1543
    1DPPC   C2B  910   1.926  13.595   5.340  0.2320 -0.1077  0.1324
    1DPPC   C3B  911   1.855  13.601   4.876 -0.2451 -0.0372  0.0282
    1DPPC   C4B  912   2.099  13.658   4.609  0.2917 -0.1907  0.4145
    1DPPC   NC3  913  18.969   5.103   7.368 -0.1694 -0.3605  0.1909
    1DPPC   PO4  914  18.905   4.878   6.993 -0.0809  0.0374 -0.2886
    1DPPC   GL1  915  18.668   4.851   6.572  0.0057 -0.2403  0.0156
    1DPPC   GL2  916  18.783   5.148   6.529 -0.0014 -0.0578  0.2229
    1DPPC   C1A  917  18.499   4.743   6.147 -0.0205  0.0452 -0.2227
    1DPPC   C2A  918  18.531   4.747   5.726  0.0332 -0.1517  0.0899
    1DPPC   C3A  919  18.443   4.668   5.284  0.1102 -0.1313  0.2842
    1DPPC   C4A  920  18.346   4.488   4.894 -0.0939  0.0766 -0.2894
    1DPPC   C1B  921  18.804   5.085   6.078  0.2755  0.0921  0.0848
    1DPPC   C2B  922  18.916   5.106   5.647 -0.2517  0.2572  0.2260
    1DPPC   C3B  923  19.034   5.209   5.228  0.0869 -0.0586 -0.1828
    1DPPC   C4B  924  19.288   4.998   4.855  0.0842 -0.1971 -0.1033
    1DPPC   NC3  925  14.085  12.122   7.162  0.0914 -0.0699  0.0933
    1DPPC   PO4  926  14.260  11.931   6.734 -0.0508 -0.2033 -0.1075
    1DPPC   GL1  927  14.467  11.971   6.256  0.0596 -0.1986 -0.1474
    1DPPC   GL2  928  14.761  11.867   6.173  0.3557 -0.3478 -0.0875
    1DPPC   C1A  929  14.442  11.957   5.812 -0.1344  0.0164 -0.0549
    1DPPC   C2A  930  14.691  11.946   5.354  0.4075 -0.2333  0.0335
    1DPPC   C3A  931  14.538  12.239   5.083  0.2373 -0.0112 -0.1761
    1DPPC   C4A  932  14.311  12.589   4.940  0.2682 -0.1868  0.1130
    1DPPC   C1B  933  14.909  12.222   5.977 -0.0922 -0.1021 -0.1431
    1DPPC   C2B  934  14.880  12.329   5.524  0.2506  0.2104 -0.5833
    1DPPC   C3B  935  14.805  12.648   5.193 -0.0669 -0.0472 -0.3648
    1DPPC   C4B  936  14.587  12.942   5.055 -0.0214 -0.3986 -0.1175
    1DPPC   NC3  937  28.547  14.599   7.248 -0.2419 -0.4673 -0.2279
    1DPPC   PO4  938  28.499  14.280   6.991 -0.2728 -0.1232 -0.2745
    1DPPC   GL1  939  28.345  14.443   6.641 -0.0873 -0.0185  0.2945
    1DPPC   GL2  940  28.032  14.539   6.651  0.0795  0.1321 -0.2451
    1DPPC   C1A  941  28.247  14.506   6.092  0.0235  0.4211 -0.1283
    1DPPC   C2A  942  28.130  14.466   5.708  0.1538 -0.0245 -0.2640
    1DPPC   C3A  943  27.999  14.475   5.301  0.0204 -0.0165 -0.3162
    1DPPC   C4A  944  27.880  14.356   4.872  0.0392 -0.0792 -0.0889
    1DPPC   C1B  945  27.768  14.649   6.322 -0.0123  0.0282  0.2350
    1DPPC   C2B  946  27.780  14.705   5.990 -0.0141  0.2390 -0.1518
    1DPPC   C3B  947  27.768  14.847   5.638  0.0699 -0.1958  0.3509
    1DPPC   C4B  948  27.630  14.803   5.238 -0.0669 -0.0386 -0.1057
    1DPPC   NC3  949  10.114   4.704   6.068  0.0508 -0.2543  0.0533
    1DPPC   PO4  950  10.239   5.128   6.165  0.0866 -0.0634  0.1745
    1DPPC   GL1  951  10.219   5.352   5.741  0.2101 -0.1681  0.1396
    1DPPC   GL2  952  10.037   5.584   5.606 -0.1710  0.2027 -0.2516
    1DPPC   C1A  953  10.463   5.528   5.348  0.2624  0.3012  0.3614
    1DPPC   C2A  954  10.559   5.605   4.920 -0.1532  0.0842  0.1837
    1DPPC   C3A  955  10.445   5.384   4.503  0.1855  0.0972 -0.0663
    1DPPC   C4A  956  10.403   5.507   4.073 -0.1240  0.2116 -0.0976
    1DPPC   C1B  957  10.059   5.777   5.268  0.0154 -0.3575  0.0428
    1DPPC   C2B  958  10.109   5.896   4.905 -0.2483  0.0037  0.1857
    1DPPC   C3B  959   9.753   6.151   4.587  0.2611  0.2998 -0.0068
    1DPPC   C4B  960   9.706   5.932   4.181  0.0311 -0.0538  0.0396
    1DPPC   NC3  961  17.805   9.214   6.994  0.0901  0.2213 -0.1083
    1DPPC   PO4  962  17.825   9.574   7.051  0.3380 -0.0812  0.4606
    1DPPC   GL1  963  18.042   9.606   6.693  0.5230  0.0090  0.0760
    1DPPC   GL2  964  18.214   9.938   6.572  0.1035 -0.0567  0.1685
    1DPPC   C1A  965  17.992   9.547   6.203  0.0473  0.1076  0.2627
    1DPPC   C2A  966  18.154   9.655   5.885  0.1288  0.1064  0.2141
    1DPPC   C3A  967  18.212   9.661   5.466 -0.0524  0.1700 -0.1789
    1DPPC   C4A  968  18.109   9.704   5.018  0.3662 -0.2475  0.0679
    1DPPC   C1B  969  18.399  10.001   6.164  0.0104  0.2851  0.1311
    1DPPC   C2B  970  18.469  10.021   5.742 -0.1980  0.2015 -0.1175
    1DPPC   C3B  971  18.550  10.166   5.367  0.0439 -0.0282 -0.1374
    1DPPC   C4B  972  18.624  10.189   4.904  0.0973  0.2258 -0.1688
    1DPPC   NC3  973  29.371  16.519   6.846 -0.0185 -0.1738  0.1106
    1DPPC   PO4  974  28.969  16.653   7.140 -0.0399  0.3681 -0.2786
    1DPPC   GL1  975  28.896  16.918   6.812 -0.2582 -0.0246 -0.2596
    1DPPC   GL2  976  28.845  16.676   6.429  0.2517 -0.0229 -0.1976
    1DPPC   C1A  977  28.792  17.240   6.681  0.2015  0.1794  0.0078
    1DPPC   C2A  978  28.978  17.235   6.264  0.1619 -0.0065  0.0216
    1DPPC   C3A  979  29.148  17.021   5.923  0.1131  0.0515  0.0084
    1DPPC   C4A  980  29.177  16.875   5.558  0.1327  0.1374  0.1658
    1DPPC   C1B  981  28.715  16.815   6.055 -0.1455 -0.1927 -0.0183
    1DPPC   C2B  982  28.677  16.863   5.586  0.2308  0.2089  0.0573
    1DPPC   C3B  983  28.877  17.185   5.307 -0.1434 -0.1049  0.0846
    1DPPC   C4B  984  28.818  17.596   5.207  0.3864  0.1308 -0.0025
    1DPPC   NC3  985  28.178  13.101   7.084 -0.1351  0.0106  0.2149
    1DPPC   PO4  986  28.396  12.668   7.127  0.2695 -0.0931 -0.1995
    1DPPC   GL1  987  28.271  12.657   6.791 -0.0653  0.1578  0.2270
    1DPPC   GL2  988  28.003  12.386   6.679 -0.1859  0.2722 -0.1568
    1DPPC   C1A  989  28.402  12.648   6.377 -0.2624  0.1776 -0.1956
    1DPPC   C2A  990  28.342  12.776   5.908  0.3315  0.0821 -0.2931
    1DPPC   C3A  991  28.361  12.839   5.500  0.0096 -0.1861  0.0497
    1DPPC   C4A  992  28.521  13.183   5.226  0.1371  0.2856  0.0414
    1DPPC   C1B  993  28.131  12.199   6.312 -0.2825 -0.1411 -0.0882
    1DPPC   C2B  994  28.147  12.288   5.828  0.1699  0.2749 -0.1946
    1DPPC   C3B  995  28.092  12.460   5.397 -0.0637 -0.1260 -0.2625
    1DPPC   C4B  996  27.993  12.525   4.985 -0.0316  0.0534 -0.1573
    1DPPC   NC3  997  16.189  14.075   6.991  0.6081  0.1187 -0.2200
    1DPPC   PO4  998  16.401  14.254   7.264 -0.1167 -0.2680  0.0877
    1DPPC   GL1  999  16.454  14.444   6.866 -0.0678  0.2518  0.2535
    1DPPC   GL2 1000  16.618  14.199   6.690 -0.3978  0.1203 -0.0209
    1DPPC   C1A 1001  16.562  14.574   6.390  0.0537 -0.5990 -0.3836
    1DPPC   C2A 1002  16.700  14.586   5.999 -0.1754  0.2441  0.1369
    1DPPC   C3A 1003  16.795  14.543   5.542  0.0323 -0.0366 -0.1427
    1DPPC   C4A 1004  16.985  14.698   5.084 -0.0919 -0.0893  0.3352
    1DPPC   C1B 1005  16.796  14.176   6.275  0.1725  0.0779  0.4052
    1DPPC   C2B 1006  16.932  14.174   5.898 -0.1622 -0.1702  0.0693
    1DPPC   C3B 1007  16.938  14.065   5.413  0.3629 -0.1793 -0.0036
    1DPPC   C4B 1008  16.795  14.269   4.984  0.0622  0.0126 -0.1750
    1DPPC   NC3 1009  20.452   8.524   7.096  0.0498  0.2199 -0.2859
    1DPPC   PO4 1010  20.178   8.734   7.057 -0.1572 -0.2099  0.2286
    1DPPC   GL1 1011  20.018   8.504   6.763  0.0595 -0.2078  0.2739
    1DPPC   GL2 1012  20.314   8.327   6.662  0.2519 -0.0416 -0.0756
    1DPPC   C1A 1013  20.016   8.473   6.279 -0.1447  0.2469  0.1735
    1DPPC   C2A 1014  20.028   8.324   5.782 -0.0670  0.2706 -0.2756
    1DPPC   C3A 1015  19.978   8.383   5.334  0.2965  0.1894 -0.1324
    1DPPC   C4A 1016  20.104   8.425   4.919  0.1173  0.0010  0.4321
    1DPPC   C1B 1017  20.427   8.226   6.285  0.0871  0.1819  0.1087
    1DPPC   C2B 1018  20.484   8.178   5.857 -0.1149  0.1591 -0.0484
    1DPPC   C3B 1019  20.408   8.019   5.449 -0.1234  0.0124 -0.1487
    1DPPC   C4B 1020  20.171   7.912   5.110 -0.2537  0.0184  0.1710
    1DPPC   NC3 1021  16.119  15.812   6.934 -0.0870 -0.0645  0.1578
    1DPPC   PO4 1022  16.036  15.474   6.734 -0.1315 -0.0295  0.1187
    1DPPC   GL1 1023  16.219  15.474   6.280  0.0547 -0.1374  0.2177
    1DPPC   GL2 1024  16.010  15.252   6.272  0.0506 -0.0428  0.2346
    1DPPC   C1A 1025  16.329  15.806   6.018  0.0597  0.0908  0.1910
    1DPPC   C2A 1026  16.598  15.893   5.617  0.0807  0.3688 -0.1123
    1DPPC   C3A 1027  16.787  16.187   5.479 -0.1412 -0.2435 -0.0849
    1DPPC   C4A 1028  16.877  16.423   5.067  0.1688  0.1405 -0.2797
    1DPPC   C1B 1029  16.132  15.152   5.793 -0.0108  0.1140 -0.0752
    1DPPC   C2B 1030  16.202  15.191   5.368 -0.2036  0.4503  0.1997
    1DPPC   C3B 1031  15.997  15.199   5.006  0.0640 -0.0983  0.1249
    1DPPC   C4B 1032  15.539  15.309   4.904  0.0488 -0.0961  0.4827
    1DPPC   NC3 1033  18.609   8.792   7.012  0.0622 -0.1403 -0.3498
    1DPPC   PO4 1034  18.602   8.256   7.101 -0.0207  0.0757  0.0277
    1DPPC   GL1 1035  18.535   7.946   6.637 -0.0870 -0.1335 -0.1369
    1DPPC   GL2 1036  18.786   7.807   6.526 -0.2929  0.0882 -0.1619
    1DPPC   C1A 1037  18.199   7.872   6.275 -0.0951 -0.1502  0.3293
    1DPPC   C2A 1038  18.103   7.802   5.789  0.0780 -0.0684 -0.0096
    1DPPC   C3A 1039  17.883   7.851   5.297 -0.1393 -0.1037 -0.0682
    1DPPC   C4A 1040  17.843   7.914   4.869  0.0022 -0.1145  0.0195
    1DPPC   C1B 1041  18.659   7.880   6.151 -0.0969 -0.0998  0.0081
    1DPPC   C2B 1042  18.576   7.860   5.746 -0.2332  0.2064  0.1448
    1DPPC   C3B 1043  18.359   8.003   5.389  0.2232  0.3249  0.0761
    1DPPC   C4B 1044  18.349   7.909   4.992  0.0628 -0.2387 -0.2418
    1DPPC   NC3 1045  12.279  27.118   6.906 -0.1266  0.0375 -0.2499
    1DPPC   PO4 1046  12.221  26.822   6.557  0.0675  0.0670 -0.1965
    1DPPC   GL1 1047  12.156  26.905   6.113  0.1087 -0.0436  0.2289
    1DPPC   GL2 1048  12.394  27.055   5.937 -0.0617  0.2771 -0.1473
    1DPPC   C1A 1049  12.015  27.012   5.609 -0.1956  0.1055 -0.2421
    1DPPC   C2A 1050  12.007  26.992   5.144 -0.2108 -0.1280  0.0214
    1DPPC   C3A 1051  12.028  27.166   4.775 -0.1252 -0.0987 -0.1908
    1DPPC   C4A 1052  12.054  27.454   4.487 -0.2474 -0.2477  0.3134
    1DPPC   C1B 1053  12.421  27.319   5.522  0.2245  0.2369 -0.0476
    1DPPC   C2B 1054  12.517  27.756   5.321  0.0355  0.0845 -0.2530
    1DPPC   C3B 1055  12.500  28.095   5.060  0.1147 -0.2232 -0.2095
    1DPPC   C4B 1056  12.705  28.309   4.729 -0.0983 -0.3390 -0.1961
    1DPPC   NC3 1057  23.163   4.490   7.491 -0.0049 -0.0892 -0.0433
    1DPPC   PO4 1058  23.182   4.114   7.193 -0.4500  0.1443 -0.3203
    1DPPC   GL1 1059  23.410   3.999   6.863  0.3043  0.1289  0.2879
    1DPPC   GL2 1060  23.679   4.041   6.855 -0.4664 -0.2232 -0.1190
    1DPPC   C1A 1061  23.265   3.869   6.437  0.4018 -0.0726 -0.0370
    1DPPC   C2A 1062  23.201   3.913   5.993  0.1455  0.0524 -0.0503
    1DPPC   C3A 1063  22.958   3.776   5.634  0.1103  0.0897  0.0053
    1DPPC   C4A 1064  22.904   3.632   5.179  0.1712  0.0038 -0.1254
    1DPPC   C1B 1065  23.767   3.837   6.476 -0.2608  0.1259  0.0259
    1DPPC   C2B 1066  23.613   3.592   6.234 -0.0476  0.0096 -0.1636
    1DPPC   C3B 1067  23.339   3.465   5.797 -0.2602 -0.0048  0.1588
    1DPPC   C4B 1068  22.992   3.247   5.607 -0.0963  0.2077 -0.2846
    1DPPC   NC3 1069  15.956   7.897   6.710 -0.1470 -0.0716  0.1852
    1DPPC   PO4 1070  15.940   8.376   6.858  0.0164 -0.2610 -0.1536
    1DPPC   GL1 1071  16.057   8.544   6.450 -0.0380 -0.1564  0.3332
    1DPPC   GL2 1072  15.973   8.739   6.316 -0.0064 -0.1029  0.0891
    1DPPC   C1A 1073  16.333   8.335   6.159 -0.1542  0.0074 -0.1411
    1DPPC   C2A 1074  16.317   8.353   5.830 -0.1723  0.2563 -0.0295
    1DPPC   C3A 1075  16.648   8.404   5.452  0.0414  0.0706  0.0638
    1DPPC   C4A 1076  16.714   8.503   5.054 -0.0257 -0.0272 -0.1845
    1DPPC   C1B 1077  16.096   8.773   5.945 -0.0978 -0.0161 -0.1072
    1DPPC   C2B 1078  16.191   8.631   5.460 -0.1032  0.1557 -0.0807
    1DPPC   C3B 1079  16.326   8.814   5.050 -0.0140 -0.1026  0.0475
    1DPPC   C4B 1080  16.213   8.759   4.633  0.0124 -0.1978  0.1000
    1DPPC   NC3 1081  26.781   3.995   6.969 -0.3600  0.1843 -0.2618
    1DPPC   PO4 1082  26.629   4.148   6.529 -0.1140 -0.0936  0.0563
    1DPPC   GL1 1083  26.577   4.082   6.142  0.1448 -0.2548 -0.1279
    1DPPC   GL2 1084  26.891   4.179   6.089 -0.1790 -0.2851  0.1013
    1DPPC   C1A 1085  26.627   3.726   5.827 -0.0025 -0.0814 -0.0509
    1DPPC   C2A 1086  26.432   3.771   5.416  0.0777 -0.1305 -0.1628
    1DPPC   C3A 1087  26.295   4.065   5.119 -0.0371  0.2467  0.1375
    1DPPC   C4A 1088  26.418   4.179   4.689 -0.0635  0.0075 -0.0488
    1DPPC   C1B 1089  27.089   3.733   5.886 -0.0381 -0.1899 -0.1692
    1DPPC   C2B 1090  26.979   3.683   5.424  0.0222  0.0460  0.2235
    1DPPC   C3B 1091  26.793   3.687   5.047 -0.2599  0.0666  0.1562
    1DPPC   C4B 1092  26.744   3.825   4.693  0.0603  0.1400  0.0007
    1DPPC   NC3 1093   5.314  13.289   5.973 -0.1554  0.1104 -0.1925
    1DPPC   PO4 1094   5.279  13.024   5.650  0.0052  0.0392  0.2757
    1DPPC   GL1 1095   5.413  13.285   5.370  0.1035 -0.2838  0.0237
    1DPPC   GL2 1096   5.219  13.494   5.513 -0.0988  0.1380  0.4991
    1DPPC   C1A 1097   5.568  13.656   5.092  0.3302 -0.0814  0.2381
    1DPPC   C2A 1098   5.688  13.759   4.635 -0.4302  0.0189  0.1704
    1DPPC   C3A 1099   5.507  13.709   4.196 -0.0695 -0.3497  0.0011
    1DPPC   C4A 1100   5.425  14.000   3.873  0.1793  0.0569 -0.1690
    1DPPC   C1B 1101   5.075  13.615   5.145 -0.1696  0.2234 -0.0250
    1DPPC   C2B 1102   5.217  13.784   4.764  0.0018 -0.0441 -0.0727
    1DPPC   C3B 1103   5.198  14.061   4.384  0.1079  0.3669  0.2356
    1DPPC   C4B 1104   5.079  14.296   4.119  0.0728 -0.1876  0.0033
    1DPPC   NC3 1105  15.702  12.701   7.071 -0.0068 -0.4040  0.0062
    1DPPC   PO4 1106  15.345  12.929   6.900 -0.1400  0.3722  0.0006
    1DPPC   GL1 1107  15.416  12.863   6.521  0.0007 -0.5178 -0.0269
    1DPPC   GL2 1108  15.635  12.636   6.385  0.0957 -0.1346 -0.0596
    1DPPC   C1A 1109  15.413  12.917   6.046  0.3330  0.3143  0.3301
    1DPPC   C2A 1110  15.470  12.890   5.583 -0.0773 -0.0413 -0.1296
    1DPPC   C3A 1111  15.434  12.588   5.250 -0.1705 -0.0497  0.2681
    1DPPC   C4A 1112  15.167  12.609   4.845  0.0872 -0.0145  0.0518
    1DPPC   C1B 1113  15.799  12.569   5.943  0.3099 -0.0739  0.0767
    1DPPC   C2B 1114  15.894  12.556   5.524 -0.1183 -0.1463 -0.3572
    1DPPC   C3B 1115  15.928  12.423   5.099 -0.1374 -0.2145 -0.0117
    1DPPC   C4B 1116  15.698  12.603   4.668  0.2127  0.0764  0.0838
    1DPPC   NC3 1117  12.188  13.192   6.157 -0.2393  0.0190 -0.1697
    1DPPC   PO4 1118  11.757  13.376   6.203 -0.0850 -0.0693 -0.0198
    1DPPC   GL1 1119  11.534  13.451   5.816 -0.1598 -0.0393  0.3346
    1DPPC   GL2 1120  11.579  13.208   5.701 -0.0080 -0.1750  0.0936
    1DPPC   C1A 1121  11.427  13.837   5.521 -0.1195 -0.0077  0.0250
    1DPPC   C2A 1122  11.530  13.783   5.098  0.2609  0.1775  0.1014
    1DPPC   C3A 1123  11.503  13.777   4.684  0.0227  0.1361  0.2009
    1DPPC   C4A 1124  11.419  14.057   4.269 -0.3133  0.5491  0.0023
    1DPPC   C1B 1125  11.555  13.278   5.316 -0.0035 -0.2727  0.2781
    1DPPC   C2B 1126  11.584  13.185   4.881  0.1876 -0.3103 -0.1132
    1DPPC   C3B 1127  11.370  13.211   4.523  0.0536 -0.1707  0.1132
    1DPPC   C4B 1128  11.502  13.480   4.211  0.2006 -0.3291 -0.2790
    1DPPC   NC3 1129  26.958   6.816   6.403  0.0060  0.0004 -0.1841
    1DPPC   PO4 1130  26.833   6.406   6.483 -0.0426 -0.0755  0.0728
    1DPPC   GL1 1131  26.685   6.254   6.154 -0.0055 -0.0326 -0.0719
    1DPPC   GL2 1132  26.669   5.904   6.179  0.0442  0.2043  0.3335
    1DPPC   C1A 1133  26.645   6.319   5.693 -0.0181 -0.1607 -0.3748
    1DPPC   C2A 1134  26.622   6.316   5.232  0.1297 -0.0072 -0.0973
    1DPPC   C3A 1135  26.744   6.111   4.976 -0.1772  0.1017  0.0377
    1DPPC   C4A 1136  27.015   6.124   4.603 -0.1049 -0.0613  0.3829
    1DPPC   C1B 1137  26.628   5.858   5.722 -0.1452 -0.2723  0.0042
    1DPPC   C2B 1138  26.647   5.770   5.298 -0.1386  0.0187 -0.1062
    1DPPC   C3B 1139  26.368   5.596   4.991 -0.1190 -0.0108  0.0797
    1DPPC   C4B 1140  26.283   5.646   4.479 -0.1692  0.0597  0.2390
    1DPPC   NC3 1141  24.836   8.292   6.871 -0.0321  0.0636 -0.0868
    1DPPC   PO4 1142  25.240   8.047   6.834 -0.0487 -0.2904 -0.1787
    1DPPC   GL1 1143  25.169   8.212   6.433  0.3692 -0.0692 -0.1174
    1DPPC   GL2 1144  24.873   7.997   6.483  0.0837  0.1377 -0.1998
    1DPPC   C1A 1145  25.273   8.282   6.015 -0.1358  0.1797  0.1516
    1DPPC   C2A 1146  25.224   8.216   5.605  0.1454 -0.3745  0.1750
    1DPPC   C3A 1147  25.222   8.180   5.185  0.0312 -0.0199 -0.0310
    1DPPC   C4A 1148  25.100   8.295   4.857  0.2282 -0.2401 -0.0334
    1DPPC   C1B 1149  24.808   8.160   6.044 -0.1807  0.0051 -0.1971
    1DPPC   C2B 1150  24.708   8.151   5.652 -0.1259 -0.1383 -0.0967
    1DPPC   C3B 1151  24.574   8.216   5.242  0.1995 -0.0852  0.4418
    1DPPC   C4B 1152  24.654   8.126   4.803 -0.1871 -0.0588  0.0117
    1DPPC   NC3 1153  25.765  12.828   7.697 -0.2675  0.0661 -0.2146
    1DPPC   PO4 1154  25.926  13.048   7.322 -0.0678 -0.1496 -0.1265
    1DPPC   GL1 1155  25.710  13.110   6.912 -0.1569 -0.0605  0.0880
    1DPPC   GL2 1156  25.490  12.958   6.820  0.2030  0.0006 -0.0243
    1DPPC   C1A 1157  25.865  13.134   6.449  0.3927  0.0306 -0.3269
    1DPPC   C2A 1158  25.747  13.194   6.080  0.1269 -0.1584  0.2842
    1DPPC   C3A 1159  25.757  13.140   5.646  0.1093 -0.0111 -0.0209
    1DPPC   C4A 1160  25.699  13.152   5.185  0.0888  0.1395 -0.1647
    1DPPC   C1B 1161  25.328  13.109   6.380  0.0283 -0.1047 -0.0589
    1DPPC   C2B 1162  25.221  13.002   6.032 -0.1623  0.1561 -0.1136
    1DPPC   C3B 1163  25.254  12.980   5.641 -0.0770 -0.1331  0.0632
    1DPPC   C4B 1164  25.283  12.835   5.156 -0.2152  0.0251  0.0228
    1DPPC   NC3 1165  20.655  12.991   7.737 -0.0512  0.2803  0.0726
    1DPPC   PO4 1166  20.809  12.628   7.487  0.3723 -0.0050  0.0196
    1DPPC   GL1 1167  20.544  12.905   7.154 -0.1625  0.1299  0.0401
    1DPPC   GL2 1168  20.602  12.759   6.904  0.1944  0.2782 -0.1605
    1DPPC   C1A 1169  20.413  13.177   6.708 -0.1123 -0.0724  0.1535
    1DPPC   C2A 1170  20.438  13.346   6.353  0.1699  0.2361  0.4616
    1DPPC   C3A 1171  20.390  13.303   5.930 -0.1427  0.0992  0.2472
    1DPPC   C4A 1172  20.405  13.488   5.509  0.0463 -0.2591 -0.0152
    1DPPC   C1B 1173  20.783  12.957   6.525 -0.4233 -0.0290  0.0570
    1DPPC   C2B 1174  20.800  12.971   6.062 -0.1212  0.1696 -0.1461
    1DPPC   C3B 1175  20.694  12.995   5.632 -0.0867  0.1366 -0.4185
    1DPPC   C4B 1176  20.590  13.048   5.215  0.1455 -0.0161 -0.2048
    1DPPC   NC3 1177  19.909   4.460   6.874  0.0659  0.1566 -0.1819
    1DPPC   PO4 1178  19.735   4.809   6.835  0.2762  0.0934 -0.0362
    1DPPC   GL1 1179  19.917   4.739   6.406  0.0923 -0.1164 -0.1582
    1DPPC   GL2 1180  20.324   4.657   6.464 -0.1653 -0.0084 -0.1888
    1DPPC   C1A 1181  19.645   4.687   6.073 -0.1040  0.2666 -0.1954
    1DPPC   C2A 1182  19.732   4.690   5.757  0.1227  0.1975 -0.0313
    1DPPC   C3A 1183  19.974   4.605   5.354 -0.0099  0.0824 -0.1490
    1DPPC   C4A 1184  19.845   4.591   4.909 -0.2729 -0.2888 -0.1626
    1DPPC   C1B 1185  20.232   4.768   6.005 -0.1106  0.1161  0.1618
    1DPPC   C2B 1186  20.404   4.710   5.585 -0.0670  0.2267  0.0729
    1DPPC   C3B 1187  20.443   4.588   5.238 -0.2090  0.1064 -0.0577
    1DPPC   C4B 1188  20.430   4.468   4.764 -0.0600  0.0718 -0.1216
    1DPPC   NC3 1189  20.048   9.206   7.132 -0.0052  0.2156 -0.0309
    1DPPC   PO4 1190  20.119   9.651   7.095 -0.3197 -0.0815 -0.0016
    1DPPC   GL1 1191  19.888   9.550   6.805 -0.1925  0.1075  0.3396
    1DPPC   GL2 1192  19.557   9.485   6.713  0.1000 -0.0498 -0.0670
    1DPPC   C1A 1193  19.869   9.743   6.372 -0.0594 -0.0838  0.1459
    1DPPC   C2A 1194  19.768   9.859   5.980 -0.1741 -0.1414  0.1280
    1DPPC   C3A 1195  19.773   9.717   5.633 -0.0448  0.0942  0.1867
    1DPPC   C4A 1196  19.830   9.647   5.179  0.0738  0.0785 -0.1632
    1DPPC   C1B 1197  19.594   9.352   6.308  0.0606  0.4397  0.0354
    1DPPC   C2B 1198  19.635   9.275   5.910 -0.0218 -0.2318 -0.0123
    1DPPC   C3B 1199  19.675   9.106   5.541  0.2981  0.2548  0.1002
    1DPPC   C4B 1200  19.709   9.090   5.147 -0.2511 -0.3723 -0.1399
    1DPPC   NC3 1201  25.597  14.776   7.506  0.1109  0.1370  0.0689
    1DPPC   PO4 1202  25.791  14.546   7.136  0.1832 -0.0729  0.2926
    1DPPC   GL1 1203  25.914  14.518   6.663  0.1686  0.1343 -0.2253
    1DPPC   GL2 1204  26.160  14.691   6.595 -0.3189 -0.2155  0.0039
    1DPPC   C1A 1205  25.945  14.327   6.204  0.0808 -0.2678 -0.1551
    1DPPC   C2A 1206  25.926  14.244   5.727  0.1819  0.0309  0.0708
    1DPPC   C3A 1207  25.911  14.377   5.336  0.0201 -0.1773  0.1925
    1DPPC   C4A 1208  25.734  14.510   5.076 -0.2278  0.1047  0.3528
    1DPPC   C1B 1209  26.104  14.768   6.148  0.1858 -0.1427  0.2154
    1DPPC   C2B 1210  26.076  14.708   5.708 -0.0741 -0.4652  0.1326
    1DPPC   C3B 1211  26.045  14.843   5.338 -0.3026 -0.0639  0.0765
    1DPPC   C4B 1212  26.058  14.990   4.817 -0.0399 -0.0336  0.0253
    1DPPC   NC3 1213   1.059  10.658   6.746  0.0158  0.0994  0.0427
    1DPPC   PO4 1214   0.611  10.678   6.713 -0.0360 -0.0316  0.0250
    1DPPC   GL1 1215   0.562  10.839   6.292 -0.4066 -0.5152 -0.0067
    1DPPC   GL2 1216   0.755  10.979   5.988 -0.1007  0.0272  0.2955
    1DPPC   C1A 1217   0.261  10.788   5.916 -0.0612  0.0736 -0.1219
    1DPPC   C2A 1218   0.221  10.615   5.635 -0.4060 -0.1616  0.1001
    1DPPC   C3A 1219   0.065  10.327   5.329  0.2693  0.1419  0.0874
    1DPPC   C4A 1220  29.426  10.179   4.933  0.1453 -0.0114  0.1155
    1DPPC   C1B 1221   0.833  10.847   5.502  0.0641 -0.0408 -0.1808
    1DPPC   C2B 1222   0.945  10.848   5.047  0.1066 -0.2237  0.0711
    1DPPC   C3B 1223   0.836  10.732   4.597  0.1825 -0.2143 -0.3211
    1DPPC   C4B 1224   0.580  10.418   4.308 -0.2861  0.0621  0.1715
    1DPPC   NC3 1225  27.138   9.186   6.843  0.3633  0.4707 -0.1273
    1DPPC   PO4 1226  26.973   9.670   6.709 -0.0355  0.1487  0.1068
    1DPPC   GL1 1227  27.303   9.752   6.336  0.0288 -0.1076 -0.1641
    1DPPC   GL2 1228  27.620   9.648   6.270  0.2428 -0.1897  0.0196
    1DPPC   C1A 1229  27.313   9.989   6.047  0.0593 -0.1685  0.0695
    1DPPC   C2A 1230  27.259  10.066   5.635 -0.3295 -0.1053 -0.1762
    1DPPC   C3A 1231  27.192  10.393   5.389 -0.1905  0.1273  0.2990
    1DPPC   C4A 1232  27.510  10.613   5.037  0.2252  0.3732  0.0618
    1DPPC   C1B 1233  27.599   9.618   5.845 -0.1581 -0.2920 -0.1315
    1DPPC   C2B 1234  27.549   9.622   5.442  0.1297  0.0433  0.0268
    1DPPC   C3B 1235  27.344   9.726   5.111 -0.0512 -0.0219  0.0196
    1DPPC   C4B 1236  27.389  10.092   4.782  0.1078 -0.0853 -0.3333
    1DPPC   NC3 1237   0.555  14.169   7.316  0.0944  0.1088  0.0576
    1DPPC   PO4 1238   0.287  14.365   6.939 -0.0071  0.3067 -0.1827
    1DPPC   GL1 1239   0.499  14.161   6.529  0.1171 -0.1532  0.0583
    1DPPC   GL2 1240   0.665  14.539   6.468 -0.0333  0.0572 -0.3256
    1DPPC   C1A 1241   0.504  14.004   6.089 -0.1190  0.1127  0.0726
    1DPPC   C2A 1242   0.527  13.736   5.759 -0.1288  0.1303  0.2707
    1DPPC   C3A 1243   0.463  13.779   5.392  0.1616 -0.0889  0.0638
    1DPPC   C4A 1244   0.490  13.741   4.950  0.2803  0.0399  0.1032
    1DPPC   C1B 1245   0.388  14.587   6.093 -0.1238 -0.1991  0.2228
    1DPPC   C2B 1246   0.462  14.708   5.735 -0.1354 -0.0876  0.0812
    1DPPC   C3B 1247   0.541  14.827   5.382  0.2696  0.4717  0.1657
    1DPPC   C4B 1248   0.928  14.626   5.126  0.0534  0.3168  0.3591
    1DPPC   NC3 1249  19.440  15.783   7.672 -0.0996  0.2760  0.2590
    1DPPC   PO4 1250  19.045  16.046   7.526 -0.0033  0.4462 -0.4982
    1DPPC   GL1 1251  19.277  16.133   7.136  0.0519 -0.0987 -0.1214
    1DPPC   GL2 1252  19.020  16.164   6.972  0.0614 -0.3271 -0.2832
    1DPPC   C1A 1253  19.372  15.859   6.870 -0.3858 -0.1894 -0.0025
    1DPPC   C2A 1254  19.504  16.041   6.476  0.0144  0.3920 -0.0578
    1DPPC   C3A 1255  19.489  16.257   6.020 -0.2077  0.2903  0.0826
    1DPPC   C4A 1256  19.415  16.472   5.673 -0.1004 -0.2060 -0.1685
    1DPPC   C1B 1257  19.039  15.901   6.533 -0.1132  0.0522 -0.2031
    1DPPC   C2B 1258  19.099  15.942   6.199 -0.1235  0.0192  0.2163
    1DPPC   C3B 1259  18.785  15.929   5.860 -0.1843  0.2899  0.1641
    1DPPC   C4B 1260  18.577  15.817   5.484 -0.0148 -0.1224 -0.0531
    1DPPC   NC3 1261   1.232  11.185   6.865 -0.2029  0.0023 -0.0056
    1DPPC   PO4 1262   0.817  11.522   6.715 -0.2497 -0.0114  0.1342
    1DPPC   GL1 1263   0.738  11.417   6.273 -0.3122 -0.1245  0.4099
    1DPPC   GL2 1264   1.053  11.390   6.069  0.5298  0.0052 -0.4865
    1DPPC   C1A 1265   0.583  11.679   6.001  0.0420  0.0531 -0.0483
    1DPPC   C2A 1266   0.462  11.707   5.621 -0.0908 -0.1298  0.1748
    1DPPC   C3A 1267   0.616  11.706   5.243 -0.2773 -0.0741  0.0453
    1DPPC   C4A 1268   0.882  11.672   4.832  0.1711 -0.0655 -0.0467
    1DPPC   C1B 1269   0.869  11.406   5.630  0.1098 -0.1501  0.0019
    1DPPC   C2B 1270   0.889  11.316   5.270  0.3431  0.1489  0.0946
    1DPPC   C3B 1271   0.593  11.218   4.853  0.1346 -0.0262 -0.0552
    1DPPC   C4B 1272   0.319  10.925   4.686 -0.1422 -0.1652  0.0785
    1DPPC   NC3 1273  20.557   9.988   7.120 -0.0384 -0.3597  0.1222
    1DPPC   PO4 1274  20.762  10.184   6.889 -0.0992  0.1114  0.0424
    1DPPC   GL1 1275  21.073  10.032   6.517  0.1243  0.2308  0.0104
    1DPPC   GL2 1276  20.909   9.745   6.458 -0.1236 -0.0161 -0.1458
    1DPPC   C1A 1277  21.131   9.883   6.042  0.2637 -0.1566  0.1072
    1DPPC   C2A 1278  21.180   9.828   5.597  0.3026 -0.1501 -0.0046
    1DPPC   C3A 1279  21.177   9.678   5.143 -0.0391  0.1044  0.0190
    1DPPC   C4A 1280  21.281   9.428   4.871 -0.6514  0.0352 -0.0539
    1DPPC   C1B 1281  20.740   9.582   6.050 -0.1450 -0.1712  0.2012
    1DPPC   C2B 1282  20.733   9.520   5.607  0.0840  0.0384  0.0025
    1DPPC   C3B 1283  20.696   9.478   5.182  0.2428  0.1055  0.0287
    1DPPC   C4B 1284  20.607   9.642   4.778 -0.2350  0.0527 -0.0094
    1DPPC   NC3 1285  25.770  12.615   7.032  0.3877  0.2339 -0.0417
    1DPPC   PO4 1286  25.939  12.237   6.983  0.1342 -0.0258  0.0913
    1DPPC   GL1 1287  25.987  12.395   6.590 -0.1481 -0.0438  0.2847
    1DPPC   GL2 1288  26.283  12.363   6.566 -0.0818 -0.2015 -0.0384
    1DPPC   C1A 1289  25.946  12.420   6.124  0.0881  0.1017 -0.2890
    1DPPC   C2A 1290  25.965  12.350   5.686  0.2374 -0.0213 -0.1824
    1DPPC   C3A 1291  26.146  12.404   5.299 -0.0318  0.0824  0.1198
    1DPPC   C4A 1292  26.214  12.499   4.915 -0.0564  0.0951 -0.0444
    1DPPC   C1B 1293  26.497  12.390   6.222  0.0612  0.1695  0.3460
    1DPPC   C2B 1294  26.476  12.296   5.819  0.3340 -0.1348 -0.1415
    1DPPC   C3B 1295  26.671  12.316   5.356 -0.1552 -0.0509  0.2584
    1DPPC   C4B 1296  26.883  12.404   4.970  0.0817 -0.0339  0.1024
    1DPPC   NC3 1297  22.444  16.603   7.374 -0.0075  0.1805 -0.0206
    1DPPC   PO4 1298  22.609  16.980   7.287 -0.3800  0.0413 -0.1052
    1DPPC   GL1 1299  22.645  16.915   6.893  0.3632  0.1666 -0.3496
    1DPPC   GL2 1300  22.463  16.700   6.862  0.3093  0.4350  0.3916
    1DPPC   C1A 1301  22.785  16.989   6.493  0.0408 -0.1803  0.1435
    1DPPC   C2A 1302  22.596  16.923   6.181 -0.0410 -0.2184  0.1913
    1DPPC   C3A 1303  22.229  16.991   5.827 -0.3487 -0.1928  0.1793
    1DPPC   C4A 1304  22.069  16.880   5.446  0.0583 -0.2380  0.2445
    1DPPC   C1B 1305  22.147  16.718   6.463 -0.1412 -0.1401 -0.0306
    1DPPC   C2B 1306  21.821  16.876   6.019 -0.0280  0.2845  0.1714
    1DPPC   C3B 1307  21.524  16.862   5.636  0.3754 -0.3511  0.1584
    1DPPC   C4B 1308  21.659  16.667   5.248  0.1017  0.1691 -0.0221
    1DPPC   NC3 1309  28.644  10.006   6.982 -0.3195 -0.1121 -0.4647
    1DPPC   PO4 1310  28.811   9.686   6.805 -0.1985 -0.0701 -0.1445
    1DPPC   GL1 1311  28.956   9.819   6.401  0.1766  0.0800 -0.0116
    1DPPC   GL2 1312  29.238   9.709   6.418 -0.0202 -0.0653 -0.0332
    1DPPC   C1A 1313  28.985   9.611   6.016  0.0857  0.0382  0.1172
    1DPPC   C2A 1314  28.911   9.581   5.612 -0.3004 -0.0756  0.0931
    1DPPC   C3A 1315  28.740   9.754   5.296  0.0968  0.0205  0.0456
    1DPPC   C4A 1316  28.522   9.698   4.895 -0.2439  0.0524 -0.0814
    1DPPC   C1B 1317  29.493   9.723   6.112  0.2366  0.0077 -0.1119
    1DPPC   C2B 1318  29.408   9.853   5.684  0.2430  0.0607  0.2575
    1DPPC   C3B 1319  29.195   9.940   5.316 -0.2762 -0.0892  0.0649
    1DPPC   C4B 1320  29.131   9.764   4.881  0.1072 -0.3947  0.2202
    1DPPC   NC3 1321  15.520  15.278   6.674 -0.1340 -0.1971  0.1405
    1DPPC   PO4 1322  15.049  15.249   6.473  0.1791 -0.1243  0.1404
    1DPPC   GL1 1323  15.029  15.322   6.082 -0.1802  0.2578  0.3362
    1DPPC   GL2 1324  14.778  15.540   5.971  0.2141 -0.0999  0.2621
    1DPPC   C1A 1325  15.123  15.347   5.575 -0.3249  0.4518 -0.2011
    1DPPC   C2A 1326  15.445  15.418   5.367  0.0079  0.2301 -0.0401
    1DPPC   C3A 1327  15.746  15.634   5.186  0.0886  0.2939 -0.1290
    1DPPC   C4A 1328  15.822  15.956   4.843 -0.0008 -0.2055  0.2392
    1DPPC   C1B 1329  15.201  15.736   5.872 -0.1944 -0.1494  0.2663
    1DPPC   C2B 1330  15.474  15.951   5.595 -0.1589 -0.1977 -0.2323
    1DPPC   C3B 1331  15.438  16.101   5.296 -0.0428  0.1821  0.2651
    1DPPC   C4B 1332  15.405  16.215   4.928  0.2053  0.3619 -0.1031
    1DPPC   NC3 1333   1.579   4.696   5.722 -0.0830  0.0147  0.1628
    1DPPC   PO4 1334   1.450   5.128   5.808  0.2068  0.3231  0.1296
    1DPPC   GL1 1335   1.432   5.426   5.451 -0.0923  0.0236 -0.3024
    1DPPC   GL2 1336   1.497   5.707   5.419 -0.1652 -0.3365 -0.5193
    1DPPC   C1A 1337   1.229   5.391   5.056 -0.1674  0.0838  0.3411
    1DPPC   C2A 1338   1.091   5.342   4.662  0.0709 -0.3740  0.1049
    1DPPC   C3A 1339   1.171   5.409   4.259 -0.1649  0.2528 -0.0629
    1DPPC   C4A 1340   1.263   5.454   3.872  0.2819  0.0115 -0.0048
    1DPPC   C1B 1341   1.622   5.969   5.103  0.2673 -0.2804  0.0246
    1DPPC   C2B 1342   1.692   5.962   4.664 -0.1796  0.0368 -0.0380
    1DPPC   C3B 1343   1.973   5.924   4.310  0.0936  0.3495 -0.0019
    1DPPC   C4B 1344   2.270   6.007   4.241  0.0886  0.1391  0.2696
    1DPPC   NC3 1345   2.954  15.107   6.753 -0.1238 -0.2453  0.0533
    1DPPC   PO4 1346   2.557  15.424   6.713  0.1373 -0.2106 -0.0734
    1DPPC   GL1 1347   2.273  15.632   6.352  0.0494  0.0908  0.0551
    1DPPC   GL2 1348   2.384  15.895   6.201 -0.0408 -0.1821 -0.0046
    1DPPC   C1A 1349   1.981  15.646   6.037  0.1698 -0.0305 -0.0630
    1DPPC   C2A 1350   1.689  15.823   5.753  0.1370 -0.3171 -0.1976
    1DPPC   C3A 1351   1.554  15.724   5.302  0.0199  0.1604  0.1348
    1DPPC   C4A 1352   1.609  15.586   4.879  0.1270 -0.0547 -0.0399
    1DPPC   C1B 1353   2.227  16.115   5.895  0.1505  0.0967 -0.2459
    1DPPC   C2B 1354   2.059  15.968   5.435 -0.0587  0.2070  0.0798
    1DPPC   C3B 1355   1.954  16.043   5.004 -0.2283 -0.2683  0.2456
    1DPPC   C4B 1356   2.252  16.013   4.661  0.5510  0.3100 -0.2733
    1DPPC   NC3 1357  13.723   5.763   6.320 -0.0432 -0.1731 -0.1374
    1DPPC   PO4 1358  14.125   5.913   6.102 -0.0210  0.0407  0.1328
    1DPPC   GL1 1359  14.509   5.903   5.846  0.0525 -0.1528  0.0944
    1DPPC   GL2 1360  14.847   5.957   5.795  0.2672 -0.1715 -0.1114
    1DPPC   C1A 1361  14.580   5.822   5.432  0.1139 -0.0252  0.1801
    1DPPC   C2A 1362  14.440   6.034   5.100 -0.2973 -0.1648  0.1832
    1DPPC   C3A 1363  14.133   6.157   4.875  0.2387  0.1970 -0.2968
    1DPPC   C4A 1364  13.789   6.137   4.689 -0.0935  0.2220 -0.2265
    1DPPC   C1B 1365  14.709   6.313   5.525 -0.0024 -0.1230 -0.1417
    1DPPC   C2B 1366  14.721   6.489   5.023  0.1606  0.0560  0.0873
    1DPPC   C3B 1367  14.945   6.810   4.909 -0.2847 -0.0294  0.0172
    1DPPC   C4B 1368  15.315   6.975   5.006 -0.2303  0.1060  0.1869
    1DPPC   NC3 1369  18.573  10.178   6.941  0.0233  0.0101  0.0947
    1DPPC   PO4 1370  18.877   9.879   7.096  0.4536  0.0991  0.2253
    1DPPC   GL1 1371  19.075   9.937   6.706 -0.1798 -0.0107 -0.0862
    1DPPC   GL2 1372  18.714   9.928   6.518  0.1965 -0.1621 -0.0065
    1DPPC   C1A 1373  19.204  10.272   6.494 -0.0631  0.0598  0.3274
    1DPPC   C2A 1374  19.350  10.158   6.057 -0.1962  0.0465  0.2307
    1DPPC   C3A 1375  19.500  10.187   5.654 -0.2285  0.2492  0.0261
    1DPPC   C4A 1376  19.433  10.020   5.262 -0.4600  0.0290  0.0885
    1DPPC   C1B 1377  18.849   9.974   6.041 -0.0414 -0.4316 -0.1241
    1DPPC   C2B 1378  19.038   9.980   5.557  0.1069  0.0824  0.0842
    1DPPC   C3B 1379  18.960   9.876   5.172 -0.2053  0.1241  0.1160
    1DPPC   C4B 1380  19.132   9.925   4.816 -0.3902  0.2434  0.0762
    1DPPC   NC3 1381   2.651   8.757   5.584 -0.0944 -0.0768  0.0227
    1DPPC   PO4 1382   2.248   8.558   5.472 -0.2758  0.2109 -0.0096
    1DPPC   GL1 1383   2.112   8.486   5.050  0.3307  0.1566  0.2410
    1DPPC   GL2 1384   1.960   8.685   5.012  0.4492 -0.3166  0.1418
    1DPPC   C1A 1385   1.964   8.444   4.653 -0.0564 -0.0972  0.1509
    1DPPC   C2A 1386   1.851   8.243   4.258  0.0072  0.0995 -0.0340
    1DPPC   C3A 1387   1.583   8.229   3.827 -0.0648  0.0627  0.0301
    1DPPC   C4A 1388   1.388   8.295   3.532  0.0486 -0.0762 -0.0571
    1DPPC   C1B 1389   1.869   8.925   4.736  0.1769 -0.0914  0.2260
    1DPPC   C2B 1390   1.617   8.737   4.312 -0.0206 -0.0139  0.0232
    1DPPC   C3B 1391   1.691   8.880   3.931  0.1980  0.1725  0.1740
    1DPPC   C4B 1392   1.876   9.070   3.551 -0.0946  0.0670  0.0835
    1DPPC   NC3 1393  22.800  11.286   7.322  0.0081  0.2308  0.2032
    1DPPC   PO4 1394  23.138  11.477   7.381 -0.1560  0.1608  0.0502
    1DPPC   GL1 1395  23.315  11.288   7.008 -0.1142  0.1496  0.1640
    1DPPC   GL2 1396  23.445  11.097   6.924 -0.2606  0.2070 -0.0253
    1DPPC   C1A 1397  23.600  11.393   6.557 -0.2651  0.0690 -0.0248
    1DPPC   C2A 1398  23.972  11.195   6.330 -0.2029  0.2591  0.0546
    1DPPC   C3A 1399  23.968  11.210   5.864  0.0754  0.2326  0.0094
    1DPPC   C4A 1400  23.739  10.893   5.675 -0.3362 -0.1751  0.3404
    1DPPC   C1B 1401  23.638  10.900   6.626 -0.2090  0.0272  0.2354
    1DPPC   C2B 1402  23.601  10.918   6.208  0.0524 -0.0838  0.2160
    1DPPC   C3B 1403  23.224  11.066   5.923 -0.0779  0.0826  0.2295
    1DPPC   C4B 1404  23.447  11.199   5.448  0.0390  0.0630  0.2804
    1DPPC   NC3 1405  19.603   5.282   6.812  0.1689 -0.1917 -0.4338
    1DPPC   PO4 1406  19.678   5.730   6.730  0.0939  0.2523  0.0547
    1DPPC   GL1 1407  19.443   5.697   6.415  0.1986  0.1130  0.2542
    1DPPC   GL2 1408  19.320   5.342   6.369  0.0696 -0.1324 -0.0419
    1DPPC   C1A 1409  19.534   5.587   6.009 -0.0041 -0.2154  0.1673
    1DPPC   C2A 1410  19.368   5.445   5.611  0.0623  0.0261 -0.2258
    1DPPC   C3A 1411  19.559   5.303   5.181 -0.0998 -0.0481  0.1938
    1DPPC   C4A 1412  19.832   5.059   4.972  0.1649  0.4419 -0.1555
    1DPPC   C1B 1413  19.331   5.058   5.988  0.0598 -0.1640 -0.0011
    1DPPC   C2B 1414  19.388   4.923   5.499 -0.0877  0.1572  0.0695
    1DPPC   C3B 1415  19.491   4.686   5.214 -0.0607 -0.0600  0.1375
    1DPPC   C4B 1416  19.341   4.430   4.817  0.0558 -0.2452  0.0223
    1DPPC   NC3 1417   2.636  10.250   6.091  0.1454 -0.2337  0.3688
    1DPPC   PO4 1418   2.395   9.908   6.229  0.1242  0.1586 -0.2779
    1DPPC   GL1 1419   2.201  10.069   5.805 -0.2511 -0.1005  0.3147
    1DPPC   GL2 1420   1.878   9.992   5.892 -0.2345 -0.1168 -0.1028
    1DPPC   C1A 1421   2.346  10.046   5.377 -0.1386  0.2352  0.0634
    1DPPC   C2A 1422   2.271  10.228   4.962 -0.2529 -0.0147 -0.1240
    1DPPC   C3A 1423   2.308  10.267   4.550 -0.1249 -0.0389  0.0921
    1DPPC   C4A 1424   2.450  10.085   4.261  0.2402 -0.0429 -0.1380
    1DPPC   C1B 1425   1.848  10.228   5.472 -0.1745  0.0850  0.2005
    1DPPC   C2B 1426   1.894  10.476   5.106  0.0188 -0.2208  0.0964
    1DPPC   C3B 1427   2.165  10.659   4.884 -0.1258  0.1413  0.2271
    1DPPC   C4B 1428   2.150  10.747   4.435  0.1623 -0.0973  0.2153
    1DPPC   NC3 1429  19.921   8.045   6.955 -0.0913  0.2418  0.0580
    1DPPC   PO4 1430  19.625   7.796   6.898  0.0341  0.1826 -0.0992
    1DPPC   GL1 1431  19.485   7.769   6.518  0.0410 -0.0342 -0.1614
    1DPPC   GL2 1432  19.626   7.521   6.440  0.0988  0.1387  0.1496
    1DPPC   C1A 1433  19.417   7.770   6.020 -0.0196  0.0023 -0.1060
    1DPPC   C2A 1434  19.457   7.742   5.559 -0.2325  0.0177  0.0310
    1DPPC   C3A 1435  19.250   7.612   5.157  0.3394  0.0362 -0.2792
    1DPPC   C4A 1436  19.192   7.671   4.769  0.0584 -0.2349  0.3355
    1DPPC   C1B 1437  19.914   7.417   6.245 -0.4120 -0.0047 -0.1332
    1DPPC   C2B 1438  20.071   7.178   5.991  0.0101  0.1418 -0.2395
    1DPPC   C3B 1439  20.208   7.078   5.534 -0.1367  0.0975 -0.0362
    1DPPC   C4B 1440  20.132   7.158   5.059 -0.0935  0.0122  0.0233
    1DPPC   NC3 1441   1.246  15.601   7.061  0.0004  0.2219  0.0598
    1DPPC   PO4 1442   0.935  15.965   6.986  0.1574  0.0420 -0.3118
    1DPPC   GL1 1443   1.088  15.927   6.556  0.0194  0.0976 -0.3845
    1DPPC   GL2 1444   0.964  16.278   6.406 -0.0801  0.1852  0.0706
    1DPPC   C1A 1445   0.938  15.725   6.241 -0.0739 -0.1157  0.0886
    1DPPC   C2A 1446   0.674  15.516   5.994  0.0846 -0.2963  0.0670
    1DPPC   C3A 1447   0.715  15.201   5.668 -0.3976  0.2187 -0.1558
    1DPPC   C4A 1448   1.020  15.006   5.484 -0.0228  0.4948 -0.0444
    1DPPC   C1B 1449   0.723  16.173   6.223  0.0280  0.0963 -0.2847
    1DPPC   C2B 1450   0.619  16.188   5.754 -0.0847  0.0379  0.2307
    1DPPC   C3B 1451   0.521  16.124   5.247  0.0640  0.1295 -0.0662
    1DPPC   C4B 1452   0.637  15.895   4.844  0.1134  0.1141 -0.2191
    1DPPC   NC3 1453  28.391   9.374   6.822 -0.0366 -0.0314 -0.3032
    1DPPC   PO4 1454  27.962   9.436   6.656  0.2934  0.2716 -0.0813
    1DPPC   GL1 1455  28.021   9.369   6.352 -0.1005 -0.2251  0.0502
    1DPPC   GL2 1456  28.181   9.153   6.331  0.0220  0.1724  0.0903
    1DPPC   C1A 1457  28.082   9.511   5.941  0.0692 -0.1812 -0.2147
    1DPPC   C2A 1458  28.023   9.589   5.527  0.1061  0.2519 -0.1220
    1DPPC   C3A 1459  27.965   9.718   5.071 -0.2047 -0.2855  0.0485
    1DPPC   C4A 1460  27.792   9.890   4.670  0.0235 -0.1017 -0.0535
    1DPPC   C1B 1461  28.475   9.206   6.106  0.3652  0.0846 -0.1667
    1DPPC   C2B 1462  28.384   9.292   5.659  0.0594 -0.3339  0.0037
    1DPPC   C3B 1463  28.363   9.321   5.241 -0.2999 -0.0313  0.1344
    1DPPC   C4B 1464  28.397   9.253   4.756 -0.0630  0.1341 -0.0575
    1DPPC   NC3 1465   5.592  15.641   6.049 -0.0991 -0.0347 -0.3615
    1DPPC   PO4 1466   5.262  15.382   5.985 -0.0849  0.2333  0.0255
    1DPPC   GL1 1467   5.136  15.503   5.634  0.1308 -0.1210  0.0851
    1DPPC   GL2 1468   5.367  15.686   5.480 -0.1435 -0.0066 -0.0544
    1DPPC   C1A 1469   4.835  15.509   5.253 -0.2138  0.0245 -0.1624
    1DPPC   C2A 1470   4.905  15.471   4.773 -0.1692 -0.0206 -0.0155
    1DPPC   C3A 1471   4.800  15.754   4.397  0.1232  0.0420  0.1002
    1DPPC   C4A 1472   4.676  15.911   4.023  0.1259 -0.2510  0.4371
    1DPPC   C1B 1473   5.293  15.305   5.210 -0.0459  0.1089 -0.0051
    1DPPC   C2B 1474   5.443  15.261   4.799 -0.1240 -0.3557  0.0466
    1DPPC   C3B 1475   5.324  15.096   4.419 -0.2184  0.1508  0.1293
    1DPPC   C4B 1476   4.992  14.865   4.210 -0.0494 -0.0894  0.0133
    1DPPC   NC3 1477  23.073  17.198   7.464 -0.3151  0.1819 -0.0518
    1DPPC   PO4 1478  23.464  16.981   7.322 -0.1817  0.1159  0.1487
    1DPPC   GL1 1479  23.159  16.994   6.996 -0.1856 -0.0014  0.2252
    1DPPC   GL2 1480  23.179  17.115   6.700  0.1008 -0.1903  0.0197
    1DPPC   C1A 1481  22.916  16.584   6.753  0.0272  0.0628 -0.0581
    1DPPC   C2A 1482  22.670  16.450   6.434 -0.1130 -0.0642 -0.0020
    1DPPC   C3A 1483  22.386  16.432   6.057  0.1998  0.1068  0.1936
    1DPPC   C4A 1484  22.172  16.494   5.717 -0.0961  0.1825 -0.1800
    1DPPC   C1B 1485  23.197  16.778   6.367 -0.0065  0.4182 -0.0270
    1DPPC   C2B 1486  23.438  16.794   6.066  0.0057  0.2372 -0.0183
    1DPPC   C3B 1487  23.560  16.930   5.647  0.1213 -0.2049 -0.0755
    1DPPC   C4B 1488  23.683  17.106   5.227 -0.2476 -0.0818 -0.0070
    1DPPC   NC3 1489   4.336  13.918   6.030  0.2188  0.1196 -0.5003
    1DPPC   PO4 1490   4.302  13.433   5.869  0.0002  0.1091  0.2760
    1DPPC   GL1 1491   4.257  13.638   5.547 -0.1522  0.2305  0.0925
    1DPPC   GL2 1492   4.163  13.933   5.591  0.6834  0.0980 -0.1414
    1DPPC   C1A 1493   4.590  13.492   5.199 -0.0663  0.0238  0.0104
    1DPPC   C2A 1494   4.733  13.426   4.756  0.0934 -0.2359  0.0874
    1DPPC   C3A 1495   4.949  13.529   4.364 -0.0452  0.1070 -0.0121
    1DPPC   C4A 1496   5.089  13.392   3.964 -0.0057 -0.0976 -0.0744
    1DPPC   C1B 1497   4.231  13.848   5.119 -0.0004  0.1034 -0.2318
    1DPPC   C2B 1498   4.245  13.731   4.700  0.1239  0.2247  0.1296
    1DPPC   C3B 1499   4.565  13.882   4.400  0.3171  0.1824 -0.0341
    1DPPC   C4B 1500   4.743  13.941   4.019 -0.3433 -0.0963 -0.0959
    1DPPC   NC3 1501  21.069   7.046   6.855  0.0698  0.4714 -0.1719
    1DPPC   PO4 1502  20.882   7.354   7.138  0.1063 -0.2358 -0.1574
    1DPPC   GL1 1503  20.718   7.376   6.696 -0.1404  0.0296  0.0353
    1DPPC   GL2 1504  20.483   7.238   6.785 -0.2635 -0.4038  0.1633
    1DPPC   C1A 1505  20.859   7.401   6.342 -0.0631  0.0889 -0.1215
    1DPPC   C2A 1506  20.997   7.395   5.962  0.0471  0.4764  0.0376
    1DPPC   C3A 1507  21.199   7.299   5.535  0.4467 -0.0528 -0.2702
    1DPPC   C4A 1508  21.303   7.318   5.214  0.0274  0.1782 -0.0841
    1DPPC   C1B 1509  20.304   7.109   6.512 -0.2124 -0.1767 -0.4426
    1DPPC   C2B 1510  20.524   6.946   6.155 -0.0292  0.1258 -0.0274
    1DPPC   C3B 1511  20.435   6.699   5.768  0.0035 -0.1065 -0.1693
    1DPPC   C4B 1512  20.442   6.500   5.337 -0.3444 -0.1155 -0.1653
    1DPPC   NC3 1513  28.101  11.804   6.973 -0.0901 -0.0480 -0.2931
    1DPPC   PO4 1514  27.696  11.977   6.848  0.0737  0.0750  0.5870
    1DPPC   GL1 1515  27.491  11.906   6.521 -0.2144 -0.2740  0.2571
    1DPPC   GL2 1516  27.179  11.759   6.649 -0.2832 -0.0179 -0.0827
    1DPPC   C1A 1517  27.355  11.836   6.115  0.1732  0.0012  0.3373
    1DPPC   C2A 1518  27.300  11.792   5.761  0.0255  0.0464  0.1037
    1DPPC   C3A 1519  27.528  11.726   5.416 -0.2540  0.1565 -0.2249
    1DPPC   C4A 1520  27.580  11.687   5.002  0.0434  0.4718  0.2604
    1DPPC   C1B 1521  27.011  11.483   6.313 -0.1829  0.1865 -0.0984
    1DPPC   C2B 1522  27.031  11.391   5.908 -0.1403 -0.2049 -0.1610
    1DPPC   C3B 1523  27.132  11.358   5.467 -0.1222  0.2713 -0.1677
    1DPPC   C4B 1524  27.121  11.430   5.026  0.1021  0.0745  0.1651
    1DPPC   NC3 1525  20.848   4.565   7.015 -0.0927 -0.1902  0.1543
    1DPPC   PO4 1526  20.927   4.876   7.158 -0.2120  0.1743 -0.0042
    1DPPC   GL1 1527  20.893   5.145   6.788 -0.2496  0.1811  0.0365
    1DPPC   GL2 1528  20.724   4.964   6.648 -0.0479 -0.0779 -0.4299
    1DPPC   C1A 1529  21.135   5.189   6.426 -0.0510  0.2803 -0.1049
    1DPPC   C2A 1530  21.269   5.082   5.987  0.3250 -0.1104  0.0337
    1DPPC   C3A 1531  21.579   5.036   5.684 -0.2653  0.1230 -0.0009
    1DPPC   C4A 1532  21.744   4.811   5.274  0.0976  0.0237 -0.0440
    1DPPC   C1B 1533  20.682   4.944   6.247 -0.2622 -0.1252 -0.0015
    1DPPC   C2B 1534  20.809   4.872   5.851  0.0953 -0.1563  0.0980
    1DPPC   C3B 1535  21.054   4.905   5.552  0.1760 -0.0046 -0.3117
    1DPPC   C4B 1536  21.157   5.087   5.213 -0.2870  0.0341 -0.0635
    1DPPC   NC3 1537   1.134  13.895   6.977 -0.2421  0.2699  0.1632
    1DPPC   PO4 1538   1.546  13.822   6.840  0.3317 -0.3739 -0.0870
    1DPPC   GL1 1539   1.453  13.930   6.471 -0.1996 -0.0485  0.1542
    1DPPC   GL2 1540   1.728  13.933   6.134  0.0974  0.0411 -0.3990
    1DPPC   C1A 1541   1.286  14.193   6.210  0.2361 -0.0198  0.0703
    1DPPC   C2A 1542   0.924  14.248   6.140 -0.1866  0.1605 -0.0733
    1DPPC   C3A 1543   0.771  14.286   5.739  0.3180  0.1683 -0.0635
    1DPPC   C4A 1544   0.560  14.331   5.325 -0.0785  0.3511 -0.0936
    1DPPC   C1B 1545   1.533  14.062   5.725 -0.2474 -0.2352 -0.2695
    1DPPC   C2B 1546   1.381  14.030   5.261  0.1366 -0.0102  0.0277
    1DPPC   C3B 1547   1.243  13.722   4.816  0.1051 -0.2452 -0.2566
    1DPPC   C4B 1548   0.949  13.927   4.527 -0.0431 -0.2210  0.3010
    1DPPC   NC3 1549  27.143   8.609   6.688 -0.2100 -0.1044  0.1472
    1DPPC   PO4 1550  27.576   8.676   6.475 -0.0210  0.3055  0.0613
    1DPPC   GL1 1551  27.367   8.605   6.192  0.0563  0.1403  0.2356
    1DPPC   GL2 1552  27.068   8.801   6.243 -0.1592 -0.0030 -0.0160
    1DPPC   C1A 1553  27.356   8.750   5.821 -0.0873  0.1737 -0.1185
    1DPPC   C2A 1554  27.368   8.737   5.448 -0.0516 -0.0546  0.3779
    1DPPC   C3A 1555  27.384   8.693   5.064 -0.0863  0.0535  0.0359
    1DPPC   C4A 1556  27.211   8.686   4.755 -0.0772 -0.0831  0.0327
    1DPPC   C1B 1557  26.889   9.030   5.899  0.1670  0.0149  0.0812
    1DPPC   C2B 1558  26.797   9.072   5.420 -0.2943  0.1203  0.0319
    1DPPC   C3B 1559  26.769   9.055   4.965  0.2740 -0.1028 -0.2834
    1DPPC   C4B 1560  26.793   8.908   4.488  0.1794  0.1833  0.0597
    1DPPC   NC3 1561  25.444   5.513   6.815  0.0051 -0.0029  0.0271
    1DPPC   PO4 1562  25.329   6.003   6.808 -0.1447 -0.2148  0.3275
    1DPPC   GL1 1563  25.022   6.079   6.570  0.1697  0.2697  0.2526
    1DPPC   GL2 1564  24.669   6.238   6.581 -0.1054 -0.0216 -0.0718
    1DPPC   C1A 1565  25.067   6.248   6.085 -0.2178 -0.1184 -0.0416
    1DPPC   C2A 1566  25.148   6.231   5.642  0.0659 -0.1738 -0.2377
    1DPPC   C3A 1567  25.016   6.399   5.224  0.1166 -0.0656 -0.1066
    1DPPC   C4A 1568  24.849   6.539   4.947 -0.0647  0.2447  0.0438
    1DPPC   C1B 1569  24.568   6.089   6.132 -0.1030 -0.1462 -0.0286
    1DPPC   C2B 1570  24.606   6.182   5.691 -0.1348 -0.0578 -0.0805
    1DPPC   C3B 1571  24.601   6.139   5.279  0.1947  0.0225  0.0418
    1DPPC   C4B 1572  24.638   6.086   4.975  0.0627 -0.2017 -0.0747
    1DPPC   NC3 1573  28.503  12.050   7.341  0.0903  0.0332  0.0461
    1DPPC   PO4 1574  28.581  11.680   7.126  0.1502 -0.0377  0.1670
    1DPPC   GL1 1575  28.604  11.758   6.707 -0.3289 -0.1474 -0.0933
    1DPPC   GL2 1576  28.914  11.943   6.680  0.3065  0.0194  0.1827
    1DPPC   C1A 1577  28.477  11.784   6.329  0.0213 -0.4485  0.1695
    1DPPC   C2A 1578  28.439  11.890   5.834  0.1701 -0.0112  0.2564
    1DPPC   C3A 1579  28.417  11.718   5.461 -0.1733 -0.0801 -0.0393
    1DPPC   C4A 1580  28.372  11.578   4.990 -0.1572 -0.1368 -0.2331
    1DPPC   C1B 1581  28.753  12.210   6.340  0.0905  0.5473 -0.0891
    1DPPC   C2B 1582  28.689  12.378   5.976 -0.0081  0.2632  0.0748
    1DPPC   C3B 1583  28.552  12.348   5.537 -0.0539 -0.0922 -0.0186
    1DPPC   C4B 1584  28.476  12.089   5.118  0.0988  0.0239 -0.1624
    1DPPC   NC3 1585  18.329   5.753   7.352 -0.0172  0.0569  0.4795
    1DPPC   PO4 1586  18.664   5.687   6.918  0.2187 -0.1331 -0.0025
    1DPPC   GL1 1587  18.716   5.646   6.482  0.1948 -0.0120  0.0373
    1DPPC   GL2 1588  18.575   5.542   6.274 -0.0252  0.0963  0.0161
    1DPPC   C1A 1589  18.765   6.036   6.196  0.1089 -0.0729 -0.0095
    1DPPC   C2A 1590  18.969   6.259   5.805 -0.2145 -0.0694 -0.0983
    1DPPC   C3A 1591  19.059   6.290   5.380 -0.1769 -0.0362  0.0018
    1DPPC   C4A 1592  18.979   6.132   4.973 -0.2855 -0.0442  0.2656
    1DPPC   C1B 1593  18.437   5.326   5.951  0.1832  0.3705 -0.2932
    1DPPC   C2B 1594  18.462   5.220   5.577  0.2216  0.0215 -0.0893
    1DPPC   C3B 1595  18.536   5.140   5.191 -0.0816  0.4668 -0.4837
    1DPPC   C4B 1596  18.770   5.102   4.789  0.2137  0.1167 -0.2819
    1DPPC   NC3 1597  21.036  12.895   7.083  0.0444  0.1761  0.0323
    1DPPC   PO4 1598  21.367  12.563   7.165 -0.0094 -0.4438 -0.0046
    1DPPC   GL1 1599  21.388  12.574   6.830  0.1820 -0.2646 -0.1271
    1DPPC   GL2 1600  21.090  12.564   6.692  0.2287 -0.1817  0.2127
    1DPPC   C1A 1601  21.611  12.425   6.451 -0.0438 -0.0154  0.1169
    1DPPC   C2A 1602  21.989  12.475   6.174 -0.0443  0.4102 -0.0577
    1DPPC   C3A 1603  22.199  12.407   5.838 -0.2297  0.3179 -0.1248
    1DPPC   C4A 1604  22.095  12.369   5.383  0.1814  0.0002 -0.0187
    1DPPC   C1B 1605  21.173  12.695   6.327 -0.1863  0.0445 -0.0298
    1DPPC   C2B 1606  21.331  12.670   5.973 -0.1594 -0.2020 -0.2441
    1DPPC   C3B 1607  21.114  12.763   5.716 -0.1005 -0.0498 -0.2743
    1DPPC   C4B 1608  21.072  12.832   5.351  0.2436  0.2351  0.2929
    1DPPC   NC3 1609  22.122   8.121   7.411 -0.0178 -0.1936  0.0061
    1DPPC   PO4 1610  22.074   7.946   7.070 -0.0478 -0.1941  0.1842
    1DPPC   GL1 1611  22.287   8.032   6.708 -0.5121  0.2707 -0.2018
    1DPPC   GL2 1612  22.181   7.744   6.621  0.2950 -0.1226 -0.0478
    1DPPC   C1A 1613  22.259   8.104   6.215  0.2679  0.0093 -0.0194
    1DPPC   C2A 1614  22.299   8.101   5.794 -0.0931  0.0959  0.0819
    1DPPC   C3A 1615  22.408   7.936   5.355  0.2085  0.0555 -0.1014
    1DPPC   C4A 1616  22.454   8.119   4.960  0.0780  0.0634 -0.2021
    1DPPC   C1B 1617  22.130   7.636   6.151 -0.0207  0.1637 -0.0333
    1DPPC   C2B 1618  22.150   7.681   5.718  0.0511  0.0124  0.2822
    1DPPC   C3B 1619  22.094   7.556   5.288 -0.2188 -0.2550 -0.1825
    1DPPC   C4B 1620  22.198   7.608   4.887  0.0621  0.4106  0.1530
    1DPPC   NC3 1621  28.724  15.461   7.602 -0.1487 -0.2604 -0.0839
    1DPPC   PO4 1622  28.929  15.521   7.136 -0.2042  0.2263 -0.0681
    1DPPC   GL1 1623  29.041  15.602   6.636  0.0521  0.2959 -0.0142
    1DPPC   GL2 1624  29.214  15.718   6.445  0.2564  0.1897  0.1549
    1DPPC   C1A 1625  28.760  15.730   6.274  0.0016 -0.1053 -0.1215
    1DPPC   C2A 1626  28.814  15.726   5.941 -0.0256 -0.0119 -0.4136
    1DPPC   C3A 1627  29.035  15.751   5.557  0.0234  0.0127 -0.0005
    1DPPC   C4A 1628  29.231  15.885   5.131  0.0323 -0.0916 -0.1115
    1DPPC   C1B 1629  29.278  15.645   6.010  0.0498 -0.1782 -0.1274
    1DPPC   C2B 1630  29.555  15.696   5.603 -0.0485  0.1755  0.3061
    1DPPC   C3B 1631   0.154  15.822   5.195  0.3623 -0.1701 -0.1902
    1DPPC   C4B 1632   0.192  15.759   4.713  0.1283 -0.1695 -0.1412
    1DPPC   NC3 1633  24.464   6.472   7.077  0.1609 -0.1182 -0.4137
    1DPPC   PO4 1634  24.226   6.104   7.100  0.4049 -0.5619 -0.2713
    1DPPC   GL1 1635  24.189   6.338   6.705  0.1308 -0.2956  0.0166
    1DPPC   GL2 1636  24.134   6.654   6.775  0.1297  0.1512  0.2423
    1DPPC   C1A 1637  24.207   6.387   6.309 -0.1494 -0.0489 -0.0133
    1DPPC   C2A 1638  24.175   6.490   5.892  0.0293  0.1281  0.0390
    1DPPC   C3A 1639  24.171   6.492   5.428 -0.3567  0.0893  0.1644
    1DPPC   C4A 1640  24.201   6.458   5.011  0.0501  0.0225  0.0834
    1DPPC   C1B 1641  23.861   6.878   6.456  0.0334  0.1197  0.1289
    1DPPC   C2B 1642  23.731   6.741   6.081 -0.1271 -0.0587 -0.2786
    1DPPC   C3B 1643  23.772   6.693   5.652 -0.0310  0.2593  0.2422
    1DPPC   C4B 1644  23.641   6.647   5.196 -0.2341  0.1931  0.1577
    1DPPC   NC3 1645  25.105   8.403   7.542  0.0206  0.3109  0.0148
    1DPPC   PO4 1646  25.154   8.576   7.137 -0.0485 -0.0433  0.1614
    1DPPC   GL1 1647  25.332   8.659   6.705  0.0435 -0.1130 -0.1892
    1DPPC   GL2 1648  25.084   8.791   6.609  0.1415  0.2209  0.1403
    1DPPC   C1A 1649  25.443   8.751   6.267 -0.1406  0.2208  0.0103
    1DPPC   C2A 1650  25.365   8.784   5.794  0.0507  0.0290  0.3950
    1DPPC   C3A 1651  25.436   8.671   5.441  0.1860  0.2085  0.3441
    1DPPC   C4A 1652  25.315   8.670   5.032 -0.0935 -0.4901 -0.1459
    1DPPC   C1B 1653  24.930   8.622   6.273  0.2474  0.0276 -0.0776
    1DPPC   C2B 1654  24.909   8.597   5.816  0.2024 -0.1980  0.0690
    1DPPC   C3B 1655  24.891   8.586   5.343 -0.0795 -0.1960 -0.1519
    1DPPC   C4B 1656  24.777   8.601   4.957  0.2002  0.1293 -0.0283
    1DPPC   NC3 1657   1.722  14.795   6.525  0.1055 -0.1730 -0.0924
    1DPPC   PO4 1658   2.200  14.792   6.551 -0.0609 -0.0113 -0.0472
    1DPPC   GL1 1659   2.051  14.929   6.158  0.1832 -0.0166  0.0580
    1DPPC   GL2 1660   1.801  15.209   6.265  0.0267 -0.1035 -0.0421
    1DPPC   C1A 1661   2.038  15.177   5.823  0.4416 -0.3268 -0.0103
    1DPPC   C2A 1662   1.909  15.416   5.532  0.1026 -0.0337  0.1394
    1DPPC   C3A 1663   2.016  15.538   5.143 -0.1173  0.1118 -0.3329
    1DPPC   C4A 1664   2.353  15.762   5.067 -0.0582  0.0643 -0.3552
    1DPPC   C1B 1665   1.535  15.182   5.846 -0.1267  0.1876 -0.0878
    1DPPC   C2B 1666   1.516  15.175   5.448 -0.0814  0.0011 -0.3338
    1DPPC   C3B 1667   1.437  15.151   5.087 -0.0952 -0.1158  0.2433
    1DPPC   C4B 1668   1.369  14.897   4.755 -0.0360  0.1419 -0.1638
    1DPPC   NC3 1669  26.577   1.811   6.981  0.3250  0.2183 -0.0689
    1DPPC   PO4 1670  26.836   2.085   6.771  0.0714  0.0780 -0.0813
    1DPPC   GL1 1671  27.223   1.929   6.568 -0.3817  0.0305 -0.0140
    1DPPC   GL2 1672  27.491   2.029   6.559 -0.2071 -0.1923  0.0828
    1DPPC   C1A 1673  27.261   1.688   6.142  0.0614 -0.0462 -0.1252
    1DPPC   C2A 1674  27.203   1.798   5.742 -0.1243  0.0777  0.0500
    1DPPC   C3A 1675  27.155   1.583   5.337 -0.2042  0.0669  0.2473
    1DPPC   C4A 1676  27.461   1.652   4.918 -0.0753  0.4103 -0.1246
    1DPPC   C1B 1677  27.413   2.163   6.117 -0.0246 -0.2314  0.0006
    1DPPC   C2B 1678  27.282   2.281   5.757  0.1245 -0.1026  0.0174
    1DPPC   C3B 1679  27.216   2.149   5.414  0.2023  0.3263 -0.1419
    1DPPC   C4B 1680  27.418   2.221   5.095 -0.2899 -0.0622 -0.1553
    1DPPC   NC3 1681  14.911  14.762   6.671  0.1649  0.0504  0.1033
    1DPPC   PO4 1682  15.339  14.775   6.665 -0.0330  0.2615 -0.0274
    1DPPC   GL1 1683  15.204  14.642   6.295 -0.1175 -0.1419  0.1768
    1DPPC   GL2 1684  14.824  14.721   6.187 -0.0450  0.0836  0.3231
    1DPPC   C1A 1685  15.361  14.457   5.870  0.0236  0.0007 -0.0437
    1DPPC   C2A 1686  15.317  14.377   5.406 -0.1120 -0.2089 -0.0243
    1DPPC   C3A 1687  14.935  14.458   5.104  0.0005 -0.1168  0.3327
    1DPPC   C4A 1688  14.909  14.573   4.660  0.0342  0.0132  0.1453
    1DPPC   C1B 1689  15.092  14.878   5.890 -0.0584 -0.2232 -0.2295
    1DPPC   C2B 1690  15.150  14.873   5.438 -0.0213 -0.2117 -0.1311
    1DPPC   C3B 1691  15.095  15.032   4.995  0.1423 -0.0945 -0.0412
    1DPPC   C4B 1692  15.048  15.044   4.591 -0.1185 -0.2604  0.1708
    1DPPC   NC3 1693   2.365   8.593   5.946  0.2636 -0.0736 -0.0309
    1DPPC   PO4 1694   2.287   9.048   5.787 -0.1641  0.0722  0.1129
    1DPPC   GL1 1695   2.176   9.078   5.449 -0.1547 -0.1036  0.1049
    1DPPC   GL2 1696   2.369   8.989   5.249 -0.2254 -0.1199 -0.2709
    1DPPC   C1A 1697   2.053   9.297   5.083 -0.0746 -0.2007  0.3223
    1DPPC   C2A 1698   1.999   9.355   4.649  0.0488  0.2761  0.2334
    1DPPC   C3A 1699   1.831   9.222   4.279 -0.2628 -0.0858  0.0712
    1DPPC   C4A 1700   1.726   9.406   3.972  0.2338  0.1082 -0.2641
    1DPPC   C1B 1701   2.364   9.007   4.857 -0.1013  0.1560 -0.1447
    1DPPC   C2B 1702   2.303   8.975   4.462  0.3223  0.2024  0.2463
    1DPPC   C3B 1703   2.205   8.650   4.170 -0.1819 -0.1477  0.0274
    1DPPC   C4B 1704   1.989   8.517   3.823  0.1075 -0.0849  0.4007
    1DPPC   NC3 1705  20.435   7.553   7.198  0.0566 -0.0980 -0.1169
    1DPPC   PO4 1706  20.402   8.014   7.160 -0.0411 -0.2820 -0.2471
    1DPPC   GL1 1707  20.503   7.884   6.673 -0.1505  0.1502  0.0475
    1DPPC   GL2 1708  20.770   7.900   6.473  0.5600  0.0125 -0.1214
    1DPPC   C1A 1709  20.384   7.581   6.370 -0.2601 -0.0832 -0.0202
    1DPPC   C2A 1710  20.515   7.412   5.976  0.1208 -0.3744 -0.1555
    1DPPC   C3A 1711  20.701   7.160   5.660 -0.0209 -0.0191 -0.2696
    1DPPC   C4A 1712  20.763   7.047   5.258  0.1116 -0.0945  0.0139
    1DPPC   C1B 1713  20.787   7.849   6.019 -0.3522  0.1951  0.0818
    1DPPC   C2B 1714  20.745   7.699   5.610  0.0314  0.0557 -0.0455
    1DPPC   C3B 1715  20.597   7.662   5.126 -0.0621  0.1310  0.0847
    1DPPC   C4B 1716  20.347   7.576   4.721 -0.3339 -0.0720 -0.2472
    1DPPC   NC3 1717  21.300   8.948   7.512  0.2622 -0.2584  0.3229
    1DPPC   PO4 1718  20.965   8.755   7.183 -0.2199 -0.1436 -0.1252
    1DPPC   GL1 1719  20.865   8.779   6.778 -0.1242 -0.2032 -0.0317
    1DPPC   GL2 1720  20.596   8.783   6.684  0.0214  0.0635  0.0343
    1DPPC   C1A 1721  21.103   8.899   6.424 -0.0695  0.3232  0.1074
    1DPPC   C2A 1722  21.075   8.831   6.015 -0.0882 -0.1211 -0.1117
    1DPPC   C3A 1723  21.112   8.723   5.625  0.1953 -0.1244  0.4053
    1DPPC   C4A 1724  21.029   8.602   5.232  0.2116  0.1669 -0.2319
    1DPPC   C1B 1725  20.621   8.671   6.237  0.2248  0.0085 -0.1704
    1DPPC   C2B 1726  20.590   8.633   5.816  0.0835  0.0409 -0.2436
    1DPPC   C3B 1727  20.583   8.478   5.463  0.2223 -0.2102 -0.0574
    1DPPC   C4B 1728  20.571   8.534   4.950 -0.1439 -0.0153 -0.0362
    1DPPC   NC3 1729  28.238  13.962   7.375  0.0926 -0.1473 -0.1735
    1DPPC   PO4 1730  28.017  14.396   7.292  0.2431 -0.0388  0.0342
    1DPPC   GL1 1731  28.020  14.087   6.925  0.0202  0.0212 -0.1254
    1DPPC   GL2 1732  27.790  14.054   6.687  0.3330  0.3524  0.1839
    1DPPC   C1A 1733  28.175  14.031   6.401  0.1877 -0.0294 -0.0246
    1DPPC   C2A 1734  28.127  13.996   5.970 -0.0102  0.0720  0.2310
    1DPPC   C3A 1735  28.209  13.962   5.544 -0.2158  0.1647  0.0680
    1DPPC   C4A 1736  28.223  14.052   5.194 -0.0815  0.0863 -0.0735
    1DPPC   C1B 1737  27.692  14.159   6.243  0.3958  0.2833  0.0656
    1DPPC   C2B 1738  27.699  14.144   5.764  0.1800  0.0638 -0.0890
    1DPPC   C3B 1739  27.766  13.982   5.252 -0.0573  0.3011 -0.1921
    1DPPC   C4B 1740  27.511  14.027   4.857 -0.0137  0.1111  0.2922
    1DPPC   NC3 1741  16.903  12.937   7.142  0.2617  0.0605 -0.1805
    1DPPC   PO4 1742  16.504  12.756   6.896 -0.1097 -0.1355 -0.2046
    1DPPC   GL1 1743  16.727  12.824   6.525 -0.0180 -0.3144  0.0753
    1DPPC   GL2 1744  16.563  12.566   6.314 -0.2132 -0.0700 -0.1241
    1DPPC   C1A 1745  17.050  12.575   6.312  0.0974  0.1760  0.1644
    1DPPC   C2A 1746  17.269  12.502   5.982  0.1108 -0.1590  0.1603
    1DPPC   C3A 1747  17.302  12.563   5.577 -0.4115 -0.0554 -0.0191
    1DPPC   C4A 1748  17.593  12.663   5.213 -0.0260 -0.0468  0.0675
    1DPPC   C1B 1749  16.787  12.643   5.908  0.0147  0.1245 -0.1389
    1DPPC   C2B 1750  16.749  12.710   5.520  0.2909  0.0207  0.1679
    1DPPC   C3B 1751  16.733  12.787   5.120  0.3230  0.1429  0.0658
    1DPPC   C4B 1752  16.375  12.883   4.856 -0.1532  0.0395 -0.0441
    1DPPC   NC3 1753  22.060  20.345   7.133 -0.0292 -0.0752 -0.0605
    1DPPC   PO4 1754  22.428  20.445   6.864 -0.1059  0.3516 -0.2241
    1DPPC   GL1 1755  22.175  20.281   6.623  0.2121 -0.0475  0.1590
    1DPPC   GL2 1756  21.983  19.894   6.692  0.2259  0.4710 -0.5231
    1DPPC   C1A 1757  21.978  20.220   6.311 -0.0350 -0.0376  0.2592
    1DPPC   C2A 1758  21.918  20.358   5.845  0.3370 -0.3221 -0.1794
    1DPPC   C3A 1759  21.956  20.213   5.432  0.2347  0.3360 -0.0422
    1DPPC   C4A 1760  21.782  20.259   5.011  0.1035  0.1817  0.1453
    1DPPC   C1B 1761  22.027  19.709   6.254 -0.2414 -0.0828  0.1080
    1DPPC   C2B 1762  22.169  19.337   6.002 -0.0846 -0.0176 -0.0951
    1DPPC   C3B 1763  22.358  19.358   5.594  0.1676  0.1666 -0.0118
    1DPPC   C4B 1764  22.459  19.394   5.154  0.0894 -0.4532 -0.0113
    1DPPC   NC3 1765   1.823   9.262   5.684  0.0525 -0.0202 -0.0532
    1DPPC   PO4 1766   1.629   8.909   5.402 -0.1337  0.0917 -0.1362
    1DPPC   GL1 1767   1.573   9.281   5.146  0.0166 -0.2729  0.2528
    1DPPC   GL2 1768   1.377   9.539   5.334 -0.0053 -0.2204  0.1597
    1DPPC   C1A 1769   1.497   9.318   4.687  0.1093  0.0379 -0.0133
    1DPPC   C2A 1770   1.437   9.641   4.294  0.1312  0.0205  0.0155
    1DPPC   C3A 1771   1.522  10.142   4.304  0.0807 -0.0321  0.0194
    1DPPC   C4A 1772   1.698  10.487   4.544 -0.1111  0.3602 -0.0840
    1DPPC   C1B 1773   1.302   9.711   4.956 -0.0036 -0.2317 -0.4104
    1DPPC   C2B 1774   0.986   9.880   4.497 -0.0444 -0.0700 -0.2085
    1DPPC   C3B 1775   0.991   9.732   4.019  0.1040  0.1508 -0.1336
    1DPPC   C4B 1776   1.268   9.526   3.842  0.2722  0.4164  0.0058
    1DPPC   NC3 1777  25.451  14.423   6.767  0.0788 -0.1114 -0.1880
    1DPPC   PO4 1778  25.273  14.828   6.742 -0.1693  0.3700 -0.0031
    1DPPC   GL1 1779  25.221  15.005   6.400 -0.2786 -0.1728  0.2109
    1DPPC   GL2 1780  24.958  15.105   6.209 -0.3378  0.2499 -0.0320
    1DPPC   C1A 1781  25.396  15.253   6.042 -0.0779 -0.2764  0.0166
    1DPPC   C2A 1782  25.397  15.365   5.597  0.2468  0.2304  0.2148
    1DPPC   C3A 1783  25.393  15.639   5.243  0.2766  0.0482  0.1681
    1DPPC   C4A 1784  25.432  16.037   5.020 -0.2467  0.2097 -0.0665
    1DPPC   C1B 1785  24.852  15.418   5.897 -0.4392  0.3669 -0.1047
    1DPPC   C2B 1786  24.684  15.542   5.536 -0.0156  0.2370  0.4672
    1DPPC   C3B 1787  24.828  15.640   5.154 -0.1102  0.2111  0.0484
    1DPPC   C4B 1788  24.557  15.958   4.832  0.1564 -0.0954 -0.2625
    1DPPC   NC3 1789  17.013  11.563   6.850  0.0746 -0.1477  0.0596
    1DPPC   PO4 1790  16.787  11.918   6.797 -0.0165  0.3207 -0.2005
    1DPPC   GL1 1791  16.704  12.053   6.352  0.3840  0.1780  0.1677
    1DPPC   GL2 1792  16.460  11.869   6.381 -0.0518  0.0041  0.2089
    1DPPC   C1A 1793  16.877  12.150   5.944  0.4650 -0.3935  0.1901
    1DPPC   C2A 1794  16.927  12.201   5.540 -0.0862  0.1003 -0.1658
    1DPPC   C3A 1795  16.986  12.380   5.150  0.1240 -0.1718 -0.0866
    1DPPC   C4A 1796  17.163  12.619   4.808 -0.0159 -0.0084 -0.2593
    1DPPC   C1B 1797  16.600  11.700   6.012 -0.0197  0.1232 -0.2372
    1DPPC   C2B 1798  16.700  11.761   5.600  0.0087 -0.0838  0.3620
    1DPPC   C3B 1799  16.617  11.949   5.198 -0.1427 -0.1865  0.1705
    1DPPC   C4B 1800  16.556  11.742   4.791 -0.3253 -0.2347 -0.0660
    1DPPC   NC3 1801   1.214  16.388   6.841  0.0971 -0.3149 -0.3119
    1DPPC   PO4 1802   1.487  16.085   6.830  0.0120 -0.2081  0.1933
    1DPPC   GL1 1803   1.593  16.352   6.424  0.2484  0.2253 -0.0567
    1DPPC   GL2 1804   1.885  16.126   6.356 -0.1074 -0.2948 -0.3640
    1DPPC   C1A 1805   1.652  16.369   6.055  0.2788 -0.0224  0.2893
    1DPPC   C2A 1806   1.836  16.388   5.735  0.4394  0.0927  0.0131
    1DPPC   C3A 1807   2.048  16.475   5.412  0.0113  0.2004  0.0446
    1DPPC   C4A 1808   1.997  16.556   4.980 -0.0861  0.0492 -0.2802
    1DPPC   C1B 1809   1.519  15.854   6.252 -0.3646  0.0226  0.0083
    1DPPC   C2B 1810   1.266  16.062   5.974  0.3314  0.1363 -0.1152
    1DPPC   C3B 1811   1.407  16.203   5.626 -0.0848 -0.2098  0.1702
    1DPPC   C4B 1812   1.612  16.308   5.278  0.0213 -0.4362  0.0131
    1DPPC   NC3 1813  20.188   3.983   7.085 -0.2561 -0.2615  0.2497
    1DPPC   PO4 1814  20.426   4.296   6.838 -0.1114 -0.0211 -0.1881
    1DPPC   GL1 1815  20.559   4.245   6.539  0.1184  0.0302 -0.3890
    1DPPC   GL2 1816  20.833   4.036   6.512  0.0421 -0.2309 -0.0365
    1DPPC   C1A 1817  20.688   4.424   6.187  0.1517 -0.0831 -0.1929
    1DPPC   C2A 1818  20.752   4.386   5.776 -0.0044 -0.1366 -0.0131
    1DPPC   C3A 1819  20.888   4.429   5.365 -0.1119 -0.0098 -0.0693
    1DPPC   C4A 1820  20.642   4.146   5.098  0.0115  0.3152 -0.0103
    1DPPC   C1B 1821  21.088   4.090   6.288  0.4267  0.0422  0.1111
    1DPPC   C2B 1822  21.124   4.007   5.874  0.1128  0.1913  0.0423
    1DPPC   C3B 1823  21.208   4.036   5.476 -0.0894 -0.3627  0.2343
    1DPPC   C4B 1824  21.436   4.109   5.092 -0.2976 -0.1551 -0.1212
    1DPPC   NC3 1825  18.823  12.231   7.149 -0.1978  0.0521 -0.0901
    1DPPC   PO4 1826  18.576  12.578   7.330 -0.0013 -0.3420 -0.3672
    1DPPC   GL1 1827  18.757  12.798   6.981  0.0946 -0.0706 -0.2372
    1DPPC   GL2 1828  18.997  12.614   6.836  0.1322 -0.0043 -0.1117
    1DPPC   C1A 1829  18.634  13.030   6.623  0.3172 -0.0137  0.1847
    1DPPC   C2A 1830  18.595  13.049   6.079 -0.1619 -0.0001  0.0853
    1DPPC   C3A 1831  18.685  13.062   5.592 -0.2825 -0.2562  0.0740
    1DPPC   C4A 1832  18.735  13.031   5.128 -0.0089 -0.0979 -0.0324
    1DPPC   C1B 1833  19.215  12.544   6.504  0.1507 -0.1925 -0.0945
    1DPPC   C2B 1834  19.263  12.291   6.190  0.0469 -0.0714  0.0474
    1DPPC   C3B 1835  19.284  12.349   5.725 -0.3389 -0.0740  0.4383
    1DPPC   C4B 1836  19.397  12.171   5.264  0.1821 -0.1129  0.1143
    1DPPC   NC3 1837  29.180   7.350   5.969 -0.2095 -0.0065  0.0434
    1DPPC   PO4 1838  29.232   7.692   6.053  0.1399  0.1550 -0.0149
    1DPPC   GL1 1839  29.258   7.735   5.623  0.3085  0.0548 -0.2959
    1DPPC   GL2 1840  29.582   7.919   5.490 -0.0600  0.0842 -0.0007
    1DPPC   C1A 1841  28.947   7.675   5.380 -0.1333 -0.1711 -0.0969
    1DPPC   C2A 1842  28.890   7.703   4.893  0.0415 -0.0417 -0.0614
    1DPPC   C3A 1843  28.937   7.780   4.558 -0.0811 -0.3094  0.0585
    1DPPC   C4A 1844  28.739   7.873   4.191  0.1419 -0.0747 -0.1961
    1DPPC   C1B 1845  29.342   7.812   5.080 -0.1143  0.4298 -0.1778
    1DPPC   C2B 1846  29.481   7.892   4.666  0.2114 -0.1135  0.1210
    1DPPC   C3B 1847  29.276   7.970   4.287 -0.1527  0.1812 -0.0996
    1DPPC   C4B 1848  29.069   8.174   3.972 -0.0816  0.0853 -0.0411
    1DPPC   NC3 1849  23.333  14.296   7.053 -0.1213 -0.0788  0.0335
    1DPPC   PO4 1850  23.169  13.898   6.918 -0.1950 -0.1385  0.4189
    1DPPC   GL1 1851  22.952  13.800   6.531 -0.2342 -0.0872 -0.0025
    1DPPC   GL2 1852  22.675  13.844   6.514  0.1910 -0.2110  0.1544
    1DPPC   C1A 1853  22.957  13.566   6.143  0.0389 -0.2202 -0.2191
    1DPPC   C2A 1854  22.921  13.623   5.777  0.3509  0.0896  0.2186
    1DPPC   C3A 1855  22.996  13.739   5.266  0.0435  0.2547 -0.0528
    1DPPC   C4A 1856  23.060  13.499   4.899  0.0429 -0.1331  0.2154
    1DPPC   C1B 1857  22.774  14.030   6.106 -0.3722  0.1171  0.2243
    1DPPC   C2B 1858  22.653  14.112   5.669 -0.2130  0.1097  0.0920
    1DPPC   C3B 1859  22.606  14.016   5.143  0.0683 -0.0164  0.0284
    1DPPC   C4B 1860  22.782  14.014   4.805 -0.0385 -0.0976  0.0537
    1DPPC   NC3 1861  19.178   7.903   7.023  0.1827 -0.2223  0.3009
    1DPPC   PO4 1862  19.516   8.218   7.188  0.0593  0.1446 -0.0163
    1DPPC   GL1 1863  19.365   8.199   6.710  0.3107  0.1824  0.0662
    1DPPC   GL2 1864  19.569   8.300   6.533  0.0875  0.0683 -0.0691
    1DPPC   C1A 1865  19.150   8.050   6.310  0.1030  0.4157 -0.1848
    1DPPC   C2A 1866  19.044   8.043   5.893  0.0247  0.2096  0.0302
    1DPPC   C3A 1867  18.985   7.982   5.447 -0.2310  0.0873 -0.0682
    1DPPC   C4A 1868  18.903   7.983   5.090  0.0379  0.0044 -0.3073
    1DPPC   C1B 1869  19.575   8.279   6.125  0.1543  0.0949  0.1275
    1DPPC   C2B 1870  19.585   8.206   5.621 -0.0890 -0.2488  0.0092
    1DPPC   C3B 1871  19.654   8.061   5.173 -0.0476  0.0695 -0.1229
    1DPPC   C4B 1872  19.732   7.949   4.754 -0.0090  0.1386 -0.1472
    1DPPC   NC3 1873  26.140  20.919   7.231  0.0955 -0.0151  0.2591
    1DPPC   PO4 1874  26.090  21.284   7.144 -0.2389  0.2837 -0.1109
    1DPPC   GL1 1875  25.941  21.080   6.773  0.2092  0.0391 -0.0409
    1DPPC   GL2 1876  26.056  21.383   6.610 -0.1523 -0.1662  0.0014
    1DPPC   C1A 1877  26.219  20.864   6.455 -0.0396 -0.0702 -0.0562
    1DPPC   C2A 1878  26.346  20.699   6.015 -0.1998  0.4885  0.0112
    1DPPC   C3A 1879  26.465  20.966   5.613 -0.3479 -0.0352 -0.0688
    1DPPC   C4A 1880  26.732  21.368   5.663 -0.3151  0.0406  0.3117
    1DPPC   C1B 1881  26.111  21.453   6.233 -0.0327  0.1523  0.1325
    1DPPC   C2B 1882  26.209  21.417   5.744 -0.1042  0.0135 -0.0156
    1DPPC   C3B 1883  26.177  21.821   5.445 -0.1412 -0.2061 -0.1542
    1DPPC   C4B 1884  25.907  22.183   5.288  0.1561 -0.0892  0.0158
    1DPPC   NC3 1885  19.492  13.867   7.726  0.1741 -0.0909 -0.1454
    1DPPC   PO4 1886  19.891  14.070   7.742 -0.1581  0.2275 -0.0225
    1DPPC   GL1 1887  19.931  13.722   7.418  0.0990 -0.2022  0.0554
    1DPPC   GL2 1888  19.698  13.892   7.209  0.2155 -0.0240  0.3242
    1DPPC   C1A 1889  20.027  13.548   7.035 -0.2624 -0.0007 -0.1500
    1DPPC   C2A 1890  20.052  13.568   6.598 -0.0299 -0.0163 -0.2450
    1DPPC   C3A 1891  20.035  13.662   6.217  0.2020  0.3286  0.3122
    1DPPC   C4A 1892  19.906  13.597   5.732 -0.0588 -0.0233 -0.0421
    1DPPC   C1B 1893  19.620  14.169   6.964  0.0305 -0.1326 -0.0109
    1DPPC   C2B 1894  19.465  14.348   6.539  0.2022  0.0613 -0.1724
    1DPPC   C3B 1895  19.470  14.328   6.111 -0.0632  0.2310 -0.3281
    1DPPC   C4B 1896  19.449  14.334   5.665 -0.1387 -0.1373 -0.0235
    1DPPC   NC3 1897  27.150   5.036   6.532 -0.0336 -0.3630 -0.1088
    1DPPC   PO4 1898  26.863   5.096   6.313 -0.0615  0.1371 -0.0655
    1DPPC   GL1 1899  26.647   5.190   5.937  0.0784  0.3581  0.0567
    1DPPC   GL2 1900  26.322   5.011   5.946 -0.2539  0.1241  0.3535
    1DPPC   C1A 1901  26.681   5.306   5.489 -0.1965  0.1400 -0.0676
    1DPPC   C2A 1902  26.778   5.247   5.001 -0.0096 -0.0126  0.0192
    1DPPC   C3A 1903  26.673   5.234   4.515  0.1579  0.1595 -0.3016
    1DPPC   C4A 1904  26.307   5.103   4.389  0.0236  0.0348  0.1415
    1DPPC   C1B 1905  26.395   4.820   5.544 -0.5702  0.2207  0.5713
    1DPPC   C2B 1906  26.583   4.768   5.227  0.1661 -0.2206  0.1196
    1DPPC   C3B 1907  26.950   4.707   5.047  0.0529  0.0846 -0.0514
    1DPPC   C4B 1908  27.229   4.604   4.772  0.0813 -0.3347  0.1739
    1DPPC   NC3 1909  27.613  14.424   6.909  0.0532  0.0825  0.1480
    1DPPC   PO4 1910  27.536  14.822   7.097 -0.3491 -0.0216  0.0736
    1DPPC   GL1 1911  27.701  15.051   6.743 -0.2066  0.0193  0.0691
    1DPPC   GL2 1912  27.467  15.267   6.638 -0.3306 -0.1708 -0.0813
    1DPPC   C1A 1913  27.730  15.142   6.251 -0.5467 -0.1960 -0.0387
    1DPPC   C2A 1914  27.749  15.399   5.887  0.1977  0.2900 -0.2726
    1DPPC   C3A 1915  27.878  15.325   5.468 -0.0474  0.0103 -0.0416
    1DPPC   C4A 1916  27.801  15.431   4.953 -0.0444  0.1167 -0.0339
    1DPPC   C1B 1917  27.316  15.413   6.184 -0.1130 -0.0301 -0.1541
    1DPPC   C2B 1918  27.332  15.343   5.663  0.0405 -0.3098  0.0781
    1DPPC   C3B 1919  27.377  15.313   5.270 -0.1992  0.2617  0.0893
    1DPPC   C4B 1920  27.219  15.020   4.970  0.1969  0.2745 -0.1136
    1DPPC   NC3 1921  27.338   1.305   7.147 -0.1964 -0.0914 -0.0991
    1DPPC   PO4 1922  27.507   1.492   6.764 -0.4938 -0.2225 -0.1825
    1DPPC   GL1 1923  27.459   1.292   6.330  0.0937  0.1560  0.1346
    1DPPC   GL2 1924  27.768   1.332   6.059  0.1004  0.2774  0.4049
    1DPPC   C1A 1925  27.254   1.192   5.953  0.1419  0.1504  0.0901
    1DPPC   C2A 1926  26.901   1.269   5.711 -0.0735  0.0047 -0.2036
    1DPPC   C3A 1927  26.674   1.153   5.373 -0.1127 -0.0077 -0.0749
    1DPPC   C4A 1928  26.685   1.451   5.041 -0.4365  0.2672  0.0813
    1DPPC   C1B 1929  27.582   1.417   5.608  0.1213  0.0061  0.1313
    1DPPC   C2B 1930  27.615   1.218   5.234  0.2226 -0.2005  0.0424
    1DPPC   C3B 1931  27.510   0.800   5.099 -0.0710 -0.0657  0.1268
    1DPPC   C4B 1932  27.103   0.626   4.969 -0.1124 -0.3163 -0.2243
    1DPPC   NC3 1933   0.083   7.622   5.961  0.1487  0.0601  0.2689
    1DPPC   PO4 1934   0.549   7.687   5.817  0.0759  0.3503 -0.0439
    1DPPC   GL1 1935   0.430   7.490   5.486 -0.0430 -0.1250  0.0131
    1DPPC   GL2 1936   0.386   7.733   5.267  0.1007 -0.1441 -0.2250
    1DPPC   C1A 1937   0.392   7.082   5.251  0.1826  0.1437 -0.0871
    1DPPC   C2A 1938   0.363   7.090   4.829  0.0618 -0.0873  0.1185
    1DPPC   C3A 1939   0.438   7.177   4.370 -0.1082 -0.0311 -0.0158
    1DPPC   C4A 1940   0.693   7.151   3.947 -0.1102  0.0481 -0.0246
    1DPPC   C1B 1941   0.358   7.785   4.834  0.3273 -0.0208  0.1979
    1DPPC   C2B 1942   0.302   7.852   4.471  0.1444  0.1007  0.0059
    1DPPC   C3B 1943   0.474   7.774   4.057 -0.1324  0.0588 -0.0045
    1DPPC   C4B 1944   0.764   7.688   3.833 -0.0146  0.0252 -0.1256
    1DPPC   NC3 1945  15.647  16.979   6.519  0.1159  0.2527  0.1460
    1DPPC   PO4 1946  15.332  16.830   6.216  0.1523 -0.4052 -0.1121
    1DPPC   GL1 1947  15.525  17.112   5.929 -0.2326  0.0303  0.1574
    1DPPC   GL2 1948  15.224  17.248   5.923 -0.0664  0.2444  0.0334
    1DPPC   C1A 1949  15.527  17.178   5.515  0.1181  0.4497  0.0028
    1DPPC   C2A 1950  15.284  17.377   5.169  0.1734  0.1007 -0.1886
    1DPPC   C3A 1951  15.370  17.444   4.766 -0.0785 -0.3067 -0.2675
    1DPPC   C4A 1952  15.450  17.416   4.267 -0.2356  0.0042 -0.3683
    1DPPC   C1B 1953  15.104  16.928   5.651 -0.1607 -0.0778  0.0091
    1DPPC   C2B 1954  14.922  16.988   5.199  0.0733 -0.1322 -0.2699
    1DPPC   C3B 1955  14.958  17.153   4.799 -0.3580  0.3320  0.2669
    1DPPC   C4B 1956  14.998  17.167   4.351  0.0791  0.2443  0.0087
    1DPPC   NC3 1957   3.998  12.990   6.372  0.1880 -0.1268 -0.1569
    1DPPC   PO4 1958   3.713  13.309   6.228 -0.2386  0.1915 -0.3579
    1DPPC   GL1 1959   3.642  13.356   5.916 -0.0689 -0.1614 -0.0652
    1DPPC   GL2 1960   3.875  13.104   5.736 -0.3319  0.0493 -0.0220
    1DPPC   C1A 1961   3.752  13.718   5.563  0.1019 -0.0908 -0.0728
    1DPPC   C2A 1962   3.774  13.683   5.089 -0.0808 -0.1210 -0.0622
    1DPPC   C3A 1963   3.702  13.674   4.642 -0.1565  0.3035  0.1814
    1DPPC   C4A 1964   3.926  13.794   4.312  0.1309 -0.0146 -0.2207
    1DPPC   C1B 1965   3.684  13.182   5.304  0.3039 -0.4714  0.0842
    1DPPC   C2B 1966   3.571  13.154   4.950 -0.0643  0.1585 -0.1123
    1DPPC   C3B 1967   3.661  12.955   4.657 -0.0467  0.0099  0.1357
    1DPPC   C4B 1968   3.759  12.684   4.330 -0.0001  0.0254  0.0190
    1DPPC   NC3 1969  19.279   4.376   6.923 -0.1263 -0.0182  0.1659
    1DPPC   PO4 1970  18.808   4.325   7.095 -0.2339  0.2472  0.0172
    1DPPC   GL1 1971  18.579   4.028   6.729  0.2213 -0.0407  0.0946
    1DPPC   GL2 1972  18.667   3.932   6.435 -0.2821 -0.1058  0.1401
    1DPPC   C1A 1973  18.207   3.988   6.325 -0.0387 -0.0988  0.0740
    1DPPC   C2A 1974  18.134   4.027   5.812 -0.1362  0.3405  0.1435
    1DPPC   C3A 1975  18.088   4.283   5.338 -0.2488  0.1020 -0.1775
    1DPPC   C4A 1976  17.825   4.537   5.098 -0.5466  0.2432  0.1947
    1DPPC   C1B 1977  18.536   4.274   6.131 -0.3268  0.0291  0.4507
    1DPPC   C2B 1978  18.586   4.289   5.699 -0.0724  0.0107 -0.1572
    1DPPC   C3B 1979  18.569   4.191   5.303  0.0512 -0.1451 -0.0880
    1DPPC   C4B 1980  18.745   4.102   4.817  0.2879 -0.0977  0.2105
    1DPPC   NC3 1981  17.390  17.588   7.240  0.0535 -0.2300  0.1821
    1DPPC   PO4 1982  17.361  17.140   7.166  0.0584  0.1900  0.0193
    1DPPC   GL1 1983  17.325  16.986   6.730  0.0692 -0.0623 -0.0762
    1DPPC   GL2 1984  17.049  16.679   6.673 -0.0808 -0.2929  0.3449
    1DPPC   C1A 1985  17.227  17.013   6.359 -0.0913  0.1833 -0.0080
    1DPPC   C2A 1986  17.158  16.959   5.950  0.3246 -0.1876  0.1005
    1DPPC   C3A 1987  17.369  17.118   5.626 -0.0689 -0.0308 -0.0340
    1DPPC   C4A 1988  17.676  16.840   5.292 -0.1694 -0.1112 -0.0319
    1DPPC   C1B 1989  16.900  16.553   6.239 -0.1387  0.0298  0.1695
    1DPPC   C2B 1990  16.927  16.501   5.821  0.0446  0.1259 -0.1449
    1DPPC   C3B 1991  17.193  16.498   5.394 -0.1077  0.3347  0.0253
    1DPPC   C4B 1992  17.328  16.586   4.945 -0.2901 -0.0687  0.0849
    1DPPC   NC3 1993  19.319  10.604   7.486  0.1437 -0.0567 -0.1265
    1DPPC   PO4 1994  19.036  10.886   7.303  0.0897  0.2527 -0.2169
    1DPPC   GL1 1995  19.139  10.903   6.756  0.0962  0.0201  0.0891
    1DPPC   GL2 1996  18.940  11.086   6.634 -0.0191  0.1672 -0.0418
    1DPPC   C1A 1997  19.320  10.731   6.343  0.1737  0.0939 -0.0275
    1DPPC   C2A 1998  19.523  10.608   6.012  0.1688  0.1212  0.1283
    1DPPC   C3A 1999  19.626  10.659   5.574 -0.0183 -0.1392 -0.3253
    1DPPC   C4A 2000  19.583  10.505   5.232  0.1850 -0.1531 -0.1040
    1DPPC   C1B 2001  18.942  10.968   6.200 -0.1370  0.2754  0.0025
    1DPPC   C2B 2002  19.191  10.956   5.832 -0.1252  0.1235  0.2329
    1DPPC   C3B 2003  19.324  11.000   5.350  0.0997  0.3530  0.0506
    1DPPC   C4B 2004  19.426  10.783   4.863  0.1872  0.0475 -0.1804
    1DPPC   NC3 2005  21.401   4.728   7.326  0.3255 -0.0734 -0.2593
    1DPPC   PO4 2006  21.425   4.427   6.984  0.1158  0.1771 -0.1068
    1DPPC   GL1 2007  21.499   4.209   6.556  0.0346 -0.1603  0.0716
    1DPPC   GL2 2008  21.438   3.955   6.633  0.0117  0.1829 -0.0740
    1DPPC   C1A 2009  21.566   4.107   6.150  0.1611  0.1746 -0.2814
    1DPPC   C2A 2010  21.672   4.117   5.687  0.0735 -0.1990  0.0104
    1DPPC   C3A 2011  21.817   3.827   5.367  0.0530 -0.0173 -0.0580
    1DPPC   C4A 2012  22.083   3.475   5.248 -0.1647  0.0033 -0.0908
    1DPPC   C1B 2013  21.618   3.673   6.353 -0.2011 -0.2954  0.2468
    1DPPC   C2B 2014  21.595   3.686   5.893  0.2685  0.0157 -0.0760
    1DPPC   C3B 2015  21.774   3.334   5.610 -0.0072  0.0682  0.0911
    1DPPC   C4B 2016  21.833   3.060   5.032  0.0558  0.0447 -0.1539
    1DPPC   NC3 2017  28.322   2.440   6.973 -0.0288 -0.1284  0.0569
    1DPPC   PO4 2018  28.369   2.060   6.842  0.1451 -0.0725  0.0293
    1DPPC   GL1 2019  28.137   2.156   6.488 -0.0877 -0.0649 -0.2624
    1DPPC   GL2 2020  28.365   2.051   6.279  0.2808  0.1091  0.1880
    1DPPC   C1A 2021  27.859   2.392   6.235  0.1548  0.0646 -0.1093
    1DPPC   C2A 2022  27.682   2.561   5.858  0.1466 -0.0616  0.2690
    1DPPC   C3A 2023  27.635   2.465   5.507 -0.0758 -0.2106 -0.2942
    1DPPC   C4A 2024  27.928   2.194   5.263  0.1393  0.1859 -0.0086
    1DPPC   C1B 2025  28.437   2.026   5.945  0.2688  0.1418 -0.1063
    1DPPC   C2B 2026  28.323   1.916   5.515  0.1236  0.2118  0.2607
    1DPPC   C3B 2027  28.287   1.923   5.053 -0.0027 -0.3348 -0.2052
    1DPPC   C4B 2028  28.512   1.979   4.696 -0.0163  0.1311 -0.3520
    1DPPC   NC3 2029  13.910  19.960   5.916  0.1913  0.2785 -0.0115
    1DPPC   PO4 2030  14.098  19.522   5.933  0.0656 -0.1719 -0.0451
    1DPPC   GL1 2031  14.206  19.392   5.528  0.3153  0.3607  0.2337
    1DPPC   GL2 2032  14.034  19.243   5.358  0.1092  0.2518  0.0785
    1DPPC   C1A 2033  14.551  19.140   5.274  0.1759 -0.0685  0.1105
    1DPPC   C2A 2034  14.471  18.955   4.785 -0.2816 -0.1019 -0.1398
    1DPPC   C3A 2035  14.677  18.566   4.646  0.0652  0.2080 -0.1945
    1DPPC   C4A 2036  15.090  18.335   4.720 -0.0493 -0.0799  0.0216
    1DPPC   C1B 2037  14.293  19.590   5.063 -0.1897 -0.0869 -0.4070
    1DPPC   C2B 2038  14.408  19.856   4.729  0.1944 -0.6603  0.2050
    1DPPC   C3B 2039  14.503  20.208   4.436  0.1115 -0.0924  0.0060
    1DPPC   C4B 2040  14.860  20.469   4.273  0.0551  0.1415  0.2407
    1DPPC   NC3 2041  24.844   4.857   6.977 -0.1587 -0.0865 -0.0645
    1DPPC   PO4 2042  25.056   5.209   7.020 -0.1219  0.3035 -0.0099
    1DPPC   GL1 2043  25.166   5.134   6.630  0.0578  0.2761  0.1192
    1DPPC   GL2 2044  25.078   4.784   6.495  0.2018 -0.0872  0.0096
    1DPPC   C1A 2045  24.890   5.207   6.279 -0.1438  0.1797 -0.0029
    1DPPC   C2A 2046  24.791   5.260   5.831  0.2147 -0.1283  0.2263
    1DPPC   C3A 2047  24.817   5.197   5.382  0.0882  0.0945  0.1793
    1DPPC   C4A 2048  24.911   5.233   4.967 -0.1022  0.1377  0.1705
    1DPPC   C1B 2049  24.886   4.732   6.123 -0.3434  0.1910  0.1322
    1DPPC   C2B 2050  24.830   4.768   5.678  0.2275  0.1192  0.1534
    1DPPC   C3B 2051  24.762   4.701   5.222 -0.2816  0.3900  0.0187
    1DPPC   C4B 2052  24.939   4.453   4.917  0.0593 -0.0708 -0.2681
    1DPPC   NC3 2053  14.868  14.082   7.013 -0.0192 -0.2303 -0.1699
    1DPPC   PO4 2054  15.104  14.259   6.637  0.0822 -0.3017 -0.0670
    1DPPC   GL1 2055  14.938  14.246   6.228 -0.2038 -0.2008 -0.3246
    1DPPC   GL2 2056  15.247  14.085   6.200 -0.3401  0.0004  0.2802
    1DPPC   C1A 2057  14.926  14.251   5.839  0.2772 -0.0035  0.3254
    1DPPC   C2A 2058  14.957  14.036   5.496  0.1317  0.1189 -0.0778
    1DPPC   C3A 2059  15.035  13.983   5.010 -0.2325 -0.0936  0.0137
    1DPPC   C4A 2060  15.232  14.147   4.581 -0.1116  0.2076  0.0762
    1DPPC   C1B 2061  15.311  13.964   5.791 -0.0257  0.0495  0.1377
    1DPPC   C2B 2062  15.418  13.893   5.301 -0.1446 -0.4833 -0.3024
    1DPPC   C3B 2063  15.473  13.688   4.890 -0.0586 -0.0214  0.1790
    1DPPC   C4B 2064  15.847  13.544   4.654 -0.1407 -0.0291  0.1391
    1DPPC   NC3 2065  19.289   9.146   7.571 -0.3163 -0.2438 -0.2110
    1DPPC   PO4 2066  19.130   9.011   7.246 -0.1157  0.0008  0.2870
    1DPPC   GL1 2067  19.162   8.922   6.820  0.3845  0.1736 -0.3748
    1DPPC   GL2 2068  19.226   9.102   6.552  0.0061 -0.2183 -0.1278
    1DPPC   C1A 2069  19.189   8.620   6.429  0.0249 -0.1303 -0.0778
    1DPPC   C2A 2070  19.159   8.538   6.032 -0.0421  0.0503 -0.0017
    1DPPC   C3A 2071  19.055   8.543   5.603  0.1661  0.1820 -0.3123
    1DPPC   C4A 2072  19.177   8.360   5.257  0.1921 -0.0689  0.1142
    1DPPC   C1B 2073  19.176   9.140   6.176  0.0935  0.4024 -0.0005
    1DPPC   C2B 2074  19.243   9.033   5.802  0.0907  0.1020  0.0351
    1DPPC   C3B 2075  19.223   8.972   5.367  0.0206 -0.1226 -0.0202
    1DPPC   C4B 2076  19.182   8.788   4.995 -0.1702 -0.0953  0.0975
    1DPPC   NC3 2077  23.346  10.362   7.111 -0.1021 -0.1337 -0.0959
    1DPPC   PO4 2078  22.916  10.495   7.104  0.2407  0.1733  0.0119
    1DPPC   GL1 2079  22.707  10.365   6.787 -0.0339  0.0662 -0.1548
    1DPPC   GL2 2080  22.529  10.664   6.697 -0.2569  0.1350 -0.2138
    1DPPC   C1A 2081  22.878  10.130   6.434 -0.2640 -0.1366  0.1755
    1DPPC   C2A 2082  22.939  10.127   5.983 -0.2421  0.2044  0.1636
    1DPPC   C3A 2083  22.951  10.196   5.537  0.2196  0.0060 -0.0581
    1DPPC   C4A 2084  23.106  10.160   5.119  0.0441 -0.0717  0.2430
    1DPPC   C1B 2085  22.547  10.567   6.230  0.3714  0.0413 -0.2563
    1DPPC   C2B 2086  22.582  10.456   5.895  0.3730  0.1129  0.0747
    1DPPC   C3B 2087  22.622  10.548   5.501 -0.1864 -0.1408 -0.0186
    1DPPC   C4B 2088  22.783  10.552   5.109  0.0036 -0.1585  0.0103
    1DPPC   NC3 2089  26.602   7.978   7.150 -0.0286  0.0787 -0.1682
    1DPPC   PO4 2090  26.707   8.409   6.829 -0.0785  0.1800  0.2250
    1DPPC   GL1 2091  26.622   8.465   6.468  0.1843 -0.1636 -0.1199
    1DPPC   GL2 2092  26.328   8.308   6.356  0.0083 -0.0711 -0.0724
    1DPPC   C1A 2093  26.510   8.729   6.132 -0.0900 -0.2161 -0.0254
    1DPPC   C2A 2094  26.488   8.796   5.680  0.1384 -0.2231 -0.3448
    1DPPC   C3A 2095  26.446   8.710   5.242  0.0363  0.1909 -0.2721
    1DPPC   C4A 2096  26.306   8.865   4.784 -0.0086  0.0292  0.2950
    1DPPC   C1B 2097  26.339   8.308   5.948  0.1293  0.0866  0.1844
    1DPPC   C2B 2098  26.303   8.361   5.516 -0.0185  0.1284 -0.1906
    1DPPC   C3B 2099  26.152   8.356   5.039 -0.1964  0.0620 -0.1788
    1DPPC   C4B 2100  26.055   8.421   4.619 -0.3398  0.0027  0.1079
    1DPPC   NC3 2101  28.923  16.120   7.162 -0.1691  0.0904 -0.2878
    1DPPC   PO4 2102  28.456  16.280   6.923  0.0648  0.0397 -0.0496
    1DPPC   GL1 2103  28.475  16.260   6.485  0.0276  0.0569  0.0110
    1DPPC   GL2 2104  28.404  16.509   6.262  0.3021  0.3057  0.0119
    1DPPC   C1A 2105  28.431  16.067   6.014 -0.0084 -0.0254 -0.0623
    1DPPC   C2A 2106  28.471  16.066   5.621 -0.4919 -0.1649  0.0241
    1DPPC   C3A 2107  28.629  16.032   5.250  0.1045 -0.3045  0.0884
    1DPPC   C4A 2108  28.604  15.642   4.941 -0.1435  0.1575 -0.0284
    1DPPC   C1B 2109  28.309  16.500   5.790 -0.1678  0.1998  0.0721
    1DPPC   C2B 2110  28.290  16.458   5.374  0.1359  0.4485 -0.1767
    1DPPC   C3B 2111  28.076  16.714   5.012  0.2298  0.2518  0.0584
    1DPPC   C4B 2112  27.852  16.755   4.675  0.1601 -0.1387  0.1882
    1DPPC   NC3 2113  26.132   8.197   6.810 -0.3580  0.1358  0.0492
    1DPPC   PO4 2114  26.163   7.730   6.843 -0.2201 -0.2093  0.2303
    1DPPC   GL1 2115  26.081   7.614   6.447  0.1096  0.2084 -0.2473
    1DPPC   GL2 2116  25.941   7.374   6.519  0.0407 -0.2103 -0.0237
    1DPPC   C1A 2117  26.070   7.880   6.069  0.1781  0.1871 -0.0296
    1DPPC   C2A 2118  26.051   7.890   5.626 -0.1094  0.0521  0.1137
    1DPPC   C3A 2119  26.034   7.870   5.139  0.3097 -0.0437  0.2168
    1DPPC   C4A 2120  25.900   7.978   4.744 -0.2409 -0.0264 -0.0662
    1DPPC   C1B 2121  25.885   7.409   5.985 -0.0961 -0.1870 -0.0764
    1DPPC   C2B 2122  25.890   7.387   5.583 -0.2902 -0.0028  0.1988
    1DPPC   C3B 2123  25.771   7.371   5.136 -0.0240 -0.2216  0.1861
    1DPPC   C4B 2124  25.647   7.352   4.774  0.2179  0.0578 -0.1206
    1DPPC   NC3 2125  21.718  14.200   7.268  0.0008  0.1093 -0.2213
    1DPPC   PO4 2126  21.509  13.809   7.246 -0.3583 -0.2931  0.0689
    1DPPC   GL1 2127  21.622  13.827   6.834  0.0130 -0.2097 -0.1069
    1DPPC   GL2 2128  21.813  14.018   6.647 -0.2738  0.0710 -0.0220
    1DPPC   C1A 2129  21.358  13.719   6.476  0.1009  0.1792 -0.3299
    1DPPC   C2A 2130  21.331  13.770   6.079  0.1524 -0.1124  0.0132
    1DPPC   C3A 2131  21.309  13.752   5.699  0.1299  0.3685  0.2712
    1DPPC   C4A 2132  21.380  13.712   5.261 -0.2780  0.0423 -0.0580
    1DPPC   C1B 2133  21.732  14.033   6.256 -0.0226 -0.1869 -0.0253
    1DPPC   C2B 2134  21.651  14.098   5.892  0.0509 -0.0552 -0.0805
    1DPPC   C3B 2135  21.448  14.220   5.478  0.1884 -0.0267  0.1267
    1DPPC   C4B 2136  21.082  14.144   5.228 -0.0417 -0.2118 -0.3888
    1DPPC   NC3 2137  23.801  16.601   7.134  0.0154 -0.4029 -0.1981
    1DPPC   PO4 2138  24.237  16.393   7.103 -0.0930 -0.0625  0.1269
    1DPPC   GL1 2139  24.022  16.529   6.670 -0.0872  0.1445 -0.1913
    1DPPC   GL2 2140  23.867  16.749   6.407 -0.1025  0.2496  0.1553
    1DPPC   C1A 2141  24.228  16.412   6.282  0.0899  0.0745  0.2459
    1DPPC   C2A 2142  24.141  16.403   5.755 -0.1061  0.2258 -0.2028
    1DPPC   C3A 2143  24.296  16.606   5.359  0.1016  0.1808 -0.0948
    1DPPC   C4A 2144  24.507  16.506   4.917 -0.0357  0.0330 -0.0650
    1DPPC   C1B 2145  23.764  16.425   6.088  0.3028 -0.0742  0.1411
    1DPPC   C2B 2146  23.554  16.436   5.666  0.1251 -0.4130  0.0763
    1DPPC   C3B 2147  23.204  16.695   5.418  0.1212 -0.4676  0.3317
    1DPPC   C4B 2148  23.010  17.026   5.350 -0.1882 -0.0824  0.0578
    1DPPC   NC3 2149  15.293  16.120   6.958 -0.0135  0.2374 -0.0223
    1DPPC   PO4 2150  15.307  16.168   6.524 -0.1472 -0.2334 -0.3669
    1DPPC   GL1 2151  15.569  15.952   6.150  0.0405 -0.4916 -0.1812
    1DPPC   GL2 2152  15.638  15.606   6.132 -0.0542  0.0912 -0.1333
    1DPPC   C1A 2153  15.870  16.134   5.871 -0.1109  0.3030 -0.0398
    1DPPC   C2A 2154  15.839  16.351   5.472  0.0149  0.1323  0.2929
    1DPPC   C3A 2155  15.932  16.397   5.028  0.1961  0.2639  0.0783
    1DPPC   C4A 2156  15.956  16.848   4.818  0.0612  0.1585  0.3019
    1DPPC   C1B 2157  15.842  15.526   5.814 -0.0809 -0.1323 -0.0032
    1DPPC   C2B 2158  16.108  15.837   5.554  0.1696 -0.0010  0.2139
    1DPPC   C3B 2159  16.201  15.943   5.213 -0.0161 -0.1429 -0.4351
    1DPPC   C4B 2160  16.284  15.700   4.913 -0.1061 -0.3641  0.0145
    1DPPC   NC3 2161  14.997   4.601   6.292  0.0493 -0.0139  0.1428
    1DPPC   PO4 2162  14.943   4.251   6.072 -0.1174 -0.1855 -0.0397
    1DPPC   GL1 2163  14.938   4.451   5.664 -0.1009 -0.2292 -0.3245
    1DPPC   GL2 2164  14.934   4.756   5.800 -0.2903  0.1740 -0.1619
    1DPPC   C1A 2165  14.844   4.348   5.285 -0.1334  0.1357  0.1887
    1DPPC   C2A 2166  14.948   4.283   4.890  0.0396  0.1399  0.2736
    1DPPC   C3A 2167  14.760   4.056   4.698 -0.0249  0.0116 -0.0081
    1DPPC   C4A 2168  14.373   4.057   4.514  0.2704  0.3561  0.1504
    1DPPC   C1B 2169  14.804   4.815   5.354  0.0285 -0.2230 -0.1613
    1DPPC   C2B 2170  14.669   4.747   4.837  0.0473  0.2250 -0.0382
    1DPPC   C3B 2171  14.522   4.932   4.597  0.0635  0.0203 -0.1347
    1DPPC   C4B 2172  14.252   4.804   4.279 -0.0416  0.0530 -0.3862
    1DPPC   NC3 2173  24.338  13.864   6.568 -0.0836  0.1518 -0.1022
    1DPPC   PO4 2174  23.955  13.660   6.632  0.1501 -0.0585  0.0695
    1DPPC   GL1 2175  23.999  13.704   6.200  0.1287 -0.0609 -0.0456
    1DPPC   GL2 2176  24.252  13.496   6.162  0.1773  0.1406 -0.2775
    1DPPC   C1A 2177  23.857  13.930   5.897 -0.1443  0.1882 -0.3763
    1DPPC   C2A 2178  23.652  14.077   5.538 -0.1413 -0.0901  0.0460
    1DPPC   C3A 2179  23.786  14.118   5.178  0.3068 -0.1407  0.1255
    1DPPC   C4A 2180  23.489  14.073   4.849 -0.1923 -0.3603  0.2448
    1DPPC   C1B 2181  24.074  13.510   5.731 -0.0009  0.0016 -0.1363
    1DPPC   C2B 2182  23.942  13.695   5.397 -0.3007  0.0232 -0.0996
    1DPPC   C3B 2183  24.010  13.701   4.974 -0.2352  0.0896 -0.3060
    1DPPC   C4B 2184  23.914  13.434   4.526 -0.1918 -0.1819 -0.1551
    1DPPC   NC3 2185   3.120  14.475   6.039  0.2008 -0.1703  0.1062
    1DPPC   PO4 2186   2.807  14.814   6.029 -0.2165  0.2386  0.1772
    1DPPC   GL1 2187   2.750  14.652   5.583  0.2208  0.1077 -0.2080
    1DPPC   GL2 2188   3.075  14.480   5.512  0.1002  0.4290  0.2684
    1DPPC   C1A 2189   2.735  14.650   5.166  0.3219 -0.1334 -0.0072
    1DPPC   C2A 2190   2.796  14.813   4.743  0.1421  0.2528 -0.2783
    1DPPC   C3A 2191   2.820  15.264   4.535 -0.2700  0.0548 -0.1982
    1DPPC   C4A 2192   2.633  15.726   4.645 -0.3423  0.2929 -0.1276
    1DPPC   C1B 2193   2.887  14.209   5.192  0.1788  0.1680  0.0363
    1DPPC   C2B 2194   2.884  14.268   4.781  0.0730 -0.0415  0.0624
    1DPPC   C3B 2195   2.490  14.092   4.545  0.1547  0.1799  0.1130
    1DPPC   C4B 2196   2.489  13.784   4.268  0.4301 -0.1945  0.2297
    1DPPC   NC3 2197  23.752  11.495   7.147 -0.2511 -0.5528 -0.3553
    1DPPC   PO4 2198  24.239  11.634   7.042 -0.3198  0.1510  0.1651
    1DPPC   GL1 2199  24.477  11.689   6.701  0.0319 -0.0654 -0.0645
    1DPPC   GL2 2200  24.770  11.631   6.730 -0.2920  0.0693  0.1711
    1DPPC   C1A 2201  24.472  11.992   6.381 -0.0236 -0.3057 -0.0365
    1DPPC   C2A 2202  24.539  12.097   6.034  0.0052 -0.1464 -0.0115
    1DPPC   C3A 2203  24.715  12.301   5.780 -0.1252  0.0068  0.1377
    1DPPC   C4A 2204  24.782  12.352   5.336 -0.0030  0.2206  0.1904
    1DPPC   C1B 2205  24.726  11.583   6.265 -0.0322  0.3836  0.1734
    1DPPC   C2B 2206  24.625  11.646   5.854  0.1642 -0.0885 -0.0736
    1DPPC   C3B 2207  24.453  11.997   5.556  0.2591  0.1434  0.1510
    1DPPC   C4B 2208  24.180  12.189   5.294  0.0550  0.0470 -0.0761
    1DPPC   NC3 2209  15.519  14.184   6.918 -0.1814 -0.1990  0.5372
    1DPPC   PO4 2210  15.659  13.740   7.026 -0.3837 -0.2353 -0.1301
    1DPPC   GL1 2211  15.784  13.814   6.644  0.1163 -0.2707 -0.2069
    1DPPC   GL2 2212  16.097  13.641   6.700 -0.0455  0.1386 -0.2748
    1DPPC   C1A 2213  15.692  13.725   6.284  0.0632  0.1089  0.2910
    1DPPC   C2A 2214  15.781  13.736   5.914 -0.3336 -0.0191 -0.0885
    1DPPC   C3A 2215  15.851  13.863   5.486  0.2025  0.1717  0.2041
    1DPPC   C4A 2216  15.993  13.846   5.087 -0.1648  0.0408 -0.0472
    1DPPC   C1B 2217  16.210  13.647   6.212  0.1214  0.2849 -0.1374
    1DPPC   C2B 2218  16.225  13.620   5.791  0.2374  0.3621  0.1053
    1DPPC   C3B 2219  16.276  13.456   5.420 -0.1804  0.0076 -0.0460
    1DPPC   C4B 2220  16.269  13.407   5.018  0.1311 -0.0427  0.2184
    1DPPC   NC3 2221  16.978  10.868   6.875  0.0646 -0.1274  0.0042
    1DPPC   PO4 2222  17.288  11.145   6.962  0.0510  0.0335  0.2989
    1DPPC   GL1 2223  17.398  11.291   6.539  0.0708 -0.3468 -0.1309
    1DPPC   GL2 2224  17.362  11.579   6.449 -0.0363  0.1527 -0.1776
    1DPPC   C1A 2225  17.496  11.211   6.093 -0.0043  0.2469 -0.1757
    1DPPC   C2A 2226  17.529  11.078   5.681 -0.4187  0.2404  0.0792
    1DPPC   C3A 2227  17.660  11.174   5.301 -0.2878  0.0571 -0.0840
    1DPPC   C4A 2228  17.624  11.153   4.891 -0.1595 -0.0182 -0.0284
    1DPPC   C1B 2229  17.330  11.957   6.264 -0.1239 -0.2746 -0.1487
    1DPPC   C2B 2230  17.336  12.029   5.741  0.1377 -0.1210 -0.3500
    1DPPC   C3B 2231  17.357  12.109   5.336  0.0873 -0.0784 -0.0828
    1DPPC   C4B 2232  17.394  12.098   4.941  0.1353  0.2190 -0.0316
    1DPPC   NC3 2233  28.934   8.810   6.581 -0.0671 -0.0411  0.1195
    1DPPC   PO4 2234  28.512   8.913   6.648  0.0792 -0.2740  0.1895
    1DPPC   GL1 2235  28.672   8.689   6.149  0.0766 -0.1389  0.3123
    1DPPC   GL2 2236  28.581   8.396   6.102  0.1631 -0.0670  0.0151
    1DPPC   C1A 2237  28.728   8.598   5.682 -0.1196 -0.2885 -0.2793
    1DPPC   C2A 2238  28.677   8.691   5.289  0.2331 -0.2268 -0.3794
    1DPPC   C3A 2239  28.701   8.855   4.909  0.1314  0.0202  0.0352
    1DPPC   C4A 2240  28.635   8.764   4.456  0.2713 -0.2923  0.1228
    1DPPC   C1B 2241  28.272   8.297   5.714 -0.1560  0.0152 -0.2471
    1DPPC   C2B 2242  28.333   8.284   5.260  0.0069 -0.2574 -0.1291
    1DPPC   C3B 2243  28.391   8.351   4.823 -0.0084  0.2214  0.1594
    1DPPC   C4B 2244  28.175   8.526   4.545  0.3067 -0.1986  0.1024
    1DPPC   NC3 2245  25.627   9.460   6.977  0.1453  0.2736 -0.3298
    1DPPC   PO4 2246  25.938   9.764   7.150 -0.2699 -0.3540  0.0426
    1DPPC   GL1 2247  26.060   9.973   6.786 -0.2128 -0.0509 -0.2645
    1DPPC   GL2 2248  26.032   9.852   6.526  0.2561 -0.1069  0.1050
    1DPPC   C1A 2249  26.103  10.324   6.507  0.2563  0.1240 -0.1645
    1DPPC   C2A 2250  25.975  10.573   6.134  0.0147 -0.1342  0.0856
    1DPPC   C3A 2251  25.897  10.548   5.685 -0.1133 -0.0396 -0.0043
    1DPPC   C4A 2252  25.877  10.566   5.252 -0.0016  0.0199  0.2380
    1DPPC   C1B 2253  25.875   9.927   6.185  0.1379 -0.0136 -0.0286
    1DPPC   C2B 2254  25.917  10.030   5.728  0.1894  0.0093 -0.4851
    1DPPC   C3B 2255  26.005   9.982   5.287  0.2036  0.1903  0.0440
    1DPPC   C4B 2256  25.909   9.978   4.859  0.1503 -0.2323 -0.4500
    1DPPC   NC3 2257  23.851   9.582   7.426 -0.0015 -0.0063  0.0477
    1DPPC   PO4 2258  23.478   9.889   7.285  0.1031  0.2456 -0.1111
    1DPPC   GL1 2259  23.624   9.905   6.862 -0.0717  0.2403 -0.2966
    1DPPC   GL2 2260  23.847   9.620   6.704  0.0117 -0.0408 -0.0449
    1DPPC   C1A 2261  23.420  10.028   6.470  0.0963  0.2889  0.2424
    1DPPC   C2A 2262  23.414   9.979   6.066 -0.1306 -0.0235  0.0828
    1DPPC   C3A 2263  23.419  10.045   5.543 -0.1056  0.1513 -0.1699
    1DPPC   C4A 2264  23.535   9.900   5.216 -0.2378  0.3064  0.0156
    1DPPC   C1B 2265  23.820   9.700   6.255 -0.0219  0.2814 -0.0497
    1DPPC   C2B 2266  23.818   9.843   5.783  0.1352  0.2648  0.0828
    1DPPC   C3B 2267  23.931  10.038   5.539 -0.1616  0.0405  0.3200
    1DPPC   C4B 2268  24.112  10.081   5.132  0.1072  0.2315 -0.3231
    1DPPC   NC3 2269  27.122   8.131   6.618  0.1721 -0.1091  0.0650
    1DPPC   PO4 2270  27.105   7.789   6.340 -0.2221  0.2217  0.0675
    1DPPC   GL1 2271  26.856   7.777   6.086  0.0730 -0.1582  0.0685
    1DPPC   GL2 2272  26.604   7.944   6.129 -0.0116  0.1841 -0.1070
    1DPPC   C1A 2273  27.092   7.821   5.660 -0.2949 -0.3423 -0.0222
    1DPPC   C2A 2274  27.033   7.965   5.191  0.1772 -0.2004  0.1398
    1DPPC   C3A 2275  26.893   8.008   4.783 -0.0666  0.1423 -0.0633
    1DPPC   C4A 2276  26.895   8.336   4.332 -0.0131 -0.3316 -0.1996
    1DPPC   C1B 2277  26.637   8.018   5.614 -0.0310 -0.0395 -0.1367
    1DPPC   C2B 2278  26.525   8.026   5.166 -0.2932 -0.1829  0.0750
    1DPPC   C3B 2279  26.374   7.956   4.759  0.0206 -0.2613  0.0652
    1DPPC   C4B 2280  26.330   8.108   4.366  0.1613 -0.0934 -0.3339
    1DPPC   NC3 2281   0.636  12.340   6.848 -0.0423  0.2394 -0.3384
    1DPPC   PO4 2282   0.471  12.686   6.763  0.1792 -0.0443  0.3248
    1DPPC   GL1 2283   0.353  12.615   6.351  0.0179  0.1170  0.1031
    1DPPC   GL2 2284   0.495  12.366   6.328 -0.0498  0.3985  0.3354
    1DPPC   C1A 2285   0.300  12.614   5.880  0.4081  0.0442 -0.3585
    1DPPC   C2A 2286   0.196  12.602   5.589 -0.0008  0.0542  0.2729
    1DPPC   C3A 2287   0.204  12.689   5.139  0.1531  0.0852  0.4468
    1DPPC   C4A 2288   0.227  12.803   4.730  0.0977 -0.1868  0.1110
    1DPPC   C1B 2289   0.506  12.190   6.014 -0.1024 -0.1740  0.0906
    1DPPC   C2B 2290   0.424  12.176   5.595 -0.2359  0.1665  0.0977
    1DPPC   C3B 2291   0.230  12.001   5.220  0.2521 -0.0306 -0.2985
    1DPPC   C4B 2292   0.129  11.936   4.844 -0.1579  0.0136 -0.1034
    1DPPC   NC3 2293   9.644  20.814   6.309  0.2083 -0.0192 -0.1349
    1DPPC   PO4 2294   9.285  20.514   6.464 -0.1869 -0.2236 -0.1183
    1DPPC   GL1 2295   9.362  20.166   6.337  0.1011  0.1319  0.2541
    1DPPC   GL2 2296   9.205  19.867   6.303 -0.3269  0.1907  0.2548
    1DPPC   C1A 2297   9.704  19.939   6.127 -0.3160  0.4285  0.1413
    1DPPC   C2A 2298  10.056  20.002   5.799 -0.0275 -0.4104  0.0286
    1DPPC   C3A 2299  10.199  20.146   5.365  0.1709 -0.0399 -0.0635
    1DPPC   C4A 2300  10.204  20.485   5.081  0.0822  0.1556 -0.0315
    1DPPC   C1B 2301   9.296  19.968   5.850 -0.0883  0.0483 -0.0116
    1DPPC   C2B 2302   9.056  20.156   5.573  0.0764  0.1023  0.1659
    1DPPC   C3B 2303   9.035  20.312   5.239  0.1948  0.0970  0.2301
    1DPPC   C4B 2304   9.027  20.414   4.668 -0.0056 -0.0323  0.0790
    1DPPC   NC3 2305  22.619  14.326   7.590  0.1543  0.1265  0.1320
    1DPPC   PO4 2306  22.571  14.626   7.263 -0.0954 -0.1340 -0.0525
    1DPPC   GL1 2307  22.387  14.551   6.746 -0.0949 -0.0528  0.1887
    1DPPC   GL2 2308  22.383  14.177   6.686  0.0895  0.3160 -0.3834
    1DPPC   C1A 2309  22.522  14.420   6.294  0.2866 -0.2910 -0.1595
    1DPPC   C2A 2310  22.351  14.555   5.944  0.1824 -0.2403  0.2164
    1DPPC   C3A 2311  22.098  14.807   5.583 -0.2094  0.2770  0.0470
    1DPPC   C4A 2312  22.254  14.761   5.196  0.2433 -0.0419  0.1666
    1DPPC   C1B 2313  22.068  14.427   6.377  0.0715 -0.0822 -0.0538
    1DPPC   C2B 2314  21.869  14.526   6.086 -0.0945  0.0967 -0.1608
    1DPPC   C3B 2315  21.646  14.611   5.759 -0.1693  0.0364 -0.0446
    1DPPC   C4B 2316  21.790  14.558   5.311 -0.2623  0.0815 -0.3031
    1DPPC   NC3 2317  28.235   6.855   6.222 -0.0528  0.2709 -0.3211
    1DPPC   PO4 2318  28.155   6.397   6.017  0.2435 -0.2434 -0.3500
    1DPPC   GL1 2319  28.144   6.347   5.624 -0.3921 -0.0311 -0.0565
    1DPPC   GL2 2320  28.286   6.089   5.436 -0.1518 -0.3681  0.1016
    1DPPC   C1A 2321  27.980   6.453   5.245  0.0283  0.0115 -0.1449
    1DPPC   C2A 2322  27.938   6.493   4.813 -0.1193  0.0294 -0.2271
    1DPPC   C3A 2323  27.936   6.775   4.440  0.1022 -0.0879  0.1358
    1DPPC   C4A 2324  27.578   6.740   4.186 -0.0130 -0.1278  0.1939
    1DPPC   C1B 2325  28.263   6.168   4.972 -0.1174  0.2244  0.1442
    1DPPC   C2B 2326  28.204   6.246   4.439  0.0470  0.1399  0.0576
    1DPPC   C3B 2327  28.142   6.003   4.117 -0.1004  0.0493 -0.1522
    1DPPC   C4B 2328  28.107   5.659   3.893 -0.1043  0.1312  0.1558
    1DPPC   NC3 2329  21.699  12.687   7.562  0.0248  0.1617  0.1266
    1DPPC   PO4 2330  22.003  12.932   7.494 -0.0170  0.1240  0.2294
    1DPPC   GL1 2331  22.027  12.936   6.961  0.1565 -0.2306  0.2102
    1DPPC   GL2 2332  21.791  12.908   6.783 -0.0791  0.2399 -0.0471
    1DPPC   C1A 2333  22.198  12.932   6.544 -0.0328  0.0299  0.0507
    1DPPC   C2A 2334  22.231  13.008   6.055  0.0075  0.4142  0.3497
    1DPPC   C3A 2335  22.450  13.196   5.676 -0.2207  0.1707 -0.2764
    1DPPC   C4A 2336  22.667  13.388   5.405 -0.0532 -0.2679  0.0610
    1DPPC   C1B 2337  21.733  12.881   6.337  0.1465 -0.0887 -0.0739
    1DPPC   C2B 2338  21.776  12.851   5.897  0.1449  0.1690 -0.0105
    1DPPC   C3B 2339  22.072  12.822   5.565 -0.0822 -0.1880  0.1340
    1DPPC   C4B 2340  22.414  12.820   5.349  0.1409  0.0647  0.1428
    1DPPC   NC3 2341  24.562  13.004   6.980 -0.0138 -0.1248 -0.0563
    1DPPC   PO4 2342  25.023  13.190   7.172 -0.0999  0.0387 -0.0571
    1DPPC   GL1 2343  24.959  13.177   6.699 -0.1703  0.0342 -0.1819
    1DPPC   GL2 2344  24.978  12.806   6.731  0.1694  0.0856 -0.0134
    1DPPC   C1A 2345  24.858  13.323   6.269 -0.1737 -0.2415  0.1429
    1DPPC   C2A 2346  24.778  13.671   5.966 -0.0692 -0.1428  0.1191
    1DPPC   C3A 2347  24.822  13.751   5.584 -0.4078  0.0918 -0.0970
    1DPPC   C4A 2348  24.948  13.831   5.183 -0.1935 -0.2265  0.1153
    1DPPC   C1B 2349  24.818  12.830   6.327  0.2337  0.1355  0.2466
    1DPPC   C2B 2350  24.832  12.759   5.880  0.0041 -0.1717 -0.1730
    1DPPC   C3B 2351  24.852  12.833   5.471  0.0290 -0.0042  0.2210
    1DPPC   C4B 2352  24.878  13.143   5.285  0.2020  0.0134 -0.0922
    1DPPC   NC3 2353  24.764  14.817   6.585 -0.4018 -0.4232  0.1745
    1DPPC   PO4 2354  24.778  15.167   6.876 -0.1279  0.1503  0.1018
    1DPPC   GL1 2355  24.720  15.404   6.522  0.1671  0.1353  0.3895
    1DPPC   GL2 2356  25.049  15.554   6.423  0.1881 -0.2394  0.0488
    1DPPC   C1A 2357  24.417  15.526   6.172 -0.1116  0.1951  0.1282
    1DPPC   C2A 2358  24.261  15.551   5.841 -0.0426  0.0011 -0.3373
    1DPPC   C3A 2359  24.061  15.594   5.534 -0.1731  0.1406 -0.0149
    1DPPC   C4A 2360  23.889  15.585   5.130  0.1685  0.1649 -0.1928
    1DPPC   C1B 2361  24.791  15.851   6.221  0.0930  0.1036 -0.0323
    1DPPC   C2B 2362  24.463  15.982   5.992 -0.1383  0.3985 -0.0174
    1DPPC   C3B 2363  24.399  15.965   5.547  0.4131 -0.0724 -0.0420
    1DPPC   C4B 2364  24.190  15.966   5.215  0.0797 -0.0688 -0.1763
    1DPPC   NC3 2365  16.584   6.481   6.892  0.1637  0.1315  0.0135
    1DPPC   PO4 2366  16.736   6.747   6.565  0.1032 -0.2200  0.1020
    1DPPC   GL1 2367  16.469   6.786   6.158 -0.1071  0.0194  0.2472
    1DPPC   GL2 2368  16.339   6.561   5.930  0.1150  0.0448  0.0092
    1DPPC   C1A 2369  16.611   6.990   5.749 -0.0035  0.2804  0.1172
    1DPPC   C2A 2370  16.609   7.087   5.314  0.1008 -0.1640 -0.1486
    1DPPC   C3A 2371  16.781   7.058   4.988  0.0960  0.6106 -0.0543
    1DPPC   C4A 2372  16.817   6.903   4.506  0.1158 -0.0438 -0.2383
    1DPPC   C1B 2373  16.217   6.638   5.489  0.2372 -0.0319  0.3143
    1DPPC   C2B 2374  16.350   6.691   5.115 -0.1015  0.0975  0.0512
    1DPPC   C3B 2375  16.364   6.968   4.772  0.4560  0.2657 -0.0630
    1DPPC   C4B 2376  16.403   7.114   4.309  0.0696 -0.3005 -0.0522
    1DPPC   NC3 2377   1.207   4.334   6.531  0.1029 -0.3684 -0.0305
    1DPPC   PO4 2378   0.875   4.631   6.409  0.1904 -0.1545 -0.1150
    1DPPC   GL1 2379   0.735   4.669   5.956 -0.3947  0.0049 -0.1269
    1DPPC   GL2 2380   1.002   4.788   5.807 -0.3652 -0.0194  0.4655
    1DPPC   C1A 2381   0.475   4.651   5.495  0.2367 -0.1538  0.2885
    1DPPC   C2A 2382   0.486   4.897   5.159 -0.2352 -0.0722  0.1281
    1DPPC   C3A 2383   0.567   4.833   4.675  0.1566  0.2528  0.0288
    1DPPC   C4A 2384   0.512   4.904   4.250  0.2291 -0.3261 -0.1642
    1DPPC   C1B 2385   0.944   4.525   5.503 -0.0909 -0.0610  0.0292
    1DPPC   C2B 2386   0.819   4.396   5.219  0.0893  0.1754 -0.0314
    1DPPC   C3B 2387   0.568   4.354   4.833 -0.0014 -0.0351 -0.1330
    1DPPC   C4B 2388   0.655   4.468   4.334 -0.2770  0.5427 -0.2011
    1DPPC   NC3 2389  25.032  11.650   7.185  0.0525  0.0665  0.2687
    1DPPC   PO4 2390  25.033  11.240   7.052 -0.0339  0.3059  0.1065
    1DPPC   GL1 2391  25.035  10.952   6.747 -0.2713 -0.1118 -0.0593
    1DPPC   GL2 2392  24.905  10.684   6.934  0.2860  0.0354  0.1653
    1DPPC   C1A 2393  24.936  11.077   6.340  0.2849 -0.2513  0.0106
    1DPPC   C2A 2394  24.939  11.237   5.864 -0.0883  0.3441 -0.1961
    1DPPC   C3A 2395  24.827  11.468   5.424 -0.3308  0.3033  0.1718
    1DPPC   C4A 2396  24.640  11.826   5.154  0.1510 -0.0314  0.1181
    1DPPC   C1B 2397  24.634  10.709   6.481 -0.2714  0.0328 -0.0467
    1DPPC   C2B 2398  24.559  10.541   6.150 -0.1731 -0.0038 -0.0318
    1DPPC   C3B 2399  24.665  10.787   5.675  0.2255 -0.2172 -0.2333
    1DPPC   C4B 2400  24.872  10.913   5.240  0.0897  0.0622 -0.0563
    1DPPC   NC3 2401   0.905   7.262   6.021 -0.1116  0.1724  0.2257
    1DPPC   PO4 2402   1.262   6.905   6.212  0.0221 -0.1266 -0.2493
    1DPPC   GL1 2403   1.321   6.998   5.841 -0.3669  0.0034  0.1843
    1DPPC   GL2 2404   1.222   6.670   5.679 -0.1880  0.2289 -0.4519
    1DPPC   C1A 2405   1.323   7.285   5.502 -0.2701 -0.0622 -0.0053
    1DPPC   C2A 2406   1.226   7.340   5.004  0.0287  0.1097 -0.0546
    1DPPC   C3A 2407   1.212   7.311   4.590  0.1540 -0.2194 -0.0912
    1DPPC   C4A 2408   1.562   7.362   4.324  0.0888 -0.1366  0.0646
    1DPPC   C1B 2409   1.297   6.796   5.373  0.2056  0.0679 -0.1220
    1DPPC   C2B 2410   1.697   6.626   5.155 -0.1886  0.2860  0.0581
    1DPPC   C3B 2411   1.786   6.517   4.786  0.0827  0.2573  0.1490
    1DPPC   C4B 2412   1.786   6.401   4.298  0.0465  0.2910  0.2396
    1DPPC   NC3 2413   0.831   6.685   6.403 -0.0400 -0.0885  0.1254
    1DPPC   PO4 2414   0.792   6.795   5.936  0.0657  0.2663  0.0433
    1DPPC   GL1 2415   0.815   6.962   5.544 -0.1487 -0.4002 -0.0652
    1DPPC   GL2 2416   0.853   7.232   5.498 -0.1815  0.3806 -0.0512
    1DPPC   C1A 2417   0.915   6.911   5.115  0.0695 -0.0918  0.1596
    1DPPC   C2A 2418   0.898   6.920   4.777 -0.0839  0.0763  0.0121
    1DPPC   C3A 2419   0.892   6.861   4.321  0.2855 -0.0289  0.2181
    1DPPC   C4A 2420   0.873   6.609   3.904 -0.2644  0.0041  0.1007
    1DPPC   C1B 2421   0.725   7.420   5.092 -0.0273  0.0617  0.2991
    1DPPC   C2B 2422   0.731   7.395   4.684 -0.1842 -0.1732  0.0452
    1DPPC   C3B 2423   0.825   7.520   4.310  0.0796 -0.0929  0.1260
    1DPPC   C4B 2424   1.075   7.363   4.121 -0.2723 -0.4660  0.0140
    1DPPC   NC3 2425  24.940  13.597   6.870  0.0835 -0.2688  0.1570
    1DPPC   PO4 2426  25.205  13.950   6.852 -0.0742 -0.1090  0.0791
    1DPPC   GL1 2427  25.250  14.104   6.435 -0.0492  0.3299  0.1958
    1DPPC   GL2 2428  25.537  14.048   6.397 -0.2374 -0.0899 -0.1599
    1DPPC   C1A 2429  24.937  14.125   5.968 -0.1103  0.0631  0.0668
    1DPPC   C2A 2430  24.964  14.251   5.430  0.1761 -0.1017 -0.2125
    1DPPC   C3A 2431  25.202  14.472   5.172 -0.1983  0.2904  0.1542
    1DPPC   C4A 2432  25.192  14.766   4.887 -0.0963 -0.0711  0.1214
    1DPPC   C1B 2433  25.522  14.140   5.937  0.1814 -0.3411 -0.1496
    1DPPC   C2B 2434  25.463  14.206   5.581 -0.2935 -0.1242  0.2165
    1DPPC   C3B 2435  25.430  14.051   5.255 -0.1655 -0.2650  0.1786
    1DPPC   C4B 2436  25.811  14.048   4.966 -0.1649  0.0754  0.2442
    1DPPC   NC3 2437  22.018  20.011   7.577  0.3465 -0.2214 -0.0903
    1DPPC   PO4 2438  22.109  19.746   7.185  0.0670  0.0344 -0.1073
    1DPPC   GL1 2439  22.171  19.443   6.871 -0.2455  0.1534 -0.5148
    1DPPC   GL2 2440  21.836  19.407   6.830 -0.1968  0.0738 -0.3065
    1DPPC   C1A 2441  22.250  19.178   6.659 -0.1473  0.1161 -0.0481
    1DPPC   C2A 2442  22.153  18.903   6.427 -0.0768 -0.0158 -0.2251
    1DPPC   C3A 2443  22.146  18.604   6.034  0.1239  0.1234  0.0751
    1DPPC   C4A 2444  22.112  18.834   5.603  0.3171 -0.0669 -0.0627
    1DPPC   C1B 2445  21.782  19.224   6.403 -0.0088  0.0783  0.0603
    1DPPC   C2B 2446  21.698  19.339   6.008  0.1581  0.1660  0.3294
    1DPPC   C3B 2447  21.525  19.502   5.574  0.3723  0.1091  0.0061
    1DPPC   C4B 2448  21.312  19.752   5.230  0.0950  0.1334  0.2294
    1DPPC   NC3 2449  18.884  12.949   7.447 -0.1123 -0.4512  0.0997
    1DPPC   PO4 2450  19.184  13.015   7.180  0.1411 -0.0180  0.1034
    1DPPC   GL1 2451  19.271  13.078   6.793 -0.0797  0.4637  0.0153
    1DPPC   GL2 2452  19.590  13.277   6.726  0.1448 -0.0069 -0.0107
    1DPPC   C1A 2453  19.108  13.027   6.414 -0.2255  0.1538 -0.1742
    1DPPC   C2A 2454  19.206  12.887   6.051  0.0585  0.0958 -0.0184
    1DPPC   C3A 2455  19.174  12.977   5.620  0.2945 -0.0463  0.2434
    1DPPC   C4A 2456  19.137  12.751   5.219 -0.0838 -0.0337  0.4613
    1DPPC   C1B 2457  19.586  13.371   6.295  0.0239  0.0153 -0.0524
    1DPPC   C2B 2458  19.542  13.216   5.882  0.2686 -0.1310 -0.2561
    1DPPC   C3B 2459  19.520  13.278   5.392 -0.0911 -0.1666 -0.3604
    1DPPC   C4B 2460  19.615  13.522   5.071  0.1159 -0.2022  0.0184
    1DPPC   NC3 2461  26.282  10.857   7.150 -0.1463  0.1065  0.2691
    1DPPC   PO4 2462  26.055  11.263   7.054 -0.0976 -0.2543  0.1857
    1DPPC   GL1 2463  26.001  11.271   6.652  0.0436  0.0376 -0.0382
    1DPPC   GL2 2464  25.843  11.481   6.568 -0.0296 -0.0897 -0.4036
    1DPPC   C1A 2465  26.107  11.041   6.276  0.0598  0.2017 -0.0153
    1DPPC   C2A 2466  25.976  11.068   5.871  0.2098 -0.0966 -0.0272
    1DPPC   C3A 2467  25.741  11.011   5.453  0.0379  0.0445 -0.1838
    1DPPC   C4A 2468  25.872  11.038   5.017 -0.2256 -0.0212 -0.0935
    1DPPC   C1B 2469  25.787  11.478   6.186 -0.1428  0.1062  0.0577
    1DPPC   C2B 2470  25.817  11.569   5.774  0.1167  0.0758 -0.3221
    1DPPC   C3B 2471  25.811  11.603   5.328 -0.0150 -0.1754  0.0684
    1DPPC   C4B 2472  26.001  11.625   4.962 -0.1282  0.2445 -0.2172
    1DPPC   NC3 2473  10.773  14.664   6.244 -0.3184 -0.1354  0.2675
    1DPPC   PO4 2474  10.645  14.222   6.315 -0.2115  0.0731 -0.2149
    1DPPC   GL1 2475  10.792  14.242   5.859  0.1515  0.1706  0.2222
    1DPPC   GL2 2476  11.101  14.135   5.815  0.0903  0.1101  0.2550
    1DPPC   C1A 2477  10.595  14.355   5.506 -0.2336 -0.0150  0.1401
    1DPPC   C2A 2478  10.548  14.009   5.161  0.1296  0.0480 -0.2208
    1DPPC   C3A 2479  10.610  13.998   4.708  0.0467 -0.1380  0.0688
    1DPPC   C4A 2480  10.476  13.966   4.265 -0.0476  0.1786 -0.1947
    1DPPC   C1B 2481  11.110  14.169   5.389  0.0298 -0.1103 -0.2429
    1DPPC   C2B 2482  11.053  14.035   4.970 -0.0404  0.0899 -0.2239
    1DPPC   C3B 2483  11.156  14.193   4.638 -0.0240  0.0662  0.1652
    1DPPC   C4B 2484  11.195  14.492   4.485 -0.0566 -0.0176 -0.0400
    1DPPC   NC3 2485  21.043   6.993   7.440 -0.0203 -0.0414  0.0833
    1DPPC   PO4 2486  21.028   6.624   7.136 -0.1966  0.1067 -0.1933
    1DPPC   GL1 2487  20.965   6.622   6.578  0.1889 -0.1855  0.2676
    1DPPC   GL2 2488  20.760   6.816   6.532  0.2333  0.2732 -0.1779
    1DPPC   C1A 2489  20.758   6.514   6.107 -0.0585  0.0212  0.2168
    1DPPC   C2A 2490  20.696   6.258   5.828 -0.0961 -0.2512  0.2432
    1DPPC   C3A 2491  20.623   5.929   5.513 -0.0476  0.1055 -0.2025
    1DPPC   C4A 2492  20.423   5.579   5.328  0.2287  0.0613 -0.2200
    1DPPC   C1B 2493  20.992   6.923   6.195 -0.2496 -0.0036  0.0280
    1DPPC   C2B 2494  21.042   6.850   5.767  0.0500 -0.0642  0.0290
    1DPPC   C3B 2495  20.910   6.540   5.448  0.2655  0.0204 -0.0616
    1DPPC   C4B 2496  20.899   6.200   5.245 -0.0587 -0.0875 -0.0192
    1DPPC   NC3 2497   8.167   4.893   5.822  0.0328  0.0094  0.3620
    1DPPC   PO4 2498   8.301   4.495   5.926  0.0548 -0.0865 -0.1026
    1DPPC   GL1 2499   8.120   4.391   5.571  0.2256  0.1081 -0.0611
    1DPPC   GL2 2500   8.208   4.006   5.660 -0.1892 -0.3181  0.0832
    1DPPC   C1A 2501   8.005   4.249   5.111 -0.0039 -0.2455 -0.1304
    1DPPC   C2A 2502   7.882   4.200   4.707 -0.0770 -0.0362 -0.0391
    1DPPC   C3A 2503   8.159   4.188   4.368 -0.0804 -0.0712 -0.0737
    1DPPC   C4A 2504   8.296   4.166   3.903 -0.1151  0.0842  0.3399
    1DPPC   C1B 2505   8.422   4.068   5.213  0.0979 -0.1155  0.1541
    1DPPC   C2B 2506   8.356   3.931   4.850 -0.0785 -0.0928 -0.2997
    1DPPC   C3B 2507   8.120   3.699   4.493 -0.0605 -0.1435 -0.5318
    1DPPC   C4B 2508   8.378   3.333   4.388 -0.0997 -0.2021 -0.1583
    1DPPC   NC3 2509  24.171   7.719   6.796 -0.0369  0.0410  0.1120
    1DPPC   PO4 2510  24.567   7.835   6.838  0.0096 -0.4427  0.1624
    1DPPC   GL1 2511  24.588   7.584   6.448 -0.1495  0.4514 -0.2123
    1DPPC   GL2 2512  24.300   7.476   6.339  0.2909 -0.1174  0.2472
    1DPPC   C1A 2513  24.645   7.703   6.032 -0.3509 -0.0800 -0.1829
    1DPPC   C2A 2514  24.558   7.696   5.686  0.1353 -0.0622 -0.0810
    1DPPC   C3A 2515  24.415   7.740   5.374  0.1860  0.2193 -0.1267
    1DPPC   C4A 2516  24.335   7.765   4.966  0.1565  0.1093 -0.0306
    1DPPC   C1B 2517  24.174   7.476   5.945  0.1460 -0.1770  0.1912
    1DPPC   C2B 2518  24.078   7.431   5.550  0.3423  0.0762 -0.1811
    1DPPC   C3B 2519  23.916   7.439   5.112  0.1019 -0.0838  0.1558
    1DPPC   C4B 2520  24.133   7.331   4.743  0.1159  0.1401 -0.0672
    1DPPC   NC3 2521   1.570  20.030   7.439  0.0567 -0.3616 -0.1437
    1DPPC   PO4 2522   1.775  20.447   7.310  0.0385  0.2769  0.2317
    1DPPC   GL1 2523   1.778  20.492   6.882 -0.2824 -0.0088  0.1317
    1DPPC   GL2 2524   2.106  20.506   6.573  0.3376 -0.0787 -0.1471
    1DPPC   C1A 2525   1.683  20.774   6.487 -0.0271 -0.1603  0.1142
    1DPPC   C2A 2526   1.589  20.817   6.110 -0.1222 -0.0253  0.1209
    1DPPC   C3A 2527   1.511  20.742   5.734  0.1470 -0.0532 -0.0138
    1DPPC   C4A 2528   1.631  21.046   5.449 -0.0717  0.0382 -0.3643
    1DPPC   C1B 2529   2.130  20.598   6.168  0.2020  0.1192  0.0546
    1DPPC   C2B 2530   1.990  20.491   5.706  0.1734 -0.3012 -0.0189
    1DPPC   C3B 2531   1.849  20.287   5.311 -0.0487 -0.0302  0.1643
    1DPPC   C4B 2532   1.534  20.134   4.993 -0.2761  0.0919 -0.0980
    1DPPC   NC3 2533  28.047   8.955   6.775  0.1990  0.0018  0.2091
    1DPPC   PO4 2534  27.846   8.592   6.908  0.2199  0.1024  0.1667
    1DPPC   GL1 2535  28.040   8.548   6.490  0.0868 -0.1750 -0.3492
    1DPPC   GL2 2536  27.947   8.353   6.239 -0.0615 -0.2496 -0.1016
    1DPPC   C1A 2537  28.161   8.720   6.090  0.2219 -0.1773 -0.0735
    1DPPC   C2A 2538  28.297   8.829   5.743  0.1850  0.0054  0.0848
    1DPPC   C3A 2539  28.219   8.792   5.383  0.3294 -0.1809 -0.1606
    1DPPC   C4A 2540  28.189   8.884   4.919  0.3341  0.4135  0.1092
    1DPPC   C1B 2541  27.802   8.502   5.823  0.1031 -0.0814  0.0154
    1DPPC   C2B 2542  27.894   8.441   5.444  0.2351 -0.1516  0.4215
    1DPPC   C3B 2543  27.842   8.560   4.999 -0.2219  0.2542  0.1260
    1DPPC   C4B 2544  27.658   8.805   4.650  0.0303 -0.1924  0.0654
    1DPPC   NC3 2545   0.019   6.268   6.435 -0.2432 -0.0083  0.1237
    1DPPC   PO4 2546   0.438   6.334   6.187  0.0228 -0.2995 -0.4482
    1DPPC   GL1 2547   0.468   6.392   5.800  0.0082 -0.3346 -0.0793
    1DPPC   GL2 2548   0.230   6.165   5.580  0.1402 -0.0624 -0.0327
    1DPPC   C1A 2549   0.548   6.562   5.361 -0.4573  0.1341 -0.1033
    1DPPC   C2A 2550   0.484   6.655   5.044  0.1884  0.1482  0.0896
    1DPPC   C3A 2551   0.567   6.505   4.663  0.0562 -0.0536  0.0408
    1DPPC   C4A 2552   0.497   6.293   4.153 -0.0165  0.2139 -0.1715
    1DPPC   C1B 2553   0.039   6.168   5.238  0.1936 -0.0322  0.2585
    1DPPC   C2B 2554   0.158   6.319   4.909 -0.0393  0.0729  0.1836
    1DPPC   C3B 2555   0.083   6.364   4.541  0.1922  0.0421 -0.0023
    1DPPC   C4B 2556  29.517   6.485   4.102 -0.0496 -0.1135 -0.0938
    1DPPC   NC3 2557  18.469   9.704   6.913 -0.0680 -0.2356  0.1173
    1DPPC   PO4 2558  18.289   9.234   6.933  0.2693  0.0686 -0.0958
    1DPPC   GL1 2559  18.708   9.165   6.741 -0.1560  0.0389 -0.0446
    1DPPC   GL2 2560  18.880   9.479   6.637 -0.1490  0.1383 -0.3141
    1DPPC   C1A 2561  18.735   8.877   6.416  0.0474 -0.2473  0.1994
    1DPPC   C2A 2562  18.759   8.909   5.827  0.0097  0.2458 -0.1783
    1DPPC   C3A 2563  18.747   8.888   5.384  0.2275 -0.3222 -0.2089
    1DPPC   C4A 2564  18.653   8.790   4.973 -0.0769  0.0545  0.1670
    1DPPC   C1B 2565  19.192   9.606   6.300  0.1609 -0.2984 -0.4613
    1DPPC   C2B 2566  19.317   9.649   5.849 -0.0951 -0.3072  0.0781
    1DPPC   C3B 2567  19.318   9.492   5.467  0.1640  0.2525 -0.1439
    1DPPC   C4B 2568  19.377   9.418   4.997 -0.1329 -0.3609 -0.0759
    1DPPC   NC3 2569  21.432  15.474   7.812 -0.5407 -0.1279  0.0972
    1DPPC   PO4 2570  21.219  15.437   7.426 -0.0273 -0.1619  0.0755
    1DPPC   GL1 2571  21.166  15.086   7.203  0.1118  0.1860  0.1586
    1DPPC   GL2 2572  20.830  15.067   6.997 -0.0456 -0.3009 -0.1006
    1DPPC   C1A 2573  21.273  14.937   6.791 -0.2293  0.1932  0.2229
    1DPPC   C2A 2574  21.297  14.948   6.378  0.2290  0.0730 -0.0924
    1DPPC   C3A 2575  21.181  14.995   5.938  0.2985 -0.0877  0.3328
    1DPPC   C4A 2576  21.293  14.841   5.524  0.0096 -0.0989  0.0171
    1DPPC   C1B 2577  20.822  15.078   6.597 -0.0974  0.2612 -0.0912
    1DPPC   C2B 2578  20.674  15.266   6.240 -0.0908  0.0394 -0.1108
    1DPPC   C3B 2579  20.824  15.451   5.937  0.0530 -0.3648  0.1005
    1DPPC   C4B 2580  21.009  15.365   5.556 -0.2017  0.1880 -0.1979
    1DPPC   NC3 2581  29.493   4.894   6.205 -0.0459 -0.1290  0.0436
    1DPPC   PO4 2582  29.467   4.606   6.050 -0.0498  0.0239  0.0681
    1DPPC   GL1 2583  29.412   4.582   5.640  0.1136 -0.0629 -0.1053
    1DPPC   GL2 2584  29.436   4.251   5.649  0.1218  0.2497 -0.2026
    1DPPC   C1A 2585   0.050   4.714   5.275  0.0108 -0.0231 -0.0197
    1DPPC   C2A 2586   0.093   4.570   4.848  0.0868  0.3367 -0.0276
    1DPPC   C3A 2587   0.119   4.641   4.447  0.0762 -0.1945  0.1088
    1DPPC   C4A 2588   0.194   4.629   4.012 -0.1939 -0.0640 -0.0182
    1DPPC   C1B 2589  29.367   4.292   5.211  0.1735  0.1810  0.0149
    1DPPC   C2B 2590  29.263   4.272   4.837  0.0051 -0.2115 -0.1737
    1DPPC   C3B 2591  29.277   4.283   4.405 -0.1693  0.0131  0.1390
    1DPPC   C4B 2592  29.580   4.204   4.206  0.3220 -0.0080  0.0319
    1DPPC   NC3 2593  23.050  15.171   7.010 -0.0649 -0.0919 -0.1468
    1DPPC   PO4 2594  23.344  14.789   7.156  0.1508  0.0284 -0.0461
    1DPPC   GL1 2595  23.370  14.803   6.626  0.1769  0.1308 -0.1812
    1DPPC   GL2 2596  23.256  15.117   6.541  0.1630  0.0895 -0.2543
    1DPPC   C1A 2597  23.585  14.468   6.368  0.1234 -0.0976 -0.1196
    1DPPC   C2A 2598  23.583  14.418   5.900  0.1679  0.3194 -0.1176
    1DPPC   C3A 2599  23.533  14.575   5.498 -0.0696 -0.1601 -0.0243
    1DPPC   C4A 2600  23.305  14.656   5.093  0.2439  0.1988 -0.1383
    1DPPC   C1B 2601  23.111  15.138   6.170 -0.1655 -0.2015 -0.2502
    1DPPC   C2B 2602  23.031  15.374   5.735 -0.0484  0.1199 -0.2495
    1DPPC   C3B 2603  22.953  15.668   5.387 -0.3816 -0.0245  0.0556
    1DPPC   C4B 2604  22.952  16.010   5.100  0.0770 -0.2418 -0.0459
    1DPPC   NC3 2605  26.967  10.638   7.465 -0.3316 -0.3101 -0.1016
    1DPPC   PO4 2606  26.821  10.942   7.132 -0.0596  0.0809 -0.1779
    1DPPC   GL1 2607  26.671  10.998   6.718 -0.0441 -0.2512 -0.0986
    1DPPC   GL2 2608  26.883  11.007   6.603  0.0441 -0.0967  0.0497
    1DPPC   C1A 2609  26.475  10.734   6.365 -0.1877  0.0433 -0.2051
    1DPPC   C2A 2610  26.406  10.771   5.923 -0.1595  0.2644  0.1478
    1DPPC   C3A 2611  26.332  10.827   5.517  0.1535  0.0745 -0.2754
    1DPPC   C4A 2612  26.316  10.773   5.057  0.0846 -0.0139  0.3904
    1DPPC   C1B 2613  26.785  11.046   6.166 -0.2819  0.0493  0.0316
    1DPPC   C2B 2614  26.767  11.074   5.657  0.0520 -0.0073 -0.0845
    1DPPC   C3B 2615  26.679  11.060   5.278  0.0742 -0.1299 -0.0833
    1DPPC   C4B 2616  26.726  10.997   4.859  0.0077  0.0788 -0.1659
    1DPPC   NC3 2617  28.834   6.123   6.303 -0.0198  0.1918  0.2166
    1DPPC   PO4 2618  29.220   6.061   6.192 -0.1349 -0.1237  0.1523
    1DPPC   GL1 2619  28.976   6.417   5.890  0.3875  0.1657 -0.0942
    1DPPC   GL2 2620  29.021   6.778   5.910  0.0557 -0.2651  0.0964
    1DPPC   C1A 2621  28.806   6.238   5.477 -0.1125  0.1759  0.0269
    1DPPC   C2A 2622  28.744   6.332   5.025  0.0227 -0.1105  0.1307
    1DPPC   C3A 2623  28.671   6.490   4.683  0.0801  0.1772 -0.0125
    1DPPC   C4A 2624  28.422   6.721   4.440 -0.0329  0.2674 -0.2708
    1DPPC   C1B 2625  29.033   6.718   5.447  0.2499  0.0506  0.0557
    1DPPC   C2B 2626  28.974   6.813   5.029 -0.0112 -0.1640  0.1238
    1DPPC   C3B 2627  29.005   6.917   4.645 -0.0769 -0.2815  0.3544
    1DPPC   C4B 2628  28.986   6.862   4.254 -0.1170 -0.0194  0.0905
    1DPPC   NC3 2629  20.942   9.226   7.132 -0.1842 -0.0640 -0.2127
    1DPPC   PO4 2630  21.068   9.706   6.988  0.0009  0.1118  0.0956
    1DPPC   GL1 2631  21.129   9.337   6.684  0.0764  0.0924  0.1420
    1DPPC   GL2 2632  20.760   9.297   6.587  0.0175  0.2867  0.0116
    1DPPC   C1A 2633  21.178   9.348   6.245 -0.1313 -0.2896 -0.1401
    1DPPC   C2A 2634  21.176   9.224   5.701 -0.3064  0.0862 -0.0907
    1DPPC   C3A 2635  21.112   9.187   5.303  0.1858  0.1037  0.1733
    1DPPC   C4A 2636  21.260   8.939   4.960  0.0211  0.2173 -0.0038
    1DPPC   C1B 2637  20.671   9.156   6.230 -0.0326  0.0466  0.2581
    1DPPC   C2B 2638  20.711   9.082   5.803  0.0652 -0.0328  0.1837
    1DPPC   C3B 2639  20.691   8.994   5.406  0.0075  0.1903 -0.0200
    1DPPC   C4B 2640  20.778   8.998   4.966  0.0973  0.0456  0.0426
    1DPPC   NC3 2641  26.210   8.810   6.706 -0.3696  0.1053 -0.0713
    1DPPC   PO4 2642  25.812   8.890   6.851  0.0508 -0.0331 -0.0240
    1DPPC   GL1 2643  25.541   9.113   6.569 -0.1955  0.1574 -0.0418
    1DPPC   GL2 2644  25.634   9.511   6.500  0.2465  0.0440  0.0441
    1DPPC   C1A 2645  25.498   9.251   6.087  0.0158  0.3664 -0.0030
    1DPPC   C2A 2646  25.481   9.281   5.691  0.0848  0.1951 -0.4192
    1DPPC   C3A 2647  25.418   9.135   5.244 -0.1869 -0.1743 -0.5086
    1DPPC   C4A 2648  25.467   9.083   4.831 -0.0742  0.1422 -0.0543
    1DPPC   C1B 2649  25.904   9.427   6.256  0.2529  0.2341  0.1947
    1DPPC   C2B 2650  25.908   9.398   5.857  0.0799  0.2232  0.2409
    1DPPC   C3B 2651  25.902   9.457   5.478 -0.3303 -0.4878 -0.3832
    1DPPC   C4B 2652  25.882   9.346   5.188  0.0105  0.0729  0.1281
    1DPPC   NC3 2653  25.689   6.594   6.744 -0.0244  0.0669 -0.0607
    1DPPC   PO4 2654  25.978   6.378   6.558 -0.0076 -0.0568 -0.1442
    1DPPC   GL1 2655  25.717   6.356   6.284 -0.2396  0.0735 -0.1722
    1DPPC   GL2 2656  25.453   6.331   6.407  0.0398 -0.1406  0.1071
    1DPPC   C1A 2657  25.609   6.368   5.850 -0.0632  0.2742 -0.1017
    1DPPC   C2A 2658  25.545   6.345   5.344 -0.0200 -0.4008 -0.2840
    1DPPC   C3A 2659  25.757   6.357   4.992 -0.1742 -0.3004  0.1611
    1DPPC   C4A 2660  25.929   6.421   4.606  0.2022  0.2124  0.0148
    1DPPC   C1B 2661  25.396   5.929   6.089  0.1187  0.0161 -0.2121
    1DPPC   C2B 2662  25.467   5.817   5.637  0.0621 -0.0412 -0.0263
    1DPPC   C3B 2663  25.458   5.877   5.253 -0.0378 -0.3110 -0.0602
    1DPPC   C4B 2664  25.237   6.015   4.891 -0.3572 -0.0116 -0.0623
    1DPPC   NC3 2665  25.028   6.425   6.899 -0.0159 -0.0864  0.0899
    1DPPC   PO4 2666  24.783   6.815   6.923 -0.0388 -0.1442  0.1499
    1DPPC   GL1 2667  24.628   6.718   6.504  0.1206  0.0439  0.2048
    1DPPC   GL2 2668  24.398   6.966   6.469  0.0301  0.0023  0.1543
    1DPPC   C1A 2669  24.676   6.568   6.132  0.0849  0.3996 -0.0129
    1DPPC   C2A 2670  24.683   6.648   5.719 -0.0018  0.1718  0.4219
    1DPPC   C3A 2671  24.611   6.730   5.319  0.2395 -0.4124  0.0146
    1DPPC   C4A 2672  24.859   7.083   4.980  0.0469  0.2105 -0.2096
    1DPPC   C1B 2673  24.245   6.902   6.092 -0.3734 -0.0804  0.1520
    1DPPC   C2B 2674  24.225   6.942   5.652  0.2181  0.2890  0.3551
    1DPPC   C3B 2675  24.137   6.907   5.208 -0.1259  0.1998 -0.0751
    1DPPC   C4B 2676  24.394   6.892   4.802  0.1024  0.1236 -0.1254
    1DPPC   NC3 2677  28.813  12.891   7.010  0.0546 -0.1304  0.0021
    1DPPC   PO4 2678  28.865  13.349   7.291  0.1387 -0.0922 -0.0905
    1DPPC   GL1 2679  28.851  13.475   6.811 -0.2112 -0.1089 -0.2432
    1DPPC   GL2 2680  29.057  13.600   6.708  0.1211 -0.1431  0.0771
    1DPPC   C1A 2681  28.544  13.675   6.577 -0.1617 -0.1627 -0.1910
    1DPPC   C2A 2682  28.582  13.803   6.207  0.1992 -0.2255 -0.0073
    1DPPC   C3A 2683  28.560  13.757   5.867 -0.1786 -0.1020  0.1952
    1DPPC   C4A 2684  28.679  13.840   5.333 -0.0833 -0.0510 -0.1994
    1DPPC   C1B 2685  28.902  13.467   6.312  0.0810  0.1313  0.1318
    1DPPC   C2B 2686  28.947  13.435   5.868 -0.1182  0.0062 -0.1436
    1DPPC   C3B 2687  28.890  13.390   5.422 -0.0118  0.2269 -0.0464
    1DPPC   C4B 2688  29.117  13.557   5.064  0.0110  0.2317  0.1187
    1DPPC   NC3 2689  17.037   7.956   7.067 -0.1353 -0.1602 -0.0210
    1DPPC   PO4 2690  16.706   7.882   6.842  0.0186  0.0281  0.0937
    1DPPC   GL1 2691  16.939   8.120   6.526  0.2659  0.1087  0.1533
    1DPPC   GL2 2692  16.821   8.293   6.434  0.1666 -0.1524  0.4412
    1DPPC   C1A 2693  17.342   8.283   6.281 -0.4175  0.0937 -0.1155
    1DPPC   C2A 2694  17.536   8.482   5.986  0.2775 -0.0834  0.0561
    1DPPC   C3A 2695  17.578   8.580   5.645  0.2903  0.2898 -0.1645
    1DPPC   C4A 2696  17.704   8.757   5.332 -0.0035 -0.1258 -0.2435
    1DPPC   C1B 2697  16.923   8.402   6.034  0.2887 -0.1451  0.0757
    1DPPC   C2B 2698  17.065   8.471   5.700  0.1563  0.0121 -0.1230
    1DPPC   C3B 2699  17.144   8.593   5.247  0.0712  0.1128 -0.0081
    1DPPC   C4B 2700  17.252   8.656   4.914  0.0795 -0.1967  0.0502
    1DPPC   NC3 2701  27.377  13.574   7.439 -0.1192  0.2999  0.2067
    1DPPC   PO4 2702  27.111  13.286   7.360 -0.0496  0.1630 -0.0126
    1DPPC   GL1 2703  26.970  13.300   6.941  0.0057 -0.2014 -0.0540
    1DPPC   GL2 2704  26.747  13.526   6.954  0.3604  0.1160  0.0049
    1DPPC   C1A 2705  26.846  13.224   6.553  0.0033 -0.0761 -0.0232
    1DPPC   C2A 2706  26.847  13.183   6.107 -0.0593  0.1247  0.2153
    1DPPC   C3A 2707  26.826  13.142   5.770  0.2632 -0.1270 -0.1096
    1DPPC   C4A 2708  26.713  13.177   5.391 -0.0804  0.2270 -0.0033
    1DPPC   C1B 2709  26.815  13.761   6.519  0.2802  0.0510  0.1025
    1DPPC   C2B 2710  26.789  13.714   6.079  0.4074  0.0470  0.1074
    1DPPC   C3B 2711  26.729  13.622   5.628 -0.2474  0.0865 -0.1475
    1DPPC   C4B 2712  26.854  13.607   5.199 -0.0072 -0.1882  0.3727
    1DPPC   NC3 2713   7.340   2.130   6.360 -0.2616 -0.2010 -0.2677
    1DPPC   PO4 2714   7.080   1.896   6.119 -0.1418 -0.0219  0.0974
    1DPPC   GL1 2715   6.749   2.129   5.846 -0.1833  0.0116 -0.0150
    1DPPC   GL2 2716   6.661   2.406   5.914 -0.0078 -0.0265 -0.1477
    1DPPC   C1A 2717   6.656   2.177   5.372  0.0287  0.1241 -0.0895
    1DPPC   C2A 2718   6.541   1.987   4.970  0.2131 -0.0714 -0.0590
    1DPPC   C3A 2719   6.193   1.948   4.839  0.2926 -0.1894  0.0834
    1DPPC   C4A 2720   5.732   1.749   5.012 -0.3518  0.1790 -0.0457
    1DPPC   C1B 2721   6.630   2.656   5.637 -0.3506 -0.0369 -0.0903
    1DPPC   C2B 2722   6.708   2.999   5.300 -0.2222 -0.2799 -0.2946
    1DPPC   C3B 2723   6.607   3.357   5.096  0.2535 -0.0021  0.1506
    1DPPC   C4B 2724   6.152   3.466   4.915 -0.0184  0.3263 -0.1558
    1DPPC   NC3 2725  19.992  10.104   7.284 -0.0551  0.0111 -0.0764
    1DPPC   PO4 2726  19.582  10.382   7.127 -0.0740  0.2280 -0.0493
    1DPPC   GL1 2727  19.648  10.523   6.742  0.0439 -0.1016 -0.1129
    1DPPC   GL2 2728  19.859  10.724   6.804 -0.0445 -0.0326  0.0887
    1DPPC   C1A 2729  19.702  10.260   6.380 -0.0116 -0.0172  0.0573
    1DPPC   C2A 2730  19.963  10.305   6.009  0.2310 -0.2255 -0.0317
    1DPPC   C3A 2731  19.979  10.203   5.515  0.3126  0.2002  0.1465
    1DPPC   C4A 2732  19.954  10.193   5.092 -0.0671 -0.0980 -0.4376
    1DPPC   C1B 2733  19.919  10.708   6.359 -0.2400 -0.0712  0.2575
    1DPPC   C2B 2734  20.047  10.749   5.907 -0.0762 -0.1616 -0.0703
    1DPPC   C3B 2735  20.160  10.737   5.548 -0.0297  0.1867 -0.2539
    1DPPC   C4B 2736  20.208  10.641   5.202  0.0235 -0.1591  0.0857
    1DPPC   NC3 2737  22.122  11.760   6.791  0.0021  0.1558  0.1997
    1DPPC   PO4 2738  22.333  11.530   7.077 -0.0207  0.1013  0.0393
    1DPPC   GL1 2739  22.550  11.489   6.743  0.0133 -0.0496 -0.0396
    1DPPC   GL2 2740  22.288  11.186   6.666  0.0156  0.0898 -0.1338
    1DPPC   C1A 2741  22.735  11.288   6.412 -0.2907 -0.2066 -0.2118
    1DPPC   C2A 2742  22.747  11.019   6.102 -0.0056  0.1870 -0.0730
    1DPPC   C3A 2743  22.809  10.969   5.641 -0.0583  0.1379  0.0014
    1DPPC   C4A 2744  22.660  11.015   5.233  0.2269 -0.0008  0.3512
    1DPPC   C1B 2745  22.209  10.947   6.300  0.0918  0.0559  0.2595
    1DPPC   C2B 2746  22.224  10.811   5.867 -0.0503 -0.3848 -0.0517
    1DPPC   C3B 2747  22.154  10.796   5.484 -0.0652 -0.1489  0.1235
    1DPPC   C4B 2748  22.306  10.623   5.104  0.0982 -0.2858 -0.1823
    1DPPC   NC3 2749  23.820   5.982   7.632  0.0594 -0.2349  0.0699
    1DPPC   PO4 2750  23.566   5.911   7.315 -0.0984 -0.2745  0.0125
    1DPPC   GL1 2751  23.737   6.077   6.902  0.4365 -0.1646  0.1962
    1DPPC   GL2 2752  23.930   5.897   6.664 -0.0947 -0.3934 -0.0116
    1DPPC   C1A 2753  23.762   6.326   6.462 -0.0186 -0.0522 -0.2302
    1DPPC   C2A 2754  23.724   6.256   5.996  0.2003 -0.1405  0.1122
    1DPPC   C3A 2755  23.709   6.204   5.521 -0.0133  0.4519 -0.1621
    1DPPC   C4A 2756  23.781   6.138   5.133 -0.0786  0.1659 -0.0143
    1DPPC   C1B 2757  24.095   5.867   6.243 -0.2205 -0.0930  0.0515
    1DPPC   C2B 2758  24.162   5.955   5.872  0.1389 -0.0974 -0.0530
    1DPPC   C3B 2759  24.197   5.992   5.470  0.0939  0.3115 -0.0470
    1DPPC   C4B 2760  24.217   5.887   5.015  0.1262 -0.0713  0.2848
    1DPPC   NC3 2761  14.980   9.068   7.335 -0.0595  0.2873  0.1734
    1DPPC   PO4 2762  14.877   9.261   6.965 -0.1994 -0.1396  0.0836
    1DPPC   GL1 2763  14.797   9.469   6.552 -0.1678  0.0852  0.1332
    1DPPC   GL2 2764  15.102   9.770   6.582  0.4164 -0.3008 -0.2554
    1DPPC   C1A 2765  14.876   9.591   6.129 -0.0004 -0.0219  0.1487
    1DPPC   C2A 2766  14.888   9.859   5.756 -0.6742  0.0580 -0.0372
    1DPPC   C3A 2767  15.022   9.985   5.401 -0.0260  0.0021 -0.0969
    1DPPC   C4A 2768  14.972  10.227   4.971  0.2104 -0.0382  0.0752
    1DPPC   C1B 2769  15.191  10.048   6.190 -0.0189 -0.3105 -0.0096
    1DPPC   C2B 2770  15.257  10.240   5.779  0.2928  0.2277 -0.0743
    1DPPC   C3B 2771  15.292  10.492   5.400 -0.0625 -0.3016 -0.0764
    1DPPC   C4B 2772  15.170  10.727   5.031  0.1623  0.0755  0.0030
    1DPPC   NC3 2773  29.355   8.216   6.163 -0.4057  0.1686 -0.3606
    1DPPC   PO4 2774  29.350   8.614   6.390  0.1019 -0.1001 -0.3009
    1DPPC   GL1 2775  29.209   8.727   6.067  0.0490 -0.0188 -0.2012
    1DPPC   GL2 2776  29.403   8.807   5.747 -0.1073  0.2963  0.1050
    1DPPC   C1A 2777  28.941   8.996   5.863 -0.2279 -0.1167 -0.0675
    1DPPC   C2A 2778  28.780   9.146   5.418  0.2187 -0.1517 -0.0595
    1DPPC   C3A 2779  28.844   9.368   5.008 -0.2420  0.1217 -0.1286
    1DPPC   C4A 2780  28.862   9.459   4.567  0.1344 -0.2523  0.0552
    1DPPC   C1B 2781  29.177   8.781   5.385 -0.0801 -0.2355 -0.4769
    1DPPC   C2B 2782  29.166   8.839   5.018  0.0674 -0.0144 -0.0188
    1DPPC   C3B 2783  29.099   8.958   4.609  0.4349  0.2617  0.1335
    1DPPC   C4B 2784  29.116   8.643   4.361 -0.2310  0.1137  0.1812
    1DPPC   NC3 2785  22.768  15.448   7.367 -0.0428  0.1271 -0.1933
    1DPPC   PO4 2786  22.536  15.148   7.237 -0.1707 -0.0392 -0.1278
    1DPPC   GL1 2787  22.568  15.025   6.865  0.0835 -0.2339  0.1010
    1DPPC   GL2 2788  22.231  15.168   6.836 -0.0640  0.0346  0.2573
    1DPPC   C1A 2789  22.773  14.925   6.463 -0.2997 -0.1284 -0.1186
    1DPPC   C2A 2790  22.678  14.869   6.124 -0.2645 -0.0315  0.1229
    1DPPC   C3A 2791  22.666  14.836   5.688  0.1803 -0.1162  0.1670
    1DPPC   C4A 2792  22.774  15.010   5.287 -0.2556  0.3200  0.0152
    1DPPC   C1B 2793  22.285  14.989   6.406  0.1777 -0.0211  0.1313
    1DPPC   C2B 2794  22.230  15.075   5.974 -0.0025 -0.0374  0.2149
    1DPPC   C3B 2795  22.060  15.343   5.622  0.3078  0.1354  0.1348
    1DPPC   C4B 2796  21.913  15.626   5.348 -0.0911  0.1276 -0.0526
    1DPPC   NC3 2797  21.482  12.015   7.174  0.0638 -0.3882 -0.2611
    1DPPC   PO4 2798  21.585  11.722   6.836  0.1068  0.2869  0.0483
    1DPPC   GL1 2799  21.752  11.880   6.434 -0.2016  0.1854  0.0834
    1DPPC   GL2 2800  21.544  11.748   6.265  0.0958 -0.0343  0.1264
    1DPPC   C1A 2801  21.972  11.925   5.991 -0.1852 -0.0177  0.1012
    1DPPC   C2A 2802  22.025  11.908   5.571 -0.1886  0.1654  0.1620
    1DPPC   C3A 2803  22.263  11.787   5.305  0.3057  0.0657 -0.3182
    1DPPC   C4A 2804  22.597  11.605   5.095  0.1828  0.1322  0.0475
    1DPPC   C1B 2805  21.496  11.801   5.810  0.1634 -0.0493  0.0555
    1DPPC   C2B 2806  21.604  11.872   5.304  0.1022 -0.1662 -0.1190
    1DPPC   C3B 2807  21.735  12.173   5.070  0.0660 -0.0452  0.2897
    1DPPC   C4B 2808  21.964  12.435   4.911  0.1359  0.2849 -0.2368
    1DPPC   NC3 2809  18.282   5.353   6.607  0.3401  0.1060  0.3362
    1DPPC   PO4 2810  17.922   5.506   6.522  0.3154  0.0002 -0.2252
    1DPPC   GL1 2811  17.993   5.574   6.134 -0.2298  0.1709  0.0123
    1DPPC   GL2 2812  17.896   5.845   6.018  0.1281 -0.1118 -0.0858
    1DPPC   C1A 2813  18.047   5.570   5.650 -0.2312  0.0460 -0.0415
    1DPPC   C2A 2814  18.207   5.539   5.211  0.0948 -0.0695 -0.0425
    1DPPC   C3A 2815  18.331   5.528   4.858  0.0933 -0.0823  0.1425
    1DPPC   C4A 2816  18.443   5.455   4.553 -0.2971  0.3268  0.3237
    1DPPC   C1B 2817  17.798   5.965   5.591 -0.0243 -0.2697  0.0295
    1DPPC   C2B 2818  17.792   5.926   5.179  0.0825 -0.1615  0.1726
    1DPPC   C3B 2819  17.880   6.221   4.907  0.3454 -0.0451 -0.2365
    1DPPC   C4B 2820  17.801   6.184   4.425  0.1083  0.3314 -0.2001
    1DPPC   NC3 2821  24.012   8.396   7.281 -0.5080  0.0138 -0.0052
    1DPPC   PO4 2822  23.738   8.769   7.307  0.1593  0.3564  0.0578
    1DPPC   GL1 2823  23.893   8.717   6.935 -0.0988 -0.2267  0.1682
    1DPPC   GL2 2824  24.180   8.911   6.806 -0.1608  0.0338 -0.0848
    1DPPC   C1A 2825  23.999   8.646   6.405  0.0533  0.2208 -0.3208
    1DPPC   C2A 2826  24.041   8.706   5.971  0.0415  0.0396 -0.2558
    1DPPC   C3A 2827  24.035   8.850   5.605 -0.1799  0.1684 -0.2521
    1DPPC   C4A 2828  23.961   9.049   5.237 -0.1114  0.2658 -0.1692
    1DPPC   C1B 2829  23.927   9.097   6.588 -0.0057 -0.1270 -0.1891
    1DPPC   C2B 2830  23.843   9.169   6.211  0.4449 -0.1672 -0.1118
    1DPPC   C3B 2831  23.908   9.307   5.718 -0.0298 -0.0836  0.1915
    1DPPC   C4B 2832  23.947   9.559   5.262 -0.0347  0.2449 -0.2784
    1DPPC   NC3 2833   0.779  19.582   8.097 -0.1252  0.0258  0.2130
    1DPPC   PO4 2834   0.585  19.570   7.574 -0.3741 -0.0269 -0.0077
    1DPPC   GL1 2835   0.342  19.479   7.228  0.2874  0.0548 -0.2107
    1DPPC   GL2 2836   0.391  19.110   6.951 -0.1809 -0.3588 -0.2896
    1DPPC   C1A 2837   0.037  19.464   6.984  0.0035  0.1313 -0.1411
    1DPPC   C2A 2838  29.521  19.542   6.594  0.0071 -0.0024 -0.3226
    1DPPC   C3A 2839  29.298  19.781   6.242 -0.0087 -0.0355  0.2823
    1DPPC   C4A 2840  28.957  20.077   6.270  0.4042 -0.0128  0.0398
    1DPPC   C1B 2841   0.360  19.287   6.509  0.0849 -0.1485  0.4202
    1DPPC   C2B 2842   0.339  19.659   6.452  0.2817  0.0890 -0.3939
    1DPPC   C3B 2843   0.095  20.015   6.418  0.0667 -0.1697  0.0112
    1DPPC   C4B 2844  29.537  20.417   6.249  0.2991 -0.3252 -0.3707
    1DPPC   NC3 2845  26.902   9.709   7.194  0.1136  0.2891  0.0186
    1DPPC   PO4 2846  26.899  10.140   6.959  0.2367 -0.3715 -0.0243
    1DPPC   GL1 2847  26.719  10.153   6.549 -0.1832 -0.0807 -0.2031
    1DPPC   GL2 2848  26.890  10.045   6.306 -0.2904 -0.3786 -0.1097
    1DPPC   C1A 2849  26.477  10.273   6.204  0.3554  0.2843 -0.0317
    1DPPC   C2A 2850  26.397  10.313   5.822  0.0425  0.0421  0.2329
    1DPPC   C3A 2851  26.340  10.338   5.449  0.0714 -0.4961 -0.0364
    1DPPC   C4A 2852  26.344  10.264   5.061  0.0794 -0.3180  0.3336
    1DPPC   C1B 2853  26.800  10.049   5.880  0.1420 -0.2136  0.2946
    1DPPC   C2B 2854  26.749  10.096   5.453  0.2071  0.0510  0.0058
    1DPPC   C3B 2855  26.859  10.062   5.065 -0.1356 -0.0162 -0.0296
    1DPPC   C4B 2856  27.042  10.469   4.762 -0.3117  0.1384 -0.0711
    1DPPC   NC3 2857  23.941  15.451   6.782 -0.5620  0.0041  0.0152
    1DPPC   PO4 2858  23.599  15.644   6.851  0.0453  0.0574 -0.0683
    1DPPC   GL1 2859  23.561  15.481   6.405  0.0037 -0.2402 -0.1788
    1DPPC   GL2 2860  23.840  15.452   6.182  0.0553 -0.2337 -0.1368
    1DPPC   C1A 2861  23.236  15.714   6.029  0.2694  0.0229 -0.0248
    1DPPC   C2A 2862  23.308  16.035   5.711  0.2145 -0.2150  0.0749
    1DPPC   C3A 2863  23.059  16.244   5.534 -0.4274 -0.2058  0.1002
    1DPPC   C4A 2864  22.847  16.474   5.188  0.0877  0.2589  0.2141
    1DPPC   C1B 2865  23.593  15.508   5.804  0.0011 -0.1627 -0.0813
    1DPPC   C2B 2866  23.484  15.549   5.394 -0.2810 -0.0174  0.0155
    1DPPC   C3B 2867  23.313  15.704   5.010  0.2645  0.0511 -0.1092
    1DPPC   C4B 2868  22.923  15.819   4.664  0.3830 -0.0762 -0.0088
    1DPPC   NC3 2869  22.601   9.951   7.232  0.1425 -0.0339 -0.0678
    1DPPC   PO4 2870  23.011   9.993   7.034  0.3773  0.0843  0.0955
    1DPPC   GL1 2871  23.062   9.720   6.652 -0.0599  0.2546  0.3682
    1DPPC   GL2 2872  22.902   9.535   6.904 -0.1062 -0.0517  0.2349
    1DPPC   C1A 2873  22.934   9.658   6.200 -0.1237 -0.1456 -0.0992
    1DPPC   C2A 2874  22.869   9.662   5.758 -0.3284 -0.0955  0.1111
    1DPPC   C3A 2875  22.942   9.633   5.296 -0.2316 -0.0043 -0.0371
    1DPPC   C4A 2876  23.238   9.567   4.989 -0.0078 -0.0208  0.0145
    1DPPC   C1B 2877  22.627   9.320   6.446 -0.0107  0.0870  0.0412
    1DPPC   C2B 2878  22.556   9.361   6.000  0.1055  0.0102  0.0354
    1DPPC   C3B 2879  22.494   9.442   5.589  0.3019 -0.0575 -0.1182
    1DPPC   C4B 2880  22.441   9.322   5.189  0.1394 -0.0151  0.3110
    1DPPC   NC3 2881  18.225   6.352   6.617 -0.1219  0.3852  0.1001
    1DPPC   PO4 2882  17.894   6.569   6.566  0.2681  0.0303  0.0641
    1DPPC   GL1 2883  17.676   6.810   6.198 -0.2041 -0.0498  0.0249
    1DPPC   GL2 2884  17.315   6.736   6.300  0.1938 -0.1553  0.1342
    1DPPC   C1A 2885  17.743   6.932   5.719  0.1121  0.0531  0.2560
    1DPPC   C2A 2886  17.790   7.131   5.306  0.0626  0.3507  0.1658
    1DPPC   C3A 2887  17.720   7.395   4.944 -0.1104  0.0073 -0.0762
    1DPPC   C4A 2888  17.472   7.486   4.531  0.0783 -0.3241  0.1705
    1DPPC   C1B 2889  17.086   6.890   6.068 -0.2182 -0.0008 -0.1729
    1DPPC   C2B 2890  17.120   6.961   5.689 -0.0722 -0.0128  0.2711
    1DPPC   C3B 2891  17.161   7.071   5.303  0.0225  0.1429  0.1085
    1DPPC   C4B 2892  17.257   7.238   4.926  0.2113  0.1941 -0.3563
    1DPPC   NC3 2893  23.563   5.515   7.013  0.2049  0.0254  0.0583
    1DPPC   PO4 2894  23.934   5.216   7.160  0.0552 -0.1364  0.1747
    1DPPC   GL1 2895  24.114   5.400   6.768  0.1638 -0.3004  0.2380
    1DPPC   GL2 2896  23.870   5.437   6.514 -0.1442  0.0007 -0.2155
    1DPPC   C1A 2897  24.439   5.501   6.401  0.0755 -0.0711  0.2580
    1DPPC   C2A 2898  24.467   5.598   6.002 -0.0160  0.2654 -0.4324
    1DPPC   C3A 2899  24.461   5.606   5.549 -0.0340 -0.5055 -0.0776
    1DPPC   C4A 2900  24.451   5.516   5.206 -0.0063 -0.2262 -0.0035
    1DPPC   C1B 2901  23.982   5.448   6.034  0.1785  0.1278 -0.0784
    1DPPC   C2B 2902  23.976   5.426   5.559 -0.2059  0.0818 -0.0602
    1DPPC   C3B 2903  23.849   5.618   5.295  0.1793 -0.5093 -0.0558
    1DPPC   C4B 2904  23.729   5.724   4.870  0.0383 -0.2148 -0.1594
    1DPPC   NC3 2905  20.848   7.812   7.022 -0.0689 -0.4080  0.0597
    1DPPC   PO4 2906  21.245   8.058   7.095 -0.1025  0.2767 -0.0271
    1DPPC   GL1 2907  21.238   7.822   6.687 -0.0178 -0.0539 -0.1046
    1DPPC   GL2 2908  21.263   7.500   6.702  0.0059  0.0809 -0.0901
    1DPPC   C1A 2909  21.248   7.799   6.303  0.0995  0.0791 -0.1176
    1DPPC   C2A 2910  21.284   7.790   5.867 -0.0259  0.2727 -0.0538
    1DPPC   C3A 2911  21.299   7.794   5.476 -0.2200 -0.1343  0.0088
    1DPPC   C4A 2912  21.067   7.773   5.060 -0.0661  0.4344  0.0198
    1DPPC   C1B 2913  21.391   7.172   6.383  0.4223 -0.0871  0.1910
    1DPPC   C2B 2914  21.460   7.059   5.965  0.1107  0.0506 -0.0664
    1DPPC   C3B 2915  21.510   6.905   5.593  0.3587  0.0322  0.0287
    1DPPC   C4B 2916  21.336   6.779   5.208  0.4530  0.2251 -0.4943
    1DPPC   NC3 2917   4.112  28.900   6.786  0.0192  0.2501 -0.2141
    1DPPC   PO4 2918   4.126  28.490   6.583  0.2316 -0.1189  0.4441
    1DPPC   GL1 2919   4.211  28.469   6.164 -0.0991 -0.1290  0.2505
    1DPPC   GL2 2920   4.305  28.158   5.956  0.0074 -0.0510 -0.1995
    1DPPC   C1A 2921   4.074  28.506   5.618 -0.0050 -0.1638 -0.1043
    1DPPC   C2A 2922   4.106  28.704   5.199 -0.0505 -0.1149  0.0453
    1DPPC   C3A 2923   3.868  29.043   5.033  0.0903 -0.0306  0.0348
    1DPPC   C4A 2924   3.619  29.259   4.739  0.0501 -0.0026 -0.5079
    1DPPC   C1B 2925   4.134  27.921   5.612 -0.2531 -0.0774 -0.2013
    1DPPC   C2B 2926   4.163  27.529   5.492 -0.0433  0.0316 -0.1240
    1DPPC   C3B 2927   3.936  27.312   5.215 -0.2271  0.3377  0.0988
    1DPPC   C4B 2928   3.870  26.842   5.343  0.1716  0.3595 -0.2210
    1DPPC   NC3 2929  24.397  21.255   7.480  0.1851  0.1287 -0.0823
    1DPPC   PO4 2930  24.125  21.229   7.211  0.1594 -0.1540 -0.1077
    1DPPC   GL1 2931  24.205  21.101   6.836  0.1007 -0.1793  0.0675
    1DPPC   GL2 2932  24.234  20.895   6.784 -0.0049 -0.3735 -0.0045
    1DPPC   C1A 2933  24.466  21.163   6.400 -0.1089  0.3131  0.1814
    1DPPC   C2A 2934  24.334  21.053   5.959 -0.2267 -0.0969 -0.1986
    1DPPC   C3A 2935  24.096  20.867   5.621 -0.2826 -0.0792 -0.0268
    1DPPC   C4A 2936  23.851  20.477   5.556  0.0977  0.0869 -0.2375
    1DPPC   C1B 2937  23.878  21.128   6.416  0.0599 -0.2917  0.0513
    1DPPC   C2B 2938  23.795  21.300   6.048 -0.0799 -0.4615  0.1313
    1DPPC   C3B 2939  23.929  21.368   5.634  0.1280 -0.0890  0.0092
    1DPPC   C4B 2940  23.686  21.158   5.449 -0.3424 -0.2271  0.1803
    1DPPC   NC3 2941  21.802   8.323   6.976 -0.1870  0.0189 -0.1804
    1DPPC   PO4 2942  22.310   8.477   6.998  0.1809 -0.0444 -0.0530
    1DPPC   GL1 2943  22.029   8.535   6.546 -0.0450  0.2027 -0.1564
    1DPPC   GL2 2944  21.792   8.741   6.562  0.1718  0.0039 -0.1489
    1DPPC   C1A 2945  21.983   8.573   6.096  0.0600 -0.1572 -0.0968
    1DPPC   C2A 2946  21.979   8.491   5.619 -0.3436 -0.0675  0.1185
    1DPPC   C3A 2947  22.218   8.455   5.299 -0.0761  0.1553 -0.1863
    1DPPC   C4A 2948  22.236   8.585   4.822  0.1053 -0.0546  0.1555
    1DPPC   C1B 2949  21.567   8.529   6.362  0.1556  0.2743 -0.0027
    1DPPC   C2B 2950  21.520   8.534   5.955  0.0601  0.0936  0.1893
    1DPPC   C3B 2951  21.421   8.374   5.466 -0.1233  0.2224 -0.2618
    1DPPC   C4B 2952  21.401   8.234   5.105 -0.1020  0.0889  0.0182
    1DPPC   NC3 2953  20.833  26.221   8.277  0.0811 -0.4465  0.2455
    1DPPC   PO4 2954  21.031  25.963   7.918  0.0509 -0.1352 -0.0252
    1DPPC   GL1 2955  20.866  25.801   7.549  0.1141  0.3826  0.1074
    1DPPC   GL2 2956  20.702  26.021   7.471  0.0479 -0.2944 -0.0484
    1DPPC   C1A 2957  20.842  25.462   7.259  0.0198 -0.0873 -0.0026
    1DPPC   C2A 2958  20.756  25.039   7.007  0.0249  0.1716  0.1419
    1DPPC   C3A 2959  20.383  24.914   6.972  0.0590  0.1128 -0.1684
    1DPPC   C4A 2960  20.122  24.770   6.693 -0.1211  0.2222  0.2967
    1DPPC   C1B 2961  20.564  25.935   7.008  0.2188 -0.1022 -0.4589
    1DPPC   C2B 2962  20.383  25.766   6.562  0.1979 -0.2228 -0.0294
    1DPPC   C3B 2963  20.499  25.602   6.203 -0.1604  0.0035 -0.3535
    1DPPC   C4B 2964  20.697  25.220   5.975  0.0937  0.0105  0.1747
    1DPPC   NC3 2965  17.000  15.636   7.181 -0.1445  0.2338 -0.2465
    1DPPC   PO4 2966  17.442  15.649   7.180 -0.3335  0.2729 -0.1484
    1DPPC   GL1 2967  17.507  15.427   6.740  0.0564  0.0137 -0.0314
    1DPPC   GL2 2968  17.798  15.540   6.729  0.0825  0.2401 -0.2472
    1DPPC   C1A 2969  17.487  15.164   6.439 -0.0390  0.0276  0.0370
    1DPPC   C2A 2970  17.567  15.118   6.029 -0.0306 -0.5339  0.1506
    1DPPC   C3A 2971  17.557  15.137   5.618 -0.2394 -0.0632 -0.1006
    1DPPC   C4A 2972  17.359  15.308   5.198 -0.1107 -0.0071  0.1243
    1DPPC   C1B 2973  17.937  15.444   6.323  0.0370  0.1156 -0.3487
    1DPPC   C2B 2974  17.969  15.410   5.941  0.1529  0.1761  0.2081
    1DPPC   C3B 2975  18.039  15.468   5.576 -0.1015  0.1542  0.0453
    1DPPC   C4B 2976  17.818  15.296   5.267 -0.2980  0.0056  0.3553
    1DPPC   NC3 2977  26.405  13.800   7.321 -0.1051  0.0599  0.0001
    1DPPC   PO4 2978  26.219  13.882   6.952 -0.0944  0.3840 -0.0237
    1DPPC   GL1 2979  26.343  13.973   6.553 -0.0066  0.0105  0.0184
    1DPPC   GL2 2980  26.318  14.249   6.536 -0.0099  0.0688 -0.1708
    1DPPC   C1A 2981  26.288  13.868   6.141  0.1815  0.1193 -0.1003
    1DPPC   C2A 2982  26.337  13.871   5.736  0.1496  0.1417 -0.2794
    1DPPC   C3A 2983  26.366  13.894   5.254  0.1941 -0.1253 -0.1374
    1DPPC   C4A 2984  26.306  13.743   4.902 -0.2021  0.2391  0.1719
    1DPPC   C1B 2985  26.405  14.351   5.997  0.2352 -0.0179 -0.1091
    1DPPC   C2B 2986  26.392  14.335   5.575 -0.0213  0.2591 -0.1171
    1DPPC   C3B 2987  26.429  14.366   5.063  0.1199  0.0139  0.0957
    1DPPC   C4B 2988  26.271  14.316   4.774 -0.1263  0.0033 -0.1647
    1DPPC   NC3 2989  29.581   5.763   6.494  0.1816  0.0359  0.2799
    1DPPC   PO4 2990  29.360   5.410   6.132  0.0436  0.1058 -0.3533
    1DPPC   GL1 2991  28.994   5.408   5.733 -0.2434  0.0624 -0.0596
    1DPPC   GL2 2992  28.763   5.218   5.651  0.0451  0.0050  0.0533
    1DPPC   C1A 2993  28.928   5.303   5.212  0.2987 -0.0134  0.2114
    1DPPC   C2A 2994  28.891   5.344   4.794 -0.0549  0.2675  0.1268
    1DPPC   C3A 2995  28.780   5.303   4.362  0.0880 -0.2343 -0.0803
    1DPPC   C4A 2996  28.968   5.356   3.918 -0.0289 -0.1706 -0.0687
    1DPPC   C1B 2997  28.342   5.202   5.388 -0.1517 -0.0556 -0.0620
    1DPPC   C2B 2998  28.218   4.867   5.191 -0.2928  0.0997  0.0329
    1DPPC   C3B 2999  28.216   4.773   4.735 -0.1756 -0.0035 -0.1757
    1DPPC   C4B 3000  27.857   4.672   4.383  0.0652  0.1172  0.0172
    1DPPC   NC3 3001  17.822   6.069   6.488 -0.1294  0.1635  0.0419
    1DPPC   PO4 3002  17.418   6.152   6.566 -0.3633 -0.1621 -0.3346
    1DPPC   GL1 3003  17.434   6.239   6.113  0.1119 -0.2258  0.1725
    1DPPC   GL2 3004  17.392   6.034   5.977  0.2540  0.1688 -0.0949
    1DPPC   C1A 3005  17.408   6.561   5.837  0.0530  0.0800 -0.2061
    1DPPC   C2A 3006  17.426   6.675   5.366  0.2174 -0.1968 -0.0262
    1DPPC   C3A 3007  17.571   6.812   5.010  0.0062  0.0258 -0.0303
    1DPPC   C4A 3008  17.638   6.580   4.606 -0.1826  0.3229 -0.2068
    1DPPC   C1B 3009  17.334   6.143   5.616 -0.1560 -0.2415  0.0597
    1DPPC   C2B 3010  17.413   6.243   5.171  0.2466  0.0540  0.0392
    1DPPC   C3B 3011  17.401   6.162   4.748 -0.0491  0.1070  0.3393
    1DPPC   C4B 3012  17.539   5.736   4.739  0.3145 -0.1584 -0.1363
    1DPPC   NC3 3013  24.376  15.388   7.127  0.4070  0.0331 -0.1514
    1DPPC   PO4 3014  24.065  15.029   7.047 -0.0384 -0.0751  0.2597
    1DPPC   GL1 3015  23.895  14.964   6.608 -0.1120  0.0807 -0.2830
    1DPPC   GL2 3016  24.166  14.700   6.444 -0.0720 -0.3185 -0.0401
    1DPPC   C1A 3017  23.653  14.872   6.137 -0.1845 -0.1243 -0.0753
    1DPPC   C2A 3018  23.461  15.046   5.747  0.1180  0.2614 -0.0526
    1DPPC   C3A 3019  23.257  15.064   5.320 -0.2153  0.2183  0.3090
    1DPPC   C4A 3020  22.990  15.341   5.027 -0.1058  0.0780  0.0712
    1DPPC   C1B 3021  24.162  15.077   6.174  0.1850 -0.0420 -0.0432
    1DPPC   C2B 3022  23.943  15.124   5.705  0.1226 -0.1595 -0.1620
    1DPPC   C3B 3023  23.759  15.080   5.263 -0.1382  0.1998 -0.1078
    1DPPC   C4B 3024  23.900  15.125   4.807 -0.4703 -0.0187 -0.2177
    1DPPC   NC3 3025  29.464  14.524   7.059  0.1975  0.2478  0.1202
    1DPPC   PO4 3026  29.279  14.133   6.902 -0.0122 -0.0375 -0.1557
    1DPPC   GL1 3027  28.941  14.349   6.741  0.2860  0.1276  0.1993
    1DPPC   GL2 3028  28.775  14.132   6.546 -0.0374  0.0536 -0.0457
    1DPPC   C1A 3029  28.758  14.642   6.416 -0.1561  0.2382 -0.0257
    1DPPC   C2A 3030  28.740  14.779   5.970  0.0157  0.0920  0.1306
    1DPPC   C3A 3031  28.916  14.778   5.609  0.2517 -0.0665 -0.0469
    1DPPC   C4A 3032  29.114  14.893   5.350  0.0518  0.1524  0.1764
    1DPPC   C1B 3033  28.648  14.256   6.169 -0.0207 -0.1357  0.2207
    1DPPC   C2B 3034  28.656  14.338   5.688 -0.1338  0.1956  0.0207
    1DPPC   C3B 3035  28.733  14.357   5.259 -0.1507 -0.2688  0.2140
    1DPPC   C4B 3036  28.827  14.467   4.859 -0.3873  0.0955 -0.0522
    1DPPC   NC3 3037  27.530   7.883   7.060 -0.0557  0.0901  0.0909
    1DPPC   PO4 3038  27.590   7.712   6.694 -0.1504 -0.0414  0.0758
    1DPPC   GL1 3039  27.664   7.860   6.230 -0.0155  0.1541 -0.3145
    1DPPC   GL2 3040  27.479   8.082   6.176  0.1375  0.3014 -0.1879
    1DPPC   C1A 3041  27.814   8.017   5.844  0.1950  0.0303  0.4510
    1DPPC   C2A 3042  27.997   7.949   5.466  0.2060 -0.0240 -0.1624
    1DPPC   C3A 3043  27.991   8.031   4.996 -0.1515  0.0518  0.3857
    1DPPC   C4A 3044  27.867   8.056   4.655 -0.0121 -0.0048 -0.0364
    1DPPC   C1B 3045  27.373   8.253   5.810 -0.0836 -0.0713 -0.3304
    1DPPC   C2B 3046  27.507   8.194   5.389  0.1005 -0.0961 -0.1054
    1DPPC   C3B 3047  27.417   8.194   4.931  0.3296 -0.0108 -0.2057
    1DPPC   C4B 3048  27.397   8.218   4.514 -0.1078 -0.1223 -0.2051
    1DPPC   NC3 3049  21.733  14.677   7.935  0.0631  0.2326  0.2673
    1DPPC   PO4 3050  21.834  14.649   7.514  0.2831  0.2062  0.1700
    1DPPC   GL1 3051  21.678  14.806   7.119 -0.1442 -0.0884  0.2422
    1DPPC   GL2 3052  21.747  15.131   7.013  0.0614 -0.3981  0.0708
    1DPPC   C1A 3053  21.721  14.825   6.644  0.0612  0.1468  0.1018
    1DPPC   C2A 3054  21.743  15.014   6.120  0.2344 -0.0501 -0.2451
    1DPPC   C3A 3055  21.670  15.172   5.775  0.3178  0.0095 -0.0310
    1DPPC   C4A 3056  21.742  15.079   5.356  0.2417  0.1417  0.0938
    1DPPC   C1B 3057  21.632  15.337   6.582  0.0061  0.0598  0.0718
    1DPPC   C2B 3058  21.352  15.404   6.182 -0.0937  0.0615  0.2294
    1DPPC   C3B 3059  21.302  15.695   5.846  0.1916  0.0502 -0.0832
    1DPPC   C4B 3060  21.418  15.583   5.400 -0.1078  0.2768 -0.3786
    1DPPC   NC3 3061   0.165   8.672   6.653  0.3179 -0.2555  0.3034
    1DPPC   PO4 3062   0.105   9.011   6.318  0.2027 -0.2506  0.0009
    1DPPC   GL1 3063   0.202   9.387   6.031  0.3663 -0.0336  0.0792
    1DPPC   GL2 3064   0.291   9.131   5.842 -0.0560 -0.1847  0.2768
    1DPPC   C1A 3065   0.354   9.576   5.685  0.1419  0.1284  0.3878
    1DPPC   C2A 3066   0.250   9.768   5.267  0.4186 -0.3836 -0.0580
    1DPPC   C3A 3067  29.616   9.717   4.882 -0.1218  0.1828 -0.0350
    1DPPC   C4A 3068  29.617   9.878   4.437 -0.3441  0.1835 -0.2471
    1DPPC   C1B 3069   0.341   9.197   5.388  0.2705  0.1427 -0.0987
    1DPPC   C2B 3070   0.302   9.279   4.903 -0.1540 -0.1888 -0.0024
    1DPPC   C3B 3071   0.296   9.402   4.467 -0.1575  0.0911  0.1305
    1DPPC   C4B 3072  29.614   9.516   4.100  0.1091 -0.2863  0.1120
    1DPPC   NC3 3073  17.735   7.052   6.720 -0.0216 -0.0534 -0.0326
    1DPPC   PO4 3074  17.580   7.428   6.816  0.2128 -0.2821 -0.3164
    1DPPC   GL1 3075  17.471   7.757   6.561  0.1315 -0.1850 -0.3120
    1DPPC   GL2 3076  17.717   7.799   6.371  0.1002 -0.1034  0.0833
    1DPPC   C1A 3077  17.102   7.796   6.158 -0.0036 -0.3141  0.1076
    1DPPC   C2A 3078  17.101   7.912   5.744  0.0451 -0.0973  0.0621
    1DPPC   C3A 3079  17.006   8.078   5.378  0.4565 -0.0136 -0.0481
    1DPPC   C4A 3080  17.040   8.197   4.922 -0.3323 -0.0264  0.2366
    1DPPC   C1B 3081  17.629   7.857   6.036 -0.0560 -0.2546  0.0102
    1DPPC   C2B 3082  17.625   7.989   5.758  0.0956 -0.0111 -0.0942
    1DPPC   C3B 3083  17.468   8.146   5.415 -0.0343  0.1139  0.2831
    1DPPC   C4B 3084  17.520   8.277   5.148 -0.0051 -0.1238  0.0120
    1DPPC   NC3 3085  22.021   6.940   7.488  0.1705  0.1465 -0.1985
    1DPPC   PO4 3086  22.172   7.039   7.019  0.4120 -0.3093 -0.0833
    1DPPC   GL1 3087  22.019   7.322   6.800 -0.0674 -0.5281  0.1969
    1DPPC   GL2 3088  22.262   7.239   6.599 -0.1269 -0.0466 -0.0704
    1DPPC   C1A 3089  21.720   7.517   6.464  0.2004 -0.2645  0.0894
    1DPPC   C2A 3090  21.647   7.536   6.037  0.3969  0.2122  0.2321
    1DPPC   C3A 3091  21.704   7.441   5.528  0.0501 -0.1030 -0.0799
    1DPPC   C4A 3092  21.765   7.111   5.172  0.4399  0.2616 -0.0291
    1DPPC   C1B 3093  22.440   7.289   6.305 -0.3907 -0.0152 -0.1994
    1DPPC   C2B 3094  22.474   7.307   5.886  0.2272 -0.2703  0.0607
    1DPPC   C3B 3095  22.594   7.425   5.504  0.0317  0.1584  0.0481
    1DPPC   C4B 3096  22.635   7.470   5.069  0.0903 -0.1065 -0.0503
    1DPPC   NC3 3097  21.597   9.852   7.666  0.1307 -0.1238  0.3362
    1DPPC   PO4 3098  21.623   9.913   7.189  0.2318 -0.0153  0.0682
    1DPPC   GL1 3099  21.706   9.855   6.814  0.2783 -0.1677  0.2109
    1DPPC   GL2 3100  21.495   9.702   6.703  0.0440 -0.0162 -0.1070
    1DPPC   C1A 3101  21.909   9.939   6.493 -0.0833  0.1108  0.0922
    1DPPC   C2A 3102  21.910   9.855   6.100  0.0551  0.1108  0.0768
    1DPPC   C3A 3103  21.946   9.866   5.655 -0.1251  0.0406 -0.2669
    1DPPC   C4A 3104  21.941   9.750   5.211  0.1653  0.3212  0.1118
    1DPPC   C1B 3105  21.482   9.681   6.401 -0.0709 -0.3601  0.0554
    1DPPC   C2B 3106  21.517   9.577   5.930 -0.2204 -0.1053 -0.3159
    1DPPC   C3B 3107  21.538   9.501   5.486 -0.0964 -0.0985  0.0416
    1DPPC   C4B 3108  21.610   9.249   5.151 -0.0112 -0.2386 -0.1009
    1DPPC   NC3 3109  28.792   5.207   6.108  0.2982 -0.1219 -0.1169
    1DPPC   PO4 3110  28.785   5.688   6.098  0.1098 -0.0927 -0.2112
    1DPPC   GL1 3111  29.065   5.891   5.736 -0.0483  0.0783 -0.0441
    1DPPC   GL2 3112  29.351   6.153   5.682  0.0006  0.0998 -0.0010
    1DPPC   C1A 3113  29.168   5.910   5.326  0.1582  0.4401 -0.0205
    1DPPC   C2A 3114  29.334   5.905   4.907 -0.2686 -0.1159 -0.0149
    1DPPC   C3A 3115  29.378   5.963   4.494  0.1125  0.2012 -0.0378
    1DPPC   C4A 3116  29.253   6.059   4.055  0.0543 -0.1024 -0.2007
    1DPPC   C1B 3117  29.217   6.351   5.193  0.0277 -0.1071  0.0149
    1DPPC   C2B 3118  29.210   6.377   4.831  0.0581 -0.2403 -0.0531
    1DPPC   C3B 3119  29.068   6.394   4.409 -0.0585 -0.0003 -0.1233
    1DPPC   C4B 3120  29.027   6.451   3.942 -0.0854  0.2939  0.2784
    1DPPC   NC3 3121   0.961  13.367   6.979 -0.0559 -0.1031  0.1472
    1DPPC   PO4 3122   1.118  13.498   6.581  0.3447  0.1785  0.0307
    1DPPC   GL1 3123   0.885  13.466   6.177  0.1434 -0.1284 -0.0145
    1DPPC   GL2 3124   0.866  13.197   6.051  0.0144  0.0387  0.1409
    1DPPC   C1A 3125   0.972  13.820   5.883  0.1534 -0.1137 -0.1780
    1DPPC   C2A 3126   0.940  13.858   5.470  0.3059 -0.1081 -0.3227
    1DPPC   C3A 3127   0.947  14.014   5.060 -0.2548 -0.1871 -0.1929
    1DPPC   C4A 3128   0.665  14.251   4.800 -0.0306  0.0674  0.1210
    1DPPC   C1B 3129   0.925  13.278   5.607  0.0242 -0.2029  0.1047
    1DPPC   C2B 3130   0.853  13.401   5.077  0.2858 -0.1776  0.3036
    1DPPC   C3B 3131   0.708  13.343   4.673  0.0146  0.0386  0.1026
    1DPPC   C4B 3132   0.453  13.044   4.337 -0.1574  0.0047 -0.2111
    1DPPC   NC3 3133  19.607  11.745   6.955 -0.1850  0.0598 -0.0905
    1DPPC   PO4 3134  19.370  11.380   6.860  0.1906 -0.0630 -0.3304
    1DPPC   GL1 3135  19.240  11.406   6.481  0.0461 -0.4736 -0.2199
    1DPPC   GL2 3136  19.358  11.693   6.413 -0.0445 -0.2737 -0.0378
    1DPPC   C1A 3137  19.064  11.468   6.077 -0.1273 -0.0913 -0.0644
    1DPPC   C2A 3138  19.061  11.468   5.578 -0.1188 -0.1098 -0.0841
    1DPPC   C3A 3139  19.007  11.548   5.190  0.0205  0.3299  0.2336
    1DPPC   C4A 3140  18.696  11.798   5.035 -0.1067  0.0924 -0.0991
    1DPPC   C1B 3141  19.432  11.815   6.087  0.1041 -0.0851 -0.1233
    1DPPC   C2B 3142  19.363  11.830   5.688 -0.1549 -0.1791  0.1636
    1DPPC   C3B 3143  19.476  11.659   5.322  0.3265 -0.0938 -0.2550
    1DPPC   C4B 3144  19.772  11.622   5.034  0.0010  0.2136  0.1882
    1DPPC   NC3 3145  29.365  10.543   6.558 -0.2484 -0.0763  0.1969
    1DPPC   PO4 3146  29.071  10.153   6.763  0.0660  0.1010  0.1588
    1DPPC   GL1 3147  28.701  10.219   6.489  0.2818 -0.0128  0.1887
    1DPPC   GL2 3148  28.369  10.273   6.661 -0.0417 -0.2625 -0.2401
    1DPPC   C1A 3149  28.488  10.234   6.165  0.0450 -0.0950 -0.4345
    1DPPC   C2A 3150  28.350  10.276   5.788  0.2165 -0.0382 -0.1375
    1DPPC   C3A 3151  28.129  10.365   5.408 -0.0214  0.2798 -0.0644
    1DPPC   C4A 3152  28.029  10.543   5.008  0.0719  0.2566  0.1961
    1DPPC   C1B 3153  28.451  10.704   6.380  0.4483  0.1346 -0.1784
    1DPPC   C2B 3154  28.542  10.689   5.880 -0.3460  0.2815  0.3302
    1DPPC   C3B 3155  28.500  10.661   5.315  0.1021 -0.0315 -0.1056
    1DPPC   C4B 3156  28.563  10.591   4.843 -0.1860  0.2708 -0.0621
    1DPPC   NC3 3157  28.031  16.702   7.233  0.2320 -0.0793  0.0222
    1DPPC   PO4 3158  27.770  16.895   6.992  0.2177 -0.0898  0.0533
    1DPPC   GL1 3159  27.444  16.977   6.728 -0.2529  0.0507 -0.1774
    1DPPC   GL2 3160  27.407  16.705   6.555 -0.4187 -0.0023  0.1921
    1DPPC   C1A 3161  27.251  17.314   6.473 -0.1474  0.0486 -0.3053
    1DPPC   C2A 3162  27.137  17.516   6.039 -0.4522 -0.3011 -0.1840
    1DPPC   C3A 3163  27.160  17.851   5.851  0.0053 -0.0261  0.0845
    1DPPC   C4A 3164  27.397  17.902   5.441  0.5600  0.0786 -0.1490
    1DPPC   C1B 3165  27.263  16.898   6.127  0.2030 -0.0377 -0.0213
    1DPPC   C2B 3166  27.180  16.849   5.746 -0.0643 -0.3470 -0.0207
    1DPPC   C3B 3167  27.014  16.789   5.320 -0.0468 -0.1578  0.0067
    1DPPC   C4B 3168  26.983  17.044   5.090 -0.1976 -0.0203  0.1643
    1DPPC   NC3 3169  10.608  16.556   6.158  0.1392 -0.1790  0.0804
    1DPPC   PO4 3170  10.587  16.996   6.102 -0.2207  0.0624 -0.0009
    1DPPC   GL1 3171  10.579  16.846   5.752  0.0336 -0.1491 -0.0407
    1DPPC   GL2 3172  10.197  16.946   5.625  0.0523 -0.0323  0.0659
    1DPPC   C1A 3173  10.501  16.683   5.329 -0.1025 -0.0653  0.1684
    1DPPC   C2A 3174  10.151  16.949   5.049 -0.1989  0.2139  0.3410
    1DPPC   C3A 3175  10.119  16.867   4.627 -0.2489  0.3227 -0.0397
    1DPPC   C4A 3176  10.351  16.441   4.349 -0.0539 -0.0030  0.0714
    1DPPC   C1B 3177   9.848  16.696   5.444  0.1113  0.0063  0.2016
    1DPPC   C2B 3178   9.677  16.750   5.058  0.0479 -0.2935  0.0031
    1DPPC   C3B 3179   9.586  16.771   4.657 -0.0351 -0.4100 -0.2117
    1DPPC   C4B 3180   9.381  16.932   4.248  0.1666  0.0025  0.2242
    1DPPC   NC3 3181   7.765  20.012   6.943  0.1066  0.0691  0.2915
    1DPPC   PO4 3182   7.329  20.139   6.972  0.1477 -0.1355 -0.0760
    1DPPC   GL1 3183   7.212  20.407   6.679  0.1333 -0.2703  0.3106
    1DPPC   GL2 3184   7.285  20.738   6.624 -0.0117 -0.1741 -0.1327
    1DPPC   C1A 3185   7.108  20.401   6.200 -0.3017  0.1181 -0.1265
    1DPPC   C2A 3186   7.052  20.124   5.773 -0.1860  0.0197  0.0266
    1DPPC   C3A 3187   7.339  20.330   5.439  0.4391  0.1704 -0.4521
    1DPPC   C4A 3188   7.765  20.182   5.175  0.0975  0.1640 -0.0777
    1DPPC   C1B 3189   7.219  20.871   6.147  0.0724  0.5152 -0.1746
    1DPPC   C2B 3190   7.062  20.848   5.766 -0.2755  0.0260 -0.2258
    1DPPC   C3B 3191   6.978  20.791   5.286 -0.3526  0.3904  0.0057
    1DPPC   C4B 3192   7.060  20.568   4.910 -0.0533 -0.2101  0.1769
    1DPPC   NC3 3193  23.065   6.042   7.435  0.0813 -0.1562 -0.0932
    1DPPC   PO4 3194  23.325   6.319   7.162 -0.2124  0.1834  0.0549
    1DPPC   GL1 3195  23.299   6.173   6.685 -0.0349 -0.0082  0.1951
    1DPPC   GL2 3196  23.000   6.068   6.597 -0.1955 -0.3973 -0.1375
    1DPPC   C1A 3197  23.238   6.362   6.171 -0.0600 -0.1786 -0.2689
    1DPPC   C2A 3198  23.346   6.442   5.772 -0.0613 -0.1926 -0.0308
    1DPPC   C3A 3199  23.213   6.284   5.344 -0.0401  0.2136 -0.1838
    1DPPC   C4A 3200  23.062   6.327   4.917 -0.2957 -0.0477 -0.3092
    1DPPC   C1B 3201  22.976   5.981   6.127  0.0269 -0.0396 -0.3076
    1DPPC   C2B 3202  22.918   5.980   5.672 -0.2908  0.0463 -0.5594
    1DPPC   C3B 3203  22.536   5.772   5.406 -0.0324  0.0274 -0.0215
    1DPPC   C4B 3204  22.344   5.478   5.021  0.1571  0.0127  0.0793
    1DPPC   NC3 3205  18.734   6.966   6.551 -0.1027  0.0413 -0.1303
    1DPPC   PO4 3206  18.316   6.936   6.675  0.0517 -0.0203  0.0928
    1DPPC   GL1 3207  18.307   6.930   6.259 -0.1808 -0.1544 -0.1184
    1DPPC   GL2 3208  18.471   6.597   6.261 -0.0929  0.0630 -0.0415
    1DPPC   C1A 3209  18.220   6.843   5.869 -0.0151 -0.1783 -0.1370
    1DPPC   C2A 3210  18.211   6.981   5.424  0.0878  0.1103  0.0914
    1DPPC   C3A 3211  18.476   7.145   5.190 -0.0338  0.1849  0.0665
    1DPPC   C4A 3212  18.683   7.013   4.791 -0.3915 -0.2426  0.2431
    1DPPC   C1B 3213  18.488   6.389   5.890 -0.0942  0.2481 -0.0991
    1DPPC   C2B 3214  18.523   6.384   5.417  0.0421 -0.0876  0.1376
    1DPPC   C3B 3215  18.536   6.408   4.951 -0.0429  0.1547 -0.2091
    1DPPC   C4B 3216  18.327   6.573   4.573  0.2149 -0.4844  0.0358
    1DPPC   NC3 3217  18.324  10.478   7.616 -0.1319  0.0263  0.3729
    1DPPC   PO4 3218  18.238  10.519   7.224 -0.0744  0.3936 -0.2063
    1DPPC   GL1 3219  18.149  10.492   6.732  0.1589  0.6113  0.2651
    1DPPC   GL2 3220  17.827  10.339   6.614 -0.2027  0.1860  0.0617
    1DPPC   C1A 3221  18.233  10.402   6.357  0.0952 -0.0703  0.1163
    1DPPC   C2A 3222  18.198  10.515   5.858 -0.0078 -0.1849  0.4428
    1DPPC   C3A 3223  18.321  10.648   5.519  0.3350  0.3511  0.0899
    1DPPC   C4A 3224  18.670  10.630   5.180 -0.0635  0.0882  0.1867
    1DPPC   C1B 3225  17.814  10.012   6.240 -0.2263  0.0695  0.1952
    1DPPC   C2B 3226  17.958  10.061   5.791 -0.3721 -0.1845  0.0520
    1DPPC   C3B 3227  18.029  10.179   5.470  0.0975 -0.1946  0.0575
    1DPPC   C4B 3228  17.863  10.540   5.299 -0.3726 -0.0915 -0.1530
    1DPPC   NC3 3229  20.271  12.685   7.505  0.1206 -0.4200 -0.1386
    1DPPC   PO4 3230  20.004  12.571   7.345 -0.1710 -0.0943  0.0574
    1DPPC   GL1 3231  20.063  12.523   6.857  0.0184 -0.2078  0.2049
    1DPPC   GL2 3232  20.059  12.215   6.706 -0.1638  0.2367  0.3021
    1DPPC   C1A 3233  20.187  12.710   6.506 -0.3137  0.1219  0.1603
    1DPPC   C2A 3234  20.325  12.845   6.241 -0.0651  0.1617 -0.0115
    1DPPC   C3A 3235  20.357  12.770   5.852  0.3203  0.0631  0.0625
    1DPPC   C4A 3236  20.266  12.733   5.389 -0.0563  0.1540  0.1018
    1DPPC   C1B 3237  20.177  12.228   6.314  0.2255 -0.1150 -0.1027
    1DPPC   C2B 3238  20.209  12.290   5.829 -0.0124 -0.1511  0.0520
    1DPPC   C3B 3239  20.299  12.183   5.401  0.0811 -0.1875  0.3056
    1DPPC   C4B 3240  20.348  12.192   5.003  0.0945  0.3414  0.5007
    1DPPC   NC3 3241  17.983  11.928   7.658  0.0326 -0.1057  0.2167
    1DPPC   PO4 3242  18.082  11.624   7.245 -0.1053  0.2686 -0.2382
    1DPPC   GL1 3243  18.059  11.851   6.858 -0.1733  0.3121  0.0131
    1DPPC   GL2 3244  18.230  11.655   6.641  0.0037  0.1026 -0.0595
    1DPPC   C1A 3245  17.751  11.814   6.441 -0.3733  0.1262 -0.1469
    1DPPC   C2A 3246  17.652  11.658   5.947 -0.2730 -0.2950  0.1463
    1DPPC   C3A 3247  17.738  11.754   5.469  0.0848  0.3786 -0.0325
    1DPPC   C4A 3248  17.697  11.706   5.132  0.1833  0.3026  0.1237
    1DPPC   C1B 3249  18.288  11.820   6.372  0.2098  0.0612  0.1568
    1DPPC   C2B 3250  18.153  11.734   5.993 -0.1379  0.2492  0.0439
    1DPPC   C3B 3251  18.227  11.776   5.597 -0.2543 -0.3378  0.0464
    1DPPC   C4B 3252  18.217  11.725   5.144  0.0395  0.1783  0.0430
    1DPPC   NC3 3253  14.491  13.339   6.574 -0.2159 -0.1723 -0.1895
    1DPPC   PO4 3254  14.475  12.853   6.617 -0.2368  0.2547  0.0673
    1DPPC   GL1 3255  14.708  12.869   6.265 -0.0818  0.2011 -0.2817
    1DPPC   GL2 3256  14.461  12.797   6.045 -0.1098  0.1433 -0.1881
    1DPPC   C1A 3257  14.927  12.789   5.832 -0.1295  0.0607  0.0648
    1DPPC   C2A 3258  15.072  13.015   5.417 -0.0306  0.0868 -0.2671
    1DPPC   C3A 3259  15.330  13.170   5.055  0.0272  0.1828 -0.1140
    1DPPC   C4A 3260  15.555  13.085   4.740  0.0042  0.0699 -0.2081
    1DPPC   C1B 3261  14.457  12.455   5.920 -0.0120  0.2263 -0.2463
    1DPPC   C2B 3262  14.083  12.248   5.622 -0.1801 -0.1098  0.1566
    1DPPC   C3B 3263  14.191  11.809   5.412 -0.3381 -0.1438 -0.1666
    1DPPC   C4B 3264  14.254  11.759   5.114 -0.2983 -0.0570  0.1152
    1DPPC   NC3 3265  27.638   3.563   6.289  0.0422  0.0414 -0.0622
    1DPPC   PO4 3266  28.120   3.638   6.192 -0.1720 -0.0375 -0.1044
    1DPPC   GL1 3267  28.067   3.567   5.828  0.4616  0.1097  0.1540
    1DPPC   GL2 3268  27.884   3.331   5.849 -0.0888 -0.0306 -0.0145
    1DPPC   C1A 3269  28.196   3.649   5.391  0.1151 -0.1303  0.2411
    1DPPC   C2A 3270  28.104   3.835   4.987  0.1472  0.0157  0.2005
    1DPPC   C3A 3271  27.702   3.766   4.666  0.0036  0.0585  0.1501
    1DPPC   C4A 3272  27.625   3.604   4.261 -0.0765  0.0365 -0.1787
    1DPPC   C1B 3273  27.673   2.983   5.637 -0.0121  0.1722  0.4871
    1DPPC   C2B 3274  27.693   2.858   5.278  0.1404  0.1732  0.0484
    1DPPC   C3B 3275  27.881   2.588   4.910  0.1889 -0.0923 -0.0468
    1DPPC   C4B 3276  28.115   2.468   4.471  0.0882 -0.0372 -0.1078
    1DPPC   NC3 3277  16.303  10.199   6.907  0.2129  0.0689  0.1773
    1DPPC   PO4 3278  16.199   9.850   6.944 -0.0585  0.1429  0.0945
    1DPPC   GL1 3279  15.862   9.726   6.676  0.4050 -0.3896  0.5648
    1DPPC   GL2 3280  16.056   9.604   6.338 -0.1789 -0.0236  0.1121
    1DPPC   C1A 3281  15.562   9.694   6.291  0.0159 -0.1751 -0.0009
    1DPPC   C2A 3282  15.553   9.659   5.810  0.1923  0.1621  0.1854
    1DPPC   C3A 3283  15.541   9.782   5.422 -0.2753  0.0241  0.0736
    1DPPC   C4A 3284  15.380   9.852   5.008  0.1644  0.3021 -0.1416
    1DPPC   C1B 3285  15.994   9.926   5.971 -0.1175  0.1787  0.0139
    1DPPC   C2B 3286  16.053   9.850   5.561 -0.1437  0.1809  0.0946
    1DPPC   C3B 3287  15.971   9.800   5.125  0.1115  0.2504 -0.1276
    1DPPC   C4B 3288  16.273   9.645   4.814  0.1328 -0.0766 -0.2177
    1DPPC   NC3 3289   1.878  12.514   6.336 -0.0900 -0.3665 -0.0300
    1DPPC   PO4 3290   2.187  12.741   6.243 -0.0693  0.2447 -0.0128
    1DPPC   GL1 3291   1.976  12.662   5.808 -0.0768 -0.0247 -0.1868
    1DPPC   GL2 3292   1.747  12.564   5.813  0.0417  0.1605 -0.0171
    1DPPC   C1A 3293   2.185  12.725   5.354  0.2777 -0.0429 -0.2513
    1DPPC   C2A 3294   2.351  12.843   4.958 -0.2254 -0.2486 -0.1270
    1DPPC   C3A 3295   2.351  12.796   4.433 -0.1636 -0.1178 -0.0142
    1DPPC   C4A 3296   2.230  12.474   4.084 -0.1965 -0.0382 -0.2476
    1DPPC   C1B 3297   1.628  12.767   5.400 -0.2266  0.1715 -0.0618
    1DPPC   C2B 3298   1.583  12.801   5.003  0.0575  0.1213 -0.0582
    1DPPC   C3B 3299   1.612  12.938   4.591 -0.0652 -0.0165 -0.0942
    1DPPC   C4B 3300   1.892  12.907   4.273 -0.2492  0.0924  0.1301
    1DPPC   NC3 3301  20.590  14.295   7.422  0.3505 -0.2918 -0.0835
    1DPPC   PO4 3302  21.043  14.258   7.520  0.1330  0.3935 -0.1879
    1DPPC   GL1 3303  21.018  14.394   7.115 -0.0145  0.0764  0.2078
    1DPPC   GL2 3304  20.676  14.190   6.931  0.0199 -0.2519  0.1613
    1DPPC   C1A 3305  20.941  14.604   6.692 -0.1303 -0.2704 -0.1771
    1DPPC   C2A 3306  20.841  14.719   6.262 -0.0167  0.0338  0.0713
    1DPPC   C3A 3307  20.655  14.922   5.906 -0.3861 -0.3659  0.0884
    1DPPC   C4A 3308  20.679  14.912   5.517 -0.0636  0.0926 -0.1084
    1DPPC   C1B 3309  20.711  14.256   6.506  0.0190 -0.0167  0.3188
    1DPPC   C2B 3310  20.583  14.293   6.041  0.1053 -0.1516  0.1658
    1DPPC   C3B 3311  20.430  14.453   5.697 -0.2604  0.1497 -0.0505
    1DPPC   C4B 3312  20.409  14.434   5.302 -0.4149 -0.0044  0.2295
    1DPPC   NC3 3313  28.398   7.457   6.276  0.0867 -0.2447  0.1856
    1DPPC   PO4 3314  28.700   7.110   6.176  0.1176  0.1276  0.0310
    1DPPC   GL1 3315  28.404   7.129   5.824 -0.2824 -0.0769  0.4145
    1DPPC   GL2 3316  28.151   6.950   5.756 -0.0580 -0.1291 -0.0194
    1DPPC   C1A 3317  28.239   7.351   5.541  0.4654  0.0959  0.0961
    1DPPC   C2A 3318  28.165   7.427   5.210  0.2656 -0.1887  0.0912
    1DPPC   C3A 3319  28.037   7.568   4.788  0.2024  0.0281 -0.1894
    1DPPC   C4A 3320  27.769   7.654   4.449  0.2874 -0.1801  0.0029
    1DPPC   C1B 3321  27.875   6.880   5.469  0.3314 -0.2289  0.0527
    1DPPC   C2B 3322  27.809   7.029   5.054  0.0830  0.2075 -0.1992
    1DPPC   C3B 3323  27.723   7.175   4.626  0.1862 -0.0219  0.0255
    1DPPC   C4B 3324  27.671   7.227   4.215  0.0370 -0.1318 -0.0510
    1DPPC   NC3 3325  17.757  20.051   6.736 -0.0914  0.1619  0.3667
    1DPPC   PO4 3326  18.102  20.141   6.898  0.1260  0.1863 -0.0173
    1DPPC   GL1 3327  18.043  20.322   6.391 -0.1369  0.2403  0.1039
    1DPPC   GL2 3328  17.778  20.316   6.259  0.1620  0.3162 -0.3317
    1DPPC   C1A 3329  18.164  20.439   5.970 -0.2733 -0.1767 -0.0121
    1DPPC   C2A 3330  18.241  20.472   5.598  0.1077  0.1256 -0.1954
    1DPPC   C3A 3331  18.241  20.557   5.275  0.1609 -0.0904  0.4373
    1DPPC   C4A 3332  18.365  20.863   4.893 -0.2834 -0.0731 -0.2603
    1DPPC   C1B 3333  17.704  20.322   5.779 -0.3476 -0.0858 -0.0754
    1DPPC   C2B 3334  17.637  20.383   5.363 -0.4133  0.2978 -0.3215
    1DPPC   C3B 3335  17.480  20.642   5.175  0.0614  0.0409 -0.1821
    1DPPC   C4B 3336  17.152  20.863   5.147  0.4896 -0.1642  0.2401
    1DPPC   NC3 3337  17.973  11.240   6.907  0.0258  0.0065 -0.2238
    1DPPC   PO4 3338  18.400  11.244   6.937  0.1510 -0.1184 -0.2938
    1DPPC   GL1 3339  18.357  11.150   6.527 -0.2846 -0.1107  0.3233
    1DPPC   GL2 3340  18.406  10.881   6.428  0.0902  0.1742 -0.1222
    1DPPC   C1A 3341  18.621  11.348   6.232 -0.0295  0.2493  0.0367
    1DPPC   C2A 3342  18.608  11.537   5.800  0.1677 -0.1125  0.0794
    1DPPC   C3A 3343  18.591  11.503   5.415 -0.0438 -0.0803  0.1151
    1DPPC   C4A 3344  18.495  11.302   4.927 -0.0945 -0.1176 -0.0304
    1DPPC   C1B 3345  18.414  10.935   6.067  0.1629 -0.0883  0.0104
    1DPPC   C2B 3346  18.691  11.061   5.737  0.0335  0.3059 -0.2659
    1DPPC   C3B 3347  18.846  11.013   5.437 -0.0213 -0.0925 -0.1663
    1DPPC   C4B 3348  18.969  11.092   5.001 -0.0237 -0.1481 -0.0933
    1DPPC   NC3 3349   1.756   7.893   5.906  0.0229  0.1741  0.0195
    1DPPC   PO4 3350   1.650   7.831   5.481 -0.1487 -0.0082 -0.0409
    1DPPC   GL1 3351   1.695   8.058   5.098 -0.0582  0.2096  0.3368
    1DPPC   GL2 3352   1.385   8.283   5.037 -0.0339 -0.1751  0.0526
    1DPPC   C1A 3353   1.964   7.966   4.783  0.3048  0.1446  0.1397
    1DPPC   C2A 3354   2.007   7.677   4.439 -0.2534 -0.1646 -0.0956
    1DPPC   C3A 3355   1.945   7.512   4.015  0.1037 -0.1150  0.0440
    1DPPC   C4A 3356   1.819   7.571   3.522 -0.1111  0.2963 -0.0608
    1DPPC   C1B 3357   1.376   8.454   4.679 -0.2688 -0.1706  0.0844
    1DPPC   C2B 3358   1.291   8.356   4.213  0.2468 -0.0071 -0.1813
    1DPPC   C3B 3359   1.184   8.698   3.941 -0.0899 -0.2391  0.1449
    1DPPC   C4B 3360   1.339   8.965   3.590  0.2405  0.0766 -0.2644
    1DPPC   NC3 3361  24.738  16.627   7.410 -0.0585  0.1272 -0.0754
    1DPPC   PO4 3362  25.063  16.566   7.098 -0.0783  0.4380 -0.0341
    1DPPC   GL1 3363  25.173  16.358   6.761  0.1453  0.2703 -0.2307
    1DPPC   GL2 3364  25.137  16.685   6.617  0.0574  0.0636  0.3535
    1DPPC   C1A 3365  25.101  16.224   6.220  0.1364 -0.1784 -0.0217
    1DPPC   C2A 3366  25.302  16.497   5.937  0.2553 -0.1283 -0.0328
    1DPPC   C3A 3367  25.230  16.910   5.750 -0.1739 -0.0430 -0.0074
    1DPPC   C4A 3368  25.211  17.110   5.349 -0.1183 -0.1733  0.3015
    1DPPC   C1B 3369  24.981  16.821   6.187 -0.1540  0.1726  0.0903
    1DPPC   C2B 3370  24.849  17.248   5.899  0.2036  0.1087  0.0790
    1DPPC   C3B 3371  24.763  17.333   5.485 -0.2426 -0.0161 -0.1319
    1DPPC   C4B 3372  24.573  17.640   5.126  0.1289  0.2176 -0.0934
    1DPPC   NC3 3373  27.221  14.401   7.484 -0.3348  0.1345 -0.1106
    1DPPC   PO4 3374  27.125  14.377   7.103 -0.1120  0.2791 -0.2588
    1DPPC   GL1 3375  27.248  14.010   6.784 -0.0506  0.1315  0.3087
    1DPPC   GL2 3376  27.357  13.643   6.891  0.3056  0.2789 -0.0491
    1DPPC   C1A 3377  27.332  13.853   6.423  0.4567 -0.2112  0.0834
    1DPPC   C2A 3378  27.257  13.856   6.042 -0.0356  0.1082  0.2323
    1DPPC   C3A 3379  27.242  13.846   5.582  0.1103  0.2753 -0.1477
    1DPPC   C4A 3380  27.290  13.880   5.253  0.0845 -0.1688 -0.0220
    1DPPC   C1B 3381  27.469  13.370   6.555  0.1227  0.0966  0.1892
    1DPPC   C2B 3382  27.311  13.402   6.226  0.0404  0.1806 -0.0501
    1DPPC   C3B 3383  27.345  13.345   5.856  0.3425 -0.0198  0.2240
    1DPPC   C4B 3384  27.261  13.368   5.379  0.1892 -0.2185 -0.1015
    1DPPC   NC3 3385   1.034   5.124   6.145  0.1647 -0.1358 -0.2612
    1DPPC   PO4 3386   0.724   5.190   5.985  0.3430 -0.0507 -0.0421
    1DPPC   GL1 3387   0.382   5.326   5.664  0.1343 -0.0663 -0.1250
    1DPPC   GL2 3388   0.412   5.626   5.679 -0.1792  0.2139  0.1131
    1DPPC   C1A 3389   0.157   5.199   5.313 -0.1342  0.0487  0.1237
    1DPPC   C2A 3390   0.121   5.130   4.925 -0.1973  0.4846  0.1168
    1DPPC   C3A 3391   0.070   5.168   4.477  0.0357 -0.0077  0.2052
    1DPPC   C4A 3392   0.212   5.305   4.063  0.1091 -0.0638  0.1008
    1DPPC   C1B 3393   0.664   5.866   5.476 -0.0150  0.1228  0.2101
    1DPPC   C2B 3394   0.673   6.099   5.053  0.2938  0.0487 -0.0284
    1DPPC   C3B 3395   0.726   6.089   4.573 -0.1126  0.2744 -0.3196
    1DPPC   C4B 3396   0.792   5.810   4.239  0.0717  0.1008 -0.0904
    1DPPC   NC3 3397   0.490  13.262   6.941 -0.2191  0.0884 -0.2955
    1DPPC   PO4 3398   0.094  13.383   7.037  0.2648 -0.1583 -0.0795
    1DPPC   GL1 3399  29.550  13.524   6.638  0.0257 -0.1685  0.0573
    1DPPC   GL2 3400  29.400  13.273   6.462  0.0118 -0.3313 -0.2051
    1DPPC   C1A 3401   0.155  13.645   6.204 -0.1453  0.0424  0.2480
    1DPPC   C2A 3402   0.040  13.623   5.688 -0.1608 -0.3369 -0.2849
    1DPPC   C3A 3403   0.022  13.611   5.265  0.2161  0.1190 -0.2590
    1DPPC   C4A 3404  29.564  13.700   4.957 -0.1243 -0.1453  0.3440
    1DPPC   C1B 3405  29.397  13.383   6.033  0.0558 -0.0489 -0.1291
    1DPPC   C2B 3406  29.313  13.258   5.626  0.1819  0.0736 -0.1731
    1DPPC   C3B 3407  29.376  13.202   5.285  0.0207 -0.1795 -0.0144
    1DPPC   C4B 3408  29.392  13.219   4.854  0.0631 -0.1449  0.0192
    1DPPC   NC3 3409  18.608  14.893   7.417 -0.1741  0.0738  0.0905
    1DPPC   PO4 3410  18.218  15.142   7.462 -0.2570 -0.0325  0.0606
    1DPPC   GL1 3411  18.323  15.128   7.047  0.0330 -0.0224 -0.0205
    1DPPC   GL2 3412  18.290  15.422   6.915 -0.0622 -0.2668  0.2923
    1DPPC   C1A 3413  17.958  14.966   6.712  0.3052 -0.1599 -0.0179
    1DPPC   C2A 3414  17.990  14.906   6.258  0.2667  0.3616  0.5075
    1DPPC   C3A 3415  18.051  14.896   5.908  0.3453  0.2838  0.3655
    1DPPC   C4A 3416  17.902  14.621   5.675 -0.0307  0.1876 -0.2828
    1DPPC   C1B 3417  18.333  15.270   6.545 -0.0692 -0.2316  0.0399
    1DPPC   C2B 3418  18.399  15.245   6.122 -0.0987 -0.0080  0.1300
    1DPPC   C3B 3419  18.427  15.162   5.674 -0.0093  0.3826  0.2151
    1DPPC   C4B 3420  18.146  14.965   5.405 -0.2034  0.2738  0.4367
    1DPPC   NC3 3421   0.566   8.556   5.938 -0.3021  0.0272  0.0909
    1DPPC   PO4 3422   0.200   8.112   5.908  0.0601 -0.0668 -0.0687
    1DPPC   GL1 3423   0.052   8.386   5.518 -0.0015  0.0618 -0.1378
    1DPPC   GL2 3424   0.218   8.674   5.487  0.1256  0.0738 -0.1566
    1DPPC   C1A 3425  29.539   8.294   5.018  0.0662  0.1055  0.1347
    1DPPC   C2A 3426  29.400   8.422   4.727  0.0686  0.1575  0.0937
    1DPPC   C3A 3427  29.565   8.361   4.374 -0.0699  0.0294 -0.1176
    1DPPC   C4A 3428   0.114   8.077   4.069 -0.0873  0.1687 -0.0565
    1DPPC   C1B 3429   0.001   8.874   5.198 -0.0463  0.0616 -0.2718
    1DPPC   C2B 3430  29.567   8.868   4.815  0.2021 -0.3627  0.1573
    1DPPC   C3B 3431   0.097   8.858   4.481  0.0062  0.0478 -0.0113
    1DPPC   C4B 3432   0.254   9.062   4.065  0.3946  0.1295 -0.1575
    1DPPC   NC3 3433  16.248  12.089   7.214  0.1025  0.0431 -0.0633
    1DPPC   PO4 3434  16.214  11.824   6.833  0.2512  0.0687 -0.0783
    1DPPC   GL1 3435  16.051  11.583   6.573  0.1684  0.1212 -0.1626
    1DPPC   GL2 3436  15.754  11.597   6.404  0.2994 -0.1994 -0.1032
    1DPPC   C1A 3437  16.048  11.782   6.101  0.0027 -0.0187 -0.2124
    1DPPC   C2A 3438  16.228  11.784   5.607  0.3056  0.2721  0.0726
    1DPPC   C3A 3439  16.232  11.594   5.208 -0.0922  0.0878  0.0403
    1DPPC   C4A 3440  16.389  11.242   4.916  0.2670  0.1001 -0.2302
    1DPPC   C1B 3441  15.695  11.212   6.037  0.2206  0.2748 -0.3163
    1DPPC   C2B 3442  15.967  11.261   5.616  0.0420  0.1370  0.2544
    1DPPC   C3B 3443  16.028  11.134   5.215  0.1977  0.0044 -0.1228
    1DPPC   C4B 3444  15.865  11.069   4.822 -0.1883  0.2830  0.2942
    1DPPC   NC3 3445  24.199  10.703   7.443 -0.0429  0.1434  0.0644
    1DPPC   PO4 3446  24.377  10.343   7.235  0.0541  0.0554  0.2367
    1DPPC   GL1 3447  24.689  10.163   6.802 -0.0942 -0.2263  0.3004
    1DPPC   GL2 3448  24.646   9.786   6.806  0.0276  0.4050 -0.0848
    1DPPC   C1A 3449  24.865  10.236   6.340  0.1226 -0.1112 -0.0462
    1DPPC   C2A 3450  24.796  10.106   5.923 -0.0463  0.0605 -0.1257
    1DPPC   C3A 3451  25.078   9.980   5.520  0.0685  0.0125 -0.0342
    1DPPC   C4A 3452  25.062   9.820   5.080  0.1401  0.0407  0.0831
    1DPPC   C1B 3453  24.682   9.785   6.423 -0.0246  0.3773  0.0434
    1DPPC   C2B 3454  24.772   9.554   6.100  0.2313  0.1024  0.1695
    1DPPC   C3B 3455  24.792   9.494   5.727 -0.0014 -0.1681  0.3333
    1DPPC   C4B 3456  25.100   9.470   5.424  0.2445 -0.2559  0.2468
    1DPPC   NC3 3457  15.904  16.660   7.285 -0.0496 -0.0324 -0.1835
    1DPPC   PO4 3458  16.213  16.349   7.107  0.0024  0.0857  0.2396
    1DPPC   GL1 3459  16.257  16.266   6.735 -0.1480  0.1059  0.4264
    1DPPC   GL2 3460  16.489  16.520   6.557 -0.2541  0.0997 -0.0884
    1DPPC   C1A 3461  16.540  15.971   6.481 -0.0425 -0.1706  0.2163
    1DPPC   C2A 3462  16.744  16.056   6.079 -0.0357 -0.1349 -0.0237
    1DPPC   C3A 3463  17.028  15.777   5.858 -0.0185 -0.1010 -0.0808
    1DPPC   C4A 3464  17.071  15.567   5.463  0.1780 -0.0858 -0.0858
    1DPPC   C1B 3465  16.878  16.249   6.617 -0.0044 -0.1021 -0.2180
    1DPPC   C2B 3466  17.178  16.144   6.392 -0.0033  0.2409 -0.1381
    1DPPC   C3B 3467  17.312  16.200   6.039 -0.0350  0.1606  0.1462
    1DPPC   C4B 3468  17.446  16.120   5.674 -0.2512 -0.0748 -0.2589
    1DPPC   NC3 3469  19.949  12.085   7.170  0.0168  0.0099  0.1809
    1DPPC   PO4 3470  20.220  11.637   6.980  0.1637  0.1733  0.0975
    1DPPC   GL1 3471  20.468  11.631   6.613  0.1289  0.2202  0.2667
    1DPPC   GL2 3472  20.472  11.457   6.280 -0.1584 -0.0906 -0.2725
    1DPPC   C1A 3473  20.621  11.928   6.364 -0.0660 -0.1315 -0.0582
    1DPPC   C2A 3474  20.598  11.996   5.946 -0.1550  0.0397 -0.3174
    1DPPC   C3A 3475  20.742  11.951   5.495 -0.0714 -0.0850  0.0936
    1DPPC   C4A 3476  20.742  11.914   5.099  0.0572 -0.0959  0.0840
    1DPPC   C1B 3477  20.535  11.490   5.962 -0.0460  0.0021  0.1749
    1DPPC   C2B 3478  20.613  11.471   5.535 -0.0596  0.2154  0.0393
    1DPPC   C3B 3479  20.716  11.362   5.228  0.0272 -0.0884 -0.1815
    1DPPC   C4B 3480  20.952  11.247   4.938  0.0445  0.2519  0.0808
    1DPPC   NC3 3481  23.978  13.275   6.966 -0.0680  0.1843  0.1138
    1DPPC   PO4 3482  24.478  13.430   6.781  0.0615  0.0429  0.4523
    1DPPC   GL1 3483  24.395  13.121   6.505  0.0878 -0.0998  0.1639
    1DPPC   GL2 3484  24.067  13.157   6.437  0.0636 -0.3020  0.0674
    1DPPC   C1A 3485  24.510  13.118   5.932 -0.0942 -0.0077  0.0251
    1DPPC   C2A 3486  24.442  13.221   5.521  0.2319  0.0487 -0.2240
    1DPPC   C3A 3487  24.520  13.545   5.190 -0.1166 -0.1085  0.1146
    1DPPC   C4A 3488  24.596  13.861   4.863  0.0184  0.0724 -0.2986
    1DPPC   C1B 3489  23.832  12.967   6.081 -0.0406 -0.1396 -0.0240
    1DPPC   C2B 3490  23.852  13.024   5.638  0.4049  0.1750 -0.2383
    1DPPC   C3B 3491  23.890  13.205   5.285 -0.3275 -0.1221 -0.1292
    1DPPC   C4B 3492  24.049  13.112   4.967 -0.1334 -0.1639 -0.2109
    1DPPC   NC3 3493  23.387  15.575   7.958 -0.2558  0.0454 -0.1128
    1DPPC   PO4 3494  22.966  15.777   7.680 -0.2906 -0.1326  0.0795
    1DPPC   GL1 3495  22.779  15.888   7.187  0.1221  0.0712 -0.0574
    1DPPC   GL2 3496  22.776  16.271   7.148 -0.0255 -0.3794  0.0650
    1DPPC   C1A 3497  22.413  15.952   6.945 -0.0877  0.0254  0.0067
    1DPPC   C2A 3498  22.341  15.970   6.500 -0.1800 -0.1938 -0.0636
    1DPPC   C3A 3499  22.245  15.969   6.068 -0.2522  0.2325  0.2158
    1DPPC   C4A 3500  22.243  15.835   5.659 -0.0065 -0.1561 -0.2535
    1DPPC   C1B 3501  22.900  16.031   6.724  0.0771  0.3424 -0.1960
    1DPPC   C2B 3502  22.806  15.907   6.298 -0.0688 -0.1492  0.1884
    1DPPC   C3B 3503  22.735  15.951   5.819  0.2271  0.2021 -0.0465
    1DPPC   C4B 3504  22.513  16.176   5.443  0.1563 -0.2716 -0.4096
    1DPPC   NC3 3505  28.252  15.138   7.702 -0.2437  0.0034  0.0940
    1DPPC   PO4 3506  28.245  15.286   7.365  0.0404 -0.0990 -0.2650
    1DPPC   GL1 3507  28.476  15.217   6.965  0.1099 -0.1820  0.2175
    1DPPC   GL2 3508  28.525  14.884   6.784 -0.3376  0.1309 -0.0919
    1DPPC   C1A 3509  28.586  15.304   6.537 -0.0575  0.1873 -0.1990
    1DPPC   C2A 3510  28.638  15.208   6.164 -0.1234  0.2040  0.0798
    1DPPC   C3A 3511  28.666  15.276   5.753 -0.0512  0.3040 -0.1561
    1DPPC   C4A 3512  28.836  15.334   5.340  0.2199  0.2836 -0.2623
    1DPPC   C1B 3513  28.159  15.001   6.520 -0.1878  0.3479 -0.1985
    1DPPC   C2B 3514  28.179  15.096   6.030  0.1438  0.1004 -0.2454
    1DPPC   C3B 3515  28.238  14.997   5.641  0.0027 -0.1864 -0.0150
    1DPPC   C4B 3516  28.398  14.730   5.385  0.4070 -0.0423 -0.0801
    1DPPC   NC3 3517  21.808   3.994   7.600 -0.0502  0.2859 -0.0309
    1DPPC   PO4 3518  21.756   4.380   7.380 -0.1225 -0.0366  0.2801
    1DPPC   GL1 3519  21.909   4.445   6.966 -0.1399 -0.0121  0.0658
    1DPPC   GL2 3520  21.810   4.782   7.026  0.0739 -0.1137 -0.0075
    1DPPC   C1A 3521  22.055   4.397   6.569 -0.2029 -0.1187  0.0731
    1DPPC   C2A 3522  21.955   4.447   6.120  0.1011  0.2168  0.2677
    1DPPC   C3A 3523  21.921   4.653   5.751  0.1547 -0.0647  0.0247
    1DPPC   C4A 3524  22.317   4.704   5.462  0.0270  0.1472  0.1610
    1DPPC   C1B 3525  22.040   4.872   6.691 -0.1174 -0.3204 -0.2354
    1DPPC   C2B 3526  22.172   5.120   6.363 -0.0312 -0.2661  0.1295
    1DPPC   C3B 3527  22.111   5.114   5.955  0.4115 -0.0613  0.0545
    1DPPC   C4B 3528  22.070   5.203   5.448 -0.1262  0.0010 -0.1209
    1DPPC   NC3 3529   0.375  11.673   6.935 -0.1478  0.1881  0.4292
    1DPPC   PO4 3530   0.272  12.016   6.932 -0.0594  0.2945 -0.1294
    1DPPC   GL1 3531   0.141  11.898   6.510 -0.0138 -0.2334 -0.0792
    1DPPC   GL2 3532   0.275  11.678   6.444 -0.1770  0.5664 -0.1168
    1DPPC   C1A 3533   0.023  12.190   6.210  0.1091 -0.1295  0.2179
    1DPPC   C2A 3534  29.595  12.207   5.784  0.2950  0.0588  0.1000
    1DPPC   C3A 3535  29.483  12.154   5.453 -0.0806  0.2531  0.1937
    1DPPC   C4A 3536  29.338  12.204   5.017  0.1560  0.2007 -0.2279
    1DPPC   C1B 3537   0.047  11.706   6.048  0.1701 -0.2490  0.0748
    1DPPC   C2B 3538  29.607  11.678   5.662  0.1918 -0.1046  0.1444
    1DPPC   C3B 3539  29.496  11.707   5.251 -0.1827  0.3253 -0.1507
    1DPPC   C4B 3540  29.285  11.599   4.819  0.0451  0.1208  0.1670
    1DPPC   NC3 3541  23.448  10.739   7.843  0.1380  0.2205 -0.1181
    1DPPC   PO4 3542  23.600  10.739   7.358 -0.0221  0.2208  0.2743
    1DPPC   GL1 3543  23.907  10.729   6.986  0.1309 -0.0942  0.1034
    1DPPC   GL2 3544  24.229  10.695   6.941  0.0223 -0.0116 -0.0155
    1DPPC   C1A 3545  23.813  10.440   6.679 -0.0656  0.2057 -0.2162
    1DPPC   C2A 3546  23.682  10.443   6.263  0.1893  0.0927  0.3673
    1DPPC   C3A 3547  23.719  10.412   5.791 -0.2445 -0.2054 -0.2041
    1DPPC   C4A 3548  23.795  10.494   5.354 -0.0039 -0.1652  0.2753
    1DPPC   C1B 3549  24.095  10.782   6.493 -0.2035  0.0969 -0.1044
    1DPPC   C2B 3550  24.024  10.702   6.042  0.2546  0.2554  0.0375
    1DPPC   C3B 3551  24.199  10.688   5.571  0.1521 -0.0911 -0.0469
    1DPPC   C4B 3552  24.306  10.903   5.161 -0.0486  0.1066 -0.4264
    1DPPC   NC3 3553   5.377  25.853   6.820  0.1158 -0.0533  0.0487
    1DPPC   PO4 3554   4.953  25.604   6.860 -0.1831 -0.0904  0.2152
    1DPPC   GL1 3555   4.712  25.749   6.497 -0.2799  0.1063  0.1530
    1DPPC   GL2 3556   4.732  26.074   6.371  0.1417  0.0078  0.3220
    1DPPC   C1A 3557   4.793  25.596   6.103  0.0848  0.0602  0.0930
    1DPPC   C2A 3558   5.004  25.352   5.856 -0.1172 -0.0661  0.2970
    1DPPC   C3A 3559   5.176  25.322   5.416  0.0211 -0.0032  0.1906
    1DPPC   C4A 3560   5.238  25.339   5.059  0.0334  0.3247 -0.3143
    1DPPC   C1B 3561   4.880  26.213   5.982  0.4229 -0.0217 -0.1889
    1DPPC   C2B 3562   4.929  26.587   5.736  0.0064 -0.0291  0.1625
    1DPPC   C3B 3563   4.800  26.814   5.286 -0.0851 -0.3632  0.0336
    1DPPC   C4B 3564   4.750  26.888   4.833  0.2895  0.3172 -0.2382
    1DPPC   NC3 3565  28.351   4.112   6.280 -0.1183  0.2060 -0.2676
    1DPPC   PO4 3566  28.627   3.731   6.251  0.0029  0.1089 -0.2283
    1DPPC   GL1 3567  28.444   3.887   5.787 -0.0562 -0.0114 -0.1124
    1DPPC   GL2 3568  28.594   4.109   5.669 -0.1991 -0.0187  0.0196
    1DPPC   C1A 3569  28.056   4.038   5.735  0.2158  0.1472 -0.2017
    1DPPC   C2A 3570  27.840   4.123   5.605  0.1876 -0.1044  0.0302
    1DPPC   C3A 3571  27.696   4.090   5.110  0.1171 -0.0597  0.0342
    1DPPC   C4A 3572  27.507   4.202   4.678  0.0142 -0.2110 -0.1881
    1DPPC   C1B 3573  28.575   3.952   5.267  0.1284  0.2106  0.0009
    1DPPC   C2B 3574  28.637   4.001   4.871 -0.0176 -0.1240 -0.0536
    1DPPC   C3B 3575  28.997   3.834   4.713  0.2130 -0.2474  0.1819
    1DPPC   C4B 3576  29.462   3.731   4.650 -0.2326  0.0637 -0.1946
    1DPPC   NC3 3577   0.481  11.212   6.647 -0.0131  0.1301  0.1409
    1DPPC   PO4 3578   0.078  10.928   6.529 -0.2166 -0.0742 -0.0008
    1DPPC   GL1 3579  29.449  10.883   6.179  0.0122  0.1640  0.1639
    1DPPC   GL2 3580  29.452  10.584   6.065  0.0131 -0.0504 -0.3222
    1DPPC   C1A 3581  29.457  10.964   5.719  0.1417 -0.4618 -0.1909
    1DPPC   C2A 3582  29.544  10.828   5.224 -0.0534  0.2776  0.1464
    1DPPC   C3A 3583  29.587  10.651   4.890 -0.2232 -0.0520  0.1951
    1DPPC   C4A 3584   0.259  10.255   4.721  0.1063 -0.0185  0.1151
    1DPPC   C1B 3585  29.322  10.503   5.637 -0.0524 -0.4377 -0.2406
    1DPPC   C2B 3586  29.179  10.510   5.202  0.0216 -0.1392  0.1825
    1DPPC   C3B 3587  29.099  10.569   4.707 -0.0569 -0.1004  0.1244
    1DPPC   C4B 3588  29.037  10.778   4.312 -0.1136  0.0268  0.2230
    1DPPC   NC3 3589   2.868  13.862   6.528 -0.0726 -0.1780 -0.1986
    1DPPC   PO4 3590   2.466  13.856   6.587 -0.0589 -0.4028 -0.3339
    1DPPC   GL1 3591   2.335  13.747   6.182  0.0902 -0.2460  0.1865
    1DPPC   GL2 3592   2.474  13.898   5.918 -0.0297 -0.0918 -0.0253
    1DPPC   C1A 3593   2.297  13.430   5.911 -0.2980 -0.1145 -0.0955
    1DPPC   C2A 3594   2.352  13.199   5.560  0.2311  0.0724  0.1874
    1DPPC   C3A 3595   2.620  12.874   5.527  0.2307  0.1539 -0.0563
    1DPPC   C4A 3596   2.923  12.713   5.273  0.0212  0.0478 -0.3355
    1DPPC   C1B 3597   2.431  13.719   5.516  0.0595  0.0498  0.1658
    1DPPC   C2B 3598   2.330  13.465   5.104 -0.1221  0.2233  0.0912
    1DPPC   C3B 3599   2.532  13.349   4.715  0.0385 -0.0392  0.1932
    1DPPC   C4B 3600   2.763  13.342   4.319  0.3900  0.1548  0.0250
    1DPPC   NC3 3601  26.507  12.249   7.031  0.0048  0.1495 -0.1292
    1DPPC   PO4 3602  26.801  11.921   6.909  0.2377  0.2574 -0.0319
    1DPPC   GL1 3603  26.743  12.048   6.504  0.0386  0.2023  0.1699
    1DPPC   GL2 3604  26.635  11.873   6.251 -0.1052 -0.0594  0.3704
    1DPPC   C1A 3605  27.057  12.281   6.246  0.1334  0.0379  0.1252
    1DPPC   C2A 3606  27.017  12.289   5.762  0.3161  0.0784  0.0648
    1DPPC   C3A 3607  27.067  12.044   5.440 -0.2151  0.3608 -0.3031
    1DPPC   C4A 3608  27.186  11.986   5.111  0.0166 -0.1860 -0.0992
    1DPPC   C1B 3609  26.711  11.797   5.792 -0.1535  0.1935 -0.0262
    1DPPC   C2B 3610  26.755  11.652   5.370  0.0365 -0.1703  0.1306
    1DPPC   C3B 3611  26.545  11.509   5.071 -0.2133  0.2789  0.1229
    1DPPC   C4B 3612  26.285  11.263   4.838  0.0883 -0.1462 -0.0266
    1DPPC   NC3 3613  22.309   6.231   7.093 -0.0273  0.0278 -0.0526
    1DPPC   PO4 3614  22.743   6.308   7.154 -0.1186 -0.0993 -0.1786
    1DPPC   GL1 3615  22.595   6.339   6.710 -0.0829  0.0332 -0.2752
    1DPPC   GL2 3616  22.459   6.699   6.750  0.0162  0.2604  0.0369
    1DPPC   C1A 3617  22.699   6.392   6.295 -0.0249  0.0306 -0.0603
    1DPPC   C2A 3618  22.828   6.411   5.904  0.0253 -0.0241 -0.1090
    1DPPC   C3A 3619  22.775   6.454   5.459  0.0179  0.1014 -0.0651
    1DPPC   C4A 3620  22.607   6.227   5.276 -0.3672  0.1195 -0.1587
    1DPPC   C1B 3621  22.328   6.759   6.370  0.2932  0.0225  0.0408
    1DPPC   C2B 3622  22.362   6.707   5.872  0.1487  0.1004  0.0061
    1DPPC   C3B 3623  22.350   6.636   5.410 -0.0498 -0.0090 -0.2174
    1DPPC   C4B 3624  22.392   6.665   5.050 -0.0741 -0.2118 -0.0226
    1DPPC   NC3 3625  20.788  10.732   6.972 -0.0210  0.1394  0.0137
    1DPPC   PO4 3626  20.335  10.868   7.076 -0.1262  0.0351  0.0533
    1DPPC   GL1 3627  20.418  10.877   6.672 -0.0881  0.1254 -0.1083
    1DPPC   GL2 3628  20.192  11.124   6.613  0.2370 -0.4417 -0.0241
    1DPPC   C1A 3629  20.415  10.518   6.271  0.0017 -0.0483 -0.0343
    1DPPC   C2A 3630  20.430  10.433   5.909 -0.0571 -0.2823  0.2089
    1DPPC   C3A 3631  20.454  10.294   5.452 -0.0567  0.0492  0.6521
    1DPPC   C4A 3632  20.651  10.445   5.098  0.1407  0.2250 -0.1610
    1DPPC   C1B 3633  20.292  11.051   6.197  0.1585  0.0201 -0.0190
    1DPPC   C2B 3634  20.221  11.215   5.721  0.0363 -0.2082  0.0049
    1DPPC   C3B 3635  20.279  11.157   5.277 -0.4290 -0.1788 -0.3800
    1DPPC   C4B 3636  20.304  11.303   4.851  0.2508  0.0943  0.0537
    1DPPC   NC3 3637  26.317   9.502   7.222 -0.3924  0.0079 -0.2621
    1DPPC   PO4 3638  26.673   9.344   6.918 -0.1054 -0.1441 -0.0858
    1DPPC   GL1 3639  26.543   9.508   6.555  0.1956  0.1481  0.2172
    1DPPC   GL2 3640  26.491   9.726   6.425  0.1375  0.2178 -0.0795
    1DPPC   C1A 3641  26.427   9.284   6.204  0.1728 -0.2018 -0.1412
    1DPPC   C2A 3642  26.346   9.249   5.757  0.2885 -0.1371 -0.0066
    1DPPC   C3A 3643  26.405   9.310   5.314  0.1692  0.1454  0.0881
    1DPPC   C4A 3644  26.369   9.343   4.861  0.1763  0.1078 -0.1208
    1DPPC   C1B 3645  26.355   9.812   5.988 -0.0629  0.1572  0.1006
    1DPPC   C2B 3646  26.341   9.731   5.569  0.1651 -0.1235 -0.0487
    1DPPC   C3B 3647  26.435   9.780   5.157  0.4199  0.0309 -0.3046
    1DPPC   C4B 3648  26.543   9.873   4.707 -0.0341  0.0966 -0.3228
    1DIPC   NC3 3649  14.854  11.971   6.736  0.0751 -0.0721 -0.0146
    1DIPC   PO4 3650  15.213  11.908   6.926  0.3122  0.1718  0.0263
    1DIPC   GL1 3651  15.248  11.851   6.482 -0.3252  0.0633  0.1978
    1DIPC   GL2 3652  15.401  12.152   6.320 -0.0454 -0.0943 -0.1414
    1DIPC   C1A 3653  15.448  11.659   6.030  0.3400 -0.0089  0.1250
    1DIPC   D2A 3654  15.612  11.616   5.655  0.2137  0.1723  0.0560
    1DIPC   D3A 3655  15.695  11.522   5.253  0.1047 -0.2704  0.0770
    1DIPC   C4A 3656  15.369  11.221   5.100  0.0704 -0.3189  0.0950
    1DIPC   C1B 3657  15.683  12.087   5.978 -0.1491 -0.0276 -0.1406
    1DIPC   D2B 3658  15.802  12.070   5.526  0.0596  0.3911 -0.0416
    1DIPC   D3B 3659  15.476  11.946   5.203  0.1915  0.0151  0.0388
    1DIPC   C4B 3660  15.068  12.206   5.106  0.0308  0.1669 -0.0249
    1DIPC   NC3 3661   3.307  15.009   7.326  0.2331 -0.2077 -0.0475
    1DIPC   PO4 3662   3.399  15.109   6.911 -0.3472 -0.0847  0.1976
    1DIPC   GL1 3663   3.338  15.418   6.600  0.1687  0.1485 -0.2122
    1DIPC   GL2 3664   3.306  15.721   6.750 -0.2836  0.0432 -0.0958
    1DIPC   C1A 3665   3.329  15.648   6.241 -0.3187  0.0832 -0.0343
    1DIPC   D2A 3666   3.191  15.643   5.890 -0.0283  0.1244 -0.1684
    1DIPC   D3A 3667   2.719  15.606   5.880 -0.2471  0.4185  0.2239
    1DIPC   C4A 3668   2.507  15.690   5.530 -0.0491 -0.0071  0.0669
    1DIPC   C1B 3669   3.238  16.154   6.468  0.3019 -0.0043 -0.2440
    1DIPC   D2B 3670   3.318  16.482   6.157 -0.0874 -0.0470 -0.1951
    1DIPC   D3B 3671   3.431  16.074   5.945  0.1045  0.2284 -0.2578
    1DIPC   C4B 3672   3.447  15.875   5.539  0.0715  0.0582 -0.1355
    1DIPC   NC3 3673   8.630   7.867   6.028  0.0541  0.3170  0.2253
    1DIPC   PO4 3674   8.598   8.282   5.677  0.1386  0.1004  0.1849
    1DIPC   GL1 3675   8.779   7.908   5.517  0.0039  0.0142 -0.1417
    1DIPC   GL2 3676   8.731   7.989   5.193 -0.0366 -0.1325 -0.1913
    1DIPC   C1A 3677   8.858   7.518   5.499  0.5530  0.0714  0.1683
    1DIPC   D2A 3678   8.832   7.125   5.375 -0.1060  0.3676  0.2102
    1DIPC   D3A 3679   8.853   7.186   4.981  0.2028  0.2120  0.2999
    1DIPC   C4A 3680   9.047   7.436   4.658 -0.0480  0.2978  0.1951
    1DIPC   C1B 3681   8.748   7.652   4.999  0.0531 -0.0802 -0.1066
    1DIPC   D2B 3682   8.458   7.581   4.644 -0.0608  0.2094  0.0629
    1DIPC   D3B 3683   8.679   7.418   4.312  0.0050 -0.1589  0.1813
    1DIPC   C4B 3684   8.710   7.066   4.479  0.0771 -0.1670 -0.2380
    1DIPC   NC3 3685   6.877  10.827   5.478 -0.1595 -0.1210  0.2337
    1DIPC   PO4 3686   6.528  10.548   5.417 -0.0772  0.1804  0.0407
    1DIPC   GL1 3687   6.478  10.354   5.022 -0.0295 -0.3054 -0.2138
    1DIPC   GL2 3688   6.555  10.012   4.980  0.1572  0.1302 -0.0981
    1DIPC   C1A 3689   6.589  10.280   4.517 -0.2690 -0.0653 -0.1488
    1DIPC   D2A 3690   6.870  10.253   4.118 -0.0791  0.2168  0.1013
    1DIPC   D3A 3691   7.222  10.059   4.324  0.2747 -0.1545  0.0330
    1DIPC   C4A 3692   7.528   9.821   3.938  0.2501  0.3595 -0.0949
    1DIPC   C1B 3693   6.566   9.628   5.058 -0.0239 -0.3094 -0.2527
    1DIPC   D2B 3694   6.384   9.190   5.114  0.2656 -0.1024 -0.1046
    1DIPC   D3B 3695   6.681   9.209   4.673 -0.3459  0.1958 -0.0360
    1DIPC   C4B 3696   6.595   9.330   4.264 -0.1831  0.1388  0.0897
    1DIPC   NC3 3697  28.150   1.496   6.854 -0.0573 -0.1394  0.0322
    1DIPC   PO4 3698  28.470   1.647   6.500  0.0740  0.2496 -0.1005
    1DIPC   GL1 3699  28.282   1.377   6.191  0.0861  0.0831  0.1414
    1DIPC   GL2 3700  28.201   1.581   5.966 -0.1049  0.0448 -0.1370
    1DIPC   C1A 3701  28.457   1.017   5.797  0.1245 -0.3049 -0.0290
    1DIPC   D2A 3702  28.698   1.028   5.329 -0.3333  0.2614 -0.0980
    1DIPC   D3A 3703  28.983   1.209   5.042 -0.1728 -0.0253 -0.0436
    1DIPC   C4A 3704  29.033   1.435   4.660 -0.1464 -0.3773  0.1227
    1DIPC   C1B 3705  28.179   1.428   5.612  0.2900  0.5414 -0.0556
    1DIPC   D2B 3706  28.119   1.113   5.354 -0.0261 -0.1389  0.0736
    1DIPC   D3B 3707  27.988   1.231   4.889  0.2570 -0.1391 -0.1073
    1DIPC   C4B 3708  27.662   1.099   4.690  0.0663 -0.1295 -0.0858
    1DIPC   NC3 3709  10.348  25.249   6.628 -0.1386  0.1822  0.1383
    1DIPC   PO4 3710   9.814  25.120   6.643 -0.3672  0.0336  0.1367
    1DIPC   GL1 3711  10.036  25.170   6.223  0.1327 -0.3138 -0.0074
    1DIPC   GL2 3712  10.058  24.839   6.116 -0.2709 -0.2508 -0.0338
    1DIPC   C1A 3713   9.925  25.535   5.885  0.0571 -0.0899  0.1668
    1DIPC   D2A 3714   9.601  25.511   5.542  0.3743 -0.0766  0.2356
    1DIPC   D3A 3715   9.542  25.856   5.254 -0.1453 -0.3534  0.0592
    1DIPC   C4A 3716   9.371  26.237   5.487  0.1467  0.2401  0.0508
    1DIPC   C1B 3717  10.195  24.812   5.749  0.1883  0.3377 -0.0577
    1DIPC   D2B 3718  10.331  25.221   5.615 -0.1128  0.0711 -0.1795
    1DIPC   D3B 3719  10.435  25.591   5.696  0.0181  0.1229 -0.1250
    1DIPC   C4B 3720  10.598  25.733   5.412 -0.1388  0.3382 -0.0124
    1DIPC   NC3 3721  13.002  15.333   6.197 -0.0214 -0.1910 -0.1930
    1DIPC   PO4 3722  13.466  15.480   6.172 -0.1239  0.2013  0.0945
    1DIPC   GL1 3723  13.687  15.351   5.839 -0.0212 -0.2546  0.4118
    1DIPC   GL2 3724  13.795  15.711   5.680  0.2478  0.1112  0.1672
    1DIPC   C1A 3725  13.813  15.300   5.369 -0.0148  0.0285  0.0049
    1DIPC   D2A 3726  13.764  15.243   4.913 -0.1916 -0.0751 -0.0752
    1DIPC   D3A 3727  13.828  15.713   4.793 -0.1534 -0.3016  0.1325
    1DIPC   C4A 3728  14.193  15.981   4.665  0.0327 -0.2454  0.0224
    1DIPC   C1B 3729  13.402  15.660   5.352 -0.1399 -0.2681  0.0051
    1DIPC   D2B 3730  13.348  15.933   5.036  0.2422 -0.1539  0.2020
    1DIPC   D3B 3731  13.294  15.539   4.835  0.3589 -0.1622 -0.2201
    1DIPC   C4B 3732  13.006  15.246   4.548  0.1157  0.2355  0.0201
    1DIPC   NC3 3733   6.465  23.891   6.685  0.1617  0.2646  0.2039
    1DIPC   PO4 3734   6.330  24.308   6.548  0.0556 -0.3876 -0.3332
    1DIPC   GL1 3735   5.948  24.369   6.292 -0.0768  0.0709  0.1042
    1DIPC   GL2 3736   5.639  24.203   6.389 -0.2359  0.3387  0.2081
    1DIPC   C1A 3737   5.904  24.273   5.821 -0.0747  0.3229 -0.1232
    1DIPC   D2A 3738   5.629  24.502   5.541 -0.0903 -0.2765 -0.5306
    1DIPC   D3A 3739   5.547  24.058   5.380  0.1971 -0.1421  0.1442
    1DIPC   C4A 3740   5.188  24.113   5.311 -0.0783 -0.4852  0.0320
    1DIPC   C1B 3741   5.748  23.820   6.154 -0.2279  0.0890 -0.2971
    1DIPC   D2B 3742   5.583  23.308   6.207  0.0888 -0.2630  0.0711
    1DIPC   D3B 3743   5.431  23.234   5.798  0.0768 -0.2193 -0.1754
    1DIPC   C4B 3744   5.466  23.029   5.516 -0.0100 -0.1631 -0.3259
    1DIPC   NC3 3745   0.243   4.011   6.348 -0.0559 -0.1149 -0.2104
    1DIPC   PO4 3746  29.588   4.027   6.065 -0.1709  0.0740 -0.0349
    1DIPC   GL1 3747  29.256   3.792   5.807  0.1216 -0.0988  0.1098
    1DIPC   GL2 3748  28.934   3.728   5.814 -0.0076  0.2275 -0.2256
    1DIPC   C1A 3749  29.161   3.318   5.561 -0.1735  0.3896  0.2040
    1DIPC   D2A 3750  29.058   3.088   5.170  0.0079 -0.2138 -0.1076
    1DIPC   D3A 3751  29.298   3.249   4.746  0.3325 -0.2511 -0.0296
    1DIPC   C4A 3752  29.067   3.291   4.261 -0.1142  0.1028 -0.2819
    1DIPC   C1B 3753  29.084   3.905   5.365 -0.2027 -0.0185 -0.0110
    1DIPC   D2B 3754  29.276   3.603   5.062 -0.2906  0.0028  0.1038
    1DIPC   D3B 3755  29.528   3.261   5.212  0.2046 -0.0591  0.3509
    1DIPC   C4B 3756   0.123   3.036   4.812  0.0285  0.1379  0.2515
    1DIPC   NC3 3757   4.667  19.410   6.879 -0.0316 -0.1061  0.0163
    1DIPC   PO4 3758   5.146  19.357   6.690 -0.5345 -0.3516  0.1321
    1DIPC   GL1 3759   5.181  19.222   6.265 -0.0994 -0.2148  0.3790
    1DIPC   GL2 3760   5.068  18.900   6.205  0.0125 -0.0174 -0.0259
    1DIPC   C1A 3761   5.574  18.929   6.043  0.0991 -0.3106 -0.5653
    1DIPC   D2A 3762   5.794  18.824   5.644  0.0682 -0.1709  0.2704
    1DIPC   D3A 3763   5.526  18.899   5.266 -0.3335  0.0054  0.1145
    1DIPC   C4A 3764   5.288  19.129   5.223 -0.2062  0.0281  0.1561
    1DIPC   C1B 3765   5.185  18.463   6.103 -0.1325  0.0181  0.1528
    1DIPC   D2B 3766   5.231  18.055   5.892 -0.2725 -0.1998 -0.5983
    1DIPC   D3B 3767   5.256  18.035   5.416  0.0851 -0.0976  0.2180
    1DIPC   C4B 3768   4.920  18.196   5.175  0.0800  0.1177 -0.1117
    1DIPC   NC3 3769   9.412  11.160   6.196  0.4226 -0.0638  0.0886
    1DIPC   PO4 3770   9.728  11.261   5.887  0.2033 -0.3997  0.0164
    1DIPC   GL1 3771   9.590  11.110   5.452 -0.1060  0.3809 -0.0000
    1DIPC   GL2 3772   9.602  10.731   5.407  0.1446 -0.0277 -0.0688
    1DIPC   C1A 3773   9.760  11.257   5.119  0.3047 -0.4059 -0.2047
    1DIPC   D2A 3774   9.869  11.409   4.719  0.1184 -0.2870 -0.0888
    1DIPC   D3A 3775  10.088  11.626   4.918  0.2093 -0.0284 -0.1358
    1DIPC   C4A 3776  10.357  12.011   4.919  0.0525 -0.2042  0.1034
    1DIPC   C1B 3777   9.238  10.671   5.206  0.1185 -0.0040  0.0687
    1DIPC   D2B 3778   8.809  10.573   5.166  0.1843 -0.0086 -0.0667
    1DIPC   D3B 3779   8.800  10.877   4.894  0.2735 -0.0597  0.3589
    1DIPC   C4B 3780   8.758  10.812   4.445  0.2034  0.0829  0.0118
    1DIPC   NC3 3781   5.872   8.041   5.825 -0.0941  0.1324 -0.0574
    1DIPC   PO4 3782   6.172   7.829   5.689  0.3181  0.0542 -0.4258
    1DIPC   GL1 3783   6.486   7.609   5.590 -0.3483 -0.1918  0.0477
    1DIPC   GL2 3784   6.869   7.438   5.612  0.0230 -0.0524 -0.0151
    1DIPC   C1A 3785   6.629   7.463   5.173  0.2173 -0.0013  0.3895
    1DIPC   D2A 3786   6.494   7.359   4.769 -0.1179 -0.0526 -0.1964
    1DIPC   D3A 3787   6.104   7.307   4.845  0.0393 -0.0100 -0.2730
    1DIPC   C4A 3788   5.946   6.890   4.515  0.2677  0.1849  0.4231
    1DIPC   C1B 3789   7.083   7.350   5.253 -0.1249 -0.0657 -0.0197
    1DIPC   D2B 3790   6.971   7.507   4.765  0.0318 -0.0685  0.1061
    1DIPC   D3B 3791   6.939   7.391   4.360 -0.3730 -0.2571  0.2851
    1DIPC   C4B 3792   6.594   7.403   4.117 -0.2706 -0.2111 -0.0800
    1DIPC   NC3 3793  27.052  25.659   6.952  0.1006  0.2092  0.4828
    1DIPC   PO4 3794  27.387  25.489   6.733 -0.4547  0.0305 -0.2057
    1DIPC   GL1 3795  27.287  25.627   6.359 -0.0101  0.0744  0.0258
    1DIPC   GL2 3796  27.145  25.988   6.334 -0.0761 -0.0018 -0.0149
    1DIPC   C1A 3797  26.904  25.653   6.029  0.2339 -0.3563  0.0935
    1DIPC   D2A 3798  26.842  25.421   5.593  0.1398 -0.2061 -0.0692
    1DIPC   D3A 3799  26.485  25.366   5.616 -0.1292  0.1517 -0.4229
    1DIPC   C4A 3800  26.091  25.618   5.612  0.2614  0.1694 -0.3520
    1DIPC   C1B 3801  27.076  26.104   5.937  0.1121  0.0657 -0.1261
    1DIPC   D2B 3802  26.982  25.897   5.513 -0.2999 -0.3780 -0.0148
    1DIPC   D3B 3803  26.540  25.843   5.773 -0.0718  0.1513 -0.0376
    1DIPC   C4B 3804  26.217  26.136   5.785 -0.2669 -0.0556 -0.0979
    1DIPC   NC3 3805  10.086   2.587   5.574 -0.0198 -0.1716 -0.1986
    1DIPC   PO4 3806   9.698   2.895   5.734 -0.0771 -0.0459  0.0891
    1DIPC   GL1 3807   9.889   3.113   5.447 -0.1178 -0.0706  0.1568
    1DIPC   GL2 3808   9.667   3.409   5.357 -0.3887 -0.2017  0.0935
    1DIPC   C1A 3809  10.184   3.030   5.122 -0.2117  0.1188 -0.0521
    1DIPC   D2A 3810  10.388   2.936   4.752  0.2298  0.0895  0.2291
    1DIPC   D3A 3811  10.641   3.037   4.435  0.0338 -0.3614 -0.0863
    1DIPC   C4A 3812  10.882   2.673   4.407 -0.0814 -0.1336 -0.1783
    1DIPC   C1B 3813   9.738   3.369   4.981 -0.2385  0.0661  0.1738
    1DIPC   D2B 3814   9.637   3.363   4.524  0.1847 -0.1022  0.1193
    1DIPC   D3B 3815   9.953   3.218   4.229  0.0633  0.0564  0.0022
    1DIPC   C4B 3816  10.154   2.824   4.233  0.0077  0.0268  0.1673
    1DIPC   NC3 3817   5.008  28.278   6.820  0.0782  0.2452 -0.0026
    1DIPC   PO4 3818   5.012  28.305   6.359 -0.1863  0.1933  0.4213
    1DIPC   GL1 3819   5.163  28.276   5.902 -0.0935 -0.3530  0.2086
    1DIPC   GL2 3820   5.463  28.151   5.683  0.2647 -0.0224  0.1917
    1DIPC   C1A 3821   5.061  28.233   5.369  0.2372  0.0965 -0.1369
    1DIPC   D2A 3822   4.743  28.149   4.930 -0.1812 -0.2129  0.0795
    1DIPC   D3A 3823   4.991  27.871   4.745 -0.0835 -0.0337 -0.3129
    1DIPC   C4A 3824   4.915  27.740   4.273 -0.1819  0.2406 -0.0640
    1DIPC   C1B 3825   5.526  28.428   5.362 -0.0861  0.0812  0.2123
    1DIPC   D2B 3826   5.401  28.836   5.073  0.1288  0.1162 -0.0168
    1DIPC   D3B 3827   5.446  28.446   4.845 -0.2693 -0.2171  0.0441
    1DIPC   C4B 3828   5.632  28.482   4.468  0.0997  0.1244 -0.1559
    1DIPC   NC3 3829   7.341  22.425   7.089 -0.0905 -0.1763  0.0265
    1DIPC   PO4 3830   6.957  22.421   6.900 -0.0745  0.4560  0.2817
    1DIPC   GL1 3831   6.970  22.547   6.477 -0.1397 -0.0565  0.0977
    1DIPC   GL2 3832   7.076  22.410   6.219  0.0998  0.2595  0.1626
    1DIPC   C1A 3833   6.754  22.704   6.113  0.1440 -0.2047  0.0206
    1DIPC   D2A 3834   6.664  22.572   5.687  0.4276 -0.3177 -0.2745
    1DIPC   D3A 3835   6.380  22.954   5.798 -0.2262  0.0049  0.2427
    1DIPC   C4A 3836   6.293  23.285   5.472 -0.0014 -0.0478 -0.1559
    1DIPC   C1B 3837   7.337  22.448   5.855  0.3072  0.1610 -0.0378
    1DIPC   D2B 3838   7.511  22.381   5.488  0.2091 -0.0314  0.2124
    1DIPC   D3B 3839   6.991  22.429   5.408 -0.0112 -0.0367 -0.0840
    1DIPC   C4B 3840   6.828  22.612   5.059 -0.2449 -0.0236 -0.2302
    1DIPC   NC3 3841  27.772  26.233   7.339 -0.3080  0.1826  0.2291
    1DIPC   PO4 3842  27.658  26.384   6.861 -0.0956  0.0384  0.4239
    1DIPC   GL1 3843  27.390  26.410   6.353 -0.1164  0.0983 -0.0437
    1DIPC   GL2 3844  27.524  26.114   6.050  0.3067  0.0835  0.0520
    1DIPC   C1A 3845  27.331  26.548   5.909  0.2688  0.0424 -0.1336
    1DIPC   D2A 3846  27.138  26.461   5.528  0.0969  0.2730  0.3386
    1DIPC   D3A 3847  26.896  26.762   5.758 -0.2124 -0.0506  0.0385
    1DIPC   C4A 3848  27.107  27.187   5.722 -0.2542 -0.0371 -0.1106
    1DIPC   C1B 3849  27.547  26.086   5.633 -0.0988  0.1678  0.1389
    1DIPC   D2B 3850  27.316  26.063   5.210 -0.0508 -0.1868 -0.1056
    1DIPC   D3B 3851  27.239  26.363   4.983 -0.0329  0.2092 -0.3478
    1DIPC   C4B 3852  27.518  26.607   4.821 -0.0129  0.2808 -0.2209
    1DIPC   NC3 3853  11.279  10.378   6.571  0.0831 -0.1993  0.2628
    1DIPC   PO4 3854  10.995  10.716   6.244 -0.1179 -0.1604 -0.0594
    1DIPC   GL1 3855  11.042  10.538   5.775 -0.0170 -0.1910 -0.1936
    1DIPC   GL2 3856  11.306  10.491   5.531 -0.0319 -0.1574  0.1364
    1DIPC   C1A 3857  10.776  10.450   5.414  0.1535 -0.0646 -0.0735
    1DIPC   D2A 3858  10.748  10.305   5.021  0.2672  0.2942 -0.0547
    1DIPC   D3A 3859  10.671  10.081   4.635  0.0451  0.0060 -0.0946
    1DIPC   C4A 3860  10.529  10.252   4.303 -0.0032 -0.2105 -0.1979
    1DIPC   C1B 3861  11.618  10.069   5.357  0.2584  0.0064 -0.3169
    1DIPC   D2B 3862  11.992   9.828   5.215  0.2934 -0.0615 -0.1052
    1DIPC   D3B 3863  11.803   9.478   5.075 -0.1850  0.2480 -0.1842
    1DIPC   C4B 3864  11.647   9.464   4.652  0.2084  0.3237 -0.1344
    1DIPC   NC3 3865   8.398   9.420   5.879  0.1202  0.4300 -0.4547
    1DIPC   PO4 3866   8.153   9.080   5.617 -0.1469  0.0736  0.0935
    1DIPC   GL1 3867   8.083   9.411   5.312  0.1790  0.2311  0.0414
    1DIPC   GL2 3868   8.183   9.644   5.522  0.0793 -0.3346  0.0027
    1DIPC   C1A 3869   7.972   9.667   4.944 -0.4385  0.3031  0.0143
    1DIPC   D2A 3870   7.916   9.875   4.457  0.1251 -0.0869 -0.0110
    1DIPC   D3A 3871   8.120  10.308   4.482 -0.0797 -0.2405 -0.2300
    1DIPC   C4A 3872   8.632  10.398   4.663  0.3549  0.0644 -0.0956
    1DIPC   C1B 3873   8.331   9.850   5.170  0.0977 -0.3646 -0.0368
    1DIPC   D2B 3874   8.367   9.895   4.627  0.0681 -0.1920 -0.2840
    1DIPC   D3B 3875   8.472  10.015   4.286 -0.1424  0.0575 -0.1274
    1DIPC   C4B 3876   8.602  10.452   4.108 -0.1342 -0.0750 -0.0003
    1DIPC   NC3 3877   3.196   6.097   5.879 -0.2494 -0.2680 -0.1420
    1DIPC   PO4 3878   2.674   6.271   5.787 -0.0890  0.3232  0.2347
    1DIPC   GL1 3879   2.447   6.060   5.367 -0.0059  0.1380 -0.0224
    1DIPC   GL2 3880   2.478   5.814   5.365 -0.0954 -0.2431  0.0201
    1DIPC   C1A 3881   2.642   5.924   4.912  0.1013 -0.3930  0.1936
    1DIPC   D2A 3882   2.651   6.194   4.533 -0.0148  0.2484 -0.1164
    1DIPC   D3A 3883   2.993   6.087   4.253 -0.0886 -0.0795 -0.0613
    1DIPC   C4A 3884   2.951   5.768   3.990 -0.0383  0.1840 -0.0231
    1DIPC   C1B 3885   2.521   5.448   5.097  0.2194 -0.0596  0.0821
    1DIPC   D2B 3886   2.654   5.212   4.794  0.1253  0.0023 -0.0026
    1DIPC   D3B 3887   2.739   5.347   4.374  0.0180 -0.0302 -0.3891
    1DIPC   C4B 3888   2.630   5.698   4.324 -0.1110  0.2319  0.1295
    1DIPC   NC3 3889  27.473  19.365   7.442  0.1892  0.2509 -0.0081
    1DIPC   PO4 3890  27.516  19.799   7.301  0.0386 -0.0475 -0.2653
    1DIPC   GL1 3891  27.350  19.858   6.856  0.0504  0.0045 -0.0178
    1DIPC   GL2 3892  27.399  20.144   6.709 -0.0264 -0.2444  0.2977
    1DIPC   C1A 3893  27.471  19.667   6.505 -0.0436  0.2980 -0.2798
    1DIPC   D2A 3894  27.521  19.627   6.035 -0.0576  0.0344 -0.1685
    1DIPC   D3A 3895  27.338  19.177   5.827 -0.0829  0.3117  0.1918
    1DIPC   C4A 3896  26.907  19.178   5.688 -0.1910  0.1901 -0.0216
    1DIPC   C1B 3897  27.471  20.088   6.226  0.1300  0.2321 -0.0456
    1DIPC   D2B 3898  27.565  20.040   5.772  0.3040 -0.0045 -0.0607
    1DIPC   D3B 3899  27.193  20.050   5.530  0.0898  0.0292  0.0113
    1DIPC   C4B 3900  27.029  19.697   5.653  0.1241 -0.2281 -0.2590
    1DIPC   NC3 3901  15.366  20.700   6.490 -0.0293  0.0765 -0.0175
    1DIPC   PO4 3902  15.667  21.038   6.294  0.1912 -0.2613  0.0198
    1DIPC   GL1 3903  15.683  21.288   5.979  0.1103 -0.1319  0.2119
    1DIPC   GL2 3904  15.975  21.480   6.058 -0.1527  0.1393 -0.0137
    1DIPC   C1A 3905  15.569  21.298   5.507 -0.1360  0.1083  0.0747
    1DIPC   D2A 3906  15.715  21.154   5.108  0.1210 -0.1148 -0.0761
    1DIPC   D3A 3907  15.430  21.428   4.850 -0.3923 -0.4264  0.1863
    1DIPC   C4A 3908  15.365  21.740   4.991 -0.3597  0.1245 -0.0126
    1DIPC   C1B 3909  15.958  21.635   5.610 -0.5409  0.0702  0.1811
    1DIPC   D2B 3910  16.097  21.440   5.202 -0.2983  0.2809 -0.0846
    1DIPC   D3B 3911  15.897  21.719   4.973 -0.2743 -0.2180 -0.0740
    1DIPC   C4B 3912  16.117  22.100   4.752 -0.3427  0.1421  0.3833
    1DIPC   NC3 3913   6.031   0.672   6.356  0.3450 -0.1934 -0.1580
    1DIPC   PO4 3914   6.342   0.384   6.120 -0.2588  0.1183 -0.0591
    1DIPC   GL1 3915   6.288   0.689   5.822 -0.0350 -0.3015  0.2755
    1DIPC   GL2 3916   6.067   0.966   5.809  0.3018  0.0942 -0.1339
    1DIPC   C1A 3917   6.327   0.594   5.446 -0.0788 -0.0188 -0.1841
    1DIPC   D2A 3918   6.129   0.413   5.129 -0.1194 -0.0849  0.0328
    1DIPC   D3A 3919   6.153   0.811   4.959 -0.0052  0.2804  0.2027
    1DIPC   C4A 3920   5.728   0.777   4.617 -0.1236 -0.1323 -0.0174
    1DIPC   C1B 3921   6.088   1.108   5.392  0.5006 -0.1803  0.0498
    1DIPC   D2B 3922   5.798   1.156   5.072  0.0152 -0.0468 -0.0926
    1DIPC   D3B 3923   5.615   0.736   5.108 -0.1088  0.1135 -0.0483
    1DIPC   C4B 3924   5.632   0.330   4.988 -0.3869 -0.1111 -0.0262
    1DIPC   NC3 3925  28.339   0.743   7.054  0.0393  0.1562 -0.1307
    1DIPC   PO4 3926  27.837   0.708   6.811 -0.2940  0.1656 -0.1209
    1DIPC   GL1 3927  27.585   0.474   6.506  0.0434  0.5108  0.2557
    1DIPC   GL2 3928  27.316   0.692   6.334 -0.1400 -0.1301  0.0862
    1DIPC   C1A 3929  27.475   0.075   6.395  0.3748 -0.2845  0.0678
    1DIPC   D2A 3930  27.208  29.365   6.282 -0.4151  0.0068  0.1211
    1DIPC   D3A 3931  26.926  28.936   6.286 -0.1556 -0.2011  0.0942
    1DIPC   C4A 3932  26.954  28.680   5.906 -0.1660 -0.1319 -0.0408
    1DIPC   C1B 3933  27.680   0.790   6.094 -0.2610 -0.3016 -0.0318
    1DIPC   D2B 3934  27.877   0.897   5.710 -0.1367 -0.2805 -0.1636
    1DIPC   D3B 3935  28.111   0.551   5.882  0.1513 -0.2852 -0.4458
    1DIPC   C4B 3936  27.866   0.154   6.092  0.3666 -0.0011 -0.0426
    1DIPC   NC3 3937  16.054  26.670   6.558  0.1072  0.0730 -0.1797
    1DIPC   PO4 3938  16.180  27.132   6.656 -0.0468 -0.1226 -0.2422
    1DIPC   GL1 3939  16.340  27.072   6.267 -0.2887 -0.0227  0.1581
    1DIPC   GL2 3940  16.486  27.380   6.236  0.1635  0.2979 -0.1111
    1DIPC   C1A 3941  16.477  26.761   5.881  0.3373  0.0172 -0.0434
    1DIPC   D2A 3942  16.413  26.848   5.403  0.2391  0.1862  0.1171
    1DIPC   D3A 3943  16.500  26.522   5.265  0.1241  0.0401 -0.5666
    1DIPC   C4A 3944  16.441  26.246   5.587 -0.0719 -0.0657  0.1446
    1DIPC   C1B 3945  16.358  27.348   5.670  0.0945  0.1111  0.2871
    1DIPC   D2B 3946  16.159  27.427   5.304 -0.0130 -0.1949  0.0034
    1DIPC   D3B 3947  16.378  27.370   4.972  0.1874 -0.0772  0.0360
    1DIPC   C4B 3948  16.661  27.747   4.833 -0.2410  0.2698  0.0971
    1DIPC   NC3 3949   5.949  12.327   5.978  0.1390  0.2772  0.1013
    1DIPC   PO4 3950   6.115  12.462   5.639 -0.0074  0.1049 -0.0394
    1DIPC   GL1 3951   5.984  12.644   5.267  0.2670  0.0563 -0.1267
    1DIPC   GL2 3952   5.767  12.323   4.986  0.0094  0.0124 -0.1814
    1DIPC   C1A 3953   6.251  12.772   4.887  0.1033 -0.1574 -0.0878
    1DIPC   D2A 3954   6.628  12.463   4.745 -0.0248  0.1552  0.0641
    1DIPC   D3A 3955   6.564  12.485   4.264 -0.1573 -0.0226 -0.1776
    1DIPC   C4A 3956   6.209  12.683   3.983 -0.2788 -0.2235  0.0877
    1DIPC   C1B 3957   5.609  12.132   4.644 -0.2519 -0.0077 -0.4063
    1DIPC   D2B 3958   5.604  11.872   4.285 -0.1275  0.3056 -0.2761
    1DIPC   D3B 3959   5.689  12.161   4.073  0.0686 -0.0002  0.0754
    1DIPC   C4B 3960   5.440  12.438   3.758 -0.1248  0.0645 -0.0703
    1DIPC   NC3 3961  20.682  17.125   7.617  0.0473 -0.3307 -0.1054
    1DIPC   PO4 3962  20.677  17.544   7.488 -0.3948 -0.1402 -0.2424
    1DIPC   GL1 3963  20.362  17.429   7.141 -0.2366 -0.2070  0.4103
    1DIPC   GL2 3964  20.053  17.672   7.175 -0.3767  0.0075  0.0411
    1DIPC   C1A 3965  20.487  17.333   6.693 -0.1338  0.0201  0.4752
    1DIPC   D2A 3966  20.574  17.454   6.294 -0.2390  0.3058  0.0012
    1DIPC   D3A 3967  20.356  17.394   5.896 -0.0958 -0.2650 -0.1879
    1DIPC   C4A 3968  20.145  17.666   5.726 -0.2985 -0.1324  0.3489
    1DIPC   C1B 3969  20.174  17.859   6.778 -0.0675  0.0371 -0.0996
    1DIPC   D2B 3970  20.411  17.973   6.462  0.1324 -0.1863 -0.3571
    1DIPC   D3B 3971  20.499  17.933   6.084  0.1927 -0.0812  0.1562
    1DIPC   C4B 3972  20.415  18.298   5.838  0.0914 -0.0203 -0.1130
    1DIPC   NC3 3973   9.691  15.221   5.979  0.0446 -0.1720 -0.2949
    1DIPC   PO4 3974  10.047  15.422   6.210 -0.0702 -0.0077  0.0408
    1DIPC   GL1 3975  10.383  15.642   5.875 -0.3706 -0.1478 -0.0124
    1DIPC   GL2 3976  10.683  15.482   6.011  0.1258 -0.3035 -0.0482
    1DIPC   C1A 3977  10.385  15.872   5.468  0.1133 -0.0977  0.1373
    1DIPC   D2A 3978  10.490  16.149   5.240  0.0979  0.3658 -0.2685
    1DIPC   D3A 3979  10.054  16.427   5.065 -0.2338  0.0547  0.0725
    1DIPC   C4A 3980   9.837  16.147   4.701 -0.1641 -0.1232 -0.0802
    1DIPC   C1B 3981  10.619  15.442   5.541 -0.5755  0.0046  0.1464
    1DIPC   D2B 3982  10.625  15.645   5.061 -0.0227  0.0202 -0.2634
    1DIPC   D3B 3983  10.328  15.402   4.860  0.3527  0.0026  0.2766
    1DIPC   C4B 3984   9.918  15.551   4.719  0.0796  0.1107  0.2113
    1DIPC   NC3 3985  13.629  18.011   6.134 -0.2946  0.0648 -0.0432
    1DIPC   PO4 3986  13.700  18.429   6.230 -0.0524 -0.1847 -0.0812
    1DIPC   GL1 3987  13.995  18.326   5.871  0.2931 -0.0245 -0.3342
    1DIPC   GL2 3988  14.352  18.442   5.953 -0.0886 -0.1883  0.0160
    1DIPC   C1A 3989  14.072  18.453   5.481 -0.0830  0.3530  0.1891
    1DIPC   D2A 3990  14.322  18.676   5.226  0.2221 -0.1407  0.1644
    1DIPC   D3A 3991  14.210  18.522   4.870  0.3580  0.0760 -0.0977
    1DIPC   C4A 3992  14.417  18.046   4.730  0.2747 -0.1453 -0.2336
    1DIPC   C1B 3993  14.565  18.342   5.481  0.0309 -0.1699  0.1531
    1DIPC   D2B 3994  14.725  18.390   5.105 -0.2301 -0.0910 -0.1871
    1DIPC   D3B 3995  15.177  18.348   5.222  0.0454 -0.0485 -0.0682
    1DIPC   C4B 3996  15.259  18.609   5.552 -0.2242 -0.1337  0.0091
    1DIPC   NC3 3997  19.787  25.384   7.746 -0.2915  0.0379  0.0658
    1DIPC   PO4 3998  19.936  25.825   7.595  0.2288  0.1406  0.0745
    1DIPC   GL1 3999  20.186  25.812   7.322  0.0211 -0.0076  0.0534
    1DIPC   GL2 4000  20.152  25.493   7.292 -0.0757 -0.2033  0.1874
    1DIPC   C1A 4001  20.015  25.960   6.913 -0.1280 -0.1893  0.2064
    1DIPC   D2A 4002  19.989  26.096   6.522  0.0851  0.0265  0.0649
    1DIPC   D3A 4003  20.003  25.758   6.204 -0.0817 -0.3377  0.3448
    1DIPC   C4A 4004  19.942  25.828   5.868  0.0317 -0.1653 -0.5847
    1DIPC   C1B 4005  20.445  25.445   6.933  0.3807 -0.0661  0.1222
    1DIPC   D2B 4006  20.754  25.382   6.586 -0.2583 -0.1238  0.0539
    1DIPC   D3B 4007  21.207  25.275   6.717  0.1654 -0.0438 -0.0450
    1DIPC   C4B 4008  21.501  25.132   6.448  0.3521  0.1464 -0.0853
    1DIPC   NC3 4009   1.126   0.174   6.258  0.0702 -0.0158 -0.0184
    1DIPC   PO4 4010   1.606   0.308   6.210 -0.1218 -0.0438  0.1492
    1DIPC   GL1 4011   1.518  29.623   5.960 -0.2560 -0.1725  0.0504
    1DIPC   GL2 4012   1.277  29.553   5.824  0.0562  0.0009 -0.1122
    1DIPC   C1A 4013   1.644  29.181   5.595  0.2281 -0.1833 -0.3268
    1DIPC   D2A 4014   1.601  28.992   5.221  0.2923 -0.0257 -0.1153
    1DIPC   D3A 4015   1.855  29.015   4.834 -0.0125  0.1008  0.0061
    1DIPC   C4A 4016   2.231  28.832   4.950 -0.2673  0.0745  0.1581
    1DIPC   C1B 4017   0.946  29.376   5.683 -0.1375 -0.1717  0.0023
    1DIPC   D2B 4018   0.667  29.120   5.374 -0.1627 -0.3027  0.0849
    1DIPC   D3B 4019   0.861  29.371   5.181  0.3185  0.0513  0.1047
    1DIPC   C4B 4020   1.277  29.374   5.252  0.1675 -0.3476  0.1277
    1DIPC   NC3 4021   0.067  27.140   6.480 -0.0053  0.1254 -0.0651
    1DIPC   PO4 4022   0.492  27.103   6.396 -0.0222  0.2032 -0.1369
    1DIPC   GL1 4023   0.486  27.166   6.031 -0.1063 -0.0708  0.0529
    1DIPC   GL2 4024   0.193  27.116   5.941 -0.1479 -0.2923 -0.0549
    1DIPC   C1A 4025   0.770  27.246   5.667  0.1222  0.0689  0.1561
    1DIPC   D2A 4026   0.897  27.525   5.340 -0.1446 -0.1233 -0.2961
    1DIPC   D3A 4027   1.040  27.530   4.916  0.1396  0.0867 -0.2427
    1DIPC   C4A 4028   1.480  27.407   4.811  0.0703  0.0933 -0.1072
    1DIPC   C1B 4029   0.270  26.974   5.558  0.0329  0.2122  0.3262
    1DIPC   D2B 4030   0.692  26.889   5.253 -0.1496  0.1065  0.1299
    1DIPC   D3B 4031   0.738  27.077   4.834  0.0426  0.0663 -0.1240
    1DIPC   C4B 4032   0.494  26.854   4.537 -0.0609 -0.0074  0.1244
    1DIPC   NC3 4033  11.049  21.001   6.762 -0.1104  0.0661 -0.1053
    1DIPC   PO4 4034  10.980  20.766   6.389  0.2412 -0.0312  0.2152
    1DIPC   GL1 4035  11.064  20.658   5.948 -0.3119 -0.2451 -0.1779
    1DIPC   GL2 4036  10.958  20.852   5.690  0.0591 -0.3048 -0.1547
    1DIPC   C1A 4037  11.017  20.381   5.664  0.2703  0.2620 -0.0372
    1DIPC   D2A 4038  11.036  19.976   5.460  0.0907 -0.2189  0.1776
    1DIPC   D3A 4039  11.527  19.937   5.192  0.1455  0.1671 -0.0856
    1DIPC   C4A 4040  11.634  19.612   5.261 -0.1515 -0.2323  0.2082
    1DIPC   C1B 4041  11.042  20.947   5.302 -0.3743  0.2437  0.1833
    1DIPC   D2B 4042  11.071  20.932   4.858 -0.0891  0.2697 -0.3413
    1DIPC   D3B 4043  10.794  20.585   4.731 -0.1035 -0.4631  0.0012
    1DIPC   C4B 4044  10.782  20.161   4.596 -0.0673 -0.1010  0.0348
    1DIPC   NC3 4045  11.107  14.126   6.302 -0.1623  0.0415 -0.2172
    1DIPC   PO4 4046  11.555  14.242   6.089  0.0379  0.3712 -0.0491
    1DIPC   GL1 4047  11.723  14.096   5.803  0.1540  0.0426  0.3064
    1DIPC   GL2 4048  11.903  13.792   5.876 -0.0667 -0.1114 -0.1595
    1DIPC   C1A 4049  11.776  14.242   5.389 -0.0230  0.0020 -0.0460
    1DIPC   D2A 4050  11.604  14.284   5.000  0.1216 -0.3088  0.1643
    1DIPC   D3A 4051  11.164  14.589   5.064  0.0993 -0.1761  0.2526
    1DIPC   C4A 4052  10.737  14.428   5.012  0.0777  0.3825 -0.1909
    1DIPC   C1B 4053  11.847  13.627   5.493  0.1640 -0.0444  0.2235
    1DIPC   D2B 4054  11.971  13.413   5.115 -0.2520 -0.0621  0.3781
    1DIPC   D3B 4055  11.967  13.804   4.863  0.2538 -0.0409 -0.0884
    1DIPC   C4B 4056  11.902  13.799   4.316 -0.3740  0.1513 -0.0886
    1DIPC   NC3 4057   8.815   6.128   5.984 -0.0594 -0.1182 -0.1998
    1DIPC   PO4 4058   8.693   6.535   6.228  0.0055  0.3091  0.0794
    1DIPC   GL1 4059   8.692   6.765   5.843 -0.0386 -0.1264  0.0077
    1DIPC   GL2 4060   8.538   6.669   5.521 -0.2060 -0.3219 -0.1891
    1DIPC   C1A 4061   9.085   7.054   5.768 -0.1191  0.1806 -0.1336
    1DIPC   D2A 4062   9.424   7.240   5.670  0.0057  0.0044  0.1525
    1DIPC   D3A 4063   9.286   7.308   5.235  0.1136 -0.0473 -0.2912
    1DIPC   C4A 4064   9.541   7.270   4.911  0.1614 -0.1144  0.2373
    1DIPC   C1B 4065   8.345   6.867   5.261 -0.3368  0.1372  0.0319
    1DIPC   D2B 4066   8.374   6.979   4.782  0.0560 -0.1724  0.0507
    1DIPC   D3B 4067   8.084   6.753   4.875  0.0756 -0.3069  0.4375
    1DIPC   C4B 4068   7.872   6.363   5.003  0.0535 -0.0647 -0.0880
    1DIPC   NC3 4069   2.505  29.578   6.288 -0.0894  0.0122  0.3343
    1DIPC   PO4 4070   2.841   0.056   6.140 -0.2463 -0.1892  0.2445
    1DIPC   GL1 4071   2.882   0.425   5.799 -0.2567 -0.1233 -0.2258
    1DIPC   GL2 4072   2.841   0.688   5.779 -0.0461 -0.0641  0.2225
    1DIPC   C1A 4073   3.112   0.408   5.327  0.0538 -0.1513  0.1319
    1DIPC   D2A 4074   2.979   0.120   5.042  0.0100 -0.0711 -0.1759
    1DIPC   D3A 4075   3.054   0.342   4.641 -0.0043  0.3557  0.1216
    1DIPC   C4A 4076   3.020   0.295   4.248  0.1554  0.2104 -0.0852
    1DIPC   C1B 4077   2.436   0.772   5.653  0.1178 -0.0430  0.1513
    1DIPC   D2B 4078   2.219   0.628   5.364 -0.1515  0.1146  0.3291
    1DIPC   D3B 4079   2.165   0.783   4.881 -0.1074 -0.0878 -0.1858
    1DIPC   C4B 4080   1.784   0.712   4.595 -0.2292 -0.0428 -0.0394
    1DIPC   NC3 4081  28.355  23.778   6.896 -0.0378  0.1086  0.1011
    1DIPC   PO4 4082  28.802  23.905   6.699  0.3521  0.0539 -0.0781
    1DIPC   GL1 4083  28.872  23.794   6.263  0.1107  0.2128  0.1089
    1DIPC   GL2 4084  28.826  23.982   5.873  0.0917  0.0586 -0.3641
    1DIPC   C1A 4085  29.041  23.581   5.952  0.1736  0.3097 -0.0634
    1DIPC   D2A 4086  29.206  23.358   5.660 -0.0485 -0.1238 -0.1192
    1DIPC   D3A 4087  29.465  23.331   5.977  0.1195  0.1260  0.0597
    1DIPC   C4A 4088   0.037  23.035   6.226 -0.3128 -0.0408  0.4447
    1DIPC   C1B 4089  28.717  24.061   5.424 -0.0408 -0.0032  0.4721
    1DIPC   D2B 4090  28.530  23.916   5.082 -0.0073 -0.1854 -0.1948
    1DIPC   D3B 4091  28.072  23.796   4.946  0.3077  0.0814 -0.0291
    1DIPC   C4B 4092  27.886  23.907   4.571 -0.1944  0.0034 -0.0762
    1DIPC   NC3 4093  16.707  21.439   7.132  0.0271 -0.0974  0.0034
    1DIPC   PO4 4094  16.794  21.637   6.774 -0.2309 -0.3732 -0.1791
    1DIPC   GL1 4095  16.827  21.627   6.296 -0.1055  0.3755 -0.0229
    1DIPC   GL2 4096  16.759  21.340   6.268  0.1630 -0.0545 -0.0902
    1DIPC   C1A 4097  16.898  21.616   5.760 -0.4507 -0.0157  0.0189
    1DIPC   D2A 4098  16.979  21.346   5.477 -0.2686  0.1650  0.0738
    1DIPC   D3A 4099  16.765  21.359   5.065 -0.3633  0.2212 -0.0334
    1DIPC   C4A 4100  16.380  21.251   4.802  0.0399 -0.1655 -0.0204
    1DIPC   C1B 4101  16.435  21.356   5.922 -0.1718 -0.1242 -0.2850
    1DIPC   D2B 4102  16.504  21.446   5.542 -0.0517 -0.1325  0.1348
    1DIPC   D3B 4103  16.610  21.028   5.455  0.1087 -0.0203  0.1482
    1DIPC   C4B 4104  16.656  20.842   5.069  0.0141  0.0408 -0.2089
    1DIPC   NC3 4105   6.581  13.121   5.914  0.0404 -0.1247  0.1695
    1DIPC   PO4 4106   6.221  13.408   5.762  0.2650  0.2213 -0.2740
    1DIPC   GL1 4107   6.067  13.551   5.388 -0.0648 -0.4229 -0.0397
    1DIPC   GL2 4108   5.952  13.247   5.201  0.1162  0.1778 -0.0316
    1DIPC   C1A 4109   6.235  13.590   5.005  0.1485 -0.0012 -0.0812
    1DIPC   D2A 4110   6.596  13.276   4.863 -0.0193 -0.1401  0.0681
    1DIPC   D3A 4111   6.818  13.648   5.087  0.4223  0.1786 -0.0339
    1DIPC   C4A 4112   6.455  14.017   5.244 -0.0306 -0.2329 -0.0607
    1DIPC   C1B 4113   5.650  12.957   5.051  0.0457 -0.0145  0.0584
    1DIPC   D2B 4114   5.550  12.784   4.684  0.4194 -0.0754 -0.0210
    1DIPC   D3B 4115   5.365  12.556   4.947 -0.0914 -0.0749  0.2282
    1DIPC   C4B 4116   5.010  12.259   4.978  0.0412  0.0427  0.1434
    1DIPC   NC3 4117   4.020  27.222   6.742  0.0151 -0.1881  0.0160
    1DIPC   PO4 4118   3.757  27.668   6.659 -0.4669 -0.3602 -0.1258
    1DIPC   GL1 4119   3.872  27.480   6.358  0.2444 -0.0513 -0.0135
    1DIPC   GL2 4120   3.871  27.153   6.256 -0.0354  0.1328 -0.2129
    1DIPC   C1A 4121   3.821  27.530   5.863 -0.1175 -0.0387  0.0122
    1DIPC   D2A 4122   3.674  27.964   5.654 -0.1176  0.1115  0.3111
    1DIPC   D3A 4123   3.362  27.921   6.055  0.1000  0.0671 -0.2435
    1DIPC   C4A 4124   2.979  27.644   6.090  0.3999  0.1063 -0.1675
    1DIPC   C1B 4125   3.664  26.978   5.848  0.0175  0.1231 -0.0125
    1DIPC   D2B 4126   3.459  27.051   5.381 -0.1370 -0.0361 -0.3505
    1DIPC   D3B 4127   3.421  26.685   5.216 -0.1862 -0.0494  0.0250
    1DIPC   C4B 4128   2.997  26.470   5.129  0.2171 -0.1577 -0.0580
    1DIPC   NC3 4129   4.847   8.150   6.140  0.2338  0.0263 -0.1418
    1DIPC   PO4 4130   4.646   7.763   5.782  0.0538 -0.0152 -0.2306
    1DIPC   GL1 4131   4.669   7.818   5.336 -0.2880 -0.0954 -0.1540
    1DIPC   GL2 4132   4.862   7.633   5.091 -0.1577  0.1018  0.4986
    1DIPC   C1A 4133   4.520   7.961   4.917  0.3137  0.0023  0.0621
    1DIPC   D2A 4134   4.338   7.880   4.459 -0.0033 -0.0375 -0.0270
    1DIPC   D3A 4135   4.368   8.193   4.112 -0.3045 -0.0828 -0.2015
    1DIPC   C4A 4136   4.746   8.262   3.912 -0.1376 -0.0989  0.1552
    1DIPC   C1B 4137   5.194   7.346   4.881  0.1864  0.1900  0.3129
    1DIPC   D2B 4138   5.644   7.225   4.805 -0.4708 -0.4616  0.3165
    1DIPC   D3B 4139   5.550   7.405   4.357  0.3687  0.0119  0.0190
    1DIPC   C4B 4140   5.202   7.620   4.437 -0.0699 -0.1053 -0.2510
    1DIPC   NC3 4141   5.348  16.399   6.375 -0.0155 -0.0098 -0.1255
    1DIPC   PO4 4142   5.713  16.071   6.354 -0.2929  0.0168 -0.2832
    1DIPC   GL1 4143   5.891  16.052   5.869 -0.1497 -0.0932 -0.1299
    1DIPC   GL2 4144   6.247  16.181   5.795  0.1877  0.1556  0.2236
    1DIPC   C1A 4145   5.944  15.899   5.466 -0.0190  0.0385 -0.1876
    1DIPC   D2A 4146   5.606  16.039   5.129 -0.1677 -0.0033 -0.2386
    1DIPC   D3A 4147   5.291  15.713   4.984 -0.2082  0.1318  0.0978
    1DIPC   C4A 4148   5.345  15.597   4.455 -0.0646 -0.0839  0.1152
    1DIPC   C1B 4149   6.371  16.098   5.387 -0.1030  0.4214 -0.0696
    1DIPC   D2B 4150   6.440  16.022   4.985 -0.0266  0.0906 -0.1485
    1DIPC   D3B 4151   6.147  16.394   4.802 -0.1728 -0.0885 -0.0881
    1DIPC   C4B 4152   5.691  16.403   4.805  0.0903 -0.0140 -0.1776
    1DIPC   NC3 4153  23.981   2.157   7.604 -0.0805 -0.0251  0.2589
    1DIPC   PO4 4154  23.599   2.048   7.304 -0.1956 -0.0782  0.0502
    1DIPC   GL1 4155  23.411   2.317   7.060 -0.1377 -0.2150 -0.2244
    1DIPC   GL2 4156  23.104   2.445   7.069  0.4876  0.1224  0.0651
    1DIPC   C1A 4157  23.370   2.187   6.656  0.0323  0.1583 -0.2585
    1DIPC   D2A 4158  23.475   2.476   6.340 -0.0042 -0.0138  0.1078
    1DIPC   D3A 4159  23.492   2.108   6.027 -0.0250  0.3929  0.1696
    1DIPC   C4A 4160  23.051   2.102   5.709 -0.1788  0.2493  0.1747
    1DIPC   C1B 4161  23.175   2.669   6.677 -0.1166 -0.0568  0.2120
    1DIPC   D2B 4162  23.004   2.776   6.275  0.2536  0.0256 -0.0863
    1DIPC   D3B 4163  22.762   2.942   6.429  0.3058  0.1465  0.0436
    1DIPC   C4B 4164  22.721   2.742   6.817  0.0485 -0.0203  0.1666
    1DIPC   NC3 4165  11.725   6.087   5.810  0.3095 -0.0365  0.2692
    1DIPC   PO4 4166  11.929   6.017   5.498  0.2043  0.0345 -0.0573
    1DIPC   GL1 4167  11.993   6.058   5.074  0.0044 -0.2781 -0.1730
    1DIPC   GL2 4168  11.940   5.858   4.950 -0.2589 -0.1999  0.0531
    1DIPC   C1A 4169  12.037   6.140   4.580  0.2430  0.3198  0.1548
    1DIPC   D2A 4170  11.950   6.131   4.040 -0.2076 -0.0193 -0.0522
    1DIPC   D3A 4171  11.870   5.635   4.039  0.4669 -0.3459 -0.3878
    1DIPC   C4A 4172  11.509   5.503   4.181 -0.0247 -0.3615  0.1613
    1DIPC   C1B 4173  11.830   5.440   4.818  0.0532  0.1869 -0.0296
    1DIPC   D2B 4174  12.084   5.093   4.715  0.0359 -0.3596 -0.1216
    1DIPC   D3B 4175  11.794   4.880   4.796  0.1034  0.0122 -0.0038
    1DIPC   C4B 4176  11.662   4.467   4.403 -0.2455 -0.1385  0.4928
    1DIPC   NC3 4177   1.934  25.077   7.080 -0.1009 -0.1373  0.1177
    1DIPC   PO4 4178   1.707  24.812   6.803  0.1080  0.3063  0.0551
    1DIPC   GL1 4179   1.784  24.924   6.395  0.3950 -0.0758 -0.2141
    1DIPC   GL2 4180   1.958  25.242   6.457 -0.0314  0.1751  0.0917
    1DIPC   C1A 4181   1.835  24.871   5.937  0.4959 -0.2626 -0.2362
    1DIPC   D2A 4182   2.013  24.824   5.475 -0.0952 -0.0782  0.2673
    1DIPC   D3A 4183   1.841  24.430   5.240  0.2083  0.0507 -0.1232
    1DIPC   C4A 4184   1.636  24.135   5.613  0.0359  0.0919 -0.1572
    1DIPC   C1B 4185   2.151  25.257   6.034 -0.0143  0.2143 -0.0456
    1DIPC   D2B 4186   2.193  25.279   5.643 -0.4516  0.0216 -0.1548
    1DIPC   D3B 4187   2.298  25.178   5.165  0.1056 -0.0298  0.1999
    1DIPC   C4B 4188   2.266  24.683   5.020 -0.0300  0.1921  0.2152
    1DIPC   NC3 4189  12.116   8.262   6.397 -0.0520 -0.0372  0.1555
    1DIPC   PO4 4190  12.014   7.855   6.213  0.0799  0.0026  0.2532
    1DIPC   GL1 4191  12.099   7.877   5.833 -0.2416  0.0692 -0.3015
    1DIPC   GL2 4192  11.956   7.674   5.640 -0.1791 -0.0192 -0.0619
    1DIPC   C1A 4193  12.113   8.221   5.595  0.0397  0.1306 -0.0056
    1DIPC   D2A 4194  12.321   8.417   5.272 -0.0009  0.0883 -0.1160
    1DIPC   D3A 4195  12.001   8.459   4.904 -0.0807 -0.0199 -0.1176
    1DIPC   C4A 4196  11.939   8.122   4.677 -0.3686 -0.0963  0.0440
    1DIPC   C1B 4197  12.305   7.762   5.402 -0.2442  0.0771 -0.2412
    1DIPC   D2B 4198  12.692   8.017   5.354  0.0511 -0.3716  0.1648
    1DIPC   D3B 4199  12.423   8.027   4.941  0.1118  0.1474  0.2490
    1DIPC   C4B 4200  12.465   7.887   4.481  0.2034  0.3459  0.0972
    1DIPC   NC3 4201  16.532  19.075   6.616 -0.2039  0.1806  0.0818
    1DIPC   PO4 4202  16.621  19.327   6.326  0.1656 -0.2579 -0.3468
    1DIPC   GL1 4203  16.739  19.565   6.007 -0.0859 -0.0475 -0.0476
    1DIPC   GL2 4204  16.948  19.481   5.794  0.0647 -0.2411  0.0676
    1DIPC   C1A 4205  16.560  19.611   5.521 -0.4993  0.2138  0.0813
    1DIPC   D2A 4206  16.569  19.547   5.067  0.1500 -0.0721  0.1989
    1DIPC   D3A 4207  16.980  19.432   5.314 -0.1446 -0.1555 -0.0149
    1DIPC   C4A 4208  17.366  19.479   5.089 -0.2861  0.0447 -0.0384
    1DIPC   C1B 4209  17.287  19.728   5.688 -0.3469  0.1051  0.2971
    1DIPC   D2B 4210  17.510  19.915   5.363  0.1814  0.2437 -0.1956
    1DIPC   D3B 4211  17.948  20.008   5.469 -0.0356  0.1009  0.4501
    1DIPC   C4B 4212  18.093  19.990   5.894  0.2124 -0.1454 -0.2776
    1DIPC   NC3 4213   2.492  24.478   6.746 -0.4384  0.2605 -0.0751
    1DIPC   PO4 4214   2.799  24.692   7.020  0.3669  0.0986  0.1953
    1DIPC   GL1 4215   2.903  24.765   6.505  0.0994 -0.0287 -0.1868
    1DIPC   GL2 4216   3.134  25.040   6.424  0.3213  0.0875  0.1981
    1DIPC   C1A 4217   2.737  24.563   6.119 -0.1574  0.2573  0.1266
    1DIPC   D2A 4218   2.614  24.206   5.873 -0.2979  0.0754  0.0427
    1DIPC   D3A 4219   2.556  23.827   5.652 -0.1042  0.0499 -0.2199
    1DIPC   C4A 4220   2.718  23.788   5.333  0.0110 -0.2204 -0.2026
    1DIPC   C1B 4221   2.932  24.995   5.978  0.0846 -0.1916  0.4068
    1DIPC   D2B 4222   3.036  25.072   5.507 -0.1650 -0.0457  0.1892
    1DIPC   D3B 4223   2.740  25.201   5.366 -0.1133  0.3204  0.1633
    1DIPC   C4B 4224   2.703  24.933   5.013  0.1363 -0.0570 -0.1238
    1DIPC   NC3 4225  17.298  20.472   6.622 -0.0052 -0.1261  0.0350
    1DIPC   PO4 4226  17.719  20.616   6.787  0.0731 -0.0915 -0.0923
    1DIPC   GL1 4227  17.713  20.873   6.421  0.2170  0.2206  0.1017
    1DIPC   GL2 4228  17.959  20.928   6.293  0.0165  0.0939  0.0998
    1DIPC   C1A 4229  17.596  20.751   6.054  0.2308  0.1915  0.2231
    1DIPC   D2A 4230  17.285  20.478   6.085  0.0757  0.1305 -0.1832
    1DIPC   D3A 4231  17.077  20.825   6.318  0.4053  0.1933 -0.0113
    1DIPC   C4A 4232  16.760  20.964   5.979 -0.2847 -0.1658 -0.3515
    1DIPC   C1B 4233  18.072  20.955   5.930  0.2055  0.0285 -0.1041
    1DIPC   D2B 4234  18.208  21.059   5.374 -0.0870  0.5641 -0.0226
    1DIPC   D3B 4235  18.440  21.311   5.581  0.2266  0.0888  0.2031
    1DIPC   C4B 4236  18.703  21.417   5.472 -0.0512 -0.3150 -0.0167
    1DIPC   NC3 4237   7.812  17.704   6.564 -0.0091 -0.2001 -0.0104
    1DIPC   PO4 4238   7.935  18.142   6.684  0.0191 -0.1409  0.2083
    1DIPC   GL1 4239   7.812  18.182   6.230  0.0435  0.0077  0.0082
    1DIPC   GL2 4240   7.920  18.433   5.959 -0.0700  0.0530  0.0235
    1DIPC   C1A 4241   7.827  17.949   5.826  0.0710 -0.2538  0.2747
    1DIPC   D2A 4242   7.848  17.863   5.385  0.2091 -0.5200  0.1984
    1DIPC   D3A 4243   8.322  17.820   5.485  0.0935 -0.0472 -0.0027
    1DIPC   C4A 4244   8.465  17.634   5.892 -0.1154  0.0667  0.2772
    1DIPC   C1B 4245   7.761  18.428   5.563  0.0341 -0.1333 -0.3602
    1DIPC   D2B 4246   7.357  18.298   5.390 -0.4808 -0.2242  0.2394
    1DIPC   D3B 4247   7.312  18.376   4.918  0.0647  0.2926 -0.1289
    1DIPC   C4B 4248   7.301  18.750   4.836 -0.4459  0.1396 -0.0891
    1DIPC   NC3 4249  24.724  28.374   6.965  0.0280 -0.0660 -0.1759
    1DIPC   PO4 4250  24.358  28.686   7.098  0.0776  0.0024  0.0797
    1DIPC   GL1 4251  24.471  28.746   6.682  0.0275 -0.2643  0.1289
    1DIPC   GL2 4252  24.699  28.556   6.464  0.1425 -0.0572  0.1246
    1DIPC   C1A 4253  24.514  28.960   6.245  0.0107  0.0253 -0.0839
    1DIPC   D2A 4254  24.379  29.312   5.965 -0.0917 -0.1188  0.0717
    1DIPC   D3A 4255  24.390  28.920   5.775 -0.0842 -0.0310  0.1550
    1DIPC   C4A 4256  24.252  28.584   6.046 -0.3052 -0.0099  0.2185
    1DIPC   C1B 4257  24.896  28.617   6.042 -0.0365  0.3334 -0.1086
    1DIPC   D2B 4258  24.994  28.528   5.662  0.0414 -0.0297  0.3934
    1DIPC   D3B 4259  24.971  28.360   5.244 -0.0576  0.1053  0.2103
    1DIPC   C4B 4260  25.034  27.871   5.170  0.2624  0.0668 -0.1618
    1DIPC   NC3 4261   5.708   4.030   6.436 -0.5254 -0.3286 -0.3586
    1DIPC   PO4 4262   5.441   3.796   6.228 -0.1246  0.2424  0.1762
    1DIPC   GL1 4263   5.534   3.764   5.871 -0.5570 -0.0883  0.1680
    1DIPC   GL2 4264   5.819   3.881   5.786  0.0158  0.1095  0.1497
    1DIPC   C1A 4265   5.451   3.551   5.443  0.1180 -0.0749  0.2537
    1DIPC   D2A 4266   5.720   3.175   5.142  0.1612  0.1392  0.0210
    1DIPC   D3A 4267   5.819   3.208   4.586  0.3998  0.0738 -0.1375
    1DIPC   C4A 4268   5.523   3.519   4.292 -0.1006 -0.1106 -0.2770
    1DIPC   C1B 4269   5.924   3.740   5.370 -0.0354 -0.0478  0.1766
    1DIPC   D2B 4270   5.652   3.684   4.939 -0.1502 -0.0890 -0.0751
    1DIPC   D3B 4271   5.369   3.415   4.757 -0.1581  0.1322  0.1626
    1DIPC   C4B 4272   5.063   3.506   4.477 -0.1480  0.0113 -0.1974
    1DIPC   NC3 4273  26.731  20.946   7.349  0.0951  0.1601 -0.1094
    1DIPC   PO4 4274  26.494  20.560   7.185 -0.1174  0.1516 -0.0390
    1DIPC   GL1 4275  26.579  20.436   6.766  0.1572  0.1727  0.0613
    1DIPC   GL2 4276  26.437  20.186   6.787 -0.1252 -0.1918 -0.2551
    1DIPC   C1A 4277  26.709  20.501   6.274 -0.0899 -0.0163 -0.0557
    1DIPC   D2A 4278  26.708  20.395   5.853  0.2140 -0.1292  0.2538
    1DIPC   D3A 4279  26.452  19.973   5.786 -0.3088  0.3428 -0.3453
    1DIPC   C4A 4280  26.139  19.893   5.591 -0.0594  0.0539  0.2143
    1DIPC   C1B 4281  26.194  20.341   6.440 -0.1597 -0.1099 -0.0900
    1DIPC   D2B 4282  26.081  20.199   6.067  0.2076  0.0890  0.0742
    1DIPC   D3B 4283  25.681  20.021   5.859  0.0070 -0.2181 -0.3242
    1DIPC   C4B 4284  25.675  20.143   5.496 -0.0620 -0.0211 -0.1747
    1DIPC   NC3 4285   4.222   9.009   5.500 -0.2964  0.0603 -0.2250
    1DIPC   PO4 4286   4.240   8.590   5.425  0.3314  0.0167  0.2021
    1DIPC   GL1 4287   4.182   8.749   5.032  0.0605 -0.0745 -0.1494
    1DIPC   GL2 4288   4.043   8.413   4.833 -0.0513 -0.2038  0.1338
    1DIPC   C1A 4289   4.541   8.762   4.774  0.0573 -0.1568 -0.0077
    1DIPC   D2A 4290   4.666   9.084   4.444 -0.0430 -0.0172  0.2837
    1DIPC   D3A 4291   4.797   9.512   4.289  0.0198 -0.1221  0.0382
    1DIPC   C4A 4292   5.184   9.702   4.476  0.0366 -0.2394 -0.0712
    1DIPC   C1B 4293   3.984   8.505   4.392  0.0100 -0.3458 -0.1863
    1DIPC   D2B 4294   3.903   8.442   4.007  0.0404  0.0770  0.0018
    1DIPC   D3B 4295   3.659   8.788   3.988  0.0281 -0.1019  0.1599
    1DIPC   C4B 4296   3.159   8.785   4.002 -0.0327 -0.1862 -0.3750
    1DIPC   NC3 4297  25.307  28.800   7.282  0.1511 -0.2468 -0.1711
    1DIPC   PO4 4298  25.293  28.434   7.050  0.1004  0.0502 -0.4134
    1DIPC   GL1 4299  25.241  28.418   6.573 -0.6186 -0.4954 -0.2721
    1DIPC   GL2 4300  25.450  28.566   6.315 -0.0437 -0.0800 -0.1191
    1DIPC   C1A 4301  25.023  28.102   6.341  0.3004 -0.0261 -0.1594
    1DIPC   D2A 4302  25.058  27.995   5.848  0.2700 -0.0425 -0.1378
    1DIPC   D3A 4303  24.670  27.894   5.695  0.0490  0.4219 -0.0014
    1DIPC   C4A 4304  24.555  27.597   5.347  0.1788 -0.0856  0.3877
    1DIPC   C1B 4305  25.367  28.379   6.017  0.3955  0.0508  0.0712
    1DIPC   D2B 4306  25.405  28.206   5.582 -0.0213 -0.2098 -0.2297
    1DIPC   D3B 4307  25.481  27.775   5.643  0.2815 -0.0608 -0.1680
    1DIPC   C4B 4308  25.048  27.561   5.576  0.1912  0.2114 -0.1403
    1DIPC   NC3 4309   5.940  24.550   6.760 -0.2826  0.1677  0.1250
    1DIPC   PO4 4310   5.856  25.020   6.876  0.2077  0.2932  0.0407
    1DIPC   GL1 4311   5.534  24.907   6.493 -0.1006  0.0233  0.0613
    1DIPC   GL2 4312   5.782  25.069   6.163  0.1804  0.0756  0.1296
    1DIPC   C1A 4313   5.526  24.612   6.165  0.1115 -0.0866  0.0792
    1DIPC   D2A 4314   5.432  24.228   5.921  0.5949  0.0626 -0.1563
    1DIPC   D3A 4315   5.149  24.486   5.600 -0.0461  0.0385 -0.0870
    1DIPC   C4A 4316   4.742  24.445   5.491  0.0250  0.1676  0.0584
    1DIPC   C1B 4317   5.952  24.775   5.877  0.0589 -0.0083 -0.0828
    1DIPC   D2B 4318   6.235  24.886   5.670 -0.0602  0.0841  0.0251
    1DIPC   D3B 4319   6.097  24.991   5.311  0.0905  0.1047  0.1307
    1DIPC   C4B 4320   5.737  25.149   5.330 -0.1364 -0.0657 -0.0827
    1DIPC   NC3 4321  24.177  17.535   7.541 -0.0257 -0.2829 -0.1165
    1DIPC   PO4 4322  24.264  17.454   7.166 -0.1786  0.4590 -0.1306
    1DIPC   GL1 4323  24.044  17.411   6.805  0.0020 -0.0366  0.1206
    1DIPC   GL2 4324  23.736  17.612   6.733 -0.1838  0.0833  0.1486
    1DIPC   C1A 4325  24.110  17.337   6.386  0.1264  0.0159 -0.3167
    1DIPC   D2A 4326  24.393  17.337   6.020  0.2436 -0.2594 -0.1917
    1DIPC   D3A 4327  24.375  17.077   5.678 -0.0994 -0.0275 -0.1705
    1DIPC   C4A 4328  24.683  16.773   5.635 -0.2933 -0.0348  0.2182
    1DIPC   C1B 4329  23.800  17.714   6.317 -0.2425  0.1570 -0.2800
    1DIPC   D2B 4330  23.968  18.033   6.055  0.0109 -0.3190 -0.1214
    1DIPC   D3B 4331  24.171  17.867   5.700 -0.0941 -0.0169  0.1463
    1DIPC   C4B 4332  23.917  17.873   5.300  0.1728  0.2836 -0.0633
    1DIPC   NC3 4333   2.422   3.706   6.676  0.0980 -0.1225  0.0747
    1DIPC   PO4 4334   2.562   3.699   6.281 -0.2340  0.3440 -0.1188
    1DIPC   GL1 4335   2.579   3.574   5.943  0.0242  0.4465  0.0172
    1DIPC   GL2 4336   2.319   3.398   5.891  0.3053 -0.2014  0.1134
    1DIPC   C1A 4337   2.598   3.751   5.511  0.1196  0.0712  0.0823
    1DIPC   D2A 4338   2.352   3.952   5.169  0.1507 -0.2124 -0.2423
    1DIPC   D3A 4339   2.084   3.770   5.449  0.0079 -0.2765  0.1356
    1DIPC   C4A 4340   2.162   3.876   5.840  0.1804  0.0319 -0.0919
    1DIPC   C1B 4341   2.249   3.304   5.400 -0.2345 -0.0586  0.2692
    1DIPC   D2B 4342   2.273   3.498   4.974  0.2108 -0.0487 -0.0244
    1DIPC   D3B 4343   2.060   3.352   4.642  0.0168 -0.0549 -0.2973
    1DIPC   C4B 4344   2.207   3.184   4.289 -0.2995 -0.0911 -0.0165
    1DIPC   NC3 4345   4.050   6.247   6.385  0.0600 -0.0636 -0.1605
    1DIPC   PO4 4346   3.947   6.454   5.956 -0.2228  0.3037  0.1558
    1DIPC   GL1 4347   4.162   6.383   5.549 -0.1162  0.2112 -0.0852
    1DIPC   GL2 4348   4.137   6.595   5.350  0.2236  0.0708  0.0002
    1DIPC   C1A 4349   4.091   6.116   5.315 -0.0688  0.2051 -0.1199
    1DIPC   D2A 4350   4.029   5.937   4.888  0.1910 -0.3876 -0.0444
    1DIPC   D3A 4351   4.022   5.840   4.453  0.0037  0.2002  0.0911
    1DIPC   C4A 4352   3.750   6.028   4.177  0.0339 -0.1249  0.5478
    1DIPC   C1B 4353   4.173   6.864   5.028  0.1670 -0.2263 -0.0743
    1DIPC   D2B 4354   4.017   7.281   4.845  0.0588 -0.0710 -0.0023
    1DIPC   D3B 4355   4.458   7.495   4.834  0.1807  0.2902 -0.0391
    1DIPC   C4B 4356   4.704   7.572   4.596 -0.0767 -0.1249  0.2934
    1DIPC   NC3 4357  12.107  15.486   6.268  0.0746  0.0395  0.0860
    1DIPC   PO4 4358  11.883  15.734   6.178  0.0452  0.1195  0.1976
    1DIPC   GL1 4359  11.859  15.585   5.749 -0.1913  0.0635 -0.1887
    1DIPC   GL2 4360  11.642  15.693   5.491  0.2555 -0.1722 -0.2204
    1DIPC   C1A 4361  12.028  15.297   5.479 -0.1128  0.2560  0.0496
    1DIPC   D2A 4362  12.452  15.116   5.493  0.0823  0.0272 -0.1844
    1DIPC   D3A 4363  12.748  14.910   5.247 -0.0004  0.2434  0.0399
    1DIPC   C4A 4364  12.727  14.933   4.806 -0.0639 -0.0598  0.1794
    1DIPC   C1B 4365  11.821  15.530   5.106  0.1900 -0.1605 -0.2088
    1DIPC   D2B 4366  11.881  15.213   4.930  0.0646  0.0187  0.1489
    1DIPC   D3B 4367  12.357  15.348   4.944  0.1940 -0.0537  0.1077
    1DIPC   C4B 4368  12.319  15.691   5.335 -0.0310  0.3225 -0.0431
    1DIPC   NC3 4369   5.733  24.401   7.656 -0.3879 -0.1616  0.0023
    1DIPC   PO4 4370   5.874  24.298   7.237  0.0677  0.0475 -0.1604
    1DIPC   GL1 4371   5.546  24.257   6.916  0.0707 -0.0397  0.0728
    1DIPC   GL2 4372   5.284  24.432   6.713 -0.0032 -0.2600  0.1352
    1DIPC   C1A 4373   5.306  23.884   6.653  0.0074  0.0680  0.3637
    1DIPC   D2A 4374   5.224  23.526   6.522  0.0547  0.1580  0.2905
    1DIPC   D3A 4375   5.245  23.853   6.164  0.1861 -0.2202  0.4433
    1DIPC   C4A 4376   5.043  24.209   6.222 -0.0798  0.0870 -0.1475
    1DIPC   C1B 4377   5.015  24.658   6.489 -0.1242  0.1987 -0.0156
    1DIPC   D2B 4378   4.990  24.908   6.068  0.2949  0.2313 -0.1337
    1DIPC   D3B 4379   5.407  25.013   5.853 -0.2530  0.3407  0.2507
    1DIPC   C4B 4380   5.530  25.463   5.981 -0.2809 -0.0795  0.1054
    1DIPC   NC3 4381  10.827  27.640   6.344  0.0218 -0.1226 -0.0189
    1DIPC   PO4 4382  11.261  27.452   6.407  0.1677 -0.3075 -0.2707
    1DIPC   GL1 4383  11.154  27.489   5.893  0.0483  0.2850 -0.1290
    1DIPC   GL2 4384  10.920  27.231   5.826  0.0920 -0.1387  0.0285
    1DIPC   C1A 4385  10.994  27.721   5.579 -0.0952  0.1339 -0.0436
    1DIPC   D2A 4386  11.095  27.936   5.190 -0.0018  0.1250  0.0166
    1DIPC   D3A 4387  11.312  27.681   4.910 -0.1562  0.2326  0.0719
    1DIPC   C4A 4388  11.259  27.331   4.618  0.0613 -0.2633  0.3976
    1DIPC   C1B 4389  10.634  27.331   5.474 -0.3284 -0.0833 -0.1264
    1DIPC   D2B 4390  10.194  27.584   5.474  0.1500 -0.3106 -0.1807
    1DIPC   D3B 4391  10.385  27.633   5.158 -0.1413 -0.1061  0.1525
    1DIPC   C4B 4392  10.552  27.929   5.311 -0.1225  0.2278  0.1988
    1DIPC   NC3 4393   2.860  22.479   7.431 -0.2397  0.1501 -0.1197
    1DIPC   PO4 4394   2.965  22.502   6.993  0.2010  0.3808  0.0154
    1DIPC   GL1 4395   2.982  22.556   6.488  0.0517  0.1086 -0.0223
    1DIPC   GL2 4396   2.783  22.764   6.369  0.0111 -0.1038  0.1654
    1DIPC   C1A 4397   3.031  22.422   6.001 -0.2602  0.4108 -0.2270
    1DIPC   D2A 4398   3.132  22.484   5.548 -0.0119  0.0173  0.2485
    1DIPC   D3A 4399   2.898  22.402   5.177 -0.2049  0.0617 -0.1457
    1DIPC   C4A 4400   2.777  21.953   5.302 -0.0188 -0.0351 -0.0250
    1DIPC   C1B 4401   2.962  22.935   5.887 -0.2202  0.1940 -0.0983
    1DIPC   D2B 4402   3.226  22.948   5.453  0.3663  0.0336  0.0552
    1DIPC   D3B 4403   2.988  22.910   5.141 -0.1532  0.0348  0.1254
    1DIPC   C4B 4404   2.724  22.699   4.753  0.0156 -0.0842  0.2220
    1DIPC   NC3 4405  12.835   5.380   6.057  0.0489 -0.0047  0.1112
    1DIPC   PO4 4406  13.183   5.013   6.104  0.1338  0.0003 -0.0371
    1DIPC   GL1 4407  13.213   5.163   5.682  0.0690  0.0222 -0.0228
    1DIPC   GL2 4408  13.284   4.963   5.462  0.0703  0.0636 -0.1680
    1DIPC   C1A 4409  13.474   5.412   5.328 -0.4511 -0.2985 -0.2079
    1DIPC   D2A 4410  13.688   5.486   4.955  0.3729  0.1332 -0.1038
    1DIPC   D3A 4411  14.025   5.700   4.743  0.2664  0.1093  0.3520
    1DIPC   C4A 4412  14.190   5.368   4.532 -0.1989  0.3879 -0.3321
    1DIPC   C1B 4413  13.531   4.620   5.361  0.1035 -0.0409  0.1894
    1DIPC   D2B 4414  13.729   4.297   5.072 -0.2886 -0.0003 -0.0344
    1DIPC   D3B 4415  14.089   4.003   4.965  0.0785  0.1205 -0.1596
    1DIPC   C4B 4416  14.205   3.814   5.333  0.0491 -0.1372  0.0702
    1DIPC   NC3 4417   4.683  15.958   6.641  0.0713  0.1970  0.4780
    1DIPC   PO4 4418   4.882  16.353   6.580  0.1637  0.3632  0.0518
    1DIPC   GL1 4419   4.842  16.377   6.080 -0.2456  0.1204  0.2684
    1DIPC   GL2 4420   4.569  16.608   5.957 -0.1221 -0.2827  0.0911
    1DIPC   C1A 4421   4.928  16.152   5.737  0.0794  0.1247 -0.1443
    1DIPC   D2A 4422   5.005  15.976   5.280  0.1978 -0.1818 -0.0500
    1DIPC   D3A 4423   4.936  15.967   4.827  0.1781  0.0177  0.0053
    1DIPC   C4A 4424   4.435  15.908   4.755  0.2130 -0.2450 -0.1634
    1DIPC   C1B 4425   4.628  16.582   5.552  0.1534 -0.1893  0.0631
    1DIPC   D2B 4426   4.724  16.453   5.085  0.3145  0.1899  0.1102
    1DIPC   D3B 4427   4.472  16.548   4.726 -0.1306  0.2674 -0.1965
    1DIPC   C4B 4428   4.598  16.732   4.397 -0.2602  0.0088  0.0015
    1DIPC   NC3 4429  13.623   8.854   6.299 -0.0531  0.0998  0.1063
    1DIPC   PO4 4430  13.261   8.628   6.503  0.1899  0.2055 -0.2506
    1DIPC   GL1 4431  13.005   8.704   6.105 -0.1668 -0.0666 -0.2384
    1DIPC   GL2 4432  13.192   8.480   5.981 -0.0961  0.2287 -0.1106
    1DIPC   C1A 4433  12.962   8.936   5.724  0.1874 -0.0698 -0.1011
    1DIPC   D2A 4434  12.961   8.852   5.375 -0.4104 -0.2713  0.0887
    1DIPC   D3A 4435  12.522   8.866   5.125 -0.1629  0.0854  0.1513
    1DIPC   C4A 4436  12.487   8.576   4.754 -0.1887 -0.0151 -0.2539
    1DIPC   C1B 4437  13.319   8.120   5.589 -0.0378 -0.1348  0.3457
    1DIPC   D2B 4438  13.190   7.832   5.238 -0.1435  0.0974 -0.0385
    1DIPC   D3B 4439  13.578   7.910   5.042  0.1509 -0.0117 -0.1750
    1DIPC   C4B 4440  13.677   8.184   4.721 -0.2431 -0.1390  0.1239
    1DIPC   NC3 4441  16.568  20.933   7.032 -0.2043 -0.0850 -0.1596
    1DIPC   PO4 4442  16.868  21.023   6.767  0.2472 -0.2752 -0.0631
    1DIPC   GL1 4443  17.192  21.332   6.487  0.0537 -0.0346  0.0240
    1DIPC   GL2 4444  17.467  21.378   6.485  0.0227 -0.0341  0.0802
    1DIPC   C1A 4445  17.203  21.255   6.051 -0.1742 -0.0458  0.0715
    1DIPC   D2A 4446  17.097  20.866   5.650 -0.1129 -0.2208  0.0042
    1DIPC   D3A 4447  17.488  21.033   5.684 -0.1754  0.0392  0.2201
    1DIPC   C4A 4448  17.823  20.829   5.531 -0.1301 -0.0905 -0.2075
    1DIPC   C1B 4449  17.716  21.274   6.086  0.0919  0.2530 -0.1795
    1DIPC   D2B 4450  17.881  21.364   5.693  0.1259 -0.1340 -0.1003
    1DIPC   D3B 4451  17.703  21.361   5.240  0.0545  0.0236 -0.3531
    1DIPC   C4B 4452  17.351  21.529   5.121 -0.1141 -0.1532 -0.0062
    1DIPC   NC3 4453   7.046   2.767   6.814 -0.0474  0.2653 -0.2647
    1DIPC   PO4 4454   6.783   2.686   6.454  0.1357  0.0326  0.0157
    1DIPC   GL1 4455   6.926   2.808   6.062  0.1780 -0.2601 -0.2935
    1DIPC   GL2 4456   6.831   3.041   5.825  0.1639 -0.0993  0.0701
    1DIPC   C1A 4457   7.262   2.725   5.775 -0.1168  0.0986  0.0496
    1DIPC   D2A 4458   7.482   2.532   5.387 -0.3754  0.0153  0.0220
    1DIPC   D3A 4459   7.041   2.520   5.312 -0.0530  0.0495  0.1845
    1DIPC   C4A 4460   6.903   2.536   4.870 -0.1105  0.0631 -0.3523
    1DIPC   C1B 4461   6.609   3.397   5.641  0.0795 -0.2789 -0.3778
    1DIPC   D2B 4462   6.374   3.706   5.427  0.0028  0.0151  0.2571
    1DIPC   D3B 4463   6.544   4.058   5.410  0.0222 -0.3139  0.1949
    1DIPC   C4B 4464   6.467   4.482   5.115  0.2190  0.0671  0.1048
    1DIPC   NC3 4465  14.107  25.559   6.824 -0.2559 -0.5139 -0.1065
    1DIPC   PO4 4466  13.844  25.735   6.377  0.2999 -0.3176 -0.0602
    1DIPC   GL1 4467  14.010  25.889   5.946  0.0965 -0.2645  0.1940
    1DIPC   GL2 4468  13.990  26.184   5.931 -0.1274  0.2155 -0.0670
    1DIPC   C1A 4469  14.085  25.983   5.486  0.2220 -0.0829 -0.5043
    1DIPC   D2A 4470  14.167  26.023   5.051  0.0370 -0.0276 -0.1234
    1DIPC   D3A 4471  13.754  26.134   4.828  0.0100  0.1522 -0.1003
    1DIPC   C4A 4472  13.604  26.430   4.744  0.4512  0.0195 -0.1484
    1DIPC   C1B 4473  13.982  26.467   5.630 -0.2166 -0.0195  0.2362
    1DIPC   D2B 4474  13.841  26.519   5.229  0.3716 -0.1165 -0.0366
    1DIPC   D3B 4475  14.272  26.505   5.068  0.0305 -0.1456 -0.1915
    1DIPC   C4B 4476  14.140  26.394   4.645  0.1166  0.0989  0.2000
    1DIPC   NC3 4477   7.342  20.845   7.743 -0.0793 -0.0369  0.1374
    1DIPC   PO4 4478   7.667  20.855   7.383  0.0416  0.0481  0.0358
    1DIPC   GL1 4479   7.707  20.720   6.913  0.0354  0.0276 -0.5342
    1DIPC   GL2 4480   7.720  20.438   6.736 -0.2163  0.1839 -0.0582
    1DIPC   C1A 4481   7.736  20.927   6.566 -0.2147 -0.1432  0.0868
    1DIPC   D2A 4482   7.616  21.283   6.306  0.2083 -0.0637  0.0288
    1DIPC   D3A 4483   7.936  20.974   6.115 -0.1353  0.0281 -0.0649
    1DIPC   C4A 4484   8.135  20.581   6.226  0.0115  0.0852  0.0975
    1DIPC   C1B 4485   7.652  20.437   6.287 -0.2301 -0.1428  0.0818
    1DIPC   D2B 4486   7.614  20.693   5.898  0.1796  0.0763 -0.0939
    1DIPC   D3B 4487   7.786  20.284   5.778  0.1211 -0.1494  0.2147
    1DIPC   C4B 4488   8.216  20.200   5.923 -0.0725 -0.2153 -0.1539
    1DIPC   NC3 4489  23.655  18.283   7.351 -0.1325 -0.1197  0.0947
    1DIPC   PO4 4490  23.423  17.960   6.993 -0.1721 -0.1885 -0.1008
    1DIPC   GL1 4491  23.387  17.885   6.537  0.2016  0.3336 -0.1193
    1DIPC   GL2 4492  23.224  17.561   6.485  0.1118 -0.1429  0.4015
    1DIPC   C1A 4493  23.282  17.766   6.077 -0.3168 -0.0314  0.0386
    1DIPC   D2A 4494  23.059  17.761   5.876 -0.2096  0.0028  0.0777
    1DIPC   D3A 4495  23.215  17.497   5.597  0.0135 -0.2106 -0.0637
    1DIPC   C4A 4496  23.455  17.691   5.255  0.1076  0.0404  0.5479
    1DIPC   C1B 4497  23.188  17.317   6.188 -0.0444 -0.0191 -0.1488
    1DIPC   D2B 4498  23.098  17.091   5.863  0.1662  0.0622 -0.2475
    1DIPC   D3B 4499  22.736  17.267   5.723  0.0912  0.0195 -0.1606
    1DIPC   C4B 4500  22.841  17.654   5.381  0.4063  0.3753 -0.2738
    1DIPC   NC3 4501  22.620   3.190   7.735 -0.0194 -0.2419  0.1621
    1DIPC   PO4 4502  22.280   3.092   7.412 -0.1642 -0.0261  0.2038
    1DIPC   GL1 4503  22.190   3.282   7.051  0.1441  0.2278  0.1627
    1DIPC   GL2 4504  22.269   3.070   6.866 -0.0284 -0.1047  0.2079
    1DIPC   C1A 4505  22.334   3.616   6.715  0.1042 -0.0729  0.2746
    1DIPC   D2A 4506  22.080   3.840   6.531  0.0846 -0.1109  0.1197
    1DIPC   D3A 4507  22.007   3.897   6.112 -0.0309 -0.1245 -0.1226
    1DIPC   C4A 4508  22.115   3.802   5.778 -0.2278  0.0296 -0.1606
    1DIPC   C1B 4509  22.304   3.166   6.441 -0.0986  0.2264 -0.0744
    1DIPC   D2B 4510  22.368   3.519   6.203 -0.0692  0.0625 -0.2334
    1DIPC   D3B 4511  22.729   3.335   6.010  0.4167  0.1360 -0.1548
    1DIPC   C4B 4512  22.595   2.958   5.796 -0.0267 -0.2863  0.4608
    1DIPC   NC3 4513  12.172  12.493   5.587  0.0427  0.1123 -0.0833
    1DIPC   PO4 4514  12.319  12.038   5.576  0.0609  0.0861  0.0273
    1DIPC   GL1 4515  12.348  11.778   5.198 -0.2804  0.0168 -0.2710
    1DIPC   GL2 4516  12.631  11.529   5.124  0.1512  0.0736 -0.2049
    1DIPC   C1A 4517  12.348  11.923   4.722  0.0560  0.0959  0.1957
    1DIPC   D2A 4518  12.397  12.087   4.309  0.0727  0.2006  0.1264
    1DIPC   D3A 4519  12.737  11.884   4.422  0.3215  0.2346  0.1484
    1DIPC   C4A 4520  13.075  11.941   4.095 -0.3129  0.0170 -0.2009
    1DIPC   C1B 4521  12.377  11.331   4.860  0.0425 -0.2620 -0.1479
    1DIPC   D2B 4522  12.141  11.203   4.421 -0.0091 -0.0391 -0.0506
    1DIPC   D3B 4523  12.343  11.508   4.346 -0.4019 -0.1620 -0.1915
    1DIPC   C4B 4524  12.653  11.420   4.164 -0.1730 -0.4263  0.0362
    1DIPC   NC3 4525  15.299   1.521   6.530 -0.2312 -0.1968  0.1344
    1DIPC   PO4 4526  14.961   1.761   6.433  0.0257 -0.3189 -0.2144
    1DIPC   GL1 4527  14.865   1.782   5.957  0.0577 -0.0449  0.1841
    1DIPC   GL2 4528  15.041   1.555   5.782 -0.2451  0.2190  0.1933
    1DIPC   C1A 4529  14.804   1.932   5.459  0.1196  0.1185 -0.2397
    1DIPC   D2A 4530  14.701   2.049   5.079 -0.0686 -0.2683  0.0661
    1DIPC   D3A 4531  14.256   1.878   5.097 -0.2039  0.0151 -0.0030
    1DIPC   C4A 4532  14.054   1.473   5.121 -0.0341  0.0206 -0.0258
    1DIPC   C1B 4533  15.473   1.473   5.611 -0.1006  0.1405  0.0652
    1DIPC   D2B 4534  15.833   1.752   5.774 -0.1917 -0.0908 -0.1683
    1DIPC   D3B 4535  15.911   1.947   5.485  0.0866 -0.1287  0.0497
    1DIPC   C4B 4536  15.630   2.028   5.215  0.0967 -0.2664  0.1592
    1DIPC   NC3 4537  19.423   1.726   7.622  0.1270 -0.0781 -0.0913
    1DIPC   PO4 4538  19.497   1.586   7.153  0.1071  0.1434 -0.1041
    1DIPC   GL1 4539  19.593   1.468   6.751 -0.1349  0.0688 -0.0799
    1DIPC   GL2 4540  19.360   1.399   6.523  0.0035 -0.1591  0.2165
    1DIPC   C1A 4541  19.893   1.332   6.415 -0.1120 -0.0901 -0.0769
    1DIPC   D2A 4542  20.043   1.369   5.944 -0.2206  0.0404 -0.2714
    1DIPC   D3A 4543  20.072   1.767   6.244 -0.0824 -0.1185  0.1381
    1DIPC   C4A 4544  19.643   1.842   6.351 -0.2229 -0.2638  0.2418
    1DIPC   C1B 4545  19.545   0.943   6.527 -0.1470 -0.3236 -0.4239
    1DIPC   D2B 4546  19.562   0.566   6.382  0.0114 -0.0233 -0.0725
    1DIPC   D3B 4547  19.563   0.848   6.036  0.0467  0.1156 -0.2714
    1DIPC   C4B 4548  19.524   1.362   6.099 -0.2276  0.3949 -0.2043
    1DIPC   NC3 4549   0.888  21.773   7.176  0.3312  0.2247 -0.0188
    1DIPC   PO4 4550   1.263  21.686   7.348 -0.1187  0.0935  0.2339
    1DIPC   GL1 4551   1.289  21.767   6.873 -0.2035 -0.2449 -0.1424
    1DIPC   GL2 4552   0.943  21.892   6.701  0.2683  0.0933 -0.0909
    1DIPC   C1A 4553   1.333  21.703   6.481  0.0705 -0.0325 -0.0255
    1DIPC   D2A 4554   1.399  21.804   5.956  0.0389 -0.0338  0.1224
    1DIPC   D3A 4555   1.599  22.121   6.145  0.1078  0.0489  0.3446
    1DIPC   C4A 4556   1.498  22.602   6.283  0.2463  0.4720  0.3567
    1DIPC   C1B 4557   1.046  22.107   6.245  0.0647  0.1406 -0.2012
    1DIPC   D2B 4558   0.637  22.152   5.974 -0.1489 -0.1190 -0.2836
    1DIPC   D3B 4559   0.718  22.083   5.515 -0.1723 -0.2662 -0.0239
    1DIPC   C4B 4560   0.621  22.344   5.239  0.3651  0.0578  0.2112
    1DIPC   NC3 4561  15.040   8.848   6.768  0.1712 -0.2599  0.2767
    1DIPC   PO4 4562  15.067   8.717   6.409  0.3133  0.1437  0.3390
    1DIPC   GL1 4563  15.288   8.819   6.070 -0.0960  0.1327 -0.1857
    1DIPC   GL2 4564  15.584   9.010   6.072  0.2301 -0.1305 -0.0316
    1DIPC   C1A 4565  15.201   8.818   5.646 -0.0294  0.1540 -0.0623
    1DIPC   D2A 4566  15.275   8.993   5.236  0.1461 -0.4243 -0.2105
    1DIPC   D3A 4567  15.435   9.113   4.809  0.0238  0.0069  0.0229
    1DIPC   C4A 4568  15.235   8.966   4.560  0.2190 -0.2467  0.0128
    1DIPC   C1B 4569  15.861   9.205   6.007 -0.1145 -0.5073  0.1649
    1DIPC   D2B 4570  16.147   9.358   5.842  0.0746  0.0248 -0.2160
    1DIPC   D3B 4571  16.060   9.098   5.514  0.3549 -0.2357 -0.1590
    1DIPC   C4B 4572  16.353   9.238   5.276  0.0297 -0.0346 -0.1172
    1DIPC   NC3 4573  20.149  20.428   7.075  0.1544 -0.0024 -0.1017
    1DIPC   PO4 4574  20.213  19.951   7.212  0.0387 -0.0503  0.2457
    1DIPC   GL1 4575  20.314  19.957   6.848  0.1448 -0.1940 -0.1634
    1DIPC   GL2 4576  20.298  20.239   6.640  0.2140 -0.2301 -0.0633
    1DIPC   C1A 4577  20.042  19.796   6.476  0.2936  0.0571  0.1715
    1DIPC   D2A 4578  19.599  19.696   6.439  0.0035 -0.2620  0.2922
    1DIPC   D3A 4579  19.266  19.661   6.239  0.2040  0.0305  0.2646
    1DIPC   C4A 4580  18.970  19.918   6.143 -0.0727 -0.0126 -0.1402
    1DIPC   C1B 4581  20.462  20.321   6.244 -0.2381 -0.3070 -0.1952
    1DIPC   D2B 4582  20.582  20.314   5.830 -0.0337 -0.0124  0.2535
    1DIPC   D3B 4583  20.942  20.276   5.407  0.2258  0.1246 -0.3091
    1DIPC   C4B 4584  21.362  20.305   5.559  0.2683 -0.1728  0.0870
    1DIPC   NC3 4585   0.775   3.020   6.636  0.2377  0.2509 -0.0349
    1DIPC   PO4 4586   1.183   2.984   6.641  0.1303 -0.0704  0.0827
    1DIPC   GL1 4587   1.230   2.971   6.225 -0.2178  0.0787  0.0482
    1DIPC   GL2 4588   1.111   2.661   6.228 -0.0684 -0.1744 -0.0313
    1DIPC   C1A 4589   1.260   3.140   5.871  0.1281 -0.2210 -0.2396
    1DIPC   D2A 4590   1.328   2.972   5.414 -0.0087 -0.0685  0.0461
    1DIPC   D3A 4591   1.698   2.690   5.431 -0.0556  0.0804 -0.2299
    1DIPC   C4A 4592   1.985   2.872   5.317  0.0083 -0.2404 -0.0741
    1DIPC   C1B 4593   0.925   2.371   5.861  0.3223 -0.1184 -0.0507
    1DIPC   D2B 4594   0.927   2.019   5.559 -0.3060 -0.1401 -0.0954
    1DIPC   D3B 4595   0.715   2.107   5.146 -0.1271  0.0979 -0.0906
    1DIPC   C4B 4596   0.292   2.064   5.076 -0.0413  0.2226 -0.1413
    1DIPC   NC3 4597  25.663  18.470   6.966  0.2012 -0.2610  0.0970
    1DIPC   PO4 4598  25.268  18.693   6.834 -0.2211 -0.1733 -0.0695
    1DIPC   GL1 4599  25.174  18.888   6.418 -0.1298 -0.2189  0.2569
    1DIPC   GL2 4600  25.464  18.974   6.303 -0.2963  0.2381 -0.1424
    1DIPC   C1A 4601  25.039  18.813   6.044 -0.0351 -0.2025 -0.0887
    1DIPC   D2A 4602  24.609  18.668   5.984  0.1292  0.0866 -0.0599
    1DIPC   D3A 4603  24.530  18.853   5.468 -0.1091  0.1372 -0.0217
    1DIPC   C4A 4604  24.448  18.574   5.221 -0.2142 -0.1081  0.0860
    1DIPC   C1B 4605  25.530  18.933   5.914  0.1873  0.0349  0.1196
    1DIPC   D2B 4606  25.888  18.972   5.904 -0.0123 -0.0937 -0.3489
    1DIPC   D3B 4607  26.205  18.631   5.876  0.2097  0.0228 -0.1542
    1DIPC   C4B 4608  26.245  18.474   5.495 -0.2166  0.1821  0.1300
    1DIPC   NC3 4609   2.350  17.698   6.503 -0.1591  0.0477  0.3076
    1DIPC   PO4 4610   2.137  17.868   6.275  0.2098 -0.2381  0.3424
    1DIPC   GL1 4611   2.001  17.908   5.850  0.1012  0.1941  0.0646
    1DIPC   GL2 4612   1.912  17.769   5.705 -0.1405  0.3359 -0.1177
    1DIPC   C1A 4613   2.316  18.086   5.485  0.2709  0.4880 -0.2033
    1DIPC   D2A 4614   2.341  17.968   5.013  0.1480 -0.1812 -0.1723
    1DIPC   D3A 4615   1.872  18.036   5.000 -0.1308  0.0175 -0.2370
    1DIPC   C4A 4616   1.791  18.411   4.754 -0.3589 -0.0484  0.0836
    1DIPC   C1B 4617   1.693  17.748   5.388  0.1540  0.0061  0.1916
    1DIPC   D2B 4618   1.447  18.008   5.166  0.2433 -0.1544 -0.1521
    1DIPC   D3B 4619   1.428  18.426   5.170  0.1018  0.0869  0.0424
    1DIPC   C4B 4620   1.348  18.670   4.769 -0.2919 -0.0198 -0.2415
    1DIPC   NC3 4621  13.526  28.795   6.164 -0.1152  0.0165 -0.0093
    1DIPC   PO4 4622  13.596  29.077   6.418 -0.0229 -0.1237 -0.0777
    1DIPC   GL1 4623  13.744  29.245   6.033  0.2561 -0.0536  0.4245
    1DIPC   GL2 4624  13.656  29.116   5.711 -0.0551 -0.3421  0.1233
    1DIPC   C1A 4625  13.785  29.584   5.589  0.1135 -0.1366  0.2554
    1DIPC   D2A 4626  14.084  29.527   5.151  0.0132 -0.0525  0.1486
    1DIPC   D3A 4627  14.243   0.015   4.698 -0.3054 -0.0082 -0.1430
    1DIPC   C4A 4628  14.179   0.297   4.330  0.0734 -0.0121  0.0356
    1DIPC   C1B 4629  13.600  29.190   5.291  0.1682 -0.0883 -0.2105
    1DIPC   D2B 4630  13.221  29.247   4.981 -0.1324 -0.1421  0.0479
    1DIPC   D3B 4631  13.401  28.831   4.808 -0.0914  0.2120 -0.0101
    1DIPC   C4B 4632  13.150  28.608   4.508 -0.1610 -0.0411 -0.2751
    1DIPC   NC3 4633   7.143  10.021   6.355  0.3417 -0.2121 -0.2581
    1DIPC   PO4 4634   7.147  10.392   6.034 -0.2823 -0.3684 -0.3402
    1DIPC   GL1 4635   7.317  10.490   5.573 -0.0986  0.0142  0.4877
    1DIPC   GL2 4636   7.469  10.779   5.546 -0.0293 -0.0855 -0.0255
    1DIPC   C1A 4637   7.476  10.299   5.168  0.0410  0.0706  0.1117
    1DIPC   D2A 4638   7.242  10.442   4.825  0.0541  0.0543 -0.2735
    1DIPC   D3A 4639   7.511  10.175   4.654  0.0181  0.0169 -0.1917
    1DIPC   C4A 4640   7.896  10.157   4.891  0.1302 -0.2567 -0.1838
    1DIPC   C1B 4641   7.410  10.834   5.109  0.1816 -0.0403 -0.2671
    1DIPC   D2B 4642   7.243  11.180   4.846 -0.2545 -0.0925  0.2629
    1DIPC   D3B 4643   7.682  11.227   4.609  0.3668 -0.3583 -0.1265
    1DIPC   C4B 4644   7.783  11.094   4.233  0.2121  0.1106  0.2536
    1DIPC   NC3 4645  14.835  25.128   6.339 -0.0976 -0.2384  0.1506
    1DIPC   PO4 4646  14.317  24.997   6.235  0.0530  0.1033  0.2207
    1DIPC   GL1 4647  14.276  25.147   5.831 -0.2104 -0.0552  0.2593
    1DIPC   GL2 4648  14.049  25.436   5.733 -0.0131 -0.1076 -0.2627
    1DIPC   C1A 4649  14.160  25.050   5.396  0.0716 -0.0617 -0.0042
    1DIPC   D2A 4650  14.082  25.198   5.006 -0.0745 -0.2653  0.2191
    1DIPC   D3A 4651  14.311  25.137   4.622 -0.0206  0.1961 -0.1838
    1DIPC   C4A 4652  14.684  25.438   4.511 -0.0501 -0.0668  0.0199
    1DIPC   C1B 4653  13.896  25.523   5.343 -0.0254  0.2951  0.2376
    1DIPC   D2B 4654  13.816  25.654   4.931 -0.0622  0.0045  0.0389
    1DIPC   D3B 4655  14.223  25.665   4.738 -0.0200 -0.1589 -0.0479
    1DIPC   C4B 4656  14.367  25.736   4.283  0.0678  0.0684  0.0175
    1DIPC   NC3 4657  14.394  19.231   6.941 -0.1658 -0.3091 -0.1731
    1DIPC   PO4 4658  14.780  19.178   6.592 -0.3597  0.0401 -0.0171
    1DIPC   GL1 4659  14.967  19.123   6.185 -0.0769  0.2869 -0.0598
    1DIPC   GL2 4660  15.239  18.878   6.040  0.0067 -0.2703  0.0998
    1DIPC   C1A 4661  14.766  19.351   5.708 -0.1349 -0.1510  0.0420
    1DIPC   D2A 4662  14.919  19.622   5.426 -0.1229  0.2356  0.2940
    1DIPC   D3A 4663  14.753  19.605   5.005  0.1422  0.2046 -0.0416
    1DIPC   C4A 4664  14.917  19.814   4.577  0.0258 -0.0268  0.1415
    1DIPC   C1B 4665  15.276  19.174   5.714  0.0384  0.1652  0.0579
    1DIPC   D2B 4666  15.406  19.487   5.379  0.0719 -0.0931  0.1048
    1DIPC   D3B 4667  15.111  19.239   5.149 -0.1634 -0.2333 -0.0222
    1DIPC   C4B 4668  14.909  18.831   5.096  0.0766  0.0796 -0.0379
    1DIPC   NC3 4669   9.564  24.919   6.252 -0.0826 -0.1228  0.1286
    1DIPC   PO4 4670   9.593  24.581   6.042  0.0673 -0.1256  0.0174
    1DIPC   GL1 4671   9.669  24.717   5.787 -0.1571 -0.0181  0.2876
    1DIPC   GL2 4672   9.770  25.088   5.734  0.1031 -0.1177  0.0039
    1DIPC   C1A 4673   9.919  24.629   5.376 -0.2579 -0.1251 -0.3263
    1DIPC   D2A 4674  10.193  24.894   5.146 -0.2531  0.1847  0.1000
    1DIPC   D3A 4675  10.550  24.922   5.352 -0.4050 -0.2261 -0.1114
    1DIPC   C4A 4676  10.998  24.789   5.162 -0.0109  0.3056  0.1246
    1DIPC   C1B 4677   9.723  25.130   5.309  0.0212  0.1108  0.0904
    1DIPC   D2B 4678   9.725  25.062   4.820 -0.0109  0.2505  0.1675
    1DIPC   D3B 4679  10.086  25.287   4.813  0.0806  0.1282 -0.0087
    1DIPC   C4B 4680  10.109  25.721   4.809 -0.0607 -0.0399  0.1486
    1DIPC   NC3 4681   9.568  18.979   6.460 -0.1477 -0.0561 -0.0464
    1DIPC   PO4 4682   9.937  18.653   6.542  0.1455 -0.1392  0.3275
    1DIPC   GL1 4683   9.882  18.555   6.105 -0.1595  0.0625  0.0625
    1DIPC   GL2 4684   9.522  18.716   5.881  0.1020 -0.2002 -0.3246
    1DIPC   C1A 4685  10.216  18.271   5.852 -0.2928  0.3162  0.1004
    1DIPC   D2A 4686  10.528  18.301   5.566 -0.0482  0.0771 -0.1030
    1DIPC   D3A 4687  10.345  17.940   5.273 -0.2270 -0.0320 -0.1128
    1DIPC   C4A 4688  10.221  17.906   4.789  0.1853 -0.3354 -0.1074
    1DIPC   C1B 4689   9.409  18.654   5.451  0.1468 -0.0242 -0.0056
    1DIPC   D2B 4690   9.366  18.893   5.005 -0.1467  0.0671 -0.2308
    1DIPC   D3B 4691   9.164  18.826   4.582  0.0911 -0.0407  0.1512
    1DIPC   C4B 4692   8.829  18.502   4.582 -0.3017 -0.2487 -0.5569
    1DIPC   NC3 4693  16.767   5.452   6.731 -0.0162  0.2939 -0.0551
    1DIPC   PO4 4694  16.798   5.409   6.289  0.1332 -0.2109 -0.1661
    1DIPC   GL1 4695  16.513   5.489   6.028  0.0577  0.2197 -0.0925
    1DIPC   GL2 4696  16.740   5.399   5.756  0.3142 -0.3649  0.2390
    1DIPC   C1A 4697  16.344   5.678   5.593 -0.2832  0.0195 -0.1019
    1DIPC   D2A 4698  16.558   5.679   5.170 -0.1085  0.4026  0.1435
    1DIPC   D3A 4699  16.084   5.842   5.032  0.0722  0.2650  0.4735
    1DIPC   C4A 4700  15.972   5.696   4.613 -0.2326  0.0018 -0.0218
    1DIPC   C1B 4701  16.911   5.393   5.316 -0.0643  0.2185  0.0582
    1DIPC   D2B 4702  17.149   5.443   4.947 -0.0094  0.0127 -0.0941
    1DIPC   D3B 4703  16.662   5.306   4.777  0.2768 -0.1236 -0.0837
    1DIPC   C4B 4704  16.553   4.872   4.868  0.1256 -0.0645 -0.0504
    1DIPC   NC3 4705  11.077  28.520   6.469 -0.1241 -0.1309  0.1592
    1DIPC   PO4 4706  11.432  28.484   6.249  0.0322  0.1168  0.1835
    1DIPC   GL1 4707  11.393  28.482   5.895  0.6332  0.1289 -0.1072
    1DIPC   GL2 4708  11.356  28.766   5.751 -0.1428  0.0504 -0.1853
    1DIPC   C1A 4709  11.387  28.287   5.445 -0.2363  0.0994  0.1849
    1DIPC   D2A 4710  11.191  28.460   5.015 -0.3150  0.3012  0.0803
    1DIPC   D3A 4711  11.055  28.169   4.678  0.3436  0.0335  0.1073
    1DIPC   C4A 4712  10.766  27.899   4.788  0.0058  0.1664  0.5083
    1DIPC   C1B 4713  11.373  28.919   5.212  0.0311 -0.1014 -0.3030
    1DIPC   D2B 4714  11.292  28.997   4.887 -0.1719  0.4193 -0.0359
    1DIPC   D3B 4715  11.450  28.654   4.559  0.3362  0.3538  0.3341
    1DIPC   C4B 4716  11.385  28.818   4.150 -0.2005  0.0657  0.4538
    1DIPC   NC3 4717  21.130  22.413   7.204  0.1739 -0.0576 -0.0762
    1DIPC   PO4 4718  21.047  21.975   7.353 -0.1911 -0.1314  0.1943
    1DIPC   GL1 4719  20.865  21.974   6.933  0.2384  0.1392 -0.0499
    1DIPC   GL2 4720  20.968  22.223   6.806  0.2749  0.0259 -0.0566
    1DIPC   C1A 4721  20.646  21.959   6.454  0.0349 -0.1215 -0.2144
    1DIPC   D2A 4722  20.748  21.731   6.026  0.3660  0.1256 -0.0752
    1DIPC   D3A 4723  20.654  22.160   6.044 -0.1157 -0.0844  0.0784
    1DIPC   C4A 4724  20.188  22.147   5.932 -0.1174  0.0328  0.1694
    1DIPC   C1B 4725  21.025  22.388   6.314  0.1636  0.3837 -0.1344
    1DIPC   D2B 4726  20.989  22.598   5.936  0.1057 -0.2672 -0.0013
    1DIPC   D3B 4727  20.887  22.398   5.601 -0.1224  0.3426  0.0527
    1DIPC   C4B 4728  21.025  21.936   5.629  0.1424 -0.0712 -0.2199
    1DIPC   NC3 4729   5.737   9.017   5.842  0.0910 -0.0726 -0.0302
    1DIPC   PO4 4730   5.614   8.807   5.496  0.1784  0.0015  0.0823
    1DIPC   GL1 4731   5.830   8.698   5.178  0.0464 -0.0299  0.2004
    1DIPC   GL2 4732   5.989   8.481   5.285  0.0096 -0.0252  0.0062
    1DIPC   C1A 4733   6.122   8.838   4.988  0.4545  0.2320 -0.1266
    1DIPC   D2A 4734   6.258   8.929   4.698  0.0106  0.1024 -0.3586
    1DIPC   D3A 4735   6.196   9.361   4.709  0.4131 -0.0180 -0.2079
    1DIPC   C4A 4736   5.822   9.564   4.463 -0.1846  0.0148  0.0036
    1DIPC   C1B 4737   6.105   8.032   5.075 -0.2191 -0.1948 -0.1305
    1DIPC   D2B 4738   5.899   7.759   4.827  0.0796  0.2339  0.2685
    1DIPC   D3B 4739   6.007   7.629   4.471  0.1505 -0.2202  0.1488
    1DIPC   C4B 4740   6.173   7.352   4.310 -0.2131  0.0758  0.0803
    1DIPC   NC3 4741   0.972  21.292   7.392 -0.1184 -0.1013 -0.1133
    1DIPC   PO4 4742   0.722  20.969   7.435 -0.3353 -0.4839  0.0812
    1DIPC   GL1 4743   0.688  21.122   7.045 -0.2713  0.1085  0.0327
    1DIPC   GL2 4744   0.581  21.365   6.958 -0.1849 -0.0303  0.1272
    1DIPC   C1A 4745   0.685  20.944   6.569 -0.1634  0.0830 -0.2776
    1DIPC   D2A 4746   0.569  21.062   6.140 -0.0937 -0.0458 -0.1490
    1DIPC   D3A 4747   0.642  21.390   5.868  0.0335  0.2184  0.2945
    1DIPC   C4A 4748   0.404  21.708   5.888  0.0776  0.1502 -0.0618
    1DIPC   C1B 4749   0.426  21.366   6.638  0.1230 -0.2513 -0.0283
    1DIPC   D2B 4750   0.165  21.626   6.298 -0.0452 -0.0595  0.0295
    1DIPC   D3B 4751   0.542  21.754   6.388 -0.3078 -0.2383  0.3426
    1DIPC   C4B 4752   0.599  22.193   6.524 -0.2159  0.0000  0.3203
    1DIPC   NC3 4753   7.681   4.881   5.833  0.1311 -0.0198 -0.0012
    1DIPC   PO4 4754   7.565   5.137   5.493 -0.2124  0.0661 -0.3384
    1DIPC   GL1 4755   7.525   5.212   5.098  0.0501 -0.1404 -0.0417
    1DIPC   GL2 4756   7.252   5.369   5.110 -0.2765  0.2222 -0.2515
    1DIPC   C1A 4757   7.636   5.304   4.698 -0.0125 -0.0809  0.1506
    1DIPC   D2A 4758   7.483   5.553   4.447  0.0243 -0.0629  0.2637
    1DIPC   D3A 4759   7.309   5.498   4.026 -0.1975 -0.3428 -0.1871
    1DIPC   C4A 4760   7.238   5.074   4.130 -0.1467  0.2191 -0.1149
    1DIPC   C1B 4761   7.097   5.555   4.769 -0.1723  0.0386 -0.1340
    1DIPC   D2B 4762   6.928   5.722   4.375 -0.0252 -0.1048  0.0795
    1DIPC   D3B 4763   6.673   6.089   4.347  0.0264  0.3319 -0.2837
    1DIPC   C4B 4764   6.573   6.391   3.966  0.0894  0.0782 -0.3066
    1DIPC   NC3 4765  10.444  12.333   5.795 -0.1287  0.1303 -0.0436
    1DIPC   PO4 4766  10.829  12.271   5.621  0.2726 -0.5407  0.0627
    1DIPC   GL1 4767  10.783  11.985   5.190  0.3475  0.0287  0.0522
    1DIPC   GL2 4768  10.987  11.733   5.239 -0.3151 -0.1493 -0.1070
    1DIPC   C1A 4769  10.578  11.582   4.882 -0.1254  0.1282  0.2430
    1DIPC   D2A 4770  10.342  11.443   4.531  0.4609  0.0826  0.0767
    1DIPC   D3A 4771  10.509  11.818   4.475  0.2134 -0.1490 -0.0077
    1DIPC   C4A 4772  10.464  12.266   4.452 -0.1962  0.0055 -0.4478
    1DIPC   C1B 4773  11.010  11.761   4.822 -0.1223 -0.1374  0.0879
    1DIPC   D2B 4774  10.961  11.423   4.523  0.1874 -0.2945 -0.0155
    1DIPC   D3B 4775  10.592  11.059   4.681  0.3474 -0.0971  0.1099
    1DIPC   C4B 4776  10.198  11.052   4.840 -0.0466  0.2552 -0.1635
    1DIPC   NC3 4777   2.278  20.386   7.251  0.4785 -0.1310  0.1177
    1DIPC   PO4 4778   2.488  20.319   6.889  0.0310  0.1832 -0.1974
    1DIPC   GL1 4779   2.256  19.979   6.675 -0.3241  0.0981 -0.1156
    1DIPC   GL2 4780   2.406  20.209   6.372  0.1282  0.1328 -0.4365
    1DIPC   C1A 4781   2.292  19.697   6.370 -0.0858  0.0670  0.0587
    1DIPC   D2A 4782   2.148  19.513   5.961  0.2750  0.1003 -0.2285
    1DIPC   D3A 4783   1.709  19.572   5.755  0.1625 -0.3346 -0.0041
    1DIPC   C4A 4784   1.671  19.828   5.362 -0.1824 -0.0148 -0.0242
    1DIPC   C1B 4785   2.178  20.040   5.984  0.2659  0.0885 -0.1723
    1DIPC   D2B 4786   2.064  19.872   5.605  0.2130  0.0845 -0.1894
    1DIPC   D3B 4787   2.328  20.170   5.351 -0.2400  0.1997  0.1128
    1DIPC   C4B 4788   2.785  20.197   5.212  0.0765 -0.1313 -0.0531
    1DIPC   NC3 4789  23.377  11.677   7.757  0.1296 -0.2028  0.1474
    1DIPC   PO4 4790  23.333  11.911   7.330 -0.4106 -0.1010  0.2215
    1DIPC   GL1 4791  23.347  11.784   6.988  0.0078 -0.2167  0.0751
    1DIPC   GL2 4792  23.298  11.947   6.793  0.1755 -0.4379 -0.1905
    1DIPC   C1A 4793  23.131  11.527   6.651 -0.1336 -0.0669  0.2697
    1DIPC   D2A 4794  23.159  11.095   6.497  0.0873 -0.0097  0.0410
    1DIPC   D3A 4795  23.397  11.434   6.130  0.2407  0.1169  0.2520
    1DIPC   C4A 4796  23.675  11.558   5.739 -0.1096  0.1238 -0.0319
    1DIPC   C1B 4797  23.391  11.941   6.415 -0.0480  0.1866  0.0460
    1DIPC   D2B 4798  23.554  11.969   6.048  0.3195  0.2290  0.0132
    1DIPC   D3B 4799  23.239  11.880   5.830  0.1569 -0.1222 -0.1425
    1DIPC   C4B 4800  23.302  11.710   5.452  0.0060 -0.0538 -0.0842
    1DIPC   NC3 4801   6.255   2.562   6.571 -0.0027  0.1014 -0.1936
    1DIPC   PO4 4802   5.844   2.659   6.651  0.0891  0.0761  0.0645
    1DIPC   GL1 4803   5.948   2.696   6.158 -0.3686  0.1166  0.0915
    1DIPC   GL2 4804   6.156   2.568   5.905  0.1463  0.0658 -0.1145
    1DIPC   C1A 4805   5.747   2.744   5.738  0.0173  0.1967 -0.2133
    1DIPC   D2A 4806   5.591   2.431   5.525 -0.2769  0.0283  0.0615
    1DIPC   D3A 4807   5.699   2.697   5.260  0.1938  0.1441  0.0080
    1DIPC   C4A 4808   5.731   2.765   4.764  0.3863 -0.2134 -0.0293
    1DIPC   C1B 4809   6.148   2.517   5.454  0.3153 -0.0826 -0.0632
    1DIPC   D2B 4810   6.452   2.506   5.086 -0.0714  0.0186 -0.1027
    1DIPC   D3B 4811   6.434   2.415   4.650  0.1112 -0.0428  0.1130
    1DIPC   C4B 4812   6.459   2.074   4.463  0.2238  0.4078  0.1966
    1DIPC   NC3 4813  25.512  22.911   7.374  0.4644 -0.1120 -0.0312
    1DIPC   PO4 4814  25.254  23.280   7.517 -0.0583 -0.3993 -0.0932
    1DIPC   GL1 4815  25.357  23.333   7.141 -0.2250  0.0826  0.2798
    1DIPC   GL2 4816  25.144  23.078   7.005 -0.1568  0.0536 -0.0428
    1DIPC   C1A 4817  25.494  23.222   6.682 -0.0058  0.0195 -0.1366
    1DIPC   D2A 4818  25.685  23.113   6.359 -0.1618 -0.0900  0.1542
    1DIPC   D3A 4819  25.429  23.374   6.217  0.1821 -0.1184  0.0042
    1DIPC   C4A 4820  25.242  23.330   5.816 -0.2079  0.0711  0.0264
    1DIPC   C1B 4821  24.955  23.073   6.568  0.1075  0.1398 -0.1689
    1DIPC   D2B 4822  24.892  23.125   6.181  0.2516  0.1056 -0.2256
    1DIPC   D3B 4823  24.467  22.952   5.949 -0.0100  0.0353 -0.2134
    1DIPC   C4B 4824  23.953  22.787   5.717 -0.0731 -0.0864 -0.0239
    1DIPC   NC3 4825   8.184  18.490   6.484 -0.2377  0.1438  0.1952
    1DIPC   PO4 4826   8.614  18.339   6.309 -0.2332 -0.0512  0.1555
    1DIPC   GL1 4827   8.882  18.582   5.937 -0.0050 -0.1351  0.0565
    1DIPC   GL2 4828   9.040  18.863   6.016 -0.1344  0.1445 -0.1133
    1DIPC   C1A 4829   8.882  18.740   5.426 -0.1272 -0.7712 -0.0224
    1DIPC   D2A 4830   8.769  18.820   4.972 -0.2490 -0.0354  0.4232
    1DIPC   D3A 4831   8.535  18.450   5.059  0.0020  0.3920 -0.0741
    1DIPC   C4A 4832   8.257  18.339   4.670 -0.2390  0.0862 -0.3087
    1DIPC   C1B 4833   9.125  19.126   5.662  0.0528  0.1398  0.0179
    1DIPC   D2B 4834   9.201  19.209   5.306  0.2297 -0.1187 -0.2256
    1DIPC   D3B 4835   9.128  19.325   4.859  0.2114  0.1382 -0.0211
    1DIPC   C4B 4836   8.806  19.187   4.701 -0.2430 -0.2298 -0.4338
    1DIPC   NC3 4837   7.011   6.704   6.105  0.0474  0.1457  0.0426
    1DIPC   PO4 4838   7.229   6.404   6.295 -0.1886 -0.2211 -0.1459
    1DIPC   GL1 4839   7.374   6.556   5.833 -0.0139  0.2719 -0.2218
    1DIPC   GL2 4840   7.349   6.273   5.783 -0.4322  0.0962  0.2061
    1DIPC   C1A 4841   7.504   6.482   5.345 -0.2062  0.3041  0.0652
    1DIPC   D2A 4842   7.261   6.424   5.043  0.0110 -0.2877  0.0961
    1DIPC   D3A 4843   7.576   6.763   4.887  0.1325  0.0866  0.0427
    1DIPC   C4A 4844   7.625   6.970   4.553  0.1087 -0.0262  0.0367
    1DIPC   C1B 4845   7.047   6.182   5.552  0.1859 -0.4145 -0.0819
    1DIPC   D2B 4846   6.950   5.938   5.154 -0.0093  0.0880  0.1380
    1DIPC   D3B 4847   7.004   6.098   4.716  0.1219  0.0188 -0.2947
    1DIPC   C4B 4848   7.372   6.261   4.591  0.1370  0.2415  0.1094
    1DIPC   NC3 4849  29.445  17.438   7.384  0.1538  0.1072 -0.1250
    1DIPC   PO4 4850  29.450  17.865   7.474 -0.0299 -0.0772 -0.1985
    1DIPC   GL1 4851  29.613  17.713   7.005  0.5724  0.1586  0.2718
    1DIPC   GL2 4852   0.134  17.353   6.960  0.0831  0.0988  0.1585
    1DIPC   C1A 4853  29.288  17.347   6.807 -0.1711  0.3678 -0.1551
    1DIPC   D2A 4854  29.436  17.070   6.561  0.0402 -0.0572 -0.1165
    1DIPC   D3A 4855  29.320  16.677   6.285 -0.3371  0.2796 -0.1641
    1DIPC   C4A 4856  29.428  16.570   5.921  0.1145  0.0060 -0.0322
    1DIPC   C1B 4857   0.254  17.353   6.535  0.3887  0.0607  0.0120
    1DIPC   D2B 4858   0.165  17.397   6.090 -0.0628 -0.3452  0.1317
    1DIPC   D3B 4859   0.519  17.205   6.099  0.0997  0.0373  0.1644
    1DIPC   C4B 4860   0.524  17.027   5.775 -0.1406 -0.1025  0.1430
    1DIPC   NC3 4861  13.069  21.133   6.423  0.1279 -0.0342  0.3009
    1DIPC   PO4 4862  13.445  20.976   6.171  0.2861  0.0889 -0.2745
    1DIPC   GL1 4863  13.704  21.036   5.819  0.4962  0.2641  0.2700
    1DIPC   GL2 4864  13.819  21.322   5.601 -0.0789  0.0795  0.0257
    1DIPC   C1A 4865  14.041  20.801   5.668 -0.0786  0.1595  0.1725
    1DIPC   D2A 4866  14.115  20.620   5.247 -0.0846 -0.1526 -0.1430
    1DIPC   D3A 4867  13.894  20.318   5.471 -0.2527 -0.3057  0.1493
    1DIPC   C4A 4868  13.448  20.264   5.348  0.1941  0.0205  0.2001
    1DIPC   C1B 4869  13.643  21.443   5.157  0.2018  0.0614  0.1705
    1DIPC   D2B 4870  13.497  21.881   5.082 -0.2077 -0.2149  0.1950
    1DIPC   D3B 4871  13.640  21.793   4.741 -0.1460  0.0945  0.4191
    1DIPC   C4B 4872  13.899  21.987   4.460 -0.1890 -0.2936 -0.0026
    1DIPC   NC3 4873   5.333  21.053   6.822  0.3098 -0.0748  0.0279
    1DIPC   PO4 4874   5.734  20.839   6.681 -0.0454 -0.4643 -0.2709
    1DIPC   GL1 4875   5.501  20.929   6.288 -0.0928 -0.0588 -0.0152
    1DIPC   GL2 4876   5.164  21.011   6.346  0.0273  0.3142 -0.0393
    1DIPC   C1A 4877   5.348  20.795   5.787  0.1423 -0.0041  0.0443
    1DIPC   D2A 4878   5.367  20.801   5.388 -0.0036  0.0681 -0.0440
    1DIPC   D3A 4879   4.947  20.719   5.488  0.0149 -0.0698 -0.0791
    1DIPC   C4A 4880   4.666  20.505   5.626  0.0501  0.0181 -0.2541
    1DIPC   C1B 4881   5.263  21.306   6.006 -0.0055 -0.1741 -0.0695
    1DIPC   D2B 4882   5.421  21.254   5.593  0.1169  0.0826  0.0794
    1DIPC   D3B 4883   5.779  21.510   5.406  0.0304 -0.4844 -0.1182
    1DIPC   C4B 4884   5.674  21.751   5.139  0.0189 -0.0205  0.1701
    1DIPC   NC3 4885   8.968   4.317   6.132  0.2597  0.0872 -0.2484
    1DIPC   PO4 4886   9.275   4.684   5.940  0.0515  0.0090  0.1176
    1DIPC   GL1 4887   9.245   4.908   5.543  0.3590 -0.2919  0.1382
    1DIPC   GL2 4888   9.256   5.330   5.414  0.0392  0.1073 -0.0370
    1DIPC   C1A 4889   9.392   4.952   5.061  0.0240  0.3756 -0.0714
    1DIPC   D2A 4890   9.308   5.180   4.770  0.1760 -0.2812 -0.0085
    1DIPC   D3A 4891   9.301   4.979   4.369 -0.1904 -0.2189 -0.0250
    1DIPC   C4A 4892   9.680   4.940   4.089 -0.3160 -0.0121  0.2624
    1DIPC   C1B 4893   9.044   5.514   5.049  0.0923 -0.0412 -0.0293
    1DIPC   D2B 4894   8.787   5.353   4.709 -0.0235  0.0800 -0.0726
    1DIPC   D3B 4895   8.834   5.009   4.935 -0.1588 -0.3586  0.1360
    1DIPC   C4B 4896   8.775   5.111   5.303  0.0820 -0.0759  0.1439
    1DIPC   NC3 4897   3.526  18.923   6.793 -0.0964  0.1290  0.1512
    1DIPC   PO4 4898   3.910  18.849   6.689  0.0272 -0.0253  0.1650
    1DIPC   GL1 4899   4.002  18.901   6.282  0.1558  0.3866 -0.0825
    1DIPC   GL2 4900   3.760  19.213   6.263 -0.1719  0.2055 -0.1019
    1DIPC   C1A 4901   4.143  18.617   5.906 -0.2348  0.0327 -0.0992
    1DIPC   D2A 4902   3.781  18.508   5.574 -0.0951  0.1123 -0.3218
    1DIPC   D3A 4903   4.063  18.628   5.380  0.0626  0.1309 -0.0550
    1DIPC   C4A 4904   4.437  18.799   5.553 -0.0542  0.1297  0.0955
    1DIPC   C1B 4905   3.596  19.423   5.883 -0.1639  0.1310  0.0721
    1DIPC   D2B 4906   3.317  19.180   5.562 -0.0881  0.1638  0.1224
    1DIPC   D3B 4907   3.661  19.014   5.354  0.1956 -0.0083  0.2684
    1DIPC   C4B 4908   3.984  19.208   5.585  0.1030 -0.0250 -0.2193
    1DIPC   NC3 4909   5.576  10.573   5.189  0.0378 -0.3096 -0.1033
    1DIPC   PO4 4910   5.189  10.260   5.129  0.0622 -0.1823  0.2387
    1DIPC   GL1 4911   5.126  10.281   4.700  0.1725 -0.1817 -0.0457
    1DIPC   GL2 4912   4.991  10.521   4.653 -0.1008  0.1773 -0.1080
    1DIPC   C1A 4913   5.219  10.413   4.238 -0.1655  0.0532  0.1634
    1DIPC   D2A 4914   5.153  10.664   3.909 -0.0860  0.0880 -0.1078
    1DIPC   D3A 4915   4.929  10.866   3.568 -0.0782  0.0309  0.1114
    1DIPC   C4A 4916   4.618  10.634   3.217  0.1679 -0.2159 -0.2110
    1DIPC   C1B 4917   4.710  10.804   4.306 -0.0425 -0.0178 -0.1030
    1DIPC   D2B 4918   4.302  10.833   4.368 -0.2446 -0.0792  0.0071
    1DIPC   D3B 4919   4.113  10.687   3.980 -0.0301  0.3030  0.0715
    1DIPC   C4B 4920   4.009  11.099   3.820 -0.0590  0.0466 -0.0145
    1DIPC   NC3 4921  15.368  17.539   6.358 -0.0343 -0.1385  0.0754
    1DIPC   PO4 4922  15.057  17.804   6.325  0.1547 -0.0825 -0.0955
    1DIPC   GL1 4923  15.056  17.795   5.985 -0.0717 -0.0797 -0.3441
    1DIPC   GL2 4924  15.411  17.698   5.847  0.3355 -0.0938 -0.2398
    1DIPC   C1A 4925  14.709  17.916   5.675 -0.0467  0.3242 -0.1891
    1DIPC   D2A 4926  14.257  17.977   5.621 -0.0102  0.1053 -0.2151
    1DIPC   D3A 4927  14.157  18.076   5.150  0.3339  0.2246 -0.0052
    1DIPC   C4A 4928  13.941  17.816   4.865 -0.0925  0.1805 -0.1651
    1DIPC   C1B 4929  15.685  17.774   5.471 -0.1178  0.0529 -0.1950
    1DIPC   D2B 4930  15.735  17.729   5.012  0.1026  0.1239 -0.2275
    1DIPC   D3B 4931  16.127  17.707   4.833 -0.1875 -0.0293  0.1123
    1DIPC   C4B 4932  16.107  18.060   4.418 -0.0052  0.1441 -0.0922
    1DIPC   NC3 4933   4.466  21.225   6.962  0.2056  0.1013  0.0096
    1DIPC   PO4 4934   4.929  21.331   6.702 -0.1603 -0.0930  0.1205
    1DIPC   GL1 4935   4.646  21.202   6.406  0.0829  0.2309  0.0338
    1DIPC   GL2 4936   4.697  21.442   6.262 -0.3117  0.0268 -0.0939
    1DIPC   C1A 4937   4.482  20.944   6.163  0.2501  0.1929  0.1838
    1DIPC   D2A 4938   4.397  20.904   5.722  0.1200 -0.2977  0.2335
    1DIPC   D3A 4939   4.146  20.604   5.695 -0.0549  0.3312  0.0168
    1DIPC   C4A 4940   4.229  20.191   5.405  0.2140 -0.1265  0.1132
    1DIPC   C1B 4941   4.544  21.450   5.882  0.1444 -0.2084 -0.2152
    1DIPC   D2B 4942   4.070  21.382   5.718 -0.0882  0.0860  0.2482
    1DIPC   D3B 4943   3.661  21.292   5.522 -0.0297 -0.2490 -0.2881
    1DIPC   C4B 4944   3.478  21.136   5.005 -0.1847  0.0810 -0.2058
    1DIPC   NC3 4945  16.137   1.756   6.333 -0.0150  0.1227  0.4459
    1DIPC   PO4 4946  15.729   1.691   6.292 -0.0602  0.0875 -0.1109
    1DIPC   GL1 4947  15.470   1.935   6.063 -0.1966  0.1145 -0.2066
    1DIPC   GL2 4948  15.351   2.162   6.130  0.1901 -0.3068 -0.0821
    1DIPC   C1A 4949  15.374   1.931   5.626 -0.2032 -0.2189  0.0822
    1DIPC   D2A 4950  15.132   1.715   5.270 -0.0427 -0.0177 -0.0555
    1DIPC   D3A 4951  14.982   1.270   5.048  0.0787 -0.0968 -0.1794
    1DIPC   C4A 4952  14.993   1.060   4.613 -0.1984 -0.1905 -0.1039
    1DIPC   C1B 4953  15.004   2.241   5.887  0.1960 -0.3167  0.1346
    1DIPC   D2B 4954  15.216   2.432   5.508  0.0732 -0.2727 -0.0755
    1DIPC   D3B 4955  15.220   2.236   5.053 -0.1890  0.2563  0.0168
    1DIPC   C4B 4956  15.019   2.116   4.745  0.0245 -0.0656  0.1194
    1DIPC   NC3 4957   9.291  12.892   5.963 -0.0873 -0.1268 -0.1959
    1DIPC   PO4 4958   9.238  12.518   5.759  0.0766 -0.1746  0.0742
    1DIPC   GL1 4959   9.228  12.840   5.419 -0.0176  0.0540 -0.1102
    1DIPC   GL2 4960   9.232  13.214   5.593  0.0506  0.2584 -0.0014
    1DIPC   C1A 4961   9.093  12.848   4.941 -0.0533  0.0801  0.0416
    1DIPC   D2A 4962   9.265  12.809   4.503 -0.0885  0.1943 -0.2007
    1DIPC   D3A 4963   9.706  13.028   4.356 -0.2549 -0.2483 -0.0550
    1DIPC   C4A 4964   9.888  12.954   3.921  0.3282 -0.2574 -0.2471
    1DIPC   C1B 4965   8.837  13.089   5.279 -0.0325 -0.1614  0.0625
    1DIPC   D2B 4966   8.491  13.132   4.996  0.2799 -0.1756 -0.4282
    1DIPC   D3B 4967   8.304  13.419   5.266  0.0627 -0.1078 -0.3480
    1DIPC   C4B 4968   8.230  13.775   5.052 -0.2843 -0.0980  0.1222
    1DIPC   NC3 4969  13.664  13.352   6.980 -0.2080 -0.3222 -0.0875
    1DIPC   PO4 4970  13.816  13.648   6.667  0.0656  0.2347 -0.1213
    1DIPC   GL1 4971  13.941  13.628   6.278 -0.1168 -0.1369  0.1679
    1DIPC   GL2 4972  13.710  13.369   6.051 -0.1389 -0.4274  0.4312
    1DIPC   C1A 4973  13.949  13.734   5.788  0.2763 -0.1780  0.2487
    1DIPC   D2A 4974  14.054  14.113   5.438 -0.1382  0.0924  0.3126
    1DIPC   D3A 4975  13.865  14.377   5.158  0.0282  0.1558 -0.1199
    1DIPC   C4A 4976  13.614  14.732   5.258  0.1080  0.0823  0.0511
    1DIPC   C1B 4977  13.765  13.215   5.632 -0.0518  0.0409 -0.2073
    1DIPC   D2B 4978  13.807  13.019   5.244 -0.0452  0.0794 -0.2268
    1DIPC   D3B 4979  13.736  12.753   4.810 -0.0077 -0.1346 -0.2112
    1DIPC   C4B 4980  14.037  12.664   4.524  0.1617 -0.0462  0.2825
    1DIPC   NC3 4981   6.844  29.084   6.364 -0.1873  0.0293  0.0161
    1DIPC   PO4 4982   7.249  28.923   6.172  0.1315 -0.1341  0.1476
    1DIPC   GL1 4983   7.244  28.812   5.696 -0.0883 -0.1407  0.4258
    1DIPC   GL2 4984   6.904  28.964   5.600  0.3287  0.3470 -0.1919
    1DIPC   C1A 4985   7.358  28.671   5.341 -0.0290 -0.3818  0.2429
    1DIPC   D2A 4986   7.245  28.366   4.910 -0.3276  0.0344 -0.2497
    1DIPC   D3A 4987   7.261  28.571   4.521 -0.0122 -0.2110 -0.0115
    1DIPC   C4A 4988   7.328  28.354   4.158  0.0522 -0.2196 -0.2626
    1DIPC   C1B 4989   6.923  28.752   5.184  0.2848 -0.1653  0.0115
    1DIPC   D2B 4990   6.837  28.607   4.749  0.2620 -0.1915  0.1024
    1DIPC   D3B 4991   6.686  28.836   4.403  0.4453 -0.2790 -0.1365
    1DIPC   C4B 4992   6.424  29.105   4.388  0.2231 -0.3651  0.2837
    1DIPC   NC3 4993  19.091  20.562   6.934  0.2440  0.2268 -0.1553
    1DIPC   PO4 4994  18.949  20.348   6.630  0.0228 -0.1094  0.4489
    1DIPC   GL1 4995  19.015  20.414   6.191  0.0134 -0.1452 -0.4008
    1DIPC   GL2 4996  19.365  20.659   6.137 -0.0282 -0.1592 -0.0147
    1DIPC   C1A 4997  19.100  20.313   5.817 -0.1264 -0.1425 -0.2069
    1DIPC   D2A 4998  19.133  19.880   5.594  0.2210 -0.2032 -0.1683
    1DIPC   D3A 4999  18.748  19.833   5.665 -0.1307 -0.1791  0.0681
    1DIPC   C4A 5000  18.588  20.232   5.846 -0.0144 -0.4481 -0.1000
    1DIPC   C1B 5001  19.215  20.817   5.813 -0.2830 -0.0350  0.3558
    1DIPC   D2B 5002  19.180  20.812   5.377  0.2279 -0.1476  0.1125
    1DIPC   D3B 5003  19.206  21.217   5.361 -0.0314  0.2890  0.2597
    1DIPC   C4B 5004  19.101  21.524   5.123 -0.1089  0.0101 -0.0111
    1DIPC   NC3 5005   8.981   8.579   5.974 -0.2487  0.1255  0.1913
    1DIPC   PO4 5006   8.823   9.073   5.867 -0.0086  0.2094  0.1560
    1DIPC   GL1 5007   8.872   9.320   5.553 -0.1397 -0.1226 -0.1693
    1DIPC   GL2 5008   8.565   9.318   5.312  0.0755 -0.1786 -0.2765
    1DIPC   C1A 5009   9.024   9.223   5.153 -0.0227 -0.0258 -0.1415
    1DIPC   D2A 5010   9.264   9.062   4.815  0.0741 -0.0046  0.0362
    1DIPC   D3A 5011   9.116   9.265   4.454 -0.2703  0.0593  0.1098
    1DIPC   C4A 5012   8.770   9.681   4.464 -0.0235 -0.2722  0.2631
    1DIPC   C1B 5013   8.489   9.469   4.979 -0.2472 -0.1140 -0.0527
    1DIPC   D2B 5014   8.343   9.433   4.517  0.2447 -0.0721 -0.1408
    1DIPC   D3B 5015   8.123   9.513   4.079  0.0117 -0.0216 -0.0946
    1DIPC   C4B 5016   8.395   9.607   3.812 -0.0141  0.2082 -0.1336
    1DIPC   NC3 5017  12.166  20.646   5.881 -0.0159 -0.1180  0.2958
    1DIPC   PO4 5018  11.852  20.412   5.988 -0.2757  0.0399 -0.2698
    1DIPC   GL1 5019  11.911  20.355   5.538 -0.0282 -0.0031  0.1924
    1DIPC   GL2 5020  11.926  20.638   5.428  0.1541 -0.0706  0.2666
    1DIPC   C1A 5021  11.864  20.289   5.099  0.2609  0.1970 -0.2037
    1DIPC   D2A 5022  12.223  20.431   4.777 -0.5736 -0.1546 -0.3662
    1DIPC   D3A 5023  11.925  20.391   4.535  0.2277  0.0719  0.2041
    1DIPC   C4A 5024  11.920  20.099   4.231  0.1500  0.0672 -0.2230
    1DIPC   C1B 5025  11.855  20.838   5.026  0.1270 -0.1121 -0.1542
    1DIPC   D2B 5026  11.844  20.912   4.534  0.0727 -0.1312  0.1568
    1DIPC   D3B 5027  11.701  21.069   4.101  0.1349 -0.1976  0.4667
    1DIPC   C4B 5028  11.908  21.366   3.835  0.1576 -0.0014 -0.0085
    1DIPC   NC3 5029  24.762  26.620   7.040 -0.3962 -0.1356 -0.2682
    1DIPC   PO4 5030  24.440  26.981   6.862 -0.0526 -0.3630  0.2973
    1DIPC   GL1 5031  24.395  26.852   6.421 -0.0318 -0.1171  0.1916
    1DIPC   GL2 5032  24.494  27.149   6.214  0.0429  0.3536  0.1671
    1DIPC   C1A 5033  24.361  26.600   6.091 -0.3090  0.1055  0.2808
    1DIPC   D2A 5034  24.126  26.546   5.794  0.0509  0.0586 -0.3514
    1DIPC   D3A 5035  24.231  26.566   5.375 -0.1067  0.1120 -0.0164
    1DIPC   C4A 5036  24.633  26.386   5.141  0.0955 -0.1868  0.0458
    1DIPC   C1B 5037  24.810  27.127   5.835 -0.0697 -0.2359  0.2171
    1DIPC   D2B 5038  25.096  26.931   5.621 -0.0154 -0.3084  0.0757
    1DIPC   D3B 5039  25.216  26.618   5.251 -0.0074  0.0449 -0.2726
    1DIPC   C4B 5040  25.287  26.194   5.385  0.0333  0.3885 -0.4136
    1DIPC   NC3 5041  13.884   3.746   6.412  0.1749  0.1284 -0.0979
    1DIPC   PO4 5042  14.181   3.461   6.202 -0.0832  0.0557  0.2880
    1DIPC   GL1 5043  14.223   3.465   5.725 -0.1394 -0.1781  0.3412
    1DIPC   GL2 5044  13.972   3.539   5.695 -0.4771 -0.1245  0.1625
    1DIPC   C1A 5045  14.196   3.338   5.256 -0.2129 -0.3612  0.2214
    1DIPC   D2A 5046  14.391   3.527   4.940  0.2503 -0.0810 -0.4476
    1DIPC   D3A 5047  14.226   3.180   4.716 -0.0235 -0.1179 -0.1343
    1DIPC   C4A 5048  14.100   3.291   4.266 -0.1533  0.2295 -0.2169
    1DIPC   C1B 5049  13.738   3.550   5.411 -0.0482 -0.0503  0.0471
    1DIPC   D2B 5050  13.614   3.813   5.078 -0.1609  0.2935  0.0661
    1DIPC   D3B 5051  13.867   3.518   4.921 -0.0135  0.0496  0.0186
    1DIPC   C4B 5052  14.020   3.715   4.530  0.0678 -0.0103 -0.0559
    1DIPC   NC3 5053  13.482   7.642   6.725  0.1281  0.0058  0.1117
    1DIPC   PO4 5054  13.731   7.805   6.417 -0.0636 -0.1340 -0.2367
    1DIPC   GL1 5055  13.803   7.827   5.941 -0.0515  0.3054  0.1612
    1DIPC   GL2 5056  14.027   8.069   5.839  0.2318  0.0998 -0.2248
    1DIPC   C1A 5057  13.515   7.611   5.642  0.1110 -0.2271  0.2620
    1DIPC   D2A 5058  13.249   7.381   5.494 -0.0215  0.0377  0.0487
    1DIPC   D3A 5059  13.254   7.420   4.947  0.1905 -0.0837  0.3127
    1DIPC   C4A 5060  12.882   7.384   4.653  0.4865 -0.3025  0.1862
    1DIPC   C1B 5061  13.921   7.988   5.449  0.0854  0.0016 -0.0733
    1DIPC   D2B 5062  14.094   7.969   5.069 -0.0824  0.1832  0.3133
    1DIPC   D3B 5063  14.370   8.047   4.703 -0.1511  0.2620 -0.0791
    1DIPC   C4B 5064  14.603   8.322   4.869  0.0321 -0.2622 -0.1501
    1DIPC   NC3 5065  26.741   0.834   7.313 -0.2474  0.1831  0.0198
    1DIPC   PO4 5066  27.174   0.865   7.087  0.1722  0.2807 -0.2144
    1DIPC   GL1 5067  26.884   0.933   6.818 -0.0239 -0.0561  0.1835
    1DIPC   GL2 5068  26.620   0.643   6.896 -0.0287  0.1681  0.1527
    1DIPC   C1A 5069  26.998   1.035   6.438  0.1116  0.2523  0.0493
    1DIPC   D2A 5070  26.919   0.830   6.080  0.0022  0.1654  0.1385
    1DIPC   D3A 5071  26.591   0.882   5.773  0.3322  0.0662 -0.2401
    1DIPC   C4A 5072  26.334   1.238   5.750 -0.1174  0.1542 -0.2312
    1DIPC   C1B 5073  26.708   0.592   6.471 -0.6840 -0.1993 -0.2742
    1DIPC   D2B 5074  26.607   0.445   6.035  0.2491 -0.2447  0.2822
    1DIPC   D3B 5075  26.806   0.415   5.554  0.0289 -0.3038 -0.0477
    1DIPC   C4B 5076  26.683   0.640   5.319  0.0632  0.1069 -0.1311
    1DIPC   NC3 5077  10.467  23.026   6.291 -0.2229 -0.2000  0.1082
    1DIPC   PO4 5078  10.873  23.097   6.453 -0.1031 -0.1254  0.5716
    1DIPC   GL1 5079  10.902  23.302   6.110  0.2047  0.0641  0.0872
    1DIPC   GL2 5080  10.607  23.498   6.072 -0.0677 -0.1000 -0.1478
    1DIPC   C1A 5081  10.894  23.323   5.652  0.1179 -0.0820 -0.2199
    1DIPC   D2A 5082  10.878  23.523   5.354 -0.0257 -0.0496  0.6250
    1DIPC   D3A 5083  11.315  23.645   5.345 -0.1211  0.0732  0.2509
    1DIPC   C4A 5084  11.654  23.517   5.630  0.0396  0.3124  0.1140
    1DIPC   C1B 5085  10.448  23.558   5.702  0.2504 -0.1412 -0.1572
    1DIPC   D2B 5086  10.153  23.500   5.335 -0.2887 -0.2052 -0.0395
    1DIPC   D3B 5087  10.337  23.495   4.890  0.0903 -0.1956 -0.3031
    1DIPC   C4B 5088  10.287  23.231   4.476 -0.0985 -0.0253 -0.0722
    1DIPC   NC3 5089   3.441   4.507   6.281  0.2775 -0.0899  0.3569
    1DIPC   PO4 5090   3.165   4.567   5.966 -0.2769  0.0839 -0.0768
    1DIPC   GL1 5091   3.313   4.926   5.648 -0.0901  0.0150  0.1024
    1DIPC   GL2 5092   3.141   5.127   5.706  0.0776 -0.2378 -0.1374
    1DIPC   C1A 5093   3.675   4.850   5.334  0.1575  0.2173  0.1475
    1DIPC   D2A 5094   3.862   4.918   4.983  0.0595 -0.1181 -0.0695
    1DIPC   D3A 5095   3.988   4.840   4.555 -0.1083 -0.2739 -0.1493
    1DIPC   C4A 5096   3.953   4.398   4.432 -0.0448 -0.0124 -0.0089
    1DIPC   C1B 5097   3.366   5.390   5.404  0.0273  0.2417  0.2645
    1DIPC   D2B 5098   3.724   5.530   5.177  0.0388  0.0938 -0.4310
    1DIPC   D3B 5099   3.584   5.928   5.048  0.0541 -0.2198 -0.1106
    1DIPC   C4B 5100   3.384   5.788   4.551 -0.0801  0.2541  0.1177
    1DIPC   NC3 5101  12.196  22.209   6.288  0.0505 -0.1371 -0.1617
    1DIPC   PO4 5102  12.232  22.587   6.235  0.0639  0.2670  0.3181
    1DIPC   GL1 5103  12.425  22.733   5.849  0.2087 -0.1899 -0.0768
    1DIPC   GL2 5104  12.211  22.921   5.714 -0.0379  0.0030 -0.1660
    1DIPC   C1A 5105  12.550  22.880   5.367  0.5000 -0.0671  0.2054
    1DIPC   D2A 5106  12.838  22.942   5.024 -0.0688 -0.1605 -0.1601
    1DIPC   D3A 5107  12.822  22.466   4.859 -0.1038  0.1849  0.2527
    1DIPC   C4A 5108  12.713  22.161   4.606 -0.1229  0.0886 -0.0211
    1DIPC   C1B 5109  11.929  22.796   5.426 -0.3523 -0.0187  0.1327
    1DIPC   D2B 5110  11.588  22.591   5.088  0.0060 -0.1630  0.2168
    1DIPC   D3B 5111  11.838  22.654   4.830 -0.1349 -0.0468 -0.1149
    1DIPC   C4B 5112  11.618  22.404   4.404  0.1756 -0.0941  0.2157
    1DIPC   NC3 5113   6.699   7.423   6.050 -0.1259 -0.2172  0.3545
    1DIPC   PO4 5114   6.830   7.924   5.792  0.0542 -0.4622  0.2081
    1DIPC   GL1 5115   6.781   7.951   5.362  0.0441 -0.2203  0.1457
    1DIPC   GL2 5116   6.841   8.208   5.138 -0.1952 -0.2331 -0.1905
    1DIPC   C1A 5117   6.549   7.863   4.888  0.0241  0.4521 -0.4403
    1DIPC   D2A 5118   6.595   7.733   4.508  0.0094 -0.0884 -0.0411
    1DIPC   D3A 5119   6.338   7.878   4.090 -0.1357  0.0005  0.1547
    1DIPC   C4A 5120   5.993   7.791   3.958  0.1221 -0.0229  0.0669
    1DIPC   C1B 5121   6.813   8.273   4.692  0.0824  0.1713 -0.2124
    1DIPC   D2B 5122   7.056   8.502   4.276 -0.2071 -0.0860  0.2028
    1DIPC   D3B 5123   7.336   8.485   4.628  0.0063 -0.0650 -0.0733
    1DIPC   C4B 5124   7.672   8.113   4.512 -0.2223 -0.1101  0.2794
    1DIPC   NC3 5125  17.271  21.748   6.778 -0.4504  0.0743 -0.0699
    1DIPC   PO4 5126  17.550  22.087   6.811 -0.0142 -0.0254 -0.0443
    1DIPC   GL1 5127  17.416  22.061   6.376 -0.1666 -0.1733 -0.0725
    1DIPC   GL2 5128  17.291  22.323   6.245  0.0954  0.0326 -0.0848
    1DIPC   C1A 5129  17.337  21.749   6.089 -0.2497  0.2491 -0.0624
    1DIPC   D2A 5130  17.396  21.632   5.620  0.0870 -0.0804  0.0028
    1DIPC   D3A 5131  17.799  21.864   5.510  0.3004 -0.0757 -0.0011
    1DIPC   C4A 5132  17.939  21.861   5.126 -0.0660  0.1951 -0.1664
    1DIPC   C1B 5133  17.454  22.665   6.109  0.1572 -0.1158  0.0327
    1DIPC   D2B 5134  17.745  22.978   6.462 -0.0524 -0.0165  0.0614
    1DIPC   D3B 5135  17.847  23.368   6.377  0.1621  0.0343 -0.2368
    1DIPC   C4B 5136  17.460  23.545   6.248 -0.0013 -0.0186 -0.0241
    1DIPC   NC3 5137   9.839  13.732   6.323  0.1954 -0.0806 -0.2736
    1DIPC   PO4 5138   9.794  14.307   6.259 -0.1700 -0.0525 -0.0018
    1DIPC   GL1 5139   9.705  14.557   5.899  0.0531  0.0054 -0.1342
    1DIPC   GL2 5140   9.699  14.836   5.734 -0.1672  0.0017 -0.0746
    1DIPC   C1A 5141   9.718  14.382   5.494  0.1385  0.1123  0.0491
    1DIPC   D2A 5142   9.880  14.444   5.104  0.3092 -0.4028 -0.1973
    1DIPC   D3A 5143   9.842  14.076   4.845 -0.0546 -0.0679 -0.0932
    1DIPC   C4A 5144   9.500  14.029   4.475  0.2589 -0.1969 -0.0838
    1DIPC   C1B 5145   9.899  14.950   5.424  0.0039 -0.1510 -0.3369
    1DIPC   D2B 5146   9.909  15.062   4.979  0.2908 -0.0662 -0.4359
    1DIPC   D3B 5147   9.580  14.970   4.804 -0.1532 -0.0424 -0.0568
    1DIPC   C4B 5148   9.433  15.401   4.638  0.0825  0.0325 -0.2837
    1DIPC   NC3 5149   0.837  20.589   7.776  0.0769 -0.0064  0.2326
    1DIPC   PO4 5150   1.071  20.659   7.426 -0.0543 -0.1395  0.1437
    1DIPC   GL1 5151   0.924  20.695   6.949  0.1294  0.0890 -0.3101
    1DIPC   GL2 5152   1.162  20.829   6.739 -0.2565 -0.0121  0.1025
    1DIPC   C1A 5153   0.897  20.472   6.504  0.0334  0.0635 -0.0119
    1DIPC   D2A 5154   0.764  20.553   6.096  0.0591 -0.2450  0.1981
    1DIPC   D3A 5155   1.129  20.492   5.994 -0.1377  0.1174 -0.0923
    1DIPC   C4A 5156   1.207  20.112   6.034 -0.2656  0.0941 -0.4520
    1DIPC   C1B 5157   1.396  20.389   6.637  0.1522 -0.2030 -0.0295
    1DIPC   D2B 5158   1.760  20.127   6.542 -0.1554 -0.0250 -0.0972
    1DIPC   D3B 5159   1.637  20.317   6.209  0.0761  0.0542  0.0704
    1DIPC   C4B 5160   1.673  20.074   5.820  0.0174  0.2486 -0.0003
    1DIPC   NC3 5161  11.766  22.736   7.001  0.1689  0.1300  0.0014
    1DIPC   PO4 5162  11.872  22.791   6.575 -0.3530 -0.3733 -0.0756
    1DIPC   GL1 5163  11.829  22.797   6.107  0.0996  0.0815  0.4343
    1DIPC   GL2 5164  11.796  22.558   5.808 -0.2292  0.0114 -0.0731
    1DIPC   C1A 5165  11.714  23.073   5.749 -0.1451 -0.2266 -0.2327
    1DIPC   D2A 5166  11.706  23.273   5.213  0.1699 -0.0035 -0.2398
    1DIPC   D3A 5167  12.170  23.291   4.981 -0.3744  0.0846 -0.1011
    1DIPC   C4A 5168  12.590  23.374   5.141 -0.1160  0.1684  0.2420
    1DIPC   C1B 5169  11.400  22.726   5.612  0.1843  0.0350  0.1715
    1DIPC   D2B 5170  11.270  23.145   5.464  0.0845  0.0408 -0.0767
    1DIPC   D3B 5171  11.201  22.872   5.088  0.0866 -0.1718  0.2571
    1DIPC   C4B 5172  11.396  22.918   4.730 -0.0401  0.0986 -0.1739
    1DIPC   NC3 5173   9.171   5.269   5.960  0.0557  0.2110  0.0390
    1DIPC   PO4 5174   9.029   5.601   5.785  0.0933 -0.2980  0.0770
    1DIPC   GL1 5175   9.000   5.827   5.458  0.0420 -0.1090  0.3002
    1DIPC   GL2 5176   8.939   6.223   5.478  0.1877 -0.2127 -0.1512
    1DIPC   C1A 5177   9.164   6.007   5.106 -0.2005  0.0408  0.0694
    1DIPC   D2A 5178   9.366   5.891   4.815 -0.1895 -0.0168  0.0379
    1DIPC   D3A 5179   9.175   5.634   4.479 -0.1607  0.0137 -0.0532
    1DIPC   C4A 5180   9.334   5.449   4.172 -0.3354  0.2902 -0.3779
    1DIPC   C1B 5181   8.957   6.599   5.272 -0.0338  0.0789  0.3331
    1DIPC   D2B 5182   8.805   6.687   4.823  0.0302  0.2060  0.0641
    1DIPC   D3B 5183   9.202   6.856   4.869  0.3396  0.2773 -0.0206
    1DIPC   C4B 5184   9.541   6.738   4.684  0.2020 -0.1543  0.0101
    1DIPC   NC3 5185  27.969  21.115   6.976  0.0456  0.0822  0.1331
    1DIPC   PO4 5186  28.276  21.427   7.084  0.2850 -0.0847  0.0467
    1DIPC   GL1 5187  28.142  21.484   6.677  0.1950  0.1078  0.2192
    1DIPC   GL2 5188  28.367  21.427   6.363  0.3197  0.1932  0.0716
    1DIPC   C1A 5189  27.774  21.579   6.544 -0.2712  0.0795 -0.1843
    1DIPC   D2A 5190  27.442  21.478   6.435 -0.0888  0.1388 -0.1407
    1DIPC   D3A 5191  27.015  21.606   6.647  0.0136 -0.0532  0.0300
    1DIPC   C4A 5192  26.587  21.350   6.535 -0.1550 -0.0249 -0.4767
    1DIPC   C1B 5193  27.980  21.446   6.079 -0.1760  0.4594  0.2695
    1DIPC   D2B 5194  27.650  21.424   5.731 -0.0087 -0.0043 -0.1618
    1DIPC   D3B 5195  27.887  21.125   5.597  0.2035 -0.4648  0.2020
    1DIPC   C4B 5196  27.798  20.840   5.316  0.3316  0.3536  0.1242
    1DIPC   NC3 5197  26.073   3.268   6.636  0.1709  0.1972 -0.1913
    1DIPC   PO4 5198  26.508   3.086   6.505  0.1137  0.1240 -0.2307
    1DIPC   GL1 5199  26.429   3.229   6.078 -0.2404 -0.0664  0.0988
    1DIPC   GL2 5200  26.126   3.002   6.046  0.1049  0.1714  0.0934
    1DIPC   C1A 5201  26.290   3.383   5.755  0.1525 -0.0342 -0.0626
    1DIPC   D2A 5202  25.953   3.594   5.566 -0.0068  0.4400 -0.1770
    1DIPC   D3A 5203  25.899   3.762   5.159 -0.1053  0.2250 -0.0472
    1DIPC   C4A 5204  25.514   3.779   4.883 -0.0386 -0.0659 -0.2407
    1DIPC   C1B 5205  25.959   2.695   5.908  0.2670  0.2789  0.1571
    1DIPC   D2B 5206  25.832   2.480   5.631  0.2192  0.1979 -0.0446
    1DIPC   D3B 5207  25.334   2.445   5.612 -0.0950 -0.4818  0.2619
    1DIPC   C4B 5208  25.317   1.989   5.386  0.0668  0.1883 -0.3883
    1DIPC   NC3 5209   4.663  27.184   6.968 -0.0807  0.2638 -0.3837
    1DIPC   PO4 5210   4.968  27.081   6.685 -0.0093  0.1555 -0.4383
    1DIPC   GL1 5211   4.818  26.939   6.206  0.0178  0.0324  0.0623
    1DIPC   GL2 5212   4.611  26.619   6.288 -0.0488 -0.0243  0.0162
    1DIPC   C1A 5213   4.755  27.178   5.817 -0.0886  0.2338 -0.0454
    1DIPC   D2A 5214   4.628  27.484   5.633  0.0192 -0.0421  0.0166
    1DIPC   D3A 5215   4.551  27.316   5.250 -0.3170  0.1300 -0.2260
    1DIPC   C4A 5216   4.329  26.943   5.336 -0.1359 -0.2045  0.0081
    1DIPC   C1B 5217   4.324  26.330   6.100  0.0463 -0.3497 -0.1555
    1DIPC   D2B 5218   4.341  25.918   6.031 -0.0116  0.0330  0.1029
    1DIPC   D3B 5219   4.401  26.064   5.553 -0.2825 -0.0660 -0.1276
    1DIPC   C4B 5220   4.581  26.103   5.186  0.0322  0.2009 -0.1259
    1DIPC   NC3 5221   4.049  20.769   7.240 -0.2189 -0.0971 -0.0272
    1DIPC   PO4 5222   3.927  21.087   6.995  0.1170 -0.1826  0.2178
    1DIPC   GL1 5223   3.650  21.061   6.650  0.1011 -0.3024  0.1839
    1DIPC   GL2 5224   3.700  21.333   6.380  0.1179  0.0611  0.1519
    1DIPC   C1A 5225   3.453  21.005   6.148  0.1693 -0.0696 -0.1484
    1DIPC   D2A 5226   3.291  21.119   5.854 -0.1036 -0.3151  0.0450
    1DIPC   D3A 5227   2.938  20.832   5.795 -0.1967  0.0199 -0.0396
    1DIPC   C4A 5228   2.468  20.890   5.775  0.0181  0.1048 -0.1456
    1DIPC   C1B 5229   3.665  21.487   5.980 -0.2599 -0.0227 -0.1820
    1DIPC   D2B 5230   3.389  21.701   5.659  0.0930  0.2915 -0.0388
    1DIPC   D3B 5231   3.090  21.527   5.426 -0.1474 -0.1470 -0.0786
    1DIPC   C4B 5232   2.803  21.321   5.666  0.2592 -0.3748 -0.0236
    1DIPC   NC3 5233  14.768  19.590   6.335  0.0836  0.0221  0.0286
    1DIPC   PO4 5234  14.887  19.896   6.086 -0.0502  0.2011 -0.0205
    1DIPC   GL1 5235  14.940  20.065   5.751 -0.0545 -0.0733  0.1244
    1DIPC   GL2 5236  15.019  20.421   5.695 -0.4098  0.0258 -0.1039
    1DIPC   C1A 5237  14.873  20.051   5.246 -0.0830  0.1616  0.4579
    1DIPC   D2A 5238  14.838  20.190   4.871 -0.1829  0.0356  0.1211
    1DIPC   D3A 5239  15.274  20.394   4.742  0.0167 -0.0254  0.0304
    1DIPC   C4A 5240  15.587  20.091   4.716 -0.1956 -0.0086  0.0265
    1DIPC   C1B 5241  15.223  20.385   5.240  0.1142 -0.0125 -0.0705
    1DIPC   D2B 5242  15.649  20.479   5.083 -0.1467  0.0095 -0.2171
    1DIPC   D3B 5243  15.935  20.088   5.110  0.2167  0.1259 -0.2006
    1DIPC   C4B 5244  15.754  19.704   5.062 -0.1719  0.0405  0.0163
    1DIPC   NC3 5245  28.320  19.455   7.565 -0.0753  0.4062 -0.2228
    1DIPC   PO4 5246  28.136  19.710   7.301 -0.0427  0.0915  0.0569
    1DIPC   GL1 5247  28.352  19.433   7.052  0.1426 -0.1528  0.0563
    1DIPC   GL2 5248  28.220  19.358   6.783 -0.1965  0.0990 -0.0441
    1DIPC   C1A 5249  28.798  19.476   6.940 -0.0954 -0.1766  0.0831
    1DIPC   D2A 5250  29.089  19.319   6.701 -0.0425  0.1617  0.1264
    1DIPC   D3A 5251  29.143  19.304   6.300 -0.2670 -0.2695  0.1968
    1DIPC   C4A 5252  28.774  19.161   5.985  0.2428 -0.0218  0.2132
    1DIPC   C1B 5253  27.986  19.317   6.549 -0.0633  0.1453 -0.1448
    1DIPC   D2B 5254  27.971  19.630   6.298  0.2291  0.2597 -0.0423
    1DIPC   D3B 5255  27.989  19.735   5.945 -0.1673 -0.0402 -0.1185
    1DIPC   C4B 5256  28.362  19.455   5.781  0.0134 -0.4577 -0.1163
    1DIPC   NC3 5257  26.285   1.341   7.314  0.1481  0.0925  0.0523
    1DIPC   PO4 5258  26.108   1.755   7.156 -0.2492 -0.1789  0.2291
    1DIPC   GL1 5259  26.015   1.723   6.715 -0.5431 -0.0147 -0.1516
    1DIPC   GL2 5260  25.637   1.621   6.665  0.1197 -0.0388 -0.0939
    1DIPC   C1A 5261  25.907   1.869   6.278 -0.1675 -0.0419 -0.2013
    1DIPC   D2A 5262  25.799   1.588   5.942 -0.0659  0.1848 -0.3777
    1DIPC   D3A 5263  25.688   2.046   5.755 -0.1915 -0.0615  0.0298
    1DIPC   C4A 5264  25.774   2.122   5.319 -0.0574  0.1099  0.0727
    1DIPC   C1B 5265  25.309   1.652   6.274 -0.1527 -0.2662  0.0917
    1DIPC   D2B 5266  25.286   1.816   5.874  0.2833 -0.2186  0.3453
    1DIPC   D3B 5267  24.879   2.069   5.770 -0.1084 -0.1913  0.1835
    1DIPC   C4B 5268  24.859   2.299   5.444  0.0332 -0.1245 -0.1501
    1DIPC   NC3 5269  14.712  26.123   6.455 -0.0183  0.2542 -0.0998
    1DIPC   PO4 5270  14.955  25.908   6.732  0.1684 -0.1614 -0.1023
    1DIPC   GL1 5271  15.244  25.844   6.293 -0.0047 -0.0821  0.2376
    1DIPC   GL2 5272  15.108  25.727   6.046  0.4040 -0.0652  0.3004
    1DIPC   C1A 5273  15.545  25.853   5.939  0.0869  0.1329  0.0185
    1DIPC   D2A 5274  15.667  25.630   5.490 -0.0107 -0.2590  0.2463
    1DIPC   D3A 5275  15.851  25.477   5.071 -0.1704  0.0147 -0.0314
    1DIPC   C4A 5276  15.536  25.200   4.854 -0.0419  0.2289 -0.0250
    1DIPC   C1B 5277  15.116  25.818   5.611  0.0194  0.2773 -0.0770
    1DIPC   D2B 5278  14.948  25.981   5.266 -0.4636  0.3637  0.1590
    1DIPC   D3B 5279  14.573  26.225   5.407  0.1223  0.2269 -0.1066
    1DIPC   C4B 5280  14.518  26.583   5.662 -0.1009 -0.0973 -0.4660
    1DIPC   NC3 5281  20.304  28.879   7.046  0.1307  0.0198  0.2332
    1DIPC   PO4 5282  20.627  28.817   7.400  0.0116 -0.3161  0.0414
    1DIPC   GL1 5283  20.767  28.811   6.895  0.1782 -0.1395 -0.3787
    1DIPC   GL2 5284  20.797  29.101   6.648 -0.0838  0.1398  0.2399
    1DIPC   C1A 5285  20.685  28.638   6.570 -0.0652 -0.0622  0.3391
    1DIPC   D2A 5286  20.636  28.503   6.287  0.2102 -0.0185 -0.1125
    1DIPC   D3A 5287  20.243  28.544   6.093 -0.0234 -0.1317  0.0071
    1DIPC   C4A 5288  20.011  28.911   5.827 -0.0152 -0.0820 -0.0853
    1DIPC   C1B 5289  20.677  29.116   6.265  0.3178  0.2026  0.1213
    1DIPC   D2B 5290  20.549  28.953   5.821  0.0675 -0.1930 -0.2113
    1DIPC   D3B 5291  20.444  29.075   5.500  0.0775  0.0758  0.1735
    1DIPC   C4B 5292  19.997  29.133   5.361  0.0185  0.4850  0.0684
    1DIPC   NC3 5293  11.968   4.731   6.100  0.1296 -0.3349 -0.1068
    1DIPC   PO4 5294  12.115   4.371   6.127  0.0285 -0.0977 -0.0675
    1DIPC   GL1 5295  11.779   4.260   5.831  0.1815 -0.0464 -0.0477
    1DIPC   GL2 5296  11.882   4.491   5.626 -0.0695  0.0811 -0.3166
    1DIPC   C1A 5297  11.591   4.005   5.472  0.1056 -0.0651 -0.0553
    1DIPC   D2A 5298  11.343   3.871   5.145  0.1190  0.1373 -0.1639
    1DIPC   D3A 5299  11.467   3.620   4.732  0.0722  0.1438 -0.0091
    1DIPC   C4A 5300  11.575   3.227   4.724  0.2337 -0.2215  0.0085
    1DIPC   C1B 5301  11.997   4.201   5.257  0.0171 -0.5165 -0.2596
    1DIPC   D2B 5302  12.081   4.268   4.844  0.2592  0.1999 -0.0389
    1DIPC   D3B 5303  11.973   3.950   4.540 -0.1485 -0.0334 -0.0319
    1DIPC   C4B 5304  11.908   3.568   4.563 -0.3427  0.0541 -0.1413
    1DIPC   NC3 5305  13.606  16.529   6.502  0.0901 -0.0897 -0.4092
    1DIPC   PO4 5306  13.229  16.504   6.257 -0.2470 -0.1570  0.1181
    1DIPC   GL1 5307  13.177  16.070   5.992  0.3275 -0.1040 -0.1974
    1DIPC   GL2 5308  12.763  15.941   5.960 -0.0775  0.0038 -0.0482
    1DIPC   C1A 5309  13.378  16.077   5.527 -0.0429  0.1371 -0.1315
    1DIPC   D2A 5310  13.631  16.417   5.193  0.0831  0.2032  0.1296
    1DIPC   D3A 5311  13.657  16.188   4.789  0.1652  0.0099 -0.4038
    1DIPC   C4A 5312  13.377  16.023   4.522 -0.2541 -0.2484  0.0679
    1DIPC   C1B 5313  12.870  15.958   5.543  0.0582 -0.1968 -0.0755
    1DIPC   D2B 5314  12.868  16.237   5.247  0.0907 -0.3266  0.0117
    1DIPC   D3B 5315  12.633  16.487   5.043 -0.0062 -0.2351  0.1726
    1DIPC   C4B 5316  12.162  16.426   4.933 -0.1820 -0.0734 -0.1026
    1DIPC   NC3 5317   8.892   9.517   6.053 -0.1516  0.0386  0.2493
    1DIPC   PO4 5318   8.549   9.852   6.015 -0.0142  0.3589  0.0292
    1DIPC   GL1 5319   8.704   9.778   5.642 -0.2440 -0.0825 -0.0345
    1DIPC   GL2 5320   9.007   9.887   5.717  0.2222  0.3146 -0.0524
    1DIPC   C1A 5321   8.878   9.715   5.254  0.2239  0.0490  0.0557
    1DIPC   D2A 5322   9.027   9.605   4.846 -0.1925 -0.1174  0.0162
    1DIPC   D3A 5323   9.412   9.527   4.778  0.0687  0.2697 -0.0095
    1DIPC   C4A 5324   9.625   9.462   4.423 -0.2112 -0.1085  0.2029
    1DIPC   C1B 5325   9.295   9.516   5.448 -0.1170  0.2287  0.2769
    1DIPC   D2B 5326   9.560   9.208   5.190 -0.0295  0.0928 -0.2229
    1DIPC   D3B 5327   9.756   9.191   4.804 -0.2674 -0.0363 -0.0114
    1DIPC   C4B 5328  10.217   9.072   4.845  0.2626 -0.0822 -0.3335
    1DIPC   NC3 5329   2.165  22.501   6.882 -0.1521  0.0569 -0.4663
    1DIPC   PO4 5330   2.147  21.998   6.947  0.1381 -0.0823 -0.1319
    1DIPC   GL1 5331   2.122  22.223   6.487 -0.2215  0.1035 -0.0384
    1DIPC   GL2 5332   1.946  22.397   6.414  0.0709  0.0804  0.1895
    1DIPC   C1A 5333   2.139  22.085   6.047  0.0323  0.1584  0.0924
    1DIPC   D2A 5334   1.946  21.672   5.871 -0.0653 -0.0842  0.0376
    1DIPC   D3A 5335   1.716  21.561   5.498 -0.2593 -0.3625 -0.2792
    1DIPC   C4A 5336   1.902  21.515   5.104 -0.0094  0.0522  0.0437
    1DIPC   C1B 5337   2.035  22.551   5.984  0.0521 -0.2604  0.3048
    1DIPC   D2B 5338   1.967  22.355   5.622 -0.0267 -0.0322  0.3325
    1DIPC   D3B 5339   1.672  22.042   5.656  0.1498  0.0367  0.1815
    1DIPC   C4B 5340   1.530  21.860   5.230  0.1808 -0.1922  0.1303
    1DIPC   NC3 5341  18.362  26.689   7.373 -0.0561  0.0643  0.1418
    1DIPC   PO4 5342  18.328  27.068   7.109  0.0052 -0.1287  0.0453
    1DIPC   GL1 5343  18.164  26.852   6.774  0.0753  0.2009 -0.0006
    1DIPC   GL2 5344  17.793  26.905   6.822 -0.0187 -0.0121 -0.1096
    1DIPC   C1A 5345  18.112  26.885   6.277 -0.1175  0.1300  0.0636
    1DIPC   D2A 5346  18.257  26.736   5.866 -0.0812 -0.2713 -0.4084
    1DIPC   D3A 5347  18.572  26.753   6.168  0.1128  0.0041  0.1528
    1DIPC   C4A 5348  18.574  27.046   6.460 -0.0314  0.0954 -0.1582
    1DIPC   C1B 5349  17.752  27.162   6.539 -0.1128 -0.0975 -0.1234
    1DIPC   D2B 5350  17.498  27.423   6.240 -0.2136  0.1621  0.1525
    1DIPC   D3B 5351  17.452  27.346   5.818 -0.0531 -0.3827  0.4684
    1DIPC   C4B 5352  17.158  27.163   5.810 -0.1902 -0.2085  0.0379
    1DIPC   NC3 5353  18.324   1.619   7.033  0.1935  0.1938 -0.0331
    1DIPC   PO4 5354  18.262   1.168   6.872  0.0092  0.0844  0.1056
    1DIPC   GL1 5355  18.220   1.263   6.445  0.1080  0.0582 -0.0181
    1DIPC   GL2 5356  18.463   0.946   6.364  0.1171  0.0693  0.0329
    1DIPC   C1A 5357  18.504   1.494   6.202 -0.2228  0.0350  0.0941
    1DIPC   D2A 5358  18.369   1.755   5.877  0.0555 -0.1559 -0.0864
    1DIPC   D3A 5359  18.102   1.667   5.566 -0.1117  0.2413 -0.1546
    1DIPC   C4A 5360  17.893   1.793   5.115 -0.0054 -0.1296 -0.3190
    1DIPC   C1B 5361  18.238   0.660   6.046 -0.2198 -0.1027 -0.1581
    1DIPC   D2B 5362  17.913   0.327   5.792  0.1002  0.0562  0.0499
    1DIPC   D3B 5363  18.035   0.171   5.385  0.0996  0.1379 -0.0373
    1DIPC   C4B 5364  18.364   0.012   5.237 -0.1812  0.0691 -0.1152
    1DIPC   NC3 5365  11.894   1.603   6.372 -0.3760 -0.0724 -0.0430
    1DIPC   PO4 5366  11.361   1.544   6.362 -0.0681 -0.3131  0.2790
    1DIPC   GL1 5367  11.211   1.607   5.931  0.2035  0.0154  0.0624
    1DIPC   GL2 5368  11.116   1.804   5.907 -0.1249  0.1362  0.1987
    1DIPC   C1A 5369  11.344   1.374   5.499  0.2675 -0.0456  0.1398
    1DIPC   D2A 5370  11.606   1.537   5.047 -0.1496 -0.1500 -0.0179
    1DIPC   D3A 5371  11.964   1.470   5.015 -0.1728  0.0587  0.1941
    1DIPC   C4A 5372  12.053   0.993   4.897  0.0525  0.1601 -0.0317
    1DIPC   C1B 5373  10.908   1.735   5.520  0.1699 -0.3660 -0.0571
    1DIPC   D2B 5374  10.963   1.724   4.997 -0.3863 -0.1664  0.3962
    1DIPC   D3B 5375  11.152   1.832   4.625  0.0516 -0.1327  0.0216
    1DIPC   C4B 5376  11.562   1.545   4.584 -0.2054  0.3620 -0.0730
    1DIPC   NC3 5377  16.669  23.057   6.800  0.1592 -0.0776 -0.1811
    1DIPC   PO4 5378  16.251  23.297   6.823  0.0976  0.4388 -0.1858
    1DIPC   GL1 5379  16.298  23.271   6.463  0.1455  0.1956 -0.0665
    1DIPC   GL2 5380  16.407  23.475   6.317 -0.3363 -0.0514  0.2638
    1DIPC   C1A 5381  16.088  23.149   6.090  0.0030 -0.4170  0.2487
    1DIPC   D2A 5382  15.931  22.892   5.749  0.1427 -0.2601  0.1070
    1DIPC   D3A 5383  16.127  23.139   5.579 -0.0465 -0.2141  0.0011
    1DIPC   C4A 5384  16.234  23.110   5.112 -0.1405 -0.1927  0.2466
    1DIPC   C1B 5385  16.490  23.325   5.817 -0.0799  0.1476  0.1351
    1DIPC   D2B 5386  16.877  23.077   5.725 -0.2159 -0.1196  0.1346
    1DIPC   D3B 5387  16.910  23.067   5.194 -0.0531  0.0366 -0.1307
    1DIPC   C4B 5388  16.743  22.874   4.885  0.3681 -0.1728 -0.0369
    1DIPC   NC3 5389  22.083  15.183   7.487 -0.0210 -0.1107 -0.1175
    1DIPC   PO4 5390  21.755  15.535   7.369 -0.0517 -0.1073 -0.1317
    1DIPC   GL1 5391  21.506  15.610   7.042 -0.0585 -0.0090 -0.2163
    1DIPC   GL2 5392  21.258  15.868   7.145  0.2024  0.2488  0.0691
    1DIPC   C1A 5393  21.561  15.808   6.706  0.0712 -0.0449  0.2425
    1DIPC   D2A 5394  21.786  15.820   6.361  0.0708  0.0154  0.1171
    1DIPC   D3A 5395  21.413  16.123   6.162  0.1313  0.0459 -0.1209
    1DIPC   C4A 5396  21.245  16.209   5.746 -0.0112 -0.2371  0.2666
    1DIPC   C1B 5397  20.995  15.944   6.825 -0.0435 -0.1842  0.2131
    1DIPC   D2B 5398  20.878  15.732   6.387  0.2707  0.0406 -0.1016
    1DIPC   D3B 5399  20.797  16.088   6.043  0.0078  0.2565 -0.0243
    1DIPC   C4B 5400  20.663  15.842   5.636  0.1442  0.1650 -0.0218
    1DIPC   NC3 5401  23.120   0.766   6.887 -0.0543 -0.2616  0.1570
    1DIPC   PO4 5402  23.312   1.108   6.940 -0.0258  0.1637  0.2377
    1DIPC   GL1 5403  23.348   1.294   6.512  0.0112  0.1534  0.3153
    1DIPC   GL2 5404  23.073   1.171   6.367 -0.3259  0.1596 -0.0481
    1DIPC   C1A 5405  23.361   1.587   6.173 -0.0662  0.2081 -0.4517
    1DIPC   D2A 5406  23.620   1.577   5.825  0.2153  0.0173  0.2675
    1DIPC   D3A 5407  23.488   1.850   5.591  0.0276  0.0084 -0.0964
    1DIPC   C4A 5408  23.765   2.058   5.402 -0.2122 -0.1263 -0.3293
    1DIPC   C1B 5409  22.889   1.168   5.965  0.0762  0.1790 -0.1781
    1DIPC   D2B 5410  22.700   0.928   5.630  0.2060 -0.1298 -0.3168
    1DIPC   D3B 5411  22.927   1.019   5.259  0.1510  0.1185 -0.2044
    1DIPC   C4B 5412  22.668   1.294   5.065 -0.2350 -0.1015  0.0066
    1DIPC   NC3 5413   5.080   6.251   6.567  0.2148 -0.0039 -0.0353
    1DIPC   PO4 5414   4.919   6.097   6.123  0.5217 -0.4079  0.1661
    1DIPC   GL1 5415   4.967   5.934   5.736  0.2077 -0.1815  0.0289
    1DIPC   GL2 5416   4.810   5.604   5.598 -0.2443  0.0293 -0.1847
    1DIPC   C1A 5417   4.952   5.970   5.237 -0.0283 -0.1455 -0.2927
    1DIPC   D2A 5418   5.158   5.966   4.863  0.0404  0.2827 -0.0325
    1DIPC   D3A 5419   5.516   5.974   4.437 -0.0405  0.0188  0.2072
    1DIPC   C4A 5420   5.391   5.687   4.083 -0.0060  0.1418 -0.0696
    1DIPC   C1B 5421   4.989   5.389   5.402 -0.0345 -0.1023 -0.1784
    1DIPC   D2B 5422   5.193   5.382   5.028 -0.1020  0.1009 -0.1690
    1DIPC   D3B 5423   4.799   5.531   4.896 -0.2258  0.0614 -0.0794
    1DIPC   C4B 5424   4.515   5.811   4.972  0.1233  0.0081 -0.2909
    1DIPC   NC3 5425   1.760  21.807   7.173 -0.0314  0.2492  0.2650
    1DIPC   PO4 5426   1.618  21.424   7.178  0.2074  0.0156  0.3070
    1DIPC   GL1 5427   1.306  21.314   6.902 -0.2248 -0.1037 -0.3187
    1DIPC   GL2 5428   1.563  21.214   6.733 -0.2430  0.0473  0.0260
    1DIPC   C1A 5429   0.880  21.409   6.574 -0.0512 -0.1383  0.0981
    1DIPC   D2A 5430   1.014  21.529   6.140 -0.1793 -0.0531 -0.1282
    1DIPC   D3A 5431   0.932  21.784   5.815 -0.1589 -0.2428  0.1860
    1DIPC   C4A 5432   0.874  21.603   5.388 -0.0937 -0.0718 -0.4290
    1DIPC   C1B 5433   1.308  21.190   6.349 -0.3776 -0.2467  0.4708
    1DIPC   D2B 5434   1.077  20.944   6.229  0.0382  0.0255 -0.1118
    1DIPC   D3B 5435   1.008  20.965   5.817  0.1627 -0.0541  0.0503
    1DIPC   C4B 5436   0.610  20.916   5.625  0.1526 -0.2557 -0.1326
    1DIPC   NC3 5437  13.334   4.492   6.255 -0.4256 -0.0317 -0.1422
    1DIPC   PO4 5438  12.994   4.194   6.074  0.2521 -0.0152  0.1406
    1DIPC   GL1 5439  13.144   4.040   5.726  0.0689 -0.3918  0.0773
    1DIPC   GL2 5440  13.134   3.756   5.579  0.0796 -0.0137 -0.3244
    1DIPC   C1A 5441  13.616   4.099   5.589  0.1647  0.1246  0.2217
    1DIPC   D2A 5442  14.043   4.269   5.499 -0.1886  0.2875 -0.0069
    1DIPC   D3A 5443  14.311   4.565   5.375  0.0287 -0.2567  0.2602
    1DIPC   C4A 5444  14.422   4.355   4.967  0.2454  0.5128  0.1245
    1DIPC   C1B 5445  13.196   3.539   5.193  0.1281  0.2130  0.2175
    1DIPC   D2B 5446  13.208   3.591   4.806  0.0713 -0.2315 -0.0477
    1DIPC   D3B 5447  12.798   3.509   4.489  0.2862  0.0406 -0.0694
    1DIPC   C4B 5448  12.401   3.712   4.536 -0.0510  0.1865  0.0990
    1DIPC   NC3 5449  27.344  19.865   7.781 -0.0834 -0.0261  0.0765
    1DIPC   PO4 5450  27.109  20.143   7.415  0.0883  0.1072 -0.1622
    1DIPC   GL1 5451  27.003  20.262   6.995  0.2989  0.1216 -0.2565
    1DIPC   GL2 5452  26.971  20.585   7.124 -0.1572 -0.0044  0.0676
    1DIPC   C1A 5453  26.927  20.112   6.554  0.1163 -0.1401  0.0034
    1DIPC   D2A 5454  26.531  19.960   6.343  0.4521  0.4270  0.3462
    1DIPC   D3A 5455  26.137  19.839   6.566  0.0867  0.1390  0.2552
    1DIPC   C4A 5456  25.724  19.851   6.387 -0.1093 -0.0418 -0.0611
    1DIPC   C1B 5457  27.052  20.652   6.687  0.2255  0.0805  0.1479
    1DIPC   D2B 5458  26.826  20.939   6.403 -0.5971 -0.0537  0.0934
    1DIPC   D3B 5459  27.006  21.275   6.244  0.2201  0.0386 -0.0973
    1DIPC   C4B 5460  27.292  21.279   6.013  0.2075  0.2040 -0.1389
    1DIPC   NC3 5461  24.364  27.353   7.165  0.0225 -0.0944 -0.1019
    1DIPC   PO4 5462  24.313  27.735   7.045  0.2306 -0.0993 -0.1205
    1DIPC   GL1 5463  24.355  27.842   6.583  0.3866 -0.0915 -0.3374
    1DIPC   GL2 5464  24.542  28.097   6.476  0.0833 -0.0666 -0.0234
    1DIPC   C1A 5465  24.418  27.621   6.178 -0.0460  0.0527  0.0743
    1DIPC   D2A 5466  24.323  27.520   5.741  0.3178 -0.1549 -0.0491
    1DIPC   D3A 5467  24.224  27.078   5.792 -0.0726  0.2388  0.1849
    1DIPC   C4A 5468  23.821  27.026   5.757  0.0994  0.0006  0.0937
    1DIPC   C1B 5469  24.608  28.250   6.070  0.0051  0.1936  0.1929
    1DIPC   D2B 5470  24.471  28.343   5.709 -0.0847  0.0462 -0.1046
    1DIPC   D3B 5471  24.203  27.940   5.511 -0.0919 -0.1380  0.2961
    1DIPC   C4B 5472  24.148  27.807   5.100 -0.0188 -0.0975  0.0905
    1DIPC   NC3 5473   8.688   0.816   6.122  0.1568  0.4785  0.1025
    1DIPC   PO4 5474   8.735   1.173   5.902  0.3148  0.0177 -0.1995
    1DIPC   GL1 5475   8.799   1.212   5.466 -0.1376 -0.0711  0.1138
    1DIPC   GL2 5476   8.802   0.896   5.366 -0.0465  0.0468  0.0380
    1DIPC   C1A 5477   8.707   1.299   5.015 -0.1096  0.2015 -0.1352
    1DIPC   D2A 5478   8.879   1.347   4.541  0.0873 -0.2050 -0.1412
    1DIPC   D3A 5479   9.139   1.577   4.806 -0.4358  0.0341 -0.0373
    1DIPC   C4A 5480   9.612   1.455   4.852  0.2046  0.1543  0.1291
    1DIPC   C1B 5481   8.684   0.822   5.028  0.0266  0.1664 -0.1448
    1DIPC   D2B 5482   8.297   0.512   4.842 -0.0642  0.0390 -0.1200
    1DIPC   D3B 5483   8.185   0.195   5.178  0.1467  0.0244 -0.1175
    1DIPC   C4B 5484   8.465  29.364   5.203 -0.0126  0.1076 -0.3223
    1DIPC   NC3 5485  23.319  27.773   7.345 -0.0088 -0.0785 -0.0857
    1DIPC   PO4 5486  22.936  27.784   7.154 -0.0066 -0.0333  0.1780
    1DIPC   GL1 5487  22.724  27.829   6.793 -0.3121  0.3095 -0.0178
    1DIPC   GL2 5488  22.397  28.017   6.754  0.0914  0.2790  0.0978
    1DIPC   C1A 5489  22.761  27.706   6.413  0.3244  0.0604 -0.0154
    1DIPC   D2A 5490  22.709  27.738   6.018  0.0425 -0.0098 -0.0759
    1DIPC   D3A 5491  22.663  27.309   5.907  0.1023  0.3720 -0.1872
    1DIPC   C4A 5492  22.657  27.004   5.520 -0.2484 -0.1025  0.3168
    1DIPC   C1B 5493  22.259  27.881   6.376  0.1015  0.1830 -0.0463
    1DIPC   D2B 5494  22.191  27.932   5.929 -0.0414 -0.1521  0.2018
    1DIPC   D3B 5495  21.857  27.677   5.827 -0.0014 -0.0252 -0.3541
    1DIPC   C4B 5496  21.439  27.548   5.852  0.1628 -0.3779 -0.0897
    1DIPC   NC3 5497  23.931  26.968   6.769 -0.5386  0.0480  0.2708
    1DIPC   PO4 5498  23.480  27.094   6.876  0.0720 -0.0992  0.3307
    1DIPC   GL1 5499  23.299  27.053   6.521  0.0593  0.1730  0.6022
    1DIPC   GL2 5500  23.121  27.372   6.592 -0.1510 -0.1009  0.1045
    1DIPC   C1A 5501  23.342  26.923   6.026  0.2090 -0.0624  0.0420
    1DIPC   D2A 5502  23.235  26.916   5.588 -0.0570 -0.3088  0.0658
    1DIPC   D3A 5503  23.428  27.221   5.261  0.0437 -0.1148 -0.0090
    1DIPC   C4A 5504  23.912  27.494   5.446  0.1995 -0.2462  0.0561
    1DIPC   C1B 5505  23.108  27.412   6.136  0.0999 -0.0906 -0.0790
    1DIPC   D2B 5506  23.438  27.490   5.739  0.0513  0.1284  0.1597
    1DIPC   D3B 5507  23.007  27.408   5.572 -0.0041 -0.0144 -0.0142
    1DIPC   C4B 5508  22.599  27.704   5.495 -0.2899  0.1009  0.2510
    1DIPC   NC3 5509  26.969  28.553   7.242 -0.1754  0.2820 -0.0773
    1DIPC   PO4 5510  26.941  28.711   6.840 -0.1621  0.0806 -0.0381
    1DIPC   GL1 5511  27.346  28.810   6.594  0.3274  0.0385  0.1191
    1DIPC   GL2 5512  27.444  28.442   6.506  0.0473 -0.1580 -0.2047
    1DIPC   C1A 5513  27.604  29.019   6.249 -0.1444 -0.1760 -0.1083
    1DIPC   D2A 5514  27.987  29.044   6.265  0.0224 -0.3662  0.0250
    1DIPC   D3A 5515  28.204  29.336   5.966 -0.1671 -0.1080  0.0671
    1DIPC   C4A 5516  28.465  29.166   5.758  0.2079  0.0606  0.3578
    1DIPC   C1B 5517  27.385  28.542   6.125 -0.1805  0.0818  0.2111
    1DIPC   D2B 5518  27.405  28.621   5.660  0.4035 -0.1033  0.1360
    1DIPC   D3B 5519  27.193  28.251   5.793 -0.2424 -0.0328  0.0909
    1DIPC   C4B 5520  27.056  28.057   5.557  0.2425  0.1199  0.0583
    1DIPC   NC3 5521  10.185   2.132   6.367  0.0859  0.0672 -0.4260
    1DIPC   PO4 5522  10.362   1.777   6.164  0.2241 -0.0775 -0.2611
    1DIPC   GL1 5523  10.537   1.647   5.807  0.0212 -0.0711 -0.1923
    1DIPC   GL2 5524  10.477   1.347   5.659  0.0379  0.0370 -0.0070
    1DIPC   C1A 5525  10.457   1.671   5.341 -0.1801 -0.1197  0.0404
    1DIPC   D2A 5526  10.373   1.778   4.928 -0.2366 -0.3239 -0.1100
    1DIPC   D3A 5527  10.532   1.502   4.781  0.1111  0.2215 -0.1201
    1DIPC   C4A 5528  10.962   1.331   4.663 -0.2250 -0.0401  0.1157
    1DIPC   C1B 5529  10.853   1.225   5.506 -0.1731 -0.1572 -0.0935
    1DIPC   D2B 5530  11.076   1.203   5.158  0.3063 -0.0228  0.3251
    1DIPC   D3B 5531  10.725   0.971   4.924  0.3230 -0.1160  0.0904
    1DIPC   C4B 5532  10.686   0.643   4.642  0.0438  0.2697 -0.0930
    1DIPC   NC3 5533   8.766  13.525   6.199 -0.1610  0.4550 -0.0482
    1DIPC   PO4 5534   8.780  13.251   5.931 -0.0120  0.4694 -0.3207
    1DIPC   GL1 5535   8.833  13.671   5.717  0.2100  0.1316 -0.0281
    1DIPC   GL2 5536   9.082  13.677   5.478 -0.0424  0.2513  0.1013
    1DIPC   C1A 5537   8.772  14.055   5.434  0.3303  0.2289  0.0602
    1DIPC   D2A 5538   8.945  14.497   5.156 -0.3149 -0.2146 -0.0586
    1DIPC   D3A 5539   8.908  14.416   4.663 -0.0386  0.0827  0.1345
    1DIPC   C4A 5540   8.677  14.121   4.395  0.2676 -0.2959 -0.0669
    1DIPC   C1B 5541   8.783  13.579   5.201 -0.2494 -0.0799 -0.0666
    1DIPC   D2B 5542   8.697  13.522   4.810  0.1383  0.1122 -0.2042
    1DIPC   D3B 5543   9.056  13.318   4.741  0.0825  0.3745  0.1691
    1DIPC   C4B 5544   9.262  13.414   5.120  0.1308  0.0647  0.4729
    1DIPC   NC3 5545   1.959  16.490   6.758 -0.3716 -0.1174  0.0165
    1DIPC   PO4 5546   2.303  16.262   6.781 -0.1337 -0.0852  0.1013
    1DIPC   GL1 5547   2.313  16.412   6.318  0.1742  0.3350  0.0180
    1DIPC   GL2 5548   2.571  16.673   6.381  0.0016  0.0566 -0.0862
    1DIPC   C1A 5549   2.302  16.587   5.910 -0.0181  0.0476 -0.0650
    1DIPC   D2A 5550   2.332  16.934   5.689  0.0242 -0.2908  0.3098
    1DIPC   D3A 5551   2.320  16.884   5.240 -0.1486 -0.2273 -0.0605
    1DIPC   C4A 5552   2.535  17.085   4.937  0.0210  0.4080 -0.3405
    1DIPC   C1B 5553   2.852  16.793   6.062  0.0733 -0.3065  0.1477
    1DIPC   D2B 5554   3.236  16.857   5.817 -0.2474  0.0971 -0.0548
    1DIPC   D3B 5555   2.851  16.795   5.558  0.0012  0.1176 -0.0305
    1DIPC   C4B 5556   3.022  17.106   5.331 -0.0261  0.4003  0.1865
    1DIPC   NC3 5557  19.463  22.289   7.714 -0.1806  0.0691 -0.0091
    1DIPC   PO4 5558  19.484  22.596   7.286  0.1205 -0.3140  0.1632
    1DIPC   GL1 5559  19.875  22.831   7.061 -0.1328 -0.2947  0.0246
    1DIPC   GL2 5560  19.730  22.753   6.880  0.0303  0.4407  0.1803
    1DIPC   C1A 5561  20.022  23.130   6.719  0.0284  0.2123  0.3689
    1DIPC   D2A 5562  20.052  23.479   6.704 -0.1805 -0.1648  0.4497
    1DIPC   D3A 5563  19.642  23.381   6.481  0.0746  0.2587  0.2046
    1DIPC   C4A 5564  19.614  22.895   6.404 -0.0374 -0.3187 -0.1464
    1DIPC   C1B 5565  20.043  22.611   6.590 -0.0986  0.2511  0.0574
    1DIPC   D2B 5566  20.000  22.606   6.130 -0.0127  0.1187  0.2725
    1DIPC   D3B 5567  20.404  22.606   5.885  0.5107  0.2771 -0.1392
    1DIPC   C4B 5568  20.543  22.870   5.583 -0.2370 -0.1647  0.1823
    1DIPC   NC3 5569   3.065  28.489   7.198  0.3999 -0.1158 -0.0731
    1DIPC   PO4 5570   2.906  28.126   6.989 -0.0411 -0.0407  0.3844
    1DIPC   GL1 5571   2.815  28.121   6.601 -0.2330 -0.0810 -0.1943
    1DIPC   GL2 5572   3.075  28.328   6.414  0.2783 -0.3031 -0.1258
    1DIPC   C1A 5573   2.516  28.108   6.239 -0.4366 -0.0159  0.0012
    1DIPC   D2A 5574   2.635  27.993   5.836  0.0163 -0.1513  0.3333
    1DIPC   D3A 5575   2.437  28.310   5.691  0.1142  0.2152 -0.1826
    1DIPC   C4A 5576   2.230  28.643   5.999  0.5262 -0.0019 -0.0265
    1DIPC   C1B 5577   2.818  28.450   5.933  0.0133 -0.3380  0.1934
    1DIPC   D2B 5578   2.847  28.410   5.484 -0.1575 -0.1224  0.4186
    1DIPC   D3B 5579   3.216  28.235   5.412 -0.2731  0.0039 -0.0441
    1DIPC   C4B 5580   3.128  27.820   5.586  0.0159  0.0126  0.3565
    1DIPC   NC3 5581   6.114  12.020   5.330  0.0132 -0.1884 -0.5058
    1DIPC   PO4 5582   5.720  12.091   5.579  0.0453  0.3222 -0.1921
    1DIPC   GL1 5583   5.575  11.871   5.191 -0.3361  0.0792  0.0688
    1DIPC   GL2 5584   5.384  11.630   5.260 -0.1285 -0.3405  0.3362
    1DIPC   C1A 5585   5.715  11.616   4.820 -0.4408 -0.1413  0.0571
    1DIPC   D2A 5586   5.357  11.374   4.496  0.0646 -0.0225  0.0850
    1DIPC   D3A 5587   5.505  11.505   4.003 -0.2612 -0.1212  0.1315
    1DIPC   C4A 5588   5.871  11.707   3.854 -0.0333 -0.0702 -0.2306
    1DIPC   C1B 5589   5.230  11.678   4.862 -0.1191 -0.0677 -0.1759
    1DIPC   D2B 5590   5.142  12.001   4.602 -0.3316  0.0292  0.0850
    1DIPC   D3B 5591   5.206  12.149   4.211 -0.0459 -0.1346 -0.0031
    1DIPC   C4B 5592   4.857  12.293   3.897  0.1952  0.2769  0.2155
    1DIPC   NC3 5593  24.959  23.607   7.825 -0.1405  0.0433  0.0801
    1DIPC   PO4 5594  24.603  23.387   7.741 -0.0569  0.2189 -0.2280
    1DIPC   GL1 5595  24.532  23.352   7.227 -0.1334 -0.0019 -0.1418
    1DIPC   GL2 5596  24.796  23.389   7.013 -0.0971 -0.2006  0.1124
    1DIPC   C1A 5597  24.346  23.592   6.896 -0.1023 -0.2273 -0.0454
    1DIPC   D2A 5598  24.012  23.575   6.564 -0.0752 -0.1858  0.1914
    1DIPC   D3A 5599  23.965  23.546   6.180 -0.1378  0.3326 -0.1244
    1DIPC   C4A 5600  24.068  23.213   5.894  0.1427 -0.3222 -0.2762
    1DIPC   C1B 5601  24.725  23.569   6.599  0.2542  0.1168  0.2491
    1DIPC   D2B 5602  25.018  23.582   6.361 -0.1082 -0.4525 -0.1417
    1DIPC   D3B 5603  24.855  23.566   5.985  0.2775  0.3026  0.3232
    1DIPC   C4B 5604  24.740  23.156   5.627 -0.1017 -0.2611  0.0313
    1DIPC   NC3 5605  17.376  25.781   7.551  0.1259 -0.0854  0.1616
    1DIPC   PO4 5606  17.133  26.044   7.346  0.1784  0.0535  0.0109
    1DIPC   GL1 5607  17.124  26.009   6.887 -0.1631  0.3066 -0.0585
    1DIPC   GL2 5608  16.743  26.166   6.688 -0.0854 -0.3053  0.0206
    1DIPC   C1A 5609  17.345  26.169   6.514  0.0845  0.2284  0.1615
    1DIPC   D2A 5610  17.454  26.288   6.122 -0.2422 -0.2557  0.0227
    1DIPC   D3A 5611  17.274  26.620   5.844  0.0363  0.1190 -0.2148
    1DIPC   C4A 5612  17.372  26.643   5.432 -0.0034  0.3141  0.1296
    1DIPC   C1B 5613  16.898  26.116   6.225  0.0443 -0.0492  0.0303
    1DIPC   D2B 5614  17.122  25.973   5.978  0.0300 -0.2273 -0.0129
    1DIPC   D3B 5615  17.507  26.172   5.619 -0.1704  0.2363 -0.2076
    1DIPC   C4B 5616  17.855  26.096   5.758 -0.1870  0.0007  0.4335
    1DIPC   NC3 5617  23.949  26.048   7.352 -0.1584  0.3631  0.2288
    1DIPC   PO4 5618  24.301  26.195   7.165  0.1742 -0.0275 -0.2647
    1DIPC   GL1 5619  24.526  25.964   6.951  0.2819  0.0179  0.1975
    1DIPC   GL2 5620  24.731  26.168   6.782  0.0924  0.0525 -0.0369
    1DIPC   C1A 5621  24.348  25.802   6.519 -0.0755  0.0933 -0.0313
    1DIPC   D2A 5622  24.116  26.111   6.186  0.2875 -0.0859 -0.1441
    1DIPC   D3A 5623  24.022  26.503   6.415 -0.0510 -0.2585  0.0110
    1DIPC   C4A 5624  23.915  26.819   6.171  0.1897  0.1311 -0.0656
    1DIPC   C1B 5625  24.530  26.233   6.309 -0.2734  0.2699 -0.0131
    1DIPC   D2B 5626  24.568  26.198   5.773 -0.0724 -0.0512 -0.0477
    1DIPC   D3B 5627  24.314  26.042   5.475 -0.1348  0.0542 -0.1254
    1DIPC   C4B 5628  24.355  25.712   5.166  0.3081  0.0176  0.0085
    1DIPC   NC3 5629   5.546  11.570   5.688 -0.1461 -0.1670  0.0991
    1DIPC   PO4 5630   5.074  11.611   5.697 -0.0670 -0.0433  0.1299
    1DIPC   GL1 5631   4.859  11.762   5.306 -0.3882  0.1554  0.2555
    1DIPC   GL2 5632   4.575  11.693   5.006 -0.2150  0.1163 -0.0506
    1DIPC   C1A 5633   4.549  12.095   5.280  0.1103  0.0566 -0.3292
    1DIPC   D2A 5634   4.394  12.365   5.616  0.1604  0.2883 -0.0955
    1DIPC   D3A 5635   4.320  12.616   5.323 -0.0986 -0.0451 -0.4103
    1DIPC   C4A 5636   4.483  12.455   4.905 -0.4653 -0.0620  0.0181
    1DIPC   C1B 5637   4.673  11.980   4.780  0.1298 -0.1664  0.1787
    1DIPC   D2B 5638   4.681  12.324   4.491 -0.2110  0.3229  0.1215
    1DIPC   D3B 5639   5.016  12.583   4.611 -0.2970 -0.1261  0.0874
    1DIPC   C4B 5640   5.067  13.014   4.407 -0.4491  0.0612 -0.2499
    1DIPC   NC3 5641  16.581   1.645   6.966 -0.1019  0.0531  0.0476
    1DIPC   PO4 5642  16.566   1.831   6.583 -0.0562 -0.3836  0.0971
    1DIPC   GL1 5643  16.740   2.092   6.243 -0.0461  0.3126 -0.1495
    1DIPC   GL2 5644  16.654   1.820   6.044 -0.1303 -0.1135  0.0257
    1DIPC   C1A 5645  17.005   2.139   5.938  0.1209 -0.0698 -0.1467
    1DIPC   D2A 5646  17.338   2.232   5.506 -0.1070 -0.1506 -0.0787
    1DIPC   D3A 5647  17.275   2.703   5.580  0.1054  0.0839 -0.3748
    1DIPC   C4A 5648  16.794   2.626   5.723 -0.2558 -0.2404  0.3678
    1DIPC   C1B 5649  16.520   1.489   5.734 -0.1508 -0.0293  0.0595
    1DIPC   D2B 5650  16.800   1.119   5.744 -0.3209  0.2168 -0.1908
    1DIPC   D3B 5651  16.772   0.886   5.440 -0.0198 -0.1144 -0.1627
    1DIPC   C4B 5652  16.460   0.702   5.243  0.2110  0.1633 -0.0880
    1DIPC   NC3 5653  17.173  28.820   7.023 -0.0941  0.2230  0.0543
    1DIPC   PO4 5654  16.784  28.945   6.891 -0.0538 -0.1968 -0.0035
    1DIPC   GL1 5655  16.504  28.873   6.473 -0.0868 -0.0343 -0.1501
    1DIPC   GL2 5656  16.221  29.042   6.454 -0.0291  0.0610  0.0932
    1DIPC   C1A 5657  16.408  28.843   6.017  0.3535 -0.0014 -0.2757
    1DIPC   D2A 5658  16.393  28.919   5.560  0.3169 -0.0140 -0.1490
    1DIPC   D3A 5659  16.361  28.796   5.073 -0.2933  0.1090  0.1768
    1DIPC   C4A 5660  16.618  28.664   4.799  0.1834  0.0461 -0.2279
    1DIPC   C1B 5661  15.948  28.994   6.201  0.1558  0.1572 -0.2125
    1DIPC   D2B 5662  15.922  28.866   5.792 -0.1844  0.0257  0.4118
    1DIPC   D3B 5663  15.952  28.705   5.352 -0.2240 -0.2475 -0.0740
    1DIPC   C4B 5664  15.587  28.663   5.229  0.3343 -0.1982 -0.1122
    1DIPC   NC3 5665   7.871   8.797   5.894  0.0452  0.1874  0.0588
    1DIPC   PO4 5666   7.489   8.692   5.699 -0.0782 -0.1831 -0.1688
    1DIPC   GL1 5667   7.632   8.268   5.531 -0.2587 -0.2058  0.0153
    1DIPC   GL2 5668   7.991   8.256   5.451 -0.0909  0.0472 -0.1370
    1DIPC   C1A 5669   7.694   8.208   5.027 -0.1041 -0.2881  0.1021
    1DIPC   D2A 5670   7.838   8.577   4.725  0.1042 -0.2148 -0.1551
    1DIPC   D3A 5671   8.310   8.714   4.706  0.2948  0.1289  0.0391
    1DIPC   C4A 5672   8.607   8.499   4.504 -0.1631  0.0003  0.4778
    1DIPC   C1B 5673   8.047   8.534   5.189  0.0427  0.2151  0.2549
    1DIPC   D2B 5674   8.175   8.928   5.193  0.0019 -0.0230 -0.0447
    1DIPC   D3B 5675   8.571   8.910   5.088  0.1765 -0.0566 -0.1506
    1DIPC   C4B 5676   8.722   9.065   4.766  0.0069  0.1494 -0.0010
    1DIPC   NC3 5677  11.489   5.784   6.144  0.3647 -0.1340  0.0902
    1DIPC   PO4 5678  11.129   5.561   6.106 -0.2540  0.2837  0.1736
    1DIPC   GL1 5679  10.944   5.712   5.702 -0.2195  0.2711 -0.1581
    1DIPC   GL2 5680  10.765   6.004   5.586  0.0344 -0.0713  0.0031
    1DIPC   C1A 5681  10.942   5.647   5.309 -0.0704  0.1416 -0.4245
    1DIPC   D2A 5682  11.337   5.580   5.125  0.0248  0.0352  0.0982
    1DIPC   D3A 5683  11.380   5.191   5.038 -0.0688 -0.1050 -0.0854
    1DIPC   C4A 5684  11.432   5.168   4.640 -0.1061  0.0133  0.1169
    1DIPC   C1B 5685  10.697   6.180   5.183 -0.3727  0.4806  0.1194
    1DIPC   D2B 5686  10.567   6.092   4.714 -0.5019  0.1062  0.0517
    1DIPC   D3B 5687  10.441   6.520   4.565  0.2832 -0.1200 -0.1487
    1DIPC   C4B 5688  10.035   6.561   4.561 -0.2050 -0.1845  0.1559
    1DIPC   NC3 5689   6.859  14.067   5.964 -0.1381  0.0145 -0.5384
    1DIPC   PO4 5690   7.189  14.047   5.980 -0.1413  0.3378  0.1218
    1DIPC   GL1 5691   7.124  14.220   5.527  0.2303 -0.3023  0.0872
    1DIPC   GL2 5692   7.342  14.528   5.317  0.1852  0.3618  0.2380
    1DIPC   C1A 5693   6.880  14.307   5.163  0.2795  0.1903 -0.2017
    1DIPC   D2A 5694   6.612  14.158   4.786 -0.1760  0.1775  0.1658
    1DIPC   D3A 5695   6.835  13.759   4.561 -0.1094 -0.2996 -0.2153
    1DIPC   C4A 5696   7.173  13.821   4.328 -0.0886 -0.1383  0.2262
    1DIPC   C1B 5697   7.131  14.793   4.966 -0.0168 -0.1147  0.1350
    1DIPC   D2B 5698   6.746  14.715   4.791 -0.0089 -0.0044 -0.0810
    1DIPC   D3B 5699   6.931  14.345   4.451  0.1939  0.0013  0.0311
    1DIPC   C4B 5700   7.242  14.309   4.092  0.2018  0.0785  0.0664
    1DIPC   NC3 5701  14.490  21.668   6.452  0.3221 -0.0513  0.3521
    1DIPC   PO4 5702  14.139  21.687   6.102 -0.0715 -0.1453  0.0179
    1DIPC   GL1 5703  14.152  22.061   5.787  0.0821 -0.1876  0.1580
    1DIPC   GL2 5704  13.891  22.107   5.573 -0.1652 -0.1032 -0.1698
    1DIPC   C1A 5705  14.255  22.425   5.412 -0.0518  0.0474  0.0162
    1DIPC   D2A 5706  14.380  22.479   4.963 -0.0937  0.1713 -0.2790
    1DIPC   D3A 5707  14.240  22.871   4.650 -0.0409 -0.0816 -0.0489
    1DIPC   C4A 5708  13.961  23.203   4.755  0.1327  0.0717 -0.0222
    1DIPC   C1B 5709  13.950  21.807   5.344 -0.4020  0.4230  0.3545
    1DIPC   D2B 5710  14.182  21.496   4.973  0.3069 -0.2610 -0.1867
    1DIPC   D3B 5711  14.375  21.146   5.285 -0.1379  0.1192 -0.0853
    1DIPC   C4B 5712  14.676  21.359   5.546 -0.3217  0.0533  0.1649
    1DIPC   NC3 5713   5.696   2.266   6.389 -0.1712  0.3489 -0.2708
    1DIPC   PO4 5714   6.037   2.013   6.631 -0.0132  0.0863  0.3748
    1DIPC   GL1 5715   6.090   2.084   6.178  0.4036  0.1218 -0.3531
    1DIPC   GL2 5716   5.851   2.141   5.883 -0.1784 -0.2862 -0.0923
    1DIPC   C1A 5717   6.286   2.069   5.711  0.0938 -0.1476  0.0083
    1DIPC   D2A 5718   6.133   2.060   5.296 -0.1397 -0.0079 -0.0572
    1DIPC   D3A 5719   5.974   2.318   5.025  0.1739  0.1391 -0.1462
    1DIPC   C4A 5720   5.931   2.309   4.596 -0.0605  0.3734 -0.0594
    1DIPC   C1B 5721   5.713   1.921   5.591 -0.0249 -0.4029 -0.0682
    1DIPC   D2B 5722   5.389   1.993   5.232 -0.2855  0.0643 -0.1999
    1DIPC   D3B 5723   5.490   2.063   4.785 -0.1746  0.2740  0.3578
    1DIPC   C4B 5724   5.749   1.776   4.531  0.0404 -0.0105 -0.1079
    1DIPC   NC3 5725   0.827  23.372   7.114 -0.1270 -0.4725 -0.0454
    1DIPC   PO4 5726   0.403  23.078   7.159  0.0512  0.0384  0.2975
    1DIPC   GL1 5727   0.519  23.104   6.638  0.2922 -0.0677  0.0798
    1DIPC   GL2 5728   0.683  23.330   6.535 -0.0663 -0.4523  0.3585
    1DIPC   C1A 5729   0.548  23.062   6.149 -0.1741  0.0975 -0.0083
    1DIPC   D2A 5730   0.559  22.990   5.722  0.2142  0.3839 -0.0005
    1DIPC   D3A 5731   0.911  22.692   5.630 -0.0518  0.2835 -0.1466
    1DIPC   C4A 5732   0.942  22.609   6.026 -0.3646 -0.0799 -0.0214
    1DIPC   C1B 5733   1.008  23.368   6.266 -0.1001 -0.2775  0.0777
    1DIPC   D2B 5734   1.042  23.065   5.971 -0.2361  0.0381  0.2566
    1DIPC   D3B 5735   1.085  23.159   5.540 -0.0889 -0.0834 -0.1994
    1DIPC   C4B 5736   1.312  22.867   5.328  0.1319 -0.1977 -0.1390
    1DIPC   NC3 5737  10.044  15.970   6.275 -0.1774 -0.0913  0.0315
    1DIPC   PO4 5738   9.622  15.864   6.317 -0.0899 -0.1738  0.0494
    1DIPC   GL1 5739   9.723  15.733   5.932  0.1600 -0.2833 -0.1107
    1DIPC   GL2 5740   9.904  15.785   5.619 -0.1047 -0.1065 -0.2622
    1DIPC   C1A 5741   9.440  15.714   5.536  0.0225  0.1851 -0.3095
    1DIPC   D2A 5742   9.140  15.896   5.314  0.1977 -0.0562  0.0763
    1DIPC   D3A 5743   9.058  15.467   5.289 -0.2920  0.0932 -0.3061
    1DIPC   C4A 5744   9.411  15.139   5.386 -0.0307  0.1484  0.1900
    1DIPC   C1B 5745   9.971  15.910   5.190 -0.1190 -0.1090  0.3271
    1DIPC   D2B 5746  10.270  15.937   4.838 -0.0719  0.1713 -0.3955
    1DIPC   D3B 5747  10.515  15.732   4.503  0.1145  0.0284  0.0529
    1DIPC   C4B 5748  10.356  15.391   4.338 -0.3482 -0.2413 -0.2083
    1DIPC   NC3 5749  17.092   5.856   6.717  0.0858  0.0480 -0.2220
    1DIPC   PO4 5750  17.029   5.896   6.353  0.2309 -0.0196  0.1828
    1DIPC   GL1 5751  16.852   5.894   5.979 -0.1589 -0.2238 -0.0524
    1DIPC   GL2 5752  16.482   6.030   5.973 -0.3678  0.0856  0.0452
    1DIPC   C1A 5753  16.860   5.888   5.577 -0.0979  0.0388  0.0974
    1DIPC   D2A 5754  17.098   5.913   5.213  0.1809  0.2088  0.2663
    1DIPC   D3A 5755  16.922   6.087   4.878  0.1345  0.1807  0.0106
    1DIPC   C4A 5756  16.745   5.747   4.536 -0.0623  0.4141  0.0815
    1DIPC   C1B 5757  16.425   6.191   5.555 -0.0770  0.2075 -0.3158
    1DIPC   D2B 5758  16.490   6.189   5.112 -0.1974 -0.2258  0.0373
    1DIPC   D3B 5759  16.414   6.097   4.692 -0.0330  0.2779 -0.0843
    1DIPC   C4B 5760  16.331   6.499   4.534  0.4139 -0.1954 -0.1347
    1DIPC   NC3 5761   9.145   2.886   5.970 -0.1138 -0.3569  0.2451
    1DIPC   PO4 5762   8.844   2.562   6.293 -0.2246 -0.0254  0.3104
    1DIPC   GL1 5763   8.656   2.522   5.912  0.1633  0.1667 -0.1247
    1DIPC   GL2 5764   8.478   2.361   5.686  0.2143  0.1480 -0.1557
    1DIPC   C1A 5765   8.509   2.840   5.586  0.2405 -0.1059 -0.0471
    1DIPC   D2A 5766   8.417   2.819   5.197  0.1028  0.1175 -0.1120
    1DIPC   D3A 5767   8.902   2.701   5.088  0.0144 -0.2217 -0.0971
    1DIPC   C4A 5768   9.161   2.521   4.655 -0.1113 -0.1414 -0.2297
    1DIPC   C1B 5769   8.534   2.344   5.254 -0.1363  0.0212  0.0554
    1DIPC   D2B 5770   8.478   2.342   4.762  0.1053 -0.1443  0.2480
    1DIPC   D3B 5771   8.667   2.619   4.626  0.2867 -0.0104 -0.1948
    1DIPC   C4B 5772   8.514   2.895   4.326  0.0744  0.1335 -0.1820
    1DIPC   NC3 5773   6.315  11.338   5.187  0.1876  0.0951 -0.4176
    1DIPC   PO4 5774   6.761  11.243   5.116 -0.3221 -0.1291  0.3629
    1DIPC   GL1 5775   6.589  11.312   4.774 -0.2816  0.0268  0.1165
    1DIPC   GL2 5776   6.741  11.069   4.628  0.0236  0.1235 -0.1735
    1DIPC   C1A 5777   6.591  11.641   4.497 -0.0552 -0.0112 -0.0814
    1DIPC   D2A 5778   6.767  12.069   4.498  0.0809  0.1154 -0.4863
    1DIPC   D3A 5779   6.825  12.043   4.014  0.0931  0.0333  0.1271
    1DIPC   C4A 5780   7.172  12.253   3.882  0.1593  0.0319  0.0616
    1DIPC   C1B 5781   6.736  11.180   4.250  0.2437 -0.2045  0.2174
    1DIPC   D2B 5782   6.446  11.410   3.977  0.0749 -0.2348  0.3054
    1DIPC   D3B 5783   6.391  11.836   4.123  0.0234  0.1533  0.0387
    1DIPC   C4B 5784   6.379  12.226   3.867  0.4299  0.0362 -0.1550
    1DIPC   NC3 5785  22.373  17.507   7.079 -0.1001 -0.1323 -0.2697
    1DIPC   PO4 5786  22.057  17.908   7.184 -0.0265 -0.1113 -0.0042
    1DIPC   GL1 5787  22.077  17.945   6.773  0.0790  0.0935 -0.0443
    1DIPC   GL2 5788  22.059  17.616   6.666  0.0819  0.0683  0.1848
    1DIPC   C1A 5789  21.957  18.113   6.380 -0.0247 -0.3606  0.1847
    1DIPC   D2A 5790  21.794  18.191   5.949  0.1222  0.2519  0.0595
    1DIPC   D3A 5791  21.967  18.345   5.501  0.1293 -0.0637 -0.2159
    1DIPC   C4A 5792  22.386  18.412   5.555  0.3269 -0.2497  0.0130
    1DIPC   C1B 5793  21.728  17.358   6.689 -0.0711 -0.2114 -0.1773
    1DIPC   D2B 5794  21.517  17.122   6.382 -0.0908 -0.0333 -0.0164
    1DIPC   D3B 5795  21.159  17.062   6.212 -0.0485 -0.0929 -0.0394
    1DIPC   C4B 5796  20.999  16.841   5.728 -0.1202 -0.0283  0.1051
    1DIPC   NC3 5797   3.954  10.141   6.005  0.0471  0.1474  0.1392
    1DIPC   PO4 5798   3.932  10.509   5.619 -0.0640 -0.1605 -0.0584
    1DIPC   GL1 5799   3.822  10.786   5.218 -0.0456  0.0086 -0.1526
    1DIPC   GL2 5800   4.112  10.941   5.120  0.0579 -0.1442 -0.2088
    1DIPC   C1A 5801   3.684  11.161   5.023 -0.1359  0.2756  0.1659
    1DIPC   D2A 5802   3.501  11.266   4.629 -0.0589  0.0123 -0.1770
    1DIPC   D3A 5803   3.486  10.923   4.611  0.3817  0.2747 -0.2018
    1DIPC   C4A 5804   3.592  10.711   4.252 -0.0344  0.1044 -0.3764
    1DIPC   C1B 5805   4.031  10.773   4.772 -0.1820  0.1092 -0.1683
    1DIPC   D2B 5806   3.871  10.467   4.562  0.0750 -0.2095  0.2919
    1DIPC   D3B 5807   3.618  10.412   4.961  0.0198  0.2993  0.0155
    1DIPC   C4B 5808   3.229  10.639   4.990 -0.1252  0.0638 -0.1212
    1DIPC   NC3 5809  12.030  18.148   5.970  0.1713  0.1880 -0.2170
    1DIPC   PO4 5810  12.108  17.791   5.798  0.2414 -0.0541  0.1998
    1DIPC   GL1 5811  12.018  17.798   5.337  0.0860  0.0162 -0.1652
    1DIPC   GL2 5812  11.711  17.921   5.216 -0.1957 -0.2243  0.1264
    1DIPC   C1A 5813  11.955  17.608   4.915 -0.0214  0.3417  0.3555
    1DIPC   D2A 5814  11.708  17.324   4.856  0.2233  0.0661 -0.1695
    1DIPC   D3A 5815  11.560  16.988   5.139  0.3849  0.0645 -0.0392
    1DIPC   C4A 5816  11.251  16.751   5.065 -0.2556  0.2182 -0.1997
    1DIPC   C1B 5817  11.599  17.872   4.725  0.0903 -0.0233 -0.4425
    1DIPC   D2B 5818  11.407  18.135   4.575  0.0817  0.2301 -0.1334
    1DIPC   D3B 5819  11.126  17.903   4.359  0.1330  0.2807  0.0681
    1DIPC   C4B 5820  11.043  17.545   4.456 -0.0781 -0.0450 -0.0215
    1DIPC   NC3 5821  14.384  28.759   6.498  0.1297  0.0862  0.0094
    1DIPC   PO4 5822  14.694  29.167   6.483  0.0016 -0.0324 -0.4544
    1DIPC   GL1 5823  14.768  28.951   6.146 -0.0441  0.2145  0.0591
    1DIPC   GL2 5824  14.507  28.851   6.021 -0.1400  0.1120  0.2601
    1DIPC   C1A 5825  14.931  28.650   5.783  0.1345  0.0801 -0.4514
    1DIPC   D2A 5826  15.215  28.762   5.513  0.0587  0.0806  0.2668
    1DIPC   D3A 5827  15.543  28.476   5.721  0.3463  0.2967  0.3205
    1DIPC   C4A 5828  15.811  28.122   5.578  0.1638  0.1295  0.1433
    1DIPC   C1B 5829  14.265  29.127   5.703 -0.1773 -0.2453  0.1628
    1DIPC   D2B 5830  14.218  28.980   5.306 -0.1132  0.0001 -0.1409
    1DIPC   D3B 5831  13.776  28.757   5.179 -0.1034 -0.1177 -0.0656
    1DIPC   C4B 5832  13.771  28.319   5.032 -0.1719  0.2685 -0.1181
    1DIPC   NC3 5833  18.428  17.831   7.133 -0.1260 -0.0675  0.1732
    1DIPC   PO4 5834  18.167  18.194   6.985 -0.0592  0.0733 -0.1837
    1DIPC   GL1 5835  18.037  18.266   6.591  0.0088 -0.2597  0.1381
    1DIPC   GL2 5836  18.177  18.390   6.368 -0.0003  0.1161  0.1445
    1DIPC   C1A 5837  17.898  17.928   6.456 -0.0593 -0.2115  0.0410
    1DIPC   D2A 5838  17.593  17.892   6.213  0.2077 -0.0635  0.3271
    1DIPC   D3A 5839  17.925  18.124   6.012  0.0938 -0.1292 -0.0565
    1DIPC   C4A 5840  17.897  18.132   5.527  0.0056  0.1927  0.0911
    1DIPC   C1B 5841  18.405  18.328   5.925  0.2570  0.2241  0.0171
    1DIPC   D2B 5842  18.806  18.373   5.757  0.2655 -0.2566 -0.2242
    1DIPC   D3B 5843  18.943  17.998   5.926 -0.0481 -0.1111 -0.0820
    1DIPC   C4B 5844  19.157  17.685   5.607 -0.3992 -0.3147  0.0944
    1DIPC   NC3 5845  12.921  18.446   5.998 -0.1052  0.3188 -0.2535
    1DIPC   PO4 5846  13.302  18.310   5.910  0.1521  0.4119 -0.0365
    1DIPC   GL1 5847  13.527  18.398   5.627 -0.0847 -0.1524  0.1002
    1DIPC   GL2 5848  13.664  18.147   5.513 -0.2270  0.0546 -0.0282
    1DIPC   C1A 5849  13.396  18.619   5.228 -0.0927  0.3387 -0.0863
    1DIPC   D2A 5850  13.211  18.635   4.820  0.0470 -0.0148  0.1287
    1DIPC   D3A 5851  13.347  18.296   4.679  0.0821  0.1060  0.1044
    1DIPC   C4A 5852  13.203  17.864   4.630 -0.2177  0.0426  0.2360
    1DIPC   C1B 5853  13.692  18.253   5.091  0.2134  0.1648 -0.3022
    1DIPC   D2B 5854  13.851  18.282   4.649  0.2621  0.2263  0.3795
    1DIPC   D3B 5855  13.706  18.380   4.266 -0.1072  0.2638 -0.0188
    1DIPC   C4B 5856  13.263  18.620   4.327 -0.2497  0.0173  0.2992
    1DIPC   NC3 5857  13.064  27.121   6.353  0.3276 -0.1501 -0.1715
    1DIPC   PO4 5858  13.405  26.823   6.341 -0.0473 -0.2095 -0.4947
    1DIPC   GL1 5859  13.367  26.903   5.851 -0.0030  0.0080 -0.2289
    1DIPC   GL2 5860  13.600  26.829   5.667  0.5138 -0.4705  0.1404
    1DIPC   C1A 5861  13.475  27.334   5.644 -0.3091  0.2015  0.0243
    1DIPC   D2A 5862  13.532  27.477   5.125 -0.1422  0.0995 -0.3270
    1DIPC   D3A 5863  13.473  27.892   5.094  0.1103 -0.1335  0.0498
    1DIPC   C4A 5864  12.982  28.069   5.112 -0.0671 -0.0260 -0.1027
    1DIPC   C1B 5865  13.777  26.970   5.282 -0.1007  0.1987 -0.0745
    1DIPC   D2B 5866  14.013  26.894   4.935 -0.1789 -0.2249  0.1870
    1DIPC   D3B 5867  13.615  27.074   4.826  0.1011  0.1376  0.1058
    1DIPC   C4B 5868  13.360  26.893   4.605  0.3346 -0.0711  0.0035
    1DIPC   NC3 5869   6.434  10.852   5.044  0.0572  0.1305  0.0990
    1DIPC   PO4 5870   5.964  10.939   5.053 -0.1744 -0.0949 -0.0772
    1DIPC   GL1 5871   5.994  11.177   4.670 -0.1467  0.0002  0.0868
    1DIPC   GL2 5872   6.129  11.564   4.644  0.1376 -0.0942  0.0129
    1DIPC   C1A 5873   6.010  11.148   4.267 -0.1319  0.0129 -0.2008
    1DIPC   D2A 5874   5.840  11.161   3.843  0.0469  0.2001  0.1739
    1DIPC   D3A 5875   5.380  11.082   3.793 -0.0000  0.1668  0.1357
    1DIPC   C4A 5876   5.155  11.313   3.746  0.1559  0.4281  0.5103
    1DIPC   C1B 5877   6.097  12.051   4.457  0.0818 -0.1444 -0.0073
    1DIPC   D2B 5878   5.949  12.425   4.461 -0.1013  0.1322  0.3789
    1DIPC   D3B 5879   6.131  12.804   4.439  0.1887 -0.1306 -0.0928
    1DIPC   C4B 5880   5.961  13.142   4.710  0.0171 -0.2614 -0.0545
    1DIPC   NC3 5881  12.506  11.562   5.645 -0.0566  0.0292 -0.0991
    1DIPC   PO4 5882  12.816  11.368   5.825 -0.1068  0.0547 -0.1426
    1DIPC   GL1 5883  12.951  11.305   5.498 -0.1257 -0.1085 -0.0430
    1DIPC   GL2 5884  13.054  11.541   5.381  0.1198  0.1605  0.0273
    1DIPC   C1A 5885  13.001  11.147   5.069  0.1990  0.0272  0.0397
    1DIPC   D2A 5886  13.183  11.087   4.732  0.1935 -0.0562  0.1087
    1DIPC   D3A 5887  13.113  10.632   4.517  0.1133 -0.0536  0.0386
    1DIPC   C4A 5888  13.490  10.436   4.672 -0.1192 -0.0978  0.0312
    1DIPC   C1B 5889  13.274  11.572   4.997 -0.3532  0.1638  0.1358
    1DIPC   D2B 5890  13.271  11.691   4.636 -0.1509 -0.0392  0.1471
    1DIPC   D3B 5891  13.554  11.367   4.577 -0.0923  0.2277 -0.0097
    1DIPC   C4B 5892  13.723  11.395   4.213 -0.2643  0.1502 -0.2295
    1DIPC   NC3 5893  18.216   3.104   6.642 -0.0898  0.1430 -0.1696
    1DIPC   PO4 5894  18.469   3.433   6.607 -0.0846  0.0861  0.2409
    1DIPC   GL1 5895  18.431   3.339   6.176  0.0843  0.1109  0.3019
    1DIPC   GL2 5896  18.367   3.594   6.001 -0.0337  0.3020 -0.0192
    1DIPC   C1A 5897  18.580   2.962   5.870 -0.1838 -0.0433 -0.0666
    1DIPC   D2A 5898  18.744   2.709   5.563  0.1647 -0.0702 -0.2321
    1DIPC   D3A 5899  18.659   2.411   5.316  0.1973  0.0926  0.2669
    1DIPC   C4A 5900  18.228   2.099   5.357  0.1172 -0.1199  0.3484
    1DIPC   C1B 5901  18.462   3.424   5.694 -0.0938 -0.2360 -0.0869
    1DIPC   D2B 5902  18.607   3.231   5.337 -0.0410 -0.2822  0.1659
    1DIPC   D3B 5903  18.735   3.023   5.027  0.0285  0.2205  0.0492
    1DIPC   C4B 5904  19.029   2.805   5.113 -0.1471  0.1939  0.0309
    1DIPC   NC3 5905   2.388   2.647   6.286 -0.0996 -0.6490 -0.1472
    1DIPC   PO4 5906   2.000   2.924   6.355  0.0552  0.2408 -0.2049
    1DIPC   GL1 5907   1.744   3.001   5.949  0.1651  0.0242 -0.3688
    1DIPC   GL2 5908   1.659   2.624   5.985 -0.1448 -0.4325 -0.0340
    1DIPC   C1A 5909   1.700   3.208   5.586 -0.1492 -0.1235 -0.0937
    1DIPC   D2A 5910   1.726   3.387   5.202  0.2076 -0.0773 -0.0923
    1DIPC   D3A 5911   1.528   3.808   5.336 -0.1026 -0.1493 -0.1827
    1DIPC   C4A 5912   1.121   3.968   5.427 -0.0129  0.2983  0.0438
    1DIPC   C1B 5913   1.328   2.665   5.802  0.0927  0.1711  0.2370
    1DIPC   D2B 5914   0.866   2.836   5.794 -0.3337 -0.1046 -0.0460
    1DIPC   D3B 5915   0.648   2.555   5.498  0.1415 -0.2632  0.0404
    1DIPC   C4B 5916   0.496   2.634   5.085  0.2556  0.3804 -0.1050
    1DIPC   NC3 5917   6.012  16.998   6.409  0.1294  0.0222 -0.0306
    1DIPC   PO4 5918   6.142  17.385   6.503  0.1943 -0.1238 -0.0794
    1DIPC   GL1 5919   6.146  17.699   6.067  0.1999  0.2014  0.2003
    1DIPC   GL2 5920   6.184  17.408   5.775 -0.0949 -0.1560  0.2621
    1DIPC   C1A 5921   6.186  18.017   5.873  0.2588 -0.3897 -0.2814
    1DIPC   D2A 5922   6.160  18.449   5.665  0.0863  0.0325 -0.1341
    1DIPC   D3A 5923   6.182  18.638   6.103 -0.3605 -0.1329 -0.0313
    1DIPC   C4A 5924   5.889  18.771   6.379 -0.2092  0.2373  0.2370
    1DIPC   C1B 5925   6.525  17.238   5.605  0.2388 -0.0395 -0.1701
    1DIPC   D2B 5926   6.867  17.482   5.350  0.1581 -0.2786  0.1380
    1DIPC   D3B 5927   6.378  17.486   5.183 -0.0375 -0.0277 -0.0552
    1DIPC   C4B 5928   6.425  17.091   5.160  0.2741  0.0303 -0.2018
    1DIPC   NC3 5929   2.371  18.968   6.983  0.2289 -0.0950 -0.0860
    1DIPC   PO4 5930   2.432  19.314   7.212  0.0652 -0.0401 -0.2882
    1DIPC   GL1 5931   2.206  19.452   6.864  0.0783 -0.2606 -0.0716
    1DIPC   GL2 5932   2.210  19.307   6.668 -0.1872 -0.3893 -0.0322
    1DIPC   C1A 5933   1.784  19.595   6.848  0.1209 -0.1672  0.2642
    1DIPC   D2A 5934   1.423  19.846   7.022 -0.0287 -0.2014  0.3186
    1DIPC   D3A 5935   1.330  19.914   6.585 -0.1066  0.1079  0.0720
    1DIPC   C4A 5936   1.526  19.759   6.220 -0.0567  0.1180  0.1431
    1DIPC   C1B 5937   1.925  19.300   6.360  0.0804 -0.0176  0.1120
    1DIPC   D2B 5938   1.941  19.016   5.970  0.0561  0.0745  0.0563
    1DIPC   D3B 5939   2.321  19.135   5.663 -0.0488 -0.1118  0.0201
    1DIPC   C4B 5940   2.286  19.080   5.242 -0.0488  0.2163 -0.0443
    1DIPC   NC3 5941   5.442  29.101   6.657 -0.1573 -0.2619 -0.1878
    1DIPC   PO4 5942   5.593  29.561   6.405 -0.2000 -0.0883 -0.1009
    1DIPC   GL1 5943   5.464  29.506   5.957  0.1312 -0.2077 -0.0342
    1DIPC   GL2 5944   5.424   0.237   5.804 -0.2830  0.3094 -0.1410
    1DIPC   C1A 5945   5.455  29.366   5.432 -0.2771 -0.1273 -0.2294
    1DIPC   D2A 5946   5.522  29.497   4.952  0.2916 -0.2363  0.0203
    1DIPC   D3A 5947   5.795  29.179   5.048  0.2070 -0.0950 -0.0993
    1DIPC   C4A 5948   5.942  28.899   5.329  0.1453 -0.0136 -0.1530
    1DIPC   C1B 5949   5.381   0.680   5.634  0.0973 -0.0658 -0.1603
    1DIPC   D2B 5950   5.574   0.994   5.506  0.1158 -0.2361  0.2339
    1DIPC   D3B 5951   5.865   0.621   5.573  0.1969  0.1763  0.0415
    1DIPC   C4B 5952   5.758   0.142   5.464  0.1037 -0.1986 -0.1996
    1DIPC   NC3 5953   2.605  25.667   6.988 -0.2163 -0.2268 -0.5606
    1DIPC   PO4 5954   2.314  25.989   7.074  0.4367 -0.1271 -0.1245
    1DIPC   GL1 5955   2.111  26.029   6.536  0.2144 -0.1652 -0.0097
    1DIPC   GL2 5956   1.894  25.714   6.457  0.0920 -0.0134 -0.1445
    1DIPC   C1A 5957   2.345  26.061   6.152  0.2461 -0.2486 -0.1471
    1DIPC   D2A 5958   2.574  26.108   5.833 -0.2022 -0.3076  0.0248
    1DIPC   D3A 5959   2.546  25.709   5.528 -0.1822 -0.0442 -0.1807
    1DIPC   C4A 5960   2.448  25.607   5.181  0.1815 -0.1148 -0.3123
    1DIPC   C1B 5961   2.071  25.732   5.997  0.1565  0.1292 -0.2634
    1DIPC   D2B 5962   1.999  25.700   5.606 -0.1498  0.0067 -0.1073
    1DIPC   D3B 5963   2.142  26.092   5.625  0.0802  0.1107 -0.0520
    1DIPC   C4B 5964   2.381  26.364   5.339  0.0161  0.1455  0.1147
    1DIPC   NC3 5965   1.718  10.347   6.408 -0.1905  0.2231  0.3813
    1DIPC   PO4 5966   2.134  10.415   6.137 -0.0247 -0.3232  0.0607
    1DIPC   GL1 5967   2.220  10.548   5.698  0.1170  0.0801 -0.1340
    1DIPC   GL2 5968   2.514  10.737   5.854 -0.0756 -0.1266 -0.0250
    1DIPC   C1A 5969   2.438  10.614   5.337  0.2424  0.2536  0.3314
    1DIPC   D2A 5970   2.675  10.814   5.030  0.3162 -0.1984 -0.5093
    1DIPC   D3A 5971   2.626  10.908   4.611  0.0009  0.0247  0.0460
    1DIPC   C4A 5972   2.754  11.271   4.413 -0.0863 -0.1273 -0.2958
    1DIPC   C1B 5973   2.281  11.072   5.556  0.0488  0.1119 -0.2156
    1DIPC   D2B 5974   2.151  11.057   5.213  0.0513 -0.0402  0.1251
    1DIPC   D3B 5975   1.788  10.858   5.511  0.3253  0.1216  0.2653
    1DIPC   C4B 5976   1.382  10.689   5.323 -0.2380 -0.2301 -0.1187
    1DIPC   NC3 5977  10.776   5.937   6.149 -0.1201  0.0905  0.3438
    1DIPC   PO4 5978  11.146   6.084   5.897  0.3839  0.1448 -0.4728
    1DIPC   GL1 5979  11.179   6.215   5.393 -0.0047 -0.0108 -0.1346
    1DIPC   GL2 5980  11.501   6.035   5.260  0.3039 -0.1791  0.1960
    1DIPC   C1A 5981  11.082   6.028   4.976 -0.2299 -0.1720  0.1521
    1DIPC   D2A 5982  11.086   6.112   4.554 -0.2352  0.1907 -0.1620
    1DIPC   D3A 5983  11.089   6.565   4.495  0.5830 -0.2837  0.1962
    1DIPC   C4A 5984  10.801   6.688   4.187 -0.0210  0.2166  0.2296
    1DIPC   C1B 5985  11.547   6.218   4.862  0.1335  0.1644 -0.0013
    1DIPC   D2B 5986  11.567   6.380   4.471 -0.2296 -0.0728 -0.1453
    1DIPC   D3B 5987  11.543   6.011   4.368 -0.0281 -0.2048  0.1970
    1DIPC   C4B 5988  11.499   5.754   4.652  0.0719  0.0557  0.1457
    1DIPC   NC3 5989  22.241   0.243   7.306 -0.0092 -0.0913 -0.0664
    1DIPC   PO4 5990  22.190  29.511   6.939 -0.0203  0.0715 -0.0619
    1DIPC   GL1 5991  22.187  29.403   6.558 -0.0059  0.1889  0.2420
    1DIPC   GL2 5992  21.834  29.372   6.621  0.0146 -0.0921  0.0817
    1DIPC   C1A 5993  22.136  29.337   6.167 -0.2301 -0.0898 -0.2441
    1DIPC   D2A 5994  22.016  29.294   5.679  0.0985  0.3414  0.2422
    1DIPC   D3A 5995  21.764  29.003   5.609 -0.1808 -0.0691 -0.1864
    1DIPC   C4A 5996  21.686  28.684   5.393 -0.1064 -0.1659 -0.0047
    1DIPC   C1B 5997  21.591  29.410   6.316 -0.0856 -0.0563  0.1655
    1DIPC   D2B 5998  21.639  29.050   6.129  0.2056 -0.2642  0.2186
    1DIPC   D3B 5999  22.044  28.913   6.008 -0.0429 -0.3569  0.1754
    1DIPC   C4B 6000  22.188  28.837   6.433  0.2686  0.4677 -0.0300
    1DIPC   NC3 6001  25.139  19.895   7.355 -0.3899  0.0589  0.0858
    1DIPC   PO4 6002  25.283  19.770   6.964  0.0283 -0.0199 -0.0468
    1DIPC   GL1 6003  25.163  20.024   6.605  0.2526 -0.0383 -0.0861
    1DIPC   GL2 6004  25.332  20.274   6.540  0.2324  0.0686  0.2898
    1DIPC   C1A 6005  25.157  19.919   6.172 -0.2583 -0.0573  0.2374
    1DIPC   D2A 6006  25.275  19.708   5.821  0.2553 -0.0657 -0.2592
    1DIPC   D3A 6007  25.172  19.939   5.500 -0.1667  0.0012  0.0440
    1DIPC   C4A 6008  25.373  20.036   5.092  0.2052  0.5670 -0.1079
    1DIPC   C1B 6009  24.964  20.385   6.313  0.1110 -0.0927  0.0170
    1DIPC   D2B 6010  24.660  20.218   6.132  0.0902 -0.2327 -0.1408
    1DIPC   D3B 6011  24.779  20.056   5.782  0.0767 -0.1412 -0.2695
    1DIPC   C4B 6012  24.730  20.154   5.334  0.0435  0.2790 -0.0526
    1DIPC   NC3 6013   4.470  11.293   6.554 -0.3701 -0.2184 -0.0590
    1DIPC   PO4 6014   4.296  11.529   6.163  0.1230  0.0050 -0.1066
    1DIPC   GL1 6015   4.032  11.756   5.825 -0.0687 -0.0313 -0.2410
    1DIPC   GL2 6016   3.884  11.491   5.862 -0.0607 -0.3625  0.0440
    1DIPC   C1A 6017   3.700  11.961   5.538  0.2596  0.2062  0.1800
    1DIPC   D2A 6018   3.356  12.021   5.298 -0.0250  0.1757 -0.1617
    1DIPC   D3A 6019   3.210  12.151   4.909  0.1480 -0.0793  0.4179
    1DIPC   C4A 6020   3.014  12.055   4.471 -0.3525 -0.2991 -0.0942
    1DIPC   C1B 6021   3.470  11.577   5.597  0.1176  0.2267  0.1291
    1DIPC   D2B 6022   3.409  11.492   5.246  0.2084 -0.0349  0.0393
    1DIPC   D3B 6023   3.626  11.773   4.911 -0.3343 -0.2452 -0.1060
    1DIPC   C4B 6024   3.629  11.699   4.476 -0.4062 -0.2044 -0.2482
    1DIPC   NC3 6025  13.077  17.862   6.211  0.3035  0.2059  0.0526
    1DIPC   PO4 6026  12.861  17.984   5.853  0.2171  0.0472  0.1133
    1DIPC   GL1 6027  12.515  17.866   5.501 -0.0983 -0.2913 -0.4006
    1DIPC   GL2 6028  12.591  18.221   5.498 -0.0020  0.1136  0.0621
    1DIPC   C1A 6029  12.461  17.658   5.148  0.1989  0.1012  0.0115
    1DIPC   D2A 6030  12.352  17.297   4.921  0.2012  0.4139  0.0031
    1DIPC   D3A 6031  12.569  17.283   4.656  0.0263 -0.1016 -0.1342
    1DIPC   C4A 6032  12.818  17.648   4.467  0.3179 -0.0095  0.2083
    1DIPC   C1B 6033  12.436  18.133   5.127 -0.1738 -0.4047  0.1356
    1DIPC   D2B 6034  12.392  17.806   4.708  0.1774 -0.3587 -0.0516
    1DIPC   D3B 6035  12.040  17.565   4.436 -0.0021  0.1674 -0.1349
    1DIPC   C4B 6036  11.605  17.726   4.231 -0.3426  0.2721 -0.3599
    1DIPC   NC3 6037   6.332  28.572   6.398 -0.1076 -0.0514  0.3018
    1DIPC   PO4 6038   6.197  28.275   6.227 -0.0320 -0.0051  0.3194
    1DIPC   GL1 6039   6.160  28.237   5.776 -0.2696  0.0107 -0.1562
    1DIPC   GL2 6040   5.931  28.461   5.645 -0.0805 -0.2019 -0.0900
    1DIPC   C1A 6041   6.043  27.927   5.476  0.0784  0.2917 -0.2405
    1DIPC   D2A 6042   6.015  27.674   5.169 -0.2142  0.2697  0.1238
    1DIPC   D3A 6043   5.718  28.029   5.093  0.0141 -0.1567 -0.0686
    1DIPC   C4A 6044   5.342  27.862   5.102 -0.0891  0.1732 -0.0310
    1DIPC   C1B 6045   6.004  28.425   5.279 -0.0579 -0.2953  0.1397
    1DIPC   D2B 6046   6.006  28.735   4.870  0.0150  0.3036  0.1838
    1DIPC   D3B 6047   5.722  28.916   4.644 -0.2225 -0.1335  0.1772
    1DIPC   C4B 6048   5.866  29.366   4.568 -0.1767 -0.1107 -0.3547
    1DIPC   NC3 6049  13.703   0.542   6.838 -0.2513  0.0952  0.1342
    1DIPC   PO4 6050  13.540   0.377   6.513  0.0457  0.2745  0.2089
    1DIPC   GL1 6051  13.648   0.398   6.126  0.2433 -0.2504  0.3174
    1DIPC   GL2 6052  13.464   0.275   5.965 -0.0989 -0.0355  0.2850
    1DIPC   C1A 6053  13.867   0.426   5.737  0.0280 -0.1539  0.1390
    1DIPC   D2A 6054  13.742   0.402   5.355 -0.0591  0.3733 -0.0279
    1DIPC   D3A 6055  13.851   0.329   4.937 -0.0348  0.0096  0.1649
    1DIPC   C4A 6056  14.346   0.464   4.821 -0.1318 -0.0781  0.1656
    1DIPC   C1B 6057  13.291  29.559   5.776  0.0577  0.2304  0.2227
    1DIPC   D2B 6058  13.152  29.246   5.521 -0.2695 -0.2150 -0.2472
    1DIPC   D3B 6059  13.261  28.802   5.365 -0.0257  0.0312 -0.0322
    1DIPC   C4B 6060  13.001  28.623   5.054 -0.2361 -0.1691 -0.1078
    1DIPC   NC3 6061  13.133   9.667   6.417  0.1260 -0.2022  0.1185
    1DIPC   PO4 6062  13.447   9.847   6.228  0.1572  0.0252 -0.2450
    1DIPC   GL1 6063  13.338  10.012   5.895 -0.1719 -0.0262  0.3029
    1DIPC   GL2 6064  13.023   9.799   5.856 -0.0358  0.0492 -0.5106
    1DIPC   C1A 6065  13.356  10.134   5.480 -0.1279  0.0324  0.2177
    1DIPC   D2A 6066  13.370  10.068   5.031 -0.0307  0.0558  0.1647
    1DIPC   D3A 6067  13.490   9.563   4.989  0.1407  0.0772 -0.2835
    1DIPC   C4A 6068  13.269   9.251   5.238 -0.2316 -0.1051 -0.2872
    1DIPC   C1B 6069  12.885   9.468   5.564  0.1431  0.0205  0.1535
    1DIPC   D2B 6070  12.638   9.235   5.417  0.0881  0.0189 -0.2449
    1DIPC   D3B 6071  12.411   8.836   5.575 -0.1154 -0.1117 -0.1685
    1DIPC   C4B 6072  12.223   8.668   5.888  0.2057 -0.1186  0.1992
    1DIPC   NC3 6073   7.341  24.707   6.538 -0.2738 -0.1360 -0.1273
    1DIPC   PO4 6074   7.207  24.315   6.699 -0.2292 -0.1963  0.0132
    1DIPC   GL1 6075   7.191  24.394   6.190 -0.1643 -0.2734  0.2640
    1DIPC   GL2 6076   7.463  24.228   6.132  0.2251 -0.1852  0.2772
    1DIPC   C1A 6077   7.108  24.569   5.720 -0.3188 -0.2322 -0.1545
    1DIPC   D2A 6078   7.084  24.775   5.371  0.0995  0.1231 -0.2569
    1DIPC   D3A 6079   6.721  24.446   5.460 -0.0138 -0.0578  0.0254
    1DIPC   C4A 6080   6.217  24.455   5.474  0.1249  0.3151  0.0975
    1DIPC   C1B 6081   7.701  24.026   5.804  0.0494  0.1889  0.0130
    1DIPC   D2B 6082   7.491  23.950   5.421 -0.2727  0.2224 -0.1810
    1DIPC   D3B 6083   7.320  24.324   5.341 -0.2184  0.0613  0.2647
    1DIPC   C4B 6084   7.607  24.718   5.498 -0.0184  0.1089 -0.0657
    1DIPC   NC3 6085   4.647   9.509   5.756 -0.1841 -0.0132  0.0281
    1DIPC   PO4 6086   4.410   9.552   5.352 -0.0383  0.1395 -0.2918
    1DIPC   GL1 6087   4.350   9.321   5.033  0.4049 -0.0308  0.0356
    1DIPC   GL2 6088   4.665   9.297   4.882  0.0189  0.0556  0.0399
    1DIPC   C1A 6089   4.227   9.127   4.621 -0.0410  0.2768 -0.1407
    1DIPC   D2A 6090   3.992   9.019   4.228 -0.1106 -0.1905  0.2056
    1DIPC   D3A 6091   4.397   8.713   4.176  0.0509  0.3350  0.2507
    1DIPC   C4A 6092   4.465   8.714   3.673  0.0628  0.3362 -0.0348
    1DIPC   C1B 6093   4.965   8.958   4.916  0.1083 -0.1420  0.1820
    1DIPC   D2B 6094   5.300   8.679   4.590  0.1479  0.1498 -0.2244
    1DIPC   D3B 6095   4.925   8.590   4.344  0.1237 -0.1008 -0.2813
    1DIPC   C4B 6096   4.588   8.316   4.537 -0.0259  0.0798  0.0768
    1DIPC   NC3 6097  14.627   5.953   6.331  0.0847 -0.0466 -0.1426
    1DIPC   PO4 6098  14.783   6.289   6.521  0.0907 -0.0998  0.3260
    1DIPC   GL1 6099  14.735   6.376   6.010 -0.0497 -0.0112 -0.3559
    1DIPC   GL2 6100  14.732   6.690   5.831 -0.5643  0.2198 -0.2438
    1DIPC   C1A 6101  15.144   6.419   5.797  0.1841  0.0926  0.2609
    1DIPC   D2A 6102  15.105   6.576   5.364  0.1448 -0.2538  0.1792
    1DIPC   D3A 6103  15.228   6.435   4.925  0.1134 -0.1088 -0.0011
    1DIPC   C4A 6104  15.509   6.544   4.686 -0.2208 -0.0675 -0.2835
    1DIPC   C1B 6105  14.664   6.825   5.407 -0.1037 -0.0901  0.0913
    1DIPC   D2B 6106  14.705   7.182   5.122  0.0346  0.0202  0.0154
    1DIPC   D3B 6107  14.346   6.912   4.938 -0.1909 -0.0832  0.2634
    1DIPC   C4B 6108  13.999   7.064   4.808 -0.0330  0.2859 -0.3332
    1DIPC   NC3 6109   7.083  26.316   6.449  0.1760 -0.2908  0.0279
    1DIPC   PO4 6110   7.201  26.330   6.012  0.1551  0.4295 -0.1423
    1DIPC   GL1 6111   6.930  26.140   5.768  0.0540  0.2224  0.0945
    1DIPC   GL2 6112   6.854  25.694   5.774 -0.0204 -0.3988  0.1099
    1DIPC   C1A 6113   6.928  26.072   5.369  0.0463  0.0763 -0.4534
    1DIPC   D2A 6114   7.188  26.033   5.029 -0.2082  0.0687 -0.0007
    1DIPC   D3A 6115   7.119  26.454   4.816  0.1448 -0.1184 -0.1105
    1DIPC   C4A 6116   6.928  26.640   4.501 -0.2631 -0.2180 -0.0072
    1DIPC   C1B 6117   6.598  25.503   5.398 -0.2353  0.0564  0.1184
    1DIPC   D2B 6118   6.470  25.368   5.060 -0.1295 -0.2769 -0.0332
    1DIPC   D3B 6119   6.446  25.587   4.647 -0.0803 -0.2392  0.2403
    1DIPC   C4B 6120   5.974  25.531   4.545  0.0739  0.1324 -0.1635
    1DIPC   NC3 6121   5.052  11.257   5.356 -0.0908 -0.2250 -0.0214
    1DIPC   PO4 6122   5.387  11.080   5.158 -0.0419  0.0866 -0.1157
    1DIPC   GL1 6123   5.380  10.859   4.742 -0.2898  0.0209  0.0026
    1DIPC   GL2 6124   5.590  10.574   4.601  0.0412  0.1015  0.1380
    1DIPC   C1A 6125   5.215  10.946   4.374 -0.3134 -0.0812 -0.1558
    1DIPC   D2A 6126   4.994  11.220   4.166 -0.3560  0.0356  0.3285
    1DIPC   D3A 6127   5.020  11.654   4.261  0.0835 -0.0223  0.0444
    1DIPC   C4A 6128   5.103  11.856   3.884  0.2899  0.1192 -0.3276
    1DIPC   C1B 6129   5.872  10.705   4.419 -0.0025 -0.2989 -0.0676
    1DIPC   D2B 6130   6.317  10.724   4.509 -0.0331 -0.1899 -0.0023
    1DIPC   D3B 6131   6.579  10.683   4.214 -0.4388 -0.1976 -0.1084
    1DIPC   C4B 6132   6.358  10.795   3.894 -0.4402  0.1222 -0.1133
    1DIPC   NC3 6133  10.162  26.680   6.149  0.0911  0.1824  0.0904
    1DIPC   PO4 6134   9.985  27.088   6.409  0.0589 -0.4029  0.0317
    1DIPC   GL1 6135  10.079  27.155   6.004 -0.0222  0.1310  0.1902
    1DIPC   GL2 6136  10.294  27.143   5.771  0.0389 -0.0032  0.0721
    1DIPC   C1A 6137   9.850  27.285   5.586 -0.3094 -0.0954 -0.0821
    1DIPC   D2A 6138  10.028  27.210   5.236  0.1300  0.2796 -0.5231
    1DIPC   D3A 6139   9.838  27.644   5.069  0.1004  0.4001 -0.2200
    1DIPC   C4A 6140  10.018  27.982   5.160  0.3314 -0.0919  0.0702
    1DIPC   C1B 6141  10.079  26.771   5.494  0.1725 -0.1099  0.2371
    1DIPC   D2B 6142  10.040  26.757   5.053  0.0223 -0.2176  0.0282
    1DIPC   D3B 6143  10.439  26.470   5.126 -0.0949  0.0162  0.1455
    1DIPC   C4B 6144  10.339  26.038   5.098 -0.2783 -0.3342 -0.2305
    1DIPC   NC3 6145   4.242  29.570   6.416  0.1135  0.1117  0.2444
    1DIPC   PO4 6146   3.887  29.272   6.571  0.0317  0.2318  0.3554
    1DIPC   GL1 6147   3.771  29.498   6.190 -0.3225 -0.1069  0.0984
    1DIPC   GL2 6148   3.536  29.401   6.005 -0.1356  0.1805  0.1425
    1DIPC   C1A 6149   3.916  29.503   5.717  0.1648 -0.4505 -0.0192
    1DIPC   D2A 6150   4.071  29.539   5.393  0.0531 -0.1995  0.1408
    1DIPC   D3A 6151   3.681  29.433   5.247  0.3306  0.1427 -0.2872
    1DIPC   C4A 6152   3.458   0.031   5.026  0.0269  0.1935 -0.1007
    1DIPC   C1B 6153   3.391  29.248   5.612 -0.0088 -0.0828 -0.2286
    1DIPC   D2B 6154   3.319  29.111   5.187  0.0147  0.2032  0.0558
    1DIPC   D3B 6155   3.052  29.243   4.872  0.1008  0.0233  0.1723
    1DIPC   C4B 6156   3.188  29.331   4.478  0.0941  0.0611 -0.1236
    1DIPC   NC3 6157  17.085  26.495   7.478  0.0245  0.1278 -0.1953
    1DIPC   PO4 6158  17.471  26.720   7.256 -0.1563 -0.3847 -0.1568
    1DIPC   GL1 6159  17.454  26.538   6.847  0.1749  0.0010  0.0053
    1DIPC   GL2 6160  17.204  26.469   6.960  0.0221 -0.2361  0.4513
    1DIPC   C1A 6161  17.744  26.513   6.463  0.0586 -0.1617 -0.2641
    1DIPC   D2A 6162  17.950  26.493   6.116 -0.1078  0.2955  0.2352
    1DIPC   D3A 6163  18.197  26.236   6.058  0.0035  0.0046 -0.2514
    1DIPC   C4A 6164  18.473  26.249   5.643  0.1885 -0.1398 -0.1757
    1DIPC   C1B 6165  16.984  26.587   6.604  0.3887  0.1819 -0.0830
    1DIPC   D2B 6166  16.674  26.653   6.356 -0.1045 -0.2184 -0.0864
    1DIPC   D3B 6167  16.947  26.817   6.145  0.3180 -0.1765  0.0435
    1DIPC   C4B 6168  16.907  26.824   5.618  0.2189 -0.0016  0.2629
    1DIPC   NC3 6169  10.856  17.535   6.138 -0.0381 -0.0239  0.0458
    1DIPC   PO4 6170  10.930  17.980   5.909  0.1192 -0.1274  0.1554
    1DIPC   GL1 6171  10.520  17.844   5.786 -0.2050 -0.1921 -0.0392
    1DIPC   GL2 6172  10.378  17.413   5.855  0.3336 -0.1352  0.2394
    1DIPC   C1A 6173  10.014  17.833   5.672  0.0504  0.2803 -0.0790
    1DIPC   D2A 6174   9.732  17.422   5.521  0.1376 -0.1091  0.0793
    1DIPC   D3A 6175   9.831  17.767   5.252  0.2014  0.0172 -0.1542
    1DIPC   C4A 6176   9.795  17.770   4.874  0.1695  0.2006 -0.0570
    1DIPC   C1B 6177  10.261  17.443   5.487  0.2829  0.0988 -0.3144
    1DIPC   D2B 6178  10.073  17.398   5.115  0.2163  0.0294  0.2352
    1DIPC   D3B 6179   9.642  17.286   4.998  0.1803 -0.0161  0.3008
    1DIPC   C4B 6180   9.483  17.411   4.569 -0.1048 -0.5479  0.1667
    1DIPC   NC3 6181  24.701  22.505   7.591  0.2973 -0.0370  0.1050
    1DIPC   PO4 6182  24.564  22.087   7.399 -0.1137 -0.1352 -0.1133
    1DIPC   GL1 6183  24.511  22.446   7.054 -0.1137  0.2040  0.0504
    1DIPC   GL2 6184  24.693  22.825   6.993 -0.0884  0.1169 -0.1830
    1DIPC   C1A 6185  24.350  22.315   6.641  0.1986 -0.0450 -0.0721
    1DIPC   D2A 6186  24.286  22.080   6.263  0.0436 -0.1096 -0.0647
    1DIPC   D3A 6187  23.977  22.115   6.414 -0.0492 -0.0030  0.0948
    1DIPC   C4A 6188  23.811  22.488   6.510  0.1191  0.1427  0.1353
    1DIPC   C1B 6189  24.787  22.577   6.582 -0.2043  0.1152  0.3445
    1DIPC   D2B 6190  25.098  22.469   6.211  0.2782 -0.1087 -0.0435
    1DIPC   D3B 6191  25.195  22.074   5.975  0.0282 -0.2465  0.2340
    1DIPC   C4B 6192  25.313  21.811   5.657  0.0961 -0.2837 -0.0533
    1DIPC   NC3 6193   0.223  24.520   7.251 -0.2815 -0.1390  0.4673
    1DIPC   PO4 6194   0.401  24.796   6.862 -0.1010  0.0642 -0.1885
    1DIPC   GL1 6195   0.114  24.725   6.558 -0.3182 -0.2304  0.1962
    1DIPC   GL2 6196   0.063  25.085   6.521  0.0169 -0.0914 -0.2145
    1DIPC   C1A 6197   0.015  24.586   6.208 -0.1889 -0.0019  0.2381
    1DIPC   D2A 6198  29.618  24.349   5.808  0.2246 -0.0311  0.3040
    1DIPC   D3A 6199   0.258  24.551   5.374 -0.0555 -0.2005  0.1345
    1DIPC   C4A 6200   0.029  24.826   5.068  0.3326 -0.1213 -0.1373
    1DIPC   C1B 6201  29.546  25.119   6.108  0.0161 -0.0548  0.2282
    1DIPC   D2B 6202  29.413  25.250   5.906  0.2843  0.3252  0.0970
    1DIPC   D3B 6203  29.241  24.835   5.735  0.2758  0.0141  0.2043
    1DIPC   C4B 6204  29.188  24.894   5.330 -0.0420  0.4561 -0.3281
    1DIPC   NC3 6205   8.154   5.819   5.921  0.0868  0.0050  0.1105
    1DIPC   PO4 6206   8.110   5.367   5.960 -0.4196 -0.0209  0.0577
    1DIPC   GL1 6207   8.186   5.294   5.468 -0.3227  0.0630  0.3340
    1DIPC   GL2 6208   8.033   5.104   5.251  0.0930 -0.1574  0.1766
    1DIPC   C1A 6209   8.407   5.586   5.198 -0.2117 -0.1331  0.1337
    1DIPC   D2A 6210   8.694   5.948   5.055  0.0487 -0.3089 -0.1282
    1DIPC   D3A 6211   8.832   6.243   4.681 -0.0156  0.1772  0.0072
    1DIPC   C4A 6212   9.207   6.352   4.644 -0.1232  0.0863 -0.0893
    1DIPC   C1B 6213   8.081   5.168   4.797 -0.3421  0.1813  0.3497
    1DIPC   D2B 6214   7.987   5.153   4.409 -0.0380  0.1233  0.1172
    1DIPC   D3B 6215   7.947   5.584   4.286  0.2649  0.2614  0.1040
    1DIPC   C4B 6216   7.710   5.775   3.879 -0.0220 -0.1831  0.0221
    1DIPC   NC3 6217   2.548   0.992   6.553 -0.0620 -0.1578  0.0345
    1DIPC   PO4 6218   2.797   1.044   6.089  0.1237 -0.0181  0.3668
    1DIPC   GL1 6219   2.584   1.210   5.676 -0.0303 -0.1571  0.1756
    1DIPC   GL2 6220   2.331   1.471   5.702  0.1491 -0.0629 -0.1017
    1DIPC   C1A 6221   2.772   1.313   5.281 -0.0679  0.1961 -0.2002
    1DIPC   D2A 6222   2.779   1.129   4.936  0.1070  0.1629  0.0082
    1DIPC   D3A 6223   2.583   0.854   4.672  0.4167 -0.5070  0.1331
    1DIPC   C4A 6224   2.584   0.524   4.511 -0.1174  0.0378 -0.1214
    1DIPC   C1B 6225   2.260   1.679   5.249  0.0970  0.0359  0.0180
    1DIPC   D2B 6226   2.177   1.676   4.804 -0.0327  0.1309 -0.0071
    1DIPC   D3B 6227   1.834   1.467   4.449 -0.2094 -0.1191  0.0052
    1DIPC   C4B 6228   1.591   1.137   4.500 -0.0898 -0.1877 -0.5672
    1DIPC   NC3 6229   1.468  12.486   6.909 -0.0569  0.0968 -0.1682
    1DIPC   PO4 6230   1.614  12.144   6.660 -0.2429  0.0352 -0.0461
    1DIPC   GL1 6231   1.595  12.056   6.290  0.1158 -0.1007 -0.1692
    1DIPC   GL2 6232   1.820  12.030   6.022 -0.2811  0.1421  0.1861
    1DIPC   C1A 6233   1.366  12.204   5.938  0.1530  0.1013  0.2774
    1DIPC   D2A 6234   1.201  12.414   5.580  0.0012  0.0907 -0.0324
    1DIPC   D3A 6235   1.347  12.172   5.309  0.3348  0.0843 -0.1263
    1DIPC   C4A 6236   1.122  12.076   4.854 -0.0457 -0.0861  0.1246
    1DIPC   C1B 6237   1.737  12.024   5.659  0.1664  0.1270  0.1839
    1DIPC   D2B 6238   1.920  11.901   5.354 -0.1199 -0.0893 -0.2209
    1DIPC   D3B 6239   1.702  11.967   4.932  0.0548  0.1577  0.0930
    1DIPC   C4B 6240   1.472  12.395   4.732 -0.0427  0.1362  0.0988
    1DIPC   NC3 6241   6.784   0.266   6.238 -0.2341 -0.0753  0.0797
    1DIPC   PO4 6242   6.927  29.442   6.003  0.2581 -0.0520  0.0325
    1DIPC   GL1 6243   6.973  29.503   5.592  0.1757  0.2291  0.1473
    1DIPC   GL2 6244   7.266  29.427   5.644 -0.1524 -0.2197 -0.0553
    1DIPC   C1A 6245   6.770  29.397   5.260  0.0772 -0.1972  0.0873
    1DIPC   D2A 6246   6.994  29.313   4.835  0.0427  0.1015  0.3697
    1DIPC   D3A 6247   6.631  29.045   4.885 -0.0278  0.1085  0.1279
    1DIPC   C4A 6248   6.254  29.152   4.870  0.0932  0.2879 -0.3162
    1DIPC   C1B 6249   7.265  29.213   5.294 -0.0855  0.1443  0.0224
    1DIPC   D2B 6250   7.406  28.876   4.910  0.0697  0.2158  0.0598
    1DIPC   D3B 6251   7.606  29.206   4.698  0.0630  0.4058 -0.3400
    1DIPC   C4B 6252   8.010  29.153   4.458 -0.0879  0.1525 -0.3513
    1DIPC   NC3 6253  15.206   3.832   6.007  0.1635  0.0826  0.1522
    1DIPC   PO4 6254  15.158   3.443   6.261 -0.0230 -0.3262 -0.1028
    1DIPC   GL1 6255  15.101   3.317   5.906 -0.0951  0.0834  0.0653
    1DIPC   GL2 6256  14.807   3.380   5.736  0.0541 -0.1881 -0.0423
    1DIPC   C1A 6257  15.080   3.388   5.365  0.2585 -0.2993 -0.0105
    1DIPC   D2A 6258  14.799   3.184   5.151  0.3311 -0.0418  0.0969
    1DIPC   D3A 6259  14.774   3.284   4.658  0.0333  0.1541 -0.1493
    1DIPC   C4A 6260  14.530   3.593   4.449  0.0232  0.4202  0.1252
    1DIPC   C1B 6261  14.601   3.595   5.436 -0.2495  0.0920 -0.0386
    1DIPC   D2B 6262  14.627   3.890   5.125  0.1908  0.1285 -0.0114
    1DIPC   D3B 6263  15.028   3.869   5.365 -0.3649  0.1103  0.0956
    1DIPC   C4B 6264  15.379   4.028   5.169  0.0341 -0.1137  0.1122
    1DIPC   NC3 6265  12.770   0.120   6.710 -0.4051 -0.0017  0.0707
    1DIPC   PO4 6266  12.477   0.341   6.646  0.0484 -0.0554 -0.0764
    1DIPC   GL1 6267  12.486   0.179   6.211 -0.1535  0.2221  0.3628
    1DIPC   GL2 6268  12.582   0.368   5.876  0.0323  0.0866 -0.1398
    1DIPC   C1A 6269  12.417  29.481   5.941  0.1027 -0.0381  0.1504
    1DIPC   D2A 6270  12.539  29.268   5.582  0.3902 -0.0978 -0.1782
    1DIPC   D3A 6271  12.171  29.050   5.474  0.3383  0.1383  0.0833
    1DIPC   C4A 6272  11.748  29.134   5.496  0.3124  0.0286  0.0544
    1DIPC   C1B 6273  12.845   0.075   5.639  0.0463 -0.3223  0.1437
    1DIPC   D2B 6274  13.045  29.604   5.285  0.0995 -0.1522 -0.4228
    1DIPC   D3B 6275  12.706  29.430   5.100 -0.2167 -0.2858 -0.1857
    1DIPC   C4B 6276  12.818  29.006   4.788 -0.0277  0.2264  0.0798
    1DIPC   NC3 6277   7.877  25.105   6.066 -0.2725 -0.0449  0.0461
    1DIPC   PO4 6278   7.422  25.245   6.004  0.0884 -0.0504 -0.2125
    1DIPC   GL1 6279   7.621  25.349   5.643  0.0334  0.1018  0.0958
    1DIPC   GL2 6280   7.947  25.374   5.571  0.0525  0.4039 -0.1166
    1DIPC   C1A 6281   7.569  25.405   5.142  0.0180  0.0359  0.1399
    1DIPC   D2A 6282   7.495  25.563   4.783 -0.0279  0.1065 -0.0303
    1DIPC   D3A 6283   7.292  25.561   4.376 -0.3747 -0.0220  0.0351
    1DIPC   C4A 6284   7.643  25.647   4.024 -0.1886  0.0664 -0.1130
    1DIPC   C1B 6285   7.884  25.055   5.273 -0.0176 -0.1468 -0.2035
    1DIPC   D2B 6286   7.845  25.107   4.811  0.0016 -0.4213  0.3771
    1DIPC   D3B 6287   7.987  25.532   4.607 -0.0317 -0.1740 -0.0606
    1DIPC   C4B 6288   8.118  25.819   4.231 -0.2566  0.2329  0.0289
    1DIPC   NC3 6289   6.895  20.031   7.250 -0.1081  0.2143  0.1569
    1DIPC   PO4 6290   7.018  19.656   6.875  0.2982  0.2440 -0.0776
    1DIPC   GL1 6291   7.177  19.840   6.504  0.0539 -0.0953 -0.1987
    1DIPC   GL2 6292   7.453  19.962   6.518  0.1195 -0.1134  0.4855
    1DIPC   C1A 6293   7.198  19.527   6.148  0.1212  0.1293  0.2357
    1DIPC   D2A 6294   7.210  19.312   5.792  0.0881  0.0734 -0.2034
    1DIPC   D3A 6295   7.009  19.595   5.731 -0.3502  0.0983  0.0555
    1DIPC   C4A 6296   6.690  19.576   6.056  0.1641  0.2334 -0.1846
    1DIPC   C1B 6297   7.477  20.036   6.077 -0.0893 -0.1712 -0.1485
    1DIPC   D2B 6298   7.459  19.795   5.664 -0.0780 -0.1158  0.0392
    1DIPC   D3B 6299   7.311  19.807   5.295  0.0859 -0.1552  0.3148
    1DIPC   C4B 6300   7.555  19.817   4.921  0.3174  0.0593  0.0268
    1DIPC   NC3 6301  16.114  19.308   6.528  0.0720  0.0930 -0.0187
    1DIPC   PO4 6302  16.153  19.152   6.155 -0.0348  0.0210 -0.1180
    1DIPC   GL1 6303  16.518  19.134   5.837 -0.0478 -0.0518 -0.3097
    1DIPC   GL2 6304  16.218  19.286   5.681 -0.1327  0.0608 -0.1555
    1DIPC   C1A 6305  16.599  19.136   5.346 -0.5421  0.0304 -0.4792
    1DIPC   D2A 6306  16.731  18.854   5.049  0.1019 -0.0511 -0.3123
    1DIPC   D3A 6307  17.160  19.037   5.000 -0.1905  0.4130 -0.0050
    1DIPC   C4A 6308  17.539  18.893   4.869  0.3219  0.1168 -0.2127
    1DIPC   C1B 6309  16.130  18.906   5.494 -0.1868 -0.1552 -0.0326
    1DIPC   D2B 6310  16.246  18.501   5.280  0.0623  0.0347 -0.1020
    1DIPC   D3B 6311  16.095  18.777   4.991  0.0417  0.1215 -0.4628
    1DIPC   C4B 6312  15.810  18.544   4.645 -0.2097  0.0350 -0.1185
    1DIPC   NC3 6313  12.972   6.167   6.475  0.5936 -0.2170  0.1715
    1DIPC   PO4 6314  13.355   6.101   6.363  0.4258  0.0295  0.0892
    1DIPC   GL1 6315  13.440   5.986   5.936 -0.1084 -0.1576  0.1440
    1DIPC   GL2 6316  13.202   6.122   5.741  0.0547 -0.2288 -0.0832
    1DIPC   C1A 6317  13.635   5.823   5.555 -0.1454 -0.1271 -0.1172
    1DIPC   D2A 6318  13.610   5.951   5.095 -0.0263 -0.2268 -0.0142
    1DIPC   D3A 6319  13.341   6.319   4.869 -0.0343 -0.1040 -0.1093
    1DIPC   C4A 6320  12.923   6.164   4.923  0.4290 -0.2842 -0.0623
    1DIPC   C1B 6321  13.403   6.327   5.486 -0.0051  0.1545  0.1260
    1DIPC   D2B 6322  13.735   6.505   5.222  0.0257 -0.1228 -0.0312
    1DIPC   D3B 6323  13.892   6.582   4.884  0.1291 -0.2154 -0.0744
    1DIPC   C4B 6324  13.501   6.683   4.584  0.0647  0.0724  0.3873
    1DIPC   NC3 6325  11.580  21.700   6.271 -0.0686  0.1196  0.1380
    1DIPC   PO4 6326  11.801  21.440   6.002  0.0818  0.0360  0.0354
    1DIPC   GL1 6327  11.538  21.251   5.691 -0.0683 -0.1855  0.0323
    1DIPC   GL2 6328  11.253  21.433   5.475 -0.1482 -0.1005 -0.0326
    1DIPC   C1A 6329  11.619  21.192   5.297 -0.4536  0.0399 -0.0264
    1DIPC   D2A 6330  11.688  21.256   4.856  0.0643 -0.1226  0.0142
    1DIPC   D3A 6331  11.347  21.329   4.782 -0.1777 -0.1575 -0.2697
    1DIPC   C4A 6332  11.082  21.487   4.378  0.0650 -0.0669 -0.0435
    1DIPC   C1B 6333  10.977  21.407   5.175  0.0898 -0.1382  0.2128
    1DIPC   D2B 6334  10.797  21.444   4.742  0.0368 -0.2553 -0.0844
    1DIPC   D3B 6335  10.566  21.775   4.593 -0.1399 -0.0825  0.2289
    1DIPC   C4B 6336  10.483  22.124   4.807 -0.4447  0.1576 -0.2210
    1DIPC   NC3 6337   5.346  27.817   6.086  0.0182 -0.0355 -0.0374
    1DIPC   PO4 6338   5.017  27.785   6.507  0.0942  0.1268  0.1840
    1DIPC   GL1 6339   4.884  27.910   6.049  0.1477 -0.0516  0.0065
    1DIPC   GL2 6340   4.615  27.828   6.153 -0.3824 -0.2573  0.0204
    1DIPC   C1A 6341   4.663  27.961   5.605 -0.4852  0.1229 -0.1177
    1DIPC   D2A 6342   4.821  27.743   5.233  0.0959 -0.2896 -0.0522
    1DIPC   D3A 6343   4.390  27.933   5.155  0.0925  0.2814  0.0874
    1DIPC   C4A 6344   4.197  28.226   5.022 -0.2176  0.1137 -0.0647
    1DIPC   C1B 6345   4.396  27.425   6.079 -0.0335 -0.2553 -0.1057
    1DIPC   D2B 6346   4.168  27.115   5.826  0.1369  0.0652 -0.1399
    1DIPC   D3B 6347   4.366  26.760   5.825  0.1193 -0.0148  0.0531
    1DIPC   C4B 6348   4.429  26.504   5.484 -0.0062  0.0099 -0.1688
    1DIPC   NC3 6349  18.662   1.272   7.125  0.2439  0.0452 -0.2972
    1DIPC   PO4 6350  18.873   1.618   6.951  0.2057  0.1562 -0.4515
    1DIPC   GL1 6351  18.892   1.758   6.476  0.0666 -0.1483 -0.0940
    1DIPC   GL2 6352  18.684   1.940   6.412 -0.0347 -0.2920 -0.0227
    1DIPC   C1A 6353  19.018   1.455   6.166 -0.2282 -0.1164  0.1537
    1DIPC   D2A 6354  19.191   1.487   5.732 -0.3383 -0.2700 -0.1560
    1DIPC   D3A 6355  19.324   1.822   5.475 -0.3635  0.0797  0.3593
    1DIPC   C4A 6356  19.553   2.185   5.600 -0.0726  0.0120  0.0547
    1DIPC   C1B 6357  18.795   2.005   6.066  0.0253 -0.1901  0.2578
    1DIPC   D2B 6358  18.467   2.250   5.773 -0.1506  0.0304 -0.0128
    1DIPC   D3B 6359  18.609   2.485   6.071  0.0515  0.2279 -0.0368
    1DIPC   C4B 6360  19.034   2.792   6.012  0.2564  0.0978  0.0387
    1DIPC   NC3 6361   3.201  17.453   6.668 -0.3343  0.0296 -0.1887
    1DIPC   PO4 6362   2.778  17.561   6.625 -0.1770 -0.4504 -0.0918
    1DIPC   GL1 6363   2.940  17.628   6.258  0.1844  0.1181 -0.1315
    1DIPC   GL2 6364   2.646  17.664   6.087 -0.0358 -0.1107 -0.0681
    1DIPC   C1A 6365   3.178  17.771   5.992 -0.1389  0.0616 -0.1294
    1DIPC   D2A 6366   3.207  18.081   5.671 -0.1128  0.1859  0.1266
    1DIPC   D3A 6367   3.313  18.251   5.266 -0.0772  0.1016  0.1408
    1DIPC   C4A 6368   3.027  18.398   4.975  0.4683 -0.0541  0.0649
    1DIPC   C1B 6369   2.753  17.885   5.666  0.1651  0.0819 -0.4071
    1DIPC   D2B 6370   2.778  18.026   5.300 -0.0363  0.0762 -0.0381
    1DIPC   D3B 6371   2.954  17.863   4.925 -0.0496  0.0574 -0.1089
    1DIPC   C4B 6372   2.907  17.422   4.774 -0.0603  0.0110  0.1607
    1DIPC   NC3 6373  15.887  23.496   6.537  0.0994 -0.1126  0.0892
    1DIPC   PO4 6374  15.471  23.216   6.515 -0.1314  0.2210  0.0806
    1DIPC   GL1 6375  15.388  23.406   6.129  0.3519 -0.1396 -0.1116
    1DIPC   GL2 6376  15.063  23.351   5.997  0.1285 -0.2544 -0.2158
    1DIPC   C1A 6377  15.673  23.374   5.877 -0.1790 -0.0324  0.0784
    1DIPC   D2A 6378  16.032  23.572   5.808  0.0028  0.1120  0.0697
    1DIPC   D3A 6379  15.984  23.960   6.050  0.0870 -0.0015  0.0138
    1DIPC   C4A 6380  15.867  24.290   5.935  0.2449 -0.1111 -0.0892
    1DIPC   C1B 6381  15.187  23.365   5.628 -0.2735  0.1898 -0.2095
    1DIPC   D2B 6382  15.340  23.569   5.286  0.0110 -0.0322 -0.0802
    1DIPC   D3B 6383  15.491  23.871   5.060 -0.0060 -0.2835  0.0739
    1DIPC   C4B 6384  15.548  23.694   4.640 -0.0179  0.0662  0.3896
    1DIPC   NC3 6385  17.983  22.063   7.067 -0.1844  0.4905  0.2425
    1DIPC   PO4 6386  18.257  22.140   6.703  0.2147 -0.0443 -0.0682
    1DIPC   GL1 6387  18.114  21.999   6.264  0.0197  0.0042 -0.2448
    1DIPC   GL2 6388  17.858  21.745   6.086  0.0935 -0.3356 -0.0506
    1DIPC   C1A 6389  18.320  22.282   5.917  0.0120 -0.1153  0.1544
    1DIPC   D2A 6390  18.443  22.693   5.786 -0.0134  0.0882  0.2053
    1DIPC   D3A 6391  18.689  22.931   6.102 -0.3322 -0.4713 -0.1093
    1DIPC   C4A 6392  18.859  23.026   5.806  0.0144 -0.0281 -0.2695
    1DIPC   C1B 6393  17.653  22.135   5.971 -0.0006  0.1152 -0.6340
    1DIPC   D2B 6394  17.858  22.474   5.761 -0.1931  0.0621  0.0932
    1DIPC   D3B 6395  18.063  22.789   6.118  0.0332  0.4521  0.1460
    1DIPC   C4B 6396  18.335  22.589   6.284 -0.2678 -0.1413  0.0672
    1DIPC   NC3 6397  26.388  28.603   7.307 -0.2414 -0.2700  0.1179
    1DIPC   PO4 6398  26.118  28.937   7.278  0.0521  0.0634 -0.0094
    1DIPC   GL1 6399  26.051  28.935   6.859 -0.1018  0.1176 -0.3011
    1DIPC   GL2 6400  26.093  28.650   6.830 -0.1505  0.1712  0.0433
    1DIPC   C1A 6401  25.992  29.219   6.478 -0.0901 -0.1084 -0.0323
    1DIPC   D2A 6402  25.973  29.326   6.035  0.1054 -0.1594  0.1666
    1DIPC   D3A 6403  26.295  29.248   6.006 -0.0046  0.1107 -0.0457
    1DIPC   C4A 6404  26.512  29.512   5.670  0.0402  0.4470  0.0259
    1DIPC   C1B 6405  25.989  28.699   6.383 -0.2549 -0.1058 -0.1072
    1DIPC   D2B 6406  25.959  28.832   5.917  0.0423  0.1289 -0.1056
    1DIPC   D3B 6407  25.791  28.356   5.811  0.4200 -0.3155 -0.0885
    1DIPC   C4B 6408  25.977  27.928   5.784 -0.1722  0.0573  0.0399
    1DIPC   NC3 6409  17.760  18.563   7.409 -0.2546 -0.2569  0.4973
    1DIPC   PO4 6410  17.667  18.449   6.894  0.0275  0.2531  0.2801
    1DIPC   GL1 6411  17.568  18.390   6.397  0.2356  0.0905 -0.1566
    1DIPC   GL2 6412  17.694  18.542   6.259 -0.3069 -0.1755 -0.2439
    1DIPC   C1A 6413  17.386  18.339   5.936 -0.3773 -0.1186 -0.1363
    1DIPC   D2A 6414  16.993  18.330   5.677 -0.3308 -0.2820  0.1380
    1DIPC   D3A 6415  17.435  18.473   5.493  0.0199 -0.2428 -0.1581
    1DIPC   C4A 6416  17.622  18.378   5.111 -0.2227 -0.1793 -0.1123
    1DIPC   C1B 6417  17.907  18.596   5.869  0.1737  0.0348  0.1898
    1DIPC   D2B 6418  18.096  18.681   5.450 -0.4102  0.2941  0.0220
    1DIPC   D3B 6419  18.439  18.307   5.429 -0.0785 -0.0724  0.2001
    1DIPC   C4B 6420  18.366  17.879   5.655  0.1979 -0.1532 -0.1611
    1DIPC   NC3 6421  25.402  25.146   7.622  0.2049  0.0005  0.0679
    1DIPC   PO4 6422  25.323  24.707   7.613 -0.0550  0.1090  0.3241
    1DIPC   GL1 6423  25.165  24.795   7.258 -0.2619  0.0190 -0.1099
    1DIPC   GL2 6424  25.338  24.491   7.077  0.0036  0.2370 -0.1362
    1DIPC   C1A 6425  25.284  25.025   6.914  0.3049  0.2470  0.1187
    1DIPC   D2A 6426  25.355  24.984   6.535  0.0284  0.0345 -0.0811
    1DIPC   D3A 6427  25.513  24.560   6.547 -0.0236  0.3213 -0.4195
    1DIPC   C4A 6428  25.346  24.327   6.112  0.1961  0.2376 -0.0282
    1DIPC   C1B 6429  25.039  24.521   6.811 -0.1599 -0.1546 -0.0216
    1DIPC   D2B 6430  24.522  24.493   6.720 -0.1721  0.0457  0.1499
    1DIPC   D3B 6431  24.521  24.410   6.253 -0.0022 -0.1622 -0.3407
    1DIPC   C4B 6432  24.808  24.443   5.914 -0.0767  0.1564 -0.1857
    1DIPC   NC3 6433   1.804  17.986   6.722 -0.6324 -0.0747 -0.0010
    1DIPC   PO4 6434   1.412  17.858   6.841  0.1254  0.0356 -0.0432
    1DIPC   GL1 6435   1.283  17.794   6.424 -0.2292 -0.0251  0.0957
    1DIPC   GL2 6436   1.610  17.757   6.270  0.0240 -0.0698 -0.1088
    1DIPC   C1A 6437   1.152  17.566   6.087  0.3018  0.4177  0.1044
    1DIPC   D2A 6438   1.144  17.517   5.703 -0.2946 -0.1934  0.2474
    1DIPC   D3A 6439   0.901  17.308   5.439 -0.0255 -0.1362 -0.0260
    1DIPC   C4A 6440   0.821  17.288   4.968  0.1507  0.2797  0.2186
    1DIPC   C1B 6441   1.477  17.919   5.787  0.0280  0.0779  0.0701
    1DIPC   D2B 6442   1.388  18.308   5.631 -0.2469  0.3037 -0.3243
    1DIPC   D3B 6443   1.058  18.489   5.558  0.2321  0.0856 -0.0887
    1DIPC   C4B 6444   0.972  18.877   5.628  0.0414  0.1705  0.1355
    1DIPC   NC3 6445  28.389  22.076   7.693 -0.3202 -0.3252 -0.2224
    1DIPC   PO4 6446  28.777  21.894   7.476 -0.1480  0.0337 -0.0772
    1DIPC   GL1 6447  28.551  21.967   7.163  0.2324 -0.2271 -0.1554
    1DIPC   GL2 6448  28.597  21.783   6.852  0.0592 -0.0300  0.0871
    1DIPC   C1A 6449  28.383  22.238   6.892 -0.0948 -0.0016 -0.0478
    1DIPC   D2A 6450  28.525  22.631   6.764  0.0513  0.0250  0.4068
    1DIPC   D3A 6451  28.817  22.323   6.576 -0.0050 -0.1141  0.2717
    1DIPC   C4A 6452  29.062  22.030   6.815  0.2363 -0.0737 -0.0270
    1DIPC   C1B 6453  28.467  21.894   6.493 -0.2390  0.2277  0.0056
    1DIPC   D2B 6454  28.366  22.357   6.308  0.2886 -0.1996  0.1497
    1DIPC   D3B 6455  28.785  22.549   6.153 -0.1710 -0.2523 -0.2598
    1DIPC   C4B 6456  28.897  22.477   5.741 -0.0276  0.0240 -0.2433
    1DIPC   NC3 6457  14.307   9.383   6.484  0.2440 -0.1736 -0.0673
    1DIPC   PO4 6458  13.942   9.269   6.214 -0.0156  0.0715 -0.1866
    1DIPC   GL1 6459  13.829   8.984   5.828  0.1253  0.2928  0.0903
    1DIPC   GL2 6460  13.557   8.849   5.814  0.0576  0.1985  0.1769
    1DIPC   C1A 6461  13.891   8.848   5.300 -0.0514  0.1618 -0.3008
    1DIPC   D2A 6462  13.857   8.459   5.133  0.0956 -0.0831 -0.1001
    1DIPC   D3A 6463  14.082   8.510   4.795  0.0690 -0.2390 -0.1023
    1DIPC   C4A 6464  14.536   8.685   4.571  0.2585 -0.1949 -0.2270
    1DIPC   C1B 6465  13.398   8.662   5.383 -0.1040  0.0705  0.0245
    1DIPC   D2B 6466  13.269   8.295   5.107 -0.0117 -0.0692  0.0681
    1DIPC   D3B 6467  13.375   8.548   4.880  0.1317  0.1005 -0.1500
    1DIPC   C4B 6468  13.305   8.920   4.878 -0.1880  0.3120  0.0056
    1DIPC   NC3 6469  11.491  15.975   5.942 -0.2602  0.0331  0.2095
    1DIPC   PO4 6470  11.856  16.135   5.784  0.0906  0.4064 -0.2163
    1DIPC   GL1 6471  11.921  16.120   5.445  0.0505 -0.1012  0.1193
    1DIPC   GL2 6472  12.204  16.231   5.381  0.0089 -0.0482 -0.0626
    1DIPC   C1A 6473  11.859  16.039   4.956  0.0414  0.1881 -0.1573
    1DIPC   D2A 6474  11.705  16.044   4.523 -0.1842 -0.1280  0.2319
    1DIPC   D3A 6475  12.086  16.257   4.440 -0.0779  0.0977 -0.1871
    1DIPC   C4A 6476  12.026  16.647   4.285 -0.3429  0.1707  0.0276
    1DIPC   C1B 6477  12.501  15.971   4.954  0.2939  0.0475  0.1159
    1DIPC   D2B 6478  12.873  15.935   4.827 -0.2108  0.0451 -0.0241
    1DIPC   D3B 6479  12.622  15.597   4.648 -0.2305  0.0095 -0.1991
    1DIPC   C4B 6480  12.180  15.768   4.573  0.1095 -0.2977  0.0526
    1DIPC   NC3 6481  22.256  18.355   7.278  0.2519  0.0021 -0.0432
    1DIPC   PO4 6482  21.785  18.338   7.043 -0.1159  0.0979 -0.3989
    1DIPC   GL1 6483  21.375  18.353   6.769 -0.1706  0.2538  0.2653
    1DIPC   GL2 6484  21.079  18.150   6.804  0.0734  0.1157  0.0777
    1DIPC   C1A 6485  21.383  18.200   6.367  0.2429 -0.6009  0.4073
    1DIPC   D2A 6486  21.566  17.816   6.209 -0.1622  0.2941 -0.2471
    1DIPC   D3A 6487  21.609  17.782   5.765 -0.0712 -0.0995  0.1327
    1DIPC   C4A 6488  21.218  17.910   5.531  0.4120  0.1485 -0.0354
    1DIPC   C1B 6489  20.868  18.170   6.417  0.1530 -0.1360  0.1770
    1DIPC   D2B 6490  20.993  18.163   5.913  0.1643  0.0072 -0.1899
    1DIPC   D3B 6491  21.315  18.300   5.829 -0.0205  0.0652  0.1248
    1DIPC   C4B 6492  21.339  18.500   5.507 -0.0292 -0.0878  0.0518
    1DIPC   NC3 6493  15.643  27.640   6.783 -0.0689  0.0178 -0.2543
    1DIPC   PO4 6494  15.261  27.309   6.881  0.3153  0.1117  0.0788
    1DIPC   GL1 6495  15.255  27.519   6.402  0.0577 -0.1039 -0.0360
    1DIPC   GL2 6496  15.300  27.784   6.431  0.1105  0.1891  0.2282
    1DIPC   C1A 6497  15.494  27.419   6.005 -0.0150  0.0827  0.6220
    1DIPC   D2A 6498  15.807  27.183   5.679 -0.1632 -0.3226 -0.3130
    1DIPC   D3A 6499  15.441  26.808   5.692  0.1656 -0.1920  0.0719
    1DIPC   C4A 6500  15.338  26.862   5.279 -0.1103 -0.0249 -0.3569
    1DIPC   C1B 6501  14.958  27.818   6.032  0.2445  0.0169 -0.6010
    1DIPC   D2B 6502  14.956  27.677   5.536  0.0811 -0.0015  0.0294
    1DIPC   D3B 6503  15.279  27.734   5.221 -0.1452  0.2369 -0.1151
    1DIPC   C4B 6504  15.143  27.881   4.930 -0.1505  0.2092 -0.1525
    1DIPC   NC3 6505   9.579  28.829   6.109  0.1463  0.4326 -0.0623
    1DIPC   PO4 6506   9.576  28.423   6.309 -0.1793 -0.1467 -0.1432
    1DIPC   GL1 6507   9.739  28.354   5.872 -0.1495 -0.1242 -0.2226
    1DIPC   GL2 6508   9.954  28.728   5.761  0.2666  0.0384  0.2272
    1DIPC   C1A 6509   9.655  28.284   5.394 -0.1405  0.0484 -0.0535
    1DIPC   D2A 6510   9.765  28.419   4.900  0.1237  0.2813 -0.0818
    1DIPC   D3A 6511   9.986  28.251   4.524  0.2140 -0.1364  0.0092
    1DIPC   C4A 6512  10.130  28.200   4.166 -0.1938  0.1671  0.1332
    1DIPC   C1B 6513   9.753  28.767   5.309  0.0500 -0.3473  0.1010
    1DIPC   D2B 6514   9.524  29.183   5.184  0.0203 -0.0535 -0.0390
    1DIPC   D3B 6515   9.944  29.303   5.167 -0.0976 -0.1985 -0.1390
    1DIPC   C4B 6516   9.968   0.017   5.099 -0.4908 -0.2025 -0.0443
    1DIPC   NC3 6517  14.252  10.669   6.749 -0.0677  0.1343 -0.1684
    1DIPC   PO4 6518  13.932  10.681   6.385 -0.0697  0.2648  0.0583
    1DIPC   GL1 6519  13.961  10.633   6.067  0.2400  0.0935 -0.1781
    1DIPC   GL2 6520  14.329  10.717   6.018  0.3991  0.1523  0.1364
    1DIPC   C1A 6521  13.819  10.378   5.724  0.4363 -0.0500 -0.1310
    1DIPC   D2A 6522  13.974  10.048   5.596  0.1580  0.1630 -0.2599
    1DIPC   D3A 6523  13.896   9.877   5.217  0.2240 -0.0120 -0.0312
    1DIPC   C4A 6524  14.002  10.141   4.860 -0.1148  0.0407  0.2494
    1DIPC   C1B 6525  14.534  10.825   5.657 -0.1587 -0.0409 -0.2623
    1DIPC   D2B 6526  14.673  10.857   5.232 -0.2758  0.0835 -0.0258
    1DIPC   D3B 6527  14.391  11.029   4.991 -0.0807 -0.0575  0.0863
    1DIPC   C4B 6528  14.480  10.810   4.586 -0.1779 -0.0508 -0.1519
    1DIPC   NC3 6529  10.762   8.638   6.644  0.1748  0.0463 -0.0496
    1DIPC   PO4 6530  10.786   8.151   6.640 -0.2277 -0.0934  0.0694
    1DIPC   GL1 6531  10.877   8.233   6.178  0.0389  0.4096  0.0898
    1DIPC   GL2 6532  11.228   8.125   6.031  0.2497  0.1914 -0.1336
    1DIPC   C1A 6533  10.655   8.542   5.857 -0.0844 -0.0650 -0.0809
    1DIPC   D2A 6534  10.331   8.429   5.527  0.2211 -0.0368 -0.1571
    1DIPC   D3A 6535   9.951   8.564   5.409 -0.0478  0.1879  0.1480
    1DIPC   C4A 6536   9.571   8.580   5.507  0.1274  0.2222 -0.1281
    1DIPC   C1B 6537  11.311   8.436   5.816  0.3023 -0.0841 -0.0271
    1DIPC   D2B 6538  11.037   8.563   5.487 -0.1958  0.1355 -0.0379
    1DIPC   D3B 6539  10.641   8.744   5.320  0.0518  0.0324 -0.0527
    1DIPC   C4B 6540  10.360   8.562   4.931 -0.0094  0.1487 -0.4155
    1DIPC   NC3 6541   1.888  25.812   7.117 -0.0085 -0.0172 -0.2260
    1DIPC   PO4 6542   2.133  25.518   6.847 -0.0571  0.2000 -0.0072
    1DIPC   GL1 6543   2.410  25.517   6.502 -0.1908 -0.2664  0.2637
    1DIPC   GL2 6544   2.702  25.353   6.595  0.1181  0.2085  0.0804
    1DIPC   C1A 6545   2.605  25.621   6.151 -0.1259 -0.2549 -0.1347
    1DIPC   D2A 6546   2.738  25.402   5.859 -0.4742 -0.0211  0.1091
    1DIPC   D3A 6547   2.989  25.589   5.403 -0.2678  0.0804 -0.1283
    1DIPC   C4A 6548   2.943  25.362   4.899 -0.2076 -0.5232 -0.0840
    1DIPC   C1B 6549   2.579  25.125   6.282  0.0481 -0.0282 -0.0677
    1DIPC   D2B 6550   2.352  24.804   6.256 -0.0938 -0.1242  0.0538
    1DIPC   D3B 6551   2.529  24.730   5.748  0.0285 -0.0109 -0.0269
    1DIPC   C4B 6552   2.891  24.579   5.627 -0.0848  0.1689  0.0535
    1DIPC   NC3 6553  25.144  15.838   6.803  0.1624 -0.2738 -0.0545
    1DIPC   PO4 6554  24.728  15.687   6.890 -0.2813  0.3619 -0.0503
    1DIPC   GL1 6555  24.435  15.799   6.617 -0.0471  0.0255 -0.0124
    1DIPC   GL2 6556  24.354  16.111   6.719 -0.0896 -0.3119 -0.0083
    1DIPC   C1A 6557  24.060  15.938   6.323 -0.1243  0.4662 -0.1567
    1DIPC   D2A 6558  23.701  15.906   6.107  0.2241 -0.1650  0.1898
    1DIPC   D3A 6559  23.914  15.979   5.784 -0.1232 -0.1628 -0.0228
    1DIPC   C4A 6560  23.671  15.993   5.356 -0.0154 -0.0031 -0.0756
    1DIPC   C1B 6561  24.710  16.333   6.522  0.1464 -0.2076 -0.2891
    1DIPC   D2B 6562  24.700  16.464   6.054 -0.1029 -0.0404 -0.1142
    1DIPC   D3B 6563  24.438  16.850   6.101 -0.1266 -0.0010 -0.1221
    1DIPC   C4B 6564  24.001  16.843   5.920  0.2069 -0.1425  0.1002
    1DIPC   NC3 6565  16.878   2.825   6.784  0.0444  0.0197  0.3078
    1DIPC   PO4 6566  17.130   2.519   6.526 -0.2304 -0.0146 -0.2222
    1DIPC   GL1 6567  17.241   2.783   6.156  0.1360 -0.1673  0.1914
    1DIPC   GL2 6568  17.090   3.069   6.121 -0.2647 -0.0310  0.2528
    1DIPC   C1A 6569  17.551   2.937   5.889  0.0506  0.2129 -0.1206
    1DIPC   D2A 6570  17.673   3.048   5.518 -0.2795  0.0537  0.1708
    1DIPC   D3A 6571  17.883   2.916   5.217 -0.1919  0.0278  0.1693
    1DIPC   C4A 6572  18.220   3.224   5.017 -0.1567  0.0332  0.1351
    1DIPC   C1B 6573  16.915   3.271   5.672 -0.1276 -0.0753 -0.0043
    1DIPC   D2B 6574  17.154   3.198   5.326  0.0160  0.2121 -0.2890
    1DIPC   D3B 6575  17.382   2.863   5.084 -0.0601 -0.2405  0.0379
    1DIPC   C4B 6576  17.228   2.472   5.041 -0.3383 -0.1501 -0.3596
    1DIPC   NC3 6577   5.293  17.811   7.342 -0.2334 -0.1434  0.0666
    1DIPC   PO4 6578   5.344  17.734   6.805 -0.0030 -0.0612  0.1619
    1DIPC   GL1 6579   5.567  17.727   6.373 -0.2831 -0.2295  0.0623
    1DIPC   GL2 6580   5.759  17.446   6.193  0.0911 -0.1471 -0.1769
    1DIPC   C1A 6581   5.661  17.834   5.929  0.3581  0.0070 -0.1759
    1DIPC   D2A 6582   5.758  18.122   5.577 -0.0291  0.0360 -0.2972
    1DIPC   D3A 6583   5.779  18.092   5.191  0.1281 -0.0620 -0.0020
    1DIPC   C4A 6584   5.930  17.707   4.964 -0.3280  0.0415  0.2111
    1DIPC   C1B 6585   5.685  17.380   5.736 -0.0492 -0.3155  0.0084
    1DIPC   D2B 6586   5.640  17.644   5.373  0.1109  0.1384  0.2116
    1DIPC   D3B 6587   5.384  17.329   5.084 -0.0329  0.1565  0.3255
    1DIPC   C4B 6588   5.088  17.368   4.778 -0.3293 -0.0133 -0.0018
    1DIPC   NC3 6589  21.128   1.144   7.665 -0.0395 -0.4443  0.0697
    1DIPC   PO4 6590  20.748   1.210   7.347  0.0531  0.0732 -0.1178
    1DIPC   GL1 6591  20.690   1.189   6.856  0.1917 -0.2969  0.1410
    1DIPC   GL2 6592  20.443   1.027   6.648 -0.0591  0.3077 -0.0129
    1DIPC   C1A 6593  20.837   1.243   6.443  0.1318 -0.0280  0.0996
    1DIPC   D2A 6594  20.959   1.018   5.960 -0.2174 -0.1167  0.1991
    1DIPC   D3A 6595  20.961   1.048   5.472  0.1246  0.1233 -0.2005
    1DIPC   C4A 6596  20.607   1.371   5.277 -0.2082  0.1161 -0.0972
    1DIPC   C1B 6597  20.615   0.798   6.381 -0.2748 -0.0172  0.4911
    1DIPC   D2B 6598  20.798   0.555   6.015  0.0598 -0.1074 -0.1047
    1DIPC   D3B 6599  20.477   0.528   5.731 -0.1117  0.0825 -0.1192
    1DIPC   C4B 6600  20.562   0.324   5.350 -0.1152 -0.0180  0.1892
    1DIPC   NC3 6601   3.314  13.603   6.347 -0.2274  0.2565  0.0450
    1DIPC   PO4 6602   3.392  14.007   6.303  0.3236 -0.2759  0.2712
    1DIPC   GL1 6603   3.025  13.843   6.000 -0.0807  0.1319  0.0813
    1DIPC   GL2 6604   2.938  14.044   5.771  0.2686 -0.1792 -0.1040
    1DIPC   C1A 6605   2.818  13.511   5.830  0.1140  0.0340  0.3422
    1DIPC   D2A 6606   2.667  13.072   5.964 -0.1926 -0.0691 -0.2117
    1DIPC   D3A 6607   3.031  12.783   5.832 -0.1997  0.1168 -0.0773
    1DIPC   C4A 6608   3.203  12.997   5.503  0.1664 -0.1899 -0.1428
    1DIPC   C1B 6609   2.908  13.734   5.414  0.0794  0.1697  0.1583
    1DIPC   D2B 6610   2.757  13.330   5.340 -0.0974  0.0085 -0.0706
    1DIPC   D3B 6611   3.003  13.127   4.996 -0.0325  0.4107 -0.1544
    1DIPC   C4B 6612   2.794  12.940   4.631 -0.1319 -0.0897 -0.0440
    1DIPC   NC3 6613  13.673  19.554   5.708 -0.1207  0.0577 -0.0723
    1DIPC   PO4 6614  13.270  19.754   5.775  0.2508  0.1741  0.1262
    1DIPC   GL1 6615  13.432  19.792   5.357  0.1596  0.2302  0.0529
    1DIPC   GL2 6616  13.682  19.566   5.122 -0.0630 -0.3234 -0.0270
    1DIPC   C1A 6617  13.449  19.983   4.921  0.2082  0.0238  0.1819
    1DIPC   D2A 6618  13.414  20.166   4.485  0.0702  0.2363 -0.1457
    1DIPC   D3A 6619  13.314  19.755   4.377 -0.0583 -0.2821  0.1230
    1DIPC   C4A 6620  13.560  19.391   4.634 -0.2823 -0.2314  0.1212
    1DIPC   C1B 6621  13.928  19.765   4.736  0.1547 -0.1728  0.0252
    1DIPC   D2B 6622  13.932  20.105   4.361 -0.0685  0.0762  0.0071
    1DIPC   D3B 6623  14.070  20.519   4.424 -0.0382 -0.0424 -0.0155
    1DIPC   C4B 6624  13.671  20.614   4.512  0.0659  0.1574 -0.0455
    1DIPC   NC3 6625  18.616  25.460   7.444 -0.0084  0.0279 -0.2518
    1DIPC   PO4 6626  18.518  25.816   7.197 -0.1120  0.1848  0.0534
    1DIPC   GL1 6627  18.350  25.963   6.759  0.0251  0.0344  0.2162
    1DIPC   GL2 6628  18.148  25.688   6.596 -0.1227  0.1537 -0.0898
    1DIPC   C1A 6629  18.561  25.926   6.279  0.0379  0.0691 -0.2289
    1DIPC   D2A 6630  18.701  26.262   6.083 -0.3041  0.0686  0.0337
    1DIPC   D3A 6631  19.256  26.214   5.838  0.0519 -0.2052  0.4663
    1DIPC   C4A 6632  19.260  25.832   5.489  0.2017 -0.3390 -0.1499
    1DIPC   C1B 6633  18.235  25.342   6.482  0.0052 -0.5534  0.0331
    1DIPC   D2B 6634  18.058  24.951   6.371  0.0412 -0.3562 -0.0786
    1DIPC   D3B 6635  18.161  24.848   6.834 -0.2894 -0.0141  0.0596
    1DIPC   C4B 6636  18.106  24.431   6.849 -0.1390  0.0706 -0.1920
    1DIPC   NC3 6637  10.580   9.656   6.581 -0.2989  0.0785  0.0559
    1DIPC   PO4 6638  10.448   9.917   6.566  0.0372 -0.2433  0.0353
    1DIPC   GL1 6639  10.363   9.964   6.215  0.1649  0.0465 -0.0845
    1DIPC   GL2 6640  10.628   9.724   6.107 -0.0833  0.2502 -0.1056
    1DIPC   C1A 6641  10.245  10.038   5.881  0.0199 -0.1619  0.1746
    1DIPC   D2A 6642  10.060   9.974   5.494  0.0252  0.2594 -0.1093
    1DIPC   D3A 6643  10.272  10.402   5.250  0.1573  0.0874 -0.0090
    1DIPC   C4A 6644  10.314  10.448   4.854 -0.0243 -0.3126  0.1105
    1DIPC   C1B 6645  10.544   9.288   5.935 -0.5397  0.0588  0.2392
    1DIPC   D2B 6646  10.870   9.031   5.710  0.3741  0.0523  0.0873
    1DIPC   D3B 6647  11.008   9.050   5.181 -0.2364 -0.1505 -0.2872
    1DIPC   C4B 6648  10.975   8.807   4.900  0.1449  0.0502  0.3209
    1DIPC   NC3 6649   2.901  19.550   7.321 -0.3333 -0.0555 -0.0048
    1DIPC   PO4 6650   3.239  19.321   7.039  0.3119 -0.1426  0.3283
    1DIPC   GL1 6651   3.191  19.272   6.556 -0.0499  0.0349 -0.0600
    1DIPC   GL2 6652   2.942  19.057   6.412 -0.0716  0.0321 -0.2629
    1DIPC   C1A 6653   2.871  19.595   6.320 -0.2880 -0.3577  0.1333
    1DIPC   D2A 6654   2.904  20.020   6.318  0.0912 -0.0601 -0.1674
    1DIPC   D3A 6655   2.905  19.980   5.910 -0.2585 -0.1656 -0.1021
    1DIPC   C4A 6656   2.574  19.824   5.616 -0.3382 -0.1149 -0.2828
    1DIPC   C1B 6657   3.171  19.113   6.079 -0.0083  0.2811 -0.1347
    1DIPC   D2B 6658   3.646  18.886   5.886  0.0571  0.4360  0.1107
    1DIPC   D3B 6659   3.230  18.676   5.709 -0.0099  0.1239 -0.0858
    1DIPC   C4B 6660   3.223  18.839   5.242 -0.1755 -0.3059 -0.7455
    1DIPC   NC3 6661   8.118  27.842   6.129  0.1261 -0.2740  0.0346
    1DIPC   PO4 6662   8.405  28.234   6.198  0.2002  0.1931 -0.0828
    1DIPC   GL1 6663   8.247  28.214   5.756 -0.0101 -0.0466  0.0379
    1DIPC   GL2 6664   8.172  28.060   5.470 -0.0435  0.0546  0.2450
    1DIPC   C1A 6665   8.460  28.458   5.515  0.0848  0.0637  0.2051
    1DIPC   D2A 6666   8.370  28.383   5.106  0.2022 -0.2536 -0.0979
    1DIPC   D3A 6667   8.234  28.287   4.684 -0.3105  0.1498  0.3034
    1DIPC   C4A 6668   8.178  27.915   4.522  0.0406 -0.1431 -0.0185
    1DIPC   C1B 6669   7.988  27.959   5.091 -0.2265  0.2136  0.1098
    1DIPC   D2B 6670   7.918  27.631   4.837 -0.2697 -0.4029  0.3117
    1DIPC   D3B 6671   8.186  27.426   4.605 -0.0645  0.1903 -0.1059
    1DIPC   C4B 6672   8.102  27.264   4.192 -0.0924 -0.4302  0.1643
    1DIPC   NC3 6673   7.999   2.816   6.443 -0.0349 -0.0494 -0.2526
    1DIPC   PO4 6674   8.207   3.160   6.293  0.1870 -0.0550 -0.2401
    1DIPC   GL1 6675   8.106   2.924   5.936  0.0901 -0.0209 -0.1293
    1DIPC   GL2 6676   7.815   2.906   5.921 -0.0453  0.0654 -0.0201
    1DIPC   C1A 6677   8.063   2.661   5.480  0.1615 -0.2230  0.0593
    1DIPC   D2A 6678   7.985   2.449   5.130 -0.1387  0.1701  0.0942
    1DIPC   D3A 6679   7.773   2.128   5.292  0.0784  0.2932 -0.1939
    1DIPC   C4A 6680   7.477   1.966   5.394 -0.1664 -0.1580  0.0120
    1DIPC   C1B 6681   7.667   3.003   5.544 -0.0930  0.0843  0.2166
    1DIPC   D2B 6682   7.810   2.894   5.113 -0.1265 -0.0200  0.0841
    1DIPC   D3B 6683   8.111   2.865   4.796  0.1775  0.2098 -0.0735
    1DIPC   C4B 6684   8.017   2.476   4.624 -0.1220  0.0279 -0.1601
    1DIPC   NC3 6685  20.395  24.887   7.918 -0.0829  0.2002 -0.1773
    1DIPC   PO4 6686  20.194  25.154   7.663  0.0274 -0.0395  0.0647
    1DIPC   GL1 6687  20.034  24.975   7.332 -0.2506 -0.2391 -0.1591
    1DIPC   GL2 6688  19.989  24.698   7.337 -0.5988  0.0849 -0.1363
    1DIPC   C1A 6689  19.898  25.113   6.950 -0.1210 -0.3344  0.1422
    1DIPC   D2A 6690  19.980  25.350   6.537 -0.0498 -0.3072 -0.1369
    1DIPC   D3A 6691  20.267  25.151   6.275  0.0957 -0.3348 -0.1916
    1DIPC   C4A 6692  20.605  24.898   6.395 -0.3814  0.1787  0.1754
    1DIPC   C1B 6693  19.710  24.624   6.979  0.1500 -0.0412 -0.0298
    1DIPC   D2B 6694  19.798  24.357   6.557 -0.2528  0.4273  0.0964
    1DIPC   D3B 6695  19.672  23.954   6.577  0.0465 -0.0597  0.0845
    1DIPC   C4B 6696  19.591  23.753   6.881 -0.1853  0.1379  0.3159
    1DIPC   NC3 6697  12.104   7.350   6.438  0.1174  0.4201  0.1365
    1DIPC   PO4 6698  12.457   7.427   6.132  0.0360  0.0683 -0.3137
    1DIPC   GL1 6699  12.275   7.247   5.725 -0.3605  0.3350 -0.0087
    1DIPC   GL2 6700  11.887   7.169   5.533  0.0446 -0.1146  0.0456
    1DIPC   C1A 6701  12.345   7.216   5.277  0.2276 -0.1215 -0.3529
    1DIPC   D2A 6702  12.417   6.805   5.029  0.3448 -0.1092  0.1643
    1DIPC   D3A 6703  12.616   6.697   4.631  0.1395 -0.0117 -0.0722
    1DIPC   C4A 6704  12.567   6.994   4.344 -0.0931 -0.0882 -0.1201
    1DIPC   C1B 6705  11.907   6.958   5.128 -0.1210 -0.2688  0.1682
    1DIPC   D2B 6706  12.018   6.529   4.964  0.0129  0.1006 -0.1616
    1DIPC   D3B 6707  11.981   6.750   4.625 -0.1493  0.1923  0.0659
    1DIPC   C4B 6708  11.989   6.602   4.230 -0.2822 -0.2004  0.2243
    1DIPC   NC3 6709  20.332   1.048   7.596 -0.0852 -0.2196  0.0556
    1DIPC   PO4 6710  20.790   0.824   7.613 -0.2279  0.0937 -0.0072
    1DIPC   GL1 6711  20.670   0.755   7.227 -0.0887 -0.1529  0.2350
    1DIPC   GL2 6712  20.577   0.403   7.192  0.0065 -0.0124 -0.4983
    1DIPC   C1A 6713  20.853   0.719   6.771 -0.0221 -0.2131  0.0368
    1DIPC   D2A 6714  21.153   0.817   6.436  0.1434  0.0068 -0.1560
    1DIPC   D3A 6715  21.268   0.656   5.999 -0.2342  0.0844  0.0824
    1DIPC   C4A 6716  21.414   0.884   5.634  0.2847  0.0230  0.0806
    1DIPC   C1B 6717  20.460   0.429   6.719  0.0532  0.3814 -0.1512
    1DIPC   D2B 6718  20.110   0.236   6.457 -0.2497  0.1133 -0.4654
    1DIPC   D3B 6719  20.388   0.342   6.182  0.2656 -0.1194  0.0012
    1DIPC   C4B 6720  20.601   0.021   5.959 -0.4109 -0.0944  0.2553
    1DIPC   NC3 6721  14.766  17.046   6.982 -0.1572  0.1337  0.0640
    1DIPC   PO4 6722  14.444  16.926   6.562 -0.1808 -0.0866 -0.1197
    1DIPC   GL1 6723  14.734  16.814   6.151  0.0087 -0.2147 -0.1949
    1DIPC   GL2 6724  14.760  17.155   5.986  0.2297 -0.0931  0.0826
    1DIPC   C1A 6725  14.864  16.552   5.838 -0.1885  0.2564  0.1224
    1DIPC   D2A 6726  14.755  16.559   5.424  0.1633 -0.0540 -0.0929
    1DIPC   D3A 6727  14.988  16.324   5.123  0.0337  0.1227  0.0481
    1DIPC   C4A 6728  15.104  16.586   4.725  0.1019 -0.0103 -0.0505
    1DIPC   C1B 6729  14.582  16.985   5.630  0.2304  0.0144 -0.1029
    1DIPC   D2B 6730  14.424  17.070   5.232 -0.1286  0.1361 -0.0822
    1DIPC   D3B 6731  14.552  16.628   4.954  0.3214 -0.1587  0.1480
    1DIPC   C4B 6732  14.406  16.414   4.605  0.1422 -0.0087  0.2823
    1DIPC   NC3 6733  10.851  17.155   6.542  0.0950 -0.0630 -0.1476
    1DIPC   PO4 6734  11.175  17.118   6.170 -0.0286 -0.0946 -0.2385
    1DIPC   GL1 6735  10.975  17.146   5.785  0.0372 -0.2062 -0.2499
    1DIPC   GL2 6736  11.108  16.884   5.503  0.0877 -0.0388  0.1739
    1DIPC   C1A 6737  10.699  17.225   5.495 -0.1553  0.1179  0.4339
    1DIPC   D2A 6738  10.661  17.132   5.048 -0.0028 -0.1893  0.0332
    1DIPC   D3A 6739  10.583  16.640   4.846  0.1127 -0.2858 -0.3827
    1DIPC   C4A 6740  10.888  16.557   4.612  0.0863 -0.1683  0.0026
    1DIPC   C1B 6741  11.206  17.276   5.357 -0.1477 -0.0450 -0.1404
    1DIPC   D2B 6742  11.459  17.480   5.249  0.0924 -0.2879  0.0714
    1DIPC   D3B 6743  11.270  17.567   4.878  0.4019  0.1618  0.0410
    1DIPC   C4B 6744  11.161  17.216   4.814 -0.1120  0.3679  0.2362
    1DIPC   NC3 6745  15.533  26.012   6.661 -0.2555 -0.1891 -0.1756
    1DIPC   PO4 6746  15.908  26.172   6.559 -0.0201  0.0870 -0.0916
    1DIPC   GL1 6747  15.928  25.940   6.249  0.1135  0.0294  0.1702
    1DIPC   GL2 6748  15.756  25.666   6.349  0.1642  0.1853 -0.4845
    1DIPC   C1A 6749  15.989  26.084   5.774  0.2525 -0.3504 -0.3219
    1DIPC   D2A 6750  15.994  25.988   5.399 -0.0394 -0.1182 -0.3374
    1DIPC   D3A 6751  16.057  26.359   5.216  0.0303  0.0694  0.0954
    1DIPC   C4A 6752  15.695  26.573   5.124 -0.1907  0.1572 -0.2499
    1DIPC   C1B 6753  15.842  25.449   5.968 -0.1757 -0.1417  0.1208
    1DIPC   D2B 6754  15.986  25.194   5.603  0.0419  0.0013  0.4943
    1DIPC   D3B 6755  16.193  25.573   5.649 -0.1847  0.2614  0.0083
    1DIPC   C4B 6756  16.269  25.625   6.057  0.1244  0.0736  0.0856
    1DIPC   NC3 6757  25.915  27.025   7.089 -0.2342  0.0771 -0.2299
    1DIPC   PO4 6758  26.406  27.024   7.302 -0.4512  0.0319  0.3053
    1DIPC   GL1 6759  26.661  27.076   6.940  0.0619 -0.1058 -0.0334
    1DIPC   GL2 6760  26.329  26.948   6.762 -0.1910 -0.0954 -0.0352
    1DIPC   C1A 6761  26.810  26.937   6.546  0.1494  0.0982 -0.4138
    1DIPC   D2A 6762  26.634  26.533   6.509  0.2986  0.0145  0.1632
    1DIPC   D3A 6763  26.932  26.563   6.233 -0.1094  0.0004 -0.1733
    1DIPC   C4A 6764  27.168  27.044   6.198  0.0824  0.0139 -0.1477
    1DIPC   C1B 6765  26.394  27.019   6.311  0.0660  0.0077  0.1200
    1DIPC   D2B 6766  26.406  26.779   6.010 -0.4702 -0.0214  0.4674
    1DIPC   D3B 6767  26.624  27.228   5.744  0.0945  0.2015  0.1542
    1DIPC   C4B 6768  26.403  27.626   5.802 -0.2674  0.2943  0.3042
    1DIPC   NC3 6769  19.946  18.575   7.545  0.2248 -0.0166 -0.2473
    1DIPC   PO4 6770  19.719  18.260   7.302 -0.2290 -0.1919  0.0638
    1DIPC   GL1 6771  19.956  18.382   6.874  0.0676 -0.2328 -0.0271
    1DIPC   GL2 6772  19.916  18.655   6.689  0.3944 -0.0669 -0.1860
    1DIPC   C1A 6773  19.733  18.086   6.481  0.2462 -0.0652 -0.0508
    1DIPC   D2A 6774  19.988  17.963   6.117 -0.1986 -0.2557 -0.1468
    1DIPC   D3A 6775  19.948  18.084   5.797 -0.0614 -0.1957  0.0493
    1DIPC   C4A 6776  19.794  18.335   5.548  0.1078  0.1304 -0.3727
    1DIPC   C1B 6777  20.079  18.583   6.261 -0.1259 -0.0205 -0.0967
    1DIPC   D2B 6778  20.481  18.682   6.124 -0.2489 -0.0513  0.1068
    1DIPC   D3B 6779  20.688  19.092   6.129 -0.0405  0.0586  0.3682
    1DIPC   C4B 6780  20.684  19.460   5.873 -0.0047 -0.1379  0.1028
    1DIPC   NC3 6781   8.745  15.609   6.182  0.2387 -0.2916 -0.2061
    1DIPC   PO4 6782   8.706  15.410   5.694 -0.0772 -0.4137  0.0485
    1DIPC   GL1 6783   8.621  15.123   5.424 -0.0310 -0.0779 -0.1116
    1DIPC   GL2 6784   8.549  15.231   5.171 -0.0005  0.0639 -0.4376
    1DIPC   C1A 6785   8.551  14.734   5.391  0.2833  0.1724 -0.1626
    1DIPC   D2A 6786   8.255  14.410   5.283 -0.0526  0.1691 -0.1539
    1DIPC   D3A 6787   8.420  14.316   4.946  0.0826  0.1425  0.0864
    1DIPC   C4A 6788   8.682  14.042   4.937  0.0390  0.1986  0.1523
    1DIPC   C1B 6789   8.660  14.862   4.885  0.1893 -0.0470 -0.0667
    1DIPC   D2B 6790   8.448  14.734   4.512  0.0030  0.0144  0.0721
    1DIPC   D3B 6791   8.947  14.885   4.506 -0.1733  0.1595  0.3779
    1DIPC   C4B 6792   9.117  15.093   4.880 -0.2207  0.1950 -0.0761
    1DIPC   NC3 6793   3.856  16.472   7.089 -0.0256  0.2329 -0.1328
    1DIPC   PO4 6794   3.971  16.531   6.631  0.1762 -0.0856 -0.0606
    1DIPC   GL1 6795   4.130  16.735   6.269 -0.1584  0.0384 -0.2505
    1DIPC   GL2 6796   4.144  17.054   6.424 -0.1780  0.3111  0.0846
    1DIPC   C1A 6797   4.109  16.740   5.799 -0.1123 -0.0106 -0.1201
    1DIPC   D2A 6798   4.120  16.683   5.444  0.1494 -0.0172 -0.0326
    1DIPC   D3A 6799   3.824  16.835   5.005 -0.0159 -0.1739 -0.2267
    1DIPC   C4A 6800   3.660  16.784   4.577  0.1885  0.1471 -0.0608
    1DIPC   C1B 6801   4.003  17.193   6.024  0.2516  0.3066  0.2082
    1DIPC   D2B 6802   3.882  17.187   5.625 -0.1812 -0.2919  0.0289
    1DIPC   D3B 6803   3.547  17.241   5.354  0.1517  0.3060  0.1850
    1DIPC   C4B 6804   3.352  17.399   4.946  0.0564  0.1795  0.0646
    1DIPC   NC3 6805  28.101  24.242   6.379  0.3347 -0.2128 -0.0560
    1DIPC   PO4 6806  27.880  23.919   6.682 -0.4592  0.0241  0.2338
    1DIPC   GL1 6807  27.700  23.859   6.306 -0.2569 -0.4277  0.0674
    1DIPC   GL2 6808  28.022  23.894   6.012 -0.0581  0.1665 -0.1653
    1DIPC   C1A 6809  27.512  24.073   6.041  0.0437  0.0816 -0.4600
    1DIPC   D2A 6810  27.272  24.154   5.681 -0.1852  0.1877 -0.0547
    1DIPC   D3A 6811  27.368  23.920   5.277 -0.1123  0.2617 -0.0468
    1DIPC   C4A 6812  27.553  24.045   4.895  0.2538 -0.1561 -0.0276
    1DIPC   C1B 6813  27.961  23.627   5.658 -0.2488 -0.1231  0.2619
    1DIPC   D2B 6814  28.313  23.513   5.280 -0.1517 -0.0609  0.2675
    1DIPC   D3B 6815  27.884  23.360   5.264  0.2116 -0.2461 -0.0725
    1DIPC   C4B 6816  27.778  23.162   5.707  0.0275  0.0625  0.0963
    1DIPC   NC3 6817  10.941  27.160   6.685 -0.2585  0.1972  0.3044
    1DIPC   PO4 6818  10.592  26.908   6.317  0.2134 -0.0718  0.1377
    1DIPC   GL1 6819  10.599  26.835   5.947 -0.2248  0.2264  0.0173
    1DIPC   GL2 6820  10.712  26.491   5.808  0.3792  0.2784  0.0121
    1DIPC   C1A 6821  10.579  26.869   5.498  0.3422  0.1474 -0.0687
    1DIPC   D2A 6822  10.507  27.096   5.038  0.0090 -0.2543  0.1849
    1DIPC   D3A 6823  10.163  27.227   4.788 -0.3127  0.3671 -0.3401
    1DIPC   C4A 6824  10.059  26.943   4.455  0.0351 -0.1852 -0.2440
    1DIPC   C1B 6825  10.794  26.289   5.418 -0.2405 -0.2481  0.0644
    1DIPC   D2B 6826  10.796  26.138   5.025 -0.0585  0.1794  0.0608
    1DIPC   D3B 6827  10.553  25.970   4.623  0.5978  0.0167  0.1127
    1DIPC   C4B 6828  10.782  25.636   4.264 -0.2628  0.2930  0.1841
    1DIPC   NC3 6829  18.982  17.659   7.695  0.1979  0.1061 -0.0039
    1DIPC   PO4 6830  18.695  17.536   7.429  0.3242 -0.1908  0.1057
    1DIPC   GL1 6831  18.915  17.708   7.016  0.0491  0.2854 -0.0997
    1DIPC   GL2 6832  18.736  17.496   6.730 -0.1780 -0.1909 -0.3675
    1DIPC   C1A 6833  19.222  17.498   6.898 -0.0625  0.2580  0.1498
    1DIPC   D2A 6834  19.688  17.699   6.804 -0.0569  0.0079 -0.1479
    1DIPC   D3A 6835  19.522  17.314   6.616  0.1402  0.0014 -0.1292
    1DIPC   C4A 6836  19.726  17.082   6.299 -0.0285 -0.0170 -0.1061
    1DIPC   C1B 6837  19.006  17.510   6.323 -0.0412  0.1236 -0.0180
    1DIPC   D2B 6838  19.296  17.363   6.001  0.0554  0.0845  0.0269
    1DIPC   D3B 6839  19.287  16.973   5.680 -0.2491  0.1584  0.3561
    1DIPC   C4B 6840  19.055  16.766   5.455  0.3153  0.1969 -0.1174
    1DIPC   NC3 6841   6.937   4.508   5.838  0.0212 -0.0090 -0.1470
    1DIPC   PO4 6842   6.751   4.851   5.554 -0.0981  0.4312 -0.0770
    1DIPC   GL1 6843   6.941   4.442   5.312  0.0991 -0.3386 -0.0538
    1DIPC   GL2 6844   7.042   4.141   5.425 -0.0335  0.1422  0.2141
    1DIPC   C1A 6845   7.005   4.512   4.874  0.0623 -0.0608 -0.0723
    1DIPC   D2A 6846   7.022   4.756   4.483  0.0445 -0.0486 -0.0015
    1DIPC   D3A 6847   6.807   4.427   4.393 -0.0291 -0.0118 -0.0488
    1DIPC   C4A 6848   6.519   4.278   4.659 -0.0384 -0.3317 -0.4167
    1DIPC   C1B 6849   6.937   3.732   5.391 -0.1376 -0.3211  0.2379
    1DIPC   D2B 6850   7.038   3.443   5.005 -0.1005  0.0577  0.0840
    1DIPC   D3B 6851   7.407   3.185   4.939  0.4328  0.1448  0.2586
    1DIPC   C4B 6852   7.229   2.922   5.113 -0.1521 -0.1087 -0.1533
    1DIPC   NC3 6853   3.050  18.840   6.862  0.1259  0.1212 -0.1547
    1DIPC   PO4 6854   3.256  18.459   6.830  0.0573  0.2208  0.1266
    1DIPC   GL1 6855   2.922  18.372   6.569  0.2612  0.1927 -0.0407
    1DIPC   GL2 6856   2.954  18.575   6.291 -0.0349 -0.1102 -0.2007
    1DIPC   C1A 6857   2.787  18.121   6.226  0.0081 -0.1202 -0.2099
    1DIPC   D2A 6858   2.486  18.124   5.970 -0.0798  0.0788  0.0386
    1DIPC   D3A 6859   2.758  18.387   5.753  0.0296 -0.0872 -0.1803
    1DIPC   C4A 6860   2.730  18.808   5.941  0.1309 -0.0133 -0.0621
    1DIPC   C1B 6861   3.189  18.362   6.079  0.2609  0.1232  0.0608
    1DIPC   D2B 6862   3.684  18.309   6.016  0.4535 -0.0159 -0.0274
    1DIPC   D3B 6863   3.732  18.068   5.677  0.3140 -0.0091 -0.0603
    1DIPC   C4B 6864   3.708  17.618   5.549 -0.0929 -0.0764  0.0363
    1DIPC   NC3 6865  25.500  16.983   7.359 -0.1316  0.0994 -0.1478
    1DIPC   PO4 6866  25.567  16.640   7.059  0.1944 -0.2817 -0.0456
    1DIPC   GL1 6867  25.599  16.700   6.550 -0.0303  0.1471 -0.0621
    1DIPC   GL2 6868  25.544  16.450   6.327  0.1206  0.0237  0.0628
    1DIPC   C1A 6869  25.478  16.977   6.245  0.0747  0.0909 -0.2625
    1DIPC   D2A 6870  25.310  17.320   6.101 -0.0352  0.1769  0.0152
    1DIPC   D3A 6871  24.999  17.545   6.328  0.2034 -0.1856  0.2124
    1DIPC   C4A 6872  24.596  17.757   6.111  0.2209  0.2766  0.1958
    1DIPC   C1B 6873  25.680  16.189   5.879 -0.1061 -0.1546  0.0927
    1DIPC   D2B 6874  25.426  16.135   5.516  0.0757  0.2966  0.2258
    1DIPC   D3B 6875  25.178  16.546   5.387  0.0924  0.0877 -0.0433
    1DIPC   C4B 6876  25.229  16.583   5.034  0.0169 -0.2599 -0.3335
    1DIPC   NC3 6877   9.747  22.340   6.511 -0.0123  0.0866  0.0815
    1DIPC   PO4 6878  10.240  22.607   6.475 -0.3733  0.1301 -0.3857
    1DIPC   GL1 6879  10.092  22.821   6.048  0.0221  0.1613  0.0223
    1DIPC   GL2 6880  10.170  22.560   5.753 -0.2249  0.1526  0.2005
    1DIPC   C1A 6881   9.936  22.927   5.617  0.3186 -0.1601  0.3253
    1DIPC   D2A 6882  10.010  22.996   5.164 -0.0954 -0.0726 -0.0582
    1DIPC   D3A 6883   9.927  22.747   4.786  0.1372 -0.1296 -0.1836
    1DIPC   C4A 6884  10.258  22.563   4.816 -0.0284 -0.2741  0.0634
    1DIPC   C1B 6885  10.514  22.558   5.483 -0.2107 -0.2735  0.0292
    1DIPC   D2B 6886  10.916  22.788   5.457 -0.2234 -0.3038  0.3841
    1DIPC   D3B 6887  10.967  22.403   5.807  0.1695 -0.1956 -0.1498
    1DIPC   C4B 6888  10.565  22.158   5.871 -0.0261 -0.1536  0.2946
    1DIPC   NC3 6889  15.546  10.594   6.888  0.0214  0.1425  0.0281
    1DIPC   PO4 6890  15.635  10.909   6.713  0.3138 -0.0643 -0.1163
    1DIPC   GL1 6891  15.581  10.829   6.372 -0.1907  0.0254  0.0139
    1DIPC   GL2 6892  15.839  10.595   6.356  0.0442 -0.1656 -0.0518
    1DIPC   C1A 6893  15.473  10.721   5.939  0.1480 -0.1316  0.0920
    1DIPC   D2A 6894  15.638  10.870   5.505  0.0184  0.0090 -0.0816
    1DIPC   D3A 6895  15.736  10.662   5.139  0.1487 -0.0317  0.1975
    1DIPC   C4A 6896  15.624  10.234   5.194  0.0456  0.0748  0.1897
    1DIPC   C1B 6897  16.031  10.785   5.995 -0.1830 -0.0349  0.0330
    1DIPC   D2B 6898  16.349  11.246   6.065 -0.0672  0.3655 -0.1308
    1DIPC   D3B 6899  16.587  11.268   5.666 -0.1505  0.0002 -0.0197
    1DIPC   C4B 6900  16.720  11.343   5.292 -0.0365 -0.5376 -0.0103
    1DIPC   NC3 6901  11.621  17.867   5.671 -0.0399  0.2546  0.2010
    1DIPC   PO4 6902  11.528  18.226   5.809  0.1109 -0.0021  0.5334
    1DIPC   GL1 6903  11.581  18.389   5.363 -0.0061  0.1816 -0.0637
    1DIPC   GL2 6904  11.750  18.766   5.264  0.2440  0.2817  0.2185
    1DIPC   C1A 6905  11.326  18.446   5.038 -0.0646 -0.2267  0.4492
    1DIPC   D2A 6906  10.958  18.410   4.654 -0.1591  0.2028 -0.3428
    1DIPC   D3A 6907  10.727  18.157   4.275 -0.2000  0.4172  0.0910
    1DIPC   C4A 6908  10.330  18.100   4.373 -0.0319  0.0451  0.0266
    1DIPC   C1B 6909  11.462  18.984   5.032  0.1231 -0.1348 -0.0899
    1DIPC   D2B 6910  11.323  18.851   4.604 -0.0893  0.2718  0.2197
    1DIPC   D3B 6911  11.327  19.193   4.497  0.0806  0.3127 -0.0909
    1DIPC   C4B 6912  11.495  19.500   4.780 -0.2633 -0.0049  0.1076
    1DIPC   NC3 6913  27.342  23.839   6.702  0.1159  0.2340  0.1243
    1DIPC   PO4 6914  26.992  23.806   6.768  0.1274 -0.0912  0.2386
    1DIPC   GL1 6915  26.986  23.727   6.294  0.1975 -0.2353  0.0752
    1DIPC   GL2 6916  26.736  23.602   6.259 -0.0144 -0.3996 -0.1936
    1DIPC   C1A 6917  27.160  23.769   5.921  0.1292 -0.1293 -0.2158
    1DIPC   D2A 6918  26.922  23.846   5.464 -0.0317  0.0611  0.1110
    1DIPC   D3A 6919  26.803  23.354   5.275  0.3028  0.0889  0.1325
    1DIPC   C4A 6920  26.784  22.996   5.401 -0.2820  0.0266  0.2739
    1DIPC   C1B 6921  26.568  23.571   5.835  0.3173  0.0076 -0.1225
    1DIPC   D2B 6922  26.438  23.613   5.472  0.0279  0.1389  0.0518
    1DIPC   D3B 6923  26.568  23.960   5.119 -0.0288  0.1764 -0.2001
    1DIPC   C4B 6924  26.304  23.952   4.781 -0.1188  0.0706  0.1447
    1DIPC   NC3 6925  13.530   1.645   6.882 -0.0609 -0.1751 -0.0056
    1DIPC   PO4 6926  13.009   1.650   6.666  0.2207 -0.2945 -0.2148
    1DIPC   GL1 6927  13.080   1.745   6.197  0.1451  0.0129 -0.0086
    1DIPC   GL2 6928  12.924   1.685   5.978  0.0678  0.1817 -0.0865
    1DIPC   C1A 6929  13.468   1.856   5.937 -0.1106 -0.3956 -0.0242
    1DIPC   D2A 6930  13.752   2.047   5.707  0.1867  0.0417 -0.2665
    1DIPC   D3A 6931  13.787   2.517   5.429  0.1543 -0.0716  0.4958
    1DIPC   C4A 6932  13.499   2.459   5.004 -0.2574 -0.3201  0.0557
    1DIPC   C1B 6933  12.756   1.754   5.454  0.2880 -0.2827 -0.0796
    1DIPC   D2B 6934  12.357   1.738   5.126 -0.4936 -0.1668 -0.0098
    1DIPC   D3B 6935  12.219   1.594   5.561  0.2964  0.0388  0.1843
    1DIPC   C4B 6936  11.958   1.217   5.506 -0.1194 -0.0130  0.0933
    1DIPC   NC3 6937   9.497   1.346   5.720  0.1356  0.2814  0.3148
    1DIPC   PO4 6938   9.176   1.675   5.747 -0.2903  0.0143  0.1979
    1DIPC   GL1 6939   8.962   1.900   5.466 -0.1517 -0.2652  0.2992
    1DIPC   GL2 6940   8.950   2.280   5.431  0.2415 -0.0317  0.2338
    1DIPC   C1A 6941   8.802   1.772   5.118 -0.0374  0.5782 -0.3666
    1DIPC   D2A 6942   8.593   1.771   4.663 -0.2112 -0.1429  0.3149
    1DIPC   D3A 6943   8.265   1.542   4.752  0.1875 -0.1891 -0.0805
    1DIPC   C4A 6944   7.820   1.560   4.546 -0.2197  0.2837 -0.1705
    1DIPC   C1B 6945   8.940   2.223   4.941 -0.0440 -0.1956 -0.1128
    1DIPC   D2B 6946   9.025   2.032   4.446 -0.0296  0.1911 -0.1340
    1DIPC   D3B 6947   8.822   2.374   4.141  0.0745 -0.0953 -0.0931
    1DIPC   C4B 6948   9.005   2.744   3.996  0.2761 -0.0417 -0.1883
    1DIPC   NC3 6949  24.485   1.403   7.214 -0.0436  0.3481 -0.0968
    1DIPC   PO4 6950  24.888   1.500   7.146  0.0181 -0.2272  0.3350
    1DIPC   GL1 6951  24.931   1.212   6.805 -0.0656 -0.0775  0.0805
    1DIPC   GL2 6952  25.001   0.919   6.812  0.0343 -0.0292 -0.1674
    1DIPC   C1A 6953  25.221   1.118   6.384 -0.1942 -0.0978  0.0839
    1DIPC   D2A 6954  25.258   0.865   6.081 -0.0678 -0.2443 -0.0656
    1DIPC   D3A 6955  25.446   0.777   5.666 -0.1652 -0.0250 -0.0525
    1DIPC   C4A 6956  25.753   0.397   5.484 -0.0185 -0.2949  0.0688
    1DIPC   C1B 6957  24.862   0.669   6.532 -0.0216  0.0239  0.1485
    1DIPC   D2B 6958  24.747   0.256   6.406  0.0957  0.0911  0.0011
    1DIPC   D3B 6959  25.165   0.135   6.363  0.0496  0.0225  0.0136
    1DIPC   C4B 6960  25.293  29.353   6.076 -0.0096  0.1359  0.2587
    1DIPC   NC3 6961  27.101  24.289   6.913  0.4424 -0.0640  0.2539
    1DIPC   PO4 6962  26.612  24.399   6.871 -0.1173 -0.0786 -0.0495
    1DIPC   GL1 6963  26.532  24.779   6.613  0.2422  0.2516 -0.1174
    1DIPC   GL2 6964  26.832  24.806   6.624  0.1567 -0.0797 -0.0622
    1DIPC   C1A 6965  26.227  25.130   6.365  0.1501 -0.2182  0.0365
    1DIPC   D2A 6966  26.092  25.268   5.969  0.0671  0.0850  0.1035
    1DIPC   D3A 6967  26.012  24.907   5.911 -0.0782  0.3219  0.0187
    1DIPC   C4A 6968  25.799  24.564   6.069 -0.0901  0.3318  0.1796
    1DIPC   C1B 6969  26.977  24.725   6.255  0.3169  0.2548 -0.1928
    1DIPC   D2B 6970  26.987  24.763   5.775  0.1515 -0.0483  0.1003
    1DIPC   D3B 6971  26.828  24.439   5.690  0.0265  0.0079 -0.2007
    1DIPC   C4B 6972  26.668  24.039   5.900 -0.0773 -0.0733 -0.2345
    1DIPC   NC3 6973  15.900  17.841   6.622  0.1613  0.2754 -0.2441
    1DIPC   PO4 6974  16.236  18.114   6.873 -0.0145 -0.3578  0.0371
    1DIPC   GL1 6975  16.329  18.125   6.397 -0.1603 -0.0748  0.0959
    1DIPC   GL2 6976  16.137  17.882   6.199  0.1120 -0.0406 -0.2405
    1DIPC   C1A 6977  16.596  18.074   6.014  0.2386  0.0399 -0.0399
    1DIPC   D2A 6978  16.387  18.162   5.691  0.1075 -0.0194 -0.1686
    1DIPC   D3A 6979  16.601  17.887   5.569 -0.4775 -0.1905  0.1183
    1DIPC   C4A 6980  16.778  17.817   5.201  0.1720  0.0622  0.3656
    1DIPC   C1B 6981  16.198  17.698   5.755 -0.2972  0.1933 -0.1638
    1DIPC   D2B 6982  16.164  17.589   5.348  0.0892  0.0388 -0.0782
    1DIPC   D3B 6983  16.229  17.997   5.196  0.0130  0.2170  0.0651
    1DIPC   C4B 6984  16.200  18.238   4.899  0.1738  0.2901 -0.1145
    1DIPC   NC3 6985  29.435  21.906   7.506 -0.2964 -0.0612 -0.4528
    1DIPC   PO4 6986   0.110  21.669   7.283  0.1805  0.0543  0.2511
    1DIPC   GL1 6987  29.602  21.585   6.818  0.2407  0.1739 -0.1382
    1DIPC   GL2 6988  29.356  21.592   6.551  0.4054 -0.1289  0.1764
    1DIPC   C1A 6989  29.624  21.178   6.570  0.1236  0.0606  0.4740
    1DIPC   D2A 6990  29.608  20.923   6.188  0.2040  0.1601 -0.0124
    1DIPC   D3A 6991   0.011  21.281   5.885 -0.0108  0.0482  0.1785
    1DIPC   C4A 6992   0.259  21.307   5.523 -0.1300 -0.2073  0.0216
    1DIPC   C1B 6993  29.189  21.143   6.213 -0.3287 -0.0306 -0.0099
    1DIPC   D2B 6994  29.161  21.077   5.715  0.2635 -0.3055 -0.1253
    1DIPC   D3B 6995  28.858  21.368   5.685 -0.1236  0.2522  0.0197
    1DIPC   C4B 6996  28.646  21.612   6.000 -0.1313  0.0558  0.1597
    1DIPC   NC3 6997  24.219  20.446   7.012  0.0851 -0.4349 -0.0965
    1DIPC   PO4 6998  24.362  20.112   6.737  0.2180  0.2079 -0.1465
    1DIPC   GL1 6999  24.446  20.486   6.488 -0.0882 -0.4388 -0.0763
    1DIPC   GL2 7000  24.179  20.742   6.318 -0.2917  0.3160 -0.0559
    1DIPC   C1A 7001  24.658  20.741   6.178  0.1067 -0.1763  0.0549
    1DIPC   D2A 7002  25.047  20.723   5.928 -0.3393  0.1088  0.0107
    1DIPC   D3A 7003  25.287  20.366   5.755  0.0654  0.2500  0.2112
    1DIPC   C4A 7004  25.322  20.478   5.261 -0.3740  0.1697  0.2698
    1DIPC   C1B 7005  23.872  20.732   6.092 -0.2469 -0.1183 -0.1023
    1DIPC   D2B 7006  23.579  20.805   5.816  0.2357  0.0287 -0.1479
    1DIPC   D3B 7007  23.341  21.102   5.971  0.2633  0.0033  0.0365
    1DIPC   C4B 7008  23.411  21.467   5.775  0.0389 -0.3566  0.1212
    1DIPC   NC3 7009  26.640  18.026   7.115  0.0687 -0.1930  0.2381
    1DIPC   PO4 7010  27.029  18.069   6.993  0.0086  0.0103  0.0877
    1DIPC   GL1 7011  27.293  17.882   6.662  0.2392  0.0210  0.0737
    1DIPC   GL2 7012  27.564  18.108   6.644  0.3995 -0.2625 -0.1089
    1DIPC   C1A 7013  27.594  17.786   6.335 -0.0146  0.0681  0.2060
    1DIPC   D2A 7014  27.676  17.795   5.914  0.0375  0.0625  0.1811
    1DIPC   D3A 7015  27.562  18.248   5.932  0.0513 -0.0672  0.1696
    1DIPC   C4A 7016  27.183  18.356   5.669  0.0653  0.2152 -0.1746
    1DIPC   C1B 7017  27.880  18.316   6.338 -0.0941  0.1005 -0.2718
    1DIPC   D2B 7018  28.009  18.510   5.902 -0.1172  0.3083  0.2791
    1DIPC   D3B 7019  28.324  18.275   5.791  0.0470 -0.0747 -0.0957
    1DIPC   C4B 7020  28.473  18.499   5.512 -0.4813  0.0828  0.0134
    1DIPC   NC3 7021   4.622   2.793   6.294 -0.4852  0.2446 -0.1580
    1DIPC   PO4 7022   4.535   2.322   6.386 -0.0521 -0.1586  0.2862
    1DIPC   GL1 7023   4.550   2.364   5.939  0.0848 -0.1314 -0.4667
    1DIPC   GL2 7024   4.485   2.620   5.785 -0.0174 -0.2188 -0.2907
    1DIPC   C1A 7025   4.909   2.541   5.541 -0.1893  0.1811  0.1986
    1DIPC   D2A 7026   5.177   2.451   5.285  0.0726 -0.1649  0.2454
    1DIPC   D3A 7027   5.009   2.448   4.812  0.0186  0.0355  0.0515
    1DIPC   C4A 7028   5.024   2.120   4.565  0.2482 -0.1820  0.1904
    1DIPC   C1B 7029   4.206   2.871   5.595 -0.2640  0.1936 -0.0502
    1DIPC   D2B 7030   3.826   2.747   5.396 -0.5885  0.1430  0.0573
    1DIPC   D3B 7031   3.865   2.600   4.947  0.1682 -0.1740  0.3193
    1DIPC   C4B 7032   3.420   2.451   4.751  0.2205 -0.1773  0.0866
    1DIPC   NC3 7033   3.788  26.990   7.160 -0.1871  0.1267 -0.0620
    1DIPC   PO4 7034   3.786  26.588   7.055  0.0582  0.4768  0.2218
    1DIPC   GL1 7035   3.754  26.782   6.648 -0.1633 -0.1081  0.2420
    1DIPC   GL2 7036   4.036  26.686   6.420 -0.0085  0.0672  0.1133
    1DIPC   C1A 7037   3.455  26.772   6.242 -0.0588 -0.0433  0.3322
    1DIPC   D2A 7038   3.010  26.539   6.159 -0.2036 -0.2336 -0.0679
    1DIPC   D3A 7039   3.118  26.384   5.789  0.1771  0.0309 -0.0121
    1DIPC   C4A 7040   3.465  26.189   5.931  0.0280  0.0573 -0.1713
    1DIPC   C1B 7041   3.888  26.559   6.019 -0.2001  0.0101 -0.4236
    1DIPC   D2B 7042   3.919  26.428   5.641  0.1271 -0.2751  0.3148
    1DIPC   D3B 7043   3.892  26.093   5.748  0.2116 -0.0517  0.1793
    1DIPC   C4B 7044   3.853  26.098   6.240  0.1945 -0.1585 -0.0211
    1DIPC   NC3 7045  22.453   1.173   7.110 -0.0579  0.0436  0.0200
    1DIPC   PO4 7046  22.847   1.238   6.835 -0.0152 -0.1269 -0.1912
    1DIPC   GL1 7047  22.742   1.482   6.581  0.0260 -0.2294  0.0364
    1DIPC   GL2 7048  22.481   1.375   6.457 -0.0580  0.2595 -0.0709
    1DIPC   C1A 7049  22.897   1.617   6.206  0.1967  0.2850 -0.1114
    1DIPC   D2A 7050  22.869   1.605   5.728 -0.0320  0.1125  0.3214
    1DIPC   D3A 7051  23.265   1.391   5.432  0.2830 -0.1688  0.0271
    1DIPC   C4A 7052  23.157   1.452   5.005 -0.3212  0.0959 -0.0037
    1DIPC   C1B 7053  22.458   1.476   6.043 -0.0860  0.0134  0.2617
    1DIPC   D2B 7054  22.459   1.329   5.544  0.0688  0.1106 -0.0220
    1DIPC   D3B 7055  22.430   0.905   5.192  0.0475  0.1267 -0.1210
    1DIPC   C4B 7056  22.289   1.037   4.717 -0.1183 -0.1997 -0.2093
    1DIPC   NC3 7057  25.631  21.356   7.148  0.1009  0.1289  0.0847
    1DIPC   PO4 7058  25.898  21.712   6.961  0.0294  0.0175 -0.3662
    1DIPC   GL1 7059  25.776  21.975   6.525  0.2427 -0.1278 -0.0699
    1DIPC   GL2 7060  25.403  22.042   6.491  0.0078 -0.1027 -0.0152
    1DIPC   C1A 7061  26.007  21.895   6.103  0.0606 -0.1503 -0.1714
    1DIPC   D2A 7062  25.776  22.139   5.855  0.2996 -0.3683  0.1556
    1DIPC   D3A 7063  26.006  22.458   5.709 -0.2230 -0.1013  0.0149
    1DIPC   C4A 7064  26.364  22.709   5.535 -0.1482  0.3570  0.0726
    1DIPC   C1B 7065  25.543  21.733   6.208  0.0345 -0.1324  0.0285
    1DIPC   D2B 7066  25.749  21.596   5.811 -0.0977 -0.0004 -0.0601
    1DIPC   D3B 7067  25.886  21.348   5.379  0.0582 -0.1422  0.0111
    1DIPC   C4B 7068  25.994  20.996   5.528 -0.1480  0.1018 -0.1602
    1DIPC   NC3 7069   3.767  21.508   7.284 -0.1741 -0.0505 -0.0133
    1DIPC   PO4 7070   3.926  21.612   6.792 -0.1567 -0.2797 -0.0157
    1DIPC   GL1 7071   3.905  21.795   6.407 -0.1095 -0.0465  0.4352
    1DIPC   GL2 7072   4.201  21.654   6.156 -0.2469 -0.0652 -0.0290
    1DIPC   C1A 7073   3.610  21.982   6.089 -0.1975  0.0769 -0.0012
    1DIPC   D2A 7074   3.470  22.164   5.796  0.2765 -0.0303  0.1837
    1DIPC   D3A 7075   3.337  22.049   5.352 -0.2855  0.1110  0.1322
    1DIPC   C4A 7076   3.539  21.645   5.184 -0.2060 -0.2806  0.2434
    1DIPC   C1B 7077   4.152  22.031   6.021 -0.0615 -0.1729 -0.2532
    1DIPC   D2B 7078   4.281  22.228   5.649  0.1854  0.0224  0.0966
    1DIPC   D3B 7079   4.288  21.794   5.380  0.1543  0.1917 -0.1396
    1DIPC   C4B 7080   3.964  21.860   5.058 -0.1787  0.1195  0.2412
    1DIPC   NC3 7081   9.191  10.334   6.659  0.0714 -0.1055 -0.2533
    1DIPC   PO4 7082   9.562  10.397   6.328  0.1227 -0.1465 -0.0151
    1DIPC   GL1 7083   9.334  10.211   5.974 -0.0654  0.0458  0.1700
    1DIPC   GL2 7084   9.330  10.317   5.637  0.2233 -0.1756  0.1784
    1DIPC   C1A 7085   9.561   9.926   5.633  0.0238 -0.0772 -0.0454
    1DIPC   D2A 7086   9.612   9.782   5.171  0.0183 -0.2505 -0.3190
    1DIPC   D3A 7087  10.030   9.587   5.042 -0.0386 -0.0975 -0.0680
    1DIPC   C4A 7088  10.207   9.913   4.858  0.0568 -0.1517 -0.1400
    1DIPC   C1B 7089   9.252  10.165   5.336  0.0470  0.1865 -0.0874
    1DIPC   D2B 7090   9.417  10.113   4.836  0.2374  0.0061  0.1071
    1DIPC   D3B 7091   9.763   9.845   4.707 -0.1801  0.0524 -0.1875
    1DIPC   C4B 7092  10.140   9.911   4.348  0.1491  0.1101 -0.1911
    1DIPC   NC3 7093  16.734   1.085   6.585  0.2168 -0.1235  0.1722
    1DIPC   PO4 7094  16.624   0.592   6.459 -0.0163  0.1336 -0.3765
    1DIPC   GL1 7095  16.937   0.707   6.239 -0.2573  0.1470  0.0368
    1DIPC   GL2 7096  17.169   0.491   6.345 -0.1327 -0.1033  0.2564
    1DIPC   C1A 7097  17.137   0.827   5.924  0.0567 -0.0674 -0.2127
    1DIPC   D2A 7098  17.351   0.779   5.535 -0.1247 -0.3579 -0.1042
    1DIPC   D3A 7099  17.598   0.518   5.452  0.0327  0.2272 -0.0237
    1DIPC   C4A 7100  17.786   0.684   5.087 -0.1449  0.0101 -0.4535
    1DIPC   C1B 7101  17.335   0.326   6.031 -0.1948  0.2344  0.0699
    1DIPC   D2B 7102  17.516   0.048   5.562 -0.1047 -0.1573  0.1290
    1DIPC   D3B 7103  17.206  29.562   5.188  0.4579  0.3273 -0.0420
    1DIPC   C4B 7104  17.265  29.147   4.983  0.1117 -0.1896  0.4617
    1DIPC   NC3 7105  20.658  24.191   7.400 -0.0137 -0.0772 -0.0954
    1DIPC   PO4 7106  21.136  24.142   7.487 -0.1392 -0.1658 -0.0406
    1DIPC   GL1 7107  21.142  23.930   7.039  0.1753 -0.0499  0.0813
    1DIPC   GL2 7108  20.893  24.075   7.006  0.4122  0.1323 -0.1063
    1DIPC   C1A 7109  21.002  23.602   6.840 -0.1616 -0.0675 -0.1907
    1DIPC   D2A 7110  21.037  23.307   6.571 -0.4077  0.1050 -0.1269
    1DIPC   D3A 7111  21.342  23.171   6.814 -0.0266  0.0324  0.3154
    1DIPC   C4A 7112  21.715  23.209   6.643  0.3573  0.1846  0.3138
    1DIPC   C1B 7113  20.781  24.364   6.763  0.2486 -0.2968  0.0682
    1DIPC   D2B 7114  20.440  24.357   6.418  0.0663  0.2924 -0.2402
    1DIPC   D3B 7115  20.669  24.432   6.030 -0.3535 -0.0351 -0.2120
    1DIPC   C4B 7116  20.915  24.705   5.766 -0.0831  0.2235  0.0020
    1DIPC   NC3 7117   8.735  29.033   6.276  0.1388  0.2370  0.2556
    1DIPC   PO4 7118   9.035  29.015   5.892 -0.0792  0.2375 -0.0160
    1DIPC   GL1 7119   8.987  28.963   5.525 -0.0088  0.1919 -0.0915
    1DIPC   GL2 7120   8.706  28.996   5.279 -0.0486  0.1942  0.2180
    1DIPC   C1A 7121   9.257  28.745   5.203  0.0470 -0.3967 -0.0433
    1DIPC   D2A 7122   9.392  28.795   4.797 -0.0573  0.2022  0.0075
    1DIPC   D3A 7123   9.841  28.892   4.720  0.2024 -0.2655 -0.1681
    1DIPC   C4A 7124   9.980  29.171   4.537 -0.2310 -0.0095 -0.0292
    1DIPC   C1B 7125   8.736  28.653   5.078  0.0241 -0.2748  0.1667
    1DIPC   D2B 7126   8.891  28.520   4.783 -0.0204  0.2833  0.0138
    1DIPC   D3B 7127   8.558  28.617   4.469 -0.0873  0.3655  0.2108
    1DIPC   C4B 7128   8.564  29.054   4.312 -0.1047 -0.1463 -0.0910
    1DIPC   NC3 7129   3.597  14.467   6.366  0.0083 -0.1020  0.0609
    1DIPC   PO4 7130   3.523  14.709   5.955 -0.0496 -0.2455  0.1696
    1DIPC   GL1 7131   3.174  14.925   5.778 -0.1427 -0.0015  0.3344
    1DIPC   GL2 7132   3.032  15.177   5.798  0.2256 -0.3153 -0.0435
    1DIPC   C1A 7133   3.119  14.985   5.375  0.3816  0.1120  0.1765
    1DIPC   D2A 7134   3.068  15.182   4.967  0.1267 -0.1258  0.1732
    1DIPC   D3A 7135   3.474  15.129   4.937  0.1587 -0.1310 -0.1931
    1DIPC   C4A 7136   3.728  15.424   4.836  0.0242  0.1299  0.1053
    1DIPC   C1B 7137   3.007  15.496   5.431  0.0414  0.3973  0.0319
    1DIPC   D2B 7138   2.822  15.719   5.173 -0.2446 -0.1732 -0.1118
    1DIPC   D3B 7139   3.040  16.096   5.278  0.2834 -0.3000  0.0104
    1DIPC   C4B 7140   3.252  16.326   5.584  0.2765 -0.1682 -0.1026
    1DIPC   NC3 7141  25.643  24.337   7.555 -0.1870 -0.2449  0.1442
    1DIPC   PO4 7142  26.018  24.583   7.482  0.1324  0.0836 -0.0921
    1DIPC   GL1 7143  25.936  24.330   7.164 -0.4400 -0.3951  0.1012
    1DIPC   GL2 7144  25.970  24.642   6.947 -0.1917 -0.1101 -0.1274
    1DIPC   C1A 7145  25.701  24.208   6.856 -0.0162 -0.2502 -0.0736
    1DIPC   D2A 7146  25.365  24.011   6.513 -0.2885 -0.4142  0.0789
    1DIPC   D3A 7147  25.234  23.851   6.021 -0.0855 -0.1253  0.4191
    1DIPC   C4A 7148  25.319  23.994   5.578  0.3458 -0.1159 -0.3042
    1DIPC   C1B 7149  26.019  24.658   6.525  0.0829  0.3272 -0.1051
    1DIPC   D2B 7150  26.227  24.391   6.300  0.2195 -0.0369 -0.2803
    1DIPC   D3B 7151  26.682  24.332   6.407 -0.0098 -0.0575 -0.0549
    1DIPC   C4B 7152  27.095  24.249   6.226 -0.0249  0.0397 -0.1118
    1DIPC   NC3 7153  23.292  22.089   7.238  0.1715  0.0356 -0.0870
    1DIPC   PO4 7154  23.474  21.589   6.990 -0.3093 -0.0045  0.0152
    1DIPC   GL1 7155  23.546  21.632   6.560 -0.1007 -0.0061  0.1986
    1DIPC   GL2 7156  23.423  21.416   6.360 -0.2103  0.1127  0.3520
    1DIPC   C1A 7157  23.738  21.836   6.141  0.0391  0.0212  0.4137
    1DIPC   D2A 7158  24.000  21.933   5.708  0.0139  0.0714  0.0946
    1DIPC   D3A 7159  23.760  22.267   5.501 -0.2411  0.1642 -0.5976
    1DIPC   C4A 7160  23.394  22.240   5.338 -0.0099 -0.1511  0.0015
    1DIPC   C1B 7161  23.165  21.662   6.248  0.1806 -0.0600  0.0852
    1DIPC   D2B 7162  22.918  21.647   5.909 -0.3477 -0.0042  0.0179
    1DIPC   D3B 7163  22.994  21.826   5.520 -0.2290 -0.2046 -0.0509
    1DIPC   C4B 7164  22.991  22.289   5.625 -0.0452  0.0021  0.3950
    1DIPC   NC3 7165  22.615   1.696   7.045 -0.1675  0.1442 -0.0510
    1DIPC   PO4 7166  22.161   1.702   6.771 -0.2561  0.0589  0.0963
    1DIPC   GL1 7167  22.025   1.557   6.375 -0.1121 -0.0705 -0.0198
    1DIPC   GL2 7168  21.926   1.859   6.287 -0.1169 -0.0779 -0.2080
    1DIPC   C1A 7169  21.835   1.390   5.996  0.2653 -0.3836  0.2744
    1DIPC   D2A 7170  21.644   1.301   5.606 -0.4224  0.0734 -0.0645
    1DIPC   D3A 7171  21.141   1.387   5.714 -0.1398  0.0209  0.1112
    1DIPC   C4A 7172  20.980   1.539   6.048 -0.1453 -0.2184  0.1845
    1DIPC   C1B 7173  22.029   1.864   5.931  0.0198  0.1007  0.1781
    1DIPC   D2B 7174  22.001   1.648   5.499  0.1507 -0.0918  0.1807
    1DIPC   D3B 7175  22.185   1.547   5.146 -0.2533  0.0812  0.0515
    1DIPC   C4B 7176  22.029   1.166   5.207  0.1547 -0.1802 -0.0517
    1DIPC   NC3 7177   9.969  28.067   6.218  0.2752  0.0489  0.6208
    1DIPC   PO4 7178  10.529  28.023   6.142 -0.2407 -0.0248  0.0762
    1DIPC   GL1 7179  10.414  28.362   5.882  0.0499  0.0098 -0.2090
    1DIPC   GL2 7180  10.448  28.628   5.703 -0.1652 -0.0664  0.1234
    1DIPC   C1A 7181  10.126  28.227   5.602  0.1085  0.0600 -0.0832
    1DIPC   D2A 7182   9.797  27.902   5.670 -0.1413 -0.1246 -0.2203
    1DIPC   D3A 7183   9.322  28.069   5.760 -0.0199 -0.0210 -0.2082
    1DIPC   C4A 7184   8.996  28.261   5.452  0.3112 -0.1761 -0.0915
    1DIPC   C1B 7185  10.217  28.588   5.292  0.1422 -0.2515 -0.0321
    1DIPC   D2B 7186  10.197  28.652   4.977  0.0778 -0.1255  0.1831
    1DIPC   D3B 7187  10.715  28.845   4.921  0.1502 -0.0291  0.0856
    1DIPC   C4B 7188  10.934  29.149   5.159 -0.0915 -0.0258  0.0040
    1DIPC   NC3 7189  13.568  23.884   6.358  0.2881  0.6286  0.1787
    1DIPC   PO4 7190  13.186  23.982   6.130  0.1018  0.3809 -0.1112
    1DIPC   GL1 7191  13.377  23.927   5.806 -0.0241  0.2094 -0.2229
    1DIPC   GL2 7192  13.571  24.229   5.804 -0.1330 -0.0088  0.0626
    1DIPC   C1A 7193  13.451  23.621   5.378 -0.1243  0.0011  0.1125
    1DIPC   D2A 7194  13.823  23.557   5.132  0.1727  0.0083  0.2787
    1DIPC   D3A 7195  13.577  23.134   5.139  0.2803 -0.2456  0.2284
    1DIPC   C4A 7196  13.500  23.151   5.543 -0.0116  0.2147 -0.0917
    1DIPC   C1B 7197  13.619  24.104   5.360  0.2046  0.0271  0.2320
    1DIPC   D2B 7198  13.847  23.995   4.938 -0.0997 -0.1808  0.0348
    1DIPC   D3B 7199  13.679  24.164   4.472  0.1677  0.0413 -0.3587
    1DIPC   C4B 7200  13.233  24.122   4.560  0.0463  0.0316  0.0165
    1DIPC   NC3 7201  23.127  28.248   6.793  0.2426  0.0787  0.1883
    1DIPC   PO4 7202  23.275  28.585   6.831  0.1883 -0.1497  0.2005
    1DIPC   GL1 7203  23.304  28.764   6.383 -0.0047  0.1227  0.3966
    1DIPC   GL2 7204  23.031  28.754   6.253  0.1009 -0.0702 -0.0568
    1DIPC   C1A 7205  23.475  29.115   6.137 -0.2531  0.0784  0.1071
    1DIPC   D2A 7206  23.328  29.330   5.733 -0.2037  0.1932  0.1520
    1DIPC   D3A 7207  23.228   0.138   5.560 -0.1220 -0.0619  0.1406
    1DIPC   C4A 7208  22.821   0.070   5.544 -0.0126  0.0740  0.0982
    1DIPC   C1B 7209  22.941  29.053   5.974  0.0867 -0.0781  0.0731
    1DIPC   D2B 7210  22.628  29.400   6.038  0.0076  0.1270 -0.0107
    1DIPC   D3B 7211  22.544  29.205   5.715  0.1775  0.6607 -0.1586
    1DIPC   C4B 7212  22.305  28.854   5.460  0.0567 -0.5024 -0.1884
    1DIPC   NC3 7213  13.342  25.528   6.415 -0.0806  0.1859  0.0749
    1DIPC   PO4 7214  13.203  25.902   6.626 -0.5176  0.0510  0.1168
    1DIPC   GL1 7215  13.264  26.000   6.227 -0.0938  0.2430  0.0344
    1DIPC   GL2 7216  13.554  26.032   6.166  0.0349 -0.2318  0.3545
    1DIPC   C1A 7217  13.145  26.117   5.762  0.0848  0.0178  0.1804
    1DIPC   D2A 7218  13.385  26.427   5.595  0.3184 -0.2366  0.0349
    1DIPC   D3A 7219  12.965  26.493   5.499 -0.2097  0.0253  0.1033
    1DIPC   C4A 7220  12.884  26.613   5.101 -0.1431 -0.3788  0.2550
    1DIPC   C1B 7221  13.558  25.895   5.671 -0.2102 -0.3166 -0.0547
    1DIPC   D2B 7222  13.663  25.935   5.268  0.0582 -0.0859 -0.1257
    1DIPC   D3B 7223  13.298  26.136   5.201  0.4219 -0.0765  0.0688
    1DIPC   C4B 7224  13.096  26.233   4.780 -0.2454 -0.1300 -0.0995
    1DIPC   NC3 7225  27.590  25.958   6.530 -0.3015  0.1717 -0.3615
    1DIPC   PO4 7226  27.941  25.746   6.341 -0.2063 -0.0345  0.2247
    1DIPC   GL1 7227  28.122  25.926   6.041  0.2109  0.2290  0.1775
    1DIPC   GL2 7228  28.320  26.274   6.003 -0.1121 -0.2590 -0.0235
    1DIPC   C1A 7229  28.017  25.868   5.635  0.0576  0.0929 -0.0912
    1DIPC   D2A 7230  27.900  25.853   5.250  0.2191  0.0474  0.2587
    1DIPC   D3A 7231  27.627  25.547   5.485 -0.0129  0.2656 -0.1878
    1DIPC   C4A 7232  27.406  25.654   5.855 -0.2248  0.1330 -0.0927
    1DIPC   C1B 7233  28.507  26.064   5.642 -0.3601 -0.1248 -0.2550
    1DIPC   D2B 7234  28.322  26.046   5.137  0.2383 -0.2368  0.0403
    1DIPC   D3B 7235  28.457  25.849   4.812  0.2847 -0.0576 -0.0483
    1DIPC   C4B 7236  28.315  25.467   4.952 -0.0080 -0.1085 -0.0567
    1DIPC   NC3 7237   9.533  22.866   6.801  0.0921  0.2605 -0.0818
    1DIPC   PO4 7238   9.398  22.676   6.483 -0.1091 -0.1677  0.0501
    1DIPC   GL1 7239   9.311  22.395   6.141 -0.2538  0.1510  0.1007
    1DIPC   GL2 7240   9.561  22.124   6.004 -0.0631 -0.0805 -0.0633
    1DIPC   C1A 7241   8.981  22.431   5.795  0.3335 -0.0728 -0.1922
    1DIPC   D2A 7242   8.682  22.107   5.574 -0.1109 -0.3571 -0.3084
    1DIPC   D3A 7243   8.767  22.431   5.258  0.6209  0.1428 -0.1411
    1DIPC   C4A 7244   9.068  22.186   4.940 -0.1046 -0.1118  0.2753
    1DIPC   C1B 7245   9.677  22.477   5.677  0.0596  0.0109  0.2921
    1DIPC   D2B 7246   9.994  22.489   5.303  0.2216 -0.1080 -0.3121
    1DIPC   D3B 7247   9.998  22.135   5.535  0.1012 -0.0956 -0.0032
    1DIPC   C4B 7248  10.422  22.097   5.328  0.0631 -0.1466 -0.0270
    1DIPC   NC3 7249  12.634   6.362   5.846  0.1956 -0.1958  0.3044
    1DIPC   PO4 7250  12.197   6.338   5.830 -0.0225 -0.3316  0.0634
    1DIPC   GL1 7251  12.420   6.244   5.321  0.2062  0.0464  0.0150
    1DIPC   GL2 7252  12.750   6.131   5.399  0.3576 -0.0411  0.1994
    1DIPC   C1A 7253  12.456   6.272   4.914  0.1000  0.2147  0.2172
    1DIPC   D2A 7254  12.487   6.059   4.575 -0.2648  0.3084  0.0031
    1DIPC   D3A 7255  12.418   6.338   4.256  0.1856 -0.1453 -0.0501
    1DIPC   C4A 7256  12.703   6.631   4.061  0.1380  0.0865  0.2500
    1DIPC   C1B 7257  13.162   5.895   5.316  0.3566 -0.1480 -0.0686
    1DIPC   D2B 7258  13.210   5.665   4.917 -0.3174  0.0799  0.0883
    1DIPC   D3B 7259  13.490   5.826   4.593  0.1365  0.0349 -0.0781
    1DIPC   C4B 7260  13.744   5.586   4.338  0.3410  0.2446  0.1579
    1DIPC   NC3 7261  16.191   0.904   6.398  0.3355 -0.0873 -0.3189
    1DIPC   PO4 7262  16.058   1.280   6.189 -0.1848  0.3253 -0.1138
    1DIPC   GL1 7263  16.363   1.054   5.971  0.3726  0.0375  0.0312
    1DIPC   GL2 7264  16.302   1.033   5.611  0.2022  0.0159 -0.1118
    1DIPC   C1A 7265  16.571   0.647   5.844 -0.0588 -0.1249  0.1113
    1DIPC   D2A 7266  16.753   0.293   6.072  0.0406 -0.1584  0.0944
    1DIPC   D3A 7267  16.523  29.572   5.838  0.3066 -0.2110 -0.1786
    1DIPC   C4A 7268  16.128  29.321   5.722  0.1280  0.0326  0.0755
    1DIPC   C1B 7269  16.550   1.263   5.273 -0.0534 -0.0384  0.3274
    1DIPC   D2B 7270  16.742   1.596   5.088  0.0872 -0.2801 -0.0502
    1DIPC   D3B 7271  16.482   1.511   4.811  0.1333 -0.0169  0.0789
    1DIPC   C4B 7272  16.726   1.286   4.395 -0.2124 -0.0419  0.1556
    1DIPC   NC3 7273  20.720   3.188   6.995  0.3623 -0.1055 -0.0729
    1DIPC   PO4 7274  20.987   2.995   7.029  0.1222  0.0512  0.0306
    1DIPC   GL1 7275  21.103   3.088   6.711 -0.0370 -0.1993  0.0379
    1DIPC   GL2 7276  21.145   2.697   6.661  0.1045 -0.1760 -0.2462
    1DIPC   C1A 7277  20.943   3.058   6.214  0.1919  0.0900  0.0061
    1DIPC   D2A 7278  20.524   2.854   6.059  0.2471 -0.1455  0.0478
    1DIPC   D3A 7279  20.572   2.586   5.620 -0.0516 -0.0573  0.1526
    1DIPC   C4A 7280  21.001   2.330   5.480 -0.3547 -0.1203 -0.0276
    1DIPC   C1B 7281  21.361   2.704   6.299 -0.0684  0.2755  0.0373
    1DIPC   D2B 7282  21.505   2.539   5.902 -0.0396 -0.0080  0.0715
    1DIPC   D3B 7283  21.456   2.427   5.511 -0.0587 -0.3286  0.0036
    1DIPC   C4B 7284  21.753   2.202   5.345 -0.2613 -0.2118 -0.1615
    1DIPC   NC3 7285  24.385  19.624   6.966 -0.2168 -0.3059  0.2725
    1DIPC   PO4 7286  23.929  19.651   6.830  0.2630 -0.0025 -0.0048
    1DIPC   GL1 7287  23.961  19.964   6.484  0.1373 -0.0132  0.0644
    1DIPC   GL2 7288  24.309  19.844   6.331  0.1166 -0.0923 -0.1092
    1DIPC   C1A 7289  24.078  20.272   6.158 -0.1910  0.1625 -0.0675
    1DIPC   D2A 7290  24.339  20.480   5.828  0.0582  0.2180  0.1833
    1DIPC   D3A 7291  24.397  20.492   5.341  0.1077  0.0107  0.0435
    1DIPC   C4A 7292  24.226  20.169   5.217 -0.2673  0.0938  0.2995
    1DIPC   C1B 7293  24.043  19.581   6.095 -0.0849 -0.0777 -0.0287
    1DIPC   D2B 7294  23.933  19.059   6.058  0.2431 -0.5552 -0.0664
    1DIPC   D3B 7295  23.789  19.209   5.749  0.0507 -0.0189 -0.0077
    1DIPC   C4B 7296  23.746  19.562   5.550  0.1226  0.1136  0.2495
    1DIPC   NC3 7297  17.608   0.586   6.776 -0.0783 -0.2134  0.2513
    1DIPC   PO4 7298  17.347   0.169   6.793  0.0734 -0.2718  0.2482
    1DIPC   GL1 7299  17.490  29.523   6.421  0.3014  0.0688 -0.0329
    1DIPC   GL2 7300  17.381  29.147   6.307  0.2132 -0.3867 -0.0864
    1DIPC   C1A 7301  17.646  29.433   6.025  0.2164 -0.0335 -0.1231
    1DIPC   D2A 7302  18.012  29.445   5.728  0.0747 -0.2653 -0.1937
    1DIPC   D3A 7303  18.111  29.161   5.335 -0.1921 -0.0876 -0.1522
    1DIPC   C4A 7304  18.253  28.732   5.129 -0.1240  0.0333 -0.0891
    1DIPC   C1B 7305  17.484  28.862   6.039  0.1410 -0.0679 -0.2144
    1DIPC   D2B 7306  17.325  28.574   5.685  0.0722  0.0450 -0.2004
    1DIPC   D3B 7307  17.055  28.202   5.898  0.1245 -0.0538  0.0627
    1DIPC   C4B 7308  16.627  28.351   6.052 -0.2628 -0.1375 -0.3194
    1DIPC   NC3 7309  11.191   7.856   6.837 -0.1809  0.2425 -0.1100
    1DIPC   PO4 7310  11.205   7.754   6.331 -0.1216  0.0365  0.2349
    1DIPC   GL1 7311  11.252   7.617   5.930  0.0736 -0.0824 -0.1179
    1DIPC   GL2 7312  11.513   7.756   5.895  0.0705 -0.3468  0.0090
    1DIPC   C1A 7313  11.461   7.649   5.400  0.1670  0.0194 -0.2669
    1DIPC   D2A 7314  11.255   7.483   5.065  0.0487  0.0128  0.0349
    1DIPC   D3A 7315  11.028   7.483   4.660 -0.3059 -0.0159 -0.1196
    1DIPC   C4A 7316  11.033   7.355   4.103  0.2039 -0.1955 -0.1551
    1DIPC   C1B 7317  11.677   8.070   5.657 -0.4676  0.0664  0.0361
    1DIPC   D2B 7318  11.906   7.965   5.222 -0.2487 -0.2090  0.2581
    1DIPC   D3B 7319  11.933   7.473   5.080 -0.0121  0.0856  0.0625
    1DIPC   C4B 7320  11.763   7.227   4.732  0.1161  0.0113  0.0656
    1DIPC   NC3 7321   6.744  21.493   6.588 -0.0249 -0.1486 -0.2212
    1DIPC   PO4 7322   7.227  21.569   6.876  0.0518  0.1674  0.1756
    1DIPC   GL1 7323   7.169  21.638   6.475 -0.1159 -0.0931  0.1428
    1DIPC   GL2 7324   7.151  21.856   6.203  0.4305 -0.0777  0.1148
    1DIPC   C1A 7325   7.133  21.353   6.020 -0.1609  0.1519 -0.1113
    1DIPC   D2A 7326   7.468  21.178   5.778 -0.2453  0.1967 -0.1528
    1DIPC   D3A 7327   7.489  20.951   5.445  0.0992  0.1005 -0.1643
    1DIPC   C4A 7328   7.871  20.643   5.380  0.2462 -0.1044  0.1996
    1DIPC   C1B 7329   7.036  22.062   5.765  0.0111  0.1630 -0.0846
    1DIPC   D2B 7330   7.151  21.973   5.344 -0.2338 -0.3173  0.1332
    1DIPC   D3B 7331   7.299  21.598   5.545  0.0434  0.0127  0.1003
    1DIPC   C4B 7332   7.104  21.261   5.457  0.0304 -0.5222  0.1019
    1DIPC   NC3 7333   2.199   5.233   6.111  0.1172  0.0059 -0.2036
    1DIPC   PO4 7334   1.901   4.993   5.913  0.2504 -0.0757  0.1668
    1DIPC   GL1 7335   1.816   5.094   5.443 -0.2265  0.0583  0.2878
    1DIPC   GL2 7336   2.104   5.297   5.293  0.1241  0.0560  0.1965
    1DIPC   C1A 7337   1.618   5.027   5.096 -0.3058  0.2541  0.1778
    1DIPC   D2A 7338   1.439   4.856   4.708 -0.0796 -0.3847  0.1293
    1DIPC   D3A 7339   0.993   4.768   4.965 -0.1138  0.1150  0.0819
    1DIPC   C4A 7340   0.988   5.013   5.341  0.0945  0.3724 -0.0477
    1DIPC   C1B 7341   1.733   5.502   5.002 -0.0219 -0.0754  0.2297
    1DIPC   D2B 7342   1.572   5.478   4.641 -0.0677  0.3129  0.2192
    1DIPC   D3B 7343   1.679   5.089   4.344 -0.1396  0.0067 -0.2927
    1DIPC   C4B 7344   1.477   4.760   4.222 -0.2270  0.0180  0.1237
    1DIPC   NC3 7345  15.069  18.677   6.496 -0.0931  0.1631  0.2497
    1DIPC   PO4 7346  15.460  18.716   6.448  0.3971  0.2910 -0.4611
    1DIPC   GL1 7347  15.670  18.675   6.024 -0.3287 -0.1105 -0.2003
    1DIPC   GL2 7348  15.709  18.860   5.764  0.3362  0.0331 -0.0921
    1DIPC   C1A 7349  16.139  18.530   5.844 -0.2901  0.0675  0.0236
    1DIPC   D2A 7350  16.481  18.635   5.997  0.1625 -0.1452  0.0668
    1DIPC   D3A 7351  16.575  18.702   5.610 -0.1066  0.0632 -0.0350
    1DIPC   C4A 7352  16.668  18.295   5.319 -0.1527 -0.1892 -0.0510
    1DIPC   C1B 7353  15.638  18.825   5.275 -0.0332  0.0074  0.0483
    1DIPC   D2B 7354  15.427  18.775   4.946 -0.2336 -0.1444  0.1314
    1DIPC   D3B 7355  15.166  18.898   4.587 -0.1020  0.0171  0.0294
    1DIPC   C4B 7356  14.926  19.282   4.625  0.1491 -0.0637  0.2899
    1DIPC   NC3 7357  10.555  19.229   6.293 -0.3081  0.1316  0.0297
    1DIPC   PO4 7358  10.098  19.072   6.245 -0.0246 -0.0740 -0.1210
    1DIPC   GL1 7359   9.911  19.007   5.806  0.2940  0.1365  0.4013
    1DIPC   GL2 7360   9.937  18.740   5.568 -0.3814  0.2181 -0.0581
    1DIPC   C1A 7361   9.647  19.138   5.464 -0.2223 -0.1935 -0.1514
    1DIPC   D2A 7362   9.644  19.309   5.063  0.1786  0.0605 -0.1401
    1DIPC   D3A 7363   9.648  19.362   4.537 -0.0217 -0.2822  0.0049
    1DIPC   C4A 7364   9.742  19.692   4.386  0.1804  0.1967 -0.3405
    1DIPC   C1B 7365   9.953  18.860   5.170  0.0985 -0.5228 -0.0098
    1DIPC   D2B 7366  10.219  18.899   4.896 -0.0390 -0.1954 -0.0985
    1DIPC   D3B 7367   9.769  18.924   4.696 -0.0685  0.0375 -0.4171
    1DIPC   C4B 7368   9.566  18.956   4.263  0.3655 -0.1701 -0.1787
    1DIPC   NC3 7369  27.368  28.160   7.316  0.0339 -0.0498 -0.0781
    1DIPC   PO4 7370  27.766  28.145   7.215  0.0327 -0.0737  0.2797
    1DIPC   GL1 7371  27.542  28.008   6.853 -0.2391 -0.1950  0.2509
    1DIPC   GL2 7372  27.271  27.800   6.928 -0.2733  0.1094 -0.2058
    1DIPC   C1A 7373  27.402  27.902   6.459 -0.0663 -0.0632 -0.2626
    1DIPC   D2A 7374  27.081  28.003   6.226  0.0411 -0.2290 -0.1416
    1DIPC   D3A 7375  26.954  28.419   6.307 -0.3134 -0.0445  0.2286
    1DIPC   C4A 7376  26.548  28.505   6.460 -0.3219  0.0989  0.4276
    1DIPC   C1B 7377  26.861  27.764   6.723  0.2787 -0.0072  0.4485
    1DIPC   D2B 7378  26.622  27.463   6.567 -0.1239  0.0330  0.3566
    1DIPC   D3B 7379  26.743  27.343   6.195 -0.0777 -0.0689 -0.1985
    1DIPC   C4B 7380  26.905  27.709   5.879  0.2779  0.2119 -0.3396
    1DIPC   NC3 7381   2.714  21.901   7.011  0.2612  0.0231  0.0800
    1DIPC   PO4 7382   2.993  21.541   6.889  0.0357  0.0412 -0.1748
    1DIPC   GL1 7383   2.822  21.625   6.529 -0.1195  0.1218 -0.4289
    1DIPC   GL2 7384   2.476  21.804   6.550  0.2004  0.0072  0.0583
    1DIPC   C1A 7385   2.630  21.558   6.127  0.2327 -0.3033 -0.0452
    1DIPC   D2A 7386   2.496  21.755   5.736  0.0484  0.0943 -0.0076
    1DIPC   D3A 7387   2.518  22.174   5.735  0.1856 -0.2241 -0.1335
    1DIPC   C4A 7388   2.641  22.524   5.618  0.0423 -0.0426 -0.1956
    1DIPC   C1B 7389   2.080  21.690   6.385  0.3101  0.0682 -0.1427
    1DIPC   D2B 7390   1.716  21.442   6.319 -0.0361 -0.2197  0.1568
    1DIPC   D3B 7391   1.651  21.241   5.901 -0.0364 -0.0662 -0.1815
    1DIPC   C4B 7392   1.240  21.419   5.647 -0.0336  0.2042  0.2489
    1DIPC   NC3 7393  16.088   3.642   6.064 -0.1489  0.1004  0.1091
    1DIPC   PO4 7394  15.703   3.858   6.298 -0.1103  0.1239  0.2534
    1DIPC   GL1 7395  15.744   4.040   5.886 -0.0992 -0.1533 -0.0835
    1DIPC   GL2 7396  15.519   3.953   5.627  0.1512  0.0980  0.1708
    1DIPC   C1A 7397  15.908   4.322   5.518  0.1109  0.1409  0.0342
    1DIPC   D2A 7398  15.794   4.424   5.133  0.0215  0.1801  0.0439
    1DIPC   D3A 7399  16.040   4.667   4.895 -0.2933 -0.2965 -0.2840
    1DIPC   C4A 7400  16.363   4.411   4.756  0.2647 -0.1777 -0.1395
    1DIPC   C1B 7401  15.642   3.531   5.499  0.0840  0.0494 -0.2062
    1DIPC   D2B 7402  15.519   2.992   5.517 -0.2986 -0.2481 -0.3135
    1DIPC   D3B 7403  15.815   2.818   5.611  0.2287 -0.0580 -0.1048
    1DIPC   C4B 7404  15.674   2.335   5.671  0.2013  0.0349  0.2500
    1DIPC   NC3 7405   6.201   5.504   6.488  0.0087 -0.0502 -0.1932
    1DIPC   PO4 7406   5.808   5.763   6.375 -0.3146  0.1226 -0.0580
    1DIPC   GL1 7407   5.849   5.682   5.949 -0.1023 -0.0378  0.4793
    1DIPC   GL2 7408   6.003   5.827   5.882 -0.1428 -0.1733 -0.0332
    1DIPC   C1A 7409   5.569   5.291   5.642 -0.2120 -0.2502  0.2303
    1DIPC   D2A 7410   5.543   5.014   5.278  0.0838  0.1540 -0.1670
    1DIPC   D3A 7411   5.465   4.832   4.842  0.0032  0.2480 -0.4687
    1DIPC   C4A 7412   5.284   4.988   4.505 -0.1992 -0.0974  0.3894
    1DIPC   C1B 7413   6.002   5.778   5.445  0.1978 -0.0363 -0.0894
    1DIPC   D2B 7414   5.977   6.159   5.128  0.0294  0.4552 -0.0707
    1DIPC   D3B 7415   5.586   6.014   5.159  0.2079 -0.0078  0.0584
    1DIPC   C4B 7416   5.432   5.741   5.466 -0.0243 -0.0089 -0.2886
    1DIPC   NC3 7417   6.247   6.553   6.285 -0.3169 -0.1467  0.1526
    1DIPC   PO4 7418   6.116   6.759   5.880  0.0271  0.1366  0.0690
    1DIPC   GL1 7419   6.198   6.885   5.407  0.2739  0.0598  0.2113
    1DIPC   GL2 7420   6.587   6.983   5.149  0.4311 -0.2834 -0.2410
    1DIPC   C1A 7421   6.255   6.648   5.075  0.3005 -0.0647  0.0264
    1DIPC   D2A 7422   6.389   6.854   4.687 -0.2587  0.1022  0.0947
    1DIPC   D3A 7423   6.830   6.572   4.792  0.1132  0.2310 -0.2567
    1DIPC   C4A 7424   6.892   6.509   4.374  0.0790  0.3838 -0.3157
    1DIPC   C1B 7425   7.076   6.986   4.975 -0.2030  0.3591  0.0043
    1DIPC   D2B 7426   7.135   6.961   4.511 -0.2221 -0.1373 -0.1774
    1DIPC   D3B 7427   6.932   6.981   4.129  0.0286 -0.0000 -0.2719
    1DIPC   C4B 7428   6.452   6.945   4.126  0.2577  0.0727 -0.2006
    1DIPC   NC3 7429  14.694  23.416   6.268 -0.1181  0.0793  0.0693
    1DIPC   PO4 7430  14.417  23.839   6.183  0.2509  0.0448 -0.0974
    1DIPC   GL1 7431  14.586  23.584   5.847 -0.2125  0.3941  0.0125
    1DIPC   GL2 7432  14.574  23.311   5.826  0.1073  0.0320 -0.0964
    1DIPC   C1A 7433  14.864  23.686   5.518  0.2851  0.1086 -0.1516
    1DIPC   D2A 7434  14.964  23.845   5.035 -0.0520 -0.0247 -0.0698
    1DIPC   D3A 7435  15.170  24.081   4.686  0.1071 -0.1630  0.0579
    1DIPC   C4A 7436  15.631  24.195   4.645 -0.1177  0.3258 -0.0441
    1DIPC   C1B 7437  14.486  23.397   5.378 -0.2285  0.1710  0.0758
    1DIPC   D2B 7438  14.295  23.223   5.113  0.0528 -0.3382  0.0306
    1DIPC   D3B 7439  14.482  23.341   4.743 -0.1104 -0.0327  0.1556
    1DIPC   C4B 7440  14.308  23.340   4.347 -0.1619 -0.2956 -0.0525
    1DIPC   NC3 7441   6.181  16.222   6.339  0.0557  0.3498 -0.3164
    1DIPC   PO4 7442   6.559  16.178   6.226  0.0964  0.1125  0.2488
    1DIPC   GL1 7443   6.554  16.535   5.927  0.2676 -0.1323 -0.0551
    1DIPC   GL2 7444   6.262  16.884   5.943 -0.2490 -0.2243  0.1405
    1DIPC   C1A 7445   6.544  16.631   5.484 -0.0865 -0.0607  0.0496
    1DIPC   D2A 7446   6.471  16.621   5.078  0.0211  0.0090  0.0318
    1DIPC   D3A 7447   6.076  16.748   5.170 -0.0901 -0.1011  0.1781
    1DIPC   C4A 7448   5.925  16.487   5.540 -0.0230  0.2076  0.1605
    1DIPC   C1B 7449   6.109  16.945   5.629 -0.0691  0.0506 -0.3083
    1DIPC   D2B 7450   5.972  17.183   5.302 -0.1203 -0.3575 -0.1598
    1DIPC   D3B 7451   5.944  17.217   4.904 -0.0273 -0.0093  0.2075
    1DIPC   C4B 7452   5.877  16.830   4.705  0.0884 -0.0326  0.0065
    1DIPC   NC3 7453   9.198  19.678   6.795  0.2440 -0.0308  0.2774
    1DIPC   PO4 7454   8.714  19.553   6.760  0.0398  0.4043 -0.0398
    1DIPC   GL1 7455   8.714  19.723   6.303  0.1325  0.1044  0.1553
    1DIPC   GL2 7456   8.411  19.667   6.110  0.2158  0.0572  0.1095
    1DIPC   C1A 7457   8.685  19.994   5.818  0.0347  0.1532  0.2299
    1DIPC   D2A 7458   8.624  19.927   5.410  0.1214  0.1781 -0.1024
    1DIPC   D3A 7459   8.767  19.557   5.124 -0.0143 -0.0057  0.0806
    1DIPC   C4A 7460   8.688  19.184   5.375  0.0789 -0.1536 -0.1883
    1DIPC   C1B 7461   8.358  19.512   5.657 -0.0487 -0.1212  0.0847
    1DIPC   D2B 7462   8.118  19.301   5.369  0.2274 -0.1754 -0.0086
    1DIPC   D3B 7463   8.361  19.326   5.068 -0.1097  0.0847 -0.1844
    1DIPC   C4B 7464   8.441  19.535   4.622  0.1587 -0.2425 -0.0301
    1DIPC   NC3 7465  15.387   1.984   6.592 -0.1537  0.1117  0.2416
    1DIPC   PO4 7466  15.747   2.198   6.509 -0.2370 -0.0698  0.1302
    1DIPC   GL1 7467  15.951   2.202   6.055  0.1686  0.2203 -0.2530
    1DIPC   GL2 7468  16.294   2.218   6.101 -0.1343 -0.1570 -0.4139
    1DIPC   C1A 7469  16.131   2.395   5.604 -0.0879 -0.0665  0.3074
    1DIPC   D2A 7470  16.284   2.523   5.112  0.1737 -0.1174 -0.2521
    1DIPC   D3A 7471  15.757   2.557   5.209 -0.0604 -0.1764  0.0332
    1DIPC   C4A 7472  15.508   2.526   4.802 -0.0086  0.2326  0.0182
    1DIPC   C1B 7473  16.517   2.070   5.658  0.1373  0.2523  0.0989
    1DIPC   D2B 7474  16.852   2.193   5.219 -0.1382  0.0670  0.0544
    1DIPC   D3B 7475  16.500   2.064   4.950  0.1867 -0.0934 -0.2638
    1DIPC   C4B 7476  16.613   1.946   4.573  0.3061 -0.0598 -0.0276
    1DIPC   NC3 7477   8.730  12.731   5.955 -0.2757  0.2323  0.1502
    1DIPC   PO4 7478   8.367  12.456   5.788  0.0603 -0.1817 -0.3495
    1DIPC   GL1 7479   8.218  12.252   5.412  0.0332  0.0421  0.0669
    1DIPC   GL2 7480   8.502  12.196   5.324 -0.0403  0.1787 -0.1629
    1DIPC   C1A 7481   8.076  12.131   4.958  0.0709 -0.1397  0.1187
    1DIPC   D2A 7482   8.041  12.333   4.483  0.0439  0.3352 -0.2065
    1DIPC   D3A 7483   8.053  12.203   4.081 -0.1145  0.0356  0.0376
    1DIPC   C4A 7484   8.260  11.860   4.074  0.1365 -0.0833 -0.0774
    1DIPC   C1B 7485   8.940  12.287   5.104 -0.0293  0.1700  0.0273
    1DIPC   D2B 7486   9.393  12.378   4.895 -0.0430 -0.0772  0.2982
    1DIPC   D3B 7487   9.499  12.297   4.426  0.1793  0.0105 -0.2302
    1DIPC   C4B 7488   9.482  12.574   4.128 -0.0700 -0.1841 -0.1192
    1DIPC   NC3 7489  24.075  28.257   6.836 -0.2639  0.0021 -0.1781
    1DIPC   PO4 7490  23.891  27.834   6.706 -0.0908 -0.0126  0.2455
    1DIPC   GL1 7491  23.675  28.016   6.476 -0.2873 -0.0873 -0.1383
    1DIPC   GL2 7492  23.689  28.392   6.522 -0.3177 -0.1200 -0.1130
    1DIPC   C1A 7493  23.315  27.827   6.248  0.3144  0.0096  0.3236
    1DIPC   D2A 7494  23.087  27.926   5.774  0.1149 -0.0797 -0.1279
    1DIPC   D3A 7495  23.323  28.233   5.558  0.2235 -0.0344 -0.1082
    1DIPC   C4A 7496  23.624  28.425   5.239  0.0444  0.0044 -0.0325
    1DIPC   C1B 7497  23.663  28.535   6.090 -0.0379 -0.0497 -0.1017
    1DIPC   D2B 7498  23.451  28.775   5.743  0.1894 -0.0763 -0.1607
    1DIPC   D3B 7499  23.212  28.743   5.343  0.1063 -0.1276 -0.1830
    1DIPC   C4B 7500  23.052  29.156   5.355 -0.3540 -0.0448 -0.2720
    1DIPC   NC3 7501  21.546  23.102   7.655  0.0563  0.3737 -0.5962
    1DIPC   PO4 7502  21.115  23.238   7.549  0.0946 -0.2271 -0.0716
    1DIPC   GL1 7503  21.318  23.438   7.216  0.2985  0.0582  0.0004
    1DIPC   GL2 7504  21.664  23.359   7.164  0.0509  0.1373 -0.1481
    1DIPC   C1A 7505  21.522  23.669   6.805  0.0473  0.0891 -0.2169
    1DIPC   D2A 7506  21.366  23.657   6.362  0.0864 -0.1154 -0.3502
    1DIPC   D3A 7507  21.466  23.241   6.197 -0.0205 -0.1063  0.0451
    1DIPC   C4A 7508  21.805  22.908   6.210  0.1208  0.0811  0.1742
    1DIPC   C1B 7509  22.093  23.397   6.931 -0.1212  0.0223 -0.0471
    1DIPC   D2B 7510  22.538  23.314   6.767 -0.1266  0.1324  0.1718
    1DIPC   D3B 7511  22.647  23.306   6.333  0.2131  0.3993  0.0782
    1DIPC   C4B 7512  23.059  23.356   6.061  0.2986 -0.1149  0.0451
    1DIPC   NC3 7513   9.960   1.740   5.945 -0.2420  0.0396 -0.0734
    1DIPC   PO4 7514  10.132   2.109   5.811 -0.0225 -0.1448 -0.3496
    1DIPC   GL1 7515  10.181   2.066   5.392 -0.2101  0.0088 -0.0169
    1DIPC   GL2 7516   9.896   2.153   5.314  0.1165 -0.1268  0.0204
    1DIPC   C1A 7517  10.247   2.298   4.976 -0.0102  0.0036 -0.0684
    1DIPC   D2A 7518  10.053   2.589   4.987  0.0294  0.3835  0.1780
    1DIPC   D3A 7519   9.702   2.505   4.771 -0.1487 -0.0306  0.1277
    1DIPC   C4A 7520   9.468   2.111   4.746  0.1295  0.0541  0.1853
    1DIPC   C1B 7521   9.885   1.898   4.916  0.1051 -0.0678  0.1958
    1DIPC   D2B 7522   9.706   1.895   4.379  0.0995  0.0353 -0.0057
    1DIPC   D3B 7523   9.784   1.776   3.981  0.0742  0.0037  0.2322
    1DIPC   C4B 7524   9.664   1.291   3.893  0.0288  0.0896 -0.1388
    1DIPC   NC3 7525   8.664   1.794   5.835 -0.0495 -0.0756  0.0925
    1DIPC   PO4 7526   8.279   1.976   5.848 -0.1538 -0.1294  0.0375
    1DIPC   GL1 7527   8.329   1.892   5.404 -0.0810  0.2019  0.2295
    1DIPC   GL2 7528   8.271   1.612   5.247  0.0304  0.0615 -0.1064
    1DIPC   C1A 7529   8.209   1.992   5.023  0.1363 -0.2674 -0.4303
    1DIPC   D2A 7530   8.176   2.003   4.539  0.0827  0.0175  0.3960
    1DIPC   D3A 7531   8.481   2.011   4.160  0.2016 -0.0694  0.0031
    1DIPC   C4A 7532   8.730   1.591   4.157 -0.0511 -0.2384  0.0232
    1DIPC   C1B 7533   7.860   1.677   5.107 -0.0961 -0.1360 -0.1000
    1DIPC   D2B 7534   7.724   1.957   4.809  0.0515  0.1066  0.4715
    1DIPC   D3B 7535   7.704   2.153   4.358  0.2076 -0.1867  0.1096
    1DIPC   C4B 7536   8.021   2.067   4.041  0.0820  0.5013 -0.1940
    1DIPC   NC3 7537  20.708  28.359   7.692  0.0917  0.0969  0.3115
    1DIPC   PO4 7538  20.461  28.069   7.444 -0.1109  0.1599 -0.0086
    1DIPC   GL1 7539  20.565  27.685   7.292 -0.0169 -0.0658  0.0884
    1DIPC   GL2 7540  20.864  27.940   7.132  0.2440 -0.4397 -0.0731
    1DIPC   C1A 7541  20.637  27.384   6.974  0.1266  0.2448  0.1348
    1DIPC   D2A 7542  20.926  27.362   6.623  0.1024 -0.0324 -0.0994
    1DIPC   D3A 7543  20.865  27.093   6.269  0.0340  0.0152  0.0795
    1DIPC   C4A 7544  21.258  26.980   5.979  0.0113  0.0561  0.0073
    1DIPC   C1B 7545  20.863  28.047   6.821  0.1098  0.3225  0.1983
    1DIPC   D2B 7546  20.886  28.064   6.313 -0.1638 -0.0671  0.1114
    1DIPC   D3B 7547  20.891  27.824   5.890 -0.0345 -0.1448  0.3578
    1DIPC   C4B 7548  21.215  27.896   5.583  0.2405 -0.2648  0.4356
    1DIPC   NC3 7549  19.723  20.686   7.565 -0.0228 -0.1692 -0.1141
    1DIPC   PO4 7550  19.686  20.684   7.145 -0.3115  0.2457  0.4016
    1DIPC   GL1 7551  19.856  21.026   6.894 -0.3603 -0.0828  0.1332
    1DIPC   GL2 7552  19.778  21.256   6.918 -0.3049 -0.0107 -0.0757
    1DIPC   C1A 7553  20.132  21.151   6.543 -0.1901  0.2830  0.0186
    1DIPC   D2A 7554  20.442  21.480   6.536 -0.1000  0.1550  0.0171
    1DIPC   D3A 7555  20.404  21.311   6.052 -0.0721  0.1153  0.2305
    1DIPC   C4A 7556  20.656  21.364   5.613  0.2198  0.0948  0.1971
    1DIPC   C1B 7557  20.127  21.508   6.941 -0.0474  0.1433  0.2146
    1DIPC   D2B 7558  20.353  21.927   6.865 -0.3126 -0.2454 -0.1203
    1DIPC   D3B 7559  20.480  22.396   6.787  0.0094  0.0237  0.3095
    1DIPC   C4B 7560  20.467  22.513   6.360 -0.2299 -0.1670  0.0241
    1DIPC   NC3 7561  19.010  20.627   7.738 -0.2900  0.1410  0.3483
    1DIPC   PO4 7562  19.212  20.858   7.335  0.3570  0.1760  0.2571
    1DIPC   GL1 7563  19.354  20.986   6.927 -0.1421 -0.2587 -0.2414
    1DIPC   GL2 7564  19.499  20.778   6.663  0.1356  0.0930 -0.1347
    1DIPC   C1A 7565  19.349  21.290   6.705  0.0693  0.0783 -0.1791
    1DIPC   D2A 7566  18.917  21.380   6.627 -0.0559 -0.3524  0.0437
    1DIPC   D3A 7567  18.847  21.588   6.172  0.0497  0.0574 -0.4428
    1DIPC   C4A 7568  19.177  21.963   6.098 -0.1388  0.0472 -0.0398
    1DIPC   C1B 7569  19.609  21.020   6.352  0.0210 -0.0931  0.3217
    1DIPC   D2B 7570  19.505  21.148   5.964  0.1194 -0.1142 -0.1365
    1DIPC   D3B 7571  19.636  21.009   5.496  0.0369  0.1778 -0.1047
    1DIPC   C4B 7572  19.882  21.036   5.169  0.1668  0.3238 -0.2634
    1DIPC   NC3 7573  12.563   1.130   6.404  0.0791  0.2226 -0.0055
    1DIPC   PO4 7574  12.956   1.251   6.275 -0.1479  0.0677  0.0283
    1DIPC   GL1 7575  12.960   1.023   5.857 -0.0720 -0.1485  0.0364
    1DIPC   GL2 7576  12.981   0.722   5.753 -0.3801  0.2406  0.0685
    1DIPC   C1A 7577  13.150   1.322   5.514  0.1073 -0.0252  0.2798
    1DIPC   D2A 7578  13.258   1.748   5.501 -0.1608 -0.0376 -0.0244
    1DIPC   D3A 7579  13.590   1.665   5.415  0.1589  0.1475 -0.0508
    1DIPC   C4A 7580  13.804   2.012   5.195  0.1079 -0.1108 -0.1911
    1DIPC   C1B 7581  13.271   0.410   5.505  0.0995  0.1592 -0.1505
    1DIPC   D2B 7582  13.486   0.003   5.162  0.0562 -0.1859  0.3324
    1DIPC   D3B 7583  13.718  29.500   4.839 -0.3867  0.2605 -0.0928
    1DIPC   C4B 7584  13.907  29.142   4.893  0.1362  0.1646  0.0761
    1DIPC   NC3 7585   1.234  24.657   6.966  0.2940  0.5698 -0.2259
    1DIPC   PO4 7586   1.262  25.027   6.644  0.0813 -0.1486  0.0376
    1DIPC   GL1 7587   1.407  25.183   6.231 -0.0050  0.1073 -0.1553
    1DIPC   GL2 7588   1.646  25.413   6.078  0.0371 -0.0464  0.0779
    1DIPC   C1A 7589   1.256  25.294   5.772 -0.2760 -0.1199 -0.3266
    1DIPC   D2A 7590   0.999  25.125   5.381 -0.0862  0.0566 -0.5683
    1DIPC   D3A 7591   1.107  24.789   5.100  0.1005  0.0217 -0.0047
    1DIPC   C4A 7592   1.291  24.378   5.332  0.3161  0.0254  0.3223
    1DIPC   C1B 7593   1.550  25.798   5.848 -0.3542 -0.3190  0.2057
    1DIPC   D2B 7594   1.544  25.816   5.456 -0.1069  0.1332  0.3164
    1DIPC   D3B 7595   1.309  25.567   5.315 -0.1861 -0.2152 -0.0735
    1DIPC   C4B 7596   0.794  25.529   5.508 -0.0573  0.1177  0.2021
    1DIPC   NC3 7597  25.067  20.848   7.146 -0.0901  0.1277  0.0182
    1DIPC   PO4 7598  25.569  20.865   7.259 -0.3133 -0.3118 -0.0456
    1DIPC   GL1 7599  25.546  20.688   6.844  0.1576  0.2259  0.1081
    1DIPC   GL2 7600  25.212  20.683   6.755  0.0326 -0.0768  0.1362
    1DIPC   C1A 7601  25.770  20.632   6.438  0.1530  0.1103  0.0436
    1DIPC   D2A 7602  25.596  20.399   6.164 -0.1111 -0.0485  0.0505
    1DIPC   D3A 7603  25.904  20.557   5.835 -0.0086 -0.1032  0.1575
    1DIPC   C4A 7604  26.199  20.431   5.585  0.1980  0.0735 -0.0161
    1DIPC   C1B 7605  25.354  20.823   6.356  0.0110 -0.1311 -0.0168
    1DIPC   D2B 7606  25.493  20.850   5.907 -0.0177  0.0471 -0.0440
    1DIPC   D3B 7607  25.281  20.884   5.537  0.0168  0.0179  0.1298
    1DIPC   C4B 7608  25.622  20.966   5.159  0.1587 -0.1555 -0.1521
    1DIPC   NC3 7609   3.656   4.233   7.062  0.1449  0.1654  0.0460
    1DIPC   PO4 7610   3.664   4.127   6.488  0.1049  0.0485  0.2321
    1DIPC   GL1 7611   3.851   3.944   6.114  0.0958 -0.1489  0.0715
    1DIPC   GL2 7612   3.716   3.574   5.979 -0.3413  0.0512  0.0892
    1DIPC   C1A 7613   4.136   3.770   5.773  0.3620 -0.0851 -0.4096
    1DIPC   D2A 7614   4.388   3.396   5.617  0.0157  0.0596  0.1031
    1DIPC   D3A 7615   4.720   3.066   5.445 -0.0722 -0.4304  0.1596
    1DIPC   C4A 7616   4.661   2.725   5.158 -0.0113  0.1890 -0.1546
    1DIPC   C1B 7617   3.545   3.856   5.717  0.1023 -0.1067  0.2256
    1DIPC   D2B 7618   3.302   4.145   5.597 -0.3652  0.0162  0.0696
    1DIPC   D3B 7619   2.842   4.118   5.401  0.3810 -0.4410 -0.0295
    1DIPC   C4B 7620   2.429   4.238   5.625 -0.3018 -0.2629  0.0548
    1DIPC   NC3 7621   4.382   4.642   6.167 -0.1296  0.2116 -0.0231
    1DIPC   PO4 7622   3.996   4.479   6.159 -0.0654  0.0631  0.1320
    1DIPC   GL1 7623   4.209   4.347   5.828  0.2164  0.1307 -0.0663
    1DIPC   GL2 7624   4.503   4.233   5.807 -0.1055  0.2809  0.3750
    1DIPC   C1A 7625   4.264   4.427   5.358  0.0831  0.3556 -0.0164
    1DIPC   D2A 7626   4.205   4.576   4.943  0.0941 -0.0111 -0.4251
    1DIPC   D3A 7627   4.465   5.009   4.887 -0.1237  0.0578  0.1273
    1DIPC   C4A 7628   4.613   5.211   5.184  0.1330  0.0276  0.1994
    1DIPC   C1B 7629   4.469   4.012   5.479 -0.1242 -0.1241 -0.0138
    1DIPC   D2B 7630   4.210   3.773   5.281  0.2545 -0.0356 -0.0944
    1DIPC   D3B 7631   4.067   3.463   4.981 -0.4635  0.0834 -0.1420
    1DIPC   C4B 7632   3.855   3.176   4.681 -0.4937  0.0590 -0.1145
    1DIPC   NC3 7633  23.117  25.900   7.419 -0.0827 -0.0650 -0.0739
    1DIPC   PO4 7634  23.410  26.239   7.312 -0.2142  0.0761  0.1917
    1DIPC   GL1 7635  23.404  26.054   6.984  0.3371  0.0007 -0.2132
    1DIPC   GL2 7636  23.093  25.959   6.938  0.1099  0.1409 -0.1452
    1DIPC   C1A 7637  23.470  25.702   6.768 -0.3035  0.1149 -0.0721
    1DIPC   D2A 7638  23.274  25.319   6.662 -0.0379 -0.0300 -0.0633
    1DIPC   D3A 7639  23.001  24.967   6.599  0.1237 -0.1505 -0.2233
    1DIPC   C4A 7640  23.164  24.553   6.549  0.1374 -0.2495  0.1124
    1DIPC   C1B 7641  23.053  26.096   6.525 -0.1194 -0.1101 -0.1372
    1DIPC   D2B 7642  22.910  26.127   6.137  0.0091 -0.0604  0.1787
    1DIPC   D3B 7643  23.214  26.020   5.859  0.1321  0.1012  0.0883
    1DIPC   C4B 7644  23.201  25.628   5.786 -0.2774  0.1510  0.4112
    1DIPC   NC3 7645  11.198   2.990   6.938 -0.2748 -0.0981  0.1843
    1DIPC   PO4 7646  11.136   2.586   6.644 -0.3124  0.1799  0.0927
    1DIPC   GL1 7647  11.355   2.524   6.202 -0.1361 -0.0682 -0.1335
    1DIPC   GL2 7648  11.162   2.275   6.148  0.3618 -0.0794  0.0568
    1DIPC   C1A 7649  11.192   2.679   5.785  0.0144 -0.0392 -0.2576
    1DIPC   D2A 7650  10.978   3.094   5.742  0.0857  0.0230 -0.0713
    1DIPC   D3A 7651  10.872   3.078   5.247 -0.0152  0.1395 -0.0932
    1DIPC   C4A 7652  11.243   2.980   5.157  0.3439 -0.0355  0.2944
    1DIPC   C1B 7653  11.092   2.234   5.715 -0.1104  0.0498  0.2974
    1DIPC   D2B 7654  11.077   2.398   5.307  0.0672 -0.1671  0.0171
    1DIPC   D3B 7655  11.191   2.204   4.891  0.0917 -0.1346 -0.1518
    1DIPC   C4B 7656  11.348   1.941   5.220  0.0593 -0.1134  0.0418
    1DIPC   NC3 7657  26.304  24.014   7.895 -0.3175  0.2473 -0.0150
    1DIPC   PO4 7658  25.961  23.954   7.651  0.1157  0.3924  0.2311
    1DIPC   GL1 7659  25.812  23.874   7.255  0.1053 -0.1623  0.2094
    1DIPC   GL2 7660  25.778  23.467   7.028 -0.3850 -0.0307  0.2089
    1DIPC   C1A 7661  25.430  23.933   7.079  0.0211 -0.0089 -0.2965
    1DIPC   D2A 7662  25.159  23.673   6.859 -0.0182 -0.0425  0.1085
    1DIPC   D3A 7663  24.926  24.049   6.780 -0.0605  0.1438 -0.0989
    1DIPC   C4A 7664  24.897  24.068   6.351  0.1856  0.0892 -0.2349
    1DIPC   C1B 7665  25.657  23.673   6.598 -0.0687  0.0971  0.2158
    1DIPC   D2B 7666  25.825  24.084   6.366  0.0183  0.0090  0.0747
    1DIPC   D3B 7667  25.763  24.063   5.871  0.0359  0.1546  0.1122
    1DIPC   C4B 7668  25.654  24.409   5.628 -0.1411  0.3171 -0.1255
    1DIPC   NC3 7669  22.749  25.200   7.830 -0.0687  0.1366 -0.1134
    1DIPC   PO4 7670  22.372  24.951   7.587 -0.1224  0.1564 -0.1048
    1DIPC   GL1 7671  22.423  24.737   7.133  0.5160  0.4045  0.0373
    1DIPC   GL2 7672  22.278  24.910   6.875 -0.3037 -0.3081  0.2935
    1DIPC   C1A 7673  22.587  24.591   6.691  0.1335  0.2213  0.0341
    1DIPC   D2A 7674  22.532  24.491   6.263  0.0449  0.2140 -0.3705
    1DIPC   D3A 7675  22.701  24.757   6.065 -0.0788 -0.0190  0.0993
    1DIPC   C4A 7676  23.057  24.783   6.065  0.0393  0.1180  0.0029
    1DIPC   C1B 7677  22.584  25.199   6.570  0.0035 -0.1344  0.0300
    1DIPC   D2B 7678  22.883  25.258   6.169  0.2371 -0.1082  0.0474
    1DIPC   D3B 7679  22.755  25.694   5.906  0.4739 -0.1642  0.1088
    1DIPC   C4B 7680  22.286  25.886   5.990  0.2485  0.1609 -0.1806
    1DIPC   NC3 7681  13.977  15.720   6.211 -0.0433  0.0538 -0.2734
    1DIPC   PO4 7682  14.333  15.515   6.174  0.4228  0.3578 -0.0279
    1DIPC   GL1 7683  14.256  15.202   5.834  0.2950 -0.3572  0.2300
    1DIPC   GL2 7684  14.637  15.033   5.754  0.2641  0.1095 -0.4044
    1DIPC   C1A 7685  14.291  15.192   5.447  0.2294 -0.0221 -0.0513
    1DIPC   D2A 7686  14.315  15.594   5.190 -0.3059 -0.0441  0.2620
    1DIPC   D3A 7687  14.245  15.199   4.924 -0.0375 -0.2000 -0.1741
    1DIPC   C4A 7688  14.585  14.923   5.134  0.1013 -0.0926  0.2111
    1DIPC   C1B 7689  14.567  14.604   5.556 -0.2228  0.2347  0.2238
    1DIPC   D2B 7690  14.507  14.240   5.332  0.1193 -0.1560  0.0189
    1DIPC   D3B 7691  14.357  14.478   4.939  0.4040 -0.0163 -0.1482
    1DIPC   C4B 7692  14.152  14.748   5.128  0.0081  0.2241 -0.0860
    1DIPC   NC3 7693   8.101  23.195   6.279 -0.0095 -0.2501  0.1162
    1DIPC   PO4 7694   8.051  22.745   6.542 -0.1371 -0.1818 -0.0068
    1DIPC   GL1 7695   7.901  22.683   6.119 -0.1655  0.0339 -0.1067
    1DIPC   GL2 7696   7.750  23.009   5.967  0.1582  0.1637  0.1996
    1DIPC   C1A 7697   7.984  22.579   5.667 -0.0283  0.1366  0.1657
    1DIPC   D2A 7698   7.827  22.815   5.230  0.0032  0.0985  0.0213
    1DIPC   D3A 7699   7.360  22.758   5.192  0.0574 -0.0704 -0.1496
    1DIPC   C4A 7700   7.268  22.336   4.991 -0.1315  0.1675 -0.0909
    1DIPC   C1B 7701   7.675  23.235   5.638 -0.0989 -0.0817 -0.2721
    1DIPC   D2B 7702   7.589  23.286   5.154  0.1818 -0.2611  0.0197
    1DIPC   D3B 7703   7.646  23.598   4.890  0.2917  0.1038  0.1220
    1DIPC   C4B 7704   7.399  23.570   4.513  0.1894 -0.3451 -0.4529
    1DIPC   NC3 7705  29.122  25.809   6.919  0.0216  0.0077  0.3836
    1DIPC   PO4 7706  28.854  26.209   6.597 -0.0829  0.0806 -0.1750
    1DIPC   GL1 7707  29.134  26.429   6.327 -0.1174 -0.0003  0.2830
    1DIPC   GL2 7708  29.121  26.677   6.300 -0.0708 -0.5117 -0.1553
    1DIPC   C1A 7709  29.297  26.222   5.969  0.0141  0.1051  0.2185
    1DIPC   D2A 7710  29.272  25.745   5.853  0.0542  0.0185 -0.1300
    1DIPC   D3A 7711  28.992  25.577   6.053  0.1934  0.2638  0.0889
    1DIPC   C4A 7712  28.930  25.206   6.183 -0.0946 -0.2816  0.0478
    1DIPC   C1B 7713  29.064  26.685   5.879  0.1985 -0.2279 -0.2269
    1DIPC   D2B 7714  29.086  26.893   5.557 -0.2526  0.1801  0.1379
    1DIPC   D3B 7715  29.076  26.601   5.155 -0.0316  0.2856  0.0945
    1DIPC   C4B 7716  28.720  26.273   5.032 -0.0407  0.1022  0.0154
    1DIPC   NC3 7717   5.615  23.182   7.526  0.0276 -0.0120 -0.3918
    1DIPC   PO4 7718   5.665  23.272   7.120  0.0617 -0.1217 -0.0977
    1DIPC   GL1 7719   5.477  23.054   6.757  0.0775  0.0275  0.2046
    1DIPC   GL2 7720   5.559  22.685   6.820  0.0495 -0.1647 -0.2261
    1DIPC   C1A 7721   5.051  23.057   6.675 -0.2419  0.0167 -0.0029
    1DIPC   D2A 7722   4.726  22.712   6.558  0.2431 -0.1795 -0.2246
    1DIPC   D3A 7723   4.627  22.361   6.706  0.0538 -0.1766 -0.2019
    1DIPC   C4A 7724   4.275  22.131   6.537 -0.1707  0.0120  0.4647
    1DIPC   C1B 7725   5.357  22.786   6.337 -0.1056 -0.0690 -0.0423
    1DIPC   D2B 7726   5.247  22.781   5.900 -0.0681  0.3023 -0.0148
    1DIPC   D3B 7727   4.959  23.023   5.631 -0.0093 -0.1690  0.0151
    1DIPC   C4B 7728   5.068  22.961   5.247 -0.2367  0.0408  0.0553
    1DIPC   NC3 7729   9.062  26.678   6.203 -0.0942  0.1612 -0.0003
    1DIPC   PO4 7730   8.662  26.729   6.051  0.1196 -0.2459 -0.4548
    1DIPC   GL1 7731   8.971  26.809   5.686  0.2465 -0.0996  0.3832
    1DIPC   GL2 7732   9.319  26.711   5.767 -0.0466 -0.1739 -0.1973
    1DIPC   C1A 7733   9.129  26.713   5.275 -0.0558  0.1008 -0.0524
    1DIPC   D2A 7734   9.027  26.568   4.829 -0.0669 -0.0348 -0.0278
    1DIPC   D3A 7735   8.834  26.562   4.384 -0.0821  0.2691  0.0238
    1DIPC   C4A 7736   8.888  26.164   4.151  0.0032  0.2974 -0.1437
    1DIPC   C1B 7737   9.595  26.878   5.416  0.3153  0.2455  0.0814
    1DIPC   D2B 7738   9.513  26.863   5.003  0.0578  0.4590 -0.1584
    1DIPC   D3B 7739   9.686  27.200   4.875 -0.0169  0.0380 -0.3251
    1DIPC   C4B 7740   9.366  27.528   4.749  0.2131 -0.1848  0.0433
    1DIPC   NC3 7741   3.619  23.798   7.251 -0.2351 -0.0648  0.2985
    1DIPC   PO4 7742   4.061  23.946   7.326  0.0123  0.0334 -0.1631
    1DIPC   GL1 7743   3.983  23.977   6.905 -0.0779  0.0936 -0.2203
    1DIPC   GL2 7744   3.697  23.919   6.716 -0.0730  0.1551 -0.1845
    1DIPC   C1A 7745   4.211  23.974   6.618  0.0824 -0.1193  0.4778
    1DIPC   D2A 7746   4.290  24.038   6.180  0.1045 -0.0017 -0.1292
    1DIPC   D3A 7747   4.054  24.516   6.211 -0.0566  0.2067  0.0802
    1DIPC   C4A 7748   3.789  24.628   5.937  0.0493 -0.0110  0.2550
    1DIPC   C1B 7749   3.791  23.652   6.321  0.0543 -0.0267 -0.1565
    1DIPC   D2B 7750   3.825  23.632   5.921 -0.2279  0.1171  0.0433
    1DIPC   D3B 7751   3.941  23.722   5.545 -0.0634  0.2596 -0.1442
    1DIPC   C4B 7752   4.093  23.294   5.432 -0.3281 -0.0153 -0.1234
    1DIPC   NC3 7753   3.032   7.973   5.432 -0.1456 -0.0664  0.2475
    1DIPC   PO4 7754   3.229   8.398   5.254  0.0077 -0.2111  0.4483
    1DIPC   GL1 7755   3.434   8.142   5.053 -0.0211  0.0936 -0.0440
    1DIPC   GL2 7756   3.301   7.970   4.972  0.0985  0.0607 -0.0542
    1DIPC   C1A 7757   3.651   8.203   4.659 -0.0802 -0.3371  0.3891
    1DIPC   D2A 7758   3.538   8.330   4.293  0.0534 -0.0095  0.1163
    1DIPC   D3A 7759   3.405   7.918   4.177  0.0844  0.0009 -0.3431
    1DIPC   C4A 7760   3.174   7.785   3.772  0.0240  0.3179  0.0875
    1DIPC   C1B 7761   3.517   7.756   4.602 -0.2374  0.0156  0.2695
    1DIPC   D2B 7762   3.733   7.453   4.347  0.3611  0.0713  0.1738
    1DIPC   D3B 7763   3.531   7.416   3.940 -0.1840 -0.1262  0.0723
    1DIPC   C4B 7764   3.586   7.563   3.571 -0.0659 -0.0514  0.1809
    1DIPC   NC3 7765  22.598  22.250   7.706 -0.0683 -0.0199  0.0873
    1DIPC   PO4 7766  22.915  22.317   7.439  0.1614  0.0786 -0.1659
    1DIPC   GL1 7767  22.722  22.388   7.112 -0.0488 -0.0566  0.2842
    1DIPC   GL2 7768  22.761  22.389   6.783 -0.0221  0.1623 -0.0274
    1DIPC   C1A 7769  22.231  22.461   6.903 -0.1878 -0.2568 -0.0713
    1DIPC   D2A 7770  22.138  22.455   6.568  0.4622 -0.2955  0.1421
    1DIPC   D3A 7771  21.790  22.758   6.711 -0.0358  0.0529 -0.0398
    1DIPC   C4A 7772  22.016  22.933   7.009  0.0363 -0.2065  0.1625
    1DIPC   C1B 7773  22.499  22.791   6.600 -0.0223 -0.0691 -0.1006
    1DIPC   D2B 7774  22.192  23.092   6.459 -0.0940 -0.0611  0.0299
    1DIPC   D3B 7775  22.180  23.310   5.980 -0.4823  0.1539  0.2075
    1DIPC   C4B 7776  22.100  23.198   5.653 -0.1929  0.1591  0.2442
    1DIPC   NC3 7777  11.271  21.089   6.124 -0.1686 -0.1408 -0.0166
    1DIPC   PO4 7778  11.178  21.460   6.045 -0.1315 -0.3978  0.2580
    1DIPC   GL1 7779  10.853  21.312   5.799  0.1575  0.0207 -0.0337
    1DIPC   GL2 7780  10.615  21.625   5.545  0.0959  0.1083 -0.1348
    1DIPC   C1A 7781  10.357  21.303   5.833 -0.0226 -0.0239  0.1423
    1DIPC   D2A 7782  10.078  21.198   5.586  0.2427 -0.0013 -0.0253
    1DIPC   D3A 7783  10.378  21.209   5.353 -0.0732  0.0767 -0.1789
    1DIPC   C4A 7784  10.609  21.009   5.009 -0.0309  0.1220  0.0937
    1DIPC   C1B 7785  10.481  21.599   5.059  0.1194 -0.1605  0.0094
    1DIPC   D2B 7786  10.197  21.378   4.875 -0.1393  0.1849 -0.2057
    1DIPC   D3B 7787  10.423  21.134   4.597 -0.0184 -0.1131  0.0252
    1DIPC   C4B 7788  10.905  21.036   4.449 -0.0802  0.2402  0.2974
    1DIPC   NC3 7789  18.173  19.276   6.588  0.0175  0.0622 -0.0173
    1DIPC   PO4 7790  18.492  19.604   6.674 -0.2522 -0.4229 -0.0390
    1DIPC   GL1 7791  18.695  19.272   6.297  0.0633  0.1179 -0.1947
    1DIPC   GL2 7792  18.761  18.957   6.154 -0.1782  0.0860  0.0555
    1DIPC   C1A 7793  19.000  19.385   5.937 -0.1457 -0.0631  0.2023
    1DIPC   D2A 7794  19.389  19.371   5.697 -0.0452 -0.1495 -0.0940
    1DIPC   D3A 7795  19.144  19.403   5.347  0.3104  0.1454 -0.4348
    1DIPC   C4A 7796  18.777  19.374   5.509 -0.1379 -0.0778  0.0725
    1DIPC   C1B 7797  19.175  19.007   6.267 -0.3673  0.2245  0.0216
    1DIPC   D2B 7798  19.497  19.241   6.178  0.2116  0.0439 -0.1305
    1DIPC   D3B 7799  19.781  18.960   5.849 -0.0550  0.0948 -0.2363
    1DIPC   C4B 7800  20.135  18.716   5.790  0.0935  0.2351 -0.0301
    1DIPC   NC3 7801   0.422  25.271   6.875 -0.2685 -0.1766  0.2290
    1DIPC   PO4 7802   0.027  25.567   6.759  0.0367  0.2513  0.0485
    1DIPC   GL1 7803   0.076  25.695   6.305 -0.0427 -0.3159 -0.2204
    1DIPC   GL2 7804   0.360  25.458   6.253 -0.0842 -0.0039 -0.3543
    1DIPC   C1A 7805   0.126  25.856   5.937  0.0399  0.2328 -0.1368
    1DIPC   D2A 7806   0.086  26.169   5.625 -0.2261  0.0114 -0.0577
    1DIPC   D3A 7807  29.575  26.294   5.235 -0.0728  0.4413 -0.0581
    1DIPC   C4A 7808   0.104  25.933   4.920  0.0297 -0.0579 -0.0977
    1DIPC   C1B 7809   0.256  25.416   5.748 -0.2084  0.1282  0.1433
    1DIPC   D2B 7810  29.615  25.176   5.429 -0.0560  0.1803  0.0284
    1DIPC   D3B 7811  29.561  25.407   4.962  0.1608 -0.3282  0.0441
    1DIPC   C4B 7812  29.211  25.122   4.752  0.1309 -0.0741  0.0215
    1DIPC   NC3 7813  29.141  24.183   6.940  0.3376  0.0514  0.0550
    1DIPC   PO4 7814  29.300  24.561   6.887 -0.4039 -0.2594 -0.0720
    1DIPC   GL1 7815  29.282  24.392   6.480 -0.0984  0.2546  0.0394
    1DIPC   GL2 7816  29.156  24.139   6.442 -0.0010  0.1521  0.0923
    1DIPC   C1A 7817  29.197  24.497   6.019 -0.1254 -0.1023  0.0005
    1DIPC   D2A 7818  29.139  24.262   5.623 -0.1355  0.0764  0.0769
    1DIPC   D3A 7819  29.511  24.204   5.342  0.0415  0.0141  0.1543
    1DIPC   C4A 7820  29.569  24.378   4.945  0.1209 -0.3928  0.0504
    1DIPC   C1B 7821  29.374  24.018   6.089 -0.1319  0.0417  0.3100
    1DIPC   D2B 7822  29.441  23.845   5.679 -0.1520  0.2424  0.0145
    1DIPC   D3B 7823  29.149  23.783   5.348  0.1674 -0.0592  0.0340
    1DIPC   C4B 7824  28.847  23.571   5.368 -0.1255 -0.0132 -0.0660
    1DIPC   NC3 7825  14.883   1.279   6.228 -0.0984 -0.1156  0.1783
    1DIPC   PO4 7826  15.048   0.864   6.265  0.2332  0.0403 -0.1675
    1DIPC   GL1 7827  15.247   0.820   5.929 -0.2151 -0.0232 -0.1654
    1DIPC   GL2 7828  15.177   1.062   5.742  0.0952 -0.0558  0.1484
    1DIPC   C1A 7829  15.529   0.670   5.590 -0.1871  0.0255 -0.1295
    1DIPC   D2A 7830  15.672   0.828   5.258 -0.0745  0.3214 -0.2970
    1DIPC   D3A 7831  16.030   0.983   5.265  0.0770  0.1809  0.0456
    1DIPC   C4A 7832  16.072   1.138   4.941 -0.0179 -0.1733  0.2954
    1DIPC   C1B 7833  14.816   1.215   5.503 -0.0023  0.1487  0.0958
    1DIPC   D2B 7834  14.603   1.505   5.281  0.0495 -0.0194 -0.2500
    1DIPC   D3B 7835  14.485   1.619   5.702  0.0078  0.0106  0.0565
    1DIPC   C4B 7836  14.001   1.665   5.784 -0.1324  0.1427  0.0275
    1DIPC   NC3 7837   1.848  11.511   6.202 -0.2357  0.1214  0.0814
    1DIPC   PO4 7838   2.200  11.735   6.088  0.0535  0.3322 -0.3173
    1DIPC   GL1 7839   2.137  11.549   5.760  0.0410  0.0709  0.1386
    1DIPC   GL2 7840   1.866  11.386   5.689  0.0517  0.0295  0.1453
    1DIPC   C1A 7841   2.292  11.613   5.380 -0.0908 -0.0333 -0.5110
    1DIPC   D2A 7842   2.312  11.817   5.048  0.0698  0.1949  0.3703
    1DIPC   D3A 7843   2.708  12.035   4.896  0.0379  0.0696 -0.0990
    1DIPC   C4A 7844   2.846  12.463   4.765  0.0038  0.1410 -0.0873
    1DIPC   C1B 7845   1.850  11.406   5.337 -0.1350  0.1502  0.1930
    1DIPC   D2B 7846   1.943  11.415   4.932 -0.2367 -0.0055 -0.0977
    1DIPC   D3B 7847   2.032  11.762   4.539  0.1107  0.3133 -0.1357
    1DIPC   C4B 7848   2.403  11.602   4.368  0.0736 -0.2835 -0.4396
    1DIPC   NC3 7849   0.639  15.122   7.438 -0.1241  0.2661 -0.2821
    1DIPC   PO4 7850   0.931  15.202   7.063 -0.1325 -0.1369  0.1748
    1DIPC   GL1 7851   0.764  15.493   6.707 -0.1736 -0.2012  0.0812
    1DIPC   GL2 7852   0.979  15.331   6.623  0.0621 -0.0271  0.1566
    1DIPC   C1A 7853   0.460  15.653   6.509 -0.0092  0.0551  0.0475
    1DIPC   D2A 7854   0.068  15.630   6.292  0.1006 -0.3681  0.1167
    1DIPC   D3A 7855   0.289  15.853   5.972 -0.1414  0.2609 -0.1578
    1DIPC   C4A 7856   0.420  15.650   5.580  0.1847  0.0101  0.0059
    1DIPC   C1B 7857   1.328  15.333   6.299 -0.0934 -0.4054 -0.1675
    1DIPC   D2B 7858   1.252  15.543   5.820  0.0368  0.2347 -0.0909
    1DIPC   D3B 7859   0.903  15.823   5.510  0.2524 -0.4648  0.2281
    1DIPC   C4B 7860   0.980  16.211   5.382  0.0146  0.0395  0.0315
    1DIPC   NC3 7861   6.923  19.073   6.844 -0.3897  0.0468 -0.1986
    1DIPC   PO4 7862   7.189  18.771   6.535 -0.1436 -0.0816  0.2025
    1DIPC   GL1 7863   7.142  18.792   6.086  0.0289  0.1653  0.1752
    1DIPC   GL2 7864   7.381  18.858   5.770  0.0552  0.3561 -0.0720
    1DIPC   C1A 7865   6.994  18.475   5.668  0.1353  0.3015  0.0718
    1DIPC   D2A 7866   6.925  18.478   5.213 -0.0675  0.1364 -0.1592
    1DIPC   D3A 7867   6.672  18.836   5.258  0.6640  0.0668 -0.1026
    1DIPC   C4A 7868   6.288  18.950   5.316 -0.1408  0.2967  0.0270
    1DIPC   C1B 7869   7.200  19.028   5.343 -0.2175 -0.0297 -0.3289
    1DIPC   D2B 7870   6.947  19.503   5.097 -0.3087 -0.0236  0.0768
    1DIPC   D3B 7871   6.717  19.803   5.339 -0.0971 -0.2014  0.0956
    1DIPC   C4B 7872   6.879  20.163   5.245 -0.0568  0.0002 -0.0832
    1DIPC   NC3 7873  11.486   4.632   6.043 -0.1297 -0.0220 -0.2854
    1DIPC   PO4 7874  11.075   4.806   5.967  0.2250  0.1750  0.0361
    1DIPC   GL1 7875  10.955   4.761   5.513  0.0159  0.1655 -0.0371
    1DIPC   GL2 7876  11.202   4.741   5.244  0.1676  0.2484  0.1359
    1DIPC   C1A 7877  10.858   5.064   5.183 -0.2168  0.0268  0.0039
    1DIPC   D2A 7878  10.938   5.213   4.744 -0.0164 -0.0233  0.1308
    1DIPC   D3A 7879  10.998   5.591   4.680  0.1832 -0.0257  0.2000
    1DIPC   C4A 7880  10.878   5.708   4.239  0.1114 -0.5985 -0.0131
    1DIPC   C1B 7881  11.360   4.618   4.742  0.0062 -0.0690  0.2992
    1DIPC   D2B 7882  11.166   4.350   4.558  0.2447  0.1541  0.1496
    1DIPC   D3B 7883  11.560   4.152   4.784  0.0857 -0.1631  0.1973
    1DIPC   C4B 7884  11.593   4.409   5.143  0.2476  0.0741  0.1298
    1DIPC   NC3 7885  29.274   2.380   7.130  0.1410 -0.0380  0.4144
    1DIPC   PO4 7886  29.141   2.427   6.671  0.0097 -0.0898 -0.1022
    1DIPC   GL1 7887  29.040   2.507   6.245  0.4060  0.1195  0.0539
    1DIPC   GL2 7888  28.788   2.338   6.032 -0.1007 -0.0792  0.0297
    1DIPC   C1A 7889  29.251   2.347   5.843 -0.0054  0.0995  0.0758
    1DIPC   D2A 7890  29.580   1.993   5.619  0.0699  0.0219  0.1243
    1DIPC   D3A 7891  29.243   1.724   5.461 -0.2239  0.1388  0.3168
    1DIPC   C4A 7892  29.404   1.760   5.019 -0.0249 -0.2900  0.0233
    1DIPC   C1B 7893  28.630   2.496   5.733  0.1987 -0.0715  0.2880
    1DIPC   D2B 7894  28.586   2.920   5.505 -0.3459 -0.4775 -0.2024
    1DIPC   D3B 7895  28.596   2.846   5.102 -0.3136  0.2993  0.2089
    1DIPC   C4B 7896  28.416   2.815   4.740 -0.0537  0.0613 -0.0640
    1DIPC   NC3 7897  19.322  25.183   7.795  0.2335  0.1001 -0.1172
    1DIPC   PO4 7898  19.094  25.469   7.585  0.3251 -0.2579 -0.1016
    1DIPC   GL1 7899  19.268  25.320   7.303 -0.2694  0.1156 -0.0775
    1DIPC   GL2 7900  19.644  25.497   7.263 -0.2124 -0.3393 -0.2416
    1DIPC   C1A 7901  19.417  25.069   7.016  0.1986  0.0868 -0.3002
    1DIPC   D2A 7902  19.439  24.863   6.616 -0.0587 -0.2999 -0.0090
    1DIPC   D3A 7903  19.294  25.042   6.211  0.3470  0.4246  0.1681
    1DIPC   C4A 7904  19.229  24.832   5.947 -0.1453 -0.1777 -0.2614
    1DIPC   C1B 7905  19.524  25.756   6.993  0.1565 -0.1196 -0.0533
    1DIPC   D2B 7906  19.664  25.778   6.584 -0.1489 -0.0882  0.1921
    1DIPC   D3B 7907  19.487  25.364   6.585 -0.1018 -0.0861  0.1837
    1DIPC   C4B 7908  19.088  25.197   6.694 -0.0476 -0.3158  0.0292
    1DIPC   NC3 7909   7.563  26.129   6.545 -0.0630  0.0987 -0.0624
    1DIPC   PO4 7910   7.241  25.750   6.505  0.0953  0.2604 -0.0120
    1DIPC   GL1 7911   7.444  25.899   6.134  0.2194  0.0982  0.0872
    1DIPC   GL2 7912   7.383  25.715   5.925  0.3109 -0.0201 -0.1907
    1DIPC   C1A 7913   7.782  25.885   5.749 -0.1487 -0.1841  0.1565
    1DIPC   D2A 7914   7.750  26.094   5.364  0.3625 -0.0334  0.2190
    1DIPC   D3A 7915   8.112  26.203   5.148  0.0269  0.0001 -0.1473
    1DIPC   C4A 7916   8.365  26.491   4.896  0.4845 -0.0412  0.2964
    1DIPC   C1B 7917   7.286  25.779   5.550 -0.0688 -0.1114 -0.0187
    1DIPC   D2B 7918   7.025  25.571   5.158  0.1088 -0.1312 -0.1588
    1DIPC   D3B 7919   6.726  25.812   5.031  0.1676  0.1657 -0.0980
    1DIPC   C4B 7920   6.728  25.976   4.593  0.2201 -0.0797 -0.0436
    1DIPC   NC3 7921  21.435   2.381   7.459  0.1097 -0.2320  0.0665
    1DIPC   PO4 7922  21.402   2.342   6.900 -0.0462 -0.1259 -0.1737
    1DIPC   GL1 7923  21.248   2.212   6.499 -0.0258 -0.0651  0.2169
    1DIPC   GL2 7924  20.977   2.013   6.368 -0.0820  0.2167  0.1333
    1DIPC   C1A 7925  21.009   2.435   6.064 -0.2908  0.1311  0.1381
    1DIPC   D2A 7926  20.990   2.731   5.796  0.0446 -0.2897 -0.1366
    1DIPC   D3A 7927  20.957   3.101   5.614 -0.4034 -0.4021 -0.4119
    1DIPC   C4A 7928  20.684   3.472   5.521  0.2732  0.0037 -0.5515
    1DIPC   C1B 7929  20.676   2.444   6.436  0.4219  0.0744  0.0259
    1DIPC   D2B 7930  20.271   2.527   6.670 -0.2386 -0.0821  0.1282
    1DIPC   D3B 7931  20.129   2.202   6.515  0.2635 -0.0531 -0.2632
    1DIPC   C4B 7932  20.267   2.268   6.120  0.0006 -0.1793  0.1015
    1DIPC   NC3 7933  18.912   0.538   7.492 -0.2156 -0.0965 -0.0212
    1DIPC   PO4 7934  19.104   0.778   7.178  0.0393 -0.2754 -0.2714
    1DIPC   GL1 7935  19.234   0.473   6.736  0.0826 -0.0527  0.1593
    1DIPC   GL2 7936  19.078   0.228   6.928  0.0477  0.3046  0.0523
    1DIPC   C1A 7937  19.109   0.345   6.415  0.2811  0.1012  0.1230
    1DIPC   D2A 7938  19.081   0.262   5.953  0.4201  0.0577 -0.0427
    1DIPC   D3A 7939  19.157   0.601   5.551 -0.0890 -0.3083 -0.0230
    1DIPC   C4A 7940  19.174   0.991   5.658 -0.1479 -0.4095  0.1197
    1DIPC   C1B 7941  19.433  29.612   6.712  0.0680 -0.1338  0.0086
    1DIPC   D2B 7942  19.589   0.069   6.377 -0.2030  0.3289 -0.1044
    1DIPC   D3B 7943  19.623   0.019   5.929  0.0460  0.1281 -0.1039
    1DIPC   C4B 7944  19.313   0.119   5.563 -0.0481 -0.1213 -0.1750
    1DIPC   NC3 7945   7.368  15.241   6.299  0.2201 -0.0742  0.1021
    1DIPC   PO4 7946   7.651  15.348   5.958 -0.2260 -0.4750  0.5015
    1DIPC   GL1 7947   7.771  15.347   5.455  0.0661 -0.1952 -0.1243
    1DIPC   GL2 7948   8.144  15.433   5.467 -0.0088 -0.0031 -0.0090
    1DIPC   C1A 7949   7.652  15.275   4.996 -0.0604 -0.0229  0.1785
    1DIPC   D2A 7950   7.750  15.406   4.675  0.2929 -0.0081  0.1204
    1DIPC   D3A 7951   7.845  15.792   4.664  0.1375 -0.0913  0.2544
    1DIPC   C4A 7952   8.261  15.997   4.798 -0.0957 -0.0325  0.1635
    1DIPC   C1B 7953   8.187  15.489   5.015  0.0555 -0.0399  0.2786
    1DIPC   D2B 7954   8.517  15.306   4.622  0.2457 -0.4857 -0.4214
    1DIPC   D3B 7955   8.541  15.742   4.504 -0.2880  0.2967 -0.2335
    1DIPC   C4B 7956   8.345  16.029   4.185 -0.2231  0.1321 -0.1861
    1DIPC   NC3 7957  11.021  11.812   5.765  0.2079  0.0277 -0.1701
    1DIPC   PO4 7958  11.465  11.718   5.947  0.0981 -0.0932 -0.1340
    1DIPC   GL1 7959  11.478  11.765   5.502  0.0720 -0.0039  0.0386
    1DIPC   GL2 7960  11.376  12.023   5.419 -0.2217 -0.0360  0.0655
    1DIPC   C1A 7961  11.391  11.566   5.121  0.0670  0.0482  0.1247
    1DIPC   D2A 7962  11.532  11.501   4.661  0.0664 -0.3804  0.1309
    1DIPC   D3A 7963  11.625  11.441   4.243  0.4222  0.1106 -0.1925
    1DIPC   C4A 7964  11.637  11.101   4.225  0.5313 -0.4512 -0.0630
    1DIPC   C1B 7965  11.372  12.104   5.054 -0.2060 -0.0688 -0.2717
    1DIPC   D2B 7966  11.560  12.073   4.683  0.4669  0.1783  0.0662
    1DIPC   D3B 7967  11.189  12.278   4.531  0.0020  0.2594  0.4016
    1DIPC   C4B 7968  10.801  12.233   4.787 -0.1760  0.1561 -0.2939
    1DIPC   NC3 7969  13.534   2.837   6.369 -0.0721 -0.0394  0.0553
    1DIPC   PO4 7970  13.260   2.966   6.165  0.1349 -0.0901 -0.1033
    1DIPC   GL1 7971  13.526   2.672   5.848 -0.1464  0.1657  0.0285
    1DIPC   GL2 7972  13.591   2.350   6.058  0.2575 -0.0071  0.2048
    1DIPC   C1A 7973  13.353   2.388   5.555 -0.1286  0.0125 -0.2368
    1DIPC   D2A 7974  13.043   2.168   5.380 -0.1329 -0.0762 -0.1606
    1DIPC   D3A 7975  13.233   1.961   5.033  0.0632 -0.1650 -0.2443
    1DIPC   C4A 7976  12.996   1.551   4.973  0.0455  0.0651 -0.1094
    1DIPC   C1B 7977  13.967   2.430   5.920  0.1681 -0.1027  0.1359
    1DIPC   D2B 7978  14.224   2.643   5.691  0.0584  0.6356  0.2072
    1DIPC   D3B 7979  14.013   3.013   5.624 -0.4320 -0.0948  0.1534
    1DIPC   C4B 7980  13.660   3.042   5.501 -0.1248  0.2080  0.2757
    1DIPC   NC3 7981  12.212  24.223   6.986 -0.2010  0.1509  0.0600
    1DIPC   PO4 7982  12.432  24.481   6.652 -0.1097  0.0296  0.0774
    1DIPC   GL1 7983  12.274  24.610   6.179 -0.1002 -0.2576 -0.3057
    1DIPC   GL2 7984  11.989  24.596   6.194 -0.1159  0.1936 -0.1885
    1DIPC   C1A 7985  12.453  24.583   5.777  0.0220  0.0765  0.1515
    1DIPC   D2A 7986  12.642  24.412   5.373 -0.1020  0.2134  0.0241
    1DIPC   D3A 7987  12.465  24.305   5.086  0.3829  0.1019  0.0527
    1DIPC   C4A 7988  12.242  24.455   4.841  0.3331 -0.2039 -0.1465
    1DIPC   C1B 7989  11.796  24.236   6.067 -0.1332 -0.0532  0.1137
    1DIPC   D2B 7990  11.628  24.024   5.642  0.1018  0.0585 -0.1690
    1DIPC   D3B 7991  11.485  24.467   5.444  0.1163  0.1085 -0.0428
    1DIPC   C4B 7992  11.235  24.332   5.099  0.1018 -0.2291 -0.1441
    1DIPC   NC3 7993  17.253  27.845   7.275 -0.3656  0.0996  0.3306
    1DIPC   PO4 7994  17.253  28.298   7.082 -0.1734 -0.0241  0.0420
    1DIPC   GL1 7995  17.400  28.348   6.631 -0.2239 -0.1418  0.1338
    1DIPC   GL2 7996  17.141  28.235   6.387  0.0354  0.0001 -0.1769
    1DIPC   C1A 7997  17.572  28.424   6.236 -0.1022  0.0998  0.0472
    1DIPC   D2A 7998  17.779  28.502   5.892  0.1609  0.0410 -0.0392
    1DIPC   D3A 7999  18.146  28.455   6.186  0.1651 -0.3842  0.1882
    1DIPC   C4A 8000  18.481  28.269   6.090  0.0737  0.2032 -0.2628
    1DIPC   C1B 8001  16.941  27.860   6.301 -0.2519 -0.1145 -0.0981
    1DIPC   D2B 8002  16.990  27.430   6.174 -0.1353  0.0280 -0.2974
    1DIPC   D3B 8003  16.931  27.632   5.836  0.2568  0.1288  0.1151
    1DIPC   C4B 8004  17.119  27.606   5.470  0.1502  0.2259 -0.2603
    1DIPC   NC3 8005  23.873  22.801   7.567 -0.1198 -0.2023 -0.0395
    1DIPC   PO4 8006  23.818  22.571   7.228  0.1122 -0.1732  0.4356
    1DIPC   GL1 8007  23.692  22.952   7.149 -0.2095  0.2451  0.0450
    1DIPC   GL2 8008  23.384  23.054   7.077  0.1726  0.1034  0.2292
    1DIPC   C1A 8009  23.792  23.145   6.825  0.1654  0.1824 -0.0508
    1DIPC   D2A 8010  23.583  23.366   6.490  0.0723  0.2946  0.0676
    1DIPC   D3A 8011  23.571  23.223   6.050 -0.0175  0.1064  0.0980
    1DIPC   C4A 8012  23.619  22.836   6.119 -0.1086 -0.0670  0.0757
    1DIPC   C1B 8013  23.411  22.875   6.620  0.1101  0.2279  0.1628
    1DIPC   D2B 8014  23.206  22.472   6.493 -0.1232  0.0158 -0.3148
    1DIPC   D3B 8015  23.289  22.383   6.048  0.1210  0.1062  0.0222
    1DIPC   C4B 8016  23.426  22.019   5.785  0.1239 -0.2315 -0.0778
    1DIPC   NC3 8017   0.479  25.763   6.751 -0.2410  0.4249 -0.2688
    1DIPC   PO4 8018   0.799  25.465   6.597  0.0897  0.1785 -0.1929
    1DIPC   GL1 8019   0.665  25.013   6.500  0.1864  0.1441  0.1713
    1DIPC   GL2 8020   0.889  24.781   6.479  0.1197 -0.1936  0.0213
    1DIPC   C1A 8021   0.387  24.900   6.177  0.1849 -0.0087  0.1281
    1DIPC   D2A 8022   0.165  24.785   5.803 -0.0187 -0.3281  0.2085
    1DIPC   D3A 8023   0.516  25.001   5.569 -0.0719 -0.0070  0.1271
    1DIPC   C4A 8024   0.808  25.095   5.886 -0.2492  0.1251 -0.0427
    1DIPC   C1B 8025   1.240  24.761   6.068  0.0342 -0.3005 -0.0633
    1DIPC   D2B 8026   1.213  24.801   5.708 -0.1073  0.1695  0.1134
    1DIPC   D3B 8027   1.558  24.842   5.477  0.4534  0.1220  0.3009
    1DIPC   C4B 8028   1.727  25.255   5.532 -0.1791 -0.0852  0.0741
    1DIPC   NC3 8029  22.227  25.555   7.686  0.0019  0.1573  0.1815
    1DIPC   PO4 8030  22.151  25.839   7.293  0.0480  0.3563 -0.3623
    1DIPC   GL1 8031  22.170  26.022   6.975  0.0192  0.0256  0.3091
    1DIPC   GL2 8032  22.153  26.344   6.903 -0.1935 -0.0330 -0.0437
    1DIPC   C1A 8033  21.973  25.927   6.506 -0.0391  0.0598 -0.0286
    1DIPC   D2A 8034  21.823  25.874   6.056 -0.2795  0.1702 -0.1687
    1DIPC   D3A 8035  21.387  25.864   5.940  0.0222 -0.1225 -0.0863
    1DIPC   C4A 8036  21.152  25.961   5.597  0.2192  0.0169  0.2251
    1DIPC   C1B 8037  22.031  26.464   6.450  0.1553  0.1500 -0.0424
    1DIPC   D2B 8038  21.961  26.438   6.026 -0.1251 -0.0126  0.6511
    1DIPC   D3B 8039  21.659  26.772   6.234  0.0133  0.0914 -0.2210
    1DIPC   C4B 8040  21.867  27.121   6.400 -0.0773  0.2034  0.1367
    1DIPC   NC3 8041   1.680  28.081   6.392 -0.0432 -0.2714 -0.1352
    1DIPC   PO4 8042   1.520  28.564   6.410  0.1573  0.1941  0.1017
    1DIPC   GL1 8043   1.641  28.393   6.027 -0.2038  0.0926  0.5051
    1DIPC   GL2 8044   1.452  28.190   5.879 -0.2121 -0.2401  0.3026
    1DIPC   C1A 8045   1.878  28.356   5.752 -0.1371 -0.0085  0.0427
    1DIPC   D2A 8046   2.042  28.703   5.470 -0.0586 -0.2100 -0.1324
    1DIPC   D3A 8047   2.435  28.442   5.242  0.3164  0.0926 -0.1410
    1DIPC   C4A 8048   2.454  28.032   5.235  0.0581 -0.0971  0.2311
    1DIPC   C1B 8049   1.606  27.747   5.903 -0.1853  0.1673 -0.0052
    1DIPC   D2B 8050   1.844  27.387   5.825 -0.1088  0.0748 -0.1384
    1DIPC   D3B 8051   1.814  27.114   5.432 -0.1206 -0.2342  0.3682
    1DIPC   C4B 8052   1.978  27.251   4.978  0.1077  0.1536 -0.0978
    1DIPC   NC3 8053  28.887   1.879   6.490  0.2331  0.2047 -0.1322
    1DIPC   PO4 8054  29.298   1.663   6.369 -0.1033  0.1594 -0.3080
    1DIPC   GL1 8055  29.126   1.831   5.951 -0.1038 -0.0616  0.1668
    1DIPC   GL2 8056  28.861   1.748   6.018 -0.1930 -0.0083  0.2387
    1DIPC   C1A 8057  28.852   2.024   5.614  0.1538 -0.1376  0.1623
    1DIPC   D2A 8058  28.589   2.261   5.321 -0.0626  0.0820  0.1160
    1DIPC   D3A 8059  28.945   1.980   5.086  0.0342 -0.0184  0.0882
    1DIPC   C4A 8060  29.008   1.946   4.541  0.0845  0.1464  0.4927
    1DIPC   C1B 8061  28.619   1.577   5.732  0.0070 -0.1233  0.1226
    1DIPC   D2B 8062  28.726   1.550   5.319  0.0877  0.0255  0.0825
    1DIPC   D3B 8063  28.358   1.425   5.092 -0.0672 -0.5848  0.2657
    1DIPC   C4B 8064  28.354   1.518   4.689  0.1525  0.3517 -0.3919
    1DIPC   NC3 8065   8.585  16.588   5.983  0.4566 -0.2728  0.0972
    1DIPC   PO4 8066   8.322  16.390   6.235  0.3630  0.1998 -0.0033
    1DIPC   GL1 8067   8.006  16.273   5.832 -0.1552 -0.0798  0.0268
    1DIPC   GL2 8068   8.261  16.412   5.657 -0.0911  0.0070  0.2263
    1DIPC   C1A 8069   7.818  16.386   5.385  0.1316  0.0605  0.0379
    1DIPC   D2A 8070   7.856  16.301   4.893 -0.0371 -0.0204 -0.0560
    1DIPC   D3A 8071   8.149  16.363   4.500 -0.1505 -0.0230  0.0768
    1DIPC   C4A 8072   8.365  16.516   4.108 -0.2299 -0.2471  0.2127
    1DIPC   C1B 8073   8.472  16.345   5.333 -0.1672 -0.1819 -0.0415
    1DIPC   D2B 8074   8.708  16.174   4.976 -0.2377  0.1518  0.0224
    1DIPC   D3B 8075   8.641  16.374   4.534  0.0862  0.0397 -0.2973
    1DIPC   C4B 8076   8.446  16.822   4.539 -0.0017 -0.1455  0.1239
    1DIPC   NC3 8077   6.938  21.911   7.045  0.0479  0.1084  0.1537
    1DIPC   PO4 8078   6.783  21.976   6.611 -0.2885 -0.3933  0.0374
    1DIPC   GL1 8079   6.627  21.963   6.210  0.0715 -0.0123  0.1183
    1DIPC   GL2 8080   6.604  22.212   6.117  0.0165  0.0904  0.0147
    1DIPC   C1A 8081   6.682  21.684   5.943 -0.0057 -0.0256 -0.0278
    1DIPC   D2A 8082   6.694  21.671   5.570 -0.2084  0.0184  0.0788
    1DIPC   D3A 8083   6.670  22.088   5.337  0.0308  0.3191 -0.0210
    1DIPC   C4A 8084   6.579  22.014   4.912 -0.0707  0.1394  0.2457
    1DIPC   C1B 8085   6.395  22.017   5.738 -0.1787 -0.0128  0.2636
    1DIPC   D2B 8086   6.237  21.505   5.584 -0.2026 -0.0617 -0.0487
    1DIPC   D3B 8087   6.298  21.783   5.280  0.0411 -0.1279  0.3072
    1DIPC   C4B 8088   6.276  21.649   4.779  0.0303 -0.2597  0.1339
    1DIPC   NC3 8089  28.438  26.411   6.795 -0.0294 -0.1523 -0.0276
    1DIPC   PO4 8090  28.482  26.912   6.916 -0.0796  0.0099 -0.0915
    1DIPC   GL1 8091  28.166  26.817   6.573 -0.2210 -0.2499 -0.0648
    1DIPC   GL2 8092  27.833  26.762   6.571 -0.0092  0.3204  0.0378
    1DIPC   C1A 8093  28.237  26.922   6.216 -0.3974 -0.0569  0.0459
    1DIPC   D2A 8094  28.687  27.098   5.984 -0.1196 -0.1277  0.0372
    1DIPC   D3A 8095  28.564  26.720   5.836  0.0607 -0.1533  0.1982
    1DIPC   C4A 8096  28.739  26.482   5.541  0.1406 -0.1152 -0.1291
    1DIPC   C1B 8097  27.812  26.654   6.075  0.1781 -0.1441  0.0233
    1DIPC   D2B 8098  27.820  26.465   5.709  0.1885  0.0297 -0.0458
    1DIPC   D3B 8099  27.619  26.533   5.340 -0.1639 -0.0753 -0.2509
    1DIPC   C4B 8100  27.783  26.314   5.106 -0.0007 -0.0283 -0.1921
    1DIPC   NC3 8101  18.337   4.534   6.850  0.1221 -0.0936  0.1482
    1DIPC   PO4 8102  18.140   4.940   6.780  0.1482  0.0543 -0.2360
    1DIPC   GL1 8103  17.840   4.840   6.397  0.0446  0.1530  0.4925
    1DIPC   GL2 8104  17.510   4.822   6.352 -0.1692  0.1659 -0.1215
    1DIPC   C1A 8105  18.063   4.937   6.044 -0.0796 -0.2459  0.3289
    1DIPC   D2A 8106  17.964   5.125   5.546 -0.1075  0.1897 -0.0029
    1DIPC   D3A 8107  17.993   5.076   5.086  0.0842 -0.0296 -0.0524
    1DIPC   C4A 8108  18.223   4.940   4.709 -0.0852 -0.1613  0.0058
    1DIPC   C1B 8109  17.600   4.688   5.938 -0.2814 -0.0868  0.2519
    1DIPC   D2B 8110  17.779   4.674   5.573 -0.2118  0.4612  0.0265
    1DIPC   D3B 8111  18.104   4.524   5.743 -0.0507  0.1156 -0.1431
    1DIPC   C4B 8112  18.070   4.454   6.143 -0.1936  0.3452 -0.1867
    1DIPC   NC3 8113   0.894   1.324   6.169 -0.0374 -0.0748 -0.0892
    1DIPC   PO4 8114   1.099   1.749   6.147  0.2851 -0.0367  0.1521
    1DIPC   GL1 8115   1.358   1.763   5.806  0.1024 -0.5877  0.0409
    1DIPC   GL2 8116   1.613   1.607   5.771 -0.2500 -0.0198  0.1701
    1DIPC   C1A 8117   1.353   1.731   5.392 -0.1072  0.2129  0.2149
    1DIPC   D2A 8118   0.963   1.707   5.172 -0.2956  0.2895 -0.0850
    1DIPC   D3A 8119   0.865   1.826   4.686 -0.0807 -0.2799 -0.1775
    1DIPC   C4A 8120   0.765   2.208   4.668 -0.1210  0.3124  0.0146
    1DIPC   C1B 8121   1.843   1.739   5.478 -0.3209  0.0104  0.0035
    1DIPC   D2B 8122   1.813   1.938   5.038  0.0167 -0.2461 -0.2089
    1DIPC   D3B 8123   1.308   1.989   4.963 -0.3811  0.2257 -0.2865
    1DIPC   C4B 8124   1.236   2.130   4.500  0.0499  0.0183 -0.0732
    1DIPC   NC3 8125   8.340  23.116   6.741  0.0469 -0.1716  0.0119
    1DIPC   PO4 8126   8.514  22.995   6.372 -0.0489  0.1288  0.0982
    1DIPC   GL1 8127   8.442  22.826   5.969 -0.1575  0.1306  0.1476
    1DIPC   GL2 8128   8.340  23.064   5.837  0.0243 -0.1473  0.1724
    1DIPC   C1A 8129   8.488  22.691   5.569  0.1433 -0.0604  0.4504
    1DIPC   D2A 8130   8.256  22.567   5.213 -0.1115  0.3151 -0.0500
    1DIPC   D3A 8131   8.214  22.180   5.481 -0.1713  0.0624 -0.1775
    1DIPC   C4A 8132   8.344  22.270   5.870 -0.1878  0.0021 -0.1641
    1DIPC   C1B 8133   8.314  23.183   5.425 -0.2931  0.1841  0.2076
    1DIPC   D2B 8134   8.214  23.005   4.987  0.2225  0.2391  0.0570
    1DIPC   D3B 8135   8.016  23.326   4.893  0.2721  0.2260 -0.2743
    1DIPC   C4B 8136   7.911  23.378   4.483 -0.0974  0.3537 -0.0447
    1DIPC   NC3 8137  13.224  28.022   6.150 -0.0961 -0.0001  0.0471
    1DIPC   PO4 8138  13.171  28.486   6.236 -0.0830  0.0982 -0.0204
    1DIPC   GL1 8139  13.212  28.414   5.846  0.3023  0.0301 -0.0695
    1DIPC   GL2 8140  13.534  28.520   5.753  0.0747  0.0689  0.3141
    1DIPC   C1A 8141  13.344  28.301   5.318 -0.2603  0.2309 -0.3112
    1DIPC   D2A 8142  13.317  28.305   4.834 -0.0651  0.0009 -0.0878
    1DIPC   D3A 8143  13.338  28.019   4.613 -0.2380  0.0646  0.0542
    1DIPC   C4A 8144  13.403  27.590   4.649  0.0550 -0.3201  0.1953
    1DIPC   C1B 8145  13.875  28.376   5.552 -0.2874 -0.1129 -0.0690
    1DIPC   D2B 8146  14.211  28.146   5.375 -0.0707 -0.2669 -0.0648
    1DIPC   D3B 8147  14.239  28.236   4.939 -0.1486  0.2560 -0.0237
    1DIPC   C4B 8148  14.137  28.638   4.817 -0.2368  0.2375  0.0452
    1DIPC   NC3 8149   4.483  20.330   6.668 -0.0335 -0.1715  0.0407
    1DIPC   PO4 8150   3.996  20.175   6.567  0.1732  0.1426 -0.3074
    1DIPC   GL1 8151   3.538  20.226   6.482  0.0442  0.0964  0.0743
    1DIPC   GL2 8152   3.671  20.446   6.242 -0.2044 -0.0194  0.0793
    1DIPC   C1A 8153   3.272  20.287   6.050  0.2032  0.2050 -0.1084
    1DIPC   D2A 8154   2.996  20.388   5.632 -0.7609  0.1661  0.2084
    1DIPC   D3A 8155   3.338  20.392   5.292 -0.0837  0.0951  0.2801
    1DIPC   C4A 8156   3.725  20.351   5.376  0.2864  0.2838 -0.0186
    1DIPC   C1B 8157   3.565  20.667   5.811  0.1922  0.0266 -0.1051
    1DIPC   D2B 8158   3.496  20.858   5.404  0.1370 -0.1651 -0.0977
    1DIPC   D3B 8159   3.918  20.840   5.294  0.1087  0.0164  0.2512
    1DIPC   C4B 8160   4.082  21.185   5.219  0.2285  0.0775  0.2277
    1DIPC   NC3 8161  11.188  13.268   6.127 -0.1208 -0.0951  0.0629
    1DIPC   PO4 8162  11.107  13.169   5.723  0.1628 -0.0360 -0.1558
    1DIPC   GL1 8163  11.087  13.026   5.348  0.2081 -0.0946  0.3122
    1DIPC   GL2 8164  10.818  12.803   5.368 -0.0445 -0.1719  0.0196
    1DIPC   C1A 8165  11.121  12.977   4.975  0.0247 -0.2695 -0.0678
    1DIPC   D2A 8166  11.226  12.705   4.805  0.0548 -0.1377 -0.0325
    1DIPC   D3A 8167  11.619  12.526   4.845  0.2493 -0.2907  0.0833
    1DIPC   C4A 8168  11.871  12.847   4.786 -0.2336  0.3236  0.2618
    1DIPC   C1B 8169  10.595  12.922   5.123  0.0300 -0.2280  0.2982
    1DIPC   D2B 8170  10.075  13.061   5.068  0.2884 -0.4718  0.1528
    1DIPC   D3B 8171  10.152  13.110   4.654  0.0596 -0.0028  0.0447
    1DIPC   C4B 8172  10.441  13.456   4.439  0.0007  0.0689 -0.0702
    1DIPC   NC3 8173  20.959  20.961   7.274 -0.1278  0.1800 -0.2564
    1DIPC   PO4 8174  21.371  21.078   7.123 -0.0502 -0.2465 -0.2658
    1DIPC   GL1 8175  21.457  21.268   6.744 -0.0263  0.0675 -0.2626
    1DIPC   GL2 8176  21.510  21.567   6.713  0.0067  0.0043 -0.1159
    1DIPC   C1A 8177  21.332  21.179   6.427 -0.0342  0.2009  0.1436
    1DIPC   D2A 8178  21.523  21.132   5.969  0.1498 -0.1747 -0.0981
    1DIPC   D3A 8179  21.528  20.758   5.745 -0.0624  0.0152  0.1359
    1DIPC   C4A 8180  21.205  20.705   5.284  0.1819  0.0582 -0.0026
    1DIPC   C1B 8181  21.418  21.798   6.251 -0.0109  0.1208  0.2603
    1DIPC   D2B 8182  21.318  22.094   6.005 -0.0959 -0.1484  0.1834
    1DIPC   D3B 8183  21.403  22.273   5.637 -0.2271 -0.0018 -0.1913
    1DIPC   C4B 8184  21.360  22.058   5.270 -0.1639  0.1039  0.3432
    1DIPC   NC3 8185  27.505   0.363   7.073 -0.0337  0.1135  0.0447
    1DIPC   PO4 8186  27.288  29.520   7.028 -0.2676  0.1025  0.0752
    1DIPC   GL1 8187  27.120   0.083   6.743 -0.2257  0.0652  0.1713
    1DIPC   GL2 8188  27.138   0.455   6.728  0.0264  0.3330 -0.0207
    1DIPC   C1A 8189  26.586   0.130   6.673  0.1612  0.1271  0.1560
    1DIPC   D2A 8190  26.199   0.106   6.332  0.0562  0.1012 -0.0556
    1DIPC   D3A 8191  26.151   0.177   5.949 -0.2891 -0.0697  0.0332
    1DIPC   C4A 8192  26.271   0.327   5.614  0.1017 -0.0066  0.1764
    1DIPC   C1B 8193  27.027   0.242   6.289 -0.2131  0.0503  0.0393
    1DIPC   D2B 8194  26.977   0.034   5.933  0.3335  0.1129 -0.0396
    1DIPC   D3B 8195  26.963  29.527   5.548  0.3532 -0.1994 -0.0440
    1DIPC   C4B 8196  26.973   0.171   5.173 -0.0007  0.2961 -0.4401
    1DIPC   NC3 8197  17.221  22.689   7.261  0.2500 -0.0134  0.1499
    1DIPC   PO4 8198  16.844  22.633   6.982  0.0141 -0.3195  0.0506
    1DIPC   GL1 8199  16.623  22.588   6.587 -0.0658  0.0349  0.0466
    1DIPC   GL2 8200  16.848  22.566   6.343 -0.0780  0.1686 -0.2372
    1DIPC   C1A 8201  16.472  22.336   6.264  0.1414  0.0953  0.1193
    1DIPC   D2A 8202  16.777  22.133   6.087  0.6356 -0.2326 -0.0032
    1DIPC   D3A 8203  16.487  21.875   5.894  0.1127  0.4317  0.0741
    1DIPC   C4A 8204  16.111  22.006   5.857  0.0755  0.1553  0.0491
    1DIPC   C1B 8205  16.950  22.600   5.910  0.1398 -0.2645  0.1437
    1DIPC   D2B 8206  17.096  22.675   5.474  0.1625  0.0746 -0.0820
    1DIPC   D3B 8207  17.392  22.385   5.560  0.3713 -0.0565  0.2128
    1DIPC   C4B 8208  17.120  22.067   5.686  0.2715  0.2729 -0.1126
    1DIPC   NC3 8209   5.920   9.878   5.656 -0.3942 -0.0153 -0.0651
    1DIPC   PO4 8210   5.724  10.139   5.368  0.0748 -0.0503 -0.3187
    1DIPC   GL1 8211   6.009  10.122   5.052  0.1922 -0.1268 -0.1096
    1DIPC   GL2 8212   6.018  10.409   4.884  0.3186  0.1779  0.0742
    1DIPC   C1A 8213   6.168   9.849   4.724 -0.2933  0.0513 -0.0371
    1DIPC   D2A 8214   6.327   9.821   4.323 -0.0844  0.1571  0.0746
    1DIPC   D3A 8215   6.028   9.830   4.032  0.1644  0.0018  0.1724
    1DIPC   C4A 8216   5.957  10.192   3.748 -0.0488  0.0802 -0.0321
    1DIPC   C1B 8217   6.034  10.273   4.448  0.0409  0.3541 -0.1109
    1DIPC   D2B 8218   6.307  10.264   4.102  0.2767 -0.2918  0.0579
    1DIPC   D3B 8219   6.402  10.395   3.693 -0.2902  0.0295 -0.0073
    1DIPC   C4B 8220   6.384  10.021   3.476 -0.2503 -0.1020 -0.1739
    1DIPC   NC3 8221  27.656  25.106   6.884 -0.2254  0.1043  0.0796
    1DIPC   PO4 8222  27.403  24.695   6.857 -0.1361  0.1333  0.2531
    1DIPC   GL1 8223  27.436  24.856   6.448 -0.0264  0.0856 -0.1123
    1DIPC   GL2 8224  27.166  25.140   6.508 -0.1516 -0.1470 -0.0694
    1DIPC   C1A 8225  27.434  24.613   6.040  0.2268  0.0648 -0.0521
    1DIPC   D2A 8226  27.499  24.600   5.575 -0.0320  0.0510 -0.1799
    1DIPC   D3A 8227  27.167  24.453   5.221 -0.0012 -0.3122 -0.2218
    1DIPC   C4A 8228  26.766  24.534   5.064  0.0926 -0.4973 -0.1431
    1DIPC   C1B 8229  27.265  25.128   6.062  0.1082  0.2530  0.0914
    1DIPC   D2B 8230  27.324  25.175   5.630 -0.2329 -0.1504  0.3042
    1DIPC   D3B 8231  27.107  25.456   5.182  0.1524 -0.2871 -0.2349
    1DIPC   C4B 8232  26.710  25.400   4.997  0.2717 -0.0401  0.2822
    1DIPC   NC3 8233   5.787  27.167   6.532  0.0947  0.0370 -0.1427
    1DIPC   PO4 8234   6.037  27.423   6.199 -0.0308  0.3917 -0.1648
    1DIPC   GL1 8235   5.971  27.527   5.753 -0.3054  0.0278  0.0198
    1DIPC   GL2 8236   5.933  27.202   5.647 -0.3831 -0.1723  0.2263
    1DIPC   C1A 8237   5.644  27.662   5.461  0.3025  0.0883 -0.3415
    1DIPC   D2A 8238   5.157  27.732   5.630  0.0385  0.1264  0.1503
    1DIPC   D3A 8239   5.152  27.332   5.534  0.1088  0.0262 -0.0516
    1DIPC   C4A 8240   5.079  27.224   5.105  0.1977 -0.2104 -0.3791
    1DIPC   C1B 8241   5.637  27.132   5.263 -0.1354 -0.0767 -0.3763
    1DIPC   D2B 8242   5.341  26.803   5.189  0.1881  0.0446 -0.2084
    1DIPC   D3B 8243   5.354  26.536   4.810  0.0192 -0.3509  0.0603
    1DIPC   C4B 8244   5.737  26.297   4.784  0.1481 -0.1878  0.0932
    1DIPC   NC3 8245  11.635  26.959   6.237 -0.3063  0.0647  0.2134
    1DIPC   PO4 8246  11.750  26.532   5.983  0.1622  0.0784  0.3712
    1DIPC   GL1 8247  11.974  26.553   5.515  0.2457 -0.0409 -0.3080
    1DIPC   GL2 8248  11.618  26.652   5.378 -0.1855  0.1289 -0.0255
    1DIPC   C1A 8249  12.095  26.378   5.188 -0.0301 -0.1505  0.0491
    1DIPC   D2A 8250  12.487  26.325   5.055 -0.0043 -0.2455 -0.0650
    1DIPC   D3A 8251  12.614  25.961   4.635  0.0366 -0.3907 -0.1667
    1DIPC   C4A 8252  12.490  26.138   4.213  0.0736 -0.0707  0.0152
    1DIPC   C1B 8253  11.691  26.567   4.998 -0.2029  0.1913 -0.2895
    1DIPC   D2B 8254  11.952  26.302   4.690 -0.0217 -0.0382 -0.1545
    1DIPC   D3B 8255  11.710  26.383   4.408  0.2101  0.2944  0.1408
    1DIPC   C4B 8256  11.767  26.161   4.002 -0.1795 -0.2178 -0.0492
    1DIPC   NC3 8257   4.798  10.401   5.451  0.0217 -0.2205 -0.0154
    1DIPC   PO4 8258   4.668  10.304   4.995  0.2017 -0.0060  0.1196
    1DIPC   GL1 8259   4.470  10.241   4.638  0.4066 -0.1158 -0.3726
    1DIPC   GL2 8260   4.721  10.072   4.455  0.2165 -0.1608 -0.3773
    1DIPC   C1A 8261   4.198  10.224   4.301  0.1645 -0.0275 -0.1819
    1DIPC   D2A 8262   3.791  10.292   4.031  0.0769  0.0981 -0.0207
    1DIPC   D3A 8263   3.268  10.337   4.015  0.1533  0.2461 -0.0409
    1DIPC   C4A 8264   2.906  10.048   4.309 -0.3943 -0.2038 -0.0054
    1DIPC   C1B 8265   4.691  10.362   4.064 -0.1798  0.0538  0.2570
    1DIPC   D2B 8266   4.640  10.536   3.730  0.4293  0.0836 -0.0277
    1DIPC   D3B 8267   5.010  10.327   3.554 -0.1618  0.0485  0.1262
    1DIPC   C4B 8268   5.334  10.649   3.446  0.3562  0.0805 -0.2227
    1DIPC   NC3 8269  25.730  17.199   6.910 -0.0819  0.0470 -0.0462
    1DIPC   PO4 8270  26.221  17.225   6.869 -0.1921 -0.2301  0.2990
    1DIPC   GL1 8271  26.092  17.267   6.433 -0.1116 -0.0687  0.2371
    1DIPC   GL2 8272  26.406  17.170   6.327  0.6115 -0.0640  0.2048
    1DIPC   C1A 8273  25.806  17.291   6.045 -0.1964  0.0472  0.2842
    1DIPC   D2A 8274  25.598  17.265   5.637  0.1877 -0.0870 -0.1586
    1DIPC   D3A 8275  25.813  17.655   5.564  0.3002 -0.1059  0.1689
    1DIPC   C4A 8276  26.098  17.689   5.786  0.0682 -0.1569 -0.2085
    1DIPC   C1B 8277  26.305  17.223   5.837 -0.1060 -0.1572  0.1341
    1DIPC   D2B 8278  26.091  17.244   5.442 -0.0331  0.0934  0.0051
    1DIPC   D3B 8279  26.173  17.555   5.138  0.2824  0.1260 -0.0423
    1DIPC   C4B 8280  26.519  17.598   4.922 -0.0787  0.1593  0.3265
    1DIPC   NC3 8281  17.175   2.041   6.704  0.0843 -0.0709  0.2000
    1DIPC   PO4 8282  17.556   1.837   6.896 -0.0276 -0.0055  0.1290
    1DIPC   GL1 8283  17.651   1.818   6.477 -0.1955  0.1520  0.1456
    1DIPC   GL2 8284  17.390   1.898   6.226 -0.2518 -0.0667 -0.2234
    1DIPC   C1A 8285  17.853   1.535   6.173 -0.0829 -0.0022 -0.0282
    1DIPC   D2A 8286  17.961   1.142   6.038  0.5230  0.2514  0.3801
    1DIPC   D3A 8287  18.228   1.106   5.807 -0.1857  0.2619 -0.3213
    1DIPC   C4A 8288  18.376   1.126   5.387  0.2040 -0.1481  0.0468
    1DIPC   C1B 8289  17.529   1.782   5.824 -0.0167  0.0394  0.0991
    1DIPC   D2B 8290  17.586   1.584   5.400 -0.1299 -0.2046  0.0323
    1DIPC   D3B 8291  17.277   1.818   5.199  0.2363 -0.0675  0.0706
    1DIPC   C4B 8292  17.113   1.542   4.785 -0.3430  0.1666 -0.3490
    1DIPC   NC3 8293  10.182  29.447   6.077  0.0588 -0.0558  0.3144
    1DIPC   PO4 8294   9.944  29.159   5.951 -0.0511 -0.5056 -0.3749
    1DIPC   GL1 8295  10.169  29.165   5.648 -0.1023  0.0917  0.1336
    1DIPC   GL2 8296  10.292  29.538   5.510 -0.1631 -0.0119  0.0171
    1DIPC   C1A 8297  10.409  29.074   5.318  0.1881  0.0373 -0.1233
    1DIPC   D2A 8298  10.414  29.278   4.958 -0.1088 -0.0825 -0.0837
    1DIPC   D3A 8299  10.784  29.253   4.671 -0.1710  0.1866  0.0243
    1DIPC   C4A 8300  10.904   0.026   4.422 -0.0077  0.3092  0.0123
    1DIPC   C1B 8301  10.415   0.160   5.132 -0.0828 -0.1739 -0.0568
    1DIPC   D2B 8302  10.378   0.205   4.741  0.1204  0.0518  0.0251
    1DIPC   D3B 8303   9.956   0.241   4.649  0.1816 -0.0562  0.2470
    1DIPC   C4B 8304   9.769   0.444   4.993 -0.1748  0.0121  0.0453
    1DIPC   NC3 8305  21.615   1.089   7.820 -0.0021 -0.1148  0.2002
    1DIPC   PO4 8306  21.681   0.947   7.349 -0.1940  0.2085 -0.1636
    1DIPC   GL1 8307  21.743   1.153   7.001 -0.1938 -0.0572 -0.0892
    1DIPC   GL2 8308  22.059   1.176   6.731  0.1774 -0.0722 -0.0679
    1DIPC   C1A 8309  21.585   1.080   6.578 -0.1581  0.0283 -0.3099
    1DIPC   D2A 8310  21.389   1.219   6.210 -0.2842  0.0314 -0.0570
    1DIPC   D3A 8311  21.694   0.944   6.086  0.2041  0.0342 -0.0626
    1DIPC   C4A 8312  21.642   0.566   6.336  0.1123 -0.1110 -0.2952
    1DIPC   C1B 8313  22.122   1.095   6.335 -0.1396  0.0955 -0.3310
    1DIPC   D2B 8314  22.321   0.993   5.966 -0.0565  0.0106  0.3072
    1DIPC   D3B 8315  22.120   0.784   5.616  0.0966  0.0314 -0.2487
    1DIPC   C4B 8316  21.755   0.691   5.368  0.2893  0.0875 -0.0209
    1DIPC   NC3 8317  19.999  23.908   7.877  0.1207 -0.1746 -0.2152
    1DIPC   PO4 8318  20.322  23.882   7.601 -0.1857 -0.4701  0.0497
    1DIPC   GL1 8319  20.216  23.910   7.193  0.3265  0.0277  0.0634
    1DIPC   GL2 8320  20.445  23.682   7.036  0.1014  0.0911  0.0569
    1DIPC   C1A 8321  19.824  24.121   7.135  0.1035 -0.0781 -0.3251
    1DIPC   D2A 8322  19.393  24.071   7.277 -0.0375  0.0042  0.2287
    1DIPC   D3A 8323  19.373  23.650   7.324 -0.1371  0.2793  0.1130
    1DIPC   C4A 8324  19.020  23.633   6.866  0.4065 -0.2848  0.1631
    1DIPC   C1B 8325  20.650  23.896   6.622  0.1096 -0.3057  0.3044
    1DIPC   D2B 8326  20.714  23.758   6.199  0.0379  0.0636 -0.3345
    1DIPC   D3B 8327  20.979  23.387   6.128 -0.0003  0.4021 -0.0187
    1DIPC   C4B 8328  20.994  23.129   5.802 -0.1145 -0.2277  0.1482
    1DIPC   NC3 8329   3.635  22.964   7.040  0.0883 -0.1166 -0.1409
    1DIPC   PO4 8330   3.377  23.349   7.047 -0.2581  0.0216 -0.2085
    1DIPC   GL1 8331   3.368  23.518   6.615 -0.1524 -0.1966 -0.0063
    1DIPC   GL2 8332   3.110  23.344   6.486  0.0106  0.0835  0.2367
    1DIPC   C1A 8333   3.342  23.780   6.271 -0.1059 -0.2159  0.3469
    1DIPC   D2A 8334   3.371  23.795   5.884  0.2019  0.1889  0.1480
    1DIPC   D3A 8335   3.460  23.600   5.514  0.1302  0.1105 -0.1532
    1DIPC   C4A 8336   3.135  23.411   5.276  0.0455 -0.1548  0.0300
    1DIPC   C1B 8337   2.682  23.287   6.267 -0.0164 -0.1522 -0.1793
    1DIPC   D2B 8338   2.425  22.907   5.984  0.2750  0.2610 -0.1319
    1DIPC   D3B 8339   2.105  22.966   5.695  0.3561 -0.0493 -0.1962
    1DIPC   C4B 8340   1.945  22.793   5.319  0.3025 -0.1710  0.0819
    1DIPC   NC3 8341   7.634  16.851   6.361 -0.0019 -0.0668 -0.1611
    1DIPC   PO4 8342   7.378  16.675   5.969 -0.1775 -0.0135 -0.1872
    1DIPC   GL1 8343   7.656  16.868   5.649 -0.1324 -0.0053  0.2333
    1DIPC   GL2 8344   7.538  17.171   5.501  0.2402 -0.1285 -0.4012
    1DIPC   C1A 8345   8.058  16.860   5.386  0.1312  0.0672 -0.0123
    1DIPC   D2A 8346   8.250  16.668   5.023  0.2484  0.0847 -0.0560
    1DIPC   D3A 8347   8.703  16.755   5.078  0.1466  0.1556 -0.1580
    1DIPC   C4A 8348   8.723  17.092   5.012 -0.3028 -0.0661 -0.2798
    1DIPC   C1B 8349   7.723  17.185   5.103 -0.1676  0.0545  0.2289
    1DIPC   D2B 8350   7.913  17.006   4.794 -0.0319  0.0794  0.0974
    1DIPC   D3B 8351   7.758  17.400   4.620 -0.1528  0.0764  0.0628
    1DIPC   C4B 8352   7.298  17.515   4.652 -0.4844  0.0812 -0.0730
    1DIPC   NC3 8353  14.207  14.817   7.095 -0.1353 -0.0828  0.0306
    1DIPC   PO4 8354  14.117  14.444   6.829  0.0559  0.0754  0.2299
    1DIPC   GL1 8355  14.073  14.388   6.384  0.0645 -0.0555  0.4035
    1DIPC   GL2 8356  13.947  14.110   6.213  0.0043 -0.1238 -0.3991
    1DIPC   C1A 8357  13.781  14.701   6.146  0.0429  0.0171 -0.2630
    1DIPC   D2A 8358  13.348  15.036   6.005 -0.0817 -0.1166 -0.2874
    1DIPC   D3A 8359  13.188  15.489   5.764 -0.2668 -0.2215 -0.0863
    1DIPC   C4A 8360  12.763  15.487   5.547 -0.0857 -0.0838 -0.0055
    1DIPC   C1B 8361  13.753  14.237   5.875 -0.1049 -0.1606 -0.0851
    1DIPC   D2B 8362  13.551  14.254   5.510 -0.1875 -0.1029 -0.3607
    1DIPC   D3B 8363  13.413  14.160   5.085  0.2974  0.2728 -0.2766
    1DIPC   C4B 8364  13.196  13.832   4.939 -0.0626  0.0344 -0.1790
    1DIPC   NC3 8365   3.251   1.237   6.077  0.1680  0.5007  0.1160
    1DIPC   PO4 8366   3.495   0.860   6.132 -0.1262 -0.0115  0.0666
    1DIPC   GL1 8367   3.325   0.710   5.744 -0.3495  0.1497 -0.0101
    1DIPC   GL2 8368   3.137   1.019   5.643 -0.1524 -0.0412  0.2561
    1DIPC   C1A 8369   3.490   0.704   5.444  0.1213 -0.1342  0.0261
    1DIPC   D2A 8370   3.562   0.660   4.994  0.0645  0.0175 -0.3133
    1DIPC   D3A 8371   3.839   0.399   4.673  0.0857 -0.1524 -0.1727
    1DIPC   C4A 8372   4.293   0.495   4.534  0.0163 -0.4129  0.0342
    1DIPC   C1B 8373   3.213   1.111   5.264 -0.1397 -0.2218 -0.0654
    1DIPC   D2B 8374   3.266   1.096   4.853 -0.0810  0.1265 -0.1884
    1DIPC   D3B 8375   3.029   0.685   4.966  0.0441  0.1948  0.4523
    1DIPC   C4B 8376   2.758   0.757   5.274 -0.0838  0.2030 -0.5044
    1DIPC   NC3 8377  22.475   2.075   7.691  0.0183  0.1389 -0.0272
    1DIPC   PO4 8378  22.677   2.232   7.336  0.1859 -0.3742  0.0700
    1DIPC   GL1 8379  22.667   2.243   6.944  0.4323 -0.3529  0.0224
    1DIPC   GL2 8380  22.386   2.253   6.801  0.1068  0.1100  0.1943
    1DIPC   C1A 8381  22.818   2.344   6.511 -0.1921  0.0388  0.1622
    1DIPC   D2A 8382  22.953   2.219   6.206 -0.0584 -0.1560 -0.1826
    1DIPC   D3A 8383  23.198   2.503   5.909 -0.0686 -0.3924  0.1760
    1DIPC   C4A 8384  23.429   2.371   5.522  0.1867 -0.2760 -0.1997
    1DIPC   C1B 8385  22.168   2.259   6.409  0.1017  0.0031  0.0282
    1DIPC   D2B 8386  21.786   2.415   6.292  0.1266 -0.2210 -0.0485
    1DIPC   D3B 8387  22.040   2.341   5.896  0.0090  0.0399 -0.0066
    1DIPC   C4B 8388  22.288   2.550   5.557 -0.1043 -0.1723  0.0390
    1DIPC   NC3 8389  28.454   3.246   6.461  0.3782  0.1549  0.6368
    1DIPC   PO4 8390  28.997   3.330   6.318 -0.1238 -0.0322 -0.0520
    1DIPC   GL1 8391  29.107   2.965   6.021  0.0730 -0.0851  0.0598
    1DIPC   GL2 8392  29.012   2.745   5.771  0.0435 -0.0658 -0.3148
    1DIPC   C1A 8393  29.431   2.869   5.595 -0.2563  0.0814 -0.0590
    1DIPC   D2A 8394  29.446   2.768   5.253  0.1140  0.1026 -0.1322
    1DIPC   D3A 8395  29.241   2.758   4.885  0.0768  0.1283  0.1967
    1DIPC   C4A 8396  28.898   2.869   4.613 -0.2905  0.0712  0.1591
    1DIPC   C1B 8397  28.922   2.636   5.354  0.2170  0.2390  0.0103
    1DIPC   D2B 8398  28.814   2.455   4.909 -0.1321 -0.1444 -0.1734
    1DIPC   D3B 8399  28.653   2.454   4.530 -0.0300  0.1539  0.1834
    1DIPC   C4B 8400  28.833   2.213   4.180 -0.0706 -0.1110 -0.2385
    1DIPC   NC3 8401  12.137   3.158   6.446  0.1100 -0.0432  0.0813
    1DIPC   PO4 8402  12.183   2.676   6.249  0.0347 -0.0489 -0.1905
    1DIPC   GL1 8403  12.267   2.897   5.914  0.1121 -0.1306 -0.2488
    1DIPC   GL2 8404  12.155   2.603   5.720 -0.1272 -0.0499 -0.0871
    1DIPC   C1A 8405  12.594   2.982   5.627 -0.1347  0.2376  0.2888
    1DIPC   D2A 8406  13.074   2.919   5.646  0.1293  0.1972  0.2153
    1DIPC   D3A 8407  13.272   2.852   5.251  0.0750  0.1469 -0.3268
    1DIPC   C4A 8408  13.451   3.157   4.977  0.0044  0.2468  0.1642
    1DIPC   C1B 8409  12.157   2.547   5.255 -0.3394 -0.1699  0.2015
    1DIPC   D2B 8410  12.055   2.780   4.927 -0.0018 -0.2343 -0.3595
    1DIPC   D3B 8411  12.018   2.374   4.679  0.4000 -0.0454 -0.1366
    1DIPC   C4B 8412  12.244   2.067   4.720 -0.3408 -0.2764  0.0758
    1DIPC   NC3 8413  10.302  24.286   6.575  0.2910  0.0636 -0.0076
    1DIPC   PO4 8414   9.944  24.414   6.356 -0.1618  0.1007 -0.1274
    1DIPC   GL1 8415  10.289  24.372   6.082  0.0508  0.1220 -0.2076
    1DIPC   GL2 8416  10.075  24.330   5.854  0.0156  0.0660  0.0067
    1DIPC   C1A 8417  10.579  24.483   5.693 -0.0831 -0.1051 -0.1588
    1DIPC   D2A 8418  10.673  24.406   5.263  0.0747  0.0765 -0.2947
    1DIPC   D3A 8419  10.291  24.347   5.031 -0.2373 -0.1604  0.0640
    1DIPC   C4A 8420  10.110  23.975   4.880  0.1122 -0.0659  0.5290
    1DIPC   C1B 8421  10.260  24.161   5.550 -0.1464 -0.0342 -0.2208
    1DIPC   D2B 8422  10.466  23.894   5.211  0.0887  0.2837 -0.2388
    1DIPC   D3B 8423  10.602  24.041   4.727  0.0835  0.1177  0.2868
    1DIPC   C4B 8424  10.802  24.521   4.811 -0.1050  0.3151  0.3866
    1DIPC   NC3 8425   5.811  14.907   5.933  0.1755 -0.0067 -0.1006
    1DIPC   PO4 8426   6.151  14.659   5.977  0.2473  0.0591  0.4442
    1DIPC   GL1 8427   6.208  14.650   5.518  0.0143  0.5335  0.0905
    1DIPC   GL2 8428   5.960  14.852   5.489 -0.0050 -0.1201 -0.0362
    1DIPC   C1A 8429   6.260  14.505   5.070  0.0308  0.0013 -0.2089
    1DIPC   D2A 8430   6.234  14.554   4.605  0.0888 -0.4617  0.0957
    1DIPC   D3A 8431   6.208  14.277   4.278 -0.0712 -0.0011 -0.0977
    1DIPC   C4A 8432   5.864  14.042   4.257  0.2106  0.1397  0.0611
    1DIPC   C1B 8433   5.562  14.912   5.302  0.1287 -0.1376  0.0374
    1DIPC   D2B 8434   5.348  14.716   5.067 -0.0097  0.1213 -0.2408
    1DIPC   D3B 8435   4.976  14.979   4.865 -0.2376  0.0397  0.1549
    1DIPC   C4B 8436   4.673  14.716   4.582  0.1168  0.2509 -0.0832
    1DIPC   NC3 8437  18.645   2.488   6.578 -0.1085  0.0246  0.1419
    1DIPC   PO4 8438  18.372   2.712   6.877 -0.1991  0.0464 -0.1157
    1DIPC   GL1 8439  18.107   2.504   6.546 -0.2381 -0.1541 -0.1312
    1DIPC   GL2 8440  18.207   2.231   6.419  0.2890 -0.0543  0.3222
    1DIPC   C1A 8441  18.063   2.596   6.001 -0.0123 -0.2254 -0.2000
    1DIPC   D2A 8442  17.727   2.506   5.628 -0.0022  0.0260 -0.2339
    1DIPC   D3A 8443  17.790   2.373   5.169  0.2447 -0.2513  0.2917
    1DIPC   C4A 8444  17.555   2.088   4.869  0.1741  0.0540  0.0324
    1DIPC   C1B 8445  17.973   2.116   6.168 -0.1301  0.3220 -0.0737
    1DIPC   D2B 8446  17.920   2.120   5.758  0.3484  0.0820  0.0115
    1DIPC   D3B 8447  17.556   2.324   6.036  0.3531 -0.0989 -0.3027
    1DIPC   C4B 8448  17.725   2.705   6.309 -0.0553  0.1226 -0.3724
    1DIPC   NC3 8449  24.128  24.110   7.538 -0.2409 -0.4564  0.0887
    1DIPC   PO4 8450  24.290  23.717   7.487  0.1739 -0.0912  0.1694
    1DIPC   GL1 8451  24.010  23.627   7.247 -0.2286  0.2079 -0.1172
    1DIPC   GL2 8452  24.070  23.296   7.192  0.1783  0.1173  0.1542
    1DIPC   C1A 8453  23.506  23.613   6.934 -0.0811 -0.1952 -0.2636
    1DIPC   D2A 8454  23.361  24.056   6.954 -0.1713  0.0351 -0.2218
    1DIPC   D3A 8455  23.530  24.444   7.003 -0.1545  0.2394  0.0966
    1DIPC   C4A 8456  23.368  24.835   6.927  0.2484  0.1234 -0.1111
    1DIPC   C1B 8457  24.325  23.128   6.862  0.2027  0.0028 -0.0838
    1DIPC   D2B 8458  24.379  22.801   6.523  0.1130  0.1290 -0.2080
    1DIPC   D3B 8459  24.078  23.086   6.392 -0.0254 -0.0525  0.2013
    1DIPC   C4B 8460  24.462  23.432   6.241 -0.3759  0.0768  0.1788
    1DIPC   NC3 8461  27.256  18.898   7.714  0.0922  0.4483 -0.0876
    1DIPC   PO4 8462  27.105  18.922   7.357 -0.0960  0.2807 -0.3320
    1DIPC   GL1 8463  27.261  18.703   6.930 -0.3046 -0.0524 -0.2028
    1DIPC   GL2 8464  27.117  18.440   6.754  0.1533  0.0633  0.0220
    1DIPC   C1A 8465  27.175  19.017   6.576 -0.2506 -0.0670 -0.0528
    1DIPC   D2A 8466  27.502  19.211   6.310 -0.0445  0.0156  0.5279
    1DIPC   D3A 8467  27.981  19.186   6.020  0.0280 -0.0254 -0.2385
    1DIPC   C4A 8468  28.148  19.011   5.592  0.2479 -0.2137 -0.0145
    1DIPC   C1B 8469  27.446  18.568   6.385 -0.0093 -0.0168  0.2260
    1DIPC   D2B 8470  27.622  18.744   6.068 -0.0655 -0.0617 -0.1494
    1DIPC   D3B 8471  27.637  18.747   5.636  0.3425  0.1090 -0.0299
    1DIPC   C4B 8472  27.580  18.368   5.408 -0.0691 -0.1582  0.1765
    1DIPC   NC3 8473   1.289  18.381   7.075 -0.3144 -0.1261  0.0263
    1DIPC   PO4 8474   1.662  18.463   6.896  0.2541  0.0505  0.0570
    1DIPC   GL1 8475   1.366  18.290   6.588  0.1923  0.1147  0.0273
    1DIPC   GL2 8476   0.978  18.221   6.692  0.1906 -0.0188  0.0525
    1DIPC   C1A 8477   1.205  18.202   6.127 -0.0344 -0.0326 -0.1607
    1DIPC   D2A 8478   0.948  18.016   5.821 -0.2202  0.1283  0.1141
    1DIPC   D3A 8479   0.995  17.916   5.382  0.4097  0.1269 -0.1852
    1DIPC   C4A 8480   0.638  17.746   5.110  0.4834  0.1174 -0.2786
    1DIPC   C1B 8481   0.734  18.092   6.361 -0.3259 -0.3213  0.2100
    1DIPC   D2B 8482   0.474  18.127   5.996 -0.0287  0.2662 -0.0756
    1DIPC   D3B 8483   0.526  18.121   5.559  0.1028 -0.2889 -0.1718
    1DIPC   C4B 8484   0.264  18.191   5.273 -0.1293  0.2904  0.2685
    1DIPC   NC3 8485  22.804  20.537   7.236 -0.0973  0.3502  0.1404
    1DIPC   PO4 8486  22.881  20.775   6.922  0.1605  0.0701 -0.0057
    1DIPC   GL1 8487  22.853  20.618   6.628  0.0483 -0.1988 -0.0273
    1DIPC   GL2 8488  23.130  20.445   6.650  0.0819 -0.0593 -0.1557
    1DIPC   C1A 8489  22.651  20.560   6.219  0.1975  0.0597  0.3317
    1DIPC   D2A 8490  22.429  20.404   5.824  0.0416  0.0452 -0.0882
    1DIPC   D3A 8491  22.821  20.146   5.897  0.0787 -0.0367 -0.2412
    1DIPC   C4A 8492  23.117  19.941   5.688  0.0459  0.2294 -0.2318
    1DIPC   C1B 8493  22.859  20.071   6.602 -0.0300 -0.0082  0.0050
    1DIPC   D2B 8494  22.965  19.657   6.513 -0.0266 -0.0858  0.0955
    1DIPC   D3B 8495  22.549  19.481   6.382  0.0768 -0.0419 -0.1543
    1DIPC   C4B 8496  22.515  19.918   6.214  0.1535 -0.3255 -0.0170
    1DIPC   NC3 8497  13.480   6.490   6.041  0.1106 -0.1508  0.0116
    1DIPC   PO4 8498  13.023   6.486   6.043 -0.3396 -0.0866 -0.1853
    1DIPC   GL1 8499  13.027   6.625   5.633  0.1769 -0.0354 -0.1641
    1DIPC   GL2 8500  12.879   7.033   5.588 -0.1724  0.1235 -0.0892
    1DIPC   C1A 8501  13.414   6.856   5.473 -0.4448  0.2626  0.1362
    1DIPC   D2A 8502  13.569   6.953   5.041  0.1476  0.0105  0.1989
    1DIPC   D3A 8503  13.963   6.931   5.302  0.1748  0.1747  0.1244
    1DIPC   C4A 8504  14.270   6.511   5.299 -0.3413  0.0030  0.2006
    1DIPC   C1B 8505  12.994   7.084   5.148 -0.2507  0.1567  0.1032
    1DIPC   D2B 8506  13.146   6.945   4.809  0.2604 -0.0267  0.0206
    1DIPC   D3B 8507  13.243   7.172   4.480 -0.0645 -0.3741 -0.1059
    1DIPC   C4B 8508  13.004   7.232   4.175 -0.1465 -0.0646  0.0577
    1DIPC   NC3 8509   2.926   1.953   6.073  0.0442 -0.0326  0.1063
    1DIPC   PO4 8510   3.378   1.736   6.167  0.2819  0.2672 -0.0827
    1DIPC   GL1 8511   3.506   1.714   5.738 -0.2191  0.1690  0.2603
    1DIPC   GL2 8512   3.694   1.893   5.542 -0.0810  0.0434  0.2232
    1DIPC   C1A 8513   3.293   1.601   5.419 -0.1293  0.0528  0.1379
    1DIPC   D2A 8514   3.182   1.533   5.028 -0.0859  0.0217 -0.1208
    1DIPC   D3A 8515   3.377   1.899   4.963 -0.0325 -0.2007  0.0193
    1DIPC   C4A 8516   3.645   2.221   5.221  0.1500 -0.0054 -0.1357
    1DIPC   C1B 8517   3.856   1.807   5.042  0.0205 -0.0622  0.0661
    1DIPC   D2B 8518   4.128   1.721   4.655 -0.4798 -0.1249  0.0483
    1DIPC   D3B 8519   3.905   1.640   4.219  0.0940  0.0424  0.4682
    1DIPC   C4B 8520   4.055   1.707   3.821 -0.0173 -0.1300  0.1805
    1DIPC   NC3 8521   6.137  22.058   6.468 -0.3391 -0.0182 -0.0399
    1DIPC   PO4 8522   5.837  21.792   6.751 -0.1018  0.3189  0.4380
    1DIPC   GL1 8523   5.773  21.786   6.253 -0.4076 -0.2035 -0.2382
    1DIPC   GL2 8524   5.942  21.865   6.053  0.2783  0.0411 -0.0752
    1DIPC   C1A 8525   5.848  21.380   5.916 -0.4233  0.0647  0.0956
    1DIPC   D2A 8526   5.784  21.010   5.794  0.0631 -0.2948  0.2612
    1DIPC   D3A 8527   5.835  20.988   5.337 -0.0520  0.0049 -0.0217
    1DIPC   C4A 8528   5.471  21.040   4.972  0.1324  0.0299  0.1218
    1DIPC   C1B 8529   5.887  21.996   5.565  0.0957 -0.0178  0.1291
    1DIPC   D2B 8530   5.439  22.119   5.465 -0.1037 -0.1838  0.2267
    1DIPC   D3B 8531   5.443  22.186   4.959 -0.2863  0.0936  0.0388
    1DIPC   C4B 8532   5.071  22.393   4.793 -0.5210 -0.0999  0.2103
    1DIPC   NC3 8533  11.417   9.857   6.719 -0.0444 -0.2113  0.2731
    1DIPC   PO4 8534  11.103   9.537   6.717 -0.0232 -0.0266  0.1938
    1DIPC   GL1 8535  11.299   9.403   6.409 -0.1276 -0.0360  0.0482
    1DIPC   GL2 8536  11.635   9.180   6.266  0.4254  0.0517 -0.4062
    1DIPC   C1A 8537  11.135   9.360   6.033 -0.1582 -0.1901 -0.2673
    1DIPC   D2A 8538  10.984   9.584   5.742  0.3364 -0.2634 -0.0132
    1DIPC   D3A 8539  10.904   9.456   5.391  0.0680 -0.0333 -0.0202
    1DIPC   C4A 8540  10.519   9.300   5.165 -0.3212 -0.0075  0.0538
    1DIPC   C1B 8541  11.875   9.000   5.920 -0.5983  0.1188  0.1274
    1DIPC   D2B 8542  12.090   9.244   5.502  0.1244  0.1926  0.0148
    1DIPC   D3B 8543  12.018   8.890   5.269  0.0095 -0.3543  0.1733
    1DIPC   C4B 8544  11.984   8.957   4.854  0.0967  0.1455  0.1291
    1DIPC   NC3 8545  16.709  18.191   6.836  0.2732 -0.1035  0.1128
    1DIPC   PO4 8546  16.855  18.727   6.765 -0.1075 -0.2003 -0.0947
    1DIPC   GL1 8547  16.820  18.758   6.359  0.2397  0.2480  0.1121
    1DIPC   GL2 8548  16.812  18.347   6.347 -0.1343  0.1199 -0.0703
    1DIPC   C1A 8549  16.963  18.842   5.876  0.0994  0.1727 -0.0881
    1DIPC   D2A 8550  17.068  18.853   5.461  0.1836  0.3966 -0.1920
    1DIPC   D3A 8551  17.089  18.502   5.179 -0.0199 -0.3979 -0.2494
    1DIPC   C4A 8552  17.256  18.098   5.227  0.1895  0.0654 -0.0316
    1DIPC   C1B 8553  17.055  17.993   6.111 -0.5149 -0.1233 -0.1369
    1DIPC   D2B 8554  17.233  17.919   5.757  0.0495 -0.0154 -0.2518
    1DIPC   D3B 8555  17.577  17.802   5.669 -0.2055 -0.2840 -0.3037
    1DIPC   C4B 8556  17.750  17.486   5.615  0.0180  0.2332  0.2589
    1DIPC   NC3 8557  17.405   3.560   6.248 -0.1724  0.3531  0.0214
    1DIPC   PO4 8558  16.986   3.561   6.275 -0.1688 -0.0339  0.0091
    1DIPC   GL1 8559  17.113   3.739   5.883  0.3558 -0.0007 -0.0534
    1DIPC   GL2 8560  17.032   4.004   5.881 -0.4735 -0.1427 -0.2995
    1DIPC   C1A 8561  17.417   3.575   5.611 -0.1216  0.2987 -0.0636
    1DIPC   D2A 8562  17.545   3.434   5.209 -0.0180 -0.5322 -0.1816
    1DIPC   D3A 8563  17.993   3.637   5.042  0.2120 -0.1055  0.0207
    1DIPC   C4A 8564  18.041   4.036   4.904  0.0861  0.1220  0.0894
    1DIPC   C1B 8565  17.090   3.900   5.420  0.0730  0.1307  0.0280
    1DIPC   D2B 8566  17.016   3.583   5.006 -0.2533  0.0426  0.0370
    1DIPC   D3B 8567  16.676   3.594   4.647  0.2287  0.1004  0.2039
    1DIPC   C4B 8568  16.634   4.011   4.388  0.0313 -0.2369  0.1087
    1DIPC   NC3 8569   6.376  22.659   7.168  0.0123 -0.2266 -0.0610
    1DIPC   PO4 8570   6.112  22.388   6.846  0.3176  0.0618 -0.0553
    1DIPC   GL1 8571   6.017  22.659   6.467 -0.2108 -0.0319 -0.3108
    1DIPC   GL2 8572   6.191  22.766   6.202  0.3787 -0.0543 -0.0340
    1DIPC   C1A 8573   5.769  22.773   6.033  0.1546 -0.4275  0.0177
    1DIPC   D2A 8574   5.949  22.941   5.641 -0.0191  0.1925 -0.1799
    1DIPC   D3A 8575   5.880  22.795   5.209  0.0656  0.0096  0.1653
    1DIPC   C4A 8576   5.477  22.786   4.984  0.0605  0.1595  0.1031
    1DIPC   C1B 8577   6.215  22.455   5.853  0.1338 -0.1657  0.1019
    1DIPC   D2B 8578   6.247  22.414   5.447  0.0972  0.0290 -0.0169
    1DIPC   D3B 8579   5.772  22.442   5.598  0.2702  0.0057  0.2154
    1DIPC   C4B 8580   5.598  22.333   6.059 -0.1850  0.1807  0.3471
    1DIPC   NC3 8581   9.585   4.554   5.614 -0.0411 -0.1682 -0.0203
    1DIPC   PO4 8582   9.666   5.033   5.811  0.0482  0.4728 -0.1717
    1DIPC   GL1 8583  10.000   4.812   5.581  0.0091 -0.1352 -0.0340
    1DIPC   GL2 8584   9.974   4.500   5.377  0.1195 -0.0874  0.2330
    1DIPC   C1A 8585  10.286   4.957   5.327 -0.0783 -0.0633 -0.3696
    1DIPC   D2A 8586  10.368   5.111   4.974  0.0087  0.0227  0.1256
    1DIPC   D3A 8587  10.063   5.396   4.879  0.2716 -0.3434 -0.0918
    1DIPC   C4A 8588   9.708   5.536   4.565  0.1677 -0.0398 -0.0930
    1DIPC   C1B 8589   9.717   4.445   4.929  0.1505 -0.1573  0.3591
    1DIPC   D2B 8590   9.695   4.675   4.535  0.1312 -0.0433  0.0707
    1DIPC   D3B 8591   9.856   5.059   4.545  0.2209 -0.0979  0.0967
    1DIPC   C4B 8592  10.122   5.110   4.276 -0.1208  0.0100 -0.2085
    1DIPC   NC3 8593  13.890  25.253   6.308 -0.0599  0.1736 -0.0363
    1DIPC   PO4 8594  13.611  24.900   6.277 -0.1347 -0.0386  0.4304
    1DIPC   GL1 8595  13.483  25.023   5.867  0.0078 -0.0995 -0.1377
    1DIPC   GL2 8596  13.454  24.733   5.661 -0.1036 -0.0234  0.2259
    1DIPC   C1A 8597  13.216  25.330   5.736 -0.0377 -0.4140 -0.0424
    1DIPC   D2A 8598  13.112  25.705   5.523  0.0209 -0.6043  0.4514
    1DIPC   D3A 8599  13.397  25.518   5.257  0.1111 -0.1601  0.1247
    1DIPC   C4A 8600  13.608  25.138   5.362  0.1467  0.1708 -0.1917
    1DIPC   C1B 8601  13.870  24.590   5.483  0.2493 -0.0709  0.0730
    1DIPC   D2B 8602  14.013  24.383   5.156  0.2253 -0.2639  0.2776
    1DIPC   D3B 8603  14.076  24.467   4.693 -0.0077 -0.0489 -0.2277
    1DIPC   C4B 8604  13.715  24.792   4.520  0.0588 -0.1272 -0.1213
    1DIPC   NC3 8605   7.020   4.067   6.430  0.2360 -0.0265  0.0631
    1DIPC   PO4 8606   7.060   4.063   5.979  0.1425  0.0515 -0.1049
    1DIPC   GL1 8607   7.320   3.782   5.821 -0.1409 -0.0296  0.3998
    1DIPC   GL2 8608   7.586   3.672   5.922 -0.1537 -0.1569  0.1358
    1DIPC   C1A 8609   7.547   3.793   5.425 -0.1633  0.4039 -0.2929
    1DIPC   D2A 8610   7.896   3.815   5.130 -0.2529  0.2913  0.0606
    1DIPC   D3A 8611   7.735   3.382   5.222 -0.0204 -0.0927 -0.1678
    1DIPC   C4A 8612   7.262   3.315   5.458  0.0202  0.2947  0.1808
    1DIPC   C1B 8613   7.871   3.421   5.751  0.2538 -0.0998 -0.2662
    1DIPC   D2B 8614   8.169   3.222   5.455 -0.0255 -0.2223  0.0741
    1DIPC   D3B 8615   8.439   3.528   5.465  0.1292 -0.0080  0.0439
    1DIPC   C4B 8616   8.651   3.597   5.053 -0.5491  0.0574  0.0709
    1DIPC   NC3 8617   2.188   1.858   6.429  0.4023 -0.0223  0.0952
    1DIPC   PO4 8618   2.336   2.178   6.111 -0.0289 -0.0934 -0.1210
    1DIPC   GL1 8619   2.195   2.127   5.663  0.0922  0.0557 -0.0306
    1DIPC   GL2 8620   2.494   2.162   5.654  0.0095 -0.0634  0.2825
    1DIPC   C1A 8621   2.020   2.301   5.269  0.1434  0.0973  0.0697
    1DIPC   D2A 8622   1.718   2.352   4.875  0.1015 -0.1390  0.3054
    1DIPC   D3A 8623   1.795   2.716   4.845  0.0107  0.1355  0.1283
    1DIPC   C4A 8624   1.436   3.008   4.928  0.0188 -0.0346 -0.0114
    1DIPC   C1B 8625   2.550   2.330   5.217 -0.0923 -0.0105 -0.1195
    1DIPC   D2B 8626   2.297   2.489   4.845  0.0621  0.2343  0.1996
    1DIPC   D3B 8627   2.123   2.109   4.615 -0.0786 -0.1114 -0.1272
    1DIPC   C4B 8628   1.704   1.956   4.549  0.1008 -0.2601 -0.0813
    1DIPC   NC3 8629  14.773   9.801   6.957  0.1732  0.0166 -0.0915
    1DIPC   PO4 8630  14.362   9.830   6.679 -0.0547 -0.2622  0.2670
    1DIPC   GL1 8631  14.302   9.803   6.203 -0.0336  0.0433 -0.0195
    1DIPC   GL2 8632  14.406   9.550   5.976  0.1229  0.0133 -0.2641
    1DIPC   C1A 8633  14.453  10.132   5.877  0.0706 -0.0097  0.2220
    1DIPC   D2A 8634  14.821  10.435   5.877 -0.0771  0.3207 -0.1331
    1DIPC   D3A 8635  14.771  10.418   5.483 -0.0586  0.2588  0.0085
    1DIPC   C4A 8636  14.308  10.390   5.448 -0.0741  0.5689 -0.0486
    1DIPC   C1B 8637  14.746   9.365   5.691  0.0072 -0.1094  0.0060
    1DIPC   D2B 8638  15.135   9.489   5.445  0.0064 -0.1252 -0.2877
    1DIPC   D3B 8639  15.066   9.390   4.957 -0.1228 -0.0406 -0.1512
    1DIPC   C4B 8640  14.864   9.062   4.860  0.0893  0.0466 -0.5055
    1DIPC   NC3 8641  12.923  19.431   5.974  0.2025  0.1974  0.2932
    1DIPC   PO4 8642  13.269  19.249   5.922  0.2627 -0.0362 -0.0651
    1DIPC   GL1 8643  13.402  19.182   5.547  0.0306  0.4459  0.1907
    1DIPC   GL2 8644  13.149  19.091   5.270 -0.1788  0.0193 -0.4014
    1DIPC   C1A 8645  13.645  19.084   5.099  0.4639 -0.3259 -0.1238
    1DIPC   D2A 8646  13.784  18.985   4.650 -0.1849 -0.3472  0.2694
    1DIPC   D3A 8647  14.079  19.285   4.756 -0.1126  0.0709 -0.1976
    1DIPC   C4A 8648  14.417  19.394   4.566  0.0139 -0.1139  0.3886
    1DIPC   C1B 8649  13.129  19.104   4.815  0.2098 -0.0248  0.0021
    1DIPC   D2B 8650  13.197  19.242   4.377  0.0859 -0.2218 -0.0278
    1DIPC   D3B 8651  13.220  19.063   4.055  0.1021 -0.3228  0.0847
    1DIPC   C4B 8652  13.101  18.624   3.853 -0.0840  0.1524  0.0395
    1DIPC   NC3 8653   9.650  18.174   6.586  0.0885  0.3681  0.1365
    1DIPC   PO4 8654   9.428  18.443   6.508  0.1183 -0.0279  0.0113
    1DIPC   GL1 8655   9.383  18.286   6.095  0.0413 -0.2116  0.1777
    1DIPC   GL2 8656   9.103  18.149   6.024  0.1713 -0.2143  0.4478
    1DIPC   C1A 8657   9.628  18.249   5.765 -0.4073 -0.1260 -0.0730
    1DIPC   D2A 8658   9.874  18.248   5.476  0.1917 -0.1655 -0.0432
    1DIPC   D3A 8659  10.156  18.394   5.146  0.0695 -0.0734 -0.0204
    1DIPC   C4A 8660  10.045  18.402   4.682 -0.4136 -0.1406  0.0909
    1DIPC   C1B 8661   9.186  18.242   5.530  0.2373 -0.2925 -0.0271
    1DIPC   D2B 8662   9.396  18.047   5.139 -0.2660 -0.1717 -0.3580
    1DIPC   D3B 8663   9.596  18.408   5.042  0.0039  0.2240 -0.1089
    1DIPC   C4B 8664   9.579  18.534   4.607 -0.1447 -0.2164  0.2482
    1DIPC   NC3 8665  15.050  24.759   6.686  0.0135  0.0948  0.2196
    1DIPC   PO4 8666  14.927  24.549   6.284 -0.0423  0.1074 -0.0236
    1DIPC   GL1 8667  14.863  24.343   5.974 -0.0153  0.0614  0.1440
    1DIPC   GL2 8668  14.707  24.057   5.850  0.0236  0.3027 -0.0092
    1DIPC   C1A 8669  14.918  24.575   5.542 -0.0613 -0.0695  0.2115
    1DIPC   D2A 8670  15.156  24.950   5.266  0.6132  0.4329  0.1084
    1DIPC   D3A 8671  15.058  25.217   4.861  0.3954  0.1138 -0.0893
    1DIPC   C4A 8672  15.049  24.836   4.458  0.3625 -0.1478 -0.1222
    1DIPC   C1B 8673  14.657  24.141   5.393  0.0380 -0.0499 -0.0447
    1DIPC   D2B 8674  14.466  24.244   4.996 -0.3025 -0.1177  0.2615
    1DIPC   D3B 8675  14.511  24.043   4.561 -0.1648 -0.2181 -0.0285
    1DIPC   C4B 8676  14.788  23.664   4.558 -0.2645 -0.0549  0.0572
    1DIPC   NC3 8677  23.268  20.406   7.150 -0.2780 -0.3046 -0.1094
    1DIPC   PO4 8678  23.435  20.757   7.002 -0.0622  0.0702 -0.0884
    1DIPC   GL1 8679  23.235  20.964   6.678 -0.0509  0.3870  0.1124
    1DIPC   GL2 8680  23.435  20.867   6.387  0.0284 -0.3541 -0.0150
    1DIPC   C1A 8681  22.987  21.150   6.401 -0.1735 -0.1477  0.1584
    1DIPC   D2A 8682  22.775  21.172   6.006  0.0415 -0.1130  0.0670
    1DIPC   D3A 8683  22.985  21.224   5.676 -0.0272  0.3089 -0.0536
    1DIPC   C4A 8684  23.250  20.913   5.485  0.2375 -0.0457 -0.0969
    1DIPC   C1B 8685  23.119  20.690   6.182  0.3854 -0.1489  0.0718
    1DIPC   D2B 8686  23.002  20.597   5.816 -0.2579 -0.0937  0.1335
    1DIPC   D3B 8687  22.797  20.451   5.448 -0.0497  0.4381  0.1628
    1DIPC   C4B 8688  22.338  20.490   5.323 -0.1595 -0.2205  0.0085
    1DIPC   NC3 8689  11.245  24.863   6.530 -0.1909  0.1583 -0.2639
    1DIPC   PO4 8690  10.744  24.897   6.526  0.1148 -0.2486 -0.3182
    1DIPC   GL1 8691  10.551  24.942   6.113  0.1781  0.0627  0.2304
    1DIPC   GL2 8692  10.574  25.312   6.182 -0.1611  0.0177 -0.0947
    1DIPC   C1A 8693  10.763  25.138   5.779  0.0670 -0.2507  0.0704
    1DIPC   D2A 8694  10.910  25.318   5.330 -0.2988 -0.1439 -0.1547
    1DIPC   D3A 8695  11.252  25.222   5.013 -0.0528 -0.0711  0.0245
    1DIPC   C4A 8696  11.362  24.795   4.792  0.1215  0.1573 -0.2073
    1DIPC   C1B 8697  10.888  25.582   5.925 -0.2176  0.2252  0.0869
    1DIPC   D2B 8698  11.041  25.950   5.746  0.2095 -0.1536 -0.2429
    1DIPC   D3B 8699  10.654  26.005   5.905  0.0376  0.1236 -0.1078
    1DIPC   C4B 8700  10.327  26.185   5.643 -0.1689 -0.0821 -0.0986
    1DIPC   NC3 8701  26.744  19.265   7.245  0.3007  0.0816  0.0809
    1DIPC   PO4 8702  26.495  19.567   7.355 -0.2105 -0.0910 -0.1584
    1DIPC   GL1 8703  26.426  19.544   6.909  0.0191  0.0482  0.0447
    1DIPC   GL2 8704  26.746  19.736   6.905 -0.0112 -0.2230 -0.2047
    1DIPC   C1A 8705  26.496  19.407   6.395 -0.0715 -0.0145 -0.0055
    1DIPC   D2A 8706  26.374  19.096   6.018 -0.1871 -0.3425  0.0069
    1DIPC   D3A 8707  26.155  19.371   5.837 -0.0967  0.1089  0.0446
    1DIPC   C4A 8708  26.182  19.701   6.097  0.1456 -0.0240  0.0674
    1DIPC   C1B 8709  26.970  19.448   6.641  0.0972 -0.1417  0.3237
    1DIPC   D2B 8710  26.966  19.245   6.211 -0.0268 -0.0069  0.2381
    1DIPC   D3B 8711  26.675  19.511   5.955  0.1370 -0.1835  0.0214
    1DIPC   C4B 8712  26.540  19.590   5.481 -0.0883  0.1069  0.0501
    1DIPC   NC3 8713   5.272   8.910   6.147  0.0518  0.0970 -0.1463
    1DIPC   PO4 8714   5.197   9.071   5.736  0.2257  0.0877 -0.3012
    1DIPC   GL1 8715   5.380   9.178   5.270  0.1736 -0.0059 -0.2350
    1DIPC   GL2 8716   5.707   9.233   5.131 -0.2298  0.0252 -0.0119
    1DIPC   C1A 8717   5.294   9.305   4.818  0.1510  0.0740 -0.1940
    1DIPC   D2A 8718   5.146   9.154   4.392 -0.1795  0.0499 -0.1295
    1DIPC   D3A 8719   5.195   9.335   4.097 -0.0533 -0.1642  0.2338
    1DIPC   C4A 8720   5.487   9.627   4.086 -0.0451 -0.2570  0.0601
    1DIPC   C1B 8721   5.747   9.113   4.669  0.0289 -0.0996  0.1454
    1DIPC   D2B 8722   6.033   9.102   4.313 -0.0834  0.0068  0.0881
    1DIPC   D3B 8723   6.175   9.375   4.060 -0.1293  0.1533  0.0981
    1DIPC   C4B 8724   6.106   9.420   3.713 -0.0599  0.1524 -0.0660
    1DIPC   NC3 8725   7.335  27.813   5.951 -0.1869 -0.0320  0.1794
    1DIPC   PO4 8726   6.995  27.914   6.194  0.0460  0.0054  0.2269
    1DIPC   GL1 8727   6.893  28.051   5.775  0.3102 -0.0416  0.0741
    1DIPC   GL2 8728   6.738  28.328   5.739  0.1998 -0.2659 -0.2565
    1DIPC   C1A 8729   7.124  28.235   5.394 -0.0662 -0.1549 -0.2455
    1DIPC   D2A 8730   7.439  28.022   5.154 -0.0483 -0.1392  0.1326
    1DIPC   D3A 8731   7.257  27.724   5.459 -0.0275 -0.1100 -0.0309
    1DIPC   C4A 8732   6.823  27.658   5.485 -0.0968  0.0390  0.1144
    1DIPC   C1B 8733   6.459  28.161   5.380  0.0514  0.2147  0.0517
    1DIPC   D2B 8734   6.198  28.098   4.973 -0.2644  0.0204 -0.0019
    1DIPC   D3B 8735   6.522  27.777   5.126 -0.1426  0.1883  0.0263
    1DIPC   C4B 8736   6.376  27.481   5.464  0.2360  0.0447 -0.1779
    1DIPC   NC3 8737  21.084  28.998   7.256  0.0885 -0.4395  0.0251
    1DIPC   PO4 8738  21.337  29.462   7.382 -0.3876 -0.1351 -0.0414
    1DIPC   GL1 8739  21.264  29.460   6.967  0.1270 -0.0209  0.2181
    1DIPC   GL2 8740  21.398  29.171   6.832  0.0383  0.0190  0.1399
    1DIPC   C1A 8741  21.101  29.519   6.583 -0.0844  0.1360 -0.0964
    1DIPC   D2A 8742  21.035  29.367   6.123  0.1059 -0.0909  0.2620
    1DIPC   D3A 8743  21.395  29.349   5.853  0.1250 -0.2442  0.1714
    1DIPC   C4A 8744  21.613   0.037   5.896  0.0537  0.1681 -0.1859
    1DIPC   C1B 8745  21.261  28.995   6.369 -0.1417  0.0436  0.0927
    1DIPC   D2B 8746  21.026  28.881   5.981  0.0248 -0.2003 -0.1433
    1DIPC   D3B 8747  21.390  28.659   5.829  0.0950 -0.0124  0.1108
    1DIPC   C4B 8748  21.164  28.372   5.469  0.2250 -0.1148  0.0075
    1DIPC   NC3 8749   1.223  11.741   6.565  0.1961 -0.0693  0.2578
    1DIPC   PO4 8750   1.436  11.338   6.390  0.0409  0.0522  0.0176
    1DIPC   GL1 8751   1.465  11.142   5.962 -0.4292 -0.0937 -0.1113
    1DIPC   GL2 8752   1.301  10.959   5.953 -0.0271 -0.1721  0.1160
    1DIPC   C1A 8753   1.337  11.177   5.509 -0.3162  0.3378 -0.0795
    1DIPC   D2A 8754   1.410  11.080   5.059 -0.3306 -0.0544  0.3446
    1DIPC   D3A 8755   1.113  11.212   4.723  0.0645 -0.2397  0.2376
    1DIPC   C4A 8756   1.315  10.993   4.386  0.0948  0.0468 -0.1154
    1DIPC   C1B 8757   1.136  10.608   5.809 -0.0607  0.1081 -0.1933
    1DIPC   D2B 8758   0.778  10.445   5.878  0.0954 -0.0107  0.0415
    1DIPC   D3B 8759   0.864   9.994   5.988  0.0597  0.0880 -0.1963
    1DIPC   C4B 8760   0.470   9.875   6.125 -0.0901 -0.2745 -0.0305
    1DIPC   NC3 8761  11.203  18.608   6.559 -0.1932 -0.2368 -0.0147
    1DIPC   PO4 8762  10.905  18.843   6.303 -0.0686  0.0006 -0.1391
    1DIPC   GL1 8763  10.778  18.711   5.869 -0.0094  0.0748 -0.0350
    1DIPC   GL2 8764  10.396  18.775   5.880 -0.1700  0.1582  0.1556
    1DIPC   C1A 8765  10.961  18.555   5.510  0.2262 -0.1800 -0.0948
    1DIPC   D2A 8766  10.911  18.104   5.313  0.0093 -0.2030  0.1308
    1DIPC   D3A 8767  11.053  18.018   4.957 -0.1782 -0.0706  0.3068
    1DIPC   C4A 8768  10.769  17.846   4.669  0.0256 -0.0141 -0.1894
    1DIPC   C1B 8769  10.504  19.010   5.471 -0.1328 -0.0925  0.1485
    1DIPC   D2B 8770  10.622  19.250   5.075  0.0638  0.3131  0.0347
    1DIPC   D3B 8771  10.661  18.998   4.623  0.2470 -0.1602  0.0597
    1DIPC   C4B 8772  10.480  18.607   4.532 -0.1831 -0.0431  0.2762
    1DIPC   NC3 8773  12.986   8.928   6.916  0.1800  0.2625  0.2210
    1DIPC   PO4 8774  12.700   8.890   6.687 -0.1326  0.0669  0.0438
    1DIPC   GL1 8775  12.642   9.005   6.208 -0.0041 -0.1876 -0.1771
    1DIPC   GL2 8776  12.908   9.287   6.033  0.1881 -0.0190 -0.1080
    1DIPC   C1A 8777  12.310   9.246   5.976  0.4541  0.0019 -0.0120
    1DIPC   D2A 8778  11.923   9.514   6.070 -0.0038 -0.1592  0.2477
    1DIPC   D3A 8779  11.611   9.771   6.253  0.2767 -0.0571 -0.1448
    1DIPC   C4A 8780  11.359   9.895   5.915 -0.0461  0.0027  0.4234
    1DIPC   C1B 8781  13.304   9.294   5.783  0.1443 -0.1068 -0.1165
    1DIPC   D2B 8782  13.401   9.644   5.539 -0.3479  0.0969  0.0816
    1DIPC   D3B 8783  13.747   9.311   5.480 -0.1984  0.0776 -0.1631
    1DIPC   C4B 8784  13.997   9.342   5.148 -0.4982 -0.2343  0.1320
    1DIPC   NC3 8785  28.338  25.433   7.187  0.1297  0.2042  0.0275
    1DIPC   PO4 8786  28.138  25.118   7.016 -0.3463  0.2531 -0.2188
    1DIPC   GL1 8787  28.077  25.056   6.614 -0.1007  0.0545  0.3310
    1DIPC   GL2 8788  27.916  24.863   6.354  0.2264  0.2429 -0.0409
    1DIPC   C1A 8789  28.297  25.130   6.156 -0.0773  0.0589 -0.0737
    1DIPC   D2A 8790  28.044  25.422   5.932 -0.3606 -0.2194 -0.1326
    1DIPC   D3A 8791  28.123  25.378   5.533 -0.1805  0.0952  0.0523
    1DIPC   C4A 8792  27.808  25.306   5.094 -0.0632 -0.0683 -0.2402
    1DIPC   C1B 8793  27.766  24.987   5.948  0.2080 -0.0453  0.0438
    1DIPC   D2B 8794  27.846  24.984   5.546 -0.1602  0.1795 -0.0017
    1DIPC   D3B 8795  27.825  24.811   5.183 -0.1378  0.4108 -0.0287
    1DIPC   C4B 8796  28.186  24.841   4.983 -0.1250 -0.2619  0.1187
    1DIPC   NC3 8797   9.015  25.463   5.827 -0.0034  0.1432  0.1350
    1DIPC   PO4 8798   9.273  25.110   5.915 -0.1468 -0.1113 -0.2923
    1DIPC   GL1 8799   9.313  25.002   5.516 -0.1321 -0.0985  0.1171
    1DIPC   GL2 8800   8.979  25.193   5.428 -0.0668 -0.0885 -0.2779
    1DIPC   C1A 8801   9.388  24.708   5.183 -0.1970  0.1220 -0.1238
    1DIPC   D2A 8802   9.188  24.267   5.215  0.2059 -0.0215 -0.2828
    1DIPC   D3A 8803   8.882  24.253   5.523  0.0647 -0.1177 -0.0276
    1DIPC   C4A 8804   8.548  24.131   5.505 -0.0425 -0.2921 -0.1438
    1DIPC   C1B 8805   9.272  25.383   5.136  0.0987  0.1217  0.1581
    1DIPC   D2B 8806   9.607  25.590   4.801  0.0621 -0.0482 -0.3904
    1DIPC   D3B 8807   9.365  25.651   4.397  0.3319  0.2152 -0.1414
    1DIPC   C4B 8808   9.504  25.477   3.949 -0.1835 -0.3382 -0.0413
    1DIPC   NC3 8809  18.490  18.443   6.745  0.1743  0.0132 -0.1039
    1DIPC   PO4 8810  18.445  18.775   6.550 -0.1383  0.0898  0.1970
    1DIPC   GL1 8811  18.251  18.846   6.146 -0.1063  0.1442  0.0124
    1DIPC   GL2 8812  18.002  18.954   6.197 -0.0265  0.0710  0.0207
    1DIPC   C1A 8813  18.394  18.885   5.791  0.1953 -0.1119  0.2070
    1DIPC   D2A 8814  18.587  18.828   5.422  0.2782  0.0397 -0.0995
    1DIPC   D3A 8815  18.642  19.104   5.122 -0.1846 -0.3806  0.1697
    1DIPC   C4A 8816  18.250  19.328   4.983  0.0737  0.4069 -0.2866
    1DIPC   C1B 8817  17.958  19.093   5.758  0.0994 -0.2504 -0.4145
    1DIPC   D2B 8818  18.228  19.297   5.470 -0.1345 -0.0641 -0.3408
    1DIPC   D3B 8819  18.293  19.680   5.604  0.0688 -0.0155 -0.1794
    1DIPC   C4B 8820  18.448  20.027   5.292 -0.1425  0.0852 -0.0715
    1DIPC   NC3 8821  11.813   6.656   5.905  0.0698 -0.1837 -0.0825
    1DIPC   PO4 8822  11.681   6.875   6.322  0.4010  0.0732 -0.0455
    1DIPC   GL1 8823  11.439   7.012   5.822  0.1012 -0.0002 -0.1476
    1DIPC   GL2 8824  11.431   7.232   5.681  0.1608 -0.3891 -0.1176
    1DIPC   C1A 8825  11.172   6.817   5.466 -0.0547  0.0714  0.1660
    1DIPC   D2A 8826  10.817   6.607   5.351 -0.1310 -0.0085 -0.1377
    1DIPC   D3A 8827  11.145   6.534   5.010 -0.2580  0.1693 -0.1482
    1DIPC   C4A 8828  11.598   6.531   5.297 -0.0454  0.2327 -0.0952
    1DIPC   C1B 8829  11.492   7.114   5.260  0.1996 -0.1023  0.0061
    1DIPC   D2B 8830  11.564   6.790   4.840 -0.0028  0.1541  0.1522
    1DIPC   D3B 8831  11.227   7.037   4.753  0.2383  0.1121  0.2111
    1DIPC   C4B 8832  10.903   7.101   5.123 -0.4827 -0.3277 -0.1271
    1DIPC   NC3 8833  17.636  15.955   7.500 -0.0289  0.6294  0.1041
    1DIPC   PO4 8834  17.673  16.271   7.178 -0.0145  0.3205 -0.1193
    1DIPC   GL1 8835  17.807  16.472   6.854  0.0102  0.0221  0.2109
    1DIPC   GL2 8836  17.601  16.534   6.621  0.0118  0.1947 -0.3827
    1DIPC   C1A 8837  18.173  16.693   6.643  0.0446 -0.3662 -0.3080
    1DIPC   D2A 8838  18.278  17.084   6.642  0.1352 -0.0653  0.0923
    1DIPC   D3A 8839  18.247  16.930   6.130 -0.0852  0.0750 -0.0234
    1DIPC   C4A 8840  17.974  16.602   6.108  0.2052 -0.0788  0.2061
    1DIPC   C1B 8841  17.455  16.619   6.222 -0.2912  0.1005 -0.0920
    1DIPC   D2B 8842  17.601  16.572   5.761 -0.1771  0.1814 -0.3062
    1DIPC   D3B 8843  18.086  16.724   5.626 -0.3782  0.0732  0.0471
    1DIPC   C4B 8844  18.363  16.373   5.704  0.0667  0.2349  0.2411
    1DIPC   NC3 8845  24.052  25.080   7.808 -0.3250 -0.3593 -0.1512
    1DIPC   PO4 8846  24.238  25.037   7.492  0.0325  0.1123  0.1202
    1DIPC   GL1 8847  24.219  24.781   7.120 -0.0608  0.3244  0.1414
    1DIPC   GL2 8848  24.099  24.439   7.145  0.0002 -0.4854 -0.0825
    1DIPC   C1A 8849  24.262  24.919   6.669  0.2515 -0.0614 -0.0466
    1DIPC   D2A 8850  24.208  25.225   6.437  0.0933  0.0606 -0.3052
    1DIPC   D3A 8851  23.946  25.226   6.090 -0.0117  0.0284  0.1002
    1DIPC   C4A 8852  24.101  25.617   5.941  0.2588  0.1089  0.1029
    1DIPC   C1B 8853  24.025  24.488   6.747  0.1166 -0.0924  0.0809
    1DIPC   D2B 8854  23.991  24.428   6.360 -0.3452 -0.0305 -0.1271
    1DIPC   D3B 8855  24.147  24.705   6.224  0.1431  0.2496  0.1739
    1DIPC   C4B 8856  24.408  24.705   5.818 -0.0543 -0.0684 -0.0014
    1DIPC   NC3 8857   2.164  17.109   7.290  0.2945 -0.2204 -0.1109
    1DIPC   PO4 8858   1.871  17.007   7.020 -0.1630  0.1356 -0.0501
    1DIPC   GL1 8859   1.976  17.057   6.601 -0.0144  0.0248  0.0018
    1DIPC   GL2 8860   2.250  17.241   6.573 -0.0981  0.1192 -0.2762
    1DIPC   C1A 8861   2.088  16.938   6.231  0.2444 -0.4339 -0.4016
    1DIPC   D2A 8862   1.902  16.870   5.861  0.1876  0.2610 -0.0014
    1DIPC   D3A 8863   1.545  17.036   6.209  0.2122  0.1309 -0.1175
    1DIPC   C4A 8864   1.262  16.742   6.261 -0.1460  0.3020  0.2780
    1DIPC   C1B 8865   2.555  17.147   6.189 -0.0583 -0.1404 -0.0785
    1DIPC   D2B 8866   2.845  17.289   5.815  0.0067 -0.3086 -0.1060
    1DIPC   D3B 8867   3.164  17.407   5.667 -0.0987  0.2671 -0.0640
    1DIPC   C4B 8868   3.231  17.713   5.335  0.1702  0.3873  0.0098
    1DIPC   NC3 8869   3.311   2.627   6.225  0.2446 -0.2509 -0.0371
    1DIPC   PO4 8870   3.310   2.249   6.199 -0.2214 -0.1770  0.0840
    1DIPC   GL1 8871   3.362   2.191   5.743  0.0176  0.0893 -0.0041
    1DIPC   GL2 8872   3.057   1.942   5.585  0.0118  0.1483  0.1010
    1DIPC   C1A 8873   3.071   2.361   5.437  0.1181 -0.1835  0.4255
    1DIPC   D2A 8874   3.011   2.252   5.027  0.1320 -0.2071 -0.0290
    1DIPC   D3A 8875   2.819   2.505   4.693 -0.1059 -0.1010 -0.3048
    1DIPC   C4A 8876   2.511   2.787   4.557  0.1623 -0.1744 -0.2187
    1DIPC   C1B 8877   2.716   1.833   5.317  0.1217  0.2127 -0.3737
    1DIPC   D2B 8878   2.573   1.929   4.881  0.2709  0.0061  0.0799
    1DIPC   D3B 8879   2.969   1.789   4.650 -0.1352 -0.1529 -0.3928
    1DIPC   C4B 8880   3.191   2.209   4.441 -0.4318  0.2689  0.2648
    1DIPC   NC3 8881  18.249  21.202   6.847 -0.1453 -0.0512 -0.2210
    1DIPC   PO4 8882  17.859  21.259   6.759 -0.0381  0.3547  0.2225
    1DIPC   GL1 8883  18.190  21.382   6.428 -0.0207  0.2915 -0.0709
    1DIPC   GL2 8884  18.445  21.597   6.514 -0.0754  0.2001  0.1693
    1DIPC   C1A 8885  18.323  21.424   6.067 -0.1555  0.2161  0.0632
    1DIPC   D2A 8886  18.301  21.812   5.763  0.0307 -0.2089 -0.0697
    1DIPC   D3A 8887  18.724  21.889   5.732  0.1069 -0.2008 -0.2034
    1DIPC   C4A 8888  18.914  22.006   5.305  0.2224  0.0768 -0.1825
    1DIPC   C1B 8889  18.828  21.910   6.664 -0.0923 -0.1118  0.0462
    1DIPC   D2B 8890  19.130  22.275   6.479 -0.0358 -0.1006 -0.1915
    1DIPC   D3B 8891  19.168  22.670   6.227  0.0950 -0.2607  0.2089
    1DIPC   C4B 8892  19.089  23.154   6.319 -0.0156  0.0015  0.0311
    1DIPC   NC3 8893  16.733  29.477   6.885 -0.0529 -0.0627  0.2004
    1DIPC   PO4 8894  16.424   0.025   6.576  0.0498 -0.0536 -0.2349
    1DIPC   GL1 8895  16.640  29.417   6.273  0.1584  0.0697  0.4704
    1DIPC   GL2 8896  16.858  29.178   6.456 -0.1393  0.1318 -0.1546
    1DIPC   C1A 8897  17.003  29.508   6.031  0.1201  0.0078  0.3380
    1DIPC   D2A 8898  16.967  29.452   5.586  0.1939 -0.1631 -0.0886
    1DIPC   D3A 8899  17.354  29.170   5.643  0.0343 -0.0179 -0.0841
    1DIPC   C4A 8900  17.647  29.271   5.271  0.0536 -0.1048 -0.1449
    1DIPC   C1B 8901  16.912  28.959   6.071 -0.3498  0.0633 -0.0643
    1DIPC   D2B 8902  16.836  28.646   5.768  0.0611 -0.2677  0.0041
    1DIPC   D3B 8903  16.929  28.787   5.438 -0.0044 -0.1009 -0.0188
    1DIPC   C4B 8904  17.387  28.812   5.300 -0.0662  0.2181 -0.1301
    1DIPC   NC3 8905  13.887  29.594   6.313 -0.1336  0.0497 -0.2969
    1DIPC   PO4 8906  14.080   0.294   6.556  0.0669 -0.1529  0.0037
    1DIPC   GL1 8907  14.183   0.371   6.168  0.2038 -0.1067  0.3767
    1DIPC   GL2 8908  14.122   0.751   6.048 -0.1139 -0.1554 -0.1921
    1DIPC   C1A 8909  14.619   0.358   6.065  0.2474  0.1802 -0.1903
    1DIPC   D2A 8910  14.778   0.192   5.656 -0.1372 -0.1998  0.2589
    1DIPC   D3A 8911  15.136   0.412   5.493  0.0029  0.2470  0.0915
    1DIPC   C4A 8912  15.154   0.860   5.262 -0.1098 -0.1366 -0.2930
    1DIPC   C1B 8913  14.257   0.762   5.577  0.0682 -0.0005 -0.1799
    1DIPC   D2B 8914  14.329   1.089   5.327  0.1727 -0.0931  0.0073
    1DIPC   D3B 8915  14.470   1.075   4.912 -0.3223 -0.3685 -0.2026
    1DIPC   C4B 8916  14.578   1.124   4.450  0.1665 -0.1162  0.0914
    1DIPC   NC3 8917   4.406  15.594   6.844 -0.1853 -0.0311 -0.2041
    1DIPC   PO4 8918   4.246  15.830   6.443 -0.4804  0.1408 -0.1138
    1DIPC   GL1 8919   4.031  15.888   6.120  0.0507  0.0682 -0.0376
    1DIPC   GL2 8920   4.160  16.211   6.071  0.0479  0.0293  0.0720
    1DIPC   C1A 8921   3.909  15.880   5.676  0.0229  0.0882  0.1482
    1DIPC   D2A 8922   4.032  15.897   5.198  0.2247 -0.2238 -0.1652
    1DIPC   D3A 8923   4.506  15.925   5.216 -0.3378  0.0329 -0.2596
    1DIPC   C4A 8924   4.508  15.817   5.651  0.2114  0.1822  0.1675
    1DIPC   C1B 8925   4.284  16.254   5.616  0.3201  0.0944 -0.3513
    1DIPC   D2B 8926   4.254  16.337   5.116 -0.0985 -0.0995  0.0436
    1DIPC   D3B 8927   3.990  16.313   4.775 -0.0271 -0.1417  0.0140
    1DIPC   C4B 8928   3.945  15.880   4.693  0.0737 -0.3254 -0.1869
    1DIPC   NC3 8929  23.718  19.004   7.292  0.0208 -0.4054  0.1722
    1DIPC   PO4 8930  23.392  19.043   7.118 -0.3659 -0.1257 -0.1004
    1DIPC   GL1 8931  23.223  19.070   6.733 -0.0519 -0.0702  0.1823
    1DIPC   GL2 8932  23.167  18.788   6.522 -0.0285  0.0414  0.2085
    1DIPC   C1A 8933  23.435  19.271   6.220  0.0301 -0.0727  0.4106
    1DIPC   D2A 8934  23.218  19.471   5.952  0.3304 -0.1734  0.2235
    1DIPC   D3A 8935  23.205  19.441   5.580  0.1981  0.0072 -0.1153
    1DIPC   C4A 8936  22.896  19.466   5.397 -0.0496  0.0202 -0.0969
    1DIPC   C1B 8937  23.140  18.373   6.217  0.3258 -0.0922  0.2323
    1DIPC   D2B 8938  23.278  18.405   5.831  0.0212  0.3276 -0.1953
    1DIPC   D3B 8939  23.450  18.739   6.049 -0.2581  0.0523 -0.0470
    1DIPC   C4B 8940  23.092  19.001   5.736  0.0775  0.4170  0.1128
    1DIPC   NC3 8941   3.702   0.113   6.631  0.2016 -0.2260 -0.0684
    1DIPC   PO4 8942   4.069   0.415   6.546 -0.3639  0.1956 -0.1032
    1DIPC   GL1 8943   4.308   0.353   6.106  0.3296 -0.0315 -0.2537
    1DIPC   GL2 8944   4.040   0.370   5.765  0.0084 -0.1070  0.0172
    1DIPC   C1A 8945   4.463   0.649   5.870 -0.0822  0.2006  0.0651
    1DIPC   D2A 8946   4.803   0.914   5.653  0.0726 -0.1723  0.1800
    1DIPC   D3A 8947   4.699   0.666   5.397 -0.0557  0.2793 -0.0601
    1DIPC   C4A 8948   4.662   0.655   4.910  0.0684  0.1871 -0.0273
    1DIPC   C1B 8949   4.439   0.216   5.635 -0.0956  0.0733  0.0513
    1DIPC   D2B 8950   4.676   0.166   5.250  0.5743 -0.1698  0.1872
    1DIPC   D3B 8951   4.328   0.261   4.996 -0.1561  0.2327 -0.0184
    1DIPC   C4B 8952   3.987   0.003   4.872  0.0031  0.2187  0.1242
    1DIPC   NC3 8953  21.919  22.614   7.538 -0.0699  0.1881  0.1955
    1DIPC   PO4 8954  22.084  23.043   7.710  0.1386 -0.1832 -0.0002
    1DIPC   GL1 8955  22.345  23.160   7.452  0.1941 -0.0611 -0.3497
    1DIPC   GL2 8956  22.670  23.129   7.472 -0.2631 -0.0716  0.0686
    1DIPC   C1A 8957  22.524  22.934   7.080 -0.3758 -0.1665  0.1203
    1DIPC   D2A 8958  22.906  22.835   6.839  0.0816  0.3779 -0.3279
    1DIPC   D3A 8959  22.961  22.906   6.368  0.3514 -0.0512  0.1102
    1DIPC   C4A 8960  22.791  22.593   6.086  0.1866 -0.1279  0.1565
    1DIPC   C1B 8961  22.941  23.324   7.061  0.3524 -0.0566  0.0267
    1DIPC   D2B 8962  23.082  23.356   6.617  0.2920  0.2336 -0.1457
    1DIPC   D3B 8963  23.207  23.790   6.546  0.0255 -0.1838  0.2608
    1DIPC   C4B 8964  23.505  23.751   6.113  0.1893  0.0011 -0.2304
    1DIPC   NC3 8965   8.238  24.324   6.485 -0.0435  0.0580 -0.0742
    1DIPC   PO4 8966   8.031  24.640   6.209 -0.0440  0.0068  0.4634
    1DIPC   GL1 8967   8.265  24.505   5.867 -0.0403 -0.0339 -0.1613
    1DIPC   GL2 8968   8.081  24.344   5.765 -0.2606 -0.5350 -0.2202
    1DIPC   C1A 8969   8.392  24.616   5.433 -0.0835  0.2528 -0.0797
    1DIPC   D2A 8970   8.807  24.738   5.296  0.0038  0.0003  0.3570
    1DIPC   D3A 8971   9.035  24.598   4.848  0.1427  0.1834  0.0747
    1DIPC   C4A 8972   9.382  24.780   4.563 -0.0372 -0.1124  0.0079
    1DIPC   C1B 8973   7.914  24.301   5.340 -0.0811  0.0622 -0.2055
    1DIPC   D2B 8974   7.785  24.121   4.961  0.0441 -0.3321 -0.0121
    1DIPC   D3B 8975   7.874  24.563   4.886  0.1969 -0.1916  0.0608
    1DIPC   C4B 8976   7.504  24.788   5.002  0.3322  0.1738 -0.1043
    1DIPC   NC3 8977  15.498   3.059   6.366  0.0397  0.2150  0.0536
    1DIPC   PO4 8978  16.001   3.143   6.167 -0.3348  0.2370  0.1154
    1DIPC   GL1 8979  16.107   3.262   5.692  0.0283  0.0290 -0.0540
    1DIPC   GL2 8980  16.441   3.269   5.663  0.1953  0.1549 -0.1926
    1DIPC   C1A 8981  15.941   3.174   5.282 -0.2199  0.2328 -0.1509
    1DIPC   D2A 8982  15.718   3.432   5.025 -0.1111  0.1718  0.3818
    1DIPC   D3A 8983  15.300   3.380   4.919 -0.0540  0.1834 -0.0023
    1DIPC   C4A 8984  15.069   3.723   4.922  0.3060 -0.3405 -0.1854
    1DIPC   C1B 8985  16.439   2.906   5.496 -0.0161 -0.0818  0.1669
    1DIPC   D2B 8986  16.790   2.718   5.239 -0.3311 -0.0424 -0.0289
    1DIPC   D3B 8987  16.738   3.156   5.000  0.3003  0.0767 -0.0646
    1DIPC   C4B 8988  17.142   3.228   4.680 -0.1743 -0.3184  0.1039
    1DIPC   NC3 8989  15.815  28.457   7.056  0.0455 -0.0348 -0.1532
    1DIPC   PO4 8990  15.780  28.121   6.760 -0.1054 -0.1110 -0.1268
    1DIPC   GL1 8991  15.798  27.967   6.374  0.1833 -0.3434  0.3732
    1DIPC   GL2 8992  16.111  27.925   6.435 -0.3053 -0.1126 -0.2495
    1DIPC   C1A 8993  15.545  27.950   6.030  0.0104 -0.0489 -0.1323
    1DIPC   D2A 8994  15.537  27.667   5.620 -0.0787 -0.1326  0.2985
    1DIPC   D3A 8995  15.743  27.711   5.255  0.0418 -0.1834  0.1371
    1DIPC   C4A 8996  15.559  27.306   5.174  0.0395 -0.1773 -0.0378
    1DIPC   C1B 8997  16.510  27.856   6.129  0.0483  0.0088 -0.0920
    1DIPC   D2B 8998  16.600  27.981   5.710  0.3061  0.1358 -0.0321
    1DIPC   D3B 8999  16.197  27.880   5.636  0.0837  0.0718  0.2231
    1DIPC   C4B 9000  15.971  27.681   5.924 -0.1138 -0.1355 -0.4052
    1DIPC   NC3 9001  15.480  23.737   6.823  0.0217 -0.0142  0.1996
    1DIPC   PO4 9002  15.576  23.830   6.402  0.3230  0.0359  0.2368
    1DIPC   GL1 9003  15.481  23.947   6.011  0.1590  0.0337  0.2590
    1DIPC   GL2 9004  15.201  23.920   5.911  0.5224  0.2241  0.3101
    1DIPC   C1A 9005  15.618  23.905   5.600 -0.0523 -0.0111 -0.0413
    1DIPC   D2A 9006  16.003  24.042   5.469 -0.1093  0.2911  0.1131
    1DIPC   D3A 9007  16.155  23.977   4.998  0.1794  0.0803 -0.0378
    1DIPC   C4A 9008  16.416  23.580   4.962  0.0934 -0.0969 -0.1845
    1DIPC   C1B 9009  15.159  24.049   5.475 -0.0060 -0.4800  0.1591
    1DIPC   D2B 9010  15.034  24.314   5.110 -0.4103 -0.0649 -0.0393
    1DIPC   D3B 9011  14.763  24.700   5.058 -0.2402 -0.0110  0.0501
    1DIPC   C4B 9012  14.590  25.177   5.019 -0.1907  0.1365  0.0486
    1DIPC   NC3 9013  21.691  16.972   7.372  0.0054  0.1794  0.1271
    1DIPC   PO4 9014  21.447  16.624   7.470  0.1493  0.0323  0.2763
    1DIPC   GL1 9015  21.441  16.670   6.990 -0.0243 -0.1254 -0.0347
    1DIPC   GL2 9016  21.692  16.733   6.779  0.2491 -0.1292 -0.0080
    1DIPC   C1A 9017  21.172  16.812   6.708  0.0402  0.2484  0.0739
    1DIPC   D2A 9018  20.782  16.846   6.565 -0.0535 -0.0031  0.1838
    1DIPC   D3A 9019  20.672  16.975   6.087 -0.0077  0.0302  0.0871
    1DIPC   C4A 9020  20.255  16.814   5.946  0.3293  0.2534 -0.0361
    1DIPC   C1B 9021  21.601  16.634   6.343 -0.2079 -0.0435  0.0176
    1DIPC   D2B 9022  21.311  16.601   6.074  0.3735 -0.0120  0.0374
    1DIPC   D3B 9023  21.045  16.369   6.375 -0.2367 -0.2887 -0.0441
    1DIPC   C4B 9024  21.326  16.280   6.772  0.0089 -0.0636 -0.0724
    1DIPC   NC3 9025  15.279  22.080   6.597  0.1931  0.0728  0.0162
    1DIPC   PO4 9026  14.826  22.121   6.518  0.4236 -0.0115  0.2872
    1DIPC   GL1 9027  14.904  22.106   6.079  0.1068 -0.0646  0.1011
    1DIPC   GL2 9028  15.178  22.015   6.049  0.3174 -0.0179  0.0041
    1DIPC   C1A 9029  15.008  22.242   5.641  0.0571  0.1191  0.2773
    1DIPC   D2A 9030  15.166  22.101   5.238 -0.0979  0.1446  0.2475
    1DIPC   D3A 9031  15.281  22.206   4.872 -0.1123  0.0107 -0.0610
    1DIPC   C4A 9032  15.681  22.251   4.960 -0.1621  0.1429  0.2325
    1DIPC   C1B 9033  15.468  21.881   5.821  0.0326 -0.1883  0.1941
    1DIPC   D2B 9034  15.655  21.992   5.408 -0.1466 -0.0329  0.0679
    1DIPC   D3B 9035  16.081  22.128   5.244  0.2510 -0.0708  0.0742
    1DIPC   C4B 9036  16.342  21.880   5.426  0.1714 -0.0447  0.3249
    1DIPC   NC3 9037   8.619  10.402   6.067  0.0511  0.1170 -0.4181
    1DIPC   PO4 9038   8.846  10.369   5.777 -0.1177 -0.2449 -0.1041
    1DIPC   GL1 9039   8.670  10.718   5.582  0.0485  0.3288  0.0272
    1DIPC   GL2 9040   8.504  11.025   5.633 -0.1966 -0.2102  0.0992
    1DIPC   C1A 9041   8.918  11.021   5.351 -0.2278  0.0836  0.2741
    1DIPC   D2A 9042   9.213  11.291   5.212  0.4611  0.0090 -0.2593
    1DIPC   D3A 9043   9.355  10.917   4.834 -0.2732 -0.1157  0.2681
    1DIPC   C4A 9044   9.182  10.563   4.719  0.0506 -0.0970  0.0039
    1DIPC   C1B 9045   8.423  10.936   5.198  0.1401 -0.2259 -0.1871
    1DIPC   D2B 9046   8.338  11.101   4.802 -0.2078  0.1818 -0.0238
    1DIPC   D3B 9047   7.935  11.017   4.927 -0.0510  0.0968 -0.1051
    1DIPC   C4B 9048   7.651  11.320   5.154 -0.1194 -0.2769  0.0950
    1DIPC   NC3 9049   2.899   5.025   6.114 -0.0921  0.0310 -0.0092
    1DIPC   PO4 9050   2.686   5.316   5.979  0.0047  0.1761 -0.0356
    1DIPC   GL1 9051   2.770   5.411   5.533  0.0220  0.0898  0.2684
    1DIPC   GL2 9052   2.858   5.752   5.631  0.1621  0.0194 -0.1148
    1DIPC   C1A 9053   2.889   5.214   5.260 -0.2281  0.1829 -0.1459
    1DIPC   D2A 9054   2.855   4.807   4.991 -0.0117  0.1236  0.0955
    1DIPC   D3A 9055   3.046   4.995   4.602 -0.2974  0.3097 -0.0885
    1DIPC   C4A 9056   3.132   4.721   4.150 -0.1480 -0.1764 -0.2163
    1DIPC   C1B 9057   3.026   5.755   5.181  0.0462  0.0890  0.2475
    1DIPC   D2B 9058   3.028   5.578   4.779  0.0093 -0.0168 -0.0397
    1DIPC   D3B 9059   3.335   5.283   4.932  0.1603 -0.0813  0.1011
    1DIPC   C4B 9060   3.331   4.883   4.960  0.0192  0.1580 -0.0841
    1DIPC   NC3 9061  12.333  19.214   5.812  0.1279 -0.2130  0.2041
    1DIPC   PO4 9062  12.524  19.592   5.728 -0.1071 -0.1376  0.1914
    1DIPC   GL1 9063  12.577  19.960   5.481  0.2207 -0.0260  0.3353
    1DIPC   GL2 9064  12.825  20.154   5.512  0.0427  0.1073 -0.2083
    1DIPC   C1A 9065  12.479  19.965   4.949 -0.0653  0.1091 -0.0849
    1DIPC   D2A 9066  12.371  20.042   4.472  0.0189  0.0339 -0.2055
    1DIPC   D3A 9067  12.595  20.448   4.395 -0.3528  0.2155  0.2134
    1DIPC   C4A 9068  12.692  20.729   4.640 -0.0368  0.1469  0.0921
    1DIPC   C1B 9069  12.991  19.873   5.084 -0.1294 -0.1831 -0.1773
    1DIPC   D2B 9070  13.202  19.534   4.996  0.2282  0.3609 -0.0346
    1DIPC   D3B 9071  12.890  19.620   4.634 -0.3043  0.3090  0.0441
    1DIPC   C4B 9072  12.860  20.014   4.573  0.0805  0.4853 -0.1092
    1DIPC   NC3 9073  18.803  25.903   7.573  0.0063  0.0625 -0.0274
    1DIPC   PO4 9074  19.093  26.199   7.512 -0.2324 -0.1029 -0.1198
    1DIPC   GL1 9075  19.078  25.991   7.139 -0.0858 -0.1049  0.0081
    1DIPC   GL2 9076  19.129  26.320   6.917 -0.3451 -0.1273 -0.1479
    1DIPC   C1A 9077  19.106  25.765   6.684 -0.0438  0.1401  0.2550
    1DIPC   D2A 9078  19.046  25.939   6.330 -0.0347 -0.0675 -0.0042
    1DIPC   D3A 9079  18.974  25.775   5.876 -0.2328  0.4475  0.1572
    1DIPC   C4A 9080  19.213  25.362   5.748  0.2763 -0.1716 -0.0511
    1DIPC   C1B 9081  19.378  26.213   6.716 -0.2711 -0.4204 -0.0037
    1DIPC   D2B 9082  19.459  26.150   6.288 -0.1373 -0.0790 -0.0369
    1DIPC   D3B 9083  19.453  25.703   6.049  0.0350  0.0551 -0.0137
    1DIPC   C4B 9084  19.728  25.385   6.067 -0.0966 -0.1641  0.0531
    1DIPC   NC3 9085  18.714  26.862   7.798 -0.0157 -0.3022 -0.1835
    1DIPC   PO4 9086  18.811  27.162   7.365 -0.1688  0.3121 -0.2097
    1DIPC   GL1 9087  18.711  27.366   6.901 -0.0707 -0.1245 -0.3308
    1DIPC   GL2 9088  19.013  27.220   6.666  0.1219 -0.2423  0.0595
    1DIPC   C1A 9089  18.649  27.519   6.507 -0.0063  0.1875  0.2186
    1DIPC   D2A 9090  18.920  27.504   6.064  0.2442 -0.2927  0.2518
    1DIPC   D3A 9091  18.665  27.200   5.869  0.1683 -0.2089 -0.0681
    1DIPC   C4A 9092  18.969  26.832   5.799  0.0502 -0.2327  0.1780
    1DIPC   C1B 9093  19.089  26.896   6.382  0.3483 -0.0042  0.3477
    1DIPC   D2B 9094  19.091  26.483   6.277 -0.1443 -0.1321  0.3697
    1DIPC   D3B 9095  18.804  26.401   6.566  0.0044  0.1766 -0.1643
    1DIPC   C4B 9096  18.392  26.431   6.551 -0.2135  0.2107  0.2701
    1DIPC   NC3 9097  12.389  27.602   6.159  0.1122 -0.1059  0.1593
    1DIPC   PO4 9098  12.769  27.748   6.076 -0.1624 -0.1142  0.2159
    1DIPC   GL1 9099  12.974  28.012   5.716  0.1492  0.0934 -0.0858
    1DIPC   GL2 9100  13.031  27.668   5.438 -0.0564  0.2384 -0.1055
    1DIPC   C1A 9101  12.671  28.395   5.419  0.0377  0.3232  0.4051
    1DIPC   D2A 9102  12.404  28.571   5.409 -0.1329  0.1497  0.0452
    1DIPC   D3A 9103  12.439  28.638   5.007 -0.2079  0.1464  0.0827
    1DIPC   C4A 9104  12.324  29.073   4.870  0.0259  0.0878  0.3015
    1DIPC   C1B 9105  12.976  27.564   4.995 -0.1635 -0.3487  0.5358
    1DIPC   D2B 9106  12.927  27.834   4.678  0.2484 -0.0139  0.4088
    1DIPC   D3B 9107  12.919  27.356   4.551  0.0757 -0.0975 -0.0954
    1DIPC   C4B 9108  13.003  27.117   4.808 -0.3362  0.3172 -0.3162
    1DIPC   NC3 9109  27.786  10.642   7.225  0.4557 -0.2388  0.1964
    1DIPC   PO4 9110  27.707  10.248   7.032 -0.0033  0.0508  0.0944
    1DIPC   GL1 9111  27.678  10.492   6.678 -0.0236  0.1679  0.0827
    1DIPC   GL2 9112  27.981  10.648   6.592 -0.2041 -0.1032  0.0594
    1DIPC   C1A 9113  27.558  10.494   6.178 -0.0533  0.0348 -0.1288
    1DIPC   D2A 9114  27.458  10.490   5.822 -0.0810  0.1688  0.1055
    1DIPC   D3A 9115  27.636  10.653   5.484  0.0010 -0.0439 -0.0723
    1DIPC   C4A 9116  28.023  10.915   5.324 -0.3227  0.0017  0.0307
    1DIPC   C1B 9117  28.064  10.534   6.151 -0.0252  0.1314 -0.0980
    1DIPC   D2B 9118  28.053  10.686   5.791 -0.1126 -0.2809 -0.0375
    1DIPC   D3B 9119  27.747  10.916   5.919 -0.0324  0.0152 -0.1248
    1DIPC   C4B 9120  27.861  11.067   6.349 -0.1909 -0.1176 -0.1805
    1DIPC   NC3 9121   8.524   0.368   5.663 -0.0691  0.2680 -0.1024
    1DIPC   PO4 9122   8.125   0.235   5.669 -0.0911  0.4743 -0.0174
    1DIPC   GL1 9123   7.714   0.390   5.472 -0.3989 -0.2383  0.0065
    1DIPC   GL2 9124   7.699   0.066   5.293  0.0757  0.1669  0.2062
    1DIPC   C1A 9125   7.248   0.362   5.392 -0.0071  0.0027  0.0166
    1DIPC   D2A 9126   6.924   0.199   5.053 -0.1115 -0.0404 -0.0913
    1DIPC   D3A 9127   7.259   0.092   4.751 -0.0146  0.2212 -0.0302
    1DIPC   C4A 9128   7.274  29.591   4.332 -0.1098 -0.0632 -0.0544
    1DIPC   C1B 9129   7.670   0.288   4.866  0.0759  0.0693  0.0417
    1DIPC   D2B 9130   7.647   0.423   4.394  0.2109  0.1765  0.1251
    1DIPC   D3B 9131   7.186   0.467   4.357 -0.0172  0.1292  0.1925
    1DIPC   C4B 9132   6.918   0.282   3.991 -0.0555 -0.0030  0.0550
    1DIPC   NC3 9133   6.864  15.863   5.972 -0.0116 -0.1710  0.0025
    1DIPC   PO4 9134   6.562  15.516   5.992 -0.0857  0.1825  0.1447
    1DIPC   GL1 9135   6.585  15.718   5.518  0.1428  0.3956  0.0431
    1DIPC   GL2 9136   6.856  16.086   5.523 -0.0386  0.2930  0.4366
    1DIPC   C1A 9137   6.843  15.685   5.193 -0.1287  0.1207  0.0264
    1DIPC   D2A 9138   7.196  15.486   4.928  0.1761  0.1300 -0.0470
    1DIPC   D3A 9139   7.481  15.925   4.918  0.2561 -0.1890  0.2567
    1DIPC   C4A 9140   7.312  16.198   5.067  0.3242  0.2944 -0.1170
    1DIPC   C1B 9141   6.799  16.245   5.202  0.4427  0.0534 -0.1837
    1DIPC   D2B 9142   6.923  16.367   4.804  0.0342  0.2782 -0.1725
    1DIPC   D3B 9143   6.705  16.037   4.546 -0.3372 -0.0525  0.3207
    1DIPC   C4B 9144   6.260  16.024   4.441 -0.2566  0.0714 -0.1739
    1DIPC   NC3 9145  21.313  26.136   7.443  0.0041  0.2274  0.3822
    1DIPC   PO4 9146  21.615  26.435   7.454  0.2050 -0.0931 -0.0683
    1DIPC   GL1 9147  21.722  26.450   7.128  0.1059  0.1338  0.0093
    1DIPC   GL2 9148  21.634  26.094   7.014  0.0477  0.2898  0.1051
    1DIPC   C1A 9149  21.624  26.729   6.782 -0.0844 -0.0880  0.0303
    1DIPC   D2A 9150  21.300  26.880   6.622  0.2259 -0.0487  0.1166
    1DIPC   D3A 9151  21.378  27.222   6.366  0.2021  0.3808 -0.1038
    1DIPC   C4A 9152  21.148  27.593   6.298  0.2454 -0.1140  0.0716
    1DIPC   C1B 9153  21.498  26.202   6.610 -0.0130  0.3452 -0.1295
    1DIPC   D2B 9154  21.127  26.029   6.329  0.2010  0.3089  0.2426
    1DIPC   D3B 9155  20.872  25.876   6.679 -0.0691  0.0416  0.0296
    1DIPC   C4B 9156  21.152  25.760   6.978  0.0482  0.2492  0.1499
    1DIPC   NC3 9157  12.609  12.464   6.417  0.1829 -0.2214 -0.0906
    1DIPC   PO4 9158  13.012  12.709   6.370 -0.0056  0.3380  0.1156
    1DIPC   GL1 9159  13.164  12.621   5.900  0.1427  0.0592  0.1213
    1DIPC   GL2 9160  13.147  12.341   5.791 -0.0151  0.1920  0.4259
    1DIPC   C1A 9161  13.190  12.806   5.486  0.1434 -0.0335  0.3612
    1DIPC   D2A 9162  13.333  12.792   5.124  0.1406 -0.1938  0.0726
    1DIPC   D3A 9163  13.296  12.619   4.658  0.3877  0.0844  0.0654
    1DIPC   C4A 9164  13.100  12.246   4.569 -0.0235  0.0614 -0.0186
    1DIPC   C1B 9165  13.489  12.428   5.566  0.2588 -0.0053  0.1912
    1DIPC   D2B 9166  13.834  12.522   5.297  0.2737 -0.1304 -0.0645
    1DIPC   D3B 9167  13.988  12.186   5.072  0.1436  0.1517  0.0482
    1DIPC   C4B 9168  14.104  12.111   4.662 -0.3807 -0.0439  0.1439
    1DIPC   NC3 9169  27.132  25.127   7.044 -0.1511  0.0707  0.1275
    1DIPC   PO4 9170  26.704  25.175   7.131  0.0375 -0.0226 -0.1172
    1DIPC   GL1 9171  26.703  25.302   6.662  0.1224  0.1231  0.0719
    1DIPC   GL2 9172  26.770  25.556   6.517  0.1617  0.0010  0.2519
    1DIPC   C1A 9173  26.740  25.158   6.254  0.1984 -0.0363 -0.0708
    1DIPC   D2A 9174  26.522  24.801   6.002  0.0977  0.2406  0.2154
    1DIPC   D3A 9175  26.508  24.880   5.631  0.0557 -0.0695 -0.2758
    1DIPC   C4A 9176  26.195  24.778   5.396  0.1132 -0.1143 -0.3809
    1DIPC   C1B 9177  26.281  25.613   6.700 -0.0368 -0.1597 -0.0640
    1DIPC   D2B 9178  25.841  25.574   6.461 -0.2049  0.0322 -0.0274
    1DIPC   D3B 9179  26.009  25.814   6.087 -0.3038 -0.6685  0.0327
    1DIPC   C4B 9180  26.422  25.598   6.220  0.0129  0.2290 -0.1801
    1DIPC   NC3 9181  17.168  23.912   6.789  0.1418 -0.1146  0.1363
    1DIPC   PO4 9182  17.181  24.261   6.568  0.0849  0.1565  0.1931
    1DIPC   GL1 9183  17.506  24.410   6.301 -0.2582 -0.0460 -0.2944
    1DIPC   GL2 9184  17.710  24.602   6.344 -0.0051  0.1337 -0.1313
    1DIPC   C1A 9185  17.489  24.435   5.808  0.1030 -0.0035  0.0302
    1DIPC   D2A 9186  17.491  24.331   5.426  0.0283  0.1780 -0.0267
    1DIPC   D3A 9187  17.115  24.382   5.299  0.0715 -0.3116 -0.1162
    1DIPC   C4A 9188  17.252  24.332   4.969 -0.0401  0.0100  0.1450
    1DIPC   C1B 9189  17.769  24.860   5.948  0.1485  0.1654  0.1746
    1DIPC   D2B 9190  18.115  24.870   5.563 -0.1409 -0.2088 -0.1280
    1DIPC   D3B 9191  17.867  24.626   5.246  0.6877 -0.4998 -0.0955
    1DIPC   C4B 9192  17.410  24.825   5.244 -0.1137 -0.4188  0.0081
    1DIPC   NC3 9193  19.411  29.015   7.116  0.0624  0.0188 -0.1947
    1DIPC   PO4 9194  19.840  28.942   7.025  0.0204  0.0129  0.1097
    1DIPC   GL1 9195  19.942  28.732   6.637 -0.4452  0.1542  0.0037
    1DIPC   GL2 9196  20.140  28.562   6.640  0.0907 -0.1650 -0.1740
    1DIPC   C1A 9197  19.717  28.623   6.206  0.4529 -0.2402 -0.4061
    1DIPC   D2A 9198  19.488  28.675   5.755 -0.0219 -0.3545  0.2772
    1DIPC   D3A 9199  19.339  28.520   5.425  0.3145  0.0453 -0.0409
    1DIPC   C4A 9200  19.545  28.940   5.202 -0.2130 -0.1834 -0.2325
    1DIPC   C1B 9201  20.337  28.275   6.606  0.1076 -0.1008  0.4839
    1DIPC   D2B 9202  20.379  28.046   6.212 -0.0472  0.1287 -0.0792
    1DIPC   D3B 9203  20.585  28.271   5.866  0.1053  0.0233  0.0970
    1DIPC   C4B 9204  20.955  28.409   5.929 -0.1827  0.0980  0.5275
    1DIPC   NC3 9205   9.016  21.540   6.500 -0.3686 -0.0029  0.1801
    1DIPC   PO4 9206   8.681  21.422   6.509 -0.0007  0.1412  0.3035
    1DIPC   GL1 9207   8.930  21.381   6.071 -0.2068 -0.0234 -0.3365
    1DIPC   GL2 9208   8.742  21.376   5.797  0.1112 -0.0551  0.0856
    1DIPC   C1A 9209   9.083  21.728   5.728  0.0057 -0.0473  0.1622
    1DIPC   D2A 9210   9.227  22.112   5.481 -0.0349 -0.1449 -0.0121
    1DIPC   D3A 9211   9.550  22.102   5.226  0.0068 -0.0314  0.2514
    1DIPC   C4A 9212   9.779  22.287   4.835  0.2917 -0.1869 -0.1182
    1DIPC   C1B 9213   8.702  21.495   5.465 -0.3601  0.1210  0.0885
    1DIPC   D2B 9214   8.972  21.721   5.186 -0.3088 -0.0480 -0.0480
    1DIPC   D3B 9215   8.591  21.977   5.114  0.0688 -0.1594 -0.1451
    1DIPC   C4B 9216   8.467  21.862   4.729 -0.3618  0.3261  0.0052
    1DIPC   NC3 9217   9.959   5.551   6.129  0.1105  0.0113 -0.0825
    1DIPC   PO4 9218  10.124   6.002   6.230 -0.0343 -0.0723 -0.1247
    1DIPC   GL1 9219   9.976   6.122   5.806 -0.0773 -0.4905  0.5515
    1DIPC   GL2 9220   9.798   5.998   5.710 -0.0951  0.2948 -0.1471
    1DIPC   C1A 9221  10.248   6.260   5.390  0.2035  0.0702 -0.1583
    1DIPC   D2A 9222  10.216   6.350   5.006  0.0390  0.4516  0.0970
    1DIPC   D3A 9223   9.960   6.696   5.021 -0.0829  0.0518  0.1240
    1DIPC   C4A 9224  10.047   6.982   4.836  0.0075  0.0537 -0.0411
    1DIPC   C1B 9225   9.529   5.801   5.399 -0.2467  0.0905  0.1869
    1DIPC   D2B 9226   9.575   5.426   5.068  0.3122  0.1130 -0.4401
    1DIPC   D3B 9227   9.801   5.169   5.333 -0.3317  0.1216 -0.3032
    1DIPC   C4B 9228   9.919   4.915   5.040 -0.1376  0.1772  0.1863
    1DIPC   NC3 9229   7.005  11.761   5.541  0.1651 -0.0190  0.2820
    1DIPC   PO4 9230   6.678  11.858   5.269  0.0007 -0.1046 -0.1280
    1DIPC   GL1 9231   6.906  11.725   4.930 -0.1515  0.0647  0.3227
    1DIPC   GL2 9232   7.250  11.639   5.075 -0.0122 -0.0035 -0.0449
    1DIPC   C1A 9233   7.038  11.501   4.552 -0.1118  0.0269  0.1582
    1DIPC   D2A 9234   7.288  11.372   4.186  0.2080  0.1181 -0.1392
    1DIPC   D3A 9235   7.209  11.671   3.927 -0.0609 -0.1693 -0.0092
    1DIPC   C4A 9236   7.018  11.549   3.645  0.1886  0.0965 -0.3604
    1DIPC   C1B 9237   7.314  12.055   4.837 -0.3148  0.0709  0.4556
    1DIPC   D2B 9238   7.582  12.250   4.597  0.0104 -0.2654  0.3088
    1DIPC   D3B 9239   7.526  12.346   4.263  0.4460 -0.1247  0.0282
    1DIPC   C4B 9240   7.589  12.689   4.039 -0.1356  0.0930  0.4267
    1DIPC   NC3 9241  29.032  28.989   6.440  0.1003 -0.1710 -0.0828
    1DIPC   PO4 9242  28.825  28.692   6.547  0.0781 -0.2856  0.5339
    1DIPC   GL1 9243  28.749  28.664   6.112  0.1369 -0.1186 -0.1140
    1DIPC   GL2 9244  28.436  28.727   6.049 -0.2382 -0.1345  0.3334
    1DIPC   C1A 9245  28.662  28.745   5.615 -0.1245 -0.2667  0.0211
    1DIPC   D2A 9246  28.628  28.963   5.245 -0.2746 -0.1671 -0.2988
    1DIPC   D3A 9247  28.827  29.368   5.231  0.1004 -0.2153  0.1295
    1DIPC   C4A 9248  28.554  29.389   4.879  0.0889  0.1219  0.1806
    1DIPC   C1B 9249  28.067  28.809   5.808 -0.1499 -0.0287 -0.3588
    1DIPC   D2B 9250  27.811  29.054   5.714 -0.0020  0.0658  0.0900
    1DIPC   D3B 9251  27.506  29.057   5.383  0.1585 -0.1425 -0.1451
    1DIPC   C4B 9252  27.366  28.822   5.091 -0.2001  0.0137 -0.1457
    1DIPC   NC3 9253  14.858   7.244   6.493  0.1554  0.0414  0.1391
    1DIPC   PO4 9254  15.196   7.432   6.378 -0.1904  0.3135 -0.3983
    1DIPC   GL1 9255  15.219   7.482   5.869  0.1088 -0.1202  0.0907
    1DIPC   GL2 9256  14.976   7.785   5.721  0.0201 -0.0437 -0.0019
    1DIPC   C1A 9257  15.428   7.682   5.597 -0.2073 -0.3699  0.0015
    1DIPC   D2A 9258  15.372   7.856   5.168 -0.1752  0.0380 -0.0246
    1DIPC   D3A 9259  15.583   7.499   4.809 -0.0877 -0.0935  0.1869
    1DIPC   C4A 9260  15.390   7.103   4.520  0.0521  0.0064  0.2179
    1DIPC   C1B 9261  14.955   7.536   5.344 -0.0901 -0.0250 -0.0488
    1DIPC   D2B 9262  15.200   7.419   5.102  0.2037 -0.1636 -0.1404
    1DIPC   D3B 9263  15.087   7.701   4.787  0.0148 -0.0436 -0.0018
    1DIPC   C4B 9264  14.741   7.662   4.529 -0.0919 -0.3342  0.0067
    1DIPC   NC3 9265  25.583  28.054   7.192  0.0102  0.1535  0.0748
    1DIPC   PO4 9266  25.882  27.811   6.968  0.2026 -0.2893  0.1643
    1DIPC   GL1 9267  25.869  27.592   6.600 -0.0874  0.0700 -0.0626
    1DIPC   GL2 9268  26.064  27.766   6.330  0.0238  0.0296  0.2962
    1DIPC   C1A 9269  25.718  27.417   6.199  0.1403 -0.0610  0.2913
    1DIPC   D2A 9270  25.302  27.370   5.983 -0.1434  0.6151 -0.1517
    1DIPC   D3A 9271  25.561  27.120   5.701 -0.1504  0.1980 -0.1697
    1DIPC   C4A 9272  25.425  27.224   5.236 -0.2895  0.2056 -0.1101
    1DIPC   C1B 9273  25.781  28.083   6.283 -0.1196  0.0099 -0.1139
    1DIPC   D2B 9274  25.443  27.856   6.140  0.0298 -0.2167  0.0473
    1DIPC   D3B 9275  25.110  27.589   6.443 -0.0945 -0.1937  0.2398
    1DIPC   C4B 9276  24.976  27.324   6.380 -0.1568 -0.3718  0.4350
    1DIPC   NC3 9277  12.324  28.661   5.913 -0.1904 -0.3640 -0.0546
    1DIPC   PO4 9278  12.166  28.205   6.126 -0.2260 -0.0790  0.1216
    1DIPC   GL1 9279  11.991  27.922   5.905 -0.3531  0.3345  0.2082
    1DIPC   GL2 9280  11.818  28.158   5.743 -0.0988  0.1700  0.1556
    1DIPC   C1A 9281  11.979  27.716   5.472 -0.3471  0.3292 -0.1447
    1DIPC   D2A 9282  12.144  27.497   5.147 -0.1923 -0.0054  0.0346
    1DIPC   D3A 9283  11.728  27.400   5.111  0.0542 -0.0897  0.3202
    1DIPC   C4A 9284  11.579  27.073   4.851 -0.1308  0.0067 -0.1827
    1DIPC   C1B 9285  12.014  28.171   5.322  0.0808  0.1279 -0.0128
    1DIPC   D2B 9286  12.061  28.265   4.872 -0.0249 -0.0486  0.1294
    1DIPC   D3B 9287  12.028  27.914   4.711 -0.2540 -0.2239  0.1704
    1DIPC   C4B 9288  11.632  27.679   4.503 -0.1961  0.0706 -0.3147
    1DIPC   NC3 9289   8.687  23.841   6.542  0.0689 -0.0159 -0.0960
    1DIPC   PO4 9290   8.647  24.138   6.328 -0.0347  0.1520 -0.0441
    1DIPC   GL1 9291   8.348  23.937   6.004 -0.1201 -0.1288  0.3298
    1DIPC   GL2 9292   8.469  23.731   5.737 -0.0654 -0.0884  0.0329
    1DIPC   C1A 9293   8.128  23.904   5.525 -0.0728  0.0391  0.0922
    1DIPC   D2A 9294   7.920  23.584   5.336  0.0669 -0.3527  0.1341
    1DIPC   D3A 9295   8.263  23.745   5.055  0.1353  0.0254  0.1434
    1DIPC   C4A 9296   8.029  23.863   4.667  0.0392  0.5005  0.0833
    1DIPC   C1B 9297   8.777  23.547   5.459  0.0748  0.0958 -0.1246
    1DIPC   D2B 9298   8.665  23.371   5.107  0.1349  0.1260  0.0718
    1DIPC   D3B 9299   8.735  23.416   4.714 -0.0269 -0.0622 -0.1809
    1DIPC   C4B 9300   8.381  23.526   4.576 -0.0997 -0.1394  0.0033
    1DIPC   NC3 9301   4.902   1.022   6.565  0.0314 -0.1556  0.0151
    1DIPC   PO4 9302   4.803   1.435   6.352  0.1322 -0.0433 -0.0956
    1DIPC   GL1 9303   4.710   1.275   5.941  0.0197 -0.1098  0.0716
    1DIPC   GL2 9304   4.565   1.562   5.750 -0.0648 -0.0457 -0.2097
    1DIPC   C1A 9305   4.303   1.141   5.776  0.0296 -0.0220  0.0787
    1DIPC   D2A 9306   4.029   0.856   5.940 -0.0001  0.0818 -0.0478
    1DIPC   D3A 9307   3.929   0.918   5.439  0.1723 -0.0661 -0.0511
    1DIPC   C4A 9308   4.358   1.117   5.283 -0.0017 -0.0594  0.1002
    1DIPC   C1B 9309   4.720   1.382   5.425  0.2637  0.2732 -0.0635
    1DIPC   D2B 9310   4.684   1.246   4.971  0.2993 -0.0861 -0.0771
    1DIPC   D3B 9311   4.487   1.310   4.687 -0.4471  0.3041 -0.2078
    1DIPC   C4B 9312   4.301   0.990   4.593 -0.0515  0.1524 -0.1780
    1DIPC   NC3 9313   3.451  21.794   6.897 -0.3464 -0.0806  0.2993
    1DIPC   PO4 9314   3.156  22.095   6.671 -0.0308 -0.2399  0.0985
    1DIPC   GL1 9315   3.423  22.378   6.299  0.0555  0.0970 -0.3424
    1DIPC   GL2 9316   3.284  22.794   6.196 -0.0168  0.2067 -0.0513
    1DIPC   C1A 9317   3.797  22.427   6.194  0.1501  0.0956  0.3071
    1DIPC   D2A 9318   3.866  22.447   5.771 -0.0483 -0.1216  0.0318
    1DIPC   D3A 9319   4.220  22.692   5.693 -0.2547 -0.0681  0.0173
    1DIPC   C4A 9320   4.572  22.687   5.537 -0.1129 -0.0276 -0.0173
    1DIPC   C1B 9321   3.465  22.664   5.845  0.3192 -0.2618  0.1696
    1DIPC   D2B 9322   3.647  22.733   5.424  0.4825  0.1028  0.2175
    1DIPC   D3B 9323   3.773  22.292   5.295  0.1642  0.0817 -0.1682
    1DIPC   C4B 9324   3.828  21.913   5.525  0.2035 -0.1718 -0.1779
    1DIPC   NC3 9325  13.691   8.338   6.167  0.2766 -0.1443 -0.0159
    1DIPC   PO4 9326  14.103   8.525   6.068  0.0331 -0.0077 -0.0390
    1DIPC   GL1 9327  14.474   8.408   5.831 -0.6036 -0.1825  0.1535
    1DIPC   GL2 9328  14.370   8.707   5.663  0.0360 -0.0229 -0.0026
    1DIPC   C1A 9329  14.846   8.482   5.541  0.1614 -0.0646 -0.1390
    1DIPC   D2A 9330  14.987   8.619   5.185 -0.1792  0.0320 -0.0783
    1DIPC   D3A 9331  15.225   8.327   5.010 -0.1099  0.1615 -0.1438
    1DIPC   C4A 9332  15.417   8.416   4.715  0.3736 -0.2771 -0.0568
    1DIPC   C1B 9333  14.229   9.137   5.585 -0.0847  0.0697 -0.0313
    1DIPC   D2B 9334  14.333   9.580   5.485 -0.1923 -0.2677  0.0066
    1DIPC   D3B 9335  14.496   9.945   5.387  0.1102  0.1146 -0.2252
    1DIPC   C4B 9336  14.468  10.218   5.004 -0.1104 -0.0122 -0.0432
    1DIPC   NC3 9337   3.224   7.458   6.086  0.2612 -0.3527 -0.4341
    1DIPC   PO4 9338   3.030   7.560   5.734 -0.0225  0.1119  0.2144
    1DIPC   GL1 9339   2.950   7.342   5.354  0.0371 -0.1816  0.3660
    1DIPC   GL2 9340   2.862   7.634   5.118 -0.3735 -0.3077 -0.0534
    1DIPC   C1A 9341   2.575   7.234   4.994  0.0520 -0.3571  0.3727
    1DIPC   D2A 9342   2.395   7.418   4.626 -0.2287  0.1806 -0.1571
    1DIPC   D3A 9343   2.361   6.911   4.460 -0.0548  0.0741  0.0230
    1DIPC   C4A 9344   2.670   6.774   4.147  0.3761  0.2580  0.0132
    1DIPC   C1B 9345   3.015   7.648   4.719  0.2212  0.4487 -0.2197
    1DIPC   D2B 9346   2.966   7.583   4.248  0.0226  0.1648  0.3765
    1DIPC   D3B 9347   2.685   7.636   3.901 -0.4000  0.0095 -0.1580
    1DIPC   C4B 9348   2.685   7.232   3.653  0.3863  0.1282  0.2261
    1DIPC   NC3 9349  11.026  16.697   5.933 -0.2141 -0.0135 -0.1195
    1DIPC   PO4 9350  11.015  16.230   6.020 -0.0264 -0.0425  0.1297
    1DIPC   GL1 9351  11.164  16.305   5.561  0.0675 -0.0892 -0.1384
    1DIPC   GL2 9352  11.430  16.119   5.357  0.0641 -0.1588 -0.5312
    1DIPC   C1A 9353  10.942  16.280   5.163 -0.2719 -0.0098 -0.5138
    1DIPC   D2A 9354  10.767  16.078   4.827 -0.0154  0.2738 -0.0495
    1DIPC   D3A 9355  10.992  15.703   4.567 -0.1150  0.0320 -0.0751
    1DIPC   C4A 9356  10.839  15.366   4.757  0.2441 -0.2214  0.0578
    1DIPC   C1B 9357  11.314  16.209   4.809  0.0489 -0.2304  0.0356
    1DIPC   D2B 9358  11.239  16.205   4.431 -0.1376  0.1740  0.3410
    1DIPC   D3B 9359  11.528  16.409   4.227 -0.2300 -0.3873  0.1552
    1DIPC   C4B 9360  11.569  16.832   4.132 -0.0914 -0.0269 -0.1079
    1DIPC   NC3 9361   5.005  26.547   6.555 -0.2021  0.0621  0.2155
    1DIPC   PO4 9362   5.365  26.370   6.755  0.1460  0.0505 -0.0007
    1DIPC   GL1 9363   5.367  26.238   6.332  0.2650  0.2519  0.0232
    1DIPC   GL2 9364   5.235  25.860   6.300 -0.0233 -0.0299 -0.0600
    1DIPC   C1A 9365   5.412  26.481   5.921  0.1528  0.0632 -0.1347
    1DIPC   D2A 9366   5.380  26.859   5.754 -0.3270 -0.4981 -0.0852
    1DIPC   D3A 9367   5.819  26.724   5.563 -0.0286 -0.0664  0.0703
    1DIPC   C4A 9368   6.274  26.760   5.770 -0.1671 -0.0346 -0.1080
    1DIPC   C1B 9369   5.362  26.004   5.875  0.1938 -0.1439  0.2621
    1DIPC   D2B 9370   5.530  26.241   5.540 -0.0410 -0.1905  0.3423
    1DIPC   D3B 9371   5.269  26.275   5.245  0.3680 -0.1254  0.0626
    1DIPC   C4B 9372   5.071  25.834   5.279  0.1186 -0.1793  0.1198
    1DIPC   NC3 9373  11.893  25.399   6.433  0.1604 -0.1403  0.3109
    1DIPC   PO4 9374  11.480  25.610   6.508  0.0651  0.2148  0.0152
    1DIPC   GL1 9375  11.647  25.684   6.095 -0.3635  0.2036  0.2478
    1DIPC   GL2 9376  11.972  25.588   5.975 -0.0347 -0.3980  0.2071
    1DIPC   C1A 9377  11.503  25.809   5.748  0.2271  0.1219  0.1018
    1DIPC   D2A 9378  11.510  25.478   5.369 -0.0942  0.1164  0.1343
    1DIPC   D3A 9379  11.144  25.790   5.258  0.0571 -0.1931 -0.0740
    1DIPC   C4A 9380  10.811  25.652   4.910 -0.0224 -0.0741 -0.1422
    1DIPC   C1B 9381  12.021  25.491   5.600  0.0257 -0.3355  0.0220
    1DIPC   D2B 9382  11.976  25.325   5.221 -0.0383 -0.1194  0.2261
    1DIPC   D3B 9383  11.848  25.456   4.891 -0.2633 -0.1900 -0.0590
    1DIPC   C4B 9384  11.385  25.552   4.680  0.1148  0.0645 -0.0874
    1DIPC   NC3 9385   4.958   7.017   5.585 -0.1268 -0.1187  0.0326
    1DIPC   PO4 9386   4.651   7.276   5.436  0.1258 -0.0415 -0.0981
    1DIPC   GL1 9387   4.717   7.126   5.026  0.3552 -0.0121 -0.1237
    1DIPC   GL2 9388   4.945   6.942   4.998 -0.1469  0.3375 -0.1517
    1DIPC   C1A 9389   4.958   7.108   4.500 -0.2732 -0.1250 -0.2473
    1DIPC   D2A 9390   5.073   6.909   4.113 -0.1295  0.1723 -0.0650
    1DIPC   D3A 9391   5.441   6.788   4.260  0.2460 -0.0353  0.2778
    1DIPC   C4A 9392   5.780   7.072   4.109 -0.0938  0.0243 -0.0713
    1DIPC   C1B 9393   4.638   6.714   4.659 -0.1619  0.3384  0.0959
    1DIPC   D2B 9394   4.512   6.724   4.149  0.2312 -0.1353  0.1645
    1DIPC   D3B 9395   4.886   6.501   4.311  0.2047  0.0438  0.3940
    1DIPC   C4B 9396   4.921   5.988   4.387  0.0020 -0.0126 -0.2300
    1DIPC   NC3 9397  13.013  24.488   6.512 -0.0025 -0.1957  0.2116
    1DIPC   PO4 9398  13.141  24.720   6.200  0.0822 -0.0928 -0.0849
    1DIPC   GL1 9399  13.088  24.406   5.794 -0.0598  0.1486 -0.3123
    1DIPC   GL2 9400  12.893  24.031   5.700  0.0384 -0.2075  0.0200
    1DIPC   C1A 9401  13.129  24.477   5.428 -0.0899  0.1562  0.0852
    1DIPC   D2A 9402  12.968  24.342   5.051 -0.0266  0.1162 -0.0300
    1DIPC   D3A 9403  12.751  23.924   4.941  0.2684 -0.1558 -0.0165
    1DIPC   C4A 9404  12.719  23.602   4.707 -0.2114 -0.2012  0.0070
    1DIPC   C1B 9405  13.046  23.869   5.335  0.1902 -0.0830  0.1794
    1DIPC   D2B 9406  13.328  23.962   5.036  0.2894 -0.0543 -0.1691
    1DIPC   D3B 9407  13.473  24.379   4.916 -0.1227 -0.0554 -0.1189
    1DIPC   C4B 9408  13.729  24.763   5.073 -0.1832 -0.3222 -0.0878
    1DIPC   NC3 9409   7.184   8.227   6.456 -0.0021 -0.2219  0.0120
    1DIPC   PO4 9410   7.594   7.904   6.327  0.0815  0.0025 -0.0329
    1DIPC   GL1 9411   7.655   7.613   5.985  0.1717 -0.3016 -0.1776
    1DIPC   GL2 9412   7.854   7.872   5.853  0.0767  0.1382  0.1962
    1DIPC   C1A 9413   7.477   7.398   5.550 -0.1885 -0.2627 -0.0668
    1DIPC   D2A 9414   7.525   7.359   5.126  0.0368  0.0039 -0.1162
    1DIPC   D3A 9415   7.411   7.389   4.752  0.1475 -0.0972  0.2249
    1DIPC   C4A 9416   7.626   7.571   4.505  0.0114  0.1007 -0.3396
    1DIPC   C1B 9417   7.841   7.778   5.416  0.2411  0.1933 -0.4099
    1DIPC   D2B 9418   8.201   7.909   5.111 -0.0343 -0.1642  0.2042
    1DIPC   D3B 9419   7.988   7.679   4.826  0.0633 -0.0854  0.0060
    1DIPC   C4B 9420   7.988   7.247   4.831 -0.0141 -0.4111  0.2367
    1DIPC   NC3 9421  13.666  18.141   6.603 -0.1689  0.0655  0.0962
    1DIPC   PO4 9422  13.605  17.636   6.444  0.0145 -0.0910 -0.1806
    1DIPC   GL1 9423  13.718  17.456   6.116 -0.2938 -0.0300 -0.0640
    1DIPC   GL2 9424  14.074  17.250   6.057  0.1195  0.0145  0.1789
    1DIPC   C1A 9425  13.519  17.334   5.708  0.3030  0.0170 -0.1555
    1DIPC   D2A 9426  13.373  17.379   5.239  0.0997 -0.3513  0.0370
    1DIPC   D3A 9427  13.293  17.818   5.118 -0.2129  0.3603  0.2044
    1DIPC   C4A 9428  12.896  18.090   4.919  0.0449  0.0557  0.2348
    1DIPC   C1B 9429  14.113  17.162   5.641  0.2415 -0.2249 -0.2964
    1DIPC   D2B 9430  13.864  17.212   5.170 -0.3568  0.1366 -0.1481
    1DIPC   D3B 9431  13.524  16.943   5.376 -0.1835 -0.0793  0.0563
    1DIPC   C4B 9432  13.490  16.551   5.631 -0.1361 -0.0310  0.1859
    1DIPC   NC3 9433  25.501  22.101   7.802  0.2007  0.1064 -0.2013
    1DIPC   PO4 9434  25.503  22.348   7.506  0.1088 -0.4123  0.2091
    1DIPC   GL1 9435  25.540  22.512   7.058 -0.0475 -0.2155  0.0446
    1DIPC   GL2 9436  25.265  22.389   6.812 -0.0682 -0.3249  0.0218
    1DIPC   C1A 9437  25.778  22.518   6.620 -0.2294 -0.0281 -0.0251
    1DIPC   D2A 9438  25.862  22.680   6.120  0.0742 -0.0046  0.0026
    1DIPC   D3A 9439  26.220  22.885   5.943 -0.0506 -0.0141  0.0390
    1DIPC   C4A 9440  26.235  23.201   5.624 -0.3107  0.0448  0.0821
    1DIPC   C1B 9441  25.329  22.752   6.524 -0.1368 -0.0336 -0.2871
    1DIPC   D2B 9442  25.388  22.866   6.105  0.0509  0.0032 -0.1000
    1DIPC   D3B 9443  25.380  22.488   5.814  0.0467 -0.0192  0.0582
    1DIPC   C4B 9444  25.597  22.578   5.425 -0.1609 -0.0007  0.2531
    1DIPC   NC3 9445  10.495  10.696   6.264 -0.0020  0.1264 -0.0700
    1DIPC   PO4 9446  10.624  10.898   5.900  0.1828  0.1649 -0.2986
    1DIPC   GL1 9447  10.456  10.969   5.406 -0.1395  0.0728  0.2288
    1DIPC   GL2 9448  10.112  10.884   5.340  0.1361  0.1685  0.0770
    1DIPC   C1A 9449  10.702  10.802   5.055 -0.0876 -0.2574  0.0382
    1DIPC   D2A 9450  10.781  10.574   4.602 -0.0436 -0.3370 -0.0951
    1DIPC   D3A 9451  10.905  10.563   4.130  0.1928 -0.1635  0.2188
    1DIPC   C4A 9452  10.772  10.271   3.876  0.2469 -0.0911  0.0261
    1DIPC   C1B 9453   9.857  10.773   5.005 -0.2059  0.2285 -0.2775
    1DIPC   D2B 9454   9.816  10.376   4.731  0.0001  0.1207 -0.2457
    1DIPC   D3B 9455   9.730  10.449   4.343  0.2499  0.0888 -0.2753
    1DIPC   C4B 9456   9.230  10.552   4.183 -0.1853 -0.0475 -0.0062
    1DIPC   NC3 9457  14.481  24.332   6.249 -0.0188  0.0016 -0.2780
    1DIPC   PO4 9458  13.996  24.200   6.266  0.0152  0.0492 -0.2245
    1DIPC   GL1 9459  14.150  24.296   5.889  0.2302 -0.0857 -0.0095
    1DIPC   GL2 9460  14.230  24.127   5.676  0.1947  0.1038 -0.0752
    1DIPC   C1A 9461  14.341  24.566   5.497 -0.2495 -0.1597  0.4563
    1DIPC   D2A 9462  14.293  24.745   5.035 -0.3767 -0.0337 -0.2153
    1DIPC   D3A 9463  14.525  24.659   4.617  0.0075 -0.0778 -0.1895
    1DIPC   C4A 9464  14.371  24.773   4.299  0.3243  0.1377 -0.0595
    1DIPC   C1B 9465  14.224  23.877   5.391 -0.1307 -0.0376  0.3598
    1DIPC   D2B 9466  14.451  23.753   5.021  0.0373 -0.1563 -0.1867
    1DIPC   D3B 9467  14.077  23.623   4.690 -0.1630 -0.2094 -0.2489
    1DIPC   C4B 9468  14.143  23.873   4.270  0.0720 -0.2001  0.1518
    1DIPC   NC3 9469  25.208   0.075   6.892  0.0252  0.3295 -0.2475
    1DIPC   PO4 9470  25.213  29.245   7.069  0.1322  0.0258  0.0545
    1DIPC   GL1 9471  25.020  29.284   6.645  0.0911  0.3354  0.2094
    1DIPC   GL2 9472  24.675  29.291   6.636  0.0593  0.1631  0.0385
    1DIPC   C1A 9473  25.159  28.973   6.412 -0.0027  0.1937  0.2154
    1DIPC   D2A 9474  25.579  29.029   6.308 -0.4484 -0.1159  0.1996
    1DIPC   D3A 9475  25.358  28.876   5.947 -0.1824 -0.1793  0.2408
    1DIPC   C4A 9476  25.603  29.154   5.641  0.1187 -0.1705 -0.0139
    1DIPC   C1B 9477  24.806  29.429   6.244  0.2727  0.1606 -0.0437
    1DIPC   D2B 9478  24.798   0.040   5.908 -0.0269  0.1569 -0.1278
    1DIPC   D3B 9479  24.619  29.566   5.576 -0.2635  0.0497  0.0701
    1DIPC   C4B 9480  24.593  29.134   5.356  0.3716  0.1973 -0.0376
    1DIPC   NC3 9481   9.162  26.214   6.320 -0.2483  0.2588  0.2104
    1DIPC   PO4 9482   9.505  26.396   6.130 -0.1014 -0.2521  0.0966
    1DIPC   GL1 9483   9.820  26.390   5.780 -0.0366 -0.0292  0.1371
    1DIPC   GL2 9484   9.804  25.991   5.835  0.2556 -0.3230 -0.0971
    1DIPC   C1A 9485   9.903  26.285   5.361  0.0989 -0.1914  0.1375
    1DIPC   D2A 9486   9.562  26.347   5.025  0.2305 -0.0378 -0.0032
    1DIPC   D3A 9487   9.680  26.077   4.692 -0.1958  0.1913 -0.3867
    1DIPC   C4A 9488   9.192  26.156   4.550 -0.1294  0.3039  0.0426
    1DIPC   C1B 9489  10.023  25.837   5.456 -0.0981 -0.0260 -0.0635
    1DIPC   D2B 9490  10.072  25.495   5.262  0.2047 -0.0125  0.1111
    1DIPC   D3B 9491  10.454  25.342   5.161 -0.0637  0.2205  0.0054
    1DIPC   C4B 9492  10.729  25.080   4.891 -0.1372  0.0712  0.3176
    1DIPC   NC3 9493  11.422  18.779   5.830  0.0574 -0.1330 -0.0808
    1DIPC   PO4 9494  11.306  19.195   6.050 -0.1189 -0.2621  0.0643
    1DIPC   GL1 9495  11.002  19.079   5.767 -0.1528  0.2826 -0.0273
    1DIPC   GL2 9496  10.771  19.272   5.820  0.0533  0.0108  0.1412
    1DIPC   C1A 9497  10.990  19.062   5.388  0.2860  0.0060  0.0765
    1DIPC   D2A 9498  10.989  18.880   5.050  0.0829  0.1404 -0.2267
    1DIPC   D3A 9499  10.587  18.612   5.116  0.1389 -0.0333 -0.1159
    1DIPC   C4A 9500  10.568  18.238   4.881  0.0010 -0.0654  0.0442
    1DIPC   C1B 9501  10.862  19.509   5.483 -0.0204  0.0409  0.1641
    1DIPC   D2B 9502  11.185  19.512   5.220  0.0227 -0.0531  0.0391
    1DIPC   D3B 9503  10.991  19.432   4.810  0.0064  0.1635 -0.0297
    1DIPC   C4B 9504  10.626  19.621   4.699  0.3044 -0.1403 -0.2382
    1DIPC   NC3 9505   1.445   8.641   5.779 -0.1019 -0.0634  0.0240
    1DIPC   PO4 9506   1.094   8.538   5.966 -0.0374 -0.0341 -0.2031
    1DIPC   GL1 9507   0.865   8.538   5.575 -0.1538 -0.1152 -0.3288
    1DIPC   GL2 9508   0.690   8.806   5.500  0.1695 -0.2489 -0.3036
    1DIPC   C1A 9509   0.881   8.459   5.189  0.4862  0.1565  0.3657
    1DIPC   D2A 9510   0.940   8.701   4.858  0.3548  0.2772 -0.0390
    1DIPC   D3A 9511   0.872   8.425   4.551 -0.0687  0.2330  0.0016
    1DIPC   C4A 9512   0.768   8.604   4.191 -0.1143 -0.0366 -0.3972
    1DIPC   C1B 9513   0.557   8.889   5.024 -0.0117 -0.0593 -0.0482
    1DIPC   D2B 9514   0.588   8.917   4.535 -0.0273 -0.1452  0.0199
    1DIPC   D3B 9515   1.124   8.850   4.443  0.0602 -0.0648  0.2116
    1DIPC   C4B 9516   1.303   9.122   4.206 -0.0943 -0.0864  0.0658
    1DIPC   NC3 9517  10.858   4.405   5.877 -0.3350  0.2121 -0.1491
    1DIPC   PO4 9518  10.442   4.316   6.089 -0.1215 -0.1882  0.0567
    1DIPC   GL1 9519  10.389   4.340   5.548 -0.2378 -0.2241 -0.2293
    1DIPC   GL2 9520  10.266   4.083   5.407  0.6192  0.1151 -0.0179
    1DIPC   C1A 9521  10.499   4.552   5.205  0.1922 -0.0344  0.0468
    1DIPC   D2A 9522  10.834   4.662   4.927  0.0085 -0.2194 -0.2269
    1DIPC   D3A 9523  10.647   4.302   4.759  0.3126  0.1191  0.3419
    1DIPC   C4A 9524  10.371   4.293   4.428 -0.0586 -0.0727 -0.1586
    1DIPC   C1B 9525  10.125   4.190   4.928 -0.0783  0.1998  0.2906
    1DIPC   D2B 9526   9.915   4.198   4.496  0.2922 -0.1594  0.2699
    1DIPC   D3B 9527   9.980   4.444   4.182  0.1620 -0.1418 -0.3463
    1DIPC   C4B 9528   9.628   4.464   3.896 -0.0405 -0.2289 -0.3785
    1DIPC   NC3 9529   0.855   0.156   6.885  0.0420  0.1070 -0.2890
    1DIPC   PO4 9530   0.898  29.405   6.738  0.1360  0.1027  0.0702
    1DIPC   GL1 9531   0.847  29.330   6.366 -0.0702  0.1324 -0.2861
    1DIPC   GL2 9532   1.280  29.327   6.308  0.2437  0.2137  0.1807
    1DIPC   C1A 9533   0.623  29.092   6.008 -0.2602 -0.1472 -0.2939
    1DIPC   D2A 9534   0.668  28.751   5.816 -0.0498  0.0824 -0.1432
    1DIPC   D3A 9535   0.996  28.839   5.508 -0.1928 -0.1704  0.1900
    1DIPC   C4A 9536   1.112  28.819   5.015 -0.0548 -0.0743  0.1714
    1DIPC   C1B 9537   1.304  29.016   5.919  0.1324 -0.3796  0.2654
    1DIPC   D2B 9538   1.497  28.677   5.662  0.1550 -0.0922 -0.1759
    1DIPC   D3B 9539   1.536  28.466   5.275 -0.0399  0.0107 -0.1590
    1DIPC   C4B 9540   1.916  28.224   5.195 -0.0931 -0.5420 -0.3727
    1DIPC   NC3 9541  17.974  28.071   7.373  0.0181 -0.1167  0.1607
    1DIPC   PO4 9542  18.457  28.112   7.413 -0.1930  0.0076  0.2102
    1DIPC   GL1 9543  18.446  28.050   7.033 -0.2400 -0.0635 -0.0506
    1DIPC   GL2 9544  18.759  27.963   6.807  0.1256  0.3304  0.1804
    1DIPC   C1A 9545  18.234  27.826   6.826 -0.0496 -0.2599  0.2570
    1DIPC   D2A 9546  18.314  27.799   6.331  0.0124  0.1761  0.1472
    1DIPC   D3A 9547  18.403  27.849   5.852  0.1523  0.1056  0.2082
    1DIPC   C4A 9548  18.727  27.588   5.582  0.0916 -0.2161 -0.2298
    1DIPC   C1B 9549  18.464  28.171   6.615 -0.1903 -0.0758  0.0335
    1DIPC   D2B 9550  18.016  28.141   6.523 -0.0438  0.0017  0.2073
    1DIPC   D3B 9551  17.870  28.495   6.668  0.0761  0.0403  0.0926
    1DIPC   C4B 9552  17.680  28.805   6.483  0.1094 -0.1455  0.2626
    1DIPC   NC3 9553  12.543  14.912   6.827  0.0842 -0.2141 -0.2175
    1DIPC   PO4 9554  12.546  15.047   6.322  0.0966  0.1660 -0.2296
    1DIPC   GL1 9555  12.808  14.923   6.048 -0.1432 -0.2311  0.1049
    1DIPC   GL2 9556  12.995  14.677   5.980  0.2211  0.1265 -0.0419
    1DIPC   C1A 9557  13.008  15.008   5.643 -0.0306  0.3619 -0.1428
    1DIPC   D2A 9558  13.403  15.109   5.489 -0.1447  0.2041 -0.3603
    1DIPC   D3A 9559  13.187  15.113   5.116  0.1289 -0.3096  0.1156
    1DIPC   C4A 9560  12.826  15.423   5.065  0.0483 -0.0562 -0.0591
    1DIPC   C1B 9561  12.837  14.475   6.257  0.0558 -0.0127  0.0476
    1DIPC   D2B 9562  12.494  14.511   6.366 -0.1666 -0.0570 -0.0261
    1DIPC   D3B 9563  12.407  14.763   5.907  0.1457  0.4498 -0.1245
    1DIPC   C4B 9564  12.055  14.818   5.603 -0.0586 -0.0512  0.1133
    1DIPC   NC3 9565   5.850  28.843   6.541 -0.0236  0.1808  0.0131
    1DIPC   PO4 9566   5.924  28.649   6.120  0.2908  0.2799  0.1500
    1DIPC   GL1 9567   5.515  28.594   5.897 -0.0509 -0.0032  0.2526
    1DIPC   GL2 9568   5.635  28.949   5.732  0.0077 -0.0203 -0.3987
    1DIPC   C1A 9569   5.257  28.671   5.662  0.0436 -0.1004 -0.2574
    1DIPC   D2A 9570   5.182  28.974   5.426  0.1495 -0.3961 -0.1055
    1DIPC   D3A 9571   4.946  28.657   5.196  0.0742  0.0742  0.2717
    1DIPC   C4A 9572   5.004  28.567   4.697 -0.1595  0.1557  0.0458
    1DIPC   C1B 9573   6.001  29.360   5.740 -0.2048  0.0623  0.0111
    1DIPC   D2B 9574   6.273   0.081   5.586 -0.2164  0.1739  0.2146
    1DIPC   D3B 9575   6.072  29.545   5.176  0.0555 -0.0291 -0.1108
    1DIPC   C4B 9576   6.413   0.031   4.968 -0.2036 -0.4468  0.0730
    1DIPC   NC3 9577   6.781   5.773   6.407  0.1045 -0.0676  0.3262
    1DIPC   PO4 9578   6.946   5.580   6.098  0.1423 -0.0752  0.2402
    1DIPC   GL1 9579   6.789   5.734   5.688  0.1775  0.0805  0.1524
    1DIPC   GL2 9580   6.496   5.798   5.593  0.2188 -0.3061 -0.2799
    1DIPC   C1A 9581   6.696   5.511   5.212  0.5692  0.1212 -0.3453
    1DIPC   D2A 9582   6.583   5.795   4.788 -0.0408 -0.1388 -0.1526
    1DIPC   D3A 9583   6.652   5.368   4.678  0.0496 -0.0447 -0.2084
    1DIPC   C4A 9584   6.865   5.133   4.961  0.1455 -0.3115  0.2002
    1DIPC   C1B 9585   6.465   5.928   5.304  0.2056  0.1855  0.4952
    1DIPC   D2B 9586   6.155   5.712   4.954  0.0523 -0.0394 -0.2154
    1DIPC   D3B 9587   6.199   5.462   4.671 -0.2071  0.2789  0.1587
    1DIPC   C4B 9588   6.170   5.106   4.430  0.3488 -0.1028 -0.3157
    1DIPC   NC3 9589   3.578   9.266   5.568  0.4172 -0.1463  0.0573
    1DIPC   PO4 9590   3.793   8.869   5.638 -0.1010 -0.1762  0.1397
    1DIPC   GL1 9591   3.757   8.977   5.234  0.0186  0.0021 -0.0463
    1DIPC   GL2 9592   3.415   8.937   5.114 -0.2151  0.1682 -0.2374
    1DIPC   C1A 9593   3.756   9.325   4.960 -0.3976  0.1021 -0.0801
    1DIPC   D2A 9594   3.487   9.667   4.855 -0.1633 -0.0438 -0.1193
    1DIPC   D3A 9595   3.059   9.659   4.642 -0.3604  0.2447  0.0482
    1DIPC   C4A 9596   2.675   9.916   4.712 -0.0750  0.1423 -0.1784
    1DIPC   C1B 9597   3.218   9.237   4.783 -0.3821 -0.2140  0.0025
    1DIPC   D2B 9598   3.223   9.235   4.314 -0.0478  0.0953  0.2344
    1DIPC   D3B 9599   3.435   8.796   4.452 -0.0719  0.1216 -0.3226
    1DIPC   C4B 9600   3.795   8.852   4.746 -0.1116  0.2178  0.0838
    1DIPC   NC3 9601   5.316   0.928   6.781 -0.2964  0.0392 -0.0144
    1DIPC   PO4 9602   5.478   1.248   6.482 -0.3507 -0.1767 -0.1585
    1DIPC   GL1 9603   5.454   1.339   5.967 -0.0325 -0.2908  0.1853
    1DIPC   GL2 9604   5.731   1.325   5.807 -0.2274  0.1931  0.1585
    1DIPC   C1A 9605   5.190   1.203   5.602 -0.3674 -0.4380 -0.3386
    1DIPC   D2A 9606   5.092   1.004   5.257  0.0836 -0.0859 -0.1614
    1DIPC   D3A 9607   5.121   1.104   4.821 -0.1574 -0.0663  0.1646
    1DIPC   C4A 9608   5.413   1.430   4.647 -0.0026 -0.0381 -0.0733
    1DIPC   C1B 9609   5.527   1.489   5.427  0.0272 -0.1554  0.0726
    1DIPC   D2B 9610   5.205   1.491   5.174  0.1929  0.0457  0.2142
    1DIPC   D3B 9611   5.115   1.773   4.887 -0.1618 -0.2608  0.1102
    1DIPC   C4B 9612   4.928   1.582   4.550 -0.1314  0.0176 -0.2325
    1DIPC   NC3 9613   8.117  12.226   6.171  0.2555  0.0069  0.0713
    1DIPC   PO4 9614   7.888  12.087   5.871  0.0669 -0.1877 -0.1122
    1DIPC   GL1 9615   7.793  12.000   5.472  0.1697  0.3026  0.3388
    1DIPC   GL2 9616   7.387  12.090   5.388  0.2886  0.0475  0.2049
    1DIPC   C1A 9617   7.808  11.777   5.240  0.1519 -0.5086  0.0122
    1DIPC   D2A 9618   7.887  11.675   4.802  0.1162  0.0753 -0.3050
    1DIPC   D3A 9619   7.979  11.850   4.494  0.4763 -0.0905  0.2273
    1DIPC   C4A 9620   7.754  11.592   4.118  0.0871  0.0016  0.2002
    1DIPC   C1B 9621   7.691  12.403   5.140 -0.0298  0.0914  0.0304
    1DIPC   D2B 9622   7.905  12.660   4.867 -0.0542 -0.1240 -0.3045
    1DIPC   D3B 9623   7.749  12.718   4.496 -0.2628  0.0810  0.2909
    1DIPC   C4B 9624   7.856  13.062   4.231  0.2052  0.2313  0.0939
    1DIPC   NC3 9625  12.751   2.553   6.087 -0.0608  0.4951 -0.2052
    1DIPC   PO4 9626  12.618   2.087   6.043  0.0005 -0.0127  0.0028
    1DIPC   GL1 9627  12.506   2.225   5.707 -0.0720 -0.3348 -0.3128
    1DIPC   GL2 9628  12.275   2.075   5.495  0.0588 -0.4050 -0.5284
    1DIPC   C1A 9629  12.657   2.545   5.447 -0.1299  0.0827  0.0069
    1DIPC   D2A 9630  12.562   2.832   5.103  0.1007 -0.0993 -0.2741
    1DIPC   D3A 9631  12.502   2.459   4.886 -0.1567 -0.4144  0.0605
    1DIPC   C4A 9632  12.763   2.051   4.974  0.0675  0.1588  0.4448
    1DIPC   C1B 9633  11.905   1.946   5.198 -0.0405  0.2247  0.0715
    1DIPC   D2B 9634  11.700   2.022   4.847 -0.0083 -0.3171  0.0248
    1DIPC   D3B 9635  11.425   2.309   4.504  0.3129 -0.1278  0.3192
    1DIPC   C4B 9636  11.369   2.812   4.516 -0.0214  0.1137  0.0442
    1DIPC   NC3 9637  28.775  21.306   7.288  0.1618 -0.1307 -0.2704
    1DIPC   PO4 9638  28.523  20.877   7.217 -0.2481 -0.0885  0.1035
    1DIPC   GL1 9639  28.441  20.649   6.928  0.0424  0.1006  0.0120
    1DIPC   GL2 9640  28.091  20.642   6.812 -0.1398  0.2582  0.2231
    1DIPC   C1A 9641  28.639  20.443   6.533 -0.1370 -0.0015 -0.1651
    1DIPC   D2A 9642  28.688  20.582   6.158 -0.1334  0.1173 -0.2838
    1DIPC   D3A 9643  29.033  20.649   6.112 -0.0287  0.1357 -0.2321
    1DIPC   C4A 9644  29.283  20.439   5.791  0.2052 -0.1942 -0.4256
    1DIPC   C1B 9645  27.691  20.550   6.531  0.0942  0.1110  0.3778
    1DIPC   D2B 9646  27.934  20.344   6.071 -0.1059  0.0493 -0.1724
    1DIPC   D3B 9647  28.190  20.652   5.980 -0.1608  0.0421  0.0141
    1DIPC   C4B 9648  28.259  20.963   6.330  0.0043 -0.1049  0.3434
    1DIPC   NC3 9649  16.645  23.591   6.717 -0.0136 -0.0344  0.1063
    1DIPC   PO4 9650  16.941  23.456   6.933 -0.1367 -0.0598  0.3173
    1DIPC   GL1 9651  17.003  23.346   6.467 -0.3140  0.3175  0.0149
    1DIPC   GL2 9652  17.164  22.995   6.301 -0.4434  0.0322 -0.1717
    1DIPC   C1A 9653  17.002  23.493   6.089 -0.2353  0.2787 -0.0985
    1DIPC   D2A 9654  16.887  23.634   5.817  0.1790  0.1842 -0.0016
    1DIPC   D3A 9655  16.791  23.500   5.402  0.1028 -0.3915 -0.1678
    1DIPC   C4A 9656  17.054  23.516   4.991  0.0778  0.0440  0.3972
    1DIPC   C1B 9657  17.346  23.132   6.021 -0.2317  0.1481 -0.1404
    1DIPC   D2B 9658  17.446  23.118   5.619 -0.0741  0.1797 -0.1575
    1DIPC   D3B 9659  17.357  23.394   5.406 -0.0519  0.1836 -0.0102
    1DIPC   C4B 9660  17.568  23.387   5.058 -0.0147 -0.1444  0.2639
    1DIPC   NC3 9661  13.934  28.274   6.910  0.2223  0.0582  0.1072
    1DIPC   PO4 9662  14.244  28.243   6.498  0.0639 -0.1018 -0.3235
    1DIPC   GL1 9663  14.415  28.118   6.148 -0.1990 -0.0380  0.1307
    1DIPC   GL2 9664  14.266  28.336   5.937  0.0323 -0.2200 -0.0701
    1DIPC   C1A 9665  14.713  28.153   5.687  0.2404 -0.6001  0.0814
    1DIPC   D2A 9666  14.879  28.416   5.376  0.2886  0.0457 -0.1292
    1DIPC   D3A 9667  14.703  28.079   5.178  0.2817 -0.1562 -0.0459
    1DIPC   C4A 9668  14.723  28.034   4.750  0.0274  0.1080 -0.0280
    1DIPC   C1B 9669  14.399  28.550   5.568 -0.1552 -0.0111  0.2006
    1DIPC   D2B 9670  14.587  28.609   5.110  0.1407  0.1129 -0.1444
    1DIPC   D3B 9671  14.829  28.955   5.179 -0.0874 -0.1701 -0.0731
    1DIPC   C4B 9672  14.511  29.298   4.933  0.2543  0.0675  0.0944
    1DIPC   NC3 9673  20.635   1.653   7.050 -0.1601 -0.1032  0.1130
    1DIPC   PO4 9674  20.320   2.013   6.910  0.1558 -0.2418 -0.1349
    1DIPC   GL1 9675  20.520   1.911   6.513  0.0439 -0.0630  0.0094
    1DIPC   GL2 9676  20.676   1.653   6.548 -0.1501 -0.2823  0.1660
    1DIPC   C1A 9677  20.584   1.901   6.042  0.1995 -0.2431 -0.4089
    1DIPC   D2A 9678  20.509   2.088   5.711 -0.0792  0.1531 -0.1709
    1DIPC   D3A 9679  20.401   2.255   5.299 -0.1692 -0.2904  0.3446
    1DIPC   C4A 9680  20.032   2.600   5.269 -0.1945 -0.1061 -0.1794
    1DIPC   C1B 9681  20.448   1.374   6.207 -0.0478  0.1062 -0.0482
    1DIPC   D2B 9682  20.458   0.983   5.955 -0.1763 -0.2078  0.0077
    1DIPC   D3B 9683  20.508   1.335   5.706  0.2584  0.0666  0.4293
    1DIPC   C4B 9684  20.222   1.651   5.578  0.1379 -0.2771 -0.1844
    1DIPC   NC3 9685  11.914  24.683   6.973  0.1922 -0.2352  0.1094
    1DIPC   PO4 9686  11.757  24.822   6.567 -0.1415 -0.0285  0.1664
    1DIPC   GL1 9687  11.472  24.545   6.255 -0.0287 -0.0447 -0.1876
    1DIPC   GL2 9688  11.529  24.726   5.926 -0.0498 -0.0926 -0.4438
    1DIPC   C1A 9689  11.303  24.269   5.922  0.1342  0.1975 -0.0398
    1DIPC   D2A 9690  11.170  23.924   5.809 -0.1271 -0.1841 -0.0667
    1DIPC   D3A 9691  11.027  24.118   5.492 -0.2684 -0.3024  0.0081
    1DIPC   C4A 9692  11.047  24.578   5.581  0.0929  0.0374  0.0974
    1DIPC   C1B 9693  11.915  24.682   5.678 -0.0816 -0.2715 -0.2915
    1DIPC   D2B 9694  12.203  24.638   5.372  0.0111 -0.1406  0.2605
    1DIPC   D3B 9695  12.088  24.898   5.006  0.5134 -0.0662 -0.0926
    1DIPC   C4B 9696  12.336  25.264   4.867 -0.5494 -0.1379 -0.0005
    1DIPC   NC3 9697   6.872  16.581   6.318 -0.0962 -0.1005 -0.2035
    1DIPC   PO4 9698   7.005  16.336   5.963 -0.1100 -0.2814 -0.3819
    1DIPC   GL1 9699   6.995  16.590   5.620  0.0274  0.3402  0.0482
    1DIPC   GL2 9700   7.287  16.477   5.470  0.2106 -0.3794 -0.1751
    1DIPC   C1A 9701   6.895  16.823   5.086  0.0738  0.1043  0.1888
    1DIPC   D2A 9702   6.749  17.051   4.677 -0.0449  0.0246  0.3139
    1DIPC   D3A 9703   6.366  17.383   4.707  0.0843  0.2792 -0.0719
    1DIPC   C4A 9704   6.367  17.861   4.766 -0.2244 -0.1063  0.1743
    1DIPC   C1B 9705   7.447  16.752   5.078  0.0086 -0.2070  0.2012
    1DIPC   D2B 9706   7.479  16.891   4.590  0.1549  0.0447 -0.0159
    1DIPC   D3B 9707   7.433  16.481   4.618  0.0695 -0.2306 -0.2406
    1DIPC   C4B 9708   7.238  16.070   4.514 -0.1878 -0.3127  0.1967
    1DIPC   NC3 9709  12.997  26.343   6.470  0.4692 -0.0898  0.1444
    1DIPC   PO4 9710  12.621  26.732   6.290  0.0680  0.0449  0.1685
    1DIPC   GL1 9711  12.789  26.673   5.927  0.1835 -0.2366 -0.3490
    1DIPC   GL2 9712  12.505  26.582   5.734 -0.0133  0.0398  0.1583
    1DIPC   C1A 9713  12.844  26.985   5.666 -0.2363 -0.1599 -0.0035
    1DIPC   D2A 9714  12.909  27.143   5.302  0.2934 -0.0139  0.0191
    1DIPC   D3A 9715  13.285  27.087   5.249  0.1769  0.0150  0.0970
    1DIPC   C4A 9716  13.381  26.653   5.135  0.2683  0.2787  0.0464
    1DIPC   C1B 9717  12.433  26.734   5.367  0.4601  0.4889  0.0240
    1DIPC   D2B 9718  12.381  26.764   4.975 -0.2528 -0.2826 -0.1754
    1DIPC   D3B 9719  12.540  27.252   5.023  0.3169 -0.2239  0.1172
    1DIPC   C4B 9720  12.442  27.606   4.729 -0.0304 -0.1769  0.0930
    1DIPC   NC3 9721  19.476  27.609   7.360 -0.4252  0.0641  0.2118
    1DIPC   PO4 9722  19.099  27.754   7.090 -0.0949 -0.0724 -0.2333
    1DIPC   GL1 9723  19.272  28.061   6.761 -0.1647 -0.0234  0.0643
    1DIPC   GL2 9724  19.118  28.281   6.687 -0.3262 -0.0599  0.1060
    1DIPC   C1A 9725  19.690  28.280   6.544  0.0429  0.0363  0.0905
    1DIPC   D2A 9726  19.842  28.065   6.132 -0.1093  0.2421 -0.0283
    1DIPC   D3A 9727  19.970  27.833   5.776 -0.0213  0.0676  0.0680
    1DIPC   C4A 9728  20.437  27.766   5.801  0.1669 -0.0561  0.1936
    1DIPC   C1B 9729  18.860  28.026   6.304  0.0150 -0.4635  0.2673
    1DIPC   D2B 9730  18.921  27.963   5.880  0.2420 -0.2063 -0.0248
    1DIPC   D3B 9731  19.405  28.026   5.793  0.1936  0.0690 -0.0321
    1DIPC   C4B 9732  19.574  28.045   5.363 -0.0354 -0.0419 -0.0821
    1DIPC   NC3 9733  26.100  18.721   7.126 -0.3276  0.2804  0.3213
    1DIPC   PO4 9734  26.128  18.184   7.006 -0.2121  0.2560 -0.3253
    1DIPC   GL1 9735  26.221  18.438   6.641  0.2205 -0.0799 -0.1491
    1DIPC   GL2 9736  26.115  18.181   6.457 -0.1509 -0.2232  0.0754
    1DIPC   C1A 9737  26.480  18.662   6.473 -0.2927  0.1785  0.0478
    1DIPC   D2A 9738  26.825  18.700   6.425  0.0782 -0.1404 -0.1941
    1DIPC   D3A 9739  27.035  18.769   6.019  0.0562 -0.2163  0.0077
    1DIPC   C4A 9740  26.750  18.742   5.800 -0.1507 -0.1632  0.2249
    1DIPC   C1B 9741  26.184  18.119   6.002  0.1278  0.2456 -0.0307
    1DIPC   D2B 9742  26.283  17.972   5.439  0.1764 -0.0277 -0.1205
    1DIPC   D3B 9743  26.467  17.642   5.485 -0.4729  0.0951  0.0660
    1DIPC   C4B 9744  26.700  17.610   5.824 -0.1297 -0.0893  0.0620
    1DIPC   NC3 9745  13.858  27.111   6.248 -0.1443  0.1305  0.0947
    1DIPC   PO4 9746  13.520  27.450   6.267 -0.2215 -0.0007  0.0971
    1DIPC   GL1 9747  13.684  27.736   5.921 -0.3404 -0.0912 -0.0368
    1DIPC   GL2 9748  13.542  27.941   5.720  0.0209 -0.4037 -0.1792
    1DIPC   C1A 9749  14.082  27.877   5.850  0.2951  0.0421  0.1777
    1DIPC   D2A 9750  14.463  27.769   5.736 -0.0517 -0.0144  0.0951
    1DIPC   D3A 9751  14.393  27.712   5.321 -0.0378 -0.0906 -0.0513
    1DIPC   C4A 9752  14.655  27.595   4.990  0.0027  0.0176  0.1255
    1DIPC   C1B 9753  13.874  27.782   5.409  0.1864 -0.1021  0.2842
    1DIPC   D2B 9754  13.974  27.881   5.056 -0.0061 -0.2004  0.0576
    1DIPC   D3B 9755  13.895  28.054   4.639  0.3075  0.2034 -0.0067
    1DIPC   C4B 9756  13.826  28.455   4.524 -0.1467  0.0369  0.4215
    1DIPC   NC3 9757   1.262  22.657   6.953  0.1941 -0.0057 -0.1052
    1DIPC   PO4 9758   1.288  23.057   7.173 -0.2498 -0.0426 -0.0761
    1DIPC   GL1 9759   1.259  23.143   6.710  0.0226 -0.1543 -0.2049
    1DIPC   GL2 9760   1.021  22.901   6.551  0.0268 -0.1418 -0.0252
    1DIPC   C1A 9761   1.540  23.273   6.361  0.0371  0.2163 -0.0674
    1DIPC   D2A 9762   1.842  23.481   6.349 -0.0025  0.1687 -0.0245
    1DIPC   D3A 9763   2.258  23.517   6.274 -0.2288 -0.0316  0.0190
    1DIPC   C4A 9764   2.370  23.446   5.855 -0.1149 -0.0179  0.1645
    1DIPC   C1B 9765   0.714  22.692   6.512  0.0154 -0.0964 -0.0628
    1DIPC   D2B 9766   0.260  22.652   6.447 -0.1147  0.0229 -0.3140
    1DIPC   D3B 9767   0.163  22.617   6.077 -0.0534  0.1941  0.2752
    1DIPC   C4B 9768   0.174  22.325   5.749 -0.0641 -0.1756  0.1957
    1DIPC   NC3 9769  25.797   4.113   7.095  0.1114  0.1550 -0.1202
    1DIPC   PO4 9770  25.833   3.895   6.756  0.0761 -0.0974  0.2213
    1DIPC   GL1 9771  25.869   3.613   6.365 -0.3319  0.0958  0.1236
    1DIPC   GL2 9772  26.178   3.622   6.323  0.1622  0.4652  0.1537
    1DIPC   C1A 9773  25.795   3.367   5.966  0.0222 -0.1434 -0.0748
    1DIPC   D2A 9774  25.906   3.041   5.593 -0.1542 -0.2326 -0.0654
    1DIPC   D3A 9775  25.937   3.192   5.224  0.1264 -0.0080  0.1796
    1DIPC   C4A 9776  26.158   3.060   4.860 -0.0379  0.3685  0.3697
    1DIPC   C1B 9777  26.184   3.893   5.994  0.1373 -0.1375 -0.0533
    1DIPC   D2B 9778  26.192   4.109   5.641 -0.1111  0.3636  0.2955
    1DIPC   D3B 9779  26.092   4.502   5.421  0.4167  0.0366 -0.0383
    1DIPC   C4B 9780  26.227   4.527   4.974  0.0764 -0.0781 -0.0878
    1DIPC   NC3 9781  26.918  29.186   6.816 -0.1878  0.0060 -0.1348
    1DIPC   PO4 9782  26.508  28.976   6.985 -0.0610 -0.0327  0.0649
    1DIPC   GL1 9783  26.433  29.224   6.622 -0.2259 -0.1042 -0.1585
    1DIPC   GL2 9784  26.403  28.968   6.496 -0.2145 -0.3572 -0.2790
    1DIPC   C1A 9785  26.639  29.489   6.245 -0.1541 -0.1751 -0.3082
    1DIPC   D2A 9786  26.814  29.201   5.880 -0.0449  0.4849 -0.1584
    1DIPC   D3A 9787  27.252  29.067   5.853 -0.1899  0.0783  0.2116
    1DIPC   C4A 9788  27.497  29.460   5.824 -0.2237 -0.3285 -0.0268
    1DIPC   C1B 9789  26.493  28.802   6.046  0.0444 -0.1195 -0.3724
    1DIPC   D2B 9790  26.536  28.921   5.618  0.1743  0.1398  0.0069
    1DIPC   D3B 9791  26.188  29.107   5.558  0.1078 -0.2131  0.2202
    1DIPC   C4B 9792  26.054  29.569   5.497 -0.0630  0.1081 -0.2711
    1DIPC   NC3 9793   1.487  17.407   6.619 -0.2949  0.1127  0.0972
    1DIPC   PO4 9794   1.889  17.520   6.611  0.2726 -0.2909 -0.0758
    1DIPC   GL1 9795   1.924  17.398   6.142  0.1302 -0.2190  0.0688
    1DIPC   GL2 9796   2.151  17.427   5.956 -0.0007 -0.1958 -0.1795
    1DIPC   C1A 9797   1.673  17.320   5.812 -0.2307 -0.2385  0.0765
    1DIPC   D2A 9798   1.492  17.293   5.353 -0.0210  0.1548 -0.4634
    1DIPC   D3A 9799   1.228  17.555   5.089 -0.2249 -0.1502 -0.2335
    1DIPC   C4A 9800   1.079  17.613   4.713  0.4187 -0.1849 -0.1975
    1DIPC   C1B 9801   2.383  17.445   5.731 -0.0646 -0.2086 -0.0432
    1DIPC   D2B 9802   2.499  17.490   5.285 -0.3096  0.0185  0.0905
    1DIPC   D3B 9803   2.040  17.352   5.360  0.0160  0.0020 -0.0288
    1DIPC   C4B 9804   1.882  17.125   4.993 -0.3451 -0.0125  0.0969
    1DIPC   NC3 9805  17.471  24.838   7.143  0.1385  0.4356  0.1923
    1DIPC   PO4 9806  17.388  25.282   7.237  0.1926  0.0524 -0.3937
    1DIPC   GL1 9807  17.428  25.290   6.801 -0.3037  0.4578 -0.1695
    1DIPC   GL2 9808  17.705  25.288   6.560  0.0255 -0.1743 -0.1719
    1DIPC   C1A 9809  17.080  25.203   6.501  0.4813 -0.1959  0.0008
    1DIPC   D2A 9810  16.846  24.935   6.163 -0.0879  0.0144 -0.1161
    1DIPC   D3A 9811  17.152  24.719   6.085 -0.2361  0.4433 -0.0328
    1DIPC   C4A 9812  17.401  25.028   6.185  0.1464 -0.0287  0.1244
    1DIPC   C1B 9813  17.798  25.370   6.171 -0.3422 -0.2523 -0.1825
    1DIPC   D2B 9814  18.113  25.225   5.969 -0.2210  0.1072 -0.0186
    1DIPC   D3B 9815  18.308  25.345   5.597  0.1718 -0.3146  0.2534
    1DIPC   C4B 9816  18.208  25.753   5.504 -0.2872  0.1249  0.0519
    1DIPC   NC3 9817  18.947   3.510   6.727 -0.1556 -0.0762 -0.0065
    1DIPC   PO4 9818  19.220   3.162   6.587  0.0133  0.1484 -0.0116
    1DIPC   GL1 9819  19.453   2.924   6.233  0.0696 -0.0511 -0.0446
    1DIPC   GL2 9820  19.662   3.048   6.207  0.2258 -0.0058  0.3723
    1DIPC   C1A 9821  19.502   2.780   5.838  0.1489 -0.1330  0.0005
    1DIPC   D2A 9822  19.298   2.629   5.506  0.0088  0.0654  0.5134
    1DIPC   D3A 9823  19.552   2.655   5.147  0.4374  0.0125  0.2327
    1DIPC   C4A 9824  19.449   2.877   4.798  0.0326  0.0969 -0.1152
    1DIPC   C1B 9825  20.054   3.188   5.952  0.1211  0.0195  0.2693
    1DIPC   D2B 9826  20.339   3.064   5.686 -0.0254  0.1693  0.2331
    1DIPC   D3B 9827  20.520   2.961   5.381 -0.0080 -0.1786 -0.0863
    1DIPC   C4B 9828  20.801   3.243   5.105 -0.0759  0.2773  0.3215
    1DIPC   NC3 9829  13.114  13.194   6.630  0.1020  0.0054 -0.0757
    1DIPC   PO4 9830  13.393  13.459   6.531 -0.0930  0.0470 -0.1461
    1DIPC   GL1 9831  13.166  13.508   6.151  0.0452 -0.1261  0.1723
    1DIPC   GL2 9832  12.841  13.441   6.180 -0.1677  0.2742  0.1851
    1DIPC   C1A 9833  13.382  13.675   5.845  0.0147 -0.1623  0.2908
    1DIPC   D2A 9834  13.616  13.676   5.355 -0.0138 -0.3483 -0.0761
    1DIPC   D3A 9835  13.294  13.443   5.240 -0.0380  0.3902  0.0349
    1DIPC   C4A 9836  13.273  13.239   5.720 -0.1727 -0.0706  0.3282
    1DIPC   C1B 9837  12.830  13.444   5.726  0.1076  0.1668 -0.1394
    1DIPC   D2B 9838  12.744  13.566   5.301 -0.1259 -0.1839  0.2599
    1DIPC   D3B 9839  12.386  13.696   5.184  0.0811  0.0042  0.3953
    1DIPC   C4B 9840  12.240  13.911   5.535  0.1486  0.1745  0.1805
    1DIPC   NC3 9841   2.288  18.182   7.224 -0.0186 -0.3734 -0.1197
    1DIPC   PO4 9842   2.245  18.457   6.915  0.3502 -0.2217 -0.1133
    1DIPC   GL1 9843   2.058  18.537   6.605 -0.1340 -0.0125 -0.1516
    1DIPC   GL2 9844   2.274  18.313   6.408  0.0151  0.1107  0.2384
    1DIPC   C1A 9845   1.740  18.773   6.316  0.1550  0.2347 -0.1631
    1DIPC   D2A 9846   1.388  18.709   6.113  0.2362 -0.0680  0.1985
    1DIPC   D3A 9847   1.489  18.906   5.726  0.1097  0.2400  0.1242
    1DIPC   C4A 9848   1.205  19.305   5.636 -0.2753 -0.1721 -0.1936
    1DIPC   C1B 9849   2.294  18.594   6.025 -0.0173  0.0886 -0.2189
    1DIPC   D2B 9850   2.417  18.660   5.594  0.1041 -0.2090  0.0997
    1DIPC   D3B 9851   2.614  18.508   5.289 -0.0983 -0.0604  0.0071
    1DIPC   C4B 9852   2.795  18.856   5.038 -0.1651 -0.1282  0.3385
    1DIPC   NC3 9853   2.548   7.897   6.041 -0.1795 -0.0766 -0.0438
    1DIPC   PO4 9854   2.671   8.242   5.714  0.2059 -0.4052  0.0600
    1DIPC   GL1 9855   2.640   8.234   5.190 -0.0681 -0.0481  0.2477
    1DIPC   GL2 9856   2.653   8.565   5.115 -0.1438 -0.2389 -0.3547
    1DIPC   C1A 9857   2.798   8.102   4.841  0.2289 -0.0524 -0.2118
    1DIPC   D2A 9858   3.103   8.187   4.560  0.0203 -0.0669 -0.0797
    1DIPC   D3A 9859   3.047   8.564   4.764 -0.0149  0.0163 -0.2251
    1DIPC   C4A 9860   2.903   8.900   4.549  0.0633  0.1477 -0.0127
    1DIPC   C1B 9861   2.515   8.515   4.729  0.0119 -0.1674  0.2865
    1DIPC   D2B 9862   2.614   8.293   4.425 -0.0742  0.0965  0.2613
    1DIPC   D3B 9863   2.982   8.252   4.065  0.0485 -0.1071  0.1996
    1DIPC   C4B 9864   2.926   8.227   3.659  0.1126  0.1615  0.4329
    1DIPC   NC3 9865   9.975   8.751   6.442  0.0987  0.0801  0.1975
    1DIPC   PO4 9866  10.279   8.496   6.560 -0.0198  0.0566  0.0632
    1DIPC   GL1 9867  10.394   8.249   6.197 -0.0285 -0.1637 -0.0655
    1DIPC   GL2 9868  10.229   8.303   6.001 -0.0165  0.2219  0.2942
    1DIPC   C1A 9869  10.435   7.757   6.077  0.1032 -0.0129 -0.0031
    1DIPC   D2A 9870  10.413   7.454   5.708  0.0806 -0.0913 -0.4042
    1DIPC   D3A 9871  10.130   7.187   5.754  0.5845  0.1119  0.1073
    1DIPC   C4A 9872   9.844   7.050   5.352  0.2464 -0.1551 -0.3664
    1DIPC   C1B 9873  10.400   7.997   5.660 -0.1219 -0.0947 -0.0480
    1DIPC   D2B 9874  10.880   7.954   5.701 -0.0191 -0.3889 -0.3757
    1DIPC   D3B 9875  11.265   8.160   5.421 -0.1302  0.1655 -0.1179
    1DIPC   C4B 9876  11.244   8.001   5.045  0.0073 -0.1086  0.2882
    1DIPC   NC3 9877  19.241   1.888   6.793  0.1486 -0.1246  0.2825
    1DIPC   PO4 9878  18.986   2.213   6.779  0.2290 -0.1041  0.0962
    1DIPC   GL1 9879  19.201   2.115   6.327 -0.0601  0.1281 -0.3688
    1DIPC   GL2 9880  19.261   2.355   6.074  0.1434 -0.0249 -0.1947
    1DIPC   C1A 9881  19.355   1.874   5.954  0.0442  0.2392  0.0820
    1DIPC   D2A 9882  19.781   1.791   5.824  0.1163  0.2165  0.0472
    1DIPC   D3A 9883  19.838   1.672   5.321  0.1874 -0.0285 -0.1489
    1DIPC   C4A 9884  19.898   1.715   4.831 -0.3717  0.1345 -0.1115
    1DIPC   C1B 9885  18.955   2.286   5.698 -0.1078 -0.2198  0.2710
    1DIPC   D2B 9886  18.745   1.893   5.580  0.0998 -0.0152  0.0426
    1DIPC   D3B 9887  18.899   1.955   5.173  0.0262  0.1866  0.1061
    1DIPC   C4B 9888  19.240   2.313   4.981 -0.3795 -0.3562 -0.0549
    1DIPC   NC3 9889  29.237  27.570   6.944  0.0218  0.0512  0.0720
    1DIPC   PO4 9890  29.492  27.593   6.556 -0.1470 -0.0808  0.0320
    1DIPC   GL1 9891  29.386  27.539   6.159 -0.1977  0.1083  0.0565
    1DIPC   GL2 9892  29.558  27.700   5.900  0.2344 -0.1499 -0.0014
    1DIPC   C1A 9893  29.096  27.369   5.835 -0.2174 -0.2407 -0.2475
    1DIPC   D2A 9894  28.770  27.425   5.635 -0.0915  0.3943  0.4732
    1DIPC   D3A 9895  28.840  27.725   5.253 -0.0929 -0.0776  0.1933
    1DIPC   C4A 9896  28.702  27.524   4.890  0.1026  0.0368 -0.0599
    1DIPC   C1B 9897   0.037  27.963   5.458  0.3696  0.0231  0.4044
    1DIPC   D2B 9898  29.322  28.086   5.248  0.1032 -0.0944 -0.1238
    1DIPC   D3B 9899  29.469  28.499   5.429 -0.1243 -0.1622  0.1707
    1DIPC   C4B 9900   0.217  28.511   5.502  0.2424 -0.0624  0.1216
    1DIPC   NC3 9901  18.887  24.538   7.914 -0.1463  0.4691 -0.1684
    1DIPC   PO4 9902  19.035  24.783   7.623  0.0948  0.0593 -0.0430
    1DIPC   GL1 9903  19.244  24.522   7.250  0.1155 -0.1401  0.1982
    1DIPC   GL2 9904  18.963  24.661   7.000  0.0312  0.3575 -0.0306
    1DIPC   C1A 9905  19.406  24.299   6.815 -0.1255  0.0927  0.0895
    1DIPC   D2A 9906  19.026  24.077   6.639 -0.1230  0.0744 -0.1395
    1DIPC   D3A 9907  19.163  23.764   6.342 -0.1141  0.1484 -0.0503
    1DIPC   C4A 9908  19.283  23.938   5.938  0.3270 -0.2006 -0.0134
    1DIPC   C1B 9909  19.053  24.574   6.532  0.1542 -0.0083 -0.0108
    1DIPC   D2B 9910  19.356  24.404   6.273  0.1069 -0.2640  0.1261
    1DIPC   D3B 9911  19.675  24.733   6.202 -0.3096  0.0956 -0.2559
    1DIPC   C4B 9912  20.085  24.456   6.100 -0.0027 -0.0574 -0.1169
    1DIPC   NC3 9913  19.720  17.346   7.586  0.2042 -0.0076  0.1459
    1DIPC   PO4 9914  20.157  17.252   7.519 -0.0984 -0.1163 -0.0592
    1DIPC   GL1 9915  19.969  17.072   7.224  0.1454  0.3687  0.0978
    1DIPC   GL2 9916  19.722  17.245   7.072  0.0047  0.1891  0.1493
    1DIPC   C1A 9917  19.838  16.794   6.833 -0.1097 -0.1709  0.0969
    1DIPC   D2A 9918  19.702  16.491   6.411  0.2125 -0.0346  0.1720
    1DIPC   D3A 9919  20.113  16.631   6.421  0.0609 -0.1823  0.1809
    1DIPC   C4A 9920  20.265  17.061   6.384 -0.4484 -0.0016  0.0219
    1DIPC   C1B 9921  20.022  17.318   6.811  0.0994 -0.4179 -0.1371
    1DIPC   D2B 9922  20.063  17.548   6.407 -0.0160  0.3769 -0.0830
    1DIPC   D3B 9923  19.875  17.373   5.995  0.2148 -0.3720  0.2557
    1DIPC   C4B 9924  19.632  17.635   5.680 -0.5638 -0.1631  0.3473
    1DIPC   NC3 9925  15.403   8.373   6.328 -0.4263  0.0170  0.1725
    1DIPC   PO4 9926  15.713   8.154   6.351  0.1074 -0.1240  0.0850
    1DIPC   GL1 9927  15.890   8.027   6.015  0.2015 -0.0760  0.0408
    1DIPC   GL2 9928  16.171   7.877   5.901 -0.2668 -0.0556  0.0299
    1DIPC   C1A 9929  15.745   8.085   5.551  0.0439  0.0636 -0.1574
    1DIPC   D2A 9930  15.727   8.126   5.035  0.0081  0.0217  0.2563
    1DIPC   D3A 9931  15.960   7.868   4.800 -0.1172  0.1971 -0.1207
    1DIPC   C4A 9932  16.110   7.407   5.021 -0.0125 -0.1695 -0.1113
    1DIPC   C1B 9933  16.174   8.037   5.372 -0.1041  0.1710  0.2110
    1DIPC   D2B 9934  16.256   8.349   5.084 -0.1298  0.0039 -0.0162
    1DIPC   D3B 9935  16.174   8.259   4.649 -0.0934 -0.1089 -0.0978
    1DIPC   C4B 9936  15.831   8.323   4.406 -0.1237  0.1209  0.2931
    1DIPC   NC3 9937  22.863  21.916   7.065  0.1469  0.0020 -0.3316
    1DIPC   PO4 9938  23.112  22.031   6.728 -0.0529  0.2535 -0.1216
    1DIPC   GL1 9939  22.829  21.929   6.513 -0.0700  0.2573  0.0086
    1DIPC   GL2 9940  22.689  21.719   6.499  0.4280 -0.0217  0.1555
    1DIPC   C1A 9941  22.847  22.105   6.111  0.3015 -0.1726 -0.3002
    1DIPC   D2A 9942  22.416  22.287   6.148  0.2352  0.1881 -0.1129
    1DIPC   D3A 9943  22.324  22.742   6.085 -0.1193 -0.2991 -0.1828
    1DIPC   C4A 9944  22.617  23.040   5.973 -0.1256  0.1207  0.1367
    1DIPC   C1B 9945  22.466  21.783   6.066  0.0058 -0.2567  0.0671
    1DIPC   D2B 9946  22.559  22.059   5.677  0.2342  0.3567  0.0458
    1DIPC   D3B 9947  22.314  22.439   5.624 -0.0632 -0.2955  0.0433
    1DIPC   C4B 9948  22.604  22.735   5.569 -0.2009 -0.0651  0.0842
    1DIPC   NC3 9949  23.199  21.182   7.085 -0.0797 -0.3695  0.1235
    1DIPC   PO4 9950  22.761  21.444   7.317 -0.1323 -0.1813  0.1580
    1DIPC   GL1 9951  22.341  21.640   7.026  0.1057  0.0521  0.0818
    1DIPC   GL2 9952  22.445  21.992   6.907 -0.2615  0.1269  0.0827
    1DIPC   C1A 9953  22.281  21.489   6.707 -0.0126  0.0451  0.1350
    1DIPC   D2A 9954  22.425  21.303   6.385  0.3753 -0.0954 -0.1358
    1DIPC   D3A 9955  22.314  21.321   5.995 -0.0063 -0.2100 -0.3230
    1DIPC   C4A 9956  22.195  21.260   5.463  0.2866  0.0662 -0.0134
    1DIPC   C1B 9957  22.277  21.985   6.558 -0.0871  0.1832  0.1453
    1DIPC   D2B 9958  22.020  21.950   6.175  0.0735  0.1106 -0.2771
    1DIPC   D3B 9959  22.097  21.891   5.695 -0.0875  0.2432  0.2141
    1DIPC   C4B 9960  22.019  21.685   5.331  0.0125  0.1610  0.0275
    1DIPC   NC3 9961  13.675  21.454   6.032  0.1265  0.0538 -0.1017
    1DIPC   PO4 9962  13.272  21.439   5.981 -0.0723 -0.3740  0.1598
    1DIPC   GL1 9963  13.194  21.419   5.467  0.1234 -0.0028 -0.0288
    1DIPC   GL2 9964  13.346  21.116   5.413 -0.0309 -0.0465  0.0814
    1DIPC   C1A 9965  12.987  21.796   5.248  0.2366 -0.1983  0.0281
    1DIPC   D2A 9966  12.677  22.054   5.415 -0.1214  0.0656 -0.0414
    1DIPC   D3A 9967  12.751  22.420   5.361 -0.0380 -0.2720 -0.1755
    1DIPC   C4A 9968  13.039  22.720   5.401 -0.2086  0.0504  0.4027
    1DIPC   C1B 9969  13.360  21.003   4.974  0.2893 -0.0361  0.1713
    1DIPC   D2B 9970  13.670  21.129   4.572 -0.0277 -0.1541 -0.1102
    1DIPC   D3B 9971  13.960  21.384   4.554 -0.1196 -0.0940  0.0103
    1DIPC   C4B 9972  14.250  21.264   4.176 -0.1138 -0.3369 -0.3820
    1DIPC   NC3 9973  12.241  26.442   6.092 -0.1399 -0.1832  0.0200
    1DIPC   PO4 9974  12.286  26.061   6.167 -0.1982  0.0891  0.0586
    1DIPC   GL1 9975  12.420  25.887   5.811 -0.1227  0.1715 -0.0470
    1DIPC   GL2 9976  12.405  26.124   5.560 -0.0983  0.0360  0.0167
    1DIPC   C1A 9977  12.572  25.548   5.515  0.1124  0.0093 -0.1954
    1DIPC   D2A 9978  12.764  25.310   5.147  0.0559 -0.1358 -0.0239
    1DIPC   D3A 9979  13.106  25.394   4.913  0.0889  0.3145  0.2930
    1DIPC   C4A 9980  13.271  25.744   4.804 -0.0688 -0.2300  0.0914
    1DIPC   C1B 9981  12.772  26.045   5.440  0.2111  0.0835  0.2400
    1DIPC   D2B 9982  12.817  25.835   5.131  0.1948  0.2658 -0.5358
    1DIPC   D3B 9983  12.326  25.708   5.120  0.2576 -0.2390 -0.0108
    1DIPC   C4B 9984  12.206  25.965   4.881 -0.0960  0.0949  0.3457
    1DIPC   NC3 9985   7.436  12.398   5.757 -0.3063  0.2134 -0.0198
    1DIPC   PO4 9986   7.456  12.792   5.917 -0.1678  0.2062 -0.0287
    1DIPC   GL1 9987   7.426  12.804   5.424 -0.0559 -0.0171 -0.0221
    1DIPC   GL2 9988   7.192  12.578   5.261 -0.0736 -0.3291  0.0904
    1DIPC   C1A 9989   7.561  12.905   5.135  0.1460 -0.1668 -0.1466
    1DIPC   D2A 9990   7.578  13.142   4.796  0.0007  0.1020 -0.2542
    1DIPC   D3A 9991   7.939  13.164   4.915  0.0389  0.1489  0.2857
    1DIPC   C4A 9992   8.186  13.048   4.629 -0.2357  0.1516 -0.0309
    1DIPC   C1B 9993   7.192  12.592   4.804 -0.0987 -0.1307 -0.2923
    1DIPC   D2B 9994   7.057  12.472   4.434 -0.0837  0.2324  0.1125
    1DIPC   D3B 9995   7.213  11.999   4.331 -0.0590 -0.3937  0.0953
    1DIPC   C4B 9996   7.483  11.739   4.499 -0.0369 -0.0516 -0.0394
    1DIPC   NC3 9997  17.692   3.262   6.928  0.1812 -0.0619  0.3269
    1DIPC   PO4 9998  17.781   3.353   6.442 -0.1363 -0.2663  0.0713
    1DIPC   GL1 9999  17.890   3.268   6.095 -0.2851  0.2892 -0.3186
    1DIPC   GL210000  17.775   3.575   5.919  0.0440 -0.0475 -0.3724
    1DIPC   C1A10001  18.107   3.020   5.714  0.2849  0.0766  0.0526
    1DIPC   D2A10002  18.358   2.808   5.348 -0.1840  0.3054 -0.0849
    1DIPC   D3A10003  18.214   2.611   4.991  0.1200  0.0236  0.2238
    1DIPC   C4A10004  17.951   2.700   4.746  0.1586 -0.1903 -0.2397
    1DIPC   C1B10005  17.983   3.579   5.555 -0.1028 -0.0535  0.0227
    1DIPC   D2B10006  18.351   3.795   5.356  0.1365  0.0898 -0.0882
    1DIPC   D3B10007  18.439   3.622   4.848  0.2956 -0.1248  0.1321
    1DIPC   C4B10008  18.580   3.310   4.634  0.0418  0.0378 -0.0904
    1DIPC   NC310009  24.529  19.303   7.353  0.0620 -0.0193  0.0255
    1DIPC   PO410010  24.540  19.147   6.896 -0.0746 -0.2289 -0.1342
    1DIPC   GL110011  24.788  19.240   6.584 -0.0864  0.0307  0.0431
    1DIPC   GL210012  24.715  19.155   6.296  0.0937  0.0676  0.1778
    1DIPC   C1A10013  25.143  19.409   6.311  0.2111  0.0213  0.0729
    1DIPC   D2A10014  25.201  19.248   5.931 -0.2112  0.2064 -0.0714
    1DIPC   D3A10015  24.799  19.257   5.723  0.0701 -0.1067 -0.1199
    1DIPC   C4A10016  24.901  19.203   5.389 -0.0293  0.1573 -0.1808
    1DIPC   C1B10017  24.412  19.179   6.019 -0.0117  0.0453  0.1109
    1DIPC   D2B10018  24.262  19.291   5.629  0.1141  0.0056  0.1708
    1DIPC   D3B10019  24.458  19.633   5.814  0.1039 -0.0986 -0.1627
    1DIPC   C4B10020  24.742  19.666   6.165  0.0501 -0.0859 -0.3036
    1DIPC   NC310021   0.461  26.317   6.756 -0.2101 -0.2225 -0.1356
    1DIPC   PO410022   0.836  26.455   6.362 -0.1528 -0.1831 -0.1906
    1DIPC   GL110023   0.826  26.341   6.003 -0.2201  0.1176  0.0458
    1DIPC   GL210024   0.465  26.315   5.950  0.3088  0.0135 -0.1209
    1DIPC   C1A10025   0.886  26.378   5.547 -0.2423 -0.0782  0.0935
    1DIPC   D2A10026   0.860  26.456   5.097  0.0734  0.0679  0.0318
    1DIPC   D3A10027   1.144  26.787   4.930 -0.3448 -0.0069 -0.2609
    1DIPC   C4A10028   1.259  26.780   4.560 -0.2307  0.1649  0.3470
    1DIPC   C1B10029   0.576  26.717   5.808  0.1023 -0.3731 -0.4225
    1DIPC   D2B10030   1.121  26.802   5.704  0.1969  0.3692  0.0643
    1DIPC   D3B10031   1.410  27.031   5.773 -0.0917  0.3446  0.1197
    1DIPC   C4B10032   1.706  26.877   5.914 -0.0777 -0.3059 -0.0721
    1DIPC   NC310033   5.807  14.392   6.689 -0.0360  0.1914 -0.1444
    1DIPC   PO410034   5.856  14.288   6.251 -0.0004  0.0239 -0.1753
    1DIPC   GL110035   5.879  14.276   5.719  0.0111 -0.0408 -0.0678
    1DIPC   GL210036   6.060  14.053   5.597  0.0127  0.0759 -0.1979
    1DIPC   C1A10037   5.696  14.409   5.432 -0.3983 -0.1154 -0.2177
    1DIPC   D2A10038   5.767  14.471   4.988 -0.4421 -0.1337 -0.0282
    1DIPC   D3A10039   5.837  14.898   4.898  0.1706 -0.0726  0.0035
    1DIPC   C4A10040   5.713  14.731   4.497  0.0825 -0.1401 -0.1504
    1DIPC   C1B10041   5.968  14.006   5.185 -0.2402 -0.1520 -0.0393
    1DIPC   D2B10042   6.093  14.060   4.801 -0.3099  0.2165 -0.4553
    1DIPC   D3B10043   6.263  13.835   4.561 -0.1192  0.0180 -0.0499
    1DIPC   C4B10044   6.350  13.713   4.128 -0.1532 -0.1248 -0.1687
    1DIPC   NC310045  15.931  29.472   6.707 -0.2086 -0.1195  0.2532
    1DIPC   PO410046  15.866   0.296   6.468 -0.2004 -0.3351  0.1991
    1DIPC   GL110047  15.704   0.358   6.031  0.0997 -0.1022 -0.1243
    1DIPC   GL210048  15.609   0.056   5.983 -0.2040  0.1244 -0.1859
    1DIPC   C1A10049  15.760   0.213   5.511  0.3478 -0.2156 -0.2565
    1DIPC   D2A10050  15.839   0.319   5.167 -0.1900 -0.1991 -0.0459
    1DIPC   D3A10051  15.504   0.389   5.145  0.1055  0.2894 -0.2225
    1DIPC   C4A10052  15.160   0.163   4.971  0.2864  0.2357  0.1661
    1DIPC   C1B10053  15.298  29.568   5.596  0.1802 -0.1639  0.1402
    1DIPC   D2B10054  15.538  29.539   5.120 -0.1433  0.0207  0.0090
    1DIPC   D3B10055  15.841  29.391   5.228  0.0640 -0.0264 -0.2396
    1DIPC   C4B10056  15.902  28.962   4.996  0.1824 -0.2509  0.0482
    1DIPC   NC310057   4.216  24.868   7.282 -0.1107  0.0736  0.2503
    1DIPC   PO410058   4.120  25.037   6.851  0.0432 -0.3663 -0.0033
    1DIPC   GL110059   4.143  25.352   6.569  0.0922  0.3498  0.0738
    1DIPC   GL210060   3.864  25.543   6.321 -0.2265  0.0088 -0.2220
    1DIPC   C1A10061   4.314  25.343   6.154 -0.0161  0.1286  0.0554
    1DIPC   D2A10062   4.233  25.281   5.603  0.2436  0.1010 -0.0008
    1DIPC   D3A10063   4.543  25.524   5.684 -0.1761  0.1229 -0.2692
    1DIPC   C4A10064   4.841  25.862   5.696  0.1538  0.1084  0.0303
    1DIPC   C1B10065   4.008  25.603   5.859 -0.1482 -0.1552  0.0413
    1DIPC   D2B10066   3.909  25.687   5.444  0.1448 -0.0912 -0.0306
    1DIPC   D3B10067   4.281  25.672   5.185 -0.2504  0.1610 -0.2154
    1DIPC   C4B10068   4.727  25.520   5.226  0.1227  0.2712 -0.1217
    1DIPC   NC310069  21.180  16.531   7.915 -0.0675  0.0217  0.5463
    1DIPC   PO410070  20.811  16.635   7.695  0.1482  0.3163  0.3217
    1DIPC   GL110071  20.638  16.426   7.413 -0.0702 -0.0831  0.1945
    1DIPC   GL210072  20.429  16.260   7.509  0.2340  0.0265 -0.0556
    1DIPC   C1A10073  20.668  16.506   6.910  0.0430  0.0173 -0.0023
    1DIPC   D2A10074  20.516  16.279   6.502 -0.1098  0.1762  0.1711
    1DIPC   D3A10075  20.573  16.495   6.148 -0.0624 -0.4771 -0.2175
    1DIPC   C4A10076  20.344  16.204   5.842 -0.4093  0.3128  0.2982
    1DIPC   C1B10077  20.380  16.017   7.198  0.0619  0.0787 -0.1332
    1DIPC   D2B10078  20.301  15.783   6.778  0.2057  0.2600 -0.0197
    1DIPC   D3B10079  20.722  15.612   6.957  0.0338  0.1315 -0.0237
    1DIPC   C4B10080  21.130  15.433   6.744 -0.2280 -0.0665 -0.2216
    1DIPC   NC310081   9.819  11.744   5.497  0.0192 -0.4182 -0.0711
    1DIPC   PO410082   9.864  12.225   5.542  0.0216 -0.0615  0.1066
    1DIPC   GL110083  10.092  12.569   5.343 -0.0808  0.2398 -0.0625
    1DIPC   GL210084  10.397  12.424   5.293 -0.0782 -0.1898  0.2461
    1DIPC   C1A10085  10.235  12.972   5.620  0.0904  0.0382 -0.2580
    1DIPC   D2A10086  10.631  13.319   5.591  0.4308  0.0958 -0.0042
    1DIPC   D3A10087  10.447  13.733   5.595 -0.0281 -0.1034 -0.2743
    1DIPC   C4A10088  10.035  13.498   5.423  0.1265 -0.2336  0.2585
    1DIPC   C1B10089  10.357  12.532   4.894 -0.0148 -0.0863 -0.2576
    1DIPC   D2B10090  10.376  12.732   4.497  0.0655  0.2232  0.0038
    1DIPC   D3B10091  10.778  12.729   4.610 -0.0277  0.1980 -0.0690
    1DIPC   C4B10092  11.117  12.758   4.266  0.2155 -0.0491 -0.1234
    1DIPC   NC310093  20.277  22.895   7.531 -0.3148 -0.2657  0.0753
    1DIPC   PO410094  20.411  22.780   7.222  0.0630  0.4687  0.1437
    1DIPC   GL110095  20.524  22.902   6.857 -0.0359  0.1837 -0.1292
    1DIPC   GL210096  20.677  23.223   6.871  0.1961  0.0492 -0.0790
    1DIPC   C1A10097  20.829  22.689   6.694 -0.0766  0.0069 -0.1111
    1DIPC   D2A10098  21.300  22.611   6.794  0.0811 -0.0103  0.2150
    1DIPC   D3A10099  21.224  22.846   6.393 -0.1975 -0.0128  0.2028
    1DIPC   C4A10100  20.735  22.960   6.270  0.0984 -0.1430 -0.0264
    1DIPC   C1B10101  20.529  23.350   6.528 -0.0391 -0.3203  0.0526
    1DIPC   D2B10102  20.268  23.564   6.245  0.0846  0.1702 -0.0821
    1DIPC   D3B10103  20.119  23.873   6.303  0.2209 -0.1591  0.1499
    1DIPC   C4B10104  20.155  24.000   6.737 -0.1553 -0.2191  0.0562
    1DIPC   NC310105   0.343   1.992   6.384 -0.1119 -0.0539 -0.2409
    1DIPC   PO410106   0.188   2.220   6.619 -0.2300 -0.1258  0.2337
    1DIPC   GL110107   0.187   2.369   6.117  0.2499 -0.2399  0.1941
    1DIPC   GL210108   0.336   2.655   5.918 -0.0706  0.0135  0.1235
    1DIPC   C1A10109   0.428   2.145   5.731  0.0875  0.0534 -0.1830
    1DIPC   D2A10110   0.446   1.709   5.533  0.1287  0.1701  0.1380
    1DIPC   D3A10111   0.517   1.521   5.159  0.0382 -0.0727  0.0918
    1DIPC   C4A10112   0.274   1.582   4.753 -0.1698  0.0621 -0.0946
    1DIPC   C1B10113   0.117   2.484   5.512  0.3562  0.3373  0.0418
    1DIPC   D2B10114  29.313   2.307   5.316  0.0765 -0.2118 -0.2172
    1DIPC   D3B10115  29.406   2.248   4.811 -0.0750  0.0093  0.0253
    1DIPC   C4B10116   0.081   2.559   4.813 -0.0703 -0.1053  0.0462
    1DIPC   NC310117  15.421   0.543   6.422 -0.0458 -0.0301 -0.1713
    1DIPC   PO410118  15.709   0.778   6.301 -0.1292 -0.0320  0.0380
    1DIPC   GL110119  15.894   0.831   5.946  0.1337 -0.3940 -0.0110
    1DIPC   GL210120  15.829   1.097   5.755  0.0379 -0.0627 -0.0954
    1DIPC   C1A10121  16.022   0.643   5.574  0.1062  0.1072 -0.2126
    1DIPC   D2A10122  16.310   0.276   5.557  0.1529  0.1592 -0.1472
    1DIPC   D3A10123  16.766   0.189   5.344 -0.1609 -0.1125 -0.0773
    1DIPC   C4A10124  17.027   0.435   5.600 -0.0915  0.1174  0.1555
    1DIPC   C1B10125  16.047   1.402   5.482  0.2527 -0.0877 -0.0245
    1DIPC   D2B10126  16.339   1.674   5.351 -0.2324 -0.0867  0.2245
    1DIPC   D3B10127  15.951   1.689   5.079 -0.2184  0.0806  0.0358
    1DIPC   C4B10128  15.677   1.507   5.179  0.2658  0.0961  0.0281
    1DIPC   NC310129   5.767  26.583   7.023 -0.0098 -0.1788 -0.2200
    1DIPC   PO410130   5.688  26.687   6.512 -0.0923 -0.2118  0.0213
    1DIPC   GL110131   5.797  26.389   6.222 -0.0820 -0.2589  0.0554
    1DIPC   GL210132   5.951  26.488   6.068  0.1901  0.0355 -0.0407
    1DIPC   C1A10133   5.750  25.973   6.207  0.0025  0.1685 -0.0064
    1DIPC   D2A10134   5.902  25.649   6.320 -0.2315  0.1187 -0.0010
    1DIPC   D3A10135   5.573  25.472   6.506 -0.4273 -0.2199 -0.3347
    1DIPC   C4A10136   5.290  25.305   6.373  0.1525 -0.1796  0.0767
    1DIPC   C1B10137   6.035  26.302   5.636  0.3480 -0.1057 -0.1272
    1DIPC   D2B10138   5.925  26.044   5.293  0.0958  0.0224 -0.2403
    1DIPC   D3B10139   6.102  26.413   5.126 -0.0158  0.0832  0.1307
    1DIPC   C4B10140   5.815  26.739   5.052  0.1027  0.0585 -0.1702
    1DIPC   NC310141  23.788  19.952   7.737  0.0535  0.0179  0.4086
    1DIPC   PO410142  23.460  20.027   7.407 -0.3828  0.2331  0.0512
    1DIPC   GL110143  23.600  19.974   7.048  0.2419  0.4672 -0.0682
    1DIPC   GL210144  23.729  20.273   6.929 -0.1855  0.0082  0.1395
    1DIPC   C1A10145  23.322  19.926   6.737  0.3778  0.1797  0.2104
    1DIPC   D2A10146  23.426  19.806   6.334 -0.1962 -0.0118  0.1373
    1DIPC   D3A10147  23.648  19.893   6.011  0.1508 -0.0558  0.4366
    1DIPC   C4A10148  24.027  19.992   5.756 -0.0697 -0.0568  0.0936
    1DIPC   C1B10149  23.587  20.255   6.437 -0.0247  0.0620 -0.0636
    1DIPC   D2B10150  23.232  20.228   6.143 -0.2104  0.1956  0.0031
    1DIPC   D3B10151  23.439  20.344   5.733 -0.0868  0.1412  0.1230
    1DIPC   C4B10152  23.298  20.357   5.397 -0.0467 -0.0950  0.3343
    1DIPC   NC310153  21.630  24.360   7.343 -0.1372  0.0664  0.1705
    1DIPC   PO410154  22.052  24.315   7.234  0.1466 -0.3426  0.1009
    1DIPC   GL110155  22.006  24.493   6.887  0.2216  0.0299 -0.2490
    1DIPC   GL210156  21.763  24.636   6.888 -0.0414  0.1870 -0.0708
    1DIPC   C1A10157  22.098  24.595   6.531  0.0422 -0.0636 -0.4035
    1DIPC   D2A10158  22.255  24.972   6.238  0.0068 -0.1111 -0.1151
    1DIPC   D3A10159  22.460  25.156   5.815  0.3281 -0.1409  0.0801
    1DIPC   C4A10160  22.640  24.928   5.440 -0.0133  0.1389 -0.0079
    1DIPC   C1B10161  21.614  24.606   6.419 -0.2855  0.0181 -0.1663
    1DIPC   D2B10162  21.508  24.497   6.032 -0.2797 -0.1595  0.1473
    1DIPC   D3B10163  22.053  24.427   6.050 -0.0294 -0.2343 -0.0434
    1DIPC   C4B10164  22.290  24.632   5.706  0.1715  0.2507  0.2607
    1DIPC   NC310165  26.414  22.722   7.489 -0.1167  0.0101 -0.0160
    1DIPC   PO410166  26.812  22.520   7.215 -0.0782 -0.1165  0.4326
    1DIPC   GL110167  26.663  22.307   6.758  0.0062  0.0023  0.1269
    1DIPC   GL210168  26.896  22.474   6.610  0.0872 -0.0907  0.0404
    1DIPC   C1A10169  26.333  22.315   6.377  0.0537 -0.0180 -0.1615
    1DIPC   D2A10170  26.328  22.212   5.934  0.0532 -0.1281  0.0558
    1DIPC   D3A10171  26.612  22.507   5.964 -0.0477 -0.0813  0.2114
    1DIPC   C4A10172  26.918  22.612   5.679  0.0097 -0.0163  0.1230
    1DIPC   C1B10173  26.654  22.675   6.435  0.1206 -0.0777  0.2865
    1DIPC   D2B10174  26.304  22.913   6.417 -0.3053  0.0057 -0.0551
    1DIPC   D3B10175  26.599  23.147   6.225 -0.2203 -0.0490  0.0977
    1DIPC   C4B10176  26.720  23.020   5.863 -0.1720  0.2736 -0.0411
    1DIPC   NC310177  12.328   5.688   6.105 -0.1197 -0.1072  0.0003
    1DIPC   PO410178  12.431   5.883   5.741 -0.1671  0.2121 -0.0921
    1DIPC   GL110179  12.427   5.730   5.344  0.4365 -0.1334 -0.0497
    1DIPC   GL210180  12.235   5.504   5.191  0.3180 -0.1724 -0.0946
    1DIPC   C1A10181  12.615   5.760   4.968  0.1156  0.0372  0.0418
    1DIPC   D2A10182  12.812   5.635   4.634 -0.0849 -0.2964 -0.0623
    1DIPC   D3A10183  13.052   5.974   4.388  0.2391  0.0576 -0.1101
    1DIPC   C4A10184  12.976   6.405   4.461 -0.4929 -0.1192  0.0155
    1DIPC   C1B10185  11.940   5.118   5.256 -0.0581  0.1052  0.1850
    1DIPC   D2B10186  12.062   4.670   5.174 -0.1032  0.0661 -0.0647
    1DIPC   D3B10187  12.368   4.642   4.893  0.3304  0.3940 -0.1085
    1DIPC   C4B10188  12.850   4.660   4.964 -0.4984 -0.1642  0.0258
    1DIPC   NC310189  23.774  18.194   6.747 -0.0558 -0.0576  0.0134
    1DIPC   PO410190  24.137  18.346   6.463 -0.1826 -0.0555 -0.0535
    1DIPC   GL110191  24.067  18.579   6.039  0.0015 -0.0396  0.1360
    1DIPC   GL210192  23.828  18.401   5.808  0.0300  0.2133 -0.0371
    1DIPC   C1A10193  24.070  18.783   5.682  0.1026  0.2857  0.2558
    1DIPC   D2A10194  23.960  18.891   5.193  0.0229  0.1462 -0.2402
    1DIPC   D3A10195  23.576  19.245   5.175  0.0252  0.3948 -0.2543
    1DIPC   C4A10196  23.212  19.054   5.230 -0.0740  0.1766  0.1577
    1DIPC   C1B10197  23.549  17.943   5.661  0.1610 -0.3342 -0.1391
    1DIPC   D2B10198  23.150  18.057   5.473 -0.2291 -0.1085  0.2354
    1DIPC   D3B10199  23.211  18.504   5.199 -0.1004 -0.3295  0.1420
    1DIPC   C4B10200  23.540  18.688   5.386  0.2085  0.3350  0.3812
    1DIPC   NC310201   1.732  29.460   6.399  0.2556 -0.2120 -0.2067
    1DIPC   PO410202   2.157  29.239   6.339 -0.2070 -0.2633  0.2179
    1DIPC   GL110203   2.414  29.112   5.903  0.2287  0.1508  0.0241
    1DIPC   GL210204   2.545  29.365   5.823 -0.1106  0.2240  0.0066
    1DIPC   C1A10205   2.534  28.933   5.508 -0.0604  0.0508 -0.1229
    1DIPC   D2A10206   2.868  28.886   5.206 -0.0541  0.1780 -0.2259
    1DIPC   D3A10207   3.075  28.574   5.041 -0.1276 -0.1722  0.0467
    1DIPC   C4A10208   2.889  28.065   4.996 -0.2167 -0.0532 -0.1123
    1DIPC   C1B10209   2.144  29.420   5.589 -0.1250 -0.3965  0.0601
    1DIPC   D2B10210   2.076  29.202   5.280 -0.1587 -0.0285 -0.2875
    1DIPC   D3B10211   1.825  29.430   5.112 -0.1551  0.0940 -0.2042
    1DIPC   C4B10212   1.648   0.019   5.446 -0.0285  0.0632 -0.1421
    1DIPC   NC310213  27.048  26.826   7.191  0.0419  0.0608  0.0532
    1DIPC   PO410214  27.522  26.765   7.118 -0.0234  0.0705 -0.0879
    1DIPC   GL110215  27.683  27.168   6.822 -0.0760  0.1666 -0.0711
    1DIPC   GL210216  27.685  27.484   6.825  0.2705  0.1398 -0.0012
    1DIPC   C1A10217  27.604  27.272   6.384 -0.0793 -0.0976 -0.1050
    1DIPC   D2A10218  27.647  27.165   5.939  0.0778  0.0747 -0.3977
    1DIPC   D3A10219  27.552  26.902   5.625  0.0692 -0.2431  0.1838
    1DIPC   C4A10220  27.318  26.910   5.231 -0.0780  0.2306  0.0676
    1DIPC   C1B10221  27.879  27.663   6.431  0.1665 -0.1005  0.2005
    1DIPC   D2B10222  28.175  27.439   6.189  0.2429  0.2350  0.0215
    1DIPC   D3B10223  28.253  27.423   5.806  0.2651  0.0006 -0.1751
    1DIPC   C4B10224  28.108  27.865   5.511 -0.1047 -0.1086 -0.1236
    1DIPC   NC310225  14.713  15.634   6.492  0.1010 -0.1354  0.1165
    1DIPC   PO410226  14.418  15.934   6.452 -0.0540  0.0531  0.0934
    1DIPC   GL110227  14.318  16.026   6.082 -0.5346  0.0563 -0.0122
    1DIPC   GL210228  14.328  15.745   5.747 -0.1647  0.0305 -0.1389
    1DIPC   C1A10229  14.595  16.142   5.733  0.1295 -0.0852  0.3298
    1DIPC   D2A10230  14.947  16.084   5.571 -0.2684 -0.0554 -0.2867
    1DIPC   D3A10231  15.018  15.805   5.081 -0.1371 -0.0159 -0.2187
    1DIPC   C4A10232  15.286  15.758   4.848  0.0185 -0.0683  0.1988
    1DIPC   C1B10233  14.673  15.649   5.502 -0.0424  0.3010 -0.1620
    1DIPC   D2B10234  14.735  15.348   5.153 -0.0291  0.0692  0.1799
    1DIPC   D3B10235  14.862  15.482   4.757  0.0292 -0.2071  0.0592
    1DIPC   C4B10236  14.546  15.694   4.554 -0.1115 -0.2228  0.1191
    1DIPC   NC310237  15.338   5.202   6.660 -0.1119 -0.0494  0.0971
    1DIPC   PO410238  15.465   4.734   6.621 -0.0387 -0.1511 -0.1175
    1DIPC   GL110239  15.803   4.754   6.148 -0.0765 -0.0189  0.1149
    1DIPC   GL210240  15.872   4.452   6.228  0.2015  0.1074  0.0101
    1DIPC   C1A10241  15.841   4.872   5.677  0.2053  0.2042 -0.2488
    1DIPC   D2A10242  15.933   4.957   5.271 -0.2105  0.1796 -0.1258
    1DIPC   D3A10243  15.623   5.050   4.840  0.0541  0.2465  0.0239
    1DIPC   C4A10244  15.406   5.393   4.892  0.0178 -0.2566 -0.0041
    1DIPC   C1B10245  16.071   4.405   5.964  0.0928 -0.0465 -0.0134
    1DIPC   D2B10246  16.286   4.061   5.721  0.4531  0.1317 -0.0195
    1DIPC   D3B10247  16.014   3.819   5.456 -0.3282 -0.2553 -0.1084
    1DIPC   C4B10248  15.852   3.910   5.063 -0.0500  0.1278  0.0967
    1DIPC   NC310249  29.045   4.257   5.954  0.1408  0.1412  0.2445
    1DIPC   PO410250  28.629   4.565   6.115  0.3411  0.1527 -0.0457
    1DIPC   GL110251  28.770   4.605   5.679  0.4029  0.1900 -0.1620
    1DIPC   GL210252  28.974   4.384   5.504 -0.1973 -0.0994 -0.1500
    1DIPC   C1A10253  28.619   4.826   5.417  0.2565  0.1570  0.2382
    1DIPC   D2A10254  28.702   4.895   4.945 -0.1526 -0.0377 -0.0037
    1DIPC   D3A10255  28.657   4.829   4.560  0.2966  0.2552  0.0125
    1DIPC   C4A10256  28.414   4.638   4.279 -0.0218 -0.0748  0.2084
    1DIPC   C1B10257  28.816   4.409   5.112  0.1438  0.0997 -0.1112
    1DIPC   D2B10258  28.793   4.430   4.717  0.1121  0.0947  0.0316
    1DIPC   D3B10259  28.929   4.493   4.218  0.2823 -0.2033  0.0227
    1DIPC   C4B10260  28.835   4.806   4.048 -0.1171 -0.1575 -0.3231
    1DIPC   NC310261  17.755  29.598   7.095 -0.0787  0.0047 -0.1074
    1DIPC   PO410262  17.533  29.169   7.140 -0.0883 -0.1241  0.1292
    1DIPC   GL110263  17.739  29.140   6.823 -0.0874 -0.0881 -0.3160
    1DIPC   GL210264  18.054  28.879   6.787  0.2575 -0.2520 -0.0740
    1DIPC   C1A10265  17.929  29.238   6.470  0.2430  0.0401 -0.0510
    1DIPC   D2A10266  18.050  28.999   6.042 -0.0965 -0.0254  0.1620
    1DIPC   D3A10267  17.842  28.997   5.702 -0.2354  0.2119 -0.1283
    1DIPC   C4A10268  17.754  28.586   5.435 -0.1666 -0.0257 -0.0519
    1DIPC   C1B10269  18.317  28.837   6.487  0.1740 -0.0727  0.1230
    1DIPC   D2B10270  18.747  29.043   6.197 -0.2249  0.1876  0.1599
    1DIPC   D3B10271  18.543  28.751   5.962  0.0622 -0.1660 -0.2755
    1DIPC   C4B10272  18.303  28.761   5.651  0.4310 -0.1506  0.0790
    1DIPC   NC310273  13.282   0.765   6.216  0.0368  0.0400 -0.1703
    1DIPC   PO410274  13.676   0.841   6.429 -0.3018  0.1854 -0.1040
    1DIPC   GL110275  13.663   0.930   5.893  0.0490  0.0258  0.1991
    1DIPC   GL210276  13.770   1.218   5.826 -0.0375  0.0903 -0.0798
    1DIPC   C1A10277  13.778   0.930   5.415  0.0340 -0.3779  0.3887
    1DIPC   D2A10278  13.905   1.001   4.967 -0.2069 -0.0068 -0.1456
    1DIPC   D3A10279  13.499   0.826   4.756 -0.0624  0.1984  0.1090
    1DIPC   C4A10280  13.150   1.228   4.614 -0.0408  0.2555 -0.0977
    1DIPC   C1B10281  14.170   1.197   5.760 -0.0839 -0.0526 -0.0325
    1DIPC   D2B10282  14.374   1.232   5.974  0.0701 -0.1042  0.3492
    1DIPC   D3B10283  14.574   0.901   5.960 -0.3627 -0.0368 -0.2099
    1DIPC   C4B10284  14.787   0.755   5.684  0.2446 -0.0892  0.1468
    1DIPC   NC310285  16.221   5.465   6.530  0.0079  0.1686 -0.1471
    1DIPC   PO410286  16.513   5.081   6.504 -0.0334 -0.1430  0.1389
    1DIPC   GL110287  16.124   5.207   6.142  0.0205  0.1441 -0.1883
    1DIPC   GL210288  15.838   5.274   6.268 -0.0280 -0.2703 -0.3975
    1DIPC   C1A10289  16.205   5.187   5.634  0.0240 -0.1494 -0.1000
    1DIPC   D2A10290  16.468   5.153   5.275 -0.1702  0.0578  0.0883
    1DIPC   D3A10291  16.182   5.323   4.946  0.4027  0.0008  0.3091
    1DIPC   C4A10292  16.149   5.109   4.527 -0.1125  0.0056 -0.1164
    1DIPC   C1B10293  15.728   5.381   5.820 -0.3638  0.0931 -0.2033
    1DIPC   D2B10294  15.932   5.471   5.342  0.2827  0.0821  0.0968
    1DIPC   D3B10295  15.884   5.871   5.574 -0.1556 -0.4483  0.2402
    1DIPC   C4B10296  15.965   6.217   5.319  0.2006 -0.0089  0.0232
    1DIPC   NC310297  25.940   0.339   7.274  0.1836  0.1099  0.1632
    1DIPC   PO410298  25.728   0.124   6.911  0.0527 -0.0274 -0.0839
    1DIPC   GL110299  25.739   0.251   6.505  0.0358  0.1745  0.1327
    1DIPC   GL210300  25.607   0.026   6.275 -0.2875 -0.3425  0.3512
    1DIPC   C1A10301  25.895   0.636   6.326 -0.1904 -0.0624 -0.1495
    1DIPC   D2A10302  26.249   0.808   6.158  0.1547 -0.0055  0.1933
    1DIPC   D3A10303  25.995   0.694   5.812 -0.2386  0.0759 -0.2166
    1DIPC   C4A10304  26.230   0.823   5.358  0.2144 -0.0379 -0.1269
    1DIPC   C1B10305  25.646  29.623   5.825  0.0523  0.1061 -0.2178
    1DIPC   D2B10306  25.562  29.586   5.412  0.0704  0.1789 -0.0249
    1DIPC   D3B10307  25.179  29.488   5.571 -0.2477 -0.0275 -0.0976
    1DIPC   C4B10308  24.890  29.140   5.810 -0.0646  0.1311 -0.0309
    1DIPC   NC310309  17.387  18.850   6.720 -0.2037 -0.0511 -0.2137
    1DIPC   PO410310  17.699  19.213   6.576  0.0092  0.2212  0.2478
    1DIPC   GL110311  17.536  19.058   6.306  0.0161  0.1311  0.1718
    1DIPC   GL210312  17.340  18.849   6.227 -0.0655 -0.1296 -0.2556
    1DIPC   C1A10313  17.504  19.349   5.900  0.0616  0.0072 -0.0328
    1DIPC   D2A10314  17.779  19.607   5.612  0.4924 -0.1156  0.1743
    1DIPC   D3A10315  17.834  19.578   5.240 -0.0774  0.2044  0.0813
    1DIPC   C4A10316  18.127  19.862   4.974 -0.1291  0.1274 -0.0055
    1DIPC   C1B10317  17.506  18.877   5.777 -0.0726 -0.1732  0.0683
    1DIPC   D2B10318  17.531  19.006   5.391 -0.0407  0.1740  0.1145
    1DIPC   D3B10319  17.875  19.077   5.175  0.1840 -0.2031 -0.4124
    1DIPC   C4B10320  17.995  18.745   4.982 -0.1886 -0.1251 -0.0114
    1DIPC   NC310321  26.171  27.748   7.357 -0.3403  0.0859 -0.1958
    1DIPC   PO410322  26.409  27.846   7.111 -0.0603 -0.3418 -0.0324
    1DIPC   GL110323  26.338  27.947   6.700 -0.0241 -0.4392  0.2757
    1DIPC   GL210324  26.209  28.180   6.568  0.2485 -0.1907  0.0303
    1DIPC   C1A10325  26.623  27.995   6.339 -0.2895  0.2107  0.3688
    1DIPC   D2A10326  26.652  28.098   5.923 -0.1345  0.0859 -0.1799
    1DIPC   D3A10327  26.566  27.996   5.535  0.0488 -0.0891  0.1094
    1DIPC   C4A10328  26.767  28.026   5.130 -0.0598  0.0086 -0.2419
    1DIPC   C1B10329  26.214  28.298   6.068 -0.1771 -0.1420  0.3190
    1DIPC   D2B10330  26.247  28.347   5.581 -0.0699 -0.0535  0.2586
    1DIPC   D3B10331  25.947  28.514   5.298 -0.2385 -0.4384 -0.0814
    1DIPC   C4B10332  25.785  28.204   5.004  0.1790  0.0601  0.0680
    1DIPC   NC310333   9.509  16.294   6.582  0.3065  0.0081 -0.2294
    1DIPC   PO410334   9.841  16.423   6.254 -0.0786 -0.1042  0.0631
    1DIPC   GL110335   9.683  16.215   5.839 -0.2857  0.1552 -0.1573
    1DIPC   GL210336   9.870  16.297   5.634 -0.1100  0.2414  0.2089
    1DIPC   C1A10337   9.265  16.125   5.729  0.3203  0.0183 -0.1255
    1DIPC   D2A10338   8.810  16.179   5.916  0.0471  0.1641  0.3907
    1DIPC   D3A10339   8.860  16.480   5.595  0.2148 -0.2960 -0.0914
    1DIPC   C4A10340   9.249  16.715   5.633 -0.0590  0.0093  0.1438
    1DIPC   C1B10341   9.482  16.320   5.356 -0.2379 -0.4828  0.0766
    1DIPC   D2B10342   9.123  16.426   5.143 -0.1334 -0.2167  0.1443
    1DIPC   D3B10343   9.222  16.241   4.763 -0.0731  0.3085 -0.0986
    1DIPC   C4B10344   8.972  15.998   4.421  0.0992 -0.1709 -0.0127
    1DIPC   NC310345  11.957  10.982   5.653 -0.1444  0.3167 -0.1654
    1DIPC   PO410346  12.216  11.232   5.903  0.0430 -0.2930  0.0838
    1DIPC   GL110347  12.417  11.085   5.674 -0.1567 -0.0284  0.1626
    1DIPC   GL210348  12.711  10.834   5.698 -0.1439 -0.1256 -0.0448
    1DIPC   C1A10349  12.534  11.050   5.230  0.2058  0.0436 -0.2148
    1DIPC   D2A10350  12.731  11.045   4.674  0.0049  0.1515 -0.2352
    1DIPC   D3A10351  12.828  11.509   4.694  0.1297 -0.2831 -0.1717
    1DIPC   C4A10352  12.800  11.901   4.904 -0.2127 -0.1782  0.2885
    1DIPC   C1B10353  12.540  10.562   5.436  0.0623 -0.1336 -0.0128
    1DIPC   D2B10354  12.444  10.105   5.608 -0.1019 -0.1578  0.4558
    1DIPC   D3B10355  12.857  10.016   5.343  0.1212  0.0436 -0.2457
    1DIPC   C4B10356  12.893  10.113   4.899  0.1767  0.1040  0.2361
    1DIPC   NC310357  20.216  27.180   7.355 -0.0890 -0.0283  0.0169
    1DIPC   PO410358  19.813  27.379   7.091  0.2235  0.1186 -0.1592
    1DIPC   GL110359  19.984  27.416   6.753 -0.0557 -0.1092  0.0470
    1DIPC   GL210360  19.995  26.970   6.841  0.1747  0.1027 -0.1238
    1DIPC   C1A10361  20.393  27.174   6.554  0.0655  0.1484  0.0700
    1DIPC   D2A10362  20.254  26.889   6.084  0.0009 -0.0896  0.2377
    1DIPC   D3A10363  19.922  26.689   5.719 -0.1980 -0.0412  0.1802
    1DIPC   C4A10364  19.733  26.344   5.664  0.1489 -0.3139  0.0674
    1DIPC   C1B10365  20.082  26.750   6.474  0.1193  0.0804 -0.4567
    1DIPC   D2B10366  19.893  26.482   6.129 -0.3667 -0.0520  0.0529
    1DIPC   D3B10367  19.504  26.686   6.059  0.1420  0.2045 -0.0308
    1DIPC   C4B10368  19.496  27.098   5.925 -0.1360  0.2505  0.0906
    1DIPC   NC310369   3.657  19.940   6.894  0.1867  0.1287 -0.1561
    1DIPC   PO410370   4.062  19.759   6.859 -0.0371  0.3571 -0.2822
    1DIPC   GL110371   3.917  19.634   6.395 -0.1707  0.3333 -0.0914
    1DIPC   GL210372   3.641  19.704   6.395  0.0452 -0.2508 -0.1170
    1DIPC   C1A10373   4.084  19.586   5.996 -0.2873 -0.1260 -0.1629
    1DIPC   D2A10374   4.290  19.778   5.661 -0.0667 -0.0345  0.1377
    1DIPC   D3A10375   4.015  19.663   5.305  0.1741 -0.1851  0.0961
    1DIPC   C4A10376   4.041  19.222   5.126  0.0561 -0.1613 -0.1188
    1DIPC   C1B10377   3.308  19.794   6.187  0.0848  0.0206  0.1852
    1DIPC   D2B10378   3.106  19.539   5.832 -0.1760  0.1132 -0.1205
    1DIPC   D3B10379   2.732  19.375   5.845  0.2360 -0.1030  0.0217
    1DIPC   C4B10380   2.780  19.050   5.474 -0.1579  0.0738  0.1307
    1DIPC   NC310381   9.867  17.211   5.975  0.1796  0.0245 -0.3439
    1DIPC   PO410382   9.616  17.525   6.074 -0.0503 -0.0709  0.0151
    1DIPC   GL110383   9.435  17.829   5.874 -0.2456 -0.0274  0.2152
    1DIPC   GL210384   9.414  17.818   5.665  0.1560  0.2806  0.1300
    1DIPC   C1A10385   8.981  17.756   5.747  0.0277 -0.2668  0.0489
    1DIPC   D2A10386   8.792  17.974   5.385 -0.0365 -0.0710 -0.3916
    1DIPC   D3A10387   8.899  18.069   4.950 -0.0453 -0.3196  0.3569
    1DIPC   C4A10388   9.083  18.423   4.953  0.0446 -0.0088  0.1504
    1DIPC   C1B10389   9.298  17.619   5.259 -0.0739 -0.1022  0.0299
    1DIPC   D2B10390   9.099  17.511   4.840 -0.0010 -0.1344  0.1847
    1DIPC   D3B10391   9.326  17.865   4.657  0.1460 -0.1296 -0.2011
    1DIPC   C4B10392   9.222  18.247   4.386  0.0057 -0.0939 -0.2334
    1DIPC   NC310393   1.389  23.934   7.177 -0.0969 -0.1137 -0.0692
    1DIPC   PO410394   1.141  24.133   6.985  0.1791 -0.0399  0.2601
    1DIPC   GL110395   1.108  24.314   6.526 -0.0437  0.2968  0.3150
    1DIPC   GL210396   1.339  24.476   6.442  0.1370  0.3371  0.1515
    1DIPC   C1A10397   1.079  24.208   6.101 -0.0053  0.0376  0.0368
    1DIPC   D2A10398   0.949  23.937   5.771  0.3192 -0.2133 -0.0831
    1DIPC   D3A10399   0.758  23.943   5.361  0.0981  0.1846  0.2345
    1DIPC   C4A10400   1.189  23.924   5.071 -0.0944  0.1623  0.1138
    1DIPC   C1B10401   1.697  24.393   6.074  0.0176  0.2010 -0.1170
    1DIPC   D2B10402   2.114  24.483   5.964  0.0073 -0.0511  0.0884
    1DIPC   D3B10403   2.152  24.298   5.621  0.1637 -0.0142  0.3727
    1DIPC   C4B10404   2.580  24.362   5.342 -0.2892  0.0224  0.0076
    1DIPC   NC310405  18.842  20.220   7.393 -0.0566  0.0259 -0.0589
    1DIPC   PO410406  19.090  20.093   7.085 -0.0584 -0.1295 -0.1585
    1DIPC   GL110407  19.399  20.200   6.771 -0.0193 -0.1109  0.2045
    1DIPC   GL210408  19.769  20.183   6.642  0.0625  0.1815  0.0971
    1DIPC   C1A10409  19.461  20.196   6.292 -0.3252 -0.0697 -0.1330
    1DIPC   D2A10410  19.566  20.091   5.887  0.1043  0.0280 -0.2278
    1DIPC   D3A10411  19.575  20.499   5.723  0.0714 -0.0820  0.2398
    1DIPC   C4A10412  19.874  20.420   5.400  0.0277  0.0746  0.0588
    1DIPC   C1B10413  19.937  20.218   6.203 -0.0405 -0.0894 -0.0513
    1DIPC   D2B10414  20.109  20.359   5.809  0.1068  0.4833  0.0681
    1DIPC   D3B10415  20.157  19.916   5.617  0.1593 -0.1386  0.1883
    1DIPC   C4B10416  20.550  19.853   5.596  0.0571 -0.0652  0.2081
    1DIPC   NC310417  20.671  20.153   7.137  0.0685  0.0429 -0.2085
    1DIPC   PO410418  20.611  20.645   7.261 -0.0868  0.1625 -0.2312
    1DIPC   GL110419  20.724  20.543   6.844 -0.2881 -0.0591  0.4996
    1DIPC   GL210420  21.049  20.758   6.707  0.0942 -0.1400  0.0357
    1DIPC   C1A10421  21.037  20.296   6.409  0.0175  0.0837 -0.2327
    1DIPC   D2A10422  21.077  20.282   5.943  0.0736  0.1744  0.0624
    1DIPC   D3A10423  21.454  20.434   6.078 -0.0686  0.1113 -0.1102
    1DIPC   C4A10424  21.695  20.722   6.185 -0.0449 -0.2346  0.1068
    1DIPC   C1B10425  21.133  20.764   6.284 -0.0916  0.1909  0.1623
    1DIPC   D2B10426  21.074  20.936   5.865 -0.1715 -0.1592  0.3627
    1DIPC   D3B10427  21.139  21.120   5.510 -0.0241 -0.3663 -0.1290
    1DIPC   C4B10428  21.573  21.250   5.449  0.3297  0.1348  0.1264
    1DIPC   NC310429   7.195  27.414   6.345  0.0887 -0.3343 -0.0408
    1DIPC   PO410430   7.590  27.374   6.036 -0.0927 -0.2076  0.0540
    1DIPC   GL110431   7.585  27.292   5.662  0.0482 -0.0676  0.0053
    1DIPC   GL210432   7.321  27.207   5.592 -0.2290 -0.4215 -0.2021
    1DIPC   C1A10433   7.691  27.568   5.275 -0.0977 -0.0138 -0.1730
    1DIPC   D2A10434   7.406  27.595   4.872  0.2450 -0.0432  0.0152
    1DIPC   D3A10435   7.108  27.545   4.524 -0.1240  0.3613  0.0704
    1DIPC   C4A10436   6.797  27.242   4.455 -0.1239 -0.0214 -0.4097
    1DIPC   C1B10437   7.183  27.321   5.230  0.0090 -0.1734 -0.2087
    1DIPC   D2B10438   6.861  27.432   4.991  0.1530  0.1597  0.3937
    1DIPC   D3B10439   7.004  27.761   5.040 -0.1594  0.0979  0.0162
    1DIPC   C4B10440   6.727  28.206   4.967 -0.1864 -0.0237  0.0829
    1DIPC   NC310441   5.085  19.802   6.858 -0.1316 -0.0097 -0.3568
    1DIPC   PO410442   4.932  20.232   6.816  0.0402  0.1290  0.1209
    1DIPC   GL110443   5.033  20.244   6.436  0.1702  0.2154  0.0187
    1DIPC   GL210444   5.242  20.473   6.371 -0.0532  0.3724  0.2635
    1DIPC   C1A10445   4.817  20.527   6.122 -0.1483 -0.0616  0.0577
    1DIPC   D2A10446   4.896  20.924   5.948  0.1968 -0.1509 -0.1631
    1DIPC   D3A10447   4.864  21.176   5.619 -0.1465 -0.5283 -0.0312
    1DIPC   C4A10448   4.581  21.366   5.428 -0.0163  0.3388  0.0771
    1DIPC   C1B10449   5.173  20.321   5.885 -0.0890 -0.0351  0.2451
    1DIPC   D2B10450   5.232  20.306   5.377 -0.1202  0.0564 -0.1323
    1DIPC   D3B10451   5.154  19.858   5.186  0.1135  0.4157 -0.0099
    1DIPC   C4B10452   4.942  19.511   5.444  0.0355 -0.2813  0.0630
    1DIPC   NC310453  12.637  24.872   6.332 -0.1202  0.0447  0.1510
    1DIPC   PO410454  12.220  25.036   6.440 -0.1544 -0.3211 -0.1938
    1DIPC   GL110455  11.957  25.065   6.060 -0.1678 -0.3438  0.1541
    1DIPC   GL210456  12.190  25.048   5.868 -0.2889  0.2097  0.1768
    1DIPC   C1A10457  11.726  25.192   5.768  0.1698 -0.2552  0.0145
    1DIPC   D2A10458  11.272  25.365   5.810 -0.1264  0.3259 -0.2641
    1DIPC   D3A10459  11.279  24.992   5.547 -0.0937 -0.0421  0.0403
    1DIPC   C4A10460  11.649  24.929   5.320 -0.0228 -0.1095  0.0872
    1DIPC   C1B10461  12.403  25.080   5.462 -0.0672 -0.0725 -0.1001
    1DIPC   D2B10462  12.623  24.877   5.106  0.1806  0.4327  0.0325
    1DIPC   D3B10463  12.795  25.034   4.708 -0.0680  0.1720  0.1826
    1DIPC   C4B10464  12.716  25.479   4.622  0.2292  0.0945  0.2344
    1DIPC   NC310465   2.736  21.113   6.885  0.0504 -0.0983  0.1441
    1DIPC   PO410466   2.235  20.900   6.955 -0.0621  0.1602  0.0434
    1DIPC   GL110467   2.161  21.101   6.580 -0.1968 -0.1207 -0.0229
    1DIPC   GL210468   2.434  21.182   6.484 -0.0418 -0.2143  0.0602
    1DIPC   C1A10469   2.058  21.108   6.048  0.0652  0.0792  0.0461
    1DIPC   D2A10470   2.159  21.296   5.594  0.0535 -0.0030  0.0337
    1DIPC   D3A10471   2.112  20.882   5.322 -0.2367 -0.0953  0.1126
    1DIPC   C4A10472   2.069  21.065   4.913  0.1158 -0.0528  0.0990
    1DIPC   C1B10473   2.683  21.026   6.218  0.3029 -0.2109  0.1648
    1DIPC   D2B10474   3.040  20.709   6.295 -0.0142  0.1561 -0.0206
    1DIPC   D3B10475   2.800  20.449   6.105  0.3346 -0.2432  0.1362
    1DIPC   C4B10476   2.501  20.406   5.815  0.2330  0.2317  0.3699
    1DIPC   NC310477   3.014   3.726   6.462  0.0520  0.4135  0.2094
    1DIPC   PO410478   2.928   3.327   6.480  0.1221 -0.1156 -0.2457
    1DIPC   GL110479   2.970   3.286   6.067 -0.1881 -0.1550  0.0388
    1DIPC   GL210480   3.182   3.468   6.057 -0.0606  0.0034 -0.1823
    1DIPC   C1A10481   2.813   3.288   5.621 -0.0543  0.0633  0.0106
    1DIPC   D2A10482   2.709   3.204   5.237 -0.1523  0.1021 -0.0097
    1DIPC   D3A10483   2.838   2.888   4.959 -0.2194 -0.1625  0.1263
    1DIPC   C4A10484   2.985   2.949   4.555  0.1301 -0.0073 -0.1560
    1DIPC   C1B10485   3.013   3.759   5.696  0.3839  0.0557 -0.0591
    1DIPC   D2B10486   3.180   3.713   5.305 -0.1688 -0.1344 -0.1842
    1DIPC   D3B10487   3.161   3.955   4.979 -0.2343  0.0882 -0.2336
    1DIPC   C4B10488   3.236   4.400   5.006  0.0858 -0.0245 -0.1613
    1DIPC   NC310489  10.483   3.107   6.335  0.2598 -0.2001  0.0342
    1DIPC   PO410490  10.890   3.378   6.167  0.4427 -0.3385 -0.0810
    1DIPC   GL110491  11.260   3.510   5.901  0.1364  0.0067 -0.1380
    1DIPC   GL210492  11.538   3.710   5.890 -0.0362 -0.1314  0.0482
    1DIPC   C1A10493  11.456   3.490   5.473 -0.0758  0.2337 -0.0473
    1DIPC   D2A10494  11.663   3.324   5.198 -0.0565 -0.1067  0.0457
    1DIPC   D3A10495  11.793   3.681   5.048  0.0789 -0.0310  0.1321
    1DIPC   C4A10496  12.198   3.785   5.031 -0.2197 -0.6251  0.2370
    1DIPC   C1B10497  11.942   3.599   5.529  0.0557 -0.2251  0.2790
    1DIPC   D2B10498  12.369   3.631   5.515 -0.0387  0.1560  0.0341
    1DIPC   D3B10499  12.269   4.082   5.588  0.1681  0.1011 -0.0891
    1DIPC   C4B10500  12.470   4.425   5.432  0.0167  0.1464  0.2653
    1DIPC   NC310501  15.184  13.357   6.987 -0.0970 -0.2323  0.2803
    1DIPC   PO410502  14.843  13.570   6.863 -0.3906  0.0854 -0.0085
    1DIPC   GL110503  14.894  13.593   6.401  0.1125 -0.0424  0.2474
    1DIPC   GL210504  14.821  13.353   6.144 -0.1330  0.0705  0.1773
    1DIPC   C1A10505  14.842  13.786   5.955  0.1732  0.0748 -0.0963
    1DIPC   D2A10506  14.473  13.907   5.715 -0.0929  0.3984  0.1114
    1DIPC   D3A10507  14.578  13.625   5.373 -0.0705  0.0375 -0.4215
    1DIPC   C4A10508  14.570  13.739   5.010 -0.1236  0.2374  0.1318
    1DIPC   C1B10509  14.767  13.334   5.707 -0.0238  0.0378  0.0464
    1DIPC   D2B10510  14.417  13.142   5.512  0.0711  0.0330 -0.1322
    1DIPC   D3B10511  14.101  13.431   5.364 -0.1036 -0.0093  0.4803
    1DIPC   C4B10512  13.853  13.490   4.982 -0.0334  0.0450 -0.0912
    1DIPC   NC310513  18.813  21.904   7.652  0.2971 -0.0914 -0.0710
    1DIPC   PO410514  19.169  21.843   7.448  0.1247 -0.5696 -0.0133
    1DIPC   GL110515  19.145  22.029   6.965  0.0588  0.1352  0.4310
    1DIPC   GL210516  19.415  22.226   6.960  0.3177 -0.0790 -0.0007
    1DIPC   C1A10517  19.357  21.759   6.653 -0.0214 -0.0373  0.0936
    1DIPC   D2A10518  19.468  21.541   6.274 -0.1827  0.0918 -0.0847
    1DIPC   D3A10519  19.705  21.936   6.226  0.2516  0.1710 -0.0710
    1DIPC   C4A10520  19.560  22.327   6.087  0.1557 -0.2585  0.0155
    1DIPC   C1B10521  19.616  22.313   6.550  0.1898  0.1965  0.1392
    1DIPC   D2B10522  20.104  22.088   6.450  0.0947 -0.2204 -0.2437
    1DIPC   D3B10523  20.217  21.771   6.214 -0.0365 -0.1425 -0.2892
    1DIPC   C4B10524  20.225  21.671   5.716 -0.2499 -0.0544  0.0894
    1DIPC   NC310525  18.548  22.769   7.756 -0.1851 -0.3123 -0.0339
    1DIPC   PO410526  18.513  22.292   7.754  0.0022  0.1094  0.1767
    1DIPC   GL110527  18.618  22.559   7.312  0.0092 -0.1194 -0.1012
    1DIPC   GL210528  18.438  22.533   6.949  0.2730 -0.1759 -0.3142
    1DIPC   C1A10529  18.905  22.673   7.073  0.0225 -0.0843 -0.0881
    1DIPC   D2A10530  19.253  22.719   6.762  0.3866 -0.1732  0.0146
    1DIPC   D3A10531  19.305  23.090   6.796  0.2034 -0.0602 -0.1195
    1DIPC   C4A10532  19.617  23.279   7.049  0.0608 -0.2539 -0.2149
    1DIPC   C1B10533  18.112  22.735   6.725 -0.0242 -0.1926 -0.2325
    1DIPC   D2B10534  18.302  23.100   6.531 -0.0508  0.0515  0.3460
    1DIPC   D3B10535  18.338  23.291   6.196 -0.2372  0.2168 -0.2358
    1DIPC   C4B10536  17.938  23.327   5.809 -0.1747  0.1122 -0.2204
    1DIPC   NC310537   3.750   3.095   6.787  0.0712 -0.0946  0.2466
    1DIPC   PO410538   3.940   3.270   6.440  0.0899  0.1838  0.0347
    1DIPC   GL110539   3.629   3.142   6.119 -0.0215 -0.1775 -0.1038
    1DIPC   GL210540   3.731   2.994   5.854 -0.2291 -0.0992 -0.2382
    1DIPC   C1A10541   3.436   3.360   5.634  0.2709 -0.0040  0.0465
    1DIPC   D2A10542   3.166   3.160   5.265 -0.0400  0.0209 -0.1156
    1DIPC   D3A10543   3.101   3.399   4.897  0.3888 -0.0249 -0.1279
    1DIPC   C4A10544   2.991   3.519   4.458  0.2040  0.0206  0.1844
    1DIPC   C1B10545   3.878   3.294   5.577 -0.0907  0.0080 -0.0211
    1DIPC   D2B10546   3.693   3.615   5.255 -0.0154  0.0414 -0.0025
    1DIPC   D3B10547   3.627   3.587   4.772  0.2088 -0.5659 -0.1173
    1DIPC   C4B10548   3.470   3.637   4.515  0.1519  0.3282  0.1235
    1DIPC   NC310549   9.664  24.047   6.090  0.0621  0.1789  0.0056
    1DIPC   PO410550   9.649  23.563   6.165 -0.2423  0.0462 -0.3052
    1DIPC   GL110551   9.563  23.626   5.821  0.1985  0.3648  0.0241
    1DIPC   GL210552   9.473  23.302   5.686  0.1726  0.1089 -0.1939
    1DIPC   C1A10553   9.288  23.719   5.503  0.0752  0.2070  0.1216
    1DIPC   D2A10554   9.261  23.781   5.004 -0.1004  0.0025 -0.2222
    1DIPC   D3A10555   8.794  23.834   5.055  0.3095 -0.0181 -0.3906
    1DIPC   C4A10556   8.697  24.257   4.971  0.2641  0.0791 -0.0485
    1DIPC   C1B10557   9.649  23.410   5.285 -0.1144 -0.3782  0.0692
    1DIPC   D2B10558   9.740  23.632   4.896  0.1224  0.0213  0.2797
    1DIPC   D3B10559   9.998  23.683   4.531 -0.0029  0.0969  0.0161
    1DIPC   C4B10560  10.117  24.122   4.384  0.3104  0.0554 -0.2897
    1DIPC   NC310561   5.048   5.115   6.274 -0.2108 -0.2469  0.0127
    1DIPC   PO410562   5.365   4.867   6.209  0.2341  0.1977  0.0139
    1DIPC   GL110563   5.349   4.947   5.787 -0.1266  0.2774  0.3497
    1DIPC   GL210564   5.631   4.728   5.736 -0.2959  0.2856 -0.2377
    1DIPC   C1A10565   5.125   4.840   5.411  0.3416 -0.1303 -0.1628
    1DIPC   D2A10566   5.012   4.949   5.091 -0.3333  0.1060  0.0629
    1DIPC   D3A10567   4.746   4.600   5.181  0.1106 -0.0258  0.2544
    1DIPC   C4A10568   4.583   4.195   5.035 -0.2612  0.0738 -0.0285
    1DIPC   C1B10569   5.498   4.355   5.565 -0.2125  0.0473  0.1086
    1DIPC   D2B10570   5.536   4.061   5.268  0.3899  0.1965  0.3877
    1DIPC   D3B10571   5.694   4.368   4.912 -0.6004  0.2456  0.0575
    1DIPC   C4B10572   5.964   4.352   4.550  0.2818  0.0751 -0.2221
    1DIPC   NC310573  14.398  16.444   6.348  0.0539  0.2793 -0.3817
    1DIPC   PO410574  14.058  16.628   6.323 -0.1257  0.0680 -0.0636
    1DIPC   GL110575  14.089  16.753   5.914  0.4093  0.1420  0.2239
    1DIPC   GL210576  14.328  16.590   5.788 -0.0172  0.1223 -0.1979
    1DIPC   C1A10577  13.978  16.744   5.407 -0.1162  0.2801 -0.4982
    1DIPC   D2A10578  13.937  16.650   4.892  0.1372 -0.2977 -0.3789
    1DIPC   D3A10579  13.614  16.755   4.841  0.0584  0.0506 -0.1568
    1DIPC   C4A10580  13.215  16.441   4.904  0.0909 -0.0758  0.0337
    1DIPC   C1B10581  14.016  16.288   5.608 -0.0671  0.3798  0.1621
    1DIPC   D2B10582  13.823  15.928   5.223 -0.1836  0.0664  0.1818
    1DIPC   D3B10583  14.153  16.226   5.100  0.2331 -0.1925 -0.1642
    1DIPC   C4B10584  14.577  16.097   5.233 -0.1465 -0.1360  0.2529
    1DIPC   NC310585   0.255   0.184   7.402  0.2425 -0.1760 -0.0885
    1DIPC   PO410586   0.350  29.560   7.043  0.2310 -0.3023  0.1482
    1DIPC   GL110587   0.300  29.528   6.634  0.2382  0.0687 -0.1520
    1DIPC   GL210588  29.540  29.497   6.490 -0.2803 -0.2854  0.1177
    1DIPC   C1A10589   0.271  29.159   6.302 -0.2461 -0.0020 -0.2099
    1DIPC   D2A10590  29.599  29.088   6.073  0.1603  0.0883  0.0783
    1DIPC   D3A10591  29.395  28.827   6.116  0.0447 -0.2992  0.0191
    1DIPC   C4A10592  29.158  28.616   5.840 -0.0640  0.2997  0.3752
    1DIPC   C1B10593   0.189  29.564   6.058  0.0276  0.1889 -0.1105
    1DIPC   D2B10594   0.436  29.506   5.667 -0.3096 -0.0538  0.1142
    1DIPC   D3B10595   0.276  29.041   5.670 -0.1563  0.0619 -0.3080
    1DIPC   C4B10596   0.222  28.899   5.130  0.0978  0.0586  0.0211
    1DIPC   NC310597  19.753   1.150   7.127 -0.1533 -0.0112  0.1166
    1DIPC   PO410598  19.904   0.874   7.414 -0.0501 -0.0838 -0.3239
    1DIPC   GL110599  20.116   0.758   7.092 -0.2035 -0.0631  0.0842
    1DIPC   GL210600  20.065   0.361   7.108  0.0974 -0.1179  0.4819
    1DIPC   C1A10601  19.993   0.763   6.622 -0.1863  0.0261  0.0846
    1DIPC   D2A10602  20.081   0.729   6.255  0.4735  0.0436  0.1414
    1DIPC   D3A10603  19.853   0.414   6.016 -0.1745 -0.2243 -0.1825
    1DIPC   C4A10604  19.662   0.445   5.626  0.0731  0.0407  0.0848
    1DIPC   C1B10605  19.807   0.223   6.893 -0.0564  0.1407 -0.1885
    1DIPC   D2B10606  19.889  29.422   6.735  0.3180 -0.2296 -0.0115
    1DIPC   D3B10607  19.558  29.157   6.488 -0.3082 -0.0191 -0.0414
    1DIPC   C4B10608  19.680  29.154   6.137  0.2702  0.2480  0.0003
    1DIPC   NC310609  22.264  19.527   7.591  0.0306  0.0698 -0.4945
    1DIPC   PO410610  21.798  19.404   7.784  0.2057  0.0620 -0.0632
    1DIPC   GL110611  21.706  19.654   7.476 -0.1548  0.0892 -0.0144
    1DIPC   GL210612  21.476  19.348   7.328 -0.2073  0.1112 -0.1773
    1DIPC   C1A10613  21.458  19.669   6.995 -0.0781 -0.0799  0.2288
    1DIPC   D2A10614  21.429  19.512   6.528  0.0146  0.0743 -0.2673
    1DIPC   D3A10615  21.558  19.990   6.385  0.3670 -0.0158 -0.0566
    1DIPC   C4A10616  21.539  19.993   5.966  0.1098 -0.1504  0.0407
    1DIPC   C1B10617  21.147  19.305   6.994 -0.4074  0.0457 -0.0635
    1DIPC   D2B10618  20.870  19.192   6.619 -0.0259  0.1760  0.0423
    1DIPC   D3B10619  20.914  19.621   6.488 -0.0644  0.1768  0.0384
    1DIPC   C4B10620  21.181  19.561   6.078 -0.2121 -0.0404  0.0377
    1DIPC   NC310621  28.283  28.702   7.623  0.1727 -0.0391  0.0081
    1DIPC   PO410622  28.194  28.503   7.155 -0.2006  0.1059 -0.1199
    1DIPC   GL110623  27.902  28.386   6.779 -0.0599  0.1968  0.0947
    1DIPC   GL210624  28.018  28.129   6.615 -0.1175 -0.1399 -0.1067
    1DIPC   C1A10625  27.891  28.538   6.335 -0.0477 -0.0819 -0.1824
    1DIPC   D2A10626  28.301  28.279   6.213  0.1232  0.2845  0.1580
    1DIPC   D3A10627  28.317  27.945   6.025 -0.2255 -0.1444  0.0161
    1DIPC   C4A10628  28.533  27.864   5.606  0.1664  0.0524 -0.2600
    1DIPC   C1B10629  27.840  28.079   6.150  0.0154  0.3587 -0.0505
    1DIPC   D2B10630  27.786  28.328   5.806  0.0406  0.2537  0.1721
    1DIPC   D3B10631  27.536  28.077   5.416  0.0014 -0.0599 -0.0068
    1DIPC   C4B10632  27.447  27.618   5.455  0.1421  0.5289  0.2881
    1DIPC   NC310633   5.067  12.540   5.540 -0.0208 -0.0476 -0.1540
    1DIPC   PO410634   4.731  12.819   5.579 -0.2612  0.0505 -0.1530
    1DIPC   GL110635   4.953  12.956   5.266  0.2063  0.0054  0.1768
    1DIPC   GL210636   4.630  12.959   5.104  0.0401  0.1554  0.2384
    1DIPC   C1A10637   5.172  13.040   4.901  0.0942 -0.1002 -0.1182
    1DIPC   D2A10638   5.446  13.355   4.566 -0.1096 -0.0880 -0.0742
    1DIPC   D3A10639   5.559  13.161   4.226 -0.0210 -0.0801  0.0210
    1DIPC   C4A10640   5.666  12.786   4.046 -0.4582  0.0817  0.0996
    1DIPC   C1B10641   4.615  12.976   4.667  0.1642  0.0439 -0.0276
    1DIPC   D2B10642   4.550  13.062   4.344  0.0885 -0.4767 -0.0046
    1DIPC   D3B10643   4.804  12.710   4.188  0.0056  0.1614  0.0214
    1DIPC   C4B10644   5.213  12.618   4.136  0.0551 -0.0660  0.0421
    1DIPC   NC310645   3.933   5.233   6.283 -0.1697 -0.2064  0.0647
    1DIPC   PO410646   3.765   5.614   6.076 -0.2729 -0.2064  0.4144
    1DIPC   GL110647   4.107   5.499   5.878 -0.1188  0.2264  0.0160
    1DIPC   GL210648   4.050   5.680   5.590  0.0689 -0.0347 -0.1201
    1DIPC   C1A10649   4.407   5.273   5.675  0.0881  0.2891  0.0609
    1DIPC   D2A10650   4.781   5.093   5.809  0.1593 -0.3101  0.1529
    1DIPC   D3A10651   4.560   4.752   5.686 -0.2774  0.1817 -0.0112
    1DIPC   C4A10652   4.241   4.921   5.340 -0.1411 -0.0744  0.1633
    1DIPC   C1B10653   4.198   5.437   5.243 -0.1838 -0.1903  0.0855
    1DIPC   D2B10654   4.128   5.397   4.809  0.1264 -0.0761 -0.0291
    1DIPC   D3B10655   4.458   5.448   4.572  0.0589  0.0399  0.0745
    1DIPC   C4B10656   4.823   5.127   4.507  0.0463 -0.0365  0.1170
    1DIPC   NC310657   8.063  14.523   5.853  0.1581  0.1462  0.1737
    1DIPC   PO410658   7.777  14.639   5.577  0.0453  0.1273 -0.1046
    1DIPC   GL110659   7.830  14.790   5.248 -0.0791  0.2084  0.1195
    1DIPC   GL210660   8.108  14.973   5.148  0.2888 -0.5230  0.0539
    1DIPC   C1A10661   7.589  14.788   4.801 -0.1563 -0.0942  0.1418
    1DIPC   D2A10662   7.479  14.456   4.533  0.1904 -0.0840  0.0936
    1DIPC   D3A10663   7.281  14.083   4.782 -0.0551 -0.1614 -0.0438
    1DIPC   C4A10664   7.414  13.951   5.250 -0.1660  0.0248  0.0411
    1DIPC   C1B10665   8.129  15.034   4.833 -0.3975 -0.0081 -0.1711
    1DIPC   D2B10666   8.008  15.002   4.383  0.0312  0.1198  0.1164
    1DIPC   D3B10667   7.525  15.065   4.382  0.0162  0.1493  0.3404
    1DIPC   C4B10668   7.118  14.784   4.361 -0.3474  0.2220 -0.1365
    1DIPC   NC310669  10.055  15.077   6.670 -0.1982  0.0179 -0.0281
    1DIPC   PO410670   9.874  14.912   6.278 -0.0623 -0.1956 -0.0233
    1DIPC   GL110671  10.140  14.833   5.923 -0.2258 -0.0712  0.2667
    1DIPC   GL210672  10.170  15.196   5.804 -0.1234  0.2093 -0.0207
    1DIPC   C1A10673  10.166  14.576   5.644 -0.0856  0.2052  0.0766
    1DIPC   D2A10674  10.117  14.074   5.580 -0.4058 -0.0481  0.0203
    1DIPC   D3A10675   9.820  13.936   5.311 -0.0246 -0.0177 -0.1007
    1DIPC   C4A10676   9.548  13.675   5.515  0.2022  0.4999 -0.0632
    1DIPC   C1B10677  10.140  15.388   5.344  0.1359 -0.1294  0.0202
    1DIPC   D2B10678   9.681  15.484   5.160  0.1155 -0.0536  0.1474
    1DIPC   D3B10679   9.532  15.818   4.937  0.1628 -0.2432  0.4307
    1DIPC   C4B10680   9.134  15.783   4.807  0.3431 -0.1428 -0.1230
    1DIPC   NC310681   1.194  17.485   7.090 -0.0379 -0.1793 -0.1193
    1DIPC   PO410682   1.008  17.621   6.811  0.1722  0.1488  0.2708
    1DIPC   GL110683   0.771  17.504   6.495 -0.0758  0.1944  0.2393
    1DIPC   GL210684   0.665  17.646   6.188  0.0769  0.3730 -0.1439
    1DIPC   C1A10685   0.955  17.101   6.273  0.2816  0.0270 -0.0407
    1DIPC   D2A10686   1.070  17.078   5.897 -0.1663  0.1474  0.5041
    1DIPC   D3A10687   1.447  16.785   5.756 -0.0881  0.0529  0.1828
    1DIPC   C4A10688   1.687  16.803   5.413 -0.1806  0.6200  0.1295
    1DIPC   C1B10689   0.630  17.583   5.752  0.0706  0.0956  0.1618
    1DIPC   D2B10690   0.429  17.431   5.424 -0.3131  0.0101 -0.2138
    1DIPC   D3B10691   0.043  17.557   5.313 -0.1487 -0.1976 -0.1183
    1DIPC   C4B10692  29.414  17.855   5.457  0.0207  0.1595 -0.1113
    1DIPC   NC310693   4.455   3.893   6.648 -0.1741 -0.1172 -0.0207
    1DIPC   PO410694   4.769   4.227   6.273 -0.1073 -0.0406 -0.1679
    1DIPC   GL110695   5.030   4.180   6.034  0.2258 -0.4350 -0.0952
    1DIPC   GL210696   5.118   4.002   5.867  0.3356  0.2355  0.3502
    1DIPC   C1A10697   5.006   4.406   5.690  0.2592 -0.0933 -0.0967
    1DIPC   D2A10698   5.200   4.419   5.139  0.0209 -0.1905  0.1474
    1DIPC   D3A10699   5.064   4.187   4.883  0.2998  0.2657 -0.1787
    1DIPC   C4A10700   5.302   3.949   4.579 -0.0386 -0.2814 -0.0625
    1DIPC   C1B10701   5.036   4.020   5.378 -0.0337 -0.0672  0.1874
    1DIPC   D2B10702   4.964   3.683   5.008 -0.1370  0.0530 -0.2517
    1DIPC   D3B10703   4.583   3.460   5.022  0.0260  0.2382  0.4074
    1DIPC   C4B10704   4.316   3.417   4.600 -0.1206 -0.0137 -0.1292
    1DIPC   NC310705   4.114   2.445   6.148 -0.1172 -0.2764 -0.0293
    1DIPC   PO410706   3.675   2.526   5.962  0.0253  0.3453  0.0256
    1DIPC   GL110707   3.370   2.655   5.647  0.0171 -0.1126 -0.1562
    1DIPC   GL210708   3.195   2.902   5.830  0.0790  0.0522  0.0221
    1DIPC   C1A10709   3.367   2.732   5.242 -0.0328 -0.2457 -0.1338
    1DIPC   D2A10710   3.413   2.957   4.780  0.1607 -0.0184  0.0761
    1DIPC   D3A10711   3.688   3.094   5.153  0.1243 -0.1077  0.0790
    1DIPC   C4A10712   4.174   3.000   5.111 -0.2520  0.1793  0.1473
    1DIPC   C1B10713   2.871   2.797   5.521  0.2208  0.1061 -0.2389
    1DIPC   D2B10714   2.469   2.778   5.347 -0.0494 -0.1288 -0.1608
    1DIPC   D3B10715   2.317   2.987   4.983  0.2144  0.0581 -0.0608
    1DIPC   C4B10716   2.594   3.259   4.682 -0.0833 -0.0874  0.1561
    1DIPC   NC310717  25.737  26.069   7.528 -0.1912 -0.0092  0.1690
    1DIPC   PO410718  25.656  26.275   7.140  0.1228  0.1312 -0.1581
    1DIPC   GL110719  25.539  26.299   6.728  0.1652  0.0323  0.1164
    1DIPC   GL210720  25.633  26.014   6.523 -0.0935 -0.2384 -0.0419
    1DIPC   C1A10721  25.462  26.616   6.410  0.3590 -0.0494 -0.0097
    1DIPC   D2A10722  25.435  26.770   6.011 -0.1027 -0.1699 -0.0252
    1DIPC   D3A10723  25.600  26.643   5.620  0.0283  0.2852  0.1632
    1DIPC   C4A10724  26.010  26.475   5.560  0.1776  0.0119  0.0360
    1DIPC   C1B10725  25.356  26.129   6.233  0.2213 -0.0238 -0.0878
    1DIPC   D2B10726  25.057  26.354   6.349 -0.0869  0.1706  0.2325
    1DIPC   D3B10727  24.991  26.101   5.898  0.1891 -0.1372  0.1496
    1DIPC   C4B10728  25.111  25.746   5.736  0.0786 -0.1326  0.0088
    1DIPC   NC310729   9.175  29.524   5.952  0.0646 -0.0006  0.1912
    1DIPC   PO410730   8.933   0.286   5.907  0.0834  0.0538 -0.2969
    1DIPC   GL110731   9.041   0.411   5.524  0.0530 -0.1236  0.2019
    1DIPC   GL210732   8.790   0.360   5.258 -0.1725  0.0582  0.2614
    1DIPC   C1A10733   9.206   0.674   5.151 -0.6177  0.3590  0.1712
    1DIPC   D2A10734   9.137   1.040   4.944  0.1008 -0.3387  0.0569
    1DIPC   D3A10735   9.363   1.093   4.465  0.0089 -0.0563 -0.0809
    1DIPC   C4A10736   9.738   1.285   4.411  0.1943  0.1523 -0.0824
    1DIPC   C1B10737   8.944   0.293   4.848 -0.2639  0.0023  0.1648
    1DIPC   D2B10738   8.881   0.412   4.403  0.0118 -0.0010  0.2273
    1DIPC   D3B10739   9.125   0.707   4.639 -0.0294  0.1955 -0.1866
    1DIPC   C4B10740   9.417   0.462   4.683  0.3131  0.2583 -0.1744
    1DIPC   NC310741  24.851  23.768   7.332  0.0714 -0.1172 -0.1587
    1DIPC   PO410742  24.651  24.103   7.265  0.1456 -0.0513 -0.2059
    1DIPC   GL110743  24.374  24.038   7.052  0.0890 -0.2423 -0.3472
    1DIPC   GL210744  24.414  24.014   6.673  0.1952 -0.0643  0.0631
    1DIPC   C1A10745  23.867  24.011   6.910 -0.0242  0.0092 -0.1828
    1DIPC   D2A10746  23.684  24.036   6.512 -0.0754 -0.0874  0.0785
    1DIPC   D3A10747  23.819  24.093   6.021  0.4618 -0.1872 -0.1313
    1DIPC   C4A10748  24.214  24.264   5.811 -0.0643 -0.0148  0.0547
    1DIPC   C1B10749  24.342  23.907   6.222  0.1225 -0.0334 -0.3393
    1DIPC   D2B10750  24.401  23.701   5.758  0.1427 -0.4115 -0.1642
    1DIPC   D3B10751  24.776  23.980   5.699 -0.0861 -0.0644  0.3047
    1DIPC   C4B10752  24.883  24.240   5.437 -0.2583 -0.4018  0.0467
    1DIPC   NC310753  11.329   3.097   6.285 -0.3447  0.0233 -0.0429
    1DIPC   PO410754  11.749   3.419   6.191 -0.1995  0.2615 -0.3348
    1DIPC   GL110755  11.840   3.246   5.830 -0.5235  0.3569  0.0400
    1DIPC   GL210756  11.555   3.126   5.693 -0.0195  0.2434 -0.0291
    1DIPC   C1A10757  12.126   3.097   5.511 -0.1172 -0.1079  0.0288
    1DIPC   D2A10758  12.208   3.302   5.058 -0.0172 -0.2100 -0.0100
    1DIPC   D3A10759  12.403   3.169   4.676  0.0008 -0.1979  0.4273
    1DIPC   C4A10760  12.341   2.727   4.436  0.0541  0.0487 -0.2134
    1DIPC   C1B10761  11.731   2.881   5.320 -0.0375 -0.1989  0.1595
    1DIPC   D2B10762  11.574   2.488   5.138  0.0704  0.0063  0.0679
    1DIPC   D3B10763  11.799   2.291   5.496 -0.0939 -0.1562 -0.0661
    1DIPC   C4B10764  11.636   1.848   5.660 -0.0305  0.0249 -0.2611
    1DIPC   NC310765   4.060   6.866   5.778 -0.0696  0.2182  0.0914
    1DIPC   PO410766   4.560   6.722   5.545  0.1923 -0.2697 -0.1068
    1DIPC   GL110767   4.789   6.447   5.273  0.2255 -0.2318 -0.0389
    1DIPC   GL210768   4.481   6.324   5.054 -0.0001 -0.2387 -0.0800
    1DIPC   C1A10769   4.934   6.439   4.872 -0.2603 -0.0835  0.0423
    1DIPC   D2A10770   5.379   6.438   4.587 -0.2086  0.1457 -0.0373
    1DIPC   D3A10771   5.915   6.420   4.701 -0.1096 -0.2810 -0.1662
    1DIPC   C4A10772   6.033   5.983   4.475  0.2374 -0.0221  0.3059
    1DIPC   C1B10773   4.448   6.225   4.557  0.2732 -0.1642 -0.1714
    1DIPC   D2B10774   4.295   6.116   4.172  0.1541  0.2559 -0.1194
    1DIPC   D3B10775   4.590   6.178   4.083 -0.4294 -0.0734  0.2761
    1DIPC   C4B10776   4.840   6.452   3.817 -0.0451 -0.0432  0.2350
    1DIPC   NC310777  14.349  29.514   6.709  0.0594 -0.0195  0.1693
    1DIPC   PO410778  14.218  29.235   6.365 -0.1752  0.0739  0.0234
    1DIPC   GL110779  14.379  29.526   6.097  0.2137  0.1620 -0.0235
    1DIPC   GL210780  14.597  29.434   6.023  0.0693 -0.1555 -0.3166
    1DIPC   C1A10781  14.320   0.148   5.738  0.2596  0.0788  0.1249
    1DIPC   D2A10782  14.299   0.324   5.363  0.0606  0.1293 -0.0030
    1DIPC   D3A10783  14.613   0.572   5.228  0.2198  0.3056 -0.1086
    1DIPC   C4A10784  14.798   0.767   4.910 -0.1916  0.0142  0.1717
    1DIPC   C1B10785  14.732  29.309   5.572 -0.0318 -0.0565 -0.0996
    1DIPC   D2B10786  14.963  29.424   5.261  0.0567 -0.0918  0.2466
    1DIPC   D3B10787  14.710   0.078   5.138  0.0660 -0.0869 -0.1107
    1DIPC   C4B10788  14.757   0.293   4.677 -0.1489  0.1076 -0.0686
    1DIPC   NC310789   0.642  18.330   7.383 -0.2362 -0.2231 -0.1577
    1DIPC   PO410790   0.873  18.723   7.387 -0.1930  0.0140  0.3291
    1DIPC   GL110791   0.807  18.701   6.977  0.0478  0.0301 -0.0072
    1DIPC   GL210792   1.142  18.742   6.813 -0.1059 -0.1288  0.0686
    1DIPC   C1A10793   0.776  19.032   6.648  0.1289 -0.0783  0.1404
    1DIPC   D2A10794   0.900  19.470   6.463  0.0635 -0.1992 -0.0765
    1DIPC   D3A10795   1.005  19.621   6.096  0.2060  0.0546 -0.2583
    1DIPC   C4A10796   0.736  19.539   5.658 -0.2435 -0.2968  0.1567
    1DIPC   C1B10797   0.983  18.595   6.397 -0.0599  0.1346  0.3311
    1DIPC   D2B10798   0.903  18.537   6.024  0.2480  0.1317 -0.0399
    1DIPC   D3B10799   0.537  18.614   5.767 -0.1417  0.2847  0.1512
    1DIPC   C4B10800   0.653  18.700   5.312 -0.0119 -0.0848 -0.1099
    1DIPC   NC310801  29.454   1.235   6.050  0.0741  0.0088  0.0759
    1DIPC   PO410802  29.040   0.952   6.101  0.1266 -0.0452 -0.0794
    1DIPC   GL110803  28.891   0.791   5.771 -0.1519  0.2674 -0.0288
    1DIPC   GL210804  28.660   0.576   5.795 -0.2491 -0.1050 -0.0499
    1DIPC   C1A10805  29.008   0.646   5.340  0.0951 -0.2203  0.1037
    1DIPC   D2A10806  28.962   0.656   4.937  0.1226 -0.2405  0.0258
    1DIPC   D3A10807  28.861   0.431   4.543 -0.1785  0.2733  0.0515
    1DIPC   C4A10808  28.493   0.243   4.673 -0.0580 -0.0025 -0.0169
    1DIPC   C1B10809  28.367   0.637   5.468 -0.2670 -0.1754  0.0683
    1DIPC   D2B10810  28.001   0.614   5.172 -0.3931  0.6501  0.0208
    1DIPC   D3B10811  27.679   0.426   5.490  0.1023 -0.0480 -0.1464
    1DIPC   C4B10812  27.355   0.174   5.457 -0.0515  0.0335 -0.1226
    1DIPC   NC310813   7.257  22.096   6.630 -0.6579  0.0828 -0.1612
    1DIPC   PO410814   7.574  22.543   6.538 -0.0394  0.2230  0.3683
    1DIPC   GL110815   7.554  22.179   6.253  0.0594 -0.2157 -0.2134
    1DIPC   GL210816   7.783  22.167   6.012  0.3584 -0.0187  0.2193
    1DIPC   C1A10817   7.571  21.698   6.017  0.0672  0.0105 -0.1155
    1DIPC   D2A10818   7.891  21.505   5.775 -0.0416  0.0551 -0.1764
    1DIPC   D3A10819   7.715  21.421   5.330  0.6082  0.0035  0.2861
    1DIPC   C4A10820   7.699  21.779   5.100 -0.2271 -0.2956 -0.0168
    1DIPC   C1B10821   7.706  21.954   5.597 -0.0132 -0.2715  0.4687
    1DIPC   D2B10822   7.862  22.253   5.140 -0.0202  0.3529  0.1185
    1DIPC   D3B10823   7.985  21.965   4.728 -0.0971  0.2386 -0.1150
    1DIPC   C4B10824   7.634  21.978   4.519  0.2615 -0.1106 -0.1289
    1DIPC   NC310825   5.954   1.465   6.686 -0.1967 -0.0955 -0.0670
    1DIPC   PO410826   5.961   1.251   6.239  0.1227  0.1376  0.0643
    1DIPC   GL110827   6.297   1.438   5.911  0.1295 -0.2959 -0.1906
    1DIPC   GL210828   6.101   1.651   5.857 -0.3231  0.1864  0.2924
    1DIPC   C1A10829   6.535   1.650   5.552 -0.1031  0.0433  0.1047
    1DIPC   D2A10830   6.927   1.770   5.506  0.0554  0.0123  0.2973
    1DIPC   D3A10831   7.129   1.535   5.296 -0.0275 -0.1184 -0.1306
    1DIPC   C4A10832   7.302   1.642   4.867  0.0160  0.0190 -0.1026
    1DIPC   C1B10833   6.081   1.618   5.314 -0.0469  0.2352  0.0851
    1DIPC   D2B10834   6.283   1.444   4.870 -0.0542  0.1726 -0.2196
    1DIPC   D3B10835   6.736   1.544   4.763 -0.1547  0.2247 -0.0604
    1DIPC   C4B10836   7.008   1.190   5.026 -0.0966 -0.0506 -0.0522
    1DIPC   NC310837  14.122   6.965   6.558 -0.0716 -0.3866  0.0772
    1DIPC   PO410838  14.367   7.207   6.285 -0.0418  0.2760 -0.5652
    1DIPC   GL110839  14.246   6.906   6.023 -0.0608  0.1766  0.1542
    1DIPC   GL210840  14.086   7.046   5.830  0.2170  0.3535 -0.0000
    1DIPC   C1A10841  14.263   6.530   5.788  0.0872  0.2479 -0.1422
    1DIPC   D2A10842  13.885   6.349   5.747  0.0767 -0.0437  0.5456
    1DIPC   D3A10843  13.982   6.138   5.412 -0.1323 -0.0939 -0.0806
    1DIPC   C4A10844  14.117   5.716   5.312 -0.2566 -0.2831  0.0603
    1DIPC   C1B10845  14.346   7.177   5.535  0.0842  0.0186  0.0983
    1DIPC   D2B10846  14.326   7.587   5.333 -0.0875  0.3050 -0.0478
    1DIPC   D3B10847  14.496   7.836   5.616 -0.0806  0.1139  0.1739
    1DIPC   C4B10848  14.428   8.202   5.350 -0.0680  0.1626  0.0010
    1DIPC   NC310849   5.126  13.876   6.503  0.0703  0.3154  0.0014
    1DIPC   PO410850   4.861  14.113   6.182 -0.0203 -0.2441 -0.0468
    1DIPC   GL110851   4.918  14.027   5.721  0.1042  0.1201  0.2874
    1DIPC   GL210852   4.688  13.835   5.633  0.1263  0.3048  0.2157
    1DIPC   C1A10853   5.181  13.986   5.488 -0.1253 -0.3025 -0.1913
    1DIPC   D2A10854   5.240  14.163   5.143 -0.1088 -0.0510  0.2713
    1DIPC   D3A10855   5.389  14.289   4.773  0.1102  0.2573 -0.0907
    1DIPC   C4A10856   5.194  14.550   4.546  0.0198 -0.0070 -0.2905
    1DIPC   C1B10857   4.736  14.038   5.252 -0.0058 -0.2775 -0.1033
    1DIPC   D2B10858   4.709  13.928   4.868  0.0177  0.1138 -0.0815
    1DIPC   D3B10859   4.481  14.257   4.886  0.1362 -0.3261  0.0924
    1DIPC   C4B10860   4.355  14.326   5.309  0.2288 -0.0893 -0.2182
    1DIPC   NC310861  12.581  21.931   6.095  0.0435 -0.6481  0.1071
    1DIPC   PO410862  12.363  22.169   5.825  0.1327  0.1956  0.2288
    1DIPC   GL110863  12.210  22.395   5.529  0.2626 -0.0071  0.1868
    1DIPC   GL210864  11.941  22.296   5.378  0.1669 -0.2879  0.2723
    1DIPC   C1A10865  12.316  22.539   5.061  0.0416  0.2630  0.0034
    1DIPC   D2A10866  12.404  22.865   4.870  0.2627 -0.4051  0.4832
    1DIPC   D3A10867  12.675  22.832   4.458  0.3452  0.0175 -0.2897
    1DIPC   C4A10868  13.053  23.044   4.566  0.3458  0.0473 -0.4550
    1DIPC   C1B10869  11.923  22.212   4.946 -0.0228  0.3012 -0.2145
    1DIPC   D2B10870  12.219  22.130   4.771 -0.0978  0.1049 -0.1048
    1DIPC   D3B10871  11.889  22.039   4.428  0.0132  0.3390  0.2613
    1DIPC   C4B10872  11.843  21.847   4.006  0.1571  0.1192 -0.2580
    1DIPC   NC310873   4.310  18.385   6.516  0.2812 -0.0193 -0.1250
    1DIPC   PO410874   4.397  18.816   6.661  0.0764  0.1826  0.0583
    1DIPC   GL110875   4.512  18.965   6.329  0.0445  0.0588 -0.0194
    1DIPC   GL210876   4.684  19.264   6.367 -0.0230 -0.0685 -0.0705
    1DIPC   C1A10877   4.330  19.093   5.965  0.1703  0.3893  0.0533
    1DIPC   D2A10878   4.459  19.323   5.565 -0.1160  0.2279  0.1151
    1DIPC   D3A10879   4.670  19.211   5.152 -0.1650 -0.1044 -0.1722
    1DIPC   C4A10880   4.523  18.834   5.013  0.0946  0.0488 -0.2347
    1DIPC   C1B10881   4.644  19.573   6.010  0.1278  0.2061  0.1237
    1DIPC   D2B10882   4.666  19.975   5.979 -0.2558 -0.1923  0.0475
    1DIPC   D3B10883   4.861  20.044   5.558 -0.0387 -0.3782 -0.2022
    1DIPC   C4B10884   4.719  20.268   5.173 -0.2625  0.1865  0.0830
    1DIPC   NC310885   0.096   1.616   6.575 -0.0467  0.0283  0.0889
    1DIPC   PO410886   0.357   1.421   6.235 -0.1380 -0.0129  0.0283
    1DIPC   GL110887   0.397   1.269   5.836 -0.0155 -0.0741  0.0236
    1DIPC   GL210888   0.049   1.455   5.645  0.1428  0.0684 -0.0204
    1DIPC   C1A10889   0.250   1.004   5.499 -0.1134  0.0421 -0.0293
    1DIPC   D2A10890   0.448   0.773   5.265 -0.1212 -0.1619  0.5142
    1DIPC   D3A10891   0.265   0.328   5.415 -0.0768  0.1714  0.0694
    1DIPC   C4A10892  29.486   0.253   5.364  0.1640  0.2198 -0.2894
    1DIPC   C1B10893   0.029   1.416   5.340 -0.1239 -0.1786 -0.4051
    1DIPC   D2B10894  29.455   1.261   4.959 -0.0687 -0.0411 -0.0915
    1DIPC   D3B10895  29.301   0.961   4.637 -0.3907  0.3007 -0.2896
    1DIPC   C4B10896   0.069   0.756   4.512 -0.0128  0.0644 -0.3107
    1DIPC   NC310897   3.443  22.500   6.856  0.1850 -0.0602 -0.1104
    1DIPC   PO410898   3.781  22.498   7.104 -0.1125 -0.1299  0.1793
    1DIPC   GL110899   3.915  22.667   6.697 -0.2195 -0.2139  0.1032
    1DIPC   GL210900   3.633  22.857   6.524  0.0864  0.1188 -0.0816
    1DIPC   C1A10901   4.215  22.663   6.321  0.0175 -0.2071  0.1658
    1DIPC   D2A10902   4.479  22.400   6.098 -0.0129  0.0870  0.0366
    1DIPC   D3A10903   4.857  22.360   6.226 -0.3493  0.1592 -0.0053
    1DIPC   C4A10904   5.172  22.323   6.581 -0.1210  0.0141 -0.1286
    1DIPC   C1B10905   3.531  23.268   6.226  0.1859 -0.3740  0.0269
    1DIPC   D2B10906   3.314  23.329   5.973  0.2826 -0.0925 -0.1901
    1DIPC   D3B10907   3.630  23.130   5.733 -0.2000 -0.3192  0.2306
    1DIPC   C4B10908   4.028  23.058   5.997 -0.1958 -0.0353  0.0878
    1DIPC   NC310909   7.614  13.919   6.245  0.0444  0.2241  0.1241
    1DIPC   PO410910   7.808  13.432   6.172  0.1830  0.3763  0.0386
    1DIPC   GL110911   8.020  13.408   5.714 -0.0598  0.1266  0.3689
    1DIPC   GL210912   7.844  13.153   5.481  0.3796  0.0232  0.2434
    1DIPC   C1A10913   7.788  13.565   5.244  0.1593  0.1151  0.1704
    1DIPC   D2A10914   7.334  13.456   5.194 -0.0670  0.0024 -0.4781
    1DIPC   D3A10915   7.266  13.587   4.729 -0.0103  0.1939 -0.0183
    1DIPC   C4A10916   7.573  13.448   4.393  0.1150  0.1076  0.1910
    1DIPC   C1B10917   8.085  12.896   5.276 -0.2474 -0.1213 -0.0719
    1DIPC   D2B10918   8.359  12.632   5.153  0.3737 -0.1856  0.0607
    1DIPC   D3B10919   8.592  12.630   4.893 -0.1863 -0.0843  0.1356
    1DIPC   C4B10920   8.465  12.640   4.442 -0.0540  0.3035 -0.1573
    1DIPC   NC310921  24.960  25.769   7.690  0.0699  0.1853 -0.0710
    1DIPC   PO410922  25.223  26.150   7.605  0.1458 -0.0715  0.1605
    1DIPC   GL110923  25.324  25.880   7.235 -0.2387 -0.0655  0.1842
    1DIPC   GL210924  24.987  25.824   7.171  0.0845  0.2899 -0.4320
    1DIPC   C1A10925  25.212  25.911   6.784 -0.0273 -0.0314  0.1744
    1DIPC   D2A10926  24.888  25.914   6.410 -0.6595 -0.3036 -0.0404
    1DIPC   D3A10927  24.549  25.825   6.100  0.1368  0.2087 -0.1443
    1DIPC   C4A10928  24.609  25.698   5.723 -0.0959  0.0371  0.0635
    1DIPC   C1B10929  24.867  25.589   6.842  0.1250 -0.0804 -0.0881
    1DIPC   D2B10930  24.716  25.393   6.447  0.2399 -0.2532 -0.1709
    1DIPC   D3B10931  25.018  25.259   6.171  0.0943 -0.2262  0.0396
    1DIPC   C4B10932  24.854  24.956   5.772  0.2692  0.0421 -0.1497
    1DIPC   NC310933  15.222  26.792   6.798  0.2706 -0.2559  0.0143
    1DIPC   PO410934  15.557  26.510   6.669 -0.0322  0.0810  0.0696
    1DIPC   GL110935  15.757  26.458   6.183  0.1351 -0.1299  0.0243
    1DIPC   GL210936  15.864  26.724   5.976  0.3519  0.0481 -0.0419
    1DIPC   C1A10937  15.457  26.359   5.911  0.0636 -0.0646  0.2085
    1DIPC   D2A10938  15.525  26.157   5.476  0.3123  0.2623 -0.0206
    1DIPC   D3A10939  15.699  26.015   5.033 -0.1643  0.0972  0.0504
    1DIPC   C4A10940  16.218  26.023   4.847  0.1280 -0.0939 -0.0703
    1DIPC   C1B10941  15.950  26.723   5.570 -0.0801  0.0249 -0.1225
    1DIPC   D2B10942  15.938  27.051   5.155  0.2318  0.1449 -0.2981
    1DIPC   D3B10943  16.157  26.767   4.960 -0.1497 -0.1583  0.0914
    1DIPC   C4B10944  16.052  26.556   4.600  0.0944 -0.1335 -0.2747
    1DIPC   NC310945  10.019   6.467   6.282  0.0578 -0.0322  0.1227
    1DIPC   PO410946   9.919   6.863   6.073  0.1338  0.0519  0.1790
    1DIPC   GL110947  10.021   6.688   5.782 -0.1305  0.0912  0.1000
    1DIPC   GL210948  10.223   6.752   5.447  0.1554  0.0820  0.2248
    1DIPC   C1A10949   9.771   6.474   5.484  0.1262  0.5762 -0.3498
    1DIPC   D2A10950   9.710   6.198   5.071  0.3268  0.0750 -0.3492
    1DIPC   D3A10951   9.402   6.458   5.112  0.0566 -0.1145  0.2302
    1DIPC   C4A10952   9.369   6.826   5.327 -0.0538  0.5377 -0.2936
    1DIPC   C1B10953  10.426   6.796   5.047 -0.2271  0.1016  0.4123
    1DIPC   D2B10954  10.733   6.827   4.790 -0.0924 -0.0066 -0.0785
    1DIPC   D3B10955  10.757   7.059   4.479  0.0666 -0.0358  0.0525
    1DIPC   C4B10956  10.367   7.022   4.353 -0.0516 -0.1821 -0.0069
    1DIPC   NC310957  23.376   2.523   7.508  0.2744 -0.1441 -0.0692
    1DIPC   PO410958  23.630   2.911   7.609 -0.2476  0.0846 -0.0666
    1DIPC   GL110959  23.538   2.908   7.128  0.1260  0.1183 -0.1756
    1DIPC   GL210960  23.153   3.005   7.015  0.0842  0.0761  0.2563
    1DIPC   C1A10961  23.676   2.673   6.750  0.1137  0.1407  0.1406
    1DIPC   D2A10962  23.860   2.206   6.622 -0.0304  0.2653  0.2304
    1DIPC   D3A10963  23.971   2.345   6.199 -0.1193 -0.0358  0.1753
    1DIPC   C4A10964  23.994   1.947   6.023 -0.1144  0.4184 -0.1943
    1DIPC   C1B10965  23.039   3.353   6.760 -0.0806  0.1311 -0.0748
    1DIPC   D2B10966  23.157   3.371   6.402  0.3388 -0.0241  0.1268
    1DIPC   D3B10967  22.789   3.736   6.346  0.2850 -0.1018 -0.1149
    1DIPC   C4B10968  22.605   3.830   5.947  0.1738  0.0861 -0.1149
    1DIPC   NC310969  11.634  29.214   6.571 -0.0782 -0.0810 -0.0678
    1DIPC   PO410970  11.620  29.523   6.329 -0.0188  0.0653  0.1628
    1DIPC   GL110971  11.863  29.602   5.901  0.1213 -0.1808  0.0924
    1DIPC   GL210972  12.050   0.248   5.896 -0.0512 -0.2095  0.0932
    1DIPC   C1A10973  11.859   0.035   5.468  0.1768  0.2638 -0.0874
    1DIPC   D2A10974  12.080  29.497   5.157  0.5079  0.1150  0.1703
    1DIPC   D3A10975  11.830  29.224   5.008  0.3478  0.3223 -0.0105
    1DIPC   C4A10976  11.690  29.169   4.597 -0.2121  0.2486  0.1622
    1DIPC   C1B10977  12.332   0.137   5.570  0.1403 -0.0069  0.1669
    1DIPC   D2B10978  12.445   0.260   5.100 -0.0740  0.1803  0.4523
    1DIPC   D3B10979  12.801   0.409   5.254  0.0577  0.0318 -0.2399
    1DIPC   C4B10980  12.875   0.942   5.247 -0.2319  0.0339 -0.0361
    1DIPC   NC310981  14.127  14.012   6.672  0.0236  0.0766  0.2464
    1DIPC   PO410982  14.533  13.911   6.615  0.0337  0.0139 -0.1808
    1DIPC   GL110983  14.436  13.836   6.255 -0.1022  0.0214  0.1574
    1DIPC   GL210984  14.444  14.115   6.200 -0.2191  0.3232 -0.2171
    1DIPC   C1A10985  14.359  13.502   5.995 -0.2359  0.0888 -0.3509
    1DIPC   D2A10986  14.153  13.181   5.921  0.0403 -0.1064  0.4120
    1DIPC   D3A10987  14.090  12.821   5.604  0.2930  0.0926 -0.1923
    1DIPC   C4A10988  14.358  12.616   5.422 -0.2026 -0.1350  0.0476
    1DIPC   C1B10989  14.254  14.345   5.868 -0.0373  0.0714  0.1573
    1DIPC   D2B10990  14.054  14.598   5.573  0.0619 -0.2245 -0.1067
    1DIPC   D3B10991  13.883  14.922   5.709 -0.0789 -0.0374 -0.1245
    1DIPC   C4B10992  13.475  14.657   5.779  0.1071 -0.2240 -0.0637
    1DIPC   NC310993  18.241  23.203   7.677 -0.0414  0.1860 -0.1088
    1DIPC   PO410994  18.345  23.524   7.337  0.1885  0.0603  0.2286
    1DIPC   GL110995  18.540  23.520   6.937 -0.6141  0.1979  0.2977
    1DIPC   GL210996  18.782  23.213   6.941  0.1760  0.0039  0.0982
    1DIPC   C1A10997  18.724  23.500   6.475 -0.1638  0.3547  0.1467
    1DIPC   D2A10998  18.745  23.533   6.009  0.0557  0.2122 -0.1252
    1DIPC   D3A10999  18.548  23.911   6.213  0.3249  0.0288  0.3076
    1DIPC   C4A11000  18.879  24.183   6.156  0.0984 -0.4601 -0.3786
    1DIPC   C1B11001  18.784  22.832   6.645 -0.2217  0.1122 -0.2015
    1DIPC   D2B11002  18.667  22.417   6.570  0.0622  0.3102  0.2020
    1DIPC   D3B11003  18.606  22.074   6.226  0.1139  0.4169 -0.2053
    1DIPC   C4B11004  18.824  22.362   5.900 -0.1898 -0.0881  0.0603
    1DIPC   NC311005   1.643  26.784   7.042  0.4033  0.2537 -0.2071
    1DIPC   PO411006   1.422  26.485   6.743 -0.0933 -0.1710 -0.1231
    1DIPC   GL111007   1.389  26.330   6.337 -0.1861 -0.3657 -0.1045
    1DIPC   GL211008   1.565  26.052   6.360 -0.1638  0.1454 -0.3260
    1DIPC   C1A11009   1.304  26.377   5.927  0.3170  0.1441 -0.1335
    1DIPC   D2A11010   1.538  26.327   5.583 -0.0504  0.0491  0.2788
    1DIPC   D3A11011   1.293  26.318   5.220 -0.0402 -0.1526 -0.1452
    1DIPC   C4A11012   1.480  26.423   4.742 -0.0579  0.2936 -0.3271
    1DIPC   C1B11013   1.778  26.238   5.977  0.0183 -0.1670  0.2035
    1DIPC   D2B11014   2.101  26.528   5.865 -0.1318  0.0449  0.1286
    1DIPC   D3B11015   1.935  26.648   5.480 -0.3328  0.1012  0.0694
    1DIPC   C4B11016   1.849  26.318   5.225  0.3903 -0.0816 -0.1091
    1DIPC   NC311017  18.161   0.865   7.281  0.2983 -0.0830  0.2503
    1DIPC   PO411018  18.536   0.822   7.312  0.2006 -0.0370 -0.1353
    1DIPC   GL111019  18.605   0.810   6.891  0.2903  0.1625 -0.1488
    1DIPC   GL211020  18.639   0.507   6.699  0.0589  0.0459  0.3332
    1DIPC   C1A11021  18.979   0.822   6.537  0.2266 -0.2186 -0.1760
    1DIPC   D2A11022  19.058   0.772   6.141  0.1810  0.1231 -0.1467
    1DIPC   D3A11023  18.695   0.972   5.962  0.3759  0.0588  0.2994
    1DIPC   C4A11024  18.685   1.373   5.682 -0.5191 -0.1534 -0.1781
    1DIPC   C1B11025  18.381   0.289   6.434 -0.0514 -0.2963 -0.2665
    1DIPC   D2B11026  18.048   0.123   6.191  0.2515  0.2793 -0.2313
    1DIPC   D3B11027  17.857   0.486   6.336 -0.1530 -0.1898  0.3224
    1DIPC   C4B11028  17.650   0.673   6.071 -0.0028 -0.1954 -0.0908
    1DIPC   NC311029  15.378   2.508   6.542  0.0634 -0.1560 -0.1000
    1DIPC   PO411030  15.034   2.755   6.263  0.1157 -0.2685  0.1744
    1DIPC   GL111031  14.795   2.929   5.862 -0.0704  0.2250 -0.3684
    1DIPC   GL211032  14.408   3.069   5.926  0.1264  0.1041 -0.1687
    1DIPC   C1A11033  15.031   2.897   5.470 -0.0338  0.2766  0.1673
    1DIPC   D2A11034  15.159   2.914   4.992 -0.1723 -0.1630 -0.3378
    1DIPC   D3A11035  14.945   2.789   4.598 -0.0283 -0.2726 -0.1131
    1DIPC   C4A11036  15.003   3.065   4.232 -0.0679 -0.1683  0.4232
    1DIPC   C1B11037  14.502   3.002   5.467  0.1084 -0.0894  0.0478
    1DIPC   D2B11038  14.322   2.809   5.105 -0.0416  0.2438 -0.0662
    1DIPC   D3B11039  13.808   2.816   5.021 -0.1170 -0.1171 -0.1647
    1DIPC   C4B11040  13.752   3.014   4.482  0.0538 -0.0988 -0.1933
    1DIPC   NC311041  11.121  29.455   6.053  0.2124  0.1111 -0.1903
    1DIPC   PO411042  10.716  29.562   6.049  0.1827 -0.1526 -0.0776
    1DIPC   GL111043  10.720  29.236   5.732  0.2031  0.2114 -0.1683
    1DIPC   GL211044  11.038  29.132   5.676 -0.2019 -0.1640 -0.1382
    1DIPC   C1A11045  10.842  29.576   5.424 -0.1571 -0.3106  0.1377
    1DIPC   D2A11046  10.909   0.114   4.956 -0.0178  0.1734  0.1635
    1DIPC   D3A11047  11.148   0.425   4.680  0.3625  0.2525 -0.1136
    1DIPC   C4A11048  11.166   0.875   4.452 -0.0446 -0.1100 -0.0441
    1DIPC   C1B11049  10.972  28.771   5.398  0.0396 -0.0407  0.2334
    1DIPC   D2B11050  10.917  28.267   5.506  0.2350  0.0537  0.0903
    1DIPC   D3B11051  10.738  28.344   5.051  0.0344 -0.4038 -0.0804
    1DIPC   C4B11052  10.387  28.258   4.792  0.2343  0.1055 -0.1846
    1DIPC   NC311053  13.484  10.909   6.326  0.1092  0.0219 -0.1337
    1DIPC   PO411054  13.817  11.258   6.232 -0.0073 -0.0367  0.0140
    1DIPC   GL111055  13.761  11.014   5.843 -0.2441  0.0173  0.0869
    1DIPC   GL211056  14.061  11.062   5.787  0.0840 -0.2343 -0.0709
    1DIPC   C1A11057  13.889  10.771   5.404  0.0994 -0.1560 -0.0139
    1DIPC   D2A11058  13.753  10.465   5.177  0.3244 -0.1036 -0.2827
    1DIPC   D3A11059  14.133  10.612   4.906  0.2129  0.4307 -0.0378
    1DIPC   C4A11060  13.957  10.525   4.470  0.0259 -0.1399  0.0951
    1DIPC   C1B11061  14.081  11.261   5.359 -0.1498 -0.1607  0.3695
    1DIPC   D2B11062  13.997  11.321   4.928  0.1305  0.0367 -0.1424
    1DIPC   D3B11063  14.166  11.525   4.645  0.0379 -0.1785  0.0650
    1DIPC   C4B11064  14.608  11.852   4.752  0.0336  0.0786  0.1172
    1DIPC   NC311065   8.346  21.811   6.561  0.2169  0.1659  0.1799
    1DIPC   PO411066   8.699  22.018   6.515 -0.1193  0.2108 -0.2589
    1DIPC   GL111067   8.564  21.715   6.129  0.1594 -0.1694  0.1364
    1DIPC   GL211068   8.303  21.402   6.089  0.1652 -0.0559  0.2045
    1DIPC   C1A11069   8.342  21.765   5.736 -0.1458 -0.0123 -0.3161
    1DIPC   D2A11070   8.274  21.628   5.279 -0.2570 -0.3326 -0.1183
    1DIPC   D3A11071   8.282  21.196   5.264 -0.1763  0.1976 -0.1860
    1DIPC   C4A11072   7.849  21.023   4.983 -0.0205  0.1197  0.2443
    1DIPC   C1B11073   8.265  21.174   5.731  0.1998  0.1781 -0.0525
    1DIPC   D2B11074   7.916  21.014   5.644 -0.3199 -0.1581  0.0077
    1DIPC   D3B11075   8.142  20.654   5.761 -0.0992 -0.0564 -0.0339
    1DIPC   C4B11076   8.255  20.292   5.389 -0.0790  0.2366  0.0297
    1DIPC   NC311077  17.056  25.600   7.150 -0.2025  0.1326  0.3966
    1DIPC   PO411078  17.521  25.685   7.063  0.0562 -0.3143  0.2506
    1DIPC   GL111079  17.601  25.824   6.712  0.0080  0.1545 -0.3432
    1DIPC   GL211080  17.842  26.057   6.668  0.0305 -0.0696 -0.1964
    1DIPC   C1A11081  17.347  25.676   6.343  0.0846  0.2332  0.1849
    1DIPC   D2A11082  17.229  25.437   5.952 -0.1977 -0.2150  0.0766
    1DIPC   D3A11083  17.533  25.222   5.698  0.3058  0.1755 -0.0987
    1DIPC   C4A11084  17.696  25.315   5.264 -0.2264 -0.0260 -0.1462
    1DIPC   C1B11085  17.776  25.947   6.283 -0.1484  0.1925  0.2026
    1DIPC   D2B11086  17.600  25.717   5.869 -0.2281  0.0667 -0.1256
    1DIPC   D3B11087  17.245  25.771   5.536  0.1403 -0.4610  0.1022
    1DIPC   C4B11088  16.945  26.205   5.618  0.0018 -0.1432  0.0469
    1DIPC   NC311089   9.651  29.565   6.090 -0.0080 -0.0479 -0.3626
    1DIPC   PO411090   9.965   0.262   6.027 -0.3550 -0.0612  0.0662
    1DIPC   GL111091   9.889   0.378   5.604  0.0182 -0.1219 -0.2090
    1DIPC   GL211092  10.069   0.465   5.384 -0.3384  0.1660 -0.1719
    1DIPC   C1A11093   9.485   0.264   5.403  0.0044  0.1417 -0.1155
    1DIPC   D2A11094   9.451   0.020   5.032 -0.1055 -0.2119  0.1399
    1DIPC   D3A11095   9.478  29.432   4.700 -0.2498 -0.0277 -0.0974
    1DIPC   C4A11096   9.227  29.559   4.491  0.2130 -0.2247 -0.2215
    1DIPC   C1B11097  10.186   0.708   4.973 -0.0354 -0.1878 -0.0655
    1DIPC   D2B11098  10.178   0.699   4.538 -0.1422  0.0085 -0.0029
    1DIPC   D3B11099   9.752   0.757   4.445  0.2080 -0.3026  0.0415
    1DIPC   C4B11100   9.640   0.883   4.854  0.2647  0.0825 -0.0461
    1DIPC   NC311101   0.276   0.494   6.434 -0.4223  0.3227 -0.1725
    1DIPC   PO411102   0.150   0.897   6.224  0.1001 -0.0089 -0.0243
    1DIPC   GL111103   0.007   0.733   5.845  0.1656  0.1310 -0.1269
    1DIPC   GL211104  29.355   0.913   5.672 -0.2194  0.2242  0.1123
    1DIPC   C1A11105  29.243   0.414   5.735 -0.1590  0.1367  0.2327
    1DIPC   D2A11106  28.882   0.174   5.589 -0.1845 -0.0873  0.1878
    1DIPC   D3A11107  28.660   0.258   5.158  0.1610 -0.0516  0.0558
    1DIPC   C4A11108  28.952   0.049   4.896 -0.0498 -0.0851  0.0956
    1DIPC   C1B11109  29.395   0.980   5.318 -0.0802  0.0064 -0.0690
    1DIPC   D2B11110  29.544   0.777   5.084  0.3602  0.3290  0.1423
    1DIPC   D3B11111   0.263   1.036   4.883 -0.1779 -0.1803  0.1952
    1DIPC   C4B11112   0.287   1.135   4.411 -0.0854  0.2097 -0.0686
    1DIPC   NC311113  28.913  17.885   7.620  0.5190  0.1960  0.1681
    1DIPC   PO411114  29.076  18.156   7.259  0.3335 -0.1489  0.0136
    1DIPC   GL111115  29.179  17.993   6.909  0.0544  0.3362 -0.0404
    1DIPC   GL211116  29.214  18.260   6.709 -0.0923 -0.0108  0.0504
    1DIPC   C1A11117  28.955  17.754   6.580  0.1979 -0.0633  0.2742
    1DIPC   D2A11118  28.902  17.701   6.086 -0.0892  0.0624  0.0058
    1DIPC   D3A11119  29.289  17.637   5.962  0.2168  0.2250  0.0772
    1DIPC   C4A11120  29.268  17.365   5.584 -0.3338 -0.0351 -0.0326
    1DIPC   C1B11121  29.200  18.143   6.310 -0.5097 -0.2565 -0.0710
    1DIPC   D2B11122  29.248  18.206   5.894  0.1650 -0.0889  0.1676
    1DIPC   D3B11123  29.081  18.368   5.532  0.1823 -0.0547 -0.0550
    1DIPC   C4B11124  29.201  18.352   5.075 -0.0926 -0.0485  0.2567
    1DIPC   NC311125  10.156  12.910   6.221  0.0780 -0.0243  0.0761
    1DIPC   PO411126   9.704  12.961   6.132 -0.1981  0.0269  0.0013
    1DIPC   GL111127   9.686  12.993   5.665 -0.3219 -0.1820 -0.0936
    1DIPC   GL211128   9.682  12.690   5.611 -0.1021 -0.0641 -0.1481
    1DIPC   C1A11129   9.634  13.201   5.321  0.2631  0.0606  0.0447
    1DIPC   D2A11130   9.704  13.584   4.968 -0.1210  0.0171  0.0497
    1DIPC   D3A11131  10.166  13.692   4.916 -0.0512  0.1450  0.1479
    1DIPC   C4A11132  10.402  13.443   5.126 -0.0632  0.1866  0.1238
    1DIPC   C1B11133   9.663  12.706   5.178  0.0513  0.1308  0.1481
    1DIPC   D2B11134   9.843  12.663   4.698  0.1132 -0.1195  0.0474
    1DIPC   D3B11135   9.599  13.122   4.864 -0.0121  0.0487  0.0024
    1DIPC   C4B11136   9.400  13.512   4.561  0.0705  0.2321  0.1620
    1DIPC   NC311137   7.291  17.174   5.917 -0.3479 -0.1462  0.1328
    1DIPC   PO411138   7.506  17.292   6.381  0.3365 -0.0251  0.0436
    1DIPC   GL111139   7.748  17.321   6.015  0.0220 -0.1348  0.1741
    1DIPC   GL211140   8.021  17.366   5.992  0.1870 -0.0653  0.2535
    1DIPC   C1A11141   7.913  17.425   5.551 -0.0807  0.1456 -0.0147
    1DIPC   D2A11142   8.236  17.262   5.154  0.0091  0.1172 -0.1903
    1DIPC   D3A11143   7.997  17.574   5.028 -0.0867  0.1702  0.1356
    1DIPC   C4A11144   7.761  17.867   4.899  0.2890  0.0299  0.5130
    1DIPC   C1B11145   8.360  17.136   5.671 -0.1982  0.2829  0.0068
    1DIPC   D2B11146   8.615  17.425   5.475  0.1415 -0.4716  0.1875
    1DIPC   D3B11147   8.618  17.571   5.060 -0.0290  0.3034 -0.1251
    1DIPC   C4B11148   8.357  17.955   4.954  0.1290  0.0833 -0.0804
    1DIPC   NC311149  20.688  19.751   7.549  0.0352 -0.0218 -0.0277
    1DIPC   PO411150  20.401  19.466   7.318  0.0650 -0.0332 -0.0200
    1DIPC   GL111151  20.385  19.444   6.915  0.3301 -0.1084  0.2485
    1DIPC   GL211152  20.148  19.194   6.867 -0.0228 -0.1782  0.0414
    1DIPC   C1A11153  20.417  19.399   6.502 -0.0001  0.0659 -0.1876
    1DIPC   D2A11154  20.363  19.796   6.116  0.0643  0.1997  0.1336
    1DIPC   D3A11155  20.778  19.905   6.050 -0.2551 -0.2147 -0.1075
    1DIPC   C4A11156  21.056  19.885   5.721 -0.3679  0.0421  0.3069
    1DIPC   C1B11157  20.407  18.927   6.637  0.0209 -0.2185 -0.0971
    1DIPC   D2B11158  20.512  18.509   6.580 -0.1415 -0.0667  0.2551
    1DIPC   D3B11159  20.576  18.153   6.917 -0.0850 -0.0494 -0.2083
    1DIPC   C4B11160  20.785  17.753   6.756  0.2096  0.0324 -0.0324
    1DIPC   NC311161  15.107  29.035   7.065 -0.2647  0.0544 -0.0431
    1DIPC   PO411162  15.384  28.775   6.799 -0.0033 -0.2456  0.1499
    1DIPC   GL111163  15.412  28.766   6.438 -0.2351 -0.1761  0.0289
    1DIPC   GL211164  15.206  28.869   6.253  0.1445  0.2286 -0.1307
    1DIPC   C1A11165  15.619  28.478   6.160 -0.3395 -0.0421  0.2128
    1DIPC   D2A11166  16.127  28.260   6.041 -0.0221  0.1831  0.0662
    1DIPC   D3A11167  16.313  28.427   5.650  0.3565 -0.3567  0.2002
    1DIPC   C4A11168  16.300  28.339   5.220 -0.0832  0.0317  0.0442
    1DIPC   C1B11169  15.395  28.862   5.982  0.1133 -0.1371  0.1908
    1DIPC   D2B11170  15.519  29.114   5.573  0.1934 -0.1002 -0.1278
    1DIPC   D3B11171  15.320  29.086   5.162 -0.2370 -0.2651 -0.1726
    1DIPC   C4B11172  15.343  29.110   4.757  0.1571 -0.2357  0.2814
    1DIPC   NC311173   7.458  13.257   5.816 -0.3041 -0.1004 -0.1424
    1DIPC   PO411174   7.036  13.239   5.666 -0.3303  0.0689  0.1540
    1DIPC   GL111175   6.971  13.030   5.160  0.0420 -0.2790  0.2168
    1DIPC   GL211176   6.713  12.852   5.127 -0.0309  0.2883  0.0171
    1DIPC   C1A11177   7.110  13.094   4.712  0.1506 -0.1658  0.1021
    1DIPC   D2A11178   7.344  12.966   4.338  0.0295 -0.0025 -0.0689
    1DIPC   D3A11179   7.046  13.319   4.260 -0.2729 -0.0155 -0.0837
    1DIPC   C4A11180   6.793  13.593   4.020  0.1248  0.2550 -0.0825
    1DIPC   C1B11181   6.617  12.934   4.537 -0.0033  0.0771  0.0915
    1DIPC   D2B11182   6.566  13.178   4.070  0.1787  0.2681  0.0988
    1DIPC   D3B11183   6.266  13.294   4.399 -0.2065  0.2944  0.0430
    1DIPC   C4B11184   5.905  13.523   4.272 -0.1538  0.2495  0.1143
    1DIPC   NC311185   1.402   9.956   6.190 -0.0346  0.0853 -0.3753
    1DIPC   PO411186   1.458   9.691   5.812 -0.0202 -0.2123 -0.0904
    1DIPC   GL111187   1.429   9.993   5.540  0.0659  0.3843 -0.0066
    1DIPC   GL211188   1.258  10.171   5.732 -0.2725  0.0131  0.1686
    1DIPC   C1A11189   1.416  10.193   5.195 -0.0241  0.0997  0.2217
    1DIPC   D2A11190   1.373  10.164   4.797  0.0244 -0.0200  0.0101
    1DIPC   D3A11191   1.351  10.620   4.847 -0.3931  0.0809 -0.0122
    1DIPC   C4A11192   1.737  10.882   4.752 -0.0219 -0.4594  0.0229
    1DIPC   C1B11193   0.936  10.324   5.428 -0.0886  0.0800  0.1618
    1DIPC   D2B11194   0.566  10.222   5.341  0.2193 -0.1430 -0.2036
    1DIPC   D3B11195   0.436  10.077   5.708 -0.1441 -0.1216 -0.0616
    1DIPC   C4B11196   0.102  10.192   5.923 -0.3203 -0.2916 -0.0879
    1DIPC   NC311197  17.396   1.355   6.727  0.0295 -0.0003 -0.1729
    1DIPC   PO411198  17.029   1.522   6.531  0.0339 -0.0441  0.1915
    1DIPC   GL111199  17.039   1.242   6.193 -0.1277  0.0930  0.2573
    1DIPC   GL211200  17.346   1.232   6.143 -0.0210  0.2131  0.3012
    1DIPC   C1A11201  17.022   1.553   5.883  0.1561  0.0557  0.1248
    1DIPC   D2A11202  16.899   1.771   5.543 -0.2321 -0.1543 -0.0472
    1DIPC   D3A11203  17.087   1.374   5.406 -0.1332  0.0487 -0.2093
    1DIPC   C4A11204  17.396   1.134   5.176 -0.2600 -0.0535 -0.0181
    1DIPC   C1B11205  17.455   1.232   5.747 -0.1595 -0.3468 -0.2078
    1DIPC   D2B11206  17.800   1.136   5.539 -0.0555  0.2056 -0.2994
    1DIPC   D3B11207  18.024   0.746   5.536  0.0441  0.2411  0.1796
    1DIPC   C4B11208  18.265   0.650   5.167 -0.1715  0.2597  0.0583
    1DIPC   NC311209   7.251  10.009   5.748  0.0698 -0.0551  0.0862
    1DIPC   PO411210   7.648   9.812   5.650 -0.1063 -0.3986  0.0857
    1DIPC   GL111211   7.585   9.595   5.334 -0.0284 -0.0708  0.0825
    1DIPC   GL211212   7.563   9.819   5.101 -0.2316  0.0686 -0.0824
    1DIPC   C1A11213   7.648   9.301   5.002 -0.1259 -0.1153 -0.2611
    1DIPC   D2A11214   7.981   9.134   4.719  0.1821 -0.3474  0.0085
    1DIPC   D3A11215   8.061   8.988   4.261  0.2153  0.2589  0.0258
    1DIPC   C4A11216   8.106   8.593   4.316  0.4681 -0.1603 -0.0462
    1DIPC   C1B11217   7.179   9.962   4.891  0.0521 -0.0740  0.1531
    1DIPC   D2B11218   6.802   9.822   4.629  0.0392 -0.2286  0.1154
    1DIPC   D3B11219   6.943   9.676   4.222  0.1028  0.3277 -0.1254
    1DIPC   C4B11220   7.170   9.408   4.100  0.2842 -0.0394 -0.2701
    1DIPC   NC311221  14.759  27.868   6.622  0.0761  0.1825  0.0637
    1DIPC   PO411222  14.326  27.696   6.552 -0.2130  0.1815 -0.0161
    1DIPC   GL111223  14.177  27.459   6.089  0.3108 -0.0142 -0.0121
    1DIPC   GL211224  14.588  27.418   6.126 -0.0698  0.1973 -0.0976
    1DIPC   C1A11225  14.012  27.329   5.674  0.0934  0.0181  0.0964
    1DIPC   D2A11226  14.087  27.338   5.159  0.2805 -0.0893  0.0331
    1DIPC   D3A11227  13.916  27.492   4.784 -0.2674  0.0686  0.3053
    1DIPC   C4A11228  14.278  27.718   4.565  0.3019  0.2019 -0.2802
    1DIPC   C1B11229  14.992  27.313   5.963 -0.0115  0.0317 -0.0341
    1DIPC   D2B11230  15.246  27.241   5.607 -0.2000  0.2722 -0.0797
    1DIPC   D3B11231  14.962  26.910   5.576 -0.1041  0.2197 -0.2925
    1DIPC   C4B11232  14.801  26.716   5.195  0.1542  0.0829 -0.1053
    1DIPC   NC311233  19.070  16.516   7.377  0.0186  0.0104  0.0638
    1DIPC   PO411234  19.368  16.805   7.575  0.4132 -0.1442  0.0041
    1DIPC   GL111235  19.379  16.755   7.044 -0.0594 -0.1482  0.2877
    1DIPC   GL211236  19.214  17.016   6.978 -0.3435 -0.1638 -0.1324
    1DIPC   C1A11237  19.322  16.484   6.737  0.1945 -0.0623 -0.0007
    1DIPC   D2A11238  18.965  16.437   6.435 -0.0539  0.0821  0.0575
    1DIPC   D3A11239  18.648  16.131   6.407 -0.1783 -0.1317  0.1603
    1DIPC   C4A11240  18.295  16.246   6.241 -0.1868 -0.2192 -0.0755
    1DIPC   C1B11241  19.166  16.936   6.580 -0.2804  0.4233 -0.0533
    1DIPC   D2B11242  19.291  16.743   6.155 -0.2870 -0.1587 -0.3811
    1DIPC   D3B11243  19.738  16.705   5.963 -0.0830  0.2768 -0.1483
    1DIPC   C4B11244  19.897  16.420   5.600 -0.0930  0.2100  0.0348
    1DIPC   NC311245  28.900  20.483   7.191  0.0488  0.1416  0.3605
    1DIPC   PO411246  29.031  20.864   7.397 -0.2633  0.0966  0.0861
    1DIPC   GL111247  28.917  20.928   6.960 -0.0709  0.1907  0.1625
    1DIPC   GL211248  29.183  21.214   6.810 -0.0567  0.1384  0.0136
    1DIPC   C1A11249  28.848  20.907   6.519  0.0464 -0.0203 -0.0910
    1DIPC   D2A11250  28.678  21.167   6.148  0.0867  0.2006  0.0431
    1DIPC   D3A11251  28.304  21.251   5.819  0.0251 -0.0798 -0.2832
    1DIPC   C4A11252  28.200  21.667   5.693  0.1518  0.0066  0.0274
    1DIPC   C1B11253  28.879  21.483   6.521  0.1339 -0.0565 -0.0155
    1DIPC   D2B11254  28.997  21.879   6.367  0.3996  0.1374 -0.2838
    1DIPC   D3B11255  28.769  22.090   6.056  0.4432  0.3214  0.2179
    1DIPC   C4B11256  28.362  22.152   5.838 -0.0178  0.0651 -0.0609
    1DIPC   NC311257  25.436   0.472   7.590  0.1376 -0.0214  0.3447
    1DIPC   PO411258  25.254   0.501   7.280 -0.1420 -0.1970  0.2655
    1DIPC   GL111259  25.466   0.642   6.896  0.1851  0.0370  0.3056
    1DIPC   GL211260  25.765   0.720   6.855 -0.1790 -0.1375 -0.3301
    1DIPC   C1A11261  25.390   0.605   6.477  0.0715  0.1266 -0.0343
    1DIPC   D2A11262  25.528   0.444   6.044 -0.1840  0.1482 -0.2185
    1DIPC   D3A11263  25.206   0.314   5.828 -0.1407 -0.0855 -0.1687
    1DIPC   C4A11264  24.932   0.547   5.961  0.2725 -0.1183  0.0213
    1DIPC   C1B11265  26.148   1.008   6.661  0.1488 -0.1522 -0.0820
    1DIPC   D2B11266  26.108   1.353   6.371 -0.0992 -0.4373  0.1311
    1DIPC   D3B11267  26.481   1.221   6.201  0.0825 -0.0568  0.0354
    1DIPC   C4B11268  26.817   1.447   6.129 -0.0324  0.1594  0.2129
    1DIPC   NC311269   4.051   7.635   6.065 -0.1116  0.1163  0.1354
    1DIPC   PO411270   3.760   7.305   5.806 -0.1210 -0.6858  0.2241
    1DIPC   GL111271   3.687   7.046   5.467  0.2947  0.1256  0.0092
    1DIPC   GL211272   3.621   6.758   5.493  0.1977  0.2042 -0.0329
    1DIPC   C1A11273   3.697   6.947   4.964  0.0263 -0.5157  0.2620
    1DIPC   D2A11274   3.558   6.641   4.605  0.1309  0.0315 -0.0557
    1DIPC   D3A11275   3.464   6.297   4.540 -0.2174  0.1865  0.0297
    1DIPC   C4A11276   3.154   6.141   4.832  0.0892 -0.1160  0.0948
    1DIPC   C1B11277   3.270   6.970   5.284  0.4577  0.1087  0.0364
    1DIPC   D2B11278   2.882   6.867   5.147  0.0407  0.0557  0.0067
    1DIPC   D3B11279   3.140   6.688   4.858  0.0946  0.0111 -0.0586
    1DIPC   C4B11280   3.081   6.579   4.350  0.1275 -0.1419  0.0968
    1DIPC   NC311281   7.702   6.226   6.349  0.3579 -0.0674 -0.2697
    1DIPC   PO411282   7.737   6.031   5.917 -0.1376  0.0133  0.2226
    1DIPC   GL111283   7.919   6.186   5.609  0.2347  0.3697 -0.4925
    1DIPC   GL211284   8.125   6.417   5.524 -0.1670  0.2134 -0.0641
    1DIPC   C1A11285   8.021   5.924   5.209 -0.3506  0.0378 -0.0392
    1DIPC   D2A11286   7.977   5.546   5.033  0.1662  0.3246 -0.1239
    1DIPC   D3A11287   8.245   5.612   4.711 -0.1027  0.2033  0.0066
    1DIPC   C4A11288   8.418   5.401   4.334  0.2100 -0.2087 -0.0092
    1DIPC   C1B11289   8.383   6.340   5.169 -0.0826 -0.2468 -0.0077
    1DIPC   D2B11290   8.302   6.166   4.760  0.1932  0.1063  0.1532
    1DIPC   D3B11291   8.409   6.559   4.536 -0.4538 -0.0121  0.4601
    1DIPC   C4B11292   8.787   6.590   4.333  0.0907  0.0979 -0.2481
    1DIPC   NC311293  11.710  19.423   6.003 -0.0141 -0.2656  0.1525
    1DIPC   PO411294  11.832  19.088   5.848 -0.2354 -0.4410  0.1961
    1DIPC   GL111295  11.935  19.211   5.379  0.1090 -0.0750  0.0204
    1DIPC   GL211296  12.150  19.323   5.315  0.1021  0.0582  0.3614
    1DIPC   C1A11297  11.901  19.163   4.902 -0.1795 -0.2237  0.2931
    1DIPC   D2A11298  11.841  18.777   4.758  0.0868 -0.1530  0.2543
    1DIPC   D3A11299  11.706  18.507   4.430  0.2411 -0.1505  0.0300
    1DIPC   C4A11300  11.861  18.652   4.051  0.0478 -0.0594  0.1909
    1DIPC   C1B11301  12.049  19.777   5.213 -0.4203 -0.3370 -0.2197
    1DIPC   D2B11302  12.006  19.920   4.820 -0.4403  0.1055  0.1018
    1DIPC   D3B11303  11.675  19.911   4.623  0.4800  0.0237  0.2073
    1DIPC   C4B11304  11.164  19.873   4.568  0.0214  0.0789  0.1241
    1DIPC   NC311305   6.525   9.024   5.614 -0.2465 -0.2957  0.0482
    1DIPC   PO411306   6.418   8.659   5.716  0.1707  0.0386  0.2249
    1DIPC   GL111307   6.479   8.662   5.279 -0.0615 -0.0740  0.1354
    1DIPC   GL211308   6.664   8.802   5.077 -0.1193  0.1822  0.0129
    1DIPC   C1A11309   6.363   8.387   4.907  0.0845 -0.1513 -0.3650
    1DIPC   D2A11310   6.276   8.100   4.541 -0.1750  0.0968 -0.0420
    1DIPC   D3A11311   5.891   8.164   4.290 -0.1464  0.3367 -0.2140
    1DIPC   C4A11312   5.523   7.940   4.536 -0.1000 -0.0989  0.4191
    1DIPC   C1B11313   6.691   8.737   4.634  0.0649 -0.0527 -0.0569
    1DIPC   D2B11314   6.386   8.555   4.348  0.1954 -0.0513 -0.0917
    1DIPC   D3B11315   6.605   8.330   3.951 -0.0802  0.3320 -0.1267
    1DIPC   C4B11316   7.004   8.212   3.750  0.4147 -0.1522 -0.0525
    1DIPC   NC311317   4.947  15.107   6.199  0.1744  0.3505 -0.1476
    1DIPC   PO411318   4.849  15.504   6.330  0.0364 -0.0534  0.2904
    1DIPC   GL111319   4.732  15.354   5.814 -0.1842  0.1786  0.0907
    1DIPC   GL211320   4.726  14.984   5.758  0.0477  0.4426 -0.1270
    1DIPC   C1A11321   4.394  15.366   5.426 -0.0287  0.0519  0.0128
    1DIPC   D2A11322   4.010  15.422   5.297 -0.1081 -0.5147 -0.0363
    1DIPC   D3A11323   3.993  15.090   5.055 -0.0438  0.0920 -0.4038
    1DIPC   C4A11324   3.996  14.701   5.084 -0.0179  0.3298  0.0797
    1DIPC   C1B11325   4.813  14.930   5.359 -0.2880 -0.0860  0.1227
    1DIPC   D2B11326   4.859  14.485   5.076  0.0607  0.1755  0.1241
    1DIPC   D3B11327   4.473  14.731   5.022  0.2513  0.1248 -0.1541
    1DIPC   C4B11328   4.258  14.895   5.493 -0.0644 -0.4383  0.1488
    1DIPC   NC311329   7.815  29.486   5.804  0.1424 -0.0714 -0.1599
    1DIPC   PO411330   8.162  29.245   5.883 -0.0821  0.0354 -0.0043
    1DIPC   GL111331   7.931  29.249   5.423 -0.0106 -0.0663  0.2842
    1DIPC   GL211332   7.712  29.037   5.267  0.1766 -0.0954 -0.3362
    1DIPC   C1A11333   7.947  29.452   4.973  0.1429  0.0014  0.1143
    1DIPC   D2A11334   8.080   0.087   4.600  0.2694 -0.0836  0.2661
    1DIPC   D3A11335   8.391   0.288   4.292 -0.1647 -0.3515  0.0956
    1DIPC   C4A11336   8.197   0.351   4.022 -0.1085  0.1223 -0.0048
    1DIPC   C1B11337   7.882  28.894   4.904 -0.0107 -0.1611 -0.3418
    1DIPC   D2B11338   7.692  28.796   4.446  0.0911  0.0481  0.0760
    1DIPC   D3B11339   7.561  29.160   4.129  0.1083 -0.2819 -0.1039
    1DIPC   C4B11340   7.771  29.620   4.273 -0.2284 -0.0338 -0.1468
    1DIPC   NC311341   8.188  26.575   6.038  0.1473 -0.0157 -0.2687
    1DIPC   PO411342   8.212  26.759   5.729 -0.2811 -0.1082  0.0741
    1DIPC   GL111343   8.481  26.694   5.405 -0.0402  0.1328 -0.2529
    1DIPC   GL211344   8.640  26.450   5.372  0.0052 -0.2120  0.1555
    1DIPC   C1A11345   8.723  26.889   5.042 -0.1235  0.0059  0.0454
    1DIPC   D2A11346   9.090  27.119   4.967 -0.0353  0.1968 -0.1058
    1DIPC   D3A11347   9.370  27.297   5.208  0.0127 -0.2377  0.0540
    1DIPC   C4A11348   9.358  27.703   5.310  0.0089 -0.3071  0.3358
    1DIPC   C1B11349   8.904  26.225   5.228 -0.0987 -0.1377  0.1380
    1DIPC   D2B11350   9.013  25.727   5.321  0.1480 -0.2307  0.2935
    1DIPC   D3B11351   9.185  25.904   4.940 -0.1191 -0.0017  0.2274
    1DIPC   C4B11352   8.754  26.127   4.770 -0.1465  0.0106 -0.2422
    1DIPC   NC311353  13.013  16.902   6.022 -0.1404 -0.0037  0.1553
    1DIPC   PO411354  12.788  17.153   6.270 -0.2032 -0.1805  0.1994
    1DIPC   GL111355  12.791  17.415   5.896 -0.1743 -0.3025  0.2634
    1DIPC   GL211356  12.517  17.473   5.915  0.1602  0.0177 -0.1081
    1DIPC   C1A11357  12.855  17.475   5.440  0.2035 -0.1324  0.0004
    1DIPC   D2A11358  12.902  17.479   5.011  0.0824  0.1621 -0.0785
    1DIPC   D3A11359  13.115  17.369   4.708  0.1957 -0.0883 -0.2554
    1DIPC   C4A11360  13.528  17.318   4.793  0.0601 -0.2054  0.0497
    1DIPC   C1B11361  12.367  17.319   5.596 -0.0424  0.2479  0.1255
    1DIPC   D2B11362  11.973  17.265   5.332 -0.1938 -0.0151 -0.1358
    1DIPC   D3B11363  12.080  16.937   4.989  0.0990  0.1964 -0.1548
    1DIPC   C4B11364  12.295  16.836   4.704 -0.0680 -0.1331  0.1356
    1DIPC   NC311365   6.604  27.612   6.234  0.4027 -0.2376 -0.0274
    1DIPC   PO411366   6.755  27.276   6.282  0.2682 -0.0754 -0.0933
    1DIPC   GL111367   6.824  26.989   5.994 -0.2623  0.3793  0.1354
    1DIPC   GL211368   6.845  26.646   5.961 -0.1285 -0.0712  0.3595
    1DIPC   C1A11369   6.779  27.035   5.521  0.1154 -0.0245  0.0993
    1DIPC   D2A11370   6.441  26.782   5.293  0.1343 -0.0449 -0.2021
    1DIPC   D3A11371   6.210  27.044   5.265  0.1676 -0.2316 -0.2957
    1DIPC   C4A11372   6.381  27.314   4.964  0.1957 -0.1074 -0.0250
    1DIPC   C1B11373   6.768  26.580   5.514  0.0608  0.0705  0.1321
    1DIPC   D2B11374   6.651  26.359   5.142 -0.0830 -0.0502  0.1918
    1DIPC   D3B11375   6.470  26.476   4.741 -0.2346 -0.0183 -0.2687
    1DIPC   C4B11376   6.441  26.360   4.369 -0.0111 -0.0189 -0.1140
    1DIPC   NC311377  19.942  16.490   7.860 -0.0606 -0.0790  0.1859
    1DIPC   PO411378  19.810  16.853   7.760  0.0448 -0.0717  0.0677
    1DIPC   GL111379  19.788  16.557   7.387 -0.1556 -0.2932 -0.1269
    1DIPC   GL211380  19.644  16.421   7.257 -0.1559 -0.2973  0.1021
    1DIPC   C1A11381  20.215  16.583   7.139  0.1382  0.1250  0.1688
    1DIPC   D2A11382  20.290  16.864   6.857 -0.1940 -0.0953  0.0869
    1DIPC   D3A11383  20.579  17.000   7.131 -0.0238  0.1820 -0.0184
    1DIPC   C4A11384  20.941  17.230   6.919 -0.1004  0.1226 -0.1814
    1DIPC   C1B11385  19.797  16.271   6.900  0.2655  0.0500 -0.1317
    1DIPC   D2B11386  20.081  16.286   6.753 -0.3385 -0.4380 -0.5291
    1DIPC   D3B11387  20.081  16.143   6.282  0.0252  0.1349 -0.0089
    1DIPC   C4B11388  20.413  15.796   6.272  0.1195 -0.2389 -0.1545
    1DIPC   NC311389   7.666  28.533   6.096  0.1067  0.2575  0.2323
    1DIPC   PO411390   7.758  28.237   5.899  0.0307 -0.2288  0.2591
    1DIPC   GL111391   7.864  28.440   5.566  0.1033 -0.2024 -0.1735
    1DIPC   GL211392   8.005  28.738   5.604  0.0076 -0.0162 -0.1112
    1DIPC   C1A11393   7.862  28.403   5.179 -0.0216  0.0187  0.0174
    1DIPC   D2A11394   7.715  28.367   4.752  0.0567 -0.0451  0.1624
    1DIPC   D3A11395   7.520  28.016   4.598  0.0870  0.0614  0.0668
    1DIPC   C4A11396   7.704  27.686   4.415  0.0730 -0.0545 -0.2385
    1DIPC   C1B11397   8.216  28.885   5.274 -0.0273  0.4237 -0.0890
    1DIPC   D2B11398   8.382  28.971   4.866 -0.1397  0.0090 -0.2223
    1DIPC   D3B11399   8.392  29.297   4.699 -0.1674  0.0202 -0.1834
    1DIPC   C4B11400   8.540   0.060   4.800  0.0383  0.1878 -0.1004
    1DIPC   NC311401   2.454  12.497   6.633 -0.0269  0.1301 -0.1307
    1DIPC   PO411402   2.646  12.056   6.445  0.1139 -0.2380  0.1941
    1DIPC   GL111403   2.710  11.991   6.012  0.2446 -0.3245 -0.2800
    1DIPC   GL211404   2.503  11.956   5.703  0.2781  0.2528  0.0801
    1DIPC   C1A11405   2.631  12.397   5.644  0.0918 -0.1525  0.1151
    1DIPC   D2A11406   2.516  12.364   5.182 -0.1594 -0.3358  0.0696
    1DIPC   D3A11407   2.893  12.251   5.267  0.3063  0.3475 -0.2982
    1DIPC   C4A11408   3.036  12.112   5.619 -0.2248 -0.2431  0.2813
    1DIPC   C1B11409   2.189  12.243   5.513 -0.0121 -0.1446  0.2149
    1DIPC   D2B11410   1.762  12.339   5.248 -0.0068 -0.0869  0.2004
    1DIPC   D3B11411   2.022  12.468   4.899 -0.1699 -0.3452 -0.0226
    1DIPC   C4B11412   2.323  12.365   4.660 -0.2246 -0.5288  0.4879
    1DIPC   NC311413  23.735   0.763   7.012 -0.1185 -0.0556 -0.1209
    1DIPC   PO411414  24.060   0.959   7.250  0.1150 -0.2307  0.2755
    1DIPC   GL111415  24.140   1.101   6.855 -0.0325  0.1659  0.1709
    1DIPC   GL211416  23.894   1.180   6.733  0.2458  0.3938  0.2967
    1DIPC   C1A11417  24.474   1.081   6.641 -0.2330  0.1605 -0.1011
    1DIPC   D2A11418  24.785   1.066   6.249 -0.0428 -0.1819 -0.1807
    1DIPC   D3A11419  24.985   1.398   6.045  0.0763  0.1386  0.2565
    1DIPC   C4A11420  25.347   1.317   5.810  0.0925  0.4218 -0.1945
    1DIPC   C1B11421  24.054   1.527   6.332  0.2161  0.2515  0.0559
    1DIPC   D2B11422  24.405   1.684   6.159 -0.0683  0.2166 -0.0064
    1DIPC   D3B11423  24.505   1.730   5.737  0.0340  0.1746  0.0912
    1DIPC   C4B11424  24.491   1.947   5.395 -0.1126  0.2310  0.3570
    1DIPC   NC311425  24.705   2.198   7.551  0.0724 -0.1029 -0.0130
    1DIPC   PO411426  24.356   2.343   7.316 -0.3750 -0.0595  0.1371
    1DIPC   GL111427  24.434   2.419   6.921 -0.2660  0.0670  0.0827
    1DIPC   GL211428  24.177   2.634   6.768  0.1725  0.2504  0.2997
    1DIPC   C1A11429  24.765   2.628   6.610  0.0472  0.2932 -0.1278
    1DIPC   D2A11430  24.658   2.652   6.194 -0.1875  0.5340  0.0973
    1DIPC   D3A11431  24.482   2.999   6.227  0.0964 -0.0339 -0.3351
    1DIPC   C4A11432  24.521   3.014   6.608  0.1563 -0.0222 -0.0672
    1DIPC   C1B11433  23.952   2.828   6.372  0.3384 -0.1049 -0.3947
    1DIPC   D2B11434  23.894   3.202   6.064 -0.1041 -0.1059 -0.0791
    1DIPC   D3B11435  24.106   3.100   5.708  0.1055  0.1975 -0.2011
    1DIPC   C4B11436  23.763   3.061   5.386 -0.0940 -0.0997  0.0119
    1DIPC   NC311437  15.376  22.768   6.745 -0.0211  0.0158  0.1083
    1DIPC   PO411438  15.636  22.406   6.693 -0.0476 -0.1414  0.1610
    1DIPC   GL111439  15.710  22.483   6.385  0.1168 -0.1024 -0.0255
    1DIPC   GL211440  15.745  22.839   6.298 -0.0586 -0.1201  0.0703
    1DIPC   C1A11441  15.966  22.474   6.008 -0.4408 -0.1326 -0.0921
    1DIPC   D2A11442  16.265  22.377   5.645  0.1699 -0.0537 -0.0743
    1DIPC   D3A11443  16.677  22.272   5.488  0.1694  0.2133  0.3084
    1DIPC   C4A11444  16.872  21.863   5.283 -0.1245 -0.0731  0.3172
    1DIPC   C1B11445  16.203  22.816   6.392  0.0077  0.0201 -0.0493
    1DIPC   D2B11446  16.693  23.011   6.243  0.1915 -0.2391  0.0371
    1DIPC   D3B11447  16.485  22.700   5.955 -0.0974 -0.2350 -0.2128
    1DIPC   C4B11448  16.503  22.837   5.461  0.0705 -0.2274 -0.2602
    1DIPC   NC311449   6.395   6.207   5.910 -0.0712  0.0190  0.2723
    1DIPC   PO411450   6.606   6.520   5.912 -0.1253 -0.5074 -0.3161
    1DIPC   GL111451   6.740   6.564   5.505  0.0590  0.0586 -0.1484
    1DIPC   GL211452   7.015   6.749   5.388  0.2909  0.0824 -0.0932
    1DIPC   C1A11453   6.665   6.315   5.229  0.2390  0.2517  0.1007
    1DIPC   D2A11454   6.357   6.219   4.796  0.0085  0.3140 -0.2913
    1DIPC   D3A11455   6.290   6.377   4.356 -0.0295 -0.0838  0.0180
    1DIPC   C4A11456   5.835   6.374   4.212  0.1825 -0.4773  0.1667
    1DIPC   C1B11457   7.360   6.964   5.400 -0.2937 -0.3091 -0.3323
    1DIPC   D2B11458   7.805   6.835   5.548  0.1195 -0.1569  0.0212
    1DIPC   D3B11459   7.967   7.197   5.366  0.3518 -0.1588 -0.3257
    1DIPC   C4B11460   8.370   7.394   5.283  0.0628 -0.2665 -0.0414
    1DIPC   NC311461  11.529  14.905   6.273  0.3806  0.1890 -0.4527
    1DIPC   PO411462  11.243  14.582   6.175  0.0762  0.0142  0.1165
    1DIPC   GL111463  11.243  14.663   5.859  0.2448  0.1261  0.1953
    1DIPC   GL211464  11.046  14.657   5.663  0.0332 -0.0716  0.0094
    1DIPC   C1A11465  11.510  14.686   5.454 -0.1630  0.1570  0.0974
    1DIPC   D2A11466  11.804  14.739   5.044  0.1013 -0.0160 -0.0115
    1DIPC   D3A11467  12.234  14.854   4.994  0.1464 -0.0053 -0.2001
    1DIPC   C4A11468  12.468  14.533   4.595  0.1215 -0.0874  0.1104
    1DIPC   C1B11469  11.054  15.033   5.477  0.0975 -0.0202  0.1883
    1DIPC   D2B11470  10.887  15.121   5.132  0.0885 -0.0375  0.0030
    1DIPC   D3B11471  10.793  14.875   4.823  0.2065 -0.1466  0.1604
    1DIPC   C4B11472  10.398  14.935   4.558  0.1865  0.0918 -0.1420
    1DIPC   NC311473  19.392  18.378   7.636  0.0820  0.0216 -0.2619
    1DIPC   PO411474  19.127  18.059   7.465  0.0488  0.3221  0.2185
    1DIPC   GL111475  19.232  18.079   6.995  0.0363  0.1401 -0.0409
    1DIPC   GL211476  19.452  18.370   6.846  0.0387 -0.2051 -0.0856
    1DIPC   C1A11477  19.302  17.876   6.589 -0.0164 -0.1347  0.4570
    1DIPC   D2A11478  19.582  17.666   6.259 -0.2620 -0.0971  0.2194
    1DIPC   D3A11479  19.474  18.096   6.020  0.0740  0.0553 -0.3364
    1DIPC   C4A11480  19.371  18.180   5.633 -0.3448 -0.0540 -0.0954
    1DIPC   C1B11481  19.280  18.348   6.457  0.1492  0.2684  0.0521
    1DIPC   D2B11482  19.169  18.547   6.117 -0.1353 -0.2998  0.0176
    1DIPC   D3B11483  18.739  18.343   6.299  0.1605  0.1566  0.0717
    1DIPC   C4B11484  18.525  17.911   6.184  0.0395 -0.2878  0.1462
    1DIPC   NC311485  26.266  26.201   7.122 -0.0428  0.2297  0.1656
    1DIPC   PO411486  26.804  26.135   7.028  0.0979  0.0916  0.0742
    1DIPC   GL111487  26.660  26.030   6.598 -0.0265 -0.0978 -0.0498
    1DIPC   GL211488  26.319  26.065   6.609 -0.0121  0.0530  0.2129
    1DIPC   C1A11489  26.568  26.103   6.184  0.1060 -0.0703  0.2064
    1DIPC   D2A11490  26.708  26.325   5.739  0.0862 -0.1505 -0.0358
    1DIPC   D3A11491  26.466  26.718   5.449 -0.0782 -0.2648 -0.2191
    1DIPC   C4A11492  26.203  27.000   5.524  0.0598 -0.1547 -0.0919
    1DIPC   C1B11493  26.137  26.366   6.336 -0.0481  0.2236 -0.1373
    1DIPC   D2B11494  25.784  26.352   6.074 -0.1466 -0.0144  0.0442
    1DIPC   D3B11495  25.571  26.018   5.816 -0.1131 -0.4624 -0.4382
    1DIPC   C4B11496  25.549  25.781   5.462  0.1556 -0.1249  0.0859
    1DIPC   NC311497  22.277  21.195   7.318  0.2376 -0.4029 -0.0338
    1DIPC   PO411498  22.349  20.774   7.231 -0.2750  0.1122 -0.1638
    1DIPC   GL111499  22.164  20.951   6.858 -0.4509  0.0191  0.6028
    1DIPC   GL211500  22.317  20.809   6.565  0.0795 -0.0505 -0.2155
    1DIPC   C1A11501  21.983  21.155   6.535  0.3696 -0.1206  0.0033
    1DIPC   D2A11502  21.840  21.483   6.323 -0.3391  0.0042 -0.3303
    1DIPC   D3A11503  21.819  21.536   5.844 -0.0601  0.1745 -0.1382
    1DIPC   C4A11504  21.633  21.793   5.573  0.2350 -0.2529  0.0829
    1DIPC   C1B11505  22.192  20.752   6.080  0.1442  0.0092 -0.0312
    1DIPC   D2B11506  22.044  20.775   5.629 -0.0245  0.1883 -0.4097
    1DIPC   D3B11507  22.469  20.882   5.655 -0.0472 -0.0822 -0.1975
    1DIPC   C4B11508  22.775  20.925   5.401  0.1962 -0.2899 -0.3574
    1DIPC   NC311509  12.202  16.435   6.008  0.1655 -0.1764  0.2012
    1DIPC   PO411510  11.957  16.804   6.061  0.1072  0.1042 -0.0375
    1DIPC   GL111511  11.824  16.614   5.669 -0.3583  0.1070  0.0221
    1DIPC   GL211512  12.071  16.726   5.549  0.0450 -0.1513 -0.0948
    1DIPC   C1A11513  11.692  16.491   5.170 -0.0590 -0.1375  0.0584
    1DIPC   D2A11514  11.695  16.518   4.760 -0.3277 -0.0690 -0.1239
    1DIPC   D3A11515  11.822  16.938   4.576 -0.2509 -0.1256 -0.1720
    1DIPC   C4A11516  11.494  17.245   4.441  0.0484  0.0821  0.3284
    1DIPC   C1B11517  12.519  16.877   5.435  0.1508  0.3006 -0.3162
    1DIPC   D2B11518  12.963  16.886   5.465 -0.5608  0.1623 -0.0886
    1DIPC   D3B11519  13.017  16.982   5.095 -0.0965  0.3005 -0.1963
    1DIPC   C4B11520  12.893  16.801   4.658  0.3748  0.1862  0.0870
    1DIPC   NC311521  21.736   3.231   7.296  0.1831  0.5119 -0.0356
    1DIPC   PO411522  21.336   3.458   7.097  0.1180  0.0236  0.0458
    1DIPC   GL111523  21.525   3.372   6.718 -0.0751 -0.1301 -0.1935
    1DIPC   GL211524  21.899   3.388   6.611  0.1119  0.2599 -0.0881
    1DIPC   C1A11525  21.452   3.224   6.340 -0.1107  0.3826  0.0723
    1DIPC   D2A11526  21.471   3.049   5.911  0.0703  0.0095  0.2496
    1DIPC   D3A11527  21.384   2.927   5.438  0.0189  0.1393  0.1207
    1DIPC   C4A11528  21.086   2.764   5.250  0.0896 -0.0800  0.4066
    1DIPC   C1B11529  21.910   3.318   6.178 -0.1341  0.1199  0.4313
    1DIPC   D2B11530  22.239   3.263   5.815  0.1396 -0.0038 -0.1506
    1DIPC   D3B11531  22.521   3.458   5.560  0.2375  0.0575  0.3177
    1DIPC   C4B11532  22.470   3.871   5.420 -0.1002 -0.0278 -0.2408
    1DIPC   NC311533  12.302   9.746   6.816  0.0644 -0.3313 -0.2626
    1DIPC   PO411534  12.552  10.050   6.517 -0.0124  0.0482  0.1810
    1DIPC   GL111535  12.579  10.046   6.097  0.1963 -0.0269 -0.3572
    1DIPC   GL211536  12.713  10.386   6.037  0.2058  0.0073 -0.0360
    1DIPC   C1A11537  12.568   9.665   5.837  0.3427  0.3096  0.3283
    1DIPC   D2A11538  12.401   9.665   5.392  0.0591  0.1313 -0.0563
    1DIPC   D3A11539  12.331   9.285   4.974 -0.1807 -0.0465  0.1680
    1DIPC   C4A11540  12.184   9.438   4.686 -0.0976 -0.3329 -0.1353
    1DIPC   C1B11541  12.903  10.300   5.727  0.2560  0.1041 -0.0178
    1DIPC   D2B11542  13.055  10.484   5.230  0.2153  0.0852  0.4048
    1DIPC   D3B11543  12.853  10.694   4.983 -0.1132  0.1244  0.0914
    1DIPC   C4B11544  12.644  10.445   4.636 -0.4317 -0.2391 -0.2035
    1DIPC   NC311545  23.531   1.599   7.026 -0.1833 -0.0035  0.1385
    1DIPC   PO411546  24.028   1.502   7.087  0.0807 -0.2827 -0.2139
    1DIPC   GL111547  24.343   1.599   6.783 -0.0640  0.2603 -0.2134
    1DIPC   GL211548  24.398   1.941   6.620 -0.0038 -0.0123 -0.2531
    1DIPC   C1A11549  24.790   1.574   6.503  0.0986  0.1320  0.1163
    1DIPC   D2A11550  24.882   1.968   6.250 -0.0318 -0.0936  0.0336
    1DIPC   D3A11551  25.110   2.360   6.158 -0.0112  0.1008  0.1303
    1DIPC   C4A11552  24.911   2.645   5.800 -0.1624  0.1749 -0.1785
    1DIPC   C1B11553  24.376   2.335   6.418  0.1572  0.0566  0.0117
    1DIPC   D2B11554  24.437   2.243   5.957  0.1695 -0.1755  0.1477
    1DIPC   D3B11555  24.165   2.266   5.668 -0.0770  0.0629  0.0542
    1DIPC   C4B11556  23.782   2.578   5.803  0.1460 -0.1464  0.0679
    1DIPC   NC311557   7.750  26.885   5.949  0.2236 -0.3620  0.2910
    1DIPC   PO411558   7.364  26.884   5.948 -0.0221 -0.0144  0.0309
    1DIPC   GL111559   7.283  26.684   5.582 -0.1512 -0.0241 -0.1595
    1DIPC   GL211560   7.297  26.431   5.459 -0.1552  0.0590  0.0237
    1DIPC   C1A11561   7.056  26.810   5.189  0.2944 -0.1377  0.4352
    1DIPC   D2A11562   6.750  26.939   4.896 -0.0521  0.2081  0.1727
    1DIPC   D3A11563   7.184  27.027   4.801  0.2045  0.1049  0.2963
    1DIPC   C4A11564   7.579  26.992   5.117  0.2041  0.0199 -0.3233
    1DIPC   C1B11565   7.585  26.481   5.057  0.1185  0.1185 -0.1848
    1DIPC   D2B11566   7.695  26.147   4.864 -0.0276  0.0299  0.0589
    1DIPC   D3B11567   7.978  26.404   4.600  0.0050  0.0312  0.0753
    1DIPC   C4B11568   7.903  26.620   4.142 -0.1198  0.3714 -0.1969
    1DIPC   NC311569   4.438  24.471   7.528  0.0968  0.1836  0.0816
    1DIPC   PO411570   4.686  24.425   7.204  0.0584  0.1148 -0.1325
    1DIPC   GL111571   4.767  24.307   6.749  0.0143  0.1682 -0.1280
    1DIPC   GL211572   4.785  23.964   6.593  0.2334  0.0181 -0.0914
    1DIPC   C1A11573   4.582  24.384   6.367 -0.0774  0.2825  0.0595
    1DIPC   D2A11574   4.719  24.453   5.975 -0.0867 -0.2239 -0.2829
    1DIPC   D3A11575   4.895  23.989   5.805 -0.5258 -0.1455  0.0151
    1DIPC   C4A11576   4.775  23.845   5.452 -0.2431 -0.0575  0.0131
    1DIPC   C1B11577   4.769  23.640   6.280  0.1617 -0.1055  0.0280
    1DIPC   D2B11578   5.104  23.261   6.143 -0.0198 -0.1124  0.0221
    1DIPC   D3B11579   4.987  23.518   5.826  0.0073 -0.0516  0.3436
    1DIPC   C4B11580   5.158  23.495   5.469  0.2667  0.0570  0.0963
    1DIPC   NC311581  12.749  22.877   6.375 -0.0704 -0.0684  0.1012
    1DIPC   PO411582  12.687  23.285   6.076 -0.4668  0.2231 -0.0492
    1DIPC   GL111583  12.657  23.281   5.682 -0.0573  0.1754 -0.3407
    1DIPC   GL211584  12.592  23.621   5.619 -0.1904  0.1627 -0.1325
    1DIPC   C1A11585  13.038  23.214   5.434 -0.0665  0.2189  0.1809
    1DIPC   D2A11586  13.115  23.368   4.981 -0.0240  0.3040 -0.1701
    1DIPC   D3A11587  13.204  23.587   4.630 -0.4270 -0.3407 -0.1433
    1DIPC   C4A11588  13.549  23.642   4.730  0.0593 -0.1646  0.1998
    1DIPC   C1B11589  12.435  23.884   5.333 -0.3422 -0.1271  0.3771
    1DIPC   D2B11590  12.251  23.891   4.921 -0.2291  0.1569 -0.1454
    1DIPC   D3B11591  11.970  24.118   4.566 -0.1486  0.3572  0.2057
    1DIPC   C4B11592  11.594  24.242   4.665  0.0380 -0.0076 -0.0700
    1DIPC   NC311593   4.594  28.591   6.515  0.1410 -0.0701  0.0602
    1DIPC   PO411594   4.995  28.807   6.580 -0.1030  0.0479  0.1178
    1DIPC   GL111595   4.846  28.717   6.093  0.2102 -0.1845  0.2217
    1DIPC   GL211596   4.635  28.909   6.009 -0.0446  0.0845  0.1297
    1DIPC   C1A11597   4.756  28.577   5.678  0.0818 -0.4081 -0.2236
    1DIPC   D2A11598   4.562  28.410   5.349  0.1586  0.0541 -0.0377
    1DIPC   D3A11599   4.506  28.646   4.930  0.0936 -0.0298  0.1871
    1DIPC   C4A11600   4.729  29.035   4.813 -0.1086  0.2776 -0.0892
    1DIPC   C1B11601   4.811  29.214   5.722 -0.2807  0.1284 -0.0408
    1DIPC   D2B11602   4.961  29.470   5.524 -0.0042  0.2609  0.0522
    1DIPC   D3B11603   5.044  29.327   5.112 -0.0548  0.1514  0.1705
    1DIPC   C4B11604   4.955   0.105   4.827 -0.1676  0.1501  0.0707
    1DIPC   NC311605  23.898  21.642   7.247  0.1678 -0.2086 -0.0631
    1DIPC   PO411606  24.368  21.657   7.119 -0.1091 -0.1126  0.2038
    1DIPC   GL111607  24.628  21.758   6.751 -0.0791 -0.2339  0.0658
    1DIPC   GL211608  24.730  21.532   6.662 -0.3391  0.0907 -0.0003
    1DIPC   C1A11609  24.749  22.110   6.406 -0.1928 -0.0753 -0.4450
    1DIPC   D2A11610  24.573  22.514   6.129 -0.2024 -0.1329 -0.1187
    1DIPC   D3A11611  24.123  22.491   6.043  0.0613  0.1234  0.1440
    1DIPC   C4A11612  23.794  22.293   6.024 -0.0624  0.0203  0.0453
    1DIPC   C1B11613  24.871  21.680   6.273  0.1259  0.1276  0.2158
    1DIPC   D2B11614  24.845  21.763   5.818 -0.1997  0.1550  0.2663
    1DIPC   D3B11615  24.672  22.096   5.900  0.0083 -0.0026  0.0431
    1DIPC   C4B11616  24.830  22.552   5.718  0.1993 -0.0223  0.2193
    1DIPC   NC311617  22.213  23.526   7.799  0.2393 -0.1645 -0.0709
    1DIPC   PO411618  21.793  23.544   7.614 -0.0669  0.3124 -0.0903
    1DIPC   GL111619  22.098  23.708   7.302  0.1712  0.2411 -0.1961
    1DIPC   GL211620  21.964  23.846   6.871 -0.0414 -0.1167  0.2986
    1DIPC   C1A11621  22.465  23.665   7.072 -0.1114  0.0977  0.1548
    1DIPC   D2A11622  22.707  23.769   6.757 -0.1028  0.1022  0.3565
    1DIPC   D3A11623  22.874  23.762   6.253 -0.1444 -0.1319  0.1041
    1DIPC   C4A11624  22.552  23.588   5.907 -0.1531  0.0047 -0.2362
    1DIPC   C1B11625  21.805  24.017   6.510 -0.2878 -0.1368  0.0339
    1DIPC   D2B11626  21.762  23.982   6.136  0.0801 -0.1820  0.4685
    1DIPC   D3B11627  22.024  23.828   5.822  0.2043  0.0776 -0.0079
    1DIPC   C4B11628  22.124  24.148   5.559  0.0309  0.3567 -0.1180
    1DIPC   NC311629   6.533  25.632   7.007  0.0286  0.0576 -0.3904
    1DIPC   PO411630   6.672  25.586   6.568 -0.0598  0.3030  0.1548
    1DIPC   GL111631   6.502  25.461   6.167 -0.3644 -0.1345  0.0183
    1DIPC   GL211632   6.311  25.160   6.132 -0.1516 -0.0613 -0.0811
    1DIPC   C1A11633   6.329  25.720   5.845  0.0273 -0.4195  0.0626
    1DIPC   D2A11634   5.873  25.814   5.771 -0.0547  0.3371  0.0479
    1DIPC   D3A11635   5.524  25.699   5.527 -0.1743 -0.1487  0.4787
    1DIPC   C4A11636   5.565  25.816   5.098  0.1446 -0.0323 -0.0572
    1DIPC   C1B11637   6.079  25.307   5.770 -0.3217  0.1144  0.0204
    1DIPC   D2B11638   6.129  25.499   5.390  0.3898  0.1711 -0.0603
    1DIPC   D3B11639   5.991  25.562   5.069  0.0045  0.0749  0.0620
    1DIPC   C4B11640   5.620  25.320   4.762  0.0703 -0.1974  0.0125
    1DIPC   NC311641  21.983  24.852   7.271 -0.2171  0.2158  0.3041
    1DIPC   PO411642  21.582  24.838   7.322 -0.3473 -0.0984 -0.0718
    1DIPC   GL111643  21.653  25.208   7.054  0.0434 -0.2871 -0.0714
    1DIPC   GL211644  21.727  25.561   7.187 -0.1793  0.1157  0.0537
    1DIPC   C1A11645  21.961  25.224   6.585  0.1208  0.0246 -0.0518
    1DIPC   D2A11646  21.783  25.022   6.122 -0.0780  0.1564 -0.0790
    1DIPC   D3A11647  21.556  25.366   5.963 -0.2925  0.0772  0.0872
    1DIPC   C4A11648  21.598  25.639   5.538  0.0507 -0.2027  0.3573
    1DIPC   C1B11649  21.629  25.625   6.766  0.0539  0.0712  0.2377
    1DIPC   D2B11650  21.467  25.708   6.447  0.4814 -0.0515 -0.2517
    1DIPC   D3B11651  21.005  25.562   6.202 -0.0399 -0.1179 -0.0018
    1DIPC   C4B11652  21.114  25.460   5.801  0.0218 -0.2626  0.1325
    1DIPC   NC311653   4.420   1.801   6.620 -0.0904  0.0395 -0.2516
    1DIPC   PO411654   4.272   1.990   6.218  0.0432 -0.1268  0.2283
    1DIPC   GL111655   4.244   1.962   5.763 -0.2126 -0.1054 -0.0251
    1DIPC   GL211656   4.030   2.239   5.699  0.1899 -0.2861  0.2230
    1DIPC   C1A11657   4.233   1.921   5.424 -0.0132  0.0520  0.2765
    1DIPC   D2A11658   4.315   1.569   5.125  0.1434 -0.0651 -0.0134
    1DIPC   D3A11659   4.551   1.890   4.772 -0.1209  0.2249 -0.1587
    1DIPC   C4A11660   4.483   2.440   4.725  0.0100 -0.2874 -0.0259
    1DIPC   C1B11661   4.230   2.432   5.406  0.4056  0.1307 -0.1520
    1DIPC   D2B11662   4.525   2.298   5.275 -0.0077 -0.1729  0.0238
    1DIPC   D3B11663   4.168   2.179   4.996  0.1955 -0.0236  0.1376
    1DIPC   C4B11664   3.967   2.187   4.617  0.1611  0.2575  0.1182
    1DIPC   NC311665  22.966   0.524   7.465  0.1232 -0.1499 -0.1398
    1DIPC   PO411666  22.715   0.741   7.158  0.1613  0.0881  0.3062
    1DIPC   GL111667  22.405   0.826   6.768  0.1572  0.0351  0.0163
    1DIPC   GL211668  22.669   0.872   6.529  0.0254  0.0919 -0.1000
    1DIPC   C1A11669  22.181   0.616   6.456 -0.0808 -0.0141 -0.0084
    1DIPC   D2A11670  22.067   0.558   6.059  0.0938 -0.0383 -0.0637
    1DIPC   D3A11671  21.778   0.480   5.792  0.2007  0.2184 -0.1719
    1DIPC   C4A11672  21.831   0.112   5.420  0.3072  0.1243  0.0831
    1DIPC   C1B11673  22.644   0.686   6.173  0.0390 -0.1170  0.2943
    1DIPC   D2B11674  22.463   0.448   5.797 -0.1398  0.1894  0.1822
    1DIPC   D3B11675  22.182   0.115   5.898 -0.0147 -0.1299  0.4091
    1DIPC   C4B11676  21.879   0.151   6.291 -0.1404  0.1283 -0.2569
    1DIPC   NC311677  25.979   3.146   7.410 -0.1562 -0.1310  0.0635
    1DIPC   PO411678  25.890   3.048   7.093  0.0435 -0.0701  0.0161
    1DIPC   GL111679  25.623   2.936   6.763  0.1355 -0.2113 -0.0750
    1DIPC   GL211680  25.745   2.959   6.430  0.0978  0.2699 -0.1228
    1DIPC   C1A11681  25.271   3.146   6.493  0.0152 -0.0824  0.1171
    1DIPC   D2A11682  25.046   2.994   6.166 -0.2004  0.1276  0.2783
    1DIPC   D3A11683  25.415   2.848   5.928 -0.0320 -0.0699  0.3704
    1DIPC   C4A11684  25.588   2.411   6.050 -0.2261  0.1245  0.3795
    1DIPC   C1B11685  25.431   2.591   6.454 -0.0017 -0.0458  0.0014
    1DIPC   D2B11686  25.516   2.064   6.421  0.2560 -0.3183 -0.2323
    1DIPC   D3B11687  25.265   1.980   6.697  0.2695 -0.1476 -0.0998
    1DIPC   C4B11688  24.886   2.104   6.782  0.3707 -0.1778  0.0280
    1DIPC   NC311689   7.103  20.996   6.995  0.2307  0.1282  0.1379
    1DIPC   PO411690   6.715  20.994   6.719  0.2246  0.0777 -0.3093
    1DIPC   GL111691   6.465  21.100   6.427  0.2024 -0.1322  0.2419
    1DIPC   GL211692   6.702  21.185   6.193  0.0792  0.1593  0.3888
    1DIPC   C1A11693   6.265  21.111   5.980 -0.0911  0.0428  0.2344
    1DIPC   D2A11694   6.305  20.936   5.611  0.0416  0.1737  0.2576
    1DIPC   D3A11695   5.941  20.607   5.623 -0.0517 -0.0355 -0.0430
    1DIPC   C4A11696   5.764  20.565   5.982  0.2822  0.3815 -0.2284
    1DIPC   C1B11697   6.713  21.205   5.737 -0.1017 -0.2059 -0.3152
    1DIPC   D2B11698   6.608  21.194   5.316  0.2650 -0.3256 -0.0251
    1DIPC   D3B11699   6.668  21.528   5.064  0.2937  0.1142 -0.1444
    1DIPC   C4B11700   7.085  21.545   5.001  0.0206 -0.1853  0.2209
    1DIPC   NC311701  27.938   4.405   6.588  0.2147  0.2410 -0.2541
    1DIPC   PO411702  28.050   4.606   6.277  0.0570  0.0634 -0.1075
    1DIPC   GL111703  27.778   4.519   5.881 -0.0026 -0.1538 -0.0519
    1DIPC   GL211704  27.628   4.769   5.886  0.0249 -0.3130 -0.0746
    1DIPC   C1A11705  27.678   4.509   5.351  0.0373 -0.0993 -0.1382
    1DIPC   D2A11706  27.353   4.438   5.214 -0.3981  0.0314  0.3454
    1DIPC   D3A11707  27.181   4.564   5.638 -0.0294 -0.2464 -0.0954
    1DIPC   C4A11708  26.936   4.832   5.555  0.1446 -0.0370  0.4095
    1DIPC   C1B11709  27.906   4.890   5.561 -0.3050  0.0235 -0.0292
    1DIPC   D2B11710  27.812   5.255   5.279  0.2459  0.0888  0.2499
    1DIPC   D3B11711  27.810   5.137   4.916 -0.1142  0.0329  0.1253
    1DIPC   C4B11712  27.718   4.673   4.882  0.1694  0.2703  0.3023
    1DIPC   NC311713   3.490   6.644   5.959  0.0688 -0.2607  0.1480
    1DIPC   PO411714   3.053   6.611   5.907  0.2588 -0.1050  0.0432
    1DIPC   GL111715   3.123   6.545   5.515  0.0630  0.2985  0.2918
    1DIPC   GL211716   2.975   6.184   5.394  0.0428  0.2187  0.1283
    1DIPC   C1A11717   3.410   6.401   5.184  0.2251  0.2200  0.0049
    1DIPC   D2A11718   3.816   6.451   5.018 -0.1210  0.0933  0.2147
    1DIPC   D3A11719   4.013   6.464   4.704  0.1152 -0.3548 -0.2316
    1DIPC   C4A11720   4.120   6.890   4.478 -0.1992  0.0680 -0.0381
    1DIPC   C1B11721   2.741   6.362   5.066 -0.2073  0.0169 -0.2413
    1DIPC   D2B11722   2.658   6.660   4.708  0.0404 -0.3000 -0.0389
    1DIPC   D3B11723   2.863   7.075   4.525 -0.1192  0.3911  0.0586
    1DIPC   C4B11724   2.546   7.242   4.150  0.0893  0.0137 -0.0341
    1DIPC   NC311725   7.012  17.869   6.415  0.1101 -0.1590  0.2578
    1DIPC   PO411726   7.217  18.302   6.346  0.1097 -0.1923  0.2249
    1DIPC   GL111727   6.870  18.290   6.167  0.0757  0.0186  0.0448
    1DIPC   GL211728   6.759  18.088   6.003  0.0549  0.1894 -0.1620
    1DIPC   C1A11729   6.615  18.603   5.920 -0.2810  0.4353  0.0802
    1DIPC   D2A11730   6.862  18.939   5.683  0.1188 -0.2141 -0.2820
    1DIPC   D3A11731   6.703  19.292   5.518 -0.3672  0.3196 -0.0619
    1DIPC   C4A11732   6.366  19.480   5.641 -0.1274  0.1174  0.2816
    1DIPC   C1B11733   6.625  18.187   5.535 -0.1437 -0.0386 -0.2833
    1DIPC   D2B11734   6.622  17.942   5.210 -0.4189  0.0011 -0.1604
    1DIPC   D3B11735   6.695  18.217   4.842  0.2237  0.1657  0.0963
    1DIPC   C4B11736   6.306  18.370   4.646  0.2880 -0.4239 -0.1731
    1DIPC   NC311737   6.255  20.745   6.707  0.1203  0.0707 -0.0808
    1DIPC   PO411738   6.340  20.308   6.587  0.0178 -0.1248  0.4229
    1DIPC   GL111739   6.016  20.188   6.444  0.0672  0.0290  0.2452
    1DIPC   GL211740   5.686  20.356   6.465  0.2573  0.0425  0.2219
    1DIPC   C1A11741   5.987  20.022   5.928 -0.2246  0.1451 -0.0827
    1DIPC   D2A11742   5.936  19.729   5.572 -0.0623 -0.0887  0.2284
    1DIPC   D3A11743   6.217  19.702   5.211 -0.0825 -0.0701  0.1652
    1DIPC   C4A11744   6.438  19.383   5.098 -0.1635 -0.0663  0.0908
    1DIPC   C1B11745   5.573  20.128   6.109  0.0270  0.1461 -0.0911
    1DIPC   D2B11746   5.668  20.160   5.634  0.1382 -0.1312  0.1248
    1DIPC   D3B11747   5.374  19.911   5.646 -0.0400 -0.1045  0.1621
    1DIPC   C4B11748   5.197  19.814   6.061  0.0855 -0.1309 -0.0442
    1DIPC   NC311749  12.404  14.056   6.613  0.0209 -0.0656  0.1625
    1DIPC   PO411750  12.327  13.687   6.396 -0.0073 -0.0806  0.0306
    1DIPC   GL111751  12.456  13.740   6.029 -0.4733 -0.1670 -0.5235
    1DIPC   GL211752  12.338  13.492   5.834 -0.4601  0.1511  0.0514
    1DIPC   C1A11753  12.674  14.061   5.738 -0.2241  0.0015  0.2028
    1DIPC   D2A11754  12.669  14.514   5.577  0.0392 -0.0176  0.0424
    1DIPC   D3A11755  13.121  14.547   5.419 -0.0546  0.1278 -0.0812
    1DIPC   C4A11756  13.186  14.649   4.878 -0.1666  0.1113  0.2688
    1DIPC   C1B11757  12.329  13.281   5.438  0.1093  0.0642  0.0008
    1DIPC   D2B11758  12.025  12.943   5.268  0.0649 -0.0679  0.1072
    1DIPC   D3B11759  12.314  12.742   5.066 -0.1950 -0.1114 -0.1538
    1DIPC   C4B11760  12.405  12.993   4.775 -0.1148 -0.3553 -0.2802
    1DIPC   NC311761   7.887   4.212   5.971 -0.0863 -0.2121  0.1393
    1DIPC   PO411762   7.468   4.436   5.847 -0.2212  0.0515 -0.0517
    1DIPC   GL111763   7.597   4.386   5.442 -0.1186  0.2914 -0.1079
    1DIPC   GL211764   7.757   4.678   5.393 -0.2051 -0.3682  0.2631
    1DIPC   C1A11765   7.503   4.290   5.041 -0.2098 -0.2057  0.2592
    1DIPC   D2A11766   7.477   3.935   4.849  0.1999 -0.0778  0.1885
    1DIPC   D3A11767   7.251   3.698   4.622 -0.0970  0.1586 -0.1136
    1DIPC   C4A11768   6.784   3.833   4.469 -0.1422 -0.2255  0.2079
    1DIPC   C1B11769   7.911   4.714   4.880  0.3411  0.2076 -0.2892
    1DIPC   D2B11770   8.143   4.670   4.437  0.0518 -0.3113 -0.1873
    1DIPC   D3B11771   8.447   4.901   4.521 -0.1880 -0.2014  0.2709
    1DIPC   C4B11772   8.903   4.703   4.530  0.0065 -0.1189 -0.0612
    1DIPC   NC311773   4.876  17.885   6.862 -0.0266 -0.3222 -0.1496
    1DIPC   PO411774   4.476  18.071   6.838  0.1252 -0.0785  0.0018
    1DIPC   GL111775   4.559  17.943   6.380 -0.2456 -0.1134 -0.4611
    1DIPC   GL211776   4.830  17.629   6.340 -0.0440  0.2437 -0.0271
    1DIPC   C1A11777   4.650  17.983   5.992  0.2988  0.1773  0.2289
    1DIPC   D2A11778   4.784  17.944   5.590 -0.0841 -0.0350 -0.1756
    1DIPC   D3A11779   4.616  17.825   5.281 -0.0696 -0.0538 -0.0528
    1DIPC   C4A11780   4.570  17.437   5.156 -0.0162  0.0131  0.0343
    1DIPC   C1B11781   5.074  17.584   6.015  0.2424 -0.0681 -0.0622
    1DIPC   D2B11782   5.263  17.625   5.667 -0.0334  0.0558  0.0060
    1DIPC   D3B11783   5.214  17.133   5.712 -0.1242 -0.1377  0.1524
    1DIPC   C4B11784   5.059  16.828   5.290 -0.3703  0.0754  0.2209
    1DIPC   NC311785  28.774  18.727   7.450  0.2008  0.0433  0.1121
    1DIPC   PO411786  28.527  19.054   7.420 -0.0147  0.2324  0.1735
    1DIPC   GL111787  28.491  18.984   7.062  0.0319  0.0974  0.2168
    1DIPC   GL211788  28.770  18.959   6.926  0.1864  0.1734 -0.1113
    1DIPC   C1A11789  28.284  18.770   6.772  0.0269  0.0754 -0.3275
    1DIPC   D2A11790  28.324  18.468   6.360 -0.0600 -0.0620  0.0066
    1DIPC   D3A11791  28.129  18.337   6.807 -0.0139 -0.0751 -0.3159
    1DIPC   C4A11792  27.751  18.509   6.845 -0.1677  0.0168 -0.0789
    1DIPC   C1B11793  28.704  19.047   6.521  0.0255  0.0362  0.1260
    1DIPC   D2B11794  28.342  19.091   6.324  0.1405  0.2901 -0.0463
    1DIPC   D3B11795  27.968  18.839   6.409 -0.1673  0.0138  0.2257
    1DIPC   C4B11796  27.664  18.966   6.770 -0.1725  0.1168  0.0884
    1DIPC   NC311797   0.347  23.556   6.948  0.0553  0.0677  0.3069
    1DIPC   PO411798   0.502  23.954   6.963 -0.0445  0.2774  0.1395
    1DIPC   GL111799   0.293  23.869   6.542  0.0678  0.0243  0.1078
    1DIPC   GL211800   0.206  24.120   6.272  0.2257  0.2651  0.1164
    1DIPC   C1A11801   0.102  23.658   6.181 -0.0192  0.1927  0.0841
    1DIPC   D2A11802   0.233  23.478   5.746  0.0648  0.0875 -0.0871
    1DIPC   D3A11803   0.050  22.938   5.687 -0.0143 -0.0955 -0.0896
    1DIPC   C4A11804  29.229  22.828   5.679 -0.1651  0.1506  0.1772
    1DIPC   C1B11805   0.438  23.969   5.830  0.0800  0.0668 -0.0474
    1DIPC   D2B11806   0.266  23.954   5.363  0.1295 -0.1411 -0.0093
    1DIPC   D3B11807   0.438  23.636   5.171  0.0597  0.3008 -0.3329
    1DIPC   C4B11808   0.446  23.291   5.340  0.1485 -0.0241  0.1374
    1DIPC   NC311809   6.007  19.731   6.801  0.0312  0.2590  0.0390
    1DIPC   PO411810   6.392  19.773   6.973 -0.3790  0.0295 -0.1808
    1DIPC   GL111811   6.361  19.810   6.472 -0.1462  0.0858 -0.1276
    1DIPC   GL211812   6.608  20.002   6.303 -0.0112  0.1892  0.1691
    1DIPC   C1A11813   6.171  19.628   6.118 -0.0277 -0.0031  0.0990
    1DIPC   D2A11814   6.011  19.222   5.887  0.2676 -0.1118  0.2456
    1DIPC   D3A11815   6.378  19.065   5.877 -0.1708  0.2343 -0.0415
    1DIPC   C4A11816   6.758  19.093   6.148 -0.1137 -0.2492  0.2473
    1DIPC   C1B11817   6.394  20.251   5.840  0.0308  0.0856 -0.0852
    1DIPC   D2B11818   6.360  20.131   5.458  0.4081 -0.0935  0.3615
    1DIPC   D3B11819   6.645  20.514   5.514  0.0359  0.2525 -0.3116
    1DIPC   C4B11820   6.643  20.698   5.983  0.4217 -0.2130  0.0265
    1DIPC   NC311821  29.213   0.183   6.650 -0.1497 -0.0105  0.0542
    1DIPC   PO411822  28.993  29.536   6.464 -0.0315  0.0052  0.3835
    1DIPC   GL111823  29.165  29.366   6.167  0.2138  0.0127 -0.0687
    1DIPC   GL211824  28.877  29.377   5.915  0.0605 -0.0628 -0.0352
    1DIPC   C1A11825  29.397  29.431   5.763  0.0803  0.1905  0.3936
    1DIPC   D2A11826  29.264  29.306   5.349 -0.1393 -0.2638 -0.0340
    1DIPC   D3A11827   0.099  29.315   5.298  0.0174 -0.2876 -0.1782
    1DIPC   C4A11828   0.294  29.457   4.878 -0.1294  0.1219  0.1239
    1DIPC   C1B11829  28.999  29.099   5.755 -0.0196  0.0544 -0.3270
    1DIPC   D2B11830  29.403  28.940   5.622  0.0745 -0.2566 -0.3060
    1DIPC   D3B11831  29.087  28.848   5.291  0.2029 -0.0954  0.2833
    1DIPC   C4B11832  28.980  28.436   5.319  0.2950  0.2951  0.2657
    1DIPC   NC311833  14.545   8.566   6.325 -0.0930  0.0644  0.1226
    1DIPC   PO411834  14.588   8.986   6.613 -0.2698 -0.1085 -0.4315
    1DIPC   GL111835  14.756   9.085   6.161  0.1327  0.1155  0.1473
    1DIPC   GL211836  14.764   8.843   5.906 -0.3921  0.0805  0.1823
    1DIPC   C1A11837  15.144   9.244   5.910 -0.0860 -0.3757 -0.0606
    1DIPC   D2A11838  15.539   9.191   5.599 -0.1121  0.0041 -0.1064
    1DIPC   D3A11839  15.671   9.337   5.207 -0.0265 -0.2334 -0.0988
    1DIPC   C4A11840  15.950   9.231   4.903  0.0086  0.0251 -0.0724
    1DIPC   C1B11841  14.686   8.955   5.419  0.2716  0.0350  0.1718
    1DIPC   D2B11842  14.398   8.759   5.149  0.0159 -0.0448  0.1793
    1DIPC   D3B11843  14.352   9.183   4.840  0.2224  0.0721  0.1203
    1DIPC   C4B11844  14.267   9.684   4.865 -0.0809 -0.1602  0.0470
    1DIPC   NC311845   4.509   8.230   5.704  0.3956 -0.2651  0.2374
    1DIPC   PO411846   5.030   8.079   5.654 -0.0171 -0.2162 -0.1281
    1DIPC   GL111847   5.124   7.997   5.258  0.0347  0.3055 -0.0120
    1DIPC   GL211848   5.403   7.737   5.117 -0.2448 -0.2547  0.0838
    1DIPC   C1A11849   4.982   7.999   4.797 -0.0416  0.1644 -0.0030
    1DIPC   D2A11850   5.124   8.188   4.464 -0.0347 -0.1550 -0.0752
    1DIPC   D3A11851   4.765   7.916   4.255 -0.2882 -0.0464  0.0522
    1DIPC   C4A11852   4.956   7.623   3.978 -0.1813  0.1285  0.0392
    1DIPC   C1B11853   5.585   8.104   4.937 -0.2455 -0.2158  0.0748
    1DIPC   D2B11854   5.825   8.411   4.819 -0.1434  0.0437  0.0079
    1DIPC   D3B11855   5.904   8.608   4.557  0.1150 -0.0372  0.0890
    1DIPC   C4B11856   5.745   8.619   4.140 -0.3081 -0.1221 -0.0415
    1DIPC   NC311857  18.004  16.956   7.517  0.1774 -0.1527 -0.1725
    1DIPC   PO411858  17.780  16.783   7.215 -0.1764  0.0603 -0.4269
    1DIPC   GL111859  17.830  17.006   6.848 -0.0072  0.0169 -0.1818
    1DIPC   GL211860  17.661  17.326   6.809 -0.1278 -0.1153  0.1939
    1DIPC   C1A11861  17.702  16.967   6.487 -0.3352  0.1289  0.1972
    1DIPC   D2A11862  17.704  17.009   6.043 -0.2171  0.0057 -0.2725
    1DIPC   D3A11863  17.474  17.424   6.012  0.0103  0.5290  0.0748
    1DIPC   C4A11864  17.221  17.503   6.361 -0.0097  0.0713  0.1492
    1DIPC   C1B11865  17.718  17.468   6.494 -0.2030 -0.0378  0.0981
    1DIPC   D2B11866  18.009  17.547   6.132 -0.1866  0.1743 -0.0264
    1DIPC   D3B11867  18.196  17.367   5.729 -0.1562  0.1942 -0.0270
    1DIPC   C4B11868  18.466  17.039   5.662 -0.0050 -0.1116 -0.2978
    1DIPC   NC311869   7.814  15.943   6.157  0.1077  0.0267 -0.0942
    1DIPC   PO411870   8.291  15.916   6.066 -0.0991 -0.0479 -0.3736
    1DIPC   GL111871   8.469  15.904   5.664  0.3023  0.1700 -0.0831
    1DIPC   GL211872   8.552  15.712   5.329  0.1755 -0.0069  0.0508
    1DIPC   C1A11873   8.181  15.970   5.336  0.0055  0.2273 -0.2582
    1DIPC   D2A11874   7.860  15.766   5.182  0.3081 -0.0532  0.0014
    1DIPC   D3A11875   7.445  15.982   5.433 -0.4122  0.0864  0.0284
    1DIPC   C4A11876   7.226  15.628   5.446 -0.1569 -0.0760 -0.1943
    1DIPC   C1B11877   8.705  15.625   4.897 -0.0209 -0.0557 -0.3941
    1DIPC   D2B11878   8.971  15.451   4.457  0.0809  0.1462 -0.1945
    1DIPC   D3B11879   8.614  15.194   4.192  0.2064  0.0871 -0.0988
    1DIPC   C4B11880   8.337  15.411   4.025  0.0694 -0.1619  0.3565
    1DIPC   NC311881  12.928  22.183   5.791  0.2885  0.3568  0.1167
    1DIPC   PO411882  13.242  22.417   6.077  0.0127  0.1465  0.0244
    1DIPC   GL111883  13.410  22.353   5.590  0.3953  0.1249 -0.1726
    1DIPC   GL211884  13.555  22.508   5.344 -0.2121 -0.0363 -0.1648
    1DIPC   C1A11885  13.166  22.207   5.222 -0.2761 -0.0987  0.2688
    1DIPC   D2A11886  13.254  22.168   4.772  0.2899 -0.1165 -0.0260
    1DIPC   D3A11887  13.060  21.842   4.666 -0.0419  0.1080  0.0512
    1DIPC   C4A11888  13.186  21.474   4.887  0.1379 -0.1155  0.2171
    1DIPC   C1B11889  13.891  22.219   5.086 -0.2625  0.2662 -0.0282
    1DIPC   D2B11890  13.900  22.418   4.649  0.0408  0.1054 -0.1961
    1DIPC   D3B11891  13.606  22.487   4.375 -0.0750 -0.1226 -0.2851
    1DIPC   C4B11892  13.447  22.035   4.278 -0.1244 -0.0480  0.0169
    1DIPC   NC311893   2.492  26.990   7.522 -0.4010 -0.3596  0.2490
    1DIPC   PO411894   2.389  27.234   7.083 -0.0591 -0.1132  0.0412
    1DIPC   GL111895   2.471  27.035   6.636  0.2366 -0.1057  0.4218
    1DIPC   GL211896   2.824  26.975   6.532 -0.1612 -0.2349  0.0815
    1DIPC   C1A11897   2.448  26.785   6.183  0.1066 -0.0023  0.0704
    1DIPC   D2A11898   2.573  26.679   5.830 -0.3318 -0.1869 -0.0646
    1DIPC   D3A11899   2.278  27.056   5.789 -0.0153  0.0685 -0.2079
    1DIPC   C4A11900   2.304  27.378   5.425 -0.3467 -0.0568 -0.1007
    1DIPC   C1B11901   2.887  27.046   6.160  0.1634  0.1809  0.0497
    1DIPC   D2B11902   3.148  26.910   5.827 -0.0957  0.1526 -0.0167
    1DIPC   D3B11903   2.998  26.893   5.393 -0.1776  0.0703  0.1238
    1DIPC   C4B11904   2.613  26.878   5.243 -0.0910 -0.4508 -0.2018
    1DIPC   NC311905   1.922  22.788   7.354 -0.0933 -0.2687  0.0024
    1DIPC   PO411906   2.126  23.055   6.949 -0.2455 -0.0288 -0.0519
    1DIPC   GL111907   2.164  23.028   6.498 -0.0072 -0.4204 -0.0831
    1DIPC   GL211908   2.307  22.738   6.483 -0.1760  0.0385  0.2468
    1DIPC   C1A11909   1.921  23.011   6.123 -0.2926  0.1360 -0.1431
    1DIPC   D2A11910   1.547  22.992   5.869 -0.1133  0.0469 -0.0846
    1DIPC   D3A11911   1.591  22.665   5.785 -0.1845 -0.1236 -0.0503
    1DIPC   C4A11912   1.250  22.303   5.700 -0.3454  0.0474  0.1717
    1DIPC   C1B11913   2.450  22.439   6.168  0.1475 -0.1689 -0.1967
    1DIPC   D2B11914   2.714  22.088   6.245 -0.1998  0.2354 -0.1859
    1DIPC   D3B11915   3.015  21.897   5.920 -0.0653 -0.0732 -0.1434
    1DIPC   C4B11916   3.124  21.514   6.047 -0.1345 -0.2538  0.4104
    1DIPC   NC311917   0.105  28.707   7.028 -0.1704 -0.1053 -0.1085
    1DIPC   PO411918   0.555  28.559   6.792  0.3817  0.0880  0.1241
    1DIPC   GL111919   0.591  28.784   6.413 -0.0181  0.2408  0.2555
    1DIPC   GL211920   0.839  28.720   6.333 -0.0497 -0.3119  0.0942
    1DIPC   C1A11921   0.297  28.657   6.104  0.1715  0.3437  0.3000
    1DIPC   D2A11922  29.588  28.430   5.957  0.1855  0.1741  0.0637
    1DIPC   D3A11923   0.263  28.159   5.841  0.0149 -0.0793 -0.4511
    1DIPC   C4A11924   0.655  28.229   5.659  0.2134 -0.0163 -0.0584
    1DIPC   C1B11925   1.052  28.449   5.910 -0.0877  0.0294  0.1681
    1DIPC   D2B11926   1.057  28.349   5.409 -0.3326  0.1434 -0.1769
    1DIPC   D3B11927   0.688  28.475   5.202  0.1926  0.0683  0.0973
    1DIPC   C4B11928   0.643  28.833   4.841 -0.0339  0.0926 -0.1241
    1DIPC   NC311929   9.113   2.087   5.939  0.0073  0.1912  0.4193
    1DIPC   PO411930   9.363   2.475   5.790 -0.0792  0.0911  0.1063
    1DIPC   GL111931   9.591   2.506   5.387  0.1201  0.1003  0.3821
    1DIPC   GL211932   9.385   2.272   5.185  0.1323 -0.2218  0.2070
    1DIPC   C1A11933   9.636   2.895   5.075 -0.1485  0.0156 -0.0596
    1DIPC   D2A11934   9.910   3.005   4.676 -0.1794  0.1496  0.3074
    1DIPC   D3A11935   9.607   2.846   4.269  0.0093  0.3088 -0.1788
    1DIPC   C4A11936   9.325   3.209   4.162 -0.0673 -0.0086 -0.3509
    1DIPC   C1B11937   9.480   1.801   5.169  0.2331 -0.3676 -0.1212
    1DIPC   D2B11938   9.268   1.432   5.305 -0.2069 -0.0833 -0.0197
    1DIPC   D3B11939   9.680   1.189   5.238  0.0551 -0.4235 -0.0929
    1DIPC   C4B11940   9.784   0.865   5.379  0.2037 -0.2078  0.2193
    1DIPC   NC311941  17.198  19.700   6.773 -0.0676 -0.0691  0.2318
    1DIPC   PO411942  17.215  20.028   6.782  0.0594 -0.0903  0.0055
    1DIPC   GL111943  17.245  20.023   6.375  0.2680  0.3773 -0.0629
    1DIPC   GL211944  17.004  19.976   6.122  0.2502  0.3265 -0.5524
    1DIPC   C1A11945  17.585  19.830   6.048 -0.0438  0.0626 -0.2094
    1DIPC   D2A11946  17.899  19.498   6.090  0.0556  0.4512  0.1968
    1DIPC   D3A11947  18.284  19.369   5.977 -0.0077 -0.0568  0.0145
    1DIPC   C4A11948  18.564  19.668   6.036 -0.1603  0.3379 -0.0471
    1DIPC   C1B11949  17.108  20.184   5.658 -0.0081  0.3061  0.1776
    1DIPC   D2B11950  17.019  20.465   5.314 -0.0867  0.4465  0.0628
    1DIPC   D3B11951  16.728  20.343   4.945 -0.2979  0.2019 -0.2080
    1DIPC   C4B11952  16.973  20.391   4.591  0.0913 -0.0063  0.1067
    1DIPC   NC311953  23.310  26.747   7.164 -0.0731 -0.0047  0.3126
    1DIPC   PO411954  22.998  26.407   7.143 -0.2090  0.2296  0.2442
    1DIPC   GL111955  23.280  26.494   6.771  0.0743 -0.0174 -0.1862
    1DIPC   GL211956  23.570  26.643   6.666  0.0112  0.4199  0.1303
    1DIPC   C1A11957  23.088  26.618   6.352 -0.3118 -0.1971  0.4249
    1DIPC   D2A11958  23.113  26.502   5.942 -0.1322  0.0827  0.0891
    1DIPC   D3A11959  22.941  26.351   5.519  0.0515  0.0348  0.1076
    1DIPC   C4A11960  22.830  25.886   5.462 -0.2748 -0.1149  0.0180
    1DIPC   C1B11961  23.573  26.452   6.140 -0.0261  0.3673 -0.1902
    1DIPC   D2B11962  23.607  26.525   5.707 -0.0203 -0.1131  0.1309
    1DIPC   D3B11963  23.793  26.045   5.732 -0.2423  0.0238  0.2363
    1DIPC   C4B11964  23.706  25.900   6.059 -0.0921  0.1177 -0.1957
    1DIPC   NC311965  10.178   3.916   5.928 -0.2103  0.0329 -0.1242
    1DIPC   PO411966   9.948   3.583   5.760 -0.1448  0.0885 -0.3094
    1DIPC   GL111967  10.164   3.536   5.419 -0.2155  0.1318  0.0020
    1DIPC   GL211968  10.483   3.500   5.418 -0.0919 -0.1632  0.1318
    1DIPC   C1A11969  10.183   3.706   5.040 -0.0039  0.3225  0.1449
    1DIPC   D2A11970  10.429   3.857   4.717 -0.3422  0.0840 -0.1906
    1DIPC   D3A11971  10.052   3.635   4.584 -0.1306  0.1423  0.3178
    1DIPC   C4A11972  10.050   3.810   4.216 -0.1872  0.6208  0.3065
    1DIPC   C1B11973  10.594   3.411   4.953 -0.0826 -0.0617  0.1748
    1DIPC   D2B11974  10.852   3.508   4.600  0.2736  0.0449  0.0130
    1DIPC   D3B11975  11.218   3.435   4.394  0.0049  0.1162  0.0829
    1DIPC   C4B11976  11.221   3.475   3.899 -0.2354 -0.2188  0.1327
    1DIPC   NC311977   0.696   0.876   6.060  0.1065 -0.2195  0.0338
    1DIPC   PO411978   0.786   0.575   6.398 -0.0896  0.3714 -0.0980
    1DIPC   GL111979   0.978   0.518   5.952  0.2794  0.1154  0.0915
    1DIPC   GL211980   1.298   0.525   5.840 -0.0775 -0.1510 -0.0941
    1DIPC   C1A11981   0.827   0.620   5.480 -0.4662  0.1187  0.1770
    1DIPC   D2A11982   1.208   0.823   5.258 -0.1402  0.0311  0.1779
    1DIPC   D3A11983   0.851   0.711   5.015 -0.0584 -0.2253  0.0842
    1DIPC   C4A11984   0.706   0.903   4.630 -0.0807 -0.3102 -0.1376
    1DIPC   C1B11985   1.245   0.328   5.435  0.2275  0.0644  0.0198
    1DIPC   D2B11986   1.115   0.261   4.975 -0.0158 -0.0856 -0.0316
    1DIPC   D3B11987   0.717   0.271   5.137  0.2032  0.1226  0.1604
    1DIPC   C4B11988   0.353   0.362   4.850  0.4464  0.1645  0.2308
    1DIPC   NC311989   8.390  25.732   6.270  0.2746  0.0574  0.1543
    1DIPC   PO411990   8.379  25.321   5.979 -0.2646  0.0778  0.1994
    1DIPC   GL111991   8.593  25.423   5.465 -0.0909 -0.1070 -0.1527
    1DIPC   GL211992   8.308  25.234   5.274  0.0272 -0.2124  0.2031
    1DIPC   C1A11993   8.760  25.335   5.014  0.1311  0.1777 -0.1771
    1DIPC   D2A11994   8.832  25.647   4.727  0.0678 -0.0642 -0.0234
    1DIPC   D3A11995   8.509  25.829   5.088  0.1121 -0.1375  0.0879
    1DIPC   C4A11996   8.027  25.713   5.093 -0.1480 -0.0348  0.0545
    1DIPC   C1B11997   8.358  25.241   4.806  0.1780  0.3720  0.1650
    1DIPC   D2B11998   8.663  25.232   4.463  0.0726  0.2488  0.0543
    1DIPC   D3B11999   8.729  24.931   4.689  0.2334  0.0908  0.2621
    1DIPC   C4B12000   8.337  24.777   4.978 -0.1662  0.0980  0.1399
    1DIPC   NC312001  17.596  23.712   7.226  0.4222  0.2018  0.2626
    1DIPC   PO412002  17.651  23.959   6.953  0.0200 -0.0629  0.2951
    1DIPC   GL112003  17.693  23.937   6.563 -0.0329  0.0936 -0.0955
    1DIPC   GL212004  17.858  24.170   6.505 -0.3416 -0.0788  0.0793
    1DIPC   C1A12005  17.594  23.977   6.102 -0.0096 -0.0783 -0.1255
    1DIPC   D2A12006  17.491  23.609   5.788  0.0686  0.0132 -0.4355
    1DIPC   D3A12007  17.248  23.849   5.609  0.0323 -0.2361  0.1404
    1DIPC   C4A12008  17.382  23.892   5.226  0.1417  0.2871 -0.2490
    1DIPC   C1B12009  17.977  24.281   6.071 -0.1210 -0.1994  0.1104
    1DIPC   D2B12010  18.127  24.336   5.592 -0.3615 -0.1516  0.0548
    1DIPC   D3B12011  17.759  23.981   5.636 -0.1303 -0.0716  0.5713
    1DIPC   C4B12012  17.824  23.676   5.360 -0.1851  0.0570  0.0495
    1DIPC   NC312013  14.377  27.191   6.494 -0.0962 -0.1547  0.1250
    1DIPC   PO412014  14.224  26.793   6.393  0.1293 -0.0659  0.0366
    1DIPC   GL112015  14.395  26.921   6.048  0.1225 -0.1785 -0.0267
    1DIPC   GL212016  14.135  26.879   5.838 -0.2305  0.4172 -0.1580
    1DIPC   C1A12017  14.555  27.121   5.759 -0.1373 -0.0407 -0.1432
    1DIPC   D2A12018  14.620  27.272   5.489  0.2033  0.1158  0.0706
    1DIPC   D3A12019  15.059  27.214   5.130 -0.0646 -0.1278 -0.0538
    1DIPC   C4A12020  15.122  27.396   4.821  0.2510  0.0492 -0.2371
    1DIPC   C1B12021  14.250  26.938   5.420  0.0418 -0.2408 -0.0382
    1DIPC   D2B12022  14.493  27.121   4.968  0.1145 -0.0420 -0.2150
    1DIPC   D3B12023  14.755  27.170   4.545  0.1135  0.0370  0.2368
    1DIPC   C4B12024  14.759  27.611   4.496  0.2673  0.1262 -0.0610
    1DIPC   NC312025  15.063   5.944   6.749 -0.0986 -0.0194  0.2194
    1DIPC   PO412026  15.380   5.739   6.571 -0.0757  0.2901  0.0350
    1DIPC   GL112027  15.347   5.582   6.152 -0.1139  0.1006 -0.1908
    1DIPC   GL212028  15.589   5.839   5.961  0.0043 -0.2691  0.0667
    1DIPC   C1A12029  15.274   5.664   5.633  0.1837 -0.1082 -0.1655
    1DIPC   D2A12030  15.518   5.741   5.229  0.0192 -0.0996 -0.0041
    1DIPC   D3A12031  15.609   6.120   5.002  0.3571 -0.2637  0.0077
    1DIPC   C4A12032  16.000   6.349   4.835 -0.0146 -0.1479  0.0686
    1DIPC   C1B12033  15.428   6.115   5.542 -0.3355  0.1234 -0.1287
    1DIPC   D2B12034  15.046   6.017   5.200  0.0882 -0.0537  0.2051
    1DIPC   D3B12035  15.210   5.937   4.769 -0.0266 -0.0072  0.1584
    1DIPC   C4B12036  15.149   5.578   4.477 -0.2104 -0.2824  0.5029
    1DIPC   NC312037  12.738  18.709   5.585  0.2170 -0.3407 -0.2013
    1DIPC   PO412038  12.679  19.114   5.495  0.2843  0.0227 -0.0840
    1DIPC   GL112039  12.671  18.981   5.055  0.0079 -0.0971  0.0763
    1DIPC   GL212040  12.764  18.578   5.036  0.1340  0.1682  0.1903
    1DIPC   C1A12041  12.514  18.888   4.716  0.0388  0.0392 -0.3650
    1DIPC   D2A12042  12.241  18.988   4.505 -0.1758  0.1141  0.1819
    1DIPC   D3A12043  12.198  18.504   4.454  0.0410 -0.1160  0.1431
    1DIPC   C4A12044  12.517  18.342   4.692  0.1278 -0.0545  0.2568
    1DIPC   C1B12045  12.252  18.620   4.998  0.1798 -0.0454  0.2367
    1DIPC   D2B12046  11.861  18.346   4.986 -0.1361 -0.4658 -0.0478
    1DIPC   D3B12047  12.015  18.095   4.765  0.2966 -0.0773  0.0090
    1DIPC   C4B12048  11.927  18.045   4.393  0.1274 -0.1405  0.1202
    1DIPC   NC312049   2.305  14.309   6.424 -0.2795  0.1525  0.1377
    1DIPC   PO412050   2.722  14.222   6.222 -0.3431 -0.0057  0.5909
    1DIPC   GL112051   2.526  14.358   5.889 -0.1096 -0.0067  0.0814
    1DIPC   GL212052   2.393  14.583   5.946  0.4941  0.2629 -0.2358
    1DIPC   C1A12053   2.529  14.221   5.537  0.1817  0.0128 -0.0876
    1DIPC   D2A12054   2.466  13.989   5.081 -0.0871 -0.1756  0.1447
    1DIPC   D3A12055   2.822  13.704   4.935 -0.0654 -0.0538 -0.2981
    1DIPC   C4A12056   2.926  13.736   4.559  0.0844 -0.2335 -0.1238
    1DIPC   C1B12057   2.254  14.703   5.595  0.0734  0.3945 -0.1445
    1DIPC   D2B12058   2.156  14.567   5.215 -0.2133 -0.0346  0.3132
    1DIPC   D3B12059   2.282  14.441   4.847  0.0592 -0.3101 -0.1595
    1DIPC   C4B12060   2.263  14.759   4.572 -0.2680 -0.1550  0.2314
    1DIPC   NC312061  24.492   3.405   7.094 -0.0055  0.0289  0.4621
    1DIPC   PO412062  24.966   3.451   7.062 -0.0435 -0.1487 -0.3022
    1DIPC   GL112063  24.822   3.383   6.711 -0.0183 -0.1697 -0.0243
    1DIPC   GL212064  24.498   3.666   6.666  0.1743 -0.0737  0.1624
    1DIPC   C1A12065  24.811   3.438   6.339 -0.1515 -0.1409 -0.1728
    1DIPC   D2A12066  24.744   3.418   5.925  0.2888 -0.1111  0.1021
    1DIPC   D3A12067  24.673   3.031   5.704 -0.3093 -0.2377 -0.0686
    1DIPC   C4A12068  24.428   2.706   5.743 -0.0718  0.1609  0.0056
    1DIPC   C1B12069  24.353   3.941   6.336 -0.0669  0.0163 -0.0478
    1DIPC   D2B12070  24.192   3.982   5.916  0.1196 -0.0098 -0.1791
    1DIPC   D3B12071  24.326   3.905   5.544 -0.0108 -0.0053  0.3092
    1DIPC   C4B12072  24.516   3.512   5.457  0.1357  0.0394  0.0455
    1DIPC   NC312073  14.300   4.917   6.527  0.1931 -0.2955 -0.3606
    1DIPC   PO412074  14.624   5.155   6.267 -0.0935 -0.0210  0.0384
    1DIPC   GL112075  14.977   5.261   6.065  0.1673 -0.2025  0.2836
    1DIPC   GL212076  14.848   5.502   5.933 -0.2527 -0.2025  0.1589
    1DIPC   C1A12077  15.276   5.192   5.747 -0.3720 -0.0266 -0.2481
    1DIPC   D2A12078  15.494   5.194   5.397 -0.1313 -0.1776  0.0674
    1DIPC   D3A12079  15.020   5.302   5.291 -0.0734  0.4247  0.3206
    1DIPC   C4A12080  14.981   5.230   4.803  0.0625  0.2898 -0.2241
    1DIPC   C1B12081  14.681   5.313   5.605  0.1154 -0.1730 -0.2008
    1DIPC   D2B12082  14.436   5.137   5.247 -0.0128  0.0424 -0.2592
    1DIPC   D3B12083  14.494   5.485   5.008  0.1020  0.2350  0.1114
    1DIPC   C4B12084  14.649   5.500   4.527 -0.1796  0.0941  0.2018
    1DIPC   NC312085   7.215  14.558   5.858  0.0155 -0.1652  0.0209
    1DIPC   PO412086   7.065  14.896   6.072 -0.1223  0.0638  0.0927
    1DIPC   GL112087   6.876  14.862   5.705  0.2034  0.2410  0.0808
    1DIPC   GL212088   6.521  14.943   5.737  0.0944 -0.0965 -0.1042
    1DIPC   C1A12089   6.707  14.791   5.277 -0.4069 -0.1183  0.1445
    1DIPC   D2A12090   6.266  14.987   5.118 -0.0885  0.0706 -0.0236
    1DIPC   D3A12091   6.326  15.090   4.717  0.1860  0.5587 -0.4017
    1DIPC   C4A12092   6.225  15.017   4.375 -0.2058  0.1890  0.2094
    1DIPC   C1B12093   6.762  15.268   5.498  0.1119  0.0775 -0.0084
    1DIPC   D2B12094   7.076  15.131   5.374 -0.3362  0.1439  0.0291
    1DIPC   D3B12095   6.786  15.181   4.998  0.1944 -0.0674 -0.0775
    1DIPC   C4B12096   6.942  15.234   4.628  0.0061 -0.0944  0.0664
    1DIPC   NC312097   2.696  26.277   7.063 -0.1787 -0.2843 -0.0910
    1DIPC   PO412098   3.195  26.377   7.105 -0.1022 -0.1535 -0.1488
    1DIPC   GL112099   3.228  25.996   6.648 -0.3228  0.1452  0.0219
    1DIPC   GL212100   3.546  25.846   6.545 -0.0260 -0.0169  0.1216
    1DIPC   C1A12101   2.932  26.058   6.245  0.0404 -0.2415  0.0781
    1DIPC   D2A12102   3.020  25.823   5.853 -0.0897  0.1232  0.1997
    1DIPC   D3A12103   2.981  26.055   5.442  0.0184 -0.1770  0.0944
    1DIPC   C4A12104   2.759  26.048   5.093  0.2285  0.0641  0.0238
    1DIPC   C1B12105   3.471  25.742   6.081 -0.0567 -0.0718 -0.2844
    1DIPC   D2B12106   3.529  25.775   5.692  0.1267  0.1781  0.1539
    1DIPC   D3B12107   3.298  25.324   5.848 -0.1165  0.3254  0.0335
    1DIPC   C4B12108   3.061  25.516   6.239  0.0229 -0.2770 -0.0169
    1DIPC   NC312109   9.047  20.936   6.429 -0.2750 -0.0945  0.0950
    1DIPC   PO412110   9.354  21.197   6.244  0.0922 -0.3428  0.0694
    1DIPC   GL112111   9.285  21.204   5.793  0.2154  0.0544 -0.0436
    1DIPC   GL212112   9.561  21.145   5.760 -0.1637 -0.1783  0.1011
    1DIPC   C1A12113   9.126  21.226   5.418 -0.5498 -0.1223 -0.1209
    1DIPC   D2A12114   9.269  21.266   4.984 -0.2448 -0.1225  0.3363
    1DIPC   D3A12115   9.312  21.736   4.851  0.2710 -0.2262 -0.1427
    1DIPC   C4A12116   9.428  21.883   4.473 -0.2054  0.1233  0.1007
    1DIPC   C1B12117   9.777  20.774   5.524  0.0627  0.3044  0.0700
    1DIPC   D2B12118  10.231  20.530   5.685  0.2548 -0.3214  0.0932
    1DIPC   D3B12119  10.502  20.713   5.500 -0.1292  0.1025  0.0967
    1DIPC   C4B12120  10.756  20.423   5.225  0.1044 -0.1045 -0.1809
    1DIPC   NC312121   2.441  16.053   7.229  0.0713  0.0081  0.0449
    1DIPC   PO412122   2.726  16.404   7.143 -0.0782 -0.2326  0.1265
    1DIPC   GL112123   2.829  16.462   6.752 -0.2609 -0.1287 -0.0470
    1DIPC   GL212124   2.752  16.240   6.521 -0.3635  0.0174  0.2067
    1DIPC   C1A12125   3.046  16.707   6.496 -0.0407  0.4543  0.1063
    1DIPC   D2A12126   3.092  17.165   6.243  0.2162  0.1122  0.0559
    1DIPC   D3A12127   3.445  17.353   6.101  0.0661  0.2861  0.0443
    1DIPC   C4A12128   3.705  17.768   6.035  0.0183 -0.0627  0.3801
    1DIPC   C1B12129   2.866  16.308   6.138  0.2596  0.1688 -0.0360
    1DIPC   D2B12130   2.922  16.048   5.777 -0.3173  0.0443 -0.3563
    1DIPC   D3B12131   2.646  16.341   5.643 -0.3140 -0.2622 -0.1636
    1DIPC   C4B12132   2.495  16.269   5.201 -0.1699  0.0576  0.1407
    1DIPC   NC312133   1.315  25.571   6.460  0.1866  0.0929 -0.0618
    1DIPC   PO412134   1.020  25.976   6.364 -0.3189 -0.6864  0.2811
    1DIPC   GL112135   0.797  25.769   6.031  0.1275 -0.2187 -0.1767
    1DIPC   GL212136   0.928  25.550   6.075 -0.3774  0.2504  0.0512
    1DIPC   C1A12137   0.493  25.857   5.661 -0.1455 -0.1190 -0.2433
    1DIPC   D2A12138   0.414  25.688   5.265  0.3308  0.0359  0.1481
    1DIPC   D3A12139   0.384  25.567   4.764  0.1285 -0.1563  0.0332
    1DIPC   C4A12140   0.019  25.586   4.558 -0.1130  0.1909 -0.1182
    1DIPC   C1B12141   1.105  25.931   5.679  0.0090 -0.3089 -0.0664
    1DIPC   D2B12142   0.849  25.969   5.287  0.1427  0.0107  0.1578
    1DIPC   D3B12143   0.467  26.193   5.223 -0.4558 -0.2026 -0.4602
    1DIPC   C4B12144   0.347  26.523   5.406 -0.0406  0.0038  0.2051
    1DIPC   NC312145  22.505  26.463   7.245  0.1688 -0.1281  0.2663
    1DIPC   PO412146  22.615  26.010   7.148 -0.0489  0.2614  0.0813
    1DIPC   GL112147  22.604  25.791   6.855 -0.0422  0.3398 -0.0582
    1DIPC   GL212148  22.243  25.597   6.786  0.2129  0.0531  0.2672
    1DIPC   C1A12149  22.856  25.644   6.566  0.4040 -0.1146  0.1022
    1DIPC   D2A12150  23.208  25.706   6.239  0.6725 -0.3731  0.1034
    1DIPC   D3A12151  23.516  25.487   6.252 -0.0725 -0.2605  0.0516
    1DIPC   C4A12152  23.859  25.639   6.474  0.0314  0.1320 -0.4497
    1DIPC   C1B12153  22.299  25.487   6.303 -0.0281  0.5013  0.2925
    1DIPC   D2B12154  22.052  25.473   5.958 -0.1263 -0.0373 -0.0066
    1DIPC   D3B12155  22.079  25.528   5.521 -0.1514  0.3375  0.2287
    1DIPC   C4B12156  22.200  25.992   5.477  0.1652 -0.1038  0.0467
    1DIPC   NC312157  21.741  29.591   7.090  0.1582 -0.0284 -0.3492
    1DIPC   PO412158  21.825   0.281   6.932  0.0242 -0.0855  0.0271
    1DIPC   GL112159  21.516   0.129   6.678 -0.1477  0.0247 -0.0362
    1DIPC   GL212160  21.221   0.355   6.697 -0.1050 -0.2331 -0.1094
    1DIPC   C1A12161  21.285   0.210   6.246  0.2880 -0.0274  0.1680
    1DIPC   D2A12162  21.113   0.142   5.771  0.0068 -0.0271 -0.4839
    1DIPC   D3A12163  20.808  29.495   5.581 -0.2883  0.1794 -0.0317
    1DIPC   C4A12164  20.890  29.373   5.109 -0.0846  0.1481 -0.3235
    1DIPC   C1B12165  20.845   0.102   6.941  0.2083  0.2778 -0.1795
    1DIPC   D2B12166  20.403  29.578   6.871 -0.0782  0.2892 -0.0013
    1DIPC   D3B12167  20.577  29.563   6.443  0.1712 -0.1099  0.1558
    1DIPC   C4B12168  20.821   0.277   6.406 -0.3544 -0.0098  0.1451
    1DIPC   NC312169   4.298   9.919   5.078 -0.0195 -0.0722 -0.1178
    1DIPC   PO412170   3.886  10.044   4.898 -0.2551 -0.1731  0.2288
    1DIPC   GL112171   4.079   9.706   4.651  0.0900 -0.1534 -0.2350
    1DIPC   GL212172   4.438   9.650   4.615 -0.2419 -0.0542  0.2561
    1DIPC   C1A12173   4.015   9.597   4.191 -0.1759  0.0532  0.0109
    1DIPC   D2A12174   3.817   9.740   3.830 -0.0928  0.1742  0.5495
    1DIPC   D3A12175   3.628   9.353   4.006  0.1235 -0.3806  0.1156
    1DIPC   C4A12176   3.657   9.313   4.502 -0.0034  0.0904  0.0842
    1DIPC   C1B12177   4.434   9.855   4.086  0.2435  0.1561 -0.0481
    1DIPC   D2B12178   4.712   9.912   3.711 -0.1305  0.0031 -0.1061
    1DIPC   D3B12179   4.819   9.525   3.781 -0.1143  0.3762  0.3996
    1DIPC   C4B12180   4.436   9.197   3.988 -0.1335  0.0049  0.2249
    1DIPC   NC312181   5.981   4.737   6.177 -0.1399  0.3821 -0.0531
    1DIPC   PO412182   6.027   4.254   6.126  0.2953  0.1021  0.0732
    1DIPC   GL112183   6.129   4.431   5.758  0.3600  0.0640  0.0094
    1DIPC   GL212184   6.231   4.771   5.695  0.3247  0.2019 -0.2513
    1DIPC   C1A12185   6.025   4.306   5.326 -0.0453  0.0810 -0.2821
    1DIPC   D2A12186   6.140   4.056   4.988  0.0481  0.4952 -0.1660
    1DIPC   D3A12187   6.498   3.824   4.964 -0.0001  0.1080 -0.6221
    1DIPC   C4A12188   6.955   4.036   4.883 -0.2266 -0.0162  0.2078
    1DIPC   C1B12189   5.993   4.812   5.346 -0.2834 -0.3289  0.0314
    1DIPC   D2B12190   6.033   4.781   4.797  0.2809  0.0292 -0.1721
    1DIPC   D3B12191   5.769   4.777   4.389 -0.0338  0.3741 -0.1797
    1DIPC   C4B12192   5.445   4.419   4.472 -0.0418  0.1293  0.1553
    1DIPC   NC312193   9.665   7.305   6.079 -0.3645  0.0262  0.1010
    1DIPC   PO412194   9.483   7.659   5.874  0.1841 -0.1383 -0.1339
    1DIPC   GL112195   9.551   7.758   5.562  0.0008 -0.1930 -0.0193
    1DIPC   GL212196   9.255   7.847   5.454  0.2739 -0.1390 -0.1336
    1DIPC   C1A12197   9.675   7.746   5.090 -0.2212  0.0179 -0.0082
    1DIPC   D2A12198   9.744   7.879   4.735 -0.0668 -0.0406  0.1583
    1DIPC   D3A12199   9.854   7.859   4.293  0.2421  0.2551  0.2486
    1DIPC   C4A12200  10.199   7.692   4.453 -0.2603  0.0612  0.0602
    1DIPC   C1B12201   9.181   7.844   5.023 -0.0774 -0.1040  0.2616
    1DIPC   D2B12202   8.974   7.984   4.689  0.0570  0.1202  0.0807
    1DIPC   D3B12203   8.523   8.065   4.600 -0.3011 -0.0173  0.1203
    1DIPC   C4B12204   8.224   8.255   4.792  0.1483  0.0077  0.0271
    1DIPC   NC312205  25.714  25.302   8.020 -0.0180  0.0790 -0.0064
    1DIPC   PO412206  25.847  25.372   7.683 -0.1985  0.0087 -0.2111
    1DIPC   GL112207  25.667  25.455   7.282  0.0643 -0.1356 -0.0350
    1DIPC   GL212208  25.904  25.374   7.089  0.0011  0.0059 -0.1595
    1DIPC   C1A12209  25.439  25.501   6.962 -0.0452  0.0588 -0.2900
    1DIPC   D2A12210  25.333  25.510   6.550  0.4883  0.2352  0.1716
    1DIPC   D3A12211  25.344  25.646   6.178  0.3706 -0.0310 -0.1059
    1DIPC   C4A12212  25.644  25.534   5.913  0.4896 -0.0724 -0.0323
    1DIPC   C1B12213  25.809  25.082   6.727 -0.2084 -0.1141 -0.3665
    1DIPC   D2B12214  25.775  24.991   6.315  0.2556 -0.0153 -0.1182
    1DIPC   D3B12215  25.413  24.855   5.996 -0.0098 -0.0426 -0.1350
    1DIPC   C4B12216  25.306  25.254   5.649  0.0692  0.2113  0.0030
    1DIPC   NC312217  11.201  10.964   5.938 -0.1188 -0.0981 -0.0562
    1DIPC   PO412218  11.566  10.752   5.878 -0.0565  0.1397  0.2269
    1DIPC   GL112219  11.765  10.450   5.728 -0.0016 -0.0595  0.3024
    1DIPC   GL212220  11.871  10.313   6.019 -0.2153  0.1290  0.2027
    1DIPC   C1A12221  12.037  10.336   5.362 -0.0366 -0.3424 -0.1473
    1DIPC   D2A12222  12.471  10.207   5.105  0.2589 -0.2912  0.2215
    1DIPC   D3A12223  12.382   9.889   4.908 -0.0566 -0.1649  0.2509
    1DIPC   C4A12224  12.739   9.579   5.001  0.1035  0.0691 -0.1590
    1DIPC   C1B12225  11.900   9.881   5.730 -0.0197 -0.0921 -0.0902
    1DIPC   D2B12226  11.670   9.600   5.602  0.1540 -0.1334 -0.0838
    1DIPC   D3B12227  11.376   9.567   5.321 -0.1561  0.1101  0.0052
    1DIPC   C4B12228  11.418   9.835   4.937 -0.0974 -0.1381 -0.1151
    1DIPC   NC312229  28.717  18.551   7.946 -0.2736  0.4375 -0.1903
    1DIPC   PO412230  28.577  18.263   7.651 -0.2432 -0.1949  0.1382
    1DIPC   GL112231  28.579  18.233   7.227  0.0255  0.4013 -0.1982
    1DIPC   GL212232  28.550  18.458   7.033  0.1052  0.1788  0.0533
    1DIPC   C1A12233  28.579  18.020   6.801  0.1491 -0.2742  0.1693
    1DIPC   D2A12234  28.592  18.065   6.353  0.0475 -0.1649  0.1792
    1DIPC   D3A12235  28.781  18.422   6.084  0.2797  0.0110 -0.0602
    1DIPC   C4A12236  28.482  18.757   5.903 -0.0143  0.3221  0.1019
    1DIPC   C1B12237  28.777  18.470   6.627 -0.0714 -0.1189  0.1675
    1DIPC   D2B12238  29.201  18.653   6.421 -0.0297  0.2422  0.0931
    1DIPC   D3B12239  29.250  18.751   5.993 -0.0204 -0.1131 -0.0039
    1DIPC   C4B12240  29.582  18.921   5.874  0.0956  0.2224  0.0329
    1DIPC   NC312241  27.986  22.814   7.142 -0.0825  0.3185 -0.0637
    1DIPC   PO412242  27.705  22.977   6.845  0.1322 -0.2459  0.1705
    1DIPC   GL112243  27.914  23.009   6.430  0.0177 -0.1816  0.3858
    1DIPC   GL212244  28.050  23.399   6.262  0.3252 -0.1863  0.0030
    1DIPC   C1A12245  28.229  22.868   6.124 -0.2371 -0.2632  0.0965
    1DIPC   D2A12246  28.387  22.665   5.806  0.0133 -0.1710  0.0003
    1DIPC   D3A12247  28.267  23.188   5.716 -0.1719  0.0032  0.4614
    1DIPC   C4A12248  28.512  23.561   5.778 -0.3863 -0.2145 -0.1667
    1DIPC   C1B12249  28.456  23.352   6.224  0.0330 -0.2455 -0.0691
    1DIPC   D2B12250  28.854  23.144   6.084 -0.1176  0.5298 -0.1718
    1DIPC   D3B12251  29.010  23.349   6.388 -0.1294  0.0325 -0.0937
    1DIPC   C4B12252  29.396  23.508   6.482  0.5844  0.1495  0.0831
    1DIPC   NC312253  26.895  23.346   6.829 -0.2344 -0.2137 -0.0862
    1DIPC   PO412254  27.276  23.384   6.934 -0.3200  0.1572  0.2063
    1DIPC   GL112255  27.315  23.264   6.500  0.3901 -0.2987  0.0987
    1DIPC   GL212256  27.014  22.998   6.462 -0.1690  0.0616  0.0284
    1DIPC   C1A12257  27.509  23.460   6.062  0.2420 -0.2203  0.1607
    1DIPC   D2A12258  27.453  23.442   5.509  0.2447  0.0967 -0.1058
    1DIPC   D3A12259  27.061  23.338   5.735  0.0429 -0.3190 -0.1384
    1DIPC   C4A12260  27.070  23.271   6.055  0.1209  0.1925 -0.0146
    1DIPC   C1B12261  27.038  22.761   6.165  0.0947 -0.0025  0.0065
    1DIPC   D2B12262  27.274  22.416   6.054  0.1192  0.0717 -0.1793
    1DIPC   D3B12263  27.268  22.138   5.667 -0.1838 -0.0086  0.1349
    1DIPC   C4B12264  26.925  22.148   5.442 -0.0217  0.0256  0.0098
    1DIPC   NC312265   6.859   8.438   5.624  0.1112 -0.2407  0.2236
    1DIPC   PO412266   6.977   8.768   5.767  0.0274 -0.1442  0.2747
    1DIPC   GL112267   6.991   9.047   5.449 -0.1870  0.0257 -0.1792
    1DIPC   GL212268   7.293   9.070   5.329 -0.1243  0.3132 -0.1688
    1DIPC   C1A12269   6.895   9.286   5.142 -0.2050 -0.1252 -0.1162
    1DIPC   D2A12270   7.109   9.499   4.803  0.1266 -0.2606 -0.0713
    1DIPC   D3A12271   7.481   9.636   4.606  0.1277  0.2379 -0.3169
    1DIPC   C4A12272   7.634   9.342   4.216  0.1146  0.1983  0.0719
    1DIPC   C1B12273   7.116   8.961   4.892  0.4419 -0.1007  0.1032
    1DIPC   D2B12274   7.056   8.971   4.427 -0.1409 -0.3661  0.0688
    1DIPC   D3B12275   7.492   9.034   4.579  0.3285 -0.0078  0.0423
    1DIPC   C4B12276   7.597   8.792   5.064  0.4074  0.1090 -0.1772
    1DIPC   NC312277  15.768  25.498   7.469 -0.0405  0.1236 -0.1080
    1DIPC   PO412278  15.875  25.202   7.083 -0.1239  0.1894  0.2152
    1DIPC   GL112279  16.234  25.357   6.976  0.0498 -0.0439  0.4564
    1DIPC   GL212280  16.138  25.317   6.620 -0.2020  0.3564 -0.2993
    1DIPC   C1A12281  16.599  25.371   6.834  0.0785  0.0049  0.2839
    1DIPC   D2A12282  16.850  25.660   6.510 -0.0096 -0.2494 -0.0246
    1DIPC   D3A12283  16.810  25.549   6.085 -0.1585 -0.0111 -0.1749
    1DIPC   C4A12284  16.703  25.777   5.684 -0.3916  0.0694 -0.0404
    1DIPC   C1B12285  16.480  25.196   6.363  0.0082 -0.2565  0.3493
    1DIPC   D2B12286  16.452  25.213   5.912  0.4120  0.0216 -0.0485
    1DIPC   D3B12287  16.892  25.157   5.683 -0.0638  0.0391 -0.1005
    1DIPC   C4B12288  17.137  25.352   5.360 -0.0788  0.1676  0.1791
    1DIPC   NC312289   1.951   1.083   6.690 -0.2283  0.0363  0.0454
    1DIPC   PO412290   2.163   0.712   6.535  0.2022  0.3066 -0.1542
    1DIPC   GL112291   2.148   0.538   6.103  0.0238 -0.1336  0.1264
    1DIPC   GL212292   1.925   0.481   5.841  0.1710 -0.1529  0.0630
    1DIPC   C1A12293   2.342   0.326   5.732 -0.2546  0.1130  0.0499
    1DIPC   D2A12294   2.560   0.201   5.377 -0.0495 -0.1233  0.4306
    1DIPC   D3A12295   2.518   0.426   5.057  0.1801  0.0476 -0.1368
    1DIPC   C4A12296   2.194   0.299   4.780  0.0580  0.1172  0.2657
    1DIPC   C1B12297   1.695   0.613   5.542  0.3994 -0.2987 -0.0300
    1DIPC   D2B12298   1.727   0.874   5.109 -0.0680 -0.4589 -0.1864
    1DIPC   D3B12299   1.620   0.450   5.077 -0.0335 -0.1872  0.3924
    1DIPC   C4B12300   2.061   0.189   5.216  0.0417  0.2550 -0.1281
    1DIPC   NC312301   7.611  18.595   6.411  0.0553 -0.1911 -0.2712
    1DIPC   PO412302   7.989  18.979   6.448  0.1308 -0.1236  0.1293
    1DIPC   GL112303   8.070  18.900   6.106 -0.0821 -0.0750  0.0875
    1DIPC   GL212304   8.079  19.324   6.017 -0.1615 -0.3302 -0.0958
    1DIPC   C1A12305   7.926  18.890   5.704 -0.0913  0.0081 -0.2007
    1DIPC   D2A12306   7.683  18.890   5.372 -0.1857  0.1356  0.2125
    1DIPC   D3A12307   8.097  18.768   5.227  0.0438  0.2184 -0.3123
    1DIPC   C4A12308   8.284  18.824   4.783 -0.0975  0.3139  0.3204
    1DIPC   C1B12309   7.702  19.325   5.748  0.0976  0.1466  0.0245
    1DIPC   D2B12310   7.599  19.427   5.366 -0.0386  0.0774 -0.0445
    1DIPC   D3B12311   7.854  19.166   4.997 -0.0177 -0.0452 -0.2031
    1DIPC   C4B12312   7.778  19.407   4.656 -0.1045 -0.0310  0.2318
    1DIPC   NC312313  29.577  18.232   7.121 -0.2086 -0.1328 -0.3311
    1DIPC   PO412314   0.263  18.051   7.380  0.0530 -0.0273  0.2158
    1DIPC   GL112315   0.440  18.149   6.997  0.0312 -0.0905  0.2885
    1DIPC   GL212316   0.536  17.860   6.800 -0.3703  0.1432 -0.0440
    1DIPC   C1A12317   0.474  18.486   6.694 -0.0247  0.2284  0.3962
    1DIPC   D2A12318   0.434  18.640   6.318  0.0375  0.2965 -0.0919
    1DIPC   D3A12319   0.397  18.956   6.084  0.1268 -0.0896 -0.0620
    1DIPC   C4A12320   0.533  19.103   5.653 -0.0091  0.1586  0.0849
    1DIPC   C1B12321   0.142  17.929   6.593 -0.0884  0.1539  0.2086
    1DIPC   D2B12322  29.447  17.690   6.459  0.1513 -0.2865 -0.1377
    1DIPC   D3B12323   0.019  17.981   6.102  0.0299 -0.1112  0.1655
    1DIPC   C4B12324   0.156  17.771   5.772  0.0419 -0.0906  0.2454
    1DIPC   NC312325  24.792  18.777   6.719  0.0658  0.0468  0.1860
    1DIPC   PO412326  24.729  18.404   6.371  0.3326  0.0449 -0.0250
    1DIPC   GL112327  24.436  18.241   6.001 -0.0352 -0.2090 -0.1719
    1DIPC   GL212328  24.333  18.357   5.679  0.0407 -0.0512 -0.2181
    1DIPC   C1A12329  24.656  17.988   5.667 -0.3195  0.1386 -0.2101
    1DIPC   D2A12330  24.899  17.991   5.210  0.3068  0.1928  0.1810
    1DIPC   D3A12331  24.813  18.394   5.449  0.1497  0.1382  0.1464
    1DIPC   C4A12332  25.016  18.728   5.571  0.2193  0.0304  0.1143
    1DIPC   C1B12333  23.980  18.405   5.353  0.1343 -0.3803  0.2396
    1DIPC   D2B12334  23.842  18.477   4.842 -0.1812  0.2287 -0.0744
    1DIPC   D3B12335  24.110  18.137   4.949  0.1199 -0.2066  0.1184
    1DIPC   C4B12336  24.424  18.109   5.242 -0.1346 -0.1634  0.0119
    1DIPC   NC312337  27.287  20.719   7.466 -0.1816  0.2070 -0.0358
    1DIPC   PO412338  27.554  21.071   7.255 -0.2238  0.2337  0.0403
    1DIPC   GL112339  27.500  21.039   6.743  0.0493 -0.3313  0.2377
    1DIPC   GL212340  27.748  21.063   6.549 -0.2755 -0.3210  0.1090
    1DIPC   C1A12341  27.305  20.817   6.318  0.1482  0.0709 -0.0781
    1DIPC   D2A12342  27.172  20.526   5.989  0.2563  0.2221 -0.2697
    1DIPC   D3A12343  27.028  20.121   6.061  0.0776  0.1059 -0.1141
    1DIPC   C4A12344  26.999  19.758   6.236  0.1247 -0.1506 -0.0653
    1DIPC   C1B12345  27.761  20.978   6.203  0.1141 -0.0364  0.1250
    1DIPC   D2B12346  27.669  20.743   5.897 -0.0503  0.1964  0.0098
    1DIPC   D3B12347  27.288  20.932   5.575 -0.0161 -0.0531  0.0940
    1DIPC   C4B12348  26.977  20.608   5.444 -0.3239  0.3120 -0.0655
    1DIPC   NC312349   4.506  16.780   6.610  0.1609 -0.0889 -0.1004
    1DIPC   PO412350   4.674  17.126   6.447 -0.2655  0.3051  0.0321
    1DIPC   GL112351   4.497  17.114   6.054  0.1168  0.1058  0.1590
    1DIPC   GL212352   4.761  17.058   5.815  0.1284  0.1713 -0.0366
    1DIPC   C1A12353   4.368  17.140   5.548 -0.2477  0.0483  0.2042
    1DIPC   D2A12354   4.099  17.244   5.159  0.0802  0.3653 -0.2784
    1DIPC   D3A12355   4.513  16.944   5.102  0.0034  0.1945 -0.0590
    1DIPC   C4A12356   4.848  16.866   4.810 -0.1261  0.0599 -0.2843
    1DIPC   C1B12357   4.830  17.420   5.597  0.2196 -0.3951 -0.1148
    1DIPC   D2B12358   5.020  17.636   5.214  0.0501 -0.2903 -0.0098
    1DIPC   D3B12359   4.747  17.746   4.831 -0.0428  0.1396  0.0843
    1DIPC   C4B12360   4.630  17.298   4.622 -0.2837 -0.0670  0.0077
    1DIPC   NC312361  14.978  21.217   6.810 -0.1006 -0.2558  0.0187
    1DIPC   PO412362  15.066  21.161   6.387 -0.1701  0.0442  0.1607
    1DIPC   GL112363  15.138  21.352   5.961 -0.0070  0.3027  0.2082
    1DIPC   GL212364  15.088  21.078   5.698  0.0461 -0.2456 -0.0053
    1DIPC   C1A12365  15.123  21.623   5.552  0.1103  0.4041 -0.0924
    1DIPC   D2A12366  14.954  21.467   5.128 -0.1610 -0.1520  0.1960
    1DIPC   D3A12367  14.642  21.532   4.802 -0.3373  0.3139  0.4248
    1DIPC   C4A12368  14.652  21.372   4.388  0.1790 -0.0085 -0.1749
    1DIPC   C1B12369  14.857  20.969   5.282  0.2387 -0.1506  0.0490
    1DIPC   D2B12370  14.778  21.041   4.829  0.0689  0.0031  0.0346
    1DIPC   D3B12371  15.029  21.168   4.627  0.3659  0.0737  0.1661
    1DIPC   C4B12372  15.240  20.808   4.282  0.1568 -0.1948 -0.2382
    1DIPC   NC312373  25.043  27.547   7.081  0.0961 -0.4628 -0.0142
    1DIPC   PO412374  24.796  27.069   7.214  0.2681 -0.1740 -0.1141
    1DIPC   GL112375  25.058  27.097   6.876 -0.0043 -0.1059  0.1980
    1DIPC   GL212376  24.881  26.956   6.653 -0.0614 -0.0156  0.0993
    1DIPC   C1A12377  25.378  27.134   6.538 -0.1811 -0.1070  0.3369
    1DIPC   D2A12378  25.867  27.086   6.568 -0.0527 -0.1514 -0.4158
    1DIPC   D3A12379  25.858  26.918   6.214 -0.1087  0.0858 -0.3370
    1DIPC   C4A12380  26.032  27.151   5.940 -0.0328 -0.3031  0.4492
    1DIPC   C1B12381  24.896  26.832   6.250 -0.1151  0.0206 -0.0820
    1DIPC   D2B12382  24.894  26.589   5.940 -0.1683  0.1058 -0.2112
    1DIPC   D3B12383  24.667  26.696   5.557 -0.0558 -0.0590  0.0258
    1DIPC   C4B12384  24.513  27.124   5.381 -0.2094  0.4054  0.1722
    1DIPC   NC312385  14.452  20.756   6.268 -0.2982  0.1576 -0.0088
    1DIPC   PO412386  14.605  20.435   6.004  0.1634  0.1198  0.0474
    1DIPC   GL112387  14.461  20.420   5.625  0.1144  0.1204  0.0521
    1DIPC   GL212388  14.637  20.502   5.365 -0.2929  0.0420 -0.0114
    1DIPC   C1A12389  14.337  20.141   5.190  0.2844  0.0880  0.0113
    1DIPC   D2A12390  14.028  20.211   4.924  0.2891 -0.1573 -0.2123
    1DIPC   D3A12391  13.672  20.483   4.972  0.0427 -0.1044 -0.1840
    1DIPC   C4A12392  13.645  20.796   5.342 -0.1795 -0.0418 -0.2992
    1DIPC   C1B12393  14.539  20.662   4.921 -0.3549 -0.1119 -0.1342
    1DIPC   D2B12394  14.493  20.812   4.465  0.1156  0.0406  0.0374
    1DIPC   D3B12395  14.314  21.063   4.769  0.0491 -0.1037 -0.1303
    1DIPC   C4B12396  13.883  20.996   4.972  0.1470  0.3586  0.1926
    1DIPC   NC312397   0.407  20.650   7.287 -0.1033  0.1034  0.2454
    1DIPC   PO412398   0.677  20.340   7.174 -0.2068  0.2671 -0.0558
    1DIPC   GL112399   0.406  20.431   6.858  0.1083 -0.0236  0.1755
    1DIPC   GL212400   0.239  20.736   6.838 -0.0043  0.2382  0.0343
    1DIPC   C1A12401   0.402  20.608   6.373  0.1992 -0.1303  0.1231
    1DIPC   D2A12402   0.269  20.547   5.884  0.0623 -0.1585  0.1062
    1DIPC   D3A12403   0.059  20.834   5.627 -0.0998 -0.1512 -0.1454
    1DIPC   C4A12404   0.200  20.917   5.238  0.1157  0.0743  0.0446
    1DIPC   C1B12405  29.385  20.743   6.638 -0.0662  0.2689  0.0137
    1DIPC   D2B12406  29.132  20.435   6.571  0.1158 -0.1030  0.2003
    1DIPC   D3B12407  28.848  20.078   6.745  0.2985  0.0905 -0.1457
    1DIPC   C4B12408  29.225  19.958   7.039  0.1190  0.0011 -0.0814
    1DIPC   NC312409  19.486  26.556   7.607 -0.3701 -0.3562 -0.0027
    1DIPC   PO412410  19.906  26.657   7.751 -0.1684 -0.1228 -0.6118
    1DIPC   GL112411  19.925  26.596   7.341 -0.0878 -0.0488  0.3226
    1DIPC   GL212412  20.074  26.285   7.247  0.0870  0.1591 -0.0944
    1DIPC   C1A12413  19.810  26.520   6.892 -0.0872 -0.1618 -0.0609
    1DIPC   D2A12414  19.544  26.675   6.584  0.1113  0.2528  0.1136
    1DIPC   D3A12415  19.550  26.983   6.596 -0.3101 -0.0261  0.0798
    1DIPC   C4A12416  19.818  27.100   6.307 -0.2465  0.0730 -0.0383
    1DIPC   C1B12417  20.280  26.395   6.820 -0.0284 -0.0502 -0.1364
    1DIPC   D2B12418  20.588  26.213   6.547  0.1320 -0.1597  0.1220
    1DIPC   D3B12419  20.403  26.213   6.207  0.2201 -0.1559  0.1193
    1DIPC   C4B12420  20.305  26.369   5.829  0.0402  0.1441 -0.1233
    1DIPC   NC312421  22.978  29.350   7.666 -0.1167 -0.1415 -0.1109
    1DIPC   PO412422  22.968  29.370   7.106 -0.1329  0.0266  0.0933
    1DIPC   GL112423  23.008  29.161   6.759 -0.1105  0.1201 -0.1821
    1DIPC   GL212424  23.160  29.339   6.550  0.0266  0.0783 -0.2143
    1DIPC   C1A12425  22.647  29.069   6.412 -0.1373 -0.1240  0.0926
    1DIPC   D2A12426  22.532  28.816   6.023  0.0495  0.0574  0.1209
    1DIPC   D3A12427  22.408  28.422   5.823 -0.0172 -0.1107  0.0801
    1DIPC   C4A12428  22.745  28.219   5.406 -0.1529 -0.1560 -0.0034
    1DIPC   C1B12429  23.036  29.435   6.324  0.4513  0.1778  0.3824
    1DIPC   D2B12430  23.112   0.121   6.023  0.2106  0.0569 -0.4394
    1DIPC   D3B12431  22.796   0.236   6.076  0.1576  0.0685  0.0858
    1DIPC   C4B12432  22.386   0.193   6.373  0.0534  0.0640  0.0966
    1DIPC   NC312433  20.843  21.412   7.692  0.1047  0.2258 -0.0539
    1DIPC   PO412434  20.546  21.228   7.447 -0.1769 -0.1409 -0.5086
    1DIPC   GL112435  20.539  21.249   7.049 -0.2516 -0.2193  0.1679
    1DIPC   GL212436  20.427  20.935   6.836 -0.1226  0.1992  0.0217
    1DIPC   C1A12437  20.860  21.268   6.713  0.1592  0.0479 -0.1066
    1DIPC   D2A12438  21.049  21.659   6.549  0.1858  0.1650  0.1361
    1DIPC   D3A12439  20.957  21.295   6.198 -0.0564 -0.0896 -0.1269
    1DIPC   C4A12440  21.187  21.487   5.816  0.2555  0.1673  0.2399
    1DIPC   C1B12441  20.595  20.866   6.456  0.0718  0.2187 -0.1034
    1DIPC   D2B12442  20.630  20.818   6.048 -0.4179  0.2087  0.0244
    1DIPC   D3B12443  20.671  20.875   5.600 -0.0767 -0.1131 -0.1887
    1DIPC   C4B12444  20.305  20.729   5.451  0.0407 -0.1480  0.4492
    1DIPC   NC312445  10.342   1.183   6.149 -0.0423  0.1197  0.1057
    1DIPC   PO412446   9.896   1.269   6.137  0.1472 -0.1257  0.0307
    1DIPC   GL112447   9.968   1.254   5.679  0.1138 -0.1231 -0.0981
    1DIPC   GL212448  10.254   0.900   5.692 -0.2843  0.2333 -0.2445
    1DIPC   C1A12449  10.199   1.213   5.259  0.0027 -0.1105 -0.1085
    1DIPC   D2A12450  10.122   1.158   4.730  0.0863  0.1937  0.1559
    1DIPC   D3A12451  10.134   1.532   4.501  0.1648 -0.0456  0.0154
    1DIPC   C4A12452  10.092   1.395   4.085 -0.2577  0.0824 -0.0961
    1DIPC   C1B12453  10.542   0.680   5.455 -0.2699 -0.1072  0.1870
    1DIPC   D2B12454  10.930   0.621   5.220 -0.0415 -0.1873  0.2682
    1DIPC   D3B12455  11.295   0.806   5.503 -0.1078  0.3644  0.1844
    1DIPC   C4B12456  11.556   0.887   5.362 -0.1890  0.1690  0.2415
    1DIPC   NC312457  23.043  27.309   7.079 -0.0788 -0.0766 -0.1015
    1DIPC   PO412458  22.608  27.168   7.101 -0.0280  0.0177 -0.2227
    1DIPC   GL112459  22.653  27.320   6.670  0.2614  0.1801  0.0562
    1DIPC   GL212460  22.284  27.385   6.537 -0.1295  0.2788 -0.2961
    1DIPC   C1A12461  22.806  27.058   6.308 -0.1333 -0.0819  0.1690
    1DIPC   D2A12462  22.718  26.802   5.926 -0.0329  0.0255  0.2032
    1DIPC   D3A12463  22.456  26.413   6.154  0.0818  0.1727  0.1707
    1DIPC   C4A12464  22.506  26.068   6.441 -0.1400 -0.1396  0.1073
    1DIPC   C1B12465  22.135  27.404   6.099 -0.2255 -0.1735  0.1556
    1DIPC   D2B12466  22.218  27.401   5.634  0.1264  0.0274 -0.0951
    1DIPC   D3B12467  21.773  27.202   5.607 -0.3578 -0.0407 -0.0653
    1DIPC   C4B12468  21.653  26.781   5.701 -0.2319  0.3723  0.3220
    1DIPC   NC312469  13.022  21.031   5.874  0.1705  0.1024  0.1229
    1DIPC   PO412470  12.577  20.875   5.777 -0.2648  0.2343  0.0583
    1DIPC   GL112471  12.383  21.168   5.559  0.1602  0.2724  0.0536
    1DIPC   GL212472  12.026  21.162   5.592 -0.0943  0.1360  0.1951
    1DIPC   C1A12473  12.544  21.506   5.402 -0.3289  0.0445 -0.0819
    1DIPC   D2A12474  12.274  21.872   5.258 -0.0314 -0.1034  0.0217
    1DIPC   D3A12475  11.867  21.765   4.931 -0.1472  0.1194 -0.1105
    1DIPC   C4A12476  11.461  21.671   5.088  0.0691 -0.0028 -0.3404
    1DIPC   C1B12477  12.113  21.263   5.142  0.2697 -0.1179  0.0806
    1DIPC   D2B12478  12.178  21.455   4.774 -0.1235  0.2743 -0.1847
    1DIPC   D3B12479  12.267  21.618   4.407 -0.2879 -0.0360  0.3342
    1DIPC   C4B12480  12.338  22.057   4.261  0.1316 -0.2429 -0.0094
    1DIPC   NC312481  11.719   9.073   6.863  0.0088 -0.0566 -0.3609
    1DIPC   PO412482  11.657   8.570   6.643  0.2373 -0.0339  0.0662
    1DIPC   GL112483  11.541   8.591   6.227  0.0682  0.0101  0.0170
    1DIPC   GL212484  11.765   8.392   6.015 -0.2601 -0.0291 -0.1320
    1DIPC   C1A12485  11.357   8.880   5.917 -0.2600  0.1584 -0.4098
    1DIPC   D2A12486  11.394   9.109   5.532 -0.1217 -0.2927  0.2008
    1DIPC   D3A12487  11.513   8.914   5.222  0.1624  0.2240 -0.1697
    1DIPC   C4A12488  11.462   9.046   4.870  0.1526  0.1970  0.0573
    1DIPC   C1B12489  11.745   8.623   5.606 -0.0493 -0.1895 -0.1769
    1DIPC   D2B12490  11.666   8.480   5.236 -0.0023  0.1057 -0.0406
    1DIPC   D3B12491  11.314   8.491   5.006  0.2137  0.0491 -0.0945
    1DIPC   C4B12492  11.443   8.608   4.588 -0.1743  0.1201  0.1194
    1DIPC   NC312493  21.371  28.750   8.063 -0.0121  0.2092 -0.0482
    1DIPC   PO412494  21.426  28.786   7.603 -0.4611  0.1827 -0.1735
    1DIPC   GL112495  21.559  28.643   7.064 -0.0894  0.0328  0.1997
    1DIPC   GL212496  21.412  28.365   6.933 -0.1066 -0.2767 -0.2174
    1DIPC   C1A12497  21.657  28.838   6.606 -0.0559 -0.0875  0.0683
    1DIPC   D2A12498  21.809  28.536   6.182  0.2359  0.1760 -0.1206
    1DIPC   D3A12499  21.841  28.459   5.808  0.1143 -0.1206  0.0515
    1DIPC   C4A12500  21.624  28.130   5.569 -0.0896  0.0555  0.1088
    1DIPC   C1B12501  21.191  28.629   6.670  0.3062 -0.0602 -0.1169
    1DIPC   D2B12502  21.174  28.532   6.323  0.2445  0.2806 -0.2738
    1DIPC   D3B12503  21.391  28.213   6.435  0.2294  0.2849  0.0219
    1DIPC   C4B12504  21.314  27.893   6.751  0.0173  0.1794  0.0963
    1DIPC   NC312505  24.964  21.689   7.090  0.1538 -0.0472 -0.0266
    1DIPC   PO412506  25.163  21.376   7.300 -0.0226  0.3296 -0.1114
    1DIPC   GL112507  25.190  21.231   6.834  0.2142  0.2452 -0.0880
    1DIPC   GL212508  25.465  21.222   6.614 -0.0285  0.0923  0.2725
    1DIPC   C1A12509  24.981  21.119   6.413  0.1536 -0.0595 -0.3046
    1DIPC   D2A12510  24.789  21.223   6.000  0.2219  0.2369 -0.0634
    1DIPC   D3A12511  25.187  21.266   5.827 -0.0864 -0.1811 -0.0357
    1DIPC   C4A12512  25.358  21.344   5.406 -0.1141  0.1556 -0.2350
    1DIPC   C1B12513  25.749  21.177   6.255  0.3203 -0.3786  0.1998
    1DIPC   D2B12514  25.995  21.041   6.043 -0.2884  0.2941 -0.1428
    1DIPC   D3B12515  26.487  21.179   6.114 -0.2243 -0.2874 -0.1259
    1DIPC   C4B12516  26.833  20.918   5.922  0.0910 -0.0526 -0.0773
    1DIPC   NC312517  13.011   7.249   6.422  0.0980  0.2519 -0.0510
    1DIPC   PO412518  13.347   7.499   6.210 -0.0604  0.0264  0.1533
    1DIPC   GL112519  13.020   7.616   5.971  0.0185 -0.0998  0.1365
    1DIPC   GL212520  12.754   7.450   5.758 -0.1656  0.0095 -0.0274
    1DIPC   C1A12521  12.939   8.030   5.842  0.1985  0.4636  0.1489
    1DIPC   D2A12522  12.651   8.438   5.830  0.1102 -0.3484  0.0014
    1DIPC   D3A12523  12.955   8.418   5.526  0.1199  0.1140  0.2477
    1DIPC   C4A12524  12.797   8.441   5.121  0.0385  0.2354 -0.1436
    1DIPC   C1B12525  12.786   7.488   5.293 -0.2507 -0.0750 -0.0382
    1DIPC   D2B12526  12.502   7.555   4.925  0.2475  0.0914 -0.1266
    1DIPC   D3B12527  12.885   7.816   4.824 -0.0941 -0.1833 -0.2748
    1DIPC   C4B12528  12.832   8.196   4.608  0.0405  0.0134  0.0347
    1DIPC   NC312529  11.028  19.510   6.328  0.3003 -0.1733 -0.2484
    1DIPC   PO412530  10.637  19.758   6.353  0.0610 -0.2543  0.1621
    1DIPC   GL112531  10.607  19.655   5.977 -0.3583  0.0557 -0.2177
    1DIPC   GL212532  10.871  19.787   5.866 -0.1580  0.2519  0.0094
    1DIPC   C1A12533  10.279  19.477   5.727  0.0563 -0.4491  0.0250
    1DIPC   D2A12534  10.120  19.265   5.356 -0.0731  0.1535  0.0293
    1DIPC   D3A12535  10.082  19.450   4.883  0.0412  0.0023  0.3935
    1DIPC   C4A12536  10.170  19.315   4.486  0.0000 -0.0347  0.2131
    1DIPC   C1B12537  10.552  19.904   5.571  0.5150 -0.2257  0.1684
    1DIPC   D2B12538  10.375  19.689   5.207 -0.4226  0.3297 -0.0087
    1DIPC   D3B12539  10.710  19.809   5.119 -0.0172 -0.1173  0.1349
    1DIPC   C4B12540  11.088  20.082   5.003  0.0429  0.0545 -0.1174
    1DIPC   NC312541  24.763  24.959   7.566  0.2067  0.0726 -0.3550
    1DIPC   PO412542  24.872  25.236   7.793 -0.3654 -0.0589 -0.2413
    1DIPC   GL112543  24.546  25.375   7.322 -0.0705 -0.0601 -0.0547
    1DIPC   GL212544  24.605  25.116   7.142  0.0246 -0.1912  0.0084
    1DIPC   C1A12545  24.353  25.532   6.984 -0.2074 -0.1995  0.2362
    1DIPC   D2A12546  24.004  25.652   6.923 -0.0427  0.1057 -0.0858
    1DIPC   D3A12547  23.964  26.031   6.724 -0.2522  0.1097  0.0700
    1DIPC   C4A12548  23.682  26.121   6.556  0.2826  0.0741  0.2814
    1DIPC   C1B12549  24.786  24.938   6.751 -0.1452  0.0321  0.0857
    1DIPC   D2B12550  24.985  24.685   6.369 -0.3254  0.0635 -0.0266
    1DIPC   D3B12551  24.559  24.906   6.274 -0.0547 -0.2577 -0.1774
    1DIPC   C4B12552  24.503  25.319   6.028 -0.2886 -0.1387 -0.0101
    1DIPC   NC312553  23.031  17.805   6.858 -0.1430 -0.3410  0.1106
    1DIPC   PO412554  22.855  17.423   7.087  0.1293  0.4764  0.0746
    1DIPC   GL112555  22.743  17.473   6.672  0.3739  0.3015  0.0547
    1DIPC   GL212556  22.432  17.274   6.645  0.2524  0.2101  0.0874
    1DIPC   C1A12557  22.659  17.478   6.257 -0.0869  0.3843  0.0432
    1DIPC   D2A12558  22.584  17.728   5.851  0.2139  0.2636  0.1346
    1DIPC   D3A12559  22.610  18.147   5.876  0.1331 -0.1372 -0.1525
    1DIPC   C4A12560  22.895  18.533   5.552 -0.2563 -0.3366 -0.2552
    1DIPC   C1B12561  22.079  17.256   6.248  0.0449  0.0806  0.0148
    1DIPC   D2B12562  21.647  17.329   5.983 -0.1956 -0.1943  0.2170
    1DIPC   D3B12563  21.888  17.286   5.693  0.2083 -0.0703  0.1790
    1DIPC   C4B12564  22.252  17.423   5.525  0.1512 -0.2165  0.2193
    1DIPC   NC312565   2.737  29.410   6.792 -0.1163  0.0841  0.2827
    1DIPC   PO412566   2.606  29.105   6.550 -0.1106 -0.0097 -0.1337
    1DIPC   GL112567   2.844  29.072   6.134  0.0090  0.0351 -0.0100
    1DIPC   GL212568   3.103  28.825   6.341 -0.2677 -0.1166  0.0650
    1DIPC   C1A12569   2.972  28.915   5.804 -0.0224  0.4286  0.2218
    1DIPC   D2A12570   3.309  28.765   5.522 -0.0376 -0.1191  0.0371
    1DIPC   D3A12571   3.376  28.420   5.836  0.0348 -0.0168 -0.1360
    1DIPC   C4A12572   3.752  28.388   6.037  0.1199  0.0606 -0.1093
    1DIPC   C1B12573   3.429  28.931   6.118  0.2262 -0.0085  0.0769
    1DIPC   D2B12574   3.865  29.044   5.901  0.2405 -0.0268  0.1509
    1DIPC   D3B12575   3.757  28.957   5.493 -0.0539 -0.0734 -0.1034
    1DIPC   C4B12576   3.672  28.545   5.308  0.0049 -0.0901 -0.0111
    1DIPC   NC312577  19.970   2.369   6.990  0.2894 -0.0585 -0.2475
    1DIPC   PO412578  19.862   2.758   6.900 -0.0155  0.1485  0.2244
    1DIPC   GL112579  19.746   2.688   6.543  0.1643 -0.0126  0.1217
    1DIPC   GL212580  19.605   2.317   6.470 -0.1211 -0.2328 -0.3441
    1DIPC   C1A12581  19.984   2.634   6.213 -0.3039 -0.3733 -0.1478
    1DIPC   D2A12582  20.070   2.648   5.816  0.0563 -0.2008 -0.2797
    1DIPC   D3A12583  19.862   3.041   5.502  0.2320 -0.1377 -0.1481
    1DIPC   C4A12584  19.624   3.304   5.730 -0.0219  0.1658  0.0173
    1DIPC   C1B12585  19.775   2.263   6.003  0.0376  0.0628 -0.2518
    1DIPC   D2B12586  20.072   2.187   5.628  0.2262 -0.1704 -0.1558
    1DIPC   D3B12587  19.827   2.142   5.141 -0.0260  0.1077  0.1534
    1DIPC   C4B12588  20.214   2.417   4.867  0.3992  0.1283 -0.1796
    1DIPC   NC312589  11.367  12.700   5.602  0.0608  0.1482 -0.0794
    1DIPC   PO412590  11.743  12.574   5.382  0.1043 -0.1544  0.0801
    1DIPC   GL112591  11.973  12.254   5.138  0.0154 -0.0149 -0.1414
    1DIPC   GL212592  12.325  12.269   5.117  0.0819  0.0828 -0.3270
    1DIPC   C1A12593  11.858  11.784   5.051 -0.0067 -0.2026  0.1226
    1DIPC   D2A12594  11.993  11.597   4.693  0.0602  0.1795  0.2787
    1DIPC   D3A12595  11.921  11.819   4.250 -0.1543 -0.0270 -0.0493
    1DIPC   C4A12596  12.283  11.728   3.918 -0.1961 -0.0491  0.0442
    1DIPC   C1B12597  12.580  12.437   4.598 -0.0001  0.0925 -0.1053
    1DIPC   D2B12598  12.804  12.355   4.216 -0.0001 -0.0031  0.0308
    1DIPC   D3B12599  12.338  12.482   3.975 -0.0729  0.0792 -0.1144
    1DIPC   C4B12600  11.973  12.373   4.125  0.0646  0.0333  0.2706
    1DIPC   NC312601  20.190  26.271   7.781  0.0527  0.1428  0.1013
    1DIPC   PO412602  20.388  26.574   7.560 -0.0221  0.0938  0.2368
    1DIPC   GL112603  20.548  26.697   7.148  0.0322 -0.0151  0.0051
    1DIPC   GL212604  20.650  26.427   7.121  0.0596  0.0759 -0.0619
    1DIPC   C1A12605  20.696  26.834   6.670  0.1368  0.0218 -0.1677
    1DIPC   D2A12606  20.634  26.671   6.332 -0.2377 -0.0693  0.2070
    1DIPC   D3A12607  20.763  26.724   5.930  0.1950 -0.1280 -0.0596
    1DIPC   C4A12608  20.855  26.261   5.926 -0.0857 -0.2362  0.1533
    1DIPC   C1B12609  21.028  26.324   6.735  0.2921 -0.0857  0.0276
    1DIPC   D2B12610  21.086  26.535   6.304 -0.2645  0.3042 -0.2833
    1DIPC   D3B12611  21.347  26.353   6.036  0.0398 -0.2806 -0.0850
    1DIPC   C4B12612  21.233  26.468   5.653 -0.2208 -0.2233  0.2897
    1DIPC   NC312613  14.280  11.288   6.828  0.2891  0.0086  0.2375
    1DIPC   PO412614  14.655  10.959   6.720 -0.3142 -0.2132 -0.1204
    1DIPC   GL112615  14.753  11.083   6.239 -0.2772 -0.2367  0.0069
    1DIPC   GL212616  14.909  10.869   5.982  0.0141 -0.2147  0.1278
    1DIPC   C1A12617  14.938  11.405   6.042 -0.0017  0.2949 -0.1824
    1DIPC   D2A12618  15.012  11.736   5.761  0.2015  0.0540 -0.1310
    1DIPC   D3A12619  15.271  12.009   5.673  0.0812 -0.2235  0.0420
    1DIPC   C4A12620  15.346  12.428   5.799 -0.1527 -0.3111 -0.0537
    1DIPC   C1B12621  15.017  10.880   5.653  0.0227  0.1424  0.3307
    1DIPC   D2B12622  15.199  11.297   5.554  0.1006 -0.3175 -0.0730
    1DIPC   D3B12623  15.079  11.663   5.310  0.1762  0.0106  0.2163
    1DIPC   C4B12624  15.122  11.680   4.917 -0.1162 -0.0075  0.1232
    1DIPC   NC312625  21.189   1.785   6.765  0.2111  0.0145  0.1913
    1DIPC   PO412626  21.432   1.753   6.490  0.0865  0.2002 -0.2059
    1DIPC   GL112627  21.497   1.816   6.033  0.1257  0.2677 -0.0380
    1DIPC   GL212628  21.426   2.111   6.046 -0.0644  0.1147  0.1658
    1DIPC   C1A12629  21.549   1.796   5.659  0.0168  0.3288  0.0808
    1DIPC   D2A12630  21.338   1.846   5.369 -0.0399 -0.0521  0.1205
    1DIPC   D3A12631  21.194   1.424   5.208  0.2837  0.1150 -0.1704
    1DIPC   C4A12632  21.495   1.086   5.169 -0.0622 -0.1887  0.1317
    1DIPC   C1B12633  21.072   1.992   5.854  0.2918 -0.0241  0.0341
    1DIPC   D2B12634  20.841   1.760   5.601  0.0165  0.5371 -0.1824
    1DIPC   D3B12635  20.760   1.912   5.220 -0.0430 -0.0426  0.0733
    1DIPC   C4B12636  20.331   1.817   5.064 -0.1852 -0.0200 -0.2014
    1DIPC   NC312637   9.004  22.969   6.253  0.0146  0.4023 -0.0800
    1DIPC   PO412638   8.697  23.423   6.073 -0.2648 -0.0406  0.3345
    1DIPC   GL112639   8.886  23.138   5.764 -0.0414 -0.2158  0.5010
    1DIPC   GL212640   8.822  23.004   5.483 -0.0319  0.1827  0.2896
    1DIPC   C1A12641   9.240  22.804   5.400 -0.0770 -0.5179 -0.3008
    1DIPC   D2A12642   9.462  22.595   5.176 -0.4122 -0.2290 -0.1258
    1DIPC   D3A12643   9.489  23.018   4.996 -0.1163  0.2428  0.2380
    1DIPC   C4A12644   9.143  23.312   5.225  0.1093  0.2537  0.3602
    1DIPC   C1B12645   8.685  22.850   5.119  0.1731 -0.1555  0.3973
    1DIPC   D2B12646   8.575  22.670   4.808  0.0248  0.0378 -0.1062
    1DIPC   D3B12647   9.081  22.557   4.618 -0.1443 -0.0758  0.1705
    1DIPC   C4B12648   9.477  22.815   4.546  0.3357  0.5831 -0.2105
    1DIPC   NC312649   6.592   5.208   5.885 -0.1832  0.1170  0.0159
    1DIPC   PO412650   6.204   5.196   6.111 -0.1216 -0.2463 -0.2312
    1DIPC   GL112651   6.061   5.274   5.672 -0.0694 -0.2834 -0.0967
    1DIPC   GL212652   6.300   5.351   5.482 -0.1921  0.1953 -0.4861
    1DIPC   C1A12653   5.848   5.364   5.125 -0.0790  0.1074 -0.1276
    1DIPC   D2A12654   5.679   5.656   4.763 -0.0453  0.1662 -0.3100
    1DIPC   D3A12655   5.729   5.248   4.559  0.0761  0.1298  0.0836
    1DIPC   C4A12656   5.560   5.140   4.119 -0.3985 -0.1070 -0.1115
    1DIPC   C1B12657   6.390   5.134   5.057 -0.0532 -0.0849  0.1064
    1DIPC   D2B12658   6.593   4.905   4.612  0.1504 -0.3297  0.0403
    1DIPC   D3B12659   6.322   4.648   4.343 -0.1512  0.0431  0.2145
    1DIPC   C4B12660   6.302   4.239   4.201  0.2143  0.1320  0.1444
    1DIPC   NC312661   7.969  19.190   6.883  0.0318  0.2053 -0.0780
    1DIPC   PO412662   8.067  19.595   6.838 -0.0609 -0.3604  0.2003
    1DIPC   GL112663   8.265  19.843   6.570 -0.0157  0.3118 -0.1920
    1DIPC   GL212664   7.966  20.052   6.366 -0.2082  0.2028 -0.0912
    1DIPC   C1A12665   8.462  20.165   6.353 -0.1007 -0.1039 -0.1118
    1DIPC   D2A12666   8.927  20.244   6.197 -0.2314  0.3785  0.2156
    1DIPC   D3A12667   8.633  20.510   6.000  0.1118  0.0654  0.2563
    1DIPC   C4A12668   8.582  20.956   6.017  0.1804  0.2743 -0.2565
    1DIPC   C1B12669   7.900  19.816   5.944  0.3510  0.0207 -0.2088
    1DIPC   D2B12670   7.938  19.779   5.502  0.3404  0.0781  0.2658
    1DIPC   D3B12671   8.008  19.684   5.117 -0.0821 -0.0207 -0.3682
    1DIPC   C4B12672   8.372  19.860   4.941  0.3726 -0.3389 -0.1777
    1DIPC   NC312673  15.653  19.156   6.257 -0.1596  0.2119 -0.0058
    1DIPC   PO412674  15.750  19.479   6.255 -0.1313 -0.1047  0.1881
    1DIPC   GL112675  15.747  19.541   5.899 -0.2198 -0.0836 -0.1896
    1DIPC   GL212676  15.721  19.829   5.646  0.1178 -0.1693 -0.1847
    1DIPC   C1A12677  15.797  19.288   5.475  0.0924 -0.0879 -0.2104
    1DIPC   D2A12678  15.619  19.286   4.951  0.0043  0.0005 -0.0585
    1DIPC   D3A12679  15.707  19.036   4.643 -0.0663  0.0118 -0.0553
    1DIPC   C4A12680  15.402  19.286   4.305 -0.3978  0.2894 -0.1072
    1DIPC   C1B12681  15.480  19.993   5.368  0.0438  0.1531 -0.5245
    1DIPC   D2B12682  15.239  19.770   5.029  0.3104 -0.2183  0.1429
    1DIPC   D3B12683  15.376  19.688   4.604 -0.0042 -0.1179 -0.1329
    1DIPC   C4B12684  15.726  19.595   4.543 -0.1511  0.0208  0.1271
    1DIPC   NC312685   8.760  14.298   6.665  0.1218  0.1087  0.3335
    1DIPC   PO412686   8.881  14.022   6.387  0.0227  0.0335  0.5816
    1DIPC   GL112687   8.816  14.161   6.001 -0.5312  0.0881  0.0685
    1DIPC   GL212688   8.480  13.939   5.914 -0.0468  0.1770 -0.0530
    1DIPC   C1A12689   8.886  14.445   5.681 -0.2748  0.0578 -0.1671
    1DIPC   D2A12690   9.222  14.643   5.589 -0.0992  0.1953  0.0834
    1DIPC   D3A12691   9.429  14.657   5.162 -0.1063 -0.0517 -0.1110
    1DIPC   C4A12692   9.416  14.422   4.847 -0.0076  0.0653  0.0225
    1DIPC   C1B12693   8.297  13.910   5.556 -0.1109  0.0273  0.1822
    1DIPC   D2B12694   7.909  14.042   5.321  0.2002  0.1361  0.1235
    1DIPC   D3B12695   7.771  14.318   5.052 -0.2302 -0.2203 -0.2833
    1DIPC   C4B12696   7.987  14.534   4.696  0.0297 -0.1957  0.1681
    1DIPC   NC312697  11.328   0.307   6.174  0.2683  0.0309  0.0241
    1DIPC   PO412698  10.969   0.397   5.908  0.1327  0.0628 -0.2942
    1DIPC   GL112699  11.305   0.262   5.517 -0.2209 -0.0975 -0.2516
    1DIPC   GL212700  11.411  29.534   5.624 -0.0996  0.1650 -0.2275
    1DIPC   C1A12701  11.402   0.303   5.112  0.1939  0.1374  0.4678
    1DIPC   D2A12702  11.726   0.166   4.754 -0.1495  0.1506 -0.2158
    1DIPC   D3A12703  11.523   0.059   4.318  0.0622 -0.2520 -0.1059
    1DIPC   C4A12704  11.607  29.333   4.155 -0.0157 -0.3055  0.2819
    1DIPC   C1B12705  11.391  29.413   5.155 -0.0755  0.0922 -0.1074
    1DIPC   D2B12706  11.316  29.539   4.759 -0.0163 -0.0343 -0.0655
    1DIPC   D3B12707  11.180  29.210   4.345 -0.0306 -0.0768 -0.3227
    1DIPC   C4B12708  11.110  29.352   3.968  0.0449 -0.0418  0.1739
    1DIPC   NC312709   0.710   4.411   6.915 -0.0585  0.2615  0.0410
    1DIPC   PO412710   0.687   4.044   6.665  0.1673 -0.2796  0.1262
    1DIPC   GL112711   0.668   4.247   6.212 -0.2557 -0.1065  0.2732
    1DIPC   GL212712   0.365   4.331   5.964  0.1909  0.1375 -0.1508
    1DIPC   C1A12713   0.784   4.054   5.795  0.0444 -0.2675  0.2984
    1DIPC   D2A12714   0.592   3.834   5.470 -0.1385  0.1733  0.3175
    1DIPC   D3A12715   0.632   3.836   5.050  0.2617 -0.1613  0.0410
    1DIPC   C4A12716   0.815   3.485   4.839 -0.3136  0.2038 -0.0850
    1DIPC   C1B12717   0.272   4.209   5.412 -0.1111 -0.1021 -0.0370
    1DIPC   D2B12718   0.171   4.035   5.014 -0.1353  0.0479  0.0214
    1DIPC   D3B12719   0.210   3.583   5.043 -0.0669  0.0344  0.2600
    1DIPC   C4B12720   0.274   3.453   4.606 -0.1757  0.2816  0.4657
    1DIPC   NC312721  12.505   4.493   6.428 -0.0857 -0.0543  0.0651
    1DIPC   PO412722  12.426   4.836   6.220 -0.1284  0.2339 -0.2497
    1DIPC   GL112723  12.750   4.874   5.946 -0.0892 -0.0842 -0.0856
    1DIPC   GL212724  12.956   4.621   5.837 -0.2252  0.0703 -0.0276
    1DIPC   C1A12725  12.780   4.859   5.481  0.0737 -0.0790  0.0092
    1DIPC   D2A12726  12.469   5.005   5.237  0.2350 -0.0577 -0.2626
    1DIPC   D3A12727  12.553   5.130   4.874 -0.1734  0.2891 -0.1221
    1DIPC   C4A12728  12.635   4.872   4.570 -0.2877  0.0266  0.2216
    1DIPC   C1B12729  13.057   4.410   5.437 -0.0822 -0.2163  0.3938
    1DIPC   D2B12730  13.275   4.125   5.210 -0.0627  0.1370  0.1616
    1DIPC   D3B12731  13.239   4.320   4.792  0.1604 -0.0697  0.0062
    1DIPC   C4B12732  13.524   4.075   4.531 -0.0374 -0.0089  0.0339
    1DIPC   NC312733  10.041  21.598   6.696 -0.0932  0.0544  0.1060
    1DIPC   PO412734   9.837  21.872   6.364  0.2601 -0.0873  0.1980
    1DIPC   GL112735   9.960  21.782   5.958  0.0596 -0.0051 -0.4115
    1DIPC   GL212736  10.260  21.751   5.904 -0.0220  0.1472  0.1697
    1DIPC   C1A12737   9.712  21.747   5.706  0.0434 -0.1230 -0.1534
    1DIPC   D2A12738   9.472  21.612   5.373  0.1864  0.4154 -0.1278
    1DIPC   D3A12739   9.776  21.447   5.191  0.0353 -0.0626  0.0848
    1DIPC   C4A12740   9.959  21.033   5.133 -0.1316  0.0173  0.1468
    1DIPC   C1B12741  10.140  21.666   5.496  0.4767 -0.0627 -0.4228
    1DIPC   D2B12742  10.047  21.835   5.055 -0.2882 -0.1728 -0.0906
    1DIPC   D3B12743   9.780  21.601   4.735 -0.1143  0.1155  0.1049
    1DIPC   C4B12744   9.697  21.233   4.623 -0.1555  0.0220 -0.0984
    1DIPC   NC312745   2.984  24.615   7.549  0.3301  0.1094 -0.0384
    1DIPC   PO412746   3.185  24.391   7.119 -0.1881  0.0198  0.1240
    1DIPC   GL112747   3.328  24.270   6.691  0.1427  0.1914 -0.0924
    1DIPC   GL212748   3.163  24.301   6.461  0.1113  0.2379 -0.1325
    1DIPC   C1A12749   3.594  24.220   6.194  0.1144 -0.1729  0.0372
    1DIPC   D2A12750   3.900  24.144   5.881  0.0841  0.0916 -0.0683
    1DIPC   D3A12751   4.184  24.451   5.652 -0.0530  0.1952 -0.4579
    1DIPC   C4A12752   4.018  24.841   5.419 -0.0898  0.1355 -0.0061
    1DIPC   C1B12753   3.063  24.249   5.993  0.2118  0.0273 -0.0802
    1DIPC   D2B12754   3.067  24.104   5.621  0.2577 -0.4013 -0.0442
    1DIPC   D3B12755   3.208  23.940   5.263 -0.0745  0.1689  0.2154
    1DIPC   C4B12756   3.071  24.186   5.062  0.0337  0.0808 -0.0227
    1DIPC   NC312757  15.934   4.436   6.730  0.2916 -0.0749  0.0315
    1DIPC   PO412758  16.306   4.612   6.511 -0.0283 -0.2168  0.2953
    1DIPC   GL112759  16.316   4.778   6.015  0.1121  0.2833 -0.2064
    1DIPC   GL212760  16.592   4.988   6.026 -0.3830 -0.1172  0.3395
    1DIPC   C1A12761  16.347   4.693   5.591 -0.3037 -0.0284 -0.1619
    1DIPC   D2A12762  16.351   4.594   5.248 -0.2344  0.1581  0.0483
    1DIPC   D3A12763  16.275   4.173   5.221  0.3469  0.0063  0.0814
    1DIPC   C4A12764  16.567   3.888   5.013 -0.2052  0.0380  0.1850
    1DIPC   C1B12765  16.793   4.812   5.633 -0.2192 -0.4062 -0.2284
    1DIPC   D2B12766  16.924   4.741   5.235 -0.1824 -0.1222  0.0975
    1DIPC   D3B12767  17.016   4.927   4.887 -0.0855 -0.0872  0.2479
    1DIPC   C4B12768  16.887   4.941   4.382  0.0328  0.0152 -0.1250
    1DIPC   NC312769   9.550  12.164   5.933  0.2928 -0.1071  0.1147
    1DIPC   PO412770   9.404  11.957   5.619 -0.1599 -0.0307 -0.1388
    1DIPC   GL112771   9.422  11.956   5.210 -0.3181 -0.1497  0.3941
    1DIPC   GL212772   9.473  11.679   5.025 -0.3292  0.2175 -0.1443
    1DIPC   C1A12773   9.256  11.891   4.673  0.1134 -0.0746 -0.0043
    1DIPC   D2A12774   8.875  11.725   4.420 -0.3642  0.1127  0.2189
    1DIPC   D3A12775   9.056  11.347   4.184  0.0504  0.1244 -0.0287
    1DIPC   C4A12776   8.995  10.977   4.033 -0.1195 -0.1726  0.0801
    1DIPC   C1B12777   9.364  11.349   4.584  0.0004  0.1947 -0.2227
    1DIPC   D2B12778   9.335  10.983   4.364  0.1328 -0.4172 -0.0986
    1DIPC   D3B12779   9.831  10.945   4.483 -0.0444 -0.2300  0.2631
    1DIPC   C4B12780  10.096  11.166   4.156 -0.1516  0.1217 -0.1712
    1DIPC   NC312781  13.924  26.316   6.453 -0.1773  0.2769  0.0721
    1DIPC   PO412782  14.296  25.902   6.471  0.2244 -0.0466 -0.1179
    1DIPC   GL112783  14.560  25.931   6.048  0.1194  0.3126 -0.0982
    1DIPC   GL212784  14.842  26.206   5.903  0.1261  0.0444 -0.4292
    1DIPC   C1A12785  14.597  25.762   5.631 -0.0908  0.2019  0.2519
    1DIPC   D2A12786  14.412  25.490   5.369  0.2778 -0.1867  0.1311
    1DIPC   D3A12787  14.631  25.692   5.078 -0.3532  0.5659 -0.0963
    1DIPC   C4A12788  14.588  26.032   4.786 -0.1642  0.0378 -0.0110
    1DIPC   C1B12789  15.084  26.390   5.525 -0.1808 -0.0728 -0.3589
    1DIPC   D2B12790  15.262  26.293   5.109  0.2339 -0.1957 -0.0310
    1DIPC   D3B12791  14.861  26.391   4.836 -0.0581 -0.1793  0.0395
    1DIPC   C4B12792  14.503  26.648   4.665  0.0565 -0.1235 -0.2644
    1DIPC   NC312793  11.967   0.273   6.400 -0.3074 -0.0828  0.4639
    1DIPC   PO412794  11.638   0.587   6.447  0.1110  0.0715  0.1425
    1DIPC   GL112795  11.716   0.593   5.995  0.1596 -0.1088 -0.1282
    1DIPC   GL212796  11.597   0.595   5.804  0.2348 -0.1909 -0.1566
    1DIPC   C1A12797  12.172   0.700   5.770 -0.0629  0.0503 -0.0067
    1DIPC   D2A12798  12.543   0.850   5.601  0.3967 -0.1429  0.1347
    1DIPC   D3A12799  12.345   0.774   5.245 -0.1069  0.1891  0.1890
    1DIPC   C4A12800  12.516   0.677   4.825  0.0795  0.0101 -0.1162
    1DIPC   C1B12801  11.849   0.519   5.412 -0.2248  0.5619 -0.1202
    1DIPC   D2B12802  11.936   0.504   5.047  0.0408  0.0314 -0.0418
    1DIPC   D3B12803  11.584   0.639   4.810 -0.1205  0.3217  0.2053
    1DIPC   C4B12804  11.539   1.060   4.860 -0.0345 -0.1667  0.0625
    1DIPC   NC312805   2.857   9.750   6.188  0.2569 -0.1155  0.1962
    1DIPC   PO412806   3.132  10.078   6.079  0.1964 -0.1419 -0.2408
    1DIPC   GL112807   2.973  10.232   5.642  0.0509  0.1547  0.0227
    1DIPC   GL212808   3.016  10.007   5.491  0.1760  0.0684  0.2361
    1DIPC   C1A12809   2.764  10.282   5.178 -0.0977  0.0601 -0.2106
    1DIPC   D2A12810   2.801  10.463   4.750  0.1120  0.1414  0.3110
    1DIPC   D3A12811   3.046  10.650   4.401  0.3957 -0.1309  0.4015
    1DIPC   C4A12812   3.153  11.030   4.290  0.0549  0.1620  0.0881
    1DIPC   C1B12813   3.220  10.039   5.047  0.0646  0.0901 -0.1279
    1DIPC   D2B12814   3.277  10.255   4.659  0.0698  0.2338  0.0532
    1DIPC   D3B12815   3.556  10.054   4.408  0.3203 -0.2040 -0.0442
    1DIPC   C4B12816   3.439   9.788   4.198  0.0434 -0.2545 -0.0247
    1DIPC   NC312817  12.208  20.092   5.865 -0.2072  0.2476  0.1970
    1DIPC   PO412818  12.594  20.378   5.891  0.4251  0.2022 -0.2104
    1DIPC   GL112819  12.419  20.492   5.473  0.0449  0.1225 -0.0532
    1DIPC   GL212820  12.335  20.307   5.248  0.0445  0.1624  0.6186
    1DIPC   C1A12821  12.303  20.776   5.143  0.0081 -0.1207  0.2135
    1DIPC   D2A12822  12.261  20.916   4.759 -0.0763 -0.1323 -0.1828
    1DIPC   D3A12823  12.490  21.144   4.537  0.2264 -0.1156  0.0010
    1DIPC   C4A12824  12.195  21.156   4.243 -0.1158 -0.3402 -0.1671
    1DIPC   C1B12825  12.740  20.354   5.073 -0.1220 -0.3460 -0.2108
    1DIPC   D2B12826  13.119  20.408   4.974 -0.2927 -0.1490  0.1141
    1DIPC   D3B12827  13.198  20.602   4.689 -0.3263 -0.2990 -0.1643
    1DIPC   C4B12828  13.088  21.065   4.498 -0.0350 -0.0293 -0.1034
    1DIPC   NC312829  21.351   6.201   7.350  0.2033 -0.2093 -0.1343
    1DIPC   PO412830  21.508   5.794   7.015 -0.1704  0.0749 -0.1719
    1DIPC   GL112831  21.820   5.620   6.726  0.2299 -0.0025 -0.0117
    1DIPC   GL212832  22.054   5.386   6.733  0.1146  0.0572 -0.1106
    1DIPC   C1A12833  22.004   5.587   6.262 -0.0496 -0.1230 -0.0250
    1DIPC   D2A12834  22.507   5.495   6.141 -0.0718  0.4448 -0.2242
    1DIPC   D3A12835  22.435   5.527   5.816  0.2874 -0.1219 -0.1776
    1DIPC   C4A12836  22.030   5.628   5.702 -0.0968 -0.1655 -0.3481
    1DIPC   C1B12837  21.604   5.181   6.628  0.3111  0.1966  0.0096
    1DIPC   D2B12838  21.357   4.866   6.810 -0.2476  0.1742 -0.0469
    1DIPC   D3B12839  21.673   4.657   6.577  0.1363 -0.0724  0.2012
    1DIPC   C4B12840  21.720   4.904   6.195  0.4709 -0.1125  0.3295
    1DIPC   NC312841  14.477  17.873   6.620 -0.0672 -0.1073  0.0385
    1DIPC   PO412842  14.701  18.314   6.549 -0.1359 -0.0193 -0.1098
    1DIPC   GL112843  14.991  18.275   6.235 -0.0266 -0.2075  0.1481
    1DIPC   GL212844  15.272  18.380   6.117  0.0293 -0.1589 -0.0667
    1DIPC   C1A12845  14.876  18.495   5.814 -0.0958 -0.1579  0.0202
    1DIPC   D2A12846  14.581  18.868   5.668 -0.0675  0.1546 -0.2521
    1DIPC   D3A12847  14.140  18.939   5.716 -0.0202  0.1073 -0.4057
    1DIPC   C4A12848  13.788  18.834   5.598  0.2581  0.1742 -0.4016
    1DIPC   C1B12849  15.200  18.162   5.659 -0.0751  0.0222 -0.1906
    1DIPC   D2B12850  15.173  17.817   5.381  0.0210  0.0729  0.1748
    1DIPC   D3B12851  15.216  17.879   4.963 -0.0270  0.0012  0.2215
    1DIPC   C4B12852  14.820  17.697   4.680  0.3586 -0.4429 -0.2368
    1DIPC   NC312853  28.636  24.393   6.943  0.0719 -0.0923  0.1173
    1DIPC   PO412854  28.862  24.627   6.615 -0.3522  0.0003 -0.0211
    1DIPC   GL112855  28.720  24.741   6.064  0.1753  0.0672  0.0882
    1DIPC   GL212856  28.329  24.646   6.015 -0.3729  0.0774  0.3426
    1DIPC   C1A12857  28.784  24.622   5.646 -0.0695 -0.1359  0.0016
    1DIPC   D2A12858  28.677  24.782   5.251 -0.0152  0.1568  0.0923
    1DIPC   D3A12859  28.392  24.450   5.380  0.0172 -0.3027  0.2341
    1DIPC   C4A12860  27.932  24.372   5.123  0.1667  0.2138 -0.0584
    1DIPC   C1B12861  27.972  24.473   5.738 -0.1622 -0.0281  0.1566
    1DIPC   D2B12862  27.841  24.119   5.535  0.1087 -0.0755 -0.2468
    1DIPC   D3B12863  28.231  23.955   5.462 -0.3712 -0.0076 -0.3190
    1DIPC   C4B12864  28.387  24.145   5.736  0.0626  0.1275 -0.1042
    1DIPC   NC312865   7.865   0.710   6.389  0.0858  0.0578 -0.1771
    1DIPC   PO412866   7.622   0.899   6.078  0.0721  0.1552  0.2142
    1DIPC   GL112867   7.335   0.792   5.741 -0.0075  0.2536 -0.0989
    1DIPC   GL212868   7.300   1.054   5.459 -0.2002  0.1520  0.0335
    1DIPC   C1A12869   6.824   0.777   5.425 -0.0920  0.0909  0.1106
    1DIPC   D2A12870   6.564   0.922   5.198 -0.1241 -0.0862  0.2898
    1DIPC   D3A12871   6.583   0.587   5.050 -0.0892 -0.2288 -0.5856
    1DIPC   C4A12872   6.361   0.429   4.696  0.0819  0.4535 -0.3579
    1DIPC   C1B12873   7.378   0.931   5.087 -0.0515 -0.1138  0.1932
    1DIPC   D2B12874   7.291   0.614   4.906  0.2925 -0.2239 -0.1494
    1DIPC   D3B12875   6.877   0.565   4.703  0.0567 -0.0531 -0.2915
    1DIPC   C4B12876   6.737   0.163   4.608 -0.1100  0.1473  0.0325
    1DIPC   NC312877  15.589  25.204   6.566  0.1540 -0.2030  0.0647
    1DIPC   PO412878  15.227  25.459   6.595  0.0232 -0.1004  0.1083
    1DIPC   GL112879  15.383  25.241   6.107 -0.0646 -0.1413 -0.1828
    1DIPC   GL212880  15.253  24.977   6.175 -0.2704  0.1549  0.1180
    1DIPC   C1A12881  15.440  25.197   5.664  0.1764 -0.0775 -0.1083
    1DIPC   D2A12882  15.582  25.176   5.303  0.0620 -0.0536 -0.2247
    1DIPC   D3A12883  15.893  24.871   4.999 -0.1262 -0.1300  0.4459
    1DIPC   C4A12884  16.246  25.075   5.028 -0.0112  0.1635 -0.1574
    1DIPC   C1B12885  15.014  24.973   5.746 -0.3051  0.0276  0.1513
    1DIPC   D2B12886  14.677  25.071   5.493  0.0873 -0.1594 -0.0308
    1DIPC   D3B12887  14.963  25.383   5.402  0.3907 -0.0756  0.0598
    1DIPC   C4B12888  15.281  25.544   5.171 -0.2808 -0.0600 -0.3008
    1DIPC   NC312889   7.314  23.403   6.650  0.1303  0.0636 -0.0150
    1DIPC   PO412890   7.776  23.577   6.582  0.0891 -0.0707  0.0877
    1DIPC   GL112891   7.632  23.567   6.122 -0.1182  0.0215  0.1888
    1DIPC   GL212892   7.415  23.361   6.061 -0.0867  0.1459  0.1533
    1DIPC   C1A12893   7.245  23.810   5.955 -0.0322 -0.2098  0.3189
    1DIPC   D2A12894   6.978  24.131   5.737  0.1859  0.4676 -0.3143
    1DIPC   D3A12895   6.918  23.993   5.281  0.2227 -0.0690 -0.0977
    1DIPC   C4A12896   7.204  23.989   4.931  0.0728  0.4143  0.1808
    1DIPC   C1B12897   7.279  23.506   5.595 -0.1453  0.3211 -0.1586
    1DIPC   D2B12898   7.117  23.481   5.164 -0.1459  0.0087 -0.0098
    1DIPC   D3B12899   7.172  23.182   4.909  0.1079  0.2942  0.0078
    1DIPC   C4B12900   7.018  23.186   4.608 -0.0633  0.0318 -0.1377
    1DIPC   NC312901  10.712   4.251   6.504 -0.0581 -0.0449  0.1780
    1DIPC   PO412902  11.097   4.364   6.306 -0.0376  0.2136  0.2045
    1DIPC   GL112903  11.275   4.164   5.888  0.0622 -0.0458 -0.2327
    1DIPC   GL212904  11.310   4.370   5.592 -0.0207 -0.0379 -0.2070
    1DIPC   C1A12905  11.110   3.892   5.595  0.2060 -0.0758  0.2827
    1DIPC   D2A12906  10.958   3.569   5.426  0.1262 -0.1205 -0.0978
    1DIPC   D3A12907  11.127   3.459   5.024  0.2502 -0.2633 -0.1402
    1DIPC   C4A12908  10.989   3.043   4.764  0.3243  0.1149  0.0150
    1DIPC   C1B12909  11.047   4.298   5.309 -0.1426  0.0043  0.0797
    1DIPC   D2B12910  10.741   4.000   5.228 -0.1679  0.0587 -0.1369
    1DIPC   D3B12911  10.989   3.953   4.847 -0.0313  0.2604  0.0779
    1DIPC   C4B12912  10.753   3.963   4.371 -0.0288 -0.3540 -0.2326
    1DIPC   NC312913   8.984  28.152   6.182  0.2131 -0.2451 -0.1763
    1DIPC   PO412914   9.055  27.716   6.013  0.1636 -0.0098 -0.1785
    1DIPC   GL112915   8.930  27.711   5.584  0.0644  0.3107  0.2255
    1DIPC   GL212916   8.857  27.420   5.420  0.2494  0.0366 -0.1328
    1DIPC   C1A12917   8.642  27.948   5.325 -0.0818 -0.4988 -0.2431
    1DIPC   D2A12918   8.462  27.852   4.920 -0.1865  0.2194 -0.0787
    1DIPC   D3A12919   8.664  28.044   4.513 -0.0730  0.1426 -0.1715
    1DIPC   C4A12920   9.158  28.066   4.557 -0.1397 -0.3103  0.3429
    1DIPC   C1B12921   8.755  27.459   4.989 -0.2512 -0.2418  0.2967
    1DIPC   D2B12922   8.871  27.604   4.595  0.3020  0.2517 -0.0909
    1DIPC   D3B12923   8.981  27.879   4.949 -0.1754 -0.0090 -0.2149
    1DIPC   C4B12924   9.289  28.165   5.078  0.1317  0.0265 -0.1713
    1DIPC   NC312925   5.081   3.472   6.097 -0.1074 -0.0927  0.0871
    1DIPC   PO412926   4.677   3.143   5.949  0.0165  0.0337 -0.1366
    1DIPC   GL112927   5.027   2.931   5.862  0.1230 -0.1651  0.1652
    1DIPC   GL212928   5.333   3.087   5.849  0.0768  0.0353 -0.2732
    1DIPC   C1A12929   5.261   2.655   5.915  0.1198  0.0607 -0.4437
    1DIPC   D2A12930   5.317   2.113   5.796  0.3074 -0.1187 -0.0903
    1DIPC   D3A12931   4.832   2.072   5.636 -0.2136  0.3657 -0.0822
    1DIPC   C4A12932   4.806   1.853   5.286  0.0858 -0.1219  0.2453
    1DIPC   C1B12933   5.222   2.924   5.346  0.0208  0.0049 -0.2143
    1DIPC   D2B12934   5.297   2.858   4.951 -0.1082  0.2202  0.1019
    1DIPC   D3B12935   5.066   2.984   4.618  0.4198  0.0151  0.1760
    1DIPC   C4B12936   5.410   2.971   4.354 -0.0389  0.0709 -0.1192
    1DIPC   NC312937  13.548  12.215   7.137  0.0895 -0.0241  0.0854
    1DIPC   PO412938  13.736  12.094   6.812  0.3453  0.1918 -0.3235
    1DIPC   GL112939  13.867  12.120   6.441 -0.3714  0.0559  0.1666
    1DIPC   GL212940  14.126  12.293   6.347 -0.0474 -0.1483  0.1309
    1DIPC   C1A12941  14.025  11.909   6.013 -0.0446  0.1074  0.2158
    1DIPC   D2A12942  14.026  11.519   5.785 -0.0385  0.0005 -0.2997
    1DIPC   D3A12943  13.515  11.456   5.584  0.1325  0.1029  0.0243
    1DIPC   C4A12944  13.565  11.221   5.203 -0.0596  0.4759  0.0410
    1DIPC   C1B12945  13.986  12.510   6.021 -0.0152 -0.1496 -0.3186
    1DIPC   D2B12946  13.664  12.786   5.909  0.0950  0.4039 -0.0951
    1DIPC   D3B12947  13.540  12.510   6.233 -0.1045 -0.1136 -0.1768
    1DIPC   C4B12948  13.613  12.214   5.989  0.1066 -0.1556  0.2519
    1DIPC   NC312949   3.396   8.281   5.735 -0.1008 -0.1630  0.1717
    1DIPC   PO412950   3.711   8.006   5.450 -0.2068 -0.0667  0.1705
    1DIPC   GL112951   3.790   7.841   5.073 -0.1117  0.2101 -0.0323
    1DIPC   GL212952   3.935   7.615   5.203  0.0449 -0.2695 -0.2119
    1DIPC   C1A12953   4.004   7.869   4.778  0.2710 -0.5054  0.2638
    1DIPC   D2A12954   3.932   8.039   4.334  0.2383 -0.1336  0.1620
    1DIPC   D3A12955   3.998   7.799   3.944  0.2486 -0.0861  0.2616
    1DIPC   C4A12956   4.449   7.765   3.855 -0.0736 -0.0390  0.1154
    1DIPC   C1B12957   3.505   7.418   4.977  0.1950  0.1593  0.3001
    1DIPC   D2B12958   3.165   7.219   4.848  0.1703  0.0731  0.2240
    1DIPC   D3B12959   3.391   7.125   4.509  0.3783 -0.0320 -0.2042
    1DIPC   C4B12960   3.688   6.971   4.189  0.2030 -0.1919  0.2053
    1DIPC   NC312961  10.796   2.258   6.795  0.1903 -0.1008  0.1004
    1DIPC   PO412962  10.701   2.398   6.418 -0.0885 -0.0227  0.0831
    1DIPC   GL112963  10.670   2.404   5.978 -0.2080  0.2600  0.0289
    1DIPC   GL212964  10.616   2.231   5.726 -0.0987 -0.1831  0.1179
    1DIPC   C1A12965  10.725   2.713   5.656  0.0489  0.2562 -0.0993
    1DIPC   D2A12966  10.473   2.993   5.549  0.0366  0.0150  0.2512
    1DIPC   D3A12967  10.491   2.629   5.237  0.0805  0.0792 -0.1549
    1DIPC   C4A12968  10.806   2.592   4.960  0.0849 -0.1502  0.5791
    1DIPC   C1B12969  10.635   2.096   5.237 -0.1276  0.0001 -0.3234
    1DIPC   D2B12970  10.709   2.156   4.688 -0.1240  0.1508  0.3984
    1DIPC   D3B12971  10.416   2.451   4.512 -0.2019  0.2300  0.1220
    1DIPC   C4B12972  10.008   2.305   4.502  0.1393 -0.0747 -0.0857
    1DIPC   NC312973  25.692  23.433   7.514 -0.0851  0.0703  0.0404
    1DIPC   PO412974  26.029  23.142   7.342 -0.0086 -0.3253 -0.0017
    1DIPC   GL112975  26.190  23.193   6.917  0.0747 -0.4048  0.1025
    1DIPC   GL212976  26.394  23.431   6.881  0.0703  0.1454  0.1724
    1DIPC   C1A12977  26.076  23.445   6.504  0.0082  0.2235 -0.0751
    1DIPC   D2A12978  26.052  23.337   6.112  0.1780 -0.3899 -0.1041
    1DIPC   D3A12979  25.935  23.584   5.688 -0.0840  0.1050  0.0922
    1DIPC   C4A12980  25.989  23.371   5.237  0.0292  0.1543  0.0724
    1DIPC   C1B12981  26.058  23.848   6.888  0.0657  0.1304  0.0305
    1DIPC   D2B12982  26.217  24.185   6.777 -0.0092  0.0889 -0.0481
    1DIPC   D3B12983  26.467  23.869   6.604 -0.1576 -0.3021  0.0336
    1DIPC   C4B12984  26.264  23.890   6.155 -0.0121  0.0447  0.1251
    1DIPC   NC312985  14.195  18.411   6.453  0.4188  0.0528 -0.2623
    1DIPC   PO412986  14.056  17.965   6.355 -0.1866  0.4540  0.0825
    1DIPC   GL112987  14.127  17.721   5.983 -0.3003  0.2241  0.0771
    1DIPC   GL212988  13.865  17.712   5.773  0.0139  0.1668  0.2550
    1DIPC   C1A12989  14.453  17.470   5.819  0.1029 -0.5188  0.0391
    1DIPC   D2A12990  14.812  17.461   5.579 -0.0194  0.0802  0.0508
    1DIPC   D3A12991  14.729  17.500   5.129  0.0709  0.1156 -0.0604
    1DIPC   C4A12992  14.705  17.935   5.152 -0.1122  0.0908 -0.1338
    1DIPC   C1B12993  13.896  17.680   5.389  0.3134 -0.0924  0.2308
    1DIPC   D2B12994  14.281  17.628   5.205  0.0495 -0.0217  0.2365
    1DIPC   D3B12995  14.303  17.521   4.680  0.3680  0.2152 -0.0263
    1DIPC   C4B12996  14.460  17.785   4.330 -0.0484  0.1521 -0.0448
    1DIPC   NC312997  15.407  20.016   6.087 -0.1806  0.1439 -0.0886
    1DIPC   PO412998  15.556  20.245   6.415 -0.1154 -0.4818  0.2462
    1DIPC   GL112999  15.666  20.473   6.042  0.2302  0.4461  0.2321
    1DIPC   GL213000  15.406  20.711   5.962  0.1075  0.2607 -0.3003
    1DIPC   C1A13001  15.806  20.440   5.529 -0.0845  0.0325 -0.0536
    1DIPC   D2A13002  15.988  20.738   5.338  0.3921 -0.3212  0.0766
    1DIPC   D3A13003  16.109  21.032   5.642  0.2884  0.0375  0.0808
    1DIPC   C4A13004  16.314  20.810   5.835 -0.5446  0.0426 -0.0632
    1DIPC   C1B13005  15.478  20.815   5.492 -0.2090 -0.1934  0.2231
    1DIPC   D2B13006  15.286  20.976   5.083  0.1164 -0.0024  0.0755
    1DIPC   D3B13007  15.457  20.853   4.686 -0.2072  0.0809 -0.1016
    1DIPC   C4B13008  15.671  20.548   4.394 -0.1104 -0.4084  0.2134
    1DIPC   NC313009   0.463  16.658   7.191  0.3372  0.0135  0.2583
    1DIPC   PO413010   0.152  16.855   6.943  0.1486 -0.0563  0.1078
    1DIPC   GL113011   0.362  16.864   6.472 -0.1510  0.0276  0.2950
    1DIPC   GL213012   0.665  16.781   6.561 -0.1386  0.0109 -0.2415
    1DIPC   C1A13013   0.126  16.925   6.091  0.1724  0.0036 -0.0592
    1DIPC   D2A13014   0.066  17.091   5.697 -0.2686 -0.0189  0.1449
    1DIPC   D3A13015   0.381  16.942   5.309 -0.0459 -0.0585  0.2202
    1DIPC   C4A13016   0.653  16.595   5.347 -0.2436 -0.0842  0.1407
    1DIPC   C1B13017   0.671  16.653   6.112  0.1184 -0.4128 -0.1079
    1DIPC   D2B13018   0.998  16.572   5.715 -0.1128 -0.0871 -0.0336
    1DIPC   D3B13019   1.035  16.858   5.411 -0.1254  0.3653  0.1821
    1DIPC   C4B13020   1.279  16.765   5.189  0.3097  0.0761  0.1594
    1DIPC   NC313021  17.870  27.028   7.317 -0.1577  0.0843 -0.2072
    1DIPC   PO413022  18.035  27.514   7.390  0.0353  0.1915  0.3107
    1DIPC   GL113023  17.985  27.397   6.997  0.0463 -0.2333 -0.1166
    1DIPC   GL213024  17.738  27.575   6.817 -0.0796 -0.1140 -0.0020
    1DIPC   C1A13025  18.233  27.379   6.610  0.1412  0.1880 -0.2303
    1DIPC   D2A13026  18.297  27.325   6.156 -0.0362 -0.0865  0.0455
    1DIPC   D3A13027  18.029  27.207   5.831 -0.1022  0.1553 -0.1322
    1DIPC   C4A13028  17.921  27.603   5.622 -0.1422  0.2929 -0.2396
    1DIPC   C1B13029  17.881  27.672   6.458  0.2237 -0.1467 -0.0701
    1DIPC   D2B13030  17.927  27.652   6.094  0.1351  0.3025 -0.1234
    1DIPC   D3B13031  17.971  28.052   5.985 -0.4443  0.1920 -0.0390
    1DIPC   C4B13032  18.064  28.164   5.646 -0.0221  0.2034  0.1506
    1DIPC   NC313033  19.522  29.567   7.656  0.2211 -0.1214 -0.0352
    1DIPC   PO413034  19.114  29.449   7.378  0.1269  0.0330 -0.0415
    1DIPC   GL113035  19.019  29.328   6.984 -0.4662 -0.2800 -0.2547
    1DIPC   GL213036  18.975  29.175   6.694 -0.3239 -0.1883 -0.0096
    1DIPC   C1A13037  18.802  29.578   6.527  0.0521  0.2465 -0.0795
    1DIPC   D2A13038  18.730  29.609   6.093 -0.3359 -0.1210 -0.0464
    1DIPC   D3A13039  18.649   0.401   6.063 -0.0021  0.1300  0.4214
    1DIPC   C4A13040  18.548   0.622   5.628 -0.3338 -0.1964 -0.2054
    1DIPC   C1B13041  19.132  29.335   6.291  0.2396  0.0460  0.0128
    1DIPC   D2B13042  19.109  29.384   5.834  0.3383  0.1636 -0.2351
    1DIPC   D3B13043  18.826  29.595   5.553 -0.0230  0.1862  0.1466
    1DIPC   C4B13044  18.403   0.104   5.716  0.4121 -0.1511 -0.1948
    1DIPC   NC313045   2.950  10.822   6.689  0.1151 -0.0294 -0.0414
    1DIPC   PO413046   2.715  11.134   6.511 -0.1360  0.0352  0.0333
    1DIPC   GL113047   2.931  11.092   6.075  0.0074 -0.0001  0.0148
    1DIPC   GL213048   3.186  11.209   6.047 -0.0451 -0.0690  0.1063
    1DIPC   C1A13049   2.865  11.147   5.610  0.0564 -0.1678 -0.1974
    1DIPC   D2A13050   2.642  11.211   5.256 -0.0538 -0.0440 -0.0062
    1DIPC   D3A13051   2.545  11.386   4.885 -0.0169 -0.1104  0.1405
    1DIPC   C4A13052   2.229  11.196   4.614  0.0376 -0.0255  0.1332
    1DIPC   C1B13053   3.195  10.849   5.755 -0.0310 -0.0001  0.0831
    1DIPC   D2B13054   2.947  10.709   5.415  0.2965  0.2865  0.2372
    1DIPC   D3B13055   3.159  11.071   5.241  0.1241 -0.1081 -0.0271
    1DIPC   C4B13056   3.070  11.186   4.831 -0.1378 -0.1169  0.0106
    1DIPC   NC313057   9.935  10.067   6.595 -0.0132 -0.0103 -0.1811
    1DIPC   PO413058   9.920   9.646   6.493  0.0035 -0.1381 -0.2758
    1DIPC   GL113059  10.084   9.579   6.005 -0.0494 -0.0968 -0.0409
    1DIPC   GL213060  10.047   9.222   5.944  0.0040 -0.2567 -0.1924
    1DIPC   C1A13061  10.355   9.595   5.583  0.0454  0.0545  0.0306
    1DIPC   D2A13062  10.461   9.820   5.272  0.1029  0.0379  0.1916
    1DIPC   D3A13063  10.929   9.852   4.990 -0.0893  0.0800 -0.0093
    1DIPC   C4A13064  11.033   9.479   4.910 -0.0024  0.2192  0.2646
    1DIPC   C1B13065   9.689   9.137   5.842  0.3747  0.1379 -0.0334
    1DIPC   D2B13066   9.295   9.024   5.644 -0.0480 -0.2056  0.2035
    1DIPC   D3B13067   9.221   8.780   5.300  0.2101 -0.1109 -0.0197
    1DIPC   C4B13068   9.558   8.735   5.045  0.3640 -0.0525 -0.0051
    1DIPC   NC313069  15.728   6.583   6.817  0.0110  0.0371 -0.0583
    1DIPC   PO413070  15.845   6.514   6.452 -0.0089 -0.2475 -0.1688
    1DIPC   GL113071  15.977   6.879   6.210  0.2153 -0.1955 -0.2838
    1DIPC   GL213072  15.716   7.104   6.132  0.0128  0.1011 -0.0841
    1DIPC   C1A13073  16.115   6.993   5.798 -0.0378 -0.1071  0.0058
    1DIPC   D2A13074  16.084   7.131   5.440 -0.0613 -0.0716 -0.2129
    1DIPC   D3A13075  16.327   7.500   5.555 -0.1476  0.0520 -0.3797
    1DIPC   C4A13076  16.344   7.404   6.054  0.0539 -0.5065 -0.0139
    1DIPC   C1B13077  15.850   7.439   5.809 -0.1631  0.0166 -0.1319
    1DIPC   D2B13078  15.878   7.619   5.423  0.0392 -0.0667 -0.0810
    1DIPC   D3B13079  15.611   7.240   5.370  0.3350 -0.0504 -0.1367
    1DIPC   C4B13080  15.274   7.062   5.667  0.0106 -0.1033 -0.2426
    1DIPC   NC313081  20.211  27.671   7.676  0.1285 -0.1279 -0.2442
    1DIPC   PO413082  19.931  27.619   7.563 -0.2832  0.0461  0.2882
    1DIPC   GL113083  20.106  27.790   7.154 -0.0556 -0.1424  0.0149
    1DIPC   GL213084  19.689  27.886   7.010 -0.1850  0.1678  0.2851
    1DIPC   C1A13085  20.420  27.776   6.759  0.1891 -0.0790  0.0803
    1DIPC   D2A13086  20.613  27.628   6.370 -0.0780 -0.0587  0.0522
    1DIPC   D3A13087  20.582  27.354   5.963  0.0437 -0.1423 -0.0508
    1DIPC   C4A13088  20.902  27.240   5.822 -0.0760  0.2207 -0.3338
    1DIPC   C1B13089  19.965  27.906   6.631 -0.2377  0.0727 -0.0680
    1DIPC   D2B13090  20.012  27.611   6.247 -0.0179 -0.1380  0.3573
    1DIPC   D3B13091  19.602  27.557   5.972  0.0997  0.1135  0.1651
    1DIPC   C4B13092  19.289  27.371   6.297 -0.3224  0.0901  0.1648
    1DIPC   NC313093   2.068  23.535   7.206  0.2063 -0.1554 -0.4072
    1DIPC   PO413094   1.892  23.914   7.145 -0.0540  0.0305  0.0869
    1DIPC   GL113095   1.634  23.790   6.674 -0.0234 -0.1065 -0.2929
    1DIPC   GL213096   1.786  23.936   6.391 -0.1758  0.0171 -0.3979
    1DIPC   C1A13097   1.276  23.879   6.403  0.0727 -0.2196 -0.3735
    1DIPC   D2A13098   0.738  23.861   6.396  0.0456 -0.0212 -0.0821
    1DIPC   D3A13099   0.588  23.615   6.127 -0.2587  0.0396  0.1119
    1DIPC   C4A13100   0.765  23.448   5.772  0.1649 -0.0593  0.2873
    1DIPC   C1B13101   1.542  23.851   6.018 -0.0069 -0.0636  0.0519
    1DIPC   D2B13102   1.341  23.520   5.887 -0.3315  0.0500 -0.2212
    1DIPC   D3B13103   1.369  23.721   5.476  0.1740  0.1513  0.2048
    1DIPC   C4B13104   1.726  23.817   5.193 -0.0395  0.2463  0.1216
    1DIPC   NC313105  22.534  18.770   7.122 -0.1083 -0.4073 -0.3790
    1DIPC   PO413106  22.666  18.434   6.959  0.2117 -0.0441  0.0399
    1DIPC   GL113107  22.599  18.261   6.546  0.0567  0.1382 -0.3479
    1DIPC   GL213108  22.572  18.444   6.309 -0.0764  0.1829 -0.1853
    1DIPC   C1A13109  22.411  17.889   6.304 -0.0024  0.0132 -0.4206
    1DIPC   D2A13110  22.122  17.730   6.040 -0.0979  0.0042 -0.1102
    1DIPC   D3A13111  22.149  17.931   5.658  0.1973  0.2693 -0.0687
    1DIPC   C4A13112  22.312  17.880   5.296 -0.3005 -0.0796  0.0594
    1DIPC   C1B13113  22.711  18.849   6.082  0.2880  0.3020 -0.0084
    1DIPC   D2B13114  22.937  19.176   6.292  0.1678  0.2437 -0.1241
    1DIPC   D3B13115  22.667  19.331   5.960 -0.0992  0.0767  0.0038
    1DIPC   C4B13116  22.708  19.637   5.802 -0.0133  0.1009  0.1583
    1DIPC   NC313117  10.984   6.440   6.381  0.0612 -0.0275  0.0922
    1DIPC   PO413118  11.175   6.709   6.132 -0.0458  0.1205 -0.2560
    1DIPC   GL113119  10.905   6.978   5.950 -0.1055 -0.0490  0.0348
    1DIPC   GL213120  10.792   7.307   6.000 -0.1406  0.0474 -0.1208
    1DIPC   C1A13121  10.578   7.035   5.552 -0.0091  0.3985 -0.0176
    1DIPC   D2A13122  10.391   7.259   5.264  0.0395 -0.1319 -0.1106
    1DIPC   D3A13123  10.545   7.343   4.795  0.0029 -0.5033  0.0913
    1DIPC   C4A13124  10.594   7.730   4.784 -0.3450 -0.0252 -0.1356
    1DIPC   C1B13125  10.967   7.386   5.563  0.0531  0.1676 -0.1745
    1DIPC   D2B13126  10.707   7.677   5.288 -0.2496  0.0340 -0.0627
    1DIPC   D3B13127  10.646   8.127   5.258  0.0165 -0.0224 -0.2359
    1DIPC   C4B13128  10.745   8.240   4.817  0.0149  0.0765  0.2459
    1DIPC   NC313129   8.656   3.162   6.558 -0.0569 -0.1528 -0.0989
    1DIPC   PO413130   8.964   3.383   6.205  0.1694 -0.2812  0.2211
    1DIPC   GL113131   8.937   3.262   5.808  0.0280  0.0868  0.0235
    1DIPC   GL213132   9.237   3.252   5.600  0.0277  0.0305  0.0707
    1DIPC   C1A13133   8.766   3.223   5.315  0.2967 -0.1495 -0.2521
    1DIPC   D2A13134   8.654   3.055   4.867 -0.0048 -0.2075 -0.4476
    1DIPC   D3A13135   8.231   3.389   4.983  0.1492  0.0433 -0.4039
    1DIPC   C4A13136   7.868   3.319   4.608 -0.1834 -0.0354 -0.0966
    1DIPC   C1B13137   9.241   3.123   5.170  0.0709  0.1225 -0.0731
    1DIPC   D2B13138   9.320   2.985   4.711  0.0784 -0.2002  0.0336
    1DIPC   D3B13139   8.938   3.046   4.502 -0.0806  0.0747 -0.2687
    1DIPC   C4B13140   8.810   3.268   4.090 -0.1259  0.1700  0.0564
    1DIPC   NC313141  12.703  23.782   6.080  0.2455 -0.0687 -0.3390
    1DIPC   PO413142  12.289  23.620   6.301 -0.2740 -0.1204  0.2218
    1DIPC   GL113143  12.132  23.377   5.911 -0.1861  0.0311  0.2053
    1DIPC   GL213144  11.908  23.606   5.992 -0.1798 -0.1580 -0.0230
    1DIPC   C1A13145  12.162  23.419   5.447  0.1820 -0.3201  0.1882
    1DIPC   D2A13146  11.942  23.737   5.284 -0.1013  0.0467 -0.0596
    1DIPC   D3A13147  11.786  23.713   4.885  0.0344 -0.0743  0.0485
    1DIPC   C4A13148  11.732  23.278   4.758 -0.0529 -0.0920  0.2193
    1DIPC   C1B13149  12.102  23.894   5.695  0.0550 -0.2330  0.0270
    1DIPC   D2B13150  12.059  24.196   5.506 -0.0288  0.1759  0.2524
    1DIPC   D3B13151  11.917  24.174   5.079  0.0745 -0.1168 -0.1057
    1DIPC   C4B13152  11.770  24.513   5.019 -0.0585 -0.0383  0.1134
    1DIPC   NC313153   0.933  27.318   6.721  0.0783 -0.2590 -0.4213
    1DIPC   PO413154   0.683  27.684   6.524  0.4267 -0.2904  0.2932
    1DIPC   GL113155   0.799  27.529   6.229 -0.4378  0.2481 -0.3122
    1DIPC   GL213156   0.864  27.861   6.094 -0.1671 -0.1723 -0.1297
    1DIPC   C1A13157   1.171  27.476   5.914  0.4446 -0.0800  0.1404
    1DIPC   D2A13158   1.348  27.436   5.556  0.0044  0.2203 -0.1502
    1DIPC   D3A13159   1.194  27.128   5.369  0.1409  0.1690  0.2827
    1DIPC   C4A13160   1.445  26.793   5.309 -0.1798  0.2678 -0.0057
    1DIPC   C1B13161   0.654  27.752   5.699 -0.2779 -0.1125  0.2027
    1DIPC   D2B13162   0.489  27.890   5.284  0.2713  0.0939  0.0816
    1DIPC   D3B13163   0.510  27.535   5.030  0.1085  0.1623 -0.1040
    1DIPC   C4B13164   0.272  27.147   5.059 -0.1352  0.2800  0.1533
    1DIPC   NC313165   0.465  19.071   7.485 -0.0948 -0.0924  0.1978
    1DIPC   PO413166   0.245  18.678   7.315  0.1760  0.0127 -0.0066
    1DIPC   GL113167   0.013  18.698   6.887  0.2553 -0.1391 -0.0779
    1DIPC   GL213168  29.399  18.854   6.898  0.3375  0.1697  0.0009
    1DIPC   C1A13169  29.615  18.462   6.524  0.0112 -0.0600  0.0341
    1DIPC   D2A13170   0.035  18.501   6.069  0.0775  0.0530  0.0363
    1DIPC   D3A13171   0.094  18.301   5.741  0.2516 -0.0868 -0.2337
    1DIPC   C4A13172  29.565  18.551   5.371  0.1953 -0.1793  0.2182
    1DIPC   C1B13173  29.538  19.000   6.471 -0.1008  0.1142  0.0633
    1DIPC   D2B13174  29.616  19.378   6.126 -0.1215 -0.4045  0.1421
    1DIPC   D3B13175   0.170  19.696   6.005  0.2253  0.0108 -0.0702
    1DIPC   C4B13176   0.025  20.100   5.871 -0.0207  0.0680  0.0023
    1DIPC   NC313177  26.678  16.057   7.021  0.0251  0.0085 -0.1903
    1DIPC   PO413178  26.843  16.505   7.040 -0.2605 -0.2847  0.0620
    1DIPC   GL113179  26.963  16.537   6.632  0.2391 -0.0098 -0.0663
    1DIPC   GL213180  26.976  16.306   6.566  0.0833 -0.0038 -0.0726
    1DIPC   C1A13181  26.915  16.887   6.479 -0.0415  0.2487  0.3694
    1DIPC   D2A13182  26.837  17.139   6.077  0.3111  0.0149  0.1589
    1DIPC   D3A13183  26.744  17.084   5.696 -0.1456  0.0170 -0.1456
    1DIPC   C4A13184  27.089  17.354   5.460  0.2833 -0.1292  0.2730
    1DIPC   C1B13185  26.991  16.481   6.113  0.0267 -0.1529  0.3437
    1DIPC   D2B13186  26.970  16.439   5.621  0.2181  0.3771 -0.1591
    1DIPC   D3B13187  26.832  16.194   5.293 -0.2254  0.2054 -0.1065
    1DIPC   C4B13188  26.713  16.236   4.836 -0.1076 -0.0380 -0.0951
    1DIPC   NC313189  25.219  18.298   6.513  0.0245 -0.1907 -0.3836
    1DIPC   PO413190  25.492  18.125   6.571  0.1823  0.4158  0.2254
    1DIPC   GL113191  25.162  18.005   6.100  0.2669 -0.0659  0.1864
    1DIPC   GL213192  25.019  18.263   5.919  0.0757 -0.0214 -0.0567
    1DIPC   C1A13193  25.073  17.746   5.804 -0.0901  0.1520 -0.3248
    1DIPC   D2A13194  25.236  17.600   5.474  0.4632 -0.1681  0.0361
    1DIPC   D3A13195  25.360  18.008   5.536  0.0268  0.2491 -0.1782
    1DIPC   C4A13196  25.273  18.346   5.228  0.1129  0.1106 -0.2283
    1DIPC   C1B13197  25.396  18.420   5.861 -0.0390 -0.1667 -0.1875
    1DIPC   D2B13198  25.746  18.380   5.660  0.0934  0.0743 -0.2970
    1DIPC   D3B13199  25.608  18.668   5.302 -0.1717  0.2219  0.0050
    1DIPC   C4B13200  25.858  18.920   5.325  0.3717 -0.1702  0.1415
    1DIPC   NC313201  14.433   2.365   6.525 -0.0436 -0.2515 -0.0465
    1DIPC   PO413202  14.500   2.757   6.322  0.1114 -0.0490 -0.0270
    1DIPC   GL113203  14.560   2.459   6.017  0.2189  0.1839  0.1303
    1DIPC   GL213204  14.390   2.071   6.022  0.2970  0.2161 -0.1394
    1DIPC   C1A13205  14.695   2.485   5.554 -0.3178  0.0124 -0.1570
    1DIPC   D2A13206  14.776   2.555   5.095  0.0102  0.0017  0.2741
    1DIPC   D3A13207  14.542   2.469   4.642  0.1463  0.2267  0.1419
    1DIPC   C4A13208  14.588   1.982   4.505 -0.0984 -0.1652 -0.3683
    1DIPC   C1B13209  14.363   2.123   5.572 -0.1051 -0.2266  0.3687
    1DIPC   D2B13210  14.304   2.362   5.278  0.1358 -0.1496 -0.0048
    1DIPC   D3B13211  14.099   2.261   4.849  0.4777  0.1037 -0.0957
    1DIPC   C4B13212  14.075   1.865   4.544  0.0248 -0.1898  0.3679
    1DIPC   NC313213  27.206  21.741   7.255  0.0335  0.1030  0.0945
    1DIPC   PO413214  27.595  21.993   7.103  0.0019 -0.0523  0.1854
    1DIPC   GL113215  27.577  22.013   6.672 -0.3603  0.2650 -0.0750
    1DIPC   GL213216  27.973  22.039   6.526  0.1119 -0.3109  0.1162
    1DIPC   C1A13217  27.196  22.049   6.434 -0.0397  0.0267  0.0265
    1DIPC   D2A13218  26.770  22.017   6.352  0.2852 -0.1533  0.3552
    1DIPC   D3A13219  27.077  21.714   6.056 -0.0005 -0.1193  0.0539
    1DIPC   C4A13220  27.446  21.811   6.032  0.0698  0.0749 -0.0924
    1DIPC   C1B13221  28.024  22.009   6.156  0.0803 -0.1057 -0.0792
    1DIPC   D2B13222  27.811  22.174   5.777  0.1461 -0.0385  0.1541
    1DIPC   D3B13223  27.643  21.893   5.498 -0.0006 -0.1755 -0.3713
    1DIPC   C4B13224  27.191  21.638   5.605  0.3188  0.1510 -0.0680
    1DIPC   NC313225   8.018  11.060   6.245 -0.1647 -0.1013  0.0845
    1DIPC   PO413226   8.197  10.750   5.966 -0.0806 -0.1680  0.2251
    1DIPC   GL113227   7.997  10.833   5.662 -0.0624  0.0989  0.2388
    1DIPC   GL213228   8.002  11.002   5.454 -0.0122  0.2577  0.0442
    1DIPC   C1A13229   7.928  10.538   5.213 -0.0684 -0.0528 -0.2296
    1DIPC   D2A13230   7.680  10.654   4.740 -0.2718  0.1543  0.2627
    1DIPC   D3A13231   7.480  10.607   4.340  0.2663  0.0264 -0.2028
    1DIPC   C4A13232   7.126  10.895   4.343 -0.0612 -0.3280 -0.0859
    1DIPC   C1B13233   8.119  11.356   5.130  0.3185  0.0992  0.0800
    1DIPC   D2B13234   8.358  11.722   5.236  0.0361  0.2395  0.1812
    1DIPC   D3B13235   8.404  11.645   4.725 -0.1509  0.1031 -0.0575
    1DIPC   C4B13236   8.124  11.389   4.425  0.2210  0.4134  0.0706
    1DIPC   NC313237  28.722   3.179   6.962 -0.1348  0.3194  0.2385
    1DIPC   PO413238  28.425   2.922   6.809  0.0501 -0.0258 -0.0888
    1DIPC   GL113239  28.217   2.724   6.515  0.0756  0.1966 -0.1699
    1DIPC   GL213240  28.040   2.934   6.260  0.0355  0.4421  0.2939
    1DIPC   C1A13241  28.323   2.501   6.144 -0.2090  0.3065  0.1461
    1DIPC   D2A13242  28.133   2.317   5.775 -0.0640  0.0634 -0.0107
    1DIPC   D3A13243  28.163   2.638   5.393  0.0372 -0.0161 -0.1449
    1DIPC   C4A13244  28.323   2.438   4.975 -0.1855 -0.1023 -0.2957
    1DIPC   C1B13245  28.139   2.904   5.841 -0.0121 -0.0764  0.0205
    1DIPC   D2B13246  28.135   3.182   5.428 -0.0135 -0.3061  0.2580
    1DIPC   D3B13247  28.213   3.141   5.031 -0.1890 -0.5179 -0.1671
    1DIPC   C4B13248  28.205   3.369   4.798  0.0252  0.0262 -0.3786
    1DIPC   NC313249  18.688  16.334   7.745  0.0395 -0.2218 -0.2259
    1DIPC   PO413250  18.555  16.757   7.476 -0.2635  0.2573 -0.0017
    1DIPC   GL113251  18.628  16.468   7.117 -0.2984  0.1510  0.1314
    1DIPC   GL213252  18.876  16.649   6.923 -0.0592 -0.1012  0.3580
    1DIPC   C1A13253  18.507  16.195   6.827 -0.2726  0.1018 -0.4753
    1DIPC   D2A13254  18.115  16.159   6.667  0.0575 -0.1320  0.4482
    1DIPC   D3A13255  18.270  15.759   6.481  0.1064 -0.1600 -0.1980
    1DIPC   C4A13256  18.351  15.734   6.081  0.0782  0.0726 -0.1372
    1DIPC   C1B13257  18.649  16.804   6.520  0.2612 -0.1897  0.1015
    1DIPC   D2B13258  18.725  16.763   6.036 -0.1837 -0.2637 -0.1575
    1DIPC   D3B13259  18.913  16.430   5.865  0.4392 -0.0077  0.1551
    1DIPC   C4B13260  19.006  16.185   5.535  0.0665  0.2348 -0.0430
    1DIPC   NC313261  13.003   3.756   6.262  0.3361  0.2913  0.4183
    1DIPC   PO413262  12.645   3.505   6.310 -0.1963  0.2629  0.0221
    1DIPC   GL113263  12.737   3.640   5.842 -0.0678 -0.0517 -0.2958
    1DIPC   GL213264  12.667   3.915   5.740 -0.3914  0.2994 -0.2413
    1DIPC   C1A13265  12.822   3.418   5.453  0.0941  0.0556 -0.1283
    1DIPC   D2A13266  12.780   3.583   4.982 -0.1513 -0.1421  0.2198
    1DIPC   D3A13267  12.957   3.109   4.894 -0.4106 -0.0894  0.5537
    1DIPC   C4A13268  12.881   2.844   4.550  0.1384  0.4438  0.2738
    1DIPC   C1B13269  12.684   4.004   5.271 -0.2997 -0.1063 -0.1607
    1DIPC   D2B13270  12.586   4.087   4.859 -0.1834  0.0238 -0.1723
    1DIPC   D3B13271  12.607   4.373   4.553 -0.1714  0.0821 -0.0745
    1DIPC   C4B13272  12.926   4.517   4.334  0.0116  0.0953  0.0368
    1DIPC   NC313273  28.092  20.149   7.528  0.1076  0.0139  0.2159
    1DIPC   PO413274  28.406  20.387   7.375 -0.2292 -0.2256  0.2184
    1DIPC   GL113275  28.307  20.167   6.992  0.1262  0.1365 -0.0186
    1DIPC   GL213276  28.146  19.858   6.833 -0.1056  0.0238 -0.2557
    1DIPC   C1A13277  28.237  20.261   6.474  0.0211 -0.1672 -0.0557
    1DIPC   D2A13278  28.472  20.099   6.055 -0.2991  0.0422 -0.0489
    1DIPC   D3A13279  28.282  20.178   5.748 -0.2513 -0.1199  0.3867
    1DIPC   C4A13280  27.920  20.304   5.530  0.0733 -0.0819  0.0376
    1DIPC   C1B13281  28.481  19.766   6.598  0.0631 -0.1839 -0.1416
    1DIPC   D2B13282  28.617  19.502   6.303  0.2559  0.0063 -0.2971
    1DIPC   D3B13283  28.899  19.706   5.998  0.2793 -0.1271  0.3209
    1DIPC   C4B13284  28.861  20.122   5.703  0.1157  0.1488  0.1154
    1DIPC   NC313285  22.360  24.621   7.916  0.2842  0.1836 -0.3074
    1DIPC   PO413286  22.454  24.401   7.520  0.0730 -0.2610 -0.1529
    1DIPC   GL113287  22.551  24.201   7.163 -0.0011 -0.1778  0.0226
    1DIPC   GL213288  22.816  24.140   7.043 -0.0471  0.7319  0.0341
    1DIPC   C1A13289  22.360  24.102   6.742 -0.2800  0.2424 -0.0403
    1DIPC   D2A13290  22.416  24.027   6.264 -0.0816 -0.3321  0.0018
    1DIPC   D3A13291  22.294  23.671   6.394 -0.0913  0.0495  0.1999
    1DIPC   C4A13292  21.872  23.540   6.268  0.0246 -0.1559 -0.2723
    1DIPC   C1B13293  22.910  24.173   6.603  0.0283  0.3328 -0.0028
    1DIPC   D2B13294  23.258  24.157   6.239  0.0417  0.1440  0.1699
    1DIPC   D3B13295  22.943  24.304   6.084  0.0047  0.2237 -0.1996
    1DIPC   C4B13296  22.584  24.143   5.824 -0.1443  0.3327  0.2113
    1DIPC   NC313297   1.744   3.949   7.265 -0.2254  0.1423 -0.0160
    1DIPC   PO413298   1.826   3.730   6.706  0.0338  0.1853 -0.1042
    1DIPC   GL113299   1.668   3.711   6.238  0.2293  0.2006 -0.1252
    1DIPC   GL213300   1.443   3.608   6.088 -0.1070 -0.1327 -0.0158
    1DIPC   C1A13301   1.689   4.003   5.884  0.0624  0.1346 -0.1241
    1DIPC   D2A13302   1.843   4.195   5.525  0.1967  0.2285  0.2298
    1DIPC   D3A13303   1.457   4.317   5.416 -0.0664  0.1297  0.1658
    1DIPC   C4A13304   1.440   4.385   5.015  0.2664 -0.0861  0.0070
    1DIPC   C1B13305   1.077   3.613   5.769  0.2249  0.1165 -0.1011
    1DIPC   D2B13306   0.934   3.357   5.444 -0.3258  0.1122  0.2438
    1DIPC   D3B13307   1.260   3.408   5.139  0.2589 -0.5054  0.0574
    1DIPC   C4B13308   1.175   3.251   4.600  0.2201 -0.3867  0.0898
    1DIPC   NC313309   6.868  17.258   6.808  0.3043  0.2641 -0.0855
    1DIPC   PO413310   6.986  17.358   6.363  0.0809 -0.3206 -0.0000
    1DIPC   GL113311   6.986  17.600   5.952  0.1482  0.0595 -0.0869
    1DIPC   GL213312   6.603  17.600   6.029  0.0541  0.1809  0.1301
    1DIPC   C1A13313   7.039  17.878   5.572  0.0641 -0.1803 -0.1251
    1DIPC   D2A13314   7.081  17.969   5.077 -0.2162  0.0879  0.1583
    1DIPC   D3A13315   7.390  17.647   5.163  0.1194 -0.1525  0.1193
    1DIPC   C4A13316   7.203  17.230   5.087 -0.1098 -0.1100 -0.1746
    1DIPC   C1B13317   6.532  17.726   5.652 -0.0432 -0.1138 -0.1528
    1DIPC   D2B13318   6.185  17.911   5.384  0.1647  0.1500  0.0308
    1DIPC   D3B13319   6.280  18.287   5.196 -0.0160 -0.3156  0.3166
    1DIPC   C4B13320   6.000  18.640   5.025 -0.0705  0.3866 -0.0290
    1DIPC   NC313321   1.452   1.399   6.208 -0.2902 -0.1974 -0.1319
    1DIPC   PO413322   1.848   1.414   6.311 -0.0847 -0.1049 -0.1403
    1DIPC   GL113323   1.819   1.184   5.904  0.2831  0.0561 -0.1250
    1DIPC   GL213324   1.981   0.951   5.783 -0.2306  0.0848  0.3070
    1DIPC   C1A13325   1.531   1.176   5.471 -0.0612  0.0357 -0.0824
    1DIPC   D2A13326   1.279   1.266   5.097  0.1809 -0.1505 -0.1462
    1DIPC   D3A13327   0.900   1.216   5.009 -0.0016  0.0460 -0.2704
    1DIPC   C4A13328   0.826   1.133   5.389  0.0013 -0.0523 -0.2296
    1DIPC   C1B13329   2.056   1.107   5.466  0.0078  0.0839  0.2080
    1DIPC   D2B13330   2.288   1.172   5.153 -0.1511 -0.1407  0.3994
    1DIPC   D3B13331   1.998   1.251   4.856  0.0674 -0.0129  0.0414
    1DIPC   C4B13332   1.708   1.458   5.046  0.1577  0.3259  0.1427
    1DIPC   NC313333   2.096  27.346   6.673 -0.0495 -0.0491  0.3746
    1DIPC   PO413334   1.850  27.560   6.433  0.1630  0.0112 -0.0663
    1DIPC   GL113335   2.162  27.701   6.130  0.0088  0.0358 -0.2996
    1DIPC   GL213336   2.011  27.979   6.029 -0.1926 -0.0259  0.2393
    1DIPC   C1A13337   2.531  27.533   5.888  0.3101 -0.1765  0.0190
    1DIPC   D2A13338   2.849  27.296   5.703 -0.1591 -0.0863 -0.0208
    1DIPC   D3A13339   3.287  27.413   5.759  0.1235  0.1824  0.0256
    1DIPC   C4A13340   3.479  27.580   5.289 -0.2848  0.3742  0.1352
    1DIPC   C1B13341   2.109  27.913   5.566  0.2398  0.0325 -0.2002
    1DIPC   D2B13342   1.830  27.617   5.393 -0.0653  0.4030  0.0685
    1DIPC   D3B13343   1.584  27.982   5.451 -0.0028  0.0552  0.0598
    1DIPC   C4B13344   1.146  27.894   5.600  0.0625  0.4486  0.1210
    1DIPC   NC313345   8.893  19.235   6.444  0.1478 -0.0056  0.3028
    1DIPC   PO413346   9.197  19.353   6.385 -0.2285 -0.0611 -0.0371
    1DIPC   GL113347   9.068  19.472   6.020 -0.0586  0.0389  0.0936
    1DIPC   GL213348   8.740  19.345   5.975  0.0034 -0.3150  0.3059
    1DIPC   C1A13349   8.996  19.592   5.610  0.2185  0.0373  0.5609
    1DIPC   D2A13350   9.204  19.804   5.188  0.1128  0.0188 -0.0130
    1DIPC   D3A13351   8.874  19.968   4.858  0.1877  0.0234  0.1916
    1DIPC   C4A13352   8.575  20.297   4.853  0.0655  0.1304 -0.4086
    1DIPC   C1B13353   8.464  19.066   5.800  0.3205  0.0545  0.1349
    1DIPC   D2B13354   8.359  18.515   5.878  0.0011 -0.1199  0.0636
    1DIPC   D3B13355   8.320  18.431   5.489  0.0158  0.0762 -0.0040
    1DIPC   C4B13356   8.016  18.263   5.218  0.0786  0.0907  0.4315
    1DIPC   NC313357   8.958   8.688   6.636 -0.1330  0.0968  0.0986
    1DIPC   PO413358   9.211   8.356   6.340  0.1129  0.1582  0.1416
    1DIPC   GL113359   9.520   8.264   5.865 -0.2568  0.3823 -0.2646
    1DIPC   GL213360   9.754   8.395   5.878  0.3020  0.0400 -0.2262
    1DIPC   C1A13361   9.892   8.097   5.522 -0.1809 -0.0380 -0.1416
    1DIPC   D2A13362  10.163   7.881   5.101  0.2898 -0.4199 -0.0663
    1DIPC   D3A13363   9.912   8.259   4.996 -0.3183 -0.0146 -0.0558
    1DIPC   C4A13364   9.522   8.171   5.208 -0.0466  0.1168 -0.0513
    1DIPC   C1B13365  10.024   8.746   5.823 -0.0649 -0.0714 -0.3467
    1DIPC   D2B13366  10.343   8.943   5.652  0.0363  0.1278  0.0003
    1DIPC   D3B13367  10.034   9.091   5.426  0.3148  0.2741 -0.0660
    1DIPC   C4B13368   9.817   9.536   5.554  0.0531  0.1355  0.1006
    1DIPC   NC313369  12.992  12.221   6.235  0.0226  0.1890 -0.2098
    1DIPC   PO413370  12.661  12.453   5.819  0.2205 -0.0763  0.0156
    1DIPC   GL113371  12.701  12.644   5.353  0.1194  0.1204 -0.3035
    1DIPC   GL213372  12.844  12.486   5.083 -0.0816 -0.0771  0.0242
    1DIPC   C1A13373  12.718  13.089   5.234 -0.0268  0.3997  0.3623
    1DIPC   D2A13374  12.673  13.381   4.873  0.0529 -0.1876  0.3126
    1DIPC   D3A13375  13.105  13.478   4.645  0.1655 -0.1386  0.0224
    1DIPC   C4A13376  13.459  13.125   4.797 -0.1326 -0.0681 -0.1376
    1DIPC   C1B13377  12.886  12.832   4.748 -0.2409 -0.0129 -0.0013
    1DIPC   D2B13378  12.617  12.804   4.308 -0.3209  0.0043  0.3596
    1DIPC   D3B13379  12.168  12.781   4.333 -0.0199 -0.2633 -0.0984
    1DIPC   C4B13380  12.082  12.388   4.621  0.1871 -0.1100  0.2290
    1DIPC   NC313381   5.073  29.341   6.378  0.0970  0.0008 -0.0533
    1DIPC   PO413382   4.708   0.020   6.478  0.0737  0.1325  0.2804
    1DIPC   GL113383   4.635  29.536   6.144  0.1966 -0.1955  0.1878
    1DIPC   GL213384   4.914   0.040   6.022 -0.1151 -0.3303  0.1456
    1DIPC   C1A13385   4.338  29.344   5.842  0.2535 -0.0619  0.3923
    1DIPC   D2A13386   4.250  29.000   5.592 -0.0894  0.2040  0.0018
    1DIPC   D3A13387   4.512  28.946   5.311 -0.2295  0.0391  0.0796
    1DIPC   C4A13388   4.528  29.313   5.150 -0.0051 -0.0631 -0.0273
    1DIPC   C1B13389   4.973   0.327   5.708 -0.1385 -0.2782  0.0914
    1DIPC   D2B13390   5.303   0.203   5.306 -0.0428 -0.0138  0.0735
    1DIPC   D3B13391   5.117   0.532   5.007  0.0191 -0.0268 -0.0459
    1DIPC   C4B13392   5.151   0.575   4.589 -0.1170 -0.1216  0.1681
    1DIPC   NC313393  14.194  23.345   6.200 -0.1926  0.0891  0.1923
    1DIPC   PO413394  14.344  22.946   6.349  0.2432 -0.3531  0.1623
    1DIPC   GL113395  14.204  22.895   5.884  0.0245 -0.3140 -0.1104
    1DIPC   GL213396  14.387  22.922   5.503 -0.0604 -0.0653  0.1347
    1DIPC   C1A13397  13.903  22.840   5.539  0.0007  0.3068 -0.0073
    1DIPC   D2A13398  13.971  22.741   5.058 -0.0858 -0.0990 -0.1518
    1DIPC   D3A13399  13.630  22.841   4.768  0.0667 -0.0304  0.2617
    1DIPC   C4A13400  13.266  22.683   4.958  0.0213 -0.1495  0.3493
    1DIPC   C1B13401  14.704  22.906   5.072 -0.0203 -0.2086  0.3827
    1DIPC   D2B13402  14.976  22.898   4.754 -0.2645 -0.1496 -0.4239
    1DIPC   D3B13403  14.881  22.461   4.776 -0.0791  0.1187  0.1327
    1DIPC   C4B13404  14.800  22.437   5.233 -0.0650 -0.3074 -0.1022
    1DIPC   NC313405   2.957  23.462   7.339 -0.3979 -0.2443  0.0638
    1DIPC   PO413406   2.840  23.505   6.853  0.0407 -0.2485  0.1727
    1DIPC   GL113407   2.919  23.800   6.534  0.5374 -0.4546  0.0631
    1DIPC   GL213408   2.664  24.063   6.383 -0.2161 -0.0136 -0.0460
    1DIPC   C1A13409   2.845  23.724   6.041  0.1808  0.1355  0.0341
    1DIPC   D2A13410   2.916  23.479   5.683  0.0035 -0.0238 -0.0639
    1DIPC   D3A13411   2.583  23.250   5.481  0.1441  0.1050 -0.0291
    1DIPC   C4A13412   2.178  23.318   5.262  0.2842  0.2771 -0.3067
    1DIPC   C1B13413   2.275  24.051   6.256 -0.1196 -0.0472  0.0880
    1DIPC   D2B13414   2.041  23.845   5.920 -0.0861  0.0116 -0.1270
    1DIPC   D3B13415   1.850  23.406   5.845 -0.0729 -0.2302 -0.1026
    1DIPC   C4B13416   1.581  23.268   5.495 -0.0685 -0.1010  0.2063
    1DIPC   NC313417  24.163   2.799   7.601  0.0643 -0.4310 -0.0020
    1DIPC   PO413418  24.090   3.061   7.201  0.0088  0.1087  0.0167
    1DIPC   GL113419  23.901   3.208   6.753  0.1394  0.1308  0.1478
    1DIPC   GL213420  23.565   3.174   6.668  0.1108  0.1580 -0.0152
    1DIPC   C1A13421  24.125   3.465   6.464 -0.0384 -0.1736  0.0150
    1DIPC   D2A13422  24.322   3.494   6.138  0.0012 -0.0548  0.1333
    1DIPC   D3A13423  24.025   3.558   5.734 -0.2684  0.1690  0.0865
    1DIPC   C4A13424  24.087   3.434   5.292 -0.1290 -0.0038 -0.2198
    1DIPC   C1B13425  23.484   2.967   6.271  0.0326  0.2286 -0.0054
    1DIPC   D2B13426  23.380   2.980   5.847 -0.0778 -0.0561 -0.1088
    1DIPC   D3B13427  23.306   2.898   5.464  0.0240 -0.0085  0.1130
    1DIPC   C4B13428  23.493   2.630   5.066 -0.4879 -0.0255  0.0117
    1DIPC   NC313429  10.249  11.351   5.830 -0.0636  0.0531 -0.0623
    1DIPC   PO413430  10.599  11.573   5.540  0.2764  0.1753 -0.0261
    1DIPC   GL113431  10.871  11.309   5.464 -0.0701 -0.2266  0.1861
    1DIPC   GL213432  10.975  10.981   5.521  0.1434 -0.2411 -0.2167
    1DIPC   C1A13433  10.986  11.300   5.014 -0.3413 -0.1787 -0.2736
    1DIPC   D2A13434  11.241  10.915   4.773  0.1100  0.0209 -0.1692
    1DIPC   D3A13435  11.075  10.954   4.389 -0.2141 -0.2634  0.1680
    1DIPC   C4A13436  10.703  11.054   4.190 -0.0928  0.0192  0.1370
    1DIPC   C1B13437  11.365  10.929   5.232  0.0927 -0.3026  0.2800
    1DIPC   D2B13438  11.695  10.663   5.224  0.0987  0.0039 -0.0225
    1DIPC   D3B13439  12.117  10.773   5.256 -0.2027  0.3043 -0.1482
    1DIPC   C4B13440  12.335  10.854   4.824  0.2621  0.1056 -0.1321
    1DIPC   NC313441  11.354  22.079   6.598  0.0447 -0.1366 -0.2845
    1DIPC   PO413442  11.222  22.022   6.133  0.3531  0.1495  0.3441
    1DIPC   GL113443  11.278  21.867   5.800 -0.0263  0.1200  0.2842
    1DIPC   GL213444  11.480  22.214   5.650  0.0716 -0.0724  0.0883
    1DIPC   C1A13445  11.088  21.855   5.459  0.2819 -0.1916 -0.2259
    1DIPC   D2A13446  10.871  21.910   5.119  0.0112  0.3549  0.1040
    1DIPC   D3A13447  11.067  21.899   4.734  0.0528 -0.1303 -0.0411
    1DIPC   C4A13448  11.460  21.784   4.567  0.1008 -0.0551  0.3964
    1DIPC   C1B13449  11.142  22.348   5.341 -0.0346  0.2459  0.1173
    1DIPC   D2B13450  10.835  22.558   5.008  0.2197 -0.0061  0.2398
    1DIPC   D3B13451  11.189  22.433   4.761  0.1326  0.2779  0.0822
    1DIPC   C4B13452  11.440  22.116   4.935  0.1962  0.3361 -0.4468
    1DIPC   NC313453   7.470  25.366   6.943  0.0333 -0.0476 -0.1287
    1DIPC   PO413454   7.259  25.192   6.546 -0.0254 -0.0327  0.0793
    1DIPC   GL113455   6.977  24.879   6.176  0.1053 -0.0742 -0.3414
    1DIPC   GL213456   6.890  25.049   5.898  0.4745 -0.3078  0.1583
    1DIPC   C1A13457   6.711  24.616   5.974 -0.2323 -0.1292 -0.0620
    1DIPC   D2A13458   6.321  24.486   6.027 -0.3675 -0.0527  0.2473
    1DIPC   D3A13459   6.472  24.155   5.810  0.0216 -0.0159  0.1471
    1DIPC   C4A13460   6.332  23.834   5.947  0.1626 -0.2438  0.1352
    1DIPC   C1B13461   6.695  25.039   5.497 -0.2405  0.2847 -0.1256
    1DIPC   D2B13462   6.591  24.862   5.089 -0.1129  0.1072 -0.2861
    1DIPC   D3B13463   6.332  24.587   4.980 -0.3045  0.1803 -0.1769
    1DIPC   C4B13464   5.884  24.820   4.850  0.3045 -0.0280  0.0957
    1DIPC   NC313465  18.637  28.712   7.439  0.0675  0.1725  0.0791
    1DIPC   PO413466  18.976  28.837   7.202  0.0109  0.0862  0.2791
    1DIPC   GL113467  19.026  28.724   6.900 -0.0852  0.0316  0.1708
    1DIPC   GL213468  18.699  28.639   6.791 -0.1589 -0.1082 -0.1553
    1DIPC   C1A13469  19.293  28.716   6.504 -0.2230 -0.3145  0.2236
    1DIPC   D2A13470  19.211  28.896   6.115  0.4603 -0.3831 -0.0550
    1DIPC   D3A13471  18.975  28.911   5.709  0.3598 -0.0056  0.0909
    1DIPC   C4A13472  18.778  28.612   5.404  0.3993  0.4549 -0.1879
    1DIPC   C1B13473  18.793  28.599   6.391 -0.0693  0.1405  0.0315
    1DIPC   D2B13474  19.006  28.484   5.920 -0.1976  0.0194 -0.0814
    1DIPC   D3B13475  19.265  28.359   6.188 -0.1784  0.1114  0.3110
    1DIPC   C4B13476  19.370  27.856   6.268  0.2101 -0.2831 -0.0168
    1DIPC   NC313477   3.201   0.544   6.285  0.0320 -0.1860 -0.1560
    1DIPC   PO413478   3.339   0.189   6.254 -0.0301 -0.0106  0.0557
    1DIPC   GL113479   3.337   0.213   5.856  0.0522 -0.0073  0.1771
    1DIPC   GL213480   3.099   0.031   5.658 -0.4476 -0.1457  0.2160
    1DIPC   C1A13481   3.605   0.237   5.462 -0.1242 -0.2038  0.0045
    1DIPC   D2A13482   3.889   0.379   5.173 -0.0815 -0.0124 -0.3064
    1DIPC   D3A13483   4.070   0.733   4.938  0.0316 -0.3352 -0.2818
    1DIPC   C4A13484   4.072   1.253   4.909 -0.0243  0.1006  0.0736
    1DIPC   C1B13485   2.895  29.341   5.368 -0.4617 -0.0094  0.1387
    1DIPC   D2B13486   2.528  29.217   5.102 -0.0615 -0.3873  0.3446
    1DIPC   D3B13487   2.321  29.454   4.878 -0.3243  0.0749 -0.2347
    1DIPC   C4B13488   2.549  29.560   4.564  0.0738  0.0708 -0.2401
    1DIPC   NC313489   0.993  19.342   7.412 -0.0146  0.0319 -0.0232
    1DIPC   PO413490   1.373  19.532   7.411 -0.1137 -0.3758  0.0837
    1DIPC   GL113491   1.362  19.300   7.014  0.0754 -0.2117 -0.0708
    1DIPC   GL213492   1.096  19.470   6.896  0.1770  0.1203 -0.1633
    1DIPC   C1A13493   1.508  19.154   6.581  0.0850  0.0528 -0.1144
    1DIPC   D2A13494   1.425  19.220   6.175  0.5825 -0.2175  0.2547
    1DIPC   D3A13495   0.973  19.068   6.136  0.2855  0.0063 -0.2712
    1DIPC   C4A13496   0.552  19.429   6.058 -0.2230  0.0898 -0.1714
    1DIPC   C1B13497   0.668  19.541   6.876 -0.0938  0.2222 -0.0246
    1DIPC   D2B13498   0.406  19.917   6.966 -0.1266  0.2368  0.0985
    1DIPC   D3B13499   0.087  19.962   7.085 -0.0084 -0.2261  0.3453
    1DIPC   C4B13500  29.554  20.286   6.842  0.0104  0.1136 -0.0722
    1DIPC   NC313501  14.740  22.310   7.188  0.2131 -0.0606  0.2252
    1DIPC   PO413502  14.985  22.500   6.788  0.0288 -0.0539 -0.0735
    1DIPC   GL113503  15.202  22.458   6.323 -0.2162  0.0014 -0.2110
    1DIPC   GL213504  15.272  22.743   6.227 -0.0717 -0.0463 -0.0202
    1DIPC   C1A13505  15.436  22.389   5.967 -0.0272 -0.1900 -0.1488
    1DIPC   D2A13506  15.612  22.503   5.617  0.0583 -0.0878 -0.0550
    1DIPC   D3A13507  15.931  22.633   5.301 -0.0318  0.2766  0.0621
    1DIPC   C4A13508  16.269  22.548   5.134  0.1381  0.0002 -0.2085
    1DIPC   C1B13509  15.392  22.895   5.830  0.1181  0.0588 -0.1179
    1DIPC   D2B13510  15.620  23.125   5.454 -0.0351  0.1007 -0.1553
    1DIPC   D3B13511  15.294  23.081   5.123  0.0361 -0.1214 -0.5039
    1DIPC   C4B13512  14.900  23.339   5.134  0.0325  0.0152  0.2419
    1DIPC   NC313513   4.737  21.746   7.593  0.0885  0.1251 -0.0680
    1DIPC   PO413514   4.725  21.675   7.117 -0.0883 -0.1073  0.0892
    1DIPC   GL113515   4.844  21.787   6.708 -0.1965  0.0519 -0.0228
    1DIPC   GL213516   5.170  21.877   6.816  0.1527  0.1641 -0.1965
    1DIPC   C1A13517   4.671  21.905   6.317 -0.2926  0.1164  0.1602
    1DIPC   D2A13518   4.710  22.037   5.851 -0.0127 -0.1125 -0.2463
    1DIPC   D3A13519   4.884  22.420   5.772  0.1600  0.0204  0.0655
    1DIPC   C4A13520   5.122  22.453   5.320  0.1128  0.0904  0.3059
    1DIPC   C1B13521   5.217  21.874   6.260  0.1647 -0.3435  0.1106
    1DIPC   D2B13522   5.458  21.803   5.847  0.3147  0.2430 -0.4429
    1DIPC   D3B13523   5.027  21.640   5.685  0.1451 -0.0656 -0.1801
    1DIPC   C4B13524   5.077  21.557   5.271  0.2534  0.0950 -0.0281
    1DIPC   NC313525  24.344   0.511   7.070 -0.0043  0.0948 -0.0882
    1DIPC   PO413526  24.495   0.121   6.805  0.5526 -0.2761  0.2051
    1DIPC   GL113527  24.333   0.434   6.575 -0.0279 -0.0435 -0.1791
    1DIPC   GL213528  24.206   0.677   6.635  0.1391  0.1207  0.2217
    1DIPC   C1A13529  24.433   0.720   6.256  0.1057  0.1199  0.2811
    1DIPC   D2A13530  24.608   0.887   5.812 -0.0508 -0.1836 -0.1147
    1DIPC   D3A13531  24.625   1.266   5.575 -0.0813 -0.2877 -0.0567
    1DIPC   C4A13532  24.961   1.545   5.532  0.1293 -0.1920  0.0182
    1DIPC   C1B13533  24.044   0.976   6.332  0.1028  0.2162  0.2017
    1DIPC   D2B13534  24.321   1.177   6.110 -0.4464  0.1002  0.1653
    1DIPC   D3B13535  24.033   1.279   5.766 -0.1684  0.2291  0.0147
    1DIPC   C4B13536  24.033   1.663   5.524 -0.0396 -0.1636  0.1008
    1DIPC   NC313537   2.332   5.893   5.865 -0.1764  0.2312 -0.1852
    1DIPC   PO413538   2.295   5.543   5.751 -0.0068 -0.1355 -0.0965
    1DIPC   GL113539   2.385   5.111   5.648  0.1408 -0.1487 -0.1090
    1DIPC   GL213540   2.685   4.883   5.597 -0.3203 -0.1154 -0.0577
    1DIPC   C1A13541   2.434   4.984   5.165  0.0974  0.3495  0.0691
    1DIPC   D2A13542   2.141   5.028   4.808 -0.0194  0.1168 -0.0044
    1DIPC   D3A13543   2.385   4.715   4.714 -0.1388 -0.1345  0.2004
    1DIPC   C4A13544   2.683   4.783   4.342 -0.0319  0.1727 -0.3091
    1DIPC   C1B13545   2.653   4.564   5.341 -0.0053  0.0419  0.1261
    1DIPC   D2B13546   2.619   4.317   4.920  0.0058 -0.1702 -0.1845
    1DIPC   D3B13547   3.011   4.477   4.612 -0.1965 -0.2916  0.2031
    1DIPC   C4B13548   3.494   4.602   4.553  0.1300  0.1502 -0.1889
    1DIPC   NC313549   4.329  23.450   7.171  0.0457  0.0309 -0.0461
    1DIPC   PO413550   4.135  23.077   7.009 -0.2491 -0.0011 -0.1102
    1DIPC   GL113551   4.285  23.039   6.629  0.2088  0.0695  0.1598
    1DIPC   GL213552   4.072  23.217   6.453 -0.2214  0.0145 -0.1450
    1DIPC   C1A13553   4.551  23.117   6.349 -0.0891 -0.0696  0.2615
    1DIPC   D2A13554   4.757  22.890   6.068  0.1098 -0.1842 -0.2017
    1DIPC   D3A13555   4.527  23.162   5.845  0.3402 -0.1162  0.1068
    1DIPC   C4A13556   4.671  23.342   5.444  0.3308  0.0824  0.1200
    1DIPC   C1B13557   4.296  23.508   6.189 -0.1767  0.3613  0.2335
    1DIPC   D2B13558   4.406  23.724   5.744  0.0295 -0.0803 -0.1755
    1DIPC   D3B13559   4.333  24.022   5.334 -0.0740  0.0188  0.3768
    1DIPC   C4B13560   4.625  24.192   5.071 -0.0456  0.0528 -0.0172
    1DIPC   NC313561  25.477  19.317   7.238 -0.0212 -0.1964 -0.4654
    1DIPC   PO413562  25.614  18.968   7.138 -0.0138  0.1166 -0.0428
    1DIPC   GL113563  25.785  19.132   6.789 -0.1369 -0.0368  0.2118
    1DIPC   GL213564  26.152  19.062   6.737  0.2337  0.0209 -0.1241
    1DIPC   C1A13565  25.950  19.359   6.377 -0.3370  0.0278  0.1555
    1DIPC   D2A13566  25.656  19.394   6.109  0.2323 -0.3089  0.1879
    1DIPC   D3A13567  25.630  19.390   5.666 -0.0505 -0.0688 -0.0410
    1DIPC   C4A13568  25.389  19.109   5.449 -0.0155 -0.1030  0.0582
    1DIPC   C1B13569  26.019  18.850   6.321 -0.2499 -0.0547 -0.1177
    1DIPC   D2B13570  25.762  18.523   6.251 -0.1072  0.0289 -0.0479
    1DIPC   D3B13571  25.667  18.083   6.122 -0.0682 -0.1098  0.1902
    1DIPC   C4B13572  25.550  17.730   5.992 -0.1656 -0.0076  0.1225
    1DIPC   NC313573  22.020  28.659   7.347 -0.2521 -0.0488 -0.1095
    1DIPC   PO413574  22.128  28.297   7.199  0.0245  0.0540 -0.2461
    1DIPC   GL113575  22.175  28.500   6.820  0.0076  0.2884 -0.0541
    1DIPC   GL213576  21.938  28.436   6.683  0.1082  0.1693 -0.4485
    1DIPC   C1A13577  22.432  28.392   6.431  0.2105 -0.0119  0.2092
    1DIPC   D2A13578  22.759  28.211   6.238  0.0405 -0.2756 -0.0344
    1DIPC   D3A13579  23.163  28.314   6.089 -0.2034  0.1409 -0.0836
    1DIPC   C4A13580  22.982  28.583   5.738 -0.0569 -0.1459 -0.1699
    1DIPC   C1B13581  21.770  28.000   6.714  0.3330 -0.0074 -0.1560
    1DIPC   D2B13582  21.706  27.702   6.393  0.0709  0.1138 -0.2544
    1DIPC   D3B13583  21.682  27.986   6.144  0.0488 -0.0325 -0.4106
    1DIPC   C4B13584  21.331  28.153   5.986 -0.0826  0.2997 -0.2743
    1DIPC   NC313585   6.046  17.853   6.582 -0.0095 -0.1281  0.2237
    1DIPC   PO413586   6.389  18.256   6.541 -0.0289 -0.1301  0.1930
    1DIPC   GL113587   5.992  18.283   6.385 -0.0558  0.3499  0.0544
    1DIPC   GL213588   5.696  18.311   6.566 -0.1911 -0.0518 -0.3173
    1DIPC   C1A13589   5.664  18.362   6.056 -0.0560  0.1225 -0.0127
    1DIPC   D2A13590   5.311  18.466   5.647 -0.0816 -0.1398  0.3076
    1DIPC   D3A13591   5.196  18.915   5.691 -0.0174 -0.0826  0.0416
    1DIPC   C4A13592   4.779  19.085   5.834 -0.1705 -0.0241  0.3389
    1DIPC   C1B13593   5.370  18.635   6.560  0.5617  0.1787 -0.0301
    1DIPC   D2B13594   5.490  19.001   6.597 -0.0573 -0.1097  0.1319
    1DIPC   D3B13595   5.803  19.288   6.390 -0.1339  0.2518 -0.0675
    1DIPC   C4B13596   6.254  19.201   6.368 -0.3735 -0.1757 -0.1264
    1DIPC   NC313597   0.008  22.712   7.379  0.0350  0.2209  0.0585
    1DIPC   PO413598  29.364  22.383   7.383  0.3293 -0.2508 -0.2577
    1DIPC   GL113599  29.558  22.139   7.058 -0.0257 -0.1435 -0.1503
    1DIPC   GL213600  29.507  22.489   6.914 -0.1400 -0.2231  0.0602
    1DIPC   C1A13601   0.053  22.043   6.642  0.0473  0.1603 -0.0530
    1DIPC   D2A13602   0.178  22.096   6.221 -0.0276 -0.0054 -0.2334
    1DIPC   D3A13603  29.498  21.984   5.957  0.4996  0.0720  0.0163
    1DIPC   C4A13604  29.051  21.989   5.690 -0.1589  0.0432  0.1436
    1DIPC   C1B13605  29.296  22.316   6.444  0.0532  0.1161 -0.0672
    1DIPC   D2B13606  29.269  22.424   6.036 -0.2707  0.1316  0.0696
    1DIPC   D3B13607  29.204  22.763   6.182 -0.0658  0.0550 -0.1009
    1DIPC   C4B13608  29.160  22.803   6.606  0.0669 -0.3436 -0.0786
    1DIPC   NC313609  29.604  28.018   6.239 -0.0923 -0.0998 -0.0549
    1DIPC   PO413610  29.275  28.008   6.557 -0.0776  0.0225 -0.0787
    1DIPC   GL113611  29.095  28.033   6.100 -0.0985  0.0162 -0.3246
    1DIPC   GL213612  28.815  27.865   6.004  0.0282 -0.3193 -0.3246
    1DIPC   C1A13613  29.118  27.966   5.664 -0.0284  0.6495  0.0690
    1DIPC   D2A13614  29.268  27.593   5.382  0.4363  0.0998  0.2176
    1DIPC   D3A13615  29.437  27.309   5.479  0.1133 -0.1113  0.1198
    1DIPC   C4A13616   0.276  27.469   5.519  0.1100  0.1154 -0.2825
    1DIPC   C1B13617  28.712  28.298   5.830 -0.0708  0.1841 -0.0701
    1DIPC   D2B13618  28.279  28.340   5.690 -0.2146 -0.2524  0.2050
    1DIPC   D3B13619  28.396  28.518   5.290 -0.2949 -0.0084 -0.0173
    1DIPC   C4B13620  28.601  28.207   5.080 -0.2389 -0.0560 -0.1521
    1DIPC   NC313621   0.442   3.252   7.005 -0.2170  0.1730  0.0803
    1DIPC   PO413622   0.285   3.172   6.721  0.0379 -0.0646 -0.1592
    1DIPC   GL113623   0.286   2.985   6.357  0.1186 -0.2318  0.2669
    1DIPC   GL213624   0.645   3.044   6.199 -0.0330  0.2271 -0.2753
    1DIPC   C1A13625   0.181   3.147   5.916  0.0719 -0.3354 -0.3658
    1DIPC   D2A13626   0.297   3.028   5.542 -0.0963  0.2233  0.1962
    1DIPC   D3A13627   0.491   3.131   5.120  0.2076 -0.1241  0.1040
    1DIPC   C4A13628   0.859   2.978   5.112  0.0616  0.2328  0.1903
    1DIPC   C1B13629   0.644   3.303   5.911  0.0854 -0.1922 -0.1812
    1DIPC   D2B13630   0.408   3.701   5.950  0.0383  0.4105 -0.1410
    1DIPC   D3B13631   0.198   3.556   5.615  0.1498  0.2486 -0.0281
    1DIPC   C4B13632  29.565   3.802   5.397 -0.0003 -0.3262  0.2498
    1DIPC   NC313633  23.455   0.028   6.964  0.0552  0.2993 -0.0285
    1DIPC   PO413634  23.388   0.416   6.745 -0.1985  0.1578  0.0425
    1DIPC   GL113635  23.321   0.419   6.325  0.1788  0.3950 -0.0043
    1DIPC   GL213636  23.130   0.658   6.278  0.1072  0.4396  0.3675
    1DIPC   C1A13637  23.445   0.408   5.872 -0.0478 -0.1104  0.0655
    1DIPC   D2A13638  23.719   0.522   5.483  0.0616 -0.0582 -0.3001
    1DIPC   D3A13639  23.658   0.230   5.084  0.1873 -0.3710  0.1906
    1DIPC   C4A13640  24.042   0.224   4.849 -0.1181 -0.4782 -0.1767
    1DIPC   C1B13641  23.116   0.744   5.885  0.1519 -0.0940  0.3313
    1DIPC   D2B13642  23.052   0.619   5.513  0.1076 -0.3874 -0.2966
    1DIPC   D3B13643  22.750   0.438   5.219  0.3100 -0.1848 -0.1067
    1DIPC   C4B13644  22.366   0.283   5.291  0.2956  0.3158 -0.0505
    1DIPC   NC313645  27.377  22.464   7.216 -0.2046 -0.1469  0.1569
    1DIPC   PO413646  27.602  22.488   6.986 -0.3130 -0.1050  0.1948
    1DIPC   GL113647  27.470  22.472   6.553 -0.2968 -0.1619  0.1955
    1DIPC   GL213648  27.487  22.759   6.429  0.0029 -0.0799  0.4994
    1DIPC   C1A13649  27.827  22.476   6.173 -0.1611 -0.2220  0.0668
    1DIPC   D2A13650  27.906  22.668   5.746  0.1141  0.2485  0.1287
    1DIPC   D3A13651  28.115  22.476   5.391 -0.0553  0.3610  0.0848
    1DIPC   C4A13652  28.200  22.115   5.355 -0.0405  0.1235 -0.0340
    1DIPC   C1B13653  27.535  22.983   6.112 -0.0002  0.2663 -0.0927
    1DIPC   D2B13654  27.325  22.904   5.716 -0.1426  0.0675 -0.0119
    1DIPC   D3B13655  27.447  22.638   5.550 -0.1009 -0.2683 -0.0490
    1DIPC   C4B13656  27.744  22.821   5.263  0.1490 -0.0577 -0.0184
    1DIPC   NC313657   8.291  11.856   5.672 -0.0624 -0.2498 -0.2079
    1DIPC   PO413658   8.559  11.554   5.849  0.2092  0.2473  0.3644
    1DIPC   GL113659   8.757  11.480   5.473 -0.0234 -0.0292  0.1329
    1DIPC   GL213660   8.915  11.769   5.351 -0.0856 -0.0177 -0.2764
    1DIPC   C1A13661   8.713  11.323   5.034  0.1146 -0.0768  0.2356
    1DIPC   D2A13662   8.762  11.286   4.584 -0.1616  0.1461  0.0389
    1DIPC   D3A13663   8.558  11.350   4.242  0.0725  0.0240 -0.1357
    1DIPC   C4A13664   8.333  11.121   4.086 -0.1122 -0.2151  0.2657
    1DIPC   C1B13665   8.788  11.837   4.943 -0.0071  0.0536 -0.2443
    1DIPC   D2B13666   8.591  12.126   4.730 -0.0885  0.0705  0.1572
    1DIPC   D3B13667   8.893  12.362   4.513  0.2606  0.1046 -0.1803
    1DIPC   C4B13668   8.954  12.576   4.100  0.0021 -0.1204 -0.1628
    1DIPC   NC313669  19.048  19.491   7.160  0.1210 -0.2626  0.1069
    1DIPC   PO413670  19.135  19.016   6.974 -0.0724  0.2433  0.0178
    1DIPC   GL113671  19.400  18.865   6.660  0.1784 -0.0927  0.0746
    1DIPC   GL213672  19.661  19.206   6.730 -0.0596 -0.0728 -0.2433
    1DIPC   C1A13673  19.572  18.731   6.375 -0.1169 -0.0178  0.4119
    1DIPC   D2A13674  19.712  18.514   5.951  0.0780 -0.1654  0.0538
    1DIPC   D3A13675  19.387  18.669   5.699  0.1209 -0.0986  0.2612
    1DIPC   C4A13676  19.046  18.972   5.708 -0.1705  0.0595 -0.0694
    1DIPC   C1B13677  19.937  19.091   6.368  0.2109  0.1228 -0.4032
    1DIPC   D2B13678  20.098  19.289   6.095 -0.1013 -0.0262 -0.0728
    1DIPC   D3B13679  20.291  19.173   5.754 -0.1281 -0.4283  0.2288
    1DIPC   C4B13680  20.119  19.122   5.324  0.2351 -0.3679  0.1282
    1CHOL   ROH13681  26.927   9.315   6.300  0.1724  0.0631  0.0418
    1CHOL    R113682  26.849   9.497   6.098  0.0724  0.0611  0.0772
    1CHOL    R213683  27.027   9.593   5.908  0.0283  0.2205  0.1142
    1CHOL    R313684  26.840   9.499   5.734  0.1041  0.1392  0.0768
    1CHOL    R413685  27.048   9.617   5.564  0.0747  0.2532  0.1196
    1CHOL    R513686  26.835   9.663   5.559  0.0527  0.1478  0.0868
    1CHOL    C113687  26.885   9.543   5.200  0.1725  0.1959  0.0877
    1CHOL    C213688  26.859   9.568   4.955  0.0863  0.1027  0.2522
    1CHOL   ROH13689  15.625  12.996   3.281  0.1515  0.1129 -0.1085
    1CHOL    R113690  15.634  13.046   3.559  0.1924 -0.0369 -0.0827
    1CHOL    R213691  15.419  13.149   3.699  0.3237  0.2095 -0.0623
    1CHOL    R313692  15.457  12.929   3.855 -0.0155  0.0739 -0.1606
    1CHOL    R413693  15.323  13.123   4.030  0.1000  0.1332 -0.1306
    1CHOL    R513694  15.510  13.018   4.071 -0.0375 -0.1045 -0.0774
    1CHOL    C113695  15.303  12.902   4.369 -0.3489 -0.0386 -0.2626
    1CHOL    C213696  15.056  13.086   4.661  0.1876 -0.1355  0.1636
    1CHOL   ROH13697  25.539  15.746   3.404  0.1948  0.2413  0.1715
    1CHOL    R113698  25.512  15.750   3.686  0.0993  0.1024  0.1659
    1CHOL    R213699  25.276  15.683   3.814  0.0503  0.0503  0.0540
    1CHOL    R313700  25.436  15.509   3.948 -0.0033 -0.0251  0.0200
    1CHOL    R413701  25.211  15.557   4.129  0.0135  0.0084  0.0293
    1CHOL    R513702  25.422  15.579   4.176  0.0195 -0.0665  0.0331
    1CHOL    C113703  25.323  15.320   4.438 -0.0581 -0.0868 -0.0171
    1CHOL    C213704  25.536  15.109   4.579 -0.1680  0.1831 -0.3684
    1CHOL   ROH13705  15.708   8.478   5.962 -0.0266  0.0902  0.2897
    1CHOL    R113706  15.601   8.557   5.712  0.0805  0.2641  0.2964
    1CHOL    R213707  15.726   8.739   5.547  0.3323  0.1159  0.3157
    1CHOL    R313708  15.702   8.541   5.363  0.0642  0.1622  0.2966
    1CHOL    R413709  15.799   8.772   5.210  0.2784  0.0756  0.3004
    1CHOL    R513710  15.623   8.651   5.166  0.1325  0.2738  0.3318
    1CHOL    C113711  15.818   8.605   4.842 -0.0046  0.0957  0.2735
    1CHOL    C213712  15.731   8.828   4.620  0.0651  0.1287  0.1409
    1CHOL   ROH13713   0.223   5.687   5.219 -0.1366 -0.0182  0.0899
    1CHOL    R113714   0.315   5.738   4.956 -0.0655 -0.0235  0.1138
    1CHOL    R213715   0.211   5.610   4.734  0.0350 -0.0688  0.0956
    1CHOL    R313716   0.172   5.864   4.646  0.0046 -0.0876  0.0539
    1CHOL    R413717   0.181   5.701   4.402  0.3413 -0.0927  0.0576
    1CHOL    R513718   0.301   5.878   4.445  0.2147 -0.0306  0.1864
    1CHOL    C113719   0.125   5.993   4.126  0.4910 -0.1242 -0.0035
    1CHOL    C213720   0.213   6.032   3.732 -0.1114 -0.1166  0.1049
    1CHOL   ROH13721  13.360   1.054   5.153 -0.2489 -0.3134 -0.1329
    1CHOL    R113722  13.521   1.273   5.072 -0.1571 -0.4021 -0.1909
    1CHOL    R213723  13.581   1.323   4.807 -0.3814 -0.3293 -0.2269
    1CHOL    R313724  13.480   1.569   4.865 -0.1313 -0.2718 -0.0141
    1CHOL    R413725  13.651   1.612   4.630 -0.5224 -0.3607 -0.3359
    1CHOL    R513726  13.661   1.719   4.820 -0.1102 -0.3799 -0.3324
    1CHOL    C113727  13.597   2.010   4.582 -0.3696 -0.3250 -0.1996
    1CHOL    C213728  13.756   2.143   4.204 -0.2456 -0.1217 -0.1266
    1CHOL   ROH13729  25.695  11.993   6.628  0.1194  0.1680 -0.0051
    1CHOL    R113730  25.553  11.961   6.386  0.1471  0.0541 -0.0071
    1CHOL    R213731  25.517  12.169   6.206 -0.0414  0.0333  0.0067
    1CHOL    R313732  25.626  11.992   6.031  0.1183  0.1433 -0.0062
    1CHOL    R413733  25.509  12.200   5.862 -0.3720 -0.1089 -0.0018
    1CHOL    R513734  25.472  11.986   5.848 -0.0262 -0.1852  0.1158
    1CHOL    C113735  25.606  12.053   5.497 -0.4143 -0.0884 -0.0188
    1CHOL    C213736  25.767  12.140   5.067 -0.1615 -0.0109 -0.0655
    1CHOL   ROH13737   8.546   8.441   5.169 -0.2385 -0.2414 -0.3126
    1CHOL    R113738   8.746   8.410   4.971 -0.1450 -0.0572 -0.2503
    1CHOL    R213739   8.902   8.621   4.883 -0.0508  0.0138  0.0673
    1CHOL    R313740   9.106   8.455   4.949 -0.1235 -0.1094 -0.0169
    1CHOL    R413741   9.200   8.595   4.710 -0.0315  0.0274  0.0997
    1CHOL    R513742   9.193   8.380   4.739 -0.1160  0.0093 -0.0556
    1CHOL    C113743   9.565   8.424   4.671 -0.0885 -0.0801  0.0397
    1CHOL    C213744   9.577   8.338   4.342  0.0757  0.0097  0.0398
    1CHOL   ROH13745  27.874   1.676   6.447 -0.1737 -0.0385 -0.0437
    1CHOL    R113746  27.783   1.861   6.253  0.2419  0.1186 -0.1019
    1CHOL    R213747  27.927   1.921   6.025  0.3296 -0.3855 -0.1996
    1CHOL    R313748  27.696   1.852   5.900  0.0765  0.1574 -0.0616
    1CHOL    R413749  27.885   1.904   5.683  0.0982 -0.3781 -0.1719
    1CHOL    R513750  27.688   1.993   5.707  0.3276  0.1277 -0.0913
    1CHOL    C113751  27.644   1.829   5.366 -0.2741  0.1359 -0.0262
    1CHOL    C213752  27.901   1.653   5.235 -0.0700  0.1518  0.4783
    1CHOL   ROH13753  10.843  15.903   5.618  0.1552  0.1312  0.0518
    1CHOL    R113754  11.060  15.804   5.465  0.0739  0.0082  0.0165
    1CHOL    R213755  11.033  15.591   5.291 -0.0906  0.0615 -0.0219
    1CHOL    R313756  11.138  15.766   5.112  0.0218  0.0220  0.0029
    1CHOL    R413757  11.244  15.504   5.031  0.0741  0.0026  0.1277
    1CHOL    R513758  11.360  15.685   5.072  0.0489  0.0130  0.1604
    1CHOL    C113759  11.464  15.618   4.711  0.2754 -0.0689  0.2381
    1CHOL    C213760  11.673  15.565   4.459  0.0665 -0.2148  0.0634
    1CHOL   ROH13761  21.951   4.518   3.294  0.2218  0.0890 -0.1362
    1CHOL    R113762  21.880   4.632   3.543  0.1484  0.0686 -0.1478
    1CHOL    R213763  21.982   4.542   3.784  0.0783  0.0501 -0.1254
    1CHOL    R313764  22.052   4.803   3.815  0.0678  0.0480 -0.0831
    1CHOL    R413765  22.078   4.687   4.082  0.0731  0.0035 -0.1009
    1CHOL    R513766  21.963   4.863   4.028  0.0652  0.0085 -0.0720
    1CHOL    C113767  22.200   5.016   4.285  0.0603 -0.0256 -0.0470
    1CHOL    C213768  22.327   5.139   4.567 -0.5027  0.5179  0.0292
    1CHOL   ROH13769  17.170  12.945   3.216 -0.3076 -0.0535  0.0425
    1CHOL    R113770  17.179  13.000   3.494 -0.1147 -0.1786  0.0641
    1CHOL    R213771  16.985  13.150   3.622  0.1118 -0.0046  0.2207
    1CHOL    R313772  16.969  12.932   3.783 -0.0625 -0.0597  0.1290
    1CHOL    R413773  16.884  13.155   3.952 -0.1149 -0.1083  0.1541
    1CHOL    R513774  17.040  13.010   3.997 -0.1906 -0.1662  0.2082
    1CHOL    C113775  16.810  12.953   4.296 -0.4108 -0.2205  0.0292
    1CHOL    C213776  16.749  12.785   4.561 -0.3683 -0.0195 -0.1352
    1CHOL   ROH13777   9.306  14.139   5.632 -0.1131 -0.1252  0.1795
    1CHOL    R113778   9.290  14.162   5.350 -0.0896  0.0041  0.1880
    1CHOL    R213779   9.376  13.962   5.180 -0.0327  0.1021  0.1023
    1CHOL    R313780   9.124  13.985   5.079 -0.0265  0.0975  0.0865
    1CHOL    R413781   9.277  13.853   4.867 -0.0138  0.0587  0.1118
    1CHOL    R513782   9.157  14.034   4.847 -0.0078  0.0631  0.0796
    1CHOL    C113783   8.984  13.812   4.590  0.0030  0.0290  0.1025
    1CHOL    C213784   8.750  13.619   4.285 -0.0496  0.1579  0.0648
    1CHOL   ROH13785   3.451  14.220   5.821  0.1128 -0.1262 -0.0038
    1CHOL    R113786   3.498  14.129   5.557  0.0086 -0.0285 -0.0561
    1CHOL    R213787   3.306  13.996   5.410 -0.0616  0.0632 -0.0437
    1CHOL    R313788   3.356  14.191   5.228 -0.0918  0.1260  0.0139
    1CHOL    R413789   3.288  13.955   5.067  0.0615  0.1247 -0.0585
    1CHOL    R513790   3.467  14.077   5.048  0.0156  0.2106  0.0232
    1CHOL    C113791   3.324  14.114   4.697  0.1049  0.2195 -0.0131
    1CHOL    C213792   3.525  14.107   4.381 -0.1024  0.1606 -0.1567
    1CHOL   ROH13793  16.179  14.235   6.417 -0.0882 -0.2032 -0.0758
    1CHOL    R113794  16.325  14.167   6.184 -0.1698 -0.3329 -0.0904
    1CHOL    R213795  16.204  14.065   5.957 -0.3274  0.0321 -0.1789
    1CHOL    R313796  16.330  14.273   5.835  0.0885 -0.1201 -0.0255
    1CHOL    R413797  16.269  14.085   5.618 -0.3344  0.1691 -0.1726
    1CHOL    R513798  16.465  14.170   5.666 -0.1438 -0.2678 -0.1258
    1CHOL    C113799  16.426  14.291   5.307  0.0518  0.1062 -0.0249
    1CHOL    C213800  16.292  14.245   5.027 -0.0202 -0.0909  0.2035
    1CHOL   ROH13801  18.311  15.386   3.599 -0.0519 -0.0512  0.0426
    1CHOL    R113802  18.204  15.454   3.853  0.0063  0.0120  0.0512
    1CHOL    R213803  18.216  15.284   4.070 -0.1174 -0.0149  0.0416
    1CHOL    R313804  18.333  15.498   4.190  0.0508 -0.1111  0.0499
    1CHOL    R413805  18.246  15.325   4.411 -0.3634  0.0902  0.0518
    1CHOL    R513806  18.198  15.536   4.385 -0.0721  0.1426 -0.0821
    1CHOL    C113807  18.373  15.550   4.724 -0.3486  0.0612  0.0655
    1CHOL    C213808  18.255  15.293   4.898  0.2483 -0.0030  0.1831
    1CHOL   ROH13809  17.205   9.576   2.927 -0.1085  0.0408  0.1071
    1CHOL    R113810  17.221   9.377   3.128 -0.0402 -0.0378  0.0241
    1CHOL    R213811  17.457   9.247   3.191  0.0053  0.0218 -0.0273
    1CHOL    R313812  17.399   9.333   3.443 -0.0302 -0.1052  0.0091
    1CHOL    R413813  17.613   9.136   3.478  0.0885  0.0094 -0.0763
    1CHOL    R513814  17.420   9.136   3.578  0.0944 -0.1429 -0.0634
    1CHOL    C113815  17.650   9.151   3.882  0.1039 -0.1169 -0.0707
    1CHOL    C213816  17.593   9.260   4.278 -0.0750 -0.0856  0.2608
    1CHOL   ROH13817  29.109  16.370   3.330 -0.1700 -0.1388 -0.1185
    1CHOL    R113818  29.174  16.373   3.605 -0.1217 -0.0422 -0.1297
    1CHOL    R213819  28.994  16.451   3.800 -0.0974  0.0034 -0.1196
    1CHOL    R313820  29.054  16.209   3.907 -0.0536  0.0433 -0.0567
    1CHOL    R413821  28.941  16.363   4.130  0.0801  0.1353 -0.0551
    1CHOL    R513822  29.133  16.260   4.128  0.0708  0.1243 -0.1207
    1CHOL    C113823  28.967  16.084   4.423  0.2246  0.2499  0.0413
    1CHOL    C213824  28.918  16.090   4.784  0.0824 -0.2034  0.0561
    1CHOL   ROH13825  25.338   4.212   6.528  0.1551 -0.2670 -0.0490
    1CHOL    R113826  25.316   4.317   6.266  0.0546 -0.1264  0.0146
    1CHOL    R213827  25.324   4.157   6.041  0.2003  0.0175 -0.0820
    1CHOL    R313828  25.088   4.280   5.985  0.0841 -0.1657 -0.0050
    1CHOL    R413829  25.157   4.136   5.739  0.1786 -0.0246 -0.0675
    1CHOL    R513830  25.109   4.348   5.757 -0.0032 -0.0676  0.0134
    1CHOL    C113831  24.838   4.240   5.511  0.0571 -0.2211  0.0132
    1CHOL    C213832  24.639   4.160   5.249  0.1236 -0.1430  0.1002
    1CHOL   ROH13833  17.551  20.260   3.395  0.1845 -0.0468 -0.1612
    1CHOL    R113834  17.683  20.237   3.644  0.1347  0.0801 -0.1225
    1CHOL    R213835  17.727  20.454   3.809 -0.1834  0.1144 -0.0769
    1CHOL    R313836  17.601  20.299   3.993 -0.0536 -0.0680 -0.1384
    1CHOL    R413837  17.782  20.468   4.150 -0.3747  0.2109 -0.0489
    1CHOL    R513838  17.770  20.251   4.156 -0.0588  0.1863 -0.0508
    1CHOL    C113839  17.696  20.331   4.522 -0.3643  0.0957 -0.0904
    1CHOL    C213840  17.883  20.352   4.900 -0.0769  0.1302 -0.2480
    1CHOL   ROH13841  24.459  12.594   6.624  0.1347 -0.1266  0.0382
    1CHOL    R113842  24.350  12.524   6.372  0.1363 -0.2100  0.0603
    1CHOL    R213843  24.244  12.712   6.199 -0.0531 -0.2918  0.0867
    1CHOL    R313844  24.420  12.602   6.023 -0.0012 -0.1462  0.0464
    1CHOL    R413845  24.214  12.725   5.855 -0.1084 -0.2595  0.0925
    1CHOL    R513846  24.283  12.518   5.846  0.0307 -0.2128  0.0523
    1CHOL    C113847  24.362  12.629   5.490 -0.0920 -0.1040  0.0581
    1CHOL    C213848  24.202  12.838   5.344 -0.1386  0.0637 -0.1689
    1CHOL   ROH13849  22.669  12.278   3.336 -0.0117 -0.0302 -0.0620
    1CHOL    R113850  22.811  12.309   3.579 -0.1014 -0.1577  0.0058
    1CHOL    R213851  22.780  12.530   3.742  0.0480 -0.1129 -0.0371
    1CHOL    R313852  22.728  12.342   3.932 -0.2427 -0.0378 -0.0362
    1CHOL    R413853  22.794  12.585   4.083  0.1317 -0.1261 -0.0362
    1CHOL    R513854  22.886  12.389   4.106 -0.1653 -0.2754 -0.0344
    1CHOL    C113855  22.752  12.442   4.460 -0.0926 -0.0634 -0.0348
    1CHOL    C213856  22.890  12.521   4.773  0.2318  0.1201 -0.1508
    1CHOL   ROH13857  26.137   7.231   2.891 -0.1528 -0.0318  0.0376
    1CHOL    R113858  26.324   7.238   3.103 -0.1245 -0.0826  0.0137
    1CHOL    R213859  26.337   7.448   3.284 -0.0399 -0.0839  0.0046
    1CHOL    R313860  26.311   7.248   3.467 -0.0741 -0.0699  0.0162
    1CHOL    R413861  26.500   7.437   3.588 -0.2049  0.0180  0.0988
    1CHOL    R513862  26.531   7.223   3.559 -0.1125  0.0211  0.1427
    1CHOL    C113863  26.571   7.243   3.937 -0.3331  0.0904  0.1645
    1CHOL    C213864  26.837   7.396   4.143 -0.1081  0.0549 -0.0879
    1CHOL   ROH13865  29.577   7.509   2.369  0.2748  0.0719  0.0201
    1CHOL    R113866  29.512   7.475   2.642  0.0712  0.1123 -0.0199
    1CHOL    R213867   0.066   7.373   2.826 -0.1867 -0.2400  0.0578
    1CHOL    R313868   0.008   7.602   2.961  0.1258 -0.1657  0.0716
    1CHOL    R413869   0.150   7.435   3.156 -0.1160 -0.3746  0.0642
    1CHOL    R513870  29.580   7.528   3.183  0.0137 -0.1044  0.0620
    1CHOL    C113871   0.144   7.685   3.474  0.2186 -0.3831  0.0808
    1CHOL    C213872   0.276   7.840   3.628 -0.1704 -0.2115 -0.0780
    1CHOL   ROH13873  18.435  20.988   6.306  0.1029 -0.1066  0.0825
    1CHOL    R113874  18.579  20.989   6.062  0.1247 -0.0801  0.0941
    1CHOL    R213875  18.688  20.759   5.953  0.0393 -0.0921  0.0184
    1CHOL    R313876  18.544  20.834   5.735  0.0838  0.0498  0.0385
    1CHOL    R413877  18.785  20.709   5.626 -0.0233 -0.1018  0.0019
    1CHOL    R513878  18.709  20.907   5.577  0.1207 -0.0432  0.0414
    1CHOL    C113879  18.708  20.749   5.230 -0.0181  0.0261  0.0112
    1CHOL    C213880  18.928  20.625   4.979  0.2519  0.1397  0.1424
    1CHOL   ROH13881   6.175   2.736   3.672  0.3762 -0.0021 -0.0757
    1CHOL    R113882   6.091   2.982   3.784  0.2060 -0.0509 -0.0936
    1CHOL    R213883   6.104   3.035   4.055  0.0344 -0.0741 -0.0779
    1CHOL    R313884   6.243   3.253   3.973 -0.0153 -0.0045  0.0212
    1CHOL    R413885   6.115   3.336   4.224 -0.0087 -0.1548  0.0707
    1CHOL    R513886   6.103   3.439   4.032 -0.0441 -0.0606  0.1251
    1CHOL    C113887   6.253   3.717   4.246 -0.0804 -0.1364  0.2503
    1CHOL    C213888   6.231   3.843   4.552  0.0631 -0.2013  0.0147
    1CHOL   ROH13889  28.245   4.451   5.832 -0.0616 -0.0179 -0.0866
    1CHOL    R113890  28.204   4.487   5.554 -0.0999 -0.0515 -0.0849
    1CHOL    R213891  28.390   4.409   5.365 -0.1090 -0.0357 -0.0965
    1CHOL    R313892  28.179   4.273   5.260 -0.0963 -0.0829 -0.0633
    1CHOL    R413893  28.316   4.388   5.028 -0.2223  0.0490 -0.0781
    1CHOL    R513894  28.105   4.410   5.078 -0.2151 -0.0480  0.0077
    1CHOL    C113895  28.074   4.249   4.734 -0.2762  0.0540 -0.0360
    1CHOL    C213896  28.332   4.248   4.562  0.3177  0.3529 -0.2500
    1CHOL   ROH13897   2.163   5.747   4.971 -0.1357  0.2355 -0.2368
    1CHOL    R113898   2.196   5.693   4.696 -0.1374  0.0480 -0.2001
    1CHOL    R213899   2.301   5.455   4.603 -0.2084 -0.0410 -0.0393
    1CHOL    R313900   2.071   5.448   4.457 -0.1998 -0.0658 -0.0542
    1CHOL    R413901   2.257   5.274   4.312 -0.1116  0.0738 -0.1274
    1CHOL    R513902   2.145   5.442   4.230 -0.1787  0.0720 -0.0559
    1CHOL    C113903   2.016   5.162   4.005 -0.0471  0.1174 -0.1928
    1CHOL    C213904   1.668   5.062   3.821 -0.0332  0.2356  0.0093
    1CHOL   ROH13905  29.592  14.260   6.518 -0.0314  0.2917 -0.1318
    1CHOL    R113906   0.089  14.249   6.263 -0.0050  0.0005 -0.1103
    1CHOL    R213907  29.623  14.085   6.061 -0.2197  0.0459 -0.0525
    1CHOL    R313908  29.616  14.317   5.919  0.1462  0.0014 -0.1541
    1CHOL    R413909   0.011  14.105   5.716 -0.0732 -0.1159 -0.0573
    1CHOL    R513910   0.142  14.279   5.737  0.1602 -0.2826 -0.0881
    1CHOL    C113911   0.013  14.335   5.382  0.3555 -0.2520 -0.1555
    1CHOL    C213912   0.144  14.144   5.056 -0.1178 -0.3919  0.1573
    1CHOL   ROH13913  17.078  14.244   7.018  0.0198  0.1573  0.1555
    1CHOL    R113914  17.140  14.464   6.851 -0.0628  0.0817  0.0234
    1CHOL    R213915  17.102  14.458   6.578 -0.1214 -0.0731  0.0329
    1CHOL    R313916  16.958  14.683   6.625 -0.1591 -0.0784 -0.0558
    1CHOL    R413917  17.092  14.733   6.369 -0.0525 -0.0971 -0.0022
    1CHOL    R513918  17.098  14.861   6.546 -0.1391 -0.0769 -0.0150
    1CHOL    C113919  16.951  15.105   6.292 -0.0480 -0.1159 -0.1059
    1CHOL    C213920  17.135  15.264   6.012 -0.2133 -0.0428 -0.1273
    1CHOL   ROH13921   6.790  20.680   3.651 -0.2842  0.1122  0.1249
    1CHOL    R113922   6.668  20.563   3.878 -0.2378 -0.0319  0.0763
    1CHOL    R213923   6.571  20.304   3.878 -0.0252 -0.1130  0.0053
    1CHOL    R313924   6.733  20.278   4.095 -0.0503 -0.0220  0.0356
    1CHOL    R413925   6.485  20.141   4.170 -0.0110 -0.1045  0.0146
    1CHOL    R513926   6.584  20.299   4.282 -0.0884 -0.0510  0.0089
    1CHOL    C113927   6.586  20.021   4.544 -0.0264 -0.0142  0.0484
    1CHOL    C213928   6.502  19.948   4.873 -0.3288  0.2748  0.0069
    1CHOL   ROH13929  21.770  10.463   2.962 -0.2274 -0.0956  0.0409
    1CHOL    R113930  21.700  10.474   3.236 -0.2934 -0.2289  0.0300
    1CHOL    R213931  21.674  10.247   3.392  0.2144 -0.2839  0.0492
    1CHOL    R313932  21.852  10.376   3.552 -0.0997  0.1567  0.0620
    1CHOL    R413933  21.699  10.205   3.735  0.2753 -0.2075  0.0546
    1CHOL    R513934  21.730  10.420   3.754 -0.2352 -0.1181  0.0454
    1CHOL    C113935  21.880  10.302   4.084  0.0162  0.2506  0.0697
    1CHOL    C213936  21.821  10.246   4.430  0.0437 -0.0243 -0.1400
    1CHOL   ROH13937  16.035   9.843   3.355 -0.0249  0.0006 -0.1083
    1CHOL    R113938  15.952   9.796   3.622 -0.0182  0.0173 -0.1034
    1CHOL    R213939  15.931   9.998   3.809  0.0111  0.0240 -0.1096
    1CHOL    R313940  15.679   9.902   3.837  0.0022  0.0518 -0.0932
    1CHOL    R413941  15.755   9.990   4.106  0.0949 -0.1046 -0.0626
    1CHOL    R513942  15.680   9.793   4.050  0.0454 -0.0644 -0.1499
    1CHOL    C113943  15.415   9.895   4.305  0.1354 -0.1534 -0.0199
    1CHOL    C213944  15.287   9.625   4.613 -0.1979  0.1020  0.1986
    1CHOL   ROH13945  18.305   9.923   2.913 -0.0537  0.1134 -0.0422
    1CHOL    R113946  18.225   9.813   3.161  0.1951 -0.1047 -0.0551
    1CHOL    R213947  18.407   9.732   3.353  0.3931  0.3515 -0.0374
    1CHOL    R313948  18.264   9.898   3.513 -0.0634 -0.0100 -0.0476
    1CHOL    R413949  18.431   9.744   3.698  0.1956  0.2933 -0.0201
    1CHOL    R513950  18.215   9.767   3.707  0.1285 -0.1891 -0.1165
    1CHOL    C113951  18.311   9.907   4.048 -0.3481 -0.0800 -0.0197
    1CHOL    C213952  18.441   9.872   4.500  0.2017 -0.2306 -0.0455
    1CHOL   ROH13953   0.471  27.971   4.776 -0.0436  0.1117  0.0747
    1CHOL    R113954   0.700  28.116   4.858 -0.0077  0.0935  0.0121
    1CHOL    R213955   0.872  28.023   5.053 -0.0258  0.1362  0.0553
    1CHOL    R313956   1.060  28.062   4.859 -0.0215  0.0056  0.0348
    1CHOL    R413957   1.213  27.997   5.100 -0.0293  0.1543  0.0787
    1CHOL    R513958   1.240  28.172   4.973 -0.0206  0.0705 -0.0324
    1CHOL    C113959   1.588  28.018   4.947 -0.0273  0.0423  0.0730
    1CHOL    C213960   1.899  27.769   4.942 -0.2650  0.5040  0.0778
    1CHOL   ROH13961  18.757  13.965   3.554 -0.3144 -0.0008  0.0287
    1CHOL    R113962  18.620  13.990   3.801 -0.1142  0.0728  0.1336
    1CHOL    R213963  18.580  13.776   3.971 -0.2407  0.0612  0.0812
    1CHOL    R313964  18.698  13.939   4.153  0.0743 -0.1388  0.0659
    1CHOL    R413965  18.531  13.759   4.313 -0.4299  0.2923  0.0687
    1CHOL    R513966  18.529  13.977   4.318  0.0770  0.3178 -0.0165
    1CHOL    C113967  18.614  13.904   4.682 -0.2442  0.2394  0.0472
    1CHOL    C213968  18.476  13.964   5.023 -0.5408 -0.1170  0.1198
    1CHOL   ROH13969  27.217   5.082   5.850  0.1430  0.2997  0.0540
    1CHOL    R113970  27.300   5.154   5.589  0.0198  0.3626  0.0334
    1CHOL    R213971  27.372   4.967   5.398  0.1775  0.4238  0.0438
    1CHOL    R313972  27.183   5.095   5.249  0.0211  0.2148  0.0550
    1CHOL    R413973  27.365   4.977   5.052  0.2813  0.5737  0.0440
    1CHOL    R513974  27.305   5.186   5.064 -0.0439  0.4921  0.1333
    1CHOL    C113975  27.184   5.102   4.712  0.1950  0.4648  0.0546
    1CHOL    C213976  27.506   5.137   4.522  0.1557  0.2023 -0.1117
    1CHOL   ROH13977  24.705  11.212   3.425  0.1762  0.1967 -0.1079
    1CHOL    R113978  24.661  11.082   3.673  0.0825  0.1222 -0.1626
    1CHOL    R213979  24.865  11.034   3.854  0.0145  0.0682 -0.1002
    1CHOL    R313980  24.699  11.166   4.025 -0.0498  0.0168 -0.1223
    1CHOL    R413981  24.903  11.043   4.197 -0.1076 -0.0282 -0.0833
    1CHOL    R513982  24.687  11.023   4.217 -0.1155 -0.0386 -0.1666
    1CHOL    C113983  24.771  11.172   4.558 -0.2391 -0.1328 -0.0940
    1CHOL    C213984  25.045  11.050   4.757  0.1091 -0.0773 -0.0956
    1CHOL   ROH13985  26.726  18.235   6.549  0.0617 -0.0176  0.0906
    1CHOL    R113986  26.603  18.167   6.303  0.0081 -0.1071  0.1422
    1CHOL    R213987  26.612  18.332   6.081  0.0169 -0.2192  0.0614
    1CHOL    R313988  26.711  18.110   5.961 -0.0589 -0.3033  0.1519
    1CHOL    R413989  26.679  18.302   5.743 -0.0610 -0.3991  0.0604
    1CHOL    R513990  26.599  18.100   5.750 -0.1074 -0.3809  0.1782
    1CHOL    C113991  26.812  18.076   5.434 -0.1776 -0.5827  0.1448
    1CHOL    C213992  26.913  17.776   5.163  0.0241  0.0377 -0.1653
    1CHOL   ROH13993  15.585   6.512   3.019  0.0423 -0.1076 -0.2039
    1CHOL    R113994  15.446   6.503   3.265 -0.2065 -0.2032 -0.3454
    1CHOL    R213995  15.353   6.267   3.375  0.3355 -0.3478 -0.1840
    1CHOL    R313996  15.496   6.349   3.591 -0.1202  0.3121 -0.1034
    1CHOL    R413997  15.268   6.202   3.703  0.3132 -0.5436 -0.2263
    1CHOL    R513998  15.329   6.406   3.754 -0.4955 -0.2465 -0.2564
    1CHOL    C113999  15.352   6.242   4.098 -0.1275 -0.0381 -0.1754
    1CHOL    C214000  15.207   6.280   4.389  0.0628  0.1036  0.0007
    1CHOL   ROH14001  24.918   4.984   3.111 -0.1110 -0.1253 -0.2065
    1CHOL    R114002  24.884   4.829   3.345  0.0148 -0.0710 -0.1518
    1CHOL    R214003  25.091   4.780   3.521  0.0703  0.1053 -0.1668
    1CHOL    R314004  24.916   4.881   3.704  0.0384  0.0616 -0.1725
    1CHOL    R414005  25.113   4.733   3.863  0.0738  0.1175 -0.1651
    1CHOL    R514006  24.897   4.708   3.869  0.0803  0.0593 -0.1699
    1CHOL    C114007  24.962   4.801   4.233  0.0459  0.0835 -0.1695
    1CHOL    C214008  25.104   4.523   4.313  0.0551 -0.3637 -0.1331
    1CHOL   ROH14009   4.263   7.724   2.549  0.0199  0.1834  0.1234
    1CHOL    R114010   4.124   7.694   2.794  0.0525  0.1514  0.1384
    1CHOL    R214011   4.071   7.447   2.906 -0.0487  0.1293  0.0469
    1CHOL    R314012   4.194   7.555   3.123  0.0490 -0.0204  0.0672
    1CHOL    R414013   4.048   7.324   3.228 -0.2363  0.1452  0.0402
    1CHOL    R514014   4.036   7.529   3.300 -0.0068  0.1589  0.0444
    1CHOL    C114015   4.150   7.353   3.619 -0.2539  0.0141  0.0554
    1CHOL    C214016   4.083   7.244   3.922 -0.0926  0.0935  0.1136
    1CHOL   ROH14017  21.288  13.062   6.660 -0.0795  0.1515 -0.0304
    1CHOL    R114018  21.221  13.176   6.410 -0.0613 -0.0410 -0.1246
    1CHOL    R214019  21.410  13.283   6.239 -0.0831  0.1404 -0.0393
    1CHOL    R314020  21.299  13.111   6.060  0.2657 -0.0859 -0.0457
    1CHOL    R414021  21.488  13.272   5.903 -0.1671  0.4210 -0.0704
    1CHOL    R514022  21.276  13.241   5.860 -0.1173 -0.0799 -0.0039
    1CHOL    C114023  21.430  13.104   5.539  0.1116  0.3718 -0.0944
    1CHOL    C214024  21.711  13.287   5.421 -0.2889 -0.0385 -0.0833
    1CHOL   ROH14025   7.430   3.203   4.435 -0.0308  0.2298  0.3444
    1CHOL    R114026   7.471   2.923   4.450 -0.1620  0.1981  0.1561
    1CHOL    R214027   7.602   2.803   4.661  0.0388  0.0227 -0.0594
    1CHOL    R314028   7.375   2.653   4.675 -0.0304  0.1429  0.1457
    1CHOL    R414029   7.567   2.512   4.845  0.1090 -0.0604 -0.1769
    1CHOL    R514030   7.453   2.427   4.680 -0.1502  0.0951 -0.0807
    1CHOL    C114031   7.335   2.203   4.965  0.0849  0.0039 -0.0528
    1CHOL    C214032   7.023   1.986   5.036  0.2478 -0.0525  0.1479
    1CHOL   ROH14033  19.895  13.300   3.282  0.0002  0.1147 -0.0823
    1CHOL    R114034  19.798  13.215   3.534  0.0496  0.0898 -0.0722
    1CHOL    R214035  19.855  12.965   3.638  0.0673  0.0801 -0.1105
    1CHOL    R314036  19.943  13.110   3.851  0.1105  0.0551 -0.1108
    1CHOL    R414037  19.837  12.863   3.968  0.2516 -0.0192 -0.1295
    1CHOL    R514038  19.783  13.067   4.023  0.2008 -0.0515 -0.0495
    1CHOL    C114039  19.910  12.939   4.359  0.3993 -0.1004 -0.1407
    1CHOL    C214040  19.843  13.200   4.713  0.2284  0.1187 -0.0987
    1CHOL   ROH14041  29.221  11.877   2.993  0.1150 -0.1680 -0.0063
    1CHOL    R114042  29.151  11.957   3.255  0.1110 -0.0912 -0.0317
    1CHOL    R214043  29.036  11.785   3.437  0.1210 -0.0378  0.0170
    1CHOL    R314044  29.244  11.863   3.594  0.1126  0.0201  0.0011
    1CHOL    R414045  29.076  11.695   3.768  0.0298  0.1697  0.0867
    1CHOL    R514046  29.144  11.899   3.809  0.0729  0.1892 -0.0381
    1CHOL    C114047  29.295  11.716   4.109 -0.0312  0.3448  0.1123
    1CHOL    C214048  29.504  11.796   4.383  0.0730  0.3498 -0.2108
    1CHOL   ROH14049  25.203  10.091   6.701 -0.0566  0.0287 -0.1542
    1CHOL    R114050  25.306   9.909   6.511  0.2134  0.0709 -0.0530
    1CHOL    R214051  25.165   9.834   6.285  0.3089 -0.2843 -0.0008
    1CHOL    R314052  25.390   9.916   6.156  0.1757 -0.0085 -0.0634
    1CHOL    R414053  25.240   9.766   5.955  0.2964 -0.1764 -0.0261
    1CHOL    R514054  25.447   9.734   6.013  0.3538  0.0672 -0.0891
    1CHOL    C114055  25.495   9.804   5.642  0.1638  0.1454 -0.0997
    1CHOL    C214056  25.513   9.749   5.291  0.0842 -0.1044 -0.0488
    1CHOL   ROH14057  26.656   6.073   2.597 -0.1251  0.0257 -0.0413
    1CHOL    R114058  26.662   6.213   2.843  0.2329  0.1273 -0.1037
    1CHOL    R214059  26.506   6.141   3.059  0.0056  0.6403 -0.0881
    1CHOL    R314060  26.745   6.138   3.189 -0.0014  0.0493 -0.0606
    1CHOL    R414061  26.549   6.204   3.397  0.1117  0.4815 -0.0695
    1CHOL    R514062  26.729   6.317   3.348  0.3986  0.0728 -0.0295
    1CHOL    C114063  26.798   6.238   3.715  0.1672 -0.1659 -0.0329
    1CHOL    C214064  26.692   6.274   4.136 -0.0660 -0.2768  0.0219
    1CHOL   ROH14065   6.095  21.520   3.599 -0.0597 -0.1618 -0.1183
    1CHOL    R114066   6.035  21.392   3.844 -0.0684 -0.1495 -0.1144
    1CHOL    R214067   6.194  21.193   3.951 -0.0111 -0.0645 -0.0434
    1CHOL    R314068   6.195  21.355   4.169 -0.1366 -0.0315 -0.0664
    1CHOL    R414069   6.303  21.100   4.266 -0.0354  0.0305 -0.0063
    1CHOL    R514070   6.135  21.211   4.351 -0.1087 -0.0357 -0.0589
    1CHOL    C114071   6.367  21.198   4.654 -0.1674  0.1168 -0.0062
    1CHOL    C214072   6.504  21.026   4.852 -0.3902  0.1626  0.0830
    1CHOL   ROH14073   7.330  22.796   6.192 -0.1706  0.0553 -0.0125
    1CHOL    R114074   7.178  22.929   5.993  0.0459  0.0270 -0.2004
    1CHOL    R214075   7.276  22.978   5.739  0.1606 -0.4177 -0.2474
    1CHOL    R314076   7.049  22.850   5.663 -0.0079 -0.1991 -0.1277
    1CHOL    R414077   7.063  23.085   5.489  0.1525 -0.2283 -0.1618
    1CHOL    R514078   6.895  23.026   5.613  0.1463 -0.0443 -0.0748
    1CHOL    C114079   6.726  23.028   5.271 -0.0103  0.0869  0.0004
    1CHOL    C214080   6.723  23.290   5.033 -0.1306  0.4233  0.5506
    1CHOL   ROH14081  24.042   2.580   3.742 -0.0190 -0.0249 -0.0151
    1CHOL    R114082  24.156   2.765   3.923  0.1432 -0.0280 -0.1135
    1CHOL    R214083  24.025   2.849   4.153  0.2231  0.1940 -0.1530
    1CHOL    R314084  24.254   2.766   4.273  0.1609  0.0689 -0.1166
    1CHOL    R414085  24.115   2.922   4.478  0.2945  0.3172 -0.1986
    1CHOL    R514086  24.320   2.950   4.410  0.3226  0.1031 -0.2298
    1CHOL    C114087  24.382   2.887   4.781  0.2776  0.2716 -0.1910
    1CHOL    C214088  24.274   2.920   5.104 -0.1391  0.0853  0.0421
    1CHOL   ROH14089  22.944   4.723   3.432 -0.1165  0.3171 -0.0353
    1CHOL    R114090  23.074   4.799   3.672 -0.0704  0.1172  0.0063
    1CHOL    R214091  23.059   5.056   3.775  0.1787  0.1107  0.0785
    1CHOL    R314092  22.973   4.926   3.998  0.0102  0.1296  0.0250
    1CHOL    R414093  23.098   5.171   4.098 -0.0279  0.1076  0.1047
    1CHOL    R514094  23.144   4.968   4.161 -0.0989  0.1077  0.1409
    1CHOL    C114095  23.040   5.117   4.496 -0.3062  0.1234  0.0698
    1CHOL    C214096  22.871   5.028   4.898  0.0954  0.2560  0.0679
    1CHOL   ROH14097   9.975  15.022   3.133 -0.0659  0.0761  0.0917
    1CHOL    R114098  10.140  15.171   3.308 -0.0035  0.0151  0.0846
    1CHOL    R214099  10.094  15.186   3.580  0.0432 -0.0093  0.0920
    1CHOL    R314100  10.352  15.101   3.596  0.0270 -0.0701  0.0424
    1CHOL    R414101  10.261  15.115   3.874  0.1382  0.1305  0.0737
    1CHOL    R514102  10.439  15.210   3.791  0.1333  0.0312 -0.0579
    1CHOL    C114103  10.600  14.993   4.060  0.1782  0.1549  0.0164
    1CHOL    C214104  10.910  14.814   4.264 -0.0129 -0.0821  0.0782
    1CHOL   ROH14105  28.794  15.994   3.321  0.0798 -0.0038  0.0391
    1CHOL    R114106  28.778  16.047   3.599  0.0107 -0.0022  0.0342
    1CHOL    R214107  28.538  16.056   3.735 -0.0176 -0.0260 -0.0234
    1CHOL    R314108  28.659  15.873   3.895 -0.0375 -0.0090  0.0126
    1CHOL    R414109  28.474  16.016   4.072 -0.0626  0.0236 -0.0254
    1CHOL    R514110  28.687  15.987   4.105 -0.0611  0.0235  0.0029
    1CHOL    C114111  28.549  15.821   4.419 -0.1076  0.0682  0.0072
    1CHOL    C214112  28.178  15.667   4.677  0.2552  0.1970 -0.0671
    1CHOL   ROH14113   1.125  12.503   2.811  0.0234  0.1040  0.0662
    1CHOL    R114114   1.258  12.534   3.059 -0.0187  0.0786  0.0913
    1CHOL    R214115   1.187  12.727   3.243 -0.1210 -0.0121  0.1446
    1CHOL    R314116   1.168  12.514   3.411 -0.0510 -0.0739  0.0760
    1CHOL    R414117   1.218  12.745   3.587 -0.1943 -0.0994  0.1568
    1CHOL    R514118   1.332  12.559   3.580 -0.1022 -0.0448  0.1206
    1CHOL    C114119   1.220  12.555   3.945 -0.1713 -0.2083  0.0995
    1CHOL    C214120   1.413  12.590   4.277  0.0441  0.0087 -0.1850
    1CHOL   ROH14121   9.946  28.137   3.499 -0.0142  0.2295 -0.0811
    1CHOL    R114122   9.903  28.261   3.749 -0.0188  0.0000  0.0352
    1CHOL    R214123   9.732  28.475   3.781  0.2068  0.1681  0.1699
    1CHOL    R314124   9.620  28.317   3.971 -0.0910  0.0746 -0.0760
    1CHOL    R414125   9.530  28.589   4.038  0.5200  0.1727  0.4205
    1CHOL    R514126   9.630  28.449   4.172  0.2546 -0.2888  0.1569
    1CHOL    C114127   9.307  28.506   4.366  0.4227  0.0875  0.3356
    1CHOL    C214128   8.993  28.466   4.155  0.4704  0.2316  0.1351
    1CHOL   ROH14129  26.531  11.591   3.124  0.0083 -0.1471 -0.0823
    1CHOL    R114130  26.690  11.626   3.356 -0.0402 -0.1009 -0.0570
    1CHOL    R214131  26.615  11.792   3.564 -0.1109 -0.1065 -0.0829
    1CHOL    R314132  26.652  11.568   3.714 -0.0882 -0.0879 -0.0588
    1CHOL    R414133  26.692  11.790   3.901  0.3131 -0.0484 -0.1721
    1CHOL    R514134  26.829  11.625   3.864  0.1496 -0.1657 -0.2976
    1CHOL    C114135  26.770  11.579   4.238  0.5811  0.0028 -0.2013
    1CHOL    C214136  26.780  11.428   4.665 -0.1084  0.0696 -0.0687
    1CHOL   ROH14137  13.120  20.661   5.539  0.0221  0.1550  0.4085
    1CHOL    R114138  13.030  20.755   5.288  0.4722 -0.0321  0.1675
    1CHOL    R214139  12.774  20.852   5.248  0.3774 -0.4978 -0.4744
    1CHOL    R314140  12.906  21.068   5.151  0.2324 -0.2600 -0.1594
    1CHOL    R414141  12.629  21.109   5.068  0.2647 -0.5479 -0.4573
    1CHOL    R514142  12.804  21.112   4.939  0.4244 -0.2391 -0.2544
    1CHOL    C114143  12.669  21.462   4.873  0.0630 -0.3538 -0.1517
    1CHOL    C214144  12.619  21.723   4.862  0.2442  0.1461  0.1558
    1CHOL   ROH14145  11.475  26.922   5.782 -0.0768 -0.2609 -0.0710
    1CHOL    R114146  11.403  27.120   5.593  0.0481 -0.2341 -0.0929
    1CHOL    R214147  11.331  27.058   5.333 -0.1329 -0.2309 -0.0493
    1CHOL    R314148  11.108  27.202   5.396  0.0435  0.0195  0.0167
    1CHOL    R414149  11.148  27.247   5.109 -0.0225 -0.0675 -0.0020
    1CHOL    R514150  11.126  27.400   5.263  0.2023 -0.0199 -0.0183
    1CHOL    C114151  10.833  27.491   5.036  0.2075  0.2629  0.0874
    1CHOL    C214152  10.638  27.425   4.723 -0.1581  0.1192  0.2848
    1CHOL   ROH14153  21.921  17.469   3.563 -0.2474 -0.2035  0.1199
    1CHOL    R114154  22.062  17.443   3.807 -0.1691 -0.2616  0.0688
    1CHOL    R214155  22.152  17.661   3.951  0.0439 -0.2986 -0.0029
    1CHOL    R314156  22.013  17.544   4.153  0.0382 -0.1655  0.0715
    1CHOL    R414157  22.240  17.674   4.285  0.0190 -0.0586 -0.0036
    1CHOL    R514158  22.182  17.464   4.303  0.0316 -0.0493  0.1400
    1CHOL    C114159  22.162  17.571   4.669 -0.0009  0.2061  0.0658
    1CHOL    C214160  22.161  17.483   5.018  0.1494  0.1763  0.0217
    1CHOL   ROH14161  17.297   8.155   3.139 -0.2201  0.1074 -0.1881
    1CHOL    R114162  17.109   8.178   3.349 -0.2174  0.2720 -0.2042
    1CHOL    R214163  17.156   8.078   3.602 -0.3763  0.1162 -0.2417
    1CHOL    R314164  17.098   8.333   3.678 -0.0617  0.1648 -0.1450
    1CHOL    R414165  17.085   8.176   3.926 -0.5742  0.0012 -0.2476
    1CHOL    R514166  16.930   8.307   3.847 -0.2945  0.3035 -0.3410
    1CHOL    C114167  16.989   8.472   4.186 -0.3940 -0.0201 -0.1602
    1CHOL    C214168  17.182   8.625   4.414 -0.1174  0.2404 -0.0687
    1CHOL   ROH14169   0.137   6.708   5.487  0.0014 -0.3464 -0.1148
    1CHOL    R114170  29.608   6.648   5.258 -0.1437 -0.1444 -0.0719
    1CHOL    R214171  29.468   6.842   5.119  0.0371  0.0351 -0.0095
    1CHOL    R314172  29.607   6.744   4.907 -0.1428 -0.1113 -0.0627
    1CHOL    R414173  29.455   6.970   4.798  0.0243  0.0279 -0.0117
    1CHOL    R514174  29.457   6.765   4.722 -0.2011  0.0197 -0.0012
    1CHOL    C114175  29.578   6.952   4.412 -0.1520 -0.1137 -0.0631
    1CHOL    C214176  29.385   6.995   4.006  0.0387  0.1715 -0.2617
    1CHOL   ROH14177  28.420   4.890   2.614  0.1372 -0.1311 -0.0606
    1CHOL    R114178  28.296   4.898   2.868 -0.0514 -0.1757 -0.1504
    1CHOL    R214179  28.249   4.671   3.018  0.2075 -0.1628 -0.0532
    1CHOL    R314180  28.385   4.808   3.209 -0.1400  0.1679 -0.0306
    1CHOL    R414181  28.267   4.580   3.351  0.5899 -0.3042 -0.1069
    1CHOL    R514182  28.247   4.791   3.404 -0.0441 -0.3670  0.0099
    1CHOL    C114183  28.405   4.656   3.724  0.4865 -0.0761 -0.1169
    1CHOL    C214184  28.577   4.353   3.895 -0.1626 -0.1121 -0.2977
    1CHOL   ROH14185   3.719   4.352   5.805  0.0071  0.0060  0.0804
    1CHOL    R114186   3.806   4.368   5.537  0.0658 -0.0164  0.0985
    1CHOL    R214187   3.841   4.145   5.377 -0.0612 -0.0174  0.0763
    1CHOL    R314188   3.673   4.278   5.210  0.0609  0.1217  0.0610
    1CHOL    R414189   3.777   4.056   5.050 -0.2807 -0.1075  0.1413
    1CHOL    R514190   3.781   4.267   4.996 -0.0153 -0.1342  0.0307
    1CHOL    C114191   3.582   4.129   4.702 -0.2940 -0.0294  0.1651
    1CHOL    C214192   3.203   4.054   4.482 -0.0928 -0.0829  0.1648
    1CHOL   ROH14193  26.260  15.456   2.955  0.1711 -0.2656 -0.2530
    1CHOL    R114194  26.289  15.231   3.124  0.0531 -0.1694 -0.1010
    1CHOL    R214195  26.486  15.215   3.318  0.0504 -0.1456 -0.0915
    1CHOL    R314196  26.275  15.166   3.482  0.0245  0.0814 -0.0561
    1CHOL    R414197  26.509  15.106   3.645 -0.0163  0.0193 -0.0312
    1CHOL    R514198  26.340  14.975   3.609 -0.0999  0.1108  0.0486
    1CHOL    C114199  26.325  14.997   3.990 -0.0794  0.3284  0.0372
    1CHOL    C214200  26.397  15.216   4.328 -0.2278  0.1085  0.0848
    1CHOL   ROH14201  20.444  14.658   7.093  0.2294  0.1644 -0.0806
    1CHOL    R114202  20.479  14.749   6.827  0.0688 -0.0193 -0.1665
    1CHOL    R214203  20.404  14.598   6.608 -0.2758 -0.0764 -0.0135
    1CHOL    R314204  20.264  14.822   6.543 -0.1285  0.0180 -0.0118
    1CHOL    R414205  20.336  14.701   6.285 -0.0312  0.0767 -0.0193
    1CHOL    R514206  20.375  14.907   6.348  0.0334  0.0378  0.0835
    1CHOL    C114207  20.165  14.971   6.036  0.2496  0.2545 -0.0210
    1CHOL    C214208  20.198  14.886   5.642  0.0571  0.2097 -0.1950
    1CHOL   ROH14209  23.415   5.694   6.559  0.1921 -0.0484  0.0622
    1CHOL    R114210  23.415   5.823   6.307  0.0758 -0.0359  0.0692
    1CHOL    R214211  23.608   5.773   6.114  0.0187  0.0212  0.0068
    1CHOL    R314212  23.391   5.722   5.958 -0.0180 -0.0194  0.0683
    1CHOL    R414213  23.599   5.804   5.770  0.0034 -0.2119 -0.0162
    1CHOL    R514214  23.400   5.888   5.787  0.0241 -0.1322 -0.0499
    1CHOL    C114215  23.391   5.774   5.423 -0.0397 -0.3857  0.0283
    1CHOL    C214216  23.305   5.854   5.065  0.3735  0.0724 -0.1477
    1CHOL   ROH14217  21.432  11.839   3.215  0.1858  0.0363 -0.0267
    1CHOL    R114218  21.373  11.898   3.485  0.1184  0.0492 -0.0437
    1CHOL    R214219  21.320  11.702   3.673  0.0654  0.0573 -0.0479
    1CHOL    R314220  21.520  11.825   3.810  0.0347  0.0578 -0.0042
    1CHOL    R414221  21.341  11.721   4.017  0.0052  0.0384 -0.0433
    1CHOL    R514222  21.410  11.926   3.997 -0.0011  0.0411 -0.0177
    1CHOL    C114223  21.541  11.846   4.347 -0.0585  0.0277  0.0004
    1CHOL    C214224  21.561  11.834   4.732  0.0105 -0.0778 -0.1037
    1CHOL   ROH14225  29.127  20.185   4.389 -0.0919  0.1037  0.1263
    1CHOL    R114226  29.172  20.248   4.661 -0.0443 -0.0212  0.1478
    1CHOL    R214227  29.002  20.168   4.864 -0.0165 -0.1015  0.1392
    1CHOL    R314228  29.229  20.063   4.970 -0.0058 -0.1634  0.0566
    1CHOL    R414229  29.060  20.125   5.201  0.1815  0.0873  0.1311
    1CHOL    R514230  29.266  20.190   5.169  0.2004 -0.0516 -0.0490
    1CHOL    C114231  29.308  20.001   5.498  0.3069  0.1390  0.0488
    1CHOL    C214232  29.341  19.756   5.773  0.2809 -0.0086 -0.2934
    1CHOL   ROH14233  24.315  28.416   4.331  0.1085 -0.1218  0.3739
    1CHOL    R114234  24.239  28.572   4.554 -0.0107  0.0684  0.2033
    1CHOL    R214235  24.063  28.784   4.533 -0.1359 -0.0543 -0.0405
    1CHOL    R314236  23.929  28.650   4.728 -0.0782  0.0675  0.0843
    1CHOL    R414237  23.834  28.927   4.749  0.0436  0.1121  0.0421
    1CHOL    R514238  23.918  28.806   4.910  0.0875  0.1361  0.0369
    1CHOL    C114239  23.575  28.885   5.058  0.2023  0.3231  0.2073
    1CHOL    C214240  23.557  29.069   5.345 -0.1508 -0.2166 -0.0156
    1CHOL   ROH14241  17.519   9.628   6.070 -0.0810 -0.2865  0.0070
    1CHOL    R114242  17.486   9.687   5.796 -0.0998 -0.1707  0.0341
    1CHOL    R214243  17.696   9.685   5.617 -0.1027 -0.0327  0.0320
    1CHOL    R314244  17.537   9.513   5.480 -0.0568 -0.0132 -0.0473
    1CHOL    R414245  17.669   9.674   5.272 -0.0367  0.0680  0.0226
    1CHOL    R514246  17.454   9.643   5.295 -0.0396  0.0337 -0.0246
    1CHOL    C114247  17.503   9.505   4.943  0.0448  0.1450 -0.0574
    1CHOL    C214248  17.339   9.615   4.594 -0.0248  0.2755 -0.2512
    1CHOL   ROH14249  28.127  11.663   3.012 -0.2650  0.0995  0.2158
    1CHOL    R114250  27.993  11.588   3.250 -0.3099  0.2133  0.2280
    1CHOL    R214251  28.081  11.381   3.411 -0.5537  0.0351  0.1453
    1CHOL    R314252  28.074  11.571   3.605 -0.2342 -0.0052  0.2007
    1CHOL    R414253  28.072  11.318   3.751 -0.4531 -0.0330  0.1352
    1CHOL    R514254  27.929  11.481   3.773 -0.2517  0.1245  0.2507
    1CHOL    C114255  28.061  11.460   4.130 -0.0948 -0.1106  0.1811
    1CHOL    C214256  28.131  11.103   4.282  0.0368 -0.0981  0.3005
    1CHOL   ROH14257  24.569   4.813   6.567 -0.0602 -0.0304 -0.0710
    1CHOL    R114258  24.411   4.811   6.332 -0.0875  0.0864 -0.0546
    1CHOL    R214259  24.338   5.042   6.199  0.0984  0.1408 -0.0669
    1CHOL    R314260  24.451   4.917   5.986 -0.0304  0.0241 -0.0670
    1CHOL    R414261  24.306   5.145   5.871  0.2104  0.1783 -0.0662
    1CHOL    R514262  24.286   4.936   5.813 -0.0091  0.1990 -0.0686
    1CHOL    C114263  24.393   5.087   5.479  0.1550  0.0906 -0.0660
    1CHOL    C214264  24.389   4.976   5.086 -0.2408 -0.2044 -0.0007
    1CHOL   ROH14265  20.870   8.310   6.789  0.0179  0.0431 -0.0173
    1CHOL    R114266  20.936   8.400   6.529  0.0728 -0.0031 -0.0202
    1CHOL    R214267  21.111   8.263   6.364  0.0569 -0.0689  0.0135
    1CHOL    R314268  20.903   8.274   6.189  0.0789 -0.0329 -0.0092
    1CHOL    R414269  21.136   8.215   6.023  0.1314  0.2103 -0.0220
    1CHOL    R514270  20.994   8.378   5.994  0.0580  0.1642  0.0846
    1CHOL    C114271  20.956   8.197   5.660  0.1954  0.4067 -0.0640
    1CHOL    C214272  20.873   8.140   5.323 -0.2409 -0.1150 -0.1691
    1CHOL   ROH14273  27.183   8.974   2.788 -0.1753 -0.1158  0.1444
    1CHOL    R114274  27.207   8.822   3.025  0.0685 -0.1297  0.1141
    1CHOL    R214275  27.433   8.829   3.185  0.0841  0.1575  0.0894
    1CHOL    R314276  27.253   8.890   3.380  0.0169 -0.1281  0.1197
    1CHOL    R414277  27.479   8.772   3.523  0.2403  0.2516  0.0841
    1CHOL    R514278  27.271   8.710   3.536  0.3423 -0.0919  0.1271
    1CHOL    C114279  27.337   8.796   3.902  0.2685  0.0382  0.1095
    1CHOL    C214280  27.298   8.637   4.259  0.1432  0.0958  0.0983
    1CHOL   ROH14281  25.592   5.268   6.364  0.1133  0.0374 -0.0977
    1CHOL    R114282  25.449   5.204   6.128 -0.1906  0.1834  0.0399
    1CHOL    R214283  25.304   5.391   5.986  0.0424  0.3903  0.0671
    1CHOL    R314284  25.457   5.305   5.779 -0.2671  0.0045 -0.0151
    1CHOL    R414285  25.216   5.413   5.653 -0.0911  0.5876  0.1133
    1CHOL    R514286  25.301   5.214   5.622 -0.5807  0.3693  0.0715
    1CHOL    C114287  25.309   5.345   5.264 -0.4590  0.3402  0.0631
    1CHOL    C214288  25.438   5.398   4.867  0.0509 -0.1468  0.1197
    1CHOL   ROH14289   2.520   3.512   3.465  0.1239 -0.0400  0.0671
    1CHOL    R114290   2.444   3.628   3.711  0.0832  0.0026  0.0355
    1CHOL    R214291   2.475   3.498   3.953 -0.0371  0.0080  0.0576
    1CHOL    R314292   2.611   3.724   4.021  0.0173 -0.0324  0.0810
    1CHOL    R414293   2.503   3.621   4.275 -0.1676  0.0755  0.0436
    1CHOL    R514294   2.478   3.823   4.194 -0.0383  0.0652 -0.0189
    1CHOL    C114295   2.648   3.904   4.526 -0.1925  0.0769  0.0573
    1CHOL    C214296   2.725   3.742   4.902 -0.1753  0.0317 -0.3477
    1CHOL   ROH14297  29.254  10.159   6.197  0.2262 -0.0904 -0.1399
    1CHOL    R114298  29.028  10.139   6.028  0.1251  0.3010 -0.0596
    1CHOL    R214299  28.941  10.350   5.872  0.6483  0.3619 -0.2915
    1CHOL    R314300  28.963  10.168   5.671  0.1260  0.0451 -0.0824
    1CHOL    R414301  28.803  10.386   5.556  0.5108  0.2512 -0.2451
    1CHOL    R514302  28.750  10.175   5.561  0.0568  0.3574  0.0586
    1CHOL    C114303  28.744  10.235   5.185 -0.0597 -0.1108 -0.0217
    1CHOL    C214304  28.761  10.154   4.884 -0.0101 -0.0848  0.1366
    1CHOL   ROH14305  20.242   9.140   6.620 -0.1763  0.1018 -0.0884
    1CHOL    R114306  20.175   8.964   6.409 -0.1645  0.0953 -0.0881
    1CHOL    R214307  20.019   9.042   6.194 -0.1302  0.0989 -0.1194
    1CHOL    R314308  20.229   8.949   6.049 -0.1145  0.0726 -0.0777
    1CHOL    R414309  20.010   8.971   5.856 -0.0541  0.1150 -0.1242
    1CHOL    R514310  20.132   8.794   5.895 -0.0956  0.0992 -0.1079
    1CHOL    C114311  20.203   8.843   5.523  0.0051  0.0997 -0.0878
    1CHOL    C214312  20.173   8.791   5.184 -0.1667 -0.0888  0.1732
    1CHOL   ROH14313  21.653   9.197   6.565 -0.3776 -0.0449 -0.0670
    1CHOL    R114314  21.692   9.232   6.287 -0.1575 -0.1158 -0.0491
    1CHOL    R214315  21.824   9.047   6.131 -0.1229 -0.2130  0.0777
    1CHOL    R314316  21.596   9.056   5.983 -0.0176 -0.1349 -0.0792
    1CHOL    R414317  21.787   8.907   5.817 -0.0405 -0.3925  0.1473
    1CHOL    R514318  21.673   9.083   5.758  0.1402 -0.3500 -0.0467
    1CHOL    C114319  21.551   8.835   5.495  0.1061 -0.4237  0.0407
    1CHOL    C214320  21.699   8.652   5.202 -0.0026 -0.3203  0.3005
    1CHOL   ROH14321  20.366  12.183   3.181  0.0880  0.1416 -0.0897
    1CHOL    R114322  20.319  12.257   3.450 -0.0440  0.0142 -0.0755
    1CHOL    R214323  20.230  12.078   3.641  0.0975 -0.1365 -0.1468
    1CHOL    R314324  20.450  12.164   3.776 -0.0146  0.0473 -0.0781
    1CHOL    R414325  20.265  12.073   3.984  0.0219 -0.1708 -0.1398
    1CHOL    R514326  20.362  12.268   3.973 -0.1607 -0.0749 -0.0778
    1CHOL    C114327  20.491  12.150   4.312 -0.1274 -0.0181 -0.0712
    1CHOL    C214328  20.309  12.125   4.471 -0.0461 -0.1827 -0.1530
    1CHOL   ROH14329  13.908  16.975   2.802  0.2844 -0.0191  0.0431
    1CHOL    R114330  13.852  16.762   2.979 -0.0015 -0.0340 -0.0620
    1CHOL    R214331  14.006  16.711   3.203 -0.0277 -0.3896 -0.1304
    1CHOL    R314332  13.767  16.727   3.331  0.0227 -0.1008 -0.0597
    1CHOL    R414333  13.959  16.654   3.541 -0.0132 -0.5852 -0.1588
    1CHOL    R514334  13.774  16.549   3.492 -0.2108 -0.2552 -0.2009
    1CHOL    C114335  13.708  16.636   3.858  0.0426 -0.4279 -0.1091
    1CHOL    C214336  13.446  16.447   4.081  0.0175 -0.1362  0.1467
    1CHOL   ROH14337   7.286   7.868   5.623 -0.1159 -0.0989 -0.0106
    1CHOL    R114338   7.280   7.972   5.360  0.0124 -0.0708 -0.0042
    1CHOL    R214339   7.414   7.854   5.149 -0.0032 -0.1337  0.0164
    1CHOL    R314340   7.169   7.857   5.032  0.0258  0.0220 -0.0406
    1CHOL    R414341   7.358   7.885   4.810  0.0903 -0.1215  0.0023
    1CHOL    R514342   7.190   8.017   4.855  0.1700 -0.0073 -0.0475
    1CHOL    C114343   7.094   7.906   4.502  0.1720  0.0320 -0.0595
    1CHOL    C214344   6.910   7.932   4.176 -0.1020  0.0131  0.0369
    1CHOL   ROH14345   1.565  11.103   3.168 -0.1398 -0.0507 -0.0103
    1CHOL    R114346   1.696  11.065   3.417 -0.1404  0.0076 -0.0006
    1CHOL    R214347   1.690  10.824   3.552  0.0223 -0.0202 -0.0383
    1CHOL    R314348   1.961  10.852   3.546  0.0039  0.1832 -0.0044
    1CHOL    R414349   1.910  10.666   3.767  0.1382 -0.1239 -0.2301
    1CHOL    R514350   2.026  10.850   3.776  0.0038 -0.0501 -0.0055
    1CHOL    C114351   2.291  10.599   3.886  0.1884  0.0067 -0.3099
    1CHOL    C214352   2.544  10.614   4.228 -0.3502  0.0528  0.1017
    1CHOL   ROH14353   7.958   9.854   2.652 -0.0072  0.0112 -0.0706
    1CHOL    R114354   7.913   9.829   2.930 -0.0619  0.0598 -0.0751
    1CHOL    R214355   8.043   9.985   3.117 -0.0794  0.0736 -0.0763
    1CHOL    R314356   7.790  10.041   3.199 -0.0879  0.1153 -0.1303
    1CHOL    R414357   7.963  10.193   3.381 -0.0920 -0.0515  0.0198
    1CHOL    R514358   7.806  10.053   3.438 -0.1632 -0.0310 -0.1159
    1CHOL    C114359   7.679  10.368   3.612 -0.1074 -0.0852  0.0250
    1CHOL    C214360   7.648  10.695   3.888 -0.0366  0.1246  0.0577
    1CHOL   ROH14361   1.312  10.421   2.420  0.1014 -0.1229  0.1627
    1CHOL    R114362   1.413  10.213   2.583  0.2489 -0.0893  0.1173
    1CHOL    R214363   1.655  10.231   2.714  0.2091  0.0806  0.1769
    1CHOL    R314364   1.504  10.171   2.932  0.2086 -0.1194  0.1233
    1CHOL    R414365   1.774  10.082   3.003  0.2641  0.0828  0.1549
    1CHOL    R514366   1.591   9.963   3.011  0.3629 -0.0718  0.0743
    1CHOL    C114367   1.701   9.939   3.375  0.2956 -0.1037  0.0918
    1CHOL    C214368   1.641   9.547   3.396  0.0503  0.0064  0.2757
    1CHOL   ROH14369  27.761   9.009   6.102 -0.1550 -0.0120  0.0055
    1CHOL    R114370  27.878   9.061   5.850 -0.0653 -0.1301  0.0225
    1CHOL    R214371  27.791   8.941   5.617 -0.1393 -0.0590  0.0164
    1CHOL    R314372  27.769   9.197   5.530  0.1124 -0.0406 -0.0023
    1CHOL    R414373  27.738   9.034   5.289 -0.1266 -0.0392  0.0195
    1CHOL    R514374  27.879   9.198   5.318  0.0600 -0.1831 -0.0333
    1CHOL    C114375  27.686   9.329   5.016  0.1167 -0.0103  0.0037
    1CHOL    C214376  27.844   9.341   4.704 -0.2681 -0.1958  0.2707
    1CHOL   ROH14377  25.037  14.498   6.261 -0.0216  0.0054 -0.0163
    1CHOL    R114378  25.116  14.656   6.040 -0.0525 -0.1281 -0.1239
    1CHOL    R214379  25.060  14.585   5.779 -0.2943 -0.1704 -0.0622
    1CHOL    R314380  24.950  14.833   5.770 -0.1059 -0.0848 -0.0634
    1CHOL    R414381  25.031  14.777   5.493 -0.3167 -0.2278 -0.0990
    1CHOL    R514382  25.085  14.952   5.611 -0.1066 -0.2348 -0.1798
    1CHOL    C114383  24.910  15.122   5.318 -0.1530 -0.1808 -0.1216
    1CHOL    C214384  25.147  15.288   4.893 -0.0739  0.1874 -0.2680
    1CHOL   ROH14385  24.369   8.090   6.474 -0.2971  0.3959  0.2104
    1CHOL    R114386  24.255   8.027   6.223 -0.1416  0.2064  0.1844
    1CHOL    R214387  24.063   8.185   6.103 -0.1981  0.0251  0.0255
    1CHOL    R314388  24.237   8.182   5.894 -0.0983  0.0501  0.1082
    1CHOL    R414389  23.972   8.171   5.770 -0.0327 -0.1282 -0.0140
    1CHOL    R514390  24.137   8.033   5.736  0.0557 -0.0519  0.1070
    1CHOL    C114391  24.083   8.159   5.380  0.1573 -0.1940  0.0407
    1CHOL    C214392  23.906   8.020   5.085 -0.3701 -0.1645  0.0746
    1CHOL   ROH14393  28.672  13.015   3.096  0.2180 -0.1641 -0.0052
    1CHOL    R114394  28.607  12.883   3.338 -0.0626  0.0213  0.0233
    1CHOL    R214395  28.796  12.754   3.493 -0.3019 -0.1778  0.1478
    1CHOL    R314396  28.697  12.915   3.689 -0.1609  0.0365  0.0486
    1CHOL    R414397  28.835  12.700   3.832 -0.0051  0.2164  0.1838
    1CHOL    R514398  28.629  12.764   3.861  0.0052  0.2192  0.2842
    1CHOL    C114399  28.765  12.820   4.213  0.3000  0.6471  0.1117
    1CHOL    C214400  28.898  12.684   4.670  0.1277 -0.1003  0.1141
    1CHOL   ROH14401  22.443  16.585   3.523  0.0108  0.2952  0.0150
    1CHOL    R114402  22.416  16.671   3.792 -0.0794  0.2276  0.0286
    1CHOL    R214403  22.519  16.528   4.005 -0.1693  0.1618  0.0312
    1CHOL    R314404  22.640  16.764   4.063 -0.1686  0.1361  0.1343
    1CHOL    R414405  22.633  16.621   4.317  0.0443 -0.0699  0.0250
    1CHOL    R514406  22.558  16.821   4.280 -0.0188 -0.0521  0.2420
    1CHOL    C114407  22.812  16.897   4.554  0.1693 -0.2288  0.1182
    1CHOL    C214408  22.854  16.883   4.880 -0.0746 -0.0316 -0.1573
    1CHOL   ROH14409  25.835   6.876   6.307 -0.0325 -0.2824 -0.0635
    1CHOL    R114410  25.734   6.781   6.060  0.0626 -0.1268 -0.1629
    1CHOL    R214411  25.619   6.947   5.873  0.1534 -0.0061 -0.1087
    1CHOL    R314412  25.804   6.836   5.707  0.2118  0.0799 -0.1035
    1CHOL    R414413  25.620   6.979   5.528  0.1751  0.0331 -0.1060
    1CHOL    R514414  25.679   6.769   5.515  0.2542  0.0543 -0.1239
    1CHOL    C114415  25.795   6.892   5.173  0.2427  0.1368 -0.0995
    1CHOL    C214416  25.697   6.837   4.846  0.3197  0.0579 -0.0807
    1CHOL   ROH14417   8.357  27.718   5.754 -0.2631 -0.1562  0.0031
    1CHOL    R114418   8.205  27.595   5.550 -0.0862 -0.1320 -0.1445
    1CHOL    R214419   8.314  27.525   5.305  0.1527 -0.1988 -0.0181
    1CHOL    R314420   8.213  27.280   5.367  0.0025 -0.1590 -0.0964
    1CHOL    R414421   8.238  27.279   5.075  0.3737 -0.2160 -0.0757
    1CHOL    R514422   8.059  27.233   5.191  0.2084 -0.1436 -0.2892
    1CHOL    C114423   8.099  26.905   4.999  0.3614 -0.1890 -0.1826
    1CHOL    C214424   8.112  26.873   4.580  0.3505  0.0471 -0.0879
    1CHOL   ROH14425  23.005   7.689   3.060  0.0623 -0.2361  0.0599
    1CHOL    R114426  23.008   7.800   3.320  0.2460 -0.1304  0.0141
    1CHOL    R214427  22.800   7.768   3.499  0.1588  0.3361  0.0105
    1CHOL    R314428  22.997   7.675   3.662 -0.0258  0.0286  0.0653
    1CHOL    R414429  22.757   7.675   3.829 -0.0467  0.5584  0.0496
    1CHOL    R514430  22.947   7.769   3.876  0.1348  0.2192  0.0204
    1CHOL    C114431  22.917   7.533   4.174 -0.3397  0.3991  0.1237
    1CHOL    C214432  22.843   7.286   4.491 -0.0490 -0.1586 -0.0573
    1CHOL   ROH14433  19.221  17.106   3.656  0.0875 -0.0414  0.0534
    1CHOL    R114434  19.191  17.062   3.934 -0.0354  0.0513  0.0553
    1CHOL    R214435  19.370  17.161   4.120  0.0211 -0.0995  0.0791
    1CHOL    R314436  19.145  17.268   4.231  0.1040  0.1671 -0.0013
    1CHOL    R414437  19.332  17.237   4.455  0.0278  0.0360  0.0499
    1CHOL    R514438  19.128  17.161   4.445 -0.0536  0.2433  0.0273
    1CHOL    C114439  19.100  17.382   4.754  0.1097  0.3651 -0.0426
    1CHOL    C214440  18.952  17.566   4.998 -0.0984  0.1396  0.0926
    1CHOL   ROH14441  17.101   5.105   6.016  0.0895  0.0908 -0.0537
    1CHOL    R114442  17.187   5.160   5.752  0.0126  0.0529 -0.0856
    1CHOL    R214443  17.437   5.087   5.658 -0.0387 -0.0001 -0.1592
    1CHOL    R314444  17.292   4.966   5.462 -0.1187  0.0134 -0.1108
    1CHOL    R414445  17.548   5.032   5.336 -0.0860 -0.1242 -0.1558
    1CHOL    R514446  17.350   5.086   5.263 -0.0807 -0.0515 -0.1481
    1CHOL    C114447  17.478   4.887   4.964 -0.1885 -0.1838 -0.1084
    1CHOL    C214448  17.711   4.871   4.747  0.0634 -0.1261 -0.0151
    1CHOL   ROH14449   4.839  24.944   3.963 -0.0685 -0.0328  0.1383
    1CHOL    R114450   4.986  24.856   4.188 -0.0032 -0.0306  0.0971
    1CHOL    R214451   5.249  24.927   4.231 -0.0487  0.1309  0.1226
    1CHOL    R314452   5.154  25.010   4.471 -0.1029 -0.0377  0.1598
    1CHOL    R414453   5.398  24.860   4.536  0.0262  0.1420  0.0884
    1CHOL    R514454   5.199  24.827   4.619  0.0590 -0.0549  0.0896
    1CHOL    C114455   5.394  24.899   4.939  0.0189 -0.0099  0.1035
    1CHOL    C214456   5.294  24.841   5.287 -0.2728  0.0600 -0.0544
    1CHOL   ROH14457  27.913  18.123   3.567 -0.1283  0.0305  0.0734
    1CHOL    R114458  27.838  18.051   3.830 -0.0338  0.0274  0.0997
    1CHOL    R214459  27.606  17.911   3.886 -0.0595  0.1069  0.1896
    1CHOL    R314460  27.777  17.742   4.012 -0.0645  0.0283  0.0920
    1CHOL    R414461  27.537  17.745   4.181 -0.1191 -0.1640  0.0267
    1CHOL    R514462  27.742  17.785   4.245 -0.1434 -0.1797  0.1219
    1CHOL    C114463  27.658  17.489   4.472 -0.1584 -0.3955 -0.1598
    1CHOL    C214464  27.757  17.660   4.786 -0.1603  0.1084 -0.3279
    1CHOL   ROH14465  21.556   7.018   3.376 -0.1263  0.3672  0.0283
    1CHOL    R114466  21.469   7.098   3.633 -0.0443  0.2298  0.0998
    1CHOL    R214467  21.372   6.919   3.820 -0.0195  0.1346  0.0204
    1CHOL    R314468  21.563   7.029   3.978  0.0395  0.0136  0.0358
    1CHOL    R414469  21.381   6.895   4.165 -0.0503  0.1115  0.0201
    1CHOL    R514470  21.444   7.104   4.172  0.0732  0.0748  0.0339
    1CHOL    C114471  21.566   6.985   4.513 -0.0129 -0.0155  0.0344
    1CHOL    C214472  21.385   7.004   4.769  0.1908  0.4382 -0.1370
    1CHOL   ROH14473  20.053   4.217   6.474 -0.0861 -0.1159 -0.0367
    1CHOL    R114474  20.049   4.276   6.197  0.0133 -0.0296 -0.0202
    1CHOL    R214475  20.276   4.267   6.040  0.0626 -0.0133  0.0521
    1CHOL    R314476  20.126   4.099   5.889  0.0887  0.0557 -0.0512
    1CHOL    R414477  20.299   4.238   5.697  0.2222  0.0482  0.0567
    1CHOL    R514478  20.082   4.223   5.689  0.2192  0.1083 -0.0501
    1CHOL    C114479  20.171   4.063   5.354  0.3396  0.1487 -0.0376
    1CHOL    C214480  20.137   4.194   5.085 -0.3574 -0.3269  0.2240
    1CHOL   ROH14481  25.589  11.042   6.680  0.2606  0.0328 -0.2278
    1CHOL    R114482  25.603  11.058   6.398  0.1180 -0.0984 -0.2438
    1CHOL    R214483  25.591  10.835   6.235  0.0007 -0.1704 -0.1356
    1CHOL    R314484  25.389  10.972   6.116 -0.0398 -0.1959 -0.0965
    1CHOL    R414485  25.506  10.811   5.901  0.0384 -0.0718 -0.1528
    1CHOL    R514486  25.474  11.027   5.899 -0.0398 -0.0798 -0.0697
    1CHOL    C114487  25.266  10.926   5.595  0.0221 -0.0383 -0.1261
    1CHOL    C214488  25.356  10.866   5.145 -0.2163  0.0109  0.1426
    1CHOL   ROH14489  23.378  25.247   4.266  0.0669 -0.2551 -0.0514
    1CHOL    R114490  23.588  25.302   4.447 -0.0221 -0.0500 -0.0103
    1CHOL    R214491  23.840  25.380   4.364 -0.0131 -0.0557  0.0283
    1CHOL    R314492  23.795  25.590   4.531 -0.1305  0.0751 -0.1597
    1CHOL    R414493  24.085  25.587   4.494 -0.0795 -0.0666  0.1773
    1CHOL    R514494  23.979  25.585   4.684 -0.3054  0.1002  0.0616
    1CHOL    C114495  24.185  25.903   4.726 -0.2287  0.0496  0.0876
    1CHOL    C214496  24.211  26.201   5.039  0.0637 -0.1206  0.3618
    1CHOL   ROH14497  22.282  11.632   6.351 -0.0807 -0.0811 -0.2138
    1CHOL    R114498  22.391  11.588   6.094 -0.1444  0.0635 -0.2656
    1CHOL    R214499  22.397  11.338   5.976  0.0972  0.0820 -0.2779
    1CHOL    R314500  22.270  11.466   5.773 -0.1442 -0.0610 -0.2224
    1CHOL    R414501  22.366  11.215   5.655  0.0916  0.0194 -0.2541
    1CHOL    R514502  22.403  11.417   5.580 -0.1652  0.0720 -0.2822
    1CHOL    C114503  22.228  11.264   5.277 -0.1383 -0.1512 -0.1882
    1CHOL    C214504  21.919  11.014   5.089 -0.1403 -0.1272 -0.0264
    1CHOL   ROH14505  24.915  13.662   3.241  0.0715 -0.1066  0.0617
    1CHOL    R114506  24.815  13.515   3.461  0.0726 -0.0968  0.0702
    1CHOL    R214507  24.911  13.547   3.718  0.1332 -0.1431  0.0604
    1CHOL    R314508  24.648  13.589   3.776  0.1556 -0.0706  0.1060
    1CHOL    R414509  24.768  13.494   4.028  0.1722 -0.0442  0.0950
    1CHOL    R514510  24.593  13.410   3.927  0.1377 -0.0208  0.1505
    1CHOL    C114511  24.439  13.502   4.264  0.2160  0.0815  0.1580
    1CHOL    C214512  24.355  13.460   4.671  0.0378 -0.0081  0.0595
    1CHOL   ROH14513   1.019   6.279   5.448  0.0788  0.0652  0.0834
    1CHOL    R114514   1.024   6.434   5.211 -0.0136  0.0347  0.0598
    1CHOL    R214515   1.231   6.418   5.027 -0.0468  0.0639  0.0142
    1CHOL    R314516   1.028   6.369   4.853 -0.0742 -0.0160  0.0692
    1CHOL    R414517   1.264   6.412   4.683 -0.1488  0.1055  0.0041
    1CHOL    R514518   1.072   6.515   4.668 -0.1986  0.0163  0.0677
    1CHOL    C114519   1.093   6.363   4.319 -0.2340  0.0547  0.0498
    1CHOL    C214520   1.347   6.463   4.088 -0.0374 -0.0327  0.0681
    1CHOL   ROH14521  16.906   6.411   6.165 -0.2583 -0.1703 -0.0053
    1CHOL    R114522  16.855   6.357   5.891 -0.2419  0.1047 -0.0650
    1CHOL    R214523  16.775   6.553   5.714  0.0210  0.3388  0.0675
    1CHOL    R314524  16.990   6.466   5.571 -0.0318  0.2187  0.0594
    1CHOL    R414525  16.830   6.621   5.380  0.1010  0.4011  0.0929
    1CHOL    R514526  16.900   6.416   5.354 -0.0529  0.3536  0.0355
    1CHOL    C114527  17.064   6.580   5.051  0.0981  0.3247  0.0999
    1CHOL    C214528  16.734   6.569   4.838  0.0005 -0.2275 -0.2228
    1CHOL   ROH14529   5.727  13.603   2.618 -0.0807 -0.1702 -0.0075
    1CHOL    R114530   5.783  13.514   2.881  0.0452 -0.0805 -0.0035
    1CHOL    R214531   6.003  13.602   3.024  0.0945 -0.0049 -0.1256
    1CHOL    R314532   5.816  13.667   3.210  0.1659  0.0263 -0.0637
    1CHOL    R414533   6.072  13.702   3.348  0.2192  0.0295 -0.1621
    1CHOL    R514534   5.904  13.581   3.415  0.2376  0.0456 -0.0858
    1CHOL    C114535   5.937  13.820   3.711  0.3588  0.0789 -0.1251
    1CHOL    C214536   6.277  14.035   3.765  0.2123  0.0211 -0.2680
    1CHOL   ROH14537  19.067  27.149   4.329  0.1125  0.0252 -0.0184
    1CHOL    R114538  19.011  27.227   4.596 -0.1058 -0.0443 -0.0396
    1CHOL    R214539  19.128  27.449   4.713  0.0684 -0.2632  0.2298
    1CHOL    R314540  18.870  27.519   4.761  0.0998  0.0677 -0.0626
    1CHOL    R414541  19.022  27.649   4.974 -0.0049 -0.4037  0.3065
    1CHOL    R514542  18.851  27.518   4.999 -0.2426 -0.1784 -0.0889
    1CHOL    C114543  18.718  27.832   5.170 -0.0182 -0.1748  0.0766
    1CHOL    C214544  18.279  27.716   5.305 -0.3011  0.0617 -0.1019
    1CHOL   ROH14545  21.436  24.295   6.919  0.2187  0.0159  0.0199
    1CHOL    R114546  21.403  24.131   6.691  0.0385 -0.0423  0.0865
    1CHOL    R214547  21.163  24.110   6.556  0.0198  0.1849  0.0856
    1CHOL    R314548  21.314  24.179   6.341  0.1141 -0.0829  0.0605
    1CHOL    R414549  21.043  24.153   6.235  0.1373 -0.1183 -0.0037
    1CHOL    R514550  21.221  24.054   6.159  0.1385 -0.2510  0.1588
    1CHOL    C114551  21.114  24.244   5.846  0.2944 -0.5458 -0.0792
    1CHOL    C214552  21.288  24.557   5.490 -0.3399  0.0665 -0.0639
    1CHOL   ROH14553   1.404  13.479   6.071 -0.0853 -0.0056 -0.0256
    1CHOL    R114554   1.317  13.431   5.806  0.0132 -0.0285 -0.0554
    1CHOL    R214555   1.364  13.609   5.600  0.0248 -0.0087 -0.0422
    1CHOL    R314556   1.474  13.391   5.480  0.1315  0.0255 -0.0043
    1CHOL    R414557   1.332  13.530   5.265 -0.1167 -0.1997  0.0160
    1CHOL    R514558   1.310  13.321   5.321  0.0930 -0.1900  0.1313
    1CHOL    C114559   1.417  13.279   4.958 -0.0989 -0.2786  0.0854
    1CHOL    C214560   1.125  13.039   4.769 -0.2884  0.3428  0.0456
    1CHOL   ROH14561  13.402   3.243   3.383  0.0167 -0.0599 -0.1399
    1CHOL    R114562  13.277   3.246   3.637  0.0171 -0.2623 -0.1362
    1CHOL    R214563  13.271   3.025   3.803  0.3376 -0.2903 -0.1571
    1CHOL    R314564  13.379   3.197   3.983  0.0983 -0.1492 -0.1439
    1CHOL    R414565  13.232   3.002   4.145  0.1964 -0.2425 -0.1692
    1CHOL    R514566  13.211   3.219   4.152 -0.0020 -0.2585 -0.2289
    1CHOL    C114567  13.310   3.150   4.514 -0.1103 -0.0822 -0.1638
    1CHOL    C214568  13.346   2.775   4.662  0.0874 -0.0432 -0.1477
    1CHOL   ROH14569  17.701  11.979   3.158 -0.0376 -0.1192  0.0343
    1CHOL    R114570  17.629  12.025   3.428 -0.0889 -0.1557  0.0272
    1CHOL    R214571  17.478  11.845   3.575  0.0840 -0.2878  0.0471
    1CHOL    R314572  17.687  11.862   3.748  0.0665 -0.0598  0.0486
    1CHOL    R414573  17.469  11.744   3.905  0.1757 -0.2434  0.0636
    1CHOL    R514574  17.585  11.921   3.957  0.0065 -0.1222  0.0368
    1CHOL    C114575  17.659  11.701   4.260  0.2128 -0.0034  0.0745
    1CHOL    C214576  17.557  11.791   4.604  0.1677  0.0225  0.1723
    1CHOL   ROH14577  26.500  16.641   6.297  0.0566  0.0897 -0.0900
    1CHOL    R114578  26.483  16.749   6.036 -0.0779  0.1024 -0.0765
    1CHOL    R214579  26.552  16.605   5.811  0.0943  0.2120 -0.0950
    1CHOL    R314580  26.301  16.673   5.730  0.0077 -0.0805 -0.0831
    1CHOL    R414581  26.434  16.574   5.488  0.0922  0.0111 -0.0759
    1CHOL    R514582  26.332  16.765   5.511 -0.1176 -0.0924 -0.1071
    1CHOL    C114583  26.129  16.619   5.223  0.0098 -0.3806 -0.0537
    1CHOL    C214584  26.099  16.784   4.858 -0.3675 -0.0302 -0.1221
    1CHOL   ROH14585  24.202  11.126   3.355 -0.0838  0.3137 -0.0111
    1CHOL    R114586  24.115  11.044   3.612 -0.0149  0.1522 -0.0371
    1CHOL    R214587  24.257  10.866   3.768  0.1084  0.1728 -0.1202
    1CHOL    R314588  24.240  11.065   3.953 -0.0002  0.0881 -0.0391
    1CHOL    R414589  24.314  10.826   4.106 -0.1249  0.0130 -0.0987
    1CHOL    R514590  24.145  10.958   4.145 -0.1394  0.0076 -0.1520
    1CHOL    C114591  24.331  10.988   4.477 -0.3628 -0.1597 -0.0101
    1CHOL    C214592  24.039  11.080   4.705 -0.3731  0.2672 -0.0084
    1CHOL   ROH14593  27.214  15.814   6.487  0.0247 -0.0334  0.0219
    1CHOL    R114594  27.047  15.811   6.259 -0.0023 -0.2052  0.0432
    1CHOL    R214595  27.080  15.986   6.048 -0.2686 -0.1045  0.0853
    1CHOL    R314596  27.089  15.757   5.901  0.0257 -0.0584  0.0228
    1CHOL    R414597  27.075  15.973   5.702 -0.6331 -0.0157  0.0830
    1CHOL    R514598  26.943  15.800   5.716 -0.2802 -0.2951  0.1961
    1CHOL    C114599  27.080  15.751   5.364 -0.5693  0.0794  0.0232
    1CHOL    C214600  26.835  15.785   5.039 -0.1955  0.1448  0.0586
    1CHOL   ROH14601  21.435   6.735   6.731 -0.1337 -0.0952 -0.1946
    1CHOL    R114602  21.488   6.633   6.472 -0.0486 -0.1307 -0.1630
    1CHOL    R214603  21.367   6.405   6.374 -0.0812 -0.0945 -0.2023
    1CHOL    R314604  21.297   6.569   6.169  0.0700 -0.0860 -0.2489
    1CHOL    R414605  21.397   6.325   6.039 -0.0978 -0.1982 -0.1797
    1CHOL    R514606  21.464   6.529   6.002  0.0647 -0.2548 -0.2187
    1CHOL    C114607  21.348   6.432   5.651  0.0341 -0.2506 -0.2104
    1CHOL    C214608  21.509   6.361   5.340 -0.1772 -0.2062  0.0601
    1CHOL   ROH14609  26.986  13.989   3.258  0.3837 -0.0953 -0.2218
    1CHOL    R114610  27.149  13.932   3.482  0.4232  0.0222 -0.2194
    1CHOL    R214611  27.332  14.114   3.582  0.0294  0.3111  0.0172
    1CHOL    R314612  27.198  14.071   3.815  0.0202 -0.1838 -0.0686
    1CHOL    R414613  27.467  14.156   3.897 -0.1394  0.1489  0.1125
    1CHOL    R514614  27.362  13.975   3.961  0.1270 -0.0986 -0.1358
    1CHOL    C114615  27.421  14.140   4.300 -0.2463 -0.4102  0.0875
    1CHOL    C214616  27.614  14.351   4.437 -0.3547  0.0360  0.2320
    1CHOL   ROH14617   8.311   2.957   2.397 -0.1253 -0.0791 -0.0594
    1CHOL    R114618   8.303   2.931   2.679 -0.1724  0.0018 -0.0537
    1CHOL    R214619   8.530   2.895   2.832 -0.2041  0.0065 -0.0110
    1CHOL    R314620   8.437   3.112   2.965 -0.1861  0.0590 -0.0822
    1CHOL    R414621   8.661   3.017   3.128 -0.2317  0.0482 -0.0154
    1CHOL    R514622   8.457   3.054   3.196 -0.2409  0.1069 -0.0623
    1CHOL    C114623   8.648   3.292   3.425 -0.2309  0.1217 -0.0848
    1CHOL    C214624   8.746   3.559   3.690 -0.3225  0.0863  0.3137
    1CHOL   ROH14625  15.865   1.675   4.215  0.1581 -0.0007  0.1639
    1CHOL    R114626  15.674   1.527   4.364  0.0315 -0.0691 -0.0602
    1CHOL    R214627  15.590   1.605   4.616 -0.0651 -0.2637 -0.0300
    1CHOL    R314628  15.343   1.587   4.503 -0.0159 -0.0765 -0.1703
    1CHOL    R414629  15.290   1.631   4.787 -0.1451 -0.0659 -0.1976
    1CHOL    R514630  15.211   1.470   4.664 -0.1920  0.0027 -0.2560
    1CHOL    C114631  14.885   1.630   4.780 -0.1457  0.2250 -0.4269
    1CHOL    C214632  14.530   1.541   4.722 -0.0959 -0.1615 -0.0671
    1CHOL   ROH14633  15.351  13.301   6.325 -0.1172  0.1168 -0.0544
    1CHOL    R114634  15.326  13.422   6.070 -0.1867  0.0802 -0.0657
    1CHOL    R214635  15.473  13.341   5.851 -0.0454  0.2267 -0.0299
    1CHOL    R314636  15.228  13.316   5.736  0.0040 -0.0406 -0.0843
    1CHOL    R414637  15.384  13.474   5.545 -0.0919  0.0284 -0.1040
    1CHOL    R514638  15.191  13.528   5.630 -0.1626 -0.1146 -0.1747
    1CHOL    C114639  15.102  13.530   5.259 -0.0725 -0.3381 -0.1982
    1CHOL    C214640  14.852  13.346   5.042  0.1300  0.0563  0.1886
    1CHOL   ROH14641  25.789   5.062   5.833  0.0222  0.1400 -0.2675
    1CHOL    R114642  25.732   4.934   5.587  0.0273 -0.0269 -0.1836
    1CHOL    R214643  25.659   5.074   5.360 -0.1509 -0.1914 -0.2344
    1CHOL    R314644  25.868   4.939   5.249 -0.0900 -0.1012 -0.2307
    1CHOL    R414645  25.673   4.967   5.032 -0.0745 -0.1670 -0.2395
    1CHOL    R514646  25.764   4.781   5.101 -0.0085 -0.1312 -0.2491
    1CHOL    C114647  25.877   4.778   4.737  0.0273 -0.0679 -0.2390
    1CHOL    C214648  25.846   4.889   4.459  0.3072  0.0825  0.1668
    1CHOL   ROH14649   2.454   6.594   5.367  0.2089  0.0733 -0.0757
    1CHOL    R114650   2.390   6.766   5.151  0.0621 -0.0331 -0.1180
    1CHOL    R214651   2.170   6.724   4.988 -0.0719 -0.0947  0.0727
    1CHOL    R314652   2.110   6.979   5.058  0.0140 -0.0501 -0.0133
    1CHOL    R414653   1.981   6.941   4.797  0.0206 -0.0855 -0.0093
    1CHOL    R514654   2.119   7.101   4.852  0.0731 -0.1179 -0.0504
    1CHOL    C114655   1.814   7.308   4.752  0.1552 -0.0383 -0.1379
    1CHOL    C214656   1.643   7.550   4.837 -0.0404  0.0327  0.0023
    1CHOL   ROH14657  21.845  11.375   6.412  0.1470 -0.0081 -0.1545
    1CHOL    R114658  21.954  11.403   6.153  0.1142 -0.0111 -0.1687
    1CHOL    R214659  21.937  11.204   5.962  0.1449 -0.0378 -0.1441
    1CHOL    R314660  21.827  11.402   5.811  0.0801 -0.0826 -0.1558
    1CHOL    R414661  21.778  11.156   5.659  0.0661 -0.1195 -0.0902
    1CHOL    R514662  21.874  11.337   5.585  0.0245 -0.1243 -0.1553
    1CHOL    C114663  21.582  11.313   5.341 -0.0405 -0.2091 -0.0699
    1CHOL    C214664  21.420  11.414   5.038  0.1056 -0.0265 -0.1585
    1CHOL   ROH14665  24.867  22.220   4.125  0.1181  0.2298 -0.1278
    1CHOL    R114666  24.885  22.395   4.348  0.0963  0.0834 -0.0111
    1CHOL    R214667  24.688  22.578   4.410  0.1283  0.0904  0.0447
    1CHOL    R314668  24.695  22.455   4.652  0.0231 -0.0595 -0.0252
    1CHOL    R414669  24.581  22.720   4.706  0.0382 -0.0633  0.0877
    1CHOL    R514670  24.753  22.630   4.805 -0.0047 -0.1513  0.0993
    1CHOL    C114671  24.526  22.687   5.106 -0.1128 -0.2938  0.0472
    1CHOL    C214672  24.413  22.844   5.465  0.2700 -0.0298 -0.2209
    1CHOL   ROH14673  23.606  13.422   6.335 -0.0019  0.3196 -0.1019
    1CHOL    R114674  23.598  13.375   6.056  0.1081  0.2057 -0.0873
    1CHOL    R214675  23.376  13.431   5.901  0.1630  0.1352 -0.1987
    1CHOL    R314676  23.554  13.576   5.755  0.2156  0.0832 -0.1852
    1CHOL    R414677  23.361  13.474   5.559  0.3452 -0.0649 -0.2335
    1CHOL    R514678  23.578  13.452   5.551  0.3521 -0.0287 -0.1011
    1CHOL    C114679  23.519  13.635   5.222  0.5006 -0.2303 -0.2411
    1CHOL    C214680  23.524  13.433   4.893 -0.1408 -0.3042 -0.0077
    1CHOL   ROH14681  25.420  19.207   4.015 -0.3212  0.1665  0.0849
    1CHOL    R114682  25.316  19.258   4.273 -0.3628  0.0083  0.1008
    1CHOL    R214683  25.112  19.109   4.384 -0.1393 -0.2926  0.1223
    1CHOL    R314684  25.289  19.078   4.588 -0.0621 -0.0487  0.0964
    1CHOL    R414685  25.039  18.962   4.688  0.0906 -0.3183  0.1675
    1CHOL    R514686  25.159  19.116   4.786 -0.0673 -0.1591  0.1132
    1CHOL    C114687  25.162  18.847   5.057  0.2967 -0.1041  0.1696
    1CHOL    C214688  24.691  18.927   4.989 -0.1495 -0.0206 -0.2021
    1CHOL   ROH14689  18.982  18.148   3.798 -0.2127 -0.1257 -0.2034
    1CHOL    R114690  18.993  18.244   4.064  0.0097 -0.2506 -0.1647
    1CHOL    R214691  18.789  18.393   4.177  0.2208 -0.0707 -0.0123
    1CHOL    R314692  18.799  18.200   4.369  0.0914 -0.1669 -0.1001
    1CHOL    R414693  18.664  18.426   4.498  0.2214 -0.1403 -0.0047
    1CHOL    R514694  18.840  18.320   4.572  0.1537 -0.2836 -0.0417
    1CHOL    C114695  18.601  18.264   4.865  0.1004 -0.2714 -0.0827
    1CHOL    C214696  18.501  18.577   4.972  0.0432  0.0854 -0.1545
    1CHOL   ROH14697   7.430   4.744   4.994 -0.1548  0.0092 -0.0826
    1CHOL    R114698   7.428   4.660   4.724  0.0052 -0.0376 -0.0712
    1CHOL    R214699   7.543   4.807   4.521  0.0121 -0.0067 -0.0497
    1CHOL    R314700   7.675   4.574   4.471  0.1605  0.0562  0.0486
    1CHOL    R414701   7.690   4.725   4.219 -0.0653 -0.1069 -0.0601
    1CHOL    R514702   7.617   4.521   4.245  0.0976 -0.1429  0.1124
    1CHOL    C114703   7.900   4.460   3.996  0.0290 -0.1063  0.0260
    1CHOL    C214704   7.682   4.317   3.681  0.1453  0.3228 -0.4608
    1CHOL   ROH14705  21.741  13.376   6.639  0.2044 -0.0248  0.1597
    1CHOL    R114706  21.870  13.484   6.411  0.0934 -0.0232  0.0971
    1CHOL    R214707  21.889  13.347   6.172  0.1427 -0.0999  0.1448
    1CHOL    R314708  21.775  13.572   6.071 -0.0247 -0.2119  0.0795
    1CHOL    R414709  21.932  13.462   5.849  0.2578 -0.0319  0.1835
    1CHOL    R514710  21.943  13.665   5.928 -0.0154 -0.0224  0.2092
    1CHOL    C114711  21.850  13.741   5.566  0.1676 -0.0975  0.1450
    1CHOL    C214712  21.994  13.830   5.249  0.0158 -0.1525  0.0855
    1CHOL   ROH14713   4.501  14.263   2.780  0.0512  0.0692  0.0188
    1CHOL    R114714   4.273  14.371   2.907  0.0500  0.0293  0.0504
    1CHOL    R214715   4.232  14.354   3.180  0.0474 -0.0560  0.0447
    1CHOL    R314716   4.205  14.624   3.160  0.0470 -0.0496  0.1292
    1CHOL    R414717   4.105  14.559   3.428  0.0139 -0.1389  0.0963
    1CHOL    R514718   4.000  14.672   3.274  0.0318 -0.0895  0.1194
    1CHOL    C114719   4.005  14.931   3.554 -0.0059 -0.1810  0.2057
    1CHOL    C214720   3.646  14.999   3.822 -0.0834  0.2374  0.0324
    1CHOL   ROH14721  24.014  27.303   6.170 -0.0447 -0.0114 -0.0354
    1CHOL    R114722  23.858  27.465   5.998  0.0488 -0.0756 -0.1820
    1CHOL    R214723  23.756  27.709   6.076 -0.3231 -0.2236 -0.1903
    1CHOL    R314724  23.884  27.797   5.852 -0.0672  0.0374  0.0483
    1CHOL    R414725  23.745  28.033   5.955 -0.2654 -0.1035  0.1165
    1CHOL    R514726  23.731  27.953   5.753  0.0073  0.0907  0.0124
    1CHOL    C114727  23.857  28.304   5.675  0.0084  0.2113  0.5193
    1CHOL    C214728  23.938  28.652   5.608  0.4152 -0.0827 -0.0793
    1CHOL   ROH14729  17.614  15.998   6.742 -0.0600  0.4220 -0.0871
    1CHOL    R114730  17.619  15.978   6.460 -0.0244  0.5649 -0.0966
    1CHOL    R214731  17.750  16.161   6.300  0.4012  0.3913  0.0431
    1CHOL    R314732  17.874  15.940   6.202 -0.0214  0.1811 -0.0449
    1CHOL    R414733  17.892  16.138   5.986  0.3903  0.2605  0.0466
    1CHOL    R514734  17.813  15.935   5.971 -0.0134  0.4134 -0.0572
    1CHOL    C114735  18.092  15.916   5.711 -0.0126 -0.0127 -0.0339
    1CHOL    C214736  17.925  16.208   5.475 -0.3686  0.3356 -0.1147
    1CHOL   ROH14737  24.163  10.177   6.807 -0.0454 -0.1826  0.0137
    1CHOL    R114738  24.187  10.062   6.550  0.0159 -0.0781 -0.0263
    1CHOL    R214739  24.049  10.158   6.330  0.1296  0.0572 -0.0322
    1CHOL    R314740  24.298  10.172   6.221  0.1728  0.0278  0.0583
    1CHOL    R414741  24.115  10.187   5.992  0.2476 -0.1416 -0.0290
    1CHOL    R514742  24.280  10.047   6.017  0.2656 -0.1063  0.1244
    1CHOL    C114743  24.387  10.218   5.693  0.3567 -0.2849  0.0578
    1CHOL    C214744  24.516  10.379   5.348  0.1318 -0.1521 -0.1986
    1CHOL   ROH14745   6.502  21.605   3.866  0.0482  0.2688  0.0604
    1CHOL    R114746   6.677  21.547   4.081  0.0161  0.0636  0.0328
    1CHOL    R214747   6.613  21.604   4.345  0.0802  0.0424  0.0521
    1CHOL    R314748   6.668  21.340   4.380 -0.1340 -0.0151 -0.0247
    1CHOL    R414749   6.805  21.473   4.602  0.0375 -0.1784 -0.0257
    1CHOL    R514750   6.894  21.336   4.459 -0.1144 -0.2233 -0.0823
    1CHOL    C114751   6.967  21.150   4.784 -0.1885 -0.3610 -0.1430
    1CHOL    C214752   7.332  21.043   4.975 -0.2914 -0.1879  0.3844
    1CHOL   ROH14753  16.283  16.299   6.150  0.3707  0.0475  0.1326
    1CHOL    R114754  16.413  16.369   5.909  0.1715  0.0420  0.0224
    1CHOL    R214755  16.311  16.302   5.660  0.0375 -0.0853  0.1119
    1CHOL    R314756  16.334  16.569   5.615 -0.1294 -0.0866  0.0109
    1CHOL    R414757  16.351  16.448   5.349 -0.0393 -0.1842  0.0551
    1CHOL    R514758  16.494  16.586   5.438 -0.1290 -0.0573  0.0113
    1CHOL    C114759  16.396  16.783   5.126 -0.2406 -0.2429 -0.0729
    1CHOL    C214760  16.384  17.048   4.868  0.2231  0.0181  0.0949
    1CHOL   ROH14761  15.440   4.416   6.016  0.1185 -0.0066 -0.0696
    1CHOL    R114762  15.509   4.502   5.755 -0.0242 -0.1382 -0.1520
    1CHOL    R214763  15.383   4.406   5.529 -0.2778 -0.1168 -0.0241
    1CHOL    R314764  15.340   4.669   5.479 -0.1214 -0.0988 -0.0692
    1CHOL    R414765  15.294   4.537   5.221 -0.3660 -0.1367 -0.0074
    1CHOL    R514766  15.429   4.704   5.259 -0.2254 -0.2206 -0.1312
    1CHOL    C114767  15.202   4.860   4.996 -0.2705 -0.1314 -0.0400
    1CHOL    C214768  15.172   4.868   4.519 -0.1562  0.1705  0.0048
    1CHOL   ROH14769  10.693  15.047   5.768  0.0217  0.2683 -0.3025
    1CHOL    R114770  10.522  14.924   5.578  0.0576 -0.1448 -0.0802
    1CHOL    R214771  10.471  15.035   5.331 -0.6074 -0.2028  0.0053
    1CHOL    R314772  10.554  14.792   5.241 -0.0737  0.0257 -0.1584
    1CHOL    R414773  10.322  14.859   5.073 -0.3035 -0.4359 -0.0157
    1CHOL    R514774  10.351  14.676   5.189  0.1757 -0.4337 -0.1276
    1CHOL    C114775  10.313  14.528   4.839  0.3746 -0.3572 -0.1816
    1CHOL    C214776   9.891  14.652   4.624  0.0377  0.1437  0.2003
    1CHOL   ROH14777  18.740  11.657   6.665  0.0454 -0.0670  0.1055
    1CHOL    R114778  18.741  11.864   6.471  0.0165 -0.0424  0.1321
    1CHOL    R214779  18.934  11.881   6.274 -0.0933 -0.0961  0.0235
    1CHOL    R314780  18.718  11.887   6.109 -0.1871  0.0171  0.1471
    1CHOL    R414781  18.947  11.931   5.932 -0.2828  0.1866  0.0536
    1CHOL    R514782  18.770  12.057   5.948 -0.2911  0.1582  0.2560
    1CHOL    C114783  18.752  11.966   5.578 -0.4810  0.4575  0.1872
    1CHOL    C214784  18.937  12.144   5.291 -0.0973 -0.0677  0.3066
    1CHOL   ROH14785  29.089   4.896   5.460  0.0677  0.0509 -0.0851
    1CHOL    R114786  29.246   4.896   5.224  0.1131  0.2882 -0.0569
    1CHOL    R214787  29.188   4.735   5.007  0.4027  0.1888 -0.0606
    1CHOL    R314788  29.193   4.970   4.871  0.0600  0.1964 -0.0693
    1CHOL    R414789  29.191   4.764   4.663  0.4034  0.1752 -0.0624
    1CHOL    R514790  29.334   4.927   4.683  0.1558  0.4010 -0.0491
    1CHOL    C114791  29.196   5.003   4.335  0.0820  0.1744 -0.0716
    1CHOL    C214792  29.433   4.958   4.057  0.2504 -0.3044 -0.0204
    1CHOL   ROH14793  18.006   6.380   6.135  0.2485  0.0406 -0.0466
    1CHOL    R114794  18.018   6.335   5.856  0.3233  0.0594 -0.0475
    1CHOL    R214795  17.841   6.453   5.679  0.1210 -0.2282 -0.0501
    1CHOL    R314796  18.070   6.537   5.558 -0.0107  0.1536 -0.0442
    1CHOL    R414797  17.867   6.541   5.346 -0.0145 -0.1602 -0.0427
    1CHOL    R514798  18.060   6.440   5.339  0.1514  0.1538 -0.0491
    1CHOL    C114799  18.097   6.672   5.038 -0.2171  0.2377 -0.0329
    1CHOL    C214800  18.042   6.975   4.803 -0.0960  0.0590  0.0487
    1CHOL   ROH14801  21.263  17.524   6.591  0.1431  0.0015  0.0842
    1CHOL    R114802  21.087  17.501   6.370  0.0815  0.0182  0.1314
    1CHOL    R214803  21.032  17.713   6.201  0.0376  0.0302  0.1599
    1CHOL    R314804  21.109  17.537   6.009 -0.0178  0.0412  0.1274
    1CHOL    R414805  20.870  17.667   5.899  0.0400  0.1567  0.1388
    1CHOL    R514806  20.904  17.452   5.919 -0.0444  0.1394  0.0952
    1CHOL    C114807  20.849  17.475   5.543 -0.0105  0.2405  0.0961
    1CHOL    C214808  20.882  17.628   5.239  0.0260 -0.1832  0.1211
    1CHOL   ROH14809  17.602   0.188   5.066  0.0968 -0.0708  0.1413
    1CHOL    R114810  17.419   0.364   4.941  0.1256 -0.0684  0.0997
    1CHOL    R214811  17.171   0.421   5.048  0.0595 -0.1377 -0.0016
    1CHOL    R314812  17.255   0.678   5.024  0.0343 -0.1198  0.1085
    1CHOL    R414813  16.963   0.693   5.004  0.0594 -0.1748 -0.2375
    1CHOL    R514814  17.107   0.774   4.862  0.2091 -0.1410 -0.0614
    1CHOL    C114815  16.920   1.093   4.956  0.0357 -0.1797 -0.2714
    1CHOL    C214816  16.578   0.904   4.792  0.0356  0.2146 -0.1281
    1CHOL   ROH14817   0.488  15.034   3.530 -0.1923  0.1836  0.0541
    1CHOL    R114818   0.592  15.004   3.792 -0.2022  0.2958  0.0720
    1CHOL    R214819   0.459  15.094   4.016 -0.4451 -0.0355  0.0719
    1CHOL    R314820   0.492  14.838   4.099  0.0310 -0.0111 -0.0139
    1CHOL    R414821   0.426  14.987   4.343 -0.5779 -0.2594 -0.0131
    1CHOL    R514822   0.599  14.858   4.313 -0.2485  0.1328  0.1160
    1CHOL    C114823   0.438  14.684   4.611 -0.2082 -0.3670 -0.1431
    1CHOL    C214824   0.404  14.655   4.954 -0.1845 -0.0903  0.0926
    1CHOL   ROH14825  19.400  16.116   3.642 -0.0768  0.0816 -0.0619
    1CHOL    R114826  19.258  16.165   3.882 -0.0614 -0.1317 -0.0076
    1CHOL    R214827  19.262  15.989   4.095  0.2511 -0.1508 -0.0223
    1CHOL    R314828  19.341  16.209   4.234  0.0041 -0.0518 -0.0334
    1CHOL    R414829  19.304  16.002   4.438  0.5363 -0.1784 -0.0531
    1CHOL    R514830  19.214  16.201   4.436  0.1955 -0.3254  0.0808
    1CHOL    C114831  19.402  16.217   4.768  0.4701 -0.1016 -0.0816
    1CHOL    C214832  19.234  16.362   5.159 -0.1947 -0.0058  0.0905
    1CHOL   ROH14833  17.725   4.259   6.351  0.0166  0.0413 -0.0105
    1CHOL    R114834  17.698   4.124   6.103 -0.1101  0.0154  0.0154
    1CHOL    R214835  17.474   4.150   5.943 -0.1609  0.0646  0.0842
    1CHOL    R314836  17.657   4.219   5.754 -0.1988 -0.0156  0.0190
    1CHOL    R414837  17.461   4.056   5.610 -0.2844  0.0387  0.0966
    1CHOL    R514838  17.676   4.024   5.616 -0.2996 -0.0287  0.0319
    1CHOL    C114839  17.625   4.065   5.240 -0.3918 -0.0516  0.0427
    1CHOL    C214840  17.415   3.876   5.049  0.0876  0.1212 -0.1664
    1CHOL   ROH14841   4.301  13.055   5.485  0.3234 -0.1228 -0.2240
    1CHOL    R114842   4.183  13.097   5.231  0.1844 -0.0756 -0.1530
    1CHOL    R214843   4.146  13.349   5.125  0.1148 -0.0549 -0.0813
    1CHOL    R314844   4.284  13.246   4.915  0.0074 -0.0053 -0.1772
    1CHOL    R414845   4.017  13.304   4.807 -0.0740 -0.0576 -0.0059
    1CHOL    R514846   4.123  13.114   4.797 -0.0362 -0.0321 -0.0878
    1CHOL    C114847   4.073  13.181   4.425 -0.2848 -0.0125 -0.0520
    1CHOL    C214848   4.022  12.985   4.046 -0.3146  0.1787  0.2226
    1CHOL   ROH14849  26.783  26.559   5.133  0.0419 -0.0068 -0.1625
    1CHOL    R114850  26.747  26.295   5.227 -0.0462  0.0607  0.0020
    1CHOL    R214851  26.501  26.198   5.308 -0.0981  0.1685  0.0082
    1CHOL    R314852  26.555  26.002   5.127 -0.0947  0.0477  0.1413
    1CHOL    R414853  26.319  25.906   5.271 -0.2171  0.2398  0.0399
    1CHOL    R514854  26.506  25.798   5.243 -0.2645  0.1323  0.2049
    1CHOL    C114855  26.264  25.553   5.080 -0.2829  0.1680  0.1834
    1CHOL    C214856  26.155  25.216   5.178  0.1428 -0.0057 -0.0824
    1CHOL   ROH14857  19.266  10.167   3.257 -0.1552 -0.3129  0.0090
    1CHOL    R114858  19.315  10.254   3.522 -0.0361 -0.1413 -0.0668
    1CHOL    R214859  19.148  10.190   3.734  0.0040  0.0736  0.0375
    1CHOL    R314860  19.378  10.097   3.844  0.0046  0.0620  0.0246
    1CHOL    R414861  19.195  10.129   4.070  0.0340  0.0853  0.0350
    1CHOL    R514862  19.395  10.212   4.053  0.0345  0.0668  0.0154
    1CHOL    C114863  19.438  10.005   4.370  0.0517  0.0811  0.0214
    1CHOL    C214864  19.642   9.821   4.784  0.0087 -0.0571 -0.0592
    1CHOL   ROH14865  26.413  12.588   3.213 -0.0461 -0.1045  0.1483
    1CHOL    R114866  26.477  12.523   3.481  0.1495  0.0229  0.1339
    1CHOL    R214867  26.633  12.686   3.641 -0.0963  0.3175  0.0785
    1CHOL    R314868  26.420  12.670   3.809 -0.0239 -0.0592  0.1424
    1CHOL    R414869  26.647  12.739   3.982 -0.0902  0.3824  0.0689
    1CHOL    R514870  26.510  12.571   4.008  0.2218  0.1240  0.1287
    1CHOL    C114871  26.455  12.754   4.339 -0.0188  0.0664  0.1233
    1CHOL    C214872  26.758  12.661   4.538 -0.1330  0.1213  0.1439
    1CHOL   ROH14873  18.629  29.087   4.224  0.0786 -0.1417  0.0651
    1CHOL    R114874  18.578  29.281   4.424  0.0354 -0.1553  0.0677
    1CHOL    R214875  18.743  29.317   4.642 -0.0156 -0.1760  0.1118
    1CHOL    R314876  18.745  29.575   4.557  0.0119 -0.1706  0.1304
    1CHOL    R414877  18.640  29.588   4.830  0.1907 -0.1554  0.1982
    1CHOL    R514878  18.547   0.045   4.651  0.1028 -0.1131  0.2642
    1CHOL    C114879  18.581   0.362   4.860  0.3368 -0.1385  0.2659
    1CHOL    C214880  18.763   0.349   5.209 -0.0517  0.0491 -0.2869
    1CHOL   ROH14881  28.547   6.646   5.834 -0.0844 -0.2788 -0.0848
    1CHOL    R114882  28.594   6.711   5.562 -0.0341 -0.1457 -0.0443
    1CHOL    R214883  28.452   6.596   5.355 -0.0348 -0.0019 -0.1226
    1CHOL    R314884  28.401   6.854   5.288  0.0357  0.0464  0.0047
    1CHOL    R414885  28.341   6.702   5.045 -0.2101  0.1577 -0.0085
    1CHOL    R514886  28.476   6.873   5.061 -0.1183  0.0909 -0.0440
    1CHOL    C114887  28.230   7.006   4.802 -0.2462  0.2959  0.1774
    1CHOL    C214888  28.207   7.186   4.440 -0.2462  0.4666 -0.0508
    1CHOL   ROH14889  13.903   5.106   5.497  0.1819 -0.0527 -0.0123
    1CHOL    R114890  13.804   4.993   5.257  0.0242 -0.0128  0.0331
    1CHOL    R214891  13.928   5.030   5.013 -0.1634  0.0693 -0.0516
    1CHOL    R314892  13.923   4.758   5.006 -0.1176  0.0697 -0.1142
    1CHOL    R414893  14.040   4.837   4.749 -0.2039  0.1538 -0.1312
    1CHOL    R514894  13.869   4.706   4.779 -0.1736  0.1157 -0.1127
    1CHOL    C114895  14.100   4.469   4.589 -0.1847  0.2033 -0.2362
    1CHOL    C214896  14.004   4.229   4.227  0.2865 -0.3129 -0.1307
    1CHOL   ROH14897  29.082  16.266   6.568  0.1690  0.0823  0.1246
    1CHOL    R114898  29.027  16.164   6.310 -0.1794  0.0796  0.1952
    1CHOL    R214899  28.838  16.277   6.143 -0.0036  0.4396  0.2293
    1CHOL    R314900  29.045  16.287   5.968 -0.0447 -0.1191  0.1292
    1CHOL    R414901  28.811  16.375   5.813  0.0859  0.4187  0.2154
    1CHOL    R514902  28.950  16.215   5.760 -0.3233  0.0518  0.1918
    1CHOL    C114903  28.990  16.442   5.456  0.0998 -0.1181  0.1134
    1CHOL    C214904  29.213  16.500   5.180 -0.0726 -0.0222  0.0073
    1CHOL   ROH14905  17.181   5.541   5.978 -0.0132 -0.0960 -0.0539
    1CHOL    R114906  17.269   5.629   5.724  0.0057 -0.1753 -0.0759
    1CHOL    R214907  17.525   5.583   5.631  0.0808 -0.0278  0.0412
    1CHOL    R314908  17.393   5.475   5.419  0.2372 -0.2606  0.0593
    1CHOL    R414909  17.673   5.486   5.334  0.1970  0.3321 -0.0219
    1CHOL    R514910  17.502   5.568   5.227 -0.0074  0.0036  0.0450
    1CHOL    C114911  17.636   5.329   4.962  0.4115  0.3231 -0.0416
    1CHOL    C214912  17.909   5.300   4.630 -0.0775 -0.1154 -0.0954
    1CHOL   ROH14913  27.009   8.269   6.159 -0.2555 -0.0267  0.0575
    1CHOL    R114914  26.874   8.327   5.917 -0.1297  0.1158  0.0196
    1CHOL    R214915  26.940   8.543   5.757  0.1965  0.0038 -0.0044
    1CHOL    R314916  26.963   8.352   5.565 -0.0199 -0.0622  0.0327
    1CHOL    R414917  26.909   8.600   5.418  0.3923  0.0039 -0.0233
    1CHOL    R514918  26.799   8.413   5.401  0.1187  0.1588 -0.0303
    1CHOL    C114919  26.912   8.454   5.039  0.3030 -0.0581  0.0005
    1CHOL    C214920  26.564   8.465   4.794 -0.0528 -0.4162 -0.0951
    1CHOL   ROH14921  25.508   7.950   2.805 -0.1474  0.0574 -0.2891
    1CHOL    R114922  25.543   8.061   3.063  0.0312  0.0027 -0.2879
    1CHOL    R214923  25.409   7.967   3.285 -0.1557  0.2388 -0.2904
    1CHOL    R314924  25.660   7.944   3.387 -0.1940 -0.2039 -0.2809
    1CHOL    R414925  25.482   7.938   3.621 -0.1966  0.4109 -0.2665
    1CHOL    R514926  25.652   8.071   3.590  0.0935  0.0144 -0.4064
    1CHOL    C114927  25.759   7.900   3.914 -0.2563  0.0955 -0.2438
    1CHOL    C214928  25.908   7.737   4.263  0.1306  0.0132  0.1583
    1CHOL   ROH14929   1.179  13.522   2.871  0.2878  0.0246  0.1183
    1CHOL    R114930   0.987  13.523   3.079  0.2408  0.0291  0.0753
    1CHOL    R214931   1.019  13.671   3.310  0.1382  0.1205  0.0334
    1CHOL    R314932   0.776  13.771   3.242  0.1186  0.0126 -0.0566
    1CHOL    R414933   0.879  13.957   3.444 -0.0707  0.0199  0.0318
    1CHOL    R514934   0.686  13.855   3.447 -0.0203 -0.0781 -0.0804
    1CHOL    C114935   0.568  14.217   3.458 -0.2107 -0.1400 -0.0537
    1CHOL    C214936   0.695  14.580   3.439 -0.0994 -0.0470  0.3094
    1CHOL   ROH14937   0.562   8.186   5.463  0.3926  0.3542 -0.0845
    1CHOL    R114938   0.406   8.203   5.228  0.3023  0.1859 -0.0381
    1CHOL    R214939   0.396   8.431   5.071  0.1522  0.1143 -0.1350
    1CHOL    R314940   0.466   8.259   4.873  0.1544  0.0571 -0.0849
    1CHOL    R414941   0.364   8.494   4.733  0.1820  0.0281 -0.1543
    1CHOL    R514942   0.298   8.289   4.706  0.1689  0.0255 -0.1052
    1CHOL    C114943   0.411   8.370   4.350  0.2013 -0.0757 -0.1184
    1CHOL    C214944   0.309   8.560   4.063  0.0522  0.1717  0.0060
    1CHOL   ROH14945  25.348  10.600   3.004  0.1655 -0.0884  0.0254
    1CHOL    R114946  25.512  10.424   3.153  0.0242 -0.1936  0.0569
    1CHOL    R214947  25.729  10.511   3.300  0.1579 -0.3543 -0.0504
    1CHOL    R314948  25.603  10.380   3.502  0.0829 -0.1321  0.0510
    1CHOL    R414949  25.869  10.444   3.608  0.1588 -0.2670 -0.0309
    1CHOL    R514950  25.775  10.247   3.602  0.0017 -0.2048  0.1051
    1CHOL    C114951  25.833  10.282   3.978  0.0888 -0.0077  0.0755
    1CHOL    C214952  25.846  10.556   4.222 -0.1681 -0.2094 -0.1430
    1CHOL   ROH14953  20.824   6.079   3.426 -0.0343 -0.1451 -0.1674
    1CHOL    R114954  20.877   5.930   3.661 -0.0125 -0.0555 -0.1160
    1CHOL    R214955  20.962   6.048   3.896 -0.0592  0.0417 -0.1513
    1CHOL    R314956  20.748   5.918   4.001 -0.0317  0.0199 -0.1196
    1CHOL    R414957  20.913   5.986   4.232  0.1215 -0.1780 -0.1622
    1CHOL    R514958  20.838   5.789   4.180  0.0442 -0.1278 -0.2586
    1CHOL    C114959  20.683   5.828   4.527  0.2523 -0.3263 -0.1389
    1CHOL    C214960  20.615   5.861   4.941  0.1999 -0.0888 -0.1424
    1CHOL   ROH14961  21.770   6.080   3.261  0.1381  0.0306 -0.1290
    1CHOL    R114962  21.942   6.052   3.484  0.1913  0.2996 -0.1323
    1CHOL    R214963  22.015   6.265   3.644 -0.2702  0.3960 -0.0349
    1CHOL    R314964  21.921   6.106   3.843  0.0503  0.1015 -0.1089
    1CHOL    R414965  22.086   6.306   3.979 -0.4370  0.4509 -0.0058
    1CHOL    R514966  22.103   6.090   3.998  0.0636  0.4737 -0.0767
    1CHOL    C114967  22.038   6.181   4.362 -0.2332  0.2064 -0.0583
    1CHOL    C214968  22.079   6.405   4.625 -0.2463 -0.2928 -0.1356
    1CHOL   ROH14969  29.398  13.668   2.961 -0.0168 -0.0481 -0.0892
    1CHOL    R114970  29.410  13.762   3.228  0.2345  0.0308 -0.1282
    1CHOL    R214971  29.221  13.695   3.418  0.1600  0.4615 -0.0602
    1CHOL    R314972  29.438  13.614   3.559  0.0449  0.1015 -0.0743
    1CHOL    R414973  29.226  13.638   3.759  0.0077  0.2268 -0.0922
    1CHOL    R514974  29.423  13.732   3.767  0.1358 -0.0049  0.0075
    1CHOL    C114975  29.434  13.529   4.090 -0.1887 -0.2478 -0.1242
    1CHOL    C214976  29.563  13.571   4.455 -0.0431  0.0199 -0.0779
    1CHOL   ROH14977  27.178   7.011   2.820  0.0790 -0.0060  0.0091
    1CHOL    R114978  27.216   7.092   3.089  0.0005 -0.0963  0.0474
    1CHOL    R214979  27.238   6.912   3.298  0.0280 -0.1687 -0.0207
    1CHOL    R314980  27.470   7.046   3.346 -0.0288 -0.1020  0.0762
    1CHOL    R414981  27.426   6.886   3.587  0.0133 -0.2611 -0.0183
    1CHOL    R514982  27.460   7.100   3.578 -0.0722 -0.2400  0.1089
    1CHOL    C114983  27.753   6.996   3.800 -0.0489 -0.2523  0.0740
    1CHOL    C214984  28.181   7.051   3.976 -0.0812  0.0928 -0.0828
    1CHOL   ROH14985   9.776  20.470   3.692  0.1287 -0.2640 -0.0466
    1CHOL    R114986   9.955  20.316   3.849  0.0785 -0.2120  0.0630
    1CHOL    R214987  10.073  20.413   4.078 -0.0151 -0.1438  0.0816
    1CHOL    R314988   9.966  20.189   4.190 -0.0430 -0.1205  0.1021
    1CHOL    R414989  10.221  20.226   4.329 -0.0577 -0.1108  0.1315
    1CHOL    R514990  10.154  20.045   4.228 -0.0541 -0.1245  0.1500
    1CHOL    C114991  10.206  19.908   4.580 -0.1087 -0.0700  0.1799
    1CHOL    C214992  10.397  20.077   4.860  0.0675 -0.3892  0.1246
    1CHOL   ROH14993  28.554  13.870   3.199  0.2806 -0.2044  0.0243
    1CHOL    R114994  28.408  13.912   3.438  0.1219 -0.1957 -0.0736
    1CHOL    R214995  28.378  13.717   3.631  0.0996 -0.1466 -0.0313
    1CHOL    R314996  28.478  13.910   3.795 -0.0858 -0.0499 -0.0288
    1CHOL    R414997  28.357  13.714   3.976  0.1497 -0.2096 -0.0283
    1CHOL    R514998  28.316  13.928   3.970 -0.0870 -0.2466 -0.0030
    1CHOL    C114999  28.437  13.893   4.330  0.0046 -0.1555 -0.0243
    1CHOL    C215000  28.449  13.961   4.768 -0.0557 -0.1291 -0.0473
    1CHOL   ROH15001  27.862  10.004   6.638  0.3334  0.0603  0.0798
    1CHOL    R115002  27.893  10.119   6.382  0.1597  0.0563  0.0561
    1CHOL    R215003  27.998   9.980   6.168  0.1188  0.0884  0.0165
    1CHOL    R315004  27.767  10.055   6.046  0.0270 -0.0217  0.1192
    1CHOL    R415005  27.952   9.995   5.826 -0.0250  0.1078  0.0360
    1CHOL    R515006  27.840  10.180   5.854 -0.1163  0.0442  0.1053
    1CHOL    C115007  27.708  10.074   5.512 -0.1950  0.0158  0.1438
    1CHOL    C215008  27.730  10.134   5.095  0.0843 -0.1123 -0.0237
    1CHOL   ROH15009  29.262  14.637   3.239 -0.1384  0.1580  0.0020
    1CHOL    R115010  29.208  14.714   3.507 -0.0065  0.0256  0.0671
    1CHOL    R215011  29.049  14.564   3.676 -0.0732  0.0373  0.0090
    1CHOL    R315012  29.266  14.575   3.838 -0.0202 -0.2343 -0.0359
    1CHOL    R415013  29.040  14.540   4.020 -0.0150 -0.1060  0.0022
    1CHOL    R515014  29.191  14.696   4.030  0.1344 -0.2460  0.0361
    1CHOL    C115015  29.239  14.537   4.373  0.0686 -0.4445 -0.0440
    1CHOL    C215016  29.194  14.765   4.761  0.0882  0.2405  0.2311
    1CHOL   ROH15017  27.293  11.014   2.928  0.2819 -0.0909  0.0136
    1CHOL    R115018  27.224  10.904   3.180  0.1334 -0.0609 -0.0127
    1CHOL    R215019  27.382  10.718   3.311  0.0493 -0.0623  0.0967
    1CHOL    R315020  27.367  10.897   3.514 -0.0507 -0.0373  0.0667
    1CHOL    R415021  27.366  10.636   3.646  0.0320 -0.0107  0.1079
    1CHOL    R515022  27.220  10.795   3.673 -0.0317 -0.0659  0.0615
    1CHOL    C115023  27.343  10.756   4.032 -0.0717  0.0428  0.0864
    1CHOL    C215024  27.331  10.527   4.348  0.3597  0.1885  0.3569
    1CHOL   ROH15025   2.090  20.334   3.728 -0.0149  0.0240  0.0690
    1CHOL    R115026   2.279  20.224   3.907  0.0376  0.0934  0.0570
    1CHOL    R215027   2.400  20.373   4.106 -0.0560  0.1213  0.0954
    1CHOL    R315028   2.306  20.175   4.267  0.0446  0.0349  0.0483
    1CHOL    R415029   2.504  20.317   4.431 -0.1755  0.2261  0.1523
    1CHOL    R515030   2.498  20.103   4.390  0.0484  0.2192  0.1524
    1CHOL    C115031   2.477  20.098   4.771 -0.1508  0.2065  0.1413
    1CHOL    C215032   2.455  19.853   5.008 -0.1965 -0.0482  0.0608
    1CHOL   ROH15033  23.637  17.254   6.399  0.0964  0.1356 -0.0194
    1CHOL    R115034  23.709  17.211   6.129  0.0114  0.1318 -0.0413
    1CHOL    R215035  23.646  17.390   5.928 -0.0801  0.1118 -0.0273
    1CHOL    R315036  23.914  17.381   5.880 -0.0947  0.1461 -0.1205
    1CHOL    R415037  23.792  17.428   5.617 -0.1909  0.2320 -0.0661
    1CHOL    R515038  23.932  17.269   5.669 -0.1609  0.2204 -0.1685
    1CHOL    C115039  24.129  17.441   5.391 -0.2690  0.3344 -0.1761
    1CHOL    C215040  24.131  17.237   5.002 -0.0546  0.0136  0.0668
    1CHOL   ROH15041  23.577  29.487   6.471  0.0213  0.0628 -0.0334
    1CHOL    R115042  23.630  29.598   6.216  0.1586  0.1135  0.0178
    1CHOL    R215043  23.884  29.619   6.113  0.1871 -0.0929  0.0620
    1CHOL    R315044  23.776  29.484   5.903  0.0851  0.0975 -0.0133
    1CHOL    R415045  23.974   0.039   5.782  0.3482 -0.0903  0.1037
    1CHOL    R515046  23.763   0.022   5.728  0.3343  0.1779  0.0322
    1CHOL    C115047  23.925  29.564   5.393  0.3462  0.0900  0.0572
    1CHOL    C215048  23.868  29.369   5.036 -0.0539 -0.1402  0.3982
    1CHOL   ROH15049  17.562  16.259   3.418 -0.0176  0.1053  0.0876
    1CHOL    R115050  17.394  16.208   3.640 -0.0936  0.0360  0.0145
    1CHOL    R215051  17.361  15.955   3.746 -0.0036  0.0297  0.0233
    1CHOL    R315052  17.435  16.078   3.977 -0.1802  0.0931  0.0478
    1CHOL    R415053  17.354  15.808   4.059 -0.0608  0.0491  0.0317
    1CHOL    R515054  17.279  15.995   4.140 -0.2088  0.0146 -0.0165
    1CHOL    C115055  17.419  15.837   4.458 -0.2596  0.1200  0.0596
    1CHOL    C215056  17.326  15.689   4.871 -0.3115 -0.1467 -0.0104
    1CHOL   ROH15057  21.187   5.577   6.687  0.0959 -0.1658  0.0428
    1CHOL    R115058  21.302   5.667   6.444  0.0272 -0.0500  0.0526
    1CHOL    R215059  21.494   5.522   6.307  0.1033  0.0895  0.0112
    1CHOL    R315060  21.320   5.549   6.100  0.0738  0.0286  0.0276
    1CHOL    R415061  21.579   5.495   5.973  0.0641  0.0263  0.0061
    1CHOL    R515062  21.446   5.662   5.931  0.0420  0.0051 -0.0127
    1CHOL    C115063  21.465   5.504   5.585  0.0137 -0.0676  0.0186
    1CHOL    C215064  21.565   5.297   5.216 -0.0520  0.2680 -0.1012
    1CHOL   ROH15065  28.026  11.523   6.580 -0.2387  0.0327 -0.1129
    1CHOL    R115066  27.920  11.553   6.320 -0.2914  0.1921 -0.0746
    1CHOL    R215067  27.840  11.797   6.218 -0.0528  0.3010 -0.0106
    1CHOL    R315068  28.010  11.732   6.016 -0.1872  0.1404 -0.0736
    1CHOL    R415069  27.828  11.930   5.900  0.0031  0.3631  0.0128
    1CHOL    R515070  27.872  11.732   5.821 -0.2456  0.3262 -0.0320
    1CHOL    C115071  27.980  11.946   5.524 -0.0905  0.2485 -0.0329
    1CHOL    C215072  28.051  11.869   5.169  0.0753 -0.0859  0.0924
    1CHOL   ROH15073  29.257  13.960   6.430 -0.2188 -0.1386 -0.0607
    1CHOL    R115074  29.235  13.832   6.178 -0.0106 -0.0539 -0.1237
    1CHOL    R215075  29.035  13.893   5.997  0.0069 -0.1529 -0.1707
    1CHOL    R315076  29.245  13.932   5.829  0.0368  0.0990 -0.0808
    1CHOL    R415077  29.010  13.922   5.654  0.0842  0.0878 -0.1585
    1CHOL    R515078  29.191  13.802   5.635  0.1664  0.2058 -0.1959
    1CHOL    C115079  29.192  13.975   5.296  0.1570  0.4645 -0.0670
    1CHOL    C215080  28.897  14.011   4.958  0.0502  0.1261  0.0261
    1CHOL   ROH15081  22.273   5.871   6.693  0.0284  0.1092 -0.0943
    1CHOL    R115082  22.313   6.022   6.457 -0.0405  0.1410 -0.0862
    1CHOL    R215083  22.482   5.940   6.254 -0.0285  0.2131 -0.1063
    1CHOL    R315084  22.260   5.973   6.100 -0.0521  0.1507 -0.0859
    1CHOL    R415085  22.483   6.059   5.930 -0.0899  0.2130 -0.1063
    1CHOL    R515086  22.303   6.173   5.977 -0.1185  0.1630 -0.0900
    1CHOL    C115087  22.275   6.160   5.597 -0.1477  0.1542 -0.0871
    1CHOL    C215088  22.079   6.150   5.227 -0.0459 -0.1044  0.0792
    1CHOL   ROH15089  19.002  12.917   3.204  0.0660 -0.1078 -0.1125
    1CHOL    R115090  18.857  13.018   3.425  0.0369 -0.1166 -0.1272
    1CHOL    R215091  18.672  12.866   3.563  0.0629 -0.1425 -0.1193
    1CHOL    R315092  18.824  12.935   3.778  0.0415 -0.0907 -0.1209
    1CHOL    R415093  18.571  12.842   3.893  0.0361 -0.0761 -0.1225
    1CHOL    R515094  18.668  13.033   3.932  0.0248 -0.0642 -0.1549
    1CHOL    C115095  18.654  12.893   4.286  0.0005  0.0114 -0.1259
    1CHOL    C215096  18.637  12.920   4.635  0.1154  0.0605 -0.1284
    1CHOL   ROH15097  26.167  15.665   6.403 -0.0912  0.0733 -0.1176
    1CHOL    R115098  26.096  15.614   6.134 -0.0184  0.0231 -0.1268
    1CHOL    R215099  25.853  15.692   6.027 -0.0206 -0.0722 -0.1813
    1CHOL    R315100  26.010  15.812   5.841 -0.0276 -0.0358 -0.1655
    1CHOL    R415101  25.770  15.728   5.694 -0.0675  0.0447 -0.1584
    1CHOL    R515102  25.977  15.682   5.642 -0.0780  0.0282 -0.2033
    1CHOL    C115103  25.869  15.862   5.324 -0.1015  0.1468 -0.1301
    1CHOL    C215104  25.917  16.027   4.948 -0.0220 -0.0159 -0.1646
    1CHOL   ROH15105  29.003  13.012   6.559 -0.1537  0.0969 -0.0041
    1CHOL    R115106  28.917  12.874   6.327 -0.2714  0.1163  0.0274
    1CHOL    R215107  28.773  12.997   6.126 -0.0983  0.2156 -0.0392
    1CHOL    R315108  28.972  12.900   5.969 -0.1782 -0.0651  0.0279
    1CHOL    R415109  28.763  12.986   5.781  0.0087  0.2380 -0.0432
    1CHOL    R515110  28.857  12.789   5.790 -0.2739  0.1019 -0.0145
    1CHOL    C115111  28.944  12.888   5.432 -0.0043 -0.0124  0.0175
    1CHOL    C215112  28.960  13.022   5.103 -0.0982  0.0331 -0.0068
    1CHOL   ROH15113   9.880  12.223   5.050  0.1095  0.0059 -0.0562
    1CHOL    R115114   9.823  12.111   4.797  0.0215 -0.0628 -0.0066
    1CHOL    R215115   9.972  12.168   4.572 -0.1023 -0.0642 -0.0903
    1CHOL    R315116   9.994  11.897   4.557 -0.0294 -0.0609 -0.0449
    1CHOL    R415117  10.076  11.994   4.292  0.0770 -0.0746 -0.0180
    1CHOL    R515118   9.923  11.844   4.334  0.0920 -0.1064 -0.0736
    1CHOL    C115119  10.157  11.638   4.115  0.2499 -0.0776  0.0668
    1CHOL    C215120  10.406  11.535   3.705  0.1249 -0.2451  0.1409
    1CHOL   ROH15121  26.655   4.555   5.850  0.2496  0.2641 -0.0293
    1CHOL    R115122  26.714   4.351   5.662  0.3040  0.1908  0.0651
    1CHOL    R215123  26.614   4.353   5.404  0.1364 -0.0603  0.1193
    1CHOL    R315124  26.876   4.330   5.337  0.1175  0.1247 -0.0236
    1CHOL    R415125  26.731   4.240   5.099  0.0575 -0.1625  0.1269
    1CHOL    R515126  26.887   4.131   5.205  0.2156  0.0469  0.1062
    1CHOL    C115127  27.046   4.153   4.859 -0.0063 -0.0482 -0.0027
    1CHOL    C215128  26.881   4.271   4.537  0.1925 -0.0748  0.0668
    1CHOL   ROH15129  19.117   6.213   3.028  0.1436  0.1414  0.0346
    1CHOL    R115130  19.166   6.290   3.297  0.0414  0.0654  0.0760
    1CHOL    R215131  18.970   6.400   3.458 -0.0003  0.0917  0.0091
    1CHOL    R315132  19.039   6.197   3.625 -0.1444  0.0315 -0.0041
    1CHOL    R415133  18.842   6.353   3.775  0.0808  0.2565  0.0673
    1CHOL    R515134  19.041   6.297   3.842  0.0526  0.0503 -0.0128
    1CHOL    C115135  18.832   6.134   4.117 -0.0073  0.2959  0.0889
    1CHOL    C215136  18.689   6.264   4.448 -0.3435  0.0152 -0.0357
    1CHOL   ROH15137  24.010  21.558   6.779 -0.2092 -0.0276  0.0882
    1CHOL    R115138  24.104  21.660   6.533 -0.1446 -0.0314  0.1124
    1CHOL    R215139  24.347  21.585   6.423 -0.1476 -0.0760  0.1524
    1CHOL    R315140  24.194  21.524   6.207 -0.1179 -0.0247  0.1147
    1CHOL    R415141  24.463  21.560   6.098 -0.1216  0.1744  0.1395
    1CHOL    R515142  24.281  21.659   6.031 -0.1762  0.1293  0.1954
    1CHOL    C115143  24.386  21.488   5.707 -0.0784  0.3683  0.0967
    1CHOL    C215144  24.393  21.729   5.407  0.2830 -0.3192 -0.0188
    1CHOL   ROH15145   1.459  11.691   5.938  0.1022 -0.0093  0.0214
    1CHOL    R115146   1.404  11.594   5.678  0.0084 -0.0734  0.0633
    1CHOL    R215147   1.237  11.726   5.502  0.0010 -0.0744  0.0583
    1CHOL    R315148   1.452  11.710   5.337 -0.0393 -0.1893  0.0189
    1CHOL    R415149   1.220  11.670   5.162 -0.0761 -0.1016  0.0674
    1CHOL    R515150   1.393  11.539   5.180 -0.1382 -0.1735  0.0469
    1CHOL    C115151   1.413  11.622   4.808 -0.1589 -0.2251  0.0357
    1CHOL    C215152   1.602  11.420   4.523  0.2381  0.1437 -0.0745
    1CHOL   ROH15153  17.675   8.842   6.581 -0.0210 -0.1435  0.0208
    1CHOL    R115154  17.623   8.852   6.302 -0.0190 -0.0308  0.0240
    1CHOL    R215155  17.566   9.088   6.170  0.0588  0.0351  0.1045
    1CHOL    R315156  17.773   9.012   6.012  0.0332  0.0195  0.0787
    1CHOL    R415157  17.633   9.218   5.857  0.1269  0.1472  0.1652
    1CHOL    R515158  17.683   9.017   5.790  0.0450  0.1567  0.0769
    1CHOL    C115159  17.867   9.222   5.526  0.1424  0.1978  0.1762
    1CHOL    C215160  17.871   9.191   5.175  0.0052 -0.0702 -0.2921
    1CHOL   ROH15161  11.986  25.773   2.893  0.3677  0.2165  0.1709
    1CHOL    R115162  11.900  25.647   3.131  0.1527  0.1512  0.0623
    1CHOL    R215163  11.934  25.761   3.381  0.0728  0.0131  0.1389
    1CHOL    R315164  11.666  25.720   3.400  0.0361  0.1595 -0.0412
    1CHOL    R415165  11.747  25.807   3.667 -0.0248 -0.2699  0.1227
    1CHOL    R515166  11.635  25.627   3.618 -0.1224 -0.1307 -0.1833
    1CHOL    C115167  11.386  25.795   3.852 -0.1161 -0.2977 -0.0557
    1CHOL    C215168  11.405  25.823   4.218 -0.1642  0.0958  0.0508
    1CHOL   ROH15169  15.803  16.587   3.126 -0.1111  0.0779  0.0800
    1CHOL    R115170  15.904  16.528   3.384 -0.0046  0.0033  0.0233
    1CHOL    R215171  15.893  16.709   3.593  0.2362  0.0104  0.0404
    1CHOL    R315172  15.768  16.504   3.721  0.1645  0.0893  0.0963
    1CHOL    R415173  15.849  16.686   3.935  0.0588  0.1939  0.0311
    1CHOL    R515174  15.894  16.474   3.922  0.0547  0.1915  0.1748
    1CHOL    C115175  15.706  16.480   4.254 -0.1115  0.3750  0.0783
    1CHOL    C215176  15.659  16.494   4.610 -0.0864  0.2694  0.1936
    1CHOL   ROH15177  26.987  10.538   6.653 -0.2573  0.0841 -0.0561
    1CHOL    R115178  26.998  10.628   6.385 -0.1935  0.0739 -0.0586
    1CHOL    R215179  27.078  10.465   6.176 -0.0312  0.0941 -0.0253
    1CHOL    R315180  26.839  10.539   6.070 -0.0291 -0.0250 -0.1119
    1CHOL    R415181  27.010  10.483   5.838  0.0790  0.1059 -0.0461
    1CHOL    R515182  26.898  10.666   5.876 -0.0338  0.0308 -0.0680
    1CHOL    C115183  26.746  10.564   5.541  0.1454  0.0009 -0.1396
    1CHOL    C215184  26.790  10.531   5.176 -0.1639 -0.0876  0.1626
    1CHOL   ROH15185  23.155  14.283   6.618 -0.1118 -0.2314 -0.0568
    1CHOL    R115186  23.035  14.397   6.388  0.0417 -0.1371 -0.0903
    1CHOL    R215187  23.154  14.601   6.244  0.1410 -0.0860  0.0711
    1CHOL    R315188  23.118  14.430   6.036  0.2698  0.0033 -0.0277
    1CHOL    R415189  23.102  14.697   5.916 -0.2567  0.0868  0.1783
    1CHOL    R515190  22.955  14.537   5.898 -0.0166 -0.1507  0.1735
    1CHOL    C115191  23.038  14.592   5.530 -0.3672  0.2713  0.1479
    1CHOL    C215192  22.786  14.465   5.283  0.2298 -0.0803 -0.3231
    1CHOL   ROH15193  21.927   3.635   3.657 -0.3656 -0.2214 -0.0407
    1CHOL    R115194  21.843   3.647   3.927 -0.2638 -0.0373 -0.0160
    1CHOL    R215195  22.013   3.592   4.139 -0.2337 -0.0747 -0.0531
    1CHOL    R315196  21.934   3.837   4.224 -0.0147  0.0257 -0.1286
    1CHOL    R415197  21.978   3.683   4.470 -0.3819 -0.0212 -0.0820
    1CHOL    R515198  21.797   3.792   4.416 -0.2188  0.1907 -0.2288
    1CHOL    C115199  21.884   3.967   4.744 -0.2628  0.1043 -0.1697
    1CHOL    C215200  22.128   3.894   4.968  0.3527 -0.3148 -0.1639
    1CHOL   ROH15201  17.309  26.791   3.859 -0.0962  0.1508 -0.1000
    1CHOL    R115202  17.185  27.001   4.003 -0.0835  0.1092 -0.0276
    1CHOL    R215203  16.964  26.961   4.164 -0.1168  0.0762 -0.0774
    1CHOL    R315204  17.120  27.079   4.353 -0.1239 -0.0329 -0.0035
    1CHOL    R415205  16.845  27.127   4.443 -0.1249 -0.0126 -0.0282
    1CHOL    R515206  17.000  27.277   4.414 -0.0906 -0.0338  0.0591
    1CHOL    C115207  16.923  27.334   4.783 -0.1365 -0.1669  0.0697
    1CHOL    C215208  17.091  27.614   5.004  0.1055  0.3415  0.1690
    1CHOL   ROH15209  13.463  18.901   3.205  0.0582 -0.0640  0.2449
    1CHOL    R115210  13.577  19.063   3.407  0.0770  0.0712  0.1277
    1CHOL    R215211  13.508  19.328   3.443 -0.1703  0.0006  0.1716
    1CHOL    R315212  13.459  19.246   3.698  0.1518 -0.0342  0.2265
    1CHOL    R415213  13.602  19.501   3.727 -0.2265  0.2136  0.0625
    1CHOL    R515214  13.655  19.310   3.819  0.1512  0.3075  0.0637
    1CHOL    C115215  13.611  19.525   4.131  0.0430  0.3050  0.0504
    1CHOL    C215216  13.926  19.524   4.267  0.1382 -0.3389 -0.0235
    1CHOL   ROH15217  29.562  11.151   2.573 -0.0763  0.1192  0.1139
    1CHOL    R115218   0.131  11.133   2.778 -0.0161  0.1202  0.0586
    1CHOL    R215219   0.135  11.305   2.995 -0.0813 -0.0093  0.1699
    1CHOL    R315220   0.132  11.074   3.137  0.1025 -0.1046  0.0217
    1CHOL    R415221   0.192  11.281   3.335  0.1017 -0.2105  0.1261
    1CHOL    R515222   0.307  11.100   3.298  0.1688 -0.1297 -0.0503
    1CHOL    C115223   0.222  11.050   3.666  0.3808 -0.4170 -0.0386
    1CHOL    C215224   0.397  10.921   3.997 -0.0258 -0.0187  0.2016
    1CHOL   ROH15225   0.253  13.186   6.442 -0.2271  0.1335 -0.1227
    1CHOL    R115226   0.335  13.108   6.182 -0.1723  0.1007 -0.0957
    1CHOL    R215227   0.159  13.091   5.969 -0.1230  0.0958 -0.1350
    1CHOL    R315228   0.337  13.258   5.850 -0.0796  0.0674 -0.1105
    1CHOL    R415229   0.203  13.122   5.628 -0.1199  0.1364 -0.1311
    1CHOL    R515230   0.418  13.134   5.662 -0.1150  0.0740 -0.1311
    1CHOL    C115231   0.396  13.297   5.317 -0.0774  0.1334 -0.1058
    1CHOL    C215232   0.293  13.198   5.006  0.1879 -0.0954  0.2422
    1CHOL   ROH15233   2.081   7.576   2.262  0.0369  0.0398 -0.0496
    1CHOL    R115234   2.073   7.601   2.544  0.0664  0.0513 -0.0504
    1CHOL    R215235   1.962   7.408   2.708 -0.0351  0.1192 -0.0409
    1CHOL    R315236   2.205   7.417   2.829 -0.0226 -0.0166 -0.0527
    1CHOL    R415237   2.022   7.316   3.035 -0.0409 -0.0410 -0.0836
    1CHOL    R515238   2.156   7.486   3.054  0.0188 -0.0952 -0.0194
    1CHOL    C115239   2.285   7.270   3.340 -0.0326 -0.2619 -0.1196
    1CHOL    C215240   2.192   7.185   3.709  0.1531  0.3145  0.0461
    1CHOL   ROH15241  21.571  17.173   3.748 -0.2076 -0.1078  0.0835
    1CHOL    R115242  21.635  17.322   3.980  0.0211 -0.0587 -0.0084
    1CHOL    R215243  21.462  17.347   4.194  0.1033  0.2421  0.0283
    1CHOL    R315244  21.675  17.255   4.335  0.0415  0.0770  0.0160
    1CHOL    R415245  21.496  17.369   4.537  0.2580  0.4649  0.0002
    1CHOL    R515246  21.706  17.417   4.508  0.3139  0.1750 -0.1190
    1CHOL    C115247  21.716  17.296   4.870  0.2901  0.4395 -0.0277
    1CHOL    C215248  21.715  17.194   5.233 -0.5034  0.1648 -0.1027
    1CHOL   ROH15249   1.360   5.796   3.409 -0.0774 -0.1591  0.4348
    1CHOL    R115250   1.534   5.963   3.558 -0.0891 -0.0022  0.2796
    1CHOL    R215251   1.683   6.164   3.440 -0.0363 -0.1422  0.0717
    1CHOL    R315252   1.561   6.319   3.628 -0.0730  0.0788 -0.1341
    1CHOL    R415253   1.831   6.430   3.605  0.0442 -0.2027  0.0938
    1CHOL    R515254   1.733   6.366   3.788 -0.2044 -0.0051  0.0187
    1CHOL    C115255   1.803   6.730   3.876  0.0567 -0.0304 -0.0865
    1CHOL    C215256   1.924   6.938   4.211 -0.2638  0.1529  0.1484
    1CHOL   ROH15257  25.183   6.760   6.547  0.1260  0.1722  0.0526
    1CHOL    R115258  25.244   6.847   6.285  0.3475 -0.1507 -0.0078
    1CHOL    R215259  25.281   6.671   6.075 -0.2277 -0.3927  0.0789
    1CHOL    R315260  25.090   6.824   5.956  0.2015  0.1411  0.0362
    1CHOL    R415261  25.243   6.709   5.733 -0.2560 -0.5901  0.0587
    1CHOL    R515262  25.201   6.921   5.767  0.4517 -0.3918 -0.1113
    1CHOL    C115263  25.042   6.875   5.423  0.1308 -0.2038  0.0068
    1CHOL    C215264  25.280   6.823   5.108 -0.1613 -0.0035  0.2065
    1CHOL   ROH15265   7.374   5.763   5.742  0.2273  0.1275  0.1088
    1CHOL    R115266   7.354   5.741   5.460  0.1594 -0.1245  0.1318
    1CHOL    R215267   7.403   5.953   5.290 -0.1071 -0.2160 -0.0572
    1CHOL    R315268   7.578   5.780   5.175  0.0302 -0.1357  0.0259
    1CHOL    R415269   7.535   5.986   4.972  0.0894 -0.1011  0.0340
    1CHOL    R515270   7.512   5.772   4.946  0.1796 -0.1106 -0.0238
    1CHOL    C115271   7.776   5.843   4.680  0.3328  0.0412  0.1650
    1CHOL    C215272   7.911   6.027   4.478  0.4759  0.0814 -0.0263
    1CHOL   ROH15273  23.452   8.689   3.270  0.0019 -0.0108  0.0571
    1CHOL    R115274  23.407   8.616   3.540  0.1063 -0.0688  0.0589
    1CHOL    R215275  23.611   8.541   3.710  0.2061  0.1463  0.0341
    1CHOL    R315276  23.509   8.738   3.867  0.0078  0.0333  0.0532
    1CHOL    R415277  23.653   8.563   4.053  0.3344  0.2466  0.0134
    1CHOL    R515278  23.445   8.627   4.069  0.2490 -0.0311  0.0987
    1CHOL    C115279  23.582   8.761   4.399  0.2227  0.1990  0.0193
    1CHOL    C215280  23.447   8.706   4.801 -0.0996  0.0496  0.1108
    1CHOL   ROH15281  16.882  15.086   3.314 -0.0855  0.1791 -0.0176
    1CHOL    R115282  16.852  15.217   3.563 -0.0580 -0.0092  0.0871
    1CHOL    R215283  16.630  15.368   3.626  0.0839  0.1970  0.1036
    1CHOL    R315284  16.620  15.205   3.843 -0.2201  0.0081 -0.0443
    1CHOL    R415285  16.459  15.439   3.918  0.2404  0.2728  0.1780
    1CHOL    R515286  16.626  15.355   4.030  0.0925 -0.1662  0.0950
    1CHOL    C115287  16.350  15.327   4.292  0.0460  0.1394  0.0825
    1CHOL    C215288  16.192  15.711   4.411 -0.2867  0.3736 -0.0203
    1CHOL   ROH15289  20.753  13.096   3.327  0.0962 -0.1322 -0.0720
    1CHOL    R115290  20.688  13.189   3.587  0.1120 -0.0386 -0.1007
    1CHOL    R215291  20.714  13.030   3.812  0.0818  0.0260 -0.0488
    1CHOL    R315292  20.865  13.238   3.901  0.1207  0.0265 -0.1167
    1CHOL    R415293  20.816  13.075   4.139 -0.0096  0.1851 -0.0409
    1CHOL    R515294  20.777  13.287   4.118  0.0688  0.1830 -0.1757
    1CHOL    C115295  21.018  13.295   4.413 -0.0264  0.2784 -0.1001
    1CHOL    C215296  20.816  13.117   4.779  0.0790  0.2650 -0.1158
    1CHOL   ROH15297  19.903   9.356   2.840  0.2997  0.0786 -0.0528
    1CHOL    R115298  19.916   9.347   3.123  0.1484  0.0072 -0.0474
    1CHOL    R215299  19.750   9.496   3.284  0.0599 -0.0400 -0.1007
    1CHOL    R315300  19.694   9.254   3.396  0.0052 -0.0680 -0.1865
    1CHOL    R415301  19.744   9.432   3.624 -0.0543 -0.1268 -0.1179
    1CHOL    R515302  19.841   9.241   3.584 -0.0534 -0.1270 -0.1405
    1CHOL    C115303  19.688   9.168   3.926 -0.1719 -0.2037 -0.2085
    1CHOL    C215304  19.858   9.311   4.155 -0.0131 -0.2630 -0.0096
    1CHOL   ROH15305   0.437  26.136   3.459  0.3165  0.3129  0.1503
    1CHOL    R115306   0.210  26.189   3.619  0.1722  0.2771 -0.0394
    1CHOL    R215307   0.169  26.068   3.864 -0.1427  0.0778 -0.1838
    1CHOL    R315308   0.145  26.324   3.950 -0.1093  0.0142  0.0184
    1CHOL    R415309  29.579  26.174   4.113 -0.1902 -0.0802 -0.1566
    1CHOL    R515310  29.537  26.352   3.994 -0.1168  0.0280 -0.0262
    1CHOL    C115311  29.432  26.477   4.339 -0.1866 -0.2318  0.0490
    1CHOL    C215312  29.453  26.370   4.720 -0.3261 -0.2264  0.1021
    1CHOL   ROH15313  13.479  16.888   2.795  0.2631  0.1117  0.0311
    1CHOL    R115314  13.483  16.971   3.065  0.0501  0.1453  0.0253
    1CHOL    R215315  13.255  17.052   3.199 -0.1029 -0.0869 -0.0859
    1CHOL    R315316  13.330  16.861   3.377  0.0257  0.0113 -0.0336
    1CHOL    R415317  13.197  17.065   3.540 -0.0574 -0.0071 -0.0812
    1CHOL    R515318  13.397  16.983   3.572 -0.0098  0.1099 -0.0839
    1CHOL    C115319  13.234  16.893   3.905  0.0899  0.1320 -0.0293
    1CHOL    C215320  13.018  17.108   4.255  0.0708  0.1279 -0.0063
    1CHOL   ROH15321  17.824  14.298   3.739 -0.0099 -0.0198  0.0372
    1CHOL    R115322  17.795  14.411   3.997 -0.1341 -0.1198  0.0680
    1CHOL    R215323  17.587  14.345   4.166 -0.0644 -0.3960  0.0516
    1CHOL    R315324  17.788  14.288   4.339  0.0008 -0.2226  0.0345
    1CHOL    R415325  17.554  14.331   4.510  0.1001  0.0903  0.0950
    1CHOL    R515326  17.747  14.430   4.527  0.1419  0.0533 -0.1373
    1CHOL    C115327  17.724  14.270   4.873  0.2573  0.5363  0.1042
    1CHOL    C215328  17.859  14.542   5.157  0.1497 -0.0445 -0.2129
    1CHOL   ROH15329   2.608  10.578   2.373  0.1089  0.1350 -0.0886
    1CHOL    R115330   2.595  10.423   2.610  0.3441  0.0806 -0.1078
    1CHOL    R215331   2.776  10.451   2.817  0.2773  0.3652 -0.0828
    1CHOL    R315332   2.550  10.486   2.965  0.1931 -0.0323 -0.1058
    1CHOL    R415333   2.755  10.406   3.159  0.3522  0.4314 -0.0695
    1CHOL    R515334   2.560  10.313   3.130  0.5301  0.0324 -0.0503
    1CHOL    C115335   2.531  10.413   3.497  0.3168  0.0967 -0.0834
    1CHOL    C215336   2.473  10.166   3.721 -0.2190 -0.1011 -0.0224
    1CHOL   ROH15337  14.264  11.481   6.203 -0.1282 -0.2437 -0.0066
    1CHOL    R115338  14.480  11.483   6.021 -0.1221 -0.0978  0.0013
    1CHOL    R215339  14.512  11.290   5.825 -0.0370 -0.0229 -0.0582
    1CHOL    R315340  14.522  11.506   5.660 -0.1179  0.0339  0.0099
    1CHOL    R415341  14.588  11.278   5.488  0.0061  0.1154 -0.0543
    1CHOL    R515342  14.705  11.460   5.513 -0.0794  0.1629  0.0150
    1CHOL    C115343  14.642  11.474   5.137 -0.0448  0.2494  0.0120
    1CHOL    C215344  14.881  11.206   4.910  0.0135  0.0105  0.1420
    1CHOL   ROH15345  22.933  12.265   6.637  0.0680  0.0115  0.0477
    1CHOL    R115346  22.913  12.308   6.358  0.0698  0.0830  0.0585
    1CHOL    R215347  23.040  12.518   6.231  0.1470  0.0609  0.0992
    1CHOL    R315348  23.142  12.319   6.075  0.0585  0.0552  0.0482
    1CHOL    R415349  23.118  12.550   5.896 -0.0313  0.0537  0.0564
    1CHOL    R515350  23.036  12.350   5.863 -0.0549  0.0550  0.1035
    1CHOL    C115351  23.258  12.382   5.554 -0.2182  0.0442 -0.0165
    1CHOL    C215352  23.433  12.349   5.157 -0.0575 -0.0201 -0.0535
    1CHOL   ROH15353   4.134  17.526   6.370  0.0555 -0.1339  0.2185
    1CHOL    R115354   4.177  17.657   6.124  0.0053 -0.0775  0.2393
    1CHOL    R215355   4.381  17.587   5.951  0.0963  0.0939  0.2727
    1CHOL    R315356   4.178  17.565   5.772  0.1473 -0.0459  0.2314
    1CHOL    R415357   4.346  17.779   5.665  0.0727 -0.0021  0.2108
    1CHOL    R515358   4.133  17.790   5.704  0.0608 -0.0865  0.1575
    1CHOL    C115359   4.136  17.870   5.331  0.1068 -0.1893  0.1360
    1CHOL    C215360   3.928  18.197   5.211 -0.1574  0.1980 -0.0596
    1CHOL   ROH15361  22.199  13.800   3.610  0.3313  0.2333 -0.2007
    1CHOL    R115362  22.153  13.873   3.880  0.0373  0.3782 -0.2846
    1CHOL    R215363  22.333  13.819   4.082 -0.3977  0.0153  0.0366
    1CHOL    R315364  22.313  14.086   4.127  0.1001  0.0785 -0.0635
    1CHOL    R415365  22.392  13.972   4.386 -0.2214  0.0119  0.0036
    1CHOL    R515366  22.221  14.102   4.348  0.0409  0.3338 -0.1062
    1CHOL    C115367  22.407  14.312   4.606  0.3483  0.0693 -0.1095
    1CHOL    C215368  22.474  14.479   4.885 -0.0840  0.0396 -0.0003
    1CHOL   ROH15369  20.214  14.077   3.469  0.3448  0.3819  0.0540
    1CHOL    R115370  20.157  14.006   3.736  0.0222  0.5460  0.0331
    1CHOL    R215371  20.351  13.917   3.911 -0.2987 -0.0820  0.0959
    1CHOL    R315372  20.257  14.119   4.068  0.2759  0.2284  0.0710
    1CHOL    R415373  20.327  13.905   4.256 -0.7482 -0.1749  0.0681
    1CHOL    R515374  20.135  14.007   4.241 -0.3736  0.5833 -0.1200
    1CHOL    C115375  20.225  14.087   4.603 -0.4704  0.0626  0.0285
    1CHOL    C215376  20.162  14.212   4.974 -0.0382  0.1364  0.0697
    1CHOL   ROH15377  19.295  15.351   3.717 -0.4685 -0.0277  0.0413
    1CHOL    R115378  19.213  15.389   3.986 -0.1769 -0.1454  0.1515
    1CHOL    R215379  19.373  15.321   4.201  0.1799  0.0218 -0.0483
    1CHOL    R315380  19.329  15.580   4.273 -0.0328 -0.0309  0.0181
    1CHOL    R415381  19.390  15.441   4.525  0.2179 -0.0161 -0.0368
    1CHOL    R515382  19.215  15.564   4.483  0.0812 -0.1758  0.0689
    1CHOL    C115383  19.360  15.753   4.781  0.0405 -0.0876  0.0323
    1CHOL    C215384  19.304  15.744   5.151 -0.1544  0.1562 -0.0088
    1CHOL   ROH15385  26.420   7.473   6.150 -0.0859 -0.1209  0.1087
    1CHOL    R115386  26.398   7.581   5.889 -0.2500 -0.1149  0.1235
    1CHOL    R215387  26.594   7.545   5.695 -0.2400  0.1228  0.0855
    1CHOL    R315388  26.385   7.450   5.550 -0.1618 -0.0942  0.1117
    1CHOL    R415389  26.577   7.539   5.350 -0.3579  0.2946  0.0875
    1CHOL    R515390  26.369   7.597   5.363 -0.4405 -0.0079  0.1994
    1CHOL    C115391  26.371   7.446   5.013 -0.3531  0.1909  0.1133
    1CHOL    C215392  26.098   7.507   4.758  0.1001  0.1985  0.2643
    1CHOL   ROH15393  11.380   4.504   3.802 -0.0046  0.1559 -0.1130
    1CHOL    R115394  11.207   4.520   4.025 -0.1235 -0.0169 -0.1901
    1CHOL    R215395  11.206   4.737   4.197 -0.1554 -0.1841  0.0252
    1CHOL    R315396  10.940   4.742   4.138 -0.1224 -0.0516 -0.1187
    1CHOL    R415397  10.953   4.781   4.428 -0.2624 -0.1100 -0.1044
    1CHOL    R515398  10.836   4.630   4.322 -0.2750 -0.0375 -0.1947
    1CHOL    C115399  10.556   4.811   4.507 -0.2938  0.0577 -0.3149
    1CHOL    C215400  10.217   4.680   4.753 -0.0490 -0.0646  0.2680
    1CHOL   ROH15401  26.048  14.192   3.134 -0.2176  0.0051 -0.0380
    1CHOL    R115402  26.068  14.340   3.374 -0.1954 -0.0808  0.0143
    1CHOL    R215403  25.960  14.252   3.613 -0.0710 -0.2248  0.0235
    1CHOL    R315404  26.213  14.289   3.704 -0.0521 -0.1512 -0.0598
    1CHOL    R415405  26.045  14.296   3.945  0.0139 -0.0309 -0.0236
    1CHOL    R515406  26.189  14.448   3.882 -0.0167 -0.0556 -0.1433
    1CHOL    C115407  26.332  14.358   4.224  0.0814  0.1510 -0.1292
    1CHOL    C215408  26.241  14.655   4.456  0.0548  0.0515 -0.1875
    1CHOL   ROH15409  23.130  14.295   3.362  0.1409 -0.0034 -0.0939
    1CHOL    R115410  23.209  14.172   3.605 -0.0192  0.2066  0.0678
    1CHOL    R215411  23.431  14.010   3.624 -0.1744  0.0195  0.2970
    1CHOL    R315412  23.500  14.181   3.823 -0.0503  0.1921  0.1121
    1CHOL    R415413  23.752  14.053   3.746 -0.1445 -0.1201  0.2717
    1CHOL    R515414  23.669  14.065   3.947 -0.1595  0.1790  0.2595
    1CHOL    C115415  24.003  14.240   4.004 -0.0106 -0.0395  0.0833
    1CHOL    C215416  24.235  14.396   4.141  0.1603 -0.1401 -0.2386
    1CHOL   ROH15417  21.461  14.369   6.882  0.2636 -0.1594 -0.1301
    1CHOL    R115418  21.468  14.399   6.601  0.1037 -0.0804 -0.1269
    1CHOL    R215419  21.349  14.218   6.429  0.0444 -0.0564 -0.1113
    1CHOL    R315420  21.225  14.441   6.333 -0.0521 -0.0538  0.0169
    1CHOL    R415421  21.217  14.250   6.111  0.0113  0.0614 -0.0861
    1CHOL    R515422  21.294  14.454   6.105 -0.0714  0.0976  0.0184
    1CHOL    C115423  21.024  14.477   5.836 -0.0986  0.1326  0.0488
    1CHOL    C215424  20.893  14.369   5.599 -0.1886  0.0548 -0.1157
    1CHOL   ROH15425  12.820  11.952   5.493 -0.0033  0.0528 -0.0854
    1CHOL    R115426  13.009  12.106   5.348  0.0368 -0.0423 -0.1361
    1CHOL    R215427  13.280  12.053   5.354  0.0446 -0.0050  0.0204
    1CHOL    R315428  13.251  12.047   5.083  0.1533 -0.2340  0.0122
    1CHOL    R415429  13.503  12.190   5.128  0.0824 -0.1125 -0.0079
    1CHOL    R515430  13.333  12.259   5.010  0.1068 -0.2670 -0.1307
    1CHOL    C115431  13.605  12.264   4.743  0.2064 -0.3901 -0.0321
    1CHOL    C215432  13.684  12.351   4.454  0.0826  0.1351 -0.0625
    1CHOL   ROH15433   1.286   7.791   5.079  0.1008 -0.0357  0.1117
    1CHOL    R115434   1.242   7.881   4.814  0.0077 -0.0524  0.1209
    1CHOL    R215435   1.448   7.944   4.641 -0.0528 -0.0356  0.0524
    1CHOL    R315436   1.322   7.766   4.478 -0.0830 -0.0579  0.1008
    1CHOL    R415437   1.525   7.892   4.308 -0.1761 -0.0124  0.0203
    1CHOL    R515438   1.312   7.877   4.266 -0.1910 -0.0552  0.1068
    1CHOL    C115439   1.452   7.694   3.962 -0.2763 -0.0199  0.0469
    1CHOL    C215440   1.343   7.672   3.579  0.1187  0.2466  0.1490
    1CHOL   ROH15441  19.815   5.295   6.327  0.0878 -0.0582  0.0985
    1CHOL    R115442  19.885   5.148   6.095  0.0951 -0.0512  0.0958
    1CHOL    R215443  19.776   5.200   5.846  0.0672 -0.0750  0.1022
    1CHOL    R315444  20.036   5.220   5.772  0.0578 -0.0320  0.0826
    1CHOL    R415445  19.898   5.124   5.533  0.0769 -0.2036  0.1372
    1CHOL    R515446  20.072   5.033   5.628  0.1101 -0.0989  0.1801
    1CHOL    C115447  20.214   5.098   5.280  0.0737 -0.2382  0.1392
    1CHOL    C215448  20.295   4.998   4.951 -0.1354  0.0506 -0.0043
    1CHOL   ROH15449  23.144   7.693   6.497  0.2450 -0.0479  0.1262
    1CHOL    R115450  23.300   7.780   6.277  0.1060  0.0235  0.0546
    1CHOL    R215451  23.255   7.691   6.019  0.0704 -0.0481  0.0842
    1CHOL    R315452  23.240   7.957   5.965 -0.1307 -0.0652  0.0476
    1CHOL    R415453  23.257   7.828   5.702  0.1856 -0.0760  0.0720
    1CHOL    R515454  23.385   7.987   5.777 -0.0152  0.0490  0.1547
    1CHOL    C115455  23.243   8.158   5.466  0.0638 -0.1084  0.0307
    1CHOL    C215456  23.421   8.183   5.157  0.0261 -0.0497 -0.1793
    1CHOL   ROH15457  26.646  14.717   6.446 -0.1341  0.0568  0.0533
    1CHOL    R115458  26.729  14.802   6.189 -0.0801  0.1189  0.0907
    1CHOL    R215459  26.780  14.625   5.983  0.0969  0.1580  0.0961
    1CHOL    R315460  26.601  14.780   5.849  0.0624  0.0701  0.0402
    1CHOL    R415461  26.768  14.662   5.639  0.0932  0.0447  0.0842
    1CHOL    R515462  26.727  14.874   5.668  0.0408  0.0420  0.0129
    1CHOL    C115463  26.593  14.829   5.314  0.0587 -0.1040  0.0247
    1CHOL    C215464  26.574  14.905   4.888  0.1210  0.4271  0.0814
    1CHOL   ROH15465   1.185   9.077   2.013 -0.1483  0.1114 -0.0623
    1CHOL    R115466   1.088   9.002   2.269 -0.1894  0.2267 -0.0440
    1CHOL    R215467   1.256   8.932   2.477 -0.2336 -0.0192 -0.0943
    1CHOL    R315468   1.119   9.125   2.610  0.0648  0.1614 -0.0396
    1CHOL    R415469   1.197   8.933   2.817 -0.3918 -0.1456 -0.1195
    1CHOL    R515470   0.996   9.006   2.777 -0.2477  0.2693 -0.1776
    1CHOL    C115471   1.035   9.116   3.141 -0.2037 -0.0497 -0.0827
    1CHOL    C215472   1.098   9.359   3.416 -0.2534  0.1388  0.0222
    1CHOL   ROH15473  14.074   8.759   3.351 -0.1993  0.1151 -0.1468
    1CHOL    R115474  14.161   8.822   3.613 -0.0211 -0.1369 -0.1417
    1CHOL    R215475  14.054   9.032   3.758  0.4248  0.0412 -0.0583
    1CHOL    R315476  14.010   8.839   3.944  0.0660  0.0661 -0.1107
    1CHOL    R415477  14.034   9.086   4.099  0.5504 -0.0173 -0.0405
    1CHOL    R515478  14.146   8.902   4.130  0.2047 -0.2472 -0.1004
    1CHOL    C115479  13.980   8.935   4.471  0.2867 -0.0280 -0.0793
    1CHOL    C215480  13.793   9.038   4.776 -0.1832  0.2832  0.0607
    1CHOL   ROH15481  28.611   3.318   5.884  0.2688  0.1616 -0.0463
    1CHOL    R115482  28.554   3.421   5.627  0.2776  0.1876 -0.0394
    1CHOL    R215483  28.748   3.529   5.462  0.3188  0.0380 -0.0993
    1CHOL    R315484  28.653   3.346   5.285  0.1404  0.0907 -0.0576
    1CHOL    R415485  28.796   3.542   5.120  0.1893 -0.0042 -0.1185
    1CHOL    R515486  28.590   3.476   5.094  0.1426  0.1186 -0.0353
    1CHOL    C115487  28.734   3.379   4.755 -0.0539  0.0206 -0.0906
    1CHOL    C215488  28.614   3.556   4.524  0.5149  0.0764  0.0733
    1CHOL   ROH15489  15.486  15.052   6.222 -0.0464  0.0889  0.0851
    1CHOL    R115490  15.643  15.054   5.986 -0.0157  0.1971  0.1065
    1CHOL    R215491  15.665  14.833   5.821  0.0874  0.2434  0.0652
    1CHOL    R315492  15.585  15.009   5.630  0.0513  0.2520  0.0871
    1CHOL    R415493  15.646  14.762   5.484 -0.0668  0.2171  0.0783
    1CHOL    R515494  15.726  14.961   5.442 -0.0323  0.1998  0.0319
    1CHOL    C115495  15.559  14.885   5.107 -0.1903  0.2099  0.1064
    1CHOL    C215496  15.363  14.548   4.950  0.0551 -0.0387  0.0317
    1CHOL   ROH15497  21.772  18.631   6.633  0.0054 -0.1401  0.1513
    1CHOL    R115498  21.779  18.600   6.352 -0.0386 -0.1273  0.1489
    1CHOL    R215499  21.555  18.634   6.193 -0.0350  0.0172  0.1710
    1CHOL    R315500  21.714  18.810   6.061  0.0609 -0.0696  0.1687
    1CHOL    R415501  21.481  18.773   5.886  0.0372  0.0724  0.1780
    1CHOL    R515502  21.691  18.749   5.831  0.0186 -0.0463  0.1688
    1CHOL    C115503  21.587  19.020   5.583  0.1692  0.0228  0.1799
    1CHOL    C215504  21.623  18.835   5.172 -0.2825 -0.0287 -0.3103
    1DPPC   NC315505  21.122  12.524   2.105  0.1207  0.1419  0.0700
    1DPPC   PO415506  21.090  12.460   2.545 -0.0133 -0.2858 -0.0175
    1DPPC   GL115507  20.924  12.375   2.978 -0.0357 -0.1146  0.2601
    1DPPC   GL215508  21.122  12.722   3.193  0.1338 -0.3671 -0.0893
    1DPPC   C1A15509  20.986  12.095   3.297 -0.0223  0.2419  0.0823
    1DPPC   C2A15510  20.920  12.050   3.706  0.1279  0.0427 -0.0570
    1DPPC   C3A15511  20.921  12.108   4.075  0.0692  0.0362  0.1928
    1DPPC   C4A15512  20.951  11.933   4.444  0.1268 -0.2450 -0.1057
    1DPPC   C1B15513  21.348  12.477   3.370  0.1756  0.2247  0.0267
    1DPPC   C2B15514  21.281  12.377   3.805 -0.0591 -0.0966  0.2588
    1DPPC   C3B15515  21.330  12.409   4.254  0.0113  0.1073  0.1053
    1DPPC   C4B15516  21.278  12.215   4.646 -0.0622  0.3810 -0.0859
    1DPPC   NC315517  14.403  17.677   2.612 -0.1125 -0.2068  0.0329
    1DPPC   PO415518  14.046  17.692   2.534  0.1514 -0.0285  0.2251
    1DPPC   GL115519  13.955  17.555   2.893 -0.2986  0.1931  0.0412
    1DPPC   GL215520  14.089  17.704   3.085  0.0747 -0.1211 -0.1220
    1DPPC   C1A15521  13.849  17.233   3.252  0.1813 -0.1120  0.0392
    1DPPC   C2A15522  13.901  17.127   3.721 -0.1555  0.1072  0.1477
    1DPPC   C3A15523  13.686  17.168   4.095  0.3886  0.1282  0.1619
    1DPPC   C4A15524  13.552  16.966   4.391  0.0885  0.1825 -0.0702
    1DPPC   C1B15525  14.139  17.598   3.466 -0.1702  0.0916  0.1289
    1DPPC   C2B15526  14.248  17.395   3.951  0.3074 -0.2026 -0.0755
    1DPPC   C3B15527  14.538  17.298   4.333  0.1744 -0.0293  0.3561
    1DPPC   C4B15528  14.423  17.037   4.748 -0.0506  0.0089  0.1438
    1DPPC   NC315529  16.960  13.742   2.663  0.0993  0.2127  0.0874
    1DPPC   PO415530  17.281  13.923   2.785  0.0831  0.0920 -0.1486
    1DPPC   GL115531  17.206  13.859   3.209  0.1686  0.1402 -0.2391
    1DPPC   GL215532  17.425  14.186   3.410  0.2454  0.2068 -0.1605
    1DPPC   C1A15533  17.163  13.822   3.639  0.2710 -0.0894 -0.0355
    1DPPC   C2A15534  17.152  13.923   4.153  0.0206 -0.2478  0.1162
    1DPPC   C3A15535  17.143  13.978   4.588 -0.0111 -0.3040  0.1104
    1DPPC   C4A15536  17.048  13.817   4.962  0.1576  0.4806 -0.2601
    1DPPC   C1B15537  17.274  14.354   3.744  0.1857  0.0594  0.1715
    1DPPC   C2B15538  17.088  14.413   4.129  0.1569 -0.4040  0.0326
    1DPPC   C3B15539  17.025  14.503   4.547  0.0084  0.0713  0.2375
    1DPPC   C4B15540  17.255  14.268   4.978  0.0388  0.0988  0.0177
    1DPPC   NC315541  19.464   5.129   2.667  0.1686  0.0819  0.2651
    1DPPC   PO415542  19.712   5.493   2.726  0.1170 -0.0777  0.1925
    1DPPC   GL115543  19.555   5.305   3.124  0.2313  0.0030  0.1837
    1DPPC   GL215544  19.551   5.017   3.249  0.1884 -0.1007  0.1423
    1DPPC   C1A15545  19.198   5.240   3.443  0.0402 -0.1578  0.0188
    1DPPC   C2A15546  19.207   5.356   3.894  0.1374  0.0724 -0.0750
    1DPPC   C3A15547  18.818   5.287   4.093  0.1568  0.1276 -0.2869
    1DPPC   C4A15548  18.454   5.053   4.260 -0.1430  0.2640 -0.2461
    1DPPC   C1B15549  19.615   5.119   3.663 -0.2375 -0.0909 -0.3676
    1DPPC   C2B15550  19.681   5.064   4.066 -0.2671  0.2168  0.0468
    1DPPC   C3B15551  19.395   5.236   4.331  0.0747 -0.1730 -0.0814
    1DPPC   C4B15552  19.047   4.968   4.375  0.1866 -0.0087 -0.2577
    1DPPC   NC315553   4.990  13.899   1.705  0.2552 -0.0768  0.0212
    1DPPC   PO415554   5.447  13.845   2.044 -0.0486 -0.1350  0.2785
    1DPPC   GL115555   5.734  14.140   2.314  0.0448 -0.0301 -0.0103
    1DPPC   GL215556   6.088  13.899   2.396 -0.0262 -0.0790 -0.0725
    1DPPC   C1A15557   5.874  14.097   2.827 -0.1029 -0.2832 -0.0887
    1DPPC   C2A15558   6.024  14.171   3.274  0.2094 -0.0107  0.4450
    1DPPC   C3A15559   6.297  14.445   3.502  0.2068  0.5429  0.2180
    1DPPC   C4A15560   6.596  14.657   3.401  0.2556  0.0007  0.2090
    1DPPC   C1B15561   6.276  13.635   2.601 -0.0436  0.1277 -0.0674
    1DPPC   C2B15562   6.498  13.593   2.999  0.0051 -0.0499  0.1366
    1DPPC   C3B15563   6.402  13.255   3.346  0.0149  0.0594  0.2225
    1DPPC   C4B15564   6.360  13.475   3.672 -0.1505  0.1274  0.0908
    1DPPC   NC315565  22.505   3.398   2.396  0.0395  0.1675  0.3133
    1DPPC   PO415566  22.484   3.450   2.878 -0.0757 -0.2866 -0.0177
    1DPPC   GL115567  22.581   3.754   3.268 -0.1698 -0.2816  0.0257
    1DPPC   GL215568  22.346   3.843   3.485  0.0713  0.2919  0.2800
    1DPPC   C1A15569  22.840   3.579   3.620  0.1480 -0.0322  0.0481
    1DPPC   C2A15570  22.881   3.326   3.951  0.0880  0.1312  0.0548
    1DPPC   C3A15571  22.821   3.428   4.364 -0.2240  0.0759  0.1170
    1DPPC   C4A15572  22.740   3.368   4.815 -0.0337 -0.3170  0.1805
    1DPPC   C1B15573  22.194   4.039   3.788  0.0985  0.1629 -0.2180
    1DPPC   C2B15574  22.275   4.235   4.131 -0.1311  0.3344  0.1588
    1DPPC   C3B15575  22.327   4.180   4.550 -0.0712 -0.2758  0.2115
    1DPPC   C4B15576  22.348   4.380   4.949 -0.6168  0.1050  0.0538
    1DPPC   NC315577  17.228  17.695   2.892  0.0084 -0.0299  0.3384
    1DPPC   PO415578  17.015  18.015   3.077 -0.0900  0.1933 -0.0766
    1DPPC   GL115579  16.706  17.864   3.303  0.1008 -0.3043  0.0841
    1DPPC   GL215580  16.453  17.920   3.133 -0.1128  0.2088 -0.0432
    1DPPC   C1A15581  16.377  17.941   3.621 -0.1455  0.1698 -0.1874
    1DPPC   C2A15582  16.169  18.141   3.951 -0.1007 -0.1566 -0.2361
    1DPPC   C3A15583  15.867  18.481   4.199  0.1168  0.0413 -0.2375
    1DPPC   C4A15584  15.589  18.788   4.187 -0.1016  0.2465  0.1949
    1DPPC   C1B15585  16.121  17.628   3.239 -0.1374 -0.0388 -0.1996
    1DPPC   C2B15586  16.011  17.257   3.487 -0.1184 -0.2201  0.0057
    1DPPC   C3B15587  15.877  17.127   3.923 -0.0394 -0.1875  0.1562
    1DPPC   C4B15588  15.783  17.029   4.295  0.0344  0.1085  0.3859
    1DPPC   NC315589  23.287  13.282   2.954  0.0933  0.0613 -0.0190
    1DPPC   PO415590  23.004  12.972   2.929  0.1015  0.1554  0.0498
    1DPPC   GL115591  23.055  12.709   3.167  0.2040  0.2193 -0.0476
    1DPPC   GL215592  22.838  12.842   3.410  0.2025 -0.0397 -0.2620
    1DPPC   C1A15593  23.288  12.749   3.554 -0.1336  0.1176 -0.2716
    1DPPC   C2A15594  23.240  12.698   3.908  0.2657  0.1289 -0.3490
    1DPPC   C3A15595  23.259  12.690   4.417  0.0496  0.1500  0.3789
    1DPPC   C4A15596  23.297  12.836   4.864  0.4582 -0.1667 -0.3258
    1DPPC   C1B15597  22.864  13.016   3.804  0.2613  0.0341 -0.3909
    1DPPC   C2B15598  23.096  13.192   4.118  0.2380  0.0678 -0.0585
    1DPPC   C3B15599  23.238  13.221   4.530  0.2362 -0.1123 -0.0300
    1DPPC   C4B15600  23.685  13.020   4.703 -0.1170 -0.0824  0.1127
    1DPPC   NC315601  27.908  15.177   2.381  0.0013  0.0345  0.1283
    1DPPC   PO415602  28.095  15.297   2.727 -0.3289 -0.0777 -0.1281
    1DPPC   GL115603  28.007  15.301   3.112 -0.1422 -0.0671  0.1425
    1DPPC   GL215604  28.207  15.092   3.242  0.0121  0.0329 -0.1525
    1DPPC   C1A15605  27.769  15.554   3.373  0.1605  0.0168 -0.1312
    1DPPC   C2A15606  27.589  15.758   3.803 -0.4359 -0.0774  0.1315
    1DPPC   C3A15607  27.306  15.609   4.142 -0.0414 -0.1609 -0.0025
    1DPPC   C4A15608  27.048  15.451   4.365 -0.0579 -0.0346 -0.2963
    1DPPC   C1B15609  28.241  15.139   3.751  0.0370  0.1529  0.0781
    1DPPC   C2B15610  28.231  15.072   4.210 -0.1809  0.1049  0.0596
    1DPPC   C3B15611  28.174  15.180   4.633 -0.1273  0.1765  0.2589
    1DPPC   C4B15612  28.138  14.781   4.897  0.0689  0.4937 -0.2387
    1DPPC   NC315613   5.054  15.955   2.549 -0.2139  0.1224 -0.1619
    1DPPC   PO415614   4.652  15.659   2.623 -0.1259 -0.0706 -0.1363
    1DPPC   GL115615   4.574  15.723   3.025 -0.0676 -0.0451 -0.1645
    1DPPC   GL215616   4.360  15.925   3.178  0.0689 -0.3733 -0.2431
    1DPPC   C1A15617   4.810  15.907   3.273 -0.4260 -0.3077  0.1495
    1DPPC   C2A15618   5.026  15.836   3.661 -0.1405  0.1029  0.0832
    1DPPC   C3A15619   5.035  15.543   4.003 -0.1621 -0.0196  0.0913
    1DPPC   C4A15620   4.773  15.273   4.304 -0.1430  0.1687 -0.2586
    1DPPC   C1B15621   4.475  15.695   3.545 -0.2306 -0.0174 -0.1513
    1DPPC   C2B15622   4.447  15.458   4.035  0.0301  0.1882  0.2110
    1DPPC   C3B15623   4.263  15.444   4.460  0.1910  0.0036  0.1219
    1DPPC   C4B15624   4.444  15.296   4.837 -0.2380  0.2431  0.1843
    1DPPC   NC315625  25.130   8.666   2.512  0.1701 -0.0355 -0.1791
    1DPPC   PO415626  25.482   8.799   2.234  0.0525 -0.2065  0.0748
    1DPPC   GL115627  25.619   8.821   2.643 -0.3333 -0.2446  0.0764
    1DPPC   GL215628  25.663   9.161   2.813 -0.0464  0.0149  0.0329
    1DPPC   C1A15629  25.694   8.566   2.925  0.3064  0.0338 -0.0413
    1DPPC   C2A15630  25.788   8.485   3.355  0.3986  0.1364  0.0314
    1DPPC   C3A15631  25.939   8.494   3.698  0.1897 -0.1512 -0.0662
    1DPPC   C4A15632  26.009   8.303   4.029  0.1264  0.0296  0.1115
    1DPPC   C1B15633  25.875   9.056   3.223  0.0161 -0.0024 -0.0135
    1DPPC   C2B15634  26.122   8.908   3.554  0.0660 -0.2482  0.0952
    1DPPC   C3B15635  26.267   8.810   3.911 -0.3755 -0.2148  0.0850
    1DPPC   C4B15636  26.382   8.652   4.305 -0.0279  0.0861  0.3241
    1DPPC   NC315637  21.821   4.813   2.696 -0.0825  0.3161 -0.1567
    1DPPC   PO415638  21.656   4.450   2.725  0.1933  0.3093  0.0667
    1DPPC   GL115639  21.467   4.419   3.155  0.0358  0.0283  0.0079
    1DPPC   GL215640  21.152   4.431   3.264  0.2496 -0.2372  0.3483
    1DPPC   C1A15641  21.395   4.574   3.607  0.0540  0.0179 -0.1419
    1DPPC   C2A15642  21.500   4.684   3.938  0.2090  0.0779 -0.2777
    1DPPC   C3A15643  21.617   4.754   4.377  0.0391 -0.0695 -0.0151
    1DPPC   C4A15644  21.669   4.975   4.716 -0.0478  0.1834 -0.0717
    1DPPC   C1B15645  20.912   4.550   3.663 -0.4304  0.2546  0.0273
    1DPPC   C2B15646  21.028   4.547   4.086 -0.1001  0.0452 -0.0417
    1DPPC   C3B15647  21.236   4.317   4.304 -0.1142 -0.1592  0.3598
    1DPPC   C4B15648  21.494   4.396   4.693 -0.2079  0.1179 -0.1873
    1DPPC   NC315649  22.488   9.212   2.555 -0.0171 -0.1267  0.3167
    1DPPC   PO415650  22.917   9.276   2.530  0.1997 -0.2415  0.0614
    1DPPC   GL115651  22.955   9.119   3.035 -0.0620  0.0557  0.3610
    1DPPC   GL215652  23.162   9.209   3.271 -0.0169 -0.3220  0.0903
    1DPPC   C1A15653  22.929   8.783   3.353 -0.0041  0.0941  0.0002
    1DPPC   C2A15654  22.930   8.692   3.805 -0.1653  0.0741  0.2525
    1DPPC   C3A15655  22.940   8.573   4.174 -0.0328  0.0782  0.2355
    1DPPC   C4A15656  23.012   8.735   4.604  0.0315 -0.0315  0.1422
    1DPPC   C1B15657  23.176   9.100   3.683  0.1803  0.1383 -0.0544
    1DPPC   C2B15658  23.215   9.036   4.106  0.1016 -0.1936 -0.1458
    1DPPC   C3B15659  23.256   9.168   4.517  0.2168 -0.4208 -0.1054
    1DPPC   C4B15660  23.512   9.197   4.909 -0.1159 -0.3208  0.0736
    1DPPC   NC315661   0.520  14.867   2.491 -0.2235 -0.1942  0.0660
    1DPPC   PO415662   0.448  14.384   2.598  0.1270  0.1145  0.3392
    1DPPC   GL115663   0.264  14.210   3.030  0.2927  0.0839 -0.2167
    1DPPC   GL215664  29.548  14.207   3.053  0.0633 -0.0234 -0.3907
    1DPPC   C1A15665   0.206  13.875   3.352  0.2261  0.2169 -0.1766
    1DPPC   C2A15666   0.305  13.602   3.746  0.0515 -0.0339  0.1004
    1DPPC   C3A15667   0.388  13.503   4.060  0.2223 -0.4321  0.0841
    1DPPC   C4A15668   0.435  13.647   4.443  0.3620 -0.0578 -0.1728
    1DPPC   C1B15669   0.141  14.525   3.363 -0.3041  0.0626  0.0089
    1DPPC   C2B15670   0.312  14.609   3.716  0.1698  0.1724 -0.1899
    1DPPC   C3B15671   0.618  14.386   3.947  0.0568  0.0361 -0.0355
    1DPPC   C4B15672   0.690  14.368   4.308 -0.1078 -0.1723 -0.3398
    1DPPC   NC315673  23.290   8.342   2.717  0.0418  0.1125 -0.0446
    1DPPC   PO415674  22.982   8.155   2.591 -0.0371 -0.0280 -0.0968
    1DPPC   GL115675  22.898   8.219   2.994  0.3005  0.1262 -0.0884
    1DPPC   GL215676  22.519   7.988   3.002 -0.1575 -0.4363  0.1397
    1DPPC   C1A15677  22.961   8.284   3.352 -0.0074 -0.0618  0.0606
    1DPPC   C2A15678  22.940   8.218   3.667 -0.1873 -0.1049 -0.3863
    1DPPC   C3A15679  23.176   8.181   4.002 -0.1138 -0.3517 -0.4117
    1DPPC   C4A15680  23.342   8.319   4.458 -0.2988  0.0474  0.1015
    1DPPC   C1B15681  22.397   8.073   3.446 -0.0007 -0.2255  0.3188
    1DPPC   C2B15682  22.471   8.074   3.873  0.3029  0.0093  0.0782
    1DPPC   C3B15683  22.749   8.128   4.230  0.0272  0.1232 -0.0122
    1DPPC   C4B15684  22.677   8.392   4.644  0.1949  0.0668  0.0408
    1DPPC   NC315685  24.915   1.814   3.303  0.1382 -0.0122 -0.2149
    1DPPC   PO415686  25.009   1.453   3.463 -0.2948 -0.1976 -0.1568
    1DPPC   GL115687  24.836   1.816   3.812  0.0224  0.1665 -0.1334
    1DPPC   GL215688  24.531   1.837   3.888 -0.0455 -0.3181  0.1355
    1DPPC   C1A15689  25.011   2.060   4.102  0.0909  0.1271  0.1775
    1DPPC   C2A15690  24.924   2.266   4.577  0.0898  0.0391  0.0420
    1DPPC   C3A15691  24.988   2.438   4.998  0.2285 -0.0577 -0.0296
    1DPPC   C4A15692  24.833   2.814   5.262  0.1195 -0.0750  0.0350
    1DPPC   C1B15693  24.340   1.956   4.176 -0.1012 -0.0278  0.2464
    1DPPC   C2B15694  24.240   1.943   4.541 -0.3009  0.2288 -0.0181
    1DPPC   C3B15695  24.450   1.900   4.850 -0.3186  0.3289 -0.0934
    1DPPC   C4B15696  24.859   1.828   4.978 -0.2495  0.2955 -0.0504
    1DPPC   NC315697  15.969  13.613   2.802 -0.0829 -0.2620 -0.2206
    1DPPC   PO415698  15.513  13.472   3.041 -0.4430 -0.1192 -0.1427
    1DPPC   GL115699  15.558  13.601   3.461 -0.1320 -0.0253  0.0458
    1DPPC   GL215700  15.965  13.455   3.534 -0.0860 -0.2127  0.0999
    1DPPC   C1A15701  15.405  13.643   3.838 -0.3455  0.1455 -0.1336
    1DPPC   C2A15702  15.144  13.807   4.148  0.2720 -0.0115  0.1079
    1DPPC   C3A15703  14.748  13.791   4.300  0.0351 -0.0272  0.1077
    1DPPC   C4A15704  14.468  14.002   4.006 -0.1838 -0.0534 -0.1553
    1DPPC   C1B15705  15.970  13.382   3.899  0.1345  0.0084  0.0181
    1DPPC   C2B15706  15.761  13.458   4.159 -0.2148  0.0065  0.1769
    1DPPC   C3B15707  15.368  13.429   4.435  0.1539  0.3224 -0.1176
    1DPPC   C4B15708  15.036  13.596   4.683  0.2944 -0.3061 -0.1214
    1DPPC   NC315709  22.454  15.247   2.770 -0.2435 -0.2140  0.1933
    1DPPC   PO415710  22.345  14.850   2.916  0.3201  0.2290  0.0527
    1DPPC   GL115711  22.369  14.762   3.295 -0.2046  0.1107  0.0887
    1DPPC   GL215712  22.380  14.427   3.418 -0.1839  0.0517  0.2464
    1DPPC   C1A15713  22.381  14.858   3.698  0.4538 -0.1528 -0.1840
    1DPPC   C2A15714  22.645  15.013   3.915  0.0309 -0.0445 -0.0743
    1DPPC   C3A15715  22.898  15.297   4.150  0.0767  0.1618  0.2215
    1DPPC   C4A15716  22.981  15.300   4.450  0.2441  0.1187 -0.3402
    1DPPC   C1B15717  22.213  14.355   3.736 -0.0013 -0.2999 -0.0279
    1DPPC   C2B15718  22.446  14.535   4.125 -0.1147 -0.0112  0.0610
    1DPPC   C3B15719  22.687  14.615   4.401 -0.0998  0.0513  0.0206
    1DPPC   C4B15720  23.022  14.461   4.705 -0.0582  0.2034 -0.1244
    1DPPC   NC315721  24.827  14.959   2.350  0.1518 -0.1959  0.1311
    1DPPC   PO415722  25.022  14.632   2.592 -0.2201  0.2756 -0.1689
    1DPPC   GL115723  25.329  14.613   2.888  0.0337  0.1423  0.1051
    1DPPC   GL215724  25.276  14.269   2.859  0.2221 -0.0617 -0.0616
    1DPPC   C1A15725  25.471  14.936   3.269  0.1780  0.0447  0.0380
    1DPPC   C2A15726  25.516  15.106   3.653 -0.0397 -0.1771  0.1459
    1DPPC   C3A15727  25.423  14.915   4.036  0.1124 -0.0182  0.2574
    1DPPC   C4A15728  25.088  14.862   4.372 -0.1504  0.0855 -0.1660
    1DPPC   C1B15729  25.554  14.286   3.242  0.0623 -0.0192  0.1117
    1DPPC   C2B15730  25.498  14.416   3.695 -0.0142 -0.3185 -0.0658
    1DPPC   C3B15731  25.574  14.406   4.123 -0.0212  0.0685 -0.2102
    1DPPC   C4B15732  25.579  14.564   4.517 -0.1208 -0.0949 -0.3387
    1DPPC   NC315733  24.066   9.108   2.776 -0.0140 -0.1173  0.1214
    1DPPC   PO415734  23.728   8.733   2.852  0.0415  0.1328  0.3654
    1DPPC   GL115735  24.071   8.741   3.169  0.2621 -0.3222 -0.3124
    1DPPC   GL215736  24.329   8.802   3.047 -0.2115 -0.0685  0.1071
    1DPPC   C1A15737  24.150   8.711   3.586 -0.0991 -0.0526 -0.0173
    1DPPC   C2A15738  24.244   8.585   4.050  0.2347 -0.0549 -0.0908
    1DPPC   C3A15739  24.017   8.598   4.373 -0.1771 -0.3143 -0.0040
    1DPPC   C4A15740  23.962   8.825   4.773  0.1229 -0.2406  0.0276
    1DPPC   C1B15741  24.481   8.372   3.321  0.1651 -0.1114 -0.2472
    1DPPC   C2B15742  24.567   8.325   3.709 -0.1667 -0.0713 -0.1244
    1DPPC   C3B15743  24.803   8.256   4.016 -0.3469  0.1982 -0.1091
    1DPPC   C4B15744  24.845   7.904   4.372  0.0311 -0.0079 -0.0609
    1DPPC   NC315745  21.524  15.740   2.604 -0.4212 -0.0763  0.0353
    1DPPC   PO415746  21.612  15.500   2.989  0.0181 -0.1832  0.1418
    1DPPC   GL115747  21.878  15.499   3.353 -0.0038 -0.2265 -0.0212
    1DPPC   GL215748  21.809  15.906   3.380  0.3471 -0.1105  0.1600
    1DPPC   C1A15749  22.049  15.221   3.699  0.0809  0.1353  0.1261
    1DPPC   C2A15750  22.146  15.112   4.088  0.0940 -0.1813 -0.1104
    1DPPC   C3A15751  22.400  15.011   4.515 -0.0284 -0.1751 -0.1726
    1DPPC   C4A15752  22.799  14.925   4.780 -0.0687  0.1203 -0.3791
    1DPPC   C1B15753  21.821  15.750   3.761  0.1508 -0.0165  0.0707
    1DPPC   C2B15754  21.953  15.557   4.185 -0.0319  0.0621 -0.2152
    1DPPC   C3B15755  22.023  15.404   4.626  0.0798 -0.0020 -0.2416
    1DPPC   C4B15756  22.097  15.337   5.042 -0.1358 -0.1500  0.1594
    1DPPC   NC315757  17.819  17.296   2.450 -0.1387  0.0305  0.2357
    1DPPC   PO415758  17.708  17.674   2.727  0.2264  0.0317  0.0797
    1DPPC   GL115759  17.648  17.717   3.133  0.1586 -0.1505 -0.1747
    1DPPC   GL215760  17.834  17.923   3.294 -0.3593  0.0437  0.2328
    1DPPC   C1A15761  17.680  17.579   3.609  0.3276 -0.0273  0.0044
    1DPPC   C2A15762  17.705  17.492   4.080  0.0945  0.0807  0.2111
    1DPPC   C3A15763  17.425  17.521   4.353  0.0633  0.1068 -0.0499
    1DPPC   C4A15764  17.350  17.660   4.793 -0.0229  0.4176 -0.0001
    1DPPC   C1B15765  17.607  18.115   3.572 -0.1588  0.0228 -0.0393
    1DPPC   C2B15766  17.411  18.015   3.951 -0.1007 -0.5263 -0.1803
    1DPPC   C3B15767  17.295  18.174   4.327 -0.1806 -0.2411  0.0334
    1DPPC   C4B15768  17.162  18.489   4.682 -0.0378 -0.1044  0.3115
    1DPPC   NC315769  20.601  12.092   2.722  0.3832 -0.0172 -0.1112
    1DPPC   PO415770  20.252  11.797   2.719  0.2038  0.0837 -0.0745
    1DPPC   GL115771  20.191  11.637   3.104  0.0036  0.0257  0.2009
    1DPPC   GL215772  19.932  11.846   3.194 -0.1700  0.0112 -0.0660
    1DPPC   C1A15773  20.077  11.530   3.539 -0.0856  0.2533  0.0803
    1DPPC   C2A15774  20.012  11.630   3.930  0.0858  0.1985  0.0055
    1DPPC   C3A15775  20.019  11.759   4.275 -0.0338  0.2937  0.1713
    1DPPC   C4A15776  20.050  11.791   4.703 -0.1901  0.1271 -0.3390
    1DPPC   C1B15777  19.767  11.966   3.621  0.2032 -0.0787  0.4696
    1DPPC   C2B15778  19.667  12.035   3.970  0.1313  0.2642  0.0053
    1DPPC   C3B15779  19.655  12.058   4.411  0.0713 -0.1149  0.0287
    1DPPC   C4B15780  19.678  12.048   4.837 -0.0076 -0.2793  0.0285
    1DPPC   NC315781  22.337  10.803   2.483 -0.3332 -0.1332  0.2890
    1DPPC   PO415782  22.186  10.482   2.729 -0.2351  0.1033 -0.0923
    1DPPC   GL115783  22.446  10.172   3.028 -0.0881  0.1526  0.1790
    1DPPC   GL215784  22.146  10.062   3.147  0.1126 -0.3815  0.2689
    1DPPC   C1A15785  22.558  10.166   3.478 -0.1193 -0.0310 -0.2272
    1DPPC   C2A15786  22.690  10.112   3.975 -0.1574 -0.1186  0.0452
    1DPPC   C3A15787  22.739  10.135   4.358  0.0701  0.1635  0.2271
    1DPPC   C4A15788  22.527  10.285   4.737 -0.1965  0.2079 -0.0215
    1DPPC   C1B15789  22.166   9.908   3.535  0.0179  0.2380  0.0327
    1DPPC   C2B15790  22.178   9.986   3.955  0.0922 -0.0022 -0.1028
    1DPPC   C3B15791  22.265   9.935   4.417 -0.0214  0.1530  0.3545
    1DPPC   C4B15792  22.268   9.709   4.820  0.0428 -0.2761  0.0475
    1DPPC   NC315793  29.121  12.529   2.581  0.1239  0.1368  0.0673
    1DPPC   PO415794  28.686  12.484   2.616 -0.0928  0.0418  0.0620
    1DPPC   GL115795  28.689  12.496   3.019  0.1753 -0.2201 -0.1906
    1DPPC   GL215796  28.374  12.535   3.122 -0.1150 -0.1947 -0.3485
    1DPPC   C1A15797  29.017  12.414   3.221 -0.1049  0.2341 -0.0723
    1DPPC   C2A15798  29.036  12.319   3.605 -0.0593  0.2840 -0.0652
    1DPPC   C3A15799  29.065  12.328   4.095 -0.0679  0.0657 -0.0308
    1DPPC   C4A15800  29.185  12.137   4.449 -0.0113  0.1668 -0.2696
    1DPPC   C1B15801  28.388  12.408   3.588 -0.1877 -0.0526 -0.2834
    1DPPC   C2B15802  28.504  12.311   4.096 -0.1774  0.0482 -0.0460
    1DPPC   C3B15803  28.326  12.456   4.620 -0.0689 -0.3744  0.3827
    1DPPC   C4B15804  28.463  12.654   5.054 -0.1176 -0.0901  0.1958
    1DPPC   NC315805  22.992  16.090   2.775  0.1340  0.0784  0.0687
    1DPPC   PO415806  23.372  15.908   2.880  0.0423  0.1803  0.3479
    1DPPC   GL115807  23.387  15.890   3.275 -0.4190  0.1213  0.0573
    1DPPC   GL215808  23.316  15.577   3.433  0.1893 -0.0364  0.3183
    1DPPC   C1A15809  23.392  16.041   3.728  0.2719 -0.1742 -0.0510
    1DPPC   C2A15810  23.506  16.112   4.097  0.2261 -0.4477  0.0706
    1DPPC   C3A15811  23.251  16.118   4.519  0.1022  0.1529  0.1358
    1DPPC   C4A15812  23.312  16.326   5.022 -0.0813 -0.0029  0.3076
    1DPPC   C1B15813  23.246  15.521   3.837 -0.0042  0.1136  0.0419
    1DPPC   C2B15814  23.266  15.727   4.211 -0.1471 -0.0582  0.2364
    1DPPC   C3B15815  23.415  15.538   4.539 -0.1238 -0.1235 -0.1204
    1DPPC   C4B15816  23.423  15.057   4.764 -0.0553 -0.1580 -0.1760
    1DPPC   NC315817  17.572  28.551   3.737  0.3314 -0.1207  0.0499
    1DPPC   PO415818  17.552  28.144   3.557 -0.3901 -0.2627 -0.1585
    1DPPC   GL115819  17.614  28.023   3.942  0.1291 -0.3084 -0.0522
    1DPPC   GL215820  17.945  28.140   3.994  0.0592  0.0210  0.3906
    1DPPC   C1A15821  17.503  28.142   4.434  0.0761 -0.0423  0.0314
    1DPPC   C2A15822  17.199  28.222   4.667  0.0954  0.3148 -0.2629
    1DPPC   C3A15823  16.794  28.236   4.987 -0.1203  0.0372 -0.0476
    1DPPC   C4A15824  16.752  27.865   5.280 -0.1606  0.1151  0.0299
    1DPPC   C1B15825  18.053  28.104   4.354 -0.0321  0.1478  0.1048
    1DPPC   C2B15826  18.318  28.252   4.714  0.2302  0.1822 -0.1342
    1DPPC   C3B15827  18.277  28.213   5.125 -0.0019  0.0530  0.1174
    1DPPC   C4B15828  18.530  28.211   5.551 -0.1387 -0.4854  0.1539
    1DPPC   NC315829  28.840   8.966   2.128 -0.2106  0.1395  0.1677
    1DPPC   PO415830  28.753   9.400   2.168 -0.1380 -0.1495  0.2020
    1DPPC   GL115831  28.792   9.668   2.510 -0.0857  0.0846  0.1320
    1DPPC   GL215832  28.526   9.796   2.690  0.3246  0.0567 -0.0161
    1DPPC   C1A15833  28.972   9.672   2.905 -0.0836  0.0953  0.0436
    1DPPC   C2A15834  29.136   9.738   3.269  0.0369  0.0234  0.0319
    1DPPC   C3A15835  29.192   9.560   3.747  0.0820 -0.0496  0.3634
    1DPPC   C4A15836  28.881   9.534   4.097 -0.1816 -0.2618  0.3118
    1DPPC   C1B15837  28.470   9.595   3.051 -0.2605 -0.1675  0.0502
    1DPPC   C2B15838  28.675   9.672   3.394  0.0375 -0.0537 -0.0738
    1DPPC   C3B15839  28.498   9.569   3.778 -0.2932 -0.0029 -0.0553
    1DPPC   C4B15840  28.402   9.519   4.335 -0.0505  0.1960 -0.1555
    1DPPC   NC315841  23.792   5.838   2.210  0.0278  0.1590 -0.2667
    1DPPC   PO415842  24.086   6.178   2.490 -0.0106 -0.2601 -0.0114
    1DPPC   GL115843  24.097   6.232   2.986 -0.0322 -0.1158 -0.1670
    1DPPC   GL215844  23.818   6.400   3.028  0.0649 -0.0250  0.1822
    1DPPC   C1A15845  24.335   6.300   3.324 -0.0612 -0.2105 -0.0738
    1DPPC   C2A15846  24.470   6.215   3.681 -0.0067  0.0275  0.1519
    1DPPC   C3A15847  24.723   6.221   4.115 -0.0342  0.0349  0.1899
    1DPPC   C4A15848  24.976   5.993   4.444 -0.1105  0.0100 -0.2790
    1DPPC   C1B15849  23.887   6.458   3.467 -0.0606  0.0239 -0.1292
    1DPPC   C2B15850  23.906   6.517   3.906  0.0611  0.3041 -0.3822
    1DPPC   C3B15851  23.750   6.459   4.359  0.1187 -0.2668 -0.0071
    1DPPC   C4B15852  23.510   6.395   4.675  0.0369 -0.0268 -0.1376
    1DPPC   NC315853  29.365  18.128   3.244  0.0975 -0.0529  0.2472
    1DPPC   PO415854  29.515  17.631   3.103  0.0603  0.2674 -0.0375
    1DPPC   GL115855  29.417  17.575   3.518  0.4176 -0.1874 -0.1166
    1DPPC   GL215856  29.233  17.812   3.656  0.1014  0.0774 -0.0904
    1DPPC   C1A15857   0.020  17.406   3.947 -0.0022 -0.0630  0.0553
    1DPPC   C2A15858   0.231  17.288   4.343 -0.0320  0.0213  0.2539
    1DPPC   C3A15859   0.488  17.073   4.560  0.1265  0.1520  0.2696
    1DPPC   C4A15860   0.690  16.770   4.890  0.0679 -0.1111 -0.3135
    1DPPC   C1B15861  28.957  17.855   3.988 -0.0030  0.2989 -0.0019
    1DPPC   C2B15862  28.900  17.693   4.384 -0.0218 -0.0997  0.1652
    1DPPC   C3B15863  29.010  17.486   4.755 -0.1203 -0.2561  0.0784
    1DPPC   C4B15864  29.276  17.499   5.054 -0.0670  0.3791 -0.4958
    1DPPC   NC315865  16.270  12.185   2.546 -0.0053  0.0918 -0.3095
    1DPPC   PO415866  15.939  12.324   2.831 -0.2238 -0.1647 -0.1050
    1DPPC   GL115867  15.913  12.094   3.183 -0.1642  0.1031 -0.1189
    1DPPC   GL215868  16.244  12.139   3.228 -0.1382 -0.0962 -0.0977
    1DPPC   C1A15869  15.682  11.964   3.551  0.1309  0.1017  0.0290
    1DPPC   C2A15870  15.497  11.979   3.945  0.2302  0.0416 -0.2960
    1DPPC   C3A15871  15.271  11.875   4.345  0.1720 -0.4239  0.0073
    1DPPC   C4A15872  14.891  12.133   4.525  0.2479 -0.2797  0.2266
    1DPPC   C1B15873  16.171  12.331   3.619 -0.0081 -0.1670  0.1024
    1DPPC   C2B15874  16.158  12.265   4.109  0.1724 -0.1030 -0.1248
    1DPPC   C3B15875  16.115  12.322   4.588 -0.0384 -0.0553  0.2302
    1DPPC   C4B15876  16.036  11.970   4.772 -0.1002  0.0425 -0.1041
    1DPPC   NC315877  20.172   5.454   2.685 -0.3200  0.3471  0.1111
    1DPPC   PO415878  20.654   5.635   2.768  0.2711 -0.0769 -0.0439
    1DPPC   GL115879  20.426   5.636   3.084  0.0553 -0.0741 -0.2119
    1DPPC   GL215880  20.891   5.481   3.214  0.1118 -0.1716  0.5407
    1DPPC   C1A15881  20.422   5.565   3.462 -0.1719 -0.1355 -0.0454
    1DPPC   C2A15882  20.401   5.376   3.896  0.0038  0.2378  0.1095
    1DPPC   C3A15883  20.486   5.385   4.358  0.2596 -0.2672 -0.1226
    1DPPC   C4A15884  20.318   5.490   4.816 -0.1303 -0.1947  0.1627
    1DPPC   C1B15885  20.820   5.387   3.605 -0.2500 -0.2647 -0.2537
    1DPPC   C2B15886  20.871   5.351   4.006 -0.1034 -0.3295  0.0049
    1DPPC   C3B15887  20.933   5.406   4.468 -0.1610  0.1401  0.0992
    1DPPC   C4B15888  20.874   5.402   4.867 -0.1929  0.1706  0.1484
    1DPPC   NC315889  16.436  13.795   2.173 -0.1253  0.0043  0.2237
    1DPPC   PO415890  16.403  13.965   2.546 -0.1831 -0.0772  0.0548
    1DPPC   GL115891  16.274  14.045   3.011  0.0047 -0.2197 -0.0170
    1DPPC   GL215892  16.102  13.834   3.237  0.0943  0.0335 -0.0907
    1DPPC   C1A15893  16.340  14.300   3.338 -0.1467  0.1992  0.0270
    1DPPC   C2A15894  16.063  14.394   3.577  0.2060  0.0379 -0.3168
    1DPPC   C3A15895  16.114  14.432   4.040  0.0277  0.1797 -0.0873
    1DPPC   C4A15896  15.792  14.502   4.332  0.4112 -0.0386  0.1429
    1DPPC   C1B15897  16.362  13.815   3.593 -0.0146  0.1116 -0.2179
    1DPPC   C2B15898  16.296  13.757   4.107 -0.0162  0.2146 -0.1554
    1DPPC   C3B15899  15.989  13.961   4.329 -0.0211 -0.1320  0.0155
    1DPPC   C4B15900  15.611  13.893   4.372  0.1889 -0.0668 -0.0769
    1DPPC   NC315901  26.693   5.799   2.233  0.0584  0.0713  0.2867
    1DPPC   PO415902  27.072   5.935   2.229 -0.0486 -0.0418 -0.1019
    1DPPC   GL115903  27.108   5.988   2.661 -0.2092 -0.0852 -0.0616
    1DPPC   GL215904  27.402   5.913   2.725  0.2113  0.4782 -0.0087
    1DPPC   C1A15905  27.034   5.729   3.035 -0.0220 -0.1654 -0.1557
    1DPPC   C2A15906  27.093   5.850   3.415 -0.1579  0.1752 -0.2839
    1DPPC   C3A15907  26.946   5.784   3.801 -0.1987 -0.0365 -0.3099
    1DPPC   C4A15908  26.740   5.827   4.241  0.0467  0.1235 -0.1778
    1DPPC   C1B15909  27.409   6.110   3.072  0.0660 -0.0963  0.1768
    1DPPC   C2B15910  27.498   6.098   3.498 -0.3925 -0.1274  0.5208
    1DPPC   C3B15911  27.690   5.946   3.812 -0.0552 -0.2239  0.0382
    1DPPC   C4B15912  27.719   6.170   4.286  0.2830 -0.1300  0.1064
    1DPPC   NC315913  18.553  10.188   2.506  0.0555  0.0730 -0.0670
    1DPPC   PO415914  18.504  10.603   2.550  0.0521  0.1018  0.1877
    1DPPC   GL115915  18.524  10.816   2.976 -0.0490  0.3358 -0.1418
    1DPPC   GL215916  18.729  10.768   3.078 -0.3012 -0.2267  0.2314
    1DPPC   C1A15917  18.347  10.809   3.389  0.1355  0.3386  0.3717
    1DPPC   C2A15918  18.438  10.765   3.797 -0.0785 -0.2021  0.1551
    1DPPC   C3A15919  18.366  10.867   4.263 -0.1734  0.0560  0.0982
    1DPPC   C4A15920  18.034  10.807   4.653  0.0494 -0.0058  0.1038
    1DPPC   C1B15921  18.819  10.995   3.497 -0.3476  0.0642 -0.0404
    1DPPC   C2B15922  18.783  11.041   4.037 -0.3485 -0.2483 -0.1310
    1DPPC   C3B15923  18.813  10.996   4.486  0.3904 -0.0166 -0.0108
    1DPPC   C4B15924  18.516  10.809   4.768 -0.2580 -0.1378 -0.0064
    1DPPC   NC315925  21.479  16.288   3.308  0.0879  0.0065  0.0228
    1DPPC   PO415926  21.029  16.186   3.361  0.1211 -0.3948 -0.0204
    1DPPC   GL115927  20.957  15.993   3.692  0.0346  0.0994 -0.0037
    1DPPC   GL215928  20.892  15.592   3.721 -0.3594  0.0907 -0.0355
    1DPPC   C1A15929  21.034  15.985   4.175 -0.0787  0.0293 -0.0284
    1DPPC   C2A15930  21.169  15.977   4.660  0.3270  0.0851  0.1275
    1DPPC   C3A15931  21.360  15.997   5.010  0.0301  0.1027  0.2350
    1DPPC   C4A15932  21.747  15.877   4.956 -0.1492  0.4887  0.1355
    1DPPC   C1B15933  20.896  15.538   4.126  0.1614 -0.1628  0.0178
    1DPPC   C2B15934  20.927  15.428   4.528 -0.1347 -0.1684  0.3546
    1DPPC   C3B15935  20.963  15.459   4.976  0.1114  0.3418 -0.1932
    1DPPC   C4B15936  20.978  15.890   5.311 -0.1910 -0.0440  0.1662
    1DPPC   NC315937  14.696  16.433   2.506 -0.2541 -0.4382  0.3611
    1DPPC   PO415938  14.982  16.001   2.570 -0.1718  0.0354  0.1553
    1DPPC   GL115939  14.832  16.399   2.921  0.2363  0.0581 -0.4732
    1DPPC   GL215940  15.074  16.613   2.975  0.1751  0.2037 -0.0532
    1DPPC   C1A15941  14.874  16.321   3.429  0.0889 -0.3869 -0.1717
    1DPPC   C2A15942  14.832  16.288   3.868 -0.0088 -0.2094  0.1186
    1DPPC   C3A15943  15.034  16.323   4.157  0.2076  0.0831  0.1811
    1DPPC   C4A15944  15.242  16.636   4.283 -0.2633  0.2046 -0.0939
    1DPPC   C1B15945  15.368  16.413   3.286 -0.0226 -0.0394 -0.0710
    1DPPC   C2B15946  15.587  16.136   3.432  0.2913  0.0319 -0.1409
    1DPPC   C3B15947  15.583  15.747   3.474 -0.0005 -0.0735  0.1360
    1DPPC   C4B15948  15.659  15.275   3.626 -0.0798  0.2248 -0.0131
    1DPPC   NC315949  28.457   9.877   2.153 -0.1419  0.0761 -0.2820
    1DPPC   PO415950  28.273   9.549   2.303  0.0834 -0.0811 -0.1553
    1DPPC   GL115951  28.114   9.486   2.691 -0.1281  0.1860 -0.2783
    1DPPC   GL215952  28.080   9.171   2.746 -0.0510 -0.1249  0.1987
    1DPPC   C1A15953  27.988   9.508   3.181  0.1167  0.2252  0.2023
    1DPPC   C2A15954  27.983   9.427   3.667  0.2226 -0.0814  0.0119
    1DPPC   C3A15955  28.126   9.285   4.035  0.2289  0.3989 -0.2694
    1DPPC   C4A15956  28.109   8.985   4.412  0.2795 -0.0663  0.0210
    1DPPC   C1B15957  27.913   8.978   3.016 -0.0991 -0.2465 -0.1281
    1DPPC   C2B15958  27.845   9.009   3.403 -0.0814  0.2115  0.2618
    1DPPC   C3B15959  27.843   8.885   3.821 -0.1674  0.2102 -0.0520
    1DPPC   C4B15960  27.831   8.614   4.070 -0.0343 -0.1244  0.3928
    1DPPC   NC315961  17.995  18.093   2.752 -0.3249 -0.3744  0.1694
    1DPPC   PO415962  18.307  18.129   3.082 -0.1940 -0.1910  0.4839
    1DPPC   GL115963  18.206  18.186   3.482 -0.1897 -0.1062  0.0515
    1DPPC   GL215964  18.459  18.033   3.690 -0.1712 -0.0163 -0.0093
    1DPPC   C1A15965  17.952  17.941   3.872  0.0940 -0.0326  0.1378
    1DPPC   C2A15966  17.985  17.883   4.356  0.3016 -0.2233 -0.1818
    1DPPC   C3A15967  18.037  17.760   4.834  0.1889 -0.0731  0.0127
    1DPPC   C4A15968  18.128  17.720   5.217 -0.3865 -0.1950 -0.1948
    1DPPC   C1B15969  18.500  17.892   4.060 -0.1475 -0.0170  0.1020
    1DPPC   C2B15970  18.445  17.863   4.474  0.1261 -0.0351  0.0364
    1DPPC   C3B15971  18.502  17.780   4.930 -0.0861 -0.1082  0.2060
    1DPPC   C4B15972  18.739  17.808   5.381 -0.1543  0.0270  0.1952
    1DPPC   NC315973  15.372  23.708   2.654 -0.1395  0.0959  0.1081
    1DPPC   PO415974  15.732  23.583   2.554 -0.0538 -0.0012  0.0655
    1DPPC   GL115975  15.711  23.788   3.022  0.2024  0.0759  0.0840
    1DPPC   GL215976  15.514  23.844   3.094  0.0039  0.2946 -0.0884
    1DPPC   C1A15977  15.843  24.003   3.378  0.0104 -0.2129 -0.1396
    1DPPC   C2A15978  15.777  24.058   3.798 -0.2262 -0.0191 -0.0112
    1DPPC   C3A15979  15.769  23.827   4.193 -0.1459 -0.3178  0.0016
    1DPPC   C4A15980  16.114  23.709   4.557  0.1294  0.1063 -0.1464
    1DPPC   C1B15981  15.374  23.848   3.508 -0.0747  0.1897 -0.0297
    1DPPC   C2B15982  15.291  23.762   3.966  0.0845  0.0875 -0.0567
    1DPPC   C3B15983  15.182  23.558   4.289  0.0490  0.0815 -0.1076
    1DPPC   C4B15984  15.173  23.344   4.714 -0.1070  0.1051  0.1862
    1DPPC   NC315985  27.416  14.546   2.609  0.0229 -0.1175 -0.1080
    1DPPC   PO415986  27.042  14.720   2.682  0.1845  0.2198  0.1170
    1DPPC   GL115987  27.244  14.737   3.035 -0.0567 -0.0915 -0.0679
    1DPPC   GL215988  27.011  14.526   3.231 -0.0491 -0.1758  0.1668
    1DPPC   C1A15989  27.496  14.593   3.451  0.1515 -0.2155 -0.0441
    1DPPC   C2A15990  27.664  14.744   3.831  0.0655 -0.2032  0.0359
    1DPPC   C3A15991  27.693  14.803   4.289  0.3696  0.2867 -0.0784
    1DPPC   C4A15992  27.680  14.842   4.759  0.0389  0.0083  0.1074
    1DPPC   C1B15993  27.040  14.531   3.559  0.0853 -0.0969 -0.1147
    1DPPC   C2B15994  27.118  14.595   3.998 -0.1813 -0.0795  0.2104
    1DPPC   C3B15995  27.177  14.630   4.371  0.0212  0.1258  0.4660
    1DPPC   C4B15996  27.227  14.444   4.784 -0.2779  0.1005  0.0676
    1DPPC   NC315997   1.643  12.506   2.016 -0.2057  0.0881  0.0010
    1DPPC   PO415998   1.447  12.114   2.198 -0.0019 -0.0011  0.0720
    1DPPC   GL115999   1.516  12.229   2.616 -0.0245  0.3445 -0.0895
    1DPPC   GL216000   1.310  12.042   2.820 -0.1516  0.0189 -0.6173
    1DPPC   C1A16001   1.699  12.528   2.813  0.0862 -0.0132  0.0421
    1DPPC   C2A16002   1.709  12.754   3.212  0.2550  0.2496  0.1273
    1DPPC   C3A16003   1.637  13.032   3.503 -0.2768 -0.0646 -0.1746
    1DPPC   C4A16004   1.952  13.216   3.874  0.0537  0.0117 -0.1640
    1DPPC   C1B16005   1.432  11.980   3.375  0.0225 -0.0713  0.2600
    1DPPC   C2B16006   1.676  12.177   3.684  0.2442 -0.2520  0.3190
    1DPPC   C3B16007   1.774  12.211   4.094  0.0997 -0.1625  0.1065
    1DPPC   C4B16008   1.871  12.407   4.476  0.2247  0.0433 -0.0221
    1DPPC   NC316009  14.003   3.971   2.456  0.1705  0.1636  0.2710
    1DPPC   PO416010  13.917   4.378   2.583 -0.0089  0.1379 -0.0139
    1DPPC   GL116011  13.931   4.051   3.014  0.2413 -0.1227 -0.2104
    1DPPC   GL216012  14.119   3.692   2.952 -0.2283  0.3869  0.0675
    1DPPC   C1A16013  13.800   4.173   3.342 -0.4055 -0.0770  0.1950
    1DPPC   C2A16014  13.716   4.358   3.787 -0.0126  0.2322  0.3454
    1DPPC   C3A16015  13.380   4.344   4.125 -0.3876 -0.1954  0.4012
    1DPPC   C4A16016  12.992   4.025   4.302  0.0622  0.2675 -0.2993
    1DPPC   C1B16017  14.086   3.650   3.316 -0.1348  0.1889 -0.0988
    1DPPC   C2B16018  13.951   3.503   3.635  0.1136 -0.1961  0.5002
    1DPPC   C3B16019  13.755   3.505   3.996 -0.0254  0.3424  0.0895
    1DPPC   C4B16020  13.503   3.631   4.339  0.2114  0.0891 -0.0976
    1DPPC   NC316021  18.182   7.527   2.295  0.1223 -0.0548  0.1518
    1DPPC   PO416022  18.399   7.175   2.515  0.2640  0.2098  0.0881
    1DPPC   GL116023  18.650   7.075   2.913 -0.0171 -0.1803  0.0829
    1DPPC   GL216024  18.991   7.261   2.977  0.1216  0.0071 -0.2061
    1DPPC   C1A16025  18.847   6.931   3.412  0.0753  0.3782  0.1612
    1DPPC   C2A16026  18.722   6.858   3.787 -0.0352  0.0723  0.0882
    1DPPC   C3A16027  18.399   6.548   4.019 -0.0148 -0.0759 -0.1005
    1DPPC   C4A16028  18.220   6.239   4.192 -0.0941  0.0663  0.1666
    1DPPC   C1B16029  18.967   7.463   3.308 -0.1486 -0.2386 -0.0242
    1DPPC   C2B16030  18.932   7.336   3.737  0.1423  0.0405  0.1125
    1DPPC   C3B16031  18.940   7.167   4.139 -0.0406  0.0202 -0.1868
    1DPPC   C4B16032  19.091   7.230   4.573  0.1658  0.5669  0.1926
    1DPPC   NC316033  20.197  15.104   3.148 -0.3542 -0.2496  0.1706
    1DPPC   PO416034  19.913  15.508   3.162  0.0151 -0.2468  0.1334
    1DPPC   GL116035  19.782  15.477   3.685 -0.1022  0.0546  0.1756
    1DPPC   GL216036  19.582  15.711   3.858 -0.0648  0.0174  0.0970
    1DPPC   C1A16037  19.806  15.351   4.030 -0.2878 -0.0948 -0.2896
    1DPPC   C2A16038  19.866  15.407   4.508  0.0180 -0.1592 -0.1407
    1DPPC   C3A16039  19.721  15.448   4.929 -0.1558  0.2484  0.1277
    1DPPC   C4A16040  19.546  15.332   5.274 -0.2732  0.1635 -0.3184
    1DPPC   C1B16041  19.727  15.842   4.196  0.0226  0.0239  0.1329
    1DPPC   C2B16042  19.794  15.890   4.629  0.1554  0.1862  0.1276
    1DPPC   C3B16043  19.755  15.944   5.077  0.2056  0.1189  0.0535
    1DPPC   C4B16044  19.569  16.093   5.394 -0.1872  0.1851 -0.1143
    1DPPC   NC316045  29.313   7.490   1.552  0.2323 -0.0631  0.0772
    1DPPC   PO416046  29.562   7.201   1.909  0.0240  0.3795  0.0846
    1DPPC   GL116047   0.117   6.909   2.221 -0.3039 -0.1016 -0.1611
    1DPPC   GL216048   0.214   6.473   2.210 -0.0587  0.0397  0.0776
    1DPPC   C1A16049  29.586   6.918   2.704  0.2971  0.2174  0.1574
    1DPPC   C2A16050  29.423   6.998   3.089 -0.0225 -0.1953 -0.1470
    1DPPC   C3A16051  29.371   7.194   3.534  0.0583  0.2153  0.2121
    1DPPC   C4A16052  28.951   7.430   3.554  0.0976 -0.1578 -0.0188
    1DPPC   C1B16053   0.192   6.453   2.627 -0.0657 -0.1514  0.0408
    1DPPC   C2B16054   0.262   6.550   3.057 -0.0742 -0.0231 -0.2493
    1DPPC   C3B16055   0.191   6.455   3.393 -0.1197 -0.0946  0.2156
    1DPPC   C4B16056  29.427   6.200   3.491 -0.1390 -0.2542  0.0147
    1DPPC   NC316057  27.339   7.763   2.085 -0.1265  0.0245 -0.2556
    1DPPC   PO416058  27.303   7.354   2.021  0.2844 -0.2222  0.2150
    1DPPC   GL116059  27.495   7.420   2.383 -0.0391 -0.2223  0.0823
    1DPPC   GL216060  27.666   7.219   2.574  0.2282 -0.0298  0.1469
    1DPPC   C1A16061  27.293   7.548   2.791  0.0774 -0.3201  0.0950
    1DPPC   C2A16062  27.462   7.515   3.152  0.0559  0.0367 -0.0911
    1DPPC   C3A16063  27.839   7.491   3.540  0.2500 -0.0496  0.0203
    1DPPC   C4A16064  28.018   7.571   3.878  0.0144  0.1084  0.0801
    1DPPC   C1B16065  27.794   7.179   2.988  0.0718  0.0233 -0.1384
    1DPPC   C2B16066  28.085   7.097   3.333 -0.0874 -0.1626 -0.3045
    1DPPC   C3B16067  28.197   6.716   3.566 -0.3519  0.0811  0.2783
    1DPPC   C4B16068  28.647   6.678   3.783 -0.0017 -0.1619 -0.3720
    1DPPC   NC316069  16.659  16.065   2.696 -0.1233  0.0653  0.2283
    1DPPC   PO416070  16.256  16.166   2.732 -0.2304 -0.0857 -0.1408
    1DPPC   GL116071  16.269  16.250   3.078 -0.2658  0.0683  0.1617
    1DPPC   GL216072  16.538  16.116   3.174 -0.1333 -0.1786 -0.2142
    1DPPC   C1A16073  16.088  16.085   3.414  0.2082  0.0765  0.0946
    1DPPC   C2A16074  16.014  16.026   3.869 -0.0662  0.0299  0.0015
    1DPPC   C3A16075  15.754  15.849   4.214  0.1396 -0.0984 -0.1830
    1DPPC   C4A16076  15.407  16.095   4.379  0.1564 -0.1566  0.1298
    1DPPC   C1B16077  16.488  15.903   3.576 -0.0866 -0.1336  0.0424
    1DPPC   C2B16078  16.474  15.896   4.038  0.2424 -0.0475 -0.3378
    1DPPC   C3B16079  16.509  16.015   4.592  0.0648  0.0823  0.1187
    1DPPC   C4B16080  16.423  16.300   4.910 -0.0125 -0.0077 -0.3021
    1DPPC   NC316081  11.869  19.718   2.260  0.3116  0.3517  0.1010
    1DPPC   PO416082  12.113  19.726   2.564 -0.0360  0.1326  0.0486
    1DPPC   GL116083  12.041  19.591   2.946 -0.0046  0.1436 -0.0700
    1DPPC   GL216084  12.282  19.603   3.131 -0.2141  0.1073 -0.1179
    1DPPC   C1A16085  11.840  19.364   3.280  0.1872 -0.1228  0.0097
    1DPPC   C2A16086  11.700  19.241   3.788  0.2458 -0.2846 -0.0355
    1DPPC   C3A16087  11.391  18.907   3.881  0.1647 -0.2693  0.1419
    1DPPC   C4A16088  11.161  18.516   3.964  0.0180 -0.0834 -0.1309
    1DPPC   C1B16089  12.394  19.960   3.503  0.1850  0.0482 -0.1238
    1DPPC   C2B16090  12.725  20.163   3.638  0.2029  0.3103 -0.1819
    1DPPC   C3B16091  12.759  20.547   3.851 -0.0196 -0.0985 -0.1955
    1DPPC   C4B16092  12.745  20.881   4.154  0.2273 -0.3977  0.0538
    1DPPC   NC316093  22.851   4.109   2.882 -0.0972  0.2298  0.1171
    1DPPC   PO416094  23.098   4.405   2.741 -0.0917 -0.0664 -0.2454
    1DPPC   GL116095  23.158   4.338   3.186 -0.0336  0.0824  0.0492
    1DPPC   GL216096  22.811   4.182   3.394  0.3119 -0.3332  0.1463
    1DPPC   C1A16097  23.413   4.581   3.408  0.0463  0.0511  0.1533
    1DPPC   C2A16098  23.455   4.620   3.938 -0.0011 -0.1296  0.3192
    1DPPC   C3A16099  23.471   4.638   4.427 -0.1125 -0.0586 -0.0654
    1DPPC   C4A16100  23.509   4.882   4.642 -0.2328 -0.1265  0.0697
    1DPPC   C1B16101  22.706   4.043   3.745 -0.1337  0.1539 -0.2469
    1DPPC   C2B16102  22.941   3.910   4.128 -0.2742 -0.1102  0.1604
    1DPPC   C3B16103  22.887   3.972   4.517  0.1586 -0.0333 -0.1817
    1DPPC   C4B16104  22.893   4.284   4.856 -0.0455  0.3004 -0.3342
    1DPPC   NC316105   4.221   7.491   1.947  0.0563  0.1267  0.2178
    1DPPC   PO416106   4.524   7.159   2.089  0.0247 -0.0184  0.0275
    1DPPC   GL116107   4.493   7.240   2.554  0.0948 -0.0664  0.2809
    1DPPC   GL216108   4.386   7.042   2.851 -0.1264 -0.2849  0.2835
    1DPPC   C1A16109   4.694   7.499   2.795 -0.2275 -0.1272 -0.1310
    1DPPC   C2A16110   4.776   7.762   3.072 -0.1560  0.0839 -0.0447
    1DPPC   C3A16111   4.737   8.210   3.310 -0.1563  0.1468 -0.1391
    1DPPC   C4A16112   4.876   8.600   3.416  0.1469  0.0468 -0.1267
    1DPPC   C1B16113   4.465   7.068   3.198 -0.0609  0.0166 -0.0982
    1DPPC   C2B16114   4.579   7.009   3.631  0.1669  0.1073  0.0265
    1DPPC   C3B16115   4.583   7.307   3.956  0.1124 -0.1557 -0.1728
    1DPPC   C4B16116   4.334   7.324   4.357  0.1136 -0.0922 -0.0490
    1DPPC   NC316117  10.744  26.024   2.158 -0.1433  0.0584 -0.2097
    1DPPC   PO416118  10.777  25.897   2.641  0.3370  0.0827  0.3633
    1DPPC   GL116119  11.063  26.051   2.957 -0.0417  0.2271 -0.3284
    1DPPC   GL216120  11.136  26.374   2.973 -0.1737 -0.0757 -0.2159
    1DPPC   C1A16121  11.170  25.953   3.368  0.0825  0.0650 -0.1038
    1DPPC   C2A16122  10.963  26.100   3.836  0.1405  0.3860 -0.0386
    1DPPC   C3A16123  10.701  26.146   4.179  0.2976 -0.0767 -0.0791
    1DPPC   C4A16124  10.710  26.502   4.549  0.2766 -0.0048 -0.0320
    1DPPC   C1B16125  11.031  26.463   3.369 -0.1119 -0.0684 -0.0731
    1DPPC   C2B16126  11.066  26.671   3.867  0.0490  0.0830  0.3152
    1DPPC   C3B16127  10.969  26.835   4.243  0.3159  0.0146  0.1158
    1DPPC   C4B16128  10.863  27.230   4.319 -0.3802  0.2377  0.2976
    1DPPC   NC316129  17.507   8.185   2.661  0.1670  0.1131 -0.2601
    1DPPC   PO416130  17.946   8.511   2.584  0.0275 -0.0057  0.0275
    1DPPC   GL116131  17.811   8.439   3.040  0.1195  0.0363 -0.0916
    1DPPC   GL216132  17.490   8.570   2.999  0.0164 -0.2493 -0.2399
    1DPPC   C1A16133  17.713   8.235   3.413 -0.0597  0.0375 -0.2194
    1DPPC   C2A16134  17.560   8.233   3.832  0.1651  0.1512 -0.0156
    1DPPC   C3A16135  17.502   8.301   4.204 -0.1945 -0.0234  0.2243
    1DPPC   C4A16136  17.437   8.080   4.633 -0.0377  0.0735  0.0280
    1DPPC   C1B16137  17.430   8.619   3.408  0.0163 -0.2979  0.0930
    1DPPC   C2B16138  17.316   8.739   3.898 -0.3555 -0.1710  0.1905
    1DPPC   C3B16139  17.096   8.997   4.070  0.0109  0.2944  0.2518
    1DPPC   C4B16140  17.044   9.281   4.384 -0.0740 -0.3414 -0.3716
    1DPPC   NC316141  25.209   4.016   2.919  0.0339  0.2271 -0.0471
    1DPPC   PO416142  25.028   3.669   2.759  0.1348  0.0345  0.0537
    1DPPC   GL116143  25.346   3.527   3.026  0.0510  0.0753  0.0527
    1DPPC   GL216144  25.306   3.273   3.270 -0.2048 -0.0747  0.0129
    1DPPC   C1A16145  25.552   3.731   3.380 -0.0792  0.0252 -0.1208
    1DPPC   C2A16146  25.604   3.854   3.752 -0.0548  0.1275 -0.0605
    1DPPC   C3A16147  25.785   4.008   4.157  0.0524  0.1992 -0.0025
    1DPPC   C4A16148  25.637   3.649   4.381  0.2464  0.3580 -0.0477
    1DPPC   C1B16149  25.435   3.327   3.713 -0.3620 -0.0564 -0.1365
    1DPPC   C2B16150  25.681   3.242   4.078 -0.1446 -0.0305  0.1047
    1DPPC   C3B16151  25.918   3.152   4.412 -0.1028 -0.0689  0.1191
    1DPPC   C4B16152  25.815   3.390   4.809 -0.3527 -0.0779  0.0912
    1DPPC   NC316153  21.063  14.945   2.924 -0.2052  0.1353  0.0702
    1DPPC   PO416154  20.738  15.286   3.259  0.1463 -0.0584  0.2072
    1DPPC   GL116155  20.467  15.106   3.531  0.2248 -0.0657  0.0464
    1DPPC   GL216156  20.146  15.160   3.647  0.3475  0.1157 -0.3110
    1DPPC   C1A16157  20.629  15.088   3.954  0.1399 -0.1036 -0.0645
    1DPPC   C2A16158  20.733  15.009   4.320 -0.1382 -0.2052  0.0717
    1DPPC   C3A16159  20.740  15.011   4.820 -0.4592  0.1225  0.2103
    1DPPC   C4A16160  20.502  15.212   5.126  0.0099  0.0001 -0.1846
    1DPPC   C1B16161  20.042  14.915   3.882 -0.2292 -0.3071  0.3161
    1DPPC   C2B16162  20.173  14.953   4.236 -0.0299 -0.0960 -0.0943
    1DPPC   C3B16163  20.087  14.990   4.751 -0.2873 -0.0136  0.3328
    1DPPC   C4B16164  20.090  14.822   5.157  0.4426 -0.0708 -0.1956
    1DPPC   NC316165   0.947  15.970   2.541 -0.3125  0.0403 -0.2083
    1DPPC   PO416166   0.806  15.917   2.955  0.2347  0.0131  0.0735
    1DPPC   GL116167   0.781  15.786   3.371 -0.0117 -0.0153  0.0983
    1DPPC   GL216168   0.863  15.450   3.486  0.0650 -0.2505  0.0139
    1DPPC   C1A16169   0.389  15.922   3.594 -0.2068  0.0575 -0.0726
    1DPPC   C2A16170   0.312  15.964   4.051  0.2600 -0.2439  0.0057
    1DPPC   C3A16171   0.482  16.047   4.405  0.1864  0.1547  0.2248
    1DPPC   C4A16172   0.457  16.309   4.703  0.1951  0.0273 -0.1383
    1DPPC   C1B16173   0.646  15.552   3.826  0.1917  0.1325  0.0602
    1DPPC   C2B16174   0.520  15.544   4.173  0.2262  0.1663 -0.1011
    1DPPC   C3B16175   0.652  15.495   4.559 -0.0379  0.0364 -0.0598
    1DPPC   C4B16176   0.539  15.484   5.060  0.0692  0.1296 -0.2812
    1DPPC   NC316177  21.975  10.347   2.253 -0.1584  0.0596  0.2823
    1DPPC   PO416178  21.514  10.413   2.407  0.0196 -0.0098  0.2131
    1DPPC   GL116179  21.301  10.649   2.748 -0.3142 -0.0132 -0.1783
    1DPPC   GL216180  21.422  10.939   2.861 -0.2376  0.4029  0.1411
    1DPPC   C1A16181  21.175  10.476   3.121 -0.1426  0.1578  0.0768
    1DPPC   C2A16182  21.313  10.556   3.524  0.0047  0.1550 -0.0302
    1DPPC   C3A16183  21.309  10.554   3.954  0.4045  0.1723  0.0179
    1DPPC   C4A16184  21.310  10.420   4.376 -0.0971 -0.3000 -0.1037
    1DPPC   C1B16185  21.451  10.914   3.180 -0.3338 -0.1547 -0.2700
    1DPPC   C2B16186  21.325  11.077   3.621 -0.2163  0.0798  0.0068
    1DPPC   C3B16187  21.320  11.085   4.137 -0.3014  0.1693  0.0377
    1DPPC   C4B16188  21.178  10.884   4.538 -0.0758  0.0383 -0.1122
    1DPPC   NC316189  22.356  12.233   2.955  0.0969 -0.0527  0.0239
    1DPPC   PO416190  22.861  12.235   2.917  0.0026  0.1434 -0.0925
    1DPPC   GL116191  23.221  12.288   3.233  0.2374 -0.0735  0.2559
    1DPPC   GL216192  23.497  12.278   3.188  0.0202 -0.1427  0.1744
    1DPPC   C1A16193  23.417  12.159   3.665 -0.2572  0.1518  0.0750
    1DPPC   C2A16194  23.457  11.820   3.957 -0.0253 -0.0686  0.1117
    1DPPC   C3A16195  23.622  11.761   4.319  0.2442 -0.2491 -0.1580
    1DPPC   C4A16196  23.752  11.751   4.634 -0.0716 -0.2770  0.1836
    1DPPC   C1B16197  23.716  12.541   3.433  0.4128  0.2487  0.1019
    1DPPC   C2B16198  23.708  12.513   3.810  0.0888 -0.2767 -0.0535
    1DPPC   C3B16199  23.563  12.411   4.197  0.0764 -0.0285 -0.0565
    1DPPC   C4B16200  23.597  12.418   4.670 -0.0269  0.1033 -0.1005
    1DPPC   NC316201  26.746  13.855   2.172 -0.0205 -0.4792 -0.0299
    1DPPC   PO416202  26.720  13.871   2.624  0.2205 -0.1717 -0.2140
    1DPPC   GL116203  26.532  13.775   3.027 -0.1437  0.0072 -0.0448
    1DPPC   GL216204  26.525  14.103   3.160  0.1175 -0.3063 -0.2902
    1DPPC   C1A16205  26.348  13.456   3.237 -0.0386 -0.1525  0.0387
    1DPPC   C2A16206  26.479  13.353   3.554  0.2636  0.0514 -0.1183
    1DPPC   C3A16207  26.521  13.265   4.034 -0.0545  0.1304  0.0661
    1DPPC   C4A16208  26.336  13.343   4.499  0.1550 -0.0955 -0.2108
    1DPPC   C1B16209  26.644  14.134   3.581 -0.0125  0.0859  0.2461
    1DPPC   C2B16210  26.717  14.151   3.948 -0.0731  0.1380 -0.0688
    1DPPC   C3B16211  26.946  14.222   4.290 -0.1580 -0.0685 -0.2081
    1DPPC   C4B16212  27.067  14.043   4.612 -0.0983  0.0655  0.0238
    1DPPC   NC316213  27.764   4.273   2.351 -0.0029 -0.0786  0.2070
    1DPPC   PO416214  28.251   4.219   2.317  0.1835 -0.0337  0.1600
    1DPPC   GL116215  28.347   4.335   2.689  0.0436  0.0632 -0.0108
    1DPPC   GL216216  27.903   4.251   2.856 -0.0554  0.2139 -0.3116
    1DPPC   C1A16217  28.546   4.228   3.042  0.0705  0.0850  0.0443
    1DPPC   C2A16218  28.688   4.078   3.422 -0.2575  0.0654  0.0709
    1DPPC   C3A16219  28.908   3.958   3.818 -0.0342  0.0898  0.1650
    1DPPC   C4A16220  29.189   3.803   4.245 -0.1147 -0.1382  0.1117
    1DPPC   C1B16221  28.057   4.163   3.240 -0.0214  0.0709  0.1576
    1DPPC   C2B16222  28.174   4.027   3.620 -0.1481 -0.2172 -0.0810
    1DPPC   C3B16223  28.203   4.000   4.084  0.1811 -0.1937 -0.2182
    1DPPC   C4B16224  28.144   3.772   4.507  0.0135 -0.1791 -0.0503
    1DPPC   NC316225  25.070  11.156   2.604  0.1448 -0.0582 -0.2033
    1DPPC   PO416226  25.482  10.972   2.706 -0.1286  0.0672  0.3892
    1DPPC   GL116227  25.738  11.046   3.052  0.1926 -0.2169  0.0077
    1DPPC   GL216228  25.992  10.874   3.072  0.2391 -0.1412 -0.1295
    1DPPC   C1A16229  25.586  10.969   3.432 -0.2700  0.2396 -0.1277
    1DPPC   C2A16230  25.752  10.867   3.830 -0.1187  0.0014  0.0472
    1DPPC   C3A16231  26.064  11.088   4.117  0.0776  0.0787 -0.2527
    1DPPC   C4A16232  25.972  11.007   4.514  0.0257 -0.3280 -0.1699
    1DPPC   C1B16233  26.172  10.902   3.483  0.0585 -0.1785 -0.0915
    1DPPC   C2B16234  26.238  10.731   3.870 -0.0287  0.2016 -0.2508
    1DPPC   C3B16235  26.338  10.722   4.365  0.2729 -0.0884  0.1540
    1DPPC   C4B16236  26.557  10.379   4.608 -0.1792 -0.1693 -0.0645
    1DPPC   NC316237  23.140   4.706   2.293  0.1170 -0.0696  0.0185
    1DPPC   PO416238  22.699   4.915   2.593 -0.2274 -0.2519 -0.1003
    1DPPC   GL116239  22.818   5.031   2.975 -0.0413 -0.0895  0.3850
    1DPPC   GL216240  22.642   5.133   3.182  0.2930  0.1488 -0.1115
    1DPPC   C1A16241  23.141   5.229   3.297  0.1407  0.1674  0.0015
    1DPPC   C2A16242  23.237   5.515   3.554  0.2110  0.1471  0.3005
    1DPPC   C3A16243  23.381   5.513   4.026 -0.3265 -0.1787 -0.0727
    1DPPC   C4A16244  23.541   5.358   4.481  0.0762 -0.0964  0.0028
    1DPPC   C1B16245  22.618   5.322   3.485  0.2462  0.2676  0.0466
    1DPPC   C2B16246  22.770   5.506   3.832  0.1464  0.1091  0.2927
    1DPPC   C3B16247  22.955   5.641   4.188  0.0573  0.0569  0.4209
    1DPPC   C4B16248  23.054   5.967   4.560  0.2485  0.2226  0.2019
    1DPPC   NC316249  26.329  13.593   2.576 -0.0081  0.1818 -0.1268
    1DPPC   PO416250  26.041  13.204   2.770 -0.4133  0.0753 -0.3029
    1DPPC   GL116251  25.974  13.119   3.154 -0.0389  0.0176  0.1153
    1DPPC   GL216252  25.811  13.340   3.287  0.1057 -0.2364  0.0487
    1DPPC   C1A16253  26.182  12.959   3.525 -0.1810  0.0171 -0.1135
    1DPPC   C2A16254  26.095  12.986   3.979 -0.1497  0.0899  0.0088
    1DPPC   C3A16255  25.931  13.072   4.384 -0.0708  0.0244  0.0227
    1DPPC   C4A16256  26.083  12.952   4.748 -0.3733  0.0755  0.1760
    1DPPC   C1B16257  25.898  13.452   3.673 -0.2547 -0.1008  0.0178
    1DPPC   C2B16258  25.895  13.511   4.093  0.1554  0.0283 -0.1848
    1DPPC   C3B16259  25.872  13.776   4.541 -0.1764 -0.3041 -0.2404
    1DPPC   C4B16260  25.902  14.208   4.445 -0.1189 -0.1371 -0.2067
    1DPPC   NC316261  27.553  17.210   3.312  0.1674  0.2598 -0.0397
    1DPPC   PO416262  27.986  17.307   3.233  0.0677  0.2060  0.0443
    1DPPC   GL116263  27.908  17.403   3.654  0.2560 -0.3000 -0.1330
    1DPPC   GL216264  28.222  17.444   3.827  0.1478 -0.0110 -0.1474
    1DPPC   C1A16265  27.684  17.223   4.012  0.1110 -0.1360  0.1818
    1DPPC   C2A16266  27.589  16.999   4.354  0.3331 -0.0764  0.0511
    1DPPC   C3A16267  27.218  16.809   4.487 -0.0858 -0.0022  0.0050
    1DPPC   C4A16268  27.088  16.621   4.848  0.2748 -0.0317  0.0054
    1DPPC   C1B16269  28.138  17.339   4.229 -0.0415 -0.1057 -0.1672
    1DPPC   C2B16270  28.067  17.203   4.725  0.1880  0.1348 -0.0565
    1DPPC   C3B16271  27.917  17.151   5.088 -0.3646  0.0772  0.0202
    1DPPC   C4B16272  27.891  17.513   5.338  0.0515  0.0560 -0.1524
    1DPPC   NC316273  28.939  11.983   2.548  0.1077 -0.2271  0.0726
    1DPPC   PO416274  28.683  11.642   2.365  0.0603 -0.2872 -0.0916
    1DPPC   GL116275  28.584  11.477   2.817 -0.0631 -0.0865  0.1637
    1DPPC   GL216276  28.819  11.546   2.949 -0.1028 -0.1824 -0.1160
    1DPPC   C1A16277  28.508  11.559   3.298  0.1085 -0.0564  0.0335
    1DPPC   C2A16278  28.522  11.495   3.673 -0.1899 -0.0260  0.0917
    1DPPC   C3A16279  28.532  11.520   4.056  0.1449  0.1339  0.1027
    1DPPC   C4A16280  28.467  11.454   4.436  0.1020 -0.1087 -0.2002
    1DPPC   C1B16281  28.905  11.194   3.203 -0.1571  0.0251 -0.4958
    1DPPC   C2B16282  28.952  11.223   3.645 -0.0744  0.1683 -0.0857
    1DPPC   C3B16283  29.070  11.223   4.037 -0.0740  0.1913  0.0141
    1DPPC   C4B16284  28.929  11.280   4.365  0.1398 -0.3068 -0.1260
    1DPPC   NC316285  19.210  19.815   3.263  0.1359 -0.0707  0.4803
    1DPPC   PO416286  18.874  20.022   2.892  0.0520 -0.2690  0.1692
    1DPPC   GL116287  18.755  19.938   3.465  0.0427  0.2342  0.2425
    1DPPC   GL216288  19.088  19.913   3.774 -0.0397  0.0131 -0.1457
    1DPPC   C1A16289  18.700  20.269   3.847  0.3108 -0.0491  0.0025
    1DPPC   C2A16290  18.862  20.667   4.109  0.2306  0.0492  0.0645
    1DPPC   C3A16291  18.682  20.737   4.559 -0.0255  0.0714 -0.2226
    1DPPC   C4A16292  18.500  20.340   4.863 -0.1581  0.2133  0.1319
    1DPPC   C1B16293  18.896  19.921   4.168 -0.0379  0.1532  0.0441
    1DPPC   C2B16294  18.824  20.152   4.561  0.2079  0.1113 -0.0959
    1DPPC   C3B16295  18.893  20.103   5.026  0.0982 -0.1197  0.2348
    1DPPC   C4B16296  18.953  20.305   5.329  0.1777  0.0614 -0.1341
    1DPPC   NC316297  28.946  12.776   2.035 -0.1789 -0.2475 -0.1547
    1DPPC   PO416298  29.489  12.635   2.192  0.2316  0.2332 -0.3533
    1DPPC   GL116299  29.500  12.889   2.690  0.0098  0.0401  0.0144
    1DPPC   GL216300  29.518  13.220   2.764  0.1394  0.2619 -0.3005
    1DPPC   C1A16301  29.411  12.783   3.115 -0.0188 -0.2557 -0.0971
    1DPPC   C2A16302  29.305  12.717   3.545  0.1350  0.0818 -0.3251
    1DPPC   C3A16303  29.408  12.649   3.864 -0.1007  0.1313  0.2089
    1DPPC   C4A16304  29.233  12.747   4.250  0.1140 -0.0915  0.0575
    1DPPC   C1B16305  29.540  13.285   3.197  0.1020  0.1643 -0.1232
    1DPPC   C2B16306  29.622  13.136   3.493 -0.0670 -0.0668 -0.0370
    1DPPC   C3B16307   0.101  13.121   3.924  0.2075 -0.0312 -0.1240
    1DPPC   C4B16308  29.556  13.040   4.376  0.1845  0.3811 -0.0392
    1DPPC   NC316309  29.527   8.891   1.689  0.1686 -0.0273 -0.1074
    1DPPC   PO416310  29.353   9.066   2.044 -0.1719  0.0625  0.0208
    1DPPC   GL116311  29.304   8.928   2.459  0.0513 -0.2087  0.0557
    1DPPC   GL216312  29.105   8.608   2.438  0.1708  0.0865  0.3345
    1DPPC   C1A16313  29.444   8.623   2.823  0.0636 -0.4551  0.1501
    1DPPC   C2A16314   0.073   8.578   3.308 -0.2500 -0.1875 -0.1272
    1DPPC   C3A16315   0.356   8.840   3.611 -0.1866 -0.1132 -0.2599
    1DPPC   C4A16316   0.697   8.819   3.746 -0.0830  0.0070  0.2823
    1DPPC   C1B16317  28.840   8.662   2.799  0.0813 -0.1276  0.1825
    1DPPC   C2B16318  29.016   8.835   3.169 -0.1537 -0.0495  0.0160
    1DPPC   C3B16319  29.332   8.906   3.404  0.0600 -0.0036 -0.0295
    1DPPC   C4B16320   0.162   9.085   3.244  0.0517 -0.2313 -0.0395
    1DPPC   NC316321  26.148   7.562   2.287 -0.1406  0.0111  0.2270
    1DPPC   PO416322  26.503   7.760   2.291 -0.6180  0.0379  0.1096
    1DPPC   GL116323  26.487   7.755   2.698  0.1521  0.2735 -0.2943
    1DPPC   GL216324  26.311   7.733   2.833 -0.1949 -0.1460  0.0229
    1DPPC   C1A16325  26.821   7.481   2.917 -0.0296  0.1124 -0.1861
    1DPPC   C2A16326  26.857   7.376   3.225  0.1309 -0.0044 -0.1465
    1DPPC   C3A16327  27.049   7.454   3.605 -0.2206 -0.1591  0.1643
    1DPPC   C4A16328  27.374   7.472   3.866  0.1796  0.3043  0.4083
    1DPPC   C1B16329  26.570   7.861   3.159  0.1071 -0.2168  0.0318
    1DPPC   C2B16330  26.735   7.911   3.548 -0.3120 -0.1522  0.0364
    1DPPC   C3B16331  26.998   7.847   3.905  0.1737  0.0783  0.0114
    1DPPC   C4B16332  26.725   7.895   4.266 -0.1996  0.3219  0.0304
    1DPPC   NC316333  17.605  27.605   3.357  0.1943 -0.1084  0.2174
    1DPPC   PO416334  17.993  27.810   3.469  0.2682 -0.1445  0.3333
    1DPPC   GL116335  17.913  27.594   3.820 -0.2349 -0.0293  0.3089
    1DPPC   GL216336  17.754  27.231   3.817 -0.1090 -0.1402  0.1514
    1DPPC   C1A16337  17.886  27.596   4.200  0.4520  0.3333 -0.0781
    1DPPC   C2A16338  18.063  27.374   4.555  0.1183 -0.0574 -0.0900
    1DPPC   C3A16339  17.925  27.412   5.062 -0.1110 -0.3686 -0.0502
    1DPPC   C4A16340  17.596  27.318   5.328 -0.1120 -0.1172 -0.1162
    1DPPC   C1B16341  17.479  27.395   3.959  0.0319  0.4121  0.1610
    1DPPC   C2B16342  17.426  27.454   4.334  0.0614 -0.1143 -0.0106
    1DPPC   C3B16343  17.528  27.710   4.707  0.0654  0.0152  0.1237
    1DPPC   C4B16344  17.983  27.852   4.822  0.2226  0.2008  0.1846
    1DPPC   NC316345  23.877   4.096   2.705 -0.0477 -0.1284  0.4026
    1DPPC   PO416346  24.263   4.260   2.989  0.1415  0.0829 -0.0658
    1DPPC   GL116347  24.349   4.180   3.425 -0.2334 -0.3427 -0.0058
    1DPPC   GL216348  24.515   3.893   3.445 -0.0102  0.0110  0.0698
    1DPPC   C1A16349  24.229   4.197   3.779 -0.2762  0.2170 -0.1488
    1DPPC   C2A16350  24.173   4.110   4.272 -0.0168 -0.2142  0.1719
    1DPPC   C3A16351  24.226   4.115   4.737  0.0861 -0.1764 -0.0091
    1DPPC   C4A16352  23.972   4.068   5.154  0.1589 -0.0913 -0.0245
    1DPPC   C1B16353  24.450   3.771   3.828 -0.0793  0.1751  0.1517
    1DPPC   C2B16354  24.589   3.795   4.201 -0.3105 -0.0320  0.0791
    1DPPC   C3B16355  24.475   3.751   4.533  0.0396 -0.2450  0.0405
    1DPPC   C4B16356  24.429   3.785   5.024 -0.2169 -0.5728 -0.1009
    1DPPC   NC316357  23.708  25.431   3.405 -0.0136 -0.1188 -0.2619
    1DPPC   PO416358  23.926  25.719   3.641 -0.1441 -0.1002 -0.0190
    1DPPC   GL116359  24.113  25.737   4.035  0.4600  0.3069 -0.0558
    1DPPC   GL216360  24.154  26.073   3.994  0.2700  0.1974 -0.1511
    1DPPC   C1A16361  23.822  26.064   4.369 -0.0819  0.3813  0.0521
    1DPPC   C2A16362  23.767  26.235   4.713 -0.1355  0.0009  0.0007
    1DPPC   C3A16363  23.779  26.426   5.170  0.0822  0.2272  0.1715
    1DPPC   C4A16364  23.362  26.588   5.252  0.0780  0.0844  0.1084
    1DPPC   C1B16365  24.356  26.242   4.318  0.0475  0.2401  0.0801
    1DPPC   C2B16366  24.594  26.179   4.668 -0.2482  0.6981  0.0279
    1DPPC   C3B16367  24.735  25.897   4.930 -0.3568  0.0855 -0.0061
    1DPPC   C4B16368  24.835  25.956   5.343 -0.0465 -0.0132  0.0403
    1DPPC   NC316369  20.511  11.079   2.317 -0.0412 -0.1511  0.0384
    1DPPC   PO416370  20.386  10.858   2.719 -0.2082 -0.0757 -0.0848
    1DPPC   GL116371  20.551  10.917   3.045  0.1515  0.0247  0.2296
    1DPPC   GL216372  20.263  11.091   3.152 -0.0038 -0.3429  0.0114
    1DPPC   C1A16373  20.922  10.907   3.325  0.2269  0.4611 -0.0327
    1DPPC   C2A16374  20.882  10.868   3.793  0.2170 -0.0553 -0.1021
    1DPPC   C3A16375  20.715  10.901   4.189  0.1632 -0.0408 -0.0289
    1DPPC   C4A16376  20.635  11.141   4.505  0.1160 -0.0252 -0.1622
    1DPPC   C1B16377  20.472  11.183   3.539  0.0729 -0.0450  0.0446
    1DPPC   C2B16378  20.402  11.226   3.964  0.1981 -0.1815  0.0362
    1DPPC   C3B16379  20.135  11.269   4.286 -0.0276 -0.1495  0.1524
    1DPPC   C4B16380  19.871  11.314   4.659 -0.2314  0.0339  0.1765
    1DPPC   NC316381   0.219  11.013   2.164 -0.2378  0.3942  0.2056
    1DPPC   PO416382  29.615  10.638   2.064 -0.0613  0.1449 -0.1476
    1DPPC   GL116383  29.541  10.655   2.515 -0.0756  0.0167 -0.0732
    1DPPC   GL216384  29.256  10.589   2.678  0.0486 -0.1449  0.1043
    1DPPC   C1A16385   0.067  10.534   2.931 -0.1514  0.1234 -0.1086
    1DPPC   C2A16386   0.186  10.568   3.371  0.3643 -0.0389 -0.0002
    1DPPC   C3A16387   0.088  10.485   3.730 -0.1190 -0.0096  0.2436
    1DPPC   C4A16388   0.183  10.347   4.086 -0.3271 -0.2662  0.1873
    1DPPC   C1B16389  29.221  10.511   3.155  0.0652 -0.1363  0.1505
    1DPPC   C2B16390  29.215  10.422   3.600  0.0628 -0.1140  0.0219
    1DPPC   C3B16391  29.262  10.420   4.078  0.0668 -0.0855 -0.1342
    1DPPC   C4B16392  29.431  10.297   4.448  0.1387 -0.0260 -0.2172
    1DPPC   NC316393  27.242   7.617   1.518 -0.2418  0.0250 -0.0181
    1DPPC   PO416394  27.682   7.668   1.650  0.1315 -0.2048  0.2801
    1DPPC   GL116395  27.734   7.535   1.950  0.1208 -0.1311  0.0880
    1DPPC   GL216396  27.883   7.721   2.187  0.1606  0.0350  0.1174
    1DPPC   C1A16397  28.101   7.200   2.016  0.0279  0.0007 -0.1467
    1DPPC   C2A16398  28.224   6.802   2.228  0.1278 -0.0402  0.0898
    1DPPC   C3A16399  28.255   6.397   2.382 -0.0959  0.0351  0.0559
    1DPPC   C4A16400  28.431   6.022   2.402  0.1731 -0.0639 -0.0905
    1DPPC   C1B16401  27.949   7.699   2.645 -0.0169 -0.2173  0.2796
    1DPPC   C2B16402  28.000   7.596   3.048  0.2491  0.0524 -0.0614
    1DPPC   C3B16403  28.307   7.594   3.419 -0.3524 -0.0554 -0.3661
    1DPPC   C4B16404  28.557   7.591   3.793  0.0103  0.0898 -0.3444
    1DPPC   NC316405  22.914   7.594   2.584 -0.2095 -0.2086 -0.1203
    1DPPC   PO416406  23.403   7.400   2.393  0.0199  0.1827  0.0873
    1DPPC   GL116407  23.295   7.355   2.856  0.0475 -0.2863  0.0174
    1DPPC   GL216408  23.542   7.398   2.978  0.1159 -0.0207  0.1972
    1DPPC   C1A16409  23.198   7.216   3.308 -0.1283 -0.3178 -0.2356
    1DPPC   C2A16410  23.136   7.131   3.703 -0.2106 -0.1318  0.1029
    1DPPC   C3A16411  23.319   7.243   4.140  0.2378  0.4067 -0.1134
    1DPPC   C4A16412  23.546   7.375   4.472  0.0062  0.0312  0.0638
    1DPPC   C1B16413  23.527   7.623   3.318 -0.0251 -0.0963  0.1082
    1DPPC   C2B16414  23.427   7.575   3.787  0.0516  0.2532  0.2318
    1DPPC   C3B16415  23.361   7.760   4.208 -0.0890  0.1291  0.4326
    1DPPC   C4B16416  23.148   7.887   4.549 -0.1465  0.2566  0.1169
    1DPPC   NC316417  19.008  14.992   2.621 -0.2144  0.1685 -0.2355
    1DPPC   PO416418  18.821  14.571   2.926 -0.0582 -0.1991 -0.0063
    1DPPC   GL116419  18.640  14.625   3.275  0.1809 -0.3397  0.0115
    1DPPC   GL216420  18.586  14.908   3.515 -0.0715  0.4251  0.2765
    1DPPC   C1A16421  18.366  14.425   3.592 -0.1579  0.0671  0.2001
    1DPPC   C2A16422  18.350  14.388   4.006 -0.1122  0.1329 -0.0652
    1DPPC   C3A16423  18.244  14.428   4.359  0.0438 -0.0414 -0.4506
    1DPPC   C4A16424  18.247  14.331   4.798  0.3438  0.2781 -0.2684
    1DPPC   C1B16425  18.520  14.894   3.972  0.0808  0.0655 -0.2583
    1DPPC   C2B16426  18.522  14.847   4.439 -0.0339  0.0800  0.4411
    1DPPC   C3B16427  18.483  14.750   4.827  0.0541  0.1163  0.3434
    1DPPC   C4B16428  18.721  14.900   5.132 -0.0374  0.2275 -0.2404
    1DPPC   NC316429  16.115  20.161   2.314 -0.1886 -0.0036  0.0887
    1DPPC   PO416430  16.219  19.927   2.699 -0.1066 -0.0514  0.0974
    1DPPC   GL116431  16.320  19.989   3.187 -0.1032 -0.1600  0.0574
    1DPPC   GL216432  16.522  20.235   3.361  0.0103 -0.1680  0.0029
    1DPPC   C1A16433  16.292  19.853   3.543  0.0966  0.0746 -0.1844
    1DPPC   C2A16434  16.258  19.667   3.926 -0.1282 -0.1658 -0.0508
    1DPPC   C3A16435  16.161  19.774   4.280 -0.0646  0.2907  0.3831
    1DPPC   C4A16436  16.107  20.119   4.518  0.1016  0.2310  0.2141
    1DPPC   C1B16437  16.747  19.997   3.635 -0.1739  0.1805  0.1638
    1DPPC   C2B16438  16.853  19.766   4.026 -0.4307 -0.2812 -0.3034
    1DPPC   C3B16439  16.943  19.460   4.241  0.0967 -0.4372 -0.1274
    1DPPC   C4B16440  16.982  19.427   4.732 -0.0205  0.1119  0.1353
    1DPPC   NC316441  19.386   9.588   2.549 -0.1037  0.1664 -0.1057
    1DPPC   PO416442  19.807   9.769   2.596  0.0277  0.4409 -0.2082
    1DPPC   GL116443  19.811  10.143   2.794  0.1482 -0.2894  0.0580
    1DPPC   GL216444  19.669   9.938   3.033  0.0709 -0.1233  0.1698
    1DPPC   C1A16445  19.697  10.442   3.188  0.1359 -0.0101  0.0145
    1DPPC   C2A16446  19.762  10.461   3.632 -0.1597  0.3545 -0.0748
    1DPPC   C3A16447  19.889  10.470   4.098 -0.0960  0.2495 -0.1138
    1DPPC   C4A16448  19.889  10.282   4.558  0.0351 -0.0424 -0.0444
    1DPPC   C1B16449  19.783   9.956   3.447 -0.0147  0.2504 -0.1989
    1DPPC   C2B16450  19.864  10.023   3.856 -0.2816  0.0101 -0.0249
    1DPPC   C3B16451  20.055   9.859   4.240 -0.0306 -0.0376  0.1479
    1DPPC   C4B16452  20.144   9.799   4.726 -0.1563  0.1910  0.1415
    1DPPC   NC316453  28.169   7.780   1.767 -0.0805  0.2688  0.1103
    1DPPC   PO416454  28.386   8.175   1.646  0.0418  0.1607 -0.1253
    1DPPC   GL116455  28.614   7.863   1.986  0.2157 -0.3509 -0.0915
    1DPPC   GL216456  28.797   7.725   1.970 -0.1198 -0.0739  0.1327
    1DPPC   C1A16457  28.448   7.669   2.408 -0.0718  0.1597 -0.2100
    1DPPC   C2A16458  28.458   7.725   2.845  0.1974  0.0939 -0.0219
    1DPPC   C3A16459  28.756   7.690   3.091  0.0512 -0.3398  0.1837
    1DPPC   C4A16460  29.080   7.344   3.117  0.0181  0.0398  0.1253
    1DPPC   C1B16461  28.989   7.651   2.503 -0.3827 -0.0036  0.2339
    1DPPC   C2B16462  29.188   7.761   2.831 -0.2743  0.1538 -0.2876
    1DPPC   C3B16463  29.198   7.841   3.251  0.3148  0.1270 -0.0138
    1DPPC   C4B16464  28.947   7.987   3.533 -0.1541  0.0407  0.0150
    1DPPC   NC316465  18.027   9.767   2.545 -0.0989  0.5912  0.3452
    1DPPC   PO416466  18.015  10.222   2.476  0.0960 -0.2580 -0.1013
    1DPPC   GL116467  18.161  10.373   2.871  0.2605 -0.0834  0.2012
    1DPPC   GL216468  17.984  10.509   3.172 -0.1458 -0.0615  0.1959
    1DPPC   C1A16469  18.407  10.338   3.296 -0.1290  0.2617  0.1273
    1DPPC   C2A16470  18.565  10.293   3.735  0.0903 -0.1014  0.0254
    1DPPC   C3A16471  18.711  10.229   4.091 -0.2103 -0.2079 -0.1152
    1DPPC   C4A16472  18.865  10.109   4.444  0.0727 -0.2324  0.0456
    1DPPC   C1B16473  18.050  10.494   3.671  0.2373 -0.0745 -0.1423
    1DPPC   C2B16474  18.234  10.434   4.067 -0.1244 -0.0291  0.0516
    1DPPC   C3B16475  18.367  10.350   4.513  0.0150 -0.1713 -0.2307
    1DPPC   C4B16476  18.128  10.208   4.933  0.0089  0.0697 -0.0548
    1DPPC   NC316477  26.300  12.666   2.732  0.0212  0.0104  0.2224
    1DPPC   PO416478  26.760  12.538   2.819  0.0838  0.2448  0.1489
    1DPPC   GL116479  26.920  12.808   3.127 -0.0813  0.0590 -0.2110
    1DPPC   GL216480  26.722  13.009   3.319  0.0489  0.0913  0.1859
    1DPPC   C1A16481  27.108  12.647   3.492 -0.0692 -0.0397  0.1072
    1DPPC   C2A16482  27.126  12.610   3.972  0.1481 -0.3447 -0.0548
    1DPPC   C3A16483  27.219  12.588   4.435 -0.0518 -0.0269  0.0173
    1DPPC   C4A16484  27.401  12.631   4.876 -0.0486  0.0392  0.1643
    1DPPC   C1B16485  26.949  13.118   3.662  0.1312 -0.2197 -0.0763
    1DPPC   C2B16486  27.042  13.084   4.037  0.2118  0.0187 -0.1429
    1DPPC   C3B16487  26.881  13.157   4.459 -0.0427  0.2212 -0.2185
    1DPPC   C4B16488  27.028  12.997   4.930 -0.1685  0.2633 -0.1423
    1DPPC   NC316489  29.176  13.520   2.549 -0.0241 -0.1916 -0.3297
    1DPPC   PO416490  29.020  13.125   2.743  0.1540  0.0701  0.1461
    1DPPC   GL116491  29.077  13.335   3.069 -0.0155 -0.0682 -0.2718
    1DPPC   GL216492  28.895  13.510   3.033  0.0118 -0.3266 -0.0139
    1DPPC   C1A16493  29.115  13.129   3.453 -0.0630  0.0806 -0.3143
    1DPPC   C2A16494  29.206  13.124   3.844 -0.0411  0.2105  0.1536
    1DPPC   C3A16495  29.063  13.239   4.235  0.2388  0.0392 -0.1409
    1DPPC   C4A16496  28.922  13.177   4.608 -0.0464 -0.0553  0.0265
    1DPPC   C1B16497  28.734  13.473   3.413  0.1120  0.0403  0.0340
    1DPPC   C2B16498  28.806  13.416   3.821 -0.1720  0.1780  0.2164
    1DPPC   C3B16499  28.870  13.684   4.137  0.1206  0.0073  0.2949
    1DPPC   C4B16500  29.004  13.677   4.538  0.0274  0.3359 -0.0521
    1DPPC   NC316501  18.945  15.698   3.242 -0.2051 -0.0885 -0.0252
    1DPPC   PO416502  19.045  16.034   3.271  0.0888  0.2255 -0.0314
    1DPPC   GL116503  18.798  16.198   3.664 -0.0918 -0.1557 -0.0617
    1DPPC   GL216504  18.602  16.536   3.628 -0.1205  0.1625 -0.0772
    1DPPC   C1A16505  18.798  16.248   4.032 -0.2897  0.0364  0.0760
    1DPPC   C2A16506  18.722  16.263   4.403  0.0651 -0.0270 -0.0427
    1DPPC   C3A16507  18.888  16.180   4.798  0.0595  0.0102 -0.0688
    1DPPC   C4A16508  18.608  16.182   5.170  0.2706 -0.0823  0.1989
    1DPPC   C1B16509  18.336  16.535   4.019 -0.2063  0.1851 -0.3043
    1DPPC   C2B16510  18.226  16.445   4.489 -0.0878 -0.1224 -0.2830
    1DPPC   C3B16511  18.477  16.535   4.746  0.0287 -0.1643 -0.1859
    1DPPC   C4B16512  18.775  16.629   4.885 -0.1296 -0.0712  0.0823
    1DPPC   NC316513  22.205  16.766   3.111  0.2711 -0.0316  0.0207
    1DPPC   PO416514  22.126  16.420   3.154  0.2426  0.0766  0.2747
    1DPPC   GL116515  21.921  16.508   3.518  0.1954 -0.0835  0.2147
    1DPPC   GL216516  21.667  16.668   3.553  0.0551 -0.1226 -0.0301
    1DPPC   C1A16517  21.935  16.532   3.975 -0.0756  0.1398 -0.0289
    1DPPC   C2A16518  22.120  16.550   4.393  0.0420 -0.0785 -0.1413
    1DPPC   C3A16519  22.365  16.629   4.724 -0.0188  0.1388 -0.0300
    1DPPC   C4A16520  22.454  16.626   5.031 -0.0157 -0.2547 -0.3688
    1DPPC   C1B16521  21.474  16.692   3.877  0.1342  0.0285 -0.3022
    1DPPC   C2B16522  21.630  16.752   4.285 -0.1204 -0.1360 -0.0547
    1DPPC   C3B16523  21.745  16.843   4.699  0.2630 -0.0832  0.0260
    1DPPC   C4B16524  22.025  16.885   4.971 -0.1143  0.1380  0.2521
    1DPPC   NC316525  26.680   8.137   2.025 -0.1266  0.0460  0.0771
    1DPPC   PO416526  27.170   8.153   1.858  0.1488  0.0498 -0.1355
    1DPPC   GL116527  27.235   8.262   2.225  0.0565 -0.1550  0.2275
    1DPPC   GL216528  26.982   8.039   2.435  0.1711 -0.1127  0.2207
    1DPPC   C1A16529  27.280   8.462   2.651  0.0316 -0.1756  0.0113
    1DPPC   C2A16530  27.254   8.343   3.040  0.0667  0.1077 -0.0598
    1DPPC   C3A16531  27.457   8.331   3.343  0.0263 -0.0131  0.0392
    1DPPC   C4A16532  27.593   8.355   3.764 -0.2835  0.0347  0.0305
    1DPPC   C1B16533  26.987   7.946   2.874 -0.1024 -0.0454 -0.0028
    1DPPC   C2B16534  27.127   7.909   3.210 -0.0087 -0.2865  0.0443
    1DPPC   C3B16535  27.323   7.945   3.576 -0.2337  0.1469  0.1841
    1DPPC   C4B16536  27.610   7.876   4.035 -0.0569  0.1768 -0.1263
    1DPPC   NC316537  16.895  15.117   2.797  0.0828 -0.2222 -0.2124
    1DPPC   PO416538  16.848  15.521   2.716 -0.0646 -0.0942  0.3339
    1DPPC   GL116539  16.754  15.598   3.102  0.1126 -0.2600 -0.2285
    1DPPC   GL216540  16.969  15.774   3.394  0.1592 -0.3304 -0.2919
    1DPPC   C1A16541  16.283  15.564   3.259  0.0771 -0.0894 -0.0167
    1DPPC   C2A16542  16.065  15.584   3.572  0.2156  0.0801  0.0044
    1DPPC   C3A16543  15.949  15.497   3.979 -0.2582  0.2124  0.0940
    1DPPC   C4A16544  15.791  15.317   4.359  0.0942  0.1649  0.2798
    1DPPC   C1B16545  16.948  15.693   3.792 -0.1645 -0.0997 -0.2282
    1DPPC   C2B16546  16.903  15.743   4.291 -0.1471 -0.3122 -0.0249
    1DPPC   C3B16547  16.714  15.569   4.539  0.0928 -0.1898 -0.1908
    1DPPC   C4B16548  16.459  15.277   4.767  0.0191 -0.1203 -0.3146
    1DPPC   NC316549  22.988  10.984   2.739  0.1280  0.1976 -0.1504
    1DPPC   PO416550  23.392  10.730   2.903 -0.1170 -0.0129 -0.1495
    1DPPC   GL116551  23.240  10.924   3.262  0.2148  0.0821 -0.0164
    1DPPC   GL216552  23.538  10.978   3.418 -0.3572  0.1087  0.0720
    1DPPC   C1A16553  23.066  11.065   3.666  0.2929 -0.1016 -0.2340
    1DPPC   C2A16554  22.879  11.000   4.117  0.0381 -0.0066  0.3646
    1DPPC   C3A16555  23.179  11.045   4.496  0.3361  0.0287 -0.1784
    1DPPC   C4A16556  23.223  11.080   4.925 -0.1365 -0.1831 -0.2667
    1DPPC   C1B16557  23.729  10.972   3.877  0.0905  0.0906  0.1337
    1DPPC   C2B16558  23.655  11.065   4.250 -0.0820 -0.2605 -0.0937
    1DPPC   C3B16559  23.549  11.342   4.631  0.1097 -0.0774  0.0899
    1DPPC   C4B16560  23.714  11.419   5.061  0.0732  0.2541 -0.0606
    1DPPC   NC316561  23.955  26.195   3.592 -0.3211 -0.1638  0.2360
    1DPPC   PO416562  24.356  25.987   3.533 -0.0242  0.0920  0.0479
    1DPPC   GL116563  24.705  25.989   3.837  0.3091  0.0529 -0.0603
    1DPPC   GL216564  24.687  25.775   3.976 -0.4041 -0.0593 -0.1218
    1DPPC   C1A16565  24.892  26.081   4.248 -0.1680  0.2448 -0.1567
    1DPPC   C2A16566  25.080  25.892   4.561 -0.1442 -0.1893 -0.1918
    1DPPC   C3A16567  25.418  25.606   4.676  0.1593  0.1023 -0.3960
    1DPPC   C4A16568  25.797  25.537   4.887  0.0457 -0.0913 -0.2816
    1DPPC   C1B16569  24.523  25.728   4.400 -0.3229  0.1457  0.2644
    1DPPC   C2B16570  24.479  25.487   4.780 -0.0847  0.0226 -0.1210
    1DPPC   C3B16571  24.563  25.189   5.130 -0.1569 -0.1971 -0.0955
    1DPPC   C4B16572  24.394  25.146   5.562  0.2686 -0.2730  0.0583
    1DPPC   NC316573   2.184  13.719   2.174  0.0153 -0.0381  0.1425
    1DPPC   PO416574   2.522  13.711   2.351  0.0987 -0.1198 -0.1058
    1DPPC   GL116575   2.594  13.857   2.725  0.3754  0.0801 -0.1634
    1DPPC   GL216576   2.919  13.819   2.753 -0.0765  0.0009 -0.2081
    1DPPC   C1A16577   2.652  14.003   3.105 -0.0920  0.0476  0.2842
    1DPPC   C2A16578   2.373  14.097   3.353 -0.3701 -0.1090  0.2803
    1DPPC   C3A16579   2.478  13.938   3.767 -0.2713  0.1903  0.3896
    1DPPC   C4A16580   2.851  13.656   3.904  0.1835  0.1938 -0.1458
    1DPPC   C1B16581   3.149  13.527   2.994  0.1298  0.1159  0.1509
    1DPPC   C2B16582   3.235  13.366   3.417  0.0139  0.1835  0.1929
    1DPPC   C3B16583   3.350  13.210   3.780  0.3607  0.4555  0.0576
    1DPPC   C4B16584   3.624  13.274   4.134  0.1394  0.0885 -0.0016
    1DPPC   NC316585  23.609   9.779   2.229 -0.1998 -0.0607 -0.1557
    1DPPC   PO416586  23.456  10.027   2.665  0.3101 -0.0527 -0.1898
    1DPPC   GL116587  23.237  10.067   3.048  0.4314  0.0564  0.3010
    1DPPC   GL216588  23.027  10.389   3.030  0.1121  0.0759  0.0250
    1DPPC   C1A16589  23.174  10.074   3.528  0.0033  0.0676  0.2221
    1DPPC   C2A16590  23.151   9.969   4.062 -0.0676 -0.2374  0.2757
    1DPPC   C3A16591  23.272  10.002   4.611  0.2090 -0.4647  0.0769
    1DPPC   C4A16592  23.639  10.214   4.861 -0.0837 -0.1057 -0.1534
    1DPPC   C1B16593  22.981  10.512   3.417 -0.1453  0.0527 -0.4197
    1DPPC   C2B16594  22.833  10.556   3.812 -0.1416  0.2489 -0.0798
    1DPPC   C3B16595  22.771  10.624   4.348  0.3516  0.1074 -0.0673
    1DPPC   C4B16596  22.611  10.851   4.652 -0.0585 -0.1422 -0.0615
    1DPPC   NC316597  23.018   7.048   2.366 -0.0616  0.1009  0.0931
    1DPPC   PO416598  22.848   7.097   2.737 -0.1384  0.3160 -0.1260
    1DPPC   GL116599  22.668   7.163   3.094  0.0559 -0.2952 -0.2288
    1DPPC   GL216600  22.516   7.530   2.900  0.1055  0.4190  0.0775
    1DPPC   C1A16601  22.694   7.283   3.486 -0.0471  0.0389 -0.3113
    1DPPC   C2A16602  22.619   7.180   3.845 -0.0862  0.1932  0.2711
    1DPPC   C3A16603  22.444   7.119   4.249  0.0651  0.1163 -0.3842
    1DPPC   C4A16604  22.273   6.905   4.685  0.0816  0.0040  0.1455
    1DPPC   C1B16605  22.342   7.560   3.304  0.3988 -0.0109  0.1121
    1DPPC   C2B16606  22.327   7.585   3.713 -0.0758 -0.0380  0.1495
    1DPPC   C3B16607  22.428   7.647   4.237 -0.0074  0.1416  0.1154
    1DPPC   C4B16608  22.649   7.766   4.607  0.2394  0.1470 -0.2412
    1DPPC   NC316609  28.550  18.493   3.593 -0.1298 -0.3794 -0.0062
    1DPPC   PO416610  28.201  18.576   3.522  0.2360 -0.0407  0.2711
    1DPPC   GL116611  27.953  18.619   3.847 -0.1690 -0.1028 -0.0935
    1DPPC   GL216612  27.709  18.545   3.753  0.1660 -0.1293  0.0823
    1DPPC   C1A16613  28.030  18.698   4.277 -0.1334  0.0700 -0.2929
    1DPPC   C2A16614  28.211  18.552   4.592 -0.0533 -0.0090  0.4302
    1DPPC   C3A16615  28.363  18.100   4.820  0.1706  0.0827 -0.1563
    1DPPC   C4A16616  28.601  17.813   4.784  0.2021  0.2701  0.0577
    1DPPC   C1B16617  27.616  18.352   4.170 -0.2311 -0.3675  0.2671
    1DPPC   C2B16618  27.306  18.156   4.389  0.0808 -0.1695 -0.2232
    1DPPC   C3B16619  27.229  17.725   4.567 -0.1745  0.3088  0.1362
    1DPPC   C4B16620  27.010  17.430   4.673  0.0390  0.0163 -0.0088
    1DPPC   NC316621  20.367  12.608   2.434  0.0398 -0.0270 -0.1073
    1DPPC   PO416622  20.415  12.578   2.893  0.1693  0.0104  0.0434
    1DPPC   GL116623  20.523  12.675   3.239  0.0255  0.1995 -0.2837
    1DPPC   GL216624  20.272  12.925   3.386 -0.1439 -0.0276 -0.1357
    1DPPC   C1A16625  20.780  12.566   3.553  0.1688  0.1376  0.0996
    1DPPC   C2A16626  20.849  12.568   3.955 -0.3634  0.0199 -0.2795
    1DPPC   C3A16627  20.844  12.473   4.419 -0.1337 -0.2627  0.0310
    1DPPC   C4A16628  20.794  12.291   4.775  0.0723  0.2987 -0.1760
    1DPPC   C1B16629  20.355  12.696   3.701 -0.3472 -0.0558  0.3177
    1DPPC   C2B16630  20.361  12.777   4.062 -0.0100  0.1314  0.0565
    1DPPC   C3B16631  20.442  12.751   4.432 -0.0486 -0.2930  0.0209
    1DPPC   C4B16632  20.515  12.670   4.916  0.0756 -0.2694 -0.1008
    1DPPC   NC316633  14.227  10.288   2.943 -0.0036 -0.1893  0.0226
    1DPPC   PO416634  13.811  10.232   2.917  0.0375  0.1266  0.0553
    1DPPC   GL116635  13.943  10.067   3.432 -0.1271  0.0916 -0.1923
    1DPPC   GL216636  14.320   9.918   3.391  0.4721  0.0098  0.3141
    1DPPC   C1A16637  13.959   9.866   3.811 -0.2277  0.0395 -0.2377
    1DPPC   C2A16638  14.168   9.914   4.288  0.0307  0.2151  0.1841
    1DPPC   C3A16639  14.417  10.215   4.532  0.1684 -0.0267  0.3123
    1DPPC   C4A16640  14.804  10.433   4.564 -0.0283  0.0735  0.2662
    1DPPC   C1B16641  14.411  10.334   3.554  0.2384 -0.1694 -0.0841
    1DPPC   C2B16642  14.658  10.560   3.567 -0.0400 -0.0007 -0.2768
    1DPPC   C3B16643  14.968  10.510   3.572  0.2723 -0.0483  0.1215
    1DPPC   C4B16644  15.304  10.664   3.513 -0.1265  0.1525 -0.1846
    1DPPC   NC316645  19.371   8.074   2.601  0.1937 -0.0059 -0.2601
    1DPPC   PO416646  19.173   7.781   2.775 -0.1159 -0.1764 -0.1439
    1DPPC   GL116647  18.975   8.032   3.032  0.2228  0.0507 -0.2787
    1DPPC   GL216648  18.872   8.301   3.045  0.3820 -0.1816 -0.1506
    1DPPC   C1A16649  18.666   7.918   3.312  0.1227  0.3838  0.1162
    1DPPC   C2A16650  18.535   7.963   3.754 -0.0452  0.1558 -0.0136
    1DPPC   C3A16651  18.418   7.810   4.094 -0.1553 -0.0975 -0.1714
    1DPPC   C4A16652  18.201   7.804   4.454 -0.0667  0.0256  0.1726
    1DPPC   C1B16653  18.731   8.407   3.522  0.1857  0.1005 -0.3314
    1DPPC   C2B16654  18.700   8.467   3.886 -0.0974 -0.0005  0.0752
    1DPPC   C3B16655  18.560   8.247   4.274  0.1916  0.2326  0.0721
    1DPPC   C4B16656  18.725   7.926   4.593  0.0065 -0.2760  0.0100
    1DPPC   NC316657  22.384   5.791   2.247 -0.1127 -0.1297  0.0549
    1DPPC   PO416658  22.333   5.791   2.682  0.1151 -0.1637  0.2722
    1DPPC   GL116659  22.518   5.702   3.039 -0.2118 -0.0385 -0.2931
    1DPPC   GL216660  22.308   5.607   3.266  0.1372  0.2483 -0.0518
    1DPPC   C1A16661  22.839   5.906   3.365  0.0352  0.2502  0.0139
    1DPPC   C2A16662  22.978   5.937   3.815 -0.0934  0.0775 -0.0233
    1DPPC   C3A16663  23.109   6.227   4.046 -0.0275 -0.3184  0.1010
    1DPPC   C4A16664  22.956   6.449   4.407 -0.0217 -0.0079  0.0973
    1DPPC   C1B16665  22.356   5.730   3.558 -0.2169 -0.0862  0.3156
    1DPPC   C2B16666  22.518   5.832   4.023  0.2130  0.0431 -0.0148
    1DPPC   C3B16667  22.527   6.074   4.420 -0.1602 -0.1809 -0.0506
    1DPPC   C4B16668  22.558   6.366   4.736 -0.0225  0.3844 -0.0037
    1DPPC   NC316669  12.470   8.204   2.553 -0.2151  0.0574  0.2032
    1DPPC   PO416670  12.082   8.060   2.591  0.0698  0.0335  0.1966
    1DPPC   GL116671  11.865   7.910   2.957 -0.2053  0.1340 -0.0400
    1DPPC   GL216672  11.917   7.939   3.317  0.1384 -0.4054  0.0260
    1DPPC   C1A16673  11.463   7.778   3.296  0.3269 -0.0667 -0.0589
    1DPPC   C2A16674  11.443   7.918   3.586 -0.2748 -0.0455  0.2320
    1DPPC   C3A16675  11.549   7.717   4.002  0.2220 -0.4860 -0.1116
    1DPPC   C4A16676  11.619   7.303   4.200 -0.0527 -0.1202  0.0298
    1DPPC   C1B16677  11.935   7.598   3.637  0.1257 -0.1787  0.0202
    1DPPC   C2B16678  12.003   7.336   3.882  0.2200  0.0161  0.1140
    1DPPC   C3B16679  12.060   7.181   4.253 -0.3354  0.3006  0.1893
    1DPPC   C4B16680  12.233   7.181   4.646  0.5246  0.1545 -0.1409
    1DPPC   NC316681  25.322   4.953   2.797  0.2542  0.0717 -0.0451
    1DPPC   PO416682  25.119   4.629   2.780 -0.0319 -0.0236 -0.1691
    1DPPC   GL116683  25.135   4.443   3.115 -0.1700  0.0040 -0.0496
    1DPPC   GL216684  24.782   4.250   3.157  0.0534 -0.0715  0.2768
    1DPPC   C1A16685  25.269   4.211   3.530 -0.1922  0.3018  0.0291
    1DPPC   C2A16686  25.296   4.197   3.920 -0.0391 -0.1852 -0.4548
    1DPPC   C3A16687  25.357   4.066   4.453  0.0902 -0.1612  0.0460
    1DPPC   C4A16688  25.398   4.347   4.767  0.2162 -0.3181 -0.0656
    1DPPC   C1B16689  24.783   4.310   3.626  0.1695  0.2471 -0.1454
    1DPPC   C2B16690  24.704   4.289   4.051 -0.2411 -0.0610 -0.1784
    1DPPC   C3B16691  24.818   4.163   4.452  0.1506 -0.2409  0.2502
    1DPPC   C4B16692  25.036   3.771   4.689  0.0379 -0.5341  0.0109
    1DPPC   NC316693  20.999  17.942   3.576 -0.3208  0.2264  0.0680
    1DPPC   PO416694  20.625  17.944   3.326 -0.0489  0.2299  0.1252
    1DPPC   GL116695  20.455  17.867   3.782  0.2993  0.3790  0.2410
    1DPPC   GL216696  20.657  17.762   3.934 -0.4997  0.1900  0.0041
    1DPPC   C1A16697  20.527  18.226   4.067  0.1063 -0.1198 -0.1695
    1DPPC   C2A16698  20.509  18.424   4.530 -0.0485 -0.3285  0.2790
    1DPPC   C3A16699  20.537  18.346   4.893 -0.1666  0.0913 -0.1080
    1DPPC   C4A16700  20.360  18.337   5.334  0.0924 -0.3573  0.0037
    1DPPC   C1B16701  20.796  17.913   4.308  0.2089  0.1032 -0.1569
    1DPPC   C2B16702  20.755  17.813   4.726  0.0426  0.0628 -0.0536
    1DPPC   C3B16703  20.512  17.871   5.073 -0.1077 -0.0085  0.1286
    1DPPC   C4B16704  20.620  17.954   5.581  0.0957  0.0104  0.1764
    1DPPC   NC316705  25.099  12.215   2.905 -0.0609  0.1361  0.2723
    1DPPC   PO416706  25.191  12.716   2.903 -0.1521  0.0198 -0.0088
    1DPPC   GL116707  25.124  12.582   3.346 -0.0342 -0.2274 -0.2791
    1DPPC   GL216708  25.045  12.285   3.390  0.3625 -0.1730  0.0703
    1DPPC   C1A16709  24.989  12.595   3.785  0.2064  0.0305 -0.0054
    1DPPC   C2A16710  24.961  12.567   4.254 -0.2550 -0.1450  0.3764
    1DPPC   C3A16711  24.944  12.760   4.633  0.2499  0.0462  0.1949
    1DPPC   C4A16712  24.815  12.619   4.978 -0.0653 -0.1219  0.2033
    1DPPC   C1B16713  24.980  12.092   3.659 -0.1337 -0.1898 -0.0451
    1DPPC   C2B16714  24.980  12.070   4.080  0.1612  0.0282 -0.2788
    1DPPC   C3B16715  24.946  12.170   4.573 -0.3815 -0.0324 -0.1545
    1DPPC   C4B16716  24.940  12.079   4.891 -0.0656  0.2046  0.2840
    1DPPC   NC316717  18.363   8.360   2.369  0.2676 -0.0409  0.1354
    1DPPC   PO416718  18.507   7.915   2.420  0.3660 -0.1188 -0.0506
    1DPPC   GL116719  18.414   7.758   2.791 -0.3361  0.0299 -0.2559
    1DPPC   GL216720  18.380   8.039   2.931  0.4505 -0.0215 -0.1238
    1DPPC   C1A16721  18.424   7.543   3.108 -0.4432  0.1861  0.2913
    1DPPC   C2A16722  18.505   7.403   3.488 -0.2466  0.1135 -0.3450
    1DPPC   C3A16723  18.451   7.297   3.946  0.0901  0.1035 -0.0659
    1DPPC   C4A16724  18.375   6.998   4.236 -0.2127  0.2211 -0.0460
    1DPPC   C1B16725  18.260   8.364   3.220  0.0023 -0.1012  0.1839
    1DPPC   C2B16726  18.187   8.276   3.576 -0.2485 -0.2160 -0.1304
    1DPPC   C3B16727  18.015   8.063   3.939  0.1411 -0.4470 -0.0055
    1DPPC   C4B16728  17.727   7.866   4.205 -0.0816  0.0962  0.3139
    1DPPC   NC316729  28.432   3.679   2.234 -0.1166 -0.1545  0.3055
    1DPPC   PO416730  28.859   3.628   2.224  0.3885  0.0221  0.1613
    1DPPC   GL116731  28.715   3.451   2.630 -0.1237 -0.1360 -0.0106
    1DPPC   GL216732  28.373   3.364   2.730 -0.2100  0.0507 -0.1755
    1DPPC   C1A16733  28.929   3.297   2.965  0.1026 -0.1485 -0.0254
    1DPPC   C2A16734  28.876   3.028   3.404  0.3181  0.1244 -0.1710
    1DPPC   C3A16735  28.777   3.146   3.878  0.1109  0.2170 -0.0463
    1DPPC   C4A16736  28.594   3.103   4.274 -0.3552 -0.2016 -0.0915
    1DPPC   C1B16737  28.462   3.395   3.135 -0.2045 -0.0382  0.0662
    1DPPC   C2B16738  28.435   3.522   3.590 -0.2959  0.1292 -0.1041
    1DPPC   C3B16739  28.664   3.590   4.066  0.0143 -0.0095  0.1527
    1DPPC   C4B16740  28.697   4.004   4.307 -0.0471  0.0536  0.2561
    1DPPC   NC316741   1.534  11.180   2.237  0.1630 -0.1283  0.0232
    1DPPC   PO416742   1.691  11.564   2.538 -0.2719  0.2736  0.1296
    1DPPC   GL116743   1.894  11.444   2.950 -0.0196 -0.2288  0.4778
    1DPPC   GL216744   1.606  11.557   3.076  0.1638 -0.2572  0.0320
    1DPPC   C1A16745   2.100  11.759   3.186 -0.2104 -0.4771 -0.0055
    1DPPC   C2A16746   2.162  11.852   3.534 -0.2219  0.0087 -0.1609
    1DPPC   C3A16747   2.223  11.816   3.960  0.0357 -0.3316 -0.1409
    1DPPC   C4A16748   2.513  12.105   4.248 -0.0060 -0.1380 -0.1482
    1DPPC   C1B16749   1.616  11.624   3.632  0.2189  0.2011  0.2531
    1DPPC   C2B16750   1.682  11.732   4.106 -0.0851  0.0174 -0.2367
    1DPPC   C3B16751   1.438  11.952   4.444 -0.0260  0.1935 -0.1326
    1DPPC   C4B16752   1.155  12.195   4.350 -0.0232  0.1463  0.1398
    1DPPC   NC316753   0.806  15.397   3.048 -0.0814  0.1714 -0.1099
    1DPPC   PO416754   0.964  15.095   2.778 -0.2248 -0.1221 -0.0055
    1DPPC   GL116755   0.979  15.001   3.215  0.1715 -0.1179  0.0575
    1DPPC   GL216756   1.166  14.889   3.244 -0.5742  0.3016  0.2170
    1DPPC   C1A16757   1.069  14.871   3.717 -0.1206 -0.1259 -0.0245
    1DPPC   C2A16758   1.134  14.770   4.156  0.2776 -0.1625 -0.4103
    1DPPC   C3A16759   1.069  14.612   4.502 -0.2954  0.0119  0.0417
    1DPPC   C4A16760   1.280  14.413   4.862  0.0003  0.0335 -0.0334
    1DPPC   C1B16761   1.438  15.144   3.482  0.1718 -0.0545  0.2064
    1DPPC   C2B16762   1.711  15.199   3.900 -0.2395  0.0521 -0.3044
    1DPPC   C3B16763   2.086  15.228   4.184 -0.3089 -0.1945 -0.2358
    1DPPC   C4B16764   2.441  15.408   4.130 -0.0984 -0.0781 -0.1718
    1DPPC   NC316765  20.755  12.919   2.879  0.1177  0.1019  0.0768
    1DPPC   PO416766  21.152  13.075   2.714  0.0364 -0.1639 -0.0923
    1DPPC   GL116767  21.221  13.183   3.153  0.2187 -0.0122 -0.0744
    1DPPC   GL216768  21.251  13.380   3.385 -0.1811 -0.2548 -0.2903
    1DPPC   C1A16769  21.204  12.985   3.612 -0.2684 -0.1129 -0.0204
    1DPPC   C2A16770  21.258  12.912   4.007  0.0866  0.0105 -0.3513
    1DPPC   C3A16771  21.174  12.864   4.422 -0.4076  0.1690 -0.0157
    1DPPC   C4A16772  21.081  12.695   4.827 -0.0704 -0.0346  0.0052
    1DPPC   C1B16773  21.215  13.493   3.730  0.0543 -0.3042 -0.2142
    1DPPC   C2B16774  21.295  13.606   4.049  0.2624  0.0534  0.0620
    1DPPC   C3B16775  21.364  13.715   4.441 -0.0568 -0.1410  0.0874
    1DPPC   C4B16776  21.073  13.701   4.728  0.1614 -0.2118  0.1041
    1DPPC   NC316777  12.365   6.933   2.430  0.0685  0.0170  0.2556
    1DPPC   PO416778  12.509   7.346   2.430  0.1606  0.1032 -0.0566
    1DPPC   GL116779  12.389   7.293   2.842  0.0082  0.0624 -0.0593
    1DPPC   GL216780  12.110   7.115   2.953  0.2339 -0.0731 -0.0796
    1DPPC   C1A16781  12.685   7.402   3.176 -0.1720 -0.2336  0.1369
    1DPPC   C2A16782  12.824   7.120   3.532  0.2538 -0.0760 -0.1227
    1DPPC   C3A16783  13.200   7.000   3.660  0.0578 -0.1454  0.0347
    1DPPC   C4A16784  13.626   6.919   3.523  0.0529  0.0498  0.0879
    1DPPC   C1B16785  12.468   6.825   3.056 -0.0126  0.4974  0.2287
    1DPPC   C2B16786  12.604   6.663   3.380 -0.4366  0.2865  0.3474
    1DPPC   C3B16787  12.940   6.567   3.623 -0.1562  0.1106 -0.0318
    1DPPC   C4B16788  13.037   6.279   3.944 -0.1236  0.0685  0.2939
    1DPPC   NC316789  24.465   6.434   2.675  0.0818 -0.0354 -0.0845
    1DPPC   PO416790  24.485   5.993   2.821 -0.0825 -0.1657 -0.0226
    1DPPC   GL116791  24.918   5.720   2.856  0.0804 -0.2797 -0.0427
    1DPPC   GL216792  25.108   5.820   2.813  0.0468 -0.1542  0.0502
    1DPPC   C1A16793  25.003   5.595   3.261  0.0528  0.1108  0.0818
    1DPPC   C2A16794  24.940   5.395   3.593 -0.1541 -0.1471 -0.3022
    1DPPC   C3A16795  25.042   5.292   4.032 -0.0602 -0.1634 -0.1217
    1DPPC   C4A16796  25.145   5.375   4.427 -0.0902 -0.0985 -0.0666
    1DPPC   C1B16797  25.303   5.947   3.175  0.1191 -0.3529  0.2406
    1DPPC   C2B16798  25.621   6.118   3.570 -0.2071  0.3073 -0.2975
    1DPPC   C3B16799  25.657   6.251   4.042 -0.0759  0.1413  0.0897
    1DPPC   C4B16800  25.562   6.095   4.464 -0.1691  0.0265 -0.0834
    1DPPC   NC316801  16.514  14.496   2.601  0.0752 -0.1901 -0.4222
    1DPPC   PO416802  16.837  14.627   2.744 -0.0944 -0.1073  0.3137
    1DPPC   GL116803  16.538  14.767   3.092  0.1068 -0.1776  0.2946
    1DPPC   GL216804  16.398  15.128   3.101 -0.1511  0.0203  0.2915
    1DPPC   C1A16805  16.517  14.818   3.546  0.1989 -0.0653  0.3195
    1DPPC   C2A16806  16.528  14.721   3.994 -0.0472  0.2173  0.0700
    1DPPC   C3A16807  16.405  14.619   4.417 -0.0990  0.1345 -0.1552
    1DPPC   C4A16808  16.467  14.667   4.826  0.2306 -0.0637 -0.0236
    1DPPC   C1B16809  16.129  15.107   3.425  0.2062  0.0711  0.1152
    1DPPC   C2B16810  16.116  15.079   3.754  0.0230  0.1203  0.0896
    1DPPC   C3B16811  16.081  14.927   4.139  0.0311 -0.1021 -0.0624
    1DPPC   C4B16812  16.073  14.967   4.542  0.2923 -0.3391 -0.2493
    1DPPC   NC316813  26.170   4.968   2.215 -0.0497 -0.1736 -0.0412
    1DPPC   PO416814  26.149   5.456   2.357 -0.2076 -0.3572  0.1284
    1DPPC   GL116815  26.269   5.753   2.558 -0.1606 -0.1668 -0.6161
    1DPPC   GL216816  26.088   6.003   2.601 -0.1419 -0.1743 -0.1682
    1DPPC   C1A16817  26.368   5.637   2.987  0.0083 -0.0390 -0.1378
    1DPPC   C2A16818  26.648   5.628   3.318 -0.0618 -0.1609  0.0019
    1DPPC   C3A16819  26.560   5.488   3.684  0.0106  0.2197  0.1993
    1DPPC   C4A16820  26.373   5.436   4.032 -0.4844  0.0775  0.2035
    1DPPC   C1B16821  26.065   6.254   2.932 -0.0131  0.0933  0.1069
    1DPPC   C2B16822  26.048   6.323   3.365 -0.1399  0.0312 -0.0191
    1DPPC   C3B16823  26.090   6.407   3.811  0.1296  0.2113 -0.0355
    1DPPC   C4B16824  26.200   6.584   4.238 -0.1230 -0.0920 -0.1067
    1DPPC   NC316825   2.839  10.985   2.069 -0.0864  0.6545 -0.1660
    1DPPC   PO416826   2.705  11.435   2.166  0.0779  0.0548 -0.0961
    1DPPC   GL116827   2.736  11.224   2.495 -0.1316 -0.0084  0.0549
    1DPPC   GL216828   3.072  10.951   2.498  0.2136  0.3142 -0.2136
    1DPPC   C1A16829   2.900  11.349   2.945 -0.1824  0.0176  0.0336
    1DPPC   C2A16830   2.955  11.437   3.414  0.2635 -0.0668 -0.1313
    1DPPC   C3A16831   3.103  11.408   3.848 -0.0568 -0.0618  0.3229
    1DPPC   C4A16832   2.844  11.769   4.068  0.1598  0.1302  0.3246
    1DPPC   C1B16833   3.215  10.679   2.777  0.0539  0.2238  0.0828
    1DPPC   C2B16834   3.241  10.579   3.191  0.1384 -0.0777  0.1763
    1DPPC   C3B16835   3.081  10.396   3.520  0.1203  0.0257  0.3031
    1DPPC   C4B16836   2.869  10.533   3.853  0.2844  0.0853  0.0762
    1DPPC   NC316837  16.164  10.260   2.875 -0.1557 -0.4741  0.0727
    1DPPC   PO416838  16.330   9.830   2.972  0.1625 -0.0645  0.0655
    1DPPC   GL116839  16.544  10.070   3.296 -0.0245  0.0479  0.1716
    1DPPC   GL216840  16.817  10.010   3.230 -0.1867  0.1989 -0.0245
    1DPPC   C1A16841  16.580  10.236   3.708 -0.0778  0.0918  0.0240
    1DPPC   C2A16842  16.851  10.158   4.115  0.0007  0.1406  0.2612
    1DPPC   C3A16843  17.063   9.774   4.123  0.1027 -0.1965 -0.1536
    1DPPC   C4A16844  17.245   9.478   3.968  0.2878 -0.2442 -0.0452
    1DPPC   C1B16845  16.897   9.888   3.604 -0.0801  0.1379  0.0334
    1DPPC   C2B16846  16.420   9.792   3.844  0.0001 -0.0398 -0.0046
    1DPPC   C3B16847  16.221   9.823   4.317 -0.3334  0.2817 -0.0601
    1DPPC   C4B16848  15.838   9.813   4.596  0.1412 -0.1492 -0.0210
    1DPPC   NC316849  27.312  10.547   1.957  0.0893  0.0356 -0.1556
    1DPPC   PO416850  27.351  10.176   2.238 -0.1428 -0.1434 -0.1601
    1DPPC   GL116851  27.456  10.126   2.657 -0.0951  0.1166 -0.0815
    1DPPC   GL216852  27.049  10.246   2.704 -0.0638  0.2231  0.3314
    1DPPC   C1A16853  27.609   9.861   3.011 -0.3137 -0.1317  0.1107
    1DPPC   C2A16854  27.658   9.830   3.464 -0.1884  0.1982 -0.3954
    1DPPC   C3A16855  27.706   9.838   3.846 -0.0986 -0.0182  0.0732
    1DPPC   C4A16856  27.939   9.725   4.201 -0.0639  0.0697 -0.1292
    1DPPC   C1B16857  27.265  10.297   3.111  0.0455 -0.2720 -0.1112
    1DPPC   C2B16858  27.353  10.210   3.437  0.3914  0.2935  0.3050
    1DPPC   C3B16859  27.369  10.204   3.880 -0.1047  0.2763 -0.0560
    1DPPC   C4B16860  27.460   9.978   4.250  0.0079  0.0065  0.0701
    1DPPC   NC316861  24.403  13.922   2.431 -0.2348  0.4142 -0.5045
    1DPPC   PO416862  24.741  14.077   2.311 -0.2597  0.0664 -0.0960
    1DPPC   GL116863  24.778  14.145   2.847  0.2616 -0.0168 -0.0377
    1DPPC   GL216864  24.741  14.434   2.985 -0.4744  0.1233  0.0816
    1DPPC   C1A16865  24.566  14.019   3.222 -0.0579  0.0329  0.1218
    1DPPC   C2A16866  24.593  14.077   3.612 -0.4119 -0.0400 -0.0504
    1DPPC   C3A16867  24.518  13.981   4.112  0.1743  0.2482 -0.0606
    1DPPC   C4A16868  24.613  14.170   4.467  0.0564  0.3514 -0.2478
    1DPPC   C1B16869  25.040  14.174   3.306 -0.0597 -0.3232 -0.2693
    1DPPC   C2B16870  25.139  13.988   3.710 -0.0811  0.0367 -0.0552
    1DPPC   C3B16871  25.010  13.904   4.112  0.0064 -0.0894 -0.0748
    1DPPC   C4B16872  24.875  13.680   4.462  0.0188  0.0738 -0.1630
    1DPPC   NC316873  24.972  13.041   2.366  0.0089  0.0117 -0.2412
    1DPPC   PO416874  25.180  13.321   2.631 -0.0308  0.0163  0.2820
    1DPPC   GL116875  25.311  13.373   3.037  0.1387  0.2422  0.1799
    1DPPC   GL216876  25.461  13.687   3.111  0.3180  0.2047  0.0068
    1DPPC   C1A16877  25.363  13.445   3.512 -0.0438  0.2943  0.3603
    1DPPC   C2A16878  25.368  13.538   3.977 -0.1178  0.0449  0.0166
    1DPPC   C3A16879  25.546  13.390   4.419 -0.1271 -0.0325  0.1433
    1DPPC   C4A16880  25.818  13.377   4.786 -0.0679 -0.0865 -0.1307
    1DPPC   C1B16881  25.655  13.846   3.491  0.0006 -0.2746 -0.0018
    1DPPC   C2B16882  25.699  13.930   3.950 -0.1028  0.4111  0.0629
    1DPPC   C3B16883  25.450  13.967   4.378 -0.2245  0.1189  0.1577
    1DPPC   C4B16884  25.334  14.035   4.745 -0.0312  0.1034 -0.0909
    1DPPC   NC316885  18.848   6.445   2.389  0.1118  0.2307 -0.1234
    1DPPC   PO416886  18.916   6.658   2.739  0.3952  0.0414  0.1352
    1DPPC   GL116887  19.131   6.694   3.035  0.1148 -0.0249 -0.0992
    1DPPC   GL216888  19.437   6.516   2.789 -0.1427 -0.0483  0.1354
    1DPPC   C1A16889  19.302   6.937   3.283 -0.1786  0.0401  0.0913
    1DPPC   C2A16890  19.279   6.975   3.684  0.0083  0.0124 -0.1386
    1DPPC   C3A16891  19.141   6.751   3.977  0.1066  0.0344  0.1083
    1DPPC   C4A16892  18.782   6.713   4.288 -0.0831  0.0000 -0.3193
    1DPPC   C1B16893  19.638   6.501   3.169  0.0479 -0.0085  0.0314
    1DPPC   C2B16894  19.516   6.515   3.596  0.1310 -0.0275 -0.2224
    1DPPC   C3B16895  19.449   6.388   4.084 -0.2513 -0.1982  0.1432
    1DPPC   C4B16896  19.219   6.228   4.456  0.2798 -0.0451 -0.0627
    1DPPC   NC316897   2.342  10.187   1.816  0.0935  0.2217 -0.1565
    1DPPC   PO416898   1.864  10.266   1.875 -0.0314 -0.0308 -0.0600
    1DPPC   GL116899   1.771  10.142   2.197  0.1203  0.1010 -0.3032
    1DPPC   GL216900   2.131   9.990   2.253 -0.1329 -0.2468  0.1585
    1DPPC   C1A16901   1.733   9.783   2.528 -0.1036  0.2254  0.0583
    1DPPC   C2A16902   1.828   9.553   2.841 -0.0091  0.0033 -0.0805
    1DPPC   C3A16903   2.130   9.405   3.221  0.1002  0.1389  0.2295
    1DPPC   C4A16904   2.385   9.186   3.482 -0.3383 -0.1609  0.0552
    1DPPC   C1B16905   2.198  10.072   2.660  0.1348 -0.0692 -0.2310
    1DPPC   C2B16906   2.248   9.902   3.033  0.1062  0.4638  0.0422
    1DPPC   C3B16907   2.181   9.833   3.448  0.0296 -0.0858 -0.0395
    1DPPC   C4B16908   2.101   9.536   3.727 -0.2618 -0.1365 -0.1266
    1DPPC   NC316909  23.965   4.485   2.191  0.0553  0.2678 -0.1121
    1DPPC   PO416910  24.049   4.635   2.606  0.0162  0.1500 -0.0171
    1DPPC   GL116911  24.102   4.797   3.088  0.1712 -0.0362 -0.1745
    1DPPC   GL216912  24.394   4.674   3.255 -0.1394  0.0622 -0.0655
    1DPPC   C1A16913  23.923   4.595   3.506 -0.1109 -0.3527  0.0184
    1DPPC   C2A16914  23.906   4.534   4.021 -0.2986  0.4481  0.0459
    1DPPC   C3A16915  23.830   4.376   4.493  0.1754 -0.0379 -0.2351
    1DPPC   C4A16916  23.902   4.633   4.866  0.0518 -0.0198 -0.1675
    1DPPC   C1B16917  24.423   4.652   3.689 -0.3547 -0.1062  0.0133
    1DPPC   C2B16918  24.327   4.761   3.969  0.0030  0.0017  0.2583
    1DPPC   C3B16919  24.464   4.648   4.329 -0.0590  0.0627 -0.2011
    1DPPC   C4B16920  24.445   4.566   4.798  0.1680  0.2049  0.0813
    1DPPC   NC316921  26.055  25.656   2.722 -0.1990  0.0936 -0.2224
    1DPPC   PO416922  25.711  25.495   3.051  0.0952 -0.1995  0.0991
    1DPPC   GL116923  25.637  25.682   3.516  0.2243 -0.4843  0.1028
    1DPPC   GL216924  25.726  25.997   3.660  0.3678  0.3055  0.0643
    1DPPC   C1A16925  25.522  25.570   3.954 -0.1897 -0.3188  0.1023
    1DPPC   C2A16926  25.638  25.335   4.337 -0.1055  0.2553  0.1049
    1DPPC   C3A16927  26.019  25.142   4.619 -0.0832  0.0601 -0.0292
    1DPPC   C4A16928  26.027  24.790   4.876 -0.2217 -0.2271 -0.0433
    1DPPC   C1B16929  25.999  25.981   4.037  0.1828  0.0015 -0.1508
    1DPPC   C2B16930  26.194  26.226   4.402  0.1539 -0.2468 -0.0564
    1DPPC   C3B16931  26.171  26.210   4.795  0.1372 -0.0988 -0.0775
    1DPPC   C4B16932  26.223  26.506   5.084 -0.0920 -0.2077  0.0024
    1DPPC   NC316933  25.911  11.042   2.539 -0.0967 -0.3401 -0.1829
    1DPPC   PO416934  26.020  11.525   2.746 -0.1396 -0.1982  0.0362
    1DPPC   GL116935  26.168  11.922   2.943 -0.1625  0.3366  0.0391
    1DPPC   GL216936  26.082  12.234   2.922 -0.0731 -0.1656  0.0449
    1DPPC   C1A16937  26.273  12.082   3.368 -0.2214 -0.2031  0.3333
    1DPPC   C2A16938  26.362  12.151   3.846  0.1543 -0.4489  0.1322
    1DPPC   C3A16939  26.376  12.129   4.255 -0.1600 -0.0245 -0.2291
    1DPPC   C4A16940  26.479  12.265   4.615 -0.0859 -0.0396  0.0846
    1DPPC   C1B16941  25.920  12.517   3.317 -0.0808 -0.1419  0.0292
    1DPPC   C2B16942  25.902  12.559   3.719  0.5209  0.2246 -0.0103
    1DPPC   C3B16943  26.072  12.505   4.158  0.0538  0.0087  0.0522
    1DPPC   C4B16944  25.984  12.566   4.501  0.0866 -0.1700  0.0541
    1DPPC   NC316945  22.529  17.987   2.740 -0.2568 -0.2765  0.0190
    1DPPC   PO416946  22.690  17.676   3.039  0.0959 -0.0066 -0.1850
    1DPPC   GL116947  22.845  17.507   3.341  0.1062  0.0670  0.3859
    1DPPC   GL216948  23.176  17.471   3.165  0.0427 -0.0842  0.5157
    1DPPC   C1A16949  22.938  17.524   3.800 -0.2228 -0.0871 -0.0736
    1DPPC   C2A16950  23.325  17.412   4.175  0.1287 -0.2801  0.0381
    1DPPC   C3A16951  23.280  17.150   4.561  0.0829 -0.1354 -0.2957
    1DPPC   C4A16952  23.386  16.854   4.897  0.1213  0.0372  0.2111
    1DPPC   C1B16953  23.274  17.319   3.455 -0.1964 -0.0615  0.0657
    1DPPC   C2B16954  23.318  17.108   3.752  0.1584 -0.0268 -0.0941
    1DPPC   C3B16955  23.568  16.650   3.890  0.1309  0.0049  0.0940
    1DPPC   C4B16956  23.902  16.298   3.818 -0.2391 -0.1791 -0.2500
    1DPPC   NC316957  24.581  11.362   2.871 -0.2248  0.0496 -0.1953
    1DPPC   PO416958  24.821  11.781   2.970  0.0278  0.0605  0.0528
    1DPPC   GL116959  24.883  11.679   3.350 -0.1448 -0.0678  0.0792
    1DPPC   GL216960  25.226  11.848   3.260 -0.1743 -0.1103 -0.3195
    1DPPC   C1A16961  24.867  11.580   3.767  0.0331 -0.2689  0.1710
    1DPPC   C2A16962  24.955  11.568   4.126 -0.1080 -0.1011 -0.2038
    1DPPC   C3A16963  25.319  11.407   4.380 -0.0053 -0.2828 -0.2809
    1DPPC   C4A16964  25.445  11.332   4.764  0.2509  0.2873  0.2996
    1DPPC   C1B16965  25.374  11.732   3.636  0.3336 -0.0546 -0.0662
    1DPPC   C2B16966  25.386  11.876   3.966 -0.3117  0.1951 -0.0791
    1DPPC   C3B16967  25.340  11.955   4.389  0.1147  0.0539 -0.0737
    1DPPC   C4B16968  25.462  11.964   4.760 -0.1299  0.1183 -0.1663
    1DPPC   NC316969  27.557   6.068   2.297  0.1958 -0.0474  0.1266
    1DPPC   PO416970  27.823   5.697   2.456  0.1747 -0.3353 -0.0527
    1DPPC   GL116971  27.829   5.660   2.903  0.1722 -0.1247  0.0822
    1DPPC   GL216972  27.513   5.605   3.083  0.0461 -0.0203  0.1038
    1DPPC   C1A16973  27.983   5.570   3.403 -0.0472 -0.0781  0.1282
    1DPPC   C2A16974  28.026   5.161   3.641 -0.1462  0.0775 -0.2027
    1DPPC   C3A16975  28.040   4.831   3.929  0.2067 -0.1322 -0.1687
    1DPPC   C4A16976  28.026   4.436   4.043 -0.0260 -0.0043  0.0777
    1DPPC   C1B16977  27.500   5.536   3.575  0.1636 -0.0117 -0.2901
    1DPPC   C2B16978  27.609   5.481   3.989  0.1714 -0.0229 -0.2591
    1DPPC   C3B16979  27.843   5.247   4.132  0.1183  0.3066 -0.0968
    1DPPC   C4B16980  28.245   5.182   4.360  0.2379  0.1614 -0.0762
    1DPPC   NC316981  19.177  12.568   2.119 -0.5207 -0.2625  0.0722
    1DPPC   PO416982  19.035  12.244   2.477 -0.2846 -0.1165  0.2438
    1DPPC   GL116983  18.825  12.169   2.896 -0.0933 -0.1809  0.1542
    1DPPC   GL216984  19.043  12.299   3.087 -0.3084  0.0464 -0.2089
    1DPPC   C1A16985  18.671  12.003   3.354  0.1857  0.3227 -0.1077
    1DPPC   C2A16986  18.624  11.931   3.762 -0.3900 -0.0846  0.0802
    1DPPC   C3A16987  18.559  11.811   4.188 -0.2378 -0.1232  0.0422
    1DPPC   C4A16988  18.725  11.846   4.513  0.0106 -0.2154 -0.1202
    1DPPC   C1B16989  18.993  12.425   3.411  0.0117  0.0881  0.2198
    1DPPC   C2B16990  18.883  12.439   3.774 -0.0273 -0.0770 -0.0759
    1DPPC   C3B16991  18.950  12.527   4.101 -0.2580 -0.0535  0.2562
    1DPPC   C4B16992  19.058  12.709   4.507 -0.1298 -0.0929 -0.1496
    1DPPC   NC316993  24.583   8.122   2.009 -0.0073 -0.0644  0.0566
    1DPPC   PO416994  24.753   7.858   2.373 -0.1339  0.1308 -0.1495
    1DPPC   GL116995  25.008   7.574   2.671 -0.1342  0.0560 -0.1394
    1DPPC   GL216996  25.041   7.807   2.892  0.1579  0.0800  0.2286
    1DPPC   C1A16997  25.342   7.447   2.898 -0.1379 -0.0699 -0.2001
    1DPPC   C2A16998  25.438   7.446   3.267 -0.0149 -0.0445  0.0339
    1DPPC   C3A16999  25.446   7.410   3.627 -0.1815 -0.1157  0.1848
    1DPPC   C4A17000  25.686   7.214   4.047 -0.0366 -0.0437  0.0133
    1DPPC   C1B17001  24.989   7.577   3.216  0.2330  0.1336  0.0125
    1DPPC   C2B17002  25.005   7.679   3.502 -0.0412  0.0148 -0.3343
    1DPPC   C3B17003  25.001   7.687   3.868  0.1873 -0.1382  0.0402
    1DPPC   C4B17004  25.287   7.523   4.159 -0.1184  0.0435  0.1347
    1DPPC   NC317005  11.901  25.263   2.054  0.2246  0.0194 -0.0718
    1DPPC   PO417006  12.022  25.065   2.549 -0.2701 -0.1452  0.1217
    1DPPC   GL117007  11.879  25.158   2.996  0.0419 -0.2566  0.2241
    1DPPC   GL217008  11.500  25.214   3.053 -0.2376 -0.0803  0.2652
    1DPPC   C1A17009  11.848  25.257   3.435  0.0154  0.0415  0.2212
    1DPPC   C2A17010  11.980  25.373   3.762 -0.0020 -0.1437 -0.0180
    1DPPC   C3A17011  11.844  25.574   4.235 -0.0104 -0.0054  0.0916
    1DPPC   C4A17012  11.800  25.818   4.591 -0.1324  0.0866 -0.1193
    1DPPC   C1B17013  11.202  25.459   3.337  0.1309 -0.2565  0.0950
    1DPPC   C2B17014  10.906  25.596   3.710  0.2121 -0.1370  0.0107
    1DPPC   C3B17015  10.464  25.709   3.885 -0.1248 -0.0061 -0.1226
    1DPPC   C4B17016  10.297  25.880   4.237  0.2677  0.2183 -0.1666
    1DPPC   NC317017  27.058   6.340   1.749  0.1704  0.1677 -0.1602
    1DPPC   PO417018  27.284   6.545   2.197  0.0202  0.0690 -0.0863
    1DPPC   GL117019  27.512   6.621   2.501 -0.0461 -0.0312  0.0637
    1DPPC   GL217020  27.409   6.410   2.703 -0.1571 -0.1409  0.0285
    1DPPC   C1A17021  27.894   6.684   2.652  0.0017  0.1419 -0.0569
    1DPPC   C2A17022  28.116   6.709   3.047  0.0093  0.2183  0.1259
    1DPPC   C3A17023  28.594   6.579   3.225  0.0402  0.1531  0.2254
    1DPPC   C4A17024  28.855   6.440   3.450 -0.1403 -0.1388 -0.0255
    1DPPC   C1B17025  27.547   6.699   2.976  0.0186 -0.2389  0.0854
    1DPPC   C2B17026  27.712   6.552   3.339  0.0411  0.3167  0.0578
    1DPPC   C3B17027  27.744   6.463   3.781  0.0283 -0.0307  0.1574
    1DPPC   C4B17028  28.126   6.522   4.039  0.3117 -0.0008 -0.5352
    1DPPC   NC317029  14.529  15.858   2.362 -0.1150 -0.0657  0.1694
    1DPPC   PO417030  14.003  15.910   2.514 -0.0279 -0.0183 -0.0440
    1DPPC   GL117031  14.389  16.107   2.756 -0.2517 -0.0150  0.0822
    1DPPC   GL217032  14.641  15.951   3.005  0.0807  0.0112  0.2538
    1DPPC   C1A17033  14.185  16.282   3.029 -0.2610  0.2677 -0.0448
    1DPPC   C2A17034  13.997  16.060   3.468 -0.1926 -0.3287  0.0853
    1DPPC   C3A17035  13.927  16.140   3.875  0.1515 -0.0845 -0.0080
    1DPPC   C4A17036  13.918  16.062   4.248 -0.1476 -0.0113 -0.0114
    1DPPC   C1B17037  14.481  15.971   3.429  0.0547  0.2700 -0.1497
    1DPPC   C2B17038  14.381  15.918   3.874  0.0027 -0.0388 -0.1146
    1DPPC   C3B17039  14.552  16.100   4.242  0.2360  0.0358 -0.1819
    1DPPC   C4B17040  14.931  16.091   4.663  0.0530  0.0022 -0.0058
    1DPPC   NC317041  24.088  13.519   2.574  0.2723  0.0813  0.0933
    1DPPC   PO417042  23.739  13.201   2.801 -0.0999 -0.2685 -0.0280
    1DPPC   GL117043  23.889  13.328   3.278 -0.0188  0.2106 -0.3396
    1DPPC   GL217044  24.034  13.498   3.111  0.3244  0.3377 -0.2645
    1DPPC   C1A17045  23.784  13.509   3.680  0.0821 -0.1005  0.2144
    1DPPC   C2A17046  23.617  13.543   4.103 -0.0350 -0.0280  0.0271
    1DPPC   C3A17047  23.513  13.704   4.442  0.0891 -0.0369  0.1968
    1DPPC   C4A17048  23.180  13.886   4.510 -0.2157  0.1027 -0.0407
    1DPPC   C1B17049  24.233  13.687   3.490  0.2338 -0.1122 -0.1100
    1DPPC   C2B17050  24.088  13.705   4.008 -0.1422 -0.1725 -0.3443
    1DPPC   C3B17051  23.952  13.920   4.390  0.0458 -0.2900  0.2115
    1DPPC   C4B17052  23.609  14.224   4.405  0.0515  0.0480 -0.0603
    1DPPC   NC317053  26.765  11.608   1.834  0.1674 -0.2395  0.3195
    1DPPC   PO417054  26.816  11.390   2.296  0.1932 -0.2508  0.0681
    1DPPC   GL117055  26.844  11.263   2.661 -0.1820 -0.4060  0.1424
    1DPPC   GL217056  26.821  10.867   2.674 -0.0194 -0.3906 -0.1483
    1DPPC   C1A17057  26.714  11.082   3.123  0.0794  0.1278 -0.1874
    1DPPC   C2A17058  26.583  11.112   3.507 -0.0390 -0.2688  0.0625
    1DPPC   C3A17059  26.565  11.102   3.972 -0.0929  0.1612  0.0086
    1DPPC   C4A17060  26.504  11.163   4.373  0.1519  0.0938  0.0804
    1DPPC   C1B17061  26.830  10.638   2.970  0.0385  0.2487 -0.0829
    1DPPC   C2B17062  26.696  10.649   3.443 -0.1275  0.2141  0.0749
    1DPPC   C3B17063  26.795  10.701   3.820 -0.1704  0.2079 -0.3304
    1DPPC   C4B17064  26.878  10.765   4.227  0.0157  0.4192 -0.0806
    1DPPC   NC317065  18.844  18.130   3.017  0.6260 -0.0920  0.1774
    1DPPC   PO417066  18.939  17.809   3.304 -0.6714  0.0238 -0.0471
    1DPPC   GL117067  18.898  17.583   3.716 -0.2382 -0.4638 -0.0642
    1DPPC   GL217068  19.229  17.625   3.870 -0.1917 -0.1368  0.2997
    1DPPC   C1A17069  18.691  17.428   4.085 -0.1676  0.1637 -0.5278
    1DPPC   C2A17070  18.619  17.349   4.514  0.3151 -0.1554 -0.3709
    1DPPC   C3A17071  18.248  17.314   4.827  0.0357 -0.2924 -0.2653
    1DPPC   C4A17072  17.966  17.240   5.158  0.0563 -0.1777  0.0740
    1DPPC   C1B17073  19.021  17.745   4.243  0.0020 -0.4571  0.0042
    1DPPC   C2B17074  19.008  17.896   4.658  0.3976  0.2678 -0.2675
    1DPPC   C3B17075  19.052  18.061   4.975  0.2665  0.0167  0.3063
    1DPPC   C4B17076  18.939  18.364   5.213 -0.1806  0.1803  0.0037
    1DPPC   NC317077  21.599  12.933   2.917  0.0877  0.0470  0.2346
    1DPPC   PO417078  21.745  13.383   2.958 -0.3245 -0.4810 -0.1817
    1DPPC   GL117079  21.746  13.214   3.316  0.0416  0.0025 -0.0747
    1DPPC   GL217080  22.059  13.224   3.500  0.1663  0.0346  0.0110
    1DPPC   C1A17081  21.631  13.202   3.785 -0.0064  0.0433 -0.1799
    1DPPC   C2A17082  21.541  13.229   4.255  0.0073 -0.0065  0.1129
    1DPPC   C3A17083  21.658  13.229   4.532 -0.1591 -0.0537 -0.0246
    1DPPC   C4A17084  21.786  13.464   4.972 -0.2714 -0.0421 -0.2152
    1DPPC   C1B17085  22.077  13.343   3.955 -0.0486  0.0779  0.1844
    1DPPC   C2B17086  22.070  13.288   4.339 -0.4207 -0.1373  0.0756
    1DPPC   C3B17087  22.102  13.185   4.772  0.0503  0.3048 -0.0101
    1DPPC   C4B17088  21.967  12.931   5.081  0.0995  0.0611  0.2080
    1DPPC   NC317089   6.604  13.504   1.510  0.1699  0.1840 -0.0996
    1DPPC   PO417090   6.379  13.302   1.869  0.1364 -0.0382 -0.0205
    1DPPC   GL117091   6.160  13.218   2.326  0.0416  0.1885 -0.3439
    1DPPC   GL217092   5.929  13.024   2.379  0.3361  0.0543  0.0931
    1DPPC   C1A17093   6.135  13.176   2.776  0.0933 -0.2139  0.1888
    1DPPC   C2A17094   5.988  13.074   3.148 -0.0248  0.3215 -0.1760
    1DPPC   C3A17095   6.023  12.977   3.545  0.2785  0.2327 -0.0952
    1DPPC   C4A17096   6.005  13.184   3.917  0.4359 -0.1315 -0.0691
    1DPPC   C1B17097   5.908  12.688   2.698  0.3187  0.3145  0.2621
    1DPPC   C2B17098   5.720  12.647   3.070  0.0238 -0.0402 -0.1045
    1DPPC   C3B17099   5.493  12.359   3.222 -0.1700 -0.1279 -0.2196
    1DPPC   C4B17100   5.072  12.174   3.381  0.1804  0.0467 -0.3583
    1DPPC   NC317101   1.274   4.005   2.340  0.1019  0.1285 -0.2877
    1DPPC   PO417102   1.252   3.771   2.706  0.0583 -0.0377  0.2688
    1DPPC   GL117103   1.080   3.581   3.159  0.0490 -0.0758 -0.2514
    1DPPC   GL217104   1.051   3.179   3.148 -0.3074 -0.3390  0.0622
    1DPPC   C1A17105   0.940   3.828   3.557 -0.1999  0.2541 -0.0697
    1DPPC   C2A17106   0.810   4.033   3.881  0.2258  0.1881  0.0613
    1DPPC   C3A17107   0.732   4.502   3.856  0.2051 -0.0094 -0.0383
    1DPPC   C4A17108   0.616   4.947   3.689 -0.2356 -0.1676  0.1322
    1DPPC   C1B17109   1.057   3.306   3.622 -0.4729 -0.2002 -0.0201
    1DPPC   C2B17110   1.272   3.682   3.900  0.0630  0.2561  0.0527
    1DPPC   C3B17111   1.238   3.771   4.368  0.0453  0.0791 -0.0413
    1DPPC   C4B17112   1.159   3.910   4.869 -0.1632  0.1225  0.1378
    1DPPC   NC317113  22.770   5.441   2.541 -0.1575 -0.1460 -0.0775
    1DPPC   PO417114  23.152   5.690   2.567 -0.1181 -0.0403 -0.1709
    1DPPC   GL117115  23.455   5.461   2.848 -0.0079 -0.1217  0.1956
    1DPPC   GL217116  23.668   5.130   2.833 -0.1063 -0.0103 -0.0248
    1DPPC   C1A17117  23.616   5.535   3.255 -0.3391  0.0524  0.1554
    1DPPC   C2A17118  23.807   5.521   3.660  0.1960 -0.1473 -0.0788
    1DPPC   C3A17119  23.867   5.663   4.066 -0.0108 -0.3401  0.2149
    1DPPC   C4A17120  24.016   5.695   4.429 -0.2482  0.1450 -0.3805
    1DPPC   C1B17121  23.667   5.043   3.256 -0.1889 -0.1718  0.0576
    1DPPC   C2B17122  23.530   5.091   3.696 -0.2972  0.1561  0.2581
    1DPPC   C3B17123  23.622   5.038   4.109  0.0599  0.1856  0.2107
    1DPPC   C4B17124  23.953   4.838   4.395 -0.1092  0.0974  0.1635
    1DPPC   NC317125  19.985  18.755   3.281  0.2228  0.2126  0.1349
    1DPPC   PO417126  19.882  18.344   2.999 -0.0615 -0.0604  0.1244
    1DPPC   GL117127  19.773  18.360   3.482  0.0076  0.0008 -0.0185
    1DPPC   GL217128  19.528  18.515   3.752  0.2757 -0.2441  0.1330
    1DPPC   C1A17129  19.936  18.316   3.820 -0.2970  0.1777  0.0784
    1DPPC   C2A17130  20.057  17.948   4.060  0.2201 -0.2186 -0.0727
    1DPPC   C3A17131  20.286  17.688   4.233  0.1472 -0.0981  0.0889
    1DPPC   C4A17132  20.485  17.523   4.478  0.1496  0.0187  0.2447
    1DPPC   C1B17133  19.627  18.577   4.188  0.1630 -0.0184  0.2099
    1DPPC   C2B17134  19.558  18.792   4.589  0.1518  0.0406 -0.1160
    1DPPC   C3B17135  19.400  18.768   4.990  0.1046  0.3364 -0.0091
    1DPPC   C4B17136  19.118  18.872   5.239  0.3058  0.0292 -0.4566
    1DPPC   NC317137  21.379  17.015   3.294 -0.1564 -0.0950 -0.0504
    1DPPC   PO417138  21.835  17.060   3.295 -0.2141 -0.1153 -0.2933
    1DPPC   GL117139  22.089  16.968   3.604  0.1242  0.1232  0.1408
    1DPPC   GL217140  22.361  17.077   3.496  0.2477  0.1151 -0.1808
    1DPPC   C1A17141  22.106  17.005   4.081  0.1793  0.1647 -0.1991
    1DPPC   C2A17142  22.135  17.026   4.526 -0.2328 -0.0386  0.1333
    1DPPC   C3A17143  22.442  17.166   4.803 -0.0444  0.0943 -0.0975
    1DPPC   C4A17144  22.579  17.222   5.222 -0.0106  0.0418  0.1387
    1DPPC   C1B17145  22.531  17.299   3.899 -0.0271 -0.0661 -0.0836
    1DPPC   C2B17146  22.704  17.308   4.216 -0.1559  0.3346 -0.1384
    1DPPC   C3B17147  22.746  17.476   4.532  0.0930 -0.2734 -0.0416
    1DPPC   C4B17148  22.598  17.683   4.902  0.0615 -0.1657 -0.1252
    1DPPC   NC317149   2.053  11.411   2.098  0.2027 -0.0916 -0.1869
    1DPPC   PO417150   2.436  11.162   1.830  0.1681  0.3355 -0.1481
    1DPPC   GL117151   2.286  11.006   2.306  0.0017  0.4742 -0.0392
    1DPPC   GL217152   2.196  11.199   2.529 -0.0492  0.0900 -0.0002
    1DPPC   C1A17153   2.118  10.631   2.674 -0.0117 -0.3271  0.2968
    1DPPC   C2A17154   2.086  10.460   2.968  0.0727  0.0824  0.1532
    1DPPC   C3A17155   1.977  10.372   3.340  0.1077 -0.1882 -0.0046
    1DPPC   C4A17156   1.953  10.205   3.700  0.0370  0.1622 -0.2643
    1DPPC   C1B17157   2.489  10.928   2.799 -0.1442 -0.2976 -0.2588
    1DPPC   C2B17158   2.873  10.892   3.124  0.4916 -0.0677 -0.1929
    1DPPC   C3B17159   3.061  10.969   3.497 -0.1121  0.0242 -0.0326
    1DPPC   C4B17160   3.360  10.794   3.826 -0.1533 -0.3091  0.1802
    1DPPC   NC317161   1.460  13.404   2.449  0.1187 -0.1156  0.1509
    1DPPC   PO417162   1.692  13.774   2.354 -0.1827  0.3288  0.1871
    1DPPC   GL117163   1.706  13.708   2.786  0.2150 -0.1719  0.0270
    1DPPC   GL217164   1.493  13.945   2.985 -0.0744  0.1510 -0.1326
    1DPPC   C1A17165   1.713  13.525   3.268  0.1255  0.1691 -0.2016
    1DPPC   C2A17166   1.669  13.574   3.680 -0.0229  0.2320  0.2734
    1DPPC   C3A17167   1.536  13.598   4.094  0.0214 -0.2365 -0.2228
    1DPPC   C4A17168   1.745  13.376   4.443  0.1786  0.1045  0.3203
    1DPPC   C1B17169   1.424  13.912   3.394  0.0310 -0.0502  0.2274
    1DPPC   C2B17170   1.256  13.832   3.756  0.2031 -0.2958  0.3228
    1DPPC   C3B17171   1.204  13.955   4.145 -0.2133 -0.1695 -0.0074
    1DPPC   C4B17172   1.323  14.249   4.352  0.2903  0.3189  0.2322
    1DPPC   NC317173  29.165  16.558   2.797 -0.0408 -0.1399 -0.2192
    1DPPC   PO417174  29.432  16.773   3.229  0.2656 -0.0997  0.1011
    1DPPC   GL117175  29.554  16.744   3.574 -0.0017 -0.1285  0.0994
    1DPPC   GL217176  29.505  17.018   3.726 -0.0729  0.1870 -0.2199
    1DPPC   C1A17177   0.184  16.477   3.753 -0.2968  0.0649 -0.0949
    1DPPC   C2A17178   0.535  16.427   4.066  0.0776  0.0669 -0.1651
    1DPPC   C3A17179   0.870  16.435   4.455  0.2955 -0.1016  0.2304
    1DPPC   C4A17180   1.045  16.407   4.911 -0.2148 -0.3914  0.1531
    1DPPC   C1B17181  29.345  16.669   4.016  0.0411 -0.0033  0.1134
    1DPPC   C2B17182  29.319  16.669   4.436 -0.1782 -0.1022  0.1203
    1DPPC   C3B17183  28.988  16.547   4.591 -0.3504  0.1962  0.3221
    1DPPC   C4B17184  28.596  16.439   4.495  0.0901 -0.1767 -0.0992
    1DPPC   NC317185   1.254  11.684   2.418  0.3153 -0.0389  0.1789
    1DPPC   PO417186   1.301  11.302   2.725  0.2619 -0.2650  0.0393
    1DPPC   GL117187   1.064  10.974   2.906 -0.0378  0.1355 -0.1484
    1DPPC   GL217188   1.166  10.662   2.847 -0.0405  0.0679 -0.1271
    1DPPC   C1A17189   1.158  10.813   3.342 -0.3062 -0.1017  0.0509
    1DPPC   C2A17190   1.179  10.789   3.802 -0.1816 -0.1827  0.2733
    1DPPC   C3A17191   0.876  10.779   4.091  0.0752  0.0802  0.1259
    1DPPC   C4A17192   0.684  11.189   4.359  0.1554 -0.4091  0.2412
    1DPPC   C1B17193   1.061  10.307   3.069 -0.0098  0.0937  0.0102
    1DPPC   C2B17194   0.973  10.299   3.527 -0.1322  0.1333 -0.0959
    1DPPC   C3B17195   1.005  10.224   4.001  0.0436  0.2854 -0.0220
    1DPPC   C4B17196   1.097  10.369   4.418 -0.0570  0.0100 -0.1380
    1DPPC   NC317197  24.592  29.534   3.649  0.1493 -0.1184  0.1285
    1DPPC   PO417198  24.165  29.380   3.853 -0.0421 -0.3335  0.0786
    1DPPC   GL117199  24.136  29.422   4.277  0.0358 -0.1427  0.4131
    1DPPC   GL217200  23.774  29.169   4.337  0.3097 -0.0513  0.1053
    1DPPC   C1A17201  24.192  29.353   4.650 -0.1934 -0.0441  0.0053
    1DPPC   C2A17202  24.498  28.968   4.877 -0.0801 -0.0144  0.0194
    1DPPC   C3A17203  24.559  28.692   5.148  0.0498 -0.0172 -0.1210
    1DPPC   C4A17204  24.252  28.508   5.220 -0.1193 -0.0214  0.0911
    1DPPC   C1B17205  23.677  29.525   4.588 -0.2250 -0.0162  0.0070
    1DPPC   C2B17206  23.205   0.077   4.659  0.3504 -0.2632  0.2070
    1DPPC   C3B17207  23.129   0.356   4.914 -0.0990 -0.1529  0.0778
    1DPPC   C4B17208  23.344   0.695   5.190  0.0526 -0.0545  0.4554
    1DPPC   NC317209  21.255  13.617   2.849 -0.0252  0.0521  0.1446
    1DPPC   PO417210  20.842  13.533   3.012 -0.0189 -0.1427 -0.3350
    1DPPC   GL117211  20.755  13.664   3.413 -0.2599 -0.2011 -0.2277
    1DPPC   GL217212  20.458  13.663   3.431  0.1984 -0.2665  0.1754
    1DPPC   C1A17213  20.802  13.726   3.843  0.1299 -0.1184  0.2625
    1DPPC   C2A17214  20.846  13.755   4.311 -0.0577 -0.2483 -0.0517
    1DPPC   C3A17215  20.538  13.665   4.632 -0.1700 -0.1184 -0.1755
    1DPPC   C4A17216  20.702  13.546   4.998 -0.1564 -0.2538 -0.1172
    1DPPC   C1B17217  20.280  13.443   3.587  0.0018 -0.1334 -0.1344
    1DPPC   C2B17218  20.347  13.418   3.934 -0.0901  0.0339  0.2297
    1DPPC   C3B17219  20.332  13.242   4.376 -0.1903  0.2812  0.1358
    1DPPC   C4B17220  20.316  13.192   4.830  0.2460 -0.1971  0.1757
    1DPPC   NC317221   4.927  21.060   3.078 -0.0067  0.0084 -0.0501
    1DPPC   PO417222   5.328  20.847   3.139 -0.0294  0.2962 -0.3378
    1DPPC   GL117223   5.456  20.980   3.564  0.0066  0.0253 -0.3049
    1DPPC   GL217224   5.782  21.004   3.627 -0.2928  0.1426 -0.1271
    1DPPC   C1A17225   5.364  21.109   3.958 -0.3696  0.1682 -0.1465
    1DPPC   C2A17226   5.251  20.976   4.288  0.1280  0.1200 -0.0691
    1DPPC   C3A17227   5.129  20.884   4.621 -0.2169  0.0671  0.0032
    1DPPC   C4A17228   5.152  20.594   4.951 -0.2500 -0.3484  0.2978
    1DPPC   C1B17229   5.808  20.980   4.067  0.1033  0.1921 -0.0297
    1DPPC   C2B17230   5.675  21.001   4.548  0.1026 -0.1657  0.1272
    1DPPC   C3B17231   5.916  21.290   4.826 -0.1806  0.1756  0.4695
    1DPPC   C4B17232   6.151  21.237   5.145 -0.1053 -0.1067 -0.2115
    1DPPC   NC317233   9.688  24.987   2.630 -0.0816 -0.0479  0.2618
    1DPPC   PO417234   9.291  24.919   2.687 -0.1830  0.0131  0.0258
    1DPPC   GL117235   9.270  25.042   3.164  0.1161 -0.2406  0.2552
    1DPPC   GL217236   9.165  24.742   3.395  0.2181  0.1833 -0.1585
    1DPPC   C1A17237   8.946  25.134   3.531  0.1743  0.0326 -0.0203
    1DPPC   C2A17238   9.095  25.184   3.925 -0.3051 -0.1521  0.1231
    1DPPC   C3A17239   9.255  25.184   4.300  0.1421  0.0625 -0.1381
    1DPPC   C4A17240   9.207  25.301   4.667  0.2290 -0.2634  0.2537
    1DPPC   C1B17241   9.564  25.030   3.559 -0.1221  0.1723 -0.0231
    1DPPC   C2B17242   9.698  25.055   3.976  0.0133  0.1423 -0.3159
    1DPPC   C3B17243   9.719  25.294   4.353  0.0255 -0.2298 -0.0522
    1DPPC   C4B17244   9.855  25.686   4.282  0.3548 -0.1062  0.0264
    1DPPC   NC317245  20.446  11.333   2.752  0.1348  0.0668 -0.0163
    1DPPC   PO417246  20.775  11.574   2.618 -0.1164 -0.1140  0.2301
    1DPPC   GL117247  20.829  11.677   3.064  0.1843 -0.2051  0.2517
    1DPPC   GL217248  20.769  11.370   3.142  0.3735  0.0097 -0.1233
    1DPPC   C1A17249  20.607  11.797   3.390  0.0743 -0.0424 -0.1660
    1DPPC   C2A17250  20.502  11.660   3.727  0.0328 -0.2355  0.1443
    1DPPC   C3A17251  20.505  11.650   4.229  0.2353 -0.0502  0.0864
    1DPPC   C4A17252  20.555  11.688   4.642  0.0689  0.1814  0.2272
    1DPPC   C1B17253  20.913  11.383   3.560 -0.0404  0.1944  0.0811
    1DPPC   C2B17254  20.868  11.447   3.951 -0.0600  0.3354  0.0045
    1DPPC   C3B17255  20.972  11.449   4.334  0.0315 -0.0789  0.2071
    1DPPC   C4B17256  21.359  11.445   4.486  0.4202  0.0316 -0.2484
    1DPPC   NC317257  17.770   9.062   2.322 -0.4206  0.1475  0.0782
    1DPPC   PO417258  17.610   9.330   2.614  0.0726 -0.1457 -0.1782
    1DPPC   GL117259  17.781   9.590   3.011  0.1911  0.2723 -0.0644
    1DPPC   GL217260  17.768   9.984   3.030 -0.2567 -0.0468 -0.1082
    1DPPC   C1A17261  17.794   9.595   3.501  0.0435  0.2311 -0.0454
    1DPPC   C2A17262  17.759   9.618   3.873 -0.1546 -0.1329  0.2429
    1DPPC   C3A17263  18.003   9.520   4.180 -0.3731  0.2898 -0.5390
    1DPPC   C4A17264  17.977   9.377   4.574 -0.1195  0.2583 -0.0849
    1DPPC   C1B17265  17.823  10.125   3.450 -0.0476 -0.0278 -0.2853
    1DPPC   C2B17266  17.863  10.108   3.970 -0.0225 -0.0935 -0.0457
    1DPPC   C3B17267  17.804  10.407   4.351 -0.1824 -0.0336  0.0677
    1DPPC   C4B17268  17.652  10.555   4.825  0.0007 -0.0083  0.0264
    1DPPC   NC317269  28.516  17.856   2.972  0.1536 -0.0386 -0.0153
    1DPPC   PO417270  28.736  17.967   3.429 -0.0570 -0.0851  0.0059
    1DPPC   GL117271  28.421  17.967   3.784  0.1402 -0.1988 -0.0102
    1DPPC   GL217272  28.268  18.261   3.951  0.0630  0.1553 -0.1636
    1DPPC   C1A17273  28.407  17.768   4.149  0.1074 -0.1190  0.3015
    1DPPC   C2A17274  28.220  17.707   4.550  0.2808 -0.3703  0.2078
    1DPPC   C3A17275  28.231  17.584   4.994 -0.1125 -0.1910 -0.0362
    1DPPC   C4A17276  28.369  17.473   5.434 -0.1651 -0.2967  0.2853
    1DPPC   C1B17277  28.087  18.156   4.303 -0.1226  0.0366 -0.1893
    1DPPC   C2B17278  27.800  18.170   4.634 -0.0589  0.1345  0.0960
    1DPPC   C3B17279  27.412  18.112   4.874 -0.0507  0.1668  0.1846
    1DPPC   C4B17280  27.130  18.442   5.152  0.1526  0.0096  0.1236
    1DPPC   NC317281  28.365  15.038   2.233 -0.1767 -0.4948  0.0115
    1DPPC   PO417282  28.733  14.863   2.660  0.0529 -0.1526 -0.0774
    1DPPC   GL117283  28.809  14.777   3.192 -0.0330  0.1119  0.3644
    1DPPC   GL217284  28.531  14.667   3.239  0.0172 -0.1396  0.5158
    1DPPC   C1A17285  28.703  14.899   3.626 -0.0808 -0.1403 -0.1836
    1DPPC   C2A17286  28.664  14.848   4.056  0.2157  0.1635  0.0631
    1DPPC   C3A17287  28.726  14.767   4.396 -0.0216  0.1445 -0.3293
    1DPPC   C4A17288  28.670  14.951   4.812 -0.2973 -0.0383 -0.0546
    1DPPC   C1B17289  28.534  14.432   3.626 -0.1785 -0.2907  0.0781
    1DPPC   C2B17290  28.621  14.316   4.022 -0.1379 -0.1670  0.1057
    1DPPC   C3B17291  28.876  14.210   4.433 -0.3028 -0.1539 -0.3972
    1DPPC   C4B17292  29.297  14.068   4.714  0.1138  0.0730 -0.0227
    1DPPC   NC317293  17.270  14.890   2.982 -0.0926  0.2248 -0.3107
    1DPPC   PO417294  17.655  15.066   3.048  0.0226  0.5544 -0.0142
    1DPPC   GL117295  17.635  15.292   3.357 -0.3639 -0.0214 -0.1454
    1DPPC   GL217296  17.839  15.183   3.628  0.1621 -0.1759  0.1787
    1DPPC   C1A17297  17.297  15.405   3.580 -0.2848  0.0579  0.0158
    1DPPC   C2A17298  17.155  15.308   4.011 -0.1372 -0.0019  0.2489
    1DPPC   C3A17299  17.271  15.355   4.306  0.1284  0.0247  0.3652
    1DPPC   C4A17300  17.367  15.217   4.661  0.2664  0.0133  0.0145
    1DPPC   C1B17301  17.733  15.270   4.065  0.0278 -0.0099 -0.1714
    1DPPC   C2B17302  17.758  15.469   4.501  0.0891  0.0661 -0.0400
    1DPPC   C3B17303  17.845  15.592   4.899 -0.0008  0.0681  0.0669
    1DPPC   C4B17304  18.144  15.811   5.169  0.2738 -0.2793  0.1787
    1DPPC   NC317305  21.771  13.839   2.774 -0.0896 -0.1390 -0.1209
    1DPPC   PO417306  22.121  13.967   2.847  0.1514  0.1707 -0.0087
    1DPPC   GL117307  21.894  13.897   3.245 -0.1096  0.1737 -0.1721
    1DPPC   GL217308  21.566  13.750   3.238  0.1511  0.2892 -0.0895
    1DPPC   C1A17309  21.776  14.153   3.558 -0.0824  0.0215  0.0872
    1DPPC   C2A17310  21.829  14.199   3.973 -0.1668 -0.2061  0.0413
    1DPPC   C3A17311  21.698  14.141   4.470  0.1459  0.0880  0.1076
    1DPPC   C4A17312  21.628  13.955   4.870  0.1956 -0.0241 -0.2881
    1DPPC   C1B17313  21.745  13.660   3.648  0.1201  0.0920 -0.2995
    1DPPC   C2B17314  21.780  13.674   4.126  0.1649 -0.0181 -0.2812
    1DPPC   C3B17315  21.898  13.694   4.544  0.0540 -0.1302 -0.2592
    1DPPC   C4B17316  22.111  13.912   4.783 -0.0993  0.2241  0.0099
    1DPPC   NC317317  24.543   1.915   2.860 -0.0602 -0.1680  0.0187
    1DPPC   PO417318  24.412   1.896   3.306  0.1412 -0.0936  0.3687
    1DPPC   GL117319  24.518   2.156   3.546  0.2758 -0.1516 -0.1676
    1DPPC   GL217320  24.858   2.290   3.456 -0.0696  0.0027  0.0206
    1DPPC   C1A17321  24.452   2.396   3.943 -0.2433  0.0781 -0.0790
    1DPPC   C2A17322  24.505   2.372   4.332  0.0505 -0.0345  0.1141
    1DPPC   C3A17323  24.475   2.394   4.779  0.1193  0.0629 -0.2985
    1DPPC   C4A17324  24.441   2.412   5.210 -0.1501 -0.0501 -0.4682
    1DPPC   C1B17325  25.066   2.493   3.787 -0.0820  0.2460  0.0740
    1DPPC   C2B17326  25.199   2.551   4.213  0.2135 -0.1842 -0.2693
    1DPPC   C3B17327  25.403   2.463   4.655 -0.2387  0.1759 -0.1269
    1DPPC   C4B17328  25.461   2.530   5.092 -0.1772 -0.1936  0.1550
    1DPPC   NC317329  20.293   3.708   2.741  0.1011  0.0708  0.0307
    1DPPC   PO417330  20.081   4.049   2.888  0.1860 -0.0983 -0.1682
    1DPPC   GL117331  20.207   4.235   3.294 -0.1820 -0.4364  0.2977
    1DPPC   GL217332  20.532   4.091   3.481 -0.0140  0.0271 -0.0299
    1DPPC   C1A17333  19.970   4.356   3.495 -0.2333  0.0470  0.1435
    1DPPC   C2A17334  19.718   4.641   3.688  0.2335  0.2806  0.0158
    1DPPC   C3A17335  19.638   4.585   4.088  0.1321  0.2188 -0.1314
    1DPPC   C4A17336  19.599   4.766   4.508  0.2236 -0.0300  0.0096
    1DPPC   C1B17337  20.741   4.083   3.874 -0.0352  0.0215 -0.0640
    1DPPC   C2B17338  20.846   3.892   4.180  0.1119 -0.3056  0.2701
    1DPPC   C3B17339  20.896   3.723   4.547 -0.0777 -0.2477 -0.3060
    1DPPC   C4B17340  21.341   3.781   4.702  0.0598 -0.1877 -0.1169
    1DPPC   NC317341  19.883   9.400   2.195  0.0936  0.2796  0.2808
    1DPPC   PO417342  19.613   9.130   2.543  0.0221 -0.1564 -0.1554
    1DPPC   GL117343  19.351   9.328   2.958 -0.1082 -0.1176  0.0995
    1DPPC   GL217344  19.250   9.606   3.079  0.3061 -0.0935 -0.0425
    1DPPC   C1A17345  19.212   9.184   3.330  0.2268 -0.1353  0.1533
    1DPPC   C2A17346  19.237   9.282   3.705 -0.0609 -0.2872  0.2234
    1DPPC   C3A17347  19.184   9.172   4.162  0.0533  0.0694  0.3933
    1DPPC   C4A17348  19.072   9.092   4.576 -0.0848 -0.0137  0.1425
    1DPPC   C1B17349  19.369   9.712   3.471  0.2595 -0.0342 -0.1160
    1DPPC   C2B17350  19.479   9.641   3.991 -0.0520 -0.1191 -0.0588
    1DPPC   C3B17351  19.445   9.446   4.439 -0.1222 -0.0197 -0.0396
    1DPPC   C4B17352  19.652   9.215   4.584 -0.2013  0.2852 -0.2233
    1DPPC   NC317353  16.892  12.249   2.463  0.0026 -0.0914  0.1839
    1DPPC   PO417354  17.284  12.506   2.541  0.2023  0.1477  0.3093
    1DPPC   GL117355  17.435  12.557   2.973  0.3579 -0.4541  0.2856
    1DPPC   GL217356  17.693  12.877   3.100 -0.1057 -0.2719  0.0304
    1DPPC   C1A17357  17.257  12.468   3.366 -0.0050  0.1113  0.2894
    1DPPC   C2A17358  17.220  12.524   3.794 -0.1383  0.1472 -0.3275
    1DPPC   C3A17359  17.259  12.569   4.218  0.2185  0.0361  0.2311
    1DPPC   C4A17360  17.283  12.969   4.466 -0.0899  0.2723 -0.3426
    1DPPC   C1B17361  17.663  13.033   3.502  0.0896  0.2753 -0.0790
    1DPPC   C2B17362  17.606  12.873   3.890  0.2403  0.0824 -0.0198
    1DPPC   C3B17363  17.727  12.728   4.348 -0.2641  0.2956 -0.3412
    1DPPC   C4B17364  17.709  12.795   4.772  0.0595  0.0556 -0.4026
    1DPPC   NC317365  23.030  11.613   2.535 -0.1774 -0.1004 -0.0680
    1DPPC   PO417366  22.693  11.343   2.515  0.1836 -0.0426 -0.1297
    1DPPC   GL117367  22.810  11.444   3.017 -0.2996 -0.1102  0.0829
    1DPPC   GL217368  22.582  11.741   3.153  0.0719 -0.2299  0.1144
    1DPPC   C1A17369  22.794  11.347   3.389  0.2823 -0.2941  0.2124
    1DPPC   C2A17370  22.718  11.458   3.877 -0.1401  0.1902  0.1206
    1DPPC   C3A17371  22.783  11.470   4.299  0.0443 -0.0046 -0.0409
    1DPPC   C4A17372  22.788  11.313   4.709  0.1231  0.2936 -0.1052
    1DPPC   C1B17373  22.558  11.898   3.651  0.0025  0.0300  0.1108
    1DPPC   C2B17374  22.414  11.960   4.100 -0.1556  0.0562 -0.0093
    1DPPC   C3B17375  22.672  11.954   4.327  0.3099  0.2416 -0.2138
    1DPPC   C4B17376  22.739  12.010   4.717 -0.0745  0.0419  0.1581
    1DPPC   NC317377  20.668   4.328   2.720 -0.1133 -0.0599 -0.2071
    1DPPC   PO417378  20.819   4.129   2.991 -0.0379  0.1429  0.1661
    1DPPC   GL117379  20.673   4.479   3.256  0.2111  0.1612 -0.0492
    1DPPC   GL217380  20.730   4.764   3.031  0.1519 -0.4155 -0.0553
    1DPPC   C1A17381  20.415   4.541   3.600 -0.0291  0.3062  0.1573
    1DPPC   C2A17382  20.536   4.485   4.077 -0.0782  0.2421 -0.3644
    1DPPC   C3A17383  20.767   4.315   4.446  0.1333 -0.2230 -0.0197
    1DPPC   C4A17384  21.039   4.253   4.809 -0.0544 -0.1334  0.0395
    1DPPC   C1B17385  21.011   5.012   3.343 -0.0662  0.0352  0.0527
    1DPPC   C2B17386  21.137   4.970   3.802 -0.0823  0.2529  0.0523
    1DPPC   C3B17387  21.204   5.002   4.218  0.0240  0.1075 -0.1148
    1DPPC   C4B17388  21.118   4.721   4.568 -0.0265 -0.0035  0.0045
    1DPPC   NC317389  22.396   6.530   1.901 -0.2545 -0.2746 -0.1948
    1DPPC   PO417390  22.416   6.253   2.199 -0.1781 -0.2601  0.1322
    1DPPC   GL117391  22.436   6.269   2.715  0.1474  0.0186 -0.0400
    1DPPC   GL217392  22.127   6.276   2.898 -0.0379 -0.2239 -0.2133
    1DPPC   C1A17393  22.776   6.310   3.089  0.0719  0.0886  0.0470
    1DPPC   C2A17394  22.984   6.383   3.541 -0.0499  0.1269 -0.0623
    1DPPC   C3A17395  22.974   6.746   3.887 -0.1128  0.0142 -0.2938
    1DPPC   C4A17396  22.928   6.917   4.199 -0.2517  0.0302  0.3656
    1DPPC   C1B17397  22.356   6.172   3.247 -0.3618 -0.2392  0.2136
    1DPPC   C2B17398  22.506   6.186   3.583  0.2027 -0.2879  0.3173
    1DPPC   C3B17399  22.635   6.384   3.940 -0.0529  0.2781  0.0396
    1DPPC   C4B17400  22.427   6.554   4.274 -0.2626 -0.2511  0.3401
    1DPPC   NC317401  24.432   5.976   2.230 -0.1587 -0.0528 -0.0147
    1DPPC   PO417402  24.822   6.124   2.482 -0.2204  0.1844 -0.4045
    1DPPC   GL117403  25.034   6.322   2.806 -0.1782  0.1800 -0.2631
    1DPPC   GL217404  24.890   6.464   2.995 -0.0716 -0.0661  0.1356
    1DPPC   C1A17405  25.269   6.435   3.284  0.1027  0.1024  0.0744
    1DPPC   C2A17406  25.262   6.398   3.717  0.0777  0.0228 -0.2782
    1DPPC   C3A17407  25.221   6.468   4.195  0.0697 -0.1913 -0.3086
    1DPPC   C4A17408  25.295   6.544   4.679  0.0031 -0.0086 -0.0484
    1DPPC   C1B17409  24.808   6.578   3.335  0.1553  0.1349 -0.2387
    1DPPC   C2B17410  24.799   6.592   3.798  0.0119 -0.0573  0.0394
    1DPPC   C3B17411  24.735   6.854   4.163  0.2222  0.1340  0.0733
    1DPPC   C4B17412  24.873   6.888   4.551 -0.2177 -0.3435 -0.0518
    1DPPC   NC317413   1.834   3.603   2.828  0.1276 -0.3752  0.1571
    1DPPC   PO417414   1.469   3.305   2.743  0.1428  0.3775 -0.2121
    1DPPC   GL117415   1.579   3.293   3.190 -0.2519  0.0252  0.3038
    1DPPC   GL217416   1.558   3.677   3.213 -0.0929  0.2614 -0.1738
    1DPPC   C1A17417   1.531   3.335   3.589 -0.2492  0.1532  0.1733
    1DPPC   C2A17418   1.504   3.265   3.984  0.0216  0.1414  0.2131
    1DPPC   C3A17419   1.630   3.333   4.358  0.0613 -0.0663  0.0415
    1DPPC   C4A17420   1.617   3.600   4.652 -0.2575 -0.0645  0.0086
    1DPPC   C1B17421   1.604   3.827   3.614  0.1329  0.2546 -0.3747
    1DPPC   C2B17422   1.574   4.063   4.094 -0.2861  0.1132  0.0855
    1DPPC   C3B17423   1.192   4.249   4.223 -0.1525 -0.2402 -0.3803
    1DPPC   C4B17424   1.154   4.396   4.621  0.0953  0.0385  0.2349
    1DPPC   NC317425   6.383  17.572   2.807  0.0241 -0.2280  0.3623
    1DPPC   PO417426   6.342  17.961   2.868  0.2144 -0.1000 -0.1590
    1DPPC   GL117427   6.041  17.841   3.210  0.0823 -0.0941  0.0244
    1DPPC   GL217428   6.281  17.890   3.448  0.0552 -0.0840  0.1557
    1DPPC   C1A17429   5.773  17.760   3.640 -0.3760  0.0576  0.0753
    1DPPC   C2A17430   5.606  17.931   4.011  0.3229 -0.2057 -0.1777
    1DPPC   C3A17431   5.484  17.758   4.378  0.2900 -0.1475 -0.1352
    1DPPC   C4A17432   5.491  17.742   4.803  0.0817  0.0015 -0.2826
    1DPPC   C1B17433   6.222  17.749   3.876 -0.2236  0.0895 -0.0678
    1DPPC   C2B17434   6.510  17.753   4.199 -0.2415 -0.1452  0.1376
    1DPPC   C3B17435   6.803  17.887   4.518  0.1525  0.2845 -0.2074
    1DPPC   C4B17436   6.851  17.519   4.850 -0.1111 -0.2060  0.0144
    1DPPC   NC317437  19.574  13.872   3.044  0.1608  0.0236 -0.2663
    1DPPC   PO417438  19.980  13.797   3.095 -0.2365  0.1123  0.2379
    1DPPC   GL117439  19.727  13.706   3.445  0.0085 -0.4549  0.0132
    1DPPC   GL217440  19.696  13.940   3.583 -0.2066 -0.0674 -0.0262
    1DPPC   C1A17441  19.881  13.592   3.872 -0.3553  0.0919  0.0259
    1DPPC   C2A17442  19.951  13.497   4.252 -0.1724 -0.0342  0.0560
    1DPPC   C3A17443  20.081  13.621   4.598 -0.0325 -0.3073 -0.2918
    1DPPC   C4A17444  20.232  13.738   5.032  0.0586  0.0211  0.1984
    1DPPC   C1B17445  19.666  14.024   3.939  0.0422  0.0145  0.0879
    1DPPC   C2B17446  19.652  13.949   4.402 -0.1441  0.1216  0.2320
    1DPPC   C3B17447  19.753  13.946   4.798 -0.0484  0.0173 -0.1785
    1DPPC   C4B17448  19.797  14.034   5.212  0.2100 -0.0114 -0.1783
    1DPPC   NC317449   1.347  10.420   1.848  0.3731  0.1351 -0.0298
    1DPPC   PO417450   1.612  10.649   2.105  0.0435  0.0223  0.0241
    1DPPC   GL117451   1.659  10.714   2.585  0.0336 -0.0904  0.1574
    1DPPC   GL217452   1.688  11.012   2.681 -0.1781  0.0495 -0.1726
    1DPPC   C1A17453   1.593  10.641   3.091  0.0582 -0.3137 -0.0219
    1DPPC   C2A17454   1.503  10.436   3.351 -0.2955  0.2203  0.2115
    1DPPC   C3A17455   1.438  10.398   3.747  0.0881  0.1242 -0.4130
    1DPPC   C4A17456   1.464  10.618   4.138 -0.1599  0.1940  0.0713
    1DPPC   C1B17457   2.007  10.976   2.992 -0.0723  0.6429 -0.1031
    1DPPC   C2B17458   2.360  10.863   3.255 -0.1317  0.0595  0.0488
    1DPPC   C3B17459   2.583  10.972   3.599 -0.1450  0.1070  0.2531
    1DPPC   C4B17460   2.808  11.002   3.927 -0.1295  0.0905 -0.1754
    1DPPC   NC317461  18.407  20.114   3.035 -0.1925 -0.0102 -0.1003
    1DPPC   PO417462  18.706  20.428   3.111 -0.0186 -0.0032 -0.2296
    1DPPC   GL117463  18.321  20.443   3.400 -0.0627 -0.2128  0.1511
    1DPPC   GL217464  18.300  20.182   3.528 -0.1138 -0.3008 -0.2356
    1DPPC   C1A17465  18.233  20.604   3.786  0.0406 -0.0461  0.3596
    1DPPC   C2A17466  18.182  20.789   4.209 -0.1448  0.0951 -0.1221
    1DPPC   C3A17467  17.951  20.808   4.590 -0.0228 -0.2318  0.3052
    1DPPC   C4A17468  17.830  20.862   4.947  0.0462 -0.0763 -0.1141
    1DPPC   C1B17469  18.233  20.067   3.957  0.1185  0.0621 -0.3014
    1DPPC   C2B17470  18.461  19.904   4.318  0.1134  0.1264 -0.2406
    1DPPC   C3B17471  18.543  19.698   4.663 -0.1755  0.1884 -0.1264
    1DPPC   C4B17472  18.682  19.612   5.071  0.0920  0.1120 -0.0603
    1DPPC   NC317473   0.631  10.590   2.206  0.0270  0.1055 -0.0467
    1DPPC   PO417474   0.696  10.998   2.057  0.0234 -0.0104  0.1026
    1DPPC   GL117475   0.560  10.987   2.522 -0.0284 -0.2719 -0.2606
    1DPPC   GL217476   0.374  10.707   2.607  0.2997 -0.0925 -0.0923
    1DPPC   C1A17477   0.635  11.232   2.795 -0.0035 -0.1248  0.2198
    1DPPC   C2A17478   0.737  11.208   3.215 -0.5423 -0.0689 -0.0375
    1DPPC   C3A17479   0.700  11.191   3.674  0.0283 -0.0505 -0.3135
    1DPPC   C4A17480   0.417  11.426   3.934  0.3431  0.0252  0.1093
    1DPPC   C1B17481   0.569  10.778   3.035  0.2264  0.0336 -0.2708
    1DPPC   C2B17482   0.687  10.740   3.433 -0.0499  0.0731 -0.0133
    1DPPC   C3B17483   0.587  10.486   3.727  0.0971 -0.1560 -0.2630
    1DPPC   C4B17484   0.545  10.051   3.922 -0.0879  0.1714 -0.2915
    1DPPC   NC317485  14.973  10.056   2.803  0.1331 -0.0942  0.1911
    1DPPC   PO417486  14.794   9.957   3.133  0.1900  0.0115  0.0718
    1DPPC   GL117487  14.878   9.937   3.515  0.1254 -0.1461 -0.0205
    1DPPC   GL217488  14.813  10.076   3.756  0.0353 -0.0944 -0.1410
    1DPPC   C1A17489  15.215   9.706   3.808  0.1901 -0.0713  0.4498
    1DPPC   C2A17490  15.292   9.479   4.109 -0.0394  0.4318  0.2812
    1DPPC   C3A17491  15.669   9.349   4.436 -0.2562 -0.1495 -0.3067
    1DPPC   C4A17492  16.055   9.224   4.428  0.0818  0.3126 -0.2004
    1DPPC   C1B17493  14.875  10.041   4.240 -0.2011 -0.2765  0.2891
    1DPPC   C2B17494  14.970   9.950   4.572 -0.0787  0.0225  0.0139
    1DPPC   C3B17495  14.801   9.787   4.978  0.5171  0.0383 -0.0311
    1DPPC   C4B17496  14.633   9.352   5.190  0.1127 -0.3074 -0.3012
    1DPPC   NC317497  22.145   4.451   2.848 -0.0825  0.2817 -0.1630
    1DPPC   PO417498  22.380   4.243   3.184 -0.1775 -0.2550  0.0548
    1DPPC   GL117499  22.441   4.518   3.498  0.2431  0.4467 -0.2329
    1DPPC   GL217500  22.470   4.763   3.440  0.2991  0.1791  0.0227
    1DPPC   C1A17501  22.656   4.493   3.869  0.0648 -0.1045 -0.1317
    1DPPC   C2A17502  22.576   4.604   4.259  0.0268 -0.2185 -0.1837
    1DPPC   C3A17503  22.542   4.728   4.701 -0.0011 -0.0656  0.0193
    1DPPC   C4A17504  22.205   4.912   5.034 -0.0510 -0.0010 -0.1295
    1DPPC   C1B17505  22.526   4.994   3.869 -0.1868  0.1700 -0.3190
    1DPPC   C2B17506  22.612   5.284   4.249  0.0270 -0.0348 -0.0330
    1DPPC   C3B17507  22.596   5.604   4.570 -0.2513  0.1146 -0.4380
    1DPPC   C4B17508  22.693   5.869   4.906  0.0433  0.1965  0.1414
    1DPPC   NC317509  18.940  15.033   3.140  0.1002 -0.1215 -0.1214
    1DPPC   PO417510  18.635  15.316   3.239  0.0937  0.2021 -0.1363
    1DPPC   GL117511  18.779  15.382   3.587  0.0300  0.1373  0.0441
    1DPPC   GL217512  18.913  15.696   3.706 -0.0942 -0.0768 -0.1003
    1DPPC   C1A17513  18.726  15.338   3.946 -0.1704  0.0765 -0.1988
    1DPPC   C2A17514  18.721  15.283   4.328 -0.0881 -0.2099  0.0598
    1DPPC   C3A17515  18.790  15.275   4.750 -0.2128 -0.1240 -0.2290
    1DPPC   C4A17516  19.117  15.265   4.917 -0.1331 -0.0699 -0.1349
    1DPPC   C1B17517  18.858  15.779   4.179  0.1801 -0.0256  0.4311
    1DPPC   C2B17518  18.760  15.772   4.505  0.0733  0.1062 -0.2082
    1DPPC   C3B17519  18.790  15.720   4.998 -0.4520  0.3556 -0.1294
    1DPPC   C4B17520  18.592  15.335   5.286  0.1314 -0.2907 -0.2518
    1DPPC   NC317521  23.839   9.852   2.902 -0.0502  0.1356  0.0456
    1DPPC   PO417522  23.667   9.438   2.768  0.5080  0.0899 -0.0976
    1DPPC   GL117523  23.600   9.413   3.188 -0.0004 -0.3397  0.0949
    1DPPC   GL217524  23.680   9.116   3.168 -0.0600  0.0651  0.0114
    1DPPC   C1A17525  23.502   9.526   3.618  0.0668  0.3182 -0.5013
    1DPPC   C2A17526  23.534   9.529   4.031 -0.0792 -0.0131  0.0444
    1DPPC   C3A17527  23.620   9.653   4.404  0.1999  0.0569  0.2397
    1DPPC   C4A17528  23.679   9.746   4.748 -0.0020  0.1839 -0.0518
    1DPPC   C1B17529  23.786   9.036   3.541  0.0277 -0.0668 -0.2073
    1DPPC   C2B17530  23.762   9.085   4.041  0.0745  0.0641  0.1744
    1DPPC   C3B17531  23.757   9.208   4.388  0.2318  0.0342 -0.0269
    1DPPC   C4B17532  24.020   9.311   4.722  0.1651  0.0250 -0.4889
    1DPPC   NC317533  17.429   6.618   2.306  0.1229  0.1778 -0.0216
    1DPPC   PO417534  17.306   6.960   2.549  0.0828  0.1481 -0.2783
    1DPPC   GL117535  17.580   6.903   2.912 -0.1017 -0.0644 -0.0255
    1DPPC   GL217536  17.685   6.576   2.874 -0.0256 -0.0350 -0.1918
    1DPPC   C1A17537  17.748   7.255   3.266 -0.0595  0.1515 -0.1415
    1DPPC   C2A17538  17.602   7.189   3.677 -0.3845  0.1119 -0.1795
    1DPPC   C3A17539  17.512   7.191   4.128  0.0544  0.1480  0.0414
    1DPPC   C4A17540  17.445   7.009   4.522  0.2270 -0.0463 -0.1733
    1DPPC   C1B17541  17.461   6.449   3.225  0.0446  0.1589 -0.0174
    1DPPC   C2B17542  17.308   6.285   3.600  0.0097 -0.0066  0.0737
    1DPPC   C3B17543  17.226   6.187   4.004 -0.0495  0.4059 -0.0054
    1DPPC   C4B17544  17.224   5.922   4.371 -0.0966  0.2417 -0.2154
    1DPPC   NC317545  17.734  13.260   2.349  0.2606  0.1581 -0.1008
    1DPPC   PO417546  17.988  13.205   2.836 -0.1511  0.0483  0.0869
    1DPPC   GL117547  18.112  13.474   3.202 -0.1324 -0.0036 -0.4149
    1DPPC   GL217548  17.855  13.543   3.214 -0.1133 -0.0901  0.0762
    1DPPC   C1A17549  18.260  13.857   3.412  0.0053  0.1839  0.0861
    1DPPC   C2A17550  18.157  13.944   3.791 -0.0789  0.0995  0.1675
    1DPPC   C3A17551  18.049  13.865   4.197 -0.1072  0.0755  0.0722
    1DPPC   C4A17552  18.091  13.909   4.602 -0.2730  0.0913 -0.2423
    1DPPC   C1B17553  17.696  13.770   3.505 -0.0334 -0.0032 -0.4285
    1DPPC   C2B17554  17.648  13.885   3.911  0.3156  0.1886  0.2442
    1DPPC   C3B17555  17.589  13.817   4.367  0.0681  0.0647  0.0421
    1DPPC   C4B17556  17.582  13.798   4.898  0.0278  0.2223  0.3250
    1DPPC   NC317557  21.788   7.726   2.284 -0.1295 -0.1054 -0.0130
    1DPPC   PO417558  21.999   7.552   2.733 -0.1110  0.0079  0.0332
    1DPPC   GL117559  21.860   7.632   3.098 -0.0834 -0.0880  0.2199
    1DPPC   GL217560  22.050   7.923   3.177  0.2223 -0.2312  0.1403
    1DPPC   C1A17561  21.744   7.479   3.502 -0.1627 -0.2145 -0.3684
    1DPPC   C2A17562  21.616   7.563   3.909 -0.0227 -0.1428 -0.0316
    1DPPC   C3A17563  21.403   7.625   4.303 -0.1382 -0.0213 -0.2107
    1DPPC   C4A17564  21.331   7.466   4.739 -0.0533 -0.1615  0.1809
    1DPPC   C1B17565  21.937   7.905   3.654 -0.0390 -0.1612 -0.0969
    1DPPC   C2B17566  22.011   7.857   4.094 -0.3413  0.0700  0.2206
    1DPPC   C3B17567  21.854   7.769   4.570  0.1615 -0.2948  0.0362
    1DPPC   C4B17568  21.592   7.766   5.028  0.2883 -0.3145  0.0619
    1DPPC   NC317569  25.018   5.644   2.342 -0.1026 -0.2256  0.0002
    1DPPC   PO417570  25.378   5.477   2.578 -0.2378 -0.0298  0.0283
    1DPPC   GL117571  25.413   5.425   3.062 -0.0167  0.3359 -0.0740
    1DPPC   GL217572  25.408   5.114   3.227  0.1273  0.1178  0.0676
    1DPPC   C1A17573  25.505   5.619   3.472  0.0366  0.0425 -0.1444
    1DPPC   C2A17574  25.861   5.754   3.829  0.1188  0.0970  0.0691
    1DPPC   C3A17575  26.026   5.991   4.217  0.0413 -0.2218 -0.2099
    1DPPC   C4A17576  26.408   6.118   4.517  0.0315 -0.0131  0.0786
    1DPPC   C1B17577  25.389   5.143   3.658 -0.0463 -0.2174 -0.2579
    1DPPC   C2B17578  25.490   5.072   4.126  0.0008 -0.1164  0.0290
    1DPPC   C3B17579  25.358   4.934   4.601 -0.1573 -0.3701 -0.4612
    1DPPC   C4B17580  25.199   4.875   4.994  0.0161 -0.2652  0.2459
    1DPPC   NC317581  19.338   8.860   2.256  0.3855  0.2053  0.0781
    1DPPC   PO417582  19.211   8.530   2.563  0.0401 -0.1531  0.1458
    1DPPC   GL117583  19.306   8.482   2.978  0.0975 -0.1011  0.3498
    1DPPC   GL217584  19.612   8.340   3.082 -0.0698  0.0629  0.1889
    1DPPC   C1A17585  19.220   8.402   3.414  0.2392 -0.0228 -0.0584
    1DPPC   C2A17586  19.207   8.346   3.787  0.0122 -0.0415 -0.4923
    1DPPC   C3A17587  19.016   8.290   4.294  0.1096  0.2012 -0.0890
    1DPPC   C4A17588  18.977   8.452   4.738 -0.0288 -0.2168  0.1082
    1DPPC   C1B17589  19.716   8.280   3.395 -0.0405 -0.2212  0.0866
    1DPPC   C2B17590  19.691   8.058   3.836  0.0562  0.0477  0.3270
    1DPPC   C3B17591  19.525   8.167   4.213  0.1671 -0.0032  0.1068
    1DPPC   C4B17592  19.361   8.203   4.660 -0.1684 -0.4414 -0.0492
    1DPPC   NC317593  14.212   0.306   2.683  0.1706 -0.4680 -0.0362
    1DPPC   PO417594  14.134   0.822   2.714 -0.0524 -0.0975 -0.0046
    1DPPC   GL117595  14.240   0.785   3.037 -0.2495 -0.1269 -0.1899
    1DPPC   GL217596  14.592   0.788   2.976  0.1591 -0.0846 -0.1767
    1DPPC   C1A17597  14.229   1.075   3.417  0.2445 -0.1563  0.0122
    1DPPC   C2A17598  14.004   1.219   3.767  0.2713 -0.1385 -0.1971
    1DPPC   C3A17599  14.084   1.171   4.198 -0.0240  0.0333  0.0412
    1DPPC   C4A17600  14.053   1.251   4.585  0.1098 -0.1194 -0.0358
    1DPPC   C1B17601  14.710   0.805   3.362  0.1496 -0.1710  0.0515
    1DPPC   C2B17602  14.572   0.769   3.772  0.2025 -0.3691 -0.1697
    1DPPC   C3B17603  14.321   0.776   4.165 -0.0952 -0.0189 -0.0833
    1DPPC   C4B17604  13.956   0.770   4.532  0.3168  0.3204  0.1109
    1DPPC   NC317605  19.725  11.889   2.618 -0.1445  0.1521  0.0744
    1DPPC   PO417606  19.418  12.090   2.838  0.2437 -0.0804 -0.0030
    1DPPC   GL117607  19.595  12.222   3.221 -0.1512 -0.0046  0.1601
    1DPPC   GL217608  19.825  12.499   3.332  0.2517  0.0168 -0.1269
    1DPPC   C1A17609  19.448  12.343   3.606  0.0428  0.1982  0.0545
    1DPPC   C2A17610  19.450  12.495   3.973  0.0053 -0.1841  0.0229
    1DPPC   C3A17611  19.531  12.528   4.416  0.1178 -0.0150  0.0796
    1DPPC   C4A17612  19.479  12.524   4.847 -0.0112  0.1872  0.0495
    1DPPC   C1B17613  19.923  12.439   3.763  0.2072  0.0516 -0.1702
    1DPPC   C2B17614  19.975  12.433   4.198  0.0346 -0.0936 -0.0896
    1DPPC   C3B17615  20.023  12.489   4.623  0.2562 -0.2689  0.0605
    1DPPC   C4B17616  20.017  12.740   4.920  0.2203 -0.1820 -0.0685
    1DPPC   NC317617  24.841   9.650   2.712  0.0494 -0.3192  0.2310
    1DPPC   PO417618  24.489   9.337   2.603  0.1208  0.2094 -0.0443
    1DPPC   GL117619  24.435   9.339   3.029  0.2408  0.1043  0.0506
    1DPPC   GL217620  24.676   9.428   3.111 -0.3057  0.3080  0.2537
    1DPPC   C1A17621  24.295   9.200   3.437  0.1023 -0.3629  0.0930
    1DPPC   C2A17622  24.251   9.090   3.883  0.1438 -0.0259 -0.1584
    1DPPC   C3A17623  24.281   9.055   4.358  0.1698  0.5555  0.0555
    1DPPC   C4A17624  24.506   8.672   4.559 -0.0685  0.2320  0.2482
    1DPPC   C1B17625  24.929   9.306   3.509  0.0149 -0.0750 -0.0258
    1DPPC   C2B17626  25.004   9.188   3.929 -0.0645  0.0046 -0.0395
    1DPPC   C3B17627  25.229   9.006   4.237 -0.4414  0.0264 -0.0809
    1DPPC   C4B17628  25.440   8.698   4.502  0.1613 -0.0433 -0.1466
    1DPPC   NC317629  23.569   2.278   2.860 -0.2315 -0.3985  0.0793
    1DPPC   PO417630  23.106   2.324   3.014  0.1278 -0.0843  0.3555
    1DPPC   GL117631  23.516   2.358   3.327  0.2413 -0.5390  0.2265
    1DPPC   GL217632  23.619   2.571   3.262  0.1783  0.2248  0.3166
    1DPPC   C1A17633  23.555   2.507   3.797  0.1028 -0.0218  0.0589
    1DPPC   C2A17634  23.567   2.712   4.192 -0.0281  0.1028  0.0647
    1DPPC   C3A17635  23.661   2.739   4.553  0.1453 -0.2021  0.4153
    1DPPC   C4A17636  23.854   2.971   4.910 -0.0051 -0.2279 -0.0518
    1DPPC   C1B17637  23.726   2.873   3.532  0.0741  0.3711  0.0497
    1DPPC   C2B17638  23.765   3.144   3.857  0.2899 -0.2279 -0.0208
    1DPPC   C3B17639  23.685   3.205   4.316 -0.0526  0.2271 -0.0203
    1DPPC   C4B17640  23.701   3.417   4.773  0.0044 -0.2206 -0.0030
    1DPPC   NC317641  22.033   3.505   3.180 -0.0908  0.0565  0.3146
    1DPPC   PO417642  21.895   3.067   3.266 -0.3678 -0.1239 -0.1877
    1DPPC   GL117643  22.155   3.197   3.537 -0.2030  0.0280  0.0771
    1DPPC   GL217644  22.392   3.349   3.496  0.2638  0.0703  0.2420
    1DPPC   C1A17645  22.208   3.184   3.914 -0.0269  0.2704  0.0566
    1DPPC   C2A17646  22.347   3.263   4.306 -0.0837  0.2104  0.2604
    1DPPC   C3A17647  22.169   3.325   4.781  0.1712  0.2278  0.3054
    1DPPC   C4A17648  21.660   3.480   4.847 -0.2932  0.3333 -0.2315
    1DPPC   C1B17649  22.440   3.608   3.920  0.0676 -0.1261 -0.2710
    1DPPC   C2B17650  22.459   3.772   4.256 -0.1289 -0.2036  0.4270
    1DPPC   C3B17651  22.496   3.712   4.654 -0.1587  0.1450 -0.4242
    1DPPC   C4B17652  22.600   3.902   4.944  0.2329  0.1564 -0.0540
    1DPPC   NC317653  17.557  16.804   2.954 -0.1684 -0.1447 -0.0681
    1DPPC   PO417654  17.222  16.583   3.070  0.2694 -0.0738 -0.0816
    1DPPC   GL117655  17.165  16.783   3.345 -0.0710 -0.0977 -0.2245
    1DPPC   GL217656  16.835  16.943   3.280 -0.1324  0.1896 -0.2862
    1DPPC   C1A17657  17.039  16.778   3.783  0.3613 -0.2156  0.2339
    1DPPC   C2A17658  16.826  16.868   4.094  0.3647 -0.0808 -0.1384
    1DPPC   C3A17659  16.579  17.241   4.328  0.1111 -0.0114 -0.1161
    1DPPC   C4A17660  16.219  17.241   4.348 -0.2274  0.3294  0.1165
    1DPPC   C1B17661  16.574  16.709   3.592  0.0244  0.1509 -0.1835
    1DPPC   C2B17662  16.349  16.394   3.682  0.0091  0.0286 -0.3747
    1DPPC   C3B17663  16.293  16.302   4.158  0.0175  0.0175 -0.3379
    1DPPC   C4B17664  16.056  16.189   4.443  0.0074  0.0249 -0.0929
    1DPPC   NC317665   0.539  11.798   1.599 -0.2653  0.1826  0.2430
    1DPPC   PO417666   0.660  11.733   2.137  0.1120  0.0250  0.3363
    1DPPC   GL117667   0.657  11.758   2.624  0.4106  0.0940 -0.0297
    1DPPC   GL217668   0.954  11.631   2.802  0.2515 -0.1544 -0.1088
    1DPPC   C1A17669   0.467  11.673   3.039  0.1088  0.2659  0.0424
    1DPPC   C2A17670   0.625  11.645   3.442  0.2267 -0.1771 -0.0540
    1DPPC   C3A17671   0.953  11.601   3.756  0.0033 -0.0989  0.3923
    1DPPC   C4A17672   1.062  11.234   4.039 -0.2846 -0.0040 -0.0954
    1DPPC   C1B17673   1.100  11.556   3.261  0.0737  0.1878 -0.0697
    1DPPC   C2B17674   1.217  11.242   3.488 -0.2891 -0.0315 -0.3288
    1DPPC   C3B17675   1.596  11.170   3.910 -0.0133  0.1514  0.4144
    1DPPC   C4B17676   1.875  11.072   4.177  0.1814  0.3195  0.0598
    1DPPC   NC317677  24.517   2.343   2.480 -0.0174 -0.2307 -0.2950
    1DPPC   PO417678  24.554   2.486   2.997 -0.0432  0.1703 -0.0659
    1DPPC   GL117679  24.679   2.838   3.260  0.1355  0.0523  0.1062
    1DPPC   GL217680  25.027   2.772   3.219 -0.0457 -0.0589  0.1629
    1DPPC   C1A17681  24.607   2.791   3.649  0.3620  0.0242 -0.0329
    1DPPC   C2A17682  24.726   2.766   4.120  0.0078 -0.1264  0.0904
    1DPPC   C3A17683  24.808   2.761   4.545  0.0581  0.2941  0.0461
    1DPPC   C4A17684  25.057   2.861   4.786 -0.1680 -0.0193  0.1488
    1DPPC   C1B17685  25.103   2.964   3.677  0.1887 -0.2149  0.0546
    1DPPC   C2B17686  25.130   3.095   4.076  0.1082 -0.0281 -0.0472
    1DPPC   C3B17687  25.394   3.015   4.385  0.1670  0.1564  0.0093
    1DPPC   C4B17688  25.621   2.922   4.743 -0.0285  0.0544  0.3274
    1DPPC   NC317689  20.556   6.669   2.206  0.0908  0.1018 -0.0375
    1DPPC   PO417690  20.387   6.559   2.576 -0.1552 -0.2433 -0.0746
    1DPPC   GL117691  20.296   6.433   3.061  0.0088 -0.4509  0.3211
    1DPPC   GL217692  20.310   6.124   3.281  0.0350 -0.1232  0.3067
    1DPPC   C1A17693  20.108   6.595   3.476  0.1553 -0.1897 -0.1938
    1DPPC   C2A17694  19.961   6.497   3.887  0.1114 -0.0160  0.0113
    1DPPC   C3A17695  19.899   6.133   4.044  0.1442 -0.3661 -0.1497
    1DPPC   C4A17696  19.691   5.929   4.272 -0.3014  0.0954 -0.0843
    1DPPC   C1B17697  20.285   5.911   3.750 -0.2275  0.0392 -0.1162
    1DPPC   C2B17698  20.320   5.851   4.158  0.3270 -0.1931  0.0715
    1DPPC   C3B17699  20.137   5.910   4.529 -0.2338 -0.0327  0.0036
    1DPPC   C4B17700  19.751   5.616   4.731 -0.2677 -0.1848 -0.1381
    1DPPC   NC317701  19.255  10.028   2.780 -0.0449  0.1368  0.0526
    1DPPC   PO417702  18.942   9.955   2.583 -0.1093  0.0237 -0.3159
    1DPPC   GL117703  18.783   9.938   2.980 -0.0120  0.1694 -0.0769
    1DPPC   GL217704  18.884  10.305   3.011  0.3400 -0.2453 -0.0933
    1DPPC   C1A17705  18.852   9.930   3.376 -0.4492 -0.1033 -0.0688
    1DPPC   C2A17706  18.987   9.745   3.749 -0.2505 -0.1446 -0.3184
    1DPPC   C3A17707  18.865   9.682   4.117  0.0091  0.1534 -0.0660
    1DPPC   C4A17708  18.932   9.561   4.522 -0.3235 -0.1624  0.1447
    1DPPC   C1B17709  18.863  10.446   3.424 -0.2057  0.1062  0.1314
    1DPPC   C2B17710  18.897  10.602   3.856  0.2051  0.3744  0.0312
    1DPPC   C3B17711  18.994  10.616   4.270 -0.1115 -0.2593 -0.0414
    1DPPC   C4B17712  18.954  10.552   4.670  0.1414 -0.1363 -0.1370
    1DPPC   NC317713  25.481  10.388   2.357  0.1323 -0.2083 -0.1964
    1DPPC   PO417714  25.742   9.969   2.398  0.3625  0.0408 -0.1370
    1DPPC   GL117715  25.595  10.072   2.837  0.1486 -0.1824  0.0897
    1DPPC   GL217716  25.875  10.054   3.089  0.2228 -0.0486  0.0478
    1DPPC   C1A17717  25.481   9.918   3.316  0.0583  0.1944 -0.1985
    1DPPC   C2A17718  25.569   9.882   3.790 -0.0136  0.2757  0.1050
    1DPPC   C3A17719  25.598   9.901   4.267  0.4989 -0.1845 -0.0654
    1DPPC   C4A17720  25.534   9.673   4.729 -0.1373  0.2150  0.0255
    1DPPC   C1B17721  26.157   9.903   3.307 -0.1393 -0.0141  0.0190
    1DPPC   C2B17722  26.066   9.871   3.753  0.0213 -0.2160  0.0587
    1DPPC   C3B17723  26.021   9.697   4.056  0.0496  0.1323  0.0061
    1DPPC   C4B17724  26.097   9.647   4.456 -0.0509 -0.2648  0.0605
    1DPPC   NC317725   3.711   4.950   2.090  0.0235 -0.2325  0.0901
    1DPPC   PO417726   4.129   4.698   2.372  0.4353 -0.3260  0.2892
    1DPPC   GL117727   4.283   4.794   2.684 -0.0365 -0.1392 -0.1133
    1DPPC   GL217728   3.954   5.026   2.768 -0.0665 -0.0882 -0.0920
    1DPPC   C1A17729   4.463   5.034   2.990  0.2070  0.1030 -0.0506
    1DPPC   C2A17730   4.774   5.111   3.347  0.1496  0.0418  0.3216
    1DPPC   C3A17731   4.934   5.483   3.634  0.0276  0.0779  0.2135
    1DPPC   C4A17732   4.889   5.799   3.899 -0.0905  0.0394 -0.0734
    1DPPC   C1B17733   4.049   5.255   3.111 -0.1595 -0.0115 -0.1194
    1DPPC   C2B17734   3.902   5.380   3.484 -0.1466  0.1469 -0.2814
    1DPPC   C3B17735   4.117   5.638   3.880  0.3954 -0.0079 -0.0524
    1DPPC   C4B17736   4.455   5.661   4.077  0.0078 -0.3450  0.1327
    1DPPC   NC317737  25.950   8.293   1.732 -0.0467  0.3410  0.2266
    1DPPC   PO417738  26.288   8.438   1.839  0.0386  0.1372 -0.2689
    1DPPC   GL117739  26.504   8.451   2.381  0.2441  0.0210 -0.2900
    1DPPC   GL217740  26.797   8.517   2.483 -0.0367  0.1834 -0.1669
    1DPPC   C1A17741  26.550   8.217   2.785 -0.0390  0.1911 -0.1751
    1DPPC   C2A17742  26.779   8.319   3.127  0.0229  0.0529  0.2087
    1DPPC   C3A17743  26.955   8.360   3.462 -0.1670  0.0413  0.1673
    1DPPC   C4A17744  27.081   8.366   3.854  0.3874 -0.1693 -0.0136
    1DPPC   C1B17745  26.715   8.858   2.809  0.0940 -0.1082 -0.2247
    1DPPC   C2B17746  26.723   8.805   3.173 -0.0006  0.4011  0.0465
    1DPPC   C3B17747  26.758   8.881   3.628  0.1960 -0.2270  0.1333
    1DPPC   C4B17748  26.809   8.773   4.017 -0.0898  0.0298 -0.3640
    1DPPC   NC317749  27.103  29.237   3.179  0.0535  0.2566  0.0663
    1DPPC   PO417750  27.179  28.768   3.374  0.0652  0.1813 -0.0568
    1DPPC   GL117751  27.448  28.696   3.847 -0.1710 -0.0425 -0.1895
    1DPPC   GL217752  27.762  28.540   3.994  0.0018  0.1614  0.1081
    1DPPC   C1A17753  27.095  28.614   4.206 -0.0380  0.3324  0.2865
    1DPPC   C2A17754  27.136  28.756   4.587 -0.2941 -0.2402 -0.5349
    1DPPC   C3A17755  27.027  29.219   4.653  0.0289  0.0246  0.2063
    1DPPC   C4A17756  27.122  29.287   5.120 -0.2364 -0.4327  0.1676
    1DPPC   C1B17757  27.641  28.577   4.401  0.0608 -0.1254 -0.1803
    1DPPC   C2B17758  27.785  28.714   4.867 -0.0583 -0.2625 -0.0744
    1DPPC   C3B17759  28.126  28.574   4.872  0.0848 -0.0344  0.0197
    1DPPC   C4B17760  28.475  28.709   4.826 -0.1922  0.2164  0.0839
    1DPPC   NC317761  17.119  11.872   1.965 -0.1207 -0.0032 -0.0580
    1DPPC   PO417762  16.919  11.751   2.302 -0.1598  0.0930 -0.0622
    1DPPC   GL117763  17.008  11.851   2.728 -0.0806  0.1669 -0.1126
    1DPPC   GL217764  17.189  12.113   2.830  0.1129  0.0107  0.0021
    1DPPC   C1A17765  16.767  11.661   3.083 -0.3469 -0.1631 -0.1562
    1DPPC   C2A17766  16.631  11.864   3.478  0.0881 -0.1804 -0.0960
    1DPPC   C3A17767  16.525  12.058   3.875 -0.2744  0.3566 -0.0119
    1DPPC   C4A17768  16.623  12.279   4.368 -0.0028 -0.0199 -0.3656
    1DPPC   C1B17769  17.061  12.022   3.208 -0.3050 -0.1107 -0.2299
    1DPPC   C2B17770  17.006  12.108   3.706  0.1014 -0.0458  0.1392
    1DPPC   C3B17771  17.056  12.150   4.137  0.0890  0.1246 -0.0994
    1DPPC   C4B17772  17.065  12.033   4.578 -0.3226  0.1118  0.0583
    1DPPC   NC317773   3.122  12.666   2.174  0.1474 -0.1436 -0.1183
    1DPPC   PO417774   2.906  13.081   2.048  0.1859 -0.3981 -0.0951
    1DPPC   GL117775   2.957  13.013   2.549 -0.3035 -0.2036  0.2842
    1DPPC   GL217776   2.698  13.178   2.560  0.2778 -0.0972  0.0204
    1DPPC   C1A17777   2.999  13.056   2.967  0.0651 -0.1979  0.1222
    1DPPC   C2A17778   2.828  13.051   3.312 -0.0446  0.2471 -0.0214
    1DPPC   C3A17779   2.857  13.145   3.810  0.0061 -0.3002  0.4681
    1DPPC   C4A17780   3.029  12.991   4.136  0.0677  0.1390  0.2518
    1DPPC   C1B17781   2.574  13.377   3.006 -0.0169 -0.1492 -0.0132
    1DPPC   C2B17782   2.696  13.565   3.394 -0.2376 -0.0963 -0.1157
    1DPPC   C3B17783   3.066  13.847   3.441 -0.0793 -0.0085  0.2056
    1DPPC   C4B17784   3.142  14.107   3.035 -0.0505  0.1140 -0.0160
    1DPPC   NC317785   1.753   9.455   1.568  0.1127  0.1378  0.1438
    1DPPC   PO417786   1.310   9.390   1.666  0.0341 -0.1853  0.1349
    1DPPC   GL117787   1.157   9.609   1.973  0.2720  0.2471 -0.1751
    1DPPC   GL217788   1.287   9.879   2.173  0.2164  0.0458  0.0492
    1DPPC   C1A17789   0.893   9.464   2.292 -0.1947 -0.0257  0.1337
    1DPPC   C2A17790   0.635   9.536   2.567  0.1808 -0.0487 -0.2213
    1DPPC   C3A17791   0.226   9.435   2.607 -0.0776  0.1966 -0.0204
    1DPPC   C4A17792   0.038   9.070   2.749  0.0490 -0.0507  0.3406
    1DPPC   C1B17793   1.237   9.775   2.501  0.2696 -0.0872  0.1330
    1DPPC   C2B17794   1.175   9.536   2.868 -0.2440 -0.3942  0.1218
    1DPPC   C3B17795   1.394   9.421   3.007 -0.1162  0.1161 -0.0864
    1DPPC   C4B17796   1.532   9.069   3.159  0.2691 -0.0570  0.1316
    1DPPC   NC317797  17.268  11.414   2.601 -0.0862 -0.2528  0.2844
    1DPPC   PO417798  17.559  11.748   2.755  0.0527 -0.1692  0.1953
    1DPPC   GL117799  17.344  11.565   3.106  0.0631  0.0084 -0.1303
    1DPPC   GL217800  17.482  11.299   3.224 -0.2314 -0.1691  0.1436
    1DPPC   C1A17801  17.092  11.602   3.474 -0.0270  0.3551 -0.1122
    1DPPC   C2A17802  17.002  11.567   3.905 -0.0556 -0.0515 -0.2178
    1DPPC   C3A17803  17.137  11.545   4.301  0.2419  0.1314  0.0848
    1DPPC   C4A17804  17.364  11.347   4.511  0.1882  0.2654 -0.0702
    1DPPC   C1B17805  17.437  11.290   3.719 -0.0013 -0.2021  0.0132
    1DPPC   C2B17806  17.455  11.195   4.042  0.0196  0.2652  0.1080
    1DPPC   C3B17807  17.134  10.932   4.240  0.0149  0.1701 -0.2531
    1DPPC   C4B17808  16.898  10.693   4.448  0.0779  0.3536 -0.1014
    1DPPC   NC317809   2.046  15.272   2.974 -0.0729 -0.0692 -0.0612
    1DPPC   PO417810   1.694  14.905   2.923  0.4051 -0.0738  0.0097
    1DPPC   GL117811   1.901  14.795   3.280 -0.3043  0.0681 -0.4480
    1DPPC   GL217812   1.775  14.757   3.555  0.0775 -0.1021  0.1853
    1DPPC   C1A17813   2.197  14.541   3.437  0.1350  0.0542  0.0863
    1DPPC   C2A17814   2.266  14.457   3.847  0.2139  0.1640 -0.0665
    1DPPC   C3A17815   2.502  14.318   4.113 -0.1459  0.1572  0.2035
    1DPPC   C4A17816   2.788  14.677   4.179  0.0435 -0.1398  0.1407
    1DPPC   C1B17817   1.737  14.719   3.954  0.2704  0.0410  0.0332
    1DPPC   C2B17818   1.853  14.809   4.296 -0.0041 -0.0475 -0.0874
    1DPPC   C3B17819   1.813  15.087   4.713 -0.1034 -0.0864  0.1002
    1DPPC   C4B17820   1.993  15.008   5.241 -0.0295 -0.2418 -0.1359
    1DPPC   NC317821   0.668   8.277   1.425 -0.1267  0.1245 -0.1404
    1DPPC   PO417822   0.434   8.092   1.754  0.2524  0.0868 -0.2960
    1DPPC   GL117823   0.321   8.135   2.216 -0.1799 -0.0510 -0.2235
    1DPPC   GL217824   0.117   7.961   2.265 -0.0150 -0.2223  0.3942
    1DPPC   C1A17825   0.090   8.446   2.411 -0.3191 -0.2639  0.2336
    1DPPC   C2A17826   0.287   8.576   2.850 -0.2329 -0.3277  0.1913
    1DPPC   C3A17827   0.644   8.686   3.072 -0.3337 -0.1235 -0.1716
    1DPPC   C4A17828   0.898   8.526   3.371  0.2546 -0.2064 -0.0930
    1DPPC   C1B17829   0.349   7.751   2.651 -0.1568  0.3017 -0.1534
    1DPPC   C2B17830   0.492   7.802   3.032 -0.1302  0.2923  0.0370
    1DPPC   C3B17831   0.608   7.636   3.338 -0.2542 -0.3714  0.0474
    1DPPC   C4B17832   0.661   7.231   3.473  0.1189 -0.0706  0.1411
    1DPPC   NC317833  21.077  14.441   3.027  0.1580 -0.0601 -0.1076
    1DPPC   PO417834  20.687  14.643   3.035  0.3027 -0.0599 -0.0644
    1DPPC   GL117835  20.835  14.679   3.391  0.0918 -0.0212 -0.2372
    1DPPC   GL217836  21.066  14.978   3.439 -0.0591  0.1318  0.2615
    1DPPC   C1A17837  20.919  14.600   3.850 -0.0255  0.0239 -0.1503
    1DPPC   C2A17838  20.992  14.636   4.293 -0.0442  0.1108  0.0383
    1DPPC   C3A17839  20.981  14.560   4.772  0.0382 -0.1139 -0.1261
    1DPPC   C4A17840  20.907  14.688   5.167  0.0993  0.1088 -0.2695
    1DPPC   C1B17841  21.147  15.119   3.765 -0.2284 -0.1112  0.0929
    1DPPC   C2B17842  21.158  15.132   4.156 -0.1515  0.3909 -0.1881
    1DPPC   C3B17843  21.250  15.064   4.630  0.0002 -0.0285 -0.1888
    1DPPC   C4B17844  21.264  15.074   5.083  0.2451 -0.1567  0.0470
    1DPPC   NC317845  17.719   7.310   2.489  0.1513  0.1050  0.1903
    1DPPC   PO417846  17.657   7.705   2.465 -0.2055 -0.3695  0.4624
    1DPPC   GL117847  17.489   7.614   2.875 -0.1702 -0.1837 -0.1710
    1DPPC   GL217848  17.326   7.384   2.931  0.0038 -0.1110  0.1259
    1DPPC   C1A17849  17.445   7.701   3.364  0.0472 -0.0184  0.2941
    1DPPC   C2A17850  17.435   7.708   3.739 -0.0763  0.1467 -0.1360
    1DPPC   C3A17851  17.255   7.722   4.154 -0.0567 -0.0129 -0.0105
    1DPPC   C4A17852  16.899   7.918   4.370 -0.2160  0.0850  0.2175
    1DPPC   C1B17853  17.263   7.026   3.278 -0.3257 -0.0378  0.0840
    1DPPC   C2B17854  17.235   6.745   3.603 -0.0376 -0.1456  0.1677
    1DPPC   C3B17855  16.926   6.525   3.800 -0.1609  0.0526  0.2403
    1DPPC   C4B17856  16.688   6.722   4.069 -0.0729 -0.0937  0.1677
    1DPPC   NC317857  23.639  11.148   2.995 -0.0443  0.0625 -0.2894
    1DPPC   PO417858  23.445  11.493   2.981  0.1221  0.1024 -0.1567
    1DPPC   GL117859  23.395  11.493   3.395  0.0559 -0.0780 -0.1751
    1DPPC   GL217860  23.428  11.774   3.375  0.1544  0.1551 -0.0053
    1DPPC   C1A17861  23.451  11.334   3.776  0.1283  0.0285 -0.3544
    1DPPC   C2A17862  23.260  11.402   4.118  0.2092  0.1581 -0.1210
    1DPPC   C3A17863  23.184  11.624   4.548  0.2200 -0.1845  0.2469
    1DPPC   C4A17864  23.129  11.566   4.950 -0.0631  0.1682 -0.3813
    1DPPC   C1B17865  23.055  11.827   3.581  0.2681 -0.2633 -0.2314
    1DPPC   C2B17866  22.980  11.886   3.928 -0.2219  0.2536 -0.0305
    1DPPC   C3B17867  23.208  12.058   4.297  0.3214 -0.0845 -0.0714
    1DPPC   C4B17868  23.295  12.092   4.777  0.2007 -0.0167 -0.2584
    1DPPC   NC317869  20.528  10.095   2.427  0.1015  0.0387  0.0455
    1DPPC   PO417870  20.297  10.246   2.693  0.0382  0.4205 -0.3312
    1DPPC   GL117871  20.176  10.303   3.069 -0.3677  0.0621  0.0723
    1DPPC   GL217872  20.186  10.603   3.091  0.2333 -0.0918 -0.0005
    1DPPC   C1A17873  20.202  10.203   3.492 -0.2633 -0.1212  0.0933
    1DPPC   C2A17874  20.329  10.237   3.849  0.3698  0.0101  0.1852
    1DPPC   C3A17875  20.321  10.312   4.301  0.2556  0.1487 -0.0729
    1DPPC   C4A17876  20.327  10.248   4.734 -0.2807  0.2203 -0.0459
    1DPPC   C1B17877  20.240  10.740   3.527 -0.1221  0.2000 -0.0064
    1DPPC   C2B17878  20.341  10.728   3.948  0.0736  0.0231 -0.0197
    1DPPC   C3B17879  20.202  10.787   4.307 -0.3718  0.0707  0.3631
    1DPPC   C4B17880  20.228  10.762   4.693  0.0342  0.0214 -0.3268
    1DPPC   NC317881  25.924   6.691   2.043 -0.2488 -0.0771 -0.1355
    1DPPC   PO417882  26.282   6.406   2.238 -0.0038 -0.1191 -0.0674
    1DPPC   GL117883  26.304   6.503   2.636 -0.1413  0.1407 -0.0100
    1DPPC   GL217884  26.293   6.857   2.568  0.0428  0.1067 -0.1436
    1DPPC   C1A17885  26.303   6.639   3.075  0.1186 -0.1378 -0.0601
    1DPPC   C2A17886  26.268   6.749   3.431 -0.2293  0.0056  0.1077
    1DPPC   C3A17887  26.490   6.743   3.728  0.2500  0.1452  0.2447
    1DPPC   C4A17888  26.787   6.734   4.078 -0.0926 -0.2146 -0.1868
    1DPPC   C1B17889  26.682   6.899   2.875 -0.0757 -0.0905  0.3091
    1DPPC   C2B17890  26.737   6.881   3.304 -0.1196 -0.1124 -0.0491
    1DPPC   C3B17891  26.988   7.003   3.709 -0.0163 -0.3046  0.1956
    1DPPC   C4B17892  27.227   7.041   4.070  0.4581  0.0918 -0.1127
    1DPPC   NC317893  16.662  10.806   2.700  0.0575 -0.0806  0.2428
    1DPPC   PO417894  16.318  10.732   2.842  0.0062  0.2239 -0.0633
    1DPPC   GL117895  16.180  10.878   3.251 -0.0781  0.1112  0.1463
    1DPPC   GL217896  16.009  11.147   3.300 -0.3212  0.3118 -0.2941
    1DPPC   C1A17897  15.876  10.815   3.652  0.0250 -0.0187 -0.2850
    1DPPC   C2A17898  15.696  10.567   3.860  0.0724  0.1463 -0.1134
    1DPPC   C3A17899  15.761  10.441   4.272 -0.1748 -0.1270  0.3376
    1DPPC   C4A17900  15.998  10.269   4.619 -0.0727 -0.0178  0.0313
    1DPPC   C1B17901  15.883  11.352   3.694  0.1929  0.1703  0.2576
    1DPPC   C2B17902  15.683  11.567   3.937  0.0239  0.1936 -0.0135
    1DPPC   C3B17903  15.757  11.608   4.260 -0.2123 -0.5536  0.0104
    1DPPC   C4B17904  15.587  11.650   4.700  0.1982  0.1242 -0.0278
    1DPPC   NC317905  22.814   2.568   2.631  0.1444 -0.0760 -0.0395
    1DPPC   PO417906  22.830   2.768   3.048  0.0795  0.0170  0.0510
    1DPPC   GL117907  23.132   2.777   3.382  0.0256 -0.0770  0.4713
    1DPPC   GL217908  23.069   2.520   3.538 -0.0498  0.1935 -0.0757
    1DPPC   C1A17909  23.190   2.952   3.719  0.1518 -0.1872 -0.2773
    1DPPC   C2A17910  23.213   3.024   4.173 -0.1346  0.1185 -0.0441
    1DPPC   C3A17911  23.289   3.053   4.550 -0.1391 -0.0655  0.0356
    1DPPC   C4A17912  23.222   3.205   4.990 -0.1342 -0.1377 -0.0893
    1DPPC   C1B17913  23.039   2.546   3.962  0.1913  0.0987 -0.0262
    1DPPC   C2B17914  23.187   2.528   4.370  0.2081 -0.0448  0.0366
    1DPPC   C3B17915  23.078   2.496   4.796 -0.0338 -0.2710  0.1128
    1DPPC   C4B17916  23.057   2.185   5.202 -0.0646 -0.3228 -0.0023
    1DPPC   NC317917  17.380  10.375   2.353  0.0720  0.2840  0.3198
    1DPPC   PO417918  17.147  10.571   2.692  0.1897 -0.0920  0.1541
    1DPPC   GL117919  16.979  10.658   3.097  0.0546  0.2605  0.0455
    1DPPC   GL217920  16.604  10.571   3.215  0.5696  0.1623 -0.3564
    1DPPC   C1A17921  17.075  10.939   3.415 -0.0691 -0.1212  0.1518
    1DPPC   C2A17922  16.917  11.077   3.845 -0.1821  0.0147  0.0335
    1DPPC   C3A17923  16.643  11.175   4.249 -0.0891  0.1076 -0.0692
    1DPPC   C4A17924  16.739  11.312   4.616 -0.0185  0.0710 -0.0787
    1DPPC   C1B17925  16.410  10.758   3.664  0.1802  0.1323 -0.0140
    1DPPC   C2B17926  16.118  10.888   4.041  0.2309  0.1045 -0.0326
    1DPPC   C3B17927  15.863  10.946   4.300  0.1758 -0.4131 -0.2749
    1DPPC   C4B17928  15.530  10.749   4.587  0.0746  0.0042  0.2273
    1DPPC   NC317929   2.340   6.045   2.355  0.2541 -0.0877 -0.1300
    1DPPC   PO417930   2.641   6.354   2.371  0.2313 -0.1854  0.3676
    1DPPC   GL117931   2.628   6.498   2.729  0.0047 -0.1213 -0.1520
    1DPPC   GL217932   2.845   6.774   2.809 -0.3150  0.2505  0.0272
    1DPPC   C1A17933   2.275   6.431   3.061  0.1024  0.0237 -0.1981
    1DPPC   C2A17934   2.243   6.190   3.315 -0.0033 -0.2833  0.1748
    1DPPC   C3A17935   2.195   6.136   3.663  0.0572 -0.1725  0.2779
    1DPPC   C4A17936   1.946   5.855   3.799  0.1828 -0.0749 -0.1440
    1DPPC   C1B17937   2.498   6.957   2.646 -0.1938 -0.1548  0.1721
    1DPPC   C2B17938   2.088   6.904   2.789  0.0229 -0.1511 -0.0678
    1DPPC   C3B17939   1.663   7.029   2.817  0.2255  0.4212 -0.1580
    1DPPC   C4B17940   1.455   7.458   2.763 -0.1583 -0.0241 -0.1453
    1DPPC   NC317941   9.020  27.319   2.449  0.2503 -0.0930  0.0636
    1DPPC   PO417942   8.712  26.846   2.459  0.0085 -0.0830 -0.1108
    1DPPC   GL117943   8.655  26.607   2.835 -0.1947 -0.1378 -0.0403
    1DPPC   GL217944   8.892  26.441   3.054  0.0015  0.0157 -0.0708
    1DPPC   C1A17945   8.328  26.661   3.160  0.2271 -0.0967 -0.3011
    1DPPC   C2A17946   8.327  26.312   3.428  0.2584 -0.3758  0.1693
    1DPPC   C3A17947   8.116  25.845   3.505  0.2232 -0.4370  0.1949
    1DPPC   C4A17948   8.199  25.489   3.814 -0.2793 -0.2584 -0.0558
    1DPPC   C1B17949   9.204  26.314   3.356 -0.0697 -0.1939 -0.0578
    1DPPC   C2B17950   9.212  26.489   3.820 -0.2710  0.0235  0.2490
    1DPPC   C3B17951   8.945  26.863   3.968 -0.2775 -0.1539 -0.3146
    1DPPC   C4B17952   8.836  27.341   4.168  0.2391  0.0884 -0.3276
    1DPPC   NC317953  24.600   8.836   2.601  0.4977  0.1026  0.0188
    1DPPC   PO417954  24.614   8.416   2.469  0.2165 -0.1360 -0.0026
    1DPPC   GL117955  24.844   8.410   2.942  0.0532 -0.0816 -0.1563
    1DPPC   GL217956  25.160   8.390   2.947 -0.0698 -0.1639  0.1024
    1DPPC   C1A17957  24.926   8.091   3.227 -0.0429 -0.1967  0.1636
    1DPPC   C2A17958  25.058   8.148   3.580  0.0052  0.2255  0.3129
    1DPPC   C3A17959  25.261   8.028   4.060  0.0695 -0.0019 -0.1397
    1DPPC   C4A17960  25.649   8.183   4.312  0.3079 -0.0790 -0.0802
    1DPPC   C1B17961  25.277   8.481   3.291  0.1245 -0.1409 -0.0078
    1DPPC   C2B17962  25.393   8.464   3.755 -0.1096 -0.0680 -0.0851
    1DPPC   C3B17963  25.214   8.545   4.092 -0.1625  0.1130  0.0313
    1DPPC   C4B17964  24.932   8.508   4.425 -0.0926  0.0526 -0.1991
    1DPPC   NC317965  17.370  12.960   2.729 -0.0349 -0.0542  0.0986
    1DPPC   PO417966  17.109  13.219   2.543 -0.0673  0.1303 -0.1813
    1DPPC   GL117967  17.018  13.399   3.044 -0.0923  0.2369  0.2078
    1DPPC   GL217968  17.327  13.398   3.275 -0.0557 -0.0539 -0.0342
    1DPPC   C1A17969  16.770  13.599   3.421  0.0015 -0.0238  0.2126
    1DPPC   C2A17970  16.784  13.618   3.915 -0.1124 -0.2676 -0.1692
    1DPPC   C3A17971  16.750  13.762   4.324 -0.1162 -0.1322 -0.1466
    1DPPC   C4A17972  16.762  13.455   4.723 -0.0032 -0.1762  0.0445
    1DPPC   C1B17973  17.393  13.402   3.686 -0.0617  0.1371  0.0616
    1DPPC   C2B17974  17.325  13.410   4.095 -0.0764  0.0007  0.0715
    1DPPC   C3B17975  17.230  13.471   4.526 -0.0949  0.2425 -0.1241
    1DPPC   C4B17976  17.280  13.413   5.011  0.0132 -0.0335  0.0162
    1DPPC   NC317977  22.895  10.122   2.639 -0.2381  0.1138  0.0274
    1DPPC   PO417978  22.691  10.513   2.588  0.1418 -0.1002  0.3208
    1DPPC   GL117979  22.554  10.644   3.061 -0.1065 -0.5166 -0.1484
    1DPPC   GL217980  22.731  10.914   3.171 -0.0285 -0.1277  0.1424
    1DPPC   C1A17981  22.253  10.582   3.380 -0.3888 -0.1248 -0.1673
    1DPPC   C2A17982  22.331  10.477   3.810  0.0313 -0.0631 -0.1973
    1DPPC   C3A17983  22.282  10.492   4.346  0.0968 -0.0525 -0.0721
    1DPPC   C4A17984  22.068  10.614   4.648  0.3125  0.2488 -0.0930
    1DPPC   C1B17985  22.498  10.943   3.575  0.0548  0.0388  0.0784
    1DPPC   C2B17986  22.383  11.017   3.997  0.1360 -0.1322 -0.0477
    1DPPC   C3B17987  22.208  11.052   4.384 -0.2550 -0.1211 -0.2260
    1DPPC   C4B17988  22.274  11.223   4.793 -0.1802  0.3201 -0.0126
    1DPPC   NC317989  19.278  11.172   2.967 -0.0590 -0.1663 -0.0880
    1DPPC   PO417990  19.504  11.579   2.930 -0.1265  0.4426 -0.1045
    1DPPC   GL117991  19.610  11.464   3.358  0.1191 -0.0177  0.3056
    1DPPC   GL217992  19.343  11.201   3.429  0.2638 -0.1349 -0.0745
    1DPPC   C1A17993  19.621  11.485   3.717 -0.1285 -0.0923 -0.2604
    1DPPC   C2A17994  19.526  11.481   4.171  0.2218  0.1021 -0.0785
    1DPPC   C3A17995  19.473  11.651   4.612 -0.1038  0.0322 -0.0732
    1DPPC   C4A17996  19.214  11.869   4.866 -0.1951  0.0550  0.0997
    1DPPC   C1B17997  19.239  11.207   3.821 -0.2523  0.0975  0.0415
    1DPPC   C2B17998  19.258  11.035   4.272  0.2167  0.0655 -0.3015
    1DPPC   C3B17999  19.324  11.158   4.565 -0.0387 -0.1142  0.2322
    1DPPC   C4B18000  19.438  11.278   4.969 -0.2019 -0.3814  0.2179
    1DPPC   NC318001  24.585   4.565   2.782  0.1604 -0.0447 -0.1663
    1DPPC   PO418002  24.538   4.967   2.695  0.1127 -0.2188 -0.2063
    1DPPC   GL118003  24.448   5.155   3.079 -0.0436 -0.2932  0.1339
    1DPPC   GL218004  24.116   5.313   3.155  0.1649  0.0041  0.0336
    1DPPC   C1A18005  24.555   5.186   3.433  0.1907  0.0864  0.0303
    1DPPC   C2A18006  24.600   5.172   3.933 -0.1205 -0.1377  0.3084
    1DPPC   C3A18007  24.683   5.177   4.377 -0.1027  0.0736  0.0930
    1DPPC   C4A18008  24.739   4.929   4.649  0.0566  0.0455 -0.0584
    1DPPC   C1B18009  24.088   5.074   3.550 -0.0215  0.0929  0.1785
    1DPPC   C2B18010  24.054   5.221   3.982 -0.0195  0.0285 -0.0096
    1DPPC   C3B18011  24.232   5.298   4.405 -0.0506  0.2031 -0.0517
    1DPPC   C4B18012  24.394   5.365   4.722 -0.0194  0.1664  0.1370
    1DPPC   NC318013   0.624  13.914   2.552  0.2010  0.0020  0.0421
    1DPPC   PO418014   1.044  14.165   2.762  0.0650 -0.0481 -0.1648
    1DPPC   GL118015   1.131  14.368   3.227 -0.2931  0.0231  0.1461
    1DPPC   GL218016   1.445  14.504   3.246  0.0162  0.1647 -0.1387
    1DPPC   C1A18017   1.100  14.339   3.616 -0.2230 -0.2895  0.2902
    1DPPC   C2A18018   1.388  14.375   3.877  0.0466 -0.1795  0.1096
    1DPPC   C3A18019   1.803  14.207   4.021  0.3683  0.0868 -0.0089
    1DPPC   C4A18020   2.000  13.790   4.028 -0.0709 -0.3233  0.1600
    1DPPC   C1B18021   1.745  14.277   3.539  0.0269  0.1105  0.1992
    1DPPC   C2B18022   1.958  13.914   3.504  0.0497 -0.0845 -0.2037
    1DPPC   C3B18023   2.199  13.584   3.572 -0.2662 -0.1244  0.1036
    1DPPC   C4B18024   2.443  13.416   3.915 -0.3076  0.1600  0.1850
    1DPPC   NC318025  24.215   8.000   2.484  0.1264 -0.1094  0.2119
    1DPPC   PO418026  23.813   8.199   2.563  0.0158 -0.0107 -0.1762
    1DPPC   GL118027  23.688   8.213   3.044 -0.3050  0.1657  0.0601
    1DPPC   GL218028  23.394   8.111   3.178  0.1411  0.0964 -0.1075
    1DPPC   C1A18029  23.853   8.317   3.316  0.0031 -0.2222 -0.1450
    1DPPC   C2A18030  24.071   8.197   3.643  0.4331 -0.0898  0.2115
    1DPPC   C3A18031  24.180   8.084   3.995  0.1533  0.0165 -0.1681
    1DPPC   C4A18032  24.354   8.122   4.357 -0.2574  0.1227 -0.0936
    1DPPC   C1B18033  23.461   8.095   3.518 -0.1853  0.0947  0.0387
    1DPPC   C2B18034  23.650   8.073   3.871 -0.1979 -0.0263  0.1848
    1DPPC   C3B18035  23.715   8.119   4.255 -0.2076  0.0476 -0.1462
    1DPPC   C4B18036  23.770   8.356   4.666  0.1413 -0.0471 -0.4844
    1DPPC   NC318037  19.385  18.209   2.984  0.0502  0.1868 -0.0263
    1DPPC   PO418038  19.535  17.873   3.180  0.1208  0.1664 -0.5142
    1DPPC   GL118039  19.533  17.950   3.687  0.0115 -0.4335 -0.5116
    1DPPC   GL218040  19.714  17.737   3.784  0.1128 -0.2779  0.1262
    1DPPC   C1A18041  19.456  18.114   4.040 -0.3461 -0.2970  0.0645
    1DPPC   C2A18042  19.349  18.124   4.388 -0.0625 -0.2336 -0.1547
    1DPPC   C3A18043  19.374  18.350   4.746  0.2554  0.1827 -0.0506
    1DPPC   C4A18044  19.482  18.310   5.124  0.0043 -0.0628 -0.0424
    1DPPC   C1B18045  19.744  17.533   4.188  0.2060  0.0579 -0.1203
    1DPPC   C2B18046  19.732  17.456   4.623  0.3451 -0.1451  0.1064
    1DPPC   C3B18047  20.073  17.607   4.757  0.1916  0.0266 -0.2312
    1DPPC   C4B18048  20.291  17.986   4.602 -0.1960 -0.1028 -0.1307
    1DPPC   NC318049  19.713   8.637   2.638 -0.0689 -0.1850 -0.2073
    1DPPC   PO418050  19.839   8.233   2.622  0.2392  0.0844 -0.1888
    1DPPC   GL118051  20.143   8.441   2.952 -0.2619 -0.2050  0.2399
    1DPPC   GL218052  20.129   8.832   2.982 -0.4202 -0.1163  0.1827
    1DPPC   C1A18053  20.195   8.542   3.378 -0.0069 -0.1881  0.1423
    1DPPC   C2A18054  20.142   8.432   3.731  0.2393 -0.0071 -0.0263
    1DPPC   C3A18055  20.050   8.316   4.109 -0.2550 -0.2912 -0.0502
    1DPPC   C4A18056  19.839   8.404   4.513  0.4483  0.0332 -0.0065
    1DPPC   C1B18057  20.296   9.025   3.341 -0.0302 -0.1086 -0.0670
    1DPPC   C2B18058  20.204   8.975   3.839  0.1891 -0.0218 -0.0108
    1DPPC   C3B18059  20.034   8.842   4.294 -0.4168  0.0336 -0.0966
    1DPPC   C4B18060  19.965   8.847   4.711 -0.1120 -0.3579 -0.0562
    1DPPC   NC318061  19.226  13.225   2.300 -0.1718 -0.3363 -0.0690
    1DPPC   PO418062  19.428  12.915   2.505  0.2704 -0.3019  0.0751
    1DPPC   GL118063  19.555  13.140   2.877 -0.0144 -0.2550  0.1133
    1DPPC   GL218064  19.440  13.331   3.070 -0.1594  0.0340 -0.0119
    1DPPC   C1A18065  19.492  12.855   3.300  0.0891 -0.1968  0.0626
    1DPPC   C2A18066  19.356  12.813   3.641  0.3538  0.1146  0.2086
    1DPPC   C3A18067  19.325  12.926   4.074  0.1092  0.0969 -0.1845
    1DPPC   C4A18068  19.443  12.972   4.561 -0.0997 -0.2803 -0.2059
    1DPPC   C1B18069  19.270  13.356   3.412  0.1690 -0.1080  0.1742
    1DPPC   C2B18070  19.380  13.348   3.801 -0.0027  0.0771  0.1770
    1DPPC   C3B18071  19.428  13.438   4.202 -0.1022 -0.0484  0.3069
    1DPPC   C4B18072  19.484  13.517   4.550  0.0694  0.1796  0.2184
    1DPPC   NC318073   1.275  12.583   2.340  0.7298 -0.0461  0.0038
    1DPPC   PO418074   0.838  12.698   2.248 -0.1630 -0.2740  0.2188
    1DPPC   GL118075   0.669  12.433   2.622 -0.0370  0.1658 -0.4121
    1DPPC   GL218076   0.541  12.697   2.820  0.1406  0.0730  0.0743
    1DPPC   C1A18077   0.792  12.187   2.867  0.1569 -0.1284  0.0396
    1DPPC   C2A18078   0.902  12.004   3.147 -0.3913  0.0834 -0.0837
    1DPPC   C3A18079   1.007  12.074   3.567  0.3714  0.1850  0.0468
    1DPPC   C4A18080   1.259  12.022   3.890  0.1277  0.2883  0.1542
    1DPPC   C1B18081   0.708  12.500   3.283 -0.2934 -0.0072 -0.2106
    1DPPC   C2B18082   0.791  12.475   3.756  0.1624 -0.1585 -0.1731
    1DPPC   C3B18083   0.771  12.552   4.133  0.2913  0.0368 -0.1205
    1DPPC   C4B18084   0.954  12.551   4.560  0.0860  0.2817 -0.1027
    1DPPC   NC318085  22.259   5.291   2.831  0.2020  0.1654 -0.1697
    1DPPC   PO418086  22.269   4.884   2.951  0.1555  0.0031 -0.0208
    1DPPC   GL118087  22.054   4.999   3.269 -0.2021  0.0337 -0.2409
    1DPPC   GL218088  21.765   5.053   3.187 -0.1511  0.1515 -0.0176
    1DPPC   C1A18089  22.125   5.192   3.589  0.1124 -0.2456 -0.1205
    1DPPC   C2A18090  22.235   5.411   3.946  0.0813  0.0643 -0.0001
    1DPPC   C3A18091  22.160   5.591   4.339 -0.0193 -0.0220  0.0356
    1DPPC   C4A18092  22.163   5.880   4.757 -0.3958 -0.2550 -0.4017
    1DPPC   C1B18093  21.597   5.039   3.539  0.2105  0.1704  0.1875
    1DPPC   C2B18094  21.571   5.154   3.913  0.2593 -0.1258 -0.0390
    1DPPC   C3B18095  21.725   5.274   4.343 -0.0686  0.0957  0.0514
    1DPPC   C4B18096  21.902   5.393   4.730  0.0511 -0.1397 -0.2391
    1DPPC   NC318097  21.657  11.722   2.806  0.1210  0.0453  0.1949
    1DPPC   PO418098  21.804  12.096   2.920 -0.0253 -0.0848 -0.1515
    1DPPC   GL118099  21.869  12.128   3.314  0.0627 -0.0710 -0.0644
    1DPPC   GL218100  22.157  11.995   3.433 -0.0058  0.1256  0.1559
    1DPPC   C1A18101  21.731  12.234   3.602  0.1732 -0.3688 -0.0662
    1DPPC   C2A18102  21.780  12.234   4.058  0.0919  0.2225 -0.0212
    1DPPC   C3A18103  21.854  12.360   4.423 -0.0416 -0.0173 -0.0442
    1DPPC   C4A18104  21.565  12.649   4.666  0.1892 -0.0422  0.1804
    1DPPC   C1B18105  21.981  11.834   3.866  0.0519 -0.1221  0.2507
    1DPPC   C2B18106  22.012  11.878   4.350 -0.1694  0.0566 -0.1305
    1DPPC   C3B18107  21.946  11.557   4.675 -0.0919 -0.0697 -0.0193
    1DPPC   C4B18108  21.907  11.527   5.077 -0.0102 -0.1839 -0.0175
    1DPPC   NC318109  17.033  16.900   2.757  0.3967  0.1910 -0.0456
    1DPPC   PO418110  17.355  17.257   2.704  0.0650  0.1617 -0.1704
    1DPPC   GL118111  17.325  17.262   3.198 -0.0511  0.0009 -0.0704
    1DPPC   GL218112  17.501  17.127   3.405  0.1425  0.1979  0.5063
    1DPPC   C1A18113  16.990  17.323   3.534  0.3124 -0.0376  0.5159
    1DPPC   C2A18114  16.722  17.588   3.757  0.1977 -0.2239  0.0330
    1DPPC   C3A18115  16.398  17.638   4.080 -0.5748 -0.1127 -0.4629
    1DPPC   C4A18116  16.478  17.753   4.450  0.3815  0.1168 -0.0511
    1DPPC   C1B18117  17.383  17.157   3.767 -0.2364 -0.3464 -0.2633
    1DPPC   C2B18118  17.074  17.373   3.997 -0.0939  0.3188  0.0253
    1DPPC   C3B18119  16.969  17.676   4.363  0.3432  0.1864  0.0918
    1DPPC   C4B18120  17.002  18.033   4.737  0.2090 -0.0596  0.0683
    1DPPC   NC318121  16.782   8.812   2.600 -0.1111  0.2969  0.0119
    1DPPC   PO418122  17.072   8.483   2.675  0.0561 -0.1259  0.3103
    1DPPC   GL118123  17.019   8.611   3.102  0.0723  0.1831 -0.2138
    1DPPC   GL218124  17.035   8.945   3.198 -0.0645 -0.0997 -0.0071
    1DPPC   C1A18125  16.653   8.492   3.432  0.0382  0.0218  0.1203
    1DPPC   C2A18126  16.379   8.413   3.811  0.1116 -0.0221  0.1784
    1DPPC   C3A18127  16.045   8.605   4.067  0.0230 -0.0516  0.0278
    1DPPC   C4A18128  15.730   8.954   4.115 -0.1436  0.1568 -0.0396
    1DPPC   C1B18129  16.941   8.850   3.611 -0.0206 -0.1089 -0.2142
    1DPPC   C2B18130  16.708   8.778   3.902  0.0524  0.0818 -0.2411
    1DPPC   C3B18131  16.609   8.843   4.334  0.0013  0.2365 -0.1398
    1DPPC   C4B18132  16.647   8.588   4.610  0.1784 -0.0285 -0.2634
    1DPPC   NC318133  24.420   9.790   2.374 -0.1122 -0.1369 -0.0357
    1DPPC   PO418134  24.362   9.764   2.779  0.0271 -0.0391 -0.0406
    1DPPC   GL118135  24.529   9.913   3.166  0.3484  0.1796  0.0516
    1DPPC   GL218136  24.618  10.175   3.328 -0.0354  0.0703  0.0209
    1DPPC   C1A18137  24.519   9.685   3.507  0.3450  0.2413 -0.2248
    1DPPC   C2A18138  24.596   9.447   3.804 -0.0650 -0.6072  0.0332
    1DPPC   C3A18139  24.566   9.422   4.228  0.0617 -0.0317 -0.0335
    1DPPC   C4A18140  24.601   9.371   4.570 -0.0826 -0.1758 -0.0742
    1DPPC   C1B18141  24.679  10.122   3.692  0.0152 -0.2389  0.1606
    1DPPC   C2B18142  24.638   9.879   4.056 -0.0566  0.3659  0.1835
    1DPPC   C3B18143  24.656   9.896   4.512 -0.0006 -0.0145 -0.0862
    1DPPC   C4B18144  24.696  10.142   4.921  0.0208 -0.2027  0.0887
    1DPPC   NC318145  27.054  13.657   2.862 -0.1997 -0.1066  0.2857
    1DPPC   PO418146  27.225  13.135   2.774 -0.1117 -0.0350  0.1702
    1DPPC   GL118147  27.222  13.289   3.186  0.1404  0.0160  0.0931
    1DPPC   GL218148  26.920  13.485   3.334 -0.0116 -0.0150  0.2185
    1DPPC   C1A18149  27.412  13.517   3.555 -0.2179  0.2302 -0.0217
    1DPPC   C2A18150  27.351  13.506   4.022 -0.1838  0.1535 -0.0827
    1DPPC   C3A18151  27.413  13.628   4.454 -0.1303 -0.0484  0.0994
    1DPPC   C4A18152  27.236  13.423   4.836  0.1363 -0.2889 -0.1420
    1DPPC   C1B18153  26.836  13.625   3.814  0.2348 -0.2554  0.0936
    1DPPC   C2B18154  26.986  13.730   4.228 -0.1131 -0.2182  0.2015
    1DPPC   C3B18155  26.773  13.572   4.646  0.1211  0.1825  0.2177
    1DPPC   C4B18156  26.534  13.218   4.926 -0.0116 -0.2538 -0.2456
    1DPPC   NC318157  27.668   8.680   2.116  0.1417 -0.0583  0.1540
    1DPPC   PO418158  28.178   8.712   2.086  0.2059  0.0147 -0.2189
    1DPPC   GL118159  28.012   8.688   2.575  0.0289  0.0398  0.0094
    1DPPC   GL218160  27.654   8.809   2.554  0.3882 -0.2022 -0.5498
    1DPPC   C1A18161  28.254   8.586   3.004  0.2067 -0.0401 -0.0304
    1DPPC   C2A18162  28.646   8.543   3.244  0.1259  0.0036  0.0598
    1DPPC   C3A18163  28.919   8.457   3.590  0.1541  0.1088 -0.0964
    1DPPC   C4A18164  28.811   8.628   3.944 -0.0050  0.1955 -0.3092
    1DPPC   C1B18165  27.724   8.558   2.917 -0.0698  0.2562  0.2076
    1DPPC   C2B18166  27.917   8.501   3.335 -0.0869 -0.0249  0.0618
    1DPPC   C3B18167  28.283   8.503   3.608  0.1016 -0.3197  0.0849
    1DPPC   C4B18168  28.329   8.687   4.040 -0.1124 -0.0522 -0.1415
    1DPPC   NC318169  27.913   9.218   2.275  0.0304  0.2275  0.1095
    1DPPC   PO418170  27.442   9.271   2.419 -0.0515  0.2145  0.1108
    1DPPC   GL118171  27.275   9.480   2.814 -0.1086 -0.1620  0.0262
    1DPPC   GL218172  27.138   9.780   2.907  0.0091  0.0110  0.1397
    1DPPC   C1A18173  27.533   9.306   3.063 -0.0849 -0.2992 -0.1492
    1DPPC   C2A18174  27.481   9.339   3.486  0.0498  0.0151  0.0660
    1DPPC   C3A18175  27.543   9.261   3.844 -0.0078 -0.0416 -0.1000
    1DPPC   C4A18176  27.619   9.089   4.231 -0.1154 -0.0408 -0.0677
    1DPPC   C1B18177  27.199   9.748   3.250  0.1263 -0.0233  0.1655
    1DPPC   C2B18178  27.208   9.700   3.667  0.0448  0.0155  0.0033
    1DPPC   C3B18179  27.181   9.670   4.094 -0.0590  0.0077  0.2559
    1DPPC   C4B18180  27.420   9.586   4.548 -0.0496  0.3032  0.1757
    1DPPC   NC318181  19.959   6.277   2.464  0.4717  0.1296 -0.0597
    1DPPC   PO418182  19.494   6.293   2.322 -0.1053  0.0871  0.2443
    1DPPC   GL118183  19.621   6.068   2.787  0.1045  0.1669  0.2980
    1DPPC   GL218184  19.883   6.161   2.968  0.0191  0.0243 -0.0364
    1DPPC   C1A18185  19.497   5.885   3.171 -0.1064  0.1679  0.2213
    1DPPC   C2A18186  19.182   5.760   3.441  0.2494 -0.2431  0.1927
    1DPPC   C3A18187  18.894   5.732   3.802  0.0135 -0.0229  0.0245
    1DPPC   C4A18188  18.507   5.727   4.162  0.1922  0.0220  0.2650
    1DPPC   C1B18189  19.817   6.140   3.517 -0.2108  0.0398  0.2388
    1DPPC   C2B18190  19.538   6.015   3.747  0.0983 -0.0387  0.0168
    1DPPC   C3B18191  19.310   5.852   4.007  0.1015  0.0809  0.1806
    1DPPC   C4B18192  19.067   5.635   4.327 -0.0932  0.2038 -0.1217
    1DPPC   NC318193  26.510  11.683   2.589 -0.2619 -0.0754  0.0806
    1DPPC   PO418194  26.585  12.070   2.728  0.1641  0.0927  0.0315
    1DPPC   GL118195  26.844  11.948   2.998 -0.4161  0.0748 -0.0322
    1DPPC   GL218196  26.788  12.223   3.224 -0.0349 -0.0638 -0.0641
    1DPPC   C1A18197  27.092  11.898   3.406  0.1277 -0.5196  0.0603
    1DPPC   C2A18198  27.237  11.810   3.649  0.2935  0.1779  0.0523
    1DPPC   C3A18199  27.236  11.772   4.096  0.0560  0.2771 -0.0767
    1DPPC   C4A18200  27.283  11.614   4.547  0.1047  0.1991 -0.0993
    1DPPC   C1B18201  26.852  12.224   3.681  0.0721  0.0735  0.0750
    1DPPC   C2B18202  26.887  12.200   4.151  0.0890 -0.2472 -0.6969
    1DPPC   C3B18203  26.918  11.979   4.517  0.2616  0.1460  0.3226
    1DPPC   C4B18204  26.757  11.886   4.881 -0.0003  0.1442  0.0895
    1DPPC   NC318205  26.023   4.093   1.917  0.1237  0.0194  0.0391
    1DPPC   PO418206  26.328   4.438   2.118  0.0775  0.4294 -0.2336
    1DPPC   GL118207  26.299   4.543   2.513  0.1048 -0.0122  0.4481
    1DPPC   GL218208  25.972   4.803   2.598  0.1987  0.0763 -0.0630
    1DPPC   C1A18209  26.285   4.611   2.935 -0.0250  0.0548 -0.2374
    1DPPC   C2A18210  26.212   4.737   3.414 -0.0032  0.0183 -0.0258
    1DPPC   C3A18211  26.152   4.792   3.869 -0.2165 -0.0807 -0.0066
    1DPPC   C4A18212  26.114   4.388   4.186 -0.0064 -0.2503  0.2433
    1DPPC   C1B18213  25.828   4.767   3.091  0.3082 -0.0706 -0.1403
    1DPPC   C2B18214  25.565   4.672   3.426 -0.0518 -0.3590  0.3884
    1DPPC   C3B18215  25.685   4.571   3.838  0.2145  0.0126  0.1988
    1DPPC   C4B18216  25.582   4.498   4.284 -0.1543  0.1612  0.2946
    1DPPC   NC318217  18.487  13.380   2.777  0.1237 -0.1158 -0.2106
    1DPPC   PO418218  18.543  13.030   2.842 -0.0386  0.0035  0.5268
    1DPPC   GL118219  18.394  13.045   3.182 -0.1960  0.0445 -0.1745
    1DPPC   GL218220  18.114  12.952   3.291  0.2304  0.0132 -0.2633
    1DPPC   C1A18221  18.376  13.263   3.628  0.0065 -0.2170  0.3477
    1DPPC   C2A18222  18.327  13.370   4.076 -0.1434  0.1735 -0.2162
    1DPPC   C3A18223  18.335  13.388   4.549  0.1053  0.0215  0.0752
    1DPPC   C4A18224  18.281  13.024   4.946 -0.1687  0.0970  0.0906
    1DPPC   C1B18225  18.111  12.828   3.724 -0.0133  0.1182 -0.2135
    1DPPC   C2B18226  18.127  12.793   4.099 -0.2737 -0.0607  0.1889
    1DPPC   C3B18227  18.179  12.955   4.442  0.1121  0.1824 -0.1684
    1DPPC   C4B18228  18.135  12.602   4.654  0.2117 -0.0528 -0.2790
    1DPPC   NC318229  17.973  19.393   2.935  0.0223 -0.2120 -0.3677
    1DPPC   PO418230  17.596  19.319   3.107  0.0565 -0.0559 -0.0501
    1DPPC   GL118231  17.385  19.391   3.474  0.1655 -0.0675 -0.0444
    1DPPC   GL218232  17.208  19.591   3.443  0.2566 -0.0357 -0.4067
    1DPPC   C1A18233  17.349  19.499   3.949  0.0729  0.0804 -0.1149
    1DPPC   C2A18234  17.567  19.710   4.259 -0.0232 -0.3172  0.1124
    1DPPC   C3A18235  17.572  19.865   4.767 -0.1583 -0.3765 -0.0389
    1DPPC   C4A18236  17.374  20.242   4.938 -0.2823  0.3095 -0.0609
    1DPPC   C1B18237  17.248  19.959   3.725  0.1025 -0.1406  0.1729
    1DPPC   C2B18238  17.168  20.060   4.280 -0.0269 -0.0324  0.1143
    1DPPC   C3B18239  17.161  19.895   4.587 -0.0155  0.2337  0.0656
    1DPPC   C4B18240  16.938  19.854   4.967 -0.1561 -0.3871 -0.0159
    1DPPC   NC318241  29.026  19.705   3.543 -0.1077  0.2191 -0.0829
    1DPPC   PO418242  29.383  20.104   3.516  0.0122  0.2502  0.0279
    1DPPC   GL118243  29.397  19.897   3.965  0.0347 -0.0379 -0.0249
    1DPPC   GL218244  29.120  19.661   4.068 -0.0344 -0.0897 -0.0039
    1DPPC   C1A18245  29.539  19.877   4.344  0.0269  0.2254 -0.0952
    1DPPC   C2A18246  29.463  19.651   4.750  0.0154 -0.0004 -0.0062
    1DPPC   C3A18247  29.526  19.643   5.189  0.0664  0.0831  0.0688
    1DPPC   C4A18248   0.242  19.887   5.481  0.1635 -0.2834 -0.0157
    1DPPC   C1B18249  28.992  19.739   4.600 -0.4673 -0.0829 -0.1795
    1DPPC   C2B18250  29.015  19.552   5.007 -0.0196 -0.1697  0.1922
    1DPPC   C3B18251  29.099  19.460   5.415 -0.4243 -0.0507 -0.0388
    1DPPC   C4B18252  29.204  19.285   5.784 -0.0103  0.2329  0.0138
    1DPPC   NC318253  28.691  16.179   2.888  0.0592  0.4611 -0.2050
    1DPPC   PO418254  28.174  16.098   2.748  0.2100  0.1036 -0.1232
    1DPPC   GL118255  28.241  16.196   3.146 -0.0386  0.0656 -0.1819
    1DPPC   GL218256  28.130  16.469   3.291  0.1166 -0.2063  0.0969
    1DPPC   C1A18257  27.891  16.033   3.394 -0.3513 -0.1931  0.2651
    1DPPC   C2A18258  27.559  16.249   3.561  0.2283 -0.1494 -0.2216
    1DPPC   C3A18259  27.224  16.488   3.536 -0.1410 -0.5151  0.2207
    1DPPC   C4A18260  27.241  16.792   3.724  0.0423  0.0193  0.1121
    1DPPC   C1B18261  28.111  16.491   3.691  0.0714  0.3238  0.1081
    1DPPC   C2B18262  27.867  16.202   3.997 -0.0524  0.0400  0.1407
    1DPPC   C3B18263  27.373  16.145   4.059 -0.2573  0.0846 -0.3760
    1DPPC   C4B18264  27.051  15.892   3.808 -0.0495  0.0087 -0.0683
    1DPPC   NC318265  27.937   8.460   1.729 -0.0825  0.1544 -0.2127
    1DPPC   PO418266  27.682   8.139   1.922 -0.1623 -0.0907  0.2825
    1DPPC   GL118267  27.647   8.275   2.386 -0.2709  0.1750 -0.3645
    1DPPC   GL218268  27.481   7.966   2.566  0.1248  0.0252  0.0357
    1DPPC   C1A18269  28.057   8.202   2.670  0.0166 -0.1614  0.2185
    1DPPC   C2A18270  28.144   8.108   3.084 -0.1840  0.0919 -0.0468
    1DPPC   C3A18271  28.486   8.090   3.406  0.2817  0.0509  0.3653
    1DPPC   C4A18272  28.513   8.185   3.848 -0.2755  0.1998  0.1982
    1DPPC   C1B18273  27.668   8.049   2.968 -0.0510  0.3100 -0.0587
    1DPPC   C2B18274  27.791   7.965   3.405  0.3443  0.0571 -0.5877
    1DPPC   C3B18275  28.087   8.059   3.768 -0.0695  0.3867  0.2213
    1DPPC   C4B18276  28.034   8.098   4.200  0.1869 -0.3159  0.1303
    1DPPC   NC318277  20.002  15.929   2.929 -0.0571 -0.1068  0.3131
    1DPPC   PO418278  20.411  16.097   3.174  0.1404  0.1734 -0.1001
    1DPPC   GL118279  20.465  16.114   3.624  0.2002  0.1235  0.1889
    1DPPC   GL218280  20.579  16.424   3.746 -0.1372 -0.0618  0.2101
    1DPPC   C1A18281  20.566  15.957   4.028  0.0782  0.0436 -0.0122
    1DPPC   C2A18282  20.656  15.893   4.484  0.1110  0.1781 -0.1177
    1DPPC   C3A18283  20.645  15.857   4.831  0.2991  0.2104  0.3238
    1DPPC   C4A18284  20.429  15.699   5.219 -0.0423  0.1573 -0.0055
    1DPPC   C1B18285  20.563  16.391   4.232 -0.0500 -0.0404  0.0792
    1DPPC   C2B18286  20.747  16.339   4.693  0.0275 -0.3598  0.1029
    1DPPC   C3B18287  20.699  16.269   5.178 -0.0576 -0.1615  0.4849
    1DPPC   C4B18288  20.764  16.422   5.670  0.0691  0.2272  0.0351
    1DPPC   NC318289  23.393   6.884   2.666 -0.0478 -0.0159  0.1715
    1DPPC   PO418290  23.474   6.472   2.688 -0.0926 -0.0301 -0.1029
    1DPPC   GL118291  23.287   6.556   3.030  0.0495 -0.0709 -0.1635
    1DPPC   GL218292  23.014   6.838   3.125  0.0813 -0.0199  0.2798
    1DPPC   C1A18293  23.352   6.614   3.463 -0.3638 -0.0590 -0.1865
    1DPPC   C2A18294  23.419   6.561   3.840  0.0032 -0.0065 -0.0219
    1DPPC   C3A18295  23.348   6.680   4.205  0.2166  0.1460 -0.1441
    1DPPC   C4A18296  23.305   6.949   4.588 -0.4908 -0.3052 -0.0944
    1DPPC   C1B18297  22.640   6.712   3.315  0.1474  0.1186 -0.1733
    1DPPC   C2B18298  22.459   6.668   3.607  0.0292 -0.0460  0.3766
    1DPPC   C3B18299  22.194   6.781   3.862 -0.1328 -0.0141 -0.0031
    1DPPC   C4B18300  21.967   6.835   4.199 -0.0115 -0.0844  0.1193
    1DPPC   NC318301  24.692  11.976   2.503 -0.1173 -0.0941  0.4291
    1DPPC   PO418302  25.081  11.643   2.508 -0.1103  0.1998 -0.0635
    1DPPC   GL118303  25.315  11.494   2.849 -0.0706  0.0271  0.1618
    1DPPC   GL218304  25.162  11.391   3.082  0.0677  0.2257  0.4700
    1DPPC   C1A18305  25.560  11.448   3.264 -0.0006 -0.0286  0.0744
    1DPPC   C2A18306  25.748  11.405   3.664 -0.0756  0.1084 -0.0053
    1DPPC   C3A18307  25.695  11.520   4.094  0.2880 -0.2080 -0.0536
    1DPPC   C4A18308  25.751  11.664   4.485  0.2618  0.0907 -0.0376
    1DPPC   C1B18309  25.209  11.282   3.542  0.1207  0.2027  0.1173
    1DPPC   C2B18310  25.324  11.207   3.919  0.0755 -0.1107 -0.0192
    1DPPC   C3B18311  25.582  11.020   4.258 -0.3071  0.0338  0.0524
    1DPPC   C4B18312  25.519  10.829   4.606  0.3760 -0.2245 -0.0607
    1DPPC   NC318313  23.737  10.330   2.887  0.2707  0.0048  0.0989
    1DPPC   PO418314  24.211  10.222   2.896 -0.0045 -0.2628  0.1710
    1DPPC   GL118315  24.063  10.094   3.338 -0.0751  0.2682  0.1676
    1DPPC   GL218316  23.733  10.030   3.419 -0.0336 -0.0437 -0.0780
    1DPPC   C1A18317  24.165  10.112   3.686 -0.1023  0.1123 -0.2733
    1DPPC   C2A18318  24.277  10.221   4.165 -0.0235  0.0509 -0.1664
    1DPPC   C3A18319  24.419  10.483   4.489  0.0759  0.3476  0.0188
    1DPPC   C4A18320  24.643  10.670   4.863 -0.1385 -0.3952  0.0934
    1DPPC   C1B18321  23.606  10.015   3.831  0.1769 -0.0172 -0.0365
    1DPPC   C2B18322  23.730  10.073   4.193 -0.1888 -0.2076  0.3075
    1DPPC   C3B18323  24.081  10.139   4.612 -0.0182 -0.1549 -0.1869
    1DPPC   C4B18324  24.099  10.515   4.922 -0.2779 -0.0657 -0.2585
    1DPPC   NC318325  19.237  16.352   2.896  0.0259 -0.1086  0.2329
    1DPPC   PO418326  19.536  16.233   3.118 -0.3705  0.0818  0.1379
    1DPPC   GL118327  19.694  16.499   3.499  0.2600  0.2110 -0.0023
    1DPPC   GL218328  19.995  16.391   3.662 -0.0372 -0.1351 -0.2174
    1DPPC   C1A18329  19.520  16.632   3.881 -0.0883  0.2395  0.0694
    1DPPC   C2A18330  19.317  16.691   4.207  0.1532  0.0663  0.1669
    1DPPC   C3A18331  19.249  16.662   4.598  0.3356 -0.2157  0.0943
    1DPPC   C4A18332  19.191  16.884   4.938  0.1395  0.1587 -0.2184
    1DPPC   C1B18333  20.075  16.175   3.962  0.0381  0.1256  0.1012
    1DPPC   C2B18334  20.212  16.075   4.427  0.0023 -0.2162 -0.3129
    1DPPC   C3B18335  20.204  16.062   4.894 -0.2420  0.1143  0.0805
    1DPPC   C4B18336  20.151  16.097   5.313  0.2112 -0.3396 -0.2364
    1DPPC   NC318337   9.632   2.462   1.990 -0.0997 -0.0853 -0.1499
    1DPPC   PO418338   9.760   2.222   2.311 -0.0836 -0.1453 -0.0163
    1DPPC   GL118339   9.549   2.375   2.702  0.0878  0.2864 -0.0156
    1DPPC   GL218340   9.291   2.625   2.611  0.1457 -0.2185 -0.3842
    1DPPC   C1A18341   9.411   2.467   3.161 -0.1790  0.1794  0.2588
    1DPPC   C2A18342   9.325   2.755   3.388  0.2301 -0.0968 -0.3075
    1DPPC   C3A18343   8.963   2.896   3.532 -0.2328 -0.0120  0.0304
    1DPPC   C4A18344   8.575   2.932   3.757  0.1919  0.0389  0.3348
    1DPPC   C1B18345   9.016   2.652   2.996  0.1303  0.3019 -0.0298
    1DPPC   C2B18346   8.753   2.556   3.277  0.0486  0.1055  0.0978
    1DPPC   C3B18347   8.761   2.420   3.649 -0.1437  0.3595 -0.0685
    1DPPC   C4B18348   8.369   2.151   3.675 -0.0081  0.3157  0.0791
    1DPPC   NC318349  12.394   3.483   2.649 -0.2968  0.2558  0.3536
    1DPPC   PO418350  12.510   3.230   2.791 -0.1605  0.0532  0.1651
    1DPPC   GL118351  12.538   3.435   3.170  0.0535  0.3883 -0.0715
    1DPPC   GL218352  12.878   3.354   3.374  0.0515 -0.1737  0.0086
    1DPPC   C1A18353  12.418   3.563   3.599 -0.0917 -0.1239  0.0218
    1DPPC   C2A18354  12.108   3.745   3.760 -0.1185 -0.1297  0.1555
    1DPPC   C3A18355  11.752   3.693   4.096 -0.0589  0.0237  0.0634
    1DPPC   C4A18356  11.507   3.979   4.280  0.0318 -0.1125  0.0943
    1DPPC   C1B18357  12.866   2.965   3.433  0.1458  0.4175  0.0161
    1DPPC   C2B18358  12.987   2.672   3.798  0.1128  0.3112  0.1315
    1DPPC   C3B18359  12.870   2.560   4.149 -0.4214 -0.1813  0.1302
    1DPPC   C4B18360  12.716   2.214   4.269  0.0830 -0.0761  0.1269
    1DPPC   NC318361  18.942  14.204   2.617 -0.0903 -0.1650 -0.0944
    1DPPC   PO418362  19.275  14.242   2.854 -0.0499  0.1818  0.0980
    1DPPC   GL118363  19.083  14.275   3.259  0.2557 -0.1156 -0.0923
    1DPPC   GL218364  19.394  14.339   3.436  0.1527 -0.0266  0.2323
    1DPPC   C1A18365  18.878  14.433   3.664  0.0261 -0.2833 -0.1758
    1DPPC   C2A18366  18.796  14.462   4.147 -0.1535 -0.0870  0.1363
    1DPPC   C3A18367  18.828  14.348   4.526 -0.1622 -0.0557  0.1434
    1DPPC   C4A18368  18.809  14.377   4.934 -0.2981  0.0539 -0.2399
    1DPPC   C1B18369  19.297  14.503   3.899  0.2034  0.2356 -0.0485
    1DPPC   C2B18370  19.318  14.460   4.392  0.0843  0.0889  0.0741
    1DPPC   C3B18371  19.281  14.219   4.709 -0.3472 -0.1559 -0.0573
    1DPPC   C4B18372  19.276  14.174   5.209 -0.4320  0.1701  0.4506
    1DPPC   NC318373   0.898   6.414   1.925 -0.5266  0.0594  0.2783
    1DPPC   PO418374   0.641   6.700   2.156  0.0348  0.1939  0.0392
    1DPPC   GL118375   0.654   6.732   2.583 -0.1250  0.0196  0.1257
    1DPPC   GL218376   0.420   6.863   2.629 -0.2420  0.0214 -0.2229
    1DPPC   C1A18377   0.825   6.532   2.941 -0.0304 -0.2619  0.0708
    1DPPC   C2A18378   0.893   6.597   3.251 -0.0052  0.2880  0.1995
    1DPPC   C3A18379   1.043   6.264   3.552  0.1071  0.1301  0.3360
    1DPPC   C4A18380   1.060   5.951   3.850  0.0936  0.2110  0.0719
    1DPPC   C1B18381   0.371   7.007   2.978  0.0732 -0.1214  0.0658
    1DPPC   C2B18382   0.219   6.974   3.385 -0.2107  0.1527 -0.1658
    1DPPC   C3B18383   0.204   6.772   3.781  0.2920 -0.1440  0.1409
    1DPPC   C4B18384   0.325   6.712   4.237  0.0006  0.1272 -0.0119
    1DPPC   NC318385   3.888  14.577   2.275 -0.3331  0.1160 -0.0526
    1DPPC   PO418386   3.463  14.722   2.432 -0.1832  0.2171  0.0670
    1DPPC   GL118387   3.341  14.517   2.622  0.2993  0.1245  0.1087
    1DPPC   GL218388   3.021  14.513   2.812 -0.1638 -0.4157 -0.1248
    1DPPC   C1A18389   3.565  14.388   2.997  0.2072  0.0538 -0.2218
    1DPPC   C2A18390   3.734  14.226   3.348  0.0774 -0.0555 -0.1438
    1DPPC   C3A18391   4.078  14.073   3.584 -0.1081  0.0083  0.2532
    1DPPC   C4A18392   4.222  14.004   4.008  0.2681  0.0556 -0.0145
    1DPPC   C1B18393   3.188  14.689   3.187 -0.3171 -0.1279  0.2195
    1DPPC   C2B18394   3.498  14.712   3.448 -0.2788  0.0227  0.0809
    1DPPC   C3B18395   3.669  14.531   3.700  0.1258  0.1663 -0.3585
    1DPPC   C4B18396   4.048  14.472   3.945  0.0613 -0.1269  0.2386
    1DPPC   NC318397   1.033  16.217   3.336 -0.1360  0.4710  0.0295
    1DPPC   PO418398   1.405  16.241   3.187  0.2279 -0.0117  0.0863
    1DPPC   GL118399   1.387  16.074   3.654 -0.1868 -0.0038 -0.0464
    1DPPC   GL218400   1.275  15.756   3.579  0.0416  0.1523 -0.0995
    1DPPC   C1A18401   1.500  15.945   4.081 -0.4070 -0.3689 -0.2876
    1DPPC   C2A18402   1.665  15.943   4.537 -0.1291 -0.0753  0.2207
    1DPPC   C3A18403   1.416  16.043   4.916  0.0744  0.1819  0.1245
    1DPPC   C4A18404   1.138  15.893   5.077  0.2474 -0.0657 -0.2330
    1DPPC   C1B18405   1.271  15.475   3.941  0.2467  0.3025  0.1432
    1DPPC   C2B18406   0.960  15.248   4.103 -0.1518 -0.0079  0.0024
    1DPPC   C3B18407   0.938  15.102   4.521 -0.1990 -0.1829 -0.0774
    1DPPC   C4B18408   0.757  15.035   4.830 -0.0711 -0.1049 -0.2758
    1DPPC   NC318409  21.315   6.764   2.954  0.1248 -0.0251 -0.2132
    1DPPC   PO418410  21.110   7.057   2.849  0.2474 -0.0902  0.1643
    1DPPC   GL118411  21.012   7.020   3.282 -0.0009 -0.1339 -0.1571
    1DPPC   GL218412  20.695   7.199   3.106 -0.1736 -0.0401  0.0862
    1DPPC   C1A18413  20.923   6.973   3.666  0.0730 -0.0598  0.0482
    1DPPC   C2A18414  20.886   6.832   4.036  0.1490  0.0995 -0.1756
    1DPPC   C3A18415  20.728   6.745   4.460  0.1004 -0.0936 -0.1519
    1DPPC   C4A18416  20.465   6.849   4.840 -0.1988 -0.1330 -0.0583
    1DPPC   C1B18417  20.475   7.012   3.469  0.3256  0.1404  0.1000
    1DPPC   C2B18418  20.407   6.880   3.904 -0.1005 -0.0196 -0.2690
    1DPPC   C3B18419  20.124   6.801   4.258 -0.0720 -0.1891 -0.1777
    1DPPC   C4B18420  19.975   6.462   4.382  0.0728 -0.1905 -0.0924
    1DPPC   NC318421  21.754   8.058   2.715 -0.0601  0.3829  0.0521
    1DPPC   PO418422  21.407   8.300   2.729 -0.0634  0.0119  0.0536
    1DPPC   GL118423  21.655   8.397   3.030 -0.2991  0.4870  0.2237
    1DPPC   GL218424  21.577   8.602   3.165  0.0870 -0.1146 -0.3627
    1DPPC   C1A18425  21.972   8.367   3.441  0.1822  0.0702  0.0557
    1DPPC   C2A18426  21.976   8.396   3.887  0.0607 -0.0534  0.2370
    1DPPC   C3A18427  21.837   8.376   4.303 -0.0986  0.2105  0.0968
    1DPPC   C4A18428  21.641   8.441   4.743  0.1800 -0.3057 -0.0405
    1DPPC   C1B18429  21.667   8.722   3.619 -0.0884  0.0648  0.0923
    1DPPC   C2B18430  21.546   8.805   4.035  0.0934  0.0220 -0.2650
    1DPPC   C3B18431  21.371   8.613   4.303 -0.0012 -0.1401  0.1800
    1DPPC   C4B18432  21.091   8.405   4.752  0.2109  0.4716  0.0271
    1DPPC   NC318433   6.912  21.399   3.103 -0.0333  0.0069 -0.2448
    1DPPC   PO418434   6.539  21.457   3.341  0.0016 -0.1930  0.0398
    1DPPC   GL118435   6.657  21.190   3.609  0.3059  0.0392  0.2151
    1DPPC   GL218436   6.984  21.327   3.599 -0.0665  0.0011 -0.1906
    1DPPC   C1A18437   6.706  21.040   4.011 -0.1868  0.2293 -0.1003
    1DPPC   C2A18438   6.758  20.794   4.305  0.3765  0.3734 -0.1331
    1DPPC   C3A18439   6.653  20.568   4.677 -0.0505 -0.1135  0.0822
    1DPPC   C4A18440   6.564  20.416   4.994  0.0751  0.1374 -0.3611
    1DPPC   C1B18441   7.186  21.268   4.037 -0.0054  0.0083  0.3355
    1DPPC   C2B18442   7.363  21.129   4.462 -0.0414  0.0363 -0.0171
    1DPPC   C3B18443   7.576  20.766   4.576  0.2141  0.2425 -0.2143
    1DPPC   C4B18444   7.590  20.568   4.978 -0.0729 -0.2410 -0.3945
    1DPPC   NC318445  25.472   4.225   2.033 -0.0798 -0.2092  0.2298
    1DPPC   PO418446  25.438   4.645   2.360  0.2545 -0.2558 -0.4864
    1DPPC   GL118447  25.517   4.368   2.722  0.0694  0.1012  0.0221
    1DPPC   GL218448  25.800   4.332   2.703  0.0850 -0.0216 -0.0512
    1DPPC   C1A18449  25.723   4.299   3.177  0.2615  0.1331 -0.0602
    1DPPC   C2A18450  25.820   4.209   3.561  0.1330  0.1610  0.0886
    1DPPC   C3A18451  26.103   4.039   3.770  0.1426  0.0796  0.1648
    1DPPC   C4A18452  26.474   3.826   3.666  0.0543 -0.0072 -0.0544
    1DPPC   C1B18453  26.158   4.135   2.909  0.0566  0.3430  0.0828
    1DPPC   C2B18454  26.325   4.183   3.338 -0.0670 -0.2334  0.2121
    1DPPC   C3B18455  26.473   4.454   3.750  0.0006  0.3181  0.1622
    1DPPC   C4B18456  26.571   4.542   4.155  0.2464  0.0396 -0.2239
    1DPPC   NC318457  12.920   2.649   2.456 -0.0693  0.1561 -0.1869
    1DPPC   PO418458  12.835   2.217   2.603  0.0867  0.1129  0.0301
    1DPPC   GL118459  12.742   2.293   3.025  0.2500  0.0425  0.0029
    1DPPC   GL218460  12.431   2.190   3.156  0.2485  0.0003  0.1765
    1DPPC   C1A18461  12.799   2.414   3.431  0.0391  0.0899  0.0215
    1DPPC   C2A18462  12.642   2.114   3.797 -0.1804 -0.1192  0.0360
    1DPPC   C3A18463  12.811   1.790   4.000  0.1409  0.0603  0.0889
    1DPPC   C4A18464  13.087   1.710   3.765 -0.0164 -0.1227 -0.3343
    1DPPC   C1B18465  12.291   1.984   3.451 -0.2336  0.5847  0.2315
    1DPPC   C2B18466  12.274   1.682   3.860  0.1993 -0.0878 -0.0865
    1DPPC   C3B18467  11.974   1.422   4.075  0.1865  0.0111  0.0109
    1DPPC   C4B18468  11.596   1.121   4.264  0.2332 -0.0182 -0.0428
    1DPPC   NC318469  20.626  17.433   3.322 -0.1947 -0.0757 -0.1368
    1DPPC   PO418470  21.149  17.387   3.475  0.0804 -0.2259 -0.0203
    1DPPC   GL118471  21.140  17.570   3.867 -0.2916  0.3929 -0.1926
    1DPPC   GL218472  21.193  17.781   3.976 -0.0264  0.0468 -0.3367
    1DPPC   C1A18473  20.951  17.409   4.250  0.2250  0.1193 -0.0600
    1DPPC   C2A18474  20.964  17.361   4.684 -0.1992 -0.0467 -0.1690
    1DPPC   C3A18475  20.592  17.401   4.954  0.0155 -0.0033 -0.1040
    1DPPC   C4A18476  20.285  17.470   5.317 -0.0360  0.2547  0.0219
    1DPPC   C1B18477  21.258  17.777   4.440 -0.1409  0.0703  0.0403
    1DPPC   C2B18478  21.323  17.734   4.854  0.0386  0.0591  0.1030
    1DPPC   C3B18479  21.312  17.451   5.166 -0.0686 -0.3869 -0.3587
    1DPPC   C4B18480  21.358  17.365   5.568 -0.1834  0.4027 -0.3476
    1DPPC   NC318481  16.700  13.042   2.840  0.1339  0.1924 -0.0085
    1DPPC   PO418482  16.880  12.589   2.892 -0.1130  0.2188 -0.5534
    1DPPC   GL118483  16.718  12.730   3.259 -0.2798  0.0429  0.1213
    1DPPC   GL218484  16.378  12.667   3.368 -0.0391 -0.0333 -0.3264
    1DPPC   C1A18485  16.704  12.493   3.677 -0.1935 -0.1122  0.1118
    1DPPC   C2A18486  16.597  12.634   3.998 -0.2984 -0.1333 -0.2039
    1DPPC   C3A18487  16.302  12.772   4.383  0.3227  0.2220 -0.1477
    1DPPC   C4A18488  15.973  13.022   4.449  0.3780  0.1091  0.0314
    1DPPC   C1B18489  16.104  12.900   3.525  0.1959  0.1842  0.2331
    1DPPC   C2B18490  16.031  12.873   3.947 -0.0707 -0.1800  0.0218
    1DPPC   C3B18491  15.824  12.567   4.176  0.1485 -0.1787 -0.1114
    1DPPC   C4B18492  15.750  12.113   4.365 -0.1466  0.0312  0.0935
    1DPPC   NC318493  22.599  13.094   2.668  0.1270  0.1050 -0.0763
    1DPPC   PO418494  22.590  12.708   2.981 -0.0072  0.2687  0.2832
    1DPPC   GL118495  22.293  12.576   3.358 -0.1170  0.0804  0.2354
    1DPPC   GL218496  22.327  12.769   3.555 -0.0447  0.1856 -0.0214
    1DPPC   C1A18497  22.236  12.341   3.758 -0.1329  0.0176  0.4224
    1DPPC   C2A18498  22.341  12.465   4.207  0.1236  0.0198 -0.1205
    1DPPC   C3A18499  22.303  12.266   4.546  0.0410 -0.0341  0.2136
    1DPPC   C4A18500  22.158  11.996   4.879  0.4637 -0.1619  0.1415
    1DPPC   C1B18501  22.408  12.989   3.830 -0.0014 -0.1180  0.1096
    1DPPC   C2B18502  22.507  13.030   4.179  0.3178 -0.0336  0.2296
    1DPPC   C3B18503  22.739  12.951   4.538 -0.2500  0.2176 -0.3960
    1DPPC   C4B18504  22.671  13.105   4.957 -0.0821 -0.1688  0.0018
    1DPPC   NC318505  22.303  16.165   2.746 -0.1629 -0.2509  0.0344
    1DPPC   PO418506  22.562  15.727   2.700  0.1284  0.1783  0.0103
    1DPPC   GL118507  22.456  15.863   3.114 -0.2563  0.3026 -0.0252
    1DPPC   GL218508  22.443  16.102   3.325  0.1582 -0.1688 -0.2239
    1DPPC   C1A18509  22.329  15.698   3.540  0.2105 -0.0809  0.2338
    1DPPC   C2A18510  22.395  15.493   3.890 -0.0286  0.3188 -0.0928
    1DPPC   C3A18511  22.443  15.583   4.331  0.1232 -0.0328  0.0685
    1DPPC   C4A18512  22.532  15.490   4.748  0.0140  0.1434  0.0076
    1DPPC   C1B18513  22.255  16.163   3.741 -0.0841  0.3751  0.4044
    1DPPC   C2B18514  22.078  16.052   4.194 -0.0064 -0.1715 -0.3194
    1DPPC   C3B18515  22.165  15.901   4.599  0.2435  0.1921  0.1266
    1DPPC   C4B18516  22.250  15.824   5.055  0.1622  0.0926  0.0373
    1DPPC   NC318517  25.416   8.435   1.867 -0.4166 -0.3314  0.0801
    1DPPC   PO418518  25.652   8.024   2.026 -0.0133 -0.3126 -0.1296
    1DPPC   GL118519  25.780   7.876   2.430 -0.1584  0.0625  0.0007
    1DPPC   GL218520  25.726   7.520   2.609  0.0823  0.1773  0.0828
    1DPPC   C1A18521  25.981   8.113   2.821  0.2430  0.0054 -0.2290
    1DPPC   C2A18522  26.086   8.110   3.211 -0.2612  0.0403  0.5500
    1DPPC   C3A18523  26.191   7.971   3.578 -0.1815  0.0405 -0.1995
    1DPPC   C4A18524  26.259   7.912   3.937 -0.2850 -0.0427 -0.0895
    1DPPC   C1B18525  25.877   7.654   3.054 -0.2550  0.1331  0.3128
    1DPPC   C2B18526  25.904   7.562   3.567  0.1056  0.0981  0.0765
    1DPPC   C3B18527  26.074   7.465   3.872 -0.3938  0.0351  0.0861
    1DPPC   C4B18528  26.297   7.503   4.194 -0.2307 -0.1128 -0.0918
    1DPPC   NC318529  27.644  11.910   1.974 -0.1734 -0.1483  0.0448
    1DPPC   PO418530  27.720  11.684   2.390 -0.0357  0.2039 -0.0246
    1DPPC   GL118531  27.685  11.616   2.759  0.0976 -0.2863  0.5237
    1DPPC   GL218532  27.605  11.384   2.888  0.2389  0.0535 -0.0245
    1DPPC   C1A18533  27.557  11.816   3.113  0.3242 -0.0218  0.1977
    1DPPC   C2A18534  27.696  11.926   3.482 -0.1492  0.3920  0.2619
    1DPPC   C3A18535  27.715  11.910   3.911  0.0367  0.0776 -0.1946
    1DPPC   C4A18536  27.670  11.815   4.357  0.0988 -0.1019 -0.1277
    1DPPC   C1B18537  27.495  11.398   3.343  0.1062 -0.2768  0.0323
    1DPPC   C2B18538  27.489  11.377   3.781  0.0288  0.3132  0.3211
    1DPPC   C3B18539  27.611  11.316   4.291  0.1539 -0.0368 -0.0486
    1DPPC   C4B18540  27.987  11.488   4.631  0.1932 -0.3516  0.0964
    1DPPC   NC318541  24.470  12.198   2.900 -0.0365  0.1044 -0.0020
    1DPPC   PO418542  24.721  12.490   3.065  0.2320 -0.1367  0.0421
    1DPPC   GL118543  24.647  12.753   3.323  0.2981 -0.0990  0.3071
    1DPPC   GL218544  24.919  13.050   3.368 -0.0276  0.3127  0.2900
    1DPPC   C1A18545  24.608  12.938   3.743  0.2748 -0.3191  0.2598
    1DPPC   C2A18546  24.529  12.811   4.149 -0.0364  0.0392 -0.0314
    1DPPC   C3A18547  24.478  12.997   4.549  0.1395 -0.0089 -0.0648
    1DPPC   C4A18548  24.536  13.013   4.989  0.2990  0.0023  0.3122
    1DPPC   C1B18549  25.097  13.095   3.753  0.1677 -0.1290 -0.2226
    1DPPC   C2B18550  25.007  13.061   4.196 -0.0174  0.0390  0.1446
    1DPPC   C3B18551  25.036  13.255   4.507 -0.2750  0.1537  0.3501
    1DPPC   C4B18552  24.924  13.361   4.851  0.0121 -0.0687 -0.1498
    1DPPC   NC318553  28.030  14.268   2.148 -0.0429  0.2432 -0.0904
    1DPPC   PO418554  27.865  14.686   2.453  0.1030 -0.3523  0.0601
    1DPPC   GL118555  27.706  14.928   2.817 -0.0201  0.2064 -0.2230
    1DPPC   GL218556  27.892  14.664   3.083  0.1119 -0.0363  0.0828
    1DPPC   C1A18557  27.545  15.057   3.300  0.3045  0.0236 -0.2082
    1DPPC   C2A18558  27.713  15.202   3.721  0.1605 -0.3206  0.0621
    1DPPC   C3A18559  27.793  15.307   4.073 -0.0051 -0.2944 -0.1584
    1DPPC   C4A18560  27.822  15.762   4.263  0.0182  0.5098 -0.2752
    1DPPC   C1B18561  28.065  14.722   3.501 -0.0653  0.2207  0.0192
    1DPPC   C2B18562  28.223  14.690   3.918  0.2524  0.2310  0.2375
    1DPPC   C3B18563  28.264  14.517   4.313  0.0326 -0.1536  0.3570
    1DPPC   C4B18564  28.343  14.393   4.654  0.1318 -0.3221 -0.0499
    1DPPC   NC318565  28.529  14.022   2.676 -0.1809  0.1535  0.0982
    1DPPC   PO418566  28.933  13.917   2.820  0.1192 -0.0105  0.0801
    1DPPC   GL118567  29.066  14.047   3.110  0.0453 -0.2233  0.1327
    1DPPC   GL218568  28.850  14.208   3.329 -0.2335  0.2095 -0.1701
    1DPPC   C1A18569  29.311  14.190   3.492 -0.2309 -0.2541 -0.1963
    1DPPC   C2A18570   0.009  14.167   3.704 -0.2435 -0.1117  0.1425
    1DPPC   C3A18571   0.199  13.982   4.015  0.1086 -0.0136  0.2019
    1DPPC   C4A18572   0.690  13.893   4.076  0.1337 -0.0320 -0.0760
    1DPPC   C1B18573  28.896  13.953   3.576 -0.1795 -0.1206 -0.1140
    1DPPC   C2B18574  29.076  14.063   3.961  0.0642  0.1846 -0.1756
    1DPPC   C3B18575  29.352  14.018   4.243 -0.0653 -0.1294 -0.2200
    1DPPC   C4B18576   0.076  14.013   4.505  0.1134  0.1074  0.1656
    1DPPC   NC318577  24.108  24.684   3.991  0.0260 -0.1357 -0.2757
    1DPPC   PO418578  24.019  25.101   3.941  0.0189 -0.1542 -0.1236
    1DPPC   GL118579  24.309  25.193   4.215  0.0133 -0.0240 -0.2120
    1DPPC   GL218580  24.617  25.302   4.132  0.1759 -0.3135  0.0481
    1DPPC   C1A18581  24.169  25.061   4.610  0.0778 -0.2304 -0.0524
    1DPPC   C2A18582  24.060  25.227   4.996 -0.1465 -0.2317  0.2801
    1DPPC   C3A18583  24.003  25.400   5.437 -0.1942 -0.1466 -0.2156
    1DPPC   C4A18584  23.709  25.497   5.710 -0.1825  0.1552  0.2376
    1DPPC   C1B18585  24.710  24.979   4.450 -0.1742  0.2748 -0.0101
    1DPPC   C2B18586  24.862  24.931   4.789  0.0322 -0.2169  0.0516
    1DPPC   C3B18587  25.093  24.910   5.145  0.0145 -0.0737 -0.0639
    1DPPC   C4B18588  25.179  24.748   5.507 -0.2570 -0.1225 -0.1982
    1DPPC   NC318589  19.294  17.486   3.380  0.0757  0.3528 -0.1813
    1DPPC   PO418590  19.647  17.318   3.379  0.0834 -0.4182  0.3567
    1DPPC   GL118591  19.812  17.033   3.738 -0.1420 -0.1185 -0.4608
    1DPPC   GL218592  20.090  17.234   3.905 -0.0966 -0.0623  0.0015
    1DPPC   C1A18593  19.854  16.928   4.159  0.2010 -0.1289  0.0273
    1DPPC   C2A18594  19.684  16.895   4.578 -0.0635  0.3042  0.4056
    1DPPC   C3A18595  19.593  17.113   4.932 -0.0897 -0.0839  0.0591
    1DPPC   C4A18596  19.826  17.445   5.141  0.1600  0.0416  0.1913
    1DPPC   C1B18597  20.142  17.226   4.430 -0.3083  0.2264  0.1581
    1DPPC   C2B18598  20.138  17.147   4.875 -0.0805 -0.2711 -0.0646
    1DPPC   C3B18599  20.315  16.996   5.210 -0.0053 -0.0469  0.2938
    1DPPC   C4B18600  20.551  17.035   5.560  0.1569  0.2381 -0.1594
    1DPPC   NC318601  21.865  14.828   2.623  0.1897  0.1439 -0.1272
    1DPPC   PO418602  21.565  14.622   2.760 -0.0162 -0.2120 -0.0165
    1DPPC   GL118603  21.672  14.732   3.166  0.0253 -0.1307 -0.2033
    1DPPC   GL218604  21.512  14.974   3.190 -0.0180 -0.0189 -0.2625
    1DPPC   C1A18605  21.901  14.696   3.595  0.2752  0.1907 -0.1224
    1DPPC   C2A18606  21.939  14.691   3.992  0.0053  0.0015  0.1273
    1DPPC   C3A18607  22.080  14.627   4.413 -0.1881  0.0925  0.1166
    1DPPC   C4A18608  21.952  14.374   4.856 -0.1565  0.2605  0.0940
    1DPPC   C1B18609  21.605  15.188   3.573  0.0204  0.0858  0.3413
    1DPPC   C2B18610  21.603  15.179   4.049 -0.2743 -0.0575 -0.0242
    1DPPC   C3B18611  21.792  14.996   4.452  0.0592 -0.0667  0.0775
    1DPPC   C4B18612  21.903  14.883   4.869 -0.5398  0.0829 -0.0595
    1DPPC   NC318613  20.974  16.724   2.687 -0.3230 -0.0595  0.0991
    1DPPC   PO418614  21.166  16.612   3.089  0.0135 -0.2100 -0.0609
    1DPPC   GL118615  21.132  16.643   3.544  0.1040 -0.0659  0.1650
    1DPPC   GL218616  20.866  16.896   3.699  0.1259  0.2170  0.0804
    1DPPC   C1A18617  21.030  16.471   3.982 -0.0550  0.1612 -0.2275
    1DPPC   C2A18618  21.181  16.436   4.420 -0.0193  0.2351  0.1467
    1DPPC   C3A18619  21.234  16.449   4.825 -0.2222 -0.4246  0.2147
    1DPPC   C4A18620  21.136  16.395   5.325  0.1965  0.1513  0.1298
    1DPPC   C1B18621  21.077  16.998   3.995  0.2235  0.2828  0.2073
    1DPPC   C2B18622  21.196  16.983   4.454 -0.3315 -0.0748  0.1729
    1DPPC   C3B18623  21.304  17.013   4.896  0.0417  0.0264  0.2503
    1DPPC   C4B18624  20.983  17.101   5.266 -0.1642 -0.0544  0.1654
    1DPPC   NC318625  18.115  15.334   3.157  0.2210 -0.1940 -0.0427
    1DPPC   PO418626  18.027  15.859   3.128 -0.3357 -0.0064 -0.0663
    1DPPC   GL118627  18.061  15.900   3.542 -0.0367  0.4832 -0.4481
    1DPPC   GL218628  17.791  15.661   3.681  0.0556  0.0839  0.0673
    1DPPC   C1A18629  18.329  15.920   3.835 -0.1669 -0.2342  0.0505
    1DPPC   C2A18630  18.352  16.018   4.244 -0.0328  0.1375 -0.3302
    1DPPC   C3A18631  18.367  16.046   4.757  0.1006  0.1482 -0.2327
    1DPPC   C4A18632  18.128  16.273   5.057  0.0265  0.0884  0.0148
    1DPPC   C1B18633  17.913  15.834   4.139  0.2880  0.0831 -0.1034
    1DPPC   C2B18634  17.927  15.979   4.598 -0.0047 -0.1076  0.0325
    1DPPC   C3B18635  17.668  16.087   5.002 -0.0041  0.0407 -0.0302
    1DPPC   C4B18636  17.233  16.011   5.248  0.2558  0.0397  0.1458
    1DPPC   NC318637  13.733   2.240   2.413 -0.1570  0.5525 -0.0675
    1DPPC   PO418638  13.822   2.575   2.698 -0.0364  0.0522  0.2150
    1DPPC   GL118639  13.628   2.323   3.047  0.1957 -0.1230 -0.0656
    1DPPC   GL218640  13.242   2.302   3.173 -0.1453 -0.0648  0.0074
    1DPPC   C1A18641  13.681   2.196   3.450  0.1497 -0.1283 -0.1341
    1DPPC   C2A18642  13.693   1.945   3.700 -0.1909 -0.0922 -0.1163
    1DPPC   C3A18643  14.026   1.675   4.003 -0.3523  0.0694 -0.3567
    1DPPC   C4A18644  14.392   1.581   4.227  0.1861  0.2047  0.1672
    1DPPC   C1B18645  13.242   2.231   3.683 -0.3881  0.1156  0.3139
    1DPPC   C2B18646  13.200   2.145   4.197  0.1418  0.0784 -0.0762
    1DPPC   C3B18647  13.159   2.306   4.604  0.2703 -0.1786  0.2230
    1DPPC   C4B18648  12.987   2.520   4.930  0.1359 -0.0184 -0.0414
    1DPPC   NC318649   0.582   5.119   1.566  0.0717 -0.0897 -0.0194
    1DPPC   PO418650   0.404   5.560   1.668  0.0824 -0.1516  0.1232
    1DPPC   GL118651   0.318   5.933   1.946  0.0709  0.2130  0.0178
    1DPPC   GL218652   0.006   5.954   2.034  0.0504  0.0064 -0.0237
    1DPPC   C1A18653   0.462   6.077   2.372  0.2806 -0.1048  0.0488
    1DPPC   C2A18654   0.916   6.265   2.551 -0.0170 -0.0297  0.1481
    1DPPC   C3A18655   1.205   6.603   2.550 -0.5222  0.0072 -0.1223
    1DPPC   C4A18656   1.202   6.953   2.652 -0.0093 -0.2930  0.0128
    1DPPC   C1B18657  29.592   6.016   2.492 -0.1040  0.1975  0.0770
    1DPPC   C2B18658  29.619   6.110   2.960 -0.1276 -0.0529  0.1689
    1DPPC   C3B18659   0.169   5.740   3.299  0.0154  0.0086 -0.2900
    1DPPC   C4B18660   0.424   5.345   3.480 -0.0202 -0.0823  0.1917
    1DPPC   NC318661  16.752   9.310   2.161  0.1668  0.4326  0.0041
    1DPPC   PO418662  16.731   9.306   2.678 -0.3418 -0.2073  0.1140
    1DPPC   GL118663  16.666   9.310   3.170  0.4774  0.1378 -0.3998
    1DPPC   GL218664  16.445   9.469   3.346  0.0036  0.1339 -0.2302
    1DPPC   C1A18665  16.909   9.349   3.518  0.4683 -0.0227  0.3577
    1DPPC   C2A18666  16.712   9.323   3.834  0.2176  0.1654 -0.0311
    1DPPC   C3A18667  16.556   9.359   4.251 -0.2750  0.0162  0.3987
    1DPPC   C4A18668  16.499   9.208   4.664  0.0123  0.2146  0.0296
    1DPPC   C1B18669  16.042   9.311   3.509 -0.0700  0.2305 -0.1646
    1DPPC   C2B18670  15.698   9.346   3.758  0.2690 -0.1630  0.1693
    1DPPC   C3B18671  15.380   9.117   3.727 -0.1492  0.0158 -0.1717
    1DPPC   C4B18672  15.137   8.901   4.054  0.0316  0.0741  0.1264
    1DPPC   NC318673  24.731   7.164   2.439 -0.0610  0.0754 -0.0644
    1DPPC   PO418674  24.383   6.955   2.581 -0.3029  0.0131  0.1005
    1DPPC   GL118675  24.517   6.904   2.964 -0.3654 -0.1994  0.0271
    1DPPC   GL218676  24.233   6.716   3.021 -0.1718  0.0425  0.0398
    1DPPC   C1A18677  24.587   7.156   3.395 -0.1708  0.0461  0.1020
    1DPPC   C2A18678  24.646   7.161   3.774  0.3148 -0.2645  0.2258
    1DPPC   C3A18679  24.848   7.380   4.176  0.4667 -0.0445  0.1352
    1DPPC   C4A18680  24.610   7.335   4.634 -0.0518 -0.0684 -0.0854
    1DPPC   C1B18681  24.225   6.819   3.464  0.1749  0.1048 -0.2742
    1DPPC   C2B18682  24.270   6.799   3.875  0.1180 -0.1340 -0.0764
    1DPPC   C3B18683  24.245   6.685   4.364 -0.1965 -0.0434 -0.0508
    1DPPC   C4B18684  24.521   6.495   4.547  0.0365  0.1583  0.0511
    1DPPC   NC318685  21.656   7.187   2.837  0.1997  0.0315 -0.1804
    1DPPC   PO418686  21.762   6.811   2.764  0.5077 -0.0700 -0.2174
    1DPPC   GL118687  21.778   6.615   3.165 -0.3369  0.0320  0.2287
    1DPPC   GL218688  22.076   6.696   3.268 -0.2373 -0.0076  0.2282
    1DPPC   C1A18689  21.726   6.616   3.616  0.0651  0.2227  0.1227
    1DPPC   C2A18690  21.612   6.500   3.999 -0.2308 -0.4405 -0.0331
    1DPPC   C3A18691  21.576   6.423   4.422  0.2617  0.0275 -0.0192
    1DPPC   C4A18692  21.323   6.364   4.926 -0.3908  0.1723  0.1512
    1DPPC   C1B18693  22.031   7.048   3.487  0.1321 -0.0238  0.0701
    1DPPC   C2B18694  22.009   7.250   3.883  0.0101  0.0246  0.0249
    1DPPC   C3B18695  21.884   7.317   4.326 -0.2103 -0.0867  0.3714
    1DPPC   C4B18696  21.819   7.321   4.775  0.1746  0.2532  0.5008
    1DPPC   NC318697  18.027  10.806   2.568 -0.0880 -0.3533  0.0859
    1DPPC   PO418698  17.963  11.229   2.309 -0.2940  0.3442  0.0176
    1DPPC   GL118699  17.964  11.269   2.741 -0.1579 -0.0162 -0.4631
    1DPPC   GL218700  17.994  11.572   2.918 -0.1097  0.0209 -0.0159
    1DPPC   C1A18701  17.954  11.106   3.225  0.2453 -0.3416  0.1045
    1DPPC   C2A18702  17.952  11.001   3.616  0.0791  0.0317 -0.0681
    1DPPC   C3A18703  17.905  10.876   3.995  0.1066  0.0583  0.0021
    1DPPC   C4A18704  17.599  10.897   4.428 -0.2287 -0.1879  0.1041
    1DPPC   C1B18705  17.891  11.531   3.409  0.1246  0.2505 -0.1668
    1DPPC   C2B18706  17.881  11.429   3.889  0.0728 -0.2804  0.1545
    1DPPC   C3B18707  17.916  11.275   4.313  0.1856 -0.0265 -0.1950
    1DPPC   C4B18708  18.033  11.412   4.737 -0.1694 -0.3698 -0.3329
    1DPPC   NC318709  26.159  10.203   2.525 -0.1236  0.2293 -0.3316
    1DPPC   PO418710  26.275  10.637   2.661  0.0861  0.1052  0.2090
    1DPPC   GL118711  26.192  10.444   3.138  0.0073  0.1200 -0.0571
    1DPPC   GL218712  26.433  10.195   3.008 -0.0330  0.3489  0.1244
    1DPPC   C1A18713  26.373  10.307   3.642 -0.0686  0.0042  0.2864
    1DPPC   C2A18714  26.308  10.222   4.056 -0.1505 -0.2723 -0.2476
    1DPPC   C3A18715  26.083  10.234   4.473  0.2382 -0.3530 -0.2058
    1DPPC   C4A18716  25.946  10.512   4.767  0.1000 -0.0440  0.2421
    1DPPC   C1B18717  26.797  10.168   3.240 -0.0247 -0.0521 -0.2238
    1DPPC   C2B18718  26.917  10.137   3.696  0.0335 -0.1538  0.0962
    1DPPC   C3B18719  26.920  10.220   4.175  0.2255 -0.2832 -0.1236
    1DPPC   C4B18720  27.015   9.934   4.487  0.1182 -0.1767  0.1229
    1DPPC   NC318721  29.466   4.441   1.965 -0.0460  0.1661  0.1892
    1DPPC   PO418722  28.965   4.457   1.833  0.0678  0.2583 -0.0830
    1DPPC   GL118723  29.095   4.156   2.196  0.1259  0.2997 -0.1566
    1DPPC   GL218724  28.943   4.416   2.517  0.1998  0.0575  0.0144
    1DPPC   C1A18725  29.144   3.993   2.686  0.0769 -0.0865  0.1437
    1DPPC   C2A18726  29.066   4.154   3.059  0.4050  0.0464 -0.0341
    1DPPC   C3A18727  29.285   4.412   3.263  0.0658 -0.0035 -0.0897
    1DPPC   C4A18728  29.515   4.312   3.529 -0.0480 -0.0524  0.0447
    1DPPC   C1B18729  28.863   4.575   2.928  0.1717 -0.1432 -0.0021
    1DPPC   C2B18730  28.785   4.556   3.359 -0.0050  0.1430 -0.0795
    1DPPC   C3B18731  29.027   4.425   3.693  0.0197 -0.0225  0.1394
    1DPPC   C4B18732  29.306   4.486   3.922 -0.1062 -0.0052  0.2158
    1DPPC   NC318733   1.004   3.359   2.702  0.0367  0.2753  0.2238
    1DPPC   PO418734   0.757   3.722   2.665  0.0888 -0.0190  0.2174
    1DPPC   GL118735   0.638   3.804   3.030 -0.1326  0.0091 -0.0334
    1DPPC   GL218736   0.498   4.149   3.112  0.0735 -0.2094 -0.0305
    1DPPC   C1A18737   0.603   3.597   3.354  0.1360  0.0473  0.2319
    1DPPC   C2A18738   0.676   3.508   3.845 -0.1736  0.0964 -0.5281
    1DPPC   C3A18739   0.719   3.662   4.321 -0.1111  0.0361  0.1023
    1DPPC   C4A18740   0.795   4.029   4.543  0.1893 -0.0162  0.4556
    1DPPC   C1B18741   0.318   3.959   3.494  0.0601  0.1635  0.0775
    1DPPC   C2B18742   0.270   4.183   3.825 -0.0836  0.1053  0.1680
    1DPPC   C3B18743   0.397   3.974   4.151  0.3294 -0.0956 -0.1816
    1DPPC   C4B18744   0.301   4.083   4.570  0.1501  0.2917  0.0661
    1DPPC   NC318745  21.319  10.972   2.383 -0.3626  0.1283  0.0549
    1DPPC   PO418746  21.658  11.277   2.544  0.3002 -0.3175  0.3216
    1DPPC   GL118747  21.821  11.225   3.034  0.2762 -0.0490 -0.1007
    1DPPC   GL218748  21.946  10.884   3.075 -0.3279 -0.2562  0.1926
    1DPPC   C1A18749  22.208  11.276   3.334  0.1108  0.0513 -0.0917
    1DPPC   C2A18750  22.266  11.498   3.726 -0.1162 -0.0307 -0.0965
    1DPPC   C3A18751  22.302  11.525   4.252  0.1863 -0.0917  0.0592
    1DPPC   C4A18752  22.430  11.640   4.654 -0.0531  0.1583  0.1105
    1DPPC   C1B18753  21.801  10.947   3.536 -0.0088  0.1314  0.0608
    1DPPC   C2B18754  21.925  10.805   3.903  0.1423  0.0997  0.1126
    1DPPC   C3B18755  21.749  10.790   4.277 -0.0502 -0.1405  0.1491
    1DPPC   C4B18756  21.619  10.598   4.765 -0.2553 -0.0592  0.1830
    1DPPC   NC318757  20.576   9.263   2.345  0.1016 -0.2221  0.0156
    1DPPC   PO418758  20.814   9.664   2.565  0.2997  0.0135  0.1666
    1DPPC   GL118759  21.085   9.658   2.959  0.1594 -0.3789 -0.1511
    1DPPC   GL218760  21.244   9.364   2.982 -0.0754  0.0986  0.0339
    1DPPC   C1A18761  21.169   9.961   3.298 -0.2568  0.0169 -0.0227
    1DPPC   C2A18762  21.223  10.070   3.654 -0.0374  0.1528  0.0904
    1DPPC   C3A18763  21.342   9.995   4.129  0.2724  0.0747 -0.0275
    1DPPC   C4A18764  21.285   9.718   4.384 -0.1669  0.0588 -0.0751
    1DPPC   C1B18765  21.147   9.462   3.493 -0.0439 -0.1199  0.0233
    1DPPC   C2B18766  21.186   9.528   3.832  0.1982 -0.1558 -0.0159
    1DPPC   C3B18767  20.936   9.450   4.206  0.1795  0.1306  0.3547
    1DPPC   C4B18768  20.818   9.295   4.569  0.3374  0.2505  0.3712
    1DPPC   NC318769  18.305   8.882   2.476  0.0943 -0.2734  0.0905
    1DPPC   PO418770  18.179   9.298   2.492  0.2126 -0.1871  0.1912
    1DPPC   GL118771  18.129   9.046   2.894  0.0477 -0.0281 -0.0148
    1DPPC   GL218772  17.842   9.001   2.948 -0.0723 -0.0177  0.3269
    1DPPC   C1A18773  18.127   9.298   3.343 -0.1880  0.1846 -0.0799
    1DPPC   C2A18774  18.116   9.267   3.697  0.2009  0.2548 -0.0637
    1DPPC   C3A18775  18.087   9.019   4.058  0.3258  0.1577  0.1771
    1DPPC   C4A18776  18.270   8.921   4.417  0.0527  0.1451 -0.0325
    1DPPC   C1B18777  17.981   8.832   3.304  0.2380  0.0987  0.1307
    1DPPC   C2B18778  17.812   8.681   3.715  0.4489 -0.0914  0.2244
    1DPPC   C3B18779  17.726   8.715   4.208 -0.0623  0.0746 -0.0278
    1DPPC   C4B18780  17.671   8.512   4.624  0.3254 -0.1621 -0.0275
    1DPPC   NC318781  19.648  14.573   2.782 -0.1943  0.1374  0.0048
    1DPPC   PO418782  19.310  14.753   2.978 -0.0316 -0.1569 -0.3214
    1DPPC   GL118783  19.293  14.805   3.383  0.0979 -0.0218 -0.1170
    1DPPC   GL218784  19.555  14.970   3.468 -0.2617 -0.1534 -0.0396
    1DPPC   C1A18785  19.037  14.912   3.759  0.0314 -0.1162  0.1489
    1DPPC   C2A18786  19.014  14.892   4.199  0.2994 -0.0497  0.1388
    1DPPC   C3A18787  19.025  14.820   4.600  0.0961 -0.2950 -0.0997
    1DPPC   C4A18788  19.213  14.687   4.981 -0.2736  0.1007  0.2173
    1DPPC   C1B18789  19.512  14.941   3.919 -0.1940  0.0236 -0.2852
    1DPPC   C2B18790  19.702  14.899   4.274 -0.0266  0.0320 -0.0553
    1DPPC   C3B18791  19.556  14.947   4.544 -0.0601 -0.1514 -0.3697
    1DPPC   C4B18792  19.561  15.006   4.942  0.0806 -0.0278 -0.0769
    1DPPC   NC318793   0.379  12.081   2.398 -0.0506  0.2477 -0.0316
    1DPPC   PO418794   0.140  11.762   2.115 -0.0977 -0.2324  0.0990
    1DPPC   GL118795  29.514  11.663   2.441  0.0034  0.0272  0.0138
    1DPPC   GL218796   0.033  11.721   2.726 -0.0088 -0.2313  0.1874
    1DPPC   C1A18797  29.299  11.416   2.845  0.3322  0.0919  0.0967
    1DPPC   C2A18798  29.342  11.418   3.255  0.0968 -0.1857 -0.1416
    1DPPC   C3A18799  29.458  11.411   3.713 -0.1149  0.0061  0.0465
    1DPPC   C4A18800  29.583  11.298   4.097  0.1102 -0.0815  0.0769
    1DPPC   C1B18801   0.012  11.808   3.192 -0.0729 -0.2643 -0.2348
    1DPPC   C2B18802   0.117  11.746   3.615  0.0867 -0.1633  0.3148
    1DPPC   C3B18803   0.227  11.836   4.064  0.1000  0.0052 -0.0764
    1DPPC   C4B18804   0.458  11.845   4.494 -0.3547 -0.2110  0.0695
    1DPPC   NC318805   6.007  20.208   3.084 -0.0003  0.1364 -0.4213
    1DPPC   PO418806   5.604  20.061   3.106  0.0538  0.1366  0.3131
    1DPPC   GL118807   5.649  20.519   3.337  0.0712  0.1407 -0.1262
    1DPPC   GL218808   5.894  20.635   3.333 -0.0502  0.2585 -0.0549
    1DPPC   C1A18809   5.640  20.508   3.800  0.3414 -0.1819  0.1326
    1DPPC   C2A18810   5.648  20.512   4.095  0.2063 -0.2465 -0.1860
    1DPPC   C3A18811   5.572  20.557   4.582 -0.2291 -0.0155  0.0143
    1DPPC   C4A18812   5.661  20.610   5.000 -0.0487 -0.2705  0.0528
    1DPPC   C1B18813   6.191  20.629   3.715 -0.1257 -0.1380  0.1324
    1DPPC   C2B18814   6.184  20.560   4.154  0.1053 -0.3047  0.1575
    1DPPC   C3B18815   6.080  20.741   4.549  0.0072  0.3299 -0.0407
    1DPPC   C4B18816   6.149  20.703   5.021  0.0599  0.0972 -0.0376
    1DPPC   NC318817  22.545   8.328   2.487  0.2983  0.3265  0.1771
    1DPPC   PO418818  22.138   8.322   2.830 -0.0354 -0.1294  0.1204
    1DPPC   GL118819  22.052   8.743   3.085 -0.0041  0.2373  0.2862
    1DPPC   GL218820  21.977   9.103   2.949 -0.2331 -0.1150 -0.0457
    1DPPC   C1A18821  22.092   8.857   3.454 -0.2554  0.0286  0.4524
    1DPPC   C2A18822  22.031   8.901   3.953 -0.1770  0.0275  0.2197
    1DPPC   C3A18823  21.995   8.846   4.419 -0.1036  0.0479  0.1383
    1DPPC   C4A18824  21.844   8.910   4.815 -0.0056  0.1637  0.2295
    1DPPC   C1B18825  21.690   9.091   3.195  0.3932  0.1994  0.0066
    1DPPC   C2B18826  21.654   9.256   3.633  0.0702  0.0880 -0.0353
    1DPPC   C3B18827  21.625   9.297   4.025  0.0249  0.0773 -0.1378
    1DPPC   C4B18828  21.457   9.200   4.435 -0.0404  0.1553 -0.2163
    1DPPC   NC318829  16.737   9.829   2.723  0.0938 -0.1130 -0.5142
    1DPPC   PO418830  17.014  10.078   2.546  0.0475  0.3258 -0.0556
    1DPPC   GL118831  17.205  10.112   2.871  0.2308  0.1871  0.2689
    1DPPC   GL218832  17.325  10.343   3.119  0.4114  0.0744  0.1665
    1DPPC   C1A18833  17.391   9.889   3.328  0.3816 -0.0572 -0.0962
    1DPPC   C2A18834  17.464  10.000   3.774  0.3221 -0.0265 -0.0918
    1DPPC   C3A18835  17.548   9.873   4.241 -0.0054 -0.2116 -0.0376
    1DPPC   C4A18836  17.934   9.925   4.514 -0.2536 -0.1220  0.1113
    1DPPC   C1B18837  17.126  10.341   3.465  0.0098 -0.0414  0.0081
    1DPPC   C2B18838  16.904  10.565   3.779  0.0234 -0.1253  0.0248
    1DPPC   C3B18839  16.569  10.527   4.094 -0.0367 -0.1832 -0.0653
    1DPPC   C4B18840  16.348  10.672   4.524 -0.0051  0.0193 -0.3017
    1DPPC   NC318841  15.004  12.184   2.925  0.1148  0.1989  0.1112
    1DPPC   PO418842  15.034  12.652   2.940 -0.1706  0.3470  0.1907
    1DPPC   GL118843  15.212  12.764   3.320  0.2605  0.0513  0.2084
    1DPPC   GL218844  15.097  13.103   3.289 -0.3483  0.0793 -0.2299
    1DPPC   C1A18845  15.046  12.669   3.657  0.1589 -0.1768 -0.4307
    1DPPC   C2A18846  15.220  12.458   3.946 -0.1692 -0.2759 -0.1612
    1DPPC   C3A18847  15.274  12.420   4.362 -0.1079  0.0955  0.0123
    1DPPC   C4A18848  15.409  12.152   4.741 -0.1727  0.1314  0.1088
    1DPPC   C1B18849  14.966  13.486   3.499 -0.2502 -0.1937  0.1672
    1DPPC   C2B18850  14.937  13.437   3.897  0.3091 -0.0559  0.4615
    1DPPC   C3B18851  14.854  13.269   4.218 -0.0080 -0.1822 -0.1798
    1DPPC   C4B18852  14.584  13.307   4.581 -0.5996  0.1311 -0.0769
    1DPPC   NC318853  20.301  14.272   2.834 -0.2623  0.0841  0.1392
    1DPPC   PO418854  20.197  14.696   2.892  0.2485  0.0674  0.0163
    1DPPC   GL118855  20.229  14.560   3.282  0.0450  0.0483  0.3244
    1DPPC   GL218856  19.962  14.713   3.388 -0.0750  0.0378  0.0638
    1DPPC   C1A18857  20.407  14.520   3.642 -0.1137  0.1773 -0.1534
    1DPPC   C2A18858  20.433  14.628   4.019  0.0501  0.0128 -0.0139
    1DPPC   C3A18859  20.409  14.575   4.409  0.0398 -0.0165 -0.1621
    1DPPC   C4A18860  20.457  14.597   4.859 -0.1724 -0.0602 -0.0223
    1DPPC   C1B18861  19.862  14.420   3.744 -0.1384 -0.2380 -0.1710
    1DPPC   C2B18862  19.809  14.403   4.188  0.0997 -0.1075 -0.0918
    1DPPC   C3B18863  19.777  14.426   4.585  0.0892  0.0697 -0.4433
    1DPPC   C4B18864  19.695  14.462   5.064  0.1136 -0.2526 -0.3468
    1DPPC   NC318865   0.205  12.555   2.515  0.0554 -0.0335  0.0468
    1DPPC   PO418866  29.547  12.239   2.591  0.1655 -0.2103 -0.1018
    1DPPC   GL118867   0.014  12.322   2.921 -0.0653 -0.1026  0.1252
    1DPPC   GL218868   0.323  12.129   2.866  0.1502 -0.0679  0.0251
    1DPPC   C1A18869  29.499  12.296   3.288  0.0525 -0.2524  0.0695
    1DPPC   C2A18870  29.571  12.239   3.707 -0.1235  0.2765 -0.1500
    1DPPC   C3A18871  29.564  12.274   4.131 -0.0508  0.0331 -0.3498
    1DPPC   C4A18872  29.578  12.486   4.476  0.1301  0.0252 -0.0727
    1DPPC   C1B18873   0.347  12.171   3.285  0.2033 -0.0019 -0.1100
    1DPPC   C2B18874   0.467  12.106   3.733 -0.2119 -0.1538  0.0340
    1DPPC   C3B18875   0.772  11.994   4.042  0.2627  0.2524  0.0175
    1DPPC   C4B18876   0.969  11.705   4.310 -0.0795  0.1062  0.2861
    1DPPC   NC318877  18.333  16.632   2.722  0.0135 -0.0331 -0.4605
    1DPPC   PO418878  18.036  16.887   2.841  0.0760 -0.1885  0.1470
    1DPPC   GL118879  17.922  16.795   3.269 -0.0263  0.1903 -0.0443
    1DPPC   GL218880  18.097  16.482   3.494 -0.1408 -0.5894 -0.1366
    1DPPC   C1A18881  17.604  16.684   3.627  0.0688 -0.0463  0.0238
    1DPPC   C2A18882  17.463  16.597   3.979 -0.0885 -0.0556 -0.1818
    1DPPC   C3A18883  17.310  16.878   4.276  0.0574  0.0309 -0.1140
    1DPPC   C4A18884  17.062  17.224   4.497 -0.0257 -0.0840 -0.1865
    1DPPC   C1B18885  17.882  16.290   3.843 -0.0274  0.0009  0.3243
    1DPPC   C2B18886  17.783  16.309   4.248  0.1174 -0.0301 -0.0354
    1DPPC   C3B18887  17.433  16.325   4.511  0.0017 -0.0826 -0.2000
    1DPPC   C4B18888  17.015  16.122   4.653  0.3217  0.0155  0.2069
    1DPPC   NC318889  18.344  17.220   3.041 -0.3683 -0.1954  0.0742
    1DPPC   PO418890  18.402  16.744   3.213 -0.3290  0.0027  0.1548
    1DPPC   GL118891  18.436  17.030   3.557 -0.2346 -0.0761 -0.2958
    1DPPC   GL218892  18.678  17.104   3.713 -0.2066  0.1492 -0.1431
    1DPPC   C1A18893  18.288  17.446   3.805  0.1919 -0.0554 -0.0578
    1DPPC   C2A18894  18.200  17.475   4.202 -0.2723 -0.1159  0.0311
    1DPPC   C3A18895  17.843  17.321   4.569  0.4756 -0.1196 -0.3098
    1DPPC   C4A18896  17.577  17.035   4.876 -0.2292  0.0389  0.4603
    1DPPC   C1B18897  18.433  17.021   4.114  0.0801 -0.2392  0.0297
    1DPPC   C2B18898  18.257  16.961   4.484 -0.0349 -0.0619  0.2547
    1DPPC   C3B18899  18.133  16.854   4.947 -0.2470  0.1103 -0.1394
    1DPPC   C4B18900  18.427  16.675   5.241 -0.1199  0.1870 -0.3456
    1DPPC   NC318901  27.700  13.446   2.226 -0.1923 -0.3311 -0.0101
    1DPPC   PO418902  27.633  13.482   2.706  0.1980 -0.0929  0.1630
    1DPPC   GL118903  27.761  13.315   3.123 -0.3723 -0.0713  0.0775
    1DPPC   GL218904  27.956  13.034   3.031  0.0742  0.3455 -0.1281
    1DPPC   C1A18905  27.849  13.224   3.594  0.1701 -0.0730  0.3500
    1DPPC   C2A18906  27.938  13.257   4.018  0.1317 -0.0491 -0.2434
    1DPPC   C3A18907  27.682  13.215   4.336 -0.1989  0.0917  0.0845
    1DPPC   C4A18908  27.383  13.044   4.486  0.0483 -0.0403 -0.0981
    1DPPC   C1B18909  28.040  12.824   3.369  0.1837  0.0549  0.1550
    1DPPC   C2B18910  28.167  12.794   3.790 -0.2597  0.5164  0.0012
    1DPPC   C3B18911  28.207  12.719   4.216 -0.0699  0.0548 -0.1789
    1DPPC   C4B18912  28.307  12.961   4.659  0.0781  0.4333 -0.0410
    1DPPC   NC318913  24.743   3.381   2.406 -0.0154 -0.0367  0.3302
    1DPPC   PO418914  24.468   3.407   2.768 -0.0926 -0.0289  0.1926
    1DPPC   GL118915  24.542   3.468   3.173 -0.1211 -0.4150 -0.1559
    1DPPC   GL218916  24.373   3.212   3.229  0.0763  0.0341 -0.1975
    1DPPC   C1A18917  24.716   3.405   3.573  0.0029  0.1920 -0.0922
    1DPPC   C2A18918  24.662   3.230   3.875  0.2332 -0.0213 -0.2212
    1DPPC   C3A18919  24.696   3.243   4.366  0.0042 -0.1571  0.0382
    1DPPC   C4A18920  24.723   3.337   4.809 -0.0184 -0.4460  0.1592
    1DPPC   C1B18921  24.209   3.172   3.602  0.1391 -0.0219 -0.0091
    1DPPC   C2B18922  24.158   3.327   4.006 -0.2685 -0.1261 -0.0615
    1DPPC   C3B18923  24.121   3.431   4.376 -0.3279 -0.2306  0.1154
    1DPPC   C4B18924  24.233   3.363   4.794  0.0613  0.1380  0.0008
    1DPPC   NC318925  20.152   7.462   1.711  0.0636  0.0086 -0.0610
    1DPPC   PO418926  20.328   7.437   2.116  0.0391  0.0706 -0.0275
    1DPPC   GL118927  20.225   7.497   2.551  0.0446 -0.0118  0.2670
    1DPPC   GL218928  20.395   7.494   2.795  0.1749  0.1525  0.0210
    1DPPC   C1A18929  19.969   7.663   2.978 -0.2439 -0.2619 -0.0358
    1DPPC   C2A18930  20.095   7.916   3.381 -0.1324  0.2827 -0.1341
    1DPPC   C3A18931  20.178   7.864   3.832  0.2681  0.2457 -0.2797
    1DPPC   C4A18932  20.033   7.786   4.222  0.0250 -0.1692  0.0481
    1DPPC   C1B18933  20.149   7.320   3.250  0.2141 -0.3350  0.0900
    1DPPC   C2B18934  20.139   7.302   3.704 -0.0041 -0.1977 -0.0809
    1DPPC   C3B18935  20.086   7.304   4.155 -0.0317 -0.1286  0.5247
    1DPPC   C4B18936  19.965   7.188   4.611  0.0812  0.0829 -0.1389
    1DPPC   NC318937   0.417  15.895   2.645 -0.3417 -0.0352 -0.4465
    1DPPC   PO418938   0.202  15.515   2.702  0.2274 -0.1179  0.0313
    1DPPC   GL118939  29.600  15.345   3.023 -0.2018  0.0437  0.0566
    1DPPC   GL218940  29.456  15.529   3.250 -0.1066 -0.0795  0.2076
    1DPPC   C1A18941  29.625  15.053   3.308 -0.1486 -0.0125  0.1010
    1DPPC   C2A18942   0.049  15.129   3.738  0.0350  0.0668  0.2027
    1DPPC   C3A18943   0.018  14.837   4.039 -0.0887  0.1565  0.2276
    1DPPC   C4A18944   0.129  14.444   4.210  0.1419 -0.0850 -0.0880
    1DPPC   C1B18945  29.590  15.588   3.596 -0.1058 -0.1556 -0.1731
    1DPPC   C2B18946   0.031  15.550   3.967 -0.0108 -0.0042 -0.0598
    1DPPC   C3B18947   0.012  15.308   4.379 -0.3428 -0.0015 -0.0226
    1DPPC   C4B18948  29.594  14.918   4.470 -0.0704  0.3591 -0.0718
    1DPPC   NC318949  23.828  15.713   2.948  0.1419 -0.2422 -0.0587
    1DPPC   PO418950  24.168  15.535   2.662 -0.1429 -0.0291  0.0857
    1DPPC   GL118951  24.441  15.498   2.930  0.4021  0.3658  0.1169
    1DPPC   GL218952  24.478  15.750   3.121 -0.0504 -0.0387 -0.2289
    1DPPC   C1A18953  24.737  15.315   3.201 -0.0150 -0.1011 -0.0253
    1DPPC   C2A18954  24.636  15.081   3.611 -0.0327 -0.4162  0.0996
    1DPPC   C3A18955  24.630  14.879   4.051 -0.0560  0.4635  0.1040
    1DPPC   C4A18956  24.562  14.685   4.432 -0.1939  0.1068  0.1454
    1DPPC   C1B18957  24.376  15.960   3.557  0.2482  0.0378 -0.0925
    1DPPC   C2B18958  24.177  15.898   3.907 -0.1633 -0.1329  0.1507
    1DPPC   C3B18959  24.051  16.099   4.332  0.1196 -0.1778  0.1453
    1DPPC   C4B18960  24.166  16.233   4.763  0.0595  0.0195  0.2170
    1DPPC   NC318961  23.203   9.587   2.805  0.0359 -0.0732 -0.0649
    1DPPC   PO418962  22.698   9.679   2.751  0.1249  0.0915  0.0062
    1DPPC   GL118963  22.712   9.657   3.180 -0.0078 -0.2887  0.2051
    1DPPC   GL218964  22.489   9.737   3.243 -0.1812 -0.3455  0.0073
    1DPPC   C1A18965  23.033   9.558   3.536  0.1519 -0.5522  0.0314
    1DPPC   C2A18966  23.060   9.487   3.979 -0.1027  0.1369  0.3566
    1DPPC   C3A18967  23.052   9.601   4.387 -0.0918 -0.2609  0.1280
    1DPPC   C4A18968  22.818   9.792   4.762 -0.2118 -0.0883 -0.0183
    1DPPC   C1B18969  22.555   9.687   3.733  0.1257 -0.0050 -0.1561
    1DPPC   C2B18970  22.600   9.658   4.135 -0.0619  0.0567 -0.1242
    1DPPC   C3B18971  22.566   9.493   4.437  0.2525 -0.1166  0.0207
    1DPPC   C4B18972  22.740   9.257   4.713 -0.0555 -0.1816  0.1689
    1DPPC   NC318973  27.241  12.679   2.676  0.0213  0.3376  0.2719
    1DPPC   PO418974  27.646  12.560   2.733 -0.0386 -0.2375  0.2271
    1DPPC   GL118975  27.800  12.497   3.073 -0.1419  0.0461  0.1773
    1DPPC   GL218976  27.952  12.225   3.053  0.1778 -0.0189  0.0498
    1DPPC   C1A18977  27.894  12.376   3.533 -0.0576 -0.0384 -0.0256
    1DPPC   C2A18978  27.890  12.402   3.941  0.3484  0.2597 -0.0415
    1DPPC   C3A18979  27.861  12.329   4.409 -0.1563 -0.0518 -0.0838
    1DPPC   C4A18980  27.872  12.068   4.755 -0.0296  0.1207 -0.2101
    1DPPC   C1B18981  28.172  12.044   3.383 -0.0551 -0.2934 -0.1818
    1DPPC   C2B18982  28.181  12.001   3.810 -0.1038 -0.0806 -0.3719
    1DPPC   C3B18983  28.221  11.911   4.233  0.1774  0.0160  0.0256
    1DPPC   C4B18984  28.337  11.935   4.599 -0.2362  0.1212 -0.0924
    1DPPC   NC318985  28.491  11.152   2.431 -0.1660 -0.0746  0.0440
    1DPPC   PO418986  28.656  10.730   2.391 -0.4003  0.3269  0.2485
    1DPPC   GL118987  28.621  10.784   2.826  0.1549 -0.0809 -0.4413
    1DPPC   GL218988  28.783  10.760   3.109 -0.1212 -0.1047  0.0683
    1DPPC   C1A18989  28.421  11.054   3.150 -0.1058 -0.2790 -0.2805
    1DPPC   C2A18990  28.456  11.012   3.569  0.1359  0.1605  0.1352
    1DPPC   C3A18991  28.493  11.035   4.002 -0.0595 -0.4215  0.1452
    1DPPC   C4A18992  28.527  10.883   4.425  0.1294 -0.2339  0.2735
    1DPPC   C1B18993  28.781  10.650   3.546 -0.2146  0.0814 -0.2363
    1DPPC   C2B18994  28.699  10.471   4.001  0.2721  0.0318 -0.1064
    1DPPC   C3B18995  28.865  10.253   4.339  0.2906 -0.0224  0.0930
    1DPPC   C4B18996  29.154   9.890   4.299  0.2034  0.4065 -0.0613
    1DPPC   NC318997  27.888  16.461   2.836  0.1697  0.0609  0.3857
    1DPPC   PO418998  27.711  16.844   3.013  0.2136  0.0746 -0.1333
    1DPPC   GL118999  27.713  16.758   3.460 -0.0043  0.2098 -0.0980
    1DPPC   GL219000  28.010  16.924   3.560  0.0986 -0.0201 -0.2246
    1DPPC   C1A19001  27.663  16.663   3.911 -0.0563 -0.0042 -0.1840
    1DPPC   C2A19002  27.602  16.491   4.340  0.4258  0.1530 -0.0341
    1DPPC   C3A19003  27.585  16.351   4.797  0.1243 -0.0725 -0.0544
    1DPPC   C4A19004  27.755  16.270   5.042  0.0760  0.4054  0.1133
    1DPPC   C1B19005  28.122  16.964   3.943 -0.0016 -0.0780  0.1352
    1DPPC   C2B19006  28.375  16.941   4.360  0.0886 -0.1724  0.2848
    1DPPC   C3B19007  28.545  16.895   4.761 -0.1986  0.1128 -0.0946
    1DPPC   C4B19008  28.764  16.635   5.067 -0.0831 -0.0966  0.0366
    1DPPC   NC319009  23.863  12.686   2.762 -0.2351 -0.1872  0.2929
    1DPPC   PO419010  23.968  12.325   2.915 -0.0046 -0.1094 -0.1054
    1DPPC   GL119011  24.193  12.543   3.282  0.0439  0.0456  0.2270
    1DPPC   GL219012  24.058  12.884   3.360 -0.0606  0.0252 -0.1377
    1DPPC   C1A19013  24.204  12.634   3.738 -0.1860 -0.5389  0.0090
    1DPPC   C2A19014  24.006  12.645   4.174  0.0898  0.0736  0.1283
    1DPPC   C3A19015  24.082  12.716   4.590  0.1804  0.1475 -0.1757
    1DPPC   C4A19016  24.315  12.611   4.904 -0.1275  0.3351 -0.0283
    1DPPC   C1B19017  23.728  12.967   3.663 -0.0789  0.0543 -0.3406
    1DPPC   C2B19018  23.373  13.208   3.716 -0.2560 -0.0220 -0.1133
    1DPPC   C3B19019  23.170  13.598   3.752 -0.0059 -0.0594 -0.2241
    1DPPC   C4B19020  23.216  13.898   4.062  0.0770 -0.2499  0.3000
    1DPPC   NC319021  20.730   6.126   2.950 -0.5549  0.2497  0.1193
    1DPPC   PO419022  21.064   6.336   2.890  0.2506  0.0618  0.0260
    1DPPC   GL119023  21.271   6.359   3.279  0.1970 -0.1139 -0.1986
    1DPPC   GL219024  21.251   6.631   3.463 -0.0574 -0.1158 -0.0016
    1DPPC   C1A19025  21.437   6.150   3.641  0.2801  0.0285 -0.0998
    1DPPC   C2A19026  21.458   6.038   4.117 -0.0902  0.0854  0.2409
    1DPPC   C3A19027  21.314   5.939   4.507 -0.0535 -0.1044  0.2180
    1DPPC   C4A19028  21.062   5.959   4.796 -0.1060  0.0241  0.3713
    1DPPC   C1B19029  21.119   6.500   3.777 -0.1254  0.3739  0.1261
    1DPPC   C2B19030  21.141   6.407   4.173 -0.0126  0.2520 -0.2660
    1DPPC   C3B19031  21.167   6.621   4.546 -0.0488 -0.4608 -0.0344
    1DPPC   C4B19032  20.901   6.639   4.961 -0.2817  0.2326 -0.0891
    1DPPC   NC319033  27.175   4.942   1.991  0.2118  0.0948 -0.2701
    1DPPC   PO419034  27.255   4.590   2.344  0.1580 -0.2750 -0.0725
    1DPPC   GL119035  27.438   4.687   2.773  0.1834 -0.1842  0.1575
    1DPPC   GL219036  27.549   4.995   2.786  0.1177  0.1260 -0.2103
    1DPPC   C1A19037  27.689   4.613   3.157 -0.2844 -0.2064  0.1925
    1DPPC   C2A19038  27.755   4.603   3.546 -0.2670  0.2243 -0.0365
    1DPPC   C3A19039  27.562   4.563   3.949  0.1751  0.0816 -0.1594
    1DPPC   C4A19040  27.295   4.381   4.266 -0.1432 -0.1654  0.2740
    1DPPC   C1B19041  27.179   5.040   3.004 -0.0938 -0.2073  0.0807
    1DPPC   C2B19042  27.109   5.335   3.346  0.0355 -0.0078  0.1876
    1DPPC   C3B19043  27.035   5.217   3.737 -0.1844  0.0979  0.1330
    1DPPC   C4B19044  26.986   5.383   4.156  0.2520  0.0158 -0.0599
    1DPPC   NC319045  21.017   7.985   2.599 -0.1428  0.0834 -0.0381
    1DPPC   PO419046  20.926   7.666   2.815 -0.2209 -0.3067  0.0754
    1DPPC   GL119047  21.022   7.553   3.154  0.3328  0.1451  0.2203
    1DPPC   GL219048  21.375   7.434   3.160  0.0325  0.1328 -0.0989
    1DPPC   C1A19049  21.018   7.870   3.511 -0.2543 -0.0506 -0.0321
    1DPPC   C2A19050  21.065   7.858   4.004 -0.0910  0.0617  0.0200
    1DPPC   C3A19051  20.923   7.728   4.493 -0.1601 -0.1790  0.1443
    1DPPC   C4A19052  20.691   8.008   4.810 -0.0331 -0.1266 -0.1829
    1DPPC   C1B19053  21.144   7.411   3.580  0.2134  0.1011  0.1430
    1DPPC   C2B19054  21.062   7.380   4.020  0.0246 -0.2505  0.1967
    1DPPC   C3B19055  20.990   7.216   4.396  0.2720  0.0393  0.3873
    1DPPC   C4B19056  20.863   7.184   4.783 -0.1738  0.0060 -0.2578
    1DPPC   NC319057  24.729  10.612   2.235 -0.3026 -0.1992  0.0388
    1DPPC   PO419058  24.669  10.864   2.537 -0.1397 -0.1646  0.0539
    1DPPC   GL119059  24.865  10.846   2.981  0.1577  0.0208 -0.2135
    1DPPC   GL219060  24.870  10.478   2.955 -0.1695  0.2092 -0.0861
    1DPPC   C1A19061  25.063  10.854   3.328 -0.1820 -0.0217  0.1242
    1DPPC   C2A19062  25.313  10.707   3.723 -0.0713 -0.0896 -0.2004
    1DPPC   C3A19063  25.379  10.474   4.169 -0.2661 -0.1186  0.2202
    1DPPC   C4A19064  25.553  10.301   4.570 -0.1035 -0.2713  0.1963
    1DPPC   C1B19065  25.101  10.297   3.338  0.1104 -0.0494  0.0917
    1DPPC   C2B19066  25.176  10.228   3.742  0.2936  0.0584  0.0859
    1DPPC   C3B19067  25.112  10.061   4.124 -0.0349  0.0771 -0.0510
    1DPPC   C4B19068  25.141  10.002   4.591  0.0468 -0.2032  0.3297
    1DPPC   NC319069   0.753  13.181   2.052 -0.0820  0.0088  0.2812
    1DPPC   PO419070   0.933  13.363   2.428  0.2317 -0.1446  0.1987
    1DPPC   GL119071   0.992  13.082   2.675 -0.0284 -0.2130  0.2131
    1DPPC   GL219072   1.310  12.962   2.616  0.0508 -0.0925 -0.2840
    1DPPC   C1A19073   0.859  13.057   3.037 -0.0698  0.2220  0.0435
    1DPPC   C2A19074   0.740  12.972   3.430 -0.0292  0.0448 -0.0697
    1DPPC   C3A19075   0.764  12.949   3.877 -0.0228  0.0102  0.1572
    1DPPC   C4A19076   0.999  12.967   4.279  0.0948 -0.0441 -0.0961
    1DPPC   C1B19077   1.397  13.104   3.046 -0.0643  0.0082 -0.5130
    1DPPC   C2B19078   1.211  13.222   3.403 -0.0104  0.2971  0.3667
    1DPPC   C3B19079   1.241  13.218   3.771 -0.0391 -0.0664 -0.1130
    1DPPC   C4B19080   1.477  13.025   4.015 -0.3562  0.0101 -0.1632
    1DPPC   NC319081  27.601  27.327   3.469 -0.0700 -0.1803  0.1719
    1DPPC   PO419082  27.458  26.861   3.459 -0.1310 -0.0148  0.1418
    1DPPC   GL119083  27.653  27.047   3.922 -0.3177 -0.6201 -0.1778
    1DPPC   GL219084  28.002  27.020   4.023  0.1541 -0.0047 -0.0359
    1DPPC   C1A19085  27.414  27.206   4.224  0.0467  0.0184  0.3388
    1DPPC   C2A19086  27.516  27.202   4.623 -0.0578 -0.0605 -0.0700
    1DPPC   C3A19087  27.541  27.501   4.938 -0.5103 -0.0431  0.4319
    1DPPC   C4A19088  27.798  27.670   5.123 -0.0509 -0.2832 -0.0619
    1DPPC   C1B19089  27.885  26.900   4.479  0.0122  0.3003  0.1794
    1DPPC   C2B19090  27.945  26.874   4.840  0.0056 -0.1623 -0.0076
    1DPPC   C3B19091  27.871  27.006   5.246 -0.0949  0.0257 -0.3366
    1DPPC   C4B19092  27.894  27.362   5.482 -0.1924 -0.0031  0.0444
    1DPPC   NC319093   0.169  14.015   2.302  0.0440 -0.1092  0.0043
    1DPPC   PO419094   0.076  13.645   2.497  0.0465  0.0062  0.2834
    1DPPC   GL119095   0.350  13.621   2.924 -0.0123  0.1252  0.2983
    1DPPC   GL219096   0.595  13.433   2.749  0.0695  0.1061 -0.1479
    1DPPC   C1A19097   0.435  13.421   3.314  0.1778  0.3367 -0.0105
    1DPPC   C2A19098   0.744  13.385   3.697 -0.2441 -0.1517  0.1945
    1DPPC   C3A19099   0.910  13.434   4.114  0.0732 -0.1835 -0.0601
    1DPPC   C4A19100   1.228  13.407   4.457 -0.0016  0.3302  0.1255
    1DPPC   C1B19101   0.321  13.084   2.987 -0.2373  0.1295 -0.1047
    1DPPC   C2B19102   0.239  12.747   3.250 -0.5051 -0.0660 -0.0996
    1DPPC   C3B19103   0.256  12.727   3.590  0.0517  0.0728  0.0291
    1DPPC   C4B19104   0.341  12.615   3.940 -0.3473  0.1063 -0.1213
    1DPPC   NC319105  17.313  14.403   2.870  0.1957  0.1483 -0.0183
    1DPPC   PO419106  17.693  14.568   3.117  0.2198  0.2785  0.2910
    1DPPC   GL119107  17.599  14.793   3.507  0.2051 -0.0356 -0.3872
    1DPPC   GL219108  17.316  14.940   3.456  0.1991  0.0976 -0.1453
    1DPPC   C1A19109  17.458  14.781   3.961  0.2034  0.3303 -0.1979
    1DPPC   C2A19110  17.381  14.803   4.354  0.3065  0.1756 -0.2198
    1DPPC   C3A19111  17.449  14.720   4.804 -0.2446  0.4126 -0.1094
    1DPPC   C4A19112  17.444  14.850   5.247 -0.2121  0.0059 -0.0222
    1DPPC   C1B19113  16.991  14.783   3.781 -0.0985  0.0243 -0.0445
    1DPPC   C2B19114  16.910  14.944   4.242  0.0894 -0.1058  0.1625
    1DPPC   C3B19115  16.820  14.993   4.635 -0.2181 -0.0893  0.1245
    1DPPC   C4B19116  16.925  15.293   4.939 -0.0248  0.4327 -0.4048
    1DPPC   NC319117  23.488  18.458   2.692 -0.0371  0.0411  0.2627
    1DPPC   PO419118  23.425  18.213   2.979  0.0318 -0.6240  0.0944
    1DPPC   GL119119  23.507  18.106   3.446  0.0156 -0.2714  0.1343
    1DPPC   GL219120  23.445  17.803   3.469  0.0296 -0.0257  0.1212
    1DPPC   C1A19121  23.650  18.148   3.913  0.0397 -0.1679  0.3264
    1DPPC   C2A19122  23.684  18.324   4.320  0.0853 -0.1014  0.3344
    1DPPC   C3A19123  23.440  18.454   4.596 -0.2129  0.1539 -0.1246
    1DPPC   C4A19124  23.426  18.850   4.841 -0.0933 -0.4500  0.0617
    1DPPC   C1B19125  23.592  17.623   3.852  0.2622  0.1167  0.0370
    1DPPC   C2B19126  23.699  17.686   4.398  0.4052 -0.2475  0.0414
    1DPPC   C3B19127  23.751  17.999   4.707  0.0147 -0.1219 -0.1855
    1DPPC   C4B19128  23.529  18.103   5.029  0.0005 -0.0124 -0.0569
    1DPPC   NC319129  18.915   9.452   2.711 -0.0577 -0.1202 -0.0237
    1DPPC   PO419130  19.076   9.152   2.564 -0.0525  0.4422  0.4068
    1DPPC   GL119131  19.042   8.944   2.904 -0.0936  0.0818 -0.1441
    1DPPC   GL219132  18.707   9.030   2.879  0.1978 -0.1572 -0.0392
    1DPPC   C1A19133  18.939   8.754   3.241 -0.4379  0.2306 -0.1787
    1DPPC   C2A19134  19.043   8.791   3.671 -0.1347 -0.0507 -0.0326
    1DPPC   C3A19135  19.020   8.703   4.163  0.1823 -0.2016 -0.1180
    1DPPC   C4A19136  18.718   8.708   4.462 -0.0327 -0.1005  0.1972
    1DPPC   C1B19137  18.483   8.944   3.263  0.1334 -0.2060  0.1547
    1DPPC   C2B19138  18.355   8.837   3.654 -0.1250 -0.1106  0.2875
    1DPPC   C3B19139  18.197   8.557   4.007  0.0168  0.1621  0.0430
    1DPPC   C4B19140  18.086   8.331   4.412  0.0052 -0.2346  0.5619
    1DPPC   NC319141  14.994   5.515   2.699  0.2723 -0.3410  0.0786
    1DPPC   PO419142  14.673   5.461   2.936 -0.0465  0.2121  0.3318
    1DPPC   GL119143  14.565   5.523   3.325 -0.2915  0.0345  0.2760
    1DPPC   GL219144  14.576   5.344   3.665 -0.2539 -0.1710  0.1309
    1DPPC   C1A19145  14.540   5.822   3.639  0.1950  0.1490 -0.0468
    1DPPC   C2A19146  14.789   6.110   3.789 -0.1462  0.4010 -0.2500
    1DPPC   C3A19147  14.860   6.494   4.127  0.0290 -0.1493  0.1591
    1DPPC   C4A19148  15.087   6.749   4.378  0.1043 -0.0685 -0.1591
    1DPPC   C1B19149  14.379   5.612   4.107 -0.0337 -0.0712  0.1018
    1DPPC   C2B19150  14.215   5.865   4.345 -0.2065 -0.0520 -0.2106
    1DPPC   C3B19151  14.221   6.246   4.383  0.1576 -0.1097 -0.0234
    1DPPC   C4B19152  14.030   6.720   4.476  0.3899  0.0679  0.1560
    1DIPC   NC319153  16.071  15.592   2.250 -0.1889  0.1366 -0.0394
    1DIPC   PO419154  16.031  15.347   2.554  0.0269  0.1181 -0.1277
    1DIPC   GL119155  15.797  15.154   2.927 -0.2630 -0.0522  0.1920
    1DIPC   GL219156  15.800  15.466   3.152  0.0615  0.2485  0.0300
    1DIPC   C1A19157  15.697  14.777   3.373  0.1887  0.1535 -0.0813
    1DIPC   D2A19158  15.745  14.762   3.760 -0.1461  0.0084 -0.1087
    1DIPC   D3A19159  15.607  14.926   4.096  0.1970 -0.0575  0.2421
    1DIPC   C4A19160  15.598  14.916   4.588  0.2113 -0.2378  0.0950
    1DIPC   C1B19161  15.363  15.436   3.144  0.0216 -0.0412 -0.2041
    1DIPC   D2B19162  15.089  15.446   3.542 -0.0458 -0.1681 -0.0882
    1DIPC   D3B19163  14.782  15.694   3.666  0.6031 -0.0535 -0.1947
    1DIPC   C4B19164  14.943  15.791   4.038 -0.0784  0.1375 -0.1518
    1DIPC   NC319165  20.607   3.688   3.147 -0.1186 -0.2195  0.1977
    1DIPC   PO419166  20.806   3.207   3.339 -0.4161  0.2296 -0.1795
    1DIPC   GL119167  20.851   3.464   3.734  0.0279 -0.0985  0.1308
    1DIPC   GL219168  20.627   3.649   3.737 -0.0476 -0.2072  0.1276
    1DIPC   C1A19169  20.988   3.439   4.106  0.0686  0.1854  0.2034
    1DIPC   D2A19170  21.091   3.072   4.259  0.0403 -0.1259 -0.0626
    1DIPC   D3A19171  21.095   3.332   4.739 -0.1428  0.3915  0.3150
    1DIPC   C4A19172  21.307   3.111   4.979  0.2318 -0.1623  0.0943
    1DIPC   C1B19173  20.284   3.603   4.025  0.0325 -0.0032  0.0027
    1DIPC   D2B19174  19.823   3.596   4.117 -0.1195 -0.2444 -0.0842
    1DIPC   D3B19175  19.758   3.744   4.572 -0.1050 -0.0420 -0.3083
    1DIPC   C4B19176  19.919   3.746   4.936 -0.2021 -0.0879  0.1134
    1DIPC   NC319177  28.478  23.522   2.750 -0.0119  0.2011 -0.0873
    1DIPC   PO419178  28.247  23.394   3.151  0.0383 -0.0171 -0.6345
    1DIPC   GL119179  28.193  23.603   3.598  0.0306 -0.1724  0.2054
    1DIPC   GL219180  28.380  23.737   3.728 -0.2616  0.1985  0.2093
    1DIPC   C1A19181  28.079  23.598   4.114  0.4174 -0.1434  0.1620
    1DIPC   D2A19182  27.832  23.410   4.411  0.0411 -0.1296 -0.2628
    1DIPC   D3A19183  27.983  23.297   4.809  0.1510  0.1279 -0.1692
    1DIPC   C4A19184  28.350  23.298   4.829  0.0592  0.1597  0.0590
    1DIPC   C1B19185  28.490  23.909   4.143 -0.2259 -0.0922  0.2043
    1DIPC   D2B19186  28.357  24.173   4.520 -0.3182  0.3162  0.2297
    1DIPC   D3B19187  28.133  24.524   4.602 -0.0503  0.2745 -0.0933
    1DIPC   C4B19188  27.641  24.607   4.780 -0.0570 -0.0918 -0.3030
    1DIPC   NC319189  13.837  15.377   2.489 -0.0515  0.1729  0.5520
    1DIPC   PO419190  14.023  15.281   2.993  0.1523 -0.5675  0.2829
    1DIPC   GL119191  14.303  15.407   3.265 -0.1132  0.3324 -0.2940
    1DIPC   GL219192  14.651  15.479   3.220  0.1680  0.0592 -0.0112
    1DIPC   C1A19193  14.501  15.311   3.671 -0.0877  0.1619  0.2083
    1DIPC   D2A19194  14.465  15.443   4.111 -0.0711 -0.1536  0.2270
    1DIPC   D3A19195  14.637  15.116   4.317  0.3546 -0.3195  0.0237
    1DIPC   C4A19196  14.467  14.862   4.615 -0.0007 -0.3232 -0.1228
    1DIPC   C1B19197  14.902  15.131   3.207 -0.0419  0.0665  0.1125
    1DIPC   D2B19198  15.282  14.988   3.390 -0.0546 -0.0433  0.0560
    1DIPC   D3B19199  14.946  14.969   3.699 -0.1812 -0.4177  0.1426
    1DIPC   C4B19200  14.971  15.276   4.009 -0.0479  0.0697  0.1129
    1DIPC   NC319201  17.305   2.600   2.686  0.1590 -0.3578  0.0131
    1DIPC   PO419202  16.950   2.491   2.846  0.0136  0.2268 -0.2556
    1DIPC   GL119203  16.980   2.611   3.249  0.1151 -0.3100 -0.1902
    1DIPC   GL219204  16.669   2.610   3.351  0.1585 -0.0923  0.4267
    1DIPC   C1A19205  17.108   2.563   3.647 -0.1162 -0.6766 -0.1201
    1DIPC   D2A19206  17.334   2.319   3.982 -0.1069 -0.0597  0.2332
    1DIPC   D3A19207  17.282   2.691   4.153  0.1950 -0.0682 -0.1693
    1DIPC   C4A19208  17.423   2.731   4.590 -0.1325  0.0339  0.1576
    1DIPC   C1B19209  16.579   2.464   3.747 -0.4015 -0.1712  0.1808
    1DIPC   D2B19210  16.606   2.423   4.267  0.0981 -0.0739  0.0280
    1DIPC   D3B19211  16.967   2.243   4.303 -0.1448 -0.2462 -0.1670
    1DIPC   C4B19212  17.074   2.113   4.736  0.0093  0.2358  0.1749
    1DIPC   NC319213   5.531  16.444   2.239 -0.2057  0.0931 -0.1979
    1DIPC   PO419214   5.954  16.434   2.397 -0.0973 -0.0661  0.2269
    1DIPC   GL119215   5.870  16.212   2.725 -0.0484 -0.0206  0.2916
    1DIPC   GL219216   5.487  16.214   2.691 -0.0597  0.3408 -0.0484
    1DIPC   C1A19217   5.875  16.023   3.003  0.2296 -0.0454  0.0087
    1DIPC   D2A19218   5.835  15.636   3.223 -0.0726  0.1693  0.0009
    1DIPC   D3A19219   5.755  15.378   3.040  0.0500  0.2142 -0.2314
    1DIPC   C4A19220   6.037  15.429   2.697 -0.2271 -0.1098  0.4579
    1DIPC   C1B19221   5.105  16.269   3.073 -0.0348 -0.2593  0.1314
    1DIPC   D2B19222   4.928  16.314   3.538 -0.2559 -0.0039  0.0829
    1DIPC   D3B19223   4.767  16.395   3.985 -0.3076  0.1694 -0.4248
    1DIPC   C4B19224   4.912  16.350   4.398 -0.0089  0.1126 -0.0199
    1DIPC   NC319225  20.545  22.855   4.212 -0.3056  0.3693 -0.1320
    1DIPC   PO419226  20.588  23.215   4.538 -0.4362 -0.0621 -0.2479
    1DIPC   GL119227  20.274  23.211   4.768 -0.1671 -0.2824  0.1795
    1DIPC   GL219228  20.445  23.347   5.012  0.0728 -0.3499 -0.3769
    1DIPC   C1A19229  19.933  23.357   4.932 -0.2738  0.1474  0.2093
    1DIPC   D2A19230  19.589  23.278   5.219  0.0910  0.1062 -0.2541
    1DIPC   D3A19231  19.090  23.335   5.344 -0.3128 -0.4482 -0.0133
    1DIPC   C4A19232  18.910  23.688   5.591  0.0993 -0.0153 -0.1440
    1DIPC   C1B19233  20.179  23.123   5.334  0.0844  0.2497 -0.2262
    1DIPC   D2B19234  20.015  22.864   5.648  0.0589  0.0283 -0.1387
    1DIPC   D3B19235  19.879  23.305   5.709 -0.1723  0.2492 -0.1329
    1DIPC   C4B19236  19.813  23.594   6.009  0.0555 -0.2387 -0.0055
    1DIPC   NC319237  18.066  28.401   3.494  0.2621 -0.3637 -0.1190
    1DIPC   PO419238  18.192  28.721   3.193 -0.0430  0.0414 -0.0944
    1DIPC   GL119239  18.170  28.886   3.629 -0.1981 -0.0816  0.2702
    1DIPC   GL219240  17.822  28.968   3.627  0.0028 -0.3691 -0.2141
    1DIPC   C1A19241  18.012  29.113   4.032  0.2351 -0.1178 -0.0843
    1DIPC   D2A19242  18.022  29.125   4.330 -0.1860 -0.0439 -0.1095
    1DIPC   D3A19243  17.647  29.117   4.567 -0.0670  0.0428 -0.0009
    1DIPC   C4A19244  17.767  28.885   4.986  0.2035  0.1599 -0.0366
    1DIPC   C1B19245  17.552  29.219   3.971  0.0307  0.0361  0.1992
    1DIPC   D2B19246  17.286  29.389   4.236 -0.0915 -0.0550  0.1027
    1DIPC   D3B19247  16.987  29.127   4.541 -0.1620  0.1694 -0.0928
    1DIPC   C4B19248  16.602  29.040   4.490 -0.3360  0.1968 -0.1127
    1DIPC   NC319249   3.632  29.262   2.669 -0.0524  0.2406  0.0554
    1DIPC   PO419250   3.715  29.044   3.093 -0.0245  0.0452 -0.0222
    1DIPC   GL119251   3.888  28.866   3.491 -0.0963  0.0668 -0.1797
    1DIPC   GL219252   4.234  29.105   3.479  0.2524  0.1146 -0.2304
    1DIPC   C1A19253   3.759  28.959   3.889  0.3591 -0.3419  0.2359
    1DIPC   D2A19254   3.466  28.968   4.227 -0.2780  0.1657 -0.1835
    1DIPC   D3A19255   3.238  28.753   4.558 -0.2273  0.0493 -0.0931
    1DIPC   C4A19256   3.525  28.760   4.861 -0.0632 -0.1636  0.0167
    1DIPC   C1B19257   4.256  28.993   3.869  0.0101  0.0854  0.1797
    1DIPC   D2B19258   4.684  28.956   4.215 -0.1106 -0.1274 -0.4343
    1DIPC   D3B19259   4.859  29.342   4.487  0.1955 -0.5875 -0.1236
    1DIPC   C4B19260   4.456  29.485   4.697 -0.0575  0.1151  0.1097
    1DIPC   NC319261  13.755   5.352   2.729  0.0733 -0.2253 -0.1053
    1DIPC   PO419262  14.147   5.598   2.683 -0.1555  0.0652 -0.4606
    1DIPC   GL119263  13.937   5.774   3.096  0.1005  0.2647 -0.2422
    1DIPC   GL219264  13.590   5.596   3.129 -0.2554  0.2862 -0.3986
    1DIPC   C1A19265  13.848   5.783   3.546 -0.2982 -0.0177 -0.0553
    1DIPC   D2A19266  13.925   5.776   3.880 -0.2230 -0.2911  0.1171
    1DIPC   D3A19267  13.806   6.125   4.174 -0.1101  0.1830  0.1176
    1DIPC   C4A19268  13.423   6.294   4.266 -0.0494 -0.0715  0.0831
    1DIPC   C1B19269  13.500   6.002   3.323  0.0678 -0.0763 -0.3184
    1DIPC   D2B19270  13.444   6.475   3.294 -0.1381  0.0717 -0.2414
    1DIPC   D3B19271  13.061   6.584   3.136  0.2553 -0.1958  0.1000
    1DIPC   C4B19272  13.021   7.036   3.073 -0.0443 -0.1054 -0.1877
    1DIPC   NC319273  13.034  12.467   1.923  0.3817  0.0171  0.2832
    1DIPC   PO419274  12.676  12.285   2.295 -0.1220  0.1044  0.0809
    1DIPC   GL119275  12.612  12.360   2.790 -0.3315 -0.0015 -0.0675
    1DIPC   GL219276  12.240  12.468   2.822 -0.0134 -0.0203 -0.0908
    1DIPC   C1A19277  12.744  12.500   3.104  0.1436  0.0975  0.1060
    1DIPC   D2A19278  12.727  12.433   3.553  0.2256  0.0114 -0.3613
    1DIPC   D3A19279  13.139  12.350   3.771  0.2209  0.0870 -0.1386
    1DIPC   C4A19280  13.268  12.581   4.113  0.1161 -0.0821 -0.0776
    1DIPC   C1B19281  11.796  12.412   3.184  0.0529 -0.1956 -0.0026
    1DIPC   D2B19282  11.375  12.608   3.199  0.0380  0.0578 -0.1022
    1DIPC   D3B19283  11.312  12.714   3.622 -0.2030 -0.2720 -0.3077
    1DIPC   C4B19284  11.343  12.492   3.951 -0.0472 -0.0310 -0.3411
    1DIPC   NC319285  12.633  13.579   2.779 -0.1054 -0.2620 -0.0323
    1DIPC   PO419286  12.979  13.516   2.936 -0.0023 -0.2478 -0.1926
    1DIPC   GL119287  13.200  13.460   3.250 -0.1970  0.0967  0.0763
    1DIPC   GL219288  13.313  13.110   3.194  0.0543  0.0613  0.1602
    1DIPC   C1A19289  12.981  13.416   3.649  0.2381 -0.0466  0.2008
    1DIPC   D2A19290  12.587  13.511   3.932  0.0358  0.1490 -0.1359
    1DIPC   D3A19291  12.582  13.345   4.289  0.1816 -0.0954  0.0762
    1DIPC   C4A19292  12.277  13.448   4.591 -0.2489 -0.0994  0.1565
    1DIPC   C1B19293  13.135  12.714   3.350 -0.1491 -0.0734  0.2600
    1DIPC   D2B19294  13.196  12.324   3.213 -0.2975 -0.0560 -0.2945
    1DIPC   D3B19295  12.847  12.036   3.279  0.4639 -0.3349  0.1461
    1DIPC   C4B19296  12.687  11.702   3.029 -0.0657  0.1703 -0.1618
    1DIPC   NC319297  13.141  21.323   1.537 -0.3826  0.1720  0.1181
    1DIPC   PO419298  13.174  21.030   1.986  0.1357 -0.0482  0.1380
    1DIPC   GL119299  13.152  20.848   2.470 -0.1989  0.0716 -0.0304
    1DIPC   GL219300  13.421  20.719   2.583 -0.3686  0.3026 -0.2555
    1DIPC   C1A19301  12.971  20.774   2.889 -0.0552  0.0706  0.0464
    1DIPC   D2A19302  13.084  20.494   3.124  0.0915 -0.1073  0.2952
    1DIPC   D3A19303  12.761  20.178   3.112 -0.0162 -0.0523  0.3791
    1DIPC   C4A19304  12.309  20.109   2.989  0.1536 -0.1253  0.0584
    1DIPC   C1B19305  13.497  20.659   2.941  0.0002 -0.1829 -0.3486
    1DIPC   D2B19306  13.684  20.710   3.310  0.0563  0.5088  0.1525
    1DIPC   D3B19307  13.993  21.037   3.376  0.0195  0.0016  0.0102
    1DIPC   C4B19308  13.997  21.134   3.727  0.1484 -0.0184  0.0846
    1DIPC   NC319309   4.476  10.586   1.544 -0.3195 -0.2310 -0.3417
    1DIPC   PO419310   4.443  10.710   1.972  0.2206 -0.3180 -0.2025
    1DIPC   GL119311   4.607  10.550   2.312  0.1453  0.1005  0.4072
    1DIPC   GL219312   4.297  10.306   2.423 -0.2076  0.0034 -0.3800
    1DIPC   C1A19313   4.616  10.704   2.736 -0.1151  0.0860  0.1312
    1DIPC   D2A19314   4.922  10.911   2.992  0.2302  0.0157 -0.2166
    1DIPC   D3A19315   5.219  11.169   3.222  0.0573 -0.0802 -0.0605
    1DIPC   C4A19316   5.515  11.366   2.854 -0.1137 -0.3091  0.0757
    1DIPC   C1B19317   4.656  10.221   2.790 -0.0684 -0.0033 -0.2373
    1DIPC   D2B19318   4.969  10.003   3.126  0.2678 -0.2338 -0.4120
    1DIPC   D3B19319   5.248   9.903   3.463  0.0180 -0.3241  0.2099
    1DIPC   C4B19320   5.115   9.954   3.908 -0.0524  0.0590  0.0583
    1DIPC   NC319321   6.969   7.483   2.138  0.1777  0.2134  0.1289
    1DIPC   PO419322   6.740   7.842   2.085 -0.0614  0.1026  0.0237
    1DIPC   GL119323   6.573   7.807   2.540  0.0901  0.2078 -0.2243
    1DIPC   GL219324   6.611   8.067   2.745  0.2032 -0.2143  0.3052
    1DIPC   C1A19325   6.311   7.689   2.860  0.2967 -0.1772  0.2326
    1DIPC   D2A19326   6.298   7.481   3.263  0.0774 -0.1034 -0.0487
    1DIPC   D3A19327   6.429   7.562   3.670  0.2519 -0.1431  0.2835
    1DIPC   C4A19328   6.613   7.984   3.614 -0.0312  0.1592 -0.1150
    1DIPC   C1B19329   6.736   8.462   2.731  0.2207 -0.0463 -0.1833
    1DIPC   D2B19330   6.556   8.858   2.926 -0.0288  0.1760  0.0219
    1DIPC   D3B19331   6.750   9.032   3.239  0.3552  0.2269 -0.0418
    1DIPC   C4B19332   7.199   9.224   3.082  0.3438  0.1737  0.3719
    1DIPC   NC319333  22.918  14.053   2.972 -0.4835 -0.0681  0.2774
    1DIPC   PO419334  23.179  14.360   2.748  0.0531  0.1997  0.2028
    1DIPC   GL119335  23.482  14.146   3.070 -0.1108  0.0632  0.5052
    1DIPC   GL219336  23.851  13.970   3.203  0.1042 -0.0844  0.1997
    1DIPC   C1A19337  23.617  14.374   3.360 -0.0096 -0.0500 -0.3205
    1DIPC   D2A19338  23.614  14.678   3.751 -0.1861 -0.1661  0.1714
    1DIPC   D3A19339  23.770  14.627   4.132 -0.0727 -0.1402 -0.3869
    1DIPC   C4A19340  23.912  15.015   4.340 -0.0289 -0.1566  0.3492
    1DIPC   C1B19341  24.130  14.194   3.446 -0.1042 -0.0126 -0.1700
    1DIPC   D2B19342  24.415  14.509   3.726 -0.0007 -0.0916 -0.0017
    1DIPC   D3B19343  24.078  14.686   3.581  0.0553  0.2202 -0.3116
    1DIPC   C4B19344  24.081  15.017   3.845 -0.1154 -0.0531 -0.1500
    1DIPC   NC319345  10.281  23.217   2.757  0.0246 -0.4121  0.2072
    1DIPC   PO419346  10.644  23.320   2.966 -0.2424 -0.0522  0.1329
    1DIPC   GL119347  10.681  23.567   3.341 -0.0422  0.1163  0.1435
    1DIPC   GL219348  10.727  23.911   3.409  0.2047  0.0717 -0.0206
    1DIPC   C1A19349  10.708  23.688   3.839  0.0698 -0.1993 -0.2101
    1DIPC   D2A19350  10.591  24.066   4.100 -0.2667 -0.3693  0.1095
    1DIPC   D3A19351  10.240  24.329   3.902  0.0859 -0.1342 -0.4226
    1DIPC   C4A19352   9.749  24.348   4.093 -0.2405  0.0015  0.1245
    1DIPC   C1B19353  10.615  24.304   3.628  0.1176  0.2595 -0.0330
    1DIPC   D2B19354  10.774  24.561   3.884  0.1273 -0.2801  0.0129
    1DIPC   D3B19355  10.480  24.499   4.336 -0.0756  0.2623 -0.1699
    1DIPC   C4B19356  10.371  24.789   4.670 -0.0929 -0.3645 -0.1526
    1DIPC   NC319357   0.428  26.262   2.296  0.1061 -0.1495 -0.1638
    1DIPC   PO419358   0.667  26.209   2.757 -0.1197 -0.0204 -0.1885
    1DIPC   GL119359   0.905  26.339   3.117  0.1550  0.2203  0.0590
    1DIPC   GL219360   0.768  26.658   3.296  0.1416  0.1789  0.1963
    1DIPC   C1A19361   0.975  26.150   3.507 -0.1295 -0.2753  0.2962
    1DIPC   D2A19362   1.105  26.075   3.993 -0.0271 -0.0105 -0.2875
    1DIPC   D3A19363   1.293  26.420   4.183 -0.1037 -0.2346 -0.0524
    1DIPC   C4A19364   1.649  26.437   4.244 -0.1299 -0.1225 -0.3142
    1DIPC   C1B19365   0.609  26.490   3.711 -0.1582  0.0123  0.0871
    1DIPC   D2B19366   0.618  26.359   4.138  0.1954 -0.0058 -0.0870
    1DIPC   D3B19367   0.843  26.325   4.573  0.0477  0.1066  0.0731
    1DIPC   C4B19368   0.668  25.973   4.813  0.0105 -0.0563  0.0387
    1DIPC   NC319369   3.876  12.996   2.224 -0.0427 -0.1818  0.3764
    1DIPC   PO419370   3.934  13.380   2.216 -0.2579  0.0513  0.0833
    1DIPC   GL119371   4.006  13.566   2.593  0.0172  0.2647  0.3693
    1DIPC   GL219372   4.203  13.826   2.687  0.4052  0.2495  0.0429
    1DIPC   C1A19373   3.836  13.398   3.000 -0.0524  0.1928 -0.0725
    1DIPC   D2A19374   3.516  13.078   3.066  0.1496  0.0422  0.1961
    1DIPC   D3A19375   3.733  13.117   3.430 -0.2721  0.1334  0.0196
    1DIPC   C4A19376   3.748  12.742   3.622  0.0151 -0.0741  0.0126
    1DIPC   C1B19377   4.037  13.829   3.113 -0.3260 -0.3394 -0.0558
    1DIPC   D2B19378   4.079  13.500   3.420  0.0146 -0.2049  0.1740
    1DIPC   D3B19379   3.977  13.530   3.854 -0.0512 -0.1485 -0.0097
    1DIPC   C4B19380   4.341  13.485   4.171 -0.2031  0.0308 -0.0921
    1DIPC   NC319381  12.304  21.527   2.179  0.1380 -0.1609 -0.1113
    1DIPC   PO419382  12.177  21.927   2.353 -0.3279 -0.1728 -0.1229
    1DIPC   GL119383  12.212  21.651   2.743 -0.0117  0.2541  0.0520
    1DIPC   GL219384  12.366  21.409   2.681 -0.4382 -0.0492 -0.0249
    1DIPC   C1A19385  12.370  21.494   3.163 -0.3974 -0.0441  0.1530
    1DIPC   D2A19386  12.545  21.141   3.380  0.0730  0.0832  0.1596
    1DIPC   D3A19387  12.455  20.866   3.723  0.1351  0.4197  0.0752
    1DIPC   C4A19388  12.016  20.896   3.753 -0.1335 -0.0092  0.0352
    1DIPC   C1B19389  12.507  21.000   2.865 -0.0814  0.2397  0.3051
    1DIPC   D2B19390  12.559  20.588   2.867 -0.2992  0.1941 -0.5422
    1DIPC   D3B19391  12.628  20.625   3.349 -0.3473 -0.1317 -0.0814
    1DIPC   C4B19392  13.092  20.748   3.548 -0.0086  0.0821 -0.3356
    1DIPC   NC319393  12.456   6.054   2.378 -0.3193 -0.1263  0.0426
    1DIPC   PO419394  12.612   6.425   2.319 -0.1122  0.0110 -0.1099
    1DIPC   GL119395  12.245   6.429   2.682 -0.0515  0.2409  0.2972
    1DIPC   GL219396  11.978   6.647   2.786 -0.1914  0.0580 -0.1749
    1DIPC   C1A19397  12.312   6.319   3.134  0.3804  0.2628  0.0602
    1DIPC   D2A19398  12.499   6.170   3.351  0.0015 -0.2665 -0.0436
    1DIPC   D3A19399  12.378   6.402   3.742  0.0668 -0.0818  0.0746
    1DIPC   C4A19400  12.286   6.869   3.870 -0.0499  0.1756 -0.0564
    1DIPC   C1B19401  11.648   6.539   3.119  0.4062  0.0639  0.1724
    1DIPC   D2B19402  11.480   6.673   3.459 -0.0242  0.0642 -0.1717
    1DIPC   D3B19403  11.873   7.099   3.410 -0.0480  0.1897 -0.1950
    1DIPC   C4B19404  12.336   7.103   3.454 -0.3579  0.3410  0.1321
    1DIPC   NC319405   5.162  22.784   3.375 -0.0381  0.1846 -0.0982
    1DIPC   PO419406   5.401  22.275   3.331 -0.0992  0.1500  0.3671
    1DIPC   GL119407   5.489  22.044   3.696 -0.1624 -0.0875  0.0917
    1DIPC   GL219408   5.761  21.985   3.716 -0.1889  0.1717 -0.3347
    1DIPC   C1A19409   5.581  21.963   4.180 -0.1967 -0.0377  0.0050
    1DIPC   D2A19410   5.305  21.932   4.556  0.1437  0.2341  0.1719
    1DIPC   D3A19411   4.977  21.883   4.810  0.3519 -0.2063 -0.0243
    1DIPC   C4A19412   4.625  21.878   4.423  0.1262 -0.3427  0.2440
    1DIPC   C1B19413   6.054  21.887   4.024  0.1081 -0.3598 -0.0864
    1DIPC   D2B19414   6.295  21.969   4.395 -0.0786 -0.0467 -0.0120
    1DIPC   D3B19415   6.402  22.362   4.639  0.2009  0.2551 -0.0380
    1DIPC   C4B19416   6.297  22.643   4.385 -0.1355 -0.4177 -0.1762
    1DIPC   NC319417  14.790  11.026   2.576  0.1061 -0.1644 -0.0097
    1DIPC   PO419418  14.413  10.680   2.739  0.0839  0.3856 -0.4337
    1DIPC   GL119419  14.513  11.002   2.984  0.0603  0.2713 -0.2737
    1DIPC   GL219420  14.451  10.892   3.201 -0.2997  0.1355  0.2075
    1DIPC   C1A19421  14.497  11.415   3.277 -0.2854  0.2664 -0.0455
    1DIPC   D2A19422  14.478  11.516   3.700 -0.2349  0.0834  0.1914
    1DIPC   D3A19423  14.370  11.299   4.048  0.0923  0.1446 -0.0234
    1DIPC   C4A19424  14.545  11.311   4.514 -0.1676  0.0024 -0.0241
    1DIPC   C1B19425  14.250  10.865   3.615 -0.0531 -0.1759  0.1991
    1DIPC   D2B19426  13.874  10.565   3.675 -0.0293  0.1365  0.1569
    1DIPC   D3B19427  14.024  10.389   3.995 -0.1496 -0.0099 -0.1071
    1DIPC   C4B19428  14.462  10.256   4.052  0.0035 -0.0902 -0.2433
    1DIPC   NC319429  28.782   8.221   1.407 -0.4806 -0.2021  0.2447
    1DIPC   PO419430  29.052   8.170   1.689 -0.0090 -0.0691 -0.1025
    1DIPC   GL119431  29.073   8.130   2.177  0.3505  0.2243  0.0843
    1DIPC   GL219432  29.313   8.061   2.417  0.1567 -0.0343  0.2880
    1DIPC   C1A19433  28.743   8.116   2.419 -0.0505 -0.1034 -0.1290
    1DIPC   D2A19434  28.566   8.223   2.825  0.1062 -0.2058  0.0200
    1DIPC   D3A19435  29.044   8.226   2.921  0.1056 -0.1828  0.2757
    1DIPC   C4A19436  29.233   8.417   3.204  0.2327 -0.3223  0.0340
    1DIPC   C1B19437  29.604   8.127   2.760 -0.3793  0.3840 -0.1223
    1DIPC   D2B19438   0.045   8.084   3.236 -0.1472  0.1462 -0.0146
    1DIPC   D3B19439   0.521   8.248   3.283 -0.1865 -0.2712 -0.1643
    1DIPC   C4B19440   0.607   8.221   3.744 -0.2577 -0.2188 -0.6494
    1DIPC   NC319441  10.292  11.104   2.438 -0.0898 -0.1848  0.1096
    1DIPC   PO419442   9.945  11.306   2.265 -0.3987  0.0912 -0.0790
    1DIPC   GL119443   9.737  11.532   2.592  0.0576  0.2714 -0.1202
    1DIPC   GL219444   9.532  11.289   2.702 -0.0618 -0.2765 -0.1914
    1DIPC   C1A19445   9.696  11.558   3.043 -0.0200  0.0606 -0.1127
    1DIPC   D2A19446   9.461  11.860   3.392 -0.0860  0.0156  0.2662
    1DIPC   D3A19447   9.242  11.685   3.809  0.3321 -0.1207  0.1129
    1DIPC   C4A19448   8.903  11.903   3.951 -0.1513  0.3148  0.0996
    1DIPC   C1B19449   9.342  10.923   2.755  0.2965  0.2263  0.1584
    1DIPC   D2B19450   8.948  10.640   2.496 -0.2591 -0.0089  0.2343
    1DIPC   D3B19451   8.564  10.561   2.703  0.0281 -0.0684 -0.1915
    1DIPC   C4B19452   8.373  10.919   2.709 -0.0811  0.1091  0.3971
    1DIPC   NC319453   1.420  23.612   2.947  0.2919  0.3975 -0.2799
    1DIPC   PO419454   1.707  23.478   3.161  0.1370  0.0168  0.0664
    1DIPC   GL119455   1.341  23.365   3.426 -0.1087 -0.3265 -0.1474
    1DIPC   GL219456   1.303  23.027   3.444  0.1749  0.0519 -0.2106
    1DIPC   C1A19457   1.512  23.251   3.836  0.0136  0.3416  0.0036
    1DIPC   D2A19458   1.474  23.030   4.256 -0.0310 -0.1009 -0.2747
    1DIPC   D3A19459   1.765  22.941   4.546  0.3595  0.2658  0.3183
    1DIPC   C4A19460   1.690  23.056   4.913  0.0487 -0.4428  0.0256
    1DIPC   C1B19461   1.112  22.977   3.836  0.1443  0.1016  0.0933
    1DIPC   D2B19462   1.000  23.083   4.225 -0.0991  0.0412  0.1729
    1DIPC   D3B19463   0.779  23.457   4.268 -0.0721 -0.3738 -0.2851
    1DIPC   C4B19464   0.446  23.474   4.116  0.2872 -0.1035 -0.0192
    1DIPC   NC319465  13.229  14.322   3.048 -0.1092 -0.0706 -0.1455
    1DIPC   PO419466  13.001  14.646   2.941 -0.1867  0.3031 -0.0001
    1DIPC   GL119467  12.664  14.751   3.365 -0.1290 -0.0534  0.2060
    1DIPC   GL219468  12.860  14.441   3.438  0.1929  0.1814 -0.0908
    1DIPC   C1A19469  12.332  14.889   3.568  0.0979  0.1938  0.1410
    1DIPC   D2A19470  11.987  14.755   3.800 -0.3411  0.1120 -0.1957
    1DIPC   D3A19471  12.062  14.748   4.144  0.2512 -0.1100 -0.0022
    1DIPC   C4A19472  12.262  15.018   4.517 -0.1938  0.2856 -0.2625
    1DIPC   C1B19473  13.135  14.267   3.685  0.1251 -0.5941 -0.0847
    1DIPC   D2B19474  13.312  14.488   4.064  0.1072  0.1681 -0.0557
    1DIPC   D3B19475  13.119  14.790   3.834  0.1117 -0.3487  0.1752
    1DIPC   C4B19476  13.144  15.106   4.058 -0.1128  0.1795 -0.1670
    1DIPC   NC319477  17.151   3.101   3.009 -0.2850 -0.1185  0.0628
    1DIPC   PO419478  17.678   2.918   3.010  0.1150  0.2567  0.0701
    1DIPC   GL119479  17.621   3.122   3.390  0.0606 -0.1871 -0.0150
    1DIPC   GL219480  17.319   3.048   3.464 -0.1758 -0.2173 -0.0456
    1DIPC   C1A19481  17.877   3.209   3.680  0.2833 -0.1663  0.0448
    1DIPC   D2A19482  18.277   3.122   3.864  0.1198 -0.0944 -0.3414
    1DIPC   D3A19483  18.585   3.087   4.178  0.3611 -0.2345 -0.0011
    1DIPC   C4A19484  18.889   3.458   4.186  0.0355  0.1673  0.0041
    1DIPC   C1B19485  17.389   3.114   3.912  0.0713 -0.2607 -0.3497
    1DIPC   D2B19486  16.981   3.113   4.035 -0.0037 -0.1058 -0.3469
    1DIPC   D3B19487  16.759   3.081   4.467 -0.0615  0.2597 -0.1312
    1DIPC   C4B19488  16.769   2.669   4.680  0.1277 -0.0480 -0.0133
    1DIPC   NC319489  13.062   1.887   2.945 -0.0967  0.2362 -0.0205
    1DIPC   PO419490  13.448   1.934   2.843  0.1905  0.1432 -0.1324
    1DIPC   GL119491  13.755   1.865   3.069 -0.1242  0.0099 -0.1217
    1DIPC   GL219492  13.965   1.974   2.842 -0.0578  0.2666  0.0541
    1DIPC   C1A19493  13.925   1.604   3.407  0.3181  0.4074 -0.2876
    1DIPC   D2A19494  14.401   1.575   3.624  0.2074  0.0510  0.1719
    1DIPC   D3A19495  14.577   1.244   3.784 -0.0125  0.1761  0.0402
    1DIPC   C4A19496  14.960   1.192   3.745 -0.0440  0.0323 -0.1975
    1DIPC   C1B19497  14.201   2.173   3.152 -0.1046  0.0106  0.4637
    1DIPC   D2B19498  14.228   2.008   3.530 -0.2008  0.0626  0.1432
    1DIPC   D3B19499  14.047   2.276   3.862 -0.1721 -0.0546  0.1266
    1DIPC   C4B19500  14.251   2.296   4.296  0.0042 -0.0323 -0.1070
    1DIPC   NC319501  16.445  24.453   2.379 -0.4619 -0.1623 -0.0271
    1DIPC   PO419502  16.560  24.369   2.864  0.0942  0.1046  0.2463
    1DIPC   GL119503  16.567  24.420   3.232  0.0004  0.1565  0.2615
    1DIPC   GL219504  16.421  24.673   3.304  0.0758 -0.2031  0.0217
    1DIPC   C1A19505  16.853  24.136   3.470  0.1155 -0.0478 -0.0607
    1DIPC   D2A19506  16.719  23.957   3.839  0.0148 -0.1086  0.1626
    1DIPC   D3A19507  16.707  24.123   4.171  0.0210  0.0353  0.1648
    1DIPC   C4A19508  16.453  24.105   4.539  0.1067 -0.0685  0.1318
    1DIPC   C1B19509  16.665  24.518   3.698 -0.4638  0.0833 -0.1802
    1DIPC   D2B19510  16.909  24.544   4.063  0.1624  0.0420 -0.2487
    1DIPC   D3B19511  16.558  24.552   4.395 -0.1194  0.1267 -0.0074
    1DIPC   C4B19512  16.155  24.761   4.311  0.0234 -0.1336 -0.0844
    1DIPC   NC319513   5.527  25.931   2.761 -0.5038 -0.1299 -0.1159
    1DIPC   PO419514   5.370  26.218   3.102 -0.1343  0.0924 -0.0438
    1DIPC   GL119515   5.481  26.587   3.448  0.2815  0.1367 -0.0484
    1DIPC   GL219516   5.110  26.629   3.633  0.1297 -0.0990 -0.3250
    1DIPC   C1A19517   5.518  26.678   3.893 -0.0354  0.0191 -0.0260
    1DIPC   D2A19518   5.591  26.866   4.386 -0.1988 -0.0101  0.0429
    1DIPC   D3A19519   5.533  27.008   4.762  0.2019  0.0169 -0.0793
    1DIPC   C4A19520   5.401  27.449   4.809  0.0236  0.0297 -0.1384
    1DIPC   C1B19521   5.258  26.258   3.761  0.2763 -0.2577 -0.0038
    1DIPC   D2B19522   5.292  25.862   3.777 -0.3603  0.2589  0.0776
    1DIPC   D3B19523   5.604  25.845   4.018  0.1725 -0.1235 -0.1617
    1DIPC   C4B19524   5.616  25.874   4.478 -0.1738  0.2446  0.0790
    1DIPC   NC319525  16.999  18.503   3.079  0.1335 -0.0829  0.1420
    1DIPC   PO419526  17.441  18.682   3.026  0.3676  0.0123 -0.3688
    1DIPC   GL119527  17.371  18.604   3.427 -0.2864 -0.1033  0.0377
    1DIPC   GL219528  17.559  18.881   3.506  0.1692 -0.0157 -0.2570
    1DIPC   C1A19529  17.261  18.523   3.909  0.0009 -0.1907 -0.1738
    1DIPC   D2A19530  16.950  18.670   4.089  0.1085  0.5754 -0.1093
    1DIPC   D3A19531  16.918  19.014   4.487  0.5508  0.0802 -0.0856
    1DIPC   C4A19532  16.524  19.153   4.751 -0.0644  0.0910  0.0455
    1DIPC   C1B19533  17.382  18.970   3.942 -0.0256  0.0528 -0.0476
    1DIPC   D2B19534  17.392  18.863   4.354 -0.0210  0.0506  0.3368
    1DIPC   D3B19535  17.442  19.226   4.529 -0.4546 -0.1481 -0.2552
    1DIPC   C4B19536  17.773  19.373   4.803  0.1513 -0.0944 -0.2943
    1DIPC   NC319537   3.516  16.711   2.466  0.1120  0.1932  0.0607
    1DIPC   PO419538   3.295  16.637   2.888 -0.0990 -0.0732  0.2660
    1DIPC   GL119539   3.158  16.994   3.167 -0.0746  0.2857  0.1508
    1DIPC   GL219540   2.968  17.237   3.273  0.0145  0.2580 -0.0533
    1DIPC   C1A19541   3.470  17.191   3.361  0.0613  0.0783 -0.1516
    1DIPC   D2A19542   3.601  17.141   3.664  0.1883 -0.2036  0.0604
    1DIPC   D3A19543   3.125  16.963   3.868  0.0423 -0.2469 -0.2847
    1DIPC   C4A19544   2.903  17.226   4.264 -0.3495  0.1713  0.0339
    1DIPC   C1B19545   2.786  17.315   3.739  0.1661  0.0483  0.1375
    1DIPC   D2B19546   2.614  17.664   4.039  0.3084 -0.0545  0.1299
    1DIPC   D3B19547   2.485  17.402   4.424  0.0535 -0.0539  0.2675
    1DIPC   C4B19548   2.181  17.534   4.820 -0.1228  0.4399  0.1084
    1DIPC   NC319549  24.367  25.461   3.749  0.2177 -0.2298 -0.0342
    1DIPC   PO419550  24.531  24.987   3.760 -0.1902 -0.1986 -0.2818
    1DIPC   GL119551  24.928  24.918   4.023  0.0845 -0.0000 -0.1316
    1DIPC   GL219552  25.013  24.730   3.900 -0.0770  0.1174 -0.4357
    1DIPC   C1A19553  25.259  25.057   4.423 -0.0689  0.2152  0.0737
    1DIPC   D2A19554  25.573  25.104   4.810  0.0278 -0.0053 -0.1554
    1DIPC   D3A19555  25.595  25.235   5.236  0.1626 -0.0400 -0.3252
    1DIPC   C4A19556  25.659  24.858   5.477  0.0633  0.4652 -0.0982
    1DIPC   C1B19557  25.066  24.625   4.405 -0.1128  0.1941  0.0904
    1DIPC   D2B19558  25.359  24.612   4.738  0.2531  0.1282  0.0307
    1DIPC   D3B19559  25.608  24.481   5.090 -0.1408  0.0064 -0.0887
    1DIPC   C4B19560  25.295  24.372   5.204 -0.2763  0.0823 -0.3572
    1DIPC   NC319561   6.053   5.842   2.230 -0.0679  0.1199 -0.0172
    1DIPC   PO419562   5.821   6.118   2.576  0.0641  0.0481 -0.0727
    1DIPC   GL119563   5.742   6.419   2.904 -0.2209 -0.2626 -0.3311
    1DIPC   GL219564   6.014   6.100   3.014  0.2155 -0.3770 -0.2578
    1DIPC   C1A19565   5.887   6.701   3.214 -0.2347 -0.1502  0.1946
    1DIPC   D2A19566   6.016   7.104   3.239 -0.0389 -0.1049  0.0967
    1DIPC   D3A19567   6.266   7.002   3.557  0.1827 -0.1056 -0.0596
    1DIPC   C4A19568   6.136   6.626   3.887  0.0389  0.0950  0.1571
    1DIPC   C1B19569   5.812   5.948   3.333 -0.6087 -0.0739  0.2518
    1DIPC   D2B19570   5.702   6.043   3.805 -0.3482 -0.0606 -0.0696
    1DIPC   D3B19571   5.611   6.427   3.548 -0.1275 -0.1506  0.2574
    1DIPC   C4B19572   5.428   6.727   3.740 -0.0431  0.2266 -0.0129
    1DIPC   NC319573  27.759  23.446   3.308 -0.0269 -0.0019 -0.2089
    1DIPC   PO419574  27.501  23.217   3.455  0.0649 -0.0173  0.1474
    1DIPC   GL119575  27.390  23.544   3.741 -0.3225 -0.1577  0.1693
    1DIPC   GL219576  27.189  23.401   3.941  0.2080 -0.0185 -0.0853
    1DIPC   C1A19577  27.093  23.881   3.953  0.1428 -0.1632 -0.0625
    1DIPC   D2A19578  26.845  24.266   3.973 -0.0955 -0.1577  0.1503
    1DIPC   D3A19579  26.819  24.537   4.244 -0.0946  0.0355  0.0346
    1DIPC   C4A19580  26.480  24.615   4.651  0.2585  0.3699 -0.0876
    1DIPC   C1B19581  26.979  23.045   3.972  0.1073  0.0549 -0.2338
    1DIPC   D2B19582  26.946  22.729   4.261 -0.0198  0.3887 -0.2559
    1DIPC   D3B19583  26.904  22.725   4.700 -0.4225  0.0724  0.3402
    1DIPC   C4B19584  26.955  23.169   4.865  0.0019 -0.0169 -0.2602
    1DIPC   NC319585   6.956  17.321   2.310 -0.2559 -0.1432  0.0092
    1DIPC   PO419586   7.102  17.309   2.750  0.0603  0.0695 -0.1588
    1DIPC   GL119587   7.368  17.123   3.079 -0.0016  0.3849 -0.0625
    1DIPC   GL219588   7.580  16.872   2.964  0.6232  0.0212  0.2551
    1DIPC   C1A19589   7.487  17.167   3.506  0.0849 -0.0866 -0.0880
    1DIPC   D2A19590   7.309  16.951   3.890  0.0260 -0.1482 -0.0464
    1DIPC   D3A19591   7.314  17.274   4.116  0.0278  0.1893  0.1654
    1DIPC   C4A19592   6.958  17.494   4.290 -0.2225  0.1033  0.3180
    1DIPC   C1B19593   7.794  16.781   3.385 -0.0588 -0.0083  0.0007
    1DIPC   D2B19594   8.060  16.650   3.780  0.0025 -0.1536  0.1065
    1DIPC   D3B19595   7.936  16.219   3.898 -0.2009 -0.1264  0.1184
    1DIPC   C4B19596   7.681  16.138   4.232 -0.0103 -0.1110  0.1710
    1DIPC   NC319597   1.559  28.144   2.948 -0.1232  0.1867  0.0713
    1DIPC   PO419598   1.651  28.537   3.003 -0.1294 -0.3567 -0.1242
    1DIPC   GL119599   1.341  28.721   3.305  0.2093 -0.2365  0.1307
    1DIPC   GL219600   1.377  28.953   3.582 -0.0655  0.0586  0.0275
    1DIPC   C1A19601   1.036  28.512   3.580 -0.1679 -0.0608  0.2126
    1DIPC   D2A19602   0.948  28.327   3.927 -0.1721  0.0194 -0.0823
    1DIPC   D3A19603   0.554  28.494   3.875 -0.1034 -0.1615 -0.1093
    1DIPC   C4A19604   0.396  28.910   3.960 -0.1060 -0.3276 -0.0723
    1DIPC   C1B19605   1.363  29.023   4.025 -0.2739 -0.0527  0.2220
    1DIPC   D2B19606   1.313  29.049   4.432 -0.2359  0.2118 -0.0946
    1DIPC   D3B19607   1.432  28.645   4.705  0.1571 -0.0935 -0.0467
    1DIPC   C4B19608   1.786  28.438   4.712 -0.0556 -0.1055  0.1480
    1DIPC   NC319609  24.916  16.367   2.535 -0.1383 -0.0597  0.0093
    1DIPC   PO419610  24.740  16.149   2.962  0.2321 -0.1472  0.0485
    1DIPC   GL119611  24.745  16.245   3.419  0.1669 -0.1804 -0.2358
    1DIPC   GL219612  24.563  16.483   3.549 -0.0874 -0.1390 -0.1935
    1DIPC   C1A19613  24.964  16.174   3.779  0.0494 -0.0382 -0.0737
    1DIPC   D2A19614  24.907  16.026   4.174 -0.0804  0.0525 -0.3690
    1DIPC   D3A19615  24.606  15.950   4.334  0.1385 -0.2057  0.0066
    1DIPC   C4A19616  24.529  15.625   4.434  0.3263  0.0634  0.1063
    1DIPC   C1B19617  24.392  16.308   3.967 -0.2655  0.0590  0.1051
    1DIPC   D2B19618  24.463  16.385   4.435  0.1357 -0.0680  0.3835
    1DIPC   D3B19619  24.918  16.290   4.637 -0.0079  0.2089  0.0973
    1DIPC   C4B19620  25.108  15.802   4.524  0.2138  0.0524  0.0083
    1DIPC   NC319621  12.674  21.812   2.563 -0.2668 -0.0463  0.2727
    1DIPC   PO419622  12.842  22.164   2.484  0.0230 -0.2500  0.1210
    1DIPC   GL119623  12.950  22.267   2.893 -0.0526  0.2284  0.1842
    1DIPC   GL219624  12.814  21.964   3.032 -0.1550  0.0473 -0.2728
    1DIPC   C1A19625  12.958  22.531   3.257 -0.1413  0.4628 -0.1495
    1DIPC   D2A19626  12.808  22.816   3.386  0.0583  0.0031  0.0360
    1DIPC   D3A19627  12.737  23.186   3.196  0.3043 -0.1325  0.0982
    1DIPC   C4A19628  12.362  23.361   3.404  0.0229 -0.0399 -0.1692
    1DIPC   C1B19629  12.872  22.048   3.371  0.0385 -0.0593  0.0350
    1DIPC   D2B19630  12.653  22.074   3.709 -0.0494  0.3297  0.1094
    1DIPC   D3B19631  12.391  21.735   3.858  0.0343  0.1911  0.0947
    1DIPC   C4B19632  12.363  21.310   3.839  0.1775 -0.0725  0.0784
    1DIPC   NC319633  17.344  23.190   3.208 -0.1171  0.0878 -0.1093
    1DIPC   PO419634  17.294  22.756   3.200 -0.3704 -0.0110 -0.1245
    1DIPC   GL119635  17.098  22.357   3.447  0.1718 -0.1615  0.0037
    1DIPC   GL219636  17.359  22.128   3.509 -0.0252  0.2095  0.0461
    1DIPC   C1A19637  16.792  22.420   3.775 -0.0665 -0.1152 -0.1500
    1DIPC   D2A19638  16.552  22.612   4.128 -0.0751  0.1972  0.2914
    1DIPC   D3A19639  16.273  22.883   4.329 -0.0387  0.0447  0.1326
    1DIPC   C4A19640  16.402  23.193   4.623 -0.2572  0.1762 -0.1336
    1DIPC   C1B19641  17.058  21.981   3.830  0.4108 -0.0690 -0.0148
    1DIPC   D2B19642  16.863  22.178   4.275 -0.2771  0.4138 -0.2965
    1DIPC   D3B19643  16.589  22.049   4.591  0.0690  0.0937  0.0815
    1DIPC   C4B19644  16.732  22.222   4.964 -0.0590 -0.2322  0.4143
    1DIPC   NC319645   6.062   2.743   2.189 -0.0441 -0.2685 -0.1782
    1DIPC   PO419646   5.909   2.830   2.724  0.1251  0.0720 -0.0500
    1DIPC   GL119647   5.973   2.836   3.124 -0.1123 -0.0568 -0.0088
    1DIPC   GL219648   6.174   2.557   3.193  0.1842  0.2192 -0.1288
    1DIPC   C1A19649   5.766   3.002   3.444  0.1985 -0.2463  0.1815
    1DIPC   D2A19650   5.644   3.279   3.872 -0.2267  0.1956  0.1973
    1DIPC   D3A19651   5.786   3.775   3.795  0.0591 -0.1328  0.2143
    1DIPC   C4A19652   6.122   4.009   3.791  0.2633  0.0872  0.1557
    1DIPC   C1B19653   5.882   2.356   3.427 -0.0958 -0.1924 -0.0135
    1DIPC   D2B19654   5.671   2.117   3.725  0.1252  0.0687  0.2270
    1DIPC   D3B19655   5.958   1.789   3.747 -0.1889 -0.3562  0.2820
    1DIPC   C4B19656   5.772   1.563   4.109  0.1304 -0.1184  0.2407
    1DIPC   NC319657   6.954   8.196   1.768  0.0283 -0.3007 -0.5058
    1DIPC   PO419658   6.966   8.560   2.075 -0.2809  0.0497 -0.0508
    1DIPC   GL119659   7.094   8.650   2.457  0.3462 -0.1805 -0.0170
    1DIPC   GL219660   7.323   8.463   2.644  0.1386  0.2937 -0.1333
    1DIPC   C1A19661   7.072   8.760   2.930 -0.0692 -0.0421  0.1347
    1DIPC   D2A19662   7.302   8.805   3.410  0.4656 -0.2060  0.4450
    1DIPC   D3A19663   7.102   8.946   3.827 -0.1862  0.0704 -0.1585
    1DIPC   C4A19664   6.713   8.816   4.114  0.1139  0.0546  0.3315
    1DIPC   C1B19665   7.436   8.450   3.046  0.1642  0.0771  0.1111
    1DIPC   D2B19666   7.453   8.275   3.511  0.3355 -0.0649  0.0769
    1DIPC   D3B19667   7.392   8.586   3.833  0.2918  0.0253 -0.1169
    1DIPC   C4B19668   7.599   8.686   4.176 -0.0315  0.1566  0.0467
    1DIPC   NC319669  17.050   1.603   2.666  0.1640  0.0187  0.2462
    1DIPC   PO419670  16.854   1.927   3.045 -0.1273  0.0694 -0.0035
    1DIPC   GL119671  16.634   2.075   3.370 -0.0338 -0.4131  0.1656
    1DIPC   GL219672  16.782   1.955   3.670 -0.4614 -0.1792  0.0473
    1DIPC   C1A19673  16.227   2.126   3.638 -0.0565  0.1076 -0.1285
    1DIPC   D2A19674  15.831   2.282   3.638 -0.1045  0.1588  0.3673
    1DIPC   D3A19675  15.491   2.269   3.523  0.0751  0.0414 -0.1055
    1DIPC   C4A19676  15.218   2.031   3.368 -0.1622 -0.0694 -0.6119
    1DIPC   C1B19677  16.573   1.996   4.007 -0.3940 -0.1035 -0.0561
    1DIPC   D2B19678  16.102   2.128   4.189  0.2454 -0.0418 -0.0941
    1DIPC   D3B19679  16.193   2.321   4.531 -0.0142  0.3254 -0.1866
    1DIPC   C4B19680  15.969   2.174   4.928 -0.1281  0.4388 -0.1277
    1DIPC   NC319681  14.301   4.819   2.637 -0.0080  0.0573  0.2031
    1DIPC   PO419682  14.685   4.563   2.760 -0.0896  0.0234  0.0491
    1DIPC   GL119683  14.277   4.537   3.056 -0.0393  0.0077  0.1941
    1DIPC   GL219684  13.981   4.781   3.100  0.0966  0.0698  0.3365
    1DIPC   C1A19685  14.178   4.429   3.548 -0.2932 -0.0456 -0.1588
    1DIPC   D2A19686  14.217   4.514   3.921  0.2315  0.0084  0.0230
    1DIPC   D3A19687  14.581   4.210   3.868  0.1984  0.1826  0.3529
    1DIPC   C4A19688  14.822   4.015   4.187  0.1183  0.0947 -0.1403
    1DIPC   C1B19689  14.274   4.914   3.427 -0.2067  0.0866 -0.2319
    1DIPC   D2B19690  14.552   4.867   3.688 -0.0272 -0.0134  0.0563
    1DIPC   D3B19691  14.994   5.142   3.638  0.1249  0.2352  0.1783
    1DIPC   C4B19692  15.127   5.228   4.029  0.0854  0.1428 -0.0952
    1DIPC   NC319693  21.111  19.969   3.240 -0.1165 -0.2274  0.0891
    1DIPC   PO419694  21.527  19.798   3.299 -0.0706  0.1785  0.0725
    1DIPC   GL119695  21.592  19.946   3.730 -0.1553  0.0299 -0.0136
    1DIPC   GL219696  21.410  19.749   4.071  0.1524 -0.1745  0.0191
    1DIPC   C1A19697  21.736  20.185   3.997 -0.0119 -0.0712  0.0844
    1DIPC   D2A19698  21.700  20.512   4.392  0.2398 -0.0999  0.1299
    1DIPC   D3A19699  21.405  20.277   4.570 -0.0214 -0.0117 -0.0266
    1DIPC   C4A19700  21.317  20.197   5.059  0.0144  0.0460  0.0882
    1DIPC   C1B19701  21.476  19.466   4.427  0.2345 -0.0311  0.3712
    1DIPC   D2B19702  21.789  19.203   4.548  0.0146  0.0254 -0.0193
    1DIPC   D3B19703  22.018  19.197   4.930  0.1178  0.1903  0.0573
    1DIPC   C4B19704  21.903  19.229   5.300 -0.0708  0.0524 -0.1594
    1DIPC   NC319705   1.050  17.414   2.988  0.3207 -0.0172  0.0264
    1DIPC   PO419706   1.416  17.104   2.993 -0.0981  0.2940  0.0395
    1DIPC   GL119707   1.586  16.965   3.384 -0.3204 -0.1410 -0.3089
    1DIPC   GL219708   1.519  16.605   3.534 -0.2627 -0.3633 -0.0577
    1DIPC   C1A19709   1.412  16.958   3.843 -0.1737 -0.2180  0.0976
    1DIPC   D2A19710   1.302  16.852   4.308 -0.0562  0.2311 -0.0036
    1DIPC   D3A19711   1.142  16.819   4.676  0.1281  0.1579  0.0663
    1DIPC   C4A19712   1.374  17.159   4.905 -0.0140  0.2409 -0.2335
    1DIPC   C1B19713   1.821  16.382   3.744  0.1820 -0.0949  0.0934
    1DIPC   D2B19714   2.063  16.193   3.843 -0.0730 -0.2689 -0.0867
    1DIPC   D3B19715   1.911  16.250   4.220  0.0204  0.0698  0.3116
    1DIPC   C4B19716   2.098  16.463   4.523 -0.2235  0.1896  0.3534
    1DIPC   NC319717   5.461  12.970   1.984 -0.0800 -0.0799 -0.0017
    1DIPC   PO419718   5.526  13.291   2.222  0.0145  0.3934  0.0599
    1DIPC   GL119719   5.331  13.285   2.568 -0.0608  0.0048 -0.1458
    1DIPC   GL219720   5.213  13.579   2.546  0.1218 -0.4748 -0.0994
    1DIPC   C1A19721   5.109  13.357   2.950  0.0649 -0.1699 -0.3724
    1DIPC   D2A19722   4.995  13.674   3.239 -0.2299  0.0530  0.1405
    1DIPC   D3A19723   4.700  13.521   3.424  0.2137  0.3022  0.1830
    1DIPC   C4A19724   4.478  13.711   3.713  0.0811 -0.3577 -0.1864
    1DIPC   C1B19725   5.394  13.862   2.932  0.2232 -0.1265 -0.0255
    1DIPC   D2B19726   5.446  13.955   3.356  0.0842  0.1900 -0.1450
    1DIPC   D3B19727   5.415  13.442   3.351 -0.2672 -0.1694  0.1276
    1DIPC   C4B19728   5.593  13.363   3.734 -0.0261 -0.2916 -0.0417
    1DIPC   NC319729   9.341  28.415   2.757 -0.2222 -0.0171 -0.2102
    1DIPC   PO419730   9.695  28.181   2.980  0.0252  0.0112  0.2000
    1DIPC   GL119731   9.406  28.376   3.277  0.1506  0.1264  0.0166
    1DIPC   GL219732   9.356  28.139   3.437  0.0690  0.0651 -0.0119
    1DIPC   C1A19733   9.364  28.677   3.502 -0.1283 -0.1525 -0.1019
    1DIPC   D2A19734   9.215  29.023   3.726  0.1740 -0.0906 -0.1405
    1DIPC   D3A19735   9.511  29.175   3.951 -0.1982 -0.1420  0.4668
    1DIPC   C4A19736   9.508  29.034   4.394  0.1649 -0.0339  0.2526
    1DIPC   C1B19737   9.136  28.178   3.775 -0.1060 -0.0897  0.2772
    1DIPC   D2B19738   8.983  27.879   3.864  0.1121 -0.1408  0.0390
    1DIPC   D3B19739   8.722  27.974   4.001 -0.0090 -0.2151 -0.1361
    1DIPC   C4B19740   8.520  27.669   4.287 -0.3586 -0.0232 -0.1280
    1DIPC   NC319741  19.843  26.535   3.936  0.0696  0.0516  0.0133
    1DIPC   PO419742  19.884  26.835   4.261 -0.0929 -0.1458  0.1666
    1DIPC   GL119743  20.046  26.924   4.630 -0.0935 -0.3744 -0.1893
    1DIPC   GL219744  20.425  26.941   4.569  0.0223  0.1769  0.0715
    1DIPC   C1A19745  19.906  27.173   5.018  0.2080  0.2339 -0.1409
    1DIPC   D2A19746  19.635  27.055   5.415  0.2153  0.0989 -0.1673
    1DIPC   D3A19747  19.383  26.726   5.577  0.0120 -0.0445 -0.1943
    1DIPC   C4A19748  19.033  26.727   5.317 -0.0446 -0.0687 -0.0868
    1DIPC   C1B19749  20.373  26.928   5.012  0.1233  0.4222 -0.1622
    1DIPC   D2B19750  20.292  26.675   5.368  0.0642 -0.0623 -0.0249
    1DIPC   D3B19751  20.275  27.022   5.598  0.0873 -0.1989  0.1623
    1DIPC   C4B19752  19.938  27.199   5.809  0.1972 -0.1113 -0.0040
    1DIPC   NC319753  14.996  27.688   2.457  0.2090 -0.3140  0.0107
    1DIPC   PO419754  15.114  28.084   2.513  0.1473  0.2289  0.2892
    1DIPC   GL119755  15.369  28.004   2.819 -0.0708 -0.1341 -0.0352
    1DIPC   GL219756  15.274  28.179   3.060  0.0603  0.1940 -0.1717
    1DIPC   C1A19757  15.667  27.784   3.097  0.0419  0.3561 -0.2630
    1DIPC   D2A19758  15.741  27.564   3.533 -0.4766 -0.2228  0.3403
    1DIPC   D3A19759  15.559  27.882   3.809  0.0450 -0.0072  0.4420
    1DIPC   C4A19760  15.621  27.751   4.268  0.3213 -0.0725 -0.0325
    1DIPC   C1B19761  14.978  27.788   3.182  0.0942 -0.0064 -0.1631
    1DIPC   D2B19762  14.935  27.422   3.181 -0.0700  0.0784 -0.1350
    1DIPC   D3B19763  14.660  27.223   3.550  0.0325 -0.1892 -0.0182
    1DIPC   C4B19764  14.776  27.587   3.697 -0.0376 -0.0769  0.1659
    1DIPC   NC319765  19.402   2.542   3.225 -0.2179 -0.0815 -0.0646
    1DIPC   PO419766  18.936   2.415   3.383 -0.0080 -0.0086  0.0209
    1DIPC   GL119767  19.235   2.434   3.679  0.0764  0.3318 -0.0525
    1DIPC   GL219768  19.396   2.021   3.716 -0.2868  0.0281 -0.0161
    1DIPC   C1A19769  19.382   2.468   4.034 -0.2634  0.3085 -0.1767
    1DIPC   D2A19770  19.291   2.542   4.431  0.0317 -0.2984  0.3301
    1DIPC   D3A19771  18.992   2.900   4.588 -0.3168 -0.0934 -0.2942
    1DIPC   C4A19772  18.513   2.866   4.615  0.1786 -0.0032  0.3949
    1DIPC   C1B19773  19.476   1.855   4.152 -0.1475 -0.2288 -0.0691
    1DIPC   D2B19774  19.867   1.839   4.332  0.0698 -0.2821  0.2737
    1DIPC   D3B19775  19.549   2.040   4.642 -0.1253  0.1042  0.0288
    1DIPC   C4B19776  19.432   1.817   4.968 -0.0586  0.0284  0.1537
    1DIPC   NC319777   7.392   4.472   2.543  0.2985 -0.0827 -0.3291
    1DIPC   PO419778   7.084   4.230   2.709  0.0113  0.1102  0.0179
    1DIPC   GL119779   7.192   4.092   3.175  0.1353  0.1170 -0.1281
    1DIPC   GL219780   7.413   3.809   3.228 -0.1860 -0.0418 -0.0140
    1DIPC   C1A19781   7.144   4.211   3.519 -0.1411  0.1036 -0.2721
    1DIPC   D2A19782   7.267   4.218   3.970  0.0793 -0.0907 -0.1669
    1DIPC   D3A19783   7.159   4.595   3.991 -0.1055  0.0174  0.2642
    1DIPC   C4A19784   6.718   4.508   3.948 -0.1802  0.0800  0.1217
    1DIPC   C1B19785   7.617   3.800   3.610  0.0466  0.0717 -0.0943
    1DIPC   D2B19786   7.872   3.967   3.976 -0.0711 -0.0042  0.0163
    1DIPC   D3B19787   7.578   4.072   4.310 -0.1668  0.0516 -0.4086
    1DIPC   C4B19788   7.235   4.274   4.454  0.1664  0.3172  0.0451
    1DIPC   NC319789  10.004  19.801   2.432  0.0256 -0.0872  0.1775
    1DIPC   PO419790  10.359  19.500   2.454  0.4647  0.0808 -0.0424
    1DIPC   GL119791  10.319  19.137   2.798  0.0776 -0.2998  0.1041
    1DIPC   GL219792  10.360  18.744   2.765 -0.2879 -0.2587 -0.1870
    1DIPC   C1A19793  10.031  19.217   3.171  0.0947 -0.0606 -0.0627
    1DIPC   D2A19794   9.843  18.842   3.219  0.2597  0.0214  0.0650
    1DIPC   D3A19795   9.684  18.986   3.593 -0.3596  0.0653 -0.0161
    1DIPC   C4A19796   9.581  18.596   3.915  0.2501  0.2111 -0.0225
    1DIPC   C1B19797  10.351  18.659   3.123  0.1132 -0.2431 -0.1432
    1DIPC   D2B19798  10.476  18.757   3.532  0.0170 -0.1934 -0.2978
    1DIPC   D3B19799  10.128  18.803   3.850 -0.1492 -0.1635  0.2886
    1DIPC   C4B19800  10.054  18.663   4.231 -0.0013 -0.0208 -0.2095
    1DIPC   NC319801  25.626  17.995   3.103 -0.1565 -0.0470  0.3374
    1DIPC   PO419802  25.236  17.635   3.234  0.0344  0.0225 -0.0813
    1DIPC   GL119803  25.334  17.286   3.546 -0.0728  0.2499 -0.0615
    1DIPC   GL219804  25.107  17.128   3.695 -0.1784  0.1389 -0.3513
    1DIPC   C1A19805  25.547  16.863   3.627  0.3511 -0.0918 -0.1048
    1DIPC   D2A19806  25.771  16.527   3.386  0.2272 -0.1062 -0.1012
    1DIPC   D3A19807  25.934  16.097   3.517 -0.0278 -0.0940  0.0748
    1DIPC   C4A19808  25.927  15.850   3.944  0.2401  0.1331 -0.0251
    1DIPC   C1B19809  25.064  17.034   4.130 -0.3990  0.1200  0.2352
    1DIPC   D2B19810  25.026  17.295   4.526 -0.3542 -0.0767 -0.2299
    1DIPC   D3B19811  24.934  17.063   4.931  0.0647  0.2250 -0.1316
    1DIPC   C4B19812  24.545  17.002   5.178  0.0065 -0.0521  0.0382
    1DIPC   NC319813   5.924   7.345   1.749  0.3480  0.2053  0.1780
    1DIPC   PO419814   5.674   7.120   2.014  0.2018 -0.0509 -0.0447
    1DIPC   GL119815   5.741   7.088   2.472 -0.1223  0.0756  0.2352
    1DIPC   GL219816   5.457   7.245   2.487 -0.3421 -0.0280 -0.2205
    1DIPC   C1A19817   5.432   6.932   2.894 -0.1244  0.0271 -0.0391
    1DIPC   D2A19818   5.407   6.777   3.237  0.2323 -0.0536  0.1380
    1DIPC   D3A19819   5.531   7.116   3.353  0.1878 -0.1359 -0.2854
    1DIPC   C4A19820   5.876   7.434   3.601 -0.2019  0.1155 -0.2143
    1DIPC   C1B19821   5.251   7.453   2.885 -0.1853  0.1073 -0.1447
    1DIPC   D2B19822   5.298   7.538   3.256  0.3694  0.1503 -0.0079
    1DIPC   D3B19823   5.034   7.634   3.517 -0.2006  0.2786  0.1592
    1DIPC   C4B19824   4.583   7.501   3.452  0.2401 -0.1952 -0.1517
    1DIPC   NC319825   5.293  18.575   3.256 -0.0771  0.0049  0.3794
    1DIPC   PO419826   5.001  18.957   3.374 -0.0656 -0.1198  0.1482
    1DIPC   GL119827   4.930  18.602   3.633  0.0428  0.1843  0.0641
    1DIPC   GL219828   4.633  18.650   3.729  0.2501 -0.0823 -0.2223
    1DIPC   C1A19829   5.037  18.355   3.850  0.1323  0.1595 -0.1082
    1DIPC   D2A19830   5.094  17.946   3.893 -0.0572  0.1570  0.3162
    1DIPC   D3A19831   5.242  17.679   3.567  0.0824 -0.3181  0.1985
    1DIPC   C4A19832   5.540  17.263   3.526  0.0105  0.2575 -0.2567
    1DIPC   C1B19833   4.665  18.724   4.148  0.1717 -0.0998  0.4567
    1DIPC   D2B19834   4.837  18.643   4.556  0.0798 -0.3643 -0.0760
    1DIPC   D3B19835   4.793  18.249   4.683  0.1279  0.0092  0.1362
    1DIPC   C4B19836   5.171  18.048   4.616 -0.0079 -0.4156 -0.0250
    1DIPC   NC319837  13.627  26.928   2.939 -0.6066  0.0221  0.4045
    1DIPC   PO419838  13.226  26.993   2.753 -0.2812 -0.0553 -0.0106
    1DIPC   GL119839  12.975  27.052   3.055  0.1362  0.0855 -0.4354
    1DIPC   GL219840  13.154  26.735   3.174  0.0115 -0.1768 -0.1038
    1DIPC   C1A19841  12.517  27.050   3.323  0.3227  0.0604 -0.0852
    1DIPC   D2A19842  12.370  27.133   3.745 -0.2499  0.3327 -0.0889
    1DIPC   D3A19843  12.177  27.101   4.080 -0.3804  0.3314  0.0658
    1DIPC   C4A19844  12.465  27.038   4.484 -0.1494  0.2273 -0.1504
    1DIPC   C1B19845  12.921  26.926   3.636 -0.1554  0.1342  0.1954
    1DIPC   D2B19846  12.960  26.935   4.121  0.1094  0.1697 -0.4935
    1DIPC   D3B19847  12.599  26.704   4.203 -0.3199 -0.0529  0.1835
    1DIPC   C4B19848  12.653  26.548   4.575 -0.0912 -0.2123  0.1610
    1DIPC   NC319849  26.290  18.768   3.641  0.1531  0.0660 -0.0734
    1DIPC   PO419850  26.102  19.222   3.543  0.1323 -0.0344  0.1467
    1DIPC   GL119851  26.241  19.222   3.987  0.0338 -0.1494  0.1222
    1DIPC   GL219852  26.227  19.021   4.137 -0.1430  0.1169 -0.2233
    1DIPC   C1A19853  26.263  19.475   4.259  0.0082 -0.0529  0.1401
    1DIPC   D2A19854  26.074  19.944   4.188 -0.3888 -0.0460 -0.1077
    1DIPC   D3A19855  25.705  20.010   4.333  0.1331  0.1057  0.4510
    1DIPC   C4A19856  25.862  20.442   4.317 -0.0276 -0.1493  0.2771
    1DIPC   C1B19857  26.164  18.745   4.465  0.3115 -0.1449  0.0790
    1DIPC   D2B19858  26.259  18.813   4.966 -0.0706  0.2275  0.0929
    1DIPC   D3B19859  26.008  18.372   4.879 -0.0550  0.0387 -0.0811
    1DIPC   C4B19860  25.865  18.094   5.265  0.1171  0.0754  0.1110
    1DIPC   NC319861  15.094  20.568   2.515  0.0101 -0.3364 -0.1608
    1DIPC   PO419862  15.308  20.202   2.605  0.1049 -0.1209  0.0162
    1DIPC   GL119863  15.355  20.030   3.032  0.1234  0.0052 -0.1435
    1DIPC   GL219864  15.126  20.071   3.112 -0.1036 -0.1676  0.0444
    1DIPC   C1A19865  15.308  19.778   3.411 -0.2335 -0.1409 -0.1231
    1DIPC   D2A19866  15.312  19.889   3.887 -0.1258 -0.3009  0.0782
    1DIPC   D3A19867  15.208  19.544   3.888  0.2451  0.0825 -0.0402
    1DIPC   C4A19868  14.812  19.460   4.125  0.3682 -0.0465  0.1740
    1DIPC   C1B19869  15.317  20.352   3.399 -0.0018 -0.1116 -0.1817
    1DIPC   D2B19870  15.627  20.561   3.423 -0.2474 -0.2324  0.1862
    1DIPC   D3B19871  15.658  21.029   3.362  0.0342 -0.3139 -0.3098
    1DIPC   C4B19872  15.962  21.281   3.576  0.3467  0.1573  0.0241
    1DIPC   NC319873  19.396  22.749   3.607 -0.0665 -0.3827  0.4731
    1DIPC   PO419874  19.654  22.946   3.964 -0.0383 -0.0370  0.4518
    1DIPC   GL119875  19.610  23.195   4.414 -0.1098 -0.2041 -0.1604
    1DIPC   GL219876  19.704  23.600   4.457  0.1389  0.1549 -0.2850
    1DIPC   C1A19877  19.367  23.267   4.731  0.0684  0.0852  0.0679
    1DIPC   D2A19878  19.256  22.953   5.007 -0.2623  0.0889  0.1632
    1DIPC   D3A19879  18.895  22.820   5.315 -0.1589  0.0687  0.3253
    1DIPC   C4A19880  18.712  22.462   5.378 -0.0014  0.1025  0.0569
    1DIPC   C1B19881  19.527  23.690   4.903  0.2594  0.1843 -0.0132
    1DIPC   D2B19882  19.290  23.854   5.189  0.1057 -0.2729  0.1568
    1DIPC   D3B19883  19.486  23.700   5.526 -0.0326  0.0951  0.0065
    1DIPC   C4B19884  19.346  23.438   5.938  0.0602  0.2572  0.1106
    1DIPC   NC319885   3.942  28.585   3.058 -0.0420 -0.3741 -0.0314
    1DIPC   PO419886   3.724  28.151   2.974  0.0384  0.2804  0.2523
    1DIPC   GL119887   3.598  28.468   3.354  0.0675  0.1144 -0.0285
    1DIPC   GL219888   3.366  28.704   3.393  0.0648 -0.2610  0.0480
    1DIPC   C1A19889   3.455  28.557   3.815  0.0641 -0.0227 -0.0426
    1DIPC   D2A19890   3.469  28.376   4.351  0.0686  0.1386  0.1133
    1DIPC   D3A19891   3.132  28.168   4.587  0.1719 -0.3027  0.1902
    1DIPC   C4A19892   3.256  27.710   4.866  0.1597 -0.3378 -0.0689
    1DIPC   C1B19893   3.219  28.987   3.763 -0.1724  0.2353 -0.1877
    1DIPC   D2B19894   2.877  29.050   4.139  0.2432 -0.1339 -0.0714
    1DIPC   D3B19895   2.780  28.908   4.514  0.2261  0.1991 -0.1191
    1DIPC   C4B19896   2.714  28.564   4.750 -0.1841 -0.0178 -0.0585
    1DIPC   NC319897  28.642  24.908   2.872  0.0122 -0.0034 -0.0766
    1DIPC   PO419898  28.819  25.354   3.023  0.0469  0.4689 -0.0590
    1DIPC   GL119899  28.978  25.444   3.506  0.0020 -0.1205  0.0705
    1DIPC   GL219900  28.953  25.634   3.654  0.2695 -0.1545  0.1198
    1DIPC   C1A19901  28.879  25.180   3.941  0.1769 -0.1899  0.1371
    1DIPC   D2A19902  28.947  24.928   4.337  0.0712  0.0598 -0.1334
    1DIPC   D3A19903  28.690  24.871   4.768 -0.0221  0.0728  0.0699
    1DIPC   C4A19904  28.605  24.433   4.884  0.3580  0.3406  0.2850
    1DIPC   C1B19905  28.783  25.697   4.001 -0.0431 -0.1622 -0.1861
    1DIPC   D2B19906  28.395  25.531   4.197 -0.0844 -0.1650  0.1214
    1DIPC   D3B19907  28.724  25.408   4.460 -0.0906 -0.0756 -0.0749
    1DIPC   C4B19908  28.788  25.360   4.950  0.1330 -0.0232 -0.2900
    1DIPC   NC319909   7.614   0.674   2.028  0.0644 -0.3250  0.0217
    1DIPC   PO419910   7.883   0.374   2.303 -0.1889 -0.0979 -0.1373
    1DIPC   GL119911   8.210   0.228   2.598 -0.0906  0.0639 -0.2503
    1DIPC   GL219912   8.274  29.511   2.597  0.1337  0.0609 -0.1187
    1DIPC   C1A19913   8.327   0.217   3.058 -0.0270 -0.0150 -0.1434
    1DIPC   D2A19914   8.353   0.011   3.608  0.1769  0.0995  0.0692
    1DIPC   D3A19915   8.675   0.229   3.915  0.0389  0.0072  0.0567
    1DIPC   C4A19916   9.060   0.024   3.955  0.0315 -0.1344 -0.4783
    1DIPC   C1B19917   7.861  29.616   2.896  0.0207 -0.3571  0.0479
    1DIPC   D2B19918   7.579   0.221   2.680 -0.1988  0.0915  0.1528
    1DIPC   D3B19919   7.567   0.680   2.662  0.1664  0.0642  0.1609
    1DIPC   C4B19920   7.314   0.740   3.044  0.1074 -0.1171  0.0233
    1DIPC   NC319921   8.988   8.388   2.279  0.1817  0.0432  0.4400
    1DIPC   PO419922   9.372   8.124   2.192 -0.1333  0.1138  0.2185
    1DIPC   GL119923   9.142   7.892   2.504 -0.0488 -0.0279  0.1674
    1DIPC   GL219924   9.239   7.776   2.840  0.0980  0.0788 -0.1118
    1DIPC   C1A19925   8.929   8.131   2.951  0.0467  0.0787 -0.1926
    1DIPC   D2A19926   9.013   8.347   3.291 -0.1753 -0.0722 -0.2263
    1DIPC   D3A19927   9.399   8.307   3.577  0.1019  0.1221  0.0462
    1DIPC   C4A19928   9.339   8.549   3.962 -0.0882 -0.2080 -0.2033
    1DIPC   C1B19929   9.392   7.904   3.233  0.2358 -0.1318  0.2572
    1DIPC   D2B19930   9.253   7.761   3.622 -0.1849  0.0639 -0.1167
    1DIPC   D3B19931   9.306   7.988   4.013 -0.0496 -0.3344 -0.0448
    1DIPC   C4B19932   9.324   7.754   4.423  0.0163  0.3098  0.0445
    1DIPC   NC319933  20.583  27.525   3.538  0.3331  0.0102  0.2628
    1DIPC   PO419934  20.380  27.901   3.793 -0.2064  0.0199  0.0594
    1DIPC   GL119935  20.350  28.209   4.057  0.0101 -0.0146  0.0255
    1DIPC   GL219936  20.601  27.921   4.243  0.2848  0.1989  0.3929
    1DIPC   C1A19937  20.098  28.424   4.376  0.4405  0.4196 -0.2194
    1DIPC   D2A19938  19.796  28.608   4.617  0.3183  0.0450  0.1948
    1DIPC   D3A19939  20.056  28.869   4.889 -0.0161 -0.1757 -0.1255
    1DIPC   C4A19940  20.447  29.219   4.791  0.0198 -0.0269 -0.1041
    1DIPC   C1B19941  20.525  28.239   4.596  0.0136 -0.2933 -0.0336
    1DIPC   D2B19942  20.383  28.319   4.976  0.1121 -0.1029 -0.2439
    1DIPC   D3B19943  20.074  28.066   5.316 -0.2774  0.0676 -0.2972
    1DIPC   C4B19944  19.937  28.337   5.679 -0.2250  0.2786 -0.1877
    1DIPC   NC319945   4.166  11.140   2.059 -0.0055 -0.1267  0.1988
    1DIPC   PO419946   3.730  11.401   2.146 -0.0143  0.2432  0.0983
    1DIPC   GL119947   3.650  11.580   2.603  0.3007  0.1559 -0.0946
    1DIPC   GL219948   3.306  11.491   2.801  0.0781  0.0688  0.0454
    1DIPC   C1A19949   3.761  11.338   2.992  0.1385 -0.0379  0.1785
    1DIPC   D2A19950   3.942  11.119   3.320  0.0316 -0.2439 -0.4534
    1DIPC   D3A19951   4.336  10.939   3.526 -0.0727  0.0781 -0.0550
    1DIPC   C4A19952   4.525  10.967   3.897  0.0045  0.3557  0.0743
    1DIPC   C1B19953   3.369  11.547   3.291  0.0345  0.0715  0.1379
    1DIPC   D2B19954   3.494  11.215   3.573  0.5194  0.0170 -0.1001
    1DIPC   D3B19955   3.580  11.371   4.037 -0.0823 -0.0622 -0.1354
    1DIPC   C4B19956   3.844  11.155   4.367 -0.3018  0.1480  0.0020
    1DIPC   NC319957   7.908   0.919   2.312 -0.2232 -0.0683 -0.0406
    1DIPC   PO419958   8.086   0.880   1.928 -0.0652 -0.0407 -0.2737
    1DIPC   GL119959   8.318   0.645   2.370  0.0724 -0.0533  0.0463
    1DIPC   GL219960   8.628   0.436   2.267  0.0907 -0.1252  0.1600
    1DIPC   C1A19961   8.395   0.780   2.703 -0.2419  0.0217  0.1900
    1DIPC   D2A19962   8.384   0.766   3.160  0.0671 -0.0040  0.0147
    1DIPC   D3A19963   8.736   0.603   2.992  0.2057  0.2213 -0.2749
    1DIPC   C4A19964   8.754   0.211   2.736  0.1321  0.0609 -0.0408
    1DIPC   C1B19965   8.850   0.825   2.515 -0.1814  0.2391 -0.0743
    1DIPC   D2B19966   8.843   1.229   2.559  0.3884 -0.0985  0.1572
    1DIPC   D3B19967   9.107   1.386   2.801 -0.0963 -0.1589  0.0154
    1DIPC   C4B19968   9.044   1.547   3.202 -0.1420 -0.3319  0.1582
    1DIPC   NC319969  15.367  21.490   2.585  0.1608 -0.0343  0.3107
    1DIPC   PO419970  15.639  21.284   2.827  0.1703 -0.3706 -0.0208
    1DIPC   GL119971  15.353  21.343   3.163  0.2271 -0.0069  0.1473
    1DIPC   GL219972  15.230  21.620   3.220 -0.0047 -0.1746 -0.1096
    1DIPC   C1A19973  15.180  21.210   3.495  0.1737  0.0950  0.0080
    1DIPC   D2A19974  15.196  20.830   3.728  0.0560 -0.1239 -0.1256
    1DIPC   D3A19975  15.572  20.726   3.936 -0.1770  0.3527  0.2098
    1DIPC   C4A19976  15.671  20.316   3.865  0.0823 -0.0554 -0.2677
    1DIPC   C1B19977  15.181  21.715   3.734  0.4899 -0.1914  0.0122
    1DIPC   D2B19978  15.401  21.841   4.103  0.0948  0.1193  0.1482
    1DIPC   D3B19979  15.162  21.721   4.496 -0.2154  0.0307 -0.1203
    1DIPC   C4B19980  14.852  21.960   4.673  0.1439 -0.2439 -0.1152
    1DIPC   NC319981  17.667  26.627   3.362 -0.1618  0.0074 -0.0755
    1DIPC   PO419982  17.848  26.725   3.725  0.1745 -0.1713 -0.1269
    1DIPC   GL119983  17.791  26.793   4.061  0.3607 -0.0017  0.3429
    1DIPC   GL219984  17.836  26.499   4.236 -0.0349  0.0033  0.0820
    1DIPC   C1A19985  17.663  27.054   4.429 -0.0299 -0.4540  0.0865
    1DIPC   D2A19986  17.490  27.186   4.885  0.1297  0.2003 -0.1528
    1DIPC   D3A19987  17.108  26.996   5.161 -0.0708 -0.0916  0.1012
    1DIPC   C4A19988  16.748  27.304   5.274 -0.1420 -0.1667 -0.0006
    1DIPC   C1B19989  17.793  26.508   4.700 -0.0215 -0.3770 -0.0876
    1DIPC   D2B19990  17.535  26.636   4.899  0.3105  0.0099 -0.0717
    1DIPC   D3B19991  17.853  26.892   5.143 -0.0752 -0.2740 -0.3009
    1DIPC   C4B19992  18.302  27.162   4.930 -0.2915  0.1395  0.0824
    1DIPC   NC319993   0.619  22.588   3.491  0.0110  0.1988  0.0956
    1DIPC   PO419994   0.666  22.230   3.621 -0.1957  0.0521  0.0820
    1DIPC   GL119995   0.522  22.447   3.985 -0.1984 -0.0618  0.1148
    1DIPC   GL219996   0.813  22.670   4.017  0.3260 -0.1857  0.2311
    1DIPC   C1A19997   0.300  22.601   4.366  0.1319  0.1789 -0.2176
    1DIPC   D2A19998   0.037  22.583   4.763 -0.1505 -0.3378  0.0382
    1DIPC   D3A19999   0.422  22.817   4.915  0.0858  0.0040  0.1492
    1DIPC   C4A20000   0.816  22.948   5.222  0.0248  0.4112 -0.1478
    1DIPC   C1B20001   0.813  22.675   4.434 -0.1124 -0.3358  0.2690
    1DIPC   D2B20002   0.786  22.593   4.770 -0.3904 -0.1163  0.1058
    1DIPC   D3B20003   1.136  22.464   5.006 -0.0094 -0.0003 -0.3190
    1DIPC   C4B20004   1.109  22.134   5.137  0.3736  0.1981 -0.1661
    1DIPC   NC320005  14.232  24.415   2.809 -0.1971 -0.3075 -0.0911
    1DIPC   PO420006  14.200  23.970   2.778  0.0994 -0.0158 -0.0840
    1DIPC   GL120007  14.307  23.681   3.155 -0.3296  0.2302  0.1557
    1DIPC   GL220008  14.279  23.421   3.209  0.3457 -0.0629  0.2377
    1DIPC   C1A20009  14.050  23.617   3.576  0.0831  0.1251 -0.2063
    1DIPC   D2A20010  14.072  23.491   3.940  0.1340 -0.3553  0.2503
    1DIPC   D3A20011  13.806  23.489   4.293  0.0362 -0.1391 -0.1165
    1DIPC   C4A20012  13.524  23.233   4.466  0.0455 -0.1452 -0.1776
    1DIPC   C1B20013  13.830  23.239   3.410  0.1894 -0.2562  0.0757
    1DIPC   D2B20014  13.637  23.147   3.707  0.0774  0.0180  0.1865
    1DIPC   D3B20015  13.429  23.440   3.886  0.4747 -0.0896  0.0784
    1DIPC   C4B20016  13.062  23.451   4.193 -0.0397 -0.0689  0.1249
    1DIPC   NC320017  27.729  29.531   3.391 -0.1461 -0.0502  0.3226
    1DIPC   PO420018  27.396   0.156   3.182 -0.1854 -0.0163 -0.4094
    1DIPC   GL120019  27.532   0.388   3.634 -0.3043 -0.0171 -0.3752
    1DIPC   GL220020  27.302   0.635   3.758 -0.0879 -0.1974  0.0307
    1DIPC   C1A20021  27.580   0.268   4.049  0.4432  0.3133  0.1298
    1DIPC   D2A20022  27.282  29.614   4.282 -0.0063  0.1182  0.2067
    1DIPC   D3A20023  27.449  29.606   4.736  0.2838  0.3962 -0.2603
    1DIPC   C4A20024  27.596   0.260   5.021  0.1342  0.1689 -0.0017
    1DIPC   C1B20025  27.512   0.797   4.153 -0.0815  0.1988  0.1312
    1DIPC   D2B20026  27.613   0.624   4.612  0.0441  0.0675  0.0590
    1DIPC   D3B20027  27.953   0.183   4.658 -0.0362  0.1213 -0.1756
    1DIPC   C4B20028  28.185   0.149   5.058  0.1800 -0.1995  0.1796
    1DIPC   NC320029  19.577   0.297   3.562  0.0055  0.1706 -0.0767
    1DIPC   PO420030  19.541   0.400   3.949 -0.1100 -0.0868  0.2047
    1DIPC   GL120031  19.481   0.185   4.223 -0.2763 -0.2293  0.0173
    1DIPC   GL220032  19.547  29.496   4.154 -0.1289  0.3863 -0.2718
    1DIPC   C1A20033  19.523   0.170   4.652  0.0748 -0.0286 -0.1126
    1DIPC   D2A20034  19.260   0.309   5.046 -0.0375 -0.3038 -0.1978
    1DIPC   D3A20035  19.721   0.220   5.154 -0.0977  0.0562  0.3078
    1DIPC   C4A20036  19.771  29.601   5.423  0.3595  0.1496 -0.2498
    1DIPC   C1B20037  19.984   0.082   4.316 -0.1402  0.0754 -0.0882
    1DIPC   D2B20038  20.320   0.344   4.374 -0.0507 -0.2214 -0.2910
    1DIPC   D3B20039  20.756   0.269   4.268  0.0516  0.2144 -0.0655
    1DIPC   C4B20040  20.882  29.561   4.425  0.0563  0.1268 -0.3480
    1DIPC   NC320041   7.705  26.308   2.468 -0.0584 -0.0753 -0.1739
    1DIPC   PO420042   7.764  26.041   2.735 -0.1650 -0.0838  0.3154
    1DIPC   GL120043   7.694  26.145   3.142 -0.0478  0.2530 -0.0641
    1DIPC   GL220044   7.814  26.415   3.273  0.0593  0.1611 -0.0486
    1DIPC   C1A20045   7.671  26.075   3.589  0.2583  0.0653 -0.1692
    1DIPC   D2A20046   7.858  26.158   4.020  0.1850  0.1692  0.0734
    1DIPC   D3A20047   7.695  25.973   4.409  0.1872  0.1425 -0.0463
    1DIPC   C4A20048   7.264  26.055   4.480 -0.1737 -0.0186 -0.0198
    1DIPC   C1B20049   8.057  26.682   3.619  0.3214 -0.1618 -0.0469
    1DIPC   D2B20050   8.430  26.909   3.812  0.3281 -0.3456 -0.0876
    1DIPC   D3B20051   8.450  26.786   4.209  0.0493  0.0443  0.1403
    1DIPC   C4B20052   8.594  27.126   4.624  0.0475  0.2172  0.4114
    1DIPC   NC320053  25.231  27.919   3.504 -0.1352  0.0804  0.1583
    1DIPC   PO420054  25.084  27.507   3.558 -0.1692 -0.0303  0.0115
    1DIPC   GL120055  25.148  27.379   3.881 -0.0277  0.2051 -0.5361
    1DIPC   GL220056  25.000  26.933   3.945 -0.2660  0.0434 -0.0594
    1DIPC   C1A20057  25.009  27.529   4.262  0.2144 -0.1535  0.2248
    1DIPC   D2A20058  25.169  27.737   4.653 -0.0334 -0.0026  0.1844
    1DIPC   D3A20059  25.116  28.046   4.374  0.2022  0.1799 -0.0297
    1DIPC   C4A20060  25.107  28.474   4.426  0.0929 -0.2977 -0.0594
    1DIPC   C1B20061  24.752  27.040   4.214 -0.0142 -0.0032  0.1661
    1DIPC   D2B20062  25.100  27.093   4.519 -0.1240  0.0368 -0.1666
    1DIPC   D3B20063  25.462  26.924   4.360 -0.2279  0.1905 -0.0661
    1DIPC   C4B20064  25.941  27.104   4.483 -0.2183  0.1291  0.2272
    1DIPC   NC320065   6.790  17.947   3.176  0.3995  0.1410 -0.3038
    1DIPC   PO420066   6.817  18.281   2.956  0.2980  0.0627  0.0250
    1DIPC   GL120067   6.826  18.382   3.457 -0.0823  0.3493 -0.1185
    1DIPC   GL220068   7.128  18.076   3.559 -0.2156 -0.2689 -0.0511
    1DIPC   C1A20069   7.090  18.398   3.890  0.0103 -0.0419  0.0737
    1DIPC   D2A20070   7.396  18.446   4.165  0.1421 -0.0238  0.1076
    1DIPC   D3A20071   7.107  18.371   4.454  0.0774 -0.3665  0.0054
    1DIPC   C4A20072   6.885  18.641   4.774  0.1521  0.1974  0.0085
    1DIPC   C1B20073   7.146  17.950   4.116 -0.3200 -0.3154  0.1573
    1DIPC   D2B20074   7.427  18.006   4.523 -0.1368  0.2016  0.1805
    1DIPC   D3B20075   7.672  18.302   4.537  0.0928  0.1238  0.2069
    1DIPC   C4B20076   7.776  18.532   4.889  0.1944  0.0520  0.1776
    1DIPC   NC320077  22.597   2.371   3.339 -0.0629 -0.1324  0.1138
    1DIPC   PO420078  22.147   2.208   3.248  0.3262  0.0381  0.0523
    1DIPC   GL120079  22.149   2.202   3.621  0.3291  0.0792 -0.1959
    1DIPC   GL220080  22.449   2.396   3.860  0.0528  0.0219 -0.1158
    1DIPC   C1A20081  22.404   1.894   3.909  0.0422 -0.4293  0.0991
    1DIPC   D2A20082  22.500   1.855   4.374 -0.0853  0.1446  0.1008
    1DIPC   D3A20083  22.454   1.962   4.817  0.2029  0.1278  0.2159
    1DIPC   C4A20084  22.802   1.770   5.030 -0.0743  0.2492 -0.1839
    1DIPC   C1B20085  22.786   2.222   4.179  0.5050 -0.0733 -0.0124
    1DIPC   D2B20086  22.900   2.036   4.636 -0.0084  0.2936 -0.0356
    1DIPC   D3B20087  23.312   2.078   4.641  0.0857 -0.3397 -0.0063
    1DIPC   C4B20088  23.525   2.133   5.033 -0.0641  0.0718  0.0097
    1DIPC   NC320089   7.286  15.832   2.448  0.0196  0.1327  0.1461
    1DIPC   PO420090   7.532  16.125   2.565  0.1034 -0.1341 -0.4042
    1DIPC   GL120091   7.575  16.024   3.014 -0.2009  0.0006 -0.1468
    1DIPC   GL220092   7.804  16.312   3.076 -0.0569 -0.3838 -0.0422
    1DIPC   C1A20093   7.585  16.049   3.403 -0.1090 -0.0974 -0.1427
    1DIPC   D2A20094   7.412  15.963   3.855 -0.1493 -0.0961 -0.0506
    1DIPC   D3A20095   7.396  15.530   3.672 -0.0818  0.1942  0.0879
    1DIPC   C4A20096   7.640  15.274   3.417 -0.5903  0.3872  0.2542
    1DIPC   C1B20097   8.109  16.196   3.420 -0.0336  0.1506  0.2137
    1DIPC   D2B20098   8.457  16.286   3.690  0.3057 -0.2831 -0.3081
    1DIPC   D3B20099   8.801  16.211   4.006  0.0060  0.1790  0.0266
    1DIPC   C4B20100   8.753  15.738   4.053 -0.0738  0.0977 -0.0378
    1DIPC   NC320101  20.527  28.335   3.014  0.2127 -0.0491  0.1173
    1DIPC   PO420102  20.710  28.651   3.362  0.2082 -0.1992 -0.0315
    1DIPC   GL120103  20.693  28.738   3.826 -0.0641  0.0429  0.1386
    1DIPC   GL220104  20.478  28.998   3.949 -0.0233 -0.1021 -0.2261
    1DIPC   C1A20105  20.625  28.595   4.265 -0.2122  0.1138  0.0213
    1DIPC   D2A20106  20.459  28.768   4.650  0.2527  0.4192  0.0806
    1DIPC   D3A20107  20.224  28.969   4.410  0.0226  0.0594 -0.1567
    1DIPC   C4A20108  20.308  29.382   4.334 -0.2269 -0.1207 -0.1778
    1DIPC   C1B20109  20.724  29.088   4.348 -0.0602 -0.3296  0.1058
    1DIPC   D2B20110  20.972  29.130   4.701  0.0507  0.1576 -0.0630
    1DIPC   D3B20111  20.705  28.900   5.111 -0.0336 -0.2103 -0.1343
    1DIPC   C4B20112  20.689  28.536   5.448  0.1251 -0.1445 -0.1596
    1DIPC   NC320113  25.354  28.960   3.665 -0.0640 -0.0119  0.0783
    1DIPC   PO420114  25.713  28.643   3.706 -0.0171 -0.1785 -0.0182
    1DIPC   GL120115  25.973  28.810   4.022  0.3902 -0.0527 -0.1069
    1DIPC   GL220116  25.757  29.119   3.974 -0.0552 -0.2358 -0.0417
    1DIPC   C1A20117  25.959  28.935   4.472  0.2817 -0.2534  0.2869
    1DIPC   D2A20118  25.968  28.881   4.967  0.0340  0.1172  0.0870
    1DIPC   D3A20119  25.743  29.064   5.183  0.3596 -0.2434  0.2216
    1DIPC   C4A20120  25.477  28.730   5.499  0.0068  0.2661  0.0176
    1DIPC   C1B20121  25.638  29.260   4.378  0.2467  0.1195  0.1231
    1DIPC   D2B20122  25.500  29.313   4.830 -0.0172  0.0038 -0.0061
    1DIPC   D3B20123  25.240  29.622   4.650  0.1731  0.1409 -0.2928
    1DIPC   C4B20124  25.296   0.465   4.612  0.2153  0.0913  0.0273
    1DIPC   NC320125  21.297  22.035   3.603 -0.2158  0.0313  0.1344
    1DIPC   PO420126  21.715  21.768   3.572  0.0347 -0.1920 -0.5171
    1DIPC   GL120127  21.954  21.715   3.880  0.5187  0.1433  0.1803
    1DIPC   GL220128  22.275  21.870   3.967 -0.1154 -0.0315 -0.0878
    1DIPC   C1A20129  22.039  21.658   4.311 -0.0935  0.0436 -0.3853
    1DIPC   D2A20130  22.042  21.567   4.830 -0.0406  0.2574 -0.0490
    1DIPC   D3A20131  21.881  21.127   5.034 -0.1528 -0.1446 -0.0661
    1DIPC   C4A20132  22.008  20.738   4.884  0.1072 -0.2649  0.0398
    1DIPC   C1B20133  22.450  22.061   4.312 -0.1030 -0.0225 -0.1008
    1DIPC   D2B20134  22.387  21.924   4.665  0.0588 -0.4477 -0.1370
    1DIPC   D3B20135  22.530  21.522   4.554 -0.1747 -0.2961  0.0543
    1DIPC   C4B20136  22.354  21.142   4.627 -0.0252 -0.2169 -0.3497
    1DIPC   NC320137  19.034  24.753   3.892 -0.0316 -0.0456 -0.2794
    1DIPC   PO420138  19.484  24.739   4.081  0.3832 -0.0245 -0.0353
    1DIPC   GL120139  19.498  25.041   4.397  0.2508  0.0928  0.0286
    1DIPC   GL220140  19.519  24.809   4.634  0.3060  0.2890 -0.0167
    1DIPC   C1A20141  19.379  25.316   4.791 -0.0437 -0.2722  0.0609
    1DIPC   D2A20142  19.455  25.364   5.257  0.1267 -0.3762 -0.1306
    1DIPC   D3A20143  19.777  25.376   5.558 -0.0713 -0.1328 -0.2018
    1DIPC   C4A20144  19.789  25.026   5.729  0.0247 -0.1801 -0.0185
    1DIPC   C1B20145  19.372  24.909   4.977  0.0432  0.0129 -0.2619
    1DIPC   D2B20146  18.996  25.004   5.062  0.0850 -0.1522  0.2255
    1DIPC   D3B20147  18.529  24.904   5.224  0.2441  0.4208 -0.1910
    1DIPC   C4B20148  18.109  25.123   5.044 -0.0853  0.2541  0.0858
    1DIPC   NC320149  20.109   1.815   3.075  0.5335 -0.0197  0.2396
    1DIPC   PO420150  19.911   2.136   3.295 -0.2818  0.1726  0.4374
    1DIPC   GL120151  19.739   2.432   3.608  0.0981 -0.0579 -0.2168
    1DIPC   GL220152  19.964   2.661   3.583 -0.1635 -0.1224 -0.0131
    1DIPC   C1A20153  19.860   2.320   4.001 -0.2239  0.1833  0.2774
    1DIPC   D2A20154  20.262   2.413   4.141 -0.4044  0.1431 -0.1660
    1DIPC   D3A20155  20.116   2.681   4.456  0.3653  0.0694  0.1521
    1DIPC   C4A20156  19.757   2.496   4.678 -0.4628  0.0651 -0.0999
    1DIPC   C1B20157  19.938   2.798   3.983  0.0911  0.0804 -0.1070
    1DIPC   D2B20158  19.680   2.840   4.278  0.2150 -0.0794 -0.1387
    1DIPC   D3B20159  19.879   3.085   4.697 -0.0181 -0.1069  0.0321
    1DIPC   C4B20160  20.151   3.095   5.013  0.1703  0.3327 -0.1178
    1DIPC   NC320161   1.920  12.139   2.382  0.0637  0.1029 -0.1372
    1DIPC   PO420162   2.180  12.360   2.114  0.0300  0.3101 -0.0097
    1DIPC   GL120163   2.178  12.559   2.561  0.1071 -0.1499 -0.0931
    1DIPC   GL220164   2.296  12.891   2.624 -0.0030 -0.2915 -0.0989
    1DIPC   C1A20165   2.176  12.333   2.896 -0.0952  0.2994 -0.0882
    1DIPC   D2A20166   1.871  12.222   3.214 -0.0701  0.0440 -0.3211
    1DIPC   D3A20167   2.099  12.514   3.469  0.3344 -0.2321 -0.0618
    1DIPC   C4A20168   1.846  12.716   3.830  0.0075 -0.0225  0.2479
    1DIPC   C1B20169   2.427  12.716   3.055  0.0177  0.1069 -0.0495
    1DIPC   D2B20170   2.564  12.708   3.522 -0.2390  0.1243 -0.0618
    1DIPC   D3B20171   2.926  12.685   3.706 -0.0136  0.1834 -0.1409
    1DIPC   C4B20172   3.194  12.807   3.570 -0.1543 -0.2303  0.2449
    1DIPC   NC320173  22.041  29.194   3.374 -0.1448  0.1847  0.0831
    1DIPC   PO420174  21.631  29.339   3.361  0.1121 -0.2505  0.1320
    1DIPC   GL120175  21.643  29.318   3.756  0.0810 -0.3366  0.0104
    1DIPC   GL220176  21.962  29.158   3.869  0.0035 -0.1674  0.1497
    1DIPC   C1A20177  21.725  29.534   4.162  0.2440 -0.2889 -0.2701
    1DIPC   D2A20178  21.789   0.182   4.447  0.1005  0.0065  0.0000
    1DIPC   D3A20179  22.182   0.082   4.526 -0.1375 -0.1439  0.0597
    1DIPC   C4A20180  22.443   0.395   4.774  0.0710  0.2797 -0.0162
    1DIPC   C1B20181  22.244  29.281   4.188 -0.2584  0.1448  0.4373
    1DIPC   D2B20182  22.414  29.208   4.556  0.0833  0.0623  0.1375
    1DIPC   D3B20183  21.888  29.321   4.569  0.0332 -0.0913 -0.0496
    1DIPC   C4B20184  21.663  29.055   4.301 -0.2253 -0.0760  0.1550
    1DIPC   NC320185  26.404  16.598   2.975 -0.4878  0.0523  0.0095
    1DIPC   PO420186  26.237  16.686   3.311  0.1199  0.2219  0.1132
    1DIPC   GL120187  26.340  16.356   3.567 -0.1748  0.2158 -0.0076
    1DIPC   GL220188  26.229  16.388   3.874  0.0396  0.1390  0.2880
    1DIPC   C1A20189  26.537  15.965   3.642  0.2482 -0.3013  0.1581
    1DIPC   D2A20190  26.758  15.591   3.518  0.1666 -0.3461  0.2224
    1DIPC   D3A20191  26.925  15.411   3.871 -0.0419  0.0396  0.0516
    1DIPC   C4A20192  26.788  15.142   4.015  0.0012 -0.1474  0.0455
    1DIPC   C1B20193  26.342  16.186   4.192  0.0972  0.0539 -0.1356
    1DIPC   D2B20194  26.242  15.733   4.339  0.1736 -0.1922 -0.1499
    1DIPC   D3B20195  25.769  15.894   4.471 -0.0035  0.4645 -0.1241
    1DIPC   C4B20196  25.566  15.579   4.780  0.0956 -0.1515  0.2169
    1DIPC   NC320197  27.596  20.623   3.602  0.1599 -0.0376  0.0816
    1DIPC   PO420198  27.307  21.047   3.801  0.2556  0.0367  0.0981
    1DIPC   GL120199  27.481  21.311   4.074  0.1047 -0.1586 -0.2218
    1DIPC   GL220200  27.178  21.445   4.162  0.0985  0.0942  0.0859
    1DIPC   C1A20201  27.683  21.535   4.524  0.4055  0.2057  0.1892
    1DIPC   D2A20202  27.408  21.582   4.909 -0.2117 -0.0563  0.3429
    1DIPC   D3A20203  27.315  21.977   5.146  0.1070 -0.0838 -0.1227
    1DIPC   C4A20204  27.750  22.222   5.151  0.1726 -0.1794  0.2437
    1DIPC   C1B20205  27.079  21.498   4.576  0.0909  0.2589  0.3356
    1DIPC   D2B20206  27.005  21.915   4.691 -0.2156 -0.1583  0.2669
    1DIPC   D3B20207  26.756  22.147   5.031 -0.0272 -0.0600 -0.2766
    1DIPC   C4B20208  26.745  22.591   5.155  0.1228 -0.2023 -0.2343
    1DIPC   NC320209  25.658  23.665   3.380  0.1831  0.1689 -0.3542
    1DIPC   PO420210  25.590  24.065   3.454 -0.0744 -0.0660  0.5125
    1DIPC   GL120211  25.613  23.941   3.877 -0.0083 -0.0248 -0.2158
    1DIPC   GL220212  25.481  23.706   4.106  0.1835  0.4124  0.0026
    1DIPC   C1A20213  25.684  24.158   4.284  0.1232  0.1675 -0.0027
    1DIPC   D2A20214  25.612  24.163   4.705 -0.1570  0.1491  0.0441
    1DIPC   D3A20215  25.976  24.303   4.757 -0.1573  0.0032 -0.2008
    1DIPC   C4A20216  26.299  24.391   5.063  0.3329  0.1447 -0.0765
    1DIPC   C1B20217  25.456  23.587   4.457  0.0238  0.0911 -0.1418
    1DIPC   D2B20218  25.202  23.359   4.811 -0.2585  0.3790 -0.0632
    1DIPC   D3B20219  24.929  23.071   5.129  0.0449 -0.5060  0.1886
    1DIPC   C4B20220  25.189  22.996   5.472 -0.0843  0.2465  0.0389
    1DIPC   NC320221   4.166  15.963   2.724  0.1016 -0.0707  0.1768
    1DIPC   PO420222   3.996  15.599   2.557  0.0081 -0.0768 -0.1366
    1DIPC   GL120223   3.988  15.578   2.995 -0.0782 -0.0635  0.1105
    1DIPC   GL220224   3.714  15.804   3.074  0.2996 -0.1389  0.0649
    1DIPC   C1A20225   3.964  15.474   3.419 -0.0457  0.0202 -0.0124
    1DIPC   D2A20226   3.958  15.332   3.969 -0.0356 -0.0054 -0.0913
    1DIPC   D3A20227   4.110  14.970   4.101  0.0368 -0.1609  0.0173
    1DIPC   C4A20228   4.199  14.814   4.494 -0.3730  0.3599  0.0810
    1DIPC   C1B20229   3.467  15.779   3.413 -0.1899 -0.0071  0.2656
    1DIPC   D2B20230   3.574  15.612   3.820 -0.0781 -0.1491 -0.2098
    1DIPC   D3B20231   3.404  15.353   4.071  0.1310 -0.1297 -0.2232
    1DIPC   C4B20232   3.290  15.046   4.438 -0.0918  0.2190  0.0089
    1DIPC   NC320233  18.387  22.129   3.610 -0.5205  0.0899  0.1050
    1DIPC   PO420234  18.601  22.432   3.711  0.3260  0.0418 -0.1165
    1DIPC   GL120235  18.444  22.419   4.054  0.0570  0.1027  0.1838
    1DIPC   GL220236  18.240  22.513   4.189  0.3466  0.5187  0.0181
    1DIPC   C1A20237  18.429  22.194   4.494 -0.1429  0.1101 -0.1547
    1DIPC   D2A20238  18.237  21.847   4.724  0.0657  0.0006 -0.3376
    1DIPC   D3A20239  17.723  21.697   4.750 -0.1582  0.0590 -0.0305
    1DIPC   C4A20240  17.614  21.237   4.596  0.0128  0.0812  0.2124
    1DIPC   C1B20241  17.947  22.950   3.995 -0.1390  0.2351  0.1043
    1DIPC   D2B20242  17.780  23.394   4.002 -0.0328  0.0502  0.1970
    1DIPC   D3B20243  17.670  23.561   4.388  0.0058 -0.0295  0.2813
    1DIPC   C4B20244  17.297  23.675   4.598  0.1150  0.0062 -0.1911
    1DIPC   NC320245   7.495   7.904   2.646  0.0137  0.1354 -0.1530
    1DIPC   PO420246   7.697   8.223   2.488  0.1038  0.1294  0.2585
    1DIPC   GL120247   7.799   8.218   2.923 -0.5966 -0.1697  0.0844
    1DIPC   GL220248   7.487   7.976   3.119  0.0998 -0.3297  0.1578
    1DIPC   C1A20249   7.969   8.276   3.345  0.1121  0.0361 -0.1266
    1DIPC   D2A20250   8.006   8.082   3.744 -0.0232  0.1794  0.1689
    1DIPC   D3A20251   7.830   8.237   4.063  0.2065  0.0423 -0.0270
    1DIPC   C4A20252   7.329   8.149   4.138 -0.2045 -0.2576  0.3826
    1DIPC   C1B20253   7.174   7.883   3.419  0.0681  0.0233 -0.3014
    1DIPC   D2B20254   7.019   7.511   3.706 -0.1100 -0.2030 -0.2235
    1DIPC   D3B20255   7.439   7.495   3.584 -0.1571 -0.1173 -0.0801
    1DIPC   C4B20256   7.690   7.860   3.489  0.0857  0.0683 -0.0789
    1DIPC   NC320257  22.171  25.543   4.163  0.0640  0.0313  0.0212
    1DIPC   PO420258  22.054  26.075   4.136  0.1811 -0.0513  0.2133
    1DIPC   GL120259  21.819  26.309   4.555 -0.1000 -0.0296  0.0475
    1DIPC   GL220260  21.693  26.461   4.346  0.1986 -0.0482 -0.0633
    1DIPC   C1A20261  21.755  26.491   4.895 -0.0908 -0.1992  0.1271
    1DIPC   D2A20262  21.513  26.542   5.223  0.4559 -0.0598  0.1944
    1DIPC   D3A20263  21.172  26.762   5.132 -0.1534 -0.0238  0.0201
    1DIPC   C4A20264  20.810  26.568   5.374 -0.1738 -0.1441 -0.4429
    1DIPC   C1B20265  21.460  26.819   4.365  0.0011  0.2568 -0.2551
    1DIPC   D2B20266  21.305  27.024   4.642  0.1963  0.1234 -0.1443
    1DIPC   D3B20267  21.420  27.300   4.279  0.1441 -0.1133 -0.1061
    1DIPC   C4B20268  21.119  27.648   4.289 -0.0462  0.0017 -0.2227
    1DIPC   NC320269   0.317  28.971   3.244  0.1213  0.0515 -0.0249
    1DIPC   PO420270   0.469  29.365   3.328 -0.2850  0.0687 -0.2260
    1DIPC   GL120271   0.684  29.588   3.681 -0.0529  0.0739  0.0338
    1DIPC   GL220272   0.799   0.259   3.763 -0.2529 -0.1007  0.2212
    1DIPC   C1A20273   0.542  29.393   4.020  0.2112 -0.2115  0.1178
    1DIPC   D2A20274   0.464  29.110   4.441  0.1274  0.0868 -0.1328
    1DIPC   D3A20275   0.142  28.999   4.676 -0.0532  0.2414  0.3948
    1DIPC   C4A20276  29.452  29.079   4.893  0.1164 -0.1847 -0.1320
    1DIPC   C1B20277   0.881   0.239   4.128  0.0558 -0.0873 -0.3330
    1DIPC   D2B20278   0.922   0.399   4.547  0.2063  0.0142  0.0910
    1DIPC   D3B20279   0.694   0.071   4.672  0.0816 -0.3133 -0.1400
    1DIPC   C4B20280   0.402  29.614   4.437 -0.0948 -0.1110 -0.1549
    1DIPC   NC320281  22.536  19.953   2.313  0.3915  0.1904  0.1875
    1DIPC   PO420282  22.232  19.916   2.740 -0.2926 -0.0790  0.1636
    1DIPC   GL120283  22.164  19.754   3.162  0.1567  0.0632  0.0457
    1DIPC   GL220284  22.024  19.951   3.337  0.1312  0.1895 -0.0376
    1DIPC   C1A20285  22.298  19.473   3.519  0.3011  0.0827  0.0740
    1DIPC   D2A20286  22.500  19.047   3.699  0.0955  0.0716 -0.2814
    1DIPC   D3A20287  22.667  19.459   3.890  0.3147  0.0965  0.1659
    1DIPC   C4A20288  22.766  19.434   4.287  0.1132  0.0110 -0.1391
    1DIPC   C1B20289  22.058  19.902   3.801 -0.2025  0.2993  0.1090
    1DIPC   D2B20290  22.407  19.786   4.123  0.1842  0.1699  0.3246
    1DIPC   D3B20291  22.169  19.614   4.544 -0.3983 -0.4071 -0.0517
    1DIPC   C4B20292  22.137  19.719   4.973 -0.1155  0.2439  0.2143
    1DIPC   NC320293   3.890   9.819   1.437  0.4423 -0.1425  0.0242
    1DIPC   PO420294   3.690  10.160   1.553 -0.1792 -0.0829  0.3319
    1DIPC   GL120295   3.771  10.170   1.995 -0.2188 -0.1554 -0.1123
    1DIPC   GL220296   3.576  10.295   2.129 -0.2427 -0.0981  0.1590
    1DIPC   C1A20297   3.874  10.024   2.488 -0.4112  0.0540 -0.0875
    1DIPC   D2A20298   3.921   9.925   2.983  0.2479  0.1401 -0.2147
    1DIPC   D3A20299   3.875   9.884   3.348 -0.2889 -0.2182  0.1760
    1DIPC   C4A20300   3.549  10.143   3.501 -0.1544 -0.0006  0.0174
    1DIPC   C1B20301   3.533  10.350   2.584  0.3535 -0.2588  0.0629
    1DIPC   D2B20302   3.651  10.339   3.020 -0.0197 -0.1510 -0.0871
    1DIPC   D3B20303   3.674  10.859   3.041 -0.0357  0.1321 -0.0322
    1DIPC   C4B20304   3.356  11.069   3.090  0.2791  0.1221 -0.0650
    1DIPC   NC320305  15.016  24.669   2.254  0.1382  0.0628 -0.0163
    1DIPC   PO420306  14.675  24.610   2.557  0.1357  0.0933  0.0229
    1DIPC   GL120307  14.712  24.636   2.986 -0.1777 -0.2644  0.0694
    1DIPC   GL220308  14.566  24.881   3.169 -0.0241  0.1687  0.0525
    1DIPC   C1A20309  15.000  24.737   3.355  0.1034 -0.1192 -0.2521
    1DIPC   D2A20310  14.905  25.088   3.636 -0.0749 -0.1015 -0.0031
    1DIPC   D3A20311  14.860  25.514   3.581  0.1047 -0.0693 -0.0465
    1DIPC   C4A20312  14.513  25.831   3.696  0.2021  0.0671 -0.0273
    1DIPC   C1B20313  14.336  24.975   3.572 -0.0434 -0.0969 -0.1448
    1DIPC   D2B20314  14.176  25.056   3.998  0.4641 -0.0845 -0.0698
    1DIPC   D3B20315  13.735  24.874   3.962 -0.0504  0.1123  0.0366
    1DIPC   C4B20316  13.374  25.090   3.786 -0.3511  0.1131  0.0695
    1DIPC   NC320317   3.181   3.392   2.343  0.3092  0.1774 -0.3421
    1DIPC   PO420318   3.040   3.525   2.806 -0.2215 -0.0892  0.1118
    1DIPC   GL120319   3.068   3.651   3.236 -0.2248 -0.1139  0.1591
    1DIPC   GL220320   2.973   3.316   3.396 -0.1041 -0.1810  0.0311
    1DIPC   C1A20321   2.962   3.759   3.667 -0.0530 -0.0109  0.0115
    1DIPC   D2A20322   3.095   3.709   4.013 -0.2279 -0.3040 -0.1087
    1DIPC   D3A20323   3.063   3.343   3.904 -0.1216  0.4060  0.1877
    1DIPC   C4A20324   2.711   3.115   4.170 -0.2247 -0.2051 -0.0886
    1DIPC   C1B20325   2.617   3.066   3.638 -0.0710  0.0454  0.0813
    1DIPC   D2B20326   2.207   3.038   3.625 -0.2789  0.2089  0.0725
    1DIPC   D3B20327   2.316   2.805   3.996 -0.1558 -0.2476  0.1165
    1DIPC   C4B20328   2.612   2.573   3.910  0.3170 -0.0098 -0.2371
    1DIPC   NC320329   8.151  22.543   3.057 -0.1224  0.0057  0.3815
    1DIPC   PO420330   7.754  22.504   3.252  0.2388  0.0594  0.0432
    1DIPC   GL120331   8.034  22.783   3.529 -0.0571  0.2810 -0.1268
    1DIPC   GL220332   7.958  22.653   3.870  0.0490  0.1877 -0.0144
    1DIPC   C1A20333   8.398  22.822   3.795 -0.2594  0.2745 -0.2407
    1DIPC   D2A20334   8.791  22.737   3.971  0.0418  0.2057  0.0551
    1DIPC   D3A20335   8.450  22.599   4.325 -0.3556 -0.2493  0.1200
    1DIPC   C4A20336   8.613  22.266   4.569 -0.0694  0.0234 -0.1231
    1DIPC   C1B20337   7.719  22.930   4.168  0.0938 -0.1964 -0.2085
    1DIPC   D2B20338   7.483  23.086   4.363  0.3391 -0.0023 -0.2362
    1DIPC   D3B20339   7.661  22.978   4.738 -0.0324 -0.4323 -0.1498
    1DIPC   C4B20340   7.657  22.556   4.798  0.2009  0.1514  0.0254
    1DIPC   NC320341  14.187   1.397   2.151  0.0929  0.0043 -0.0573
    1DIPC   PO420342  14.508   1.239   2.434 -0.0669  0.1023  0.0072
    1DIPC   GL120343  14.388   1.246   2.784 -0.0309  0.0391  0.1995
    1DIPC   GL220344  14.213   1.361   3.052  0.2738 -0.2149  0.1696
    1DIPC   C1A20345  14.682   1.312   3.210  0.0880  0.0527 -0.1025
    1DIPC   D2A20346  14.982   1.613   3.212  0.1840 -0.1209 -0.0387
    1DIPC   D3A20347  14.847   1.964   2.911  0.0842 -0.0515  0.1902
    1DIPC   C4A20348  14.880   2.353   3.087  0.0725 -0.0092  0.0201
    1DIPC   C1B20349  14.414   1.724   3.181  0.3020 -0.0744  0.0080
    1DIPC   D2B20350  14.751   1.902   3.552 -0.0630  0.1391  0.2807
    1DIPC   D3B20351  14.994   1.799   3.804 -0.2242  0.1107 -0.0088
    1DIPC   C4B20352  15.042   1.882   4.275  0.2741  0.0923 -0.3614
    1DIPC   NC320353   4.140  25.354   3.343 -0.0572  0.2404  0.2160
    1DIPC   PO420354   3.986  25.025   3.566 -0.1043  0.1386 -0.1396
    1DIPC   GL120355   3.849  25.175   3.964 -0.0749 -0.1083 -0.1619
    1DIPC   GL220356   3.809  25.490   3.986  0.0458 -0.0551  0.0536
    1DIPC   C1A20357   3.954  25.229   4.410  0.1807 -0.1927  0.0081
    1DIPC   D2A20358   4.323  25.169   4.757 -0.3530 -0.2131  0.0545
    1DIPC   D3A20359   4.557  24.915   4.483 -0.2682  0.2103 -0.0804
    1DIPC   C4A20360   4.753  24.663   4.652  0.1080 -0.3097  0.2269
    1DIPC   C1B20361   3.472  25.250   4.266 -0.0887 -0.0008  0.2198
    1DIPC   D2B20362   3.227  25.117   4.565  0.4409 -0.0125 -0.0201
    1DIPC   D3B20363   3.394  25.060   5.012  0.0416  0.2194  0.2543
    1DIPC   C4B20364   3.119  24.680   5.194 -0.0037  0.1395 -0.0983
    1DIPC   NC320365  20.789  29.163   3.435 -0.3223  0.0896 -0.1574
    1DIPC   PO420366  21.180  29.169   3.607 -0.2871  0.2349 -0.1179
    1DIPC   GL120367  21.354  28.945   3.912 -0.0648 -0.4799 -0.2147
    1DIPC   GL220368  21.082  28.928   4.103  0.1253  0.0011 -0.3654
    1DIPC   C1A20369  21.292  28.445   4.118 -0.0513  0.1155 -0.1171
    1DIPC   D2A20370  20.980  28.243   4.405 -0.2342 -0.1315 -0.1135
    1DIPC   D3A20371  20.908  27.985   4.718 -0.2803 -0.1453  0.0084
    1DIPC   C4A20372  21.038  28.046   5.146 -0.0914  0.1002 -0.0541
    1DIPC   C1B20373  21.136  28.714   4.525  0.1544 -0.0500 -0.0363
    1DIPC   D2B20374  20.936  28.502   4.894 -0.0078  0.2504 -0.1818
    1DIPC   D3B20375  21.228  28.717   5.057 -0.1353  0.2050 -0.0902
    1DIPC   C4B20376  21.512  28.894   4.792 -0.2970 -0.2479 -0.0032
    1DIPC   NC320377  15.241   0.346   2.884 -0.3414 -0.0447  0.3835
    1DIPC   PO420378  15.653   0.060   2.884 -0.0359  0.1453 -0.0449
    1DIPC   GL120379  15.458  29.516   3.305  0.1890  0.0837  0.0211
    1DIPC   GL220380  15.542   0.079   3.568  0.0811 -0.1379  0.1995
    1DIPC   C1A20381  15.223  29.206   3.299 -0.0579 -0.0252 -0.0430
    1DIPC   D2A20382  15.197  28.752   3.619 -0.2782  0.1632  0.4276
    1DIPC   D3A20383  14.811  29.039   3.634 -0.2068 -0.0927 -0.1776
    1DIPC   C4A20384  14.472  29.036   4.098  0.0693 -0.2733  0.1625
    1DIPC   C1B20385  15.599   0.397   3.785 -0.1178 -0.1477  0.1592
    1DIPC   D2B20386  15.692   0.429   4.183  0.1779 -0.0005  0.2090
    1DIPC   D3B20387  15.883   0.721   4.505  0.0872  0.2535  0.1787
    1DIPC   C4B20388  15.590   0.966   4.796  0.0485  0.0309 -0.0152
    1DIPC   NC320389  21.042   1.978   3.024 -0.0237 -0.2685  0.0977
    1DIPC   PO420390  20.576   1.807   3.154  0.2522 -0.2405 -0.1459
    1DIPC   GL120391  20.374   1.923   3.621  0.1630  0.2839 -0.1971
    1DIPC   GL220392  20.299   2.271   3.598 -0.1383 -0.1093 -0.1843
    1DIPC   C1A20393  20.391   1.886   4.131  0.2687  0.2072 -0.4017
    1DIPC   D2A20394  20.335   2.067   4.531  0.1122  0.1105  0.1431
    1DIPC   D3A20395  20.297   1.557   4.549 -0.0340  0.0745 -0.1440
    1DIPC   C4A20396  20.256   1.337   4.911  0.0845 -0.1497  0.0259
    1DIPC   C1B20397  20.422   2.658   3.761  0.1442 -0.1021 -0.1252
    1DIPC   D2B20398  20.754   3.024   3.849  0.1052 -0.0379 -0.0423
    1DIPC   D3B20399  20.557   2.879   4.184  0.1493  0.1177 -0.0071
    1DIPC   C4B20400  20.687   2.487   4.438 -0.2165 -0.1599  0.2651
    1DIPC   NC320401  10.165  14.495   2.356 -0.2181  0.3201  0.2148
    1DIPC   PO420402  10.338  14.633   2.743 -0.1879 -0.2328 -0.1193
    1DIPC   GL120403  10.084  14.577   3.115 -0.2484  0.1281  0.0356
    1DIPC   GL220404   9.999  14.244   3.248 -0.1298 -0.1011  0.0143
    1DIPC   C1A20405   9.907  14.734   3.521 -0.2145 -0.1127  0.0641
    1DIPC   D2A20406   9.520  14.731   3.871  0.0372 -0.0588  0.0867
    1DIPC   D3A20407   9.789  15.079   3.956  0.0040  0.0121  0.0458
    1DIPC   C4A20408   9.927  15.084   4.421  0.0882  0.0472  0.0922
    1DIPC   C1B20409  10.440  14.309   3.358  0.0776  0.0175 -0.0706
    1DIPC   D2B20410  10.649  14.263   3.803 -0.1679 -0.1305  0.0449
    1DIPC   D3B20411  10.759  13.927   3.721  0.5401  0.2528  0.2332
    1DIPC   C4B20412  10.834  13.948   3.259 -0.0944 -0.3074 -0.2592
    1DIPC   NC320413  26.337  29.434   3.432  0.3622 -0.0977  0.5130
    1DIPC   PO420414  26.812  29.496   3.461  0.0382  0.0097 -0.0965
    1DIPC   GL120415  26.905  29.613   3.973 -0.0754  0.1198 -0.0235
    1DIPC   GL220416  27.048   0.304   3.977  0.3140  0.0533  0.0673
    1DIPC   C1A20417  26.718  29.528   4.374  0.1829 -0.1565  0.0836
    1DIPC   D2A20418  26.585  29.477   4.818  0.0766  0.0376 -0.2060
    1DIPC   D3A20419  26.458  29.169   4.674  0.0122 -0.3618 -0.0122
    1DIPC   C4A20420  26.730  29.071   4.292  0.0239  0.0585 -0.2240
    1DIPC   C1B20421  26.674   0.400   4.144  0.2488 -0.1777 -0.0962
    1DIPC   D2B20422  26.289   0.282   4.181  0.2028  0.2186  0.3012
    1DIPC   D3B20423  26.258   0.262   4.619  0.1029  0.2705 -0.0879
    1DIPC   C4B20424  26.649   0.480   4.821 -0.0953  0.1354 -0.0808
    1DIPC   NC320425  18.698  27.064   2.798  0.3096  0.0430 -0.2016
    1DIPC   PO420426  18.496  27.097   3.217 -0.0226  0.3134 -0.0297
    1DIPC   GL120427  18.314  27.035   3.605  0.4527 -0.0898 -0.0305
    1DIPC   GL220428  18.317  27.314   3.652  0.1971  0.1865  0.0776
    1DIPC   C1A20429  18.162  27.152   4.113 -0.1892  0.1062 -0.0141
    1DIPC   D2A20430  18.525  27.294   4.351  0.2923 -0.3519 -0.2956
    1DIPC   D3A20431  18.451  27.683   4.605  0.1326  0.0660 -0.1330
    1DIPC   C4A20432  18.778  28.049   4.620 -0.2732  0.1280  0.1064
    1DIPC   C1B20433  18.393  27.635   4.006  0.2367  0.0095  0.1509
    1DIPC   D2B20434  18.519  28.032   4.161  0.0459  0.2047 -0.1549
    1DIPC   D3B20435  18.865  27.701   4.224  0.0920  0.1110 -0.1033
    1DIPC   C4B20436  19.186  27.903   4.419 -0.4464  0.2569 -0.2381
    1DIPC   NC320437  18.650  28.889   3.656 -0.1306 -0.0367  0.1652
    1DIPC   PO420438  18.473  28.488   3.830 -0.2854 -0.0109 -0.0650
    1DIPC   GL120439  18.310  28.576   4.226  0.1819 -0.0788  0.1622
    1DIPC   GL220440  17.986  28.615   4.047 -0.1028 -0.0628  0.2068
    1DIPC   C1A20441  18.314  28.761   4.545 -0.0615 -0.1702  0.1629
    1DIPC   D2A20442  18.224  29.167   4.754  0.0696 -0.4154 -0.2267
    1DIPC   D3A20443  18.006  29.463   4.948 -0.0061  0.3844 -0.0866
    1DIPC   C4A20444  18.043   0.298   4.893  0.1929 -0.0611 -0.1610
    1DIPC   C1B20445  17.854  28.610   4.464 -0.0497  0.2897  0.1218
    1DIPC   D2B20446  17.761  28.305   4.806 -0.2002 -0.2282  0.0880
    1DIPC   D3B20447  17.476  28.289   5.163  0.0995  0.3347  0.2392
    1DIPC   C4B20448  17.120  28.199   5.418  0.0180  0.0550  0.0783
    1DIPC   NC320449  19.596   0.851   3.718  0.1551  0.1077 -0.1220
    1DIPC   PO420450  19.975   0.628   3.727 -0.2380  0.0491 -0.1649
    1DIPC   GL120451  19.978   0.631   4.120  0.0100  0.1523  0.0611
    1DIPC   GL220452  19.749   0.820   4.222  0.3657 -0.0514  0.1844
    1DIPC   C1A20453  19.938   0.474   4.659  0.1330 -0.2133 -0.0886
    1DIPC   D2A20454  20.184   0.377   5.010  0.3544  0.4509 -0.3439
    1DIPC   D3A20455  20.581   0.130   4.857 -0.0698 -0.1142 -0.2547
    1DIPC   C4A20456  21.038   0.294   5.058 -0.0866 -0.0239 -0.1252
    1DIPC   C1B20457  19.821   1.075   4.590  0.0325  0.0241 -0.1905
    1DIPC   D2B20458  19.772   1.247   5.020 -0.2706 -0.0699  0.2728
    1DIPC   D3B20459  20.082   1.181   5.388  0.1034 -0.4560 -0.0664
    1DIPC   C4B20460  20.537   0.870   5.326  0.1229 -0.2381 -0.2046
    1DIPC   NC320461  11.248  28.515   2.288  0.0581  0.0301  0.3914
    1DIPC   PO420462  11.388  28.904   2.590  0.0959 -0.3361  0.1233
    1DIPC   GL120463  11.530  28.693   2.964 -0.0792 -0.1823 -0.2160
    1DIPC   GL220464  11.735  29.010   3.016 -0.0514  0.1344  0.1903
    1DIPC   C1A20465  11.513  28.280   3.198 -0.1161  0.2305 -0.1917
    1DIPC   D2A20466  11.417  27.861   3.213 -0.1502 -0.0701 -0.1520
    1DIPC   D3A20467  11.650  27.532   3.480 -0.2855  0.3351 -0.1052
    1DIPC   C4A20468  12.117  27.441   3.377 -0.1023 -0.5384 -0.3612
    1DIPC   C1B20469  11.735  29.037   3.518 -0.1903 -0.1310 -0.4015
    1DIPC   D2B20470  11.912  29.022   3.901 -0.1320  0.3488 -0.2549
    1DIPC   D3B20471  12.346  28.832   3.944  0.1082  0.0318 -0.0657
    1DIPC   C4B20472  12.577  29.080   3.791 -0.1659  0.2377 -0.0064
    1DIPC   NC320473  10.394   1.941   2.067 -0.0081  0.0690  0.0372
    1DIPC   PO420474  10.662   2.165   2.488  0.0041  0.0131  0.0195
    1DIPC   GL120475  10.577   2.318   2.895 -0.2195 -0.1327 -0.0422
    1DIPC   GL220476  10.730   2.508   2.959 -0.0019  0.1462 -0.0668
    1DIPC   C1A20477  10.557   2.238   3.407 -0.2689  0.3452 -0.1778
    1DIPC   D2A20478  10.419   2.397   3.926 -0.2381 -0.0825  0.0795
    1DIPC   D3A20479  10.622   2.128   3.922  0.1341 -0.3116 -0.0655
    1DIPC   C4A20480  10.512   1.612   3.858 -0.1799 -0.0518 -0.3412
    1DIPC   C1B20481  10.691   2.801   3.350 -0.2342  0.1814 -0.1461
    1DIPC   D2B20482  11.009   3.017   3.606 -0.0789 -0.2481  0.1174
    1DIPC   D3B20483  11.106   3.364   3.350 -0.2424 -0.3483 -0.1015
    1DIPC   C4B20484  11.148   3.729   3.518 -0.3222 -0.0818  0.0603
    1DIPC   NC320485  24.858  18.787   3.414  0.0757  0.0182  0.1680
    1DIPC   PO420486  25.075  18.454   3.338 -0.1843 -0.2602 -0.3601
    1DIPC   GL120487  25.076  18.418   3.799 -0.0202 -0.2770 -0.2119
    1DIPC   GL220488  24.914  18.134   3.878  0.1522  0.0441  0.1497
    1DIPC   C1A20489  24.861  18.635   4.111  0.0672  0.2154  0.2475
    1DIPC   D2A20490  24.538  18.697   4.510 -0.1238  0.1062 -0.2754
    1DIPC   D3A20491  24.187  18.837   4.774 -0.2240  0.1587 -0.0692
    1DIPC   C4A20492  24.231  19.219   5.087 -0.0572 -0.0531 -0.1082
    1DIPC   C1B20493  24.526  18.260   4.141 -0.2088  0.3776 -0.4789
    1DIPC   D2B20494  24.170  18.394   4.445  0.1194 -0.2028  0.1541
    1DIPC   D3B20495  24.182  17.961   4.436 -0.0817 -0.1737  0.0877
    1DIPC   C4B20496  24.094  17.669   4.741  0.3329  0.1285 -0.0094
    1DIPC   NC320497   6.582  24.777   3.054  0.2431  0.2341 -0.2506
    1DIPC   PO420498   6.231  24.654   3.193 -0.2274  0.1087 -0.2160
    1DIPC   GL120499   5.916  24.424   3.475  0.0226 -0.0122  0.0828
    1DIPC   GL220500   5.887  24.249   3.725 -0.0605 -0.0595 -0.0761
    1DIPC   C1A20501   6.071  24.717   3.773 -0.1383  0.1033 -0.0771
    1DIPC   D2A20502   5.771  24.913   3.976 -0.1588  0.0367 -0.1433
    1DIPC   D3A20503   5.934  24.909   4.323  0.1822  0.1113 -0.1671
    1DIPC   C4A20504   6.294  24.637   4.407 -0.0836 -0.0446  0.3558
    1DIPC   C1B20505   5.763  24.364   4.131 -0.1538 -0.1127 -0.0216
    1DIPC   D2B20506   5.669  24.365   4.553 -0.0949 -0.1186 -0.0481
    1DIPC   D3B20507   5.987  24.199   4.833 -0.0090 -0.1471  0.0726
    1DIPC   C4B20508   6.361  24.135   4.687 -0.1389 -0.1037  0.0636
    1DIPC   NC320509  21.148  24.482   3.750  0.0729  0.2379  0.0609
    1DIPC   PO420510  21.507  24.802   3.801 -0.1662  0.0282 -0.2366
    1DIPC   GL120511  21.561  24.664   4.155  0.1099 -0.0272  0.0673
    1DIPC   GL220512  21.390  24.452   4.246 -0.2054  0.0786 -0.0239
    1DIPC   C1A20513  21.683  24.888   4.550 -0.0381  0.0631 -0.0711
    1DIPC   D2A20514  21.809  25.021   4.970  0.2855 -0.1395  0.1710
    1DIPC   D3A20515  21.606  25.217   5.287  0.0024 -0.0008  0.1563
    1DIPC   C4A20516  21.468  25.496   5.007 -0.3547 -0.2353 -0.2806
    1DIPC   C1B20517  21.299  24.547   4.603 -0.1771 -0.1892 -0.0375
    1DIPC   D2B20518  21.401  24.317   5.043 -0.0404  0.0505 -0.1008
    1DIPC   D3B20519  21.620  24.126   5.276 -0.2689 -0.1373 -0.2543
    1DIPC   C4B20520  21.552  24.038   5.675  0.0693 -0.2207  0.4567
    1DIPC   NC320521   3.516  17.638   2.618 -0.1041  0.2628 -0.0253
    1DIPC   PO420522   3.881  17.700   2.830 -0.0956 -0.1607  0.2452
    1DIPC   GL120523   3.833  17.622   3.313  0.0445 -0.5404 -0.2456
    1DIPC   GL220524   3.943  17.342   3.333 -0.2249  0.1665 -0.0257
    1DIPC   C1A20525   3.729  17.607   3.709 -0.1153 -0.0065 -0.0234
    1DIPC   D2A20526   3.735  17.441   4.095  0.4290  0.2217  0.1698
    1DIPC   D3A20527   4.013  17.142   4.245 -0.3983 -0.1325 -0.1420
    1DIPC   C4A20528   4.443  17.131   4.196 -0.0250  0.1709  0.1275
    1DIPC   C1B20529   4.076  17.131   3.757  0.1389 -0.0958 -0.4930
    1DIPC   D2B20530   4.311  16.728   3.938 -0.0669  0.0409  0.1660
    1DIPC   D3B20531   4.119  16.643   4.340  0.1338 -0.0918 -0.0235
    1DIPC   C4B20532   4.194  16.990   4.672 -0.0995  0.2456  0.4324
    1DIPC   NC320533  11.928   4.351   2.245 -0.2376 -0.3371 -0.2155
    1DIPC   PO420534  12.103   4.768   2.276  0.3374  0.1103 -0.1302
    1DIPC   GL120535  12.130   4.629   2.839 -0.0354 -0.1149  0.0947
    1DIPC   GL220536  12.078   4.354   2.799 -0.0157 -0.0540 -0.3089
    1DIPC   C1A20537  12.274   4.521   3.241 -0.0261 -0.2974 -0.2123
    1DIPC   D2A20538  12.119   4.352   3.649  0.1775 -0.1070 -0.0312
    1DIPC   D3A20539  11.993   4.612   3.946  0.1015  0.3242 -0.0900
    1DIPC   C4A20540  12.065   4.713   4.415 -0.1407 -0.2080 -0.0396
    1DIPC   C1B20541  11.916   3.988   2.882 -0.0199  0.0020 -0.0919
    1DIPC   D2B20542  12.129   3.631   3.008  0.1255 -0.1011 -0.0901
    1DIPC   D3B20543  12.015   3.355   3.397 -0.2561  0.1631 -0.5978
    1DIPC   C4B20544  12.400   3.044   3.557 -0.2759  0.4559 -0.2049
    1DIPC   NC320545   6.388  19.688   2.653 -0.0025  0.2981  0.1474
    1DIPC   PO420546   6.660  19.505   2.858 -0.1264  0.2883 -0.2888
    1DIPC   GL120547   6.427  19.385   3.293 -0.3313 -0.3040  0.1119
    1DIPC   GL220548   6.619  19.524   3.518 -0.0235 -0.1908 -0.3617
    1DIPC   C1A20549   6.111  19.375   3.614  0.1974 -0.1577 -0.1178
    1DIPC   D2A20550   6.057  19.082   3.959 -0.0566 -0.0995 -0.0019
    1DIPC   D3A20551   6.196  18.633   3.932  0.1432 -0.0121  0.1580
    1DIPC   C4A20552   6.370  18.420   3.626  0.2250 -0.1243  0.1167
    1DIPC   C1B20553   6.386  19.780   3.832 -0.0027 -0.0645  0.0537
    1DIPC   D2B20554   6.252  19.537   4.128 -0.0883 -0.1800  0.1438
    1DIPC   D3B20555   6.181  19.806   4.451  0.0142 -0.0577  0.2900
    1DIPC   C4B20556   5.928  19.807   4.794 -0.0782 -0.0717 -0.2242
    1DIPC   NC320557  20.255  22.005   3.638  0.3614 -0.0749 -0.0492
    1DIPC   PO420558  20.426  22.381   3.905  0.0673  0.0039  0.0577
    1DIPC   GL120559  20.661  22.272   4.256  0.3304  0.1514 -0.2439
    1DIPC   GL220560  20.975  22.025   4.310  0.0176 -0.3328  0.0855
    1DIPC   C1A20561  20.859  22.495   4.619 -0.3555 -0.1295  0.1356
    1DIPC   D2A20562  21.218  22.828   4.851  0.1065  0.1387  0.0333
    1DIPC   D3A20563  20.866  23.073   4.997 -0.1069 -0.1741  0.2622
    1DIPC   C4A20564  20.510  22.747   5.047  0.0963 -0.1826 -0.3133
    1DIPC   C1B20565  21.049  21.935   4.884  0.1220  0.2827  0.0001
    1DIPC   D2B20566  20.712  21.723   5.240 -0.1211  0.2195  0.1138
    1DIPC   D3B20567  20.557  22.024   5.518 -0.0530  0.1590  0.2392
    1DIPC   C4B20568  20.311  22.419   5.447  0.1716  0.1146 -0.0902
    1DIPC   NC320569  10.855  18.542   2.140 -0.1873 -0.3415  0.1141
    1DIPC   PO420570  10.852  18.470   2.576 -0.2733  0.0056  0.2484
    1DIPC   GL120571  10.953  18.368   2.944 -0.0081 -0.1106 -0.0390
    1DIPC   GL220572  11.157  18.112   3.064 -0.0522 -0.0807 -0.0300
    1DIPC   C1A20573  10.974  18.618   3.325 -0.1844 -0.0773 -0.1408
    1DIPC   D2A20574  10.857  19.070   3.510 -0.0156  0.0336  0.1383
    1DIPC   D3A20575  10.887  19.137   3.911 -0.1080 -0.3717 -0.3881
    1DIPC   C4A20576  10.875  19.488   4.292  0.0022  0.2623  0.1317
    1DIPC   C1B20577  10.913  17.961   3.391  0.0541  0.1861  0.1925
    1DIPC   D2B20578  11.086  17.913   3.814  0.2486  0.0530 -0.3466
    1DIPC   D3B20579  10.768  17.684   4.053 -0.0567 -0.0789 -0.0023
    1DIPC   C4B20580  10.663  17.391   3.881 -0.0853  0.0061 -0.0907
    1DIPC   NC320581   8.011   5.851   2.036 -0.0928  0.1734  0.1465
    1DIPC   PO420582   8.382   5.904   2.125 -0.1366  0.0098  0.2442
    1DIPC   GL120583   8.572   6.097   2.565  0.2461 -0.0588 -0.1490
    1DIPC   GL220584   8.818   6.139   2.777  0.0493  0.0867 -0.1303
    1DIPC   C1A20585   8.491   6.471   2.750 -0.1302 -0.2114 -0.1062
    1DIPC   D2A20586   8.611   6.828   2.975  0.0246 -0.1144 -0.1108
    1DIPC   D3A20587   8.398   6.612   3.294 -0.2899  0.1379  0.0043
    1DIPC   C4A20588   8.293   6.195   3.103  0.3933 -0.1538 -0.0992
    1DIPC   C1B20589   8.774   6.145   3.156  0.0602  0.3503 -0.2617
    1DIPC   D2B20590   8.494   6.142   3.559  0.5182 -0.0420 -0.0740
    1DIPC   D3B20591   8.616   6.145   4.027  0.1978 -0.1621 -0.0692
    1DIPC   C4B20592   8.603   5.847   4.449 -0.1051 -0.0065  0.1580
    1DIPC   NC320593   2.587  24.594   3.388  0.2319  0.0089 -0.0952
    1DIPC   PO420594   2.759  25.046   3.507  0.1799 -0.0541 -0.0423
    1DIPC   GL120595   2.422  25.167   3.712 -0.0367  0.0940 -0.0150
    1DIPC   GL220596   2.197  25.371   3.871  0.2622  0.1063 -0.1882
    1DIPC   C1A20597   2.319  25.066   4.184  0.0801 -0.1369  0.3189
    1DIPC   D2A20598   2.056  24.934   4.527 -0.0047  0.0650  0.0427
    1DIPC   D3A20599   1.870  24.979   4.967 -0.0241  0.1415 -0.1221
    1DIPC   C4A20600   1.477  25.149   5.077 -0.1090 -0.0244  0.0175
    1DIPC   C1B20601   2.044  25.436   4.326  0.2846 -0.2133  0.0762
    1DIPC   D2B20602   1.940  25.381   4.692 -0.1601 -0.0226 -0.1664
    1DIPC   D3B20603   1.853  25.561   5.106 -0.1931  0.1467 -0.1106
    1DIPC   C4B20604   1.687  25.932   5.010 -0.2970  0.0262 -0.0844
    1DIPC   NC320605  14.588  12.542   2.856 -0.1724  0.1430 -0.0469
    1DIPC   PO420606  14.282  12.914   2.965 -0.3567 -0.1885  0.4138
    1DIPC   GL120607  14.468  12.700   3.321 -0.2857  0.3420 -0.0895
    1DIPC   GL220608  14.697  12.802   3.325  0.2003  0.1492 -0.0336
    1DIPC   C1A20609  14.123  12.661   3.608 -0.3745 -0.0752 -0.0428
    1DIPC   D2A20610  14.124  12.770   4.053 -0.0826 -0.1673  0.0386
    1DIPC   D3A20611  14.454  12.916   4.364 -0.0504  0.0489  0.0098
    1DIPC   C4A20612  14.752  12.687   4.619  0.1846 -0.1062 -0.1159
    1DIPC   C1B20613  14.626  12.962   3.748 -0.0714  0.1935  0.1345
    1DIPC   D2B20614  14.878  12.814   4.094 -0.0026 -0.0833 -0.0558
    1DIPC   D3B20615  14.748  12.484   4.150  0.5001  0.0573 -0.1658
    1DIPC   C4B20616  14.377  12.389   4.367 -0.0115  0.3907 -0.2526
    1DIPC   NC320617  16.907  25.966   3.450 -0.2515  0.0948  0.0063
    1DIPC   PO420618  16.976  26.444   3.326  0.1425  0.0988 -0.3637
    1DIPC   GL120619  17.032  26.341   3.800  0.0099  0.1198 -0.1178
    1DIPC   GL220620  17.099  25.990   3.893  0.2879  0.2938  0.0377
    1DIPC   C1A20621  17.212  26.306   4.196 -0.2318  0.0763 -0.1676
    1DIPC   D2A20622  17.367  26.601   4.455 -0.1677 -0.2320  0.2549
    1DIPC   D3A20623  17.030  26.647   4.725 -0.1480  0.2620  0.0746
    1DIPC   C4A20624  16.968  26.506   5.103  0.0624 -0.2557 -0.0332
    1DIPC   C1B20625  17.057  25.862   4.325  0.2146 -0.0005  0.0870
    1DIPC   D2B20626  17.062  26.025   4.718 -0.2258 -0.0174  0.1122
    1DIPC   D3B20627  16.832  25.748   4.895 -0.0461 -0.0864 -0.0175
    1DIPC   C4B20628  16.446  25.838   5.198 -0.0430  0.1259 -0.1366
    1DIPC   NC320629  14.257   7.879   2.646 -0.2471  0.0171 -0.3910
    1DIPC   PO420630  14.743   7.761   2.602 -0.0411 -0.0264 -0.0659
    1DIPC   GL120631  14.902   7.761   2.966  0.2991 -0.0606  0.0243
    1DIPC   GL220632  15.201   7.612   3.114  0.1299  0.1964 -0.1086
    1DIPC   C1A20633  14.669   7.731   3.358  0.1377  0.0047  0.0669
    1DIPC   D2A20634  14.362   7.705   3.732 -0.1454 -0.3774  0.0797
    1DIPC   D3A20635  14.432   7.288   3.967 -0.1573 -0.3019 -0.2917
    1DIPC   C4A20636  14.189   7.214   4.314  0.3629 -0.4151 -0.0725
    1DIPC   C1B20637  15.137   7.820   3.601  0.1833 -0.1424 -0.1109
    1DIPC   D2B20638  15.466   7.898   3.828  0.1135  0.2889 -0.1300
    1DIPC   D3B20639  15.165   8.186   4.101 -0.0287 -0.2232  0.0123
    1DIPC   C4B20640  15.371   8.555   4.255  0.0022 -0.0846 -0.2598
    1DIPC   NC320641  21.848   2.187   2.880  0.0670  0.1697  0.1320
    1DIPC   PO420642  21.508   1.995   3.131  0.0080 -0.1186  0.1958
    1DIPC   GL120643  21.258   2.151   3.472  0.2212  0.1135 -0.2122
    1DIPC   GL220644  21.552   2.331   3.609 -0.2075 -0.0462  0.4793
    1DIPC   C1A20645  21.179   2.189   3.919 -0.1385 -0.0992 -0.0723
    1DIPC   D2A20646  20.725   2.195   4.006  0.1588 -0.2895 -0.1287
    1DIPC   D3A20647  20.831   1.950   4.457 -0.0115 -0.0144  0.0618
    1DIPC   C4A20648  21.065   1.658   4.303 -0.1147 -0.0091 -0.1160
    1DIPC   C1B20649  21.594   2.520   4.032 -0.0513 -0.0136  0.0374
    1DIPC   D2B20650  21.736   2.496   4.498 -0.0081  0.1944 -0.0534
    1DIPC   D3B20651  22.171   2.333   4.311  0.1013 -0.2560  0.0415
    1DIPC   C4B20652  22.565   2.410   4.587 -0.1724 -0.3595 -0.2949
    1DIPC   NC320653  11.170   6.431   1.739  0.3211 -0.1925 -0.1466
    1DIPC   PO420654  11.325   6.611   2.103 -0.2569 -0.3569  0.0479
    1DIPC   GL120655  11.468   6.584   2.553 -0.3702  0.0615  0.1255
    1DIPC   GL220656  11.722   6.288   2.555  0.0892 -0.2407 -0.0083
    1DIPC   C1A20657  11.200   6.679   2.964  0.0553 -0.2960  0.0289
    1DIPC   D2A20658  10.996   6.595   3.427  0.0030 -0.0804 -0.1157
    1DIPC   D3A20659  10.692   6.664   3.139  0.0672  0.0381  0.0684
    1DIPC   C4A20660  10.372   6.954   3.277 -0.0499 -0.0210 -0.1801
    1DIPC   C1B20661  11.479   5.952   2.726 -0.2694  0.2191  0.1778
    1DIPC   D2B20662  11.556   5.726   3.182 -0.0408 -0.3818 -0.1927
    1DIPC   D3B20663  11.607   5.666   3.611 -0.2166 -0.2395 -0.0299
    1DIPC   C4B20664  11.515   5.935   3.865  0.0994  0.1357 -0.2233
    1DIPC   NC320665   7.267  18.338   2.683 -0.2062 -0.1464 -0.1360
    1DIPC   PO420666   7.181  17.865   2.964 -0.1225  0.4201 -0.1842
    1DIPC   GL120667   7.140  17.600   3.329  0.0605 -0.2357  0.0914
    1DIPC   GL220668   6.853  17.384   3.190 -0.0179 -0.1251 -0.1318
    1DIPC   C1A20669   7.053  17.325   3.663 -0.1266  0.0816 -0.0873
    1DIPC   D2A20670   6.804  17.052   3.980 -0.0649  0.1567 -0.0215
    1DIPC   D3A20671   6.991  16.823   4.313  0.2149 -0.0255 -0.2781
    1DIPC   C4A20672   7.077  16.337   4.138 -0.0975 -0.1644  0.1494
    1DIPC   C1B20673   6.747  16.907   3.226 -0.2023 -0.1947  0.2332
    1DIPC   D2B20674   6.414  16.819   3.477  0.0141 -0.1192  0.1564
    1DIPC   D3B20675   6.197  16.911   3.794 -0.2148 -0.0819  0.3137
    1DIPC   C4B20676   6.262  17.247   4.130  0.0550 -0.0771  0.2089
    1DIPC   NC320677   5.127  28.012   2.919  0.2800  0.1737 -0.1738
    1DIPC   PO420678   4.755  28.182   2.952 -0.1129 -0.0310  0.1310
    1DIPC   GL120679   4.737  28.203   3.320 -0.0441 -0.0106 -0.4269
    1DIPC   GL220680   4.629  28.072   3.645  0.1895  0.0276  0.1080
    1DIPC   C1A20681   5.103  28.389   3.584  0.0670  0.3293 -0.1001
    1DIPC   D2A20682   5.485  28.544   3.375 -0.2189  0.2506 -0.0713
    1DIPC   D3A20683   5.800  28.421   3.488 -0.0142 -0.0061 -0.1672
    1DIPC   C4A20684   5.941  27.993   3.481  0.0680  0.0060 -0.1280
    1DIPC   C1B20685   4.855  28.203   3.959  0.4410 -0.0093  0.2602
    1DIPC   D2B20686   5.241  28.095   4.282  0.0882  0.0993 -0.1682
    1DIPC   D3B20687   5.584  27.804   4.154 -0.2690 -0.1128  0.4363
    1DIPC   C4B20688   5.977  27.910   4.080 -0.2288 -0.0005  0.0351
    1DIPC   NC320689  17.870  22.656   3.199  0.0962  0.2429  0.3401
    1DIPC   PO420690  17.922  22.235   3.431 -0.0305 -0.2487 -0.1297
    1DIPC   GL120691  17.905  22.315   3.894  0.0645 -0.1161 -0.3267
    1DIPC   GL220692  18.013  22.064   4.123 -0.2412 -0.3024  0.0195
    1DIPC   C1A20693  17.667  22.482   4.160 -0.0717 -0.0564 -0.1238
    1DIPC   D2A20694  17.424  22.535   4.572 -0.1611 -0.0906  0.0201
    1DIPC   D3A20695  17.244  22.423   5.037  0.0704 -0.1020 -0.0959
    1DIPC   C4A20696  17.295  22.105   5.150 -0.0040 -0.1954  0.1429
    1DIPC   C1B20697  17.927  22.169   4.521 -0.1192 -0.0520  0.1981
    1DIPC   D2B20698  17.732  22.243   4.861 -0.1988  0.1687 -0.3973
    1DIPC   D3B20699  17.828  22.354   5.272 -0.0303  0.2732 -0.1373
    1DIPC   C4B20700  18.266  22.198   5.443  0.0012 -0.1812  0.1542
    1DIPC   NC320701  17.017  24.551   2.638 -0.0417 -0.0160 -0.0443
    1DIPC   PO420702  16.849  24.760   3.017 -0.0062  0.0061  0.0426
    1DIPC   GL120703  16.919  24.840   3.456  0.1327 -0.1027  0.1938
    1DIPC   GL220704  16.673  25.064   3.654  0.0105 -0.2105  0.3729
    1DIPC   C1A20705  17.250  24.611   3.685  0.0518 -0.0412  0.0302
    1DIPC   D2A20706  17.447  24.512   4.124 -0.0983 -0.5575 -0.2089
    1DIPC   D3A20707  17.339  24.293   4.449  0.2170  0.0624 -0.0353
    1DIPC   C4A20708  16.937  24.175   4.586 -0.2422 -0.1518 -0.0562
    1DIPC   C1B20709  16.651  25.026   4.091  0.0409  0.1557  0.0110
    1DIPC   D2B20710  16.464  25.090   4.525  0.0906 -0.1428 -0.0047
    1DIPC   D3B20711  16.032  25.178   4.500 -0.1581 -0.5985 -0.1270
    1DIPC   C4B20712  15.906  25.550   4.417 -0.2758 -0.0063 -0.0754
    1DIPC   NC320713   7.190  12.985   2.051  0.0530 -0.0213 -0.0976
    1DIPC   PO420714   7.573  13.213   2.119  0.2691 -0.2491 -0.2251
    1DIPC   GL120715   7.651  13.306   2.575 -0.1611 -0.1577  0.2158
    1DIPC   GL220716   7.361  13.082   2.603 -0.1186  0.1004  0.0089
    1DIPC   C1A20717   7.479  13.312   3.003 -0.0509 -0.0060 -0.1681
    1DIPC   D2A20718   7.331  13.153   3.401 -0.2250  0.0603 -0.3426
    1DIPC   D3A20719   6.981  13.262   3.034  0.1779  0.0074 -0.1509
    1DIPC   C4A20720   6.619  13.225   2.720 -0.2033 -0.0786  0.0902
    1DIPC   C1B20721   7.232  12.851   2.957 -0.2069 -0.4338  0.2476
    1DIPC   D2B20722   6.970  12.801   3.351  0.0837  0.2049  0.0400
    1DIPC   D3B20723   7.229  12.781   3.707  0.3594  0.0952  0.2511
    1DIPC   C4B20724   6.952  12.733   4.068  0.0852 -0.1404  0.1894
    1DIPC   NC320725  13.919  12.724   2.661  0.2828 -0.0059 -0.0751
    1DIPC   PO420726  13.494  12.879   2.682  0.0509  0.4472 -0.1127
    1DIPC   GL120727  13.583  12.649   3.125  0.2041 -0.1596 -0.3095
    1DIPC   GL220728  13.918  12.529   3.122 -0.2435  0.0196  0.0198
    1DIPC   C1A20729  13.593  12.615   3.533 -0.3348  0.1441  0.2228
    1DIPC   D2A20730  13.704  12.496   3.918 -0.0376  0.1361  0.0256
    1DIPC   D3A20731  13.923  12.120   4.102 -0.0999  0.5237  0.0742
    1DIPC   C4A20732  13.806  11.874   4.320  0.0484  0.3647 -0.1490
    1DIPC   C1B20733  13.833  12.193   3.504 -0.0910  0.2095 -0.1863
    1DIPC   D2B20734  13.974  11.796   3.723  0.1075 -0.0723 -0.2675
    1DIPC   D3B20735  14.112  11.763   3.313  0.3043  0.0056  0.2998
    1DIPC   C4B20736  13.977  12.059   3.019  0.0694  0.2385  0.4089
    1DIPC   NC320737  24.321  22.416   3.379  0.0486 -0.1342  0.0320
    1DIPC   PO420738  24.130  22.692   3.765 -0.1381 -0.1998  0.2710
    1DIPC   GL120739  24.093  22.507   4.195  0.2048  0.1228 -0.1830
    1DIPC   GL220740  24.356  22.303   4.104  0.0018  0.1059 -0.0857
    1DIPC   C1A20741  24.097  22.330   4.601  0.0407  0.0720  0.0979
    1DIPC   D2A20742  24.341  22.194   4.908 -0.3012 -0.0368  0.0819
    1DIPC   D3A20743  24.572  22.264   5.334 -0.1525 -0.0901 -0.0569
    1DIPC   C4A20744  24.314  22.340   5.616  0.4997  0.0306 -0.2282
    1DIPC   C1B20745  24.507  22.067   4.413  0.1749  0.2505  0.0936
    1DIPC   D2B20746  24.841  21.904   4.827 -0.2789  0.0813 -0.1739
    1DIPC   D3B20747  25.074  22.221   4.829  0.1281  0.1999  0.0662
    1DIPC   C4B20748  25.496  22.209   4.969  0.1539 -0.2050  0.2415
    1DIPC   NC320749   6.441   1.400   2.577  0.4233  0.0442  0.2150
    1DIPC   PO420750   6.184   1.522   2.923  0.4018 -0.0705 -0.0537
    1DIPC   GL120751   6.086   1.441   3.283 -0.1250 -0.3477 -0.2304
    1DIPC   GL220752   5.776   1.275   3.297 -0.0007  0.1281  0.2269
    1DIPC   C1A20753   6.171   1.245   3.661 -0.3220  0.0644 -0.0714
    1DIPC   D2A20754   6.105   1.148   4.109  0.2008 -0.3223 -0.1531
    1DIPC   D3A20755   6.278   0.871   4.396 -0.1034  0.3558 -0.0751
    1DIPC   C4A20756   6.587   0.981   4.744 -0.0237 -0.2268 -0.2263
    1DIPC   C1B20757   5.645   1.275   3.684  0.0305  0.1845 -0.0052
    1DIPC   D2B20758   5.610   1.079   4.132 -0.1014 -0.3067 -0.2750
    1DIPC   D3B20759   5.954   1.225   4.583 -0.0047  0.0559 -0.1098
    1DIPC   C4B20760   6.213   1.574   4.344 -0.2920  0.0832  0.0627
    1DIPC   NC320761   4.290  13.784   2.129 -0.2108  0.0739  0.2688
    1DIPC   PO420762   4.524  13.406   1.980  0.0713 -0.0727  0.0276
    1DIPC   GL120763   4.508  13.430   2.437  0.0836 -0.0264  0.0952
    1DIPC   GL220764   4.720  13.350   2.463 -0.1341 -0.2081  0.0056
    1DIPC   C1A20765   4.429  13.363   2.904  0.0330 -0.2366  0.1506
    1DIPC   D2A20766   4.256  13.127   3.108 -0.0817  0.1924 -0.1703
    1DIPC   D3A20767   4.598  12.965   3.292  0.0650  0.1556 -0.0090
    1DIPC   C4A20768   4.980  13.181   3.437 -0.2881  0.1643  0.0422
    1DIPC   C1B20769   4.818  13.032   2.747 -0.2722  0.0125  0.0410
    1DIPC   D2B20770   4.477  12.726   2.851 -0.0106 -0.0280 -0.0330
    1DIPC   D3B20771   4.868  12.485   3.014 -0.0142  0.1369 -0.2526
    1DIPC   C4B20772   5.111  12.662   3.192  0.3908 -0.1939 -0.2223
    1DIPC   NC320773  25.072  20.673   3.550 -0.0585 -0.1748  0.0011
    1DIPC   PO420774  25.148  20.957   3.874  0.1922  0.0783 -0.0286
    1DIPC   GL120775  24.768  21.032   4.154  0.0679 -0.0205 -0.1540
    1DIPC   GL220776  24.525  20.885   4.035  0.2812 -0.1461  0.0760
    1DIPC   C1A20777  24.636  21.042   4.626  0.2307 -0.3071 -0.2025
    1DIPC   D2A20778  24.500  20.734   4.921 -0.0732  0.0473 -0.0817
    1DIPC   D3A20779  24.554  20.342   4.892 -0.0938  0.1639 -0.1672
    1DIPC   C4A20780  25.001  20.469   4.771 -0.0485  0.1657  0.1302
    1DIPC   C1B20781  24.280  21.216   4.298 -0.1528 -0.1027 -0.1287
    1DIPC   D2B20782  24.173  21.252   4.709 -0.2050  0.1754  0.0356
    1DIPC   D3B20783  23.789  21.220   4.856  0.2133  0.0649 -0.0488
    1DIPC   C4B20784  23.325  21.176   4.670 -0.2278 -0.0564  0.3173
    1DIPC   NC320785   1.187   2.086   2.627 -0.1758  0.4163 -0.2146
    1DIPC   PO420786   0.901   1.730   2.577  0.0598 -0.1047  0.3128
    1DIPC   GL120787   0.939   1.706   3.067  0.0577  0.0293  0.0050
    1DIPC   GL220788   1.252   1.837   3.152 -0.3882 -0.1110  0.2418
    1DIPC   C1A20789   0.732   1.747   3.469  0.2531  0.0465 -0.0171
    1DIPC   D2A20790   0.419   1.586   3.284  0.2044  0.1036 -0.0374
    1DIPC   D3A20791   0.143   1.454   3.626  0.1159  0.0611 -0.0134
    1DIPC   C4A20792   0.205   1.498   4.040  0.0601 -0.1591 -0.2772
    1DIPC   C1B20793   1.206   1.937   3.556  0.1138 -0.3515 -0.3822
    1DIPC   D2B20794   0.984   1.989   4.031 -0.1198  0.2248  0.0360
    1DIPC   D3B20795   1.270   1.665   4.308 -0.0072  0.0999  0.0916
    1DIPC   C4B20796   1.215   1.439   4.641 -0.2386  0.0286  0.0037
    1DIPC   NC320797  19.213  27.289   3.873  0.1283 -0.3775  0.0362
    1DIPC   PO420798  19.178  27.788   3.772  0.0213  0.1001 -0.0843
    1DIPC   GL120799  19.444  27.991   4.025  0.1751 -0.6373  0.1264
    1DIPC   GL220800  19.295  28.278   4.058 -0.2661 -0.0796 -0.0970
    1DIPC   C1A20801  19.623  28.184   4.409 -0.0755 -0.0785  0.1583
    1DIPC   D2A20802  19.905  28.165   4.825 -0.1782  0.0689  0.0839
    1DIPC   D3A20803  19.794  28.468   5.093 -0.2677 -0.1285 -0.2157
    1DIPC   C4A20804  20.175  28.647   5.342 -0.0251 -0.0919  0.1619
    1DIPC   C1B20805  19.180  28.423   4.462  0.3422 -0.1381  0.1835
    1DIPC   D2B20806  19.388  28.451   4.830 -0.0433  0.0253 -0.2710
    1DIPC   D3B20807  19.163  28.782   4.961 -0.0599 -0.1603 -0.0685
    1DIPC   C4B20808  19.010  28.913   4.591 -0.0871  0.0211 -0.0710
    1DIPC   NC320809  23.682  22.549   3.931 -0.3085  0.0756  0.1310
    1DIPC   PO420810  23.492  22.157   3.852  0.0040  0.0932  0.0157
    1DIPC   GL120811  23.229  22.079   4.211 -0.2270  0.2735 -0.0684
    1DIPC   GL220812  22.928  22.228   4.299  0.0934 -0.0226 -0.1385
    1DIPC   C1A20813  23.372  22.095   4.588  0.1498  0.1764 -0.1853
    1DIPC   D2A20814  23.678  22.250   4.916  0.2012  0.0841  0.1190
    1DIPC   D3A20815  23.995  21.964   5.175 -0.2868  0.1340  0.1806
    1DIPC   C4A20816  23.986  21.537   5.176 -0.3464 -0.2831 -0.0289
    1DIPC   C1B20817  22.844  22.162   4.707 -0.2126  0.0064 -0.0288
    1DIPC   D2B20818  22.610  22.527   4.882 -0.1635  0.0562  0.0238
    1DIPC   D3B20819  22.690  22.336   5.249 -0.1997 -0.2538 -0.2687
    1DIPC   C4B20820  22.574  21.972   5.156 -0.0582  0.4624  0.0452
    1DIPC   NC320821   2.212  25.529   3.384 -0.4810 -0.2224 -0.1185
    1DIPC   PO420822   1.846  25.410   3.129  0.2601 -0.1470 -0.2167
    1DIPC   GL120823   1.656  25.482   3.494 -0.2807  0.1065 -0.1313
    1DIPC   GL220824   1.799  25.703   3.609 -0.0627 -0.2073  0.0317
    1DIPC   C1A20825   1.535  25.540   3.981  0.1812  0.0837  0.0995
    1DIPC   D2A20826   1.615  25.908   4.256  0.0234  0.2627 -0.1363
    1DIPC   D3A20827   1.249  26.010   4.487 -0.1145 -0.0125  0.0349
    1DIPC   C4A20828   1.162  25.992   4.896  0.0524 -0.2738  0.0238
    1DIPC   C1B20829   2.028  25.887   3.974  0.3469  0.1344  0.0457
    1DIPC   D2B20830   2.235  25.866   4.240 -0.1887 -0.1002 -0.3820
    1DIPC   D3B20831   2.092  25.876   4.595  0.2087 -0.1726  0.0286
    1DIPC   C4B20832   2.251  25.965   4.959 -0.0099  0.3020  0.0854
    1DIPC   NC320833  22.432   3.040   3.142  0.0347  0.3541  0.2238
    1DIPC   PO420834  22.266   2.738   3.312  0.3795 -0.0291 -0.3215
    1DIPC   GL120835  22.106   2.710   3.655 -0.2160 -0.0581  0.0515
    1DIPC   GL220836  21.783   2.887   3.716 -0.1658  0.2794  0.2334
    1DIPC   C1A20837  22.029   2.777   4.144  0.1478 -0.0114  0.2630
    1DIPC   D2A20838  22.100   2.831   4.563 -0.0174  0.3326 -0.1485
    1DIPC   D3A20839  22.395   2.900   4.933  0.0702  0.0616  0.2318
    1DIPC   C4A20840  22.242   2.974   5.345  0.1224 -0.0303  0.0061
    1DIPC   C1B20841  21.750   3.167   4.081 -0.1313 -0.2179  0.2266
    1DIPC   D2B20842  21.771   3.241   4.430  0.1051 -0.0458  0.3784
    1DIPC   D3B20843  21.411   3.471   4.376 -0.1490  0.0456  0.2403
    1DIPC   C4B20844  21.397   3.838   4.126  0.2668  0.3440  0.1553
    1DIPC   NC320845  10.188  18.018   1.982  0.1391 -0.2619  0.0202
    1DIPC   PO420846   9.802  18.168   2.243  0.0490 -0.0950  0.1508
    1DIPC   GL120847   9.845  18.234   2.648 -0.0588 -0.1440 -0.0010
    1DIPC   GL220848   9.892  18.402   2.921 -0.0821 -0.2674  0.0064
    1DIPC   C1A20849   9.447  18.119   2.973 -0.1614 -0.1243 -0.4912
    1DIPC   D2A20850   9.034  18.249   3.191  0.2370  0.0434 -0.1229
    1DIPC   D3A20851   9.013  17.988   3.542 -0.1786 -0.3957  0.1447
    1DIPC   C4A20852   8.952  18.057   4.005 -0.3006 -0.4205  0.0087
    1DIPC   C1B20853   9.964  18.254   3.348 -0.1334 -0.1765  0.3537
    1DIPC   D2B20854  10.146  18.293   3.674 -0.2666 -0.2395  0.2782
    1DIPC   D3B20855   9.912  18.249   4.062  0.1538  0.0819 -0.1389
    1DIPC   C4B20856   9.816  18.012   4.401  0.0265 -0.0197 -0.1607
    1DIPC   NC320857   8.829   9.748   2.101  0.0201  0.2134  0.0741
    1DIPC   PO420858   8.420   9.731   2.380 -0.3374  0.1362  0.2027
    1DIPC   GL120859   8.440   9.814   2.822  0.0810 -0.1886  0.3330
    1DIPC   GL220860   8.389  10.097   2.736  0.1174 -0.0928  0.0071
    1DIPC   C1A20861   8.560   9.781   3.184  0.3388  0.0447 -0.2137
    1DIPC   D2A20862   8.403  10.006   3.539 -0.0987 -0.0567 -0.0955
    1DIPC   D3A20863   8.046   9.982   3.930  0.0606 -0.0376  0.0204
    1DIPC   C4A20864   7.654  10.241   4.139  0.0884  0.0083 -0.2538
    1DIPC   C1B20865   8.088  10.414   2.727 -0.0609 -0.0485 -0.2107
    1DIPC   D2B20866   7.817  10.761   2.605 -0.1812 -0.0599 -0.2455
    1DIPC   D3B20867   7.481  10.921   2.954 -0.1023  0.0800 -0.0372
    1DIPC   C4B20868   7.619  10.900   3.464 -0.2176 -0.2701 -0.0176
    1DIPC   NC320869   1.825  28.942   3.256 -0.2455  0.3118  0.1326
    1DIPC   PO420870   2.085  29.153   2.871 -0.0924 -0.1264  0.1144
    1DIPC   GL120871   1.970  29.444   3.277 -0.0265  0.2342  0.0321
    1DIPC   GL220872   1.797   0.058   3.134 -0.1345  0.0158 -0.0449
    1DIPC   C1A20873   2.033  29.430   3.750 -0.3495  0.0583  0.1393
    1DIPC   D2A20874   2.234  29.266   4.106 -0.1489 -0.1873 -0.0258
    1DIPC   D3A20875   2.044   0.076   4.306  0.1867  0.0296  0.0663
    1DIPC   C4A20876   1.783   0.072   4.681  0.0665 -0.2497  0.0636
    1DIPC   C1B20877   1.731   0.248   3.562  0.0088  0.0979 -0.1447
    1DIPC   D2B20878   1.870   0.407   3.896  0.0792  0.1187 -0.0381
    1DIPC   D3B20879   2.317   0.365   3.604  0.1785 -0.2679 -0.0408
    1DIPC   C4B20880   2.445  29.586   3.575  0.1670 -0.3327  0.2140
    1DIPC   NC320881   6.673  10.280   1.871  0.0860 -0.4062  0.0664
    1DIPC   PO420882   6.762   9.885   1.873 -0.1602 -0.3083 -0.0395
    1DIPC   GL120883   6.429   9.936   2.194  0.2258  0.3096  0.2978
    1DIPC   GL220884   6.045  10.152   2.187  0.0477  0.0505 -0.3362
    1DIPC   C1A20885   6.423   9.977   2.623 -0.0475 -0.2126  0.2405
    1DIPC   D2A20886   6.352   9.863   2.999  0.1969 -0.2789  0.2111
    1DIPC   D3A20887   6.071   9.641   3.272 -0.0413  0.2212  0.0425
    1DIPC   C4A20888   6.252   9.227   3.276 -0.1597  0.2291 -0.0690
    1DIPC   C1B20889   6.015  10.223   2.649 -0.1194 -0.0274  0.3937
    1DIPC   D2B20890   6.299  10.448   3.032 -0.1009 -0.0641 -0.0635
    1DIPC   D3B20891   5.902  10.578   3.357  0.1488  0.1461 -0.1290
    1DIPC   C4B20892   5.771  10.668   3.738  0.1649  0.0595 -0.4056
    1DIPC   NC320893   7.972   8.675   2.283 -0.0694 -0.3053 -0.0963
    1DIPC   PO420894   8.205   9.070   2.254  0.0315  0.4549  0.1135
    1DIPC   GL120895   8.367   8.899   2.690  0.1611 -0.0082 -0.1439
    1DIPC   GL220896   8.356   8.503   2.695  0.0054 -0.2982 -0.2481
    1DIPC   C1A20897   8.219   9.310   3.075 -0.0194 -0.1250 -0.0441
    1DIPC   D2A20898   8.114   9.589   3.416  0.3016 -0.2430 -0.1796
    1DIPC   D3A20899   7.829   9.423   3.701  0.1177 -0.3578  0.1864
    1DIPC   C4A20900   7.795   9.080   3.785  0.1713 -0.2735 -0.2427
    1DIPC   C1B20901   8.772   8.595   2.851  0.1749  0.1562  0.2129
    1DIPC   D2B20902   9.264   8.611   2.824  0.1271 -0.3982 -0.0565
    1DIPC   D3B20903   9.349   8.966   3.141  0.1369  0.1564  0.2981
    1DIPC   C4B20904   9.347   8.828   3.534  0.2537  0.1220  0.3998
    1DIPC   NC320905  11.730  20.537   2.368  0.0300 -0.1079  0.0872
    1DIPC   PO420906  11.599  20.172   2.395 -0.3303  0.1319  0.1115
    1DIPC   GL120907  11.864  20.057   2.780  0.1677 -0.1573  0.0446
    1DIPC   GL220908  11.636  19.820   2.866  0.2470 -0.1415 -0.0625
    1DIPC   C1A20909  11.942  19.915   3.283  0.2233  0.0028 -0.0989
    1DIPC   D2A20910  11.908  20.011   3.749 -0.1596  0.0944 -0.0027
    1DIPC   D3A20911  11.695  20.346   3.617 -0.0145 -0.2704 -0.0146
    1DIPC   C4A20912  11.605  20.408   3.163  0.2584  0.0314 -0.0508
    1DIPC   C1B20913  11.476  19.739   3.360  0.0834 -0.1788 -0.4412
    1DIPC   D2B20914  11.235  19.405   3.594 -0.0192 -0.3478  0.1018
    1DIPC   D3B20915  11.267  19.550   4.022  0.0135 -0.4073 -0.1652
    1DIPC   C4B20916  11.683  19.715   4.057 -0.0339  0.2127 -0.4178
    1DIPC   NC320917  12.228   9.196   2.404  0.0455  0.2768 -0.0228
    1DIPC   PO420918  12.268   9.563   2.637 -0.1837  0.0126  0.0446
    1DIPC   GL120919  12.350   9.708   3.078  0.2678  0.1075 -0.3674
    1DIPC   GL220920  12.428  10.011   3.256 -0.1806  0.1483 -0.1416
    1DIPC   C1A20921  12.475   9.653   3.526  0.1419 -0.1379 -0.2844
    1DIPC   D2A20922  12.599   9.715   3.901 -0.0247  0.0881  0.1816
    1DIPC   D3A20923  12.430   9.981   4.217 -0.1896 -0.1741  0.1628
    1DIPC   C4A20924  12.110  10.211   4.156  0.2023 -0.0124  0.0113
    1DIPC   C1B20925  12.177  10.042   3.656  0.5059 -0.2742 -0.2137
    1DIPC   D2B20926  12.064   9.672   3.845 -0.2072  0.3264  0.5965
    1DIPC   D3B20927  12.029   9.563   3.429 -0.0199 -0.0081  0.2058
    1DIPC   C4B20928  11.680   9.709   3.324 -0.3690  0.1554 -0.2583
    1DIPC   NC320929  18.430   6.684   2.651  0.0122 -0.1294 -0.1309
    1DIPC   PO420930  18.064   6.770   2.570  0.0725 -0.1067 -0.1280
    1DIPC   GL120931  18.062   6.864   3.003 -0.1062 -0.2854 -0.1808
    1DIPC   GL220932  18.201   7.148   3.202 -0.1023  0.1131 -0.1534
    1DIPC   C1A20933  17.816   6.788   3.363 -0.2807  0.1574  0.0263
    1DIPC   D2A20934  17.690   6.599   3.649  0.2063  0.4004 -0.0576
    1DIPC   D3A20935  17.772   6.226   3.798 -0.1408  0.0817  0.0028
    1DIPC   C4A20936  18.031   5.882   3.873  0.0377 -0.0268 -0.2478
    1DIPC   C1B20937  18.102   7.003   3.767  0.1432  0.0224  0.2664
    1DIPC   D2B20938  17.928   6.752   4.125 -0.2731  0.1748 -0.3903
    1DIPC   D3B20939  17.542   6.552   4.126  0.1886  0.0162 -0.0014
    1DIPC   C4B20940  17.169   6.859   4.077 -0.0526 -0.1145  0.1722
    1DIPC   NC320941  27.850   0.317   3.200 -0.0043  0.0888  0.2187
    1DIPC   PO420942  27.684   0.673   3.093 -0.1428  0.4235 -0.0025
    1DIPC   GL120943  27.710   0.878   3.416 -0.0533  0.0334  0.2320
    1DIPC   GL220944  27.978   1.253   3.402 -0.0353  0.0062  0.0458
    1DIPC   C1A20945  27.915   0.845   3.791 -0.2168 -0.2729  0.0694
    1DIPC   D2A20946  28.117   0.964   4.262  0.2361 -0.1217 -0.1367
    1DIPC   D3A20947  27.732   1.225   4.179 -0.0282 -0.0462  0.1385
    1DIPC   C4A20948  27.291   1.220   4.304  0.0832  0.0770  0.0851
    1DIPC   C1B20949  27.985   1.346   3.808  0.1309  0.0566 -0.0518
    1DIPC   D2B20950  28.141   1.486   4.201 -0.1500  0.2486  0.2915
    1DIPC   D3B20951  27.811   1.638   4.624 -0.0302 -0.2207  0.2362
    1DIPC   C4B20952  27.865   2.079   4.726 -0.0732 -0.0416  0.1142
    1DIPC   NC320953  28.129   0.923   2.963  0.0398  0.0314 -0.0257
    1DIPC   PO420954  28.108   1.274   2.656  0.3220 -0.0749 -0.2127
    1DIPC   GL120955  28.371   1.377   3.070 -0.3347 -0.0228  0.0769
    1DIPC   GL220956  28.497   1.135   3.276  0.0170 -0.0406 -0.1877
    1DIPC   C1A20957  28.387   1.596   3.430 -0.1073  0.0347  0.2850
    1DIPC   D2A20958  28.512   1.435   3.837  0.1178 -0.0140  0.2502
    1DIPC   D3A20959  28.626   1.720   4.229  0.0059  0.0029 -0.1430
    1DIPC   C4A20960  28.270   1.975   4.293 -0.1611 -0.0023 -0.2013
    1DIPC   C1B20961  28.377   1.028   3.642  0.1969 -0.0464 -0.3153
    1DIPC   D2B20962  28.424   0.705   3.929  0.3151 -0.2345 -0.1458
    1DIPC   D3B20963  28.474   0.656   4.366 -0.2243 -0.0730 -0.2414
    1DIPC   C4B20964  28.845   0.909   4.507 -0.2438  0.2856  0.0090
    1DIPC   NC320965  23.771  23.434   4.120  0.1110  0.0717 -0.2653
    1DIPC   PO420966  23.582  23.073   4.021  0.1421  0.3064  0.0629
    1DIPC   GL120967  23.798  22.884   4.377  0.2696 -0.1140  0.0521
    1DIPC   GL220968  23.539  22.612   4.417  0.2048 -0.1213 -0.0411
    1DIPC   C1A20969  24.114  22.874   4.664 -0.5251  0.1428 -0.0175
    1DIPC   D2A20970  24.423  23.156   4.884 -0.1913 -0.2463 -0.0570
    1DIPC   D3A20971  24.675  23.184   4.513 -0.4198  0.1024  0.1101
    1DIPC   C4A20972  25.017  22.939   4.536  0.1627 -0.2647 -0.3042
    1DIPC   C1B20973  23.655  22.739   4.791 -0.0166 -0.2547  0.0289
    1DIPC   D2B20974  23.600  22.754   5.277 -0.0732 -0.1709 -0.0038
    1DIPC   D3B20975  23.487  22.622   5.658  0.2852  0.0109  0.2080
    1DIPC   C4B20976  23.104  22.869   5.804  0.2431  0.2165 -0.0649
    1DIPC   NC320977  19.155  26.354   4.085 -0.0020  0.0867  0.0562
    1DIPC   PO420978  19.111  25.862   4.015 -0.0055 -0.1178 -0.1030
    1DIPC   GL120979  18.717  25.752   4.304 -0.3550  0.0009  0.1713
    1DIPC   GL220980  18.336  25.907   4.219 -0.0332  0.0565 -0.2742
    1DIPC   C1A20981  18.460  25.396   4.310  0.1597  0.0070 -0.1103
    1DIPC   D2A20982  18.657  24.938   4.160  0.0893  0.2030 -0.2817
    1DIPC   D3A20983  19.011  24.933   4.457  0.4791  0.0103  0.2231
    1DIPC   C4A20984  19.051  24.606   4.619  0.2370 -0.2885  0.2818
    1DIPC   C1B20985  18.381  25.749   4.654 -0.1007  0.1350  0.1845
    1DIPC   D2B20986  18.501  25.907   5.091  0.0832 -0.0326 -0.1312
    1DIPC   D3B20987  18.951  26.012   5.024  0.1395 -0.2591  0.1135
    1DIPC   C4B20988  19.059  25.863   4.678  0.1742 -0.1011  0.3734
    1DIPC   NC320989  11.684   3.482   1.980 -0.1674  0.1572  0.3548
    1DIPC   PO420990  11.343   3.593   2.213  0.1463 -0.2989 -0.1685
    1DIPC   GL120991  11.320   3.747   2.720  0.1631  0.0322 -0.1072
    1DIPC   GL220992  11.054   3.690   2.746 -0.1649  0.0881  0.3243
    1DIPC   C1A20993  11.532   3.832   3.112  0.2440 -0.1663 -0.1147
    1DIPC   D2A20994  11.615   3.684   3.598 -0.0365 -0.1447  0.3283
    1DIPC   D3A20995  11.626   4.082   3.732 -0.0611  0.1479 -0.3101
    1DIPC   C4A20996  11.849   4.156   4.018  0.3266  0.1064  0.2603
    1DIPC   C1B20997  10.951   3.925   3.126  0.3249  0.0346  0.0652
    1DIPC   D2B20998  10.693   4.004   3.431  0.1465 -0.0692 -0.1038
    1DIPC   D3B20999  10.970   4.237   3.647 -0.4007 -0.0071  0.4712
    1DIPC   C4B21000  11.166   3.977   3.910 -0.0027  0.0599 -0.2894
    1DIPC   NC321001  26.806   4.321   2.387  0.0363 -0.0191 -0.2366
    1DIPC   PO421002  26.943   3.920   2.438 -0.2181  0.0033 -0.2358
    1DIPC   GL121003  26.911   4.122   2.812  0.2786  0.2658  0.1681
    1DIPC   GL221004  26.603   4.176   2.813  0.0084 -0.1801 -0.0211
    1DIPC   C1A21005  26.783   4.271   3.298 -0.1275  0.0174  0.2210
    1DIPC   D2A21006  26.893   4.191   3.702 -0.0781 -0.0752 -0.0100
    1DIPC   D3A21007  27.233   3.928   3.958 -0.1300  0.2025 -0.0091
    1DIPC   C4A21008  27.168   3.907   4.394 -0.0729 -0.0685 -0.1737
    1DIPC   C1B21009  26.599   3.825   3.079 -0.1285 -0.1895  0.2152
    1DIPC   D2B21010  26.723   3.530   3.395  0.3656  0.2053  0.1078
    1DIPC   D3B21011  27.109   3.789   3.492 -0.1442  0.0871 -0.0635
    1DIPC   C4B21012  27.484   3.663   3.642  0.1251 -0.0195  0.0956
    1DIPC   NC321013   4.171   1.697   2.571 -0.0214  0.2689 -0.0504
    1DIPC   PO421014   4.040   1.290   2.509  0.0209 -0.0025 -0.0589
    1DIPC   GL121015   3.930   1.429   2.896  0.0679 -0.1304 -0.1983
    1DIPC   GL221016   4.150   1.317   3.140  0.0413  0.2441  0.3339
    1DIPC   C1A21017   3.591   1.324   3.047  0.1294  0.0134 -0.0919
    1DIPC   D2A21018   3.282   1.522   3.106 -0.1967 -0.4642 -0.0175
    1DIPC   D3A21019   3.530   1.846   3.156  0.3623 -0.1398  0.1706
    1DIPC   C4A21020   3.914   1.803   3.292 -0.1966 -0.1381 -0.1375
    1DIPC   C1B21021   4.273   1.324   3.570  0.1063 -0.0925  0.0127
    1DIPC   D2B21022   4.318   1.316   4.091 -0.0325  0.0766 -0.2154
    1DIPC   D3B21023   3.913   1.237   3.925  0.1830 -0.1217  0.0772
    1DIPC   C4B21024   3.698   1.413   3.547 -0.0389 -0.2914  0.0897
    1DIPC   NC321025   2.762  12.303   2.019 -0.0305  0.1662 -0.1418
    1DIPC   PO421026   2.639  12.152   2.384  0.5208 -0.1090 -0.1876
    1DIPC   GL121027   2.436  11.875   2.706 -0.0697 -0.0295 -0.3173
    1DIPC   GL221028   2.188  11.749   2.601 -0.0011  0.2076  0.2851
    1DIPC   C1A21029   2.612  11.827   3.162 -0.2316 -0.0857 -0.1353
    1DIPC   D2A21030   2.638  11.751   3.580  0.0394 -0.1413  0.0954
    1DIPC   D3A21031   2.503  11.427   3.854  0.2900 -0.0114 -0.1089
    1DIPC   C4A21032   2.361  11.103   4.108  0.0246 -0.1399  0.0448
    1DIPC   C1B21033   2.369  11.417   2.923 -0.0716  0.2516 -0.0276
    1DIPC   D2B21034   2.488  11.370   3.276 -0.0481  0.1534  0.0702
    1DIPC   D3B21035   2.133  11.299   3.379  0.1118 -0.0776 -0.2385
    1DIPC   C4B21036   2.037  11.368   3.818 -0.3680  0.3152 -0.0993
    1DIPC   NC321037   0.459   1.389   2.810  0.3405  0.2510  0.2232
    1DIPC   PO421038   0.617   1.050   3.110 -0.0538 -0.1131  0.4094
    1DIPC   GL121039   0.630   1.149   3.501 -0.0092  0.0991 -0.0719
    1DIPC   GL221040   0.976   1.313   3.370 -0.1105  0.1679  0.0288
    1DIPC   C1A21041   0.641   1.524   3.877  0.3898  0.3605  0.0738
    1DIPC   D2A21042   0.747   1.407   4.308 -0.2460 -0.4033 -0.2062
    1DIPC   D3A21043   0.996   1.078   4.278  0.5515 -0.1679  0.0957
    1DIPC   C4A21044   1.273   0.724   4.653 -0.0179 -0.0271  0.2829
    1DIPC   C1B21045   1.144   1.442   3.776 -0.0191  0.0192  0.1827
    1DIPC   D2B21046   1.479   1.240   4.060  0.1272  0.0688  0.1800
    1DIPC   D3B21047   1.863   0.998   4.135 -0.2516  0.0611 -0.2845
    1DIPC   C4B21048   2.193   1.070   4.433  0.1743  0.3230 -0.1317
    1DIPC   NC321049  18.048  23.656   3.592  0.1257 -0.0503  0.0923
    1DIPC   PO421050  18.274  23.306   3.386  0.5120 -0.0555  0.2020
    1DIPC   GL121051  18.401  23.278   3.864 -0.1354  0.0783 -0.2380
    1DIPC   GL221052  18.478  23.688   3.985  0.3012  0.1399  0.3027
    1DIPC   C1A21053  18.159  23.268   4.324 -0.0481 -0.0030 -0.1663
    1DIPC   D2A21054  18.084  23.158   4.816  0.1826  0.3005  0.1522
    1DIPC   D3A21055  18.450  23.040   5.140 -0.1144 -0.0388  0.1694
    1DIPC   C4A21056  18.185  22.718   5.319 -0.2478  0.0494 -0.0508
    1DIPC   C1B21057  18.132  23.817   4.256  0.0280 -0.1975  0.0802
    1DIPC   D2B21058  17.685  24.012   4.243  0.0709 -0.3763  0.1558
    1DIPC   D3B21059  17.704  23.952   4.655 -0.4384  0.2254  0.1943
    1DIPC   C4B21060  17.947  23.786   4.849 -0.0637 -0.1622 -0.1165
    1DIPC   NC321061  15.347   4.688   2.464  0.0140  0.1911  0.0539
    1DIPC   PO421062  15.432   4.304   2.572 -0.0447 -0.1455 -0.1410
    1DIPC   GL121063  15.740   4.489   2.919 -0.3100  0.3306  0.1018
    1DIPC   GL221064  15.851   4.288   3.250  0.2107 -0.1647  0.0604
    1DIPC   C1A21065  15.806   4.791   3.268 -0.0017  0.1893  0.0159
    1DIPC   D2A21066  15.825   4.923   3.588 -0.3874  0.0314 -0.1938
    1DIPC   D3A21067  15.685   4.597   3.719 -0.0430 -0.0814 -0.0259
    1DIPC   C4A21068  15.325   4.682   3.991 -0.0057  0.2046  0.0505
    1DIPC   C1B21069  15.979   4.127   3.602  0.2602 -0.1121 -0.0410
    1DIPC   D2B21070  15.936   4.044   4.089  0.3301  0.3385 -0.0620
    1DIPC   D3B21071  16.129   3.742   4.254 -0.2308  0.3110 -0.0724
    1DIPC   C4B21072  16.180   3.782   4.717 -0.2445 -0.3252 -0.1227
    1DIPC   NC321073   7.877   1.865   2.544 -0.2166  0.1573  0.0130
    1DIPC   PO421074   7.780   1.342   2.497  0.1068 -0.1439 -0.1317
    1DIPC   GL121075   7.940   1.488   2.927  0.1984 -0.0851 -0.1276
    1DIPC   GL221076   7.950   1.802   3.084 -0.0677  0.1580  0.0161
    1DIPC   C1A21077   7.764   1.455   3.363 -0.1099 -0.2332  0.2838
    1DIPC   D2A21078   7.893   1.525   3.806 -0.1452 -0.0852 -0.0025
    1DIPC   D3A21079   8.088   0.994   3.611  0.3572 -0.4761  0.1021
    1DIPC   C4A21080   8.241   0.584   3.591 -0.0547  0.1850 -0.1243
    1DIPC   C1B21081   8.216   1.692   3.397  0.0955 -0.2485  0.0719
    1DIPC   D2B21082   8.395   1.664   3.788  0.0693  0.1038  0.1381
    1DIPC   D3B21083   8.218   1.553   4.226  0.1388  0.1368  0.3919
    1DIPC   C4B21084   7.911   1.163   4.312  0.0500  0.1527  0.0117
    1DIPC   NC321085  24.863  17.960   3.377 -0.0409  0.3084 -0.2175
    1DIPC   PO421086  24.533  18.252   3.501  0.1165  0.2552  0.0499
    1DIPC   GL121087  24.359  17.989   3.686  0.0660  0.1070  0.1242
    1DIPC   GL221088  24.484  17.715   3.640  0.0004  0.1574 -0.1756
    1DIPC   C1A21089  24.080  17.740   3.994  0.2227  0.0623 -0.0921
    1DIPC   D2A21090  24.179  17.429   4.235 -0.2864  0.1727 -0.0893
    1DIPC   D3A21091  23.947  17.260   4.518  0.0148 -0.2168  0.3062
    1DIPC   C4A21092  23.620  17.462   4.820  0.1307  0.1450 -0.0705
    1DIPC   C1B21093  24.628  17.724   4.138  0.0438  0.1842  0.0730
    1DIPC   D2B21094  24.754  17.718   4.557 -0.3765  0.1839  0.2456
    1DIPC   D3B21095  24.608  18.132   4.683 -0.1967 -0.0434  0.1895
    1DIPC   C4B21096  24.911  18.437   4.834  0.1075  0.0724  0.1350
    1DIPC   NC321097   2.345   2.577   2.858  0.1089  0.1723  0.1068
    1DIPC   PO421098   2.478   2.210   2.975  0.0791  0.1986  0.1162
    1DIPC   GL121099   2.353   2.355   3.319  0.0903 -0.0911  0.1097
    1DIPC   GL221100   2.374   2.626   3.389 -0.1607  0.2386  0.1121
    1DIPC   C1A21101   2.469   2.079   3.747 -0.1958  0.1103 -0.1310
    1DIPC   D2A21102   2.645   1.641   3.835 -0.0390 -0.1868  0.3250
    1DIPC   D3A21103   2.945   1.706   4.139 -0.2679  0.0435 -0.0043
    1DIPC   C4A21104   3.078   1.353   4.460 -0.2208 -0.5405  0.0348
    1DIPC   C1B21105   2.127   2.453   3.753  0.0175 -0.3664 -0.0818
    1DIPC   D2B21106   1.906   2.185   4.075  0.4886 -0.3007 -0.0686
    1DIPC   D3B21107   1.493   2.046   4.033 -0.1250 -0.0591  0.2031
    1DIPC   C4B21108   1.684   1.658   3.970 -0.1738 -0.0921 -0.0659
    1DIPC   NC321109  16.869  27.623   2.954 -0.1624 -0.0691  0.3093
    1DIPC   PO421110  17.157  27.364   3.165 -0.1169  0.1403  0.2331
    1DIPC   GL121111  17.173  27.513   3.600 -0.0616  0.0809 -0.5414
    1DIPC   GL221112  17.020  27.879   3.746 -0.0203 -0.0553  0.0623
    1DIPC   C1A21113  16.943  27.377   3.849  0.0501  0.1338  0.1004
    1DIPC   D2A21114  16.542  27.229   4.014 -0.3366  0.0175 -0.0053
    1DIPC   D3A21115  16.478  26.805   4.294 -0.1080 -0.0812  0.1848
    1DIPC   C4A21116  16.789  26.549   4.218  0.2400  0.3062  0.1043
    1DIPC   C1B21117  17.109  27.791   4.121 -0.2531 -0.0075 -0.0738
    1DIPC   D2B21118  16.986  27.776   4.490  0.0914  0.0171 -0.2660
    1DIPC   D3B21119  16.811  28.086   4.400  0.1625 -0.4477 -0.0429
    1DIPC   C4B21120  16.360  28.302   4.727 -0.0571  0.0440  0.0564
    1DIPC   NC321121  18.020   0.686   2.917  0.1671  0.3562 -0.1202
    1DIPC   PO421122  17.964   0.287   3.082 -0.2954  0.1001  0.0194
    1DIPC   GL121123  17.590   0.396   3.429 -0.1957  0.2446  0.3512
    1DIPC   GL221124  17.463   0.236   3.629  0.0812  0.1433  0.1051
    1DIPC   C1A21125  17.602   0.797   3.681  0.2592  0.0971  0.1336
    1DIPC   D2A21126  17.800   1.020   4.135  0.1516 -0.3010  0.1317
    1DIPC   D3A21127  17.522   1.341   4.301  0.0919  0.1326 -0.4118
    1DIPC   C4A21128  17.571   1.591   4.626 -0.1146 -0.0218 -0.3276
    1DIPC   C1B21129  17.273   0.332   3.971 -0.3534 -0.0575 -0.0915
    1DIPC   D2B21130  17.327   0.765   4.195 -0.0203 -0.3054  0.3231
    1DIPC   D3B21131  16.899   0.717   4.371 -0.2111 -0.0780  0.5452
    1DIPC   C4B21132  16.457   0.825   4.332 -0.3374  0.4027  0.1663
    1DIPC   NC321133  26.911  18.680   3.431  0.0474 -0.2120 -0.2251
    1DIPC   PO421134  26.722  18.479   3.615  0.0743 -0.1066  0.0753
    1DIPC   GL121135  26.633  18.613   3.981  0.0200  0.0476  0.1794
    1DIPC   GL221136  26.359  18.432   4.052  0.0025 -0.0558 -0.1650
    1DIPC   C1A21137  26.728  18.906   4.391  0.2981 -0.0203  0.1059
    1DIPC   D2A21138  26.547  19.128   4.646  0.0249  0.0992  0.1359
    1DIPC   D3A21139  26.661  19.143   5.147 -0.0819 -0.0175  0.1190
    1DIPC   C4A21140  26.344  19.023   5.462  0.2340  0.0284 -0.1826
    1DIPC   C1B21141  26.368  18.006   4.190 -0.0560  0.0037 -0.0728
    1DIPC   D2B21142  26.308  17.877   4.611  0.3979  0.0508  0.0154
    1DIPC   D3B21143  25.957  17.737   4.717  0.2203  0.1408 -0.3011
    1DIPC   C4B21144  25.897  17.575   4.381  0.1489  0.0189  0.1278
    1DIPC   NC321145  14.493   8.667   2.264  0.2138  0.0534  0.0763
    1DIPC   PO421146  14.451   8.810   2.710  0.1559  0.0977 -0.0427
    1DIPC   GL121147  14.501   8.530   3.040 -0.0974  0.1413  0.1831
    1DIPC   GL221148  14.511   8.148   2.988  0.2648 -0.3364 -0.0381
    1DIPC   C1A21149  14.669   8.598   3.462  0.0511  0.1027 -0.0800
    1DIPC   D2A21150  15.025   8.462   3.743  0.1042 -0.1821  0.1089
    1DIPC   D3A21151  15.286   8.287   3.551  0.4619  0.0962  0.1880
    1DIPC   C4A21152  15.624   8.335   3.885 -0.1074  0.0913 -0.2857
    1DIPC   C1B21153  14.323   8.175   3.381 -0.0080  0.0800 -0.2799
    1DIPC   D2B21154  14.169   8.346   3.816 -0.2661 -0.2703  0.2425
    1DIPC   D3B21155  14.457   8.580   3.935  0.2213 -0.1499 -0.0708
    1DIPC   C4B21156  14.765   8.646   4.186  0.0649  0.0676  0.1315
    1DIPC   NC321157   0.609  27.979   3.226 -0.1157  0.1349 -0.0944
    1DIPC   PO421158   1.101  28.016   3.134  0.0880 -0.1607  0.0716
    1DIPC   GL121159   0.974  27.894   3.539  0.0715  0.0068 -0.2984
    1DIPC   GL221160   1.309  27.758   3.681  0.0529  0.3635 -0.1039
    1DIPC   C1A21161   0.853  27.858   4.022 -0.0920 -0.1712 -0.4759
    1DIPC   D2A21162   0.863  27.790   4.381 -0.3916  0.0911 -0.5536
    1DIPC   D3A21163   0.522  27.364   4.428  0.0236  0.3073 -0.0237
    1DIPC   C4A21164   0.355  27.251   4.007  0.1773  0.3094 -0.1443
    1DIPC   C1B21165   1.392  28.122   3.867  0.0987  0.1337 -0.2681
    1DIPC   D2B21166   1.512  28.513   3.766 -0.0324  0.1955 -0.1529
    1DIPC   D3B21167   1.900  28.517   3.455 -0.3217  0.0233  0.0886
    1DIPC   C4B21168   2.267  28.375   3.716 -0.1100  0.2699 -0.1953
    1DIPC   NC321169  25.659  26.561   3.127 -0.1035 -0.2216  0.2655
    1DIPC   PO421170  25.903  26.178   3.211 -0.1547  0.0034 -0.0161
    1DIPC   GL121171  26.165  26.193   3.504 -0.1583 -0.0951 -0.2003
    1DIPC   GL221172  26.045  26.387   3.753  0.0721  0.0040 -0.1538
    1DIPC   C1A21173  26.353  25.912   3.728 -0.2094 -0.0187  0.1034
    1DIPC   D2A21174  26.535  25.773   4.217  0.1067  0.0813 -0.1395
    1DIPC   D3A21175  26.842  25.998   4.306  0.0424 -0.2091 -0.2861
    1DIPC   C4A21176  27.225  25.866   4.123 -0.1957  0.0254 -0.0283
    1DIPC   C1B21177  25.828  26.507   4.232 -0.2123  0.1037  0.3260
    1DIPC   D2B21178  25.889  26.549   4.648  0.0233  0.2509  0.0001
    1DIPC   D3B21179  25.680  26.382   5.065  0.0369  0.1252 -0.1342
    1DIPC   C4B21180  25.875  26.067   5.252  0.0132  0.2725 -0.1555
    1DIPC   NC321181  24.534  23.472   4.112 -0.2521 -0.0766 -0.1311
    1DIPC   PO421182  25.006  23.609   3.861  0.1460  0.3279  0.1946
    1DIPC   GL121183  24.916  23.601   4.360 -0.2179 -0.0848 -0.0229
    1DIPC   GL221184  24.700  23.865   4.433  0.1559 -0.0419 -0.0866
    1DIPC   C1A21185  24.728  23.558   4.832  0.0045  0.0766  0.0720
    1DIPC   D2A21186  24.608  23.760   5.260  0.2851 -0.1913 -0.0969
    1DIPC   D3A21187  24.631  24.054   4.949 -0.3851 -0.3394 -0.5740
    1DIPC   C4A21188  24.876  24.489   4.920  0.0086 -0.2648  0.0678
    1DIPC   C1B21189  24.427  24.104   4.534  0.2471 -0.0985 -0.0421
    1DIPC   D2B21190  24.211  24.232   4.919 -0.0554 -0.3100 -0.2054
    1DIPC   D3B21191  24.380  24.354   5.288 -0.1068 -0.0366  0.5072
    1DIPC   C4B21192  24.669  24.666   5.355  0.1143 -0.4729  0.2379
    1DIPC   NC321193  13.855  20.495   2.183  0.4255  0.1114 -0.2065
    1DIPC   PO421194  13.883  20.015   2.287 -0.1268  0.1796 -0.3230
    1DIPC   GL121195  13.818  19.775   2.683  0.0448 -0.3109 -0.0438
    1DIPC   GL221196  13.881  19.939   2.906  0.1246  0.2045 -0.0286
    1DIPC   C1A21197  13.487  19.628   2.960 -0.3199 -0.2212  0.0682
    1DIPC   D2A21198  13.221  19.732   3.311  0.3310 -0.3236  0.2749
    1DIPC   D3A21199  13.170  19.884   3.626 -0.3030 -0.0159  0.1503
    1DIPC   C4A21200  13.138  19.595   3.944  0.2706  0.1540  0.1627
    1DIPC   C1B21201  13.963  20.302   3.164 -0.1308 -0.1612  0.1343
    1DIPC   D2B21202  13.914  20.336   3.699  0.0668  0.2540 -0.3721
    1DIPC   D3B21203  13.998  19.870   3.896  0.0665  0.0581 -0.0634
    1DIPC   C4B21204  14.388  19.776   4.209  0.1003 -0.0467  0.1166
    1DIPC   NC321205  28.496  21.730   3.605 -0.1486  0.2591  0.1568
    1DIPC   PO421206  28.889  21.459   3.709  0.0769 -0.3439  0.0748
    1DIPC   GL121207  29.083  21.565   4.130  0.1580  0.0558 -0.1127
    1DIPC   GL221208  29.030  21.235   4.227  0.0277 -0.2844  0.0507
    1DIPC   C1A21209  28.839  21.587   4.546  0.1278 -0.1295  0.1548
    1DIPC   D2A21210  28.536  21.910   4.555 -0.0518 -0.0413 -0.1532
    1DIPC   D3A21211  28.112  22.043   4.860 -0.0524 -0.1980  0.1298
    1DIPC   C4A21212  27.912  21.636   5.127  0.4026 -0.0036 -0.0181
    1DIPC   C1B21213  29.041  21.071   4.693 -0.0519 -0.0705 -0.2853
    1DIPC   D2B21214  29.143  20.680   4.903  0.2563  0.0379  0.0150
    1DIPC   D3B21215  29.350  20.706   5.235 -0.0314 -0.0648  0.0353
    1DIPC   C4B21216   0.057  20.378   5.422  0.0391 -0.0421 -0.0930
    1DIPC   NC321217  11.210  11.859   1.895 -0.0617  0.2395 -0.0865
    1DIPC   PO421218  11.047  11.726   2.216  0.1832 -0.1129 -0.2104
    1DIPC   GL121219  11.188  11.676   2.730 -0.5039  0.1804 -0.0683
    1DIPC   GL221220  11.406  11.405   2.795  0.3741 -0.2773  0.3744
    1DIPC   C1A21221  10.974  11.821   3.161 -0.1495  0.0865 -0.0506
    1DIPC   D2A21222  10.838  11.672   3.557 -0.1772  0.1478 -0.0042
    1DIPC   D3A21223  10.989  11.952   3.939  0.0472 -0.1885  0.0792
    1DIPC   C4A21224  10.878  12.329   4.143 -0.2112 -0.0032 -0.1444
    1DIPC   C1B21225  11.552  11.067   3.130 -0.0294  0.1850 -0.4979
    1DIPC   D2B21226  11.759  10.793   3.515  0.2858  0.0679  0.0947
    1DIPC   D3B21227  11.506  10.758   3.844  0.2166 -0.1299 -0.2656
    1DIPC   C4B21228  11.312  10.392   3.778 -0.0076  0.2420  0.3024
    1DIPC   NC321229  16.928  22.407   2.906  0.0444 -0.1841  0.1549
    1DIPC   PO421230  16.732  22.854   3.197 -0.1982  0.0096 -0.1344
    1DIPC   GL121231  16.997  22.849   3.636 -0.1393 -0.0759  0.0919
    1DIPC   GL221232  16.760  22.982   3.800 -0.1504 -0.0293  0.1128
    1DIPC   C1A21233  17.139  22.634   4.053 -0.0827 -0.2493  0.0462
    1DIPC   D2A21234  16.993  22.797   4.383  0.1168  0.1014  0.0857
    1DIPC   D3A21235  16.906  22.522   4.571 -0.1145  0.1258  0.0755
    1DIPC   C4A21236  16.482  22.541   4.602 -0.0605 -0.1573 -0.0804
    1DIPC   C1B21237  16.689  23.103   4.178 -0.0514 -0.5358  0.0525
    1DIPC   D2B21238  16.923  23.217   4.568  0.2616  0.5260 -0.1061
    1DIPC   D3B21239  17.256  22.922   4.894 -0.0140  0.0532  0.0242
    1DIPC   C4B21240  17.693  22.850   5.038 -0.1265  0.1052  0.1482
    1DIPC   NC321241  28.952  20.717   4.055 -0.1512  0.2484  0.3188
    1DIPC   PO421242  28.540  20.480   3.846  0.0587 -0.1403  0.0165
    1DIPC   GL121243  28.661  20.388   4.318 -0.1148  0.0116 -0.0440
    1DIPC   GL221244  28.682  20.040   4.324  0.1393  0.0331  0.2632
    1DIPC   C1A21245  28.642  20.624   4.613  0.0009 -0.2862  0.0271
    1DIPC   D2A21246  28.692  20.590   5.062  0.0547 -0.1370 -0.1824
    1DIPC   D3A21247  28.908  20.553   5.446 -0.0750  0.0567  0.0078
    1DIPC   C4A21248  28.627  20.881   5.759 -0.0979  0.1740 -0.0253
    1DIPC   C1B21249  28.526  20.070   4.738 -0.1519 -0.4768 -0.1016
    1DIPC   D2B21250  28.516  20.089   5.202 -0.0276  0.1783 -0.1905
    1DIPC   D3B21251  28.623  19.691   5.410  0.0757  0.2422 -0.1208
    1DIPC   C4B21252  28.617  19.276   5.260  0.0104  0.0509 -0.1130
    1DIPC   NC321253  26.649   1.840   2.197  0.0176 -0.2074 -0.2488
    1DIPC   PO421254  26.823   2.129   2.511 -0.0393  0.3693 -0.2356
    1DIPC   GL121255  26.687   2.049   2.965  0.0514 -0.0725 -0.1654
    1DIPC   GL221256  26.407   2.092   3.095 -0.1021  0.0125  0.0990
    1DIPC   C1A21257  26.709   1.840   3.435 -0.0704  0.2258 -0.0024
    1DIPC   D2A21258  26.767   1.527   3.732  0.0430 -0.0418 -0.2158
    1DIPC   D3A21259  27.000   1.214   3.840 -0.1429  0.2530 -0.3782
    1DIPC   C4A21260  27.454   1.143   3.792 -0.0124 -0.0119  0.0677
    1DIPC   C1B21261  26.465   2.337   3.297  0.0073  0.2868 -0.1646
    1DIPC   D2B21262  26.407   2.544   3.748 -0.1907 -0.2613  0.1102
    1DIPC   D3B21263  26.560   2.929   3.643  0.1396  0.1230  0.4141
    1DIPC   C4B21264  26.485   3.333   3.847 -0.0112 -0.1540  0.0300
    1DIPC   NC321265  28.602  15.258   2.968  0.1480 -0.1292 -0.0708
    1DIPC   PO421266  28.957  15.544   2.832 -0.1235 -0.1199 -0.0812
    1DIPC   GL121267  28.899  15.498   3.258 -0.0583  0.2288 -0.0072
    1DIPC   GL221268  28.608  15.410   3.445 -0.2785  0.1774 -0.0189
    1DIPC   C1A21269  29.078  15.649   3.695 -0.1642  0.0142 -0.2818
    1DIPC   D2A21270  29.072  15.702   4.086  0.0449 -0.2870 -0.1684
    1DIPC   D3A21271  28.949  15.550   4.463  0.1437 -0.0191 -0.4591
    1DIPC   C4A21272  28.624  15.352   4.492 -0.1921  0.0123 -0.0510
    1DIPC   C1B21273  28.331  15.688   3.503  0.4060 -0.1149 -0.0786
    1DIPC   D2B21274  28.083  15.765   3.853  0.3018  0.0367 -0.0675
    1DIPC   D3B21275  28.277  15.557   4.107  0.1592 -0.1852 -0.0358
    1DIPC   C4B21276  28.733  15.403   3.970  0.0575 -0.2626 -0.2200
    1DIPC   NC321277   9.109  16.913   2.627  0.0314  0.0660  0.3772
    1DIPC   PO421278   8.844  16.454   2.517  0.0138  0.0973 -0.1142
    1DIPC   GL121279   9.100  16.507   2.942  0.1079 -0.1266 -0.1629
    1DIPC   GL221280   9.213  16.217   3.194  0.1164  0.1935  0.1403
    1DIPC   C1A21281   9.022  16.789   3.240  0.0436 -0.1544  0.1050
    1DIPC   D2A21282   8.776  17.242   3.427 -0.1404 -0.1384  0.0764
    1DIPC   D3A21283   9.185  17.370   3.518  0.4130 -0.1860 -0.1127
    1DIPC   C4A21284   9.406  17.734   3.439  0.0723 -0.0736  0.2563
    1DIPC   C1B21285   8.904  16.003   3.272 -0.0391 -0.1668 -0.0668
    1DIPC   D2B21286   8.927  15.666   3.383 -0.1128 -0.0340 -0.0557
    1DIPC   D3B21287   8.548  15.591   3.317  0.0789 -0.1880 -0.1158
    1DIPC   C4B21288   8.289  15.790   3.613 -0.1525  0.2239 -0.0071
    1DIPC   NC321289   8.920  12.103   1.889  0.2074 -0.0505  0.0426
    1DIPC   PO421290   8.908  11.763   2.175  0.0501 -0.2458  0.0574
    1DIPC   GL121291   8.758  11.777   2.531 -0.1760  0.3371 -0.1848
    1DIPC   GL221292   8.720  11.739   2.860 -0.2299 -0.0778 -0.0943
    1DIPC   C1A21293   8.664  12.204   2.783  0.2398 -0.3223  0.0919
    1DIPC   D2A21294   8.681  12.643   2.977 -0.0176  0.1504 -0.2216
    1DIPC   D3A21295   8.536  12.327   3.243 -0.1412  0.2643  0.1343
    1DIPC   C4A21296   8.275  12.274   3.630 -0.0066 -0.1923  0.1766
    1DIPC   C1B21297   8.791  11.861   3.233  0.2100 -0.2036  0.2845
    1DIPC   D2B21298   8.996  11.966   3.448 -0.2440 -0.1860 -0.0919
    1DIPC   D3B21299   8.894  12.293   3.660 -0.1184  0.1287 -0.2266
    1DIPC   C4B21300   8.568  12.272   4.075 -0.0295 -0.1058  0.1601
    1DIPC   NC321301  10.837  17.949   2.651 -0.1910  0.3131  0.1535
    1DIPC   PO421302  10.578  18.115   2.297  0.0068 -0.0430  0.0311
    1DIPC   GL121303  10.386  18.211   2.690  0.0252  0.0548 -0.0677
    1DIPC   GL221304  10.554  18.157   2.972  0.0700 -0.1489 -0.0611
    1DIPC   C1A21305  10.108  17.901   2.980  0.0352  0.1057  0.3107
    1DIPC   D2A21306   9.740  17.607   3.110 -0.1039  0.0374 -0.0319
    1DIPC   D3A21307   9.961  17.678   3.419 -0.0370 -0.2031  0.0882
    1DIPC   C4A21308   9.801  17.886   3.708 -0.1598  0.3222 -0.0831
    1DIPC   C1B21309  10.523  18.270   3.376  0.0335 -0.0448  0.1705
    1DIPC   D2B21310  10.633  18.315   3.781  0.0328 -0.1841 -0.0512
    1DIPC   D3B21311  10.532  18.591   4.036 -0.0271 -0.0903 -0.3423
    1DIPC   C4B21312  10.944  18.830   4.296 -0.4296 -0.1628  0.0947
    1DIPC   NC321313   8.945  28.656   2.050 -0.1141 -0.1883  0.1712
    1DIPC   PO421314   8.609  28.799   2.304  0.2297 -0.3944  0.0908
    1DIPC   GL121315   8.443  28.885   2.769  0.1747 -0.2621 -0.1648
    1DIPC   GL221316   8.132  28.794   2.912 -0.1191  0.1636  0.3579
    1DIPC   C1A21317   8.320  29.229   2.975  0.2246 -0.0269 -0.0531
    1DIPC   D2A21318   8.038  29.406   3.335 -0.2629  0.0176  0.1667
    1DIPC   D3A21319   8.273  29.180   3.560 -0.0182 -0.1018  0.1894
    1DIPC   C4A21320   8.088  29.023   3.957  0.3662  0.1778 -0.5139
    1DIPC   C1B21321   7.893  28.908   3.224  0.0944 -0.2247  0.1828
    1DIPC   D2B21322   7.791  29.055   3.578  0.0857  0.1948 -0.0557
    1DIPC   D3B21323   7.889  29.448   3.828  0.1602  0.0431 -0.1939
    1DIPC   C4B21324   8.240  29.464   4.168 -0.1893  0.2023  0.0906
    1DIPC   NC321325  15.124  19.111   2.640  0.0485 -0.0278 -0.3052
    1DIPC   PO421326  14.560  19.203   2.517  0.0311  0.2745 -0.3165
    1DIPC   GL121327  14.538  19.392   2.908  0.0315 -0.0810  0.1088
    1DIPC   GL221328  14.303  19.573   2.908  0.0456 -0.5294 -0.2240
    1DIPC   C1A21329  14.395  19.307   3.319  0.2583 -0.1353 -0.1727
    1DIPC   D2A21330  14.088  19.433   3.635  0.0079  0.0639  0.2306
    1DIPC   D3A21331  14.428  19.561   3.747 -0.1825 -0.0150 -0.1876
    1DIPC   C4A21332  14.780  19.504   3.518 -0.2300  0.2176 -0.0846
    1DIPC   C1B21333  14.123  19.783   3.306  0.2943 -0.1161 -0.1365
    1DIPC   D2B21334  13.700  19.926   3.487 -0.0735  0.2500  0.1806
    1DIPC   D3B21335  13.511  20.043   3.943  0.2928  0.1285  0.1213
    1DIPC   C4B21336  12.990  20.105   4.096 -0.2391  0.1646 -0.1410
    1DIPC   NC321337   1.030  18.348   2.841 -0.0203  0.2062 -0.0141
    1DIPC   PO421338   0.611  18.385   3.220 -0.0463  0.0131 -0.0317
    1DIPC   GL121339   0.336  18.200   3.616 -0.0754 -0.0074  0.4652
    1DIPC   GL221340   0.042  18.304   3.674 -0.2071  0.0326 -0.0796
    1DIPC   C1A21341   0.400  18.201   4.128  0.1006  0.4761  0.1533
    1DIPC   D2A21342   0.415  18.446   4.478  0.3653  0.2068  0.1041
    1DIPC   D3A21343   0.493  18.078   4.757 -0.0614  0.1185  0.2325
    1DIPC   C4A21344   0.113  17.811   4.884 -0.1780  0.1483 -0.3497
    1DIPC   C1B21345   0.038  17.931   3.922  0.2172  0.0012  0.1735
    1DIPC   D2B21346  29.411  17.799   4.134 -0.0747  0.0332  0.3804
    1DIPC   D3B21347  29.486  17.595   4.539  0.2710  0.1630  0.1425
    1DIPC   C4B21348  29.525  17.111   4.708  0.0492 -0.3704 -0.2127
    1DIPC   NC321349   1.787   0.693   2.510 -0.0265  0.1514 -0.1891
    1DIPC   PO421350   1.619   0.767   2.961 -0.1083 -0.0501 -0.3911
    1DIPC   GL121351   1.533   0.776   3.403 -0.1844  0.0274 -0.0142
    1DIPC   GL221352   1.501   1.197   3.558  0.3124 -0.1689 -0.2500
    1DIPC   C1A21353   1.570   0.758   3.808  0.2731  0.3008 -0.3566
    1DIPC   D2A21354   1.275   0.737   4.124  0.1231 -0.0122  0.1458
    1DIPC   D3A21355   1.577   0.383   4.299 -0.2823  0.0999 -0.2407
    1DIPC   C4A21356   1.273   0.046   4.324  0.1057  0.0947 -0.0294
    1DIPC   C1B21357   1.841   1.192   3.702  0.0416 -0.3299 -0.0468
    1DIPC   D2B21358   2.068   0.826   3.708  0.1296  0.2303  0.1248
    1DIPC   D3B21359   2.334   0.783   4.074 -0.0207 -0.0026 -0.2778
    1DIPC   C4B21360   2.156   0.572   4.316  0.1648 -0.0813  0.1255
    1DIPC   NC321361   4.419  21.992   3.132  0.0257 -0.0629  0.0090
    1DIPC   PO421362   4.002  22.082   3.320 -0.2049 -0.0834 -0.2263
    1DIPC   GL121363   4.177  21.736   3.574 -0.1455  0.0665  0.1094
    1DIPC   GL221364   4.445  21.804   3.606  0.2013  0.2298 -0.1617
    1DIPC   C1A21365   4.304  21.257   3.761 -0.2657 -0.0125  0.0469
    1DIPC   D2A21366   4.446  20.925   4.008  0.1089  0.0588  0.3240
    1DIPC   D3A21367   4.744  20.774   4.268 -0.1631  0.1499 -0.0711
    1DIPC   C4A21368   5.088  20.473   4.135 -0.2210  0.0148 -0.1013
    1DIPC   C1B21369   4.619  21.606   3.899  0.0881 -0.6801 -0.1891
    1DIPC   D2B21370   4.887  21.269   4.039 -0.0331 -0.0190  0.1120
    1DIPC   D3B21371   5.162  21.438   4.362 -0.0914 -0.3756 -0.0634
    1DIPC   C4B21372   5.389  21.450   4.727 -0.2954  0.2000  0.0360
    1DIPC   NC321373  19.678  27.035   3.814  0.3027  0.0556 -0.0592
    1DIPC   PO421374  19.440  26.759   4.006  0.2290 -0.0798  0.1423
    1DIPC   GL121375  19.453  26.618   4.442 -0.2707 -0.1572  0.2137
    1DIPC   GL221376  19.207  26.659   4.555 -0.1116 -0.0881  0.3553
    1DIPC   C1A21377  19.696  26.666   4.843 -0.3430  0.3123 -0.0797
    1DIPC   D2A21378  19.845  26.632   5.225  0.0370  0.1822  0.3181
    1DIPC   D3A21379  19.822  26.176   5.091 -0.1807  0.2975 -0.1788
    1DIPC   C4A21380  19.755  25.916   5.433  0.1220  0.0905  0.0183
    1DIPC   C1B21381  18.969  26.494   4.905 -0.1141  0.0318 -0.2453
    1DIPC   D2B21382  18.605  26.436   5.150  0.0264 -0.0211 -0.0233
    1DIPC   D3B21383  18.925  26.213   5.430  0.1939 -0.1541 -0.1653
    1DIPC   C4B21384  19.383  26.288   5.300  0.0488 -0.1929 -0.2120
    1DIPC   NC321385   6.642  18.765   3.041 -0.1100  0.1786  0.1646
    1DIPC   PO421386   6.304  19.055   2.955 -0.0895  0.0208 -0.1991
    1DIPC   GL121387   6.212  18.906   3.380  0.0902 -0.0320 -0.2234
    1DIPC   GL221388   6.516  18.992   3.563 -0.2550  0.2226 -0.2567
    1DIPC   C1A21389   5.870  18.798   3.532  0.3610  0.1170  0.1523
    1DIPC   D2A21390   5.345  18.957   3.683 -0.2187 -0.0313 -0.0520
    1DIPC   D3A21391   5.190  18.740   4.082  0.0850 -0.0615  0.0032
    1DIPC   C4A21392   5.339  18.530   4.419 -0.0600 -0.3290  0.1548
    1DIPC   C1B21393   6.628  19.270   3.930 -0.0162  0.1011 -0.1440
    1DIPC   D2B21394   6.773  19.204   4.289  0.2909 -0.0708  0.0036
    1DIPC   D3B21395   6.356  18.957   4.374 -0.2209 -0.2856  0.0822
    1DIPC   C4B21396   6.382  18.865   4.840 -0.3026 -0.0712 -0.2389
    1DIPC   NC321397   9.696  29.445   2.739  0.0622  0.0054 -0.5186
    1DIPC   PO421398   9.516  28.904   2.764  0.0561 -0.3170  0.0893
    1DIPC   GL121399   9.585  28.992   3.180 -0.1526 -0.0325 -0.0468
    1DIPC   GL221400   9.814  28.694   3.317 -0.0967 -0.0455  0.2426
    1DIPC   C1A21401   9.755  29.346   3.423  0.1215 -0.3284  0.0001
    1DIPC   D2A21402  10.091  29.491   3.667 -0.0228  0.1431 -0.2999
    1DIPC   D3A21403   9.825  29.626   3.981 -0.1791 -0.3143 -0.0975
    1DIPC   C4A21404   9.865   0.342   4.208 -0.1320 -0.0169 -0.0485
    1DIPC   C1B21405   9.960  28.946   3.693  0.0195 -0.2305  0.2616
    1DIPC   D2B21406  10.047  29.137   4.074 -0.0658  0.0051 -0.2394
    1DIPC   D3B21407  10.023  28.719   4.289  0.1496  0.2162  0.0435
    1DIPC   C4B21408  10.368  28.899   4.535 -0.0714  0.4767  0.0127
    1DIPC   NC321409   5.954   8.324   2.074  0.1912  0.1117 -0.1485
    1DIPC   PO421410   6.183   7.947   2.171  0.0047  0.2566  0.0888
    1DIPC   GL121411   6.179   8.081   2.577 -0.0550 -0.0727  0.0422
    1DIPC   GL221412   5.960   8.277   2.584 -0.0504 -0.0958  0.0025
    1DIPC   C1A21413   6.188   8.479   2.993  0.4564  0.2177 -0.2410
    1DIPC   D2A21414   6.104   8.731   3.339 -0.0072 -0.1817 -0.1968
    1DIPC   D3A21415   5.768   8.761   3.650 -0.1345 -0.0848  0.0231
    1DIPC   C4A21416   5.635   9.124   4.004 -0.2851 -0.3840 -0.3484
    1DIPC   C1B21417   6.319   8.645   2.477  0.1100 -0.1621  0.1369
    1DIPC   D2B21418   6.696   8.898   2.441 -0.1631 -0.2448  0.0746
    1DIPC   D3B21419   6.885   9.256   2.677  0.1900 -0.1847 -0.0548
    1DIPC   C4B21420   6.735   9.410   2.913  0.0390  0.0616 -0.2511
    1DIPC   NC321421  14.565   9.276   2.502  0.0816  0.0755  0.4866
    1DIPC   PO421422  14.126   9.359   2.654  0.1815  0.2265 -0.2512
    1DIPC   GL121423  14.352   9.296   2.974 -0.1561  0.1419 -0.1619
    1DIPC   GL221424  14.514   9.519   3.191  0.1523  0.1429 -0.1066
    1DIPC   C1A21425  14.593   9.017   3.309  0.0060 -0.2647 -0.0240
    1DIPC   D2A21426  14.709   9.043   3.775 -0.0060  0.0945 -0.1288
    1DIPC   D3A21427  14.499   9.151   4.298  0.3434  0.2456 -0.0514
    1DIPC   C4A21428  14.565   9.590   4.463 -0.1001  0.2312  0.0988
    1DIPC   C1B21429  14.529   9.579   3.649  0.2310 -0.1082 -0.1306
    1DIPC   D2B21430  14.782   9.566   4.009 -0.2560 -0.0213 -0.1636
    1DIPC   D3B21431  14.244   9.538   4.042 -0.2027  0.1503 -0.1196
    1DIPC   C4B21432  14.088   9.415   4.458 -0.2940 -0.0589 -0.1252
    1DIPC   NC321433  28.294  24.353   3.091 -0.3389 -0.2658 -0.1138
    1DIPC   PO421434  28.199  24.777   2.999 -0.0235  0.1441 -0.1547
    1DIPC   GL121435  28.459  24.788   3.442  0.0308  0.1453  0.0665
    1DIPC   GL221436  28.346  24.546   3.783  0.0768  0.0760 -0.1049
    1DIPC   C1A21437  28.845  24.631   3.731 -0.1620 -0.2293 -0.0791
    1DIPC   D2A21438  29.185  24.552   4.025  0.1836 -0.2002 -0.0321
    1DIPC   D3A21439  29.375  24.666   4.422 -0.3759  0.2882  0.0060
    1DIPC   C4A21440  29.175  24.661   4.843  0.1733  0.2891 -0.3484
    1DIPC   C1B21441  28.546  24.476   4.195 -0.0296 -0.0640  0.0099
    1DIPC   D2B21442  28.923  24.395   4.477  0.0370 -0.1469  0.1430
    1DIPC   D3B21443  29.144  24.099   4.788 -0.1266  0.0439  0.2971
    1DIPC   C4B21444  29.063  24.232   5.168 -0.1690  0.3271 -0.0813
    1DIPC   NC321445  16.530   2.234   2.111  0.2882 -0.2291 -0.4133
    1DIPC   PO421446  16.349   2.032   2.561 -0.4065  0.2125 -0.0939
    1DIPC   GL121447  16.219   1.782   3.030 -0.1117  0.1168  0.3847
    1DIPC   GL221448  15.975   1.990   3.204  0.2148 -0.4201  0.1956
    1DIPC   C1A21449  16.244   1.597   3.435 -0.0493  0.1190 -0.0682
    1DIPC   D2A21450  16.210   1.658   3.880  0.0564  0.0162  0.2095
    1DIPC   D3A21451  16.371   1.649   4.300  0.1768  0.1162 -0.0128
    1DIPC   C4A21452  16.097   1.803   4.618  0.1292 -0.0055  0.0569
    1DIPC   C1B21453  15.759   1.793   3.535  0.3954 -0.0577  0.1660
    1DIPC   D2B21454  15.510   1.853   3.833 -0.0024  0.2602  0.3246
    1DIPC   D3B21455  15.631   2.174   4.099 -0.0059  0.2028  0.3884
    1DIPC   C4B21456  15.524   2.071   4.544  0.1154 -0.1346 -0.0200
    1DIPC   NC321457  25.551   1.902   2.805 -0.0972 -0.0800  0.0683
    1DIPC   PO421458  25.400   1.710   3.178 -0.2301  0.4346 -0.1891
    1DIPC   GL121459  25.348   1.952   3.541  0.2616 -0.3177  0.0478
    1DIPC   GL221460  25.317   1.678   3.787 -0.2903 -0.0424 -0.0987
    1DIPC   C1A21461  25.575   2.334   3.764 -0.0685 -0.0659 -0.1137
    1DIPC   D2A21462  25.572   2.748   3.913 -0.0723  0.1770 -0.1195
    1DIPC   D3A21463  25.616   2.777   3.445  0.1420 -0.2938 -0.0189
    1DIPC   C4A21464  25.355   2.418   3.340  0.2825  0.1815  0.1748
    1DIPC   C1B21465  25.683   1.902   4.030  0.2902 -0.1023  0.0449
    1DIPC   D2B21466  25.687   2.267   4.318  0.1927 -0.1335 -0.1693
    1DIPC   D3B21467  25.956   2.596   4.219 -0.2548 -0.0143  0.2584
    1DIPC   C4B21468  26.110   2.641   4.525 -0.2854 -0.1362 -0.0745
    1DIPC   NC321469   9.289  20.083   2.468 -0.0015 -0.5385  0.3372
    1DIPC   PO421470   9.595  19.788   2.848 -0.0685  0.2505 -0.1203
    1DIPC   GL121471   9.679  19.615   3.195 -0.0383 -0.2068 -0.2161
    1DIPC   GL221472   9.570  19.333   3.223 -0.0593 -0.1517  0.1290
    1DIPC   C1A21473   9.878  19.463   3.555 -0.2197  0.1170 -0.1976
    1DIPC   D2A21474   9.995  19.661   3.963 -0.1581 -0.1896  0.0054
    1DIPC   D3A21475  10.371  19.568   4.152  0.2879 -0.5735  0.0408
    1DIPC   C4A21476  10.474  19.128   4.189 -0.1121  0.0365  0.1287
    1DIPC   C1B21477   9.221  19.416   3.509  0.2034  0.1981 -0.2560
    1DIPC   D2B21478   9.108  19.508   3.965  0.0654  0.1263 -0.1218
    1DIPC   D3B21479   9.237  19.492   4.373  0.1934  0.2726  0.0168
    1DIPC   C4B21480   8.890  19.618   4.507  0.0855  0.1629 -0.0797
    1DIPC   NC321481  16.680   4.995   2.615 -0.0482  0.0266 -0.1028
    1DIPC   PO421482  16.422   4.712   2.483 -0.1595  0.0536 -0.2508
    1DIPC   GL121483  16.263   4.604   2.949  0.0081  0.2132 -0.1371
    1DIPC   GL221484  16.187   4.197   2.904  0.3568  0.1176 -0.2357
    1DIPC   C1A21485  16.337   4.523   3.379 -0.0164 -0.0887  0.2491
    1DIPC   D2A21486  16.364   4.852   3.625 -0.5373  0.0377 -0.1087
    1DIPC   D3A21487  16.076   4.538   3.938  0.1442 -0.0458 -0.0398
    1DIPC   C4A21488  16.061   4.670   4.311  0.1306  0.0338  0.5215
    1DIPC   C1B21489  16.570   4.163   3.114  0.2115  0.3292  0.1138
    1DIPC   D2B21490  17.018   4.057   3.107 -0.3262  0.3448 -0.1637
    1DIPC   D3B21491  16.816   3.947   3.470 -0.1110  0.1577 -0.0278
    1DIPC   C4B21492  16.643   4.377   3.741  0.2773 -0.1407 -0.1784
    1DIPC   NC321493   8.316  12.992   2.599  0.1494 -0.0657 -0.0267
    1DIPC   PO421494   8.276  13.359   2.585  0.1643 -0.1978 -0.0458
    1DIPC   GL121495   8.012  13.367   2.879 -0.0576  0.0702 -0.0180
    1DIPC   GL221496   8.220  13.125   3.070  0.0293 -0.1020  0.1904
    1DIPC   C1A21497   7.897  13.403   3.277  0.3123 -0.1262  0.3014
    1DIPC   D2A21498   7.749  13.481   3.739 -0.0423 -0.4126 -0.0379
    1DIPC   D3A21499   7.812  13.896   3.516 -0.0672 -0.0007 -0.2643
    1DIPC   C4A21500   8.048  14.119   3.796  0.0906 -0.3119 -0.0131
    1DIPC   C1B21501   7.889  12.892   3.139 -0.1286  0.0874  0.0411
    1DIPC   D2B21502   7.527  12.727   3.302  0.0167  0.3132 -0.2394
    1DIPC   D3B21503   7.719  12.424   3.650 -0.2377 -0.1656 -0.0985
    1DIPC   C4B21504   7.600  12.032   3.796  0.0312  0.0460 -0.0662
    1DIPC   NC321505  29.472  27.634   3.239 -0.0919 -0.1958 -0.0986
    1DIPC   PO421506   0.255  27.398   3.204  0.0197  0.0092  0.1856
    1DIPC   GL121507   0.357  26.928   3.282 -0.2495 -0.1863 -0.1617
    1DIPC   GL221508   0.553  26.981   3.623 -0.0631 -0.0328  0.0019
    1DIPC   C1A21509   0.179  26.637   3.532  0.2475  0.0140  0.2924
    1DIPC   D2A21510  29.358  26.417   3.527  0.0180 -0.0015 -0.2944
    1DIPC   D3A21511  29.306  26.764   3.784 -0.0060 -0.2505 -0.0868
    1DIPC   C4A21512   0.121  26.803   4.060 -0.1411  0.1775 -0.1079
    1DIPC   C1B21513   0.654  26.879   4.009  0.0156 -0.1873  0.1451
    1DIPC   D2B21514   0.910  26.741   4.286 -0.1138 -0.1226  0.0165
    1DIPC   D3B21515   1.306  27.017   4.080  0.0117 -0.0721  0.1005
    1DIPC   C4B21516   1.662  26.946   4.256 -0.2407 -0.0342  0.2117
    1DIPC   NC321517   8.566  19.174   2.998 -0.1894  0.1092  0.0898
    1DIPC   PO421518   8.247  19.611   2.934 -0.2994  0.0898 -0.0804
    1DIPC   GL121519   8.540  19.719   3.373  0.0259  0.0788  0.2335
    1DIPC   GL221520   8.539  19.410   3.473  0.4583 -0.1023  0.2941
    1DIPC   C1A21521   8.825  19.752   3.610  0.2114 -0.1446 -0.0028
    1DIPC   D2A21522   8.828  19.928   4.053 -0.3071  0.0281  0.4156
    1DIPC   D3A21523   8.956  20.307   4.182 -0.2374  0.3387 -0.2048
    1DIPC   C4A21524   8.590  20.486   4.342 -0.1749 -0.0467 -0.3719
    1DIPC   C1B21525   8.877  19.064   3.558 -0.0013 -0.0640  0.1735
    1DIPC   D2B21526   9.300  19.071   3.857  0.1639  0.3833  0.2398
    1DIPC   D3B21527   9.579  19.386   3.954 -0.0068  0.1608 -0.0428
    1DIPC   C4B21528   9.936  19.178   4.053 -0.2671  0.4949  0.1140
    1DIPC   NC321529  17.049   0.764   2.834  0.0313 -0.1364 -0.0046
    1DIPC   PO421530  17.134   1.113   2.572 -0.2523  0.1734 -0.1194
    1DIPC   GL121531  17.164   1.224   3.054 -0.2580 -0.0981 -0.1663
    1DIPC   GL221532  17.245   1.535   3.152  0.2450  0.0494 -0.1378
    1DIPC   C1A21533  17.131   1.114   3.436  0.1321 -0.2250  0.2618
    1DIPC   D2A21534  17.155   0.783   3.609 -0.2573 -0.0908  0.1592
    1DIPC   D3A21535  16.851   0.622   3.772 -0.1599  0.4237 -0.1683
    1DIPC   C4A21536  16.467   0.338   4.017  0.0099  0.0566  0.0775
    1DIPC   C1B21537  17.197   1.676   3.546 -0.1996 -0.3112 -0.3499
    1DIPC   D2B21538  17.414   1.733   3.897  0.1369 -0.2855  0.0828
    1DIPC   D3B21539  16.972   1.677   4.102 -0.2192  0.0012 -0.0673
    1DIPC   C4B21540  16.700   1.524   3.778 -0.1550 -0.1430 -0.2684
    1DIPC   NC321541  11.820   0.703   2.662 -0.1619 -0.3062  0.1449
    1DIPC   PO421542  11.566   1.089   2.357  0.1109  0.0260 -0.0400
    1DIPC   GL121543  11.490   0.954   2.905 -0.3110 -0.0636 -0.2148
    1DIPC   GL221544  11.610   0.884   3.189 -0.0082  0.0305  0.1533
    1DIPC   C1A21545  11.101   0.908   3.030  0.0726  0.0648  0.2386
    1DIPC   D2A21546  10.758   1.168   3.153 -0.0505  0.1999 -0.1141
    1DIPC   D3A21547  10.540   1.257   3.584  0.0048 -0.3144 -0.1893
    1DIPC   C4A21548  10.410   1.043   3.900  0.4204 -0.0386 -0.1287
    1DIPC   C1B21549  11.821   0.734   3.574  0.1166 -0.1272 -0.3390
    1DIPC   D2B21550  12.035   0.816   3.977  0.3700  0.1228  0.2712
    1DIPC   D3B21551  11.947   0.661   4.482  0.0856  0.2086  0.0186
    1DIPC   C4B21552  12.192   0.318   4.615  0.1251 -0.1689  0.0691
    1DIPC   NC321553   1.035  17.896   2.641 -0.0770  0.0509 -0.3158
    1DIPC   PO421554   1.303  17.881   2.997  0.2079  0.1205 -0.1062
    1DIPC   GL121555   1.457  17.498   3.279 -0.1161 -0.2058  0.2218
    1DIPC   GL221556   1.238  17.311   3.399 -0.0761 -0.0912  0.1387
    1DIPC   C1A21557   1.662  17.391   3.724 -0.2556  0.1817 -0.1225
    1DIPC   D2A21558   1.853  17.281   4.139  0.3582  0.3285 -0.0070
    1DIPC   D3A21559   1.887  17.646   4.364 -0.0649  0.0728  0.2708
    1DIPC   C4A21560   1.700  17.596   4.777  0.1820 -0.0727  0.1794
    1DIPC   C1B21561   1.117  17.711   3.610 -0.0622  0.3071 -0.0836
    1DIPC   D2B21562   0.773  18.021   3.813 -0.0270  0.0475  0.0470
    1DIPC   D3B21563   1.139  18.132   3.942  0.2368  0.1325 -0.0556
    1DIPC   C4B21564   1.498  17.832   3.996  0.0854 -0.3349 -0.1589
    1DIPC   NC321565  16.185   6.326   2.592  0.4122 -0.0262 -0.0141
    1DIPC   PO421566  16.640   6.375   2.809  0.0361 -0.1185  0.0618
    1DIPC   GL121567  16.739   6.521   3.198 -0.0706 -0.2125  0.0993
    1DIPC   GL221568  16.629   6.827   3.199 -0.0292  0.1978  0.0848
    1DIPC   C1A21569  16.480   6.473   3.599  0.1713  0.1668 -0.2660
    1DIPC   D2A21570  16.516   6.277   4.053 -0.4098  0.3257  0.2447
    1DIPC   D3A21571  16.822   6.307   4.317 -0.0373  0.1619 -0.3638
    1DIPC   C4A21572  17.148   6.511   4.456  0.1967  0.0971  0.2203
    1DIPC   C1B21573  16.758   6.970   3.624 -0.1965 -0.0431  0.6756
    1DIPC   D2B21574  16.600   7.236   3.837  0.0822 -0.0692 -0.1774
    1DIPC   D3B21575  16.680   7.489   4.126 -0.1276  0.5453 -0.4526
    1DIPC   C4B21576  16.999   7.293   4.328 -0.2062 -0.0974  0.1772
    1DIPC   NC321577   9.820   4.745   2.029 -0.2182 -0.1729 -0.0584
    1DIPC   PO421578   9.537   4.944   2.181  0.2109  0.1699 -0.2624
    1DIPC   GL121579   9.534   4.811   2.640 -0.1366  0.1148  0.2251
    1DIPC   GL221580   9.381   4.521   2.775  0.1381  0.0298 -0.2596
    1DIPC   C1A21581   9.450   4.923   3.103  0.0811 -0.1560 -0.0601
    1DIPC   D2A21582   9.508   4.837   3.562  0.1563 -0.0174 -0.1498
    1DIPC   D3A21583   9.687   5.335   3.747 -0.3775  0.1896  0.0093
    1DIPC   C4A21584   9.865   5.492   4.066 -0.0432 -0.3578  0.1075
    1DIPC   C1B21585   9.003   4.501   2.940  0.1704 -0.0045 -0.0519
    1DIPC   D2B21586   8.648   4.641   3.169  0.2074  0.3332  0.2804
    1DIPC   D3B21587   8.753   4.280   3.349 -0.0987 -0.1661  0.1334
    1DIPC   C4B21588   8.726   4.025   3.687 -0.2614 -0.2124  0.1333
    1DIPC   NC321589   6.710   6.415   1.880 -0.2102 -0.3680  0.1095
    1DIPC   PO421590   6.649   6.284   2.292  0.3810  0.0688 -0.2723
    1DIPC   GL121591   6.802   6.354   2.713 -0.2374 -0.2028  0.0119
    1DIPC   GL221592   6.871   5.951   2.739  0.1761  0.1195 -0.0411
    1DIPC   C1A21593   6.951   6.355   3.084 -0.4976  0.1457 -0.1156
    1DIPC   D2A21594   6.919   6.692   3.484 -0.0103 -0.0539 -0.2235
    1DIPC   D3A21595   7.054   6.512   3.890 -0.3665  0.0401 -0.4156
    1DIPC   C4A21596   7.368   6.598   4.225  0.2017  0.2239  0.2071
    1DIPC   C1B21597   6.561   5.730   2.950  0.4144 -0.1342  0.0731
    1DIPC   D2B21598   6.456   5.652   3.401  0.0625  0.2122 -0.2715
    1DIPC   D3B21599   6.389   5.205   3.603  0.0328  0.3776 -0.0249
    1DIPC   C4B21600   6.078   5.127   3.918  0.0849 -0.0111 -0.1831
    1DIPC   NC321601  26.616  20.519   3.443  0.2343 -0.0674  0.4504
    1DIPC   PO421602  26.843  20.906   3.696  0.1349 -0.2924 -0.1557
    1DIPC   GL121603  26.725  20.605   3.946  0.1203 -0.1340 -0.0864
    1DIPC   GL221604  26.638  20.262   3.874  0.1100  0.2811  0.0157
    1DIPC   C1A21605  26.972  20.358   4.275  0.0756  0.1337 -0.2002
    1DIPC   D2A21606  27.144  20.477   4.677 -0.1260  0.0174 -0.0662
    1DIPC   D3A21607  26.875  20.474   4.988  0.1795  0.3158 -0.2594
    1DIPC   C4A21608  26.428  20.405   5.113 -0.3108  0.1795  0.0751
    1DIPC   C1B21609  26.390  20.355   4.207 -0.1524  0.0820  0.1840
    1DIPC   D2B21610  26.528  20.726   4.429 -0.0019  0.0138 -0.2537
    1DIPC   D3B21611  26.278  20.615   4.726 -0.1292  0.1023 -0.0034
    1DIPC   C4B21612  26.049  20.229   4.805 -0.0098 -0.1581  0.2667
    1DIPC   NC321613  29.620  19.054   3.684 -0.0913 -0.1140 -0.0955
    1DIPC   PO421614   0.306  19.241   3.408  0.0548  0.1549  0.0953
    1DIPC   GL121615   0.453  19.297   3.804 -0.4305  0.1170  0.0537
    1DIPC   GL221616   0.444  19.021   3.951 -0.2204  0.0076 -0.2046
    1DIPC   C1A21617   0.943  19.174   3.941  0.2287 -0.1027  0.1537
    1DIPC   D2A21618   1.209  19.018   4.397 -0.1595  0.2911  0.2607
    1DIPC   D3A21619   0.725  18.789   4.267 -0.1378 -0.1985 -0.0208
    1DIPC   C4A21620   0.632  18.523   3.861  0.0857  0.2403  0.1316
    1DIPC   C1B21621   0.187  19.056   4.431 -0.2043  0.3977 -0.0348
    1DIPC   D2B21622   0.194  19.154   4.878 -0.0221 -0.0768  0.1934
    1DIPC   D3B21623   0.193  18.968   5.293  0.2000 -0.0715  0.0383
    1DIPC   C4B21624  29.377  18.978   5.444 -0.3631  0.0756  0.0980
    1DIPC   NC321625   5.710   0.905   2.748  0.1357 -0.1882 -0.0644
    1DIPC   PO421626   6.041   1.048   2.741  0.2525  0.1393  0.0134
    1DIPC   GL121627   6.213   0.906   3.112  0.1588 -0.3769  0.4220
    1DIPC   GL221628   6.050   0.558   3.108 -0.3525  0.1597  0.2494
    1DIPC   C1A21629   6.450   0.755   3.407 -0.2293  0.0185  0.0523
    1DIPC   D2A21630   6.745   0.694   3.771 -0.1394 -0.4466 -0.2281
    1DIPC   D3A21631   6.600   1.001   3.967  0.0570 -0.3302 -0.1266
    1DIPC   C4A21632   6.608   1.254   4.319  0.0783  0.0814 -0.1959
    1DIPC   C1B21633   6.260   0.286   3.381  0.3498  0.1456 -0.1745
    1DIPC   D2B21634   6.451   0.236   3.694  0.0939  0.2226  0.1309
    1DIPC   D3B21635   6.421  29.569   3.976 -0.1152 -0.3151  0.0606
    1DIPC   C4B21636   6.308  29.605   4.399 -0.1380  0.0953 -0.0695
    1DIPC   NC321637  19.478  20.556   3.129 -0.0389 -0.0919  0.3084
    1DIPC   PO421638  19.702  20.909   3.393 -0.0400  0.3172  0.0073
    1DIPC   GL121639  19.629  20.774   3.820  0.1432  0.2151  0.2231
    1DIPC   GL221640  19.768  20.723   4.004  0.0431  0.2759 -0.0497
    1DIPC   C1A21641  19.348  20.863   4.186  0.3002 -0.0696 -0.1898
    1DIPC   D2A21642  19.246  20.693   4.531 -0.0682  0.3205  0.0315
    1DIPC   D3A21643  19.221  20.385   4.291  0.0815 -0.1398  0.1516
    1DIPC   C4A21644  19.206  20.488   3.824  0.1506  0.0474  0.3098
    1DIPC   C1B21645  19.705  20.660   4.460 -0.0991  0.0109  0.1525
    1DIPC   D2B21646  19.955  20.533   4.825 -0.1717  0.0862  0.1437
    1DIPC   D3B21647  19.544  20.660   5.038 -0.0610  0.0195  0.1935
    1DIPC   C4B21648  19.386  20.348   5.193 -0.0971  0.2017  0.0986
    1DIPC   NC321649   5.906   1.855   2.720  0.0230  0.0093 -0.1123
    1DIPC   PO421650   6.277   2.067   2.917  0.0606  0.2180 -0.1668
    1DIPC   GL121651   6.263   2.092   3.375  0.2060 -0.0215 -0.1901
    1DIPC   GL221652   6.562   2.278   3.459 -0.1394  0.2734 -0.1498
    1DIPC   C1A21653   6.136   2.269   3.828 -0.1679  0.1470 -0.3678
    1DIPC   D2A21654   5.961   2.077   4.161  0.2808  0.1763  0.2531
    1DIPC   D3A21655   5.573   2.165   4.203  0.0111 -0.2199  0.1234
    1DIPC   C4A21656   5.352   2.534   4.484 -0.0508  0.1441 -0.2643
    1DIPC   C1B21657   6.670   2.424   3.915  0.4089  0.0225  0.2091
    1DIPC   D2B21658   6.724   2.551   4.270  0.2570 -0.0414  0.0702
    1DIPC   D3B21659   6.957   2.885   4.371  0.1573  0.1132 -0.2726
    1DIPC   C4B21660   6.955   3.031   4.753 -0.1896  0.0099  0.1750
    1DIPC   NC321661  29.151  25.715   3.027  0.3513  0.1123 -0.1087
    1DIPC   PO421662  29.610  25.595   3.026 -0.1073  0.1365  0.2463
    1DIPC   GL121663  29.583  25.644   3.449  0.1885  0.2144  0.2126
    1DIPC   GL221664  29.380  25.871   3.679 -0.0700 -0.2926 -0.2026
    1DIPC   C1A21665  29.485  25.282   3.738 -0.0990  0.0040 -0.1135
    1DIPC   D2A21666  29.390  24.983   3.939 -0.1024 -0.0778 -0.0762
    1DIPC   D3A21667   0.004  25.108   4.244  0.1060 -0.0796 -0.1483
    1DIPC   C4A21668   0.208  25.039   4.614  0.1298 -0.2777  0.0916
    1DIPC   C1B21669  29.389  25.646   4.064  0.2979  0.1904 -0.4031
    1DIPC   D2B21670  29.216  25.426   4.291 -0.3460 -0.3286 -0.0494
    1DIPC   D3B21671  29.223  25.616   4.721  0.2447  0.3409  0.0012
    1DIPC   C4B21672  29.219  25.975   4.892 -0.0901 -0.0813  0.1539
    1DIPC   NC321673  11.930  18.444   1.934  0.0603 -0.0511  0.0994
    1DIPC   PO421674  11.744  18.247   2.386 -0.0502  0.3196  0.1078
    1DIPC   GL121675  11.491  18.441   2.729  0.2689  0.2549  0.0149
    1DIPC   GL221676  11.571  18.391   2.962 -0.0287 -0.0633 -0.1716
    1DIPC   C1A21677  11.300  18.839   2.934 -0.0015  0.4793  0.2776
    1DIPC   D2A21678  10.810  18.904   2.930 -0.4247 -0.2314 -0.1876
    1DIPC   D3A21679  11.011  19.266   3.109 -0.2355 -0.0491 -0.1285
    1DIPC   C4A21680  11.178  19.651   2.985  0.0299 -0.1442 -0.0100
    1DIPC   C1B21681  11.993  18.415   3.244 -0.1089 -0.0495 -0.2113
    1DIPC   D2B21682  12.288  18.299   3.530 -0.1580 -0.1380 -0.0225
    1DIPC   D3B21683  11.879  18.054   3.763  0.0026  0.0159 -0.0395
    1DIPC   C4B21684  11.603  18.192   4.072  0.1899  0.2010 -0.0329
    1DIPC   NC321685   6.799  19.972   2.946  0.2393 -0.1170 -0.0248
    1DIPC   PO421686   6.405  19.887   3.155 -0.2780 -0.0781 -0.2343
    1DIPC   GL121687   6.057  19.823   3.456  0.3160  0.4517  0.0616
    1DIPC   GL221688   6.022  20.165   3.572  0.0948  0.1132 -0.2444
    1DIPC   C1A21689   5.833  19.656   3.873 -0.0962  0.0463  0.1749
    1DIPC   D2A21690   5.686  19.584   4.360  0.0581 -0.3872 -0.5202
    1DIPC   D3A21691   6.004  19.344   4.633 -0.2681  0.0151 -0.0644
    1DIPC   C4A21692   5.976  19.175   5.032 -0.1763  0.0537  0.1735
    1DIPC   C1B21693   5.980  20.156   3.997 -0.1581 -0.2366  0.0393
    1DIPC   D2B21694   5.906  20.218   4.463  0.1392 -0.2272 -0.0631
    1DIPC   D3B21695   6.131  20.231   4.782  0.1560  0.1540  0.0600
    1DIPC   C4B21696   5.975  20.253   5.194  0.1763 -0.1489  0.1338
    1DIPC   NC321697  10.379   9.649   2.524  0.1012 -0.1265 -0.0413
    1DIPC   PO421698  10.841   9.390   2.634 -0.4079  0.2136  0.1183
    1DIPC   GL121699  10.817   9.379   3.122  0.2476  0.2539 -0.0247
    1DIPC   GL221700  11.025   9.579   3.237  0.2890  0.1233 -0.2072
    1DIPC   C1A21701  10.657   9.281   3.547 -0.1569  0.2775  0.3474
    1DIPC   D2A21702  10.881   9.233   3.893 -0.1115 -0.0735  0.1995
    1DIPC   D3A21703  11.104   8.824   4.052  0.0145  0.2100  0.0017
    1DIPC   C4A21704  11.464   8.659   4.065  0.2495  0.1075 -0.1585
    1DIPC   C1B21705  10.761   9.733   3.536  0.2522 -0.1300 -0.1022
    1DIPC   D2B21706  10.690   9.735   3.924 -0.0384 -0.0935 -0.4916
    1DIPC   D3B21707  10.607   9.513   4.320  0.2958 -0.0828 -0.3653
    1DIPC   C4B21708  10.592   9.595   4.779  0.0390 -0.1436 -0.0773
    1DIPC   NC321709   9.538  10.508   2.225 -0.2408 -0.0886  0.4473
    1DIPC   PO421710   9.154  10.152   2.282 -0.0762 -0.0647 -0.2351
    1DIPC   GL121711   9.333  10.251   2.710  0.2326  0.2611  0.1570
    1DIPC   GL221712   9.327   9.967   2.900 -0.0168  0.1435  0.0835
    1DIPC   C1A21713   9.022  10.445   3.000  0.2183 -0.0116 -0.1664
    1DIPC   D2A21714   8.520  10.337   3.161 -0.2093  0.0389  0.0930
    1DIPC   D3A21715   8.528  10.795   3.229  0.0498  0.0639  0.1854
    1DIPC   C4A21716   8.598  11.224   3.194 -0.0097  0.3141 -0.0248
    1DIPC   C1B21717   9.013  10.106   3.310  0.1149  0.0528 -0.2962
    1DIPC   D2B21718   8.802  10.367   3.640 -0.0282 -0.1306 -0.2673
    1DIPC   D3B21719   9.148  10.552   3.667  0.0486  0.0347 -0.3074
    1DIPC   C4B21720   9.454  10.707   3.389 -0.1531 -0.1335 -0.1874
    1DIPC   NC321721  10.338  24.018   2.187  0.0348  0.0073 -0.0883
    1DIPC   PO421722  10.221  23.640   2.505  0.0526 -0.0558  0.0146
    1DIPC   GL121723  10.247  23.658   3.046  0.2882 -0.0015  0.0692
    1DIPC   GL221724  10.164  23.354   3.240 -0.0624 -0.2373 -0.0568
    1DIPC   C1A21725   9.942  23.790   3.345 -0.1259 -0.0270 -0.0392
    1DIPC   D2A21726   9.863  24.122   3.616  0.0595  0.2686 -0.3616
    1DIPC   D3A21727   9.738  24.558   3.488  0.1834  0.3064  0.1236
    1DIPC   C4A21728  10.056  24.816   3.674 -0.0426 -0.1053  0.2843
    1DIPC   C1B21729  10.108  23.327   3.591  0.1063 -0.2405 -0.1890
    1DIPC   D2B21730   9.819  23.478   3.801  0.2883 -0.0771 -0.0385
    1DIPC   D3B21731   9.960  23.232   4.153  0.0888 -0.0193 -0.0506
    1DIPC   C4B21732   9.823  23.230   4.634  0.0440  0.2683  0.2188
    1DIPC   NC321733   0.122  20.278   3.845  0.0302 -0.0028 -0.0404
    1DIPC   PO421734  29.429  20.569   3.943 -0.4150 -0.4097 -0.0251
    1DIPC   GL121735   0.001  20.391   4.275 -0.0312  0.2283 -0.1999
    1DIPC   GL221736   0.310  20.566   4.295 -0.2422  0.1518  0.0008
    1DIPC   C1A21737   0.001  20.439   4.639 -0.1851 -0.0972  0.0836
    1DIPC   D2A21738   0.088  20.072   4.914  0.0898 -0.0765  0.0516
    1DIPC   D3A21739   0.390  20.401   5.056  0.2344  0.0958  0.3344
    1DIPC   C4A21740   0.465  20.557   4.734  0.0369  0.1157 -0.1496
    1DIPC   C1B21741   0.199  20.956   4.433  0.1766 -0.1623 -0.0293
    1DIPC   D2B21742  29.549  21.047   4.791 -0.2366  0.0892 -0.0999
    1DIPC   D3B21743  29.251  21.257   5.143 -0.1200 -0.0032 -0.3084
    1DIPC   C4B21744  28.945  21.539   5.057  0.0426 -0.1300  0.0126
    1DIPC   NC321745   8.648   9.310   2.495  0.1287 -0.2225  0.0770
    1DIPC   PO421746   8.927   9.511   2.761  0.1393  0.2109  0.4597
    1DIPC   GL121747   9.011   9.565   3.099 -0.0893  0.0709 -0.3851
    1DIPC   GL221748   9.362   9.620   3.352  0.2922 -0.1276 -0.0107
    1DIPC   C1A21749   9.047   9.239   3.478 -0.1364  0.2320  0.0981
    1DIPC   D2A21750   8.796   9.000   3.766 -0.0240  0.1375  0.0696
    1DIPC   D3A21751   9.012   8.843   4.140 -0.0567 -0.2656  0.0306
    1DIPC   C4A21752   9.013   8.358   4.277  0.1610 -0.1353 -0.1796
    1DIPC   C1B21753   9.641   9.258   3.500  0.1422  0.1292 -0.0145
    1DIPC   D2B21754   9.771   9.311   3.961  0.2194  0.0382  0.0163
    1DIPC   D3B21755   9.429   9.114   3.993 -0.0464 -0.2307 -0.1216
    1DIPC   C4B21756   9.449   8.862   4.375  0.2193 -0.2350  0.1145
    1DIPC   NC321757  19.845  27.834   3.681 -0.2480 -0.0240  0.0714
    1DIPC   PO421758  19.601  27.548   3.804  0.3210 -0.3891 -0.4128
    1DIPC   GL121759  19.554  27.517   4.192  0.2809  0.0782  0.1797
    1DIPC   GL221760  19.580  27.234   4.254 -0.0601  0.0476 -0.1739
    1DIPC   C1A21761  19.586  27.675   4.532 -0.1575  0.0649  0.0918
    1DIPC   D2A21762  19.841  27.667   4.884 -0.1245 -0.1098 -0.0367
    1DIPC   D3A21763  19.492  27.575   5.016 -0.0726  0.0818 -0.0044
    1DIPC   C4A21764  19.362  27.969   4.903 -0.0849 -0.3433 -0.0814
    1DIPC   C1B21765  19.472  27.163   4.676  0.1254 -0.2217 -0.2223
    1DIPC   D2B21766  19.245  26.964   4.967  0.1309  0.2045 -0.2170
    1DIPC   D3B21767  19.159  27.198   5.383 -0.1265 -0.2599 -0.0430
    1DIPC   C4B21768  19.296  27.585   5.473 -0.0368 -0.2848  0.0487
    1DIPC   NC321769  11.627   2.291   2.883  0.1252  0.0635 -0.0907
    1DIPC   PO421770  12.095   2.452   2.900  0.3150 -0.1208 -0.3461
    1DIPC   GL121771  11.947   2.420   3.309  0.2318  0.0476  0.1944
    1DIPC   GL221772  11.735   2.182   3.373  0.2907  0.1598 -0.0043
    1DIPC   C1A21773  12.281   2.507   3.604 -0.2796  0.0937  0.0630
    1DIPC   D2A21774  12.318   2.463   4.021  0.0462  0.0164 -0.1713
    1DIPC   D3A21775  12.299   1.990   4.230  0.2133  0.2202  0.0832
    1DIPC   C4A21776  12.646   1.828   4.530 -0.0887 -0.3186 -0.4227
    1DIPC   C1B21777  11.374   2.049   3.743 -0.1397 -0.0687  0.3267
    1DIPC   D2B21778  11.332   1.872   4.173 -0.1903 -0.0571 -0.2513
    1DIPC   D3B21779  11.072   2.234   4.180 -0.0063  0.1978  0.1640
    1DIPC   C4B21780  11.280   2.479   4.019  0.2235  0.0466  0.0577
    1DIPC   NC321781   3.646  25.991   3.672  0.1744  0.3018 -0.1066
    1DIPC   PO421782   3.219  25.810   3.619  0.1839 -0.1257 -0.3031
    1DIPC   GL121783   3.287  25.758   4.023 -0.3696 -0.0896  0.3400
    1DIPC   GL221784   3.318  26.129   4.202  0.0299 -0.0108  0.2883
    1DIPC   C1A21785   3.575  25.772   4.343  0.2327  0.1837  0.2006
    1DIPC   D2A21786   3.587  25.506   4.773 -0.0512  0.1182  0.1056
    1DIPC   D3A21787   3.451  25.653   5.197  0.1785 -0.3298  0.0428
    1DIPC   C4A21788   3.551  26.147   5.295 -0.0026 -0.0937 -0.1611
    1DIPC   C1B21789   3.549  26.491   4.240 -0.0735 -0.0610  0.1465
    1DIPC   D2B21790   3.750  26.789   4.445  0.0992 -0.0813  0.1940
    1DIPC   D3B21791   4.111  26.496   4.440  0.0693  0.0263  0.1430
    1DIPC   C4B21792   4.437  26.641   4.290  0.0332  0.2293 -0.0590
    1DIPC   NC321793   4.605  19.775   2.411 -0.3883  0.1614 -0.0969
    1DIPC   PO421794   4.559  19.706   2.870 -0.0777  0.0944  0.2520
    1DIPC   GL121795   4.405  19.463   3.325  0.0473 -0.1081  0.1250
    1DIPC   GL221796   4.178  19.179   3.367  0.1431  0.1925  0.1960
    1DIPC   C1A21797   4.493  19.227   3.724  0.0125 -0.3116 -0.0159
    1DIPC   D2A21798   4.856  19.154   3.922 -0.4225  0.3148 -0.1010
    1DIPC   D3A21799   4.868  19.178   4.346  0.0922 -0.0385 -0.0673
    1DIPC   C4A21800   4.516  19.022   4.573  0.1087  0.1469  0.0094
    1DIPC   C1B21801   4.113  18.874   3.842 -0.0548 -0.2868 -0.0336
    1DIPC   D2B21802   4.188  18.452   4.018 -0.0617 -0.2123  0.1043
    1DIPC   D3B21803   4.175  18.769   4.289  0.0302 -0.1189  0.1390
    1DIPC   C4B21804   4.387  18.515   4.600  0.0338 -0.2892  0.1278
    1DIPC   NC321805  10.985  22.911   2.035 -0.2089  0.0868  0.1560
    1DIPC   PO421806  10.983  22.678   2.434  0.2582  0.1590  0.0838
    1DIPC   GL121807  11.013  22.404   2.881 -0.2500 -0.2460 -0.0665
    1DIPC   GL221808  10.814  22.249   3.058 -0.0113 -0.1489 -0.2220
    1DIPC   C1A21809  11.209  22.422   3.325  0.0108  0.5203 -0.0506
    1DIPC   D2A21810  11.157  22.548   3.733 -0.0151  0.0224 -0.0304
    1DIPC   D3A21811  11.145  22.453   4.174 -0.1686  0.1308 -0.0024
    1DIPC   C4A21812  10.735  22.346   4.387  0.0375 -0.0570 -0.3001
    1DIPC   C1B21813  10.671  22.435   3.410 -0.0485 -0.0316 -0.3233
    1DIPC   D2B21814  10.646  22.799   3.573 -0.1135  0.0052 -0.1208
    1DIPC   D3B21815  10.715  22.828   4.046 -0.1962 -0.2874  0.0716
    1DIPC   C4B21816  11.168  22.974   4.109 -0.2236 -0.0150  0.0426
    1DIPC   NC321817   4.280  23.345   3.036  0.0791 -0.2344 -0.0371
    1DIPC   PO421818   4.400  23.166   3.389 -0.2785  0.0641  0.3893
    1DIPC   GL121819   4.811  23.092   3.583 -0.1651  0.0326  0.3360
    1DIPC   GL221820   4.665  23.174   3.843 -0.1583  0.0900 -0.2088
    1DIPC   C1A21821   5.120  23.039   4.018  0.1254  0.2196  0.1015
    1DIPC   D2A21822   5.257  22.962   4.427 -0.0680  0.0455  0.1882
    1DIPC   D3A21823   4.804  22.838   4.716  0.1261 -0.0024  0.0517
    1DIPC   C4A21824   4.732  22.543   5.060  0.1592 -0.0165 -0.2541
    1DIPC   C1B21825   4.834  23.231   4.383 -0.0035 -0.0872  0.1056
    1DIPC   D2B21826   4.665  23.345   4.865 -0.0537 -0.2002  0.3177
    1DIPC   D3B21827   4.425  23.050   5.127 -0.0114  0.0853 -0.0030
    1DIPC   C4B21828   3.966  23.041   5.032  0.0091 -0.0385  0.1487
    1DIPC   NC321829  19.785   3.084   2.800  0.3668  0.0959 -0.0671
    1DIPC   PO421830  19.438   3.126   3.074 -0.4897 -0.1072  0.0462
    1DIPC   GL121831  19.490   3.415   3.428  0.1233  0.0349  0.0659
    1DIPC   GL221832  19.149   3.329   3.620  0.1375 -0.1840  0.0694
    1DIPC   C1A21833  19.738   3.225   3.749  0.1653  0.3953  0.1810
    1DIPC   D2A21834  20.132   3.184   3.843 -0.2136  0.1262  0.1124
    1DIPC   D3A21835  20.123   3.173   4.238  0.1120 -0.0541  0.0484
    1DIPC   C4A21836  20.150   3.509   4.513 -0.0802  0.0549 -0.0505
    1DIPC   C1B21837  19.217   3.665   3.936 -0.1445  0.0166 -0.1777
    1DIPC   D2B21838  19.407   3.819   4.223  0.3729 -0.0224 -0.1978
    1DIPC   D3B21839  19.280   4.003   4.554 -0.2871 -0.2013 -0.3336
    1DIPC   C4B21840  18.983   3.727   4.615 -0.1884  0.0497  0.1987
    1DIPC   NC321841   2.980  25.930   3.162  0.2697 -0.1754  0.0931
    1DIPC   PO421842   2.863  26.482   3.146  0.3216  0.2385  0.0926
    1DIPC   GL121843   2.653  26.240   3.466  0.0366  0.1161  0.1148
    1DIPC   GL221844   2.269  26.163   3.625  0.2301  0.0494 -0.2073
    1DIPC   C1A21845   2.522  26.493   3.911 -0.1591  0.0263 -0.2823
    1DIPC   D2A21846   2.563  26.780   4.282 -0.2007  0.2018 -0.0750
    1DIPC   D3A21847   2.895  26.747   4.718  0.0858 -0.0184  0.1272
    1DIPC   C4A21848   3.004  27.148   4.949  0.0227 -0.2072 -0.0758
    1DIPC   C1B21849   2.073  26.367   3.889 -0.2754  0.1371 -0.2241
    1DIPC   D2B21850   2.150  26.454   4.343 -0.2409  0.2358  0.2353
    1DIPC   D3B21851   1.971  26.397   4.727 -0.1743 -0.2367 -0.0297
    1DIPC   C4B21852   1.700  26.824   4.890  0.0313 -0.5572 -0.0082
    1DIPC   NC321853   4.327  10.151   1.898  0.1896 -0.2960  0.0629
    1DIPC   PO421854   4.036   9.756   1.881  0.0921  0.0159  0.2306
    1DIPC   GL121855   4.287   9.825   2.270  0.2106  0.2284 -0.0294
    1DIPC   GL221856   4.439   9.516   2.286  0.0828  0.0370  0.0577
    1DIPC   C1A21857   4.327   9.799   2.746 -0.0920 -0.2354 -0.2664
    1DIPC   D2A21858   4.435   9.787   3.192  0.0128 -0.0989  0.0717
    1DIPC   D3A21859   4.502  10.193   3.368  0.3029 -0.1757 -0.1277
    1DIPC   C4A21860   4.217  10.209   3.782  0.1354  0.1458  0.2268
    1DIPC   C1B21861   4.296   9.281   2.629  0.1019 -0.1205 -0.0209
    1DIPC   D2B21862   4.277   9.110   3.084 -0.3794  0.2073 -0.3323
    1DIPC   D3B21863   4.532   9.214   3.479  0.2170 -0.0452  0.0280
    1DIPC   C4B21864   4.283   9.586   3.680 -0.1792  0.0508  0.2081
    1DIPC   NC321865   2.309  27.786   2.332  0.0831 -0.2551 -0.0647
    1DIPC   PO421866   2.127  27.794   2.754  0.1474  0.1453  0.2109
    1DIPC   GL121867   2.101  27.606   3.222  0.0426 -0.4084  0.0807
    1DIPC   GL221868   1.743  27.874   3.289 -0.0857  0.1628  0.0186
    1DIPC   C1A21869   2.224  27.729   3.704  0.0343  0.3515  0.2158
    1DIPC   D2A21870   2.236  27.772   4.078  0.1938 -0.0797 -0.1486
    1DIPC   D3A21871   1.711  27.847   4.089 -0.0292 -0.1864 -0.1921
    1DIPC   C4A21872   1.433  27.776   4.516  0.0444  0.3929 -0.0185
    1DIPC   C1B21873   1.874  28.104   3.722 -0.0273  0.1657 -0.1818
    1DIPC   D2B21874   1.925  28.241   4.239  0.1322  0.4298 -0.1621
    1DIPC   D3B21875   1.524  28.429   4.250 -0.5147 -0.2118  0.4706
    1DIPC   C4B21876   1.258  28.182   4.312 -0.0545  0.0740  0.0156
    1DIPC   NC321877  11.066  23.030   2.778 -0.0998  0.2200 -0.0448
    1DIPC   PO421878  11.478  23.101   3.046  0.1011  0.1441 -0.1147
    1DIPC   GL121879  11.498  23.096   3.543 -0.0555 -0.2225 -0.0123
    1DIPC   GL221880  11.250  23.059   3.621 -0.5194  0.0884 -0.1755
    1DIPC   C1A21881  11.648  23.346   4.068  0.1069  0.1819  0.1458
    1DIPC   D2A21882  12.017  23.430   4.192 -0.1400 -0.1690 -0.2249
    1DIPC   D3A21883  12.134  23.598   4.532  0.0326 -0.2303 -0.0961
    1DIPC   C4A21884  12.453  24.110   4.536 -0.1665 -0.0180  0.1459
    1DIPC   C1B21885  10.820  23.214   3.756  0.0845  0.0736  0.0381
    1DIPC   D2B21886  10.451  23.212   4.004 -0.0502 -0.0545  0.0709
    1DIPC   D3B21887  10.188  22.930   3.871 -0.0734  0.1607 -0.2516
    1DIPC   C4B21888  10.187  22.581   3.493  0.3092 -0.1899  0.0380
    1DIPC   NC321889  24.829  28.729   3.455  0.1715 -0.1148 -0.0731
    1DIPC   PO421890  24.950  29.166   3.448 -0.2518 -0.1967 -0.0841
    1DIPC   GL121891  24.995  29.174   3.898  0.3950 -0.0338  0.0484
    1DIPC   GL221892  24.945  28.810   3.961  0.0775 -0.1717  0.1888
    1DIPC   C1A21893  24.997  29.116   4.395 -0.2287 -0.2243  0.0399
    1DIPC   D2A21894  24.993  29.137   4.775  0.0952  0.0591 -0.2349
    1DIPC   D3A21895  24.980  28.748   4.796  0.3414  0.1184 -0.2917
    1DIPC   C4A21896  24.698  28.444   4.684  0.0940  0.1990 -0.1273
    1DIPC   C1B21897  24.690  28.785   4.279 -0.0417  0.2155  0.1192
    1DIPC   D2B21898  24.492  29.075   4.434  0.0546  0.2148 -0.2847
    1DIPC   D3B21899  24.597  29.317   4.148 -0.0597 -0.0245  0.0782
    1DIPC   C4B21900  24.880  29.597   4.263 -0.1874 -0.1654  0.5927
    1DIPC   NC321901   3.669   6.772   2.223  0.1183 -0.0253 -0.1456
    1DIPC   PO421902   3.999   6.585   2.122  0.2599 -0.1931 -0.0665
    1DIPC   GL121903   3.991   6.501   2.542 -0.0992 -0.0017 -0.0421
    1DIPC   GL221904   3.905   6.750   2.706 -0.0022 -0.0648 -0.0950
    1DIPC   C1A21905   3.961   6.265   2.990  0.0995 -0.2859  0.5935
    1DIPC   D2A21906   3.634   6.063   3.266  0.1783  0.0138 -0.2361
    1DIPC   D3A21907   3.748   5.958   3.644 -0.1525  0.1210  0.5278
    1DIPC   C4A21908   4.243   6.093   3.674 -0.0953 -0.1216 -0.2045
    1DIPC   C1B21909   3.967   6.830   3.149  0.1574 -0.2278 -0.2205
    1DIPC   D2B21910   3.986   6.893   3.586  0.0858  0.3668  0.0051
    1DIPC   D3B21911   3.842   6.577   3.849 -0.4008  0.2738  0.0780
    1DIPC   C4B21912   3.835   6.517   4.219  0.2947 -0.1277  0.3936
    1DIPC   NC321913   7.515  14.639   2.113 -0.0167 -0.1759  0.1927
    1DIPC   PO421914   7.674  14.213   2.381 -0.4070  0.0043 -0.2877
    1DIPC   GL121915   7.597  14.220   2.910 -0.1428 -0.1420 -0.1060
    1DIPC   GL221916   7.770  14.347   3.175  0.1513  0.3052 -0.1770
    1DIPC   C1A21917   7.425  13.993   3.198 -0.1132  0.0453  0.0383
    1DIPC   D2A21918   7.415  13.661   3.350 -0.3172 -0.2972 -0.0070
    1DIPC   D3A21919   7.252  13.575   3.790 -0.2419 -0.3338 -0.1254
    1DIPC   C4A21920   7.428  13.245   3.969 -0.0862 -0.1625  0.2277
    1DIPC   C1B21921   7.634  14.364   3.586  0.2389 -0.3476 -0.3093
    1DIPC   D2B21922   7.733  14.440   4.040 -0.3239  0.2178 -0.0723
    1DIPC   D3B21923   7.779  14.058   4.411 -0.2250  0.1670  0.0656
    1DIPC   C4B21924   8.178  14.013   4.563 -0.1108  0.0235 -0.0195
    1DIPC   NC321925  27.066   2.546   2.347 -0.0892  0.3995 -0.1846
    1DIPC   PO421926  27.483   2.512   2.392  0.1208  0.1183 -0.2053
    1DIPC   GL121927  27.394   2.709   2.811 -0.0530  0.2123 -0.1825
    1DIPC   GL221928  27.147   2.436   2.962  0.2061  0.3548  0.1096
    1DIPC   C1A21929  27.369   2.791   3.257  0.2522  0.0012  0.0651
    1DIPC   D2A21930  27.380   2.555   3.581  0.0586  0.2786  0.0632
    1DIPC   D3A21931  27.230   2.852   3.910  0.2461  0.0808  0.2126
    1DIPC   C4A21932  26.803   3.040   4.140  0.0754  0.1706  0.1906
    1DIPC   C1B21933  27.117   2.186   3.350 -0.4735  0.1196  0.1331
    1DIPC   D2B21934  27.084   1.946   3.725 -0.0141  0.2572 -0.0566
    1DIPC   D3B21935  26.561   2.029   3.808  0.1715 -0.1177  0.0902
    1DIPC   C4B21936  26.282   1.788   4.033 -0.2268 -0.1360  0.1405
    1DIPC   NC321937  15.992  29.440   3.182  0.1286 -0.1632 -0.0464
    1DIPC   PO421938  16.025  29.051   3.420  0.2795 -0.1718  0.1149
    1DIPC   GL121939  15.657  29.198   3.620 -0.0582 -0.1184 -0.0039
    1DIPC   GL221940  15.750  29.366   3.972  0.1734  0.3200  0.1723
    1DIPC   C1A21941  15.283  29.159   3.915  0.0999  0.1950  0.2269
    1DIPC   D2A21942  14.967  29.325   4.136 -0.2678  0.1359 -0.0568
    1DIPC   D3A21943  14.838  29.152   4.558 -0.0083 -0.0155  0.0669
    1DIPC   C4A21944  15.007  28.672   4.739 -0.3178 -0.0611 -0.0745
    1DIPC   C1B21945  15.546  29.325   4.320  0.2855  0.0269 -0.0238
    1DIPC   D2B21946  15.611   0.039   4.606 -0.1877 -0.1842  0.2031
    1DIPC   D3B21947  15.981   0.065   4.767 -0.2310  0.0695  0.2273
    1DIPC   C4B21948  16.327   0.221   5.026  0.1219  0.1461 -0.0553
    1DIPC   NC321949   4.797   2.987   2.745  0.1675 -0.3007 -0.1204
    1DIPC   PO421950   4.902   2.579   2.726  0.0229 -0.1762  0.0777
    1DIPC   GL121951   5.167   2.773   3.041  0.1857  0.2371 -0.1874
    1DIPC   GL221952   5.437   2.650   3.090 -0.0052  0.2712 -0.1248
    1DIPC   C1A21953   4.951   2.750   3.519 -0.2792  0.1024 -0.1034
    1DIPC   D2A21954   4.475   2.912   3.551 -0.4705  0.2316 -0.4493
    1DIPC   D3A21955   4.379   2.956   4.002  0.0420 -0.3642 -0.0692
    1DIPC   C4A21956   4.152   2.855   4.399 -0.0053  0.0257  0.1441
    1DIPC   C1B21957   5.435   2.637   3.523 -0.2427  0.0535  0.0025
    1DIPC   D2B21958   5.622   2.782   3.914  0.1680  0.1053 -0.1506
    1DIPC   D3B21959   5.846   2.626   4.181  0.3041 -0.1348  0.3268
    1DIPC   C4B21960   6.265   2.625   4.227  0.3143 -0.2967 -0.4891
    1DIPC   NC321961  10.510   5.557   2.502  0.0384  0.0006 -0.1913
    1DIPC   PO421962  10.408   5.219   2.359 -0.0277 -0.0492 -0.1023
    1DIPC   GL121963  10.391   5.214   2.821 -0.1621 -0.2088 -0.0271
    1DIPC   GL221964  10.717   5.273   2.931  0.1253 -0.2545 -0.2112
    1DIPC   C1A21965  10.354   5.264   3.256  0.3784 -0.0622  0.5036
    1DIPC   D2A21966  10.497   5.110   3.648  0.4514 -0.1490  0.4336
    1DIPC   D3A21967  10.817   5.258   3.781  0.0155 -0.0249  0.1645
    1DIPC   C4A21968  10.654   5.109   4.124 -0.3523  0.0828  0.1383
    1DIPC   C1B21969  11.025   5.196   3.305 -0.0364 -0.0068 -0.0851
    1DIPC   D2B21970  11.496   5.240   3.354  0.0030  0.1680 -0.0702
    1DIPC   D3B21971  11.289   4.996   3.782 -0.2944 -0.1841  0.1506
    1DIPC   C4B21972  11.119   5.216   4.236  0.2117  0.2065  0.0911
    1DIPC   NC321973  15.988  26.935   2.600 -0.1843  0.1602 -0.0075
    1DIPC   PO421974  16.040  26.751   2.984 -0.2215  0.0939  0.1818
    1DIPC   GL121975  16.088  27.027   3.399 -0.2731 -0.1541 -0.0745
    1DIPC   GL221976  16.395  26.931   3.489 -0.0181 -0.5581 -0.2396
    1DIPC   C1A21977  16.025  27.142   3.850 -0.1136 -0.0232  0.4429
    1DIPC   D2A21978  15.975  27.464   4.224  0.1494 -0.1539  0.0236
    1DIPC   D3A21979  15.600  27.295   4.423  0.1507 -0.2784  0.5725
    1DIPC   C4A21980  15.641  26.977   4.724 -0.1725  0.1954  0.2799
    1DIPC   C1B21981  16.293  26.669   3.781  0.1409 -0.2684  0.1276
    1DIPC   D2B21982  16.067  26.555   4.053  0.0057  0.1787 -0.0882
    1DIPC   D3B21983  15.983  26.953   4.273  0.1175 -0.1345  0.0370
    1DIPC   C4B21984  16.215  27.153   4.552  0.2095  0.2517  0.3346
    1DIPC   NC321985   6.532   4.025   2.289  0.1498 -0.0654 -0.0213
    1DIPC   PO421986   6.204   3.881   2.652 -0.5354 -0.3974  0.1503
    1DIPC   GL121987   6.306   3.648   3.008 -0.0128  0.0070  0.3644
    1DIPC   GL221988   6.201   3.925   3.146  0.1037 -0.2697 -0.1197
    1DIPC   C1A21989   6.610   3.714   3.371 -0.1168 -0.2366 -0.1694
    1DIPC   D2A21990   6.634   3.278   3.630 -0.3579  0.0363 -0.0006
    1DIPC   D3A21991   6.693   3.566   4.015 -0.1190  0.2982  0.1134
    1DIPC   C4A21992   6.703   3.990   3.882  0.0575  0.2371  0.0354
    1DIPC   C1B21993   5.798   4.075   3.339 -0.0390  0.1387  0.2244
    1DIPC   D2B21994   5.380   4.114   3.621  0.0524  0.0949  0.1479
    1DIPC   D3B21995   5.352   3.874   4.030 -0.0041 -0.0639  0.0226
    1DIPC   C4B21996   5.114   3.479   4.002 -0.4075 -0.2020 -0.0398
    1DIPC   NC321997  27.636   1.047   2.762 -0.2806 -0.1078 -0.0433
    1DIPC   PO421998  27.505   1.258   3.107  0.3109 -0.2806  0.2865
    1DIPC   GL121999  27.593   1.609   3.480  0.1595  0.0588 -0.1591
    1DIPC   GL222000  27.226   1.504   3.515 -0.1107  0.3427  0.2485
    1DIPC   C1A22001  27.528   2.021   3.676  0.0715 -0.0747  0.0746
    1DIPC   D2A22002  27.323   2.359   4.044  0.1681  0.0882 -0.1485
    1DIPC   D3A22003  27.150   2.145   4.461 -0.1292 -0.1755  0.0659
    1DIPC   C4A22004  27.325   1.775   4.400  0.0681 -0.1111 -0.0741
    1DIPC   C1B22005  27.341   1.566   3.945 -0.0277 -0.0199 -0.0693
    1DIPC   D2B22006  27.705   1.743   4.094  0.1397  0.1776  0.0542
    1DIPC   D3B22007  27.769   2.193   4.216  0.1737  0.0909 -0.0491
    1DIPC   C4B22008  27.545   2.508   4.558 -0.0212  0.1976  0.3100
    1DIPC   NC322009  12.192  28.336   2.131  0.2106  0.0144  0.0606
    1DIPC   PO422010  12.300  28.344   2.506 -0.1426 -0.3119 -0.3438
    1DIPC   GL122011  12.378  28.490   2.945  0.0001 -0.4120  0.2211
    1DIPC   GL222012  12.332  28.155   3.028 -0.0601  0.0088 -0.0298
    1DIPC   C1A22013  12.733  28.435   3.295  0.0045  0.1454  0.1822
    1DIPC   D2A22014  12.775  28.644   3.697  0.0397 -0.2496  0.1717
    1DIPC   D3A22015  12.907  28.763   4.081  0.2213 -0.0404  0.1216
    1DIPC   C4A22016  12.588  28.784   4.436  0.2358  0.3002  0.1358
    1DIPC   C1B22017  12.680  27.902   3.272 -0.0102  0.1144  0.0497
    1DIPC   D2B22018  12.761  28.050   3.704 -0.1538  0.1831  0.0971
    1DIPC   D3B22019  13.096  28.243   3.516  0.0077  0.0781 -0.0878
    1DIPC   C4B22020  13.317  28.472   3.715 -0.1316 -0.2547 -0.1830
    1DIPC   NC322021  10.784   5.134   2.039 -0.1642 -0.2391 -0.3916
    1DIPC   PO422022  11.096   4.833   2.219  0.1936  0.2799  0.0187
    1DIPC   GL122023  11.143   4.586   2.524 -0.0821 -0.1033  0.0403
    1DIPC   GL222024  11.189   4.740   2.793  0.0375  0.1123 -0.2359
    1DIPC   C1A22025  11.403   4.259   2.849 -0.2815 -0.4236  0.0306
    1DIPC   D2A22026  11.309   4.276   3.291  0.3713  0.0361 -0.1819
    1DIPC   D3A22027  11.848   4.298   3.280  0.0484 -0.1617 -0.5352
    1DIPC   C4A22028  12.196   3.976   3.334  0.0483  0.2589  0.0529
    1DIPC   C1B22029  11.640   4.768   3.102  0.2585 -0.0519 -0.2458
    1DIPC   D2B22030  11.695   4.824   3.579 -0.1153 -0.1006 -0.0466
    1DIPC   D3B22031  11.741   5.166   3.867 -0.1993 -0.0886  0.1958
    1DIPC   C4B22032  11.655   4.969   4.252 -0.0785  0.1964 -0.0855
    1DIPC   NC322033  10.241  20.795   2.201 -0.2837 -0.2295  0.0570
    1DIPC   PO422034  10.156  21.166   2.403  0.1320 -0.2918 -0.1879
    1DIPC   GL122035  10.092  21.011   2.860  0.0239  0.1849  0.2415
    1DIPC   GL222036  10.088  21.337   2.966 -0.0828  0.0054 -0.2641
    1DIPC   C1A22037   9.666  21.127   3.065  0.1411 -0.3508  0.0777
    1DIPC   D2A22038   9.712  21.549   3.258 -0.0726 -0.2006  0.1136
    1DIPC   D3A22039   9.934  21.192   3.487  0.1263  0.2390 -0.1937
    1DIPC   C4A22040   9.989  20.765   3.279  0.1701  0.1943  0.0527
    1DIPC   C1B22041  10.375  21.065   3.254 -0.2010 -0.3085 -0.1462
    1DIPC   D2B22042  10.729  20.577   3.275  0.2491 -0.0020  0.0138
    1DIPC   D3B22043  10.666  20.210   3.512  0.1168 -0.1930  0.2166
    1DIPC   C4B22044  10.460  20.243   3.860  0.1019  0.0461  0.1118
    1DIPC   NC322045  20.398  19.659   3.956  0.3270 -0.1259  0.0069
    1DIPC   PO422046  19.984  19.642   3.767  0.0272  0.0230 -0.2701
    1DIPC   GL122047  19.637  19.760   4.050  0.1543  0.1489 -0.1870
    1DIPC   GL222048  19.545  20.094   3.820 -0.3851  0.3918 -0.1029
    1DIPC   C1A22049  19.290  19.879   4.438 -0.1169 -0.0023  0.2481
    1DIPC   D2A22050  19.391  20.158   4.703 -0.0223 -0.0150 -0.4683
    1DIPC   D3A22051  19.783  20.087   4.976  0.1642 -0.1148 -0.1852
    1DIPC   C4A22052  19.613  19.889   5.354  0.0025  0.1078 -0.1469
    1DIPC   C1B22053  19.718  20.241   4.218  0.1811 -0.1068 -0.1444
    1DIPC   D2B22054  20.080  20.194   4.446 -0.0099  0.3271  0.0427
    1DIPC   D3B22055  19.775  19.837   4.544  0.5222  0.0157  0.4805
    1DIPC   C4B22056  19.441  19.721   4.916 -0.0003  0.1065 -0.1162
    1DIPC   NC322057  16.637   7.879   2.548 -0.0019 -0.0736 -0.0605
    1DIPC   PO422058  17.118   7.886   2.675  0.1465 -0.0166  0.0665
    1DIPC   GL122059  17.007   7.740   3.087  0.0808  0.0263 -0.0350
    1DIPC   GL222060  16.755   7.845   3.351  0.3668  0.0398 -0.1068
    1DIPC   C1A22061  16.873   7.385   3.346 -0.0887  0.0040  0.0352
    1DIPC   D2A22062  17.090   7.257   3.765 -0.0159  0.1849 -0.1311
    1DIPC   D3A22063  16.926   7.676   3.759  0.0022 -0.0450 -0.1223
    1DIPC   C4A22064  16.568   7.948   3.821 -0.0032 -0.1107 -0.2373
    1DIPC   C1B22065  16.408   8.056   3.346 -0.1786  0.1095  0.2786
    1DIPC   D2B22066  16.028   8.184   3.549  0.0908  0.0029 -0.1848
    1DIPC   D3B22067  16.099   8.107   4.040  0.0109  0.0108  0.0530
    1DIPC   C4B22068  16.525   8.202   4.291  0.1640 -0.1327  0.2335
    1DIPC   NC322069  15.917  20.329   2.810  0.1780 -0.0458 -0.1610
    1DIPC   PO422070  16.350  20.667   2.894 -0.1121  0.2355 -0.0413
    1DIPC   GL122071  16.112  20.682   3.242  0.0036 -0.0963  0.2171
    1DIPC   GL222072  16.116  20.826   3.465 -0.5498  0.1616 -0.3127
    1DIPC   C1A22073  16.045  20.302   3.471 -0.0104 -0.0161  0.2580
    1DIPC   D2A22074  15.774  19.927   3.544 -0.1337  0.0172 -0.0222
    1DIPC   D3A22075  15.838  19.657   3.230 -0.2439 -0.0472  0.2164
    1DIPC   C4A22076  15.713  19.198   3.317  0.0612  0.2114  0.3153
    1DIPC   C1B22077  16.024  20.905   3.881  0.5218 -0.4384 -0.0219
    1DIPC   D2B22078  16.010  20.923   4.322  0.1015 -0.1249  0.0374
    1DIPC   D3B22079  16.473  20.824   4.244  0.1895 -0.0969  0.0388
    1DIPC   C4B22080  16.851  20.902   4.030  0.0495 -0.1231  0.0305
    1DIPC   NC322081  11.613  24.217   3.110 -0.0893  0.1714  0.0214
    1DIPC   PO422082  11.752  24.640   2.914 -0.0095  0.1684 -0.2073
    1DIPC   GL122083  11.652  24.780   3.309 -0.0402 -0.0004 -0.0840
    1DIPC   GL222084  11.463  24.722   3.548  0.0321  0.1741  0.3434
    1DIPC   C1A22085  11.898  24.809   3.695  0.0901 -0.0283  0.1262
    1DIPC   D2A22086  12.168  24.910   4.011 -0.2257 -0.1167 -0.2901
    1DIPC   D3A22087  11.838  25.088   4.208 -0.2745 -0.0711 -0.0695
    1DIPC   C4A22088  11.684  25.152   4.547 -0.0677  0.0539 -0.0093
    1DIPC   C1B22089  11.507  25.124   3.789 -0.2257  0.0146  0.0180
    1DIPC   D2B22090  11.369  25.354   4.170 -0.2027  0.1483  0.1549
    1DIPC   D3B22091  11.379  24.839   4.203  0.2133  0.5006  0.0923
    1DIPC   C4B22092  11.026  24.684   4.384 -0.0508  0.3093 -0.2684
    1DIPC   NC322093  13.531   7.512   2.467 -0.1615  0.3674 -0.2130
    1DIPC   PO422094  13.793   7.766   2.742 -0.2783 -0.0254 -0.2231
    1DIPC   GL122095  13.900   8.085   3.025 -0.1100  0.2066  0.1129
    1DIPC   GL222096  13.811   8.398   3.100  0.1386 -0.2481  0.0921
    1DIPC   C1A22097  13.926   7.907   3.431 -0.3453  0.3389 -0.0588
    1DIPC   D2A22098  13.850   7.726   3.932 -0.2278 -0.0962  0.0836
    1DIPC   D3A22099  13.734   7.959   4.312  0.2387 -0.4319  0.1974
    1DIPC   C4A22100  13.406   7.734   4.589  0.3897 -0.0806 -0.1465
    1DIPC   C1B22101  13.741   8.418   3.505  0.3014  0.3298 -0.1392
    1DIPC   D2B22102  13.650   8.168   3.854  0.1472  0.1845  0.1376
    1DIPC   D3B22103  13.715   8.458   4.134  0.0160  0.2177 -0.0444
    1DIPC   C4B22104  14.091   8.354   4.265  0.2827 -0.1033 -0.0551
    1DIPC   NC322105  29.470  23.101   3.556  0.1158 -0.1054 -0.0023
    1DIPC   PO422106   0.169  22.853   3.491  0.0756  0.2850  0.1519
    1DIPC   GL122107   0.104  22.794   3.983 -0.1305 -0.1092  0.0973
    1DIPC   GL222108   0.421  23.009   4.110  0.1683 -0.1395  0.2066
    1DIPC   C1A22109  29.556  22.931   4.370 -0.1343 -0.1578 -0.3303
    1DIPC   D2A22110  29.511  23.096   4.685 -0.1420  0.1210  0.1729
    1DIPC   D3A22111   0.087  23.339   4.907  0.0782 -0.0392 -0.0674
    1DIPC   C4A22112  29.562  23.515   5.327  0.3665  0.2931 -0.0053
    1DIPC   C1B22113   0.468  23.063   4.488  0.3267  0.0312  0.0125
    1DIPC   D2B22114   0.663  23.268   4.851  0.0926 -0.0761  0.0993
    1DIPC   D3B22115   0.931  23.470   5.150  0.0405  0.0087 -0.0525
    1DIPC   C4B22116   1.312  23.411   5.060 -0.2786 -0.0660  0.1168
    1DIPC   NC322117   8.295  29.151   2.178 -0.2179  0.1227 -0.0131
    1DIPC   PO422118   7.869  29.212   2.421 -0.0888  0.2546  0.3995
    1DIPC   GL122119   7.654  29.010   2.807  0.0643 -0.2289  0.1306
    1DIPC   GL222120   7.642  28.689   2.852  0.0988 -0.0548 -0.2182
    1DIPC   C1A22121   7.475  29.415   3.126  0.3970 -0.2192  0.1093
    1DIPC   D2A22122   7.424  29.441   3.588 -0.3005 -0.0394  0.0768
    1DIPC   D3A22123   7.493   0.224   3.833 -0.2008  0.0809  0.1135
    1DIPC   C4A22124   7.392   0.613   3.656  0.2110 -0.0442  0.1034
    1DIPC   C1B22125   7.509  28.377   3.052 -0.2542  0.1872 -0.1210
    1DIPC   D2B22126   7.641  28.116   3.318  0.0899 -0.0221  0.1401
    1DIPC   D3B22127   7.560  28.421   3.621  0.0673  0.0808 -0.2583
    1DIPC   C4B22128   7.703  28.685   3.968  0.1803  0.0717 -0.0325
    1DIPC   NC322129   0.084  29.544   3.051  0.0717  0.0135 -0.0773
    1DIPC   PO422130  29.589  29.201   2.955  0.2824  0.1328  0.1275
    1DIPC   GL122131  29.499  29.320   3.424 -0.1206  0.0916  0.2282
    1DIPC   GL222132   0.141  29.363   3.667  0.0486 -0.2190 -0.1495
    1DIPC   C1A22133  29.245  29.408   3.744 -0.3860  0.1148 -0.0698
    1DIPC   D2A22134  29.152  29.291   4.114  0.0417  0.2465 -0.1818
    1DIPC   D3A22135  28.843  29.529   4.289 -0.1540 -0.0494  0.0440
    1DIPC   C4A22136  28.544   0.197   4.162 -0.0447 -0.1603  0.1376
    1DIPC   C1B22137   0.031  29.465   4.115 -0.0274  0.0384  0.3416
    1DIPC   D2B22138  29.446  29.444   4.501  0.1402  0.0329 -0.1447
    1DIPC   D3B22139  29.476  29.601   4.900  0.0212  0.2920  0.0590
    1DIPC   C4B22140  29.415   0.462   4.787 -0.1619 -0.0649 -0.0377
    1DIPC   NC322141   5.970   4.325   2.741 -0.0437 -0.2158  0.2211
    1DIPC   PO422142   6.132   4.742   2.513 -0.1392  0.1361  0.1321
    1DIPC   GL122143   6.202   4.748   2.989 -0.0235 -0.0006 -0.2139
    1DIPC   GL222144   5.964   4.510   3.187  0.5232  0.0067 -0.0146
    1DIPC   C1A22145   6.337   4.788   3.346 -0.3636  0.2207 -0.0667
    1DIPC   D2A22146   6.235   4.606   3.779  0.3068 -0.2215 -0.1082
    1DIPC   D3A22147   6.460   4.324   3.549  0.5943 -0.0977  0.0615
    1DIPC   C4A22148   6.540   4.347   3.117 -0.2782 -0.0090 -0.1311
    1DIPC   C1B22149   5.692   4.546   3.604  0.2712 -0.0054 -0.0268
    1DIPC   D2B22150   5.506   4.697   3.939  0.0812  0.3218  0.2342
    1DIPC   D3B22151   5.850   4.398   4.049  0.1960 -0.4401 -0.0065
    1DIPC   C4B22152   5.734   4.046   4.268 -0.1053  0.1377  0.1351
    1DIPC   NC322153  28.353  22.861   3.229  0.2942  0.0033 -0.0790
    1DIPC   PO422154  28.645  22.730   3.536 -0.3226 -0.1928 -0.0941
    1DIPC   GL122155  28.883  22.550   3.813 -0.1236  0.3336  0.1338
    1DIPC   GL222156  29.012  22.751   4.137 -0.1824 -0.0987  0.0187
    1DIPC   C1A22157  28.741  22.315   4.231  0.1282  0.1940  0.0634
    1DIPC   D2A22158  28.640  22.462   4.655  0.0500  0.0114  0.0589
    1DIPC   D3A22159  28.615  22.881   4.515 -0.1411  0.2504 -0.2765
    1DIPC   C4A22160  28.131  22.970   4.454 -0.1941  0.0409  0.0930
    1DIPC   C1B22161  29.177  22.638   4.510 -0.2961  0.0333 -0.2731
    1DIPC   D2B22162  29.221  22.409   4.899 -0.0980 -0.0565  0.0040
    1DIPC   D3B22163  29.223  22.693   5.187 -0.2231 -0.2185 -0.3413
    1DIPC   C4B22164  29.293  23.111   5.175  0.2414 -0.3314 -0.1077
    1DIPC   NC322165  27.823  28.835   3.064  0.1423 -0.0342  0.0651
    1DIPC   PO422166  28.038  29.145   3.328 -0.0201 -0.0348  0.0506
    1DIPC   GL122167  27.922  29.070   3.769 -0.1018 -0.0316 -0.0084
    1DIPC   GL222168  27.610  29.207   3.926  0.1146 -0.0470 -0.1318
    1DIPC   C1A22169  28.012  28.992   4.207  0.0297  0.1090 -0.1247
    1DIPC   D2A22170  28.243  28.901   4.474  0.2312  0.0085  0.0043
    1DIPC   D3A22171  28.085  29.232   4.790 -0.2295  0.1508 -0.2994
    1DIPC   C4A22172  27.764  29.442   5.080 -0.1425  0.0650 -0.0303
    1DIPC   C1B22173  27.360  29.143   4.243 -0.1955  0.4387 -0.4452
    1DIPC   D2B22174  27.627  29.118   4.640  0.2131  0.3316 -0.0544
    1DIPC   D3B22175  27.763  29.442   4.331 -0.0674  0.0858  0.4798
    1DIPC   C4B22176  28.176  29.514   4.340  0.0119  0.0561 -0.0639
    1DIPC   NC322177  25.927  18.840   3.265  0.0782 -0.1373  0.0587
    1DIPC   PO422178  26.418  18.998   3.248  0.0802  0.1296  0.1692
    1DIPC   GL122179  26.642  19.094   3.693 -0.1273 -0.2174 -0.3199
    1DIPC   GL222180  26.961  18.958   3.831 -0.2337 -0.2047  0.2656
    1DIPC   C1A22181  26.706  19.316   4.118  0.2286 -0.1434  0.0489
    1DIPC   D2A22182  26.826  19.516   4.448 -0.1279  0.2615  0.2165
    1DIPC   D3A22183  26.701  19.566   4.911 -0.3353 -0.1707 -0.0586
    1DIPC   C4A22184  26.884  19.945   5.144  0.2867 -0.1979 -0.2365
    1DIPC   C1B22185  27.167  19.091   4.245 -0.0803 -0.2305 -0.2114
    1DIPC   D2B22186  27.134  19.126   4.659 -0.1316  0.1330 -0.0244
    1DIPC   D3B22187  27.234  18.857   4.940  0.0697  0.0327  0.0906
    1DIPC   C4B22188  27.154  18.867   5.415  0.2538  0.1689 -0.0590
    1DIPC   NC322189  14.505   0.738   2.421 -0.1518  0.3270  0.3304
    1DIPC   PO422190  14.706   0.400   2.654 -0.0263  0.3740 -0.1017
    1DIPC   GL122191  14.781   0.305   3.058  0.0362 -0.0432  0.1757
    1DIPC   GL222192  14.922  29.615   3.050 -0.0065  0.0439  0.1810
    1DIPC   C1A22193  14.936   0.270   3.450  0.0571  0.0375  0.0870
    1DIPC   D2A22194  15.073  29.542   3.691 -0.0629 -0.3243 -0.1506
    1DIPC   D3A22195  15.269   0.097   4.018  0.1432  0.0828 -0.2669
    1DIPC   C4A22196  15.137   0.032   4.504 -0.1212  0.3270 -0.0024
    1DIPC   C1B22197  14.626  29.421   3.395  0.0991 -0.1310  0.0332
    1DIPC   D2B22198  14.302  29.304   3.661 -0.2581 -0.1079 -0.1105
    1DIPC   D3B22199  14.560  29.555   3.924 -0.0251  0.1494  0.5136
    1DIPC   C4B22200  14.536  29.559   4.364 -0.3591 -0.1479  0.0927
    1DIPC   NC322201   5.182  29.006   2.702 -0.3892 -0.4095 -0.1949
    1DIPC   PO422202   5.515  28.980   2.929  0.0697 -0.3121 -0.1336
    1DIPC   GL122203   5.580  29.206   3.243 -0.0050  0.2095 -0.1106
    1DIPC   GL222204   5.664  29.070   3.467  0.0904 -0.0682  0.0485
    1DIPC   C1A22205   5.407  29.463   3.629 -0.0254 -0.0117 -0.0029
    1DIPC   D2A22206   5.549  29.542   4.050  0.1025 -0.3079  0.1531
    1DIPC   D3A22207   5.950   0.232   4.016  0.0782  0.0500 -0.0814
    1DIPC   C4A22208   5.976   0.389   4.383 -0.3585 -0.0961 -0.0668
    1DIPC   C1B22209   5.432  28.955   3.788  0.0507  0.0521  0.0593
    1DIPC   D2B22210   5.508  28.905   4.207  0.1728  0.0147 -0.0016
    1DIPC   D3B22211   5.230  29.001   4.483  0.3159 -0.0431  0.0304
    1DIPC   C4B22212   5.341  29.455   4.510 -0.1351 -0.1024  0.1048
    1DIPC   NC322213   3.444   7.838   2.157  0.0575 -0.0920 -0.1537
    1DIPC   PO422214   3.837   7.665   2.238 -0.0812 -0.1993  0.0538
    1DIPC   GL122215   3.698   7.914   2.596 -0.1724  0.1918 -0.0340
    1DIPC   GL222216   3.985   8.133   2.562 -0.0353 -0.0646 -0.1726
    1DIPC   C1A22217   3.327   8.065   2.837  0.2092  0.1731  0.0481
    1DIPC   D2A22218   3.036   8.087   3.223 -0.1781 -0.0837 -0.1805
    1DIPC   D3A22219   2.796   7.751   3.423 -0.1189  0.0375  0.0039
    1DIPC   C4A22220   2.260   7.761   3.565 -0.0777  0.0572  0.1617
    1DIPC   C1B22221   3.929   8.149   3.082  0.0259  0.3928 -0.0074
    1DIPC   D2B22222   3.847   7.982   3.478 -0.0173  0.3155 -0.0848
    1DIPC   D3B22223   3.518   8.042   3.386 -0.1140 -0.3591 -0.3604
    1DIPC   C4B22224   3.445   8.285   3.737  0.0348  0.0267  0.0714
    1DIPC   NC322225  20.627   0.518   3.439  0.1133 -0.1597  0.1121
    1DIPC   PO422226  20.651   0.921   3.522  0.1366 -0.1569 -0.0302
    1DIPC   GL122227  20.605   0.904   4.039  0.0266 -0.2593 -0.1224
    1DIPC   GL222228  20.318   1.014   4.246 -0.2086 -0.1558  0.0842
    1DIPC   C1A22229  20.888   0.817   4.352 -0.2298 -0.1618 -0.0080
    1DIPC   D2A22230  21.021   0.578   4.599  0.0264 -0.0172 -0.1429
    1DIPC   D3A22231  21.075   0.757   5.092 -0.0285  0.1393 -0.1722
    1DIPC   C4A22232  21.088   0.537   5.500 -0.1968  0.1779 -0.2275
    1DIPC   C1B22233  20.282   0.852   4.640  0.1022 -0.2110  0.0735
    1DIPC   D2B22234  20.138   0.858   5.000  0.1151 -0.0042 -0.2375
    1DIPC   D3B22235  20.115   0.624   5.414 -0.0757 -0.0287 -0.0728
    1DIPC   C4B22236  20.028   0.904   5.763  0.2084 -0.0850 -0.1754
    1DIPC   NC322237   5.917  24.315   2.967  0.1128 -0.0947  0.0333
    1DIPC   PO422238   5.992  23.945   3.262 -0.1128  0.0502 -0.1048
    1DIPC   GL122239   6.222  23.920   3.541  0.0160 -0.0776 -0.0463
    1DIPC   GL222240   6.372  23.688   3.593  0.1450  0.0030 -0.1797
    1DIPC   C1A22241   6.111  23.935   4.046 -0.0087 -0.3935  0.1270
    1DIPC   D2A22242   5.864  23.894   4.420 -0.1087 -0.0448  0.3757
    1DIPC   D3A22243   5.584  23.922   4.893 -0.1231 -0.1519  0.2287
    1DIPC   C4A22244   5.536  24.449   5.059  0.0969  0.2007  0.1607
    1DIPC   C1B22245   6.218  23.446   3.864 -0.2775 -0.0085 -0.0385
    1DIPC   D2B22246   6.023  23.335   4.174  0.2218  0.1201  0.0525
    1DIPC   D3B22247   6.430  23.669   4.474 -0.0154  0.2478  0.0373
    1DIPC   C4B22248   6.783  23.730   4.816  0.4040 -0.0130 -0.2560
    1DIPC   NC322249  16.094  17.526   1.824  0.0194 -0.1324 -0.1689
    1DIPC   PO422250  15.919  17.613   2.205 -0.0709  0.0816 -0.1674
    1DIPC   GL122251  15.896  17.752   2.632 -0.1347  0.0566 -0.2404
    1DIPC   GL222252  16.017  17.569   2.704 -0.0003 -0.0005 -0.3083
    1DIPC   C1A22253  15.643  17.684   3.008 -0.1019 -0.0532  0.2259
    1DIPC   D2A22254  15.599  17.464   3.372  0.0804  0.4161 -0.0288
    1DIPC   D3A22255  15.559  17.496   3.770  0.0252 -0.2504  0.1964
    1DIPC   C4A22256  15.566  17.990   3.951 -0.3156  0.1528  0.0107
    1DIPC   C1B22257  16.308  17.335   2.868 -0.0718 -0.1375 -0.1191
    1DIPC   D2B22258  16.582  17.018   2.863 -0.2303  0.3331  0.1357
    1DIPC   D3B22259  16.186  16.926   3.191  0.3437 -0.1580 -0.2000
    1DIPC   C4B22260  15.774  17.149   3.050  0.0576  0.3550  0.0248
    1DIPC   NC322261   6.486  27.269   2.443 -0.1334  0.1120 -0.1925
    1DIPC   PO422262   6.595  27.780   2.473 -0.3315 -0.0002  0.0821
    1DIPC   GL122263   6.685  27.543   2.890 -0.3506  0.2160 -0.1003
    1DIPC   GL222264   6.746  27.177   3.017 -0.0823  0.0820  0.0872
    1DIPC   C1A22265   7.014  27.859   3.025 -0.1577 -0.0082 -0.3339
    1DIPC   D2A22266   7.241  27.860   3.407  0.0009  0.1113  0.0992
    1DIPC   D3A22267   7.124  28.255   3.368  0.0178 -0.0668  0.0953
    1DIPC   C4A22268   6.851  28.302   2.997 -0.0692  0.1003  0.0181
    1DIPC   C1B22269   6.762  26.879   3.381 -0.0344 -0.2307 -0.2423
    1DIPC   D2B22270   6.532  26.537   3.650 -0.1945 -0.4725  0.0769
    1DIPC   D3B22271   6.237  26.150   3.528 -0.0111  0.0654  0.0862
    1DIPC   C4B22272   5.718  26.131   3.610  0.0913 -0.1030 -0.2582
    1DIPC   NC322273  17.822  21.522   2.925 -0.0579 -0.1955  0.0626
    1DIPC   PO422274  17.786  22.011   2.945 -0.0194  0.1281 -0.1330
    1DIPC   GL122275  17.480  21.749   3.209  0.0286 -0.4981  0.2482
    1DIPC   GL222276  17.753  21.730   3.427  0.0385  0.0298  0.0633
    1DIPC   C1A22277  17.286  21.524   3.461 -0.0669  0.0853  0.0219
    1DIPC   D2A22278  17.158  21.135   3.641 -0.0031  0.0279  0.1505
    1DIPC   D3A22279  17.534  21.272   3.924 -0.0467 -0.1612  0.2387
    1DIPC   C4A22280  17.747  20.990   4.159  0.0752 -0.0344  0.2955
    1DIPC   C1B22281  17.490  21.774   3.835  0.0727  0.1052  0.0099
    1DIPC   D2B22282  17.374  22.125   4.304  0.2943 -0.1093 -0.1114
    1DIPC   D3B22283  17.130  21.934   4.574  0.2382 -0.0399  0.2390
    1DIPC   C4B22284  16.800  21.610   4.650 -0.1679  0.0876  0.1686
    1DIPC   NC322285   4.216  29.055   2.995 -0.0460 -0.0279  0.1749
    1DIPC   PO422286   4.400  28.618   2.814 -0.0187 -0.1957 -0.4383
    1DIPC   GL122287   4.423  28.687   3.268 -0.0837  0.1095  0.0358
    1DIPC   GL222288   4.267  28.530   3.606 -0.0758  0.2282  0.0791
    1DIPC   C1A22289   4.671  28.812   3.488  0.0636 -0.1642 -0.0324
    1DIPC   D2A22290   4.940  28.824   3.833  0.0249  0.0286  0.2964
    1DIPC   D3A22291   5.123  28.640   4.124  0.1263 -0.1687 -0.0565
    1DIPC   C4A22292   5.499  28.495   3.942 -0.1351  0.0513  0.1038
    1DIPC   C1B22293   4.376  28.373   3.940  0.3813 -0.0797 -0.1721
    1DIPC   D2B22294   4.469  28.492   4.421  0.1681  0.1936  0.2123
    1DIPC   D3B22295   4.035  28.433   4.616 -0.1942 -0.0747 -0.3032
    1DIPC   C4B22296   3.918  28.170   4.382 -0.0800  0.1506 -0.2608
    1DIPC   NC322297  26.823  21.825   3.132  0.0973  0.2963 -0.4277
    1DIPC   PO422298  26.977  21.946   3.564 -0.0713 -0.1634 -0.1839
    1DIPC   GL122299  27.079  22.014   3.993  0.1794 -0.0870  0.4170
    1DIPC   GL222300  26.974  22.189   4.254 -0.1518 -0.1693  0.2142
    1DIPC   C1A22301  27.393  21.891   4.314 -0.2899  0.3327  0.0566
    1DIPC   D2A22302  27.613  22.056   4.659  0.1092 -0.1214 -0.0456
    1DIPC   D3A22303  27.275  22.317   4.626 -0.2220  0.2171 -0.0591
    1DIPC   C4A22304  27.299  22.508   5.067 -0.3557 -0.1247  0.1313
    1DIPC   C1B22305  26.669  22.270   4.556  0.1644 -0.2988 -0.0584
    1DIPC   D2B22306  26.345  22.386   4.878 -0.1221  0.0307  0.1065
    1DIPC   D3B22307  26.298  21.918   4.979  0.3616 -0.2755  0.1408
    1DIPC   C4B22308  26.559  21.707   4.741  0.2577  0.4744 -0.1278
    1DIPC   NC322309  15.430   0.803   2.589  0.0585 -0.0679 -0.0155
    1DIPC   PO422310  15.716   0.542   2.766 -0.1566  0.0312 -0.0493
    1DIPC   GL122311  15.654   0.598   3.224  0.1362  0.1224  0.1147
    1DIPC   GL222312  15.386   0.551   3.276 -0.2715 -0.0836 -0.0662
    1DIPC   C1A22313  15.863   0.813   3.533 -0.3307  0.0376  0.0172
    1DIPC   D2A22314  16.197   1.045   3.691 -0.2133 -0.1247 -0.0989
    1DIPC   D3A22315  16.355   1.182   4.054 -0.1186 -0.2782  0.0812
    1DIPC   C4A22316  16.077   1.155   4.437 -0.0017 -0.0814  0.1788
    1DIPC   C1B22317  15.086   0.612   3.806 -0.0229 -0.0229  0.0640
    1DIPC   D2B22318  14.826   0.303   4.163  0.0923 -0.0103 -0.0795
    1DIPC   D3B22319  15.182   0.553   4.317 -0.2770 -0.1981  0.1905
    1DIPC   C4B22320  15.275   0.625   4.751 -0.2814  0.2963 -0.0192
    1DIPC   NC322321  23.004  18.008   3.326  0.1535 -0.0254 -0.1816
    1DIPC   PO422322  23.016  18.398   3.487  0.1262 -0.2886  0.1145
    1DIPC   GL122323  22.822  18.567   3.752 -0.5277 -0.1583  0.2282
    1DIPC   GL222324  22.558  18.298   3.801  0.2393  0.1462 -0.0190
    1DIPC   C1A22325  22.696  18.793   4.075  0.0986 -0.3271 -0.1250
    1DIPC   D2A22326  22.946  18.895   4.439  0.0408 -0.0891 -0.0434
    1DIPC   D3A22327  22.468  19.100   4.446 -0.0661 -0.0371 -0.3750
    1DIPC   C4A22328  22.265  19.255   4.157 -0.1470 -0.1323  0.0948
    1DIPC   C1B22329  22.498  18.436   4.310 -0.1760  0.1783  0.0465
    1DIPC   D2B22330  22.541  18.587   4.756  0.1448 -0.0705  0.1966
    1DIPC   D3B22331  22.749  18.815   4.939 -0.0162 -0.1370  0.1361
    1DIPC   C4B22332  22.603  18.916   5.369 -0.1782  0.0344  0.0826
    1DIPC   NC322333   8.380  21.576   3.179  0.1136  0.1132  0.0395
    1DIPC   PO422334   8.785  21.379   3.102 -0.1567 -0.1062  0.2151
    1DIPC   GL122335   8.783  21.558   3.508 -0.0011  0.2203  0.1664
    1DIPC   GL222336   8.550  21.752   3.634  0.1620  0.3402  0.3681
    1DIPC   C1A22337   9.008  21.622   4.005  0.1229 -0.1066 -0.4012
    1DIPC   D2A22338   9.172  21.511   4.414 -0.0699  0.0351  0.2468
    1DIPC   D3A22339   8.879  21.561   4.750  0.2242  0.0695  0.4330
    1DIPC   C4A22340   8.656  21.280   4.942  0.0295  0.1498 -0.0804
    1DIPC   C1B22341   8.897  22.065   3.715 -0.1419 -0.2741  0.2674
    1DIPC   D2B22342   9.321  21.992   3.969  0.1468 -0.1816 -0.2134
    1DIPC   D3B22343   9.043  22.139   4.305  0.1696 -0.1075  0.4319
    1DIPC   C4B22344   8.683  22.068   4.153  0.0235 -0.0435  0.0946
    1DIPC   NC322345   7.805   1.703   2.082 -0.0177  0.0553  0.0542
    1DIPC   PO422346   8.297   1.763   2.257 -0.0727  0.1624 -0.0706
    1DIPC   GL122347   8.321   1.621   2.651  0.1058 -0.2830  0.0827
    1DIPC   GL222348   8.308   1.263   2.635 -0.2490 -0.1853  0.1107
    1DIPC   C1A22349   8.511   1.665   2.946 -0.0483 -0.0106  0.0416
    1DIPC   D2A22350   8.699   1.830   3.380  0.1150 -0.2166  0.0493
    1DIPC   D3A22351   8.861   1.955   3.794  0.1008  0.3264  0.2318
    1DIPC   C4A22352   9.319   1.983   3.953 -0.0092  0.1329 -0.0690
    1DIPC   C1B22353   8.249   1.182   3.016 -0.0359 -0.1900  0.3856
    1DIPC   D2B22354   8.518   1.299   3.410 -0.0482 -0.1799 -0.1003
    1DIPC   D3B22355   8.851   1.407   3.671 -0.1101 -0.1163  0.0351
    1DIPC   C4B22356   9.174   1.082   3.918 -0.1573  0.0162  0.1618
    1DIPC   NC322357  13.411   0.164   2.757  0.1252  0.2284  0.0913
    1DIPC   PO422358  13.841   0.013   2.879 -0.1853  0.2077  0.0417
    1DIPC   GL122359  13.695  29.519   3.199 -0.2107  0.3443 -0.1084
    1DIPC   GL222360  13.640   0.138   3.538 -0.3067  0.2109 -0.3225
    1DIPC   C1A22361  13.694  29.208   3.451 -0.3343 -0.0724 -0.2200
    1DIPC   D2A22362  13.833  28.792   3.531 -0.3181  0.1281  0.0941
    1DIPC   D3A22363  13.585  28.728   3.225  0.1637 -0.0786  0.3068
    1DIPC   C4A22364  13.523  28.318   3.266 -0.0393  0.1980 -0.3377
    1DIPC   C1B22365  13.828  29.490   3.870 -0.1084  0.0022 -0.2563
    1DIPC   D2B22366  14.011  29.382   4.341  0.0852 -0.0106  0.0708
    1DIPC   D3B22367  14.092  28.949   4.450  0.2591 -0.2783  0.3190
    1DIPC   C4B22368  14.566  28.710   4.542  0.2262  0.3502  0.2787
    1DIPC   NC322369  14.564   5.873   2.645  0.1828  0.1067 -0.0393
    1DIPC   PO422370  14.946   6.007   2.561 -0.2743  0.2023  0.2495
    1DIPC   GL122371  15.039   5.909   2.941 -0.1019 -0.0607  0.0979
    1DIPC   GL222372  15.263   6.138   2.917 -0.3169 -0.2520  0.3884
    1DIPC   C1A22373  14.877   6.001   3.314  0.0402  0.1581  0.1811
    1DIPC   D2A22374  14.875   6.458   3.498  0.0883  0.0720  0.0569
    1DIPC   D3A22375  14.439   6.397   3.587  0.0283  0.0625 -0.3189
    1DIPC   C4A22376  14.267   6.129   3.929  0.1164  0.0983  0.1068
    1DIPC   C1B22377  15.469   5.829   3.249 -0.1405  0.1731 -0.1217
    1DIPC   D2B22378  15.584   5.832   3.643  0.0796  0.2617 -0.0793
    1DIPC   D3B22379  15.373   5.745   4.036 -0.6299  0.1785  0.2985
    1DIPC   C4B22380  15.611   5.880   4.377  0.0406  0.1220 -0.1042
    1DIPC   NC322381  27.104  23.648   3.292 -0.2136 -0.2539  0.2124
    1DIPC   PO422382  27.436  23.891   3.345  0.0498 -0.1917  0.1154
    1DIPC   GL122383  27.544  24.227   3.625  0.2486  0.0056  0.1407
    1DIPC   GL222384  27.417  24.209   3.944 -0.2449 -0.0218  0.3198
    1DIPC   C1A22385  27.852  24.491   3.877 -0.0216 -0.0076 -0.4127
    1DIPC   D2A22386  28.075  24.771   4.204  0.1844 -0.1418 -0.0109
    1DIPC   D3A22387  27.967  25.181   4.237 -0.0637  0.1894 -0.2133
    1DIPC   C4A22388  27.894  25.391   4.585  0.1863 -0.2841 -0.0436
    1DIPC   C1B22389  27.246  24.341   4.406  0.0217  0.2701  0.1992
    1DIPC   D2B22390  27.116  24.608   4.746 -0.2101  0.1888  0.0851
    1DIPC   D3B22391  26.796  25.003   4.697  0.0622  0.2509 -0.2119
    1DIPC   C4B22392  26.484  24.927   4.989 -0.1718 -0.0911 -0.3248
    1DIPC   NC322393  15.364  26.860   2.232  0.1773 -0.0826  0.1387
    1DIPC   PO422394  15.131  26.980   2.586  0.0472  0.3350  0.1234
    1DIPC   GL122395  15.200  27.072   2.953 -0.1143  0.0262  0.1153
    1DIPC   GL222396  14.925  26.914   3.300 -0.1626 -0.1352  0.1538
    1DIPC   C1A22397  15.518  27.191   3.202 -0.0216  0.3852  0.0206
    1DIPC   D2A22398  15.606  26.997   3.594 -0.1421  0.3183  0.1551
    1DIPC   D3A22399  15.531  27.347   3.916 -0.0941 -0.0972  0.4422
    1DIPC   C4A22400  15.090  27.464   4.093 -0.0751  0.1556 -0.1074
    1DIPC   C1B22401  14.690  26.747   3.633 -0.2681  0.1733  0.1525
    1DIPC   D2B22402  14.771  26.930   4.103  0.0236  0.1437  0.2742
    1DIPC   D3B22403  15.210  26.976   4.370 -0.1051  0.1433  0.2216
    1DIPC   C4B22404  15.076  26.835   4.763 -0.0057 -0.1185  0.3762
    1DIPC   NC322405   8.407   7.667   2.358 -0.1186 -0.1792  0.0110
    1DIPC   PO422406   8.160   8.138   2.408  0.3057 -0.0125  0.3007
    1DIPC   GL122407   8.265   7.990   2.791  0.3674  0.0995 -0.0927
    1DIPC   GL222408   8.030   7.803   2.999  0.1731  0.1749  0.2915
    1DIPC   C1A22409   8.444   8.221   3.125  0.1211 -0.2003  0.0084
    1DIPC   D2A22410   8.430   8.352   3.580 -0.0591  0.1977 -0.2530
    1DIPC   D3A22411   8.278   8.721   3.251  0.1045 -0.1851 -0.1326
    1DIPC   C4A22412   8.017   8.671   2.951 -0.0264  0.1950  0.1004
    1DIPC   C1B22413   8.145   7.762   3.420 -0.3107 -0.1147  0.3240
    1DIPC   D2B22414   8.425   7.781   3.789 -0.1489 -0.1589 -0.0778
    1DIPC   D3B22415   8.381   8.202   4.133 -0.0294  0.0204 -0.0005
    1DIPC   C4B22416   8.530   8.649   4.050 -0.2628 -0.1212 -0.1328
    1DIPC   NC322417  23.421  28.150   3.245  0.0968  0.0534 -0.2402
    1DIPC   PO422418  23.081  27.870   3.310 -0.2477 -0.3064 -0.2584
    1DIPC   GL122419  22.992  28.000   3.769 -0.1449  0.2002  0.0553
    1DIPC   GL222420  22.660  28.030   3.678  0.2907  0.1184 -0.2463
    1DIPC   C1A22421  23.128  27.982   4.086  0.1404  0.3210  0.3617
    1DIPC   D2A22422  23.436  28.197   4.371 -0.1456 -0.2724  0.0798
    1DIPC   D3A22423  23.312  27.984   4.711  0.0939 -0.0090 -0.0037
    1DIPC   C4A22424  23.441  27.963   5.124  0.0680 -0.0567 -0.0442
    1DIPC   C1B22425  22.630  27.988   4.178 -0.1566 -0.0372 -0.1240
    1DIPC   D2B22426  22.817  27.852   4.562  0.0578 -0.1620 -0.2702
    1DIPC   D3B22427  22.775  27.426   4.608 -0.1786 -0.0563  0.2380
    1DIPC   C4B22428  22.763  27.312   5.107 -0.4405  0.0705 -0.2592
    1DIPC   NC322429  15.586   2.522   2.480  0.3474  0.1005  0.1719
    1DIPC   PO422430  15.718   2.948   2.693 -0.0054  0.0221 -0.1998
    1DIPC   GL122431  15.831   2.799   3.097 -0.0097  0.0581  0.0223
    1DIPC   GL222432  16.014   2.510   3.177  0.3463 -0.2915  0.1859
    1DIPC   C1A22433  15.693   2.795   3.484 -0.2555  0.4085  0.0358
    1DIPC   D2A22434  15.494   2.701   3.830 -0.1612 -0.0843 -0.1208
    1DIPC   D3A22435  15.120   2.936   3.729 -0.1882 -0.0442 -0.0168
    1DIPC   C4A22436  14.705   2.825   3.821 -0.1463 -0.2860 -0.0955
    1DIPC   C1B22437  16.159   2.655   3.565 -0.1005  0.0447  0.3542
    1DIPC   D2B22438  16.170   2.598   3.994  0.0257  0.1103  0.0303
    1DIPC   D3B22439  16.520   2.851   4.035 -0.2312 -0.1542  0.0980
    1DIPC   C4B22440  16.783   2.996   3.656 -0.0439 -0.3659 -0.2387
    1DIPC   NC322441  12.759   7.813   1.958 -0.0591 -0.1405 -0.1231
    1DIPC   PO422442  12.944   8.063   2.360  0.1808 -0.2280  0.1371
    1DIPC   GL122443  13.221   7.869   2.607 -0.0592  0.3548 -0.0172
    1DIPC   GL222444  13.390   8.162   2.914  0.0189 -0.2949 -0.0171
    1DIPC   C1A22445  13.113   7.761   3.027 -0.3082  0.0692  0.3549
    1DIPC   D2A22446  12.875   7.892   3.365 -0.1147 -0.3865  0.2140
    1DIPC   D3A22447  12.594   8.300   3.395 -0.1932  0.0622  0.1890
    1DIPC   C4A22448  12.423   8.639   3.690  0.0162  0.0785 -0.0191
    1DIPC   C1B22449  13.414   8.014   3.301  0.1616 -0.0143 -0.3218
    1DIPC   D2B22450  13.458   7.691   3.616  0.0470 -0.1992 -0.0089
    1DIPC   D3B22451  13.305   7.859   4.095  0.1653 -0.0706 -0.0224
    1DIPC   C4B22452  12.967   7.740   4.266 -0.0426  0.0033 -0.4571
    1DIPC   NC322453  29.595  18.954   3.138  0.1821  0.0589 -0.1281
    1DIPC   PO422454  29.393  18.672   3.441  0.0306  0.2927  0.1318
    1DIPC   GL122455  29.318  18.641   3.881  0.0018 -0.0155  0.3819
    1DIPC   GL222456  29.313  18.902   4.135 -0.0548 -0.2929  0.3393
    1DIPC   C1A22457  29.193  18.329   4.163 -0.0666  0.0305  0.1197
    1DIPC   D2A22458  29.600  18.130   4.437  0.0038 -0.1691 -0.1865
    1DIPC   D3A22459   0.026  18.297   4.791  0.1341 -0.0443 -0.1209
    1DIPC   C4A22460   0.313  18.578   4.973  0.1960 -0.1151 -0.0774
    1DIPC   C1B22461  29.026  18.812   4.522  0.0327  0.2251  0.1166
    1DIPC   D2B22462  28.651  18.643   4.723  0.0338 -0.0521  0.2586
    1DIPC   D3B22463  28.739  18.374   5.091 -0.0284  0.0390 -0.1490
    1DIPC   C4B22464  28.464  17.925   5.302  0.2067 -0.1943  0.0438
    1DIPC   NC322465  29.360  21.467   3.701 -0.0935  0.1640 -0.1402
    1DIPC   PO422466   0.179  21.410   3.851  0.0937  0.0276  0.2924
    1DIPC   GL122467   0.187  21.430   4.286  0.2173  0.2129 -0.0900
    1DIPC   GL222468  29.453  21.509   4.427 -0.1125 -0.0754 -0.2049
    1DIPC   C1A22469   0.241  21.548   4.659  0.1490 -0.0887  0.0175
    1DIPC   D2A22470   0.121  21.392   5.020  0.0884  0.0065  0.2757
    1DIPC   D3A22471   0.174  21.736   5.222 -0.0995  0.1302 -0.1221
    1DIPC   C4A22472   0.081  21.936   5.482 -0.1757  0.0305  0.3830
    1DIPC   C1B22473  29.369  21.686   4.815  0.0082  0.1081  0.0638
    1DIPC   D2B22474  29.284  21.874   5.200 -0.1654  0.0297 -0.0863
    1DIPC   D3B22475  29.399  21.570   5.500 -0.0745 -0.1295  0.3617
    1DIPC   C4B22476  29.233  21.572   5.967  0.1257  0.0122  0.0022
    1DIPC   NC322477  10.744  27.384   2.747  0.1040  0.3371 -0.0860
    1DIPC   PO422478  10.436  27.111   2.873 -0.3731 -0.0432  0.0253
    1DIPC   GL122479  10.391  27.205   3.223 -0.2240  0.0437 -0.3265
    1DIPC   GL222480  10.061  27.099   3.280 -0.0982 -0.1892  0.4334
    1DIPC   C1A22481  10.359  27.234   3.668 -0.2954  0.1661 -0.1006
    1DIPC   D2A22482  10.383  27.290   4.153 -0.0398  0.1793 -0.3872
    1DIPC   D3A22483  10.214  27.683   4.077 -0.1925 -0.1823 -0.1150
    1DIPC   C4A22484  10.082  27.723   3.715  0.1264 -0.1717  0.1619
    1DIPC   C1B22485   9.849  27.312   3.686 -0.2284  0.4212 -0.2488
    1DIPC   D2B22486   9.764  27.397   4.062  0.0722 -0.0106  0.0856
    1DIPC   D3B22487   9.833  27.518   4.490  0.1121  0.0130 -0.1516
    1DIPC   C4B22488  10.187  27.823   4.583  0.0846  0.0267 -0.1823
    1DIPC   NC322489  10.501  17.063   2.176 -0.3128 -0.1047 -0.0606
    1DIPC   PO422490  10.586  17.094   2.577 -0.4419 -0.1457 -0.3883
    1DIPC   GL122491  10.568  16.980   2.988 -0.2243  0.1448 -0.1776
    1DIPC   GL222492  10.566  16.563   3.060 -0.0692  0.1306 -0.1297
    1DIPC   C1A22493  10.707  17.062   3.411  0.1274  0.2236  0.0259
    1DIPC   D2A22494  10.862  16.954   3.792  0.0501 -0.0942  0.1021
    1DIPC   D3A22495  11.207  16.902   3.717 -0.0807 -0.3443  0.1085
    1DIPC   C4A22496  11.244  16.986   3.338 -0.1767  0.1330 -0.2548
    1DIPC   C1B22497  10.696  16.391   3.497 -0.4405 -0.1919 -0.0080
    1DIPC   D2B22498  10.712  16.488   3.967 -0.2060  0.1286 -0.0234
    1DIPC   D3B22499  11.100  16.655   4.127  0.1722 -0.0421  0.3277
    1DIPC   C4B22500  11.316  16.785   4.531 -0.3194  0.2468 -0.1377
    1DIPC   NC322501  15.509   1.573   2.286  0.3246  0.1519  0.3110
    1DIPC   PO422502  15.388   1.377   2.646  0.2609 -0.3128 -0.0458
    1DIPC   GL122503  15.408   1.394   3.046  0.0441  0.0986 -0.1765
    1DIPC   GL222504  15.592   1.688   3.055 -0.1741  0.0840 -0.2124
    1DIPC   C1A22505  15.315   1.511   3.541  0.0199 -0.2031  0.0156
    1DIPC   D2A22506  15.272   1.438   4.047 -0.1527  0.0605 -0.2264
    1DIPC   D3A22507  14.902   1.377   4.208 -0.1423  0.0321  0.1205
    1DIPC   C4A22508  14.844   0.921   4.106 -0.1641  0.2111  0.0122
    1DIPC   C1B22509  15.799   1.313   3.381  0.1484 -0.2182  0.2163
    1DIPC   D2B22510  15.764   1.356   3.808 -0.2049 -0.0569 -0.2990
    1DIPC   D3B22511  15.424   1.043   3.786 -0.1724  0.1214 -0.0764
    1DIPC   C4B22512  15.343   1.031   3.378 -0.3268 -0.1800  0.3074
    1DIPC   NC322513  28.013  26.144   3.510  0.5427 -0.2922  0.0793
    1DIPC   PO422514  28.175  26.387   3.715 -0.0603  0.2886  0.1219
    1DIPC   GL122515  27.830  26.517   3.914 -0.0381 -0.2569 -0.0444
    1DIPC   GL222516  27.678  26.135   3.998  0.3526  0.0548 -0.3574
    1DIPC   C1A22517  27.989  26.414   4.331 -0.0391  0.0714  0.0551
    1DIPC   D2A22518  28.090  26.362   4.674  0.3426  0.1763  0.0292
    1DIPC   D3A22519  28.357  26.559   5.005  0.2740  0.1222  0.0413
    1DIPC   C4A22520  28.186  26.417   5.447 -0.0154 -0.3588 -0.2087
    1DIPC   C1B22521  27.256  26.280   3.911 -0.0224  0.0850 -0.2696
    1DIPC   D2B22522  27.007  26.529   3.799 -0.3459 -0.1852  0.0485
    1DIPC   D3B22523  27.279  26.714   4.006  0.0788 -0.0687 -0.0021
    1DIPC   C4B22524  27.513  26.649   4.250 -0.2132  0.0055  0.2821
    1DIPC   NC322525   9.390   5.971   2.001  0.2605  0.1620 -0.1657
    1DIPC   PO422526   9.229   6.289   2.360  0.0057 -0.2167 -0.0916
    1DIPC   GL122527   9.398   6.354   2.667 -0.0926  0.1910  0.1161
    1DIPC   GL222528   9.160   6.520   2.903  0.0656  0.0876  0.1351
    1DIPC   C1A22529   9.587   6.223   2.966  0.1381 -0.1850 -0.1582
    1DIPC   D2A22530   9.807   6.115   3.261 -0.2425 -0.0723  0.2231
    1DIPC   D3A22531   9.709   5.805   3.570  0.2478  0.0107 -0.0240
    1DIPC   C4A22532   9.413   5.975   3.828  0.0703 -0.2471 -0.3557
    1DIPC   C1B22533   8.976   6.690   3.263 -0.0342  0.0258 -0.1898
    1DIPC   D2B22534   8.792   7.044   3.448  0.1246  0.2352  0.0950
    1DIPC   D3B22535   8.704   6.671   3.695  0.0409 -0.2911 -0.2329
    1DIPC   C4B22536   8.247   6.506   3.808 -0.0163  0.1262  0.3535
    1DIPC   NC322537   4.411   0.063   2.528  0.2529 -0.2424 -0.2151
    1DIPC   PO422538   3.875   0.051   2.611 -0.2622  0.1520  0.0837
    1DIPC   GL122539   4.033  29.528   3.046  0.0759  0.0274 -0.0097
    1DIPC   GL222540   3.689  29.559   3.093  0.0013 -0.0924 -0.2224
    1DIPC   C1A22541   4.096   0.042   3.504 -0.0693 -0.0557 -0.1478
    1DIPC   D2A22542   3.924  29.473   3.886 -0.1860 -0.2734 -0.2369
    1DIPC   D3A22543   3.666  29.388   4.190  0.0016 -0.1505  0.1513
    1DIPC   C4A22544   3.465   0.072   4.460 -0.2801  0.0740  0.1571
    1DIPC   C1B22545   3.314   0.138   3.173 -0.2862  0.0063  0.3404
    1DIPC   D2B22546   3.134   0.489   3.403  0.0868  0.1862  0.0054
    1DIPC   D3B22547   2.784   0.294   3.707  0.3868  0.1537  0.2271
    1DIPC   C4B22548   2.471   0.177   4.100 -0.0556 -0.0794 -0.0369
    1DIPC   NC322549   7.549  25.201   2.787 -0.4137  0.1026  0.2163
    1DIPC   PO422550   7.669  25.609   3.072 -0.2349 -0.0620  0.0589
    1DIPC   GL122551   7.718  25.546   3.481 -0.0333  0.0509 -0.0229
    1DIPC   GL222552   7.343  25.612   3.599 -0.0653  0.2573 -0.1959
    1DIPC   C1A22553   7.722  25.231   3.763 -0.0582  0.0302 -0.3513
    1DIPC   D2A22554   8.119  25.008   3.866 -0.0529 -0.1006  0.0339
    1DIPC   D3A22555   8.075  25.206   4.262  0.0899  0.0462 -0.3847
    1DIPC   C4A22556   7.604  25.212   4.364 -0.0938 -0.0205  0.0649
    1DIPC   C1B22557   7.229  26.056   3.724 -0.1864 -0.0253  0.1525
    1DIPC   D2B22558   7.020  26.496   3.756 -0.0088 -0.1751 -0.1889
    1DIPC   D3B22559   6.886  26.199   4.142  0.0080  0.0453 -0.2642
    1DIPC   C4B22560   6.744  25.842   4.047  0.1826  0.1720 -0.3928
    1DIPC   NC322561   9.839  12.626   2.260  0.1380 -0.0647  0.0155
    1DIPC   PO422562   9.394  12.569   2.220  0.2144  0.0435 -0.1339
    1DIPC   GL122563   9.200  12.668   2.541 -0.0482 -0.0950 -0.1196
    1DIPC   GL222564   9.525  12.733   2.638 -0.1744  0.2726  0.0113
    1DIPC   C1A22565   9.205  12.890   2.933  0.3013 -0.0384 -0.1442
    1DIPC   D2A22566   9.276  12.704   3.283  0.0692 -0.0923  0.0205
    1DIPC   D3A22567   9.111  12.365   3.187 -0.2278  0.1415 -0.3762
    1DIPC   C4A22568   9.173  12.172   2.796  0.1263 -0.1486  0.0775
    1DIPC   C1B22569   9.566  12.458   2.971  0.1025  0.0904 -0.0123
    1DIPC   D2B22570   9.662  12.294   3.439 -0.2297  0.0410 -0.2542
    1DIPC   D3B22571   9.576  12.661   3.671  0.1380 -0.1253  0.1195
    1DIPC   C4B22572   9.478  13.158   3.584 -0.3302  0.2922  0.4065
    1DIPC   NC322573   5.704   0.188   2.737  0.1179 -0.1660  0.0801
    1DIPC   PO422574   5.466   0.473   2.823  0.3563  0.0901 -0.1299
    1DIPC   GL122575   5.566   0.174   3.208 -0.0802 -0.0485 -0.1444
    1DIPC   GL222576   5.852   0.014   3.248  0.1980 -0.0178  0.1210
    1DIPC   C1A22577   5.593   0.339   3.599  0.0937  0.2673  0.1501
    1DIPC   D2A22578   5.430   0.583   3.763  0.0050 -0.4559  0.1103
    1DIPC   D3A22579   5.598   0.582   4.122 -0.0441 -0.2419  0.0211
    1DIPC   C4A22580   5.512   0.278   4.393  0.2328 -0.0556 -0.1692
    1DIPC   C1B22581   5.939  29.513   3.639  0.1742  0.2124  0.0249
    1DIPC   D2B22582   5.984  29.204   4.016  0.1282  0.1097  0.1772
    1DIPC   D3B22583   5.888  28.848   3.829 -0.0598 -0.0250  0.2902
    1DIPC   C4B22584   5.994  28.403   3.940 -0.1509  0.5202  0.0418
    1DIPC   NC322585  10.633  25.399   2.646 -0.2755 -0.3318 -0.1447
    1DIPC   PO422586  10.340  25.684   2.755  0.0249 -0.2012 -0.1211
    1DIPC   GL122587  10.333  25.638   3.149  0.0924  0.0399  0.0867
    1DIPC   GL222588  10.741  25.674   3.173  0.2174 -0.1476  0.2104
    1DIPC   C1A22589  10.170  25.845   3.489  0.0112 -0.2699 -0.1636
    1DIPC   D2A22590   9.872  25.927   3.786  0.2446  0.1477  0.1661
    1DIPC   D3A22591  10.108  26.244   3.823 -0.3878  0.1580 -0.1861
    1DIPC   C4A22592  10.485  26.233   3.799 -0.0024  0.0328  0.0828
    1DIPC   C1B22593  10.659  25.953   3.418 -0.0761 -0.1969 -0.2297
    1DIPC   D2B22594  10.595  26.331   3.265  0.2929  0.1739  0.1809
    1DIPC   D3B22595  10.697  26.782   3.541 -0.1337 -0.2871 -0.2289
    1DIPC   C4B22596  10.569  26.830   3.909  0.3159 -0.2087 -0.0902
    1DIPC   NC322597  11.741  17.393   1.878  0.2272  0.1983  0.0568
    1DIPC   PO422598  11.582  17.414   2.291 -0.2201  0.3532 -0.3879
    1DIPC   GL122599  11.803  17.390   2.731 -0.0831 -0.0554  0.0940
    1DIPC   GL222600  11.804  17.597   2.939  0.0436 -0.3290 -0.0097
    1DIPC   C1A22601  11.683  17.136   3.124 -0.0599 -0.1903 -0.1559
    1DIPC   D2A22602  11.632  17.137   3.569  0.0567  0.0828 -0.0698
    1DIPC   D3A22603  11.687  17.270   3.973 -0.1056 -0.0054  0.4170
    1DIPC   C4A22604  12.016  17.104   4.090  0.1081 -0.1390 -0.2345
    1DIPC   C1B22605  11.450  17.576   3.277 -0.0689  0.1594  0.1518
    1DIPC   D2B22606  11.529  17.661   3.715  0.5118 -0.3955 -0.1288
    1DIPC   D3B22607  11.928  17.478   3.435 -0.2216 -0.3392 -0.2022
    1DIPC   C4B22608  12.142  17.126   3.644  0.1864  0.2244 -0.0705
    1DIPC   NC322609  24.966  21.816   3.765  0.1897 -0.1954 -0.1504
    1DIPC   PO422610  24.683  22.124   3.649  0.1530  0.0803  0.0996
    1DIPC   GL122611  24.533  21.833   4.015 -0.0038  0.1718  0.0487
    1DIPC   GL222612  24.633  21.552   4.083 -0.0525 -0.2261  0.1496
    1DIPC   C1A22613  24.214  21.708   4.304  0.4981  0.0275 -0.2096
    1DIPC   D2A22614  23.857  21.772   4.696  0.0367  0.1638  0.1250
    1DIPC   D3A22615  23.503  21.700   4.923 -0.2169  0.2479  0.0378
    1DIPC   C4A22616  23.563  21.786   5.349 -0.1647 -0.1744  0.0726
    1DIPC   C1B22617  24.626  21.542   4.538 -0.1101 -0.2615 -0.1183
    1DIPC   D2B22618  24.346  21.738   4.841  0.0549  0.2264  0.1351
    1DIPC   D3B22619  24.570  21.423   5.026  0.2029 -0.4633 -0.0233
    1DIPC   C4B22620  24.293  21.107   5.220 -0.2767 -0.0574  0.1760
    1DIPC   NC322621   0.429   5.183   2.049  0.1631 -0.3295 -0.2190
    1DIPC   PO422622  29.585   5.048   2.125 -0.2339 -0.1045  0.1562
    1DIPC   GL122623   0.024   5.459   2.137 -0.0658  0.0686 -0.0346
    1DIPC   GL222624   0.249   5.566   2.325 -0.3557 -0.1579 -0.1664
    1DIPC   C1A22625  29.296   5.641   2.408  0.1942  0.0773 -0.1928
    1DIPC   D2A22626  29.086   6.052   2.587  0.1011  0.0851  0.1457
    1DIPC   D3A22627  28.822   6.395   2.801 -0.0649  0.1149 -0.0792
    1DIPC   C4A22628  28.395   6.256   2.888 -0.1498 -0.0818 -0.1595
    1DIPC   C1B22629   0.224   5.656   2.772  0.1541  0.1449  0.0328
    1DIPC   D2B22630   0.464   6.070   2.941 -0.2082  0.0427  0.1413
    1DIPC   D3B22631   0.638   6.189   3.275 -0.0107 -0.2043  0.1582
    1DIPC   C4B22632   0.737   5.803   3.500 -0.2661 -0.1074 -0.1389
    1DIPC   NC322633  12.106   3.076   2.967  0.2228 -0.1176  0.1683
    1DIPC   PO422634  11.739   3.301   2.891  0.2206  0.1301  0.0401
    1DIPC   GL122635  11.588   3.152   3.287  0.3549 -0.1516 -0.1242
    1DIPC   GL222636  11.679   2.837   3.214 -0.1568 -0.0865  0.2182
    1DIPC   C1A22637  11.591   3.181   3.715  0.1110 -0.0550 -0.0214
    1DIPC   D2A22638  11.608   3.130   4.108  0.0319 -0.3572  0.2621
    1DIPC   D3A22639  11.177   2.994   4.113  0.0207  0.0070  0.1847
    1DIPC   C4A22640  10.780   3.235   3.996  0.0587  0.1582  0.0596
    1DIPC   C1B22641  11.954   2.884   3.573  0.2228 -0.4851  0.2129
    1DIPC   D2B22642  12.055   2.934   3.998 -0.1337  0.0414  0.3320
    1DIPC   D3B22643  12.100   3.302   3.948  0.1864  0.3408  0.3088
    1DIPC   C4B22644  12.274   3.353   4.200 -0.0145 -0.1646 -0.5709
    1DIPC   NC322645   2.878  26.972   3.075 -0.3169  0.0417 -0.2096
    1DIPC   PO422646   3.136  27.294   3.232 -0.2456 -0.2540 -0.2355
    1DIPC   GL122647   2.866  27.367   3.561  0.0256 -0.2855  0.0922
    1DIPC   GL222648   2.660  27.711   3.529 -0.2888 -0.1470  0.0935
    1DIPC   C1A22649   2.790  27.589   4.018 -0.0404 -0.3216 -0.1750
    1DIPC   D2A22650   2.772  27.885   4.427 -0.0520 -0.0915 -0.1500
    1DIPC   D3A22651   2.704  27.571   4.761 -0.1392 -0.1487 -0.3066
    1DIPC   C4A22652   2.803  27.563   5.215  0.0724 -0.3044  0.1422
    1DIPC   C1B22653   2.668  28.062   3.824  0.2485  0.1470 -0.0623
    1DIPC   D2B22654   2.449  28.230   4.197  0.0697  0.0953 -0.2015
    1DIPC   D3B22655   2.267  28.573   4.453  0.2280 -0.0545  0.2152
    1DIPC   C4B22656   2.311  29.037   4.536 -0.0208 -0.1128  0.4124
    1DIPC   NC322657   8.902  27.011   2.923 -0.0936  0.0488  0.1646
    1DIPC   PO422658   9.258  26.914   2.686  0.1682 -0.4814  0.0293
    1DIPC   GL122659   9.311  26.740   3.028 -0.1094 -0.1812 -0.1205
    1DIPC   GL222660   9.570  26.452   2.991 -0.3034 -0.1630  0.1160
    1DIPC   C1A22661   9.357  26.820   3.494 -0.0782  0.1323  0.1989
    1DIPC   D2A22662   9.429  26.929   3.834 -0.2349  0.0978  0.0699
    1DIPC   D3A22663   9.409  26.634   4.204 -0.1259 -0.1784 -0.0587
    1DIPC   C4A22664   9.558  26.665   4.578  0.1629  0.1075  0.0607
    1DIPC   C1B22665   9.851  26.619   3.355  0.1410  0.1025 -0.0708
    1DIPC   D2B22666  10.097  26.712   3.649 -0.2311 -0.2852  0.0711
    1DIPC   D3B22667   9.954  26.773   4.030  0.1077  0.2666  0.1291
    1DIPC   C4B22668  10.258  26.581   4.210 -0.1155  0.1678 -0.1379
    1DIPC   NC322669   9.964   3.920   2.045  0.0358  0.1326  0.1745
    1DIPC   PO422670  10.277   3.703   2.250  0.0192  0.0044  0.0577
    1DIPC   GL122671  10.498   3.749   2.708  0.0263  0.3370  0.1313
    1DIPC   GL222672  10.459   4.002   2.944 -0.2697 -0.0275  0.2441
    1DIPC   C1A22673  10.484   3.504   3.180  0.0919 -0.1212  0.1976
    1DIPC   D2A22674  10.662   3.487   3.521  0.1282  0.0489 -0.0877
    1DIPC   D3A22675  10.692   3.700   3.865  0.1769  0.0759 -0.0099
    1DIPC   C4A22676  10.497   3.549   4.267 -0.0425  0.1345  0.0755
    1DIPC   C1B22677  10.718   4.379   2.980  0.2078 -0.1854  0.1723
    1DIPC   D2B22678  10.457   4.765   3.210  0.0715 -0.0292 -0.1805
    1DIPC   D3B22679  10.817   4.710   3.503 -0.0038  0.1936  0.0414
    1DIPC   C4B22680  11.237   4.769   3.345 -0.0904 -0.1519 -0.1383
    1DIPC   NC322681  17.527  25.451   2.760  0.2215  0.0729  0.0536
    1DIPC   PO422682  17.439  25.126   3.089 -0.2502  0.2638 -0.0342
    1DIPC   GL122683  17.669  24.901   3.358  0.2636 -0.1420  0.1709
    1DIPC   GL222684  17.670  24.960   3.696  0.1362  0.0097  0.1627
    1DIPC   C1A22685  17.718  24.492   3.620 -0.1861  0.0940  0.2322
    1DIPC   D2A22686  17.672  23.999   3.663 -0.2297  0.1301  0.2141
    1DIPC   D3A22687  17.237  24.120   3.899 -0.2405  0.1301  0.4947
    1DIPC   C4A22688  17.138  23.923   4.209  0.0844  0.4198  0.0586
    1DIPC   C1B22689  17.201  25.052   3.868  0.3667  0.0333  0.1452
    1DIPC   D2B22690  17.109  25.010   4.283  0.1277 -0.2193  0.1217
    1DIPC   D3B22691  16.949  25.382   4.541 -0.1831  0.0273  0.1327
    1DIPC   C4B22692  16.689  25.253   4.922  0.0649 -0.0082 -0.0193
    1DIPC   NC322693  12.783  26.311   2.327  0.2174 -0.1100 -0.1413
    1DIPC   PO422694  13.018  26.015   2.680 -0.0777  0.1486  0.3228
    1DIPC   GL122695  12.786  25.918   3.071 -0.0652  0.0527 -0.1159
    1DIPC   GL222696  12.573  25.651   3.095  0.2222 -0.1206 -0.0399
    1DIPC   C1A22697  12.378  26.013   3.349  0.0742 -0.2672  0.2223
    1DIPC   D2A22698  12.120  26.205   3.665  0.3287 -0.0535  0.1997
    1DIPC   D3A22699  12.205  25.829   3.921 -0.0875 -0.1085 -0.1696
    1DIPC   C4A22700  12.215  25.812   4.404  0.1861  0.1121  0.1804
    1DIPC   C1B22701  12.351  25.466   3.463  0.2803 -0.0038 -0.0605
    1DIPC   D2B22702  12.517  25.398   3.906  0.2469  0.0819 -0.0690
    1DIPC   D3B22703  12.362  25.376   4.297  0.0870  0.0961  0.0479
    1DIPC   C4B22704  12.286  24.957   4.495  0.0631  0.0890  0.2111
    1DIPC   NC322705  19.168   4.554   2.245 -0.3554 -0.0223  0.1523
    1DIPC   PO422706  19.033   4.835   2.585  0.1364 -0.0634 -0.1013
    1DIPC   GL122707  19.129   4.917   2.973  0.1160 -0.0356 -0.2881
    1DIPC   GL222708  18.868   5.019   3.099 -0.0286 -0.0248  0.0223
    1DIPC   C1A22709  19.084   4.743   3.440  0.1946 -0.0707  0.0359
    1DIPC   D2A22710  19.264   4.864   3.923 -0.0104  0.1104 -0.0127
    1DIPC   D3A22711  19.190   4.482   4.233  0.0169 -0.0043  0.2812
    1DIPC   C4A22712  19.201   4.246   3.935  0.1121  0.0014 -0.1807
    1DIPC   C1B22713  18.698   5.167   3.559  0.0027 -0.2319 -0.1887
    1DIPC   D2B22714  18.417   5.519   3.724  0.0602  0.0681 -0.1066
    1DIPC   D3B22715  18.123   5.435   4.131  0.0411  0.0753 -0.0436
    1DIPC   C4B22716  17.954   5.725   4.405 -0.0221  0.0182  0.1454
    1DIPC   NC322717  18.708  26.650   3.367  0.0925 -0.1403 -0.2213
    1DIPC   PO422718  18.536  26.613   3.754 -0.0389  0.0335 -0.4525
    1DIPC   GL122719  18.334  26.600   4.268  0.1200 -0.1523 -0.0585
    1DIPC   GL222720  18.157  26.876   4.488  0.3222 -0.3406  0.1560
    1DIPC   C1A22721  18.189  26.267   4.540 -0.1176  0.1704  0.1280
    1DIPC   D2A22722  18.108  26.203   4.985  0.0436 -0.1777 -0.2935
    1DIPC   D3A22723  18.186  26.644   4.950  0.0597 -0.1293 -0.4164
    1DIPC   C4A22724  18.276  26.742   5.373 -0.0101  0.1773 -0.1346
    1DIPC   C1B22725  18.622  26.802   4.652 -0.2797  0.0502 -0.2017
    1DIPC   D2B22726  18.749  27.071   5.012  0.2744 -0.2375  0.1583
    1DIPC   D3B22727  18.666  27.107   5.370 -0.0726  0.1699  0.0565
    1DIPC   C4B22728  18.258  27.239   5.415 -0.3196  0.2348 -0.0769
    1DIPC   NC322729  23.213  25.145   3.541  0.1414 -0.0613 -0.1888
    1DIPC   PO422730  23.247  25.528   3.429  0.0215  0.0325  0.3168
    1DIPC   GL122731  23.232  25.862   3.742 -0.1464  0.1533  0.0815
    1DIPC   GL222732  23.598  25.995   3.883  0.2000 -0.2115  0.3015
    1DIPC   C1A22733  23.004  26.047   4.054  0.2199 -0.0828  0.1329
    1DIPC   D2A22734  22.929  25.829   4.409 -0.1950  0.2572 -0.0953
    1DIPC   D3A22735  22.843  25.976   4.903  0.0262  0.2175 -0.1426
    1DIPC   C4A22736  23.073  25.666   5.086  0.1257 -0.0221  0.0739
    1DIPC   C1B22737  23.370  25.765   4.193  0.4445 -0.2327  0.0554
    1DIPC   D2B22738  23.351  25.738   4.650  0.0302 -0.3905  0.3417
    1DIPC   D3B22739  23.380  26.085   5.028  0.1398 -0.1509  0.0711
    1DIPC   C4B22740  23.388  26.011   5.416 -0.2489  0.0058  0.2362
    1DIPC   NC322741  14.425  21.284   2.424  0.1557  0.1109  0.0253
    1DIPC   PO422742  14.753  20.943   2.495 -0.1067 -0.0897  0.0109
    1DIPC   GL122743  14.871  20.659   2.982 -0.1085 -0.0205 -0.4300
    1DIPC   GL222744  15.123  20.780   3.218  0.1590  0.1805  0.1298
    1DIPC   C1A22745  14.832  20.420   3.313  0.2002  0.0157 -0.2453
    1DIPC   D2A22746  14.740  20.578   3.730  0.0829 -0.1092  0.1353
    1DIPC   D3A22747  15.165  20.331   3.867  0.0510  0.4653  0.2715
    1DIPC   C4A22748  15.342  20.189   4.278  0.2406 -0.0980  0.2822
    1DIPC   C1B22749  14.754  20.980   3.341 -0.0720  0.1387  0.3138
    1DIPC   D2B22750  14.439  21.094   3.565  0.0981  0.2415 -0.0498
    1DIPC   D3B22751  14.678  21.089   3.935 -0.2323 -0.0231  0.1813
    1DIPC   C4B22752  15.057  21.418   4.095 -0.0201 -0.1169  0.1877
    1DIPC   NC322753   3.406  16.172   2.834  0.3164 -0.2264 -0.1096
    1DIPC   PO422754   3.723  16.292   2.623 -0.1536  0.1306  0.3731
    1DIPC   GL122755   3.924  16.358   3.036 -0.2669  0.2911 -0.0501
    1DIPC   GL222756   3.638  16.279   3.260 -0.1474 -0.2693  0.1203
    1DIPC   C1A22757   4.030  16.148   3.443  0.0315 -0.1044 -0.1663
    1DIPC   D2A22758   4.029  15.820   3.803 -0.0408 -0.0586  0.1921
    1DIPC   D3A22759   4.148  15.907   4.203  0.0813 -0.2587 -0.1488
    1DIPC   C4A22760   4.409  16.221   4.358  0.2298  0.0947 -0.4317
    1DIPC   C1B22761   3.604  16.179   3.770 -0.1627  0.3325 -0.0815
    1DIPC   D2B22762   3.413  16.466   3.946  0.1520  0.1083  0.0176
    1DIPC   D3B22763   3.628  16.804   4.056 -0.1096  0.0596 -0.3286
    1DIPC   C4B22764   3.408  17.109   4.281 -0.1793 -0.1150 -0.4525
    1DIPC   NC322765   1.148  25.410   3.148 -0.2885  0.3378 -0.0095
    1DIPC   PO422766   0.781  25.396   3.141  0.0650  0.1406 -0.0324
    1DIPC   GL122767   0.686  25.639   3.471  0.0517 -0.0671 -0.0570
    1DIPC   GL222768   0.355  25.608   3.742 -0.2771  0.2272 -0.0531
    1DIPC   C1A22769   0.636  25.931   3.846 -0.2522 -0.2682 -0.0271
    1DIPC   D2A22770   0.598  25.931   4.320 -0.3367 -0.1118 -0.0171
    1DIPC   D3A22771   0.319  26.278   4.545 -0.1604 -0.4501 -0.1190
    1DIPC   C4A22772   0.324  26.631   4.922  0.0469 -0.1272 -0.1347
    1DIPC   C1B22773   0.388  25.526   4.207  0.5351  0.3247 -0.3756
    1DIPC   D2B22774   0.624  25.177   4.455  0.0484  0.0845  0.3028
    1DIPC   D3B22775   0.879  25.457   4.579  0.2545 -0.0360  0.3729
    1DIPC   C4B22776   0.936  25.520   5.030 -0.0570 -0.0741 -0.2798
    1DIPC   NC322777   5.276   2.266   2.844 -0.0215 -0.1082 -0.2161
    1DIPC   PO422778   5.433   1.908   3.003  0.0990 -0.1159 -0.2469
    1DIPC   GL122779   5.320   2.130   3.379 -0.1826 -0.4628  0.1921
    1DIPC   GL222780   5.080   2.322   3.316 -0.1681  0.3182 -0.3262
    1DIPC   C1A22781   5.227   2.275   3.798  0.3460  0.3635  0.1951
    1DIPC   D2A22782   4.970   2.326   4.010 -0.0856 -0.0702 -0.2343
    1DIPC   D3A22783   4.992   1.942   4.048 -0.1868 -0.1264 -0.2038
    1DIPC   C4A22784   5.305   1.626   4.171 -0.3606  0.2132 -0.0042
    1DIPC   C1B22785   4.721   2.244   3.452 -0.3716  0.2902  0.1657
    1DIPC   D2B22786   4.534   2.434   3.793 -0.3085 -0.0285 -0.0035
    1DIPC   D3B22787   4.484   2.213   4.253 -0.4783 -0.2242  0.0851
    1DIPC   C4B22788   4.484   1.760   4.294  0.1535  0.0534  0.2436
    1DIPC   NC322789   1.098  21.065   3.718  0.0369 -0.1844  0.2314
    1DIPC   PO422790   1.497  21.242   3.540 -0.1521  0.1873 -0.0178
    1DIPC   GL122791   1.549  21.233   3.950  0.2652  0.0182  0.2035
    1DIPC   GL222792   1.866  21.120   4.054  0.1583 -0.0446 -0.1349
    1DIPC   C1A22793   1.601  21.446   4.330  0.0942  0.0039 -0.1209
    1DIPC   D2A22794   1.413  21.534   4.672 -0.1531 -0.3127 -0.0998
    1DIPC   D3A22795   1.109  21.754   4.869 -0.0570 -0.4738 -0.0987
    1DIPC   C4A22796   0.690  21.855   4.918 -0.0571 -0.1493 -0.0730
    1DIPC   C1B22797   1.762  21.014   4.472  0.2941 -0.0084 -0.0027
    1DIPC   D2B22798   1.617  21.024   4.903 -0.2305 -0.0261 -0.0889
    1DIPC   D3B22799   1.784  20.585   4.930  0.4112 -0.0766 -0.3732
    1DIPC   C4B22800   2.221  20.517   5.002 -0.0918 -0.0307  0.0513
    1DIPC   NC322801  16.180  25.699   3.015  0.2587  0.0774 -0.2154
    1DIPC   PO422802  15.881  25.429   3.156  0.3612 -0.0806 -0.1704
    1DIPC   GL122803  16.032  25.514   3.513  0.0938  0.2834 -0.1036
    1DIPC   GL222804  16.222  25.245   3.602 -0.2950  0.2121  0.2936
    1DIPC   C1A22805  15.939  25.713   3.922 -0.0026 -0.0212 -0.1938
    1DIPC   D2A22806  16.132  25.990   4.247  0.0022  0.1484 -0.3794
    1DIPC   D3A22807  15.840  26.114   4.542  0.1990  0.0981 -0.1310
    1DIPC   C4A22808  15.416  26.103   4.428 -0.4085 -0.0285 -0.2678
    1DIPC   C1B22809  15.995  25.206   3.963 -0.0626  0.0832  0.0269
    1DIPC   D2B22810  15.626  25.080   4.114 -0.0445 -0.0182  0.0954
    1DIPC   D3B22811  15.624  24.834   4.507  0.1520 -0.0706 -0.0565
    1DIPC   C4B22812  15.343  24.645   4.849  0.1629  0.0053  0.0941
    1DIPC   NC322813  12.683  23.046   2.366  0.0908  0.2441 -0.1268
    1DIPC   PO422814  12.464  22.762   2.498 -0.2819 -0.1828  0.1031
    1DIPC   GL122815  12.261  22.664   2.905  0.3265 -0.1265  0.1951
    1DIPC   GL222816  12.454  22.417   3.181 -0.2210 -0.4786  0.0968
    1DIPC   C1A22817  12.033  22.532   3.246 -0.3592  0.1301 -0.0103
    1DIPC   D2A22818  11.711  22.590   3.473  0.1850 -0.0460 -0.2812
    1DIPC   D3A22819  11.571  22.322   3.857 -0.3992 -0.0394  0.0890
    1DIPC   C4A22820  11.409  21.994   4.136 -0.2965  0.1182 -0.0596
    1DIPC   C1B22821  12.446  22.522   3.593 -0.0561 -0.1907  0.2530
    1DIPC   D2B22822  12.549  22.768   3.911 -0.0020 -0.2994 -0.0244
    1DIPC   D3B22823  12.710  22.329   4.141 -0.0770 -0.0625 -0.1204
    1DIPC   C4B22824  13.057  22.515   4.414  0.2750 -0.1317  0.1887
    1DIPC   NC322825   0.852   0.069   3.234 -0.1148  0.1944  0.0362
    1DIPC   PO422826   0.790   0.442   3.263  0.4591  0.2653 -0.2242
    1DIPC   GL122827   1.135   0.570   3.583 -0.0801 -0.0276  0.3955
    1DIPC   GL222828   1.072   0.884   3.666 -0.0292 -0.3605 -0.1952
    1DIPC   C1A22829   1.321   0.256   3.867  0.1403 -0.0440 -0.1776
    1DIPC   D2A22830   1.645  29.533   3.980 -0.1761  0.0241  0.0595
    1DIPC   D3A22831   1.702  29.323   4.383 -0.0672  0.0993 -0.0531
    1DIPC   C4A22832   1.748  28.843   4.345  0.0324 -0.0533 -0.0279
    1DIPC   C1B22833   0.812   0.689   3.977  0.2460  0.1665 -0.3908
    1DIPC   D2B22834   0.473   0.551   4.285 -0.1139  0.0745  0.1056
    1DIPC   D3B22835  29.595   0.225   4.369 -0.1933  0.0463  0.5658
    1DIPC   C4B22836  29.183   0.190   4.168 -0.1377  0.2015  0.0275
    1DIPC   NC322837  26.505  27.580   3.153  0.2582  0.1927 -0.2933
    1DIPC   PO422838  26.682  27.455   3.558  0.1023 -0.0885  0.0547
    1DIPC   GL122839  26.640  27.569   4.026  0.0210 -0.1789  0.0805
    1DIPC   GL222840  26.475  27.872   4.195  0.1206 -0.0458 -0.3589
    1DIPC   C1A22841  26.345  27.384   4.285  0.0818 -0.0579 -0.0402
    1DIPC   D2A22842  25.915  27.646   4.418  0.0964 -0.0850 -0.0492
    1DIPC   D3A22843  25.685  27.857   4.662 -0.2053  0.2213  0.2919
    1DIPC   C4A22844  25.582  27.783   5.090  0.1737  0.0003  0.0058
    1DIPC   C1B22845  26.527  27.757   4.676  0.0270 -0.1961  0.1393
    1DIPC   D2B22846  26.430  27.447   4.916 -0.0148  0.1816  0.1141
    1DIPC   D3B22847  26.530  27.608   5.247  0.2874  0.0204  0.0849
    1DIPC   C4B22848  26.929  27.552   5.419 -0.3546 -0.0007  0.0005
    1DIPC   NC322849   0.210  19.742   3.423 -0.0667  0.1186 -0.2153
    1DIPC   PO422850  29.564  19.535   3.670  0.0906  0.2457 -0.4182
    1DIPC   GL122851   0.057  19.441   4.098  0.1548  0.0466  0.1009
    1DIPC   GL222852  29.423  19.393   4.345 -0.1976  0.0989  0.0028
    1DIPC   C1A22853   0.275  19.571   4.522  0.0121  0.2440 -0.2187
    1DIPC   D2A22854   0.560  19.589   4.766 -0.0495 -0.2661  0.0315
    1DIPC   D3A22855   0.472  19.511   5.263  0.0423 -0.0235  0.1179
    1DIPC   C4A22856   0.036  19.410   5.576  0.1199 -0.1393  0.1613
    1DIPC   C1B22857  29.349  19.193   4.780 -0.0033 -0.3128  0.1750
    1DIPC   D2B22858  29.476  18.784   4.962 -0.1521  0.1056  0.0905
    1DIPC   D3B22859  29.482  18.671   4.530 -0.0359  0.3597  0.0990
    1DIPC   C4B22860   0.088  18.531   4.111  0.0072 -0.0579 -0.3655
    1DIPC   NC322861   4.620   9.245   1.525  0.0399  0.1360 -0.1454
    1DIPC   PO422862   5.011   9.206   1.700 -0.0284  0.1739 -0.1880
    1DIPC   GL122863   5.016   9.218   2.166  0.1619  0.0203 -0.2057
    1DIPC   GL222864   5.279   9.148   2.380 -0.4515  0.2456  0.2022
    1DIPC   C1A22865   4.844   9.328   2.535  0.0205 -0.0654  0.2088
    1DIPC   D2A22866   4.783   9.564   2.850  0.0474  0.1166 -0.0544
    1DIPC   D3A22867   4.914   9.475   3.298 -0.0447 -0.3041  0.0395
    1DIPC   C4A22868   5.289   9.422   3.636  0.2891 -0.2309  0.1022
    1DIPC   C1B22869   5.320   8.985   2.743  0.2277 -0.1708 -0.0717
    1DIPC   D2B22870   5.400   9.193   3.126  0.0550  0.0787  0.3150
    1DIPC   D3B22871   5.536   9.609   3.230 -0.3960  0.1568 -0.0804
    1DIPC   C4B22872   5.675   9.735   3.611  0.3138 -0.1043 -0.0387
    1DIPC   NC322873   7.542  27.867   2.224  0.0661  0.0224 -0.1103
    1DIPC   PO422874   7.763  27.830   2.677  0.0788  0.1303 -0.1090
    1DIPC   GL122875   7.489  27.634   2.984  0.3654  0.1005  0.0786
    1DIPC   GL222876   7.283  27.405   2.864  0.0030 -0.0480 -0.3471
    1DIPC   C1A22877   7.685  27.542   3.375  0.1906 -0.0801 -0.1027
    1DIPC   D2A22878   7.770  27.496   3.870  0.0505 -0.2616 -0.4420
    1DIPC   D3A22879   7.557  27.936   3.801  0.0218  0.0377 -0.1065
    1DIPC   C4A22880   7.854  28.214   4.092 -0.0786  0.1919  0.0138
    1DIPC   C1B22881   7.129  27.300   3.341 -0.1436  0.1007  0.0998
    1DIPC   D2B22882   7.173  27.091   3.597  0.4479  0.4275  0.0889
    1DIPC   D3B22883   7.234  27.405   3.926 -0.5448 -0.0810 -0.0501
    1DIPC   C4B22884   7.259  27.787   4.127 -0.1850 -0.1485 -0.0707
    1DIPC   NC322885   0.958  28.841   2.736  0.3192 -0.1559  0.0279
    1DIPC   PO422886   0.928  29.166   2.978 -0.1647 -0.2088 -0.0163
    1DIPC   GL122887   0.940  29.201   3.433 -0.1458  0.1788  0.0611
    1DIPC   GL222888   1.164  29.390   3.667  0.0260 -0.1548 -0.0954
    1DIPC   C1A22889   0.905  28.958   3.817 -0.0835 -0.0669 -0.3049
    1DIPC   D2A22890   0.830  28.789   4.203  0.0950 -0.2813 -0.2381
    1DIPC   D3A22891   0.407  28.622   4.388 -0.0150 -0.0434  0.0828
    1DIPC   C4A22892   0.307  28.465   4.718  0.0155  0.3852 -0.0716
    1DIPC   C1B22893   1.051  29.433   3.960 -0.1108  0.2371 -0.4548
    1DIPC   D2B22894   0.874  29.355   4.377  0.2186  0.0923  0.0690
    1DIPC   D3B22895   0.933  29.202   4.694  0.1955 -0.0517  0.2402
    1DIPC   C4B22896   1.413  29.260   4.813 -0.3356 -0.2759  0.2529
    1DIPC   NC322897  11.455   7.493   2.454 -0.0649  0.1970 -0.3208
    1DIPC   PO422898  11.792   7.070   2.502 -0.0559 -0.0649 -0.3757
    1DIPC   GL122899  11.624   7.049   2.870  0.0774 -0.1612 -0.0672
    1DIPC   GL222900  11.692   7.395   3.029  0.0108 -0.1268  0.0895
    1DIPC   C1A22901  11.334   7.099   3.195 -0.0048 -0.2825  0.0338
    1DIPC   D2A22902  11.431   7.346   3.590 -0.0378 -0.2207 -0.2720
    1DIPC   D3A22903  11.252   6.991   3.803 -0.2906 -0.0998  0.3601
    1DIPC   C4A22904  11.427   6.811   4.233  0.1437  0.2987 -0.0949
    1DIPC   C1B22905  12.086   7.562   3.164  0.1236  0.0096  0.2584
    1DIPC   D2B22906  12.393   7.864   3.186  0.1646  0.0013  0.0014
    1DIPC   D3B22907  12.415   7.789   3.584 -0.1004 -0.0378  0.2381
    1DIPC   C4B22908  12.607   7.963   3.836 -0.2147  0.3526  0.1547
    1DIPC   NC322909  10.129   7.014   2.410 -0.1259  0.2010 -0.0498
    1DIPC   PO422910  10.403   6.874   2.197 -0.1977  0.0055 -0.2115
    1DIPC   GL122911  10.519   6.767   2.677  0.1876  0.0052  0.1814
    1DIPC   GL222912  10.757   7.087   2.814  0.1739 -0.0294  0.0494
    1DIPC   C1A22913  10.518   6.240   2.828  0.0686  0.0111 -0.0048
    1DIPC   D2A22914  10.577   5.829   3.019  0.2398 -0.1216 -0.0723
    1DIPC   D3A22915  10.612   5.589   3.475  0.0715 -0.1948 -0.0338
    1DIPC   C4A22916  11.035   5.724   3.710  0.1897 -0.0562 -0.1441
    1DIPC   C1B22917  10.772   7.248   3.287 -0.1064 -0.2170 -0.1915
    1DIPC   D2B22918  10.823   7.392   3.626  0.1198  0.1060  0.1006
    1DIPC   D3B22919  10.500   7.458   4.021  0.1029  0.0602  0.1679
    1DIPC   C4B22920  10.079   7.443   3.969 -0.3095 -0.1895 -0.3205
    1DIPC   NC322921  14.111  19.018   2.527  0.0288  0.1148  0.0919
    1DIPC   PO422922  13.907  18.709   2.726  0.0437 -0.1086  0.2540
    1DIPC   GL122923  13.841  18.541   3.144  0.0579 -0.1064  0.4727
    1DIPC   GL222924  13.958  18.679   3.420 -0.2376  0.1522  0.1945
    1DIPC   C1A22925  13.920  18.087   3.374  0.1573 -0.4395  0.0390
    1DIPC   D2A22926  13.724  17.870   3.411 -0.1065 -0.0991  0.2003
    1DIPC   D3A22927  13.837  17.728   3.816  0.2190  0.4062  0.2427
    1DIPC   C4A22928  14.109  17.900   3.898  0.5117  0.1542  0.1514
    1DIPC   C1B22929  14.023  18.968   3.712 -0.0307  0.0393  0.1824
    1DIPC   D2B22930  14.233  19.191   4.030 -0.1194  0.2067 -0.1094
    1DIPC   D3B22931  14.643  18.997   4.249  0.2054 -0.2130  0.2702
    1DIPC   C4B22932  14.881  18.700   4.181  0.2723 -0.2817  0.2476
    1DIPC   NC322933  21.780  19.345   3.145  0.2643 -0.1348 -0.0178
    1DIPC   PO422934  21.403  19.201   3.273 -0.2920  0.0187 -0.0184
    1DIPC   GL122935  21.817  19.345   3.662 -0.0364 -0.0339 -0.2516
    1DIPC   GL222936  22.025  19.056   3.723  0.1622  0.5074 -0.0407
    1DIPC   C1A22937  21.812  19.467   4.095 -0.3962 -0.0882  0.1049
    1DIPC   D2A22938  21.775  19.841   4.368  0.0410 -0.0682 -0.0721
    1DIPC   D3A22939  22.020  20.196   4.602  0.1044  0.0564  0.2329
    1DIPC   C4A22940  22.363  20.177   4.960 -0.4622  0.2413  0.2321
    1DIPC   C1B22941  21.786  18.971   4.060  0.0606 -0.1658 -0.0319
    1DIPC   D2B22942  21.379  18.864   4.250  0.1438 -0.0091  0.0175
    1DIPC   D3B22943  21.512  18.818   4.696 -0.0429 -0.0422  0.0016
    1DIPC   C4B22944  21.529  19.269   4.981  0.1997  0.1103 -0.0355
    1DIPC   NC322945   2.445  22.242   3.197  0.1380  0.0453  0.0914
    1DIPC   PO422946   2.029  22.552   3.398 -0.1688 -0.0585  0.0679
    1DIPC   GL122947   1.917  22.843   3.690 -0.0379 -0.1632 -0.0336
    1DIPC   GL222948   1.646  22.798   3.769  0.0193 -0.1648  0.0827
    1DIPC   C1A22949   1.983  23.128   4.101 -0.3474 -0.0957  0.1902
    1DIPC   D2A22950   1.713  23.413   4.368 -0.0996  0.1079 -0.1612
    1DIPC   D3A22951   1.293  23.408   4.588  0.2238  0.0079 -0.1285
    1DIPC   C4A22952   0.986  23.666   4.708 -0.1229 -0.1514 -0.1042
    1DIPC   C1B22953   1.752  22.591   4.117 -0.1623 -0.1258  0.2113
    1DIPC   D2B22954   1.819  22.450   4.435  0.1114 -0.0622 -0.2544
    1DIPC   D3B22955   1.685  22.533   4.886  0.0621 -0.3391  0.1930
    1DIPC   C4B22956   1.656  22.336   5.186 -0.0115 -0.2441 -0.3534
    1DIPC   NC322957  14.521  18.174   2.029  0.1433  0.1687  0.2092
    1DIPC   PO422958  14.870  18.013   2.304  0.2325 -0.0192  0.0558
    1DIPC   GL122959  14.908  18.192   2.717  0.4083 -0.1144  0.2227
    1DIPC   GL222960  14.738  17.940   2.999  0.0028  0.2482 -0.1655
    1DIPC   C1A22961  14.955  18.484   3.120  0.1947  0.0091  0.1981
    1DIPC   D2A22962  14.839  18.887   3.157 -0.0527 -0.0309  0.0031
    1DIPC   D3A22963  14.482  18.689   3.309  0.0141  0.2568  0.1060
    1DIPC   C4A22964  14.433  18.293   3.120  0.1422  0.3211  0.3542
    1DIPC   C1B22965  14.685  17.974   3.369 -0.4377  0.2751 -0.0396
    1DIPC   D2B22966  14.574  17.842   3.804 -0.1557  0.0304 -0.1248
    1DIPC   D3B22967  14.573  18.204   3.988  0.0258  0.3384  0.0745
    1DIPC   C4B22968  14.788  18.191   4.342  0.1058  0.1603 -0.0696
    1DIPC   NC322969   5.870  18.179   2.822  0.5236 -0.1661 -0.0452
    1DIPC   PO422970   5.905  17.696   2.748 -0.3478 -0.1109 -0.1035
    1DIPC   GL122971   5.967  17.352   3.123  0.2613  0.0681 -0.1937
    1DIPC   GL222972   6.351  17.286   3.201  0.2394  0.1148 -0.1710
    1DIPC   C1A22973   6.048  17.368   3.573  0.1677  0.0451 -0.0791
    1DIPC   D2A22974   5.840  17.341   3.922 -0.4096 -0.0572 -0.1585
    1DIPC   D3A22975   5.431  17.341   4.073  0.1835 -0.1529  0.2426
    1DIPC   C4A22976   5.529  17.238   4.574 -0.1563  0.2863  0.2485
    1DIPC   C1B22977   6.522  17.494   3.591 -0.4545 -0.0549  0.1839
    1DIPC   D2B22978   6.813  17.741   3.749  0.1640  0.0749  0.0581
    1DIPC   D3B22979   6.669  18.082   3.792 -0.0541 -0.1738  0.0081
    1DIPC   C4B22980   6.366  18.223   4.099 -0.0165  0.1044  0.0080
    1DIPC   NC322981   9.464   9.492   2.842  0.1469 -0.1471 -0.1804
    1DIPC   PO422982   9.285   9.109   2.630  0.2271 -0.0018  0.2966
    1DIPC   GL122983   8.926   9.038   2.922  0.1315  0.1042 -0.1308
    1DIPC   GL222984   8.708   9.165   3.038 -0.0628 -0.4881  0.0593
    1DIPC   C1A22985   8.745   8.775   3.366  0.0125  0.0067  0.0894
    1DIPC   D2A22986   8.915   8.544   3.720  0.0296 -0.0767  0.0290
    1DIPC   D3A22987   8.877   8.126   3.757 -0.0198  0.3479  0.2165
    1DIPC   C4A22988   8.826   7.888   4.210 -0.1556 -0.0388 -0.0961
    1DIPC   C1B22989   8.583   9.331   3.424  0.0973 -0.2141  0.2274
    1DIPC   D2B22990   8.289   9.129   3.771  0.0418 -0.2062 -0.3116
    1DIPC   D3B22991   8.564   9.136   4.231 -0.1036 -0.2005  0.4741
    1DIPC   C4B22992   8.876   9.391   4.014  0.2395 -0.1775  0.3003
    1DIPC   NC322993   9.458  15.086   2.474  0.4254 -0.0691 -0.1553
    1DIPC   PO422994   9.326  15.489   2.588 -0.0154  0.1933  0.0398
    1DIPC   GL122995   9.496  15.706   2.925  0.1768 -0.2296  0.1620
    1DIPC   GL222996   9.749  15.901   2.943  0.2198 -0.1405 -0.4329
    1DIPC   C1A22997   9.446  15.777   3.352 -0.0492  0.0325  0.2814
    1DIPC   D2A22998   9.184  15.954   3.677  0.1051 -0.3228  0.0730
    1DIPC   D3A22999   9.357  15.797   4.014  0.0558  0.0782  0.0090
    1DIPC   C4A23000   9.524  15.857   4.438 -0.0523 -0.0923 -0.2697
    1DIPC   C1B23001   9.831  16.165   3.257  0.0931  0.2996 -0.0885
    1DIPC   D2B23002   9.533  16.585   3.220  0.2397 -0.1052  0.3705
    1DIPC   D3B23003   9.537  16.348   3.660  0.6226 -0.2439 -0.0783
    1DIPC   C4B23004   9.392  16.424   4.077 -0.0273  0.0476  0.3300
    1DIPC   NC323005   3.916   4.428   2.727  0.1522  0.2110  0.1424
    1DIPC   PO423006   3.527   4.157   2.613  0.1604 -0.0625 -0.1367
    1DIPC   GL123007   3.429   4.021   3.009  0.3721 -0.3855  0.1557
    1DIPC   GL223008   3.057   4.051   2.876  0.2445  0.1354 -0.1896
    1DIPC   C1A23009   3.433   3.958   3.526 -0.4667  0.3644 -0.0251
    1DIPC   D2A23010   3.508   3.524   3.741  0.1926  0.0970 -0.1036
    1DIPC   D3A23011   3.596   3.860   3.987  0.0204 -0.0004 -0.0677
    1DIPC   C4A23012   3.876   3.909   4.356  0.0426  0.2109 -0.1701
    1DIPC   C1B23013   2.850   4.139   3.161 -0.3556  0.0459 -0.0230
    1DIPC   D2B23014   2.601   3.978   3.441  0.1116  0.1595  0.2363
    1DIPC   D3B23015   2.444   4.187   3.821  0.0204 -0.1286 -0.3297
    1DIPC   C4B23016   2.601   4.610   3.894 -0.1885  0.2205 -0.0136
    1DIPC   NC323017   2.225  19.712   3.150 -0.2749  0.4074  0.0778
    1DIPC   PO423018   2.605  19.734   3.245  0.1503  0.0271 -0.0193
    1DIPC   GL123019   2.737  19.472   3.568  0.1249  0.0180  0.1023
    1DIPC   GL223020   2.803  19.139   3.552  0.1962  0.3203 -0.1922
    1DIPC   C1A23021   2.963  19.503   3.861  0.3518  0.0918 -0.0698
    1DIPC   D2A23022   2.986  19.828   4.264  0.0312  0.1835 -0.2161
    1DIPC   D3A23023   2.725  19.740   4.583 -0.0636  0.3462  0.1872
    1DIPC   C4A23024   3.011  19.874   4.919 -0.0421  0.1097  0.0447
    1DIPC   C1B23025   2.660  19.033   4.033  0.1734 -0.0625  0.0334
    1DIPC   D2B23026   2.693  19.330   4.310 -0.0971 -0.0391  0.0183
    1DIPC   D3B23027   2.445  18.919   4.441  0.1739  0.0309 -0.0367
    1DIPC   C4B23028   2.525  18.554   4.401 -0.1395  0.4803  0.1733
    1DIPC   NC323029   8.455  24.739   2.440  0.0341 -0.0841 -0.0097
    1DIPC   PO423030   8.449  25.110   2.608 -0.0486  0.1139 -0.1172
    1DIPC   GL123031   8.116  25.044   2.962 -0.3075  0.3589 -0.1841
    1DIPC   GL223032   8.049  25.302   3.203  0.0489  0.0588 -0.1354
    1DIPC   C1A23033   8.101  24.831   3.359  0.0137 -0.2554  0.0087
    1DIPC   D2A23034   8.113  24.412   3.653  0.0514 -0.1812 -0.0694
    1DIPC   D3A23035   8.291  24.597   4.077  0.2575  0.0722  0.0649
    1DIPC   C4A23036   8.517  24.302   4.250 -0.1199 -0.1958  0.1349
    1DIPC   C1B23037   8.389  25.209   3.420  0.3773  0.1617  0.3017
    1DIPC   D2B23038   8.611  24.829   3.634 -0.1346 -0.1978 -0.0402
    1DIPC   D3B23039   8.653  24.900   4.027 -0.1623 -0.1427 -0.2737
    1DIPC   C4B23040   8.900  24.677   4.336  0.3163  0.0936 -0.2777
    1DIPC   NC323041  11.337   5.536   2.175 -0.3823 -0.2868  0.0722
    1DIPC   PO423042  11.448   5.182   2.489  0.0829 -0.0975  0.0386
    1DIPC   GL123043  11.475   5.324   2.847  0.0344  0.1354 -0.0202
    1DIPC   GL223044  11.217   5.435   2.937  0.1668  0.2453  0.1005
    1DIPC   C1A23045  11.848   5.403   3.092  0.3454  0.1548  0.0892
    1DIPC   D2A23046  12.070   5.370   3.514 -0.0147  0.1926  0.2000
    1DIPC   D3A23047  12.437   5.424   3.763  0.1388 -0.1614 -0.0463
    1DIPC   C4A23048  12.538   5.363   4.233 -0.2304  0.3706 -0.2879
    1DIPC   C1B23049  11.075   5.727   3.222 -0.2822 -0.0441  0.0214
    1DIPC   D2B23050  11.282   6.144   3.417  0.1574 -0.2305  0.0916
    1DIPC   D3B23051  11.755   6.168   3.512 -0.0497  0.4192  0.2912
    1DIPC   C4B23052  12.041   6.619   3.403  0.1598  0.0862  0.1898
    1DIPC   NC323053   1.993  21.517   3.781 -0.2869 -0.0214 -0.0359
    1DIPC   PO423054   2.389  21.496   3.665 -0.2259  0.1430 -0.1275
    1DIPC   GL123055   2.377  21.660   4.070 -0.1286  0.2216 -0.0368
    1DIPC   GL223056   2.486  22.085   4.074 -0.2512 -0.3194 -0.1690
    1DIPC   C1A23057   2.222  21.822   4.445  0.1821  0.1580  0.2755
    1DIPC   D2A23058   1.826  21.792   4.673 -0.0942  0.1562  0.0960
    1DIPC   D3A23059   2.012  22.039   4.958 -0.0973 -0.0246 -0.2130
    1DIPC   C4A23060   2.204  21.802   5.394  0.1159  0.0003  0.0787
    1DIPC   C1B23061   2.711  22.041   4.410 -0.3331 -0.2289  0.0779
    1DIPC   D2B23062   2.630  22.104   4.799  0.1768 -0.3219 -0.1772
    1DIPC   D3B23063   2.407  21.745   4.915 -0.2755  0.0281  0.1301
    1DIPC   C4B23064   2.538  21.474   5.220 -0.0835  0.0505 -0.0636
    1DIPC   NC323065  23.417   1.436   2.914 -0.2341  0.0891 -0.1127
    1DIPC   PO423066  23.224   1.015   3.167 -0.0665  0.0305 -0.0045
    1DIPC   GL123067  23.162   1.352   3.463 -0.3159 -0.0703  0.1101
    1DIPC   GL223068  23.192   1.239   3.770  0.1740  0.0935 -0.0108
    1DIPC   C1A23069  23.340   1.698   3.767 -0.0470  0.2031  0.0298
    1DIPC   D2A23070  23.331   2.110   3.679  0.1808  0.0227 -0.1477
    1DIPC   D3A23071  23.445   2.149   4.131  0.0951 -0.0060  0.2344
    1DIPC   C4A23072  23.236   1.951   4.235 -0.1399 -0.2946  0.0223
    1DIPC   C1B23073  23.298   1.393   4.152  0.0718 -0.2425  0.2051
    1DIPC   D2B23074  22.891   1.532   4.546  0.0054 -0.1451  0.3976
    1DIPC   D3B23075  22.558   1.308   4.427 -0.0273 -0.1309 -0.0511
    1DIPC   C4B23076  22.476   1.341   4.067 -0.1539  0.0397  0.2559
    1DIPC   NC323077  14.187  13.476   2.936  0.0180  0.0633  0.1623
    1DIPC   PO423078  13.875  13.737   2.720  0.0434  0.1356  0.2464
    1DIPC   GL123079  13.761  13.660   3.159 -0.2213  0.1084  0.3144
    1DIPC   GL223080  13.986  13.602   3.407 -0.0743 -0.0889  0.0357
    1DIPC   C1A23081  13.585  13.298   3.528  0.2055 -0.1354 -0.0180
    1DIPC   D2A23082  13.696  13.103   3.847 -0.5344  0.1671  0.1644
    1DIPC   D3A23083  13.581  12.966   4.290 -0.2114  0.4663  0.0277
    1DIPC   C4A23084  13.103  12.981   4.326 -0.0228  0.1002  0.1461
    1DIPC   C1B23085  13.936  13.736   3.842 -0.0535 -0.0940  0.0064
    1DIPC   D2B23086  14.026  13.720   4.298  0.1900  0.1900 -0.3690
    1DIPC   D3B23087  14.256  13.794   4.609 -0.0070 -0.1766 -0.2437
    1DIPC   C4B23088  14.146  14.025   4.943 -0.0118 -0.1199  0.4046
    1DIPC   NC323089   4.032  26.856   3.365 -0.1093  0.7374  0.0462
    1DIPC   PO423090   3.962  27.268   3.147 -0.0054  0.0640  0.1274
    1DIPC   GL123091   4.083  27.345   3.547 -0.1204  0.1080 -0.1504
    1DIPC   GL223092   4.352  27.203   3.521 -0.2518 -0.0938  0.3087
    1DIPC   C1A23093   3.875  27.484   3.968  0.0484 -0.1202  0.3119
    1DIPC   D2A23094   4.025  27.672   4.352 -0.1457 -0.1437 -0.2458
    1DIPC   D3A23095   4.015  27.708   4.892  0.0231  0.1291 -0.0141
    1DIPC   C4A23096   3.817  27.920   5.209 -0.2166  0.0769 -0.0405
    1DIPC   C1B23097   4.508  27.579   3.832 -0.3085  0.0545 -0.1895
    1DIPC   D2B23098   4.418  27.868   4.125  0.0050  0.1541 -0.1418
    1DIPC   D3B23099   4.480  27.849   4.620 -0.2014 -0.0987  0.1645
    1DIPC   C4B23100   4.374  27.371   4.789  0.2493  0.0026 -0.0385
    1DIPC   NC323101   1.503  20.132   3.084 -0.2970  0.1757  0.0465
    1DIPC   PO423102   1.869  19.967   3.384 -0.3699  0.0085 -0.0068
    1DIPC   GL123103   1.818  19.851   3.902 -0.1569  0.0442 -0.1734
    1DIPC   GL223104   1.584  19.999   4.140 -0.1085 -0.0408 -0.1972
    1DIPC   C1A23105   1.998  19.715   4.362  0.0045  0.0721 -0.1598
    1DIPC   D2A23106   2.278  19.451   4.591  0.0822 -0.1742  0.0270
    1DIPC   D3A23107   2.587  19.264   4.880 -0.1048 -0.0227  0.1125
    1DIPC   C4A23108   2.645  19.438   5.262 -0.2528  0.0798  0.2711
    1DIPC   C1B23109   1.556  19.790   4.543  0.2219 -0.2897 -0.0330
    1DIPC   D2B23110   1.413  19.649   4.961 -0.0661 -0.2782  0.1440
    1DIPC   D3B23111   1.397  19.207   5.240 -0.0879 -0.3308  0.2639
    1DIPC   C4B23112   1.191  18.844   5.231 -0.1143 -0.0549  0.0629
    1DIPC   NC323113  18.774  23.514   3.607  0.0422  0.2885 -0.1776
    1DIPC   PO423114  19.133  23.210   3.636  0.1679 -0.0965 -0.0019
    1DIPC   GL123115  19.164  22.910   3.997 -0.0331  0.1657 -0.2843
    1DIPC   GL223116  19.068  22.532   3.999  0.2224 -0.0261  0.1818
    1DIPC   C1A23117  19.087  22.904   4.483  0.2281  0.0405 -0.0213
    1DIPC   D2A23118  18.815  23.143   4.841 -0.0060 -0.0730  0.3301
    1DIPC   D3A23119  18.537  23.358   4.602  0.1038 -0.3896  0.2765
    1DIPC   C4A23120  18.507  23.756   4.709 -0.0582  0.3436  0.4904
    1DIPC   C1B23121  18.903  22.444   4.406 -0.0381 -0.0729  0.2664
    1DIPC   D2B23122  18.892  22.592   4.801 -0.0431 -0.1440  0.1569
    1DIPC   D3B23123  18.519  22.699   4.620 -0.0909 -0.0364  0.0346
    1DIPC   C4B23124  18.608  22.933   4.276 -0.1681 -0.0854 -0.0907
    1DIPC   NC323125   3.694  22.292   3.008  0.0370 -0.0066 -0.0356
    1DIPC   PO423126   3.453  22.217   3.292  0.0451 -0.1279  0.0108
    1DIPC   GL123127   3.576  22.047   3.725  0.1089  0.0250 -0.0566
    1DIPC   GL223128   3.882  22.062   3.847 -0.0794  0.1253 -0.2405
    1DIPC   C1A23129   3.380  22.076   4.082 -0.3329 -0.1357  0.1901
    1DIPC   D2A23130   3.195  22.056   4.352 -0.3126  0.1592  0.3376
    1DIPC   D3A23131   3.056  22.321   4.699 -0.0422  0.2588 -0.1269
    1DIPC   C4A23132   3.345  22.509   4.965 -0.0861 -0.2773 -0.3646
    1DIPC   C1B23133   3.809  22.094   4.357 -0.1261  0.0493 -0.0753
    1DIPC   D2B23134   3.488  21.859   4.681 -0.1901 -0.0817 -0.1454
    1DIPC   D3B23135   3.333  21.509   4.587  0.2402  0.3156  0.2143
    1DIPC   C4B23136   3.542  21.116   4.512  0.2122  0.2259 -0.0041
    1DIPC   NC323137   3.955  21.030   2.917  0.0667  0.0750 -0.0137
    1DIPC   PO423138   3.839  21.175   3.325 -0.0416  0.1192  0.0949
    1DIPC   GL123139   3.825  21.380   3.691 -0.2698  0.1154  0.1438
    1DIPC   GL223140   3.649  21.548   3.820 -0.1297 -0.2064 -0.1238
    1DIPC   C1A23141   4.090  21.640   4.017 -0.0748 -0.1420 -0.0805
    1DIPC   D2A23142   4.153  21.742   4.436  0.2694 -0.2226 -0.0574
    1DIPC   D3A23143   4.476  21.612   4.877 -0.1029  0.0025 -0.1366
    1DIPC   C4A23144   4.871  21.401   4.814 -0.2427 -0.2642  0.2066
    1DIPC   C1B23145   3.705  21.630   4.281  0.3086  0.1035 -0.1520
    1DIPC   D2B23146   3.766  21.470   4.770 -0.1424  0.4338  0.0531
    1DIPC   D3B23147   4.091  21.344   4.741 -0.1486  0.1190 -0.0654
    1DIPC   C4B23148   4.040  20.898   4.670  0.1014 -0.0697 -0.0401
    1DIPC   NC323149  15.982  22.217   3.043  0.2569  0.1364 -0.0467
    1DIPC   PO423150  15.651  22.281   2.743 -0.1940 -0.0204 -0.2816
    1DIPC   GL123151  15.571  22.105   3.270 -0.2301  0.0118  0.0070
    1DIPC   GL223152  15.221  22.106   3.433 -0.4670 -0.0024 -0.3307
    1DIPC   C1A23153  15.466  22.461   3.605  0.0666 -0.0074  0.1637
    1DIPC   D2A23154  15.483  22.808   3.818  0.0931  0.0606  0.0876
    1DIPC   D3A23155  15.384  23.166   3.817  0.1132  0.0121 -0.0046
    1DIPC   C4A23156  14.866  23.467   3.855 -0.3389  0.1898 -0.3430
    1DIPC   C1B23157  15.072  22.179   3.882  0.2029  0.0967 -0.0300
    1DIPC   D2B23158  15.053  22.206   4.278  0.0682 -0.0509 -0.0388
    1DIPC   D3B23159  15.058  22.712   4.295 -0.1292  0.1692  0.0919
    1DIPC   C4B23160  15.305  23.033   4.273  0.2417  0.4793 -0.0641
    1DIPC   NC323161   9.341   6.815   2.523  0.1102  0.0690  0.2266
    1DIPC   PO423162   9.291   7.285   2.623 -0.1489  0.0954 -0.0354
    1DIPC   GL123163   9.015   7.185   2.931  0.1577 -0.1479  0.2020
    1DIPC   GL223164   9.293   6.963   3.019  0.0103 -0.0262  0.0294
    1DIPC   C1A23165   9.065   7.490   3.218  0.0089 -0.1598  0.2603
    1DIPC   D2A23166   8.742   7.878   3.360 -0.3754 -0.1650  0.2165
    1DIPC   D3A23167   8.859   7.583   3.818 -0.1225 -0.0260 -0.0017
    1DIPC   C4A23168   9.130   7.416   4.089  0.3236 -0.0093  0.2253
    1DIPC   C1B23169   9.410   7.072   3.385 -0.0550 -0.1217 -0.4077
    1DIPC   D2B23170   9.195   7.256   3.628  0.3031  0.0886 -0.0200
    1DIPC   D3B23171   9.184   6.876   3.770  0.1252  0.0006 -0.2889
    1DIPC   C4B23172   9.226   6.852   4.204 -0.1707  0.1965 -0.3247
    1DIPC   NC323173  14.953  28.897   2.589  0.0489  0.0794 -0.2550
    1DIPC   PO423174  14.712  29.040   2.868  0.1960 -0.0998  0.0331
    1DIPC   GL123175  14.697  28.820   3.218 -0.3314 -0.0722  0.1047
    1DIPC   GL223176  14.396  28.634   3.230 -0.1894 -0.0906  0.0404
    1DIPC   C1A23177  14.838  28.400   3.360 -0.1308 -0.3417 -0.2516
    1DIPC   D2A23178  14.998  28.091   3.597 -0.0181  0.1925 -0.1883
    1DIPC   D3A23179  14.998  27.958   3.977 -0.2877  0.2904 -0.1813
    1DIPC   C4A23180  14.911  28.285   4.287 -0.3170  0.3225 -0.0072
    1DIPC   C1B23181  14.387  28.740   3.652  0.2357 -0.3796 -0.0051
    1DIPC   D2B23182  14.328  28.593   4.046 -0.2852 -0.2546  0.1856
    1DIPC   D3B23183  13.977  28.812   4.004  0.0204  0.0825  0.1870
    1DIPC   C4B23184  13.684  28.762   4.135  0.7733 -0.0130 -0.0383
    1DIPC   NC323185  12.863  18.908   1.893  0.1004 -0.2619  0.4426
    1DIPC   PO423186  12.581  18.961   2.298 -0.0723  0.0849 -0.2157
    1DIPC   GL123187  12.509  18.872   2.652  0.4052  0.0041 -0.2388
    1DIPC   GL223188  12.606  18.552   2.699 -0.0452  0.1237  0.1270
    1DIPC   C1A23189  12.437  18.663   3.116  0.0752 -0.3368  0.1707
    1DIPC   D2A23190  12.662  18.661   3.561  0.1889  0.1236 -0.0738
    1DIPC   D3A23191  12.702  18.362   3.923  0.2461 -0.3189  0.0772
    1DIPC   C4A23192  12.213  18.265   4.052 -0.0706  0.1862  0.3120
    1DIPC   C1B23193  12.450  18.208   2.923 -0.2047  0.1657 -0.4153
    1DIPC   D2B23194  12.659  17.950   3.230 -0.2502  0.0639 -0.2440
    1DIPC   D3B23195  12.651  17.529   2.925  0.3485  0.0830 -0.0771
    1DIPC   C4B23196  12.266  17.353   2.949 -0.1363  0.1185 -0.0582
    1DIPC   NC323197  14.404  21.992   2.843  0.2449 -0.2621 -0.0157
    1DIPC   PO423198  14.287  22.314   2.837  0.2472  0.2598  0.1322
    1DIPC   GL123199  14.072  22.550   3.033  0.0392 -0.1589 -0.0684
    1DIPC   GL223200  14.120  22.900   3.158 -0.1390 -0.1750 -0.1696
    1DIPC   C1A23201  13.736  22.637   3.367  0.0384 -0.1765  0.1096
    1DIPC   D2A23202  13.373  22.799   3.264 -0.1048  0.1543  0.1766
    1DIPC   D3A23203  13.253  22.891   3.627  0.2302  0.1169  0.1908
    1DIPC   C4A23204  13.490  22.936   4.090  0.4093 -0.2727  0.0469
    1DIPC   C1B23205  14.136  22.875   3.624 -0.0262 -0.1953 -0.1510
    1DIPC   D2B23206  13.946  23.013   4.145  0.0265 -0.3942 -0.1330
    1DIPC   D3B23207  14.242  22.717   4.192  0.1815  0.2930  0.0838
    1DIPC   C4B23208  14.077  22.261   4.083  0.3822 -0.0147 -0.0270
    1DIPC   NC323209   2.124  23.773   3.172  0.0528 -0.0218  0.1101
    1DIPC   PO423210   2.366  24.125   3.366 -0.1084 -0.4845  0.0893
    1DIPC   GL123211   2.346  24.395   3.804  0.0420 -0.1608 -0.0947
    1DIPC   GL223212   2.284  24.056   4.022  0.1045 -0.0575 -0.2310
    1DIPC   C1A23213   2.403  24.534   4.223 -0.1054 -0.0861 -0.2129
    1DIPC   D2A23214   2.260  24.436   4.563  0.1750  0.0544 -0.3217
    1DIPC   D3A23215   2.694  24.484   4.812 -0.3554  0.2584 -0.0616
    1DIPC   C4A23216   3.112  24.573   4.639  0.0830  0.0186  0.4423
    1DIPC   C1B23217   2.625  23.921   4.343  0.0529  0.1667  0.1600
    1DIPC   D2B23218   2.560  23.971   4.797  0.0837  0.0331  0.1105
    1DIPC   D3B23219   2.317  24.182   4.976 -0.0266  0.3722 -0.2475
    1DIPC   C4B23220   2.293  23.985   5.298  0.5473 -0.2603 -0.0930
    1DIPC   NC323221  23.885  28.564   3.703 -0.0376 -0.0992  0.0445
    1DIPC   PO423222  24.001  28.242   3.869 -0.0876  0.0558 -0.0060
    1DIPC   GL123223  23.805  28.469   4.236  0.0587 -0.2183 -0.3127
    1DIPC   GL223224  23.631  28.698   4.221  0.2742 -0.2564  0.3764
    1DIPC   C1A23225  23.923  28.168   4.501 -0.0043 -0.0549  0.0451
    1DIPC   D2A23226  23.868  28.168   4.862  0.1122 -0.2114 -0.2966
    1DIPC   D3A23227  24.308  28.204   4.831  0.0270  0.0831  0.2021
    1DIPC   C4A23228  24.567  28.087   5.152 -0.1079 -0.1921  0.2858
    1DIPC   C1B23229  23.175  28.750   4.424  0.2414  0.0427  0.4477
    1DIPC   D2B23230  23.052  28.740   4.777 -0.0545 -0.2060 -0.3779
    1DIPC   D3B23231  23.282  29.149   4.721 -0.0692  0.1294 -0.2275
    1DIPC   C4B23232  23.322  29.460   5.080 -0.0252  0.1374  0.0518
    1DIPC   NC323233  14.162  14.615   2.846 -0.2601 -0.1293  0.2760
    1DIPC   PO423234  13.790  14.837   2.689  0.1592  0.0665  0.0372
    1DIPC   GL123235  13.575  14.677   3.137  0.1278  0.4203  0.3300
    1DIPC   GL223236  13.887  14.662   3.250 -0.1313  0.0465 -0.1056
    1DIPC   C1A23237  13.537  14.657   3.559 -0.1251  0.0900 -0.0640
    1DIPC   D2A23238  13.627  14.952   3.932  0.1683 -0.1876  0.0364
    1DIPC   D3A23239  13.879  14.565   4.200  0.0247 -0.0658  0.0217
    1DIPC   C4A23240  13.950  14.711   4.605 -0.1911 -0.1578  0.3753
    1DIPC   C1B23241  14.235  14.374   3.432  0.0616  0.4105 -0.1607
    1DIPC   D2B23242  14.258  13.941   3.583 -0.4268  0.0143 -0.1659
    1DIPC   D3B23243  14.117  14.252   3.892  0.0103  0.0158  0.0746
    1DIPC   C4B23244  14.027  14.697   3.760  0.2661 -0.2390 -0.2198
    1DIPC   NC323245  17.964  20.625   2.412  0.0809 -0.2374  0.0624
    1DIPC   PO423246  17.587  20.564   2.667  0.0576 -0.1712  0.0921
    1DIPC   GL123247  17.540  20.702   3.062  0.1224 -0.1704 -0.2235
    1DIPC   GL223248  17.841  20.714   3.223 -0.0850 -0.0909 -0.2331
    1DIPC   C1A23249  17.463  20.721   3.527  0.3779 -0.0020 -0.0797
    1DIPC   D2A23250  17.331  20.805   3.907 -0.1510  0.2271  0.2838
    1DIPC   D3A23251  17.331  20.604   4.284  0.0792  0.2189  0.0924
    1DIPC   C4A23252  17.389  20.804   4.591 -0.3391 -0.0100 -0.1420
    1DIPC   C1B23253  17.877  20.919   3.672 -0.2040 -0.1459 -0.0164
    1DIPC   D2B23254  18.129  21.171   3.894 -0.2667  0.0861  0.0119
    1DIPC   D3B23255  17.972  21.484   4.217 -0.0804 -0.1300  0.1310
    1DIPC   C4B23256  17.562  21.639   4.297 -0.1654  0.0246  0.4175
    1DIPC   NC323257  11.130  23.997   2.713 -0.2989 -0.3418 -0.0045
    1DIPC   PO423258  11.537  23.737   2.830 -0.1104  0.1471  0.1598
    1DIPC   GL123259  11.670  23.769   3.306  0.2243  0.0318  0.0794
    1DIPC   GL223260  11.793  23.441   3.420  0.0266 -0.2222 -0.1307
    1DIPC   C1A23261  11.732  23.946   3.679 -0.2375  0.1814 -0.0130
    1DIPC   D2A23262  11.679  23.943   4.161 -0.0591 -0.0606  0.0722
    1DIPC   D3A23263  11.412  23.776   4.368  0.5642 -0.0558  0.2387
    1DIPC   C4A23264  11.345  23.291   4.432  0.0234  0.1829 -0.2198
    1DIPC   C1B23265  11.983  22.987   3.641  0.0562 -0.1939  0.1056
    1DIPC   D2B23266  11.607  22.796   3.967 -0.3050 -0.1440  0.1008
    1DIPC   D3B23267  11.786  22.943   4.358  0.1776  0.2104  0.0602
    1DIPC   C4B23268  12.161  23.076   4.422  0.0325 -0.1187 -0.3997
    1DIPC   NC323269   5.683  22.027   2.903  0.0379 -0.1103 -0.0106
    1DIPC   PO423270   5.947  22.142   3.305 -0.1207  0.3578 -0.0629
    1DIPC   GL123271   6.326  21.955   3.457 -0.3609  0.3515  0.0556
    1DIPC   GL223272   6.515  22.255   3.251  0.1747  0.3061  0.0014
    1DIPC   C1A23273   6.480  22.086   3.894 -0.0646 -0.0247  0.0593
    1DIPC   D2A23274   6.236  22.385   4.006  0.0637  0.0059  0.1233
    1DIPC   D3A23275   5.863  22.369   4.214  0.4311 -0.1013 -0.2083
    1DIPC   C4A23276   5.416  22.446   4.303 -0.0330  0.0647 -0.0103
    1DIPC   C1B23277   6.521  22.493   3.566 -0.0883  0.1564  0.2482
    1DIPC   D2B23278   6.854  22.820   3.608  0.0783  0.0574  0.0286
    1DIPC   D3B23279   7.289  22.767   3.652 -0.2496  0.2194  0.1144
    1DIPC   C4B23280   7.502  23.090   3.758 -0.0160 -0.1236  0.2921
    1DIPC   NC323281   4.275  24.512   3.408 -0.2238 -0.0948  0.2444
    1DIPC   PO423282   4.512  24.560   3.757 -0.1650 -0.1463 -0.1119
    1DIPC   GL123283   4.382  24.481   4.168 -0.1450  0.2035 -0.0892
    1DIPC   GL223284   4.065  24.656   4.349 -0.2881  0.2305 -0.1473
    1DIPC   C1A23285   4.319  24.437   4.685  0.1032  0.1361  0.0804
    1DIPC   D2A23286   4.070  24.154   4.926  0.1576 -0.0036 -0.0213
    1DIPC   D3A23287   3.938  24.370   5.213 -0.0819 -0.0641 -0.3524
    1DIPC   C4A23288   3.543  24.241   5.570 -0.3601 -0.1862 -0.3167
    1DIPC   C1B23289   3.825  24.272   4.297  0.0141 -0.3265  0.1076
    1DIPC   D2B23290   3.513  23.935   4.299 -0.1471  0.3550 -0.0088
    1DIPC   D3B23291   3.540  23.841   4.755 -0.1055 -0.1397  0.0178
    1DIPC   C4B23292   3.707  23.917   5.134 -0.0602 -0.1854 -0.1802
    1DIPC   NC323293   4.325  11.943   1.745 -0.0955 -0.1626  0.3733
    1DIPC   PO423294   4.743  12.025   1.716 -0.0562 -0.0228  0.3450
    1DIPC   GL123295   4.764  11.858   2.124  0.2051  0.1951  0.0740
    1DIPC   GL223296   4.512  11.590   2.123 -0.3014 -0.0603  0.3532
    1DIPC   C1A23297   5.016  11.897   2.513 -0.0985 -0.4659  0.0297
    1DIPC   D2A23298   5.198  12.105   2.913  0.0074  0.1687 -0.1135
    1DIPC   D3A23299   5.456  11.839   3.200  0.0939  0.0021 -0.0533
    1DIPC   C4A23300   5.490  11.926   3.640 -0.0453 -0.0140 -0.1126
    1DIPC   C1B23301   4.370  11.493   2.524  0.3438  0.2350 -0.1585
    1DIPC   D2B23302   4.585  11.431   2.849  0.2902  0.1960 -0.2197
    1DIPC   D3B23303   4.618  11.364   3.330  0.0291 -0.1520 -0.2027
    1DIPC   C4B23304   4.212  11.507   3.597 -0.2099  0.4753  0.1615
    1DIPC   NC323305  12.201  12.190   2.299  0.0057 -0.0067 -0.0090
    1DIPC   PO423306  11.797  11.974   2.484 -0.2182  0.1858 -0.3050
    1DIPC   GL123307  11.836  12.003   2.900 -0.1267 -0.1555 -0.2462
    1DIPC   GL223308  11.773  11.722   2.978  0.0640 -0.1046  0.0764
    1DIPC   C1A23309  11.411  12.046   3.115 -0.2133  0.2927  0.0442
    1DIPC   D2A23310  11.315  12.226   3.546 -0.2351 -0.0359 -0.1092
    1DIPC   D3A23311  11.737  12.369   3.708 -0.2008 -0.2407 -0.0783
    1DIPC   C4A23312  12.165  12.126   3.683  0.0675 -0.0610  0.0914
    1DIPC   C1B23313  11.463  11.588   3.227 -0.0822  0.0583 -0.0284
    1DIPC   D2B23314  11.377  11.664   3.551 -0.2269 -0.0820  0.3582
    1DIPC   D3B23315  11.503  11.892   3.973  0.0619  0.0566 -0.0998
    1DIPC   C4B23316  11.279  11.766   4.320  0.0028 -0.0812  0.0258
    1DIPC   NC323317  22.114  27.209   3.655  0.1183  0.0097  0.2735
    1DIPC   PO423318  22.248  27.610   3.611  0.0942 -0.0800  0.2094
    1DIPC   GL123319  22.171  27.832   4.038 -0.2151  0.1235 -0.0953
    1DIPC   GL223320  21.957  28.094   4.004  0.2330 -0.0789  0.0495
    1DIPC   C1A23321  22.055  27.870   4.490 -0.1708  0.0140  0.1642
    1DIPC   D2A23322  21.956  27.870   5.006  0.0257 -0.0664  0.0054
    1DIPC   D3A23323  22.062  27.834   5.361 -0.1372  0.4904 -0.0976
    1DIPC   C4A23324  22.301  28.113   5.418 -0.0255 -0.3756 -0.5225
    1DIPC   C1B23325  21.797  28.320   4.323 -0.1300  0.0871 -0.1559
    1DIPC   D2B23326  21.710  28.555   4.503  0.1945 -0.3337 -0.1418
    1DIPC   D3B23327  21.377  28.286   4.705  0.2626  0.2543  0.0682
    1DIPC   C4B23328  21.595  28.231   5.108  0.2153 -0.1821 -0.0159
    1DIPC   NC323329   1.168  16.748   3.235 -0.1101 -0.0564 -0.1056
    1DIPC   PO423330   0.765  16.644   3.349  0.0993  0.1062  0.1938
    1DIPC   GL123331   0.777  16.821   3.703 -0.1652 -0.1897  0.0421
    1DIPC   GL223332   0.453  16.933   3.644 -0.1757 -0.1403  0.0623
    1DIPC   C1A23333   1.039  16.448   3.973  0.0322 -0.0676  0.1740
    1DIPC   D2A23334   1.492  16.476   4.064 -0.0254  0.0821 -0.0063
    1DIPC   D3A23335   1.327  16.361   4.494 -0.0887 -0.0801  0.0963
    1DIPC   C4A23336   1.539  16.481   4.790 -0.0276  0.0518 -0.0551
    1DIPC   C1B23337   0.309  16.902   3.993 -0.2975 -0.0353  0.0658
    1DIPC   D2B23338   0.159  16.768   4.395  0.0646  0.1542 -0.0725
    1DIPC   D3B23339   0.042  16.363   4.281  0.2855 -0.1910  0.1139
    1DIPC   C4B23340  29.429  16.209   4.689  0.0460  0.2450  0.1197
    1DIPC   NC323341   7.027  16.252   2.470  0.1941  0.1470  0.1473
    1DIPC   PO423342   6.708  15.941   2.439  0.3578 -0.1175 -0.0791
    1DIPC   GL123343   6.694  15.993   2.913 -0.0824  0.1504 -0.1545
    1DIPC   GL223344   6.997  15.877   2.919 -0.0293 -0.0196  0.1761
    1DIPC   C1A23345   6.658  15.987   3.344 -0.3080  0.0172  0.0857
    1DIPC   D2A23346   6.967  15.816   3.502  0.2013  0.1949 -0.2360
    1DIPC   D3A23347   6.786  15.544   3.842  0.1327  0.1946 -0.2017
    1DIPC   C4A23348   6.669  15.472   4.285  0.0422 -0.1642  0.0793
    1DIPC   C1B23349   7.155  16.171   3.152 -0.0723  0.1731  0.1304
    1DIPC   D2B23350   7.121  16.258   3.627 -0.0843 -0.0595  0.0299
    1DIPC   D3B23351   6.871  16.606   3.780 -0.2503 -0.0746  0.1555
    1DIPC   C4B23352   6.620  16.566   4.086  0.1603 -0.3684 -0.0957
    1DIPC   NC323353  12.928  24.673   2.637  0.2544  0.0177  0.2057
    1DIPC   PO423354  13.259  24.983   2.498  0.0888  0.1767  0.1654
    1DIPC   GL123355  13.241  25.224   2.903  0.1373 -0.1337  0.1410
    1DIPC   GL223356  13.526  25.130   3.076  0.2231  0.0581 -0.2134
    1DIPC   C1A23357  13.146  25.573   3.152  0.2114  0.0653  0.1362
    1DIPC   D2A23358  13.106  25.852   3.489 -0.0422  0.2425 -0.2529
    1DIPC   D3A23359  13.148  25.571   3.863 -0.2364  0.0123  0.1182
    1DIPC   C4A23360  12.874  25.787   4.177 -0.0078  0.2507 -0.2025
    1DIPC   C1B23361  13.106  24.919   3.360 -0.2567 -0.0324  0.0882
    1DIPC   D2B23362  12.889  24.626   3.371  0.0333 -0.3444 -0.2595
    1DIPC   D3B23363  12.617  24.736   3.075 -0.2008 -0.0162  0.0802
    1DIPC   C4B23364  12.695  25.164   3.065 -0.1329 -0.0192  0.0940
    1DIPC   NC323365   3.500  15.887   2.436  0.0959  0.1534 -0.0618
    1DIPC   PO423366   3.053  15.806   2.698 -0.0728 -0.1893  0.1249
    1DIPC   GL123367   3.065  15.965   3.134 -0.0086  0.1178  0.0863
    1DIPC   GL223368   2.843  15.835   3.422 -0.1387  0.0596 -0.0136
    1DIPC   C1A23369   3.181  16.382   3.474 -0.2343 -0.0875 -0.1043
    1DIPC   D2A23370   3.409  16.680   3.489  0.2134 -0.5506  0.1696
    1DIPC   D3A23371   3.804  16.723   3.610 -0.0562 -0.1901 -0.0560
    1DIPC   C4A23372   4.158  16.816   3.319 -0.0309 -0.1534  0.1350
    1DIPC   C1B23373   3.083  15.936   3.816 -0.0923 -0.1129 -0.3437
    1DIPC   D2B23374   3.403  15.901   4.136  0.0764 -0.1718  0.1489
    1DIPC   D3B23375   3.739  15.648   4.312  0.0402  0.0238  0.2277
    1DIPC   C4B23376   3.761  15.145   4.470 -0.1312  0.3135  0.0335
    1DIPC   NC323377   4.824   4.706   2.391 -0.0745 -0.0816  0.0287
    1DIPC   PO423378   5.169   4.523   2.616  0.1904  0.0133  0.0725
    1DIPC   GL123379   5.116   4.696   3.114 -0.1464  0.2054  0.4389
    1DIPC   GL223380   5.327   4.981   3.120 -0.0175  0.0476 -0.3749
    1DIPC   C1A23381   5.151   4.782   3.543  0.0426 -0.1742  0.1784
    1DIPC   D2A23382   5.079   5.081   3.876  0.1349  0.4491  0.4109
    1DIPC   D3A23383   4.978   5.414   4.164  0.1898  0.1853 -0.1533
    1DIPC   C4A23384   5.256   5.466   4.535  0.1526  0.0980  0.4471
    1DIPC   C1B23385   5.040   5.236   2.943 -0.4780 -0.1914  0.1276
    1DIPC   D2B23386   5.002   5.691   2.824 -0.0181  0.0027 -0.1249
    1DIPC   D3B23387   5.099   5.818   3.268 -0.0952 -0.0954 -0.2630
    1DIPC   C4B23388   4.797   6.127   3.454  0.1599 -0.1664  0.1471
    1DIPC   NC323389  12.414  12.741   2.421 -0.0860 -0.3635  0.0185
    1DIPC   PO423390  12.467  13.196   2.540  0.0628 -0.1701 -0.2383
    1DIPC   GL123391  12.435  13.143   3.045  0.1376 -0.0374  0.2408
    1DIPC   GL223392  12.769  13.021   3.050 -0.3003 -0.0409  0.1833
    1DIPC   C1A23393  12.328  12.740   3.215  0.0323 -0.3111 -0.0248
    1DIPC   D2A23394  12.260  12.582   3.465  0.0798 -0.3366 -0.0670
    1DIPC   D3A23395  12.311  12.224   3.234 -0.0201  0.0701 -0.0939
    1DIPC   C4A23396  12.386  11.798   3.425 -0.1736  0.0218  0.2420
    1DIPC   C1B23397  12.717  12.975   3.469  0.1284 -0.0718  0.1945
    1DIPC   D2B23398  12.908  12.828   3.831 -0.4040  0.0288 -0.2059
    1DIPC   D3B23399  13.198  12.988   3.834  0.0734  0.2601 -0.0361
    1DIPC   C4B23400  13.118  13.429   4.145  0.0275  0.1742  0.0026
    1DIPC   NC323401   5.422  15.068   1.910  0.1020 -0.1857  0.0233
    1DIPC   PO423402   5.164  14.765   2.151  0.1447 -0.3213 -0.1148
    1DIPC   GL123403   5.286  14.738   2.510  0.1825 -0.1530 -0.1496
    1DIPC   GL223404   5.419  14.418   2.514  0.1496 -0.0787 -0.0170
    1DIPC   C1A23405   5.147  14.768   2.960  0.1759  0.1718  0.0465
    1DIPC   D2A23406   5.004  14.855   3.427 -0.2421 -0.1254 -0.1379
    1DIPC   D3A23407   4.838  14.655   3.791  0.1993  0.1535  0.2875
    1DIPC   C4A23408   4.553  14.793   3.956 -0.1612  0.1756  0.2595
    1DIPC   C1B23409   5.526  14.490   2.946  0.1847  0.2094 -0.3065
    1DIPC   D2B23410   5.746  14.615   3.421 -0.0590 -0.1720 -0.2126
    1DIPC   D3B23411   5.878  14.383   3.738 -0.1186 -0.0861 -0.1507
    1DIPC   C4B23412   6.149  14.699   4.035  0.0491 -0.1922  0.1044
    1DIPC   NC323413  27.207  18.038   2.796 -0.1189  0.0808 -0.0777
    1DIPC   PO423414  27.161  17.874   3.213  0.0121  0.1415  0.0548
    1DIPC   GL123415  27.061  17.767   3.628 -0.2190 -0.1281 -0.0227
    1DIPC   GL223416  27.259  17.500   3.791  0.0384 -0.1226  0.2599
    1DIPC   C1A23417  27.029  17.800   4.117  0.1369 -0.2523 -0.0275
    1DIPC   D2A23418  26.790  17.736   4.351 -0.0317 -0.0054 -0.1461
    1DIPC   D3A23419  26.731  17.386   3.974 -0.3713  0.1641  0.1507
    1DIPC   C4A23420  26.838  17.011   3.898 -0.1569 -0.2398 -0.0410
    1DIPC   C1B23421  27.225  17.344   4.239 -0.1497 -0.2023 -0.1630
    1DIPC   D2B23422  26.796  17.065   4.402  0.0213  0.1249 -0.0886
    1DIPC   D3B23423  26.615  16.669   4.657 -0.2329 -0.1505  0.0306
    1DIPC   C4B23424  26.636  16.706   5.060  0.1961 -0.0426  0.1249
    1DIPC   NC323425  25.512  20.421   3.484  0.1236  0.0862  0.2597
    1DIPC   PO423426  25.165  20.154   3.457 -0.1455 -0.1753 -0.1105
    1DIPC   GL123427  25.159  20.312   3.886  0.0301  0.1567  0.0001
    1DIPC   GL223428  25.379  20.254   4.011  0.0215  0.3038  0.0755
    1DIPC   C1A23429  24.820  20.489   4.150  0.1777 -0.0661 -0.0331
    1DIPC   D2A23430  24.436  20.506   4.431 -0.1137  0.0683  0.0057
    1DIPC   D3A23431  24.517  20.040   4.511 -0.3288 -0.2654  0.2985
    1DIPC   C4A23432  24.827  19.951   4.792 -0.1731 -0.2189 -0.0449
    1DIPC   C1B23433  25.366  20.570   4.310 -0.2915 -0.1210  0.1284
    1DIPC   D2B23434  25.054  20.830   4.468 -0.0410 -0.0944 -0.1756
    1DIPC   D3B23435  25.393  21.029   4.414 -0.1362  0.1270  0.0622
    1DIPC   C4B23436  25.543  21.373   4.715 -0.2048  0.1490  0.0817
    1DIPC   NC323437  14.728  27.103   2.823 -0.1546  0.0986 -0.0271
    1DIPC   PO423438  14.427  27.414   2.815  0.2046  0.0113 -0.3190
    1DIPC   GL123439  14.388  27.551   3.226 -0.1262  0.0327 -0.2168
    1DIPC   GL223440  14.209  27.799   3.114  0.1421 -0.0586 -0.3462
    1DIPC   C1A23441  14.189  27.557   3.600 -0.3357  0.1045  0.0767
    1DIPC   D2A23442  14.027  27.660   4.083 -0.3812 -0.2087  0.0703
    1DIPC   D3A23443  13.619  27.722   4.201 -0.1812 -0.1616  0.1817
    1DIPC   C4A23444  13.544  28.204   4.193  0.8293 -0.1167  0.0362
    1DIPC   C1B23445  14.428  27.957   3.455 -0.0113  0.2999 -0.0718
    1DIPC   D2B23446  14.486  28.138   3.845 -0.1339  0.2017 -0.2976
    1DIPC   D3B23447  14.537  27.815   4.104  0.2322  0.0884  0.2722
    1DIPC   C4B23448  14.455  27.348   4.090 -0.0240  0.2528  0.0407
    1DIPC   NC323449   4.627  14.563   2.002 -0.1504 -0.0856  0.0018
    1DIPC   PO423450   4.617  14.117   1.960 -0.4042 -0.4069  0.0767
    1DIPC   GL123451   4.679  14.043   2.386  0.1327  0.2282 -0.2206
    1DIPC   GL223452   4.943  14.056   2.494  0.0993 -0.2694 -0.0218
    1DIPC   C1A23453   4.671  13.785   2.850  0.0023 -0.1438  0.2470
    1DIPC   D2A23454   4.493  13.927   3.243 -0.0588  0.3326  0.2541
    1DIPC   D3A23455   4.779  14.018   3.491 -0.1315 -0.0560  0.0658
    1DIPC   C4A23456   4.508  14.316   3.718 -0.0218 -0.0051 -0.0290
    1DIPC   C1B23457   4.965  14.294   2.877  0.2528  0.2235 -0.0258
    1DIPC   D2B23458   5.135  14.340   3.314  0.0675  0.2224  0.0311
    1DIPC   D3B23459   5.290  14.455   3.717 -0.0558 -0.0878  0.1836
    1DIPC   C4B23460   5.522  14.493   4.107 -0.0524  0.1689 -0.2313
    1DIPC   NC323461  21.749  21.237   3.551 -0.2468 -0.1220 -0.2703
    1DIPC   PO423462  21.367  21.024   3.338 -0.0446 -0.0636 -0.1555
    1DIPC   GL123463  21.373  20.870   3.769 -0.2606  0.0455  0.1508
    1DIPC   GL223464  21.478  20.581   3.866 -0.1251  0.0204  0.1779
    1DIPC   C1A23465  21.492  20.974   4.205  0.0562 -0.3277  0.1327
    1DIPC   D2A23466  21.805  21.040   4.497 -0.2652  0.1519  0.0390
    1DIPC   D3A23467  21.649  21.409   4.514 -0.1743 -0.1806 -0.0462
    1DIPC   C4A23468  21.400  21.220   4.860  0.0484 -0.1675  0.2254
    1DIPC   C1B23469  21.203  20.569   4.166 -0.0455 -0.1554  0.1668
    1DIPC   D2B23470  20.797  20.453   4.306  0.0401 -0.0492 -0.1000
    1DIPC   D3B23471  20.912  20.372   4.765  0.2164  0.0411  0.0193
    1DIPC   C4B23472  20.758  20.666   5.074  0.0803 -0.1037 -0.1448
    1DIPC   NC323473   7.290  22.138   2.509  0.2139 -0.2856  0.1184
    1DIPC   PO423474   6.934  22.316   2.828 -0.2022  0.1956  0.2266
    1DIPC   GL123475   7.000  22.184   3.277  0.0317  0.0502  0.0229
    1DIPC   GL223476   6.918  21.863   3.324  0.2384 -0.3475  0.0987
    1DIPC   C1A23477   7.077  22.340   3.742  0.0455 -0.3104 -0.2915
    1DIPC   D2A23478   6.773  22.560   4.050 -0.1890 -0.3268 -0.1388
    1DIPC   D3A23479   7.014  22.884   4.217 -0.0691  0.1380  0.2438
    1DIPC   C4A23480   7.226  22.695   4.616  0.0871 -0.0558 -0.1238
    1DIPC   C1B23481   6.837  21.867   3.742 -0.0006  0.2869 -0.0843
    1DIPC   D2B23482   6.839  22.064   4.189 -0.1837  0.0769 -0.1073
    1DIPC   D3B23483   7.267  22.285   4.250 -0.1365  0.2486 -0.0073
    1DIPC   C4B23484   7.510  22.326   3.929  0.0414 -0.0178  0.0430
    1DIPC   NC323485   5.771  22.826   2.688  0.1126 -0.2033 -0.1629
    1DIPC   PO423486   6.021  23.014   3.017 -0.1619  0.1070 -0.0740
    1DIPC   GL123487   6.291  22.911   3.435  0.3824 -0.0219  0.0624
    1DIPC   GL223488   6.548  23.201   3.492  0.2217 -0.0172 -0.1134
    1DIPC   C1A23489   6.414  22.862   3.885  0.1845 -0.0314  0.0481
    1DIPC   D2A23490   6.587  23.136   4.254  0.1252  0.2947  0.0666
    1DIPC   D3A23491   6.397  23.156   4.589  0.4081  0.0451 -0.0705
    1DIPC   C4A23492   6.312  23.575   4.945 -0.0065  0.0879  0.0503
    1DIPC   C1B23493   6.766  23.324   3.785 -0.2717 -0.2006 -0.0615
    1DIPC   D2B23494   6.704  23.771   4.041 -0.1061 -0.2018  0.0590
    1DIPC   D3B23495   6.925  23.531   4.267  0.1206  0.0933  0.2148
    1DIPC   C4B23496   7.205  23.353   4.062  0.0371  0.0230  0.1854
    1DIPC   NC323497  19.759  25.306   3.368  0.7439  0.3634 -0.0139
    1DIPC   PO423498  19.989  25.311   3.772 -0.0945  0.1939 -0.2286
    1DIPC   GL123499  20.120  25.295   4.148  0.1543 -0.1266  0.0822
    1DIPC   GL223500  20.076  25.623   4.262 -0.1280  0.1218 -0.1978
    1DIPC   C1A23501  20.572  25.429   4.412  0.2543 -0.2161  0.1181
    1DIPC   D2A23502  20.775  25.163   4.606  0.3120  0.0819 -0.0198
    1DIPC   D3A23503  20.976  25.393   5.149 -0.0124 -0.4574  0.1484
    1DIPC   C4A23504  21.150  25.101   5.435  0.0875  0.0190 -0.0773
    1DIPC   C1B23505  19.907  25.328   4.647  0.4125 -0.0410 -0.1043
    1DIPC   D2B23506  19.868  25.064   4.968  0.0151  0.0042  0.0845
    1DIPC   D3B23507  20.127  25.105   5.327 -0.3845  0.1968 -0.1588
    1DIPC   C4B23508  20.610  25.170   5.485  0.0849 -0.1920 -0.0760
    1DIPC   NC323509   3.704   2.639   2.151 -0.1564 -0.0277  0.1992
    1DIPC   PO423510   3.852   2.745   2.490 -0.0873  0.1941  0.0884
    1DIPC   GL123511   3.884   2.598   2.869  0.0727  0.0347 -0.0552
    1DIPC   GL223512   3.912   2.825   3.028  0.3160  0.1340 -0.0683
    1DIPC   C1A23513   3.770   2.268   3.275  0.0957  0.0334 -0.1882
    1DIPC   D2A23514   3.641   2.022   3.634 -0.2329  0.2923  0.1563
    1DIPC   D3A23515   4.111   2.160   3.644  0.0985 -0.0537  0.0139
    1DIPC   C4A23516   4.194   2.108   3.113  0.0454 -0.2766  0.0865
    1DIPC   C1B23517   3.914   3.082   3.447  0.1516  0.2211  0.0896
    1DIPC   D2B23518   3.870   3.009   3.908 -0.1548  0.0923  0.1092
    1DIPC   D3B23519   3.868   2.619   3.678  0.0888 -0.2064 -0.2458
    1DIPC   C4B23520   4.214   2.564   3.310  0.1831 -0.1734  0.2130
    1DIPC   NC323521   3.985   0.093   2.061 -0.3100  0.0100 -0.1777
    1DIPC   PO423522   4.137   0.405   2.274 -0.2110  0.1745 -0.0694
    1DIPC   GL123523   3.948   0.526   2.691  0.2347 -0.2336 -0.1757
    1DIPC   GL223524   4.156   0.357   2.894 -0.0009  0.0136 -0.0329
    1DIPC   C1A23525   3.687   0.775   2.973 -0.0691  0.2336 -0.0007
    1DIPC   D2A23526   3.498   0.827   3.263 -0.0785 -0.3063 -0.3258
    1DIPC   D3A23527   3.272   1.102   3.449 -0.4469  0.2573  0.1020
    1DIPC   C4A23528   2.886   1.308   3.293  0.2493  0.3534 -0.1602
    1DIPC   C1B23529   3.825   0.396   3.241 -0.2061  0.1431  0.0738
    1DIPC   D2B23530   3.572   0.246   3.578  0.3306 -0.1435  0.1116
    1DIPC   D3B23531   3.262   0.459   3.894 -0.4447 -0.0189  0.0678
    1DIPC   C4B23532   3.276   0.896   3.959 -0.2021 -0.3045 -0.2933
    1DIPC   NC323533   9.558   7.659   2.373  0.1566 -0.4156  0.2991
    1DIPC   PO423534   9.951   7.437   2.296 -0.0452 -0.0866 -0.3203
    1DIPC   GL123535   9.775   7.231   2.711  0.0179  0.1798 -0.0960
    1DIPC   GL223536   9.543   7.408   3.027  0.1798 -0.0813  0.0303
    1DIPC   C1A23537   9.905   7.127   3.115  0.0904  0.0685 -0.0254
    1DIPC   D2A23538   9.858   7.108   3.606 -0.3482 -0.1845  0.2039
    1DIPC   D3A23539   9.984   6.627   3.569  0.1226 -0.0384  0.4391
    1DIPC   C4A23540   9.921   6.277   3.861 -0.1667 -0.0550  0.0055
    1DIPC   C1B23541   9.642   7.508   3.421 -0.1127  0.1841  0.3156
    1DIPC   D2B23542   9.660   7.632   3.858 -0.2081 -0.2689 -0.0984
    1DIPC   D3B23543   9.587   7.262   3.996 -0.0949 -0.0071  0.0020
    1DIPC   C4B23544   9.910   6.977   4.121  0.2930  0.0805  0.1086
    1DIPC   NC323545  16.174  21.298   2.467  0.3858 -0.0110 -0.0009
    1DIPC   PO423546  16.039  21.577   2.808  0.0081  0.0537  0.2653
    1DIPC   GL123547  15.877  21.667   3.192  0.0415  0.0165  0.1487
    1DIPC   GL223548  16.019  21.894   3.440 -0.0886 -0.0990  0.1554
    1DIPC   C1A23549  15.588  21.611   3.576  0.0647  0.1099  0.1644
    1DIPC   D2A23550  15.459  21.256   3.918 -0.1120  0.1434 -0.0893
    1DIPC   D3A23551  15.558  21.281   4.343  0.4527 -0.0601  0.0474
    1DIPC   C4A23552  15.906  21.282   4.633  0.0807  0.2361  0.2634
    1DIPC   C1B23553  15.778  22.080   3.788  0.0724 -0.1417  0.2054
    1DIPC   D2B23554  15.486  22.406   4.124 -0.2661  0.0260 -0.1243
    1DIPC   D3B23555  15.625  22.132   4.492  0.1470  0.1711  0.1071
    1DIPC   C4B23556  15.724  21.712   4.513 -0.1628  0.0052  0.0481
    1DIPC   NC323557  25.651   0.215   3.472 -0.1013 -0.1284 -0.1187
    1DIPC   PO423558  25.975   0.467   3.728 -0.1220  0.0243 -0.2190
    1DIPC   GL123559  25.843   0.679   4.211 -0.0279  0.0302  0.0098
    1DIPC   GL223560  26.025   0.934   4.154 -0.0149 -0.0473  0.0173
    1DIPC   C1A23561  25.740   0.580   4.725  0.0010 -0.3076  0.1549
    1DIPC   D2A23562  25.682   0.773   5.194 -0.1591  0.2366  0.0255
    1DIPC   D3A23563  25.228   0.739   5.237  0.0334 -0.6223  0.0834
    1DIPC   C4A23564  25.054   0.284   5.253 -0.1731 -0.2509 -0.0902
    1DIPC   C1B23565  25.575   1.145   4.291  0.1170 -0.0024  0.1348
    1DIPC   D2B23566  25.469   1.455   4.562  0.0360  0.2497 -0.3351
    1DIPC   D3B23567  25.270   1.820   4.556  0.2749 -0.1470  0.1196
    1DIPC   C4B23568  25.422   2.021   4.834 -0.0492 -0.0740  0.2429
    1DIPC   NC323569   2.309   1.327   2.531 -0.1740 -0.0680  0.0864
    1DIPC   PO423570   2.288   1.603   2.882  0.0169  0.0261  0.0485
    1DIPC   GL123571   2.399   1.756   3.243 -0.2596  0.4782 -0.0387
    1DIPC   GL223572   2.120   1.890   3.283  0.3232  0.0415  0.1699
    1DIPC   C1A23573   2.800   1.779   3.379  0.0864 -0.1485 -0.1923
    1DIPC   D2A23574   3.167   1.816   3.539  0.0354 -0.2710  0.0149
    1DIPC   D3A23575   3.132   1.438   3.761  0.0759 -0.1976 -0.0300
    1DIPC   C4A23576   3.435   1.519   4.076 -0.1938 -0.1672  0.1382
    1DIPC   C1B23577   2.119   1.728   3.666  0.1155 -0.0984  0.1973
    1DIPC   D2B23578   2.168   1.718   4.115 -0.0545  0.1235 -0.0634
    1DIPC   D3B23579   2.523   1.756   4.391  0.3558  0.1210  0.0641
    1DIPC   C4B23580   2.569   1.439   4.684  0.0312  0.2012  0.0186
    1DIPC   NC323581  17.953  24.654   3.054 -0.2529  0.1339 -0.0750
    1DIPC   PO423582  18.313  24.898   3.203 -0.0360  0.0505  0.3506
    1DIPC   GL123583  18.136  25.008   3.631 -0.0728  0.3534  0.1142
    1DIPC   GL223584  18.301  25.129   3.919  0.0675 -0.1362 -0.2325
    1DIPC   C1A23585  18.036  24.718   3.931  0.0516  0.1741  0.2770
    1DIPC   D2A23586  17.921  24.422   4.332 -0.3649  0.0411  0.0552
    1DIPC   D3A23587  18.244  24.258   4.667  0.0090  0.3562 -0.0219
    1DIPC   C4A23588  18.351  24.462   5.125  0.1365 -0.1287  0.0076
    1DIPC   C1B23589  18.100  24.983   4.341 -0.1952 -0.0545  0.1077
    1DIPC   D2B23590  18.053  24.696   4.739  0.0743 -0.3104  0.1065
    1DIPC   D3B23591  17.713  24.490   4.789 -0.3315 -0.0680  0.0201
    1DIPC   C4B23592  17.888  24.176   5.105 -0.1401  0.1007 -0.2949
    1DIPC   NC323593  11.142  15.770   2.454 -0.1016  0.2210  0.2604
    1DIPC   PO423594  11.540  15.596   2.407 -0.1200 -0.1856  0.3529
    1DIPC   GL123595  11.568  15.449   2.847  0.1985  0.0361  0.1414
    1DIPC   GL223596  11.930  15.527   2.901 -0.0249 -0.1505  0.0376
    1DIPC   C1A23597  11.537  15.651   3.300 -0.1347  0.0494  0.0390
    1DIPC   D2A23598  11.791  15.675   3.658  0.1610  0.0395 -0.1270
    1DIPC   D3A23599  12.111  16.108   3.601 -0.0771  0.0261  0.1767
    1DIPC   C4A23600  11.984  16.317   3.970 -0.2659 -0.1613  0.1918
    1DIPC   C1B23601  11.941  15.339   3.163 -0.3566 -0.1941 -0.2248
    1DIPC   D2B23602  12.215  15.396   3.617  0.0282 -0.1388 -0.0928
    1DIPC   D3B23603  12.118  15.301   4.104 -0.1193  0.0935  0.1675
    1DIPC   C4B23604  12.097  15.770   4.113 -0.0261 -0.4071 -0.1040
    1DIPC   NC323605  16.140   6.967   1.863 -0.3266 -0.0073  0.1803
    1DIPC   PO423606  15.963   6.918   2.390  0.0165  0.0056 -0.1373
    1DIPC   GL123607  15.906   6.929   2.932 -0.0989 -0.2208 -0.1942
    1DIPC   GL223608  16.177   7.080   3.107 -0.0573  0.3603  0.1255
    1DIPC   C1A23609  15.731   6.887   3.324  0.0367 -0.0612 -0.2303
    1DIPC   D2A23610  15.629   6.843   3.712  0.0696 -0.1161 -0.2224
    1DIPC   D3A23611  15.657   6.652   4.067 -0.1210 -0.0792 -0.0928
    1DIPC   C4A23612  15.896   6.703   4.399  0.0684 -0.1089 -0.0465
    1DIPC   C1B23613  16.208   6.923   3.511 -0.1474  0.0728  0.0707
    1DIPC   D2B23614  16.238   6.797   3.936  0.0016 -0.2458  0.1352
    1DIPC   D3B23615  15.967   7.121   3.952 -0.1791  0.0812 -0.1460
    1DIPC   C4B23616  15.840   7.351   3.486  0.0456 -0.0544 -0.0018
    1DIPC   NC323617   3.760   5.877   1.856 -0.0854  0.2688  0.1224
    1DIPC   PO423618   3.765   5.442   2.080  0.2156 -0.2274  0.0232
    1DIPC   GL123619   3.643   5.336   2.493  0.0506  0.0099  0.0698
    1DIPC   GL223620   3.359   5.504   2.729  0.0347  0.1018  0.3961
    1DIPC   C1A23621   3.828   5.699   2.880  0.2453  0.0828 -0.1004
    1DIPC   D2A23622   4.057   5.756   3.216  0.2034  0.0810  0.4141
    1DIPC   D3A23623   4.379   6.042   3.168  0.1189  0.0941  0.0499
    1DIPC   C4A23624   4.382   6.540   3.015 -0.1498  0.0276  0.1573
    1DIPC   C1B23625   3.528   5.491   3.180  0.0221  0.0075  0.0476
    1DIPC   D2B23626   3.487   5.094   3.471  0.1049  0.2771 -0.0080
    1DIPC   D3B23627   3.574   5.329   3.835 -0.0015  0.0491 -0.2487
    1DIPC   C4B23628   3.418   5.688   3.931 -0.1717  0.1552  0.2906
    1DIPC   NC323629   5.141  16.644   1.915 -0.0558 -0.3175  0.1659
    1DIPC   PO423630   5.292  16.949   2.192 -0.1664  0.0444  0.2020
    1DIPC   GL123631   5.253  17.013   2.672  0.1040 -0.0674 -0.0537
    1DIPC   GL223632   5.134  16.776   2.890 -0.0318  0.2719 -0.1034
    1DIPC   C1A23633   5.608  17.053   3.028 -0.2605  0.3557 -0.0510
    1DIPC   D2A23634   5.873  16.878   3.369 -0.2422 -0.4063  0.1241
    1DIPC   D3A23635   5.648  16.837   3.705 -0.0266  0.2634  0.1287
    1DIPC   C4A23636   5.820  16.939   4.171  0.0016  0.2421  0.0672
    1DIPC   C1B23637   5.157  16.763   3.368  0.0589 -0.4162 -0.1847
    1DIPC   D2B23638   5.139  16.706   3.891  0.1955  0.0117 -0.2094
    1DIPC   D3B23639   5.364  16.364   3.800  0.0843  0.0017  0.2762
    1DIPC   C4B23640   5.298  15.981   4.061  0.1145 -0.0404  0.1437
    1DIPC   NC323641  13.655   9.521   2.779  0.2157 -0.0955  0.0762
    1DIPC   PO423642  13.470   9.086   2.905  0.3612  0.0378  0.2505
    1DIPC   GL123643  13.593   8.837   3.311  0.1686 -0.0516  0.0926
    1DIPC   GL223644  13.625   9.040   3.584  0.1058 -0.1121  0.0771
    1DIPC   C1A23645  13.223   8.438   3.414 -0.1569  0.0682  0.2756
    1DIPC   D2A23646  13.102   8.189   3.694 -0.1995  0.1380 -0.2583
    1DIPC   D3A23647  12.780   8.388   3.994  0.0357 -0.1840  0.2912
    1DIPC   C4A23648  12.430   8.345   4.312  0.2423  0.0610  0.3081
    1DIPC   C1B23649  13.639   9.360   3.852  0.1958 -0.0285  0.0748
    1DIPC   D2B23650  13.730   9.559   4.204  0.0703 -0.3671  0.0755
    1DIPC   D3B23651  13.487   9.294   4.463 -0.2962  0.0017 -0.0282
    1DIPC   C4B23652  13.041   9.248   4.622  0.0658  0.0559  0.0271
    1DIPC   NC323653   2.658   5.508   2.347 -0.1847 -0.2189 -0.0633
    1DIPC   PO423654   2.948   5.025   2.355 -0.1383 -0.3155  0.0663
    1DIPC   GL123655   3.113   5.031   2.719  0.3930  0.2312  0.2872
    1DIPC   GL223656   2.901   5.279   2.898  0.2120  0.1248 -0.0577
    1DIPC   C1A23657   3.491   5.027   2.933  0.1571  0.0321 -0.1132
    1DIPC   D2A23658   3.682   4.732   3.126 -0.0256  0.1448  0.1636
    1DIPC   D3A23659   4.101   4.734   3.273  0.2168  0.0263  0.2586
    1DIPC   C4A23660   4.315   4.992   3.511 -0.2122  0.1692 -0.4891
    1DIPC   C1B23661   3.048   4.976   3.199  0.3813  0.0952 -0.0226
    1DIPC   D2B23662   3.096   4.874   3.683  0.2502 -0.0275 -0.1084
    1DIPC   D3B23663   3.105   5.254   3.913 -0.0540  0.2019  0.2211
    1DIPC   C4B23664   3.221   5.350   4.292 -0.1356 -0.1874 -0.0827
    1DIPC   NC323665  22.719  21.493   2.865  0.1537  0.0991 -0.0619
    1DIPC   PO423666  22.616  21.836   3.084 -0.0610 -0.0566 -0.0869
    1DIPC   GL123667  22.779  21.547   3.377 -0.1592  0.0204  0.2458
    1DIPC   GL223668  22.822  21.712   3.718 -0.0543  0.0049  0.1014
    1DIPC   C1A23669  22.667  21.229   3.704  0.0964  0.1392  0.3790
    1DIPC   D2A23670  22.610  20.819   3.828 -0.1659  0.0054 -0.1086
    1DIPC   D3A23671  22.507  20.942   4.177  0.0059  0.3927  0.0247
    1DIPC   C4A23672  22.398  21.403   4.099  0.0169 -0.1154 -0.0466
    1DIPC   C1B23673  22.889  21.707   4.180 -0.1684 -0.0921  0.1089
    1DIPC   D2B23674  23.047  21.657   4.591  0.0336  0.2647  0.2065
    1DIPC   D3B23675  22.980  21.713   4.991 -0.2076  0.0326  0.3841
    1DIPC   C4B23676  23.258  21.365   5.218  0.0525  0.1503 -0.1490
    1DIPC   NC323677  16.249  24.030   2.525  0.0475 -0.1334  0.2154
    1DIPC   PO423678  16.212  23.722   2.620  0.1626 -0.2497  0.1311
    1DIPC   GL123679  16.183  23.705   3.104 -0.0799 -0.3011  0.0249
    1DIPC   GL223680  16.268  24.000   3.163  0.1644  0.1950  0.3238
    1DIPC   C1A23681  16.168  23.657   3.610  0.3415 -0.1764  0.1849
    1DIPC   D2A23682  16.243  23.852   4.045  0.0073  0.3136 -0.2827
    1DIPC   D3A23683  16.537  23.571   4.097 -0.0032  0.0299 -0.2284
    1DIPC   C4A23684  16.685  23.669   4.553 -0.0433  0.1309  0.0547
    1DIPC   C1B23685  16.306  24.131   3.541  0.3341 -0.4800  0.0374
    1DIPC   D2B23686  16.254  24.349   3.978  0.0756  0.2334 -0.0208
    1DIPC   D3B23687  16.002  24.245   4.298 -0.1610 -0.0521 -0.3210
    1DIPC   C4B23688  15.694  24.529   4.085  0.1282 -0.0930 -0.1717
    1DIPC   NC323689   7.268  19.291   2.673  0.2002  0.0805  0.0179
    1DIPC   PO423690   7.179  19.724   2.683  0.1331 -0.3168 -0.1529
    1DIPC   GL123691   7.095  19.547   3.104  0.2860  0.0353  0.1300
    1DIPC   GL223692   7.049  19.758   3.392  0.0347  0.1155  0.1811
    1DIPC   C1A23693   7.010  19.264   3.490  0.3004  0.0969  0.0206
    1DIPC   D2A23694   7.068  19.079   3.933 -0.0692  0.0658 -0.0483
    1DIPC   D3A23695   6.735  18.726   3.935  0.0121 -0.0709 -0.3563
    1DIPC   C4A23696   6.667  18.528   4.350 -0.4078 -0.1423 -0.0014
    1DIPC   C1B23697   7.309  19.592   3.734  0.1130  0.2229  0.0220
    1DIPC   D2B23698   7.144  19.546   4.113  0.2063  0.0550  0.2800
    1DIPC   D3B23699   7.468  19.256   4.270  0.2489  0.2441  0.0943
    1DIPC   C4B23700   7.105  18.851   4.365 -0.1872 -0.1432 -0.2189
    1DIPC   NC323701  20.490  21.285   3.085  0.2889 -0.0071 -0.1113
    1DIPC   PO423702  20.342  21.624   3.308  0.0558 -0.0439  0.1052
    1DIPC   GL123703  20.476  21.388   3.639  0.0831 -0.2149  0.1016
    1DIPC   GL223704  20.682  21.535   3.799  0.1876  0.0387 -0.2785
    1DIPC   C1A23705  20.468  21.103   3.961 -0.1104 -0.0181 -0.1852
    1DIPC   D2A23706  20.486  21.211   4.429 -0.0430 -0.0215 -0.0269
    1DIPC   D3A23707  20.642  20.840   4.596 -0.1825  0.0647  0.3668
    1DIPC   C4A23708  20.406  20.475   4.651  0.1115 -0.0552 -0.0519
    1DIPC   C1B23709  20.962  21.617   4.077  0.0248  0.1396  0.0907
    1DIPC   D2B23710  21.197  21.582   4.529  0.1790  0.0215  0.2807
    1DIPC   D3B23711  20.925  21.435   4.833 -0.2249 -0.2065  0.1034
    1DIPC   C4B23712  20.856  21.142   5.075  0.0862  0.0279 -0.0763
    1DIPC   NC323713   1.348   5.264   1.790  0.0425  0.1545 -0.2948
    1DIPC   PO423714   0.941   5.116   1.952  0.1851 -0.2373 -0.2443
    1DIPC   GL123715   1.277   5.185   2.276  0.1509 -0.0645  0.0479
    1DIPC   GL223716   1.546   4.934   2.343  0.0373 -0.0366 -0.1434
    1DIPC   C1A23717   1.487   5.404   2.626  0.0630  0.0053 -0.1557
    1DIPC   D2A23718   1.786   5.490   2.829  0.0082  0.1379  0.0440
    1DIPC   D3A23719   1.577   5.857   2.964 -0.1825 -0.2747  0.3196
    1DIPC   C4A23720   1.919   6.125   2.919 -0.3154 -0.0184  0.0502
    1DIPC   C1B23721   1.431   4.926   2.724 -0.1777  0.0956 -0.1786
    1DIPC   D2B23722   1.440   5.252   3.145  0.1774 -0.1819  0.0312
    1DIPC   D3B23723   1.675   5.448   3.576 -0.0305  0.1266 -0.0600
    1DIPC   C4B23724   1.658   5.524   4.101  0.1300 -0.2834 -0.1801
    1DIPC   NC323725   7.174  28.405   2.116  0.0005 -0.2315  0.0622
    1DIPC   PO423726   6.995  28.780   2.349  0.2291  0.0029  0.0362
    1DIPC   GL123727   6.825  28.785   2.753  0.0072  0.1155 -0.1477
    1DIPC   GL223728   7.073  28.904   2.970 -0.2244  0.0519 -0.2014
    1DIPC   C1A23729   6.580  28.767   3.063  0.1419  0.3485  0.3157
    1DIPC   D2A23730   6.737  28.798   3.549  0.1985 -0.2031  0.2701
    1DIPC   D3A23731   6.997  28.504   3.815 -0.0903 -0.2322  0.3863
    1DIPC   C4A23732   6.969  28.062   3.806  0.0419  0.0378  0.1582
    1DIPC   C1B23733   7.286  28.910   3.295  0.0908  0.1350 -0.2486
    1DIPC   D2B23734   7.323  28.945   3.727  0.1047 -0.0672  0.2304
    1DIPC   D3B23735   7.110  28.850   4.133  0.1720  0.1819  0.0325
    1DIPC   C4B23736   7.184  29.085   4.483  0.0251 -0.0705  0.3867
    1DIPC   NC323737   8.982   5.027   1.591  0.0056 -0.2810 -0.3066
    1DIPC   PO423738   9.106   5.203   2.055  0.0558 -0.2472 -0.1342
    1DIPC   GL123739   9.184   5.367   2.486  0.2747  0.0409 -0.1829
    1DIPC   GL223740   9.124   5.713   2.483 -0.1822 -0.0824 -0.1516
    1DIPC   C1A23741   9.407   5.367   2.822 -0.0514 -0.0244  0.5222
    1DIPC   D2A23742   9.618   5.705   3.067 -0.1690  0.1607 -0.2594
    1DIPC   D3A23743   9.394   5.389   3.297  0.1583  0.0939  0.1040
    1DIPC   C4A23744   9.272   5.572   3.642  0.1747  0.0498 -0.1264
    1DIPC   C1B23745   9.196   5.872   2.909  0.0586  0.2054  0.2444
    1DIPC   D2B23746   9.255   5.947   3.298 -0.1601  0.0708 -0.0666
    1DIPC   D3B23747   8.973   6.004   3.583  0.0686 -0.1895 -0.1866
    1DIPC   C4B23748   9.080   6.393   3.860 -0.0688 -0.0953  0.1856
    1DIPC   NC323749  22.066  22.155   3.484  0.0352  0.2062  0.0069
    1DIPC   PO423750  21.769  22.214   3.769 -0.2184  0.1247 -0.0079
    1DIPC   GL123751  21.939  22.228   4.107  0.3494 -0.3975  0.0962
    1DIPC   GL223752  22.117  22.578   4.362 -0.3015  0.3135  0.0037
    1DIPC   C1A23753  21.795  22.065   4.468 -0.1455  0.1714 -0.3148
    1DIPC   D2A23754  21.805  21.986   4.913  0.1049 -0.0838 -0.0981
    1DIPC   D3A23755  21.493  21.690   4.885  0.1689  0.0231  0.2392
    1DIPC   C4A23756  21.224  21.605   5.276 -0.1230  0.1183 -0.2238
    1DIPC   C1B23757  22.152  22.347   4.756  0.2256 -0.0653  0.1524
    1DIPC   D2B23758  22.193  22.239   5.151  0.1430 -0.3585 -0.2809
    1DIPC   D3B23759  21.862  22.222   5.328  0.2005  0.0746  0.0388
    1DIPC   C4B23760  21.574  22.550   5.250 -0.0803  0.1672 -0.2483
    1DIPC   NC323761  21.549   1.429   3.100  0.2758  0.2671 -0.0372
    1DIPC   PO423762  21.679   1.208   3.451 -0.1389 -0.0332  0.1842
    1DIPC   GL123763  21.839   1.054   3.750  0.0731  0.3479  0.1434
    1DIPC   GL223764  21.652   0.873   3.944  0.0183 -0.0253 -0.3870
    1DIPC   C1A23765  21.765   1.132   4.283 -0.1066 -0.0887 -0.1544
    1DIPC   D2A23766  21.725   1.140   4.713 -0.1079  0.0251  0.0693
    1DIPC   D3A23767  21.562   1.493   4.532  0.0932 -0.0175  0.0579
    1DIPC   C4A23768  21.323   1.644   4.772  0.1305 -0.1522  0.3064
    1DIPC   C1B23769  21.388   0.915   4.419 -0.0411  0.0452  0.1655
    1DIPC   D2B23770  21.155   1.124   4.722  0.2370  0.0329 -0.0013
    1DIPC   D3B23771  20.730   1.030   4.834 -0.2812 -0.1286 -0.0683
    1DIPC   C4B23772  20.624   0.621   4.861  0.0288  0.1119 -0.1630
    1DIPC   NC323773   6.741  20.952   3.217 -0.1128  0.3968 -0.0082
    1DIPC   PO423774   7.225  20.948   3.366  0.1686  0.0513 -0.0479
    1DIPC   GL123775   7.273  20.791   3.763 -0.3833  0.1694  0.0768
    1DIPC   GL223776   7.445  20.547   3.785 -0.1670  0.2218  0.0669
    1DIPC   C1A23777   7.202  20.712   4.151  0.1049 -0.0640  0.0104
    1DIPC   D2A23778   7.133  20.464   4.417 -0.0588 -0.0354  0.0327
    1DIPC   D3A23779   7.048  20.011   4.443 -0.0722  0.0569 -0.0627
    1DIPC   C4A23780   6.998  19.900   4.831 -0.1823 -0.0353 -0.0131
    1DIPC   C1B23781   7.590  20.398   4.220 -0.0275  0.0717 -0.2419
    1DIPC   D2B23782   7.528  20.200   4.576  0.0095 -0.2236  0.0682
    1DIPC   D3B23783   7.949  19.940   4.601  0.0087  0.3729 -0.1915
    1DIPC   C4B23784   8.442  19.985   4.467  0.3213 -0.0292  0.1285
    1DIPC   NC323785   9.874  25.693   2.615 -0.1645 -0.1333 -0.0165
    1DIPC   PO423786  10.085  25.320   2.590  0.6020  0.1442 -0.2111
    1DIPC   GL123787  10.240  25.145   3.008  0.2085 -0.1303 -0.0646
    1DIPC   GL223788  10.538  25.161   3.083  0.1394 -0.2153 -0.0461
    1DIPC   C1A23789  10.098  25.252   3.356 -0.0089 -0.0518 -0.1697
    1DIPC   D2A23790  10.042  25.425   3.789 -0.0477  0.0493 -0.0291
    1DIPC   D3A23791  10.195  25.342   4.192  0.0618  0.2642 -0.1682
    1DIPC   C4A23792  10.124  24.867   4.218  0.0430  0.0576  0.0715
    1DIPC   C1B23793  10.576  25.191   3.596  0.3252 -0.0557 -0.0352
    1DIPC   D2B23794  10.485  24.964   3.904 -0.0365 -0.2850 -0.0524
    1DIPC   D3B23795  10.606  25.136   4.261  0.0470 -0.0359  0.1744
    1DIPC   C4B23796  10.478  25.465   4.619 -0.2826 -0.0947 -0.1997
    1DIPC   NC323797   5.700  28.826   2.507 -0.2162 -0.1598  0.0607
    1DIPC   PO423798   5.709  29.329   2.592 -0.2482 -0.2723 -0.2456
    1DIPC   GL123799   5.955  29.315   2.870 -0.0414  0.1987 -0.0568
    1DIPC   GL223800   6.089  29.159   3.150  0.3912  0.0308  0.1792
    1DIPC   C1A23801   6.262  29.622   2.953 -0.2043 -0.1246  0.1431
    1DIPC   D2A23802   6.637   0.143   3.148  0.0512  0.1549  0.4397
    1DIPC   D3A23803   6.631   0.505   2.924  0.0519  0.0752  0.3769
    1DIPC   C4A23804   6.959   0.718   2.631 -0.2353 -0.2845  0.3177
    1DIPC   C1B23805   6.183  28.997   3.434  0.0203 -0.1300  0.1226
    1DIPC   D2B23806   6.460  29.051   3.841 -0.0191  0.1850 -0.0983
    1DIPC   D3B23807   6.736  29.089   3.980 -0.0914 -0.2144  0.3326
    1DIPC   C4B23808   6.855  29.393   4.300  0.2111  0.1274 -0.3529
    1DIPC   NC323809   8.490  15.231   2.165 -0.0616  0.0787  0.1412
    1DIPC   PO423810   8.551  15.217   2.633  0.1038 -0.0648 -0.0025
    1DIPC   GL123811   8.613  15.204   3.049  0.1632  0.2539  0.2692
    1DIPC   GL223812   8.243  15.237   3.089  0.1415 -0.2172  0.0491
    1DIPC   C1A23813   8.821  15.169   3.344  0.0744 -0.0365 -0.1036
    1DIPC   D2A23814   8.940  15.300   3.778  0.2542  0.1749  0.0140
    1DIPC   D3A23815   9.310  15.161   3.633 -0.1389  0.1269 -0.0684
    1DIPC   C4A23816   9.661  15.449   3.674 -0.3214  0.0400 -0.2095
    1DIPC   C1B23817   8.179  15.266   3.532  0.2774  0.1798 -0.1004
    1DIPC   D2B23818   7.844  15.206   3.886  0.0982  0.0613 -0.2931
    1DIPC   D3B23819   7.464  15.023   3.843  0.1331 -0.3117 -0.1360
    1DIPC   C4B23820   7.157  15.222   4.068 -0.2242 -0.2040  0.1352
    1DIPC   NC323821   1.564  15.748   2.280  0.1428 -0.0426 -0.2157
    1DIPC   PO423822   1.663  15.523   2.741 -0.3022 -0.3281  0.0219
    1DIPC   GL123823   1.705  15.583   3.291  0.1660 -0.0391 -0.0432
    1DIPC   GL223824   1.928  15.280   3.437  0.1755  0.1921 -0.1196
    1DIPC   C1A23825   1.741  15.668   3.737 -0.0945 -0.1232  0.1463
    1DIPC   D2A23826   1.961  15.751   4.167  0.0472  0.2800 -0.1982
    1DIPC   D3A23827   1.630  15.539   4.322  0.1678  0.1435 -0.2463
    1DIPC   C4A23828   1.459  15.133   4.328  0.2822  0.2913 -0.2061
    1DIPC   C1B23829   2.229  15.186   3.711  0.1248  0.2029 -0.3128
    1DIPC   D2B23830   2.592  14.946   3.727 -0.2429 -0.0760  0.0220
    1DIPC   D3B23831   2.918  15.109   4.047 -0.0597 -0.0512 -0.3737
    1DIPC   C4B23832   2.911  15.513   3.964  0.1882 -0.1571  0.0041
    1DIPC   NC323833   0.327   0.612   3.115 -0.2492 -0.2578 -0.2670
    1DIPC   PO423834   0.196   0.937   2.774  0.2033 -0.2271  0.0564
    1DIPC   GL123835   0.131   1.138   3.168 -0.0485 -0.0219  0.0102
    1DIPC   GL223836   0.144   1.032   3.439  0.2837 -0.0047  0.0252
    1DIPC   C1A23837  29.398   1.354   3.323  0.4925  0.0622 -0.0192
    1DIPC   D2A23838  29.216   1.442   3.761  0.0668  0.0021  0.0615
    1DIPC   D3A23839  28.998   1.407   4.165 -0.1210 -0.0488  0.0212
    1DIPC   C4A23840  28.544   1.179   4.264  0.1168  0.2125 -0.2867
    1DIPC   C1B23841   0.192   0.948   3.881  0.0624  0.0648  0.1265
    1DIPC   D2B23842   0.000   0.575   4.056 -0.2008 -0.2512  0.2131
    1DIPC   D3B23843  29.221   0.659   4.285 -0.1145 -0.0595 -0.3465
    1DIPC   C4B23844  28.908   0.588   4.060  0.3289 -0.1405 -0.0802
    1DIPC   NC323845  13.133  28.171   2.343  0.0337  0.2157  0.0809
    1DIPC   PO423846  13.443  27.910   2.663 -0.2013  0.2070  0.1601
    1DIPC   GL123847  13.740  28.008   2.913 -0.0250 -0.2436  0.3725
    1DIPC   GL223848  13.670  27.764   3.127 -0.1182  0.2039 -0.2614
    1DIPC   C1A23849  14.001  28.221   3.325 -0.1848  0.1975  0.2898
    1DIPC   D2A23850  14.080  28.370   3.701 -0.1232  0.0645  0.1000
    1DIPC   D3A23851  14.086  28.142   4.085 -0.0128  0.3219  0.4404
    1DIPC   C4A23852  14.396  28.173   4.349 -0.1399  0.2266  0.1514
    1DIPC   C1B23853  13.699  27.733   3.476  0.0074 -0.0912  0.0028
    1DIPC   D2B23854  13.707  27.973   3.771  0.1813  0.2176  0.0208
    1DIPC   D3B23855  13.260  27.849   3.768  0.0478  0.2278  0.0121
    1DIPC   C4B23856  13.232  27.829   3.333 -0.1801  0.2283 -0.0183
    1DIPC   NC323857   2.904  19.321   3.071 -0.3224  0.2270 -0.0755
    1DIPC   PO423858   3.143  19.725   3.199  0.1226 -0.2399 -0.2957
    1DIPC   GL123859   3.048  19.911   3.539 -0.4545 -0.1005  0.3279
    1DIPC   GL223860   3.245  19.996   3.833 -0.0211 -0.0042 -0.1411
    1DIPC   C1A23861   2.763  20.010   3.850  0.1284 -0.2966  0.2910
    1DIPC   D2A23862   2.394  19.719   4.122  0.1393  0.0537  0.3657
    1DIPC   D3A23863   2.250  19.321   3.865 -0.2807 -0.3986 -0.0330
    1DIPC   C4A23864   2.086  19.174   4.176  0.0562  0.2297  0.1717
    1DIPC   C1B23865   3.389  20.135   4.299  0.0513 -0.2914 -0.1384
    1DIPC   D2B23866   3.492  19.879   4.613 -0.0910  0.0923 -0.0412
    1DIPC   D3B23867   3.685  19.561   4.864  0.0718 -0.4487  0.1650
    1DIPC   C4B23868   3.578  19.531   5.394 -0.0938 -0.1038  0.3155
    1DIPC   NC323869  13.058  29.319   2.441  0.1339 -0.0685 -0.0351
    1DIPC   PO423870  12.984   0.215   2.510 -0.3498 -0.0616 -0.4038
    1DIPC   GL123871  12.975   0.302   2.942 -0.0068 -0.0197  0.1962
    1DIPC   GL223872  12.930   0.534   3.234 -0.0996  0.1880  0.1238
    1DIPC   C1A23873  12.805   0.093   3.241  0.0863  0.0733 -0.2794
    1DIPC   D2A23874  12.569  29.596   3.535 -0.0042 -0.3036 -0.1358
    1DIPC   D3A23875  12.895  29.388   3.873 -0.2980 -0.0106 -0.0600
    1DIPC   C4A23876  12.654  29.225   4.271 -0.3477 -0.2746  0.0749
    1DIPC   C1B23877  12.936   0.296   3.707  0.2173 -0.2290  0.1002
    1DIPC   D2B23878  13.029   0.198   4.199  0.0306  0.3269 -0.2421
    1DIPC   D3B23879  12.794   0.314   4.519  0.5038  0.5502  0.1251
    1DIPC   C4B23880  12.512  29.569   4.620  0.1004 -0.1979 -0.0915
    1DIPC   NC323881   8.636  18.386   2.709 -0.1832 -0.0751 -0.0403
    1DIPC   PO423882   8.549  18.007   2.644 -0.1139  0.2061  0.0835
    1DIPC   GL123883   8.537  18.064   3.087  0.0219 -0.1135  0.1490
    1DIPC   GL223884   8.208  18.237   3.134  0.2238  0.1271 -0.1484
    1DIPC   C1A23885   8.487  17.824   3.523 -0.0104  0.0847 -0.0532
    1DIPC   D2A23886   8.509  17.457   3.810 -0.2243  0.0844 -0.1104
    1DIPC   D3A23887   8.451  17.562   4.306  0.0509  0.0528  0.0611
    1DIPC   C4A23888   8.320  17.291   4.720  0.1215 -0.2742  0.0413
    1DIPC   C1B23889   8.156  18.226   3.505  0.2225 -0.1687 -0.0170
    1DIPC   D2B23890   8.388  18.022   3.936 -0.0869 -0.1116 -0.0505
    1DIPC   D3B23891   8.514  18.104   4.353 -0.2081  0.1087  0.3206
    1DIPC   C4B23892   8.866  17.803   4.483  0.2098  0.0223  0.0109
    1DIPC   NC323893   7.392  20.509   3.249 -0.0050  0.0364 -0.0330
    1DIPC   PO423894   6.970  20.500   3.073  0.2699  0.2896 -0.1092
    1DIPC   GL123895   6.823  20.184   3.444 -0.2102  0.2726 -0.3036
    1DIPC   GL223896   7.075  20.256   3.577 -0.1865  0.0972 -0.0328
    1DIPC   C1A23897   6.856  19.854   3.830  0.0842 -0.0816 -0.1493
    1DIPC   D2A23898   6.679  19.707   4.210 -0.1860 -0.0183 -0.0396
    1DIPC   D3A23899   6.594  19.547   4.617 -0.0311 -0.2875 -0.0635
    1DIPC   C4A23900   6.796  19.151   4.825  0.0076 -0.0130  0.2165
    1DIPC   C1B23901   7.252  20.083   4.002 -0.2131 -0.0380  0.1028
    1DIPC   D2B23902   7.561  19.819   4.265  0.0587  0.2351  0.1369
    1DIPC   D3B23903   7.236  19.564   4.612  0.1388 -0.3032 -0.4030
    1DIPC   C4B23904   7.377  19.232   4.893  0.2145 -0.0271 -0.0904
    1DIPC   NC323905   6.393  16.350   2.593 -0.0098  0.0775  0.0044
    1DIPC   PO423906   6.276  16.703   2.805 -0.4454 -0.1710  0.0630
    1DIPC   GL123907   6.147  16.517   3.154  0.0973  0.1330 -0.1620
    1DIPC   GL223908   6.320  16.250   3.139 -0.1482  0.1931  0.4043
    1DIPC   C1A23909   6.001  16.394   3.558  0.2193  0.0496  0.1884
    1DIPC   D2A23910   6.116  16.192   3.984  0.3888 -0.0954  0.1973
    1DIPC   D3A23911   5.881  16.396   4.338  0.1171  0.2274 -0.0122
    1DIPC   C4A23912   5.404  16.466   4.323 -0.1767 -0.1868 -0.0499
    1DIPC   C1B23913   6.211  15.971   3.513 -0.0162 -0.0626  0.0042
    1DIPC   D2B23914   6.311  15.602   3.466  0.0979 -0.1100 -0.1055
    1DIPC   D3B23915   6.415  15.620   3.081  0.2547 -0.0695 -0.1361
    1DIPC   C4B23916   6.784  15.514   3.123 -0.0348 -0.1985 -0.0527
    1DIPC   NC323917  18.967  24.087   3.467  0.0216  0.1251 -0.2298
    1DIPC   PO423918  18.595  24.006   3.603 -0.1374 -0.0187  0.1088
    1DIPC   GL123919  18.518  24.290   3.859 -0.0255  0.1217 -0.1295
    1DIPC   GL223920  18.181  24.196   3.950  0.1224 -0.3431  0.2421
    1DIPC   C1A23921  18.411  24.543   4.280  0.1029 -0.3214 -0.2589
    1DIPC   D2A23922  18.583  24.633   4.732 -0.0559  0.2549  0.1127
    1DIPC   D3A23923  18.452  25.074   4.684  0.0294 -0.1638 -0.1345
    1DIPC   C4A23924  18.861  25.414   4.617 -0.0118  0.0639  0.3849
    1DIPC   C1B23925  18.552  24.020   4.303 -0.0288  0.2315 -0.0270
    1DIPC   D2B23926  18.784  24.166   4.704 -0.0010 -0.0147  0.2440
    1DIPC   D3B23927  18.728  24.015   5.115 -0.2827 -0.0446 -0.2812
    1DIPC   C4B23928  18.340  23.942   5.242 -0.0200 -0.1859 -0.1062
    1DIPC   NC323929   9.965   3.212   2.241 -0.2924  0.1132 -0.0753
    1DIPC   PO423930  10.256   2.844   2.219  0.1054  0.1310  0.1018
    1DIPC   GL123931  10.208   2.927   2.622 -0.0939  0.3118  0.1622
    1DIPC   GL223932  10.022   3.304   2.705  0.0806 -0.1525 -0.2595
    1DIPC   C1A23933  10.193   2.996   3.002  0.0519  0.2110 -0.1449
    1DIPC   D2A23934  10.243   2.673   3.349 -0.0357  0.0021  0.1388
    1DIPC   D3A23935   9.840   2.517   3.540 -0.0383  0.2146  0.2727
    1DIPC   C4A23936   9.910   2.410   3.992  0.0140 -0.2468  0.1814
    1DIPC   C1B23937  10.072   3.694   2.945 -0.2887  0.1864 -0.1682
    1DIPC   D2B23938  10.085   3.725   3.404  0.1186 -0.1586 -0.1037
    1DIPC   D3B23939  10.261   4.028   3.782  0.1499 -0.1185  0.1009
    1DIPC   C4B23940  10.673   4.211   3.984 -0.1218 -0.2147  0.0378
    1DIPC   NC323941  24.957   0.963   3.547 -0.0909  0.1600  0.2314
    1DIPC   PO423942  24.915   0.535   3.399  0.1105  0.0174 -0.1709
    1DIPC   GL123943  24.704   0.454   3.719 -0.1632  0.0885  0.0399
    1DIPC   GL223944  24.502   0.289   3.952  0.1151  0.2746  0.0205
    1DIPC   C1A23945  24.868   0.511   4.095 -0.0397 -0.1435 -0.0436
    1DIPC   D2A23946  24.817   0.409   4.518  0.1079  0.0874  0.2510
    1DIPC   D3A23947  24.901   0.601   4.918  0.0716  0.0327  0.1872
    1DIPC   C4A23948  24.693   0.638   5.397 -0.1025 -0.0611  0.1920
    1DIPC   C1B23949  24.403   0.214   4.384  0.2359  0.3264  0.1741
    1DIPC   D2B23950  24.663  29.593   4.670  0.0138 -0.0364  0.0204
    1DIPC   D3B23951  24.908  29.506   5.090 -0.0803  0.1358  0.3218
    1DIPC   C4B23952  25.185  29.085   5.221 -0.1530  0.1715  0.1312
    1DIPC   NC323953  27.735  28.023   2.958 -0.2271 -0.0273  0.0905
    1DIPC   PO423954  27.530  27.828   3.302 -0.2553 -0.0217 -0.0090
    1DIPC   GL123955  27.543  27.764   3.783 -0.0456 -0.1060  0.3856
    1DIPC   GL223956  27.730  27.977   3.924  0.1436  0.0063 -0.0385
    1DIPC   C1A23957  27.277  27.705   4.113  0.1842  0.0118  0.0753
    1DIPC   D2A23958  27.385  27.670   4.435 -0.1403 -0.1276 -0.2181
    1DIPC   D3A23959  27.549  28.018   4.636  0.2981  0.1656 -0.3450
    1DIPC   C4A23960  27.527  28.309   4.930  0.1141 -0.1790 -0.2389
    1DIPC   C1B23961  27.448  28.167   4.202 -0.1361  0.2142  0.0764
    1DIPC   D2B23962  27.018  28.022   4.387  0.5184  0.2008  0.1404
    1DIPC   D3B23963  27.002  27.721   4.834  0.0486  0.0887 -0.1623
    1DIPC   C4B23964  27.269  27.880   5.077 -0.0693  0.3294 -0.1660
    1DIPC   NC323965   6.497  11.521   1.960  0.1513  0.0774 -0.0686
    1DIPC   PO423966   6.817  11.317   1.832  0.0094 -0.0115 -0.2454
    1DIPC   GL123967   6.924  11.497   2.201 -0.0490  0.1220 -0.0288
    1DIPC   GL223968   7.123  11.837   2.181 -0.1523 -0.0407  0.0767
    1DIPC   C1A23969   7.064  11.323   2.522  0.2577 -0.1391 -0.4292
    1DIPC   D2A23970   7.009  11.158   3.059  0.0351  0.0787  0.1343
    1DIPC   D3A23971   7.250  11.172   3.320  0.3553 -0.1052  0.0284
    1DIPC   C4A23972   7.235  11.108   3.805  0.0781  0.1635  0.0930
    1DIPC   C1B23973   7.026  11.896   2.682 -0.0759  0.0853 -0.1669
    1DIPC   D2B23974   6.689  12.177   2.962  0.0460  0.1252  0.1070
    1DIPC   D3B23975   7.049  12.331   2.998  0.0839 -0.2062 -0.1724
    1DIPC   C4B23976   7.213  12.361   3.302 -0.1916 -0.1627 -0.1264
    1DIPC   NC323977  18.723   1.971   3.191  0.1507 -0.0562 -0.0066
    1DIPC   PO423978  19.151   1.859   3.261  0.1438 -0.0308  0.0827
    1DIPC   GL123979  18.900   1.978   3.660 -0.0812  0.1951  0.3162
    1DIPC   GL223980  19.052   1.665   3.797 -0.0442 -0.2794  0.3073
    1DIPC   C1A23981  18.494   2.046   3.944 -0.1577  0.1113 -0.0419
    1DIPC   D2A23982  18.236   2.459   3.882  0.1071 -0.1138  0.0617
    1DIPC   D3A23983  18.382   2.640   4.136 -0.1405  0.0798  0.1458
    1DIPC   C4A23984  18.318   2.393   4.403  0.1054  0.0427 -0.1832
    1DIPC   C1B23985  18.961   2.076   4.125  0.0339  0.1283  0.0471
    1DIPC   D2B23986  19.018   2.007   4.539  0.0423 -0.0831  0.1811
    1DIPC   D3B23987  19.147   1.625   4.400 -0.1661 -0.1371  0.0784
    1DIPC   C4B23988  19.571   1.489   4.571 -0.1975  0.0304 -0.0286
    1DIPC   NC323989  26.969  26.936   3.491  0.0365 -0.3264  0.0152
    1DIPC   PO423990  26.638  26.650   3.238 -0.1299 -0.1164  0.1719
    1DIPC   GL123991  26.532  26.760   3.707 -0.3910  0.4092 -0.0121
    1DIPC   GL223992  26.512  27.036   3.816 -0.3589  0.1091 -0.1306
    1DIPC   C1A23993  26.359  26.618   4.095  0.0129  0.5673 -0.0355
    1DIPC   D2A23994  26.400  26.618   4.582 -0.0597  0.1176  0.0112
    1DIPC   D3A23995  26.761  26.894   4.697  0.0925  0.1233 -0.0988
    1DIPC   C4A23996  27.139  26.875   4.505 -0.0414 -0.0455  0.2697
    1DIPC   C1B23997  26.892  27.143   4.095 -0.2016 -0.0118 -0.0385
    1DIPC   D2B23998  26.990  27.370   4.493  0.0487  0.1716  0.1693
    1DIPC   D3B23999  27.076  27.272   4.939 -0.0957 -0.2282  0.3330
    1DIPC   C4B24000  26.662  27.118   5.209 -0.5683 -0.1802 -0.1033
    1DIPC   NC324001  21.433   0.144   3.522 -0.2357 -0.0006  0.1017
    1DIPC   PO424002  20.962   0.139   3.617  0.0377 -0.2809 -0.0658
    1DIPC   GL124003  21.146   0.153   3.933  0.1395 -0.2303 -0.0994
    1DIPC   GL224004  21.230  29.461   4.005  0.2474 -0.3682 -0.1482
    1DIPC   C1A24005  21.353   0.390   4.291 -0.4127  0.1408 -0.2545
    1DIPC   D2A24006  21.518   0.600   4.758  0.3216 -0.1189 -0.1509
    1DIPC   D3A24007  21.480   0.369   5.160 -0.3925  0.1114  0.2803
    1DIPC   C4A24008  21.350  29.604   5.361  0.0836  0.0951 -0.1207
    1DIPC   C1B24009  21.329  29.393   4.493  0.1900  0.1576  0.0441
    1DIPC   D2B24010  21.275  29.562   4.851  0.0156  0.0633  0.0359
    1DIPC   D3B24011  21.493  29.209   5.194  0.0327  0.1546 -0.2459
    1DIPC   C4B24012  21.087  29.052   5.520 -0.0475 -0.2530 -0.3140
    1DIPC   NC324013  18.889   0.881   3.212  0.1756  0.2323  0.3907
    1DIPC   PO424014  18.597   0.890   3.496  0.1611  0.0492  0.0481
    1DIPC   GL124015  18.558   1.115   3.765 -0.2530 -0.3752  0.1499
    1DIPC   GL224016  18.259   1.072   3.893 -0.1030 -0.2126 -0.0591
    1DIPC   C1A24017  18.791   1.285   4.132 -0.3568 -0.0458 -0.1762
    1DIPC   D2A24018  18.818   1.229   4.646 -0.1477  0.2174 -0.0284
    1DIPC   D3A24019  18.484   1.246   4.926 -0.2865 -0.0306 -0.1221
    1DIPC   C4A24020  18.400   1.601   5.168 -0.3015  0.3037 -0.3766
    1DIPC   C1B24021  18.304   0.945   4.202  0.1589  0.0105  0.2294
    1DIPC   D2B24022  18.325   1.309   4.382  0.2138  0.0100 -0.0251
    1DIPC   D3B24023  17.969   1.205   4.590  0.1240  0.2049 -0.0461
    1DIPC   C4B24024  17.915   1.248   5.076 -0.1173  0.0292  0.0103
    1DIPC   NC324025  25.772  28.911   3.207 -0.0829 -0.1381  0.2108
    1DIPC   PO424026  25.837  29.334   3.507  0.0982  0.1618  0.0421
    1DIPC   GL124027  26.030  29.573   3.858 -0.2700 -0.0724 -0.0475
    1DIPC   GL224028  25.774   0.022   4.047 -0.1665  0.0674 -0.0502
    1DIPC   C1A24029  26.163  29.435   4.331  0.0560 -0.1722  0.0041
    1DIPC   D2A24030  25.986  29.351   4.708  0.2415 -0.2528 -0.0066
    1DIPC   D3A24031  26.158  29.407   5.061 -0.3501 -0.4280  0.1704
    1DIPC   C4A24032  26.644  29.254   5.256 -0.0437 -0.0086 -0.2427
    1DIPC   C1B24033  25.740   0.123   4.522 -0.1137  0.2096  0.2213
    1DIPC   D2B24034  25.816   0.155   5.021 -0.2853 -0.1335  0.0250
    1DIPC   D3B24035  26.216   0.355   5.128  0.1289 -0.2477  0.3786
    1DIPC   C4B24036  26.498   0.130   5.215  0.3220  0.3639  0.0539
    1DIPC   NC324037   1.796  18.989   3.574  0.1116  0.1518 -0.0679
    1DIPC   PO424038   1.411  18.665   3.462  0.1318 -0.0137  0.1202
    1DIPC   GL124039   1.254  18.794   3.925 -0.0514  0.1913  0.4261
    1DIPC   GL224040   1.577  18.871   4.037  0.2275  0.1970  0.0013
    1DIPC   C1A24041   1.203  18.487   4.324 -0.0179 -0.1063 -0.1667
    1DIPC   D2A24042   0.903  18.151   4.461  0.3738 -0.2246  0.1770
    1DIPC   D3A24043   0.897  17.758   4.264 -0.0757  0.0940  0.0248
    1DIPC   C4A24044   1.156  17.458   4.007  0.0917 -0.5411  0.0859
    1DIPC   C1B24045   1.704  18.874   4.443 -0.0074  0.0992  0.1347
    1DIPC   D2B24046   2.000  18.888   4.746  0.0088  0.3386 -0.3413
    1DIPC   D3B24047   1.707  18.874   5.149  0.2066 -0.3452 -0.1759
    1DIPC   C4B24048   1.828  19.159   5.493 -0.1495 -0.0899 -0.1662
    1DIPC   NC324049  19.230  25.955   3.367 -0.2176 -0.1876 -0.1650
    1DIPC   PO424050  19.469  26.088   3.721  0.2433 -0.2611 -0.0149
    1DIPC   GL124051  19.644  26.192   4.185 -0.0079 -0.6732  0.0453
    1DIPC   GL224052  19.418  26.084   4.420 -0.0675 -0.0935 -0.1277
    1DIPC   C1A24053  19.869  26.249   4.537  0.2018  0.0145 -0.0271
    1DIPC   D2A24054  20.219  26.390   4.773 -0.1979 -0.3216  0.3543
    1DIPC   D3A24055  20.128  25.869   4.881  0.0723 -0.0953 -0.0012
    1DIPC   C4A24056  19.741  25.776   4.646 -0.1080 -0.0580  0.3092
    1DIPC   C1B24057  19.410  26.229   4.804  0.2561 -0.0049 -0.0365
    1DIPC   D2B24058  19.425  25.862   5.049  0.0771  0.0249 -0.2285
    1DIPC   D3B24059  19.030  25.566   5.147 -0.1740 -0.0565  0.0475
    1DIPC   C4B24060  18.755  25.657   5.483  0.0263  0.0720 -0.0223
    1DIPC   NC324061   5.855  22.498   3.694  0.0422  0.0893  0.1392
    1DIPC   PO424062   5.833  22.947   3.674  0.0181 -0.0158  0.2548
    1DIPC   GL124063   5.645  22.986   4.056 -0.0741  0.2315 -0.1077
    1DIPC   GL224064   5.512  23.320   4.236 -0.1238  0.1027 -0.2519
    1DIPC   C1A24065   5.761  22.776   4.521 -0.1041 -0.0407  0.2557
    1DIPC   D2A24066   5.869  22.550   4.737  0.0343  0.0395 -0.1673
    1DIPC   D3A24067   6.319  22.732   4.921 -0.1473 -0.2449 -0.0090
    1DIPC   C4A24068   6.692  22.778   4.636 -0.1425 -0.3315 -0.1923
    1DIPC   C1B24069   5.665  23.439   4.623  0.1578 -0.2255 -0.2031
    1DIPC   D2B24070   5.870  23.170   4.850 -0.1683  0.1640  0.0609
    1DIPC   D3B24071   5.814  23.397   5.185 -0.0814 -0.0979 -0.3607
    1DIPC   C4B24072   5.986  23.842   5.327  0.2147  0.0370  0.1557
    1DIPC   NC324073   1.869   2.823   2.258 -0.3558 -0.3721  0.0829
    1DIPC   PO424074   2.023   2.488   2.336 -0.1737  0.2221 -0.0995
    1DIPC   GL124075   1.847   2.639   2.772  0.0203 -0.1500  0.0392
    1DIPC   GL224076   1.969   2.803   3.064  0.0541  0.3362  0.1053
    1DIPC   C1A24077   1.494   2.707   3.060  0.0033  0.2639 -0.1423
    1DIPC   D2A24078   1.272   2.838   3.524  0.2300 -0.1167  0.3354
    1DIPC   D3A24079   1.176   2.916   3.903  0.1912  0.2162  0.1560
    1DIPC   C4A24080   1.060   3.283   4.117  0.0308  0.0693  0.1414
    1DIPC   C1B24081   1.770   2.824   3.512 -0.0602 -0.0028  0.1342
    1DIPC   D2B24082   1.821   2.880   3.983  0.0138  0.2183 -0.2986
    1DIPC   D3B24083   2.093   2.595   4.348 -0.1476  0.0522 -0.0558
    1DIPC   C4B24084   2.483   2.303   4.339  0.2679 -0.2300 -0.3625
    1DIPC   NC324085  26.631   1.153   3.490  0.0532  0.0674  0.1738
    1DIPC   PO424086  26.198   1.301   3.416  0.1757 -0.1498 -0.1820
    1DIPC   GL124087  26.221   1.327   3.764 -0.3810 -0.2668 -0.0510
    1DIPC   GL224088  25.946   1.381   3.929  0.1930  0.3063 -0.2309
    1DIPC   C1A24089  26.412   1.290   4.179 -0.2474 -0.1778 -0.1859
    1DIPC   D2A24090  26.907   1.453   4.239 -0.0673  0.0196  0.0592
    1DIPC   D3A24091  26.771   1.852   4.223 -0.0809  0.0133 -0.1470
    1DIPC   C4A24092  26.570   2.150   4.576 -0.3117  0.1373 -0.1163
    1DIPC   C1B24093  26.004   1.547   4.418 -0.1101  0.1446  0.1809
    1DIPC   D2B24094  26.166   1.332   4.698  0.2572 -0.3039  0.2827
    1DIPC   D3B24095  26.451   1.655   4.516  0.2236  0.1231 -0.3438
    1DIPC   C4B24096  26.927   1.778   4.741  0.0914  0.2194  0.0913
    1DIPC   NC324097  12.357  17.552   1.930  0.0110  0.2854  0.2068
    1DIPC   PO424098  12.494  17.711   2.409  0.2307  0.0460  0.0514
    1DIPC   GL124099  12.220  17.795   2.738 -0.0008 -0.0336  0.0396
    1DIPC   GL224100  11.911  18.090   2.836  0.2375  0.2494 -0.2407
    1DIPC   C1A24101  12.180  17.821   3.130 -0.0719  0.1047 -0.1526
    1DIPC   D2A24102  12.484  17.497   3.399 -0.2160 -0.0926 -0.0610
    1DIPC   D3A24103  12.276  17.688   3.797  0.1668  0.2103 -0.1065
    1DIPC   C4A24104  12.439  17.474   4.187 -0.0069  0.3099  0.1291
    1DIPC   C1B24105  11.686  18.018   3.246 -0.2683  0.0859 -0.0920
    1DIPC   D2B24106  11.447  18.197   3.497 -0.1472  0.1625  0.2149
    1DIPC   D3B24107  11.570  18.615   3.436  0.1715 -0.0459  0.1299
    1DIPC   C4B24108  11.375  19.006   3.396  0.4398  0.3007 -0.1291
    1DIPC   NC324109   9.446  22.693   2.798 -0.2222  0.0613  0.5280
    1DIPC   PO424110   9.747  22.361   2.835 -0.1129 -0.1017  0.0624
    1DIPC   GL124111   9.816  22.371   3.263 -0.1752 -0.0462 -0.0189
    1DIPC   GL224112   9.546  22.436   3.298  0.2896 -0.0124 -0.3625
    1DIPC   C1A24113   9.685  22.014   3.548 -0.1238 -0.3281  0.0667
    1DIPC   D2A24114   9.933  21.701   3.715  0.2309  0.0635  0.1264
    1DIPC   D3A24115   9.778  21.990   4.075 -0.1976  0.0467 -0.1737
    1DIPC   C4A24116  10.165  22.218   4.374 -0.0485  0.0069 -0.1326
    1DIPC   C1B24117   9.202  22.298   3.399  0.0535 -0.1564 -0.0259
    1DIPC   D2B24118   8.660  22.474   3.591 -0.1416  0.1854  0.2124
    1DIPC   D3B24119   8.369  22.334   3.886  0.4042  0.1840  0.0623
    1DIPC   C4B24120   7.975  22.145   3.828 -0.2124  0.3848 -0.0843
    1DIPC   NC324121  11.359  14.349   2.304  0.5370 -0.0463  0.3895
    1DIPC   PO424122  11.385  13.929   2.570  0.2321  0.0502 -0.1053
    1DIPC   GL124123  11.668  13.814   2.907  0.0133 -0.1704 -0.1327
    1DIPC   GL224124  11.398  13.922   3.100  0.0617 -0.1155 -0.0564
    1DIPC   C1A24125  11.758  13.877   3.383  0.0457 -0.1976  0.0453
    1DIPC   D2A24126  11.567  13.830   3.769 -0.0894 -0.0391  0.2095
    1DIPC   D3A24127  11.731  13.393   3.697  0.1080 -0.2370  0.1722
    1DIPC   C4A24128  11.451  13.128   3.410  0.0419  0.0885  0.1311
    1DIPC   C1B24129  11.255  14.137   3.494 -0.1981  0.3045 -0.1612
    1DIPC   D2B24130  11.185  14.282   3.897 -0.1080  0.1567 -0.2235
    1DIPC   D3B24131  10.937  14.243   4.196  0.1135 -0.4995 -0.0521
    1DIPC   C4B24132  10.580  14.515   4.311  0.1882 -0.0468  0.0893
    1DIPC   NC324133   9.974  16.982   2.298  0.0168  0.2320 -0.0815
    1DIPC   PO424134   9.611  16.765   2.464 -0.1625 -0.0885 -0.0517
    1DIPC   GL124135   9.781  17.003   2.794  0.0762 -0.2448  0.1939
    1DIPC   GL224136  10.115  17.040   2.779  0.1718 -0.0530  0.3826
    1DIPC   C1A24137   9.969  16.870   3.264 -0.3266  0.2482  0.2121
    1DIPC   D2A24138   9.987  16.548   3.488 -0.1761  0.1315  0.0341
    1DIPC   D3A24139  10.313  16.766   3.596 -0.0721  0.2300 -0.0068
    1DIPC   C4A24140  10.353  16.865   3.987 -0.0811 -0.4180  0.0651
    1DIPC   C1B24141  10.237  17.261   3.141 -0.1278  0.0045  0.0512
    1DIPC   D2B24142  10.265  17.338   3.572 -0.0549  0.2430 -0.1837
    1DIPC   D3B24143   9.744  17.268   3.512  0.1736  0.2629  0.1933
    1DIPC   C4B24144   9.474  17.115   3.216  0.1699  0.4181  0.0974
    1DIPC   NC324145  10.545  27.889   2.712 -0.0083 -0.0526  0.1670
    1DIPC   PO424146  10.375  27.698   3.012  0.1711 -0.1102 -0.2073
    1DIPC   GL124147  10.371  27.824   3.373  0.0157 -0.3932  0.0808
    1DIPC   GL224148  10.526  28.118   3.423  0.2692 -0.2037  0.2376
    1DIPC   C1A24149  10.651  27.757   3.708 -0.1190 -0.0236  0.4450
    1DIPC   D2A24150  10.956  28.069   3.851  0.0620  0.0070  0.1314
    1DIPC   D3A24151  11.147  27.680   3.683  0.2855 -0.0570  0.0204
    1DIPC   C4A24152  10.938  27.261   3.710  0.2875  0.1603 -0.2295
    1DIPC   C1B24153  10.743  28.491   3.583 -0.1009 -0.0671 -0.0494
    1DIPC   D2B24154  10.877  28.814   3.852 -0.2191 -0.2287 -0.0779
    1DIPC   D3B24155  10.911  29.097   3.540  0.3535  0.1533  0.0203
    1DIPC   C4B24156  11.270  29.293   3.429 -0.2104  0.0395 -0.0067
    1DIPC   NC324157  11.734   8.377   2.384  0.0477  0.1097 -0.0936
    1DIPC   PO424158  11.834   8.410   2.783 -0.2169 -0.0017 -0.0396
    1DIPC   GL124159  11.553   8.399   3.191 -0.1361  0.1739  0.0958
    1DIPC   GL224160  11.227   8.499   3.307 -0.1617 -0.1473 -0.2382
    1DIPC   C1A24161  11.649   8.358   3.668  0.3652 -0.0052  0.1297
    1DIPC   D2A24162  11.517   8.194   3.962  0.0206  0.0260  0.1425
    1DIPC   D3A24163  11.608   8.123   4.367 -0.0210  0.4600  0.1735
    1DIPC   C4A24164  11.478   7.698   4.559 -0.0940  0.1844 -0.3275
    1DIPC   C1B24165  11.492   8.815   3.578  0.0857 -0.0032 -0.0170
    1DIPC   D2B24166  11.935   8.850   3.553  0.1900 -0.0968 -0.1421
    1DIPC   D3B24167  12.033   8.745   3.968 -0.0986 -0.1705  0.1241
    1DIPC   C4B24168  11.916   8.502   4.327  0.1559  0.0018 -0.0061
    1DIPC   NC324169  12.358  28.858   2.603 -0.0332  0.1566 -0.1891
    1DIPC   PO424170  12.796  28.916   2.521  0.2694 -0.1033 -0.2730
    1DIPC   GL124171  12.779  28.857   2.971 -0.2813  0.0140 -0.1568
    1DIPC   GL224172  13.115  28.810   2.990 -0.1233 -0.1883  0.1930
    1DIPC   C1A24173  12.450  28.905   3.287 -0.2056  0.3728 -0.1118
    1DIPC   D2A24174  12.192  29.227   3.563  0.0169 -0.2297 -0.2049
    1DIPC   D3A24175  12.258  29.425   3.942 -0.1224 -0.1514 -0.2843
    1DIPC   C4A24176  12.531   0.052   4.051  0.1016 -0.0752 -0.0129
    1DIPC   C1B24177  13.099  28.995   3.349 -0.0602 -0.0724 -0.0960
    1DIPC   D2B24178  13.284  29.026   3.838 -0.2014  0.1908 -0.1511
    1DIPC   D3B24179  13.356  29.117   4.322 -0.0226  0.0303 -0.1821
    1DIPC   C4B24180  13.050  29.395   4.499  0.1807  0.1615  0.4827
    1DIPC   NC324181   7.106   2.499   2.329  0.2741  0.2483  0.1039
    1DIPC   PO424182   7.185   2.201   2.550 -0.3188  0.3680  0.0305
    1DIPC   GL124183   7.410   2.116   2.914  0.2691  0.0389  0.0932
    1DIPC   GL224184   7.724   2.270   2.804  0.0347  0.2652 -0.1931
    1DIPC   C1A24185   7.533   1.960   3.225  0.0878  0.0992 -0.2402
    1DIPC   D2A24186   7.434   1.659   3.614  0.0877 -0.0379  0.2908
    1DIPC   D3A24187   7.449   1.888   3.990  0.1802  0.0420  0.2352
    1DIPC   C4A24188   7.270   1.831   4.361 -0.2567 -0.1071  0.1322
    1DIPC   C1B24189   8.098   2.551   3.001  0.0132  0.2120 -0.1164
    1DIPC   D2B24190   8.238   2.638   3.320 -0.0910  0.0530 -0.1397
    1DIPC   D3B24191   8.095   2.620   3.668 -0.0281 -0.2158  0.0448
    1DIPC   C4B24192   8.305   2.547   4.066 -0.2064 -0.0967  0.0826
    1DIPC   NC324193  14.135   7.106   2.964 -0.5648 -0.0511  0.0750
    1DIPC   PO424194  13.801   7.097   2.658 -0.0036 -0.3831  0.1433
    1DIPC   GL124195  13.454   7.253   2.933 -0.1901  0.0696  0.0140
    1DIPC   GL224196  13.566   7.428   3.054 -0.0238  0.1645 -0.0225
    1DIPC   C1A24197  13.192   7.373   3.381  0.1941 -0.0877  0.0877
    1DIPC   D2A24198  12.986   7.546   3.794 -0.0792 -0.0244 -0.1296
    1DIPC   D3A24199  12.530   7.431   3.864 -0.1143 -0.0523 -0.0488
    1DIPC   C4A24200  12.498   7.464   4.314  0.0784  0.0445  0.1174
    1DIPC   C1B24201  13.796   7.383   3.457 -0.0107 -0.2694 -0.2533
    1DIPC   D2B24202  14.107   7.256   3.460  0.2270  0.2820 -0.1920
    1DIPC   D3B24203  14.026   7.090   3.808 -0.2106  0.1381  0.1445
    1DIPC   C4B24204  13.534   7.295   3.986 -0.2605 -0.2536  0.1026
    1DIPC   NC324205  14.252   7.008   2.344 -0.0727 -0.0106 -0.0481
    1DIPC   PO424206  14.177   6.705   2.668 -0.0016  0.1040 -0.2370
    1DIPC   GL124207  14.194   6.456   3.059 -0.1665 -0.3396 -0.0048
    1DIPC   GL224208  14.194   6.773   3.301 -0.2484 -0.0884 -0.0137
    1DIPC   C1A24209  13.958   6.267   3.270  0.3807 -0.2252  0.1910
    1DIPC   D2A24210  13.733   6.254   3.721 -0.0070 -0.3313  0.0250
    1DIPC   D3A24211  13.432   6.507   3.762  0.3500 -0.0057 -0.2311
    1DIPC   C4A24212  13.228   6.716   4.117  0.1457  0.2236  0.1097
    1DIPC   C1B24213  14.032   6.618   3.583 -0.3700  0.0121  0.3345
    1DIPC   D2B24214  13.924   6.590   4.030 -0.1708 -0.3501 -0.0214
    1DIPC   D3B24215  13.672   6.870   4.104  0.0077  0.0499  0.1981
    1DIPC   C4B24216  13.711   7.166   4.415  0.0417 -0.3187 -0.0035
    1DIPC   NC324217   5.686  27.448   2.682  0.0039  0.1446  0.2685
    1DIPC   PO424218   5.273  27.538   2.947  0.2328 -0.1337 -0.0946
    1DIPC   GL124219   5.507  27.429   3.311  0.0129 -0.0806 -0.4732
    1DIPC   GL224220   5.345  27.213   3.410 -0.1907 -0.0223 -0.0999
    1DIPC   C1A24221   5.774  27.512   3.720 -0.0555 -0.2006 -0.5000
    1DIPC   D2A24222   6.122  27.400   3.935 -0.0426 -0.2600 -0.0411
    1DIPC   D3A24223   6.299  27.268   4.356 -0.2434  0.1308  0.3252
    1DIPC   C4A24224   6.410  26.828   4.262  0.2048 -0.2329 -0.1264
    1DIPC   C1B24225   5.363  27.142   3.842 -0.1969  0.3561 -0.2282
    1DIPC   D2B24226   5.287  27.308   4.210  0.1330 -0.2779 -0.1079
    1DIPC   D3B24227   5.186  27.576   3.898 -0.0269  0.1539  0.1172
    1DIPC   C4B24228   5.334  28.032   3.728 -0.1749 -0.2571  0.0063
    1DIPC   NC324229   9.693   6.307   2.281 -0.2193  0.0525  0.0601
    1DIPC   PO424230   9.856   6.673   2.158  0.2961  0.0786 -0.0455
    1DIPC   GL124231   9.801   6.673   2.687  0.1982 -0.1686 -0.0252
    1DIPC   GL224232  10.042   6.577   2.823  0.0911  0.2679  0.1960
    1DIPC   C1A24233   9.689   6.654   3.138 -0.1760 -0.1408  0.0076
    1DIPC   D2A24234   9.493   6.415   3.562  0.1843  0.0854  0.1340
    1DIPC   D3A24235   9.584   6.651   3.887 -0.2694 -0.0154  0.1303
    1DIPC   C4A24236   9.481   6.379   4.235  0.0990 -0.1828  0.2147
    1DIPC   C1B24237  10.240   6.433   3.144  0.2489 -0.0031  0.4575
    1DIPC   D2B24238  10.519   6.498   3.556 -0.0269 -0.0456  0.0809
    1DIPC   D3B24239  10.299   6.685   3.988  0.1176  0.1065  0.1771
    1DIPC   C4B24240  10.301   6.291   4.186  0.1243  0.2248 -0.1391
    1DIPC   NC324241  12.780   0.772   2.858 -0.2677  0.1099 -0.0217
    1DIPC   PO424242  13.224   0.677   2.670  0.2830  0.0734 -0.0115
    1DIPC   GL124243  13.307   0.883   3.133  0.1243  0.2575 -0.2384
    1DIPC   GL224244  13.416   0.481   3.150  0.0813 -0.0887  0.1555
    1DIPC   C1A24245  13.084   1.110   3.472  0.0512  0.4370  0.2086
    1DIPC   D2A24246  13.275   1.128   3.898 -0.0317  0.0022  0.1235
    1DIPC   D3A24247  13.082   1.427   4.187 -0.3296 -0.0399  0.1227
    1DIPC   C4A24248  13.129   1.774   4.563 -0.1484  0.2103  0.2258
    1DIPC   C1B24249  13.263   0.690   3.572 -0.0541  0.2871 -0.0659
    1DIPC   D2B24250  13.397   0.395   3.929 -0.0212  0.1889  0.2902
    1DIPC   D3B24251  13.776   0.403   3.985 -0.0511 -0.0756  0.0696
    1DIPC   C4B24252  14.183   0.256   3.816  0.0682  0.0904 -0.1610
    1DIPC   NC324253  27.824  21.584   3.345 -0.0718 -0.0586  0.2060
    1DIPC   PO424254  27.850  22.094   3.544 -0.0451 -0.4422  0.3154
    1DIPC   GL124255  27.710  22.285   3.957 -0.1449  0.0620 -0.0187
    1DIPC   GL224256  27.464  22.340   4.175  0.0746  0.3122  0.0314
    1DIPC   C1A24257  27.935  22.369   4.365 -0.0941  0.1749 -0.2011
    1DIPC   D2A24258  27.853  22.575   4.748  0.3593  0.0678 -0.1417
    1DIPC   D3A24259  28.286  22.739   4.899 -0.0632 -0.1119 -0.0373
    1DIPC   C4A24260  28.244  22.948   5.202  0.1792 -0.0594 -0.1551
    1DIPC   C1B24261  27.463  22.662   4.392 -0.1016  0.0449  0.0192
    1DIPC   D2B24262  27.283  23.043   4.519 -0.0429  0.0811  0.0429
    1DIPC   D3B24263  27.468  22.975   4.860  0.3236  0.2534  0.0927
    1DIPC   C4B24264  27.289  23.035   5.233 -0.3517 -0.1849  0.0697
    1DIPC   NC324265  18.866  28.149   3.825 -0.2087 -0.1777 -0.0825
    1DIPC   PO424266  19.017  28.553   3.607  0.0433  0.3709  0.0093
    1DIPC   GL124267  19.044  28.774   3.994 -0.0023  0.0017  0.0189
    1DIPC   GL224268  18.856  28.524   4.142  0.3161 -0.1481  0.1987
    1DIPC   C1A24269  19.362  28.868   4.197  0.3325  0.0534  0.2596
    1DIPC   D2A24270  19.802  29.001   4.172  0.1712 -0.1614  0.0830
    1DIPC   D3A24271  19.598  29.188   4.575 -0.0134 -0.1153 -0.1445
    1DIPC   C4A24272  19.907  29.455   4.751 -0.1056  0.1807 -0.0237
    1DIPC   C1B24273  18.706  28.500   4.510 -0.0457 -0.0934  0.0562
    1DIPC   D2B24274  18.736  28.504   4.940  0.4100 -0.3672 -0.2054
    1DIPC   D3B24275  18.992  28.305   5.015  0.0664  0.1644  0.1774
    1DIPC   C4B24276  19.087  28.030   5.424  0.1449 -0.0058 -0.2762
    1DIPC   NC324277  22.979   0.460   3.297 -0.0436  0.0819  0.0356
    1DIPC   PO424278  23.194   0.746   3.609 -0.0978  0.2839  0.1993
    1DIPC   GL124279  22.761   1.058   3.584 -0.1020  0.3859 -0.1574
    1DIPC   GL224280  22.457   0.982   3.767 -0.1289 -0.1390 -0.0049
    1DIPC   C1A24281  22.654   1.447   3.582  0.0798 -0.0962  0.0583
    1DIPC   D2A24282  22.500   1.822   3.407  0.1599  0.1101 -0.1070
    1DIPC   D3A24283  22.816   1.963   3.570  0.0655  0.1708 -0.2832
    1DIPC   C4A24284  22.860   1.672   3.982 -0.1522 -0.3908  0.0939
    1DIPC   C1B24285  22.235   0.930   4.145 -0.0600  0.1407 -0.1348
    1DIPC   D2B24286  21.926   0.697   4.484 -0.4408 -0.1212 -0.0956
    1DIPC   D3B24287  21.963   0.545   4.950  0.0411 -0.1607 -0.2476
    1DIPC   C4B24288  21.937   0.033   4.944  0.2663  0.2856 -0.1026
    1DIPC   NC324289  21.985  28.608   3.198  0.1061 -0.1977  0.1622
    1DIPC   PO424290  22.121  28.750   3.572  0.1086 -0.0431  0.1801
    1DIPC   GL124291  22.283  28.827   3.994 -0.2148  0.2424  0.0352
    1DIPC   GL224292  22.676  28.951   4.078 -0.0987 -0.0240  0.1663
    1DIPC   C1A24293  22.119  28.806   4.397  0.0612 -0.0138  0.1678
    1DIPC   D2A24294  22.013  28.760   4.872  0.1514 -0.1613  0.0552
    1DIPC   D3A24295  22.048  29.162   5.011 -0.0275  0.0718  0.0122
    1DIPC   C4A24296  22.371  29.349   5.242  0.1904 -0.2304 -0.2680
    1DIPC   C1B24297  22.632  28.813   4.431 -0.0214  0.0646 -0.0221
    1DIPC   D2B24298  22.531  28.833   4.868  0.0029  0.0194 -0.1385
    1DIPC   D3B24299  22.805  29.169   4.893 -0.5389  0.5435  0.0127
    1DIPC   C4B24300  22.748  29.595   4.912 -0.0918 -0.0178 -0.0107
    1DIPC   NC324301  24.351  20.209   2.799  0.0421  0.0842 -0.0929
    1DIPC   PO424302  23.932  20.070   2.951 -0.0615  0.1808  0.0230
    1DIPC   GL124303  23.922  19.944   3.475  0.0886  0.0509  0.1894
    1DIPC   GL224304  23.975  19.637   3.620 -0.0292  0.1030  0.1533
    1DIPC   C1A24305  23.687  20.066   3.888  0.1276  0.1905  0.2086
    1DIPC   D2A24306  23.451  19.899   4.219  0.0318 -0.1373  0.2268
    1DIPC   D3A24307  23.590  20.109   4.486 -0.0471 -0.0855 -0.0400
    1DIPC   C4A24308  23.642  20.561   4.529  0.1045 -0.1967 -0.0884
    1DIPC   C1B24309  24.115  19.144   3.705  0.2141 -0.0779  0.0706
    1DIPC   D2B24310  24.498  18.829   3.824  0.1558  0.0263  0.3301
    1DIPC   D3B24311  24.266  18.813   4.166  0.0024 -0.1584  0.0277
    1DIPC   C4B24312  23.876  18.706   3.937 -0.1860  0.0181 -0.1856
    1DIPC   NC324313   7.379   6.912   2.443 -0.1106  0.1033 -0.0025
    1DIPC   PO424314   7.653   6.617   2.321 -0.1130  0.2092  0.0134
    1DIPC   GL124315   7.489   6.352   2.542  0.1349  0.2769  0.1743
    1DIPC   GL224316   7.294   6.484   2.664  0.2244  0.3653  0.2086
    1DIPC   C1A24317   7.440   6.177   3.024 -0.1945 -0.1536 -0.2071
    1DIPC   D2A24318   7.321   6.265   3.493  0.2067 -0.0377  0.0401
    1DIPC   D3A24319   7.571   6.308   3.777  0.1622  0.1118 -0.3149
    1DIPC   C4A24320   7.776   6.685   3.716  0.0438 -0.0466  0.1018
    1DIPC   C1B24321   7.433   6.668   2.989 -0.0545 -0.1165  0.0641
    1DIPC   D2B24322   7.263   6.906   3.247 -0.1445 -0.1622  0.1176
    1DIPC   D3B24323   7.748   6.941   3.273  0.1934 -0.2225  0.1341
    1DIPC   C4B24324   8.175   7.046   3.500 -0.1905  0.0806 -0.0507
    1DIPC   NC324325  23.310  27.549   3.578  0.1020 -0.2682 -0.1460
    1DIPC   PO424326  23.568  27.886   3.659  0.0285  0.1404  0.1409
    1DIPC   GL124327  23.657  27.852   4.130  0.1682 -0.2134 -0.0460
    1DIPC   GL224328  23.518  27.548   4.078  0.4100  0.0302  0.2153
    1DIPC   C1A24329  23.652  27.658   4.564  0.2230 -0.0118 -0.1967
    1DIPC   D2A24330  23.783  27.525   4.929  0.0011  0.0693 -0.2466
    1DIPC   D3A24331  23.542  27.205   4.749  0.0953  0.1602 -0.3140
    1DIPC   C4A24332  23.064  27.022   4.814 -0.1103 -0.0853  0.0826
    1DIPC   C1B24333  23.204  27.473   4.418 -0.3468 -0.1115  0.1018
    1DIPC   D2B24334  23.199  27.514   4.928  0.0678  0.2566 -0.1471
    1DIPC   D3B24335  22.955  27.876   5.091 -0.1179  0.0124 -0.3405
    1DIPC   C4B24336  22.478  27.911   4.926  0.1088  0.1965  0.3950
    1DIPC   NC324337   2.837   7.188   1.901 -0.3069  0.1235 -0.1641
    1DIPC   PO424338   3.230   7.056   2.070 -0.0250  0.0720  0.0866
    1DIPC   GL124339   3.449   7.296   2.403 -0.1630  0.1367 -0.0389
    1DIPC   GL224340   3.329   7.571   2.678  0.0858  0.2362  0.2476
    1DIPC   C1A24341   3.668   7.199   2.778 -0.3068  0.2575 -0.2510
    1DIPC   D2A24342   3.563   7.141   3.200  0.1013 -0.0953  0.0382
    1DIPC   D3A24343   3.521   6.773   3.502  0.0266 -0.2131 -0.0013
    1DIPC   C4A24344   3.245   6.742   3.902  0.1401 -0.2288 -0.2897
    1DIPC   C1B24345   2.940   7.755   2.853  0.0365  0.1239 -0.3053
    1DIPC   D2B24346   2.621   7.745   2.925 -0.1815  0.0696 -0.2159
    1DIPC   D3B24347   2.748   7.320   3.116 -0.0096 -0.0561 -0.1013
    1DIPC   C4B24348   2.453   6.903   3.103 -0.1355 -0.2431  0.1914
    1DIPC   NC324349  28.697   0.403   2.585 -0.0739 -0.1409 -0.0415
    1DIPC   PO424350  29.082   0.542   2.838 -0.0116 -0.2137  0.0534
    1DIPC   GL124351  29.030   0.909   3.072  0.0271  0.4633  0.2093
    1DIPC   GL224352  29.428   0.771   3.125  0.0621 -0.0745  0.0771
    1DIPC   C1A24353  29.019   1.082   3.507  0.1764  0.0605  0.1198
    1DIPC   D2A24354  28.840   1.039   3.877 -0.0464  0.3043  0.2551
    1DIPC   D3A24355  29.287   0.991   3.926  0.1842 -0.1601 -0.3356
    1DIPC   C4A24356  29.458   1.242   4.249  0.1807 -0.0644  0.1872
    1DIPC   C1B24357  29.419   0.726   3.498  0.0945  0.0466  0.0450
    1DIPC   D2B24358  29.227   0.470   3.738  0.1288  0.1527 -0.2435
    1DIPC   D3B24359  29.542   0.188   3.766  0.0413 -0.0653 -0.0741
    1DIPC   C4B24360   0.315   0.225   3.953  0.1110 -0.0083 -0.0888
    1DIPC   NC324361   0.136  24.872   3.033 -0.2015  0.1472  0.0355
    1DIPC   PO424362   0.332  24.501   3.065 -0.0643 -0.0018 -0.3112
    1DIPC   GL124363   0.341  24.422   3.500  0.1738 -0.0785  0.1788
    1DIPC   GL224364   0.696  24.448   3.610 -0.0490  0.2866 -0.2777
    1DIPC   C1A24365   0.025  24.324   3.964 -0.0381  0.0440  0.1172
    1DIPC   D2A24366  29.422  24.148   4.335 -0.1262 -0.2466 -0.0997
    1DIPC   D3A24367   0.302  24.284   4.443 -0.1929  0.1165  0.1171
    1DIPC   C4A24368   0.364  24.697   4.290  0.1189 -0.3237  0.1442
    1DIPC   C1B24369   0.628  24.386   4.054  0.1532 -0.1406  0.1917
    1DIPC   D2B24370   0.814  24.443   4.397 -0.0638  0.1174  0.2298
    1DIPC   D3B24371   0.749  24.611   4.709  0.2925 -0.2519  0.1364
    1DIPC   C4B24372   0.365  24.644   4.797 -0.0446  0.1241  0.0441
    1DIPC   NC324373  20.159  26.865   3.717  0.0467 -0.0092 -0.1946
    1DIPC   PO424374  20.056  27.293   3.668  0.0745  0.0422  0.1832
    1DIPC   GL124375  20.033  27.356   4.082 -0.0489  0.0755  0.0419
    1DIPC   GL224376  20.035  27.671   4.135  0.0034  0.1834 -0.0083
    1DIPC   C1A24377  20.287  27.420   4.574  0.1553  0.1806  0.1117
    1DIPC   D2A24378  20.347  27.398   5.034 -0.1304  0.0641 -0.0152
    1DIPC   D3A24379  20.186  27.535   5.387 -0.1154 -0.0736 -0.0055
    1DIPC   C4A24380  19.832  27.564   5.385  0.0233 -0.0205  0.0633
    1DIPC   C1B24381  20.113  27.871   4.419 -0.2753  0.0266  0.2020
    1DIPC   D2B24382  20.377  27.847   4.859  0.1081  0.0418  0.0324
    1DIPC   D3B24383  20.592  27.921   5.228 -0.2707 -0.1280  0.1168
    1DIPC   C4B24384  20.730  27.556   5.448 -0.1855 -0.0684  0.1993
    1DIPC   NC324385   7.839  26.767   2.852 -0.0166 -0.2718 -0.0497
    1DIPC   PO424386   7.474  27.006   2.717 -0.0611  0.1747  0.1456
    1DIPC   GL124387   7.304  26.913   3.036  0.0496  0.2427  0.1405
    1DIPC   GL224388   7.576  27.087   3.248 -0.2352 -0.3381 -0.1786
    1DIPC   C1A24389   7.276  26.627   3.380  0.1284  0.3115  0.1032
    1DIPC   D2A24390   7.558  26.566   3.684 -0.1963  0.1590  0.0614
    1DIPC   D3A24391   7.411  26.468   4.184  0.2431  0.3343  0.1303
    1DIPC   C4A24392   7.526  26.723   4.577 -0.0733 -0.1767 -0.3852
    1DIPC   C1B24393   7.699  27.059   3.644  0.1475  0.2856 -0.0728
    1DIPC   D2B24394   7.536  26.958   4.056 -0.3197 -0.0689  0.0086
    1DIPC   D3B24395   7.491  27.285   4.372  0.2149 -0.1346 -0.0748
    1DIPC   C4B24396   7.690  27.231   4.742 -0.1470  0.0034  0.2090
    1DIPC   NC324397  15.837   7.359   2.252  0.0473 -0.3978  0.1371
    1DIPC   PO424398  15.696   7.261   2.638  0.1949 -0.0019  0.1625
    1DIPC   GL124399  15.557   7.286   3.099 -0.1871  0.1447 -0.1017
    1DIPC   GL224400  15.360   7.102   3.002 -0.2592 -0.0806 -0.3214
    1DIPC   C1A24401  15.384   7.351   3.583 -0.1041 -0.1319 -0.0257
    1DIPC   D2A24402  15.497   7.203   4.006  0.1851  0.0963 -0.1423
    1DIPC   D3A24403  15.702   7.513   3.978 -0.2396  0.2045 -0.2044
    1DIPC   C4A24404  15.820   7.652   4.253 -0.1870 -0.1935 -0.2035
    1DIPC   C1B24405  15.139   6.903   3.364 -0.3087 -0.0833  0.1139
    1DIPC   D2B24406  15.146   6.834   3.825  0.1620 -0.0914 -0.1815
    1DIPC   D3B24407  14.980   7.141   4.162  0.2026  0.2012  0.1597
    1DIPC   C4B24408  14.602   7.054   4.550 -0.2339  0.1674  0.0298
    1DIPC   NC324409   7.032  14.154   1.528  0.1193  0.2112  0.3819
    1DIPC   PO424410   6.858  13.938   1.772  0.0633  0.2720  0.0601
    1DIPC   GL124411   6.776  13.919   2.231 -0.1004  0.0656  0.2636
    1DIPC   GL224412   6.667  14.176   2.381  0.0370  0.2321 -0.1669
    1DIPC   C1A24413   6.920  13.758   2.663  0.3986  0.0652 -0.0971
    1DIPC   D2A24414   6.954  13.867   3.208  0.1222 -0.1116 -0.1766
    1DIPC   D3A24415   6.801  13.593   3.501  0.2894 -0.0533  0.1263
    1DIPC   C4A24416   6.886  13.186   3.696  0.1418  0.1837 -0.2937
    1DIPC   C1B24417   6.497  14.058   2.759 -0.3927 -0.0408  0.0169
    1DIPC   D2B24418   6.460  13.997   3.196  0.0083 -0.0171  0.0739
    1DIPC   D3B24419   6.698  14.123   3.524 -0.1086  0.3249 -0.2275
    1DIPC   C4B24420   6.737  14.058   4.068  0.3782  0.0529  0.1721
    1DIPC   NC324421  13.243  23.995   2.364  0.0002  0.3183  0.0345
    1DIPC   PO424422  13.139  24.232   2.751  0.2064  0.0898  0.2732
    1DIPC   GL124423  13.017  24.137   3.147 -0.0837  0.2004  0.2203
    1DIPC   GL224424  12.734  24.155   3.289  0.1078  0.0996  0.1024
    1DIPC   C1A24425  13.063  24.225   3.594 -0.0451  0.2889 -0.2078
    1DIPC   D2A24426  13.086  24.702   3.894 -0.0419 -0.2267 -0.2347
    1DIPC   D3A24427  13.293  24.705   4.255  0.1521  0.0962  0.0090
    1DIPC   C4A24428  13.198  24.729   4.675  0.1110  0.0471 -0.1552
    1DIPC   C1B24429  12.585  24.134   3.771  0.0386 -0.2830 -0.1122
    1DIPC   D2B24430  12.562  24.578   3.789 -0.0272 -0.0436  0.4212
    1DIPC   D3B24431  12.328  24.498   4.284  0.0781 -0.1810 -0.0619
    1DIPC   C4B24432  12.686  24.566   4.676  0.0644  0.1468  0.0624
    1DIPC   NC324433   9.567   9.079   1.994 -0.2916 -0.0018  0.0588
    1DIPC   PO424434   9.856   8.954   2.247  0.0828 -0.1236  0.1410
    1DIPC   GL124435   9.730   8.942   2.775 -0.0022 -0.1452  0.0574
    1DIPC   GL224436   9.717   8.620   2.775 -0.1026  0.0148  0.1375
    1DIPC   C1A24437   9.761   8.792   3.265  0.0977  0.2366 -0.0906
    1DIPC   D2A24438   9.950   8.921   3.729  0.0727  0.0334 -0.1425
    1DIPC   D3A24439   9.957   9.001   4.314 -0.2078 -0.0953 -0.0502
    1DIPC   C4A24440   9.992   8.684   4.662 -0.0768 -0.0737 -0.3981
    1DIPC   C1B24441   9.699   8.313   3.113 -0.0253 -0.0302 -0.1091
    1DIPC   D2B24442   9.898   7.932   3.192 -0.2587 -0.0350  0.0012
    1DIPC   D3B24443   9.950   7.934   3.612  0.1812 -0.1943 -0.0463
    1DIPC   C4B24444   9.785   8.108   3.901 -0.0111 -0.1378 -0.0133
    1DIPC   NC324445  22.052   0.260   3.231 -0.1545 -0.0712  0.2202
    1DIPC   PO424446  22.416  29.606   3.358  0.3265  0.0485 -0.0773
    1DIPC   GL124447  22.763   0.016   3.595  0.0227 -0.2108 -0.4670
    1DIPC   GL224448  22.803   0.357   3.828 -0.0104  0.0157 -0.1468
    1DIPC   C1A24449  22.843  29.414   3.937  0.1966  0.0469 -0.0951
    1DIPC   D2A24450  22.900  29.234   4.412 -0.1083 -0.1721  0.2252
    1DIPC   D3A24451  23.268  29.259   4.252  0.0144  0.0661  0.1100
    1DIPC   C4A24452  23.376   0.050   4.235 -0.1332  0.1433  0.0102
    1DIPC   C1B24453  22.531   0.526   3.930  0.2290 -0.1634 -0.0256
    1DIPC   D2B24454  22.128   0.417   4.098 -0.1792  0.1519  0.2913
    1DIPC   D3B24455  22.444   0.093   4.010  0.3094 -0.0874 -0.1020
    1DIPC   C4B24456  22.849   0.140   4.259 -0.1183 -0.2252  0.3791
    1DIPC   NC324457  13.276  11.638   2.463 -0.2627  0.1443 -0.0685
    1DIPC   PO424458  13.697  11.443   2.604  0.0061 -0.0223 -0.0936
    1DIPC   GL124459  13.637  11.619   3.051  0.1353  0.1083 -0.0639
    1DIPC   GL224460  13.478  11.944   3.014 -0.1709 -0.0021 -0.0632
    1DIPC   C1A24461  13.653  11.515   3.449  0.1601  0.0252  0.0747
    1DIPC   D2A24462  13.934  11.244   3.703 -0.2354 -0.1845 -0.2177
    1DIPC   D3A24463  13.951  10.964   4.039  0.1385  0.1190  0.0582
    1DIPC   C4A24464  14.366  10.731   4.067 -0.0451 -0.1838  0.1112
    1DIPC   C1B24465  13.381  11.941   3.434 -0.0621  0.2368 -0.1976
    1DIPC   D2B24466  13.513  12.006   3.880 -0.2104 -0.1361  0.3615
    1DIPC   D3B24467  13.425  11.552   3.860 -0.2336 -0.1263 -0.0590
    1DIPC   C4B24468  13.429  11.092   3.863 -0.1896  0.1030  0.0822
    1DIPC   NC324469  19.589  22.412   3.849 -0.1466  0.0987  0.0981
    1DIPC   PO424470  19.847  22.163   3.518  0.0720 -0.2375 -0.2845
    1DIPC   GL124471  19.912  22.005   4.040  0.1176  0.0550 -0.1161
    1DIPC   GL224472  20.274  21.971   4.174  0.0732 -0.1566 -0.2545
    1DIPC   C1A24473  19.720  22.144   4.441 -0.1014 -0.0017  0.0733
    1DIPC   D2A24474  19.763  22.246   4.886 -0.1378  0.3578  0.0031
    1DIPC   D3A24475  20.152  22.441   4.650 -0.0568  0.4415  0.1338
    1DIPC   C4A24476  20.476  22.215   4.959 -0.0256  0.3347  0.1408
    1DIPC   C1B24477  20.021  21.742   4.461 -0.3493 -0.0752 -0.1810
    1DIPC   D2B24478  19.968  21.366   4.757 -0.4370  0.2385 -0.1463
    1DIPC   D3B24479  19.725  21.449   5.077  0.0404  0.1440 -0.0019
    1DIPC   C4B24480  19.724  21.539   5.572  0.1350 -0.0992 -0.1113
    1DIPC   NC324481  27.831  18.971   3.487  0.3258 -0.3499  0.3094
    1DIPC   PO424482  27.380  18.741   3.436  0.1822  0.0592  0.0621
    1DIPC   GL124483  27.248  18.555   3.847 -0.0715 -0.3066 -0.0628
    1DIPC   GL224484  27.091  18.311   3.952 -0.2134 -0.0817  0.1464
    1DIPC   C1A24485  27.135  18.633   4.282  0.1459  0.0106 -0.0596
    1DIPC   D2A24486  27.052  18.481   4.691  0.0497 -0.0438 -0.0690
    1DIPC   D3A24487  26.932  18.142   4.741 -0.0263 -0.1527  0.2637
    1DIPC   C4A24488  26.502  18.071   5.038  0.1064  0.2787  0.1613
    1DIPC   C1B24489  26.807  18.237   4.245  0.0042 -0.3147  0.1169
    1DIPC   D2B24490  26.504  18.359   4.539 -0.2008  0.1215  0.2787
    1DIPC   D3B24491  26.655  18.555   4.933  0.2031  0.1295  0.3057
    1DIPC   C4B24492  26.678  18.667   5.269  0.1362 -0.0526  0.1621
    1DIPC   NC324493   7.878  16.525   2.599  0.2331  0.0059 -0.1428
    1DIPC   PO424494   7.420  16.580   2.570  0.0497 -0.1504  0.0303
    1DIPC   GL124495   7.214  16.561   2.888  0.0576 -0.0095  0.0708
    1DIPC   GL224496   6.831  16.448   2.874  0.1767  0.1281 -0.3167
    1DIPC   C1A24497   7.265  16.690   3.338 -0.1464 -0.1291  0.0711
    1DIPC   D2A24498   7.526  16.496   3.719 -0.3251 -0.0586  0.1785
    1DIPC   D3A24499   7.560  16.582   4.108 -0.1305  0.2732  0.3126
    1DIPC   C4A24500   7.902  16.698   4.315  0.0259 -0.2107 -0.1786
    1DIPC   C1B24501   6.767  16.471   3.349  0.2059 -0.0054 -0.0187
    1DIPC   D2B24502   6.515  16.306   3.643  0.0237 -0.0749  0.1659
    1DIPC   D3B24503   6.695  16.077   3.886  0.0030  0.3790 -0.2005
    1DIPC   C4B24504   6.424  15.840   4.014  0.2389  0.2772 -0.0187
    1DIPC   NC324505  23.084  26.780   3.299  0.4854  0.1189  0.1923
    1DIPC   PO424506  22.851  26.629   3.700  0.0057 -0.1029 -0.0919
    1DIPC   GL124507  22.780  26.477   4.146  0.1132  0.0484  0.0812
    1DIPC   GL224508  22.520  26.218   4.359 -0.0484  0.0049 -0.0891
    1DIPC   C1A24509  22.628  26.667   4.560 -0.0894 -0.1406  0.2073
    1DIPC   D2A24510  22.537  27.018   4.803  0.1753  0.1139  0.0861
    1DIPC   D3A24511  22.356  27.149   4.447 -0.1219  0.0186  0.1951
    1DIPC   C4A24512  22.368  27.509   4.329  0.0881  0.2186 -0.0381
    1DIPC   C1B24513  22.357  25.889   4.736 -0.0192  0.1526  0.1649
    1DIPC   D2B24514  22.366  25.679   5.186  0.1409  0.0629 -0.1892
    1DIPC   D3B24515  21.898  25.716   5.115  0.1922 -0.0472  0.5818
    1DIPC   C4B24516  21.616  26.049   5.121 -0.1176 -0.0451 -0.3249
    1DIPC   NC324517  28.757  27.976   3.314 -0.1897 -0.0889 -0.0379
    1DIPC   PO424518  29.184  27.843   3.508 -0.0472 -0.1445 -0.1822
    1DIPC   GL124519  29.229  27.769   3.905 -0.0686  0.0422  0.0575
    1DIPC   GL224520  28.937  27.512   4.137 -0.0901  0.3106  0.0317
    1DIPC   C1A24521  29.378  28.085   4.204 -0.1111 -0.0518  0.1129
    1DIPC   D2A24522  29.547  28.015   4.688 -0.3472 -0.0260 -0.3186
    1DIPC   D3A24523  29.500  27.616   4.520 -0.1347 -0.2821 -0.4306
    1DIPC   C4A24524   0.052  27.587   4.179  0.4241 -0.0074 -0.1944
    1DIPC   C1B24525  28.958  27.860   4.424 -0.0177  0.2027  0.1225
    1DIPC   D2B24526  29.052  28.112   4.854  0.0818  0.1128 -0.3133
    1DIPC   D3B24527  29.174  27.684   4.849 -0.1994 -0.1295  0.0730
    1DIPC   C4B24528  29.600  27.590   5.071  0.5409 -0.3152 -0.2057
    1DIPC   NC324529  28.725  21.018   3.451  0.1319 -0.2269 -0.1478
    1DIPC   PO424530  28.626  21.068   3.865 -0.3584 -0.0201 -0.0160
    1DIPC   GL124531  28.462  20.819   4.188  0.0732 -0.1432 -0.2050
    1DIPC   GL224532  28.252  20.676   4.186 -0.1752 -0.1581 -0.0541
    1DIPC   C1A24533  28.381  21.017   4.642  0.2934 -0.2727  0.0629
    1DIPC   D2A24534  28.593  21.262   4.796 -0.2988  0.1200  0.1671
    1DIPC   D3A24535  28.436  21.557   5.029  0.1995 -0.2550 -0.1946
    1DIPC   C4A24536  28.630  21.730   5.449  0.4377  0.4440  0.1317
    1DIPC   C1B24537  28.148  20.457   4.562 -0.2017 -0.0395 -0.0337
    1DIPC   D2B24538  28.039  20.187   5.007 -0.1138  0.0668  0.0698
    1DIPC   D3B24539  27.649  20.416   5.063  0.2338 -0.0007 -0.2807
    1DIPC   C4B24540  27.449  20.460   5.483 -0.2097  0.0332 -0.0921
    1DIPC   NC324541  13.819  24.911   2.710  0.2021  0.4446  0.3327
    1DIPC   PO424542  13.790  24.468   2.535 -0.1992  0.0284 -0.0161
    1DIPC   GL124543  13.752  24.295   2.981 -0.2226  0.0725  0.3695
    1DIPC   GL224544  13.510  24.288   3.227 -0.1762  0.0434 -0.0565
    1DIPC   C1A24545  13.950  24.097   3.341  0.1597 -0.0354 -0.0746
    1DIPC   D2A24546  14.208  24.059   3.774 -0.1570  0.0462  0.2304
    1DIPC   D3A24547  14.530  23.792   4.002 -0.1029  0.0671 -0.1297
    1DIPC   C4A24548  14.860  23.943   4.133 -0.2822  0.1045  0.0230
    1DIPC   C1B24549  13.552  24.339   3.634  0.1056  0.1975  0.0572
    1DIPC   D2B24550  13.571  24.393   4.023 -0.0290 -0.0287  0.1122
    1DIPC   D3B24551  14.042  24.448   3.920 -0.2095 -0.2099 -0.0418
    1DIPC   C4B24552  14.047  24.555   3.470  0.1246 -0.1326 -0.3412
    1DIPC   NC324553   9.694  14.233   2.793  0.0687  0.0054 -0.1088
    1DIPC   PO424554  10.102  14.117   2.703  0.0708  0.0575  0.3004
    1DIPC   GL124555  10.308  13.892   3.023 -0.2109  0.1675 -0.0310
    1DIPC   GL224556  10.473  13.637   3.023  0.2174 -0.0970 -0.1732
    1DIPC   C1A24557  10.080  13.812   3.399 -0.4069  0.0459  0.1199
    1DIPC   D2A24558  10.170  13.818   3.761 -0.1569 -0.2215  0.0321
    1DIPC   D3A24559   9.900  13.941   4.121 -0.1977  0.3209 -0.0710
    1DIPC   C4A24560  10.053  14.238   4.410 -0.0239 -0.0305  0.1664
    1DIPC   C1B24561  10.527  13.580   3.437 -0.1365 -0.1292  0.1371
    1DIPC   D2B24562  10.515  13.504   3.921  0.0650  0.1659  0.2538
    1DIPC   D3B24563  10.804  13.220   3.763 -0.3757 -0.2902  0.0581
    1DIPC   C4B24564  11.264  13.184   3.872  0.3132  0.5327 -0.0260
    1DIPC   NC324565  23.009  24.497   4.255 -0.0003  0.1035  0.1166
    1DIPC   PO424566  23.522  24.437   4.300 -0.1190 -0.0027  0.0348
    1DIPC   GL124567  23.630  24.494   4.632  0.0394  0.0734  0.1164
    1DIPC   GL224568  23.487  24.253   4.840 -0.0373 -0.1810  0.2252
    1DIPC   C1A24569  23.791  24.817   4.864  0.2338  0.0196 -0.3006
    1DIPC   D2A24570  23.512  25.191   4.923 -0.1639  0.3725  0.0393
    1DIPC   D3A24571  23.604  25.549   5.128  0.3327  0.1116 -0.0994
    1DIPC   C4A24572  23.879  25.854   5.161 -0.4536 -0.0897 -0.1060
    1DIPC   C1B24573  23.326  24.636   5.069  0.1853 -0.1041  0.3033
    1DIPC   D2B24574  23.244  24.713   5.471 -0.1763 -0.0669 -0.1085
    1DIPC   D3B24575  23.010  24.400   5.641 -0.0548 -0.1110  0.0512
    1DIPC   C4B24576  23.042  23.993   5.653  0.0921 -0.0098 -0.2941
    1DIPC   NC324577  13.440  18.760   2.695  0.0923  0.0532 -0.2423
    1DIPC   PO424578  13.357  18.420   2.996 -0.0816 -0.3438  0.0036
    1DIPC   GL124579  13.481  18.327   3.379 -0.0208  0.3414 -0.1060
    1DIPC   GL224580  13.397  18.552   3.508  0.1594 -0.0359 -0.1550
    1DIPC   C1A24581  13.481  18.230   3.871 -0.2129 -0.1064  0.3895
    1DIPC   D2A24582  13.162  18.182   4.140 -0.2642  0.0087  0.3613
    1DIPC   D3A24583  12.939  18.264   4.414 -0.0423 -0.3001  0.0072
    1DIPC   C4A24584  12.690  18.701   4.302  0.1837  0.1259  0.0332
    1DIPC   C1B24585  13.606  18.730   3.806 -0.0781 -0.0671  0.1183
    1DIPC   D2B24586  13.774  18.894   4.189  0.2722 -0.0630  0.0240
    1DIPC   D3B24587  14.125  18.711   4.345  0.2916  0.0771  0.1406
    1DIPC   C4B24588  14.258  18.354   4.399 -0.1198  0.2299 -0.0891
    1DIPC   NC324589   3.648  21.744   3.365  0.4726 -0.1633  0.2320
    1DIPC   PO424590   3.170  21.794   3.392  0.1422  0.2297  0.1152
    1DIPC   GL124591   3.182  21.693   3.888 -0.1773 -0.0614 -0.1475
    1DIPC   GL224592   2.896  21.820   3.992  0.0504  0.0047  0.1924
    1DIPC   C1A24593   3.278  21.346   4.138 -0.1288 -0.2494 -0.0598
    1DIPC   D2A24594   3.037  21.083   4.446 -0.3115  0.3139 -0.1627
    1DIPC   D3A24595   2.732  20.753   4.334  0.0445 -0.2116  0.1672
    1DIPC   C4A24596   2.341  20.787   4.532  0.0963 -0.0457  0.1563
    1DIPC   C1B24597   2.865  21.621   4.530 -0.0613  0.1095 -0.0710
    1DIPC   D2B24598   3.054  21.738   4.959  0.4548  0.1688 -0.2209
    1DIPC   D3B24599   2.967  21.338   4.981 -0.0896  0.1738 -0.3020
    1DIPC   C4B24600   3.049  21.028   5.357  0.0867  0.0122 -0.3711
    1DIPC   NC324601  27.718  24.250   3.055  0.1820  0.3687 -0.1040
    1DIPC   PO424602  27.980  23.986   3.266 -0.2456  0.0430  0.0558
    1DIPC   GL124603  27.998  24.086   3.687 -0.1073  0.1269  0.0839
    1DIPC   GL224604  27.779  23.821   3.804  0.1781  0.2273 -0.2317
    1DIPC   C1A24605  28.047  24.130   4.134 -0.2037  0.1481  0.0968
    1DIPC   D2A24606  27.780  24.342   4.333  0.1720 -0.3320 -0.4570
    1DIPC   D3A24607  27.595  24.682   4.317  0.0621 -0.0494  0.0554
    1DIPC   C4A24608  27.206  24.882   4.324 -0.3407  0.1778  0.0800
    1DIPC   C1B24609  27.536  23.757   4.174 -0.2328 -0.1558 -0.5050
    1DIPC   D2B24610  27.174  23.842   4.516  0.1136  0.0612  0.2591
    1DIPC   D3B24611  27.430  23.528   4.679  0.1298  0.0875 -0.1090
    1DIPC   C4B24612  27.390  23.504   5.036  0.1046  0.0807 -0.3741
    1DIPC   NC324613  21.299  25.236   3.739  0.2327  0.1235 -0.2331
    1DIPC   PO424614  20.959  24.977   3.729  0.1003 -0.0579 -0.1316
    1DIPC   GL124615  21.143  25.004   4.264  0.0696 -0.1745  0.1262
    1DIPC   GL224616  21.020  24.748   4.265 -0.3095 -0.1554 -0.1649
    1DIPC   C1A24617  21.220  25.033   4.677 -0.2088 -0.0316 -0.0299
    1DIPC   D2A24618  21.400  24.803   5.074  0.0263  0.0167 -0.3095
    1DIPC   D3A24619  21.029  24.593   5.085 -0.4587 -0.1430  0.1385
    1DIPC   C4A24620  20.842  24.920   5.040  0.2698 -0.0039 -0.0857
    1DIPC   C1B24621  20.818  24.711   4.616  0.0099 -0.0735  0.0947
    1DIPC   D2B24622  20.499  24.536   4.952 -0.2774  0.0861 -0.0106
    1DIPC   D3B24623  20.533  24.648   5.426  0.0587  0.0279  0.0992
    1DIPC   C4B24624  20.818  24.280   5.436  0.0566  0.1589  0.0826
    1DIPC   NC324625  24.341  18.621   3.244  0.3672 -0.0366  0.0164
    1DIPC   PO424626  23.940  18.733   3.001 -0.0206  0.2024  0.1669
    1DIPC   GL124627  23.795  18.786   3.407  0.0237  0.0274 -0.0516
    1DIPC   GL224628  23.465  18.589   3.708 -0.2359  0.3309 -0.0047
    1DIPC   C1A24629  23.563  19.064   3.734 -0.1344  0.0970 -0.0299
    1DIPC   D2A24630  23.364  18.975   4.143 -0.0251  0.0684 -0.3519
    1DIPC   D3A24631  23.769  18.805   4.442 -0.0278  0.0764  0.1031
    1DIPC   C4A24632  23.821  19.171   4.754 -0.0177  0.2781  0.1625
    1DIPC   C1B24633  23.262  18.531   4.087  0.2536  0.2036 -0.0176
    1DIPC   D2B24634  22.973  18.330   4.260 -0.3107 -0.2820  0.1125
    1DIPC   D3B24635  22.977  18.277   4.742  0.2299 -0.1658  0.2199
    1DIPC   C4B24636  22.680  18.305   5.136  0.3100  0.0846  0.2329
    1DIPC   NC324637  16.602   0.546   2.794 -0.2923  0.1729 -0.1172
    1DIPC   PO424638  16.689   0.129   2.973  0.3298 -0.0916  0.2155
    1DIPC   GL124639  16.342   0.273   3.225  0.0864  0.1222 -0.2479
    1DIPC   GL224640  16.009   0.283   3.413  0.1406  0.0313  0.1902
    1DIPC   C1A24641  16.351   0.515   3.598  0.0430  0.1482 -0.0291
    1DIPC   D2A24642  16.080   0.649   3.994  0.0711  0.0754  0.0323
    1DIPC   D3A24643  15.842   0.970   4.074  0.1952 -0.0744  0.2576
    1DIPC   C4A24644  15.406   1.028   4.367  0.0070  0.2407  0.4119
    1DIPC   C1B24645  16.011   0.120   3.830 -0.0700 -0.0152  0.0503
    1DIPC   D2B24646  16.025   0.065   4.300 -0.2526  0.1056  0.3257
    1DIPC   D3B24647  16.234   0.396   4.516  0.0911 -0.1424 -0.1266
    1DIPC   C4B24648  16.083   0.631   4.904  0.0294  0.1496 -0.0325
    1DIPC   NC324649  25.993  19.739   3.522  0.1307  0.3257  0.1224
    1DIPC   PO424650  25.558  19.845   3.477 -0.1195  0.2272 -0.0473
    1DIPC   GL124651  25.562  19.715   3.897  0.2981 -0.4859  0.1108
    1DIPC   GL224652  25.847  19.520   3.941 -0.2805  0.1432  0.0230
    1DIPC   C1A24653  25.339  19.774   4.204 -0.2215 -0.1085  0.2865
    1DIPC   D2A24654  25.303  20.063   4.601  0.1201 -0.1297 -0.1034
    1DIPC   D3A24655  25.007  20.124   4.369 -0.2537  0.1948  0.0557
    1DIPC   C4A24656  24.859  19.953   4.026  0.0169  0.2625 -0.1251
    1DIPC   C1B24657  25.711  19.489   4.403 -0.1029 -0.0163 -0.0023
    1DIPC   D2B24658  25.738  19.829   4.756  0.0401 -0.0663  0.2798
    1DIPC   D3B24659  25.829  19.765   5.240 -0.0131 -0.2139  0.0496
    1DIPC   C4B24660  26.119  19.429   5.244 -0.2477 -0.1143 -0.3868
    1DIPC   NC324661  18.251   3.668   2.534 -0.0592 -0.4683 -0.2292
    1DIPC   PO424662  18.421   4.113   2.638  0.0045  0.0737  0.0950
    1DIPC   GL124663  18.515   4.080   3.097  0.0500 -0.3220  0.1858
    1DIPC   GL224664  18.447   3.923   3.374 -0.1888  0.0760  0.1589
    1DIPC   C1A24665  18.769   4.309   3.473 -0.2756  0.0835  0.0070
    1DIPC   D2A24666  18.707   4.673   3.720  0.1316  0.0159 -0.0883
    1DIPC   D3A24667  18.733   4.484   4.089 -0.3631  0.0361 -0.1175
    1DIPC   C4A24668  18.684   4.636   4.564  0.1220 -0.1800  0.1340
    1DIPC   C1B24669  18.277   4.414   3.629 -0.1108 -0.4357  0.0056
    1DIPC   D2B24670  18.064   4.609   3.839 -0.0375  0.0618 -0.1638
    1DIPC   D3B24671  18.218   4.590   4.264 -0.2380 -0.0215  0.3315
    1DIPC   C4B24672  17.927   4.453   4.599 -0.1126 -0.1584 -0.1040
    1DIPC   NC324673  27.856  22.953   3.084  0.0504  0.1695  0.3097
    1DIPC   PO424674  28.049  23.129   3.608  0.1150 -0.0688 -0.3143
    1DIPC   GL124675  28.306  23.165   3.940 -0.0821  0.1113 -0.1313
    1DIPC   GL224676  28.537  22.956   3.966 -0.1068 -0.2730 -0.0779
    1DIPC   C1A24677  28.469  23.374   4.319 -0.2093  0.1962  0.0247
    1DIPC   D2A24678  28.735  23.640   4.596 -0.2186  0.0805 -0.2486
    1DIPC   D3A24679  28.943  23.613   4.823 -0.0540  0.3384 -0.0436
    1DIPC   C4A24680  29.285  23.531   4.749  0.0309 -0.2785 -0.1504
    1DIPC   C1B24681  28.317  22.588   4.186 -0.2408 -0.1186 -0.0627
    1DIPC   D2B24682  28.262  22.169   4.039 -0.0311 -0.0987  0.1823
    1DIPC   D3B24683  28.036  21.842   4.311 -0.2432  0.1360  0.1293
    1DIPC   C4B24684  28.168  21.563   4.624 -0.1931  0.1742 -0.1406
    1DIPC   NC324685  23.804  26.715   3.474  0.0462 -0.2060 -0.0903
    1DIPC   PO424686  23.517  27.120   3.337 -0.4658 -0.1532 -0.2179
    1DIPC   GL124687  23.668  27.132   3.732  0.0624  0.1353  0.1024
    1DIPC   GL224688  24.008  27.016   3.967 -0.1745  0.1294 -0.4029
    1DIPC   C1A24689  23.432  26.989   4.099 -0.2865 -0.2303  0.1064
    1DIPC   D2A24690  23.180  26.795   4.352 -0.1087  0.1203 -0.0252
    1DIPC   D3A24691  22.840  27.051   4.196 -0.0438 -0.1284 -0.1304
    1DIPC   C4A24692  22.867  27.530   4.093  0.1443  0.1126  0.1990
    1DIPC   C1B24693  24.296  26.786   4.238  0.2370 -0.2091 -0.3264
    1DIPC   D2B24694  24.194  26.552   4.687  0.0221 -0.0649  0.0143
    1DIPC   D3B24695  24.015  26.986   4.717  0.0390  0.0652 -0.1418
    1DIPC   C4B24696  23.854  27.236   4.386 -0.1759  0.0364  0.1769
    1DIPC   NC324697  28.113  21.164   4.016  0.2778  0.1438 -0.1473
    1DIPC   PO424698  27.800  20.815   4.056  0.0689  0.2603  0.0165
    1DIPC   GL124699  27.856  20.829   4.520  0.1570 -0.1013  0.1241
    1DIPC   GL224700  27.729  20.613   4.655  0.3288 -0.0526  0.0141
    1DIPC   C1A24701  27.790  21.158   4.880 -0.3235 -0.2727 -0.2478
    1DIPC   D2A24702  27.457  21.251   5.251 -0.1200  0.2811 -0.1916
    1DIPC   D3A24703  27.319  20.844   5.004  0.2188 -0.1952  0.0639
    1DIPC   C4A24704  26.867  20.913   4.724 -0.1349 -0.1585  0.0606
    1DIPC   C1B24705  28.139  20.683   4.974  0.0482 -0.1471 -0.0895
    1DIPC   D2B24706  28.321  20.600   5.451 -0.0698  0.1117 -0.1305
    1DIPC   D3B24707  28.382  21.002   5.322 -0.2279 -0.1645 -0.2298
    1DIPC   C4B24708  28.840  20.999   5.245 -0.0144  0.1808 -0.0574
    1DIPC   NC324709  14.022  26.009   2.638  0.0072 -0.4743 -0.1116
    1DIPC   PO424710  13.771  25.511   2.696 -0.1061 -0.0926  0.1170
    1DIPC   GL124711  14.181  25.418   2.765  0.0301  0.2963  0.4354
    1DIPC   GL224712  14.304  25.044   2.785  0.0654 -0.0685  0.0805
    1DIPC   C1A24713  14.604  25.629   2.737 -0.4664  0.0672  0.1917
    1DIPC   D2A24714  14.958  25.243   2.952  0.1725  0.2234 -0.1129
    1DIPC   D3A24715  14.630  25.405   3.143 -0.1039  0.2426  0.0454
    1DIPC   C4A24716  14.658  25.841   3.244 -0.0832 -0.1266  0.0585
    1DIPC   C1B24717  14.092  25.232   3.179 -0.1173  0.3386  0.2626
    1DIPC   D2B24718  14.075  25.620   3.437  0.1988 -0.0577  0.0944
    1DIPC   D3B24719  13.998  25.510   3.831  0.0865  0.1534 -0.0325
    1DIPC   C4B24720  13.649  25.636   3.981 -0.0921  0.0708  0.0117
    1DIPC   NC324721  11.514   0.144   2.219 -0.0022  0.1989  0.1811
    1DIPC   PO424722  11.388   0.444   2.470 -0.2547 -0.3078 -0.2292
    1DIPC   GL124723  11.411   0.477   2.997  0.2437 -0.0454  0.0911
    1DIPC   GL224724  11.375   0.172   3.199  0.2771  0.3033  0.0930
    1DIPC   C1A24725  11.375   0.554   3.498  0.0055  0.0921 -0.0107
    1DIPC   D2A24726  11.433   0.824   3.860  0.0771 -0.3499  0.1375
    1DIPC   D3A24727  11.575   1.143   3.703 -0.3380 -0.1794 -0.0822
    1DIPC   C4A24728  11.527   1.528   3.801  0.0078 -0.1200  0.1456
    1DIPC   C1B24729  10.920   0.399   3.255 -0.1554  0.2411  0.0389
    1DIPC   D2B24730  10.699   0.684   3.301 -0.2360  0.3328 -0.0040
    1DIPC   D3B24731  10.836   0.685   3.649  0.0556 -0.0125 -0.0823
    1DIPC   C4B24732  11.093   0.466   4.084  0.0101  0.4063 -0.0947
    1DIPC   NC324733   9.253   4.394   2.321  0.2021  0.0339 -0.2420
    1DIPC   PO424734   9.495   4.070   2.453  0.0943 -0.3231 -0.1547
    1DIPC   GL124735   9.541   3.973   2.910  0.1203 -0.0253 -0.1431
    1DIPC   GL224736   9.235   4.098   3.067  0.0029  0.1751 -0.0719
    1DIPC   C1A24737   9.584   3.846   3.288 -0.0367 -0.2207  0.0175
    1DIPC   D2A24738   9.741   3.983   3.656  0.0949  0.0911  0.1031
    1DIPC   D3A24739   9.953   4.192   3.416 -0.1137 -0.2530 -0.0382
    1DIPC   C4A24740  10.292   4.312   3.394 -0.0488 -0.1675  0.0664
    1DIPC   C1B24741   9.126   3.639   3.368 -0.0845 -0.0604 -0.0253
    1DIPC   D2B24742   9.206   3.328   3.626 -0.1480  0.1076  0.2663
    1DIPC   D3B24743   9.663   3.453   3.644  0.1283 -0.0729 -0.1124
    1DIPC   C4B24744   9.637   3.609   4.001 -0.0971  0.1984 -0.0986
    1DIPC   NC324745  16.783  20.982   2.948 -0.1020  0.0086  0.1242
    1DIPC   PO424746  17.059  20.799   3.076  0.2684  0.1880 -0.3127
    1DIPC   GL124747  16.663  20.751   3.375  0.1894  0.0965  0.0319
    1DIPC   GL224748  16.582  20.977   3.578 -0.0470 -0.3699 -0.1195
    1DIPC   C1A24749  16.456  20.558   3.769  0.0063 -0.0485  0.3731
    1DIPC   D2A24750  16.116  20.476   4.087 -0.0989 -0.1863 -0.1828
    1DIPC   D3A24751  16.127  20.131   3.899  0.1453 -0.1211 -0.0736
    1DIPC   C4A24752  15.739  19.885   4.166  0.2434  0.2148  0.4764
    1DIPC   C1B24753  16.429  21.162   3.825 -0.0211  0.0191  0.2619
    1DIPC   D2B24754  16.304  21.319   4.173 -0.2640  0.1872 -0.2039
    1DIPC   D3B24755  16.692  21.265   4.324  0.2483 -0.1446  0.1864
    1DIPC   C4B24756  16.870  20.912   4.584 -0.0979 -0.2890 -0.2219
    1DIPC   NC324757  18.038  23.711   3.040 -0.0081 -0.0458 -0.1345
    1DIPC   PO424758  17.578  23.627   3.100  0.0053 -0.0105 -0.2550
    1DIPC   GL124759  17.616  23.474   3.531  0.1566  0.2597  0.1000
    1DIPC   GL224760  17.759  23.165   3.584  0.1690 -0.1422  0.0224
    1DIPC   C1A24761  17.346  23.627   3.912 -0.0359  0.3176  0.3262
    1DIPC   D2A24762  16.976  23.492   4.186 -0.0051 -0.2956  0.0959
    1DIPC   D3A24763  16.850  23.492   3.780  0.0282  0.1655  0.0954
    1DIPC   C4A24764  16.675  23.711   3.342 -0.1412  0.0559  0.0938
    1DIPC   C1B24765  17.409  23.054   3.848 -0.0426  0.0362  0.1294
    1DIPC   D2B24766  17.327  23.154   4.252  0.0690 -0.0239  0.2479
    1DIPC   D3B24767  17.767  22.990   4.469 -0.2589 -0.2106  0.0412
    1DIPC   C4B24768  17.956  22.636   4.570 -0.1720  0.0271 -0.4337
    1DIPC   NC324769  22.195  13.503   3.143 -0.0831 -0.0056 -0.0019
    1DIPC   PO424770  22.701  13.441   3.022  0.1535  0.0232  0.1016
    1DIPC   GL124771  22.661  13.624   3.428  0.1490 -0.0967 -0.3041
    1DIPC   GL224772  22.853  13.868   3.513 -0.0723 -0.3543 -0.1695
    1DIPC   C1A24773  22.546  13.497   3.841 -0.3779  0.3863  0.1354
    1DIPC   D2A24774  22.811  13.589   4.183  0.2530 -0.2189 -0.0592
    1DIPC   D3A24775  22.610  13.442   4.549 -0.1885 -0.2039 -0.0495
    1DIPC   C4A24776  22.494  13.580   4.955 -0.2576 -0.1169  0.0383
    1DIPC   C1B24777  22.759  13.995   3.869  0.1490  0.2306 -0.0273
    1DIPC   D2B24778  22.843  14.146   4.310  0.0567 -0.4046 -0.2361
    1DIPC   D3B24779  23.014  14.413   3.990  0.0118  0.0354 -0.4286
    1DIPC   C4B24780  22.736  14.500   3.745 -0.4936  0.0302 -0.0541
    1DIPC   NC324781   4.641  24.112   3.550 -0.3816 -0.0327  0.2507
    1DIPC   PO424782   5.033  24.233   3.449 -0.0031  0.1996  0.3769
    1DIPC   GL124783   4.905  24.334   3.935  0.3387  0.1802 -0.3122
    1DIPC   GL224784   4.976  24.020   3.902  0.2303  0.0571  0.1129
    1DIPC   C1A24785   5.093  24.433   4.385  0.1307  0.1092  0.2595
    1DIPC   D2A24786   5.153  24.311   4.743 -0.1276 -0.0885  0.1578
    1DIPC   D3A24787   5.000  24.558   5.050 -0.1364 -0.1432  0.1092
    1DIPC   C4A24788   4.500  24.675   5.083 -0.2985  0.0470 -0.3488
    1DIPC   C1B24789   4.727  23.958   4.334 -0.1945 -0.1494  0.1453
    1DIPC   D2B24790   4.741  24.123   4.557 -0.2085  0.1435 -0.0197
    1DIPC   D3B24791   4.977  23.899   4.879  0.2000  0.0774  0.0351
    1DIPC   C4B24792   5.131  23.371   4.957 -0.2022  0.1265 -0.2960
    1DIPC   NC324793   8.463  13.812   2.563 -0.0981  0.1496 -0.3164
    1DIPC   PO424794   8.866  13.897   2.493 -0.1165 -0.0947 -0.2828
    1DIPC   GL124795   8.902  14.053   2.824 -0.1678  0.1793  0.2261
    1DIPC   GL224796   8.673  14.036   3.100  0.2269 -0.3135 -0.1104
    1DIPC   C1A24797   9.102  14.072   3.307  0.0143  0.2506  0.2016
    1DIPC   D2A24798   8.774  13.841   3.568 -0.1032 -0.1836  0.0741
    1DIPC   D3A24799   8.612  14.249   3.788  0.3269  0.0996  0.3711
    1DIPC   C4A24800   8.736  14.548   4.112 -0.0358 -0.1457 -0.0210
    1DIPC   C1B24801   8.875  13.621   3.132 -0.1716  0.1978 -0.3513
    1DIPC   D2B24802   9.272  13.326   3.161  0.1667  0.0160 -0.3296
    1DIPC   D3B24803   9.571  13.183   3.067 -0.2358  0.0023 -0.0051
    1DIPC   C4B24804   9.769  12.863   3.257 -0.0912 -0.3225  0.1782
    1DIPC   NC324805   4.112  20.651   3.262 -0.3654  0.2453 -0.2112
    1DIPC   PO424806   3.861  20.292   3.329  0.3838 -0.0067  0.2087
    1DIPC   GL124807   3.882  20.338   3.719 -0.2129  0.0197 -0.4158
    1DIPC   GL224808   3.715  20.102   3.932  0.2773 -0.4079  0.1012
    1DIPC   C1A24809   4.171  20.509   4.017 -0.0186 -0.1697 -0.1509
    1DIPC   D2A24810   4.301  20.532   4.435 -0.0136  0.1758  0.4166
    1DIPC   D3A24811   4.672  20.634   4.729  0.4001  0.4808 -0.0058
    1DIPC   C4A24812   4.946  20.245   4.664 -0.0774  0.2702  0.0682
    1DIPC   C1B24813   3.921  19.800   4.176  0.1313  0.0502 -0.2795
    1DIPC   D2B24814   4.030  19.605   4.501 -0.1081 -0.0241  0.0723
    1DIPC   D3B24815   4.353  19.541   4.835 -0.2358 -0.1284 -0.0316
    1DIPC   C4B24816   4.515  19.764   5.219 -0.2580  0.1753 -0.0147
    1DIPC   NC324817  28.028  20.433   3.826 -0.0125 -0.1486 -0.0319
    1DIPC   PO424818  27.676  20.145   3.678  0.0282 -0.0732  0.0785
    1DIPC   GL124819  27.789  19.851   4.021 -0.0396 -0.0109  0.1886
    1DIPC   GL224820  27.657  19.491   4.043  0.0528 -0.3227  0.2331
    1DIPC   C1A24821  27.893  19.959   4.478  0.0890  0.1089  0.0223
    1DIPC   D2A24822  27.645  19.967   4.817 -0.0737  0.1811  0.0711
    1DIPC   D3A24823  27.629  19.849   5.235  0.0146 -0.0585  0.1927
    1DIPC   C4A24824  27.973  19.851   5.425 -0.2342  0.0210 -0.0739
    1DIPC   C1B24825  27.420  19.519   4.417  0.0608 -0.1013 -0.1197
    1DIPC   D2B24826  27.587  19.263   4.875  0.1536 -0.3753  0.1456
    1DIPC   D3B24827  27.559  19.175   5.268  0.0095  0.0847  0.1358
    1DIPC   C4B24828  27.621  19.458   5.562 -0.2324 -0.1196  0.2380
    1DIPC   NC324829  20.046  22.596   3.604  0.0790 -0.3722  0.3503
    1DIPC   PO424830  19.977  22.624   4.083 -0.0377 -0.0137  0.0691
    1DIPC   GL124831  19.732  22.676   4.405  0.1498 -0.2817  0.2925
    1DIPC   GL224832  19.455  22.575   4.344 -0.2226  0.1175  0.0261
    1DIPC   C1A24833  19.850  22.773   4.796  0.0224 -0.1921 -0.1871
    1DIPC   D2A24834  19.740  22.804   5.190 -0.2650 -0.1668 -0.1458
    1DIPC   D3A24835  19.709  22.463   5.475 -0.0301  0.0791 -0.1053
    1DIPC   C4A24836  19.250  22.492   5.768 -0.0091  0.0614 -0.0462
    1DIPC   C1B24837  19.375  22.557   4.768  0.1908 -0.1868 -0.1691
    1DIPC   D2B24838  19.260  22.489   5.144  0.1707 -0.0592 -0.3555
    1DIPC   D3B24839  19.336  22.889   5.555 -0.0981  0.2084  0.1408
    1DIPC   C4B24840  19.553  22.847   5.928 -0.0065 -0.0616 -0.2664
    1DIPC   NC324841  21.390  23.025   3.581 -0.1349 -0.1854 -0.2214
    1DIPC   PO424842  21.377  22.571   3.672 -0.2901 -0.2200  0.0984
    1DIPC   GL124843  21.381  22.246   4.066  0.0545 -0.2103 -0.0217
    1DIPC   GL224844  21.501  22.366   4.273 -0.0110  0.0339 -0.2251
    1DIPC   C1A24845  21.434  21.791   4.131  0.3665 -0.4057 -0.1647
    1DIPC   D2A24846  21.555  21.412   4.039 -0.0366 -0.2705 -0.2181
    1DIPC   D3A24847  21.911  21.245   4.014 -0.2300  0.1376 -0.2712
    1DIPC   C4A24848  22.046  20.847   4.181 -0.0787  0.1133  0.3009
    1DIPC   C1B24849  21.312  22.722   4.358  0.0807  0.2960  0.2796
    1DIPC   D2B24850  21.081  23.039   4.384 -0.0631  0.2206 -0.0562
    1DIPC   D3B24851  21.354  23.297   4.809  0.1414 -0.1069  0.1463
    1DIPC   C4B24852  21.284  23.360   5.317 -0.3790 -0.0481  0.2075
    1DIPC   NC324853  15.544  25.307   2.540  0.0884 -0.1152 -0.0221
    1DIPC   PO424854  15.780  25.763   2.732  0.2759 -0.0895 -0.0372
    1DIPC   GL124855  15.667  26.016   3.083  0.0211 -0.1602  0.1465
    1DIPC   GL224856  15.767  25.964   3.391  0.1033 -0.2163 -0.1423
    1DIPC   C1A24857  15.541  26.369   3.527  0.1068 -0.2022  0.0345
    1DIPC   D2A24858  15.246  26.659   3.650  0.0083  0.1158  0.0969
    1DIPC   D3A24859  15.131  27.107   3.725  0.1505 -0.0487 -0.0154
    1DIPC   C4A24860  15.274  27.528   3.540 -0.0349  0.0683 -0.0218
    1DIPC   C1B24861  15.469  25.765   3.663  0.2905 -0.0739  0.3600
    1DIPC   D2B24862  15.492  25.742   4.106  0.1717  0.0924  0.1651
    1DIPC   D3B24863  14.998  25.734   4.048 -0.1435 -0.0869 -0.3689
    1DIPC   C4B24864  14.896  25.991   4.420  0.0420  0.1939 -0.1616
    1DIPC   NC324865   4.220   3.161   2.443 -0.3562  0.1399 -0.2089
    1DIPC   PO424866   4.156   3.493   2.777 -0.0507 -0.3120  0.2495
    1DIPC   GL124867   3.861   3.420   3.104 -0.2610  0.1142 -0.1651
    1DIPC   GL224868   3.542   3.545   3.211 -0.2149  0.1008 -0.0057
    1DIPC   C1A24869   3.891   3.648   3.507  0.2266 -0.2407 -0.0020
    1DIPC   D2A24870   4.070   4.005   3.553  0.2268 -0.0788 -0.2579
    1DIPC   D3A24871   3.987   4.165   3.896  0.1134 -0.2216  0.1582
    1DIPC   C4A24872   4.084   4.644   4.038  0.0078  0.0026  0.0904
    1DIPC   C1B24873   3.394   3.115   3.240  0.2968 -0.0507 -0.0169
    1DIPC   D2B24874   3.421   2.933   3.592 -0.0600 -0.1758 -0.0934
    1DIPC   D3B24875   3.057   2.850   3.805  0.3492 -0.0904 -0.3466
    1DIPC   C4B24876   2.929   2.828   3.361  0.0288  0.2272  0.1212
    1DIPC   NC324877  16.934  26.934   3.220  0.1469 -0.1629  0.0966
    1DIPC   PO424878  16.645  27.306   3.283  0.0605  0.1094  0.0718
    1DIPC   GL124879  16.268  27.524   3.567  0.0634  0.0586 -0.0252
    1DIPC   GL224880  16.499  27.857   3.577 -0.4118 -0.3311  0.0316
    1DIPC   C1A24881  16.083  27.781   3.797  0.1786 -0.0646 -0.1765
    1DIPC   D2A24882  16.260  28.025   4.130  0.2245  0.4010 -0.1426
    1DIPC   D3A24883  16.666  28.213   3.915  0.2430 -0.1434  0.3315
    1DIPC   C4A24884  17.095  28.285   4.033 -0.0148  0.2426 -0.1202
    1DIPC   C1B24885  16.629  27.727   4.016  0.1419 -0.0945  0.0516
    1DIPC   D2B24886  16.546  27.541   4.414  0.3105  0.0023 -0.1144
    1DIPC   D3B24887  16.225  27.699   4.565 -0.0294  0.1129  0.2880
    1DIPC   C4B24888  16.183  27.843   5.048 -0.1708 -0.3635 -0.1451
    1DIPC   NC324889   0.168   2.086   2.624  0.0913  0.1220  0.0238
    1DIPC   PO424890   0.475   1.843   2.841  0.1591 -0.1063  0.2106
    1DIPC   GL124891   0.104   1.939   3.164 -0.3070 -0.1735 -0.0473
    1DIPC   GL224892   0.172   2.142   3.429 -0.1689  0.1808 -0.5048
    1DIPC   C1A24893  29.451   1.866   3.584  0.1141  0.2973 -0.0903
    1DIPC   D2A24894  29.519   2.168   3.860 -0.1443  0.1427 -0.0257
    1DIPC   D3A24895   0.150   2.207   4.194 -0.1856  0.0823 -0.2022
    1DIPC   C4A24896   0.256   2.184   4.571 -0.0431  0.2659 -0.2862
    1DIPC   C1B24897   0.446   1.992   3.781 -0.0141  0.0937  0.2280
    1DIPC   D2B24898   0.527   1.904   4.235 -0.2107 -0.3522  0.0955
    1DIPC   D3B24899   0.596   2.333   4.205  0.1699 -0.1745  0.0260
    1DIPC   C4B24900   1.006   2.438   4.217 -0.3480 -0.2616 -0.0486
    1DIPC   NC324901  22.632  16.897   2.496  0.1312  0.0535 -0.2079
    1DIPC   PO424902  22.528  16.582   2.837  0.0148 -0.1378 -0.4467
    1DIPC   GL124903  22.754  16.554   3.109 -0.0937  0.1710  0.0706
    1DIPC   GL224904  22.802  16.901   3.264  0.2625  0.1346 -0.0746
    1DIPC   C1A24905  22.851  16.340   3.465 -0.0877  0.0762 -0.0906
    1DIPC   D2A24906  22.994  16.445   3.727 -0.2351 -0.2558 -0.1831
    1DIPC   D3A24907  23.287  16.672   3.507 -0.2865  0.1384  0.2366
    1DIPC   C4A24908  23.646  16.337   3.444 -0.0870 -0.0157 -0.2357
    1DIPC   C1B24909  22.838  17.001   3.655 -0.2828 -0.2452  0.1913
    1DIPC   D2B24910  23.087  16.894   4.113  0.3283  0.0244 -0.2850
    1DIPC   D3B24911  23.089  16.508   4.283  0.1572  0.1714  0.0611
    1DIPC   C4B24912  22.931  16.435   4.672 -0.1039 -0.0108 -0.0042
    1DIPC   NC324913  16.955   5.731   2.310  0.1147  0.0030 -0.0275
    1DIPC   PO424914  16.835   5.522   2.698 -0.2222  0.1271 -0.0835
    1DIPC   GL124915  16.565   5.340   2.941  0.0348  0.0277 -0.0758
    1DIPC   GL224916  16.592   5.129   3.274  0.0239 -0.3242 -0.0357
    1DIPC   C1A24917  16.094   5.252   3.199 -0.0361  0.0871 -0.1781
    1DIPC   D2A24918  15.662   5.329   3.271 -0.0693 -0.5330 -0.0161
    1DIPC   D3A24919  15.497   5.338   3.751 -0.0652  0.0977  0.0797
    1DIPC   C4A24920  15.714   4.956   4.105 -0.4031  0.2870 -0.1591
    1DIPC   C1B24921  16.753   4.784   3.353 -0.3552 -0.0445  0.3129
    1DIPC   D2B24922  17.064   4.464   3.491 -0.1133 -0.1213 -0.0056
    1DIPC   D3B24923  17.246   4.911   3.445 -0.0312  0.2605  0.0773
    1DIPC   C4B24924  17.661   4.958   3.629  0.0225 -0.0772 -0.0649
    1DIPC   NC324925   0.779  19.830   3.726 -0.1429  0.0102  0.3470
    1DIPC   PO424926   0.597  20.302   3.888  0.1715  0.0260  0.0785
    1DIPC   GL124927   0.629  20.003   4.209 -0.0327  0.0867  0.1233
    1DIPC   GL224928   0.648  19.629   4.254  0.0153  0.2580 -0.0205
    1DIPC   C1A24929   0.516  20.045   4.628  0.3851 -0.3093 -0.0250
    1DIPC   D2A24930   0.623  19.982   5.062  0.2809  0.0720 -0.1312
    1DIPC   D3A24931   0.968  19.729   5.210 -0.1087 -0.0039  0.1386
    1DIPC   C4A24932   1.125  19.812   5.539 -0.0899 -0.1591 -0.1248
    1DIPC   C1B24933   0.732  19.248   4.453  0.2571  0.5523 -0.1216
    1DIPC   D2B24934   0.628  18.959   4.805  0.1563 -0.1292 -0.0394
    1DIPC   D3B24935   0.842  18.575   4.764  0.0609  0.0500  0.1837
    1DIPC   C4B24936   0.950  18.226   5.027 -0.1558 -0.0711 -0.0082
    1DIPC   NC324937  15.977  19.426   2.657 -0.0141  0.1759  0.0577
    1DIPC   PO424938  15.630  19.098   2.591  0.0400  0.0859  0.3727
    1DIPC   GL124939  15.903  18.941   2.922 -0.2053 -0.2009  0.0475
    1DIPC   GL224940  16.199  18.843   2.873 -0.0192  0.0360  0.2350
    1DIPC   C1A24941  15.929  18.686   3.310 -0.0964 -0.1544  0.1010
    1DIPC   D2A24942  15.964  18.406   3.600 -0.1411 -0.1345  0.0035
    1DIPC   D3A24943  15.619  18.488   3.746 -0.2312  0.0501  0.2561
    1DIPC   C4A24944  15.533  19.023   3.768  0.2626  0.0090  0.0993
    1DIPC   C1B24945  16.311  18.446   3.180  0.0679 -0.0688  0.0439
    1DIPC   D2B24946  16.635  18.347   3.336 -0.0502 -0.1317 -0.0364
    1DIPC   D3B24947  16.441  18.552   3.754 -0.2493  0.1936  0.1823
    1DIPC   C4B24948  16.023  18.892   3.863  0.1152 -0.0733  0.0543
    1DIPC   NC324949  11.831  10.749   2.097 -0.2514  0.1817  0.1408
    1DIPC   PO424950  11.921  10.524   2.434  0.1121 -0.0651 -0.0361
    1DIPC   GL124951  11.753  10.784   2.797  0.0940  0.2763  0.0834
    1DIPC   GL224952  11.597  10.581   3.050  0.0969  0.1016 -0.1185
    1DIPC   C1A24953  12.048  10.772   3.104  0.0016  0.0554 -0.0943
    1DIPC   D2A24954  12.220  10.525   3.365  0.3144 -0.0011 -0.1874
    1DIPC   D3A24955  12.419  10.459   3.734 -0.2949 -0.0122  0.1879
    1DIPC   C4A24956  12.537  10.496   4.162 -0.1941 -0.0864 -0.0070
    1DIPC   C1B24957  11.684  10.293   3.447  0.2184  0.0425  0.2067
    1DIPC   D2B24958  11.693  10.026   3.817  0.1272 -0.0477  0.1692
    1DIPC   D3B24959  11.614  10.327   4.130 -0.0017  0.2488 -0.2780
    1DIPC   C4B24960  11.650  10.066   4.450 -0.2980 -0.0574  0.0736
    1DIPC   NC324961  19.859  24.274   3.866 -0.0787  0.0010  0.0925
    1DIPC   PO424962  19.995  23.954   4.249  0.0624  0.1036 -0.1189
    1DIPC   GL124963  19.948  24.091   4.673 -0.3034  0.1437 -0.0799
    1DIPC   GL224964  19.990  23.825   4.804  0.2591 -0.1760  0.1797
    1DIPC   C1A24965  19.773  24.182   5.045 -0.1271 -0.0862 -0.1017
    1DIPC   D2A24966  19.567  24.151   5.449 -0.2968  0.0573 -0.0680
    1DIPC   D3A24967  19.568  24.462   5.723 -0.1048 -0.0814 -0.1684
    1DIPC   C4A24968  19.696  24.179   6.039 -0.4071  0.0431 -0.4282
    1DIPC   C1B24969  19.990  23.771   5.194  0.2348 -0.0013  0.2228
    1DIPC   D2B24970  20.021  23.843   5.599 -0.1146 -0.1284 -0.3384
    1DIPC   D3B24971  20.305  24.095   5.864 -0.2377 -0.2473 -0.1648
    1DIPC   C4B24972  20.723  23.903   5.767  0.0745 -0.1587 -0.3263
    1DIPC   NC324973   3.225  18.247   3.099  0.2018  0.2678  0.1407
    1DIPC   PO424974   3.540  18.536   3.080  0.1831  0.0645 -0.0769
    1DIPC   GL124975   3.602  18.441   3.492 -0.1184  0.1775 -0.0079
    1DIPC   GL224976   3.424  18.063   3.465 -0.0960  0.1747  0.0179
    1DIPC   C1A24977   3.642  18.558   3.939 -0.0311 -0.1948 -0.0249
    1DIPC   D2A24978   3.827  18.357   4.366 -0.0404 -0.1925  0.1784
    1DIPC   D3A24979   3.866  18.177   4.764  0.0816 -0.1444 -0.4637
    1DIPC   C4A24980   3.538  17.960   4.897 -0.1442  0.0367 -0.4052
    1DIPC   C1B24981   3.503  18.106   3.885  0.0065  0.1200 -0.0630
    1DIPC   D2B24982   3.419  18.089   4.285 -0.4753  0.0953 -0.1246
    1DIPC   D3B24983   3.193  18.089   4.588 -0.0270 -0.0733  0.0335
    1DIPC   C4B24984   2.763  18.168   4.557  0.2218  0.0793 -0.1740
    1DIPC   NC324985  13.628   5.849   2.682 -0.2096 -0.0408 -0.0475
    1DIPC   PO424986  13.236   5.959   2.735  0.5673  0.1051  0.0160
    1DIPC   GL124987  13.086   5.736   3.149 -0.0298 -0.1627  0.3187
    1DIPC   GL224988  13.012   6.098   3.207  0.0119  0.0412  0.2665
    1DIPC   C1A24989  13.254   5.544   3.503  0.2195 -0.1447 -0.2463
    1DIPC   D2A24990  12.900   5.530   3.858  0.1855  0.0499 -0.0696
    1DIPC   D3A24991  13.279   5.671   4.089  0.0651  0.1181  0.1706
    1DIPC   C4A24992  13.438   5.924   3.874  0.0809 -0.4326  0.2793
    1DIPC   C1B24993  12.917   5.993   3.583  0.2430 -0.1383  0.4579
    1DIPC   D2B24994  12.588   5.879   3.893  0.1127 -0.0624  0.1938
    1DIPC   D3B24995  12.297   5.792   4.206  0.0684  0.2305  0.0444
    1DIPC   C4B24996  12.258   5.584   4.550  0.1233 -0.0659 -0.1654
    1DIPC   NC324997   3.379  11.016   1.401  0.1237  0.0542  0.0296
    1DIPC   PO424998   3.745  10.963   1.709  0.0320 -0.0745  0.1415
    1DIPC   GL124999   3.747  10.778   2.121  0.3426  0.0270  0.1326
    1DIPC   GL225000   3.962  10.663   2.218 -0.0817  0.1444 -0.1811
    1DIPC   C1A25001   3.514  10.820   2.346  0.0613  0.3203 -0.2489
    1DIPC   D2A25002   3.521  11.106   2.620 -0.0044  0.1658 -0.2331
    1DIPC   D3A25003   3.982  11.111   2.655 -0.0997 -0.0494  0.1520
    1DIPC   C4A25004   4.206  10.884   3.008 -0.1972 -0.5116 -0.0783
    1DIPC   C1B25005   3.985  10.652   2.620 -0.0997 -0.2250 -0.2887
    1DIPC   D2B25006   4.173  10.353   2.912  0.0444 -0.2010 -0.1085
    1DIPC   D3B25007   4.061  10.416   3.378  0.0081 -0.1547  0.3838
    1DIPC   C4B25008   3.762  10.660   3.497 -0.2645  0.2333 -0.1751
    1DIPC   NC325009   9.900  20.649   2.523 -0.0901 -0.0888 -0.0279
    1DIPC   PO425010  10.223  20.274   2.344 -0.3218  0.0512  0.0159
    1DIPC   GL125011  10.240  20.266   2.854 -0.2590  0.0391  0.0370
    1DIPC   GL225012  10.614  20.306   2.878 -0.2322  0.1244 -0.0922
    1DIPC   C1A25013  10.242  20.370   3.267  0.2181 -0.4817  0.1964
    1DIPC   D2A25014  10.353  20.629   3.644  0.0788 -0.1074  0.1662
    1DIPC   D3A25015  10.083  20.848   3.887 -0.1679 -0.3000 -0.0221
    1DIPC   C4A25016  10.018  20.930   4.386  0.1268 -0.0613  0.0749
    1DIPC   C1B25017  10.695  19.906   3.013  0.0524 -0.0968 -0.2024
    1DIPC   D2B25018  10.718  19.608   3.279  0.2758 -0.1558 -0.2684
    1DIPC   D3B25019  10.511  19.324   3.278 -0.1833  0.0591  0.2660
    1DIPC   C4B25020  10.344  19.300   3.621  0.0803  0.2242  0.2039
    1DIPC   NC325021   3.596  20.767   3.327  0.2151  0.1402  0.2884
    1DIPC   PO425022   3.571  20.968   3.712 -0.1633  0.0086 -0.1896
    1DIPC   GL125023   3.838  21.083   4.088  0.1899 -0.1393  0.1498
    1DIPC   GL225024   3.791  20.826   4.188 -0.1525  0.0436  0.2282
    1DIPC   C1A25025   4.167  21.234   4.286  0.0561  0.0547  0.0769
    1DIPC   D2A25026   4.561  21.352   4.434 -0.0027 -0.3277 -0.3439
    1DIPC   D3A25027   4.519  21.124   4.853  0.0709  0.1779 -0.0277
    1DIPC   C4A25028   4.823  20.983   5.097 -0.3169  0.2873 -0.2128
    1DIPC   C1B25029   3.771  20.480   4.435  0.0493 -0.1290  0.0437
    1DIPC   D2B25030   3.941  20.106   4.568 -0.1058 -0.0578  0.0582
    1DIPC   D3B25031   3.905  20.032   5.000 -0.5033  0.0317 -0.0928
    1DIPC   C4B25032   3.500  19.943   5.114 -0.0325 -0.2436  0.1758
    1DIPC   NC325033  10.932  29.104   2.477 -0.1915 -0.2255  0.0409
    1DIPC   PO425034  10.912  28.670   2.656 -0.0851 -0.0126  0.4627
    1DIPC   GL125035  11.067  28.516   3.046 -0.0930  0.0645 -0.0472
    1DIPC   GL225036  10.838  28.246   2.981 -0.1378  0.0565  0.0062
    1DIPC   C1A25037  11.273  28.731   3.441 -0.1045  0.0254  0.1643
    1DIPC   D2A25038  11.618  28.565   3.749 -0.1155  0.1150 -0.0382
    1DIPC   D3A25039  11.213  28.441   3.839 -0.2376  0.2044  0.2212
    1DIPC   C4A25040  11.057  28.393   4.244 -0.3069 -0.0499  0.0122
    1DIPC   C1B25041  11.036  28.077   3.358  0.0678 -0.0714 -0.0996
    1DIPC   D2B25042  11.480  28.009   3.684  0.1447  0.3402  0.0750
    1DIPC   D3B25043  11.487  27.937   4.047  0.1340  0.3383  0.2836
    1DIPC   C4B25044  11.213  27.540   4.143 -0.2016  0.1905  0.1251
    1DIPC   NC325045   2.002  26.727   2.859  0.2144 -0.1923  0.2264
    1DIPC   PO425046   1.677  26.391   2.852  0.3403  0.0219 -0.2187
    1DIPC   GL125047   1.418  26.221   3.126 -0.0284 -0.2825 -0.1610
    1DIPC   GL225048   1.359  25.856   3.314  0.1584 -0.0564 -0.0071
    1DIPC   C1A25049   1.283  26.531   3.383  0.2035 -0.5304  0.0411
    1DIPC   D2A25050   1.064  26.684   3.720 -0.4684 -0.1910 -0.0909
    1DIPC   D3A25051   1.535  26.639   3.790 -0.2563  0.1318 -0.2085
    1DIPC   C4A25052   1.578  26.130   3.817 -0.0948  0.1676 -0.1477
    1DIPC   C1B25053   1.110  25.667   3.687  0.2290 -0.2120  0.4402
    1DIPC   D2B25054   1.034  25.574   4.135 -0.2705  0.1356  0.2168
    1DIPC   D3B25055   1.363  25.473   4.426  0.1705 -0.0498  0.0835
    1DIPC   C4B25056   1.409  25.517   4.756 -0.0410  0.0128 -0.0001
    1DIPC   NC325057   2.568   0.406   2.497  0.3861  0.1036  0.1597
    1DIPC   PO425058   2.290   0.702   2.496  0.3007 -0.2658  0.1858
    1DIPC   GL125059   2.240   0.607   2.875  0.1496 -0.4253 -0.0330
    1DIPC   GL225060   2.003   0.544   3.166  0.2241  0.0918  0.0519
    1DIPC   C1A25061   2.288   0.910   3.202  0.0543  0.1848 -0.2448
    1DIPC   D2A25062   2.437   1.256   3.488  0.2901 -0.2953 -0.2756
    1DIPC   D3A25063   2.354   1.237   3.902 -0.3789  0.1509 -0.0744
    1DIPC   C4A25064   2.675   1.193   4.253 -0.1599 -0.1711  0.1952
    1DIPC   C1B25065   2.291   0.178   3.120  0.0373  0.1047 -0.0271
    1DIPC   D2B25066   2.787   0.127   3.214  0.1802 -0.0256 -0.1383
    1DIPC   D3B25067   2.953  29.467   3.464 -0.1726 -0.1290  0.5023
    1DIPC   C4B25068   2.789  29.443   3.903 -0.0345 -0.0683 -0.2435
    1DIPC   NC325069   2.887  28.223   2.846  0.3702  0.1076  0.1362
    1DIPC   PO425070   2.446  28.233   2.664  0.2053  0.2794 -0.2372
    1DIPC   GL125071   2.548  28.356   3.147 -0.0207 -0.0032  0.2870
    1DIPC   GL225072   2.776  28.217   3.355  0.1224 -0.0980 -0.1754
    1DIPC   C1A25073   2.461  28.727   3.365  0.0034 -0.2363  0.1321
    1DIPC   D2A25074   2.217  29.044   3.525  0.3245 -0.1318  0.1721
    1DIPC   D3A25075   1.905  28.948   3.849  0.3630 -0.0338 -0.3254
    1DIPC   C4A25076   2.077  28.710   4.032 -0.1287  0.1367 -0.2469
    1DIPC   C1B25077   2.892  28.534   3.653 -0.3120  0.0887  0.0326
    1DIPC   D2B25078   2.715  29.047   3.608  0.1548 -0.1171 -0.1798
    1DIPC   D3B25079   2.592  28.664   3.980 -0.0200  0.3823 -0.0099
    1DIPC   C4B25080   3.003  28.494   4.230  0.2811 -0.0388 -0.0938
    1DIPC   NC325081  11.607  10.190   2.640  0.0123 -0.2910 -0.0040
    1DIPC   PO425082  11.210  10.329   2.623 -0.1361 -0.0521  0.3030
    1DIPC   GL125083  11.199  10.293   3.050  0.0780 -0.1627  0.0187
    1DIPC   GL225084  11.330   9.973   3.019  0.1481  0.0785 -0.0143
    1DIPC   C1A25085  11.000  10.268   3.381  0.0453  0.0776  0.1029
    1DIPC   D2A25086  10.608  10.150   3.387  0.1414  0.1022  0.2515
    1DIPC   D3A25087  10.333  10.455   3.118  0.1158  0.1151 -0.2693
    1DIPC   C4A25088   9.932  10.581   3.353  0.1354 -0.1644  0.0767
    1DIPC   C1B25089  11.325   9.922   3.521  0.0642  0.3292  0.1270
    1DIPC   D2B25090  11.195   9.677   3.854  0.1517  0.0033  0.1250
    1DIPC   D3B25091  11.504   9.662   4.195  0.1173 -0.3968  0.1583
    1DIPC   C4B25092  11.990   9.687   4.299  0.3146  0.0301 -0.4192
    1DIPC   NC325093   2.042   6.774   1.674 -0.0510  0.0545 -0.1714
    1DIPC   PO425094   2.421   6.959   1.736  0.0272 -0.0571  0.0228
    1DIPC   GL125095   2.362   7.021   2.194  0.2963  0.0448  0.1507
    1DIPC   GL225096   2.502   7.319   2.254  0.0240  0.3015 -0.2263
    1DIPC   C1A25097   1.974   7.074   2.333  0.0814 -0.2143  0.0516
    1DIPC   D2A25098   1.504   7.053   2.270  0.0860  0.1919  0.3349
    1DIPC   D3A25099   1.604   7.483   2.234 -0.1766 -0.0911 -0.0746
    1DIPC   C4A25100   1.233   7.788   2.330 -0.2810  0.0358  0.0376
    1DIPC   C1B25101   2.833   7.297   2.597  0.0799 -0.1646 -0.1505
    1DIPC   D2B25102   3.192   7.148   2.854  0.4416  0.1867 -0.1880
    1DIPC   D3B25103   3.198   7.471   3.137 -0.0595  0.0861 -0.2808
    1DIPC   C4B25104   3.645   7.668   3.046  0.0023  0.0065 -0.3153
    1DIPC   NC325105   9.652  15.915   2.503 -0.1996 -0.0356 -0.1470
    1DIPC   PO425106  10.066  15.961   2.507 -0.0151  0.1231  0.0033
    1DIPC   GL125107  10.170  15.709   2.881  0.2373  0.1868 -0.0680
    1DIPC   GL225108  10.214  16.037   3.039  0.0130  0.1638 -0.2175
    1DIPC   C1A25109  10.009  15.669   3.373  0.2983 -0.0350 -0.0995
    1DIPC   D2A25110   9.765  15.940   3.707  0.1474 -0.0529  0.0258
    1DIPC   D3A25111   9.918  16.266   3.972 -0.2045 -0.0322 -0.0317
    1DIPC   C4A25112   9.884  16.483   4.336  0.3959 -0.0995  0.0588
    1DIPC   C1B25113  10.254  16.134   3.505 -0.0224  0.1634 -0.2064
    1DIPC   D2B25114  10.413  16.080   3.912  0.2653  0.0156  0.2171
    1DIPC   D3B25115  10.149  15.943   4.274  0.0532 -0.2567 -0.0877
    1DIPC   C4B25116   9.825  15.556   4.203 -0.0122  0.2697  0.1275
    1DIPC   NC325117  12.311  21.257   1.546  0.0967 -0.1280 -0.1438
    1DIPC   PO425118  12.085  21.132   1.975 -0.1104  0.1258 -0.3185
    1DIPC   GL125119  12.043  21.100   2.392 -0.2787 -0.4428  0.0008
    1DIPC   GL225120  12.168  20.815   2.561 -0.1578 -0.0885  0.1167
    1DIPC   C1A25121  11.983  21.150   2.903  0.0104  0.3790  0.0910
    1DIPC   D2A25122  11.915  21.116   3.315  0.0649  0.0272 -0.0759
    1DIPC   D3A25123  11.712  20.940   3.322 -0.0546  0.0841 -0.0974
    1DIPC   C4A25124  11.543  20.813   2.882  0.0352 -0.1084  0.1282
    1DIPC   C1B25125  12.000  20.639   2.975 -0.1745 -0.1645  0.0599
    1DIPC   D2B25126  12.136  20.507   3.328  0.1423  0.1243 -0.1192
    1DIPC   D3B25127  12.225  20.403   3.769  0.1649 -0.0427  0.0437
    1DIPC   C4B25128  12.430  20.031   4.014 -0.3726 -0.1230 -0.0585
    1DIPC   NC325129  14.965  19.625   2.362 -0.0036  0.2462  0.0160
    1DIPC   PO425130  15.375  19.540   2.407 -0.0521  0.0122 -0.0176
    1DIPC   GL125131  15.246  19.647   2.725 -0.0102  0.1498  0.0144
    1DIPC   GL225132  15.404  19.510   3.015  0.1862 -0.0560  0.1961
    1DIPC   C1A25133  14.937  19.606   3.062 -0.2934 -0.2698 -0.0127
    1DIPC   D2A25134  14.631  19.852   3.225  0.0568 -0.2542  0.1439
    1DIPC   D3A25135  14.924  19.995   3.538 -0.0153  0.2302  0.1146
    1DIPC   C4A25136  14.822  19.914   3.888  0.0533 -0.2380 -0.1068
    1DIPC   C1B25137  15.208  19.226   3.387 -0.0034 -0.0863  0.2720
    1DIPC   D2B25138  15.041  19.075   3.823 -0.3170 -0.1076 -0.2392
    1DIPC   D3B25139  14.620  18.974   3.685  0.0120  0.3740  0.0576
    1DIPC   C4B25140  14.375  18.648   3.897  0.3714 -0.2043 -0.0446
    1DIPC   NC325141   3.123   9.352   1.524  0.2360  0.1724  0.2817
    1DIPC   PO425142   2.902   9.739   1.773  0.0938 -0.0642  0.1872
    1DIPC   GL125143   3.039   9.702   2.186  0.1728 -0.0986  0.1854
    1DIPC   GL225144   3.339   9.919   2.295  0.4978  0.0757 -0.0320
    1DIPC   C1A25145   2.930   9.566   2.542  0.2660  0.1560  0.0565
    1DIPC   D2A25146   3.047   9.408   2.985  0.0229 -0.1570  0.0387
    1DIPC   D3A25147   2.918   9.400   3.360 -0.2837  0.3507  0.1080
    1DIPC   C4A25148   2.881   9.078   3.564  0.0882 -0.0400 -0.2737
    1DIPC   C1B25149   3.469   9.738   2.696  0.3276  0.3739  0.0479
    1DIPC   D2B25150   3.409   9.621   3.140 -0.0537  0.0227  0.1059
    1DIPC   D3B25151   3.338   9.594   3.595 -0.3213 -0.1815 -0.0613
    1DIPC   C4B25152   3.133   9.356   3.857  0.0808  0.0564  0.0600
    1DIPC   NC325153  23.967  23.785   3.608  0.1284 -0.0794 -0.0724
    1DIPC   PO425154  24.090  23.748   4.028  0.1457  0.0332  0.0451
    1DIPC   GL125155  24.233  23.658   4.455  0.1672 -0.3984  0.2472
    1DIPC   GL225156  24.141  23.305   4.445  0.3186  0.0166 -0.2182
    1DIPC   C1A25157  24.222  23.679   4.964 -0.1616  0.2327  0.1591
    1DIPC   D2A25158  24.200  23.401   5.361  0.0068  0.2904  0.1139
    1DIPC   D3A25159  24.013  23.020   5.195 -0.4564 -0.2622 -0.0648
    1DIPC   C4A25160  24.074  22.538   5.134 -0.0929  0.1026  0.0480
    1DIPC   C1B25161  23.923  23.323   4.820  0.3059 -0.1693 -0.2821
    1DIPC   D2B25162  23.518  23.214   5.000 -0.0416  0.3779  0.0287
    1DIPC   D3B25163  23.367  23.179   4.576  0.2506  0.0144 -0.0445
    1DIPC   C4B25164  23.077  22.808   4.602 -0.0884  0.2060 -0.3784
    1DIPC   NC325165   4.554  22.709   3.262  0.2125  0.0361  0.1340
    1DIPC   PO425166   4.867  22.533   3.630 -0.0221 -0.0559 -0.0418
    1DIPC   GL125167   4.654  22.579   3.932  0.1053 -0.0797  0.0090
    1DIPC   GL225168   4.898  22.607   4.297 -0.2511  0.0064  0.0722
    1DIPC   C1A25169   4.453  22.848   4.256 -0.1853 -0.2808  0.1606
    1DIPC   D2A25170   4.266  23.071   4.590 -0.0417 -0.0261  0.0985
    1DIPC   D3A25171   4.312  22.686   4.803 -0.0672  0.1434 -0.3302
    1DIPC   C4A25172   4.152  22.594   5.187  0.1713  0.0273 -0.2202
    1DIPC   C1B25173   4.620  22.376   4.410  0.0014 -0.0341 -0.0776
    1DIPC   D2B25174   4.261  22.201   4.542  0.1467 -0.0275  0.1554
    1DIPC   D3B25175   4.400  22.142   4.940 -0.1777  0.3816 -0.2712
    1DIPC   C4B25176   4.734  21.993   5.277  0.3277 -0.1608 -0.0137
    1DIPC   NC325177  17.673   5.426   2.655  0.2466  0.1864 -0.1612
    1DIPC   PO425178  17.321   5.679   2.755 -0.0064 -0.0087  0.0463
    1DIPC   GL125179  17.353   5.438   3.092 -0.0015 -0.0437  0.0323
    1DIPC   GL225180  16.990   5.402   3.330  0.0513 -0.2478  0.6310
    1DIPC   C1A25181  17.434   5.357   3.466 -0.1208  0.1059 -0.1845
    1DIPC   D2A25182  17.295   5.175   3.895 -0.0405 -0.0620  0.1760
    1DIPC   D3A25183  17.445   4.854   4.108 -0.0888  0.1384 -0.0027
    1DIPC   C4A25184  17.893   4.913   4.140 -0.2071  0.3335 -0.0400
    1DIPC   C1B25185  17.049   5.649   3.557  0.1471 -0.0693  0.0207
    1DIPC   D2B25186  16.855   6.029   3.636 -0.1635  0.0270  0.1705
    1DIPC   D3B25187  16.758   5.803   4.065  0.0640  0.1120 -0.0729
    1DIPC   C4B25188  17.041   5.420   4.254 -0.0182  0.0663  0.0800
    1DIPC   NC325189  17.126   4.256   2.576 -0.0727 -0.0103  0.2621
    1DIPC   PO425190  17.290   4.457   2.974  0.1165  0.0145  0.3203
    1DIPC   GL125191  17.572   4.452   3.277  0.0911 -0.1448  0.2867
    1DIPC   GL225192  17.839   4.456   3.426 -0.1664  0.0415  0.1016
    1DIPC   C1A25193  17.520   4.383   3.757  0.0451 -0.0765  0.1749
    1DIPC   D2A25194  17.674   4.425   4.173 -0.2051 -0.0774  0.0585
    1DIPC   D3A25195  17.425   4.067   4.185 -0.1106  0.1010  0.3530
    1DIPC   C4A25196  17.104   3.973   4.470  0.1332  0.0987  0.1492
    1DIPC   C1B25197  17.861   4.084   3.748  0.1302  0.2376  0.2518
    1DIPC   D2B25198  18.006   3.982   4.118 -0.0880  0.0641  0.3294
    1DIPC   D3B25199  18.384   4.098   4.009 -0.0547 -0.0644  0.0552
    1DIPC   C4B25200  18.814   3.956   4.140 -0.0995  0.0069  0.1689
    1DIPC   NC325201   1.059  10.019   1.743 -0.0508 -0.2256 -0.4107
    1DIPC   PO425202   0.906  10.220   2.091 -0.0830 -0.1684 -0.2183
    1DIPC   GL125203   0.729  10.121   2.496 -0.0476  0.0775  0.0698
    1DIPC   GL225204   0.768  10.418   2.705  0.2291  0.0770 -0.2007
    1DIPC   C1A25205   0.839   9.906   2.944 -0.1570  0.1495  0.0730
    1DIPC   D2A25206   1.181   9.837   3.281  0.0259  0.1110  0.1730
    1DIPC   D3A25207   1.218   9.911   3.633  0.3718 -0.1304 -0.2306
    1DIPC   C4A25208   1.608   9.893   3.871  0.2346  0.2555  0.2125
    1DIPC   C1B25209   0.488  10.276   3.086  0.1023  0.1254  0.1515
    1DIPC   D2B25210   0.481  10.124   3.462  0.1522 -0.1509 -0.1757
    1DIPC   D3B25211   0.262   9.694   3.659 -0.1332 -0.0630  0.0208
    1DIPC   C4B25212   0.494   9.299   3.588 -0.0862 -0.0452 -0.2458
    1DIPC   NC325213  29.161  26.380   3.010  0.2531  0.0553  0.0013
    1DIPC   PO425214  28.945  26.167   3.251 -0.0610 -0.1032 -0.0898
    1DIPC   GL125215  28.968  26.118   3.610 -0.0667  0.1771 -0.1005
    1DIPC   GL225216  28.701  26.339   3.756 -0.0867  0.0250  0.0332
    1DIPC   C1A25217  29.065  26.147   4.047  0.1789  0.1062  0.0651
    1DIPC   D2A25218  29.264  25.999   4.417 -0.0882  0.0251 -0.0155
    1DIPC   D3A25219  28.891  25.918   4.470 -0.1187  0.2175  0.4641
    1DIPC   C4A25220  28.513  26.292   4.451 -0.0332  0.4701 -0.1385
    1DIPC   C1B25221  28.890  26.608   4.192 -0.1643  0.1422  0.1445
    1DIPC   D2B25222  29.167  26.877   4.259 -0.1766 -0.0013  0.1390
    1DIPC   D3B25223  29.158  27.242   4.541  0.0659  0.0970  0.0108
    1DIPC   C4B25224  29.048  27.206   5.054  0.0923 -0.0894  0.0490
    1DIPC   NC325225   8.385  15.675   2.874 -0.1151 -0.2217  0.0228
    1DIPC   PO425226   7.990  15.915   2.755 -0.1061  0.2365 -0.0749
    1DIPC   GL125227   7.843  15.589   3.025  0.0033  0.4083  0.1794
    1DIPC   GL225228   7.951  15.714   3.263 -0.2865 -0.0865 -0.0124
    1DIPC   C1A25229   7.360  15.594   3.171  0.2240  0.0702  0.1937
    1DIPC   D2A25230   7.136  15.255   3.436  0.1122  0.0498 -0.0055
    1DIPC   D3A25231   6.682  15.157   3.500  0.3302  0.1041 -0.1723
    1DIPC   C4A25232   6.615  15.064   3.898  0.0784  0.0399  0.1085
    1DIPC   C1B25233   7.859  15.656   3.779  0.1060 -0.0451 -0.0938
    1DIPC   D2B25234   7.845  15.574   4.209  0.0297  0.0197 -0.4698
    1DIPC   D3B25235   7.409  15.542   4.346  0.2865 -0.0866 -0.0611
    1DIPC   C4B25236   7.061  15.803   4.136  0.0148  0.0213  0.2949
    1DIPC   NC325237   2.791  21.419   3.369  0.3260  0.1019  0.0094
    1DIPC   PO425238   2.916  21.034   3.502 -0.2338 -0.1167 -0.0921
    1DIPC   GL125239   2.762  21.180   3.856 -0.1730 -0.0545  0.0817
    1DIPC   GL225240   2.473  20.977   3.766 -0.0305 -0.2311  0.0436
    1DIPC   C1A25241   2.586  21.268   4.231  0.1690  0.0104 -0.0361
    1DIPC   D2A25242   2.267  21.267   4.443 -0.0994 -0.0969 -0.1706
    1DIPC   D3A25243   2.601  21.124   4.691  0.2178 -0.1109  0.0488
    1DIPC   C4A25244   2.553  21.007   5.076  0.4628  0.0882  0.0936
    1DIPC   C1B25245   2.210  20.808   4.057  0.0880  0.0135 -0.1262
    1DIPC   D2B25246   1.975  20.535   4.391  0.2210  0.0640  0.3024
    1DIPC   D3B25247   2.018  20.205   4.652 -0.2307 -0.1126  0.0261
    1DIPC   C4B25248   1.966  19.827   4.866 -0.1633 -0.1583  0.2367
    1DIPC   NC325249  15.982   8.668   1.987  0.0998  0.2298 -0.3417
    1DIPC   PO425250  15.921   8.958   1.948 -0.1672  0.0031  0.0386
    1DIPC   GL125251  15.594   9.003   2.258  0.2312 -0.2890  0.0305
    1DIPC   GL225252  15.470   8.753   2.369 -0.2443  0.2152  0.1146
    1DIPC   C1A25253  15.630   8.981   2.821 -0.3502 -0.2441  0.3393
    1DIPC   D2A25254  15.893   8.986   3.149  0.1622  0.1474 -0.1115
    1DIPC   D3A25255  15.535   9.186   3.308  0.0972 -0.1287  0.0260
    1DIPC   C4A25256  15.489   9.654   3.422 -0.3189 -0.2226  0.2228
    1DIPC   C1B25257  15.153   8.898   2.815 -0.0879  0.0963  0.1100
    1DIPC   D2B25258  15.007   8.686   3.071 -0.0149 -0.0081  0.1895
    1DIPC   D3B25259  15.108   8.960   3.344  0.1956  0.0420  0.0115
    1DIPC   C4B25260  15.016   9.438   3.431  0.0443  0.1866 -0.2463
    1DIPC   NC325261  28.899   0.960   2.532 -0.1108  0.0612 -0.1171
    1DIPC   PO425262  28.796   1.292   2.839 -0.1036 -0.0306  0.0105
    1DIPC   GL125263  28.921   1.535   3.149  0.0316 -0.0608 -0.0659
    1DIPC   GL225264  29.252   1.794   3.188 -0.0136 -0.1634  0.1488
    1DIPC   C1A25265  28.830   1.659   3.548  0.0278 -0.0600 -0.1872
    1DIPC   D2A25266  29.014   1.890   3.825  0.3868 -0.4048  0.2132
    1DIPC   D3A25267  29.402   1.779   4.086 -0.0642  0.0542  0.0319
    1DIPC   C4A25268  29.500   1.779   4.494 -0.4082 -0.1715  0.0434
    1DIPC   C1B25269  29.104   2.225   3.318  0.1288 -0.0078 -0.2039
    1DIPC   D2B25270  28.762   2.488   3.388 -0.0897 -0.3270  0.2310
    1DIPC   D3B25271  29.058   2.574   3.767  0.1783  0.1201  0.0469
    1DIPC   C4B25272  28.931   2.738   4.139  0.1038  0.0248 -0.3698
    1DIPC   NC325273   5.283   8.710   2.035 -0.0384 -0.0027  0.0660
    1DIPC   PO425274   4.955   8.713   1.948 -0.0434  0.0954 -0.1731
    1DIPC   GL125275   4.991   8.343   2.369  0.0966 -0.4969  0.1371
    1DIPC   GL225276   5.129   8.557   2.526 -0.1325 -0.2869  0.2331
    1DIPC   C1A25277   4.797   8.213   2.789 -0.0540  0.1766 -0.2161
    1DIPC   D2A25278   4.393   8.110   2.943 -0.1567 -0.0167  0.0897
    1DIPC   D3A25279   4.328   7.942   3.390 -0.3646 -0.1344  0.1571
    1DIPC   C4A25280   4.223   8.191   3.677 -0.2835 -0.0278 -0.1057
    1DIPC   C1B25281   5.151   8.561   2.960 -0.1751 -0.0465  0.1607
    1DIPC   D2B25282   5.356   8.693   3.391  0.2513 -0.0683  0.0771
    1DIPC   D3B25283   5.229   8.930   3.745  0.0857  0.4223  0.1769
    1DIPC   C4B25284   4.847   8.848   3.951 -0.2821  0.0610  0.1941
    1DIPC   NC325285  22.209  20.816   2.916  0.1111  0.0287 -0.0531
    1DIPC   PO425286  22.343  20.667   3.251  0.1440 -0.0124  0.3606
    1DIPC   GL125287  22.242  20.360   3.579  0.1815  0.1904 -0.1902
    1DIPC   GL225288  22.105  20.382   3.771  0.0078 -0.2847 -0.2083
    1DIPC   C1A25289  22.530  20.171   3.780  0.0069  0.1141 -0.3412
    1DIPC   D2A25290  22.767  20.310   4.058 -0.0492 -0.4411  0.0512
    1DIPC   D3A25291  22.626  20.183   4.531 -0.0348 -0.2203 -0.2604
    1DIPC   C4A25292  22.608  19.774   4.716  0.2366 -0.0875 -0.2974
    1DIPC   C1B25293  22.307  20.420   4.164 -0.1296  0.3634 -0.0676
    1DIPC   D2B25294  22.356  20.572   4.609 -0.2489  0.0077  0.2374
    1DIPC   D3B25295  22.616  20.616   4.990  0.0526 -0.0302 -0.0016
    1DIPC   C4B25296  23.018  20.786   4.939  0.1011 -0.1682 -0.2425
    1DIPC   NC325297   1.075  24.878   3.161 -0.1598  0.0221 -0.0218
    1DIPC   PO425298   1.158  24.721   3.507 -0.1223 -0.0940 -0.1523
    1DIPC   GL125299   1.230  24.680   3.939 -0.1912  0.1981 -0.0917
    1DIPC   GL225300   1.181  24.355   4.005  0.1492 -0.0784  0.1895
    1DIPC   C1A25301   1.321  24.561   4.420  0.0796  0.1712 -0.0465
    1DIPC   D2A25302   1.158  24.384   4.858 -0.0885 -0.0049 -0.1839
    1DIPC   D3A25303   0.848  24.128   4.796  0.0815  0.2152 -0.0194
    1DIPC   C4A25304   0.412  24.116   4.899 -0.5107 -0.2371  0.0264
    1DIPC   C1B25305   1.186  24.063   4.413 -0.3205  0.1216  0.0312
    1DIPC   D2B25306   1.470  23.833   4.685  0.3161  0.0045 -0.1627
    1DIPC   D3B25307   1.715  24.085   4.785  0.2103 -0.0149 -0.1021
    1DIPC   C4B25308   1.673  24.475   4.745  0.0803 -0.0057 -0.0807
    1DIPC   NC325309  29.190  29.004   2.676 -0.0429 -0.0348 -0.4838
    1DIPC   PO425310  29.159  28.697   3.076 -0.0887 -0.2276  0.0756
    1DIPC   GL125311  29.164  28.904   3.505 -0.0180 -0.3263  0.0202
    1DIPC   GL225312  28.951  28.938   3.790 -0.2817  0.1069 -0.2071
    1DIPC   C1A25313  29.488  28.918   3.781 -0.0794  0.3768  0.0070
    1DIPC   D2A25314  29.599  28.950   4.184  0.2614  0.0460 -0.0198
    1DIPC   D3A25315  29.216  28.916   4.469  0.1657 -0.1787  0.0590
    1DIPC   C4A25316  28.778  28.855   4.379  0.0245 -0.0378 -0.1778
    1DIPC   C1B25317  29.139  28.698   4.034  0.0634  0.1530 -0.0796
    1DIPC   D2B25318  28.981  28.336   4.328 -0.1168 -0.2358  0.3243
    1DIPC   D3B25319  28.975  28.594   4.801  0.2510 -0.1992 -0.2730
    1DIPC   C4B25320  28.910  29.023   4.814 -0.0661 -0.2031 -0.1428
    1DIPC   NC325321  15.275  18.275   2.405  0.0090 -0.0031  0.1325
    1DIPC   PO425322  15.671  18.151   2.379 -0.2981  0.2471 -0.1295
    1DIPC   GL125323  15.577  18.188   2.829 -0.2700  0.0978 -0.0590
    1DIPC   GL225324  15.715  18.427   2.955 -0.4546  0.0617  0.1276
    1DIPC   C1A25325  15.259  17.979   3.045  0.2201  0.0743 -0.1651
    1DIPC   D2A25326  15.126  17.612   3.394  0.1811 -0.0701  0.2447
    1DIPC   D3A25327  15.051  17.726   3.767  0.0180 -0.0053  0.2397
    1DIPC   C4A25328  15.059  17.676   4.172  0.1322 -0.1942 -0.3213
    1DIPC   C1B25329  15.453  18.313   3.316 -0.0823  0.0367  0.0757
    1DIPC   D2B25330  15.117  18.138   3.580  0.0040  0.1476  0.0223
    1DIPC   D3B25331  15.142  18.284   4.008 -0.0034  0.1552 -0.0501
    1DIPC   C4B25332  15.349  18.055   4.389  0.0683  0.5267 -0.2361
    1DIPC   NC325333   2.775   6.446   1.895 -0.1805  0.0354  0.0684
    1DIPC   PO425334   2.814   5.943   2.134  0.1303  0.0285 -0.0171
    1DIPC   GL125335   2.880   5.901   2.590 -0.0489  0.0733  0.0142
    1DIPC   GL225336   2.591   5.961   2.793 -0.0198 -0.2285 -0.0980
    1DIPC   C1A25337   2.998   5.753   3.018  0.1197  0.0015  0.2668
    1DIPC   D2A25338   3.067   5.463   3.379  0.1359  0.1782  0.0817
    1DIPC   D3A25339   3.201   5.925   3.521 -0.4057 -0.1795 -0.2315
    1DIPC   C4A25340   3.338   6.242   3.923 -0.1345 -0.0395  0.2571
    1DIPC   C1B25341   2.771   6.189   3.106 -0.1051 -0.0007 -0.1235
    1DIPC   D2B25342   2.719   6.512   3.282  0.2261  0.0336  0.1587
    1DIPC   D3B25343   2.616   6.688   3.644 -0.0780 -0.0409 -0.2955
    1DIPC   C4B25344   2.217   6.741   3.500  0.0734  0.0479 -0.1384
    1DIPC   NC325345   6.399  24.163   3.124 -0.1293 -0.3665  0.0930
    1DIPC   PO425346   6.635  23.806   3.153 -0.1409  0.2322  0.2541
    1DIPC   GL125347   6.865  23.950   3.440 -0.2707  0.0016 -0.0605
    1DIPC   GL225348   7.254  23.698   3.419 -0.2811 -0.1933  0.0095
    1DIPC   C1A25349   6.946  24.182   3.726  0.1352  0.0595  0.0814
    1DIPC   D2A25350   6.973  24.377   4.029 -0.1531 -0.1472 -0.0725
    1DIPC   D3A25351   7.201  24.608   3.869 -0.1114 -0.0987  0.2328
    1DIPC   C4A25352   7.206  25.037   3.897 -0.3718  0.1293  0.0017
    1DIPC   C1B25353   7.183  23.786   3.785 -0.1736  0.3277  0.0616
    1DIPC   D2B25354   7.232  23.953   4.206 -0.1247  0.1073  0.3013
    1DIPC   D3B25355   7.289  24.277   4.562 -0.0975 -0.0298  0.0376
    1DIPC   C4B25356   7.512  24.639   4.507 -0.1433  0.0003  0.1912
    1DIPC   NC325357  29.083  24.112   2.708  0.0081  0.1721  0.0743
    1DIPC   PO425358  29.405  24.455   2.823 -0.1060  0.1350  0.2278
    1DIPC   GL125359  29.431  24.488   3.225 -0.1949 -0.0182  0.1157
    1DIPC   GL225360  29.444  24.778   3.442 -0.0561 -0.2179  0.3262
    1DIPC   C1A25361  29.268  24.307   3.518 -0.1481 -0.3143 -0.1038
    1DIPC   D2A25362  29.388  23.947   3.772 -0.0009  0.1770  0.1379
    1DIPC   D3A25363   0.061  23.779   4.038  0.0531  0.1764  0.2552
    1DIPC   C4A25364  29.617  23.471   4.357  0.0785  0.1791  0.3217
    1DIPC   C1B25365   0.213  24.889   3.652  0.0595 -0.1482 -0.0381
    1DIPC   D2B25366   0.493  25.166   3.849 -0.0735 -0.0754 -0.1510
    1DIPC   D3B25367   0.809  24.835   3.957  0.0837 -0.1157 -0.5511
    1DIPC   C4B25368   1.126  25.075   4.130 -0.3038 -0.1887  0.1773
    1DIPC   NC325369   2.131   4.267   2.351 -0.1826  0.0332 -0.1196
    1DIPC   PO425370   2.169   3.989   2.755  0.1798 -0.0979 -0.0463
    1DIPC   GL125371   1.972   3.990   3.140 -0.1635 -0.0087 -0.2198
    1DIPC   GL225372   2.072   3.994   3.331  0.0413 -0.0306 -0.2671
    1DIPC   C1A25373   1.613   4.280   3.320  0.0348  0.0669 -0.1834
    1DIPC   D2A25374   1.289   4.245   3.717  0.2332  0.1832  0.5066
    1DIPC   D3A25375   1.657   4.452   3.800  0.2896 -0.1752  0.2351
    1DIPC   C4A25376   2.107   4.414   3.502 -0.1951  0.3064  0.2598
    1DIPC   C1B25377   2.051   3.947   3.830  0.1403 -0.3914  0.3193
    1DIPC   D2B25378   2.027   4.165   4.236  0.0082  0.0008  0.2023
    1DIPC   D3B25379   2.373   4.388   4.353 -0.0882  0.0907  0.1318
    1DIPC   C4B25380   2.797   4.240   4.215  0.0206  0.1144 -0.0630
    1DIPC   NC325381   1.782   5.848   1.769  0.1986 -0.4083  0.0324
    1DIPC   PO425382   1.855   6.090   2.058  0.1968 -0.0022  0.0959
    1DIPC   GL125383   1.719   5.795   2.382 -0.0731  0.0579 -0.1167
    1DIPC   GL225384   1.642   6.146   2.522  0.0093 -0.0194  0.2634
    1DIPC   C1A25385   1.180   5.818   2.487 -0.1696  0.2820  0.1399
    1DIPC   D2A25386   0.764   5.811   2.656  0.0175 -0.3269  0.0594
    1DIPC   D3A25387   0.983   5.932   3.050  0.1548  0.1627  0.0812
    1DIPC   C4A25388   1.250   6.354   3.004 -0.0733  0.1441 -0.2084
    1DIPC   C1B25389   1.648   6.472   2.669 -0.0187  0.1578 -0.1048
    1DIPC   D2B25390   1.792   6.577   3.092  0.0679  0.0412  0.3930
    1DIPC   D3B25391   1.416   6.761   3.177  0.1200  0.1579  0.1756
    1DIPC   C4B25392   1.336   6.761   3.563  0.1039  0.0656  0.0250
    1DIPC   NC325393  21.019  23.592   4.599  0.1652 -0.3239  0.1176
    1DIPC   PO425394  20.839  24.001   4.452  0.2942 -0.0387  0.0371
    1DIPC   GL125395  21.254  24.010   4.493 -0.0635  0.0159  0.1657
    1DIPC   GL225396  21.306  23.921   4.795  0.1186 -0.1752  0.4093
    1DIPC   C1A25397  21.668  24.161   4.577  0.1780 -0.1656 -0.2501
    1DIPC   D2A25398  21.901  24.521   4.764  0.0049  0.0428  0.1988
    1DIPC   D3A25399  22.124  24.575   5.092  0.0245 -0.2562 -0.2069
    1DIPC   C4A25400  21.821  24.514   5.421 -0.0952 -0.1543  0.2388
    1DIPC   C1B25401  21.563  23.681   4.996 -0.3939  0.1638 -0.1100
    1DIPC   D2B25402  21.862  23.542   4.650  0.1425 -0.0765 -0.0084
    1DIPC   D3B25403  21.997  23.273   4.891 -0.1862 -0.0708  0.0604
    1DIPC   C4B25404  21.742  23.001   5.287 -0.2178 -0.0182  0.2727
    1DIPC   NC325405   3.396  13.410   1.985 -0.2326 -0.1201  0.2449
    1DIPC   PO425406   3.388  13.080   2.180 -0.1857 -0.2930 -0.1550
    1DIPC   GL125407   3.438  12.858   2.584 -0.2548  0.0779 -0.0600
    1DIPC   GL225408   3.701  12.855   2.652  0.0876 -0.0844 -0.1814
    1DIPC   C1A25409   3.196  12.623   2.852 -0.1204 -0.1694 -0.3917
    1DIPC   D2A25410   2.940  12.568   3.209 -0.1315 -0.1614  0.0707
    1DIPC   D3A25411   2.557  12.282   3.351 -0.1838  0.1397 -0.0433
    1DIPC   C4A25412   2.547  12.258   3.758  0.1797 -0.0601 -0.0260
    1DIPC   C1B25413   3.906  12.667   3.013 -0.0654 -0.1212  0.2017
    1DIPC   D2B25414   4.148  12.700   3.339 -0.0486  0.0118  0.1774
    1DIPC   D3B25415   4.243  13.062   3.623  0.2798  0.0648  0.1798
    1DIPC   C4B25416   4.593  13.212   3.813 -0.1462 -0.1247  0.0749
    1DIPC   NC325417   6.899   2.713   2.691 -0.0654  0.0742  0.0240
    1DIPC   PO425418   6.775   3.113   2.659  0.2468  0.0014  0.0424
    1DIPC   GL125419   6.960   3.230   2.874  0.1071 -0.0734 -0.1144
    1DIPC   GL225420   7.111   2.987   3.063  0.1519  0.2321 -0.3676
    1DIPC   C1A25421   7.037   3.416   3.347 -0.3165 -0.1391  0.1063
    1DIPC   D2A25422   7.131   3.737   3.673  0.1557  0.0950 -0.0772
    1DIPC   D3A25423   7.261   3.741   4.068  0.0479  0.2638  0.0621
    1DIPC   C4A25424   7.653   3.578   4.043  0.0777  0.4092  0.0857
    1DIPC   C1B25425   7.190   2.920   3.508 -0.0937 -0.0057  0.0206
    1DIPC   D2B25426   7.170   2.717   3.943 -0.4725  0.4570 -0.1607
    1DIPC   D3B25427   7.266   2.362   4.199  0.2597  0.2238 -0.1373
    1DIPC   C4B25428   6.974   2.201   4.537  0.1650 -0.1505 -0.2148
    1DIPC   NC325429   0.471   3.051   2.393 -0.1900  0.0957 -0.2932
    1DIPC   PO425430   0.800   2.938   2.406  0.1401 -0.3675 -0.0450
    1DIPC   GL125431   0.693   3.024   2.900 -0.1122  0.0018 -0.0896
    1DIPC   GL225432   0.481   3.277   2.947  0.0371  0.4591 -0.1129
    1DIPC   C1A25433   0.837   2.668   3.145 -0.0974  0.0510 -0.1375
    1DIPC   D2A25434   0.879   2.191   2.931 -0.1413 -0.2503 -0.1328
    1DIPC   D3A25435   0.674   2.223   3.399  0.1122  0.1639  0.0721
    1DIPC   C4A25436   0.382   2.578   3.412 -0.0009  0.3602 -0.3005
    1DIPC   C1B25437   0.178   3.699   3.138  0.1547 -0.0036 -0.0805
    1DIPC   D2B25438  29.427   3.880   3.396  0.0767 -0.0275  0.3307
    1DIPC   D3B25439  29.323   3.623   2.957 -0.1628 -0.0492 -0.0706
    1DIPC   C4B25440  29.598   3.278   2.795  0.1141 -0.0210  0.1046
    1DIPC   NC325441  15.394   6.168   2.410  0.1449  0.2394  0.0479
    1DIPC   PO425442  15.744   5.983   2.545  0.0332 -0.1725 -0.0149
    1DIPC   GL125443  15.825   6.092   2.897  0.0798  0.0691  0.0546
    1DIPC   GL225444  16.095   5.991   2.964 -0.0978  0.2041 -0.0692
    1DIPC   C1A25445  15.915   6.156   3.381  0.2096  0.0466 -0.0144
    1DIPC   D2A25446  16.002   6.476   3.619 -0.0862 -0.0163  0.1992
    1DIPC   D3A25447  15.899   6.169   3.907  0.2855 -0.1212  0.2296
    1DIPC   C4A25448  15.926   6.239   4.402  0.2465  0.2149  0.1836
    1DIPC   C1B25449  16.039   5.756   3.243  0.2935  0.0576  0.0404
    1DIPC   D2B25450  15.990   5.478   3.657  0.1656 -0.0526  0.3643
    1DIPC   D3B25451  16.001   5.463   4.087  0.2628  0.0374 -0.0389
    1DIPC   C4B25452  15.695   5.352   4.423 -0.0030  0.2403  0.2372
    1DIPC   NC325453   4.286  16.947   2.341  0.1533  0.0064  0.0061
    1DIPC   PO425454   4.505  16.569   2.443  0.1106 -0.2937  0.0648
    1DIPC   GL125455   4.433  16.765   2.834 -0.1434  0.1579 -0.1492
    1DIPC   GL225456   4.456  16.540   3.024 -0.1164  0.0540 -0.0570
    1DIPC   C1A25457   4.735  17.001   3.127  0.1548  0.1552 -0.0199
    1DIPC   D2A25458   5.111  17.246   3.190  0.2070 -0.1287  0.0187
    1DIPC   D3A25459   5.002  17.180   3.594 -0.0828  0.4078 -0.0123
    1DIPC   C4A25460   4.909  17.198   3.963 -0.2419 -0.0387 -0.1071
    1DIPC   C1B25461   4.455  16.402   3.470  0.4091 -0.0648  0.3213
    1DIPC   D2B25462   4.362  16.207   3.761 -0.0172 -0.1793 -0.1425
    1DIPC   D3B25463   3.981  16.367   3.991 -0.0178 -0.3410 -0.1902
    1DIPC   C4B25464   3.800  16.235   4.349  0.1874  0.1582 -0.1143
    1DIPC   NC325465  16.825  29.393   2.671 -0.0539  0.0556  0.0502
    1DIPC   PO425466  16.412  29.341   2.989 -0.0616 -0.0941  0.1495
    1DIPC   GL125467  16.470  29.470   3.411 -0.1317  0.2833  0.1894
    1DIPC   GL225468  16.284  29.326   3.700  0.2683  0.2805 -0.3030
    1DIPC   C1A25469  16.724   0.103   3.659  0.0554 -0.0012  0.0706
    1DIPC   D2A25470  16.865   0.026   4.017  0.0145 -0.0203 -0.1021
    1DIPC   D3A25471  17.101   0.201   4.478 -0.0410 -0.1820  0.2796
    1DIPC   C4A25472  16.772   0.353   4.717  0.0343  0.2456  0.1435
    1DIPC   C1B25473  16.496  29.349   4.112  0.3421 -0.1423 -0.2318
    1DIPC   D2B25474  16.437  29.588   4.527 -0.0911  0.3255  0.5565
    1DIPC   D3B25475  16.773  29.493   4.778  0.2987 -0.2712 -0.2048
    1DIPC   C4B25476  16.732  29.113   5.043  0.1937 -0.0585 -0.2225
    1DIPC   NC325477  18.083   2.222   3.107 -0.2828  0.1590  0.0663
    1DIPC   PO425478  18.210   1.831   3.296  0.2400  0.1255  0.0221
    1DIPC   GL125479  18.017   2.020   3.604 -0.0217 -0.2168 -0.1250
    1DIPC   GL225480  17.751   2.330   3.617  0.0477  0.0782 -0.3316
    1DIPC   C1A25481  18.028   1.976   3.942  0.0676 -0.0433  0.1653
    1DIPC   D2A25482  17.963   1.621   4.241  0.0521 -0.1370  0.0233
    1DIPC   D3A25483  17.765   1.991   4.409  0.0674 -0.1940 -0.2721
    1DIPC   C4A25484  17.787   2.426   4.345  0.1387  0.0148  0.0656
    1DIPC   C1B25485  17.715   2.673   3.853 -0.3093 -0.0531 -0.1704
    1DIPC   D2B25486  17.869   2.909   4.198 -0.1782 -0.2168 -0.1705
    1DIPC   D3B25487  17.572   3.235   4.362 -0.0535  0.2069  0.0919
    1DIPC   C4B25488  17.722   3.175   4.794 -0.1616 -0.1330  0.1396
    1DIPC   NC325489   9.999  27.412   2.884  0.3327 -0.3065 -0.0597
    1DIPC   PO425490   9.587  27.164   3.058  0.0441 -0.0974 -0.1859
    1DIPC   GL125491   9.413  27.291   3.421  0.0895  0.2034  0.0681
    1DIPC   GL225492   9.043  27.217   3.383 -0.0200 -0.2769  0.0378
    1DIPC   C1A25493   9.290  27.428   3.831  0.0855 -0.1390  0.1551
    1DIPC   D2A25494   9.302  27.633   4.191  0.0724  0.0404 -0.1692
    1DIPC   D3A25495   9.396  27.170   4.281  0.1910  0.0873 -0.2580
    1DIPC   C4A25496   9.075  27.032   4.500 -0.1130  0.2726  0.0290
    1DIPC   C1B25497   8.799  27.454   3.704  0.0061  0.2500  0.2745
    1DIPC   D2B25498   8.454  27.449   3.839 -0.0050  0.1194 -0.1471
    1DIPC   D3B25499   8.185  27.899   3.898  0.2497  0.0451 -0.1277
    1DIPC   C4B25500   8.061  28.057   3.565  0.0732 -0.0745  0.0386
    1DIPC   NC325501   5.131  25.780   3.088 -0.0406  0.0367  0.0222
    1DIPC   PO425502   4.721  25.676   3.230 -0.2129  0.1809 -0.0951
    1DIPC   GL125503   4.553  25.589   3.615 -0.2400  0.1067 -0.0492
    1DIPC   GL225504   4.300  25.472   3.874  0.0837  0.0814 -0.1478
    1DIPC   C1A25505   4.785  25.929   3.914  0.0132  0.0907 -0.1322
    1DIPC   D2A25506   5.081  25.879   4.222 -0.0377 -0.3393 -0.2360
    1DIPC   D3A25507   4.863  26.258   4.453 -0.1368 -0.0496  0.2646
    1DIPC   C4A25508   4.856  26.415   4.835 -0.4717  0.0986 -0.1896
    1DIPC   C1B25509   4.259  25.654   4.229 -0.3824  0.2507 -0.1144
    1DIPC   D2B25510   4.352  25.638   4.621  0.0250 -0.2386  0.0837
    1DIPC   D3B25511   4.677  25.428   4.459  0.0828  0.0417 -0.2371
    1DIPC   C4B25512   4.984  25.449   4.626 -0.1218  0.1727 -0.4633
    1DIPC   NC325513  22.913  28.803   3.136  0.2542  0.1234 -0.1804
    1DIPC   PO425514  22.867  28.813   3.605  0.0710  0.2195  0.0726
    1DIPC   GL125515  22.591  28.480   3.916 -0.3302  0.3756 -0.2251
    1DIPC   GL225516  22.906  28.449   3.966 -0.1158  0.0039 -0.2113
    1DIPC   C1A25517  22.319  28.350   4.290  0.3327  0.2825 -0.4651
    1DIPC   D2A25518  22.210  28.295   4.741 -0.1415 -0.2393 -0.0867
    1DIPC   D3A25519  22.280  28.437   5.120 -0.3028 -0.3316  0.0051
    1DIPC   C4A25520  22.722  28.707   5.285  0.0437  0.0250  0.1102
    1DIPC   C1B25521  22.883  28.388   4.404 -0.0295 -0.1410 -0.1159
    1DIPC   D2B25522  22.716  28.332   4.856 -0.1421  0.2428  0.1444
    1DIPC   D3B25523  23.122  28.352   5.083  0.2816  0.1174  0.1713
    1DIPC   C4B25524  23.444  28.445   4.780 -0.0452 -0.0304 -0.0758
    1DIPC   NC325525  28.004   6.094   1.607 -0.2763  0.0913  0.1193
    1DIPC   PO425526  28.234   5.820   1.758  0.0372  0.1859  0.3162
    1DIPC   GL125527  28.578   5.952   1.942  0.0858 -0.0164  0.2461
    1DIPC   GL225528  28.928   5.794   2.007 -0.1055  0.0690 -0.1367
    1DIPC   C1A25529  28.765   6.355   2.156  0.2950  0.1530  0.0888
    1DIPC   D2A25530  28.802   6.783   2.369 -0.1445 -0.3188  0.2325
    1DIPC   D3A25531  28.504   6.838   2.681  0.1946 -0.2441  0.1777
    1DIPC   C4A25532  28.249   7.212   2.664  0.1857 -0.0184 -0.1206
    1DIPC   C1B25533  28.810   5.636   2.408  0.2303 -0.3305 -0.0651
    1DIPC   D2B25534  28.669   5.716   2.748 -0.0855 -0.1272 -0.1373
    1DIPC   D3B25535  28.894   5.604   3.128 -0.3102  0.0351  0.0372
    1DIPC   C4B25536  29.026   5.376   3.375  0.1578 -0.1090 -0.1589
    1DIPC   NC325537  13.654  21.327   2.754 -0.0001 -0.0441  0.0053
    1DIPC   PO425538  13.944  20.911   2.579  0.1941  0.0291  0.3242
    1DIPC   GL125539  14.254  20.815   2.999  0.0854 -0.2416  0.2110
    1DIPC   GL225540  14.452  20.982   2.941 -0.0364 -0.0707 -0.0626
    1DIPC   C1A25541  14.319  20.638   3.383 -0.1184 -0.1538  0.1600
    1DIPC   D2A25542  14.267  20.709   3.875  0.0372  0.1576  0.1964
    1DIPC   D3A25543  14.322  20.337   3.967  0.3742  0.0177 -0.0347
    1DIPC   C4A25544  14.354  20.116   3.659 -0.3402  0.0287 -0.2272
    1DIPC   C1B25545  14.300  21.315   3.168 -0.4070 -0.0716 -0.3113
    1DIPC   D2B25546  14.052  21.717   3.210 -0.2423  0.0583  0.1640
    1DIPC   D3B25547  13.985  21.599   3.577 -0.0822  0.2222 -0.3555
    1DIPC   C4B25548  14.043  21.759   3.988 -0.1212 -0.4939  0.1367
    1DIPC   NC325549   6.651  10.775   1.823  0.2283  0.2231  0.0756
    1DIPC   PO425550   6.180  10.598   1.801 -0.0591 -0.1427  0.0922
    1DIPC   GL125551   6.361  10.552   2.224  0.1671  0.1755 -0.0735
    1DIPC   GL225552   6.650  10.398   2.352 -0.0746 -0.2884  0.0385
    1DIPC   C1A25553   6.413  10.800   2.600  0.0717  0.0980  0.0302
    1DIPC   D2A25554   6.650  10.867   2.958  0.2436  0.1273 -0.1118
    1DIPC   D3A25555   6.855  10.778   3.421 -0.1809 -0.0633  0.0861
    1DIPC   C4A25556   6.748  11.121   3.751  0.3788  0.1864 -0.4147
    1DIPC   C1B25557   6.760  10.376   2.765 -0.0517  0.0417  0.3152
    1DIPC   D2B25558   6.831  10.241   3.237  0.0364 -0.0534  0.7027
    1DIPC   D3B25559   6.839  10.094   3.643  0.0284 -0.3588  0.1463
    1DIPC   C4B25560   6.629   9.787   3.879  0.0372  0.1530  0.0382
    1DIPC   NC325561  11.109  13.351   2.507  0.4770 -0.0126  0.0696
    1DIPC   PO425562  10.945  12.933   2.509  0.1149  0.2275  0.1831
    1DIPC   GL125563  10.732  12.753   2.831 -0.4167 -0.3023 -0.1039
    1DIPC   GL225564  10.985  12.506   2.855 -0.2257 -0.2102  0.0438
    1DIPC   C1A25565  10.964  12.839   3.330 -0.1831  0.0849  0.1789
    1DIPC   D2A25566  10.831  12.705   3.748  0.1135  0.0453  0.1375
    1DIPC   D3A25567  10.430  12.533   3.905 -0.3268 -0.0622 -0.0504
    1DIPC   C4A25568  10.507  11.991   4.010 -0.1633  0.0700  0.0562
    1DIPC   C1B25569  10.961  12.356   3.219  0.1947 -0.3256  0.1013
    1DIPC   D2B25570  10.815  12.255   3.580  0.1905  0.2036  0.0514
    1DIPC   D3B25571  10.512  12.063   3.343  0.0990  0.0012  0.1082
    1DIPC   C4B25572  10.463  11.718   3.201  0.1010 -0.0593  0.0518
    1DIPC   NC325573   0.218   9.299   1.976  0.1990  0.1395  0.4029
    1DIPC   PO425574   0.383   8.895   1.672  0.1202  0.2290  0.1796
    1DIPC   GL125575   0.454   8.574   1.942  0.1507 -0.0243 -0.1864
    1DIPC   GL225576   0.794   8.317   1.967  0.1606  0.4953 -0.0426
    1DIPC   C1A25577   0.624   8.545   2.339  0.1856  0.0964  0.0638
    1DIPC   D2A25578   0.993   8.543   2.529 -0.0125  0.0991 -0.2772
    1DIPC   D3A25579   1.249   8.590   2.155 -0.5821  0.0133  0.0198
    1DIPC   C4A25580   1.454   8.229   2.163 -0.0565  0.0481  0.2035
    1DIPC   C1B25581   0.868   8.125   2.340 -0.0047  0.0537 -0.1073
    1DIPC   D2B25582   0.508   8.192   2.679  0.2188  0.1768 -0.2587
    1DIPC   D3B25583   0.867   8.227   2.909  0.1801  0.1897  0.0296
    1DIPC   C4B25584   0.946   8.021   3.356 -0.0653 -0.3205  0.0012
    1DIPC   NC325585   5.832  10.263   1.651  0.0341  0.4903  0.0039
    1DIPC   PO425586   5.517  10.583   1.658 -0.0510  0.1684  0.0312
    1DIPC   GL125587   5.548  10.390   2.078  0.1427 -0.1316 -0.0173
    1DIPC   GL225588   5.421  10.625   2.186 -0.3396 -0.0902  0.0842
    1DIPC   C1A25589   5.616  10.035   2.353 -0.1403  0.2457 -0.1306
    1DIPC   D2A25590   5.182  10.013   2.430  0.4912  0.0230 -0.2166
    1DIPC   D3A25591   5.073  10.474   2.470 -0.2054 -0.2812 -0.3790
    1DIPC   C4A25592   5.101  10.472   2.947  0.0821 -0.0516  0.1593
    1DIPC   C1B25593   5.382  10.923   2.570 -0.0961  0.0382  0.0240
    1DIPC   D2B25594   5.462  10.866   2.979  0.2509  0.3385  0.0200
    1DIPC   D3B25595   5.761  11.107   3.218 -0.1460  0.5047 -0.1564
    1DIPC   C4B25596   5.613  11.434   3.496  0.2372 -0.0097 -0.2431
    1DIPC   NC325597  11.136  11.094   2.460 -0.0041  0.0769  0.2137
    1DIPC   PO425598  10.714  10.840   2.520  0.0809  0.1981 -0.2672
    1DIPC   GL125599  10.658  10.892   2.882 -0.0781 -0.1564 -0.1572
    1DIPC   GL225600  11.025  11.002   3.012  0.0741  0.3310 -0.2583
    1DIPC   C1A25601  10.720  10.752   3.392  0.2149  0.1473 -0.0630
    1DIPC   D2A25602  10.421  10.591   3.700 -0.0358 -0.0548  0.2247
    1DIPC   D3A25603  10.458  10.663   4.028  0.1800  0.0794 -0.4536
    1DIPC   C4A25604  10.208  10.636   4.363  0.5051 -0.0843 -0.1432
    1DIPC   C1B25605  11.124  11.201   3.412  0.0267  0.2525 -0.1279
    1DIPC   D2B25606  11.440  11.211   3.707  0.1498 -0.2479 -0.2096
    1DIPC   D3B25607  11.132  11.436   4.032  0.0942 -0.1835 -0.1587
    1DIPC   C4B25608  10.714  11.521   4.102  0.0382  0.0407 -0.1408
    1DIPC   NC325609   8.877  11.301   1.977  0.3906 -0.1352 -0.2489
    1DIPC   PO425610   8.675  10.970   2.085  0.3062 -0.0588 -0.1038
    1DIPC   GL125611   8.752  11.198   2.449 -0.1353  0.0273  0.3096
    1DIPC   GL225612   9.028  11.360   2.498  0.0539 -0.0494 -0.0368
    1DIPC   C1A25613   8.835  11.037   2.807  0.2917  0.0407 -0.0734
    1DIPC   D2A25614   9.088  11.050   3.179  0.3030 -0.2308 -0.0691
    1DIPC   D3A25615   8.987  11.005   3.464 -0.2888 -0.1158  0.0356
    1DIPC   C4A25616   8.600  10.892   3.756 -0.0333  0.0988  0.1573
    1DIPC   C1B25617   9.091  11.490   2.936 -0.1949  0.0575 -0.0095
    1DIPC   D2B25618   9.052  11.501   3.399 -0.0171  0.0803  0.0531
    1DIPC   D3B25619   8.836  11.396   3.744 -0.2800  0.0098 -0.1861
    1DIPC   C4B25620   8.457  11.381   3.625 -0.2214 -0.1434 -0.2609
    1DIPC   NC325621   0.950   4.155   2.657 -0.0953  0.0371 -0.0394
    1DIPC   PO425622   0.864   4.330   2.288 -0.1690  0.0347  0.0385
    1DIPC   GL125623   0.785   4.614   2.584  0.2013  0.1168  0.1576
    1DIPC   GL225624   0.950   4.857   2.471  0.0600  0.0304 -0.1945
    1DIPC   C1A25625   0.626   4.667   2.936  0.1341 -0.2762 -0.1046
    1DIPC   D2A25626   0.665   5.031   3.211 -0.4447 -0.0341  0.1698
    1DIPC   D3A25627   0.200   5.034   3.097  0.0657  0.0695 -0.1567
    1DIPC   C4A25628  29.584   5.342   3.361 -0.0212  0.0976  0.1526
    1DIPC   C1B25629   0.992   5.196   2.850 -0.2922  0.1073  0.2019
    1DIPC   D2B25630   1.022   5.428   3.249  0.1314  0.4040  0.1310
    1DIPC   D3B25631   0.635   5.510   3.054 -0.0681 -0.1269 -0.2687
    1DIPC   C4B25632   0.471   5.153   2.728 -0.3471  0.0765 -0.0479
    1DIPC   NC325633   6.169  12.869   1.866  0.0736 -0.0350 -0.2881
    1DIPC   PO425634   5.987  12.412   1.913 -0.4725 -0.2312 -0.1258
    1DIPC   GL125635   6.155  12.529   2.337 -0.2452 -0.0637  0.1179
    1DIPC   GL225636   6.329  12.248   2.444 -0.5369 -0.0779 -0.0684
    1DIPC   C1A25637   6.420  12.720   2.627 -0.1794 -0.0954 -0.0842
    1DIPC   D2A25638   6.668  12.638   2.903  0.1485  0.2222  0.1675
    1DIPC   D3A25639   6.388  12.792   3.203 -0.1185  0.4121  0.0138
    1DIPC   C4A25640   6.493  12.747   3.594 -0.0206 -0.3974 -0.1365
    1DIPC   C1B25641   6.852  12.373   2.518 -0.2033 -0.1029  0.1456
    1DIPC   D2B25642   7.165  12.569   2.514  0.1186 -0.0736  0.0242
    1DIPC   D3B25643   7.421  12.196   2.388 -0.0783 -0.0358 -0.1525
    1DIPC   C4B25644   7.486  11.740   2.508 -0.0465 -0.1789 -0.1555
    1DIPC   NC325645   4.010  19.507   3.003 -0.0202 -0.1013 -0.0856
    1DIPC   PO425646   3.798  19.458   3.392  0.4639 -0.1176  0.3090
    1DIPC   GL125647   3.849  19.449   3.725 -0.2988  0.0261 -0.0146
    1DIPC   GL225648   4.106  19.509   3.826  0.1631 -0.0569  0.1419
    1DIPC   C1A25649   3.613  19.095   4.012 -0.0338 -0.2901  0.3489
    1DIPC   D2A25650   3.614  18.864   4.368 -0.1147  0.0650  0.0542
    1DIPC   D3A25651   3.344  18.532   4.466 -0.0350 -0.1164  0.0818
    1DIPC   C4A25652   2.954  18.507   4.223  0.0222 -0.1430  0.0620
    1DIPC   C1B25653   4.002  19.259   4.198 -0.0234  0.1030  0.0754
    1DIPC   D2B25654   3.907  19.161   4.679  0.2011 -0.0190  0.0393
    1DIPC   D3B25655   3.942  18.672   4.725 -0.0378  0.0076  0.0296
    1DIPC   C4B25656   3.621  18.630   5.003  0.1021  0.0117 -0.3004
    1DIPC   NC325657   9.364  19.357   2.739 -0.1084 -0.0624 -0.1593
    1DIPC   PO425658   9.506  18.981   2.797 -0.1491 -0.0794 -0.2383
    1DIPC   GL125659   9.430  18.637   3.114  0.1864 -0.1606  0.0074
    1DIPC   GL225660   9.195  18.767   3.331 -0.1141  0.6205  0.2229
    1DIPC   C1A25661   9.472  18.299   3.457 -0.1337  0.0058  0.3384
    1DIPC   D2A25662   9.416  18.123   3.917  0.0986 -0.1299 -0.0048
    1DIPC   D3A25663   9.428  17.806   4.104 -0.1552  0.2560 -0.0004
    1DIPC   C4A25664   8.961  17.593   3.952  0.4893 -0.5516  0.0043
    1DIPC   C1B25665   9.101  18.607   3.647  0.2631  0.0405  0.1561
    1DIPC   D2B25666   9.088  18.685   4.150 -0.1301  0.2607  0.3473
    1DIPC   D3B25667   8.980  19.129   4.225 -0.1463 -0.1466  0.0121
    1DIPC   C4B25668   8.596  19.417   4.023 -0.0335 -0.0310 -0.5930
    1DIPC   NC325669  19.101  21.730   3.354  0.0793  0.1531  0.1293
    1DIPC   PO425670  18.996  21.403   3.621  0.1054  0.0831 -0.0294
    1DIPC   GL125671  19.128  21.594   3.995  0.2562  0.0483 -0.3101
    1DIPC   GL225672  19.283  21.322   4.157 -0.0405 -0.0576 -0.0218
    1DIPC   C1A25673  18.983  21.511   4.452 -0.0886 -0.0830  0.0654
    1DIPC   D2A25674  18.760  21.618   4.804 -0.1113 -0.3316 -0.0455
    1DIPC   D3A25675  18.692  22.102   4.897 -0.1677  0.3078 -0.3402
    1DIPC   C4A25676  18.298  22.379   4.956 -0.1573 -0.1200 -0.2525
    1DIPC   C1B25677  19.464  21.550   4.440  0.1254 -0.0721  0.3866
    1DIPC   D2B25678  19.590  21.772   4.748 -0.0977 -0.3123 -0.2882
    1DIPC   D3B25679  20.036  21.824   4.910  0.0692  0.0230  0.0106
    1DIPC   C4B25680  20.137  21.986   5.273 -0.1273 -0.0756  0.1508
    1DIPC   NC325681  11.051  16.401   2.849  0.0301  0.1885  0.0402
    1DIPC   PO425682  11.487  16.425   2.753 -0.3081 -0.0568  0.0181
    1DIPC   GL125683  11.494  16.314   3.118 -0.2098 -0.0847 -0.2342
    1DIPC   GL225684  11.725  16.109   3.217  0.0515 -0.3351  0.1432
    1DIPC   C1A25685  11.608  16.656   3.390 -0.2312 -0.2211  0.2359
    1DIPC   D2A25686  11.886  16.717   3.682 -0.0748  0.0407 -0.1096
    1DIPC   D3A25687  12.231  16.708   3.378 -0.1801  0.0670 -0.0866
    1DIPC   C4A25688  12.318  16.357   3.156 -0.3243  0.1326  0.1340
    1DIPC   C1B25689  11.648  16.169   3.649  0.3332 -0.2181  0.0577
    1DIPC   D2B25690  11.578  15.929   4.040  0.1175 -0.0408 -0.0006
    1DIPC   D3B25691  11.321  15.644   3.768 -0.0455 -0.1091 -0.2837
    1DIPC   C4B25692  11.342  15.263   3.545  0.1132 -0.2032  0.2668
    1DIPC   NC325693   8.128  23.853   2.648  0.0214  0.2110 -0.1292
    1DIPC   PO425694   8.136  24.012   3.021  0.2006  0.1578 -0.1342
    1DIPC   GL125695   8.121  23.951   3.387 -0.0335 -0.1399 -0.4275
    1DIPC   GL225696   8.421  23.794   3.418 -0.1263  0.0227 -0.0429
    1DIPC   C1A25697   8.039  23.891   3.794 -0.1610  0.2844  0.3752
    1DIPC   D2A25698   8.205  23.853   4.127 -0.0148  0.1241  0.1843
    1DIPC   D3A25699   8.522  24.090   3.814  0.2094 -0.2367  0.0104
    1DIPC   C4A25700   8.927  24.021   4.000 -0.1743 -0.2120 -0.3061
    1DIPC   C1B25701   8.518  23.555   3.797 -0.2232  0.0001  0.2218
    1DIPC   D2B25702   8.813  23.384   4.213  0.0414 -0.1148  0.3096
    1DIPC   D3B25703   9.098  23.650   4.454  0.1585  0.3862  0.0506
    1DIPC   C4B25704   9.220  23.368   4.677  0.1187  0.0363 -0.2530
    1DIPC   NC325705  13.521  15.148   2.945 -0.2161 -0.0639 -0.0961
    1DIPC   PO425706  13.629  15.583   2.938  0.1250  0.1309 -0.1103
    1DIPC   GL125707  13.742  15.437   3.410 -0.0415  0.3309 -0.0784
    1DIPC   GL225708  13.812  15.115   3.462  0.1283 -0.1046  0.1294
    1DIPC   C1A25709  13.491  15.371   3.758  0.1637 -0.2114 -0.1489
    1DIPC   D2A25710  13.454  15.516   4.162 -0.2213 -0.0359 -0.0704
    1DIPC   D3A25711  13.632  15.163   4.401  0.2900  0.6467  0.0188
    1DIPC   C4A25712  13.362  14.773   4.400  0.0380  0.3010 -0.1233
    1DIPC   C1B25713  14.072  15.163   3.943 -0.1490 -0.3681  0.1504
    1DIPC   D2B25714  14.087  15.175   4.374  0.1646  0.0474  0.1829
    1DIPC   D3B25715  13.983  15.592   4.211  0.2080  0.0034 -0.1095
    1DIPC   C4B25716  13.917  15.663   3.820  0.1771  0.0428 -0.0302
    1DIPC   NC325717  22.505  20.143   3.098 -0.4224 -0.2952  0.0684
    1DIPC   PO425718  23.030  20.141   3.228 -0.0550  0.3706  0.1474
    1DIPC   GL125719  23.030  20.159   3.606  0.0257  0.2194 -0.0296
    1DIPC   GL225720  23.317  19.957   3.592 -0.0669 -0.1627 -0.1273
    1DIPC   C1A25721  23.213  20.329   3.875 -0.0681  0.1267 -0.0870
    1DIPC   D2A25722  23.615  20.597   3.918  0.0157 -0.1527  0.0569
    1DIPC   D3A25723  23.543  21.034   4.206 -0.1403 -0.0738  0.1115
    1DIPC   C4A25724  23.734  21.419   4.360 -0.1764  0.1136  0.3053
    1DIPC   C1B25725  23.464  19.585   3.788  0.1566 -0.3437 -0.0721
    1DIPC   D2B25726  23.791  19.490   4.153  0.0070  0.0117 -0.1741
    1DIPC   D3B25727  23.711  19.580   4.576  0.1804 -0.3419 -0.4988
    1DIPC   C4B25728  23.809  19.644   4.949 -0.1957 -0.1228 -0.0570
    1DIPC   NC325729  11.991   1.526   2.312 -0.2003  0.1366  0.1635
    1DIPC   PO425730  12.251   1.518   2.669 -0.2386  0.2081  0.0296
    1DIPC   GL125731  12.111   1.367   3.125 -0.2006 -0.1898  0.0978
    1DIPC   GL225732  11.789   1.398   3.227  0.0361  0.2290  0.0815
    1DIPC   C1A25733  12.112   1.141   3.631  0.2132 -0.0520 -0.0911
    1DIPC   D2A25734  12.455   1.033   3.925  0.0820 -0.1621 -0.1362
    1DIPC   D3A25735  12.752   1.287   3.814 -0.0730 -0.0731  0.0294
    1DIPC   C4A25736  12.534   1.377   3.353  0.0908  0.2577  0.1902
    1DIPC   C1B25737  11.904   1.683   3.491  0.1638 -0.0626 -0.1282
    1DIPC   D2B25738  11.903   2.023   3.831  0.1272 -0.1386 -0.0755
    1DIPC   D3B25739  11.803   1.929   4.288 -0.4156 -0.0126  0.0116
    1DIPC   C4B25740  12.068   1.625   4.581 -0.2678 -0.1166  0.1026
    1DIPC   NC325741   9.911   5.060   2.445 -0.0941 -0.2276  0.1584
    1DIPC   PO425742  10.183   4.747   2.333 -0.2981  0.2670 -0.1793
    1DIPC   GL125743  10.178   4.762   2.806 -0.1771  0.1980  0.0769
    1DIPC   GL225744  10.258   4.420   2.810  0.0572 -0.2101 -0.1326
    1DIPC   C1A25745   9.986   4.739   3.200 -0.0881 -0.1057 -0.1288
    1DIPC   D2A25746  10.031   4.949   3.631  0.0129 -0.2810  0.0459
    1DIPC   D3A25747  10.095   4.592   3.720  0.0580 -0.1348  0.1025
    1DIPC   C4A25748  10.489   4.651   3.875 -0.1628  0.2349 -0.4646
    1DIPC   C1B25749   9.894   4.320   2.930 -0.2698  0.0457  0.0405
    1DIPC   D2B25750   9.594   4.465   3.213 -0.1760 -0.2186  0.0326
    1DIPC   D3B25751   9.237   4.405   3.449  0.0362 -0.3602 -0.2497
    1DIPC   C4B25752   9.232   4.101   3.691 -0.1274 -0.0166 -0.2886
    1DIPC   NC325753   7.882  13.758   2.615 -0.1064 -0.2313 -0.1950
    1DIPC   PO425754   8.062  14.089   2.691  0.1592  0.1498  0.0599
    1DIPC   GL125755   8.093  13.905   3.065 -0.1478  0.3585 -0.0315
    1DIPC   GL225756   8.394  13.655   3.013 -0.3090 -0.2035  0.1452
    1DIPC   C1A25757   8.351  13.981   3.446 -0.1295 -0.0044  0.2457
    1DIPC   D2A25758   8.426  13.789   3.945 -0.1503 -0.0184  0.1388
    1DIPC   D3A25759   8.127  13.522   4.200 -0.0149  0.0882  0.0867
    1DIPC   C4A25760   8.195  13.542   4.638  0.2705  0.4753 -0.1609
    1DIPC   C1B25761   8.438  13.490   3.350  0.2701  0.3293  0.2478
    1DIPC   D2B25762   8.622  13.338   3.685  0.1362  0.2157 -0.3415
    1DIPC   D3B25763   8.178  13.197   3.734  0.1009  0.0220  0.0919
    1DIPC   C4B25764   7.797  12.955   3.628 -0.1749 -0.1771 -0.1952
    1DIPC   NC325765   2.450  26.871   2.429  0.3404  0.0140 -0.0296
    1DIPC   PO425766   2.446  26.911   2.915 -0.0106 -0.4120  0.1273
    1DIPC   GL125767   2.269  27.078   3.246 -0.0274  0.0140  0.1896
    1DIPC   GL225768   2.337  27.266   3.541 -0.1145 -0.0978 -0.0417
    1DIPC   C1A25769   2.069  26.893   3.598 -0.1901  0.1449 -0.3259
    1DIPC   D2A25770   2.125  26.852   4.072  0.2020 -0.0439  0.0715
    1DIPC   D3A25771   2.085  26.896   4.497  0.0764 -0.1066 -0.1789
    1DIPC   C4A25772   2.528  27.045   4.797 -0.0234 -0.1330 -0.1494
    1DIPC   C1B25773   2.511  27.165   4.010  0.4001 -0.3429 -0.0843
    1DIPC   D2B25774   2.341  27.331   4.391  0.0067 -0.0120  0.2133
    1DIPC   D3B25775   2.235  27.731   4.537 -0.0925  0.2010  0.1526
    1DIPC   C4B25776   2.284  28.145   4.761 -0.4291 -0.1968  0.0454
    1DIPC   NC325777  16.322  11.350   2.293 -0.0471 -0.0118 -0.1625
    1DIPC   PO425778  15.924  11.565   2.551 -0.1120  0.0660 -0.1784
    1DIPC   GL125779  15.844  11.692   2.896  0.0341 -0.0277  0.2376
    1DIPC   GL225780  16.272  11.641   3.086  0.1433 -0.2089  0.0236
    1DIPC   C1A25781  15.628  11.600   3.296  0.1427 -0.0147  0.1051
    1DIPC   D2A25782  15.268  11.894   3.226 -0.2799 -0.2610 -0.0484
    1DIPC   D3A25783  15.302  12.219   3.519  0.1699  0.0680 -0.1199
    1DIPC   C4A25784  15.641  12.516   3.626 -0.2687 -0.0921  0.1861
    1DIPC   C1B25785  16.112  11.719   3.435 -0.0078 -0.2550 -0.1168
    1DIPC   D2B25786  16.066  11.843   3.824  0.0757  0.1051 -0.3112
    1DIPC   D3B25787  16.341  11.853   4.289  0.0795  0.0718 -0.1344
    1DIPC   C4B25788  16.700  11.799   4.295 -0.1021 -0.0298  0.2296
    1DIPC   NC325789  23.549  14.490   2.412  0.1036 -0.0925 -0.3544
    1DIPC   PO425790  23.772  14.144   2.632  0.0365  0.2597  0.1899
    1DIPC   GL125791  24.013  14.458   2.812 -0.3890  0.0467 -0.0631
    1DIPC   GL225792  23.703  14.604   2.921 -0.0471  0.1612 -0.0487
    1DIPC   C1A25793  24.261  14.488   3.081  0.0507  0.0396 -0.0998
    1DIPC   D2A25794  24.488  14.794   3.246  0.0876 -0.1210 -0.0336
    1DIPC   D3A25795  24.227  15.146   3.264 -0.3923  0.0515 -0.2314
    1DIPC   C4A25796  24.358  15.457   3.611 -0.0418  0.0439  0.2472
    1DIPC   C1B25797  23.734  14.910   3.278  0.1758 -0.0750 -0.0065
    1DIPC   D2B25798  23.788  15.413   3.392 -0.1126 -0.1799  0.3953
    1DIPC   D3B25799  23.613  15.150   3.774 -0.0722 -0.1210 -0.2502
    1DIPC   C4B25800  23.446  15.230   4.140 -0.1031  0.2041  0.0431
    1DIPC   NC325801   2.645  17.689   2.672 -0.0314  0.1390  0.2511
    1DIPC   PO425802   2.718  18.186   2.832  0.1617 -0.1002  0.0202
    1DIPC   GL125803   2.794  18.039   3.219  0.0362 -0.2650 -0.1814
    1DIPC   GL225804   2.988  17.773   3.287 -0.0756 -0.1685  0.0880
    1DIPC   C1A25805   2.818  17.996   3.710 -0.2342 -0.0418  0.1203
    1DIPC   D2A25806   2.982  17.986   4.055 -0.1196 -0.2289 -0.1251
    1DIPC   D3A25807   3.117  18.400   3.686 -0.3379  0.3895  0.3140
    1DIPC   C4A25808   2.730  18.647   3.712 -0.2740  0.0322 -0.0752
    1DIPC   C1B25809   3.201  17.667   3.697  0.3642  0.0111  0.2098
    1DIPC   D2B25810   3.221  17.561   4.035  0.1473  0.0300  0.0724
    1DIPC   D3B25811   3.376  17.587   4.441 -0.1026  0.0322 -0.2108
    1DIPC   C4B25812   3.706  17.269   4.601 -0.4026 -0.0234 -0.1603
    1DIPC   NC325813  13.334  22.122   2.412 -0.1812 -0.0893 -0.1450
    1DIPC   PO425814  13.164  21.803   2.676 -0.4013 -0.0362  0.2701
    1DIPC   GL125815  13.253  21.581   2.970  0.0501 -0.0726  0.3760
    1DIPC   GL225816  13.586  21.591   3.195  0.0458  0.0814  0.2002
    1DIPC   C1A25817  13.190  21.233   3.289 -0.1320  0.1992  0.0492
    1DIPC   D2A25818  13.508  21.133   3.540 -0.0423 -0.1264  0.1744
    1DIPC   D3A25819  13.510  20.731   3.783 -0.3437  0.0737 -0.1407
    1DIPC   C4A25820  13.207  20.562   4.154  0.1584  0.3321  0.0404
    1DIPC   C1B25821  13.278  21.723   3.496 -0.4553  0.1645  0.1615
    1DIPC   D2B25822  13.189  21.981   3.853  0.1085 -0.0821 -0.3112
    1DIPC   D3B25823  12.978  21.759   4.194  0.2125 -0.0392 -0.0051
    1DIPC   C4B25824  12.679  21.451   4.216 -0.1349 -0.1946  0.0213
    1DIPC   NC325825  12.905  20.117   1.882  0.1668 -0.0540 -0.0287
    1DIPC   PO425826  12.468  20.130   2.011 -0.0817 -0.2786  0.1162
    1DIPC   GL125827  12.700  20.259   2.420 -0.1967 -0.0662  0.3455
    1DIPC   GL225828  12.568  19.959   2.621 -0.2705 -0.1023 -0.0337
    1DIPC   C1A25829  12.990  20.177   2.638  0.0022 -0.0605 -0.1219
    1DIPC   D2A25830  13.403  20.049   2.731 -0.1329  0.0534  0.0179
    1DIPC   D3A25831  13.494  20.206   3.142 -0.0532  0.2186 -0.1090
    1DIPC   C4A25832  13.302  20.278   3.479 -0.2363 -0.2794 -0.1125
    1DIPC   C1B25833  12.879  19.742   2.876 -0.0602 -0.0742 -0.0401
    1DIPC   D2B25834  12.738  19.673   3.259  0.0759 -0.0608  0.0328
    1DIPC   D3B25835  12.700  19.304   3.056  0.2224 -0.2340 -0.1961
    1DIPC   C4B25836  13.152  19.265   3.103 -0.0457 -0.0302  0.0167
    1DIPC   NC325837  14.098  26.278   2.072  0.3069 -0.2209  0.0626
    1DIPC   PO425838  14.347  26.314   2.439 -0.1576 -0.2955 -0.0945
    1DIPC   GL125839  14.275  26.349   2.896  0.2922 -0.0682 -0.1215
    1DIPC   GL225840  14.246  26.110   3.070 -0.0663  0.0168  0.1347
    1DIPC   C1A25841  14.249  26.588   3.358  0.5098 -0.5114  0.0597
    1DIPC   D2A25842  14.195  26.484   3.890  0.1721  0.5242  0.2353
    1DIPC   D3A25843  14.353  26.744   4.208 -0.0311  0.0171 -0.0220
    1DIPC   C4A25844  14.250  27.120   4.452 -0.0235  0.2939 -0.1641
    1DIPC   C1B25845  14.128  26.108   3.512  0.3306 -0.4616 -0.2313
    1DIPC   D2B25846  14.034  25.977   3.963  0.2032  0.0606 -0.1074
    1DIPC   D3B25847  13.897  26.277   4.264  0.3258  0.0914 -0.0712
    1DIPC   C4B25848  13.453  26.474   4.223 -0.0926  0.0242  0.1556
    1DIPC   NC325849  10.768   8.366   2.024  0.0542 -0.2399  0.3055
    1DIPC   PO425850  10.424   8.322   2.433  0.2408  0.0390  0.4049
    1DIPC   GL125851  10.462   8.442   2.844  0.1909  0.0750  0.1918
    1DIPC   GL225852  10.756   8.489   2.959  0.0038 -0.0431  0.4598
    1DIPC   C1A25853  10.249   8.391   3.349 -0.1265 -0.4008 -0.1901
    1DIPC   D2A25854  10.203   8.324   3.736 -0.0795 -0.3292 -0.0106
    1DIPC   D3A25855  10.077   8.429   4.182 -0.4157 -0.4056  0.1979
    1DIPC   C4A25856  10.130   8.224   4.540  0.0801 -0.0770  0.0295
    1DIPC   C1B25857  10.734   8.398   3.462  0.2552 -0.0658 -0.1623
    1DIPC   D2B25858  10.707   8.506   3.970  0.3850 -0.1281 -0.2479
    1DIPC   D3B25859  10.570   8.190   4.250  0.0178  0.0690 -0.2329
    1DIPC   C4B25860  10.288   7.986   4.112 -0.3087  0.0189  0.0900
    1DIPC   NC325861   5.541  26.543   2.656 -0.3749  0.2096 -0.0632
    1DIPC   PO425862   5.779  26.926   2.590 -0.3742 -0.2740  0.3301
    1DIPC   GL125863   5.794  26.866   3.088  0.1899  0.0292 -0.0889
    1DIPC   GL225864   5.836  27.147   3.142 -0.0224 -0.0443 -0.0400
    1DIPC   C1A25865   5.777  27.021   3.581 -0.0457  0.0672  0.4606
    1DIPC   D2A25866   5.890  26.984   4.013  0.1227 -0.0246 -0.1143
    1DIPC   D3A25867   5.756  27.346   4.363  0.1297 -0.1518  0.3685
    1DIPC   C4A25868   5.910  27.331   4.756  0.1366  0.2912 -0.1116
    1DIPC   C1B25869   6.133  27.480   3.361 -0.1367  0.0653 -0.3549
    1DIPC   D2B25870   6.520  27.415   3.370  0.1894 -0.2184 -0.0507
    1DIPC   D3B25871   6.855  27.541   3.635  0.0368 -0.1178  0.1486
    1DIPC   C4B25872   6.788  27.571   4.130  0.2023 -0.1769  0.2699
    1DIPC   NC325873   9.536  24.288   2.608  0.1106 -0.0889 -0.1001
    1DIPC   PO425874   9.390  23.944   2.741 -0.0236  0.9320 -0.2151
    1DIPC   GL125875   9.393  23.912   3.139  0.3289  0.1013  0.1228
    1DIPC   GL225876   9.384  24.182   3.301  0.2598  0.0321 -0.0615
    1DIPC   C1A25877   9.466  23.767   3.559 -0.4211  0.1715  0.2963
    1DIPC   D2A25878   9.605  23.882   4.020 -0.0914  0.0196 -0.0084
    1DIPC   D3A25879   9.630  24.017   4.461  0.0036 -0.0789  0.1233
    1DIPC   C4A25880   9.440  24.334   4.726  0.1323 -0.1289 -0.0759
    1DIPC   C1B25881   9.388  24.218   3.722  0.0370 -0.1718  0.0857
    1DIPC   D2B25882   9.432  24.651   3.904  0.1377  0.1785 -0.2522
    1DIPC   D3B25883   9.247  24.277   4.218  0.0085  0.2819  0.1476
    1DIPC   C4B25884   8.953  24.184   4.578  0.0283  0.1665 -0.2024
    1DIPC   NC325885   9.802   1.520   1.788 -0.1276  0.1354  0.2745
    1DIPC   PO425886  10.208   1.487   2.089 -0.2218  0.2069 -0.2460
    1DIPC   GL125887  10.237   1.493   2.474 -0.1570 -0.1225 -0.1220
    1DIPC   GL225888  10.158   1.847   2.558  0.0225 -0.0093 -0.4422
    1DIPC   C1A25889  10.341   1.458   2.895 -0.3610  0.3348 -0.0038
    1DIPC   D2A25890  10.103   1.232   3.211 -0.5108 -0.1773  0.0752
    1DIPC   D3A25891  10.061   1.280   3.640 -0.2501 -0.0129 -0.2806
    1DIPC   C4A25892   9.965   0.903   4.023 -0.1840 -0.1544  0.1572
    1DIPC   C1B25893   9.988   1.788   2.934 -0.1408  0.0655 -0.1403
    1DIPC   D2B25894   9.889   1.723   3.352  0.0243 -0.2182 -0.0496
    1DIPC   D3B25895  10.304   1.656   3.393 -0.2210 -0.1227 -0.1798
    1DIPC   C4B25896  10.450   1.897   3.057 -0.0710  0.1937 -0.0920
    1DIPC   NC325897  17.586  20.073   2.560 -0.1215 -0.3868  0.1783
    1DIPC   PO425898  17.844  20.221   2.977 -0.0374  0.1822  0.0129
    1DIPC   GL125899  18.011  19.875   3.236  0.2390 -0.1483 -0.1083
    1DIPC   GL225900  17.813  19.682   3.400  0.1425  0.0789  0.1549
    1DIPC   C1A25901  18.254  19.709   3.605 -0.0109 -0.4029  0.1771
    1DIPC   D2A25902  18.582  19.688   3.872  0.4012  0.0742  0.0632
    1DIPC   D3A25903  18.774  19.479   4.228  0.0865  0.2062  0.0311
    1DIPC   C4A25904  19.173  19.470   4.135  0.0405  0.4253 -0.1482
    1DIPC   C1B25905  17.824  19.764   3.859 -0.1976  0.1438 -0.1564
    1DIPC   D2B25906  18.083  19.617   4.139  0.0006  0.0372  0.1624
    1DIPC   D3B25907  17.990  19.902   4.484  0.0628 -0.0025  0.0528
    1DIPC   C4B25908  18.228  20.401   4.473  0.1856 -0.1162 -0.1954
    1DIPC   NC325909  10.617   8.955   2.751 -0.3274 -0.2282 -0.0108
    1DIPC   PO425910  11.029   8.883   2.988  0.3308  0.2765  0.3212
    1DIPC   GL125911  11.135   9.015   3.385  0.1048 -0.0902 -0.0290
    1DIPC   GL225912  10.966   8.837   3.597 -0.2515 -0.0353  0.0441
    1DIPC   C1A25913  11.363   9.362   3.513 -0.1169 -0.0002  0.0886
    1DIPC   D2A25914  11.694   9.385   3.788 -0.0253 -0.0240  0.0781
    1DIPC   D3A25915  11.444   9.170   4.041 -0.0502 -0.0754 -0.0490
    1DIPC   C4A25916  11.625   9.002   4.373 -0.2154  0.0525  0.2325
    1DIPC   C1B25917  11.159   8.372   3.745 -0.1382  0.0932  0.0641
    1DIPC   D2B25918  11.111   8.277   4.262 -0.1911 -0.0992  0.1093
    1DIPC   D3B25919  10.882   8.603   4.420  0.1374 -0.4681  0.1371
    1DIPC   C4B25920  10.496   8.593   4.490  0.3884  0.0890 -0.0503
    1DIPC   NC325921  11.841  27.442   2.738 -0.2058  0.2292 -0.0087
    1DIPC   PO425922  11.611  27.769   2.751  0.0481 -0.2055  0.1832
    1DIPC   GL125923  11.819  27.956   3.006 -0.1454  0.1220  0.4638
    1DIPC   GL225924  11.863  28.326   2.818 -0.0311  0.0830  0.0857
    1DIPC   C1A25925  12.003  28.069   3.414 -0.1022  0.0501 -0.1324
    1DIPC   D2A25926  12.371  28.262   3.565  0.1226 -0.1836  0.0976
    1DIPC   D3A25927  12.566  28.325   4.049  0.1139 -0.0945  0.0806
    1DIPC   C4A25928  12.296  28.397   4.393  0.1033  0.3344  0.2963
    1DIPC   C1B25929  11.977  28.525   3.233  0.0182 -0.3009 -0.0624
    1DIPC   D2B25930  12.088  28.646   3.627  0.0672 -0.1009  0.0965
    1DIPC   D3B25931  11.940  28.250   3.913  0.1969 -0.3373  0.2421
    1DIPC   C4B25932  11.964  27.903   4.191  0.0636  0.0559  0.1027
    1DIPC   NC325933   3.339  23.197   3.195  0.0918  0.1860 -0.3567
    1DIPC   PO425934   3.652  23.007   3.478 -0.1439  0.0535 -0.0328
    1DIPC   GL125935   3.532  22.747   3.856 -0.1563  0.0006 -0.2280
    1DIPC   GL225936   3.292  22.567   3.985  0.1891  0.3687  0.1422
    1DIPC   C1A25937   3.803  22.497   4.027  0.0121 -0.0226 -0.0308
    1DIPC   D2A25938   4.018  22.623   4.360  0.2295  0.1408  0.0442
    1DIPC   D3A25939   3.672  22.961   4.355 -0.2667  0.0356 -0.0755
    1DIPC   C4A25940   3.190  22.877   4.620  0.2854 -0.0697  0.2774
    1DIPC   C1B25941   3.444  22.458   4.394 -0.3758  0.0889 -0.1139
    1DIPC   D2B25942   3.768  22.314   4.779  0.0421  0.2628  0.2715
    1DIPC   D3B25943   3.710  22.714   4.750 -0.0673 -0.1135 -0.1477
    1DIPC   C4B25944   3.443  23.018   5.038 -0.0937  0.0208  0.2106
    1DIPC   NC325945   5.063   7.937   2.060 -0.1479  0.0761 -0.0546
    1DIPC   PO425946   5.392   8.262   2.012 -0.0890 -0.2492 -0.1880
    1DIPC   GL125947   5.569   8.105   2.372 -0.0485  0.3203 -0.3147
    1DIPC   GL225948   5.637   7.772   2.392  0.2073  0.4418 -0.1962
    1DIPC   C1A25949   5.469   8.097   2.766 -0.1871 -0.1144  0.0902
    1DIPC   D2A25950   5.210   8.068   3.005  0.3768  0.0641 -0.0429
    1DIPC   D3A25951   5.255   8.203   3.449  0.3411 -0.1655 -0.0946
    1DIPC   C4A25952   5.233   8.381   3.753 -0.0922  0.0928 -0.1573
    1DIPC   C1B25953   5.822   7.677   2.719 -0.2556 -0.3775  0.0173
    1DIPC   D2B25954   5.912   7.963   2.992 -0.2645  0.1149 -0.0567
    1DIPC   D3B25955   5.716   7.761   3.242  0.0229 -0.0171  0.1159
    1DIPC   C4B25956   5.454   7.837   3.616 -0.2873 -0.1962 -0.2406
    1DIPC   NC325957  12.960   3.162   2.640 -0.0534 -0.0715  0.0692
    1DIPC   PO425958  13.162   3.288   2.893 -0.0348 -0.1718 -0.0817
    1DIPC   GL125959  13.230   3.710   3.182  0.0942 -0.0308  0.0238
    1DIPC   GL225960  13.416   4.002   3.133 -0.0298  0.2843 -0.0487
    1DIPC   C1A25961  13.525   3.732   3.500  0.1668  0.2276 -0.1013
    1DIPC   D2A25962  13.618   3.923   3.859  0.3041  0.1835  0.2098
    1DIPC   D3A25963  14.069   3.976   3.773  0.1244 -0.1591 -0.1433
    1DIPC   C4A25964  14.225   3.835   4.074 -0.1074  0.1319 -0.0159
    1DIPC   C1B25965  13.335   4.248   3.498 -0.1215 -0.1711  0.1190
    1DIPC   D2B25966  12.992   4.352   3.798  0.4001  0.0930 -0.0488
    1DIPC   D3B25967  13.172   4.768   3.855  0.1289 -0.1684 -0.0430
    1DIPC   C4B25968  12.998   5.015   4.287  0.0057 -0.1286  0.2850
    1DIPC   NC325969   7.401  10.541   1.857 -0.1595  0.2206  0.0567
    1DIPC   PO425970   7.038  10.651   2.047 -0.0447  0.0046 -0.1243
    1DIPC   GL125971   7.174  10.383   2.416 -0.2645  0.3405 -0.2207
    1DIPC   GL225972   7.031  10.035   2.462  0.1896 -0.2094 -0.2465
    1DIPC   C1A25973   7.203  10.523   2.887  0.3661  0.0289  0.0899
    1DIPC   D2A25974   7.295  10.567   3.348  0.3436  0.1518  0.0670
    1DIPC   D3A25975   7.667  10.465   3.068  0.4752  0.1597 -0.0781
    1DIPC   C4A25976   8.059  10.676   3.169  0.6551 -0.1974 -0.0358
    1DIPC   C1B25977   6.916   9.850   2.738  0.1878 -0.3274  0.0072
    1DIPC   D2B25978   6.974   9.768   3.190 -0.0773  0.2137 -0.2115
    1DIPC   D3B25979   6.651   9.558   3.364 -0.0882 -0.0276 -0.0165
    1DIPC   C4B25980   6.687   9.293   3.761  0.1080 -0.0938 -0.5805
    1DIPC   NC325981  12.603  10.963   1.924 -0.2615  0.2078  0.0151
    1DIPC   PO425982  12.459  11.338   2.208  0.0976 -0.0266  0.0335
    1DIPC   GL125983  12.433  11.390   2.698 -0.0969  0.0376  0.1226
    1DIPC   GL225984  12.433  11.135   2.948  0.2387  0.0445 -0.4438
    1DIPC   C1A25985  12.181  11.463   3.156  0.3148  0.1275 -0.0534
    1DIPC   D2A25986  11.864  11.283   3.416 -0.0753 -0.0020 -0.1675
    1DIPC   D3A25987  11.884  11.703   3.647  0.3128  0.1811 -0.1737
    1DIPC   C4A25988  11.823  11.923   3.377 -0.2534  0.2484 -0.0216
    1DIPC   C1B25989  12.619  11.317   3.332 -0.0374 -0.3157  0.1623
    1DIPC   D2B25990  12.982  11.548   3.428  0.0302  0.1306 -0.1500
    1DIPC   D3B25991  12.755  11.671   3.746  0.1874 -0.3614 -0.1232
    1DIPC   C4B25992  12.632  12.089   3.853  0.0180 -0.0431 -0.0508
    1DIPC   NC325993  14.803  22.793   2.222  0.1922 -0.0057 -0.0388
    1DIPC   PO425994  14.686  23.143   2.479 -0.2165 -0.2454  0.0767
    1DIPC   GL125995  14.766  23.408   2.916 -0.3275  0.0819  0.1537
    1DIPC   GL225996  14.980  23.691   2.884 -0.1271  0.2289 -0.2456
    1DIPC   C1A25997  14.758  23.689   3.311  0.4557 -0.1972  0.0779
    1DIPC   D2A25998  14.911  23.938   3.626  0.0324  0.0293  0.0621
    1DIPC   D3A25999  15.005  24.287   3.878 -0.0206  0.2842 -0.0515
    1DIPC   C4A26000  15.366  24.211   4.230 -0.1547 -0.1931 -0.0615
    1DIPC   C1B26001  15.198  23.443   3.204 -0.2000 -0.1978 -0.2675
    1DIPC   D2B26002  15.529  23.036   3.323  0.1203  0.3386  0.0086
    1DIPC   D3B26003  15.797  23.394   3.317 -0.0139 -0.1762  0.2220
    1DIPC   C4B26004  15.729  23.581   3.758  0.0800  0.0547 -0.0512
    1DIPC   NC326005  19.939  19.244   4.011  0.0489 -0.0679  0.0803
    1DIPC   PO426006  20.278  19.133   3.940  0.1737 -0.1266  0.3304
    1DIPC   GL126007  20.536  19.122   4.336 -0.0632  0.1613  0.0534
    1DIPC   GL226008  20.508  19.008   4.649 -0.4108 -0.1713  0.0512
    1DIPC   C1A26009  20.612  19.473   4.715  0.0227 -0.1528 -0.0863
    1DIPC   D2A26010  20.822  19.819   4.875  0.0643  0.2494 -0.3086
    1DIPC   D3A26011  21.217  19.841   4.627 -0.1690  0.0867 -0.3056
    1DIPC   C4A26012  21.604  19.806   4.799  0.2248  0.1007  0.0842
    1DIPC   C1B26013  20.229  19.234   4.912 -0.0783  0.0394  0.1251
    1DIPC   D2B26014  19.918  19.581   5.064  0.0078  0.4329 -0.0335
    1DIPC   D3B26015  19.884  19.482   5.597  0.0572 -0.1401  0.2363
    1DIPC   C4B26016  19.734  19.696   5.981  0.0238  0.1832 -0.1656
    1DIPC   NC326017   9.509  21.827   2.330  0.1215  0.1364 -0.3989
    1DIPC   PO426018   9.795  21.603   2.697  0.2575 -0.2315  0.1751
    1DIPC   GL126019  10.057  21.955   3.002  0.3338 -0.0065 -0.0014
    1DIPC   GL226020  10.075  21.789   3.127 -0.3017 -0.0880 -0.2111
    1DIPC   C1A26021  10.287  22.073   3.530  0.0234 -0.2244 -0.1056
    1DIPC   D2A26022  10.414  22.431   3.957  0.3904  0.2893  0.0821
    1DIPC   D3A26023  10.789  22.171   3.895 -0.2931  0.0439 -0.0510
    1DIPC   C4A26024  10.912  21.935   4.213  0.2313  0.1303 -0.2064
    1DIPC   C1B26025  10.342  21.570   3.363 -0.0490  0.3970 -0.2259
    1DIPC   D2B26026  10.413  21.256   3.720 -0.3671  0.1246  0.0571
    1DIPC   D3B26027  10.116  21.307   4.029  0.1830 -0.3626 -0.2107
    1DIPC   C4B26028  10.102  21.422   4.395  0.2181  0.0733 -0.0956
    1DIPC   NC326029  27.061   5.388   2.156 -0.0024  0.0689  0.0573
    1DIPC   PO426030  26.652   5.288   2.268 -0.0890 -0.1965 -0.3792
    1DIPC   GL126031  26.585   5.070   2.609  0.2371  0.2233  0.1409
    1DIPC   GL226032  26.373   5.152   2.748  0.2843 -0.0522  0.0774
    1DIPC   C1A26033  26.767   4.732   2.928  0.2839 -0.0441 -0.0932
    1DIPC   D2A26034  27.160   4.541   3.218  0.2365 -0.0390  0.0225
    1DIPC   D3A26035  27.241   4.749   3.506 -0.0659  0.1643  0.0391
    1DIPC   C4A26036  27.010   4.622   3.881 -0.3077 -0.1187  0.1358
    1DIPC   C1B26037  26.619   5.186   3.141 -0.0284 -0.3030 -0.0553
    1DIPC   D2B26038  26.773   4.935   3.461 -0.2476  0.0319  0.3971
    1DIPC   D3B26039  26.637   5.007   3.908  0.0330  0.0846  0.1727
    1DIPC   C4B26040  26.918   4.872   4.307  0.0288 -0.0379 -0.0648
    1DIPC   NC326041  20.240  19.978   3.531  0.2259 -0.0874 -0.0105
    1DIPC   PO426042  20.718  19.819   3.584 -0.1066  0.0595  0.3323
    1DIPC   GL126043  20.906  19.745   4.023 -0.0177 -0.2306 -0.2087
    1DIPC   GL226044  21.037  20.049   4.194 -0.0206 -0.2539  0.1237
    1DIPC   C1A26045  20.964  19.353   4.334  0.2166  0.0803 -0.1716
    1DIPC   D2A26046  21.095  19.132   4.605  0.2290  0.0585 -0.2059
    1DIPC   D3A26047  21.028  19.375   4.961  0.0235 -0.2273  0.0094
    1DIPC   C4A26048  20.681  19.407   5.281 -0.2719 -0.1918 -0.0043
    1DIPC   C1B26049  20.642  20.036   4.454 -0.0723  0.0488  0.0651
    1DIPC   D2B26050  20.305  19.848   4.717  0.1404 -0.2324  0.4360
    1DIPC   D3B26051  20.377  19.839   5.118 -0.0082  0.0162  0.1090
    1DIPC   C4B26052  20.397  20.261   5.198 -0.1633  0.0858 -0.2034
    1DIPC   NC326053   3.467  11.832   2.145  0.1808  0.3840  0.1529
    1DIPC   PO426054   3.213  12.135   2.325  0.0410 -0.0641 -0.0204
    1DIPC   GL126055   3.536  12.068   2.663  0.1616 -0.1230  0.1125
    1DIPC   GL226056   3.857  12.100   2.557  0.2357 -0.2504 -0.1718
    1DIPC   C1A26057   3.624  12.269   3.025 -0.2591  0.0381  0.2573
    1DIPC   D2A26058   3.466  12.487   3.297 -0.2676  0.1447 -0.0648
    1DIPC   D3A26059   3.849  12.253   3.527  0.1026 -0.1236  0.2051
    1DIPC   C4A26060   3.689  12.185   3.875 -0.0385 -0.0687 -0.2218
    1DIPC   C1B26061   4.041  11.794   2.774 -0.0724 -0.1444 -0.3542
    1DIPC   D2B26062   4.167  11.541   3.061  0.0655 -0.0737  0.3977
    1DIPC   D3B26063   3.885  11.824   3.282 -0.1400 -0.2264 -0.2201
    1DIPC   C4B26064   3.664  11.734   3.616 -0.0493 -0.1476  0.1710
    1DIPC   NC326065  15.437  17.725   2.329 -0.0875  0.0842 -0.0195
    1DIPC   PO426066  15.532  17.335   2.403 -0.2398  0.0352 -0.2624
    1DIPC   GL126067  15.299  17.335   2.884  0.1877  0.1958  0.3237
    1DIPC   GL226068  14.946  17.383   2.955  0.1514 -0.1291  0.0372
    1DIPC   C1A26069  15.264  17.116   3.235  0.1884  0.0447  0.1116
    1DIPC   D2A26070  15.476  16.890   3.500 -0.2398  0.1390  0.2510
    1DIPC   D3A26071  15.266  16.564   3.747 -0.0350 -0.2766 -0.3001
    1DIPC   C4A26072  15.479  16.206   3.923 -0.0971 -0.0914  0.2029
    1DIPC   C1B26073  14.667  17.407   3.373 -0.0758 -0.0612 -0.3465
    1DIPC   D2B26074  14.751  17.353   3.821  0.1465  0.3060 -0.2431
    1DIPC   D3B26075  15.162  17.212   3.753  0.0065  0.3521 -0.0641
    1DIPC   C4B26076  15.370  17.011   3.971  0.3152 -0.2880  0.0123
    1DIPC   NC326077  25.556  16.068   2.705  0.1017  0.3633  0.1679
    1DIPC   PO426078  25.378  16.445   2.722 -0.0975  0.1843 -0.3125
    1DIPC   GL126079  25.186  16.236   3.160 -0.0630  0.1495 -0.1754
    1DIPC   GL226080  25.100  15.869   3.188  0.1120 -0.1435  0.2807
    1DIPC   C1A26081  25.448  16.204   3.602  0.3017 -0.0663  0.0822
    1DIPC   D2A26082  25.697  16.435   3.883 -0.2999  0.2273  0.0895
    1DIPC   D3A26083  25.479  16.080   4.070  0.2721  0.0315 -0.0793
    1DIPC   C4A26084  25.446  16.233   4.386  0.1462 -0.0861  0.1510
    1DIPC   C1B26085  24.892  15.769   3.492 -0.0405  0.2638  0.1091
    1DIPC   D2B26086  24.661  15.622   3.918 -0.1975  0.2507  0.1753
    1DIPC   D3B26087  24.409  15.304   4.094  0.1155  0.0511 -0.1286
    1DIPC   C4B26088  24.341  15.155   4.541  0.0047  0.2917  0.1576
    1DIPC   NC326089  16.219  21.152   3.040 -0.0165  0.1598  0.1404
    1DIPC   PO426090  16.534  21.383   2.879 -0.0518 -0.0940 -0.0308
    1DIPC   GL126091  16.738  21.418   3.304  0.0970  0.1958 -0.2854
    1DIPC   GL226092  16.392  21.538   3.442 -0.1465 -0.2462 -0.1153
    1DIPC   C1A26093  16.820  21.535   3.770 -0.1021 -0.4416 -0.0172
    1DIPC   D2A26094  17.078  21.573   4.155  0.0785 -0.0059  0.0521
    1DIPC   D3A26095  17.216  21.210   4.294  0.3419 -0.1125 -0.0533
    1DIPC   C4A26096  17.154  21.276   4.719  0.1024 -0.1525 -0.0585
    1DIPC   C1B26097  16.368  21.698   3.863  0.1555  0.1696 -0.1736
    1DIPC   D2B26098  16.569  21.777   4.150  0.1461 -0.2557 -0.3130
    1DIPC   D3B26099  16.266  21.709   4.516 -0.0894  0.0414 -0.0007
    1DIPC   C4B26100  16.425  21.770   4.960 -0.0663 -0.0671  0.2811
    1DIPC   NC326101   3.241  24.239   2.885  0.0249 -0.3871  0.1627
    1DIPC   PO426102   3.119  24.386   3.362 -0.3399 -0.0336  0.0654
    1DIPC   GL126103   3.051  24.656   3.803 -0.0575  0.3198  0.0432
    1DIPC   GL226104   2.777  24.608   3.863 -0.0855  0.1936 -0.0736
    1DIPC   C1A26105   3.190  24.766   4.164  0.2583 -0.1171  0.2159
    1DIPC   D2A26106   3.536  24.737   4.382  0.3155  0.2622 -0.0053
    1DIPC   D3A26107   3.756  24.915   4.730 -0.0173  0.1549  0.1971
    1DIPC   C4A26108   4.051  24.813   4.904 -0.3387 -0.0993 -0.1559
    1DIPC   C1B26109   2.940  24.311   4.171  0.1265  0.5089  0.0974
    1DIPC   D2B26110   3.152  24.054   4.584  0.0251  0.4232  0.2110
    1DIPC   D3B26111   3.081  23.592   4.442  0.0657  0.0145 -0.2503
    1DIPC   C4B26112   3.217  23.355   4.799  0.3259  0.1879  0.2427
    1DIPC   NC326113  12.948   9.868   2.553 -0.2620 -0.2222 -0.0298
    1DIPC   PO426114  13.018  10.325   2.692 -0.0230 -0.1810 -0.4588
    1DIPC   GL126115  12.876  10.539   3.064  0.0544  0.0300 -0.2194
    1DIPC   GL226116  13.039  10.364   3.270  0.0139 -0.0247 -0.1611
    1DIPC   C1A26117  12.592  10.803   3.278 -0.0075  0.0427  0.0290
    1DIPC   D2A26118  12.282  10.973   3.472 -0.1979  0.4314 -0.1918
    1DIPC   D3A26119  12.258  11.289   3.687 -0.1274  0.0704  0.2601
    1DIPC   C4A26120  11.971  11.293   3.941  0.1454 -0.0125 -0.3048
    1DIPC   C1B26121  12.886  10.598   3.576 -0.1731 -0.1079 -0.2177
    1DIPC   D2B26122  13.028  10.591   3.980  0.0646 -0.0736 -0.0512
    1DIPC   D3B26123  12.890  10.969   4.215  0.3254  0.0463 -0.0801
    1DIPC   C4B26124  13.178  11.341   4.199  0.0839 -0.3910 -0.2220
    1DIPC   NC326125   8.694  23.997   3.050 -0.0094 -0.1994  0.2001
    1DIPC   PO426126   8.507  23.581   3.035 -0.1917  0.0568  0.0809
    1DIPC   GL126127   8.503  23.292   3.290  0.0346 -0.2370  0.1682
    1DIPC   GL226128   8.153  23.269   3.498 -0.0938 -0.3000 -0.0859
    1DIPC   C1A26129   8.668  23.158   3.616  0.1502  0.1529 -0.1099
    1DIPC   D2A26130   8.970  23.187   3.773 -0.4733 -0.0887  0.0087
    1DIPC   D3A26131   9.196  23.567   3.952 -0.2056 -0.1743 -0.2538
    1DIPC   C4A26132   9.562  23.458   4.305  0.1035 -0.4730 -0.0073
    1DIPC   C1B26133   8.150  23.197   4.008  0.2522  0.0889  0.1630
    1DIPC   D2B26134   8.374  23.109   4.263 -0.1065  0.2190  0.2346
    1DIPC   D3B26135   8.098  22.836   4.534  0.0291 -0.1097 -0.2380
    1DIPC   C4B26136   8.154  22.447   4.719  0.5330 -0.1921  0.0501
    1DIPC   NC326137  23.631  21.217   3.211 -0.2988 -0.1688 -0.0971
    1DIPC   PO426138  23.979  20.807   3.390 -0.1510  0.1042 -0.1661
    1DIPC   GL126139  24.034  20.404   3.740 -0.0983 -0.1060 -0.0812
    1DIPC   GL226140  24.279  20.292   3.846 -0.0347 -0.2486 -0.2441
    1DIPC   C1A26141  23.964  20.319   4.235  0.1381  0.2333 -0.0168
    1DIPC   D2A26142  24.077  20.139   4.651  0.0197  0.1959 -0.0267
    1DIPC   D3A26143  23.800  20.277   4.968 -0.0575 -0.0936  0.0191
    1DIPC   C4A26144  23.674  20.076   5.372  0.0876  0.0026  0.0459
    1DIPC   C1B26145  24.291  19.939   4.104  0.2864  0.2366 -0.0914
    1DIPC   D2B26146  24.216  19.578   4.471 -0.1451  0.0591 -0.2327
    1DIPC   D3B26147  24.381  19.669   4.898  0.0422  0.0772  0.2452
    1DIPC   C4B26148  24.193  19.715   5.362  0.0925  0.0430 -0.0326
    1DIPC   NC326149   9.888   8.415   2.289 -0.2218  0.2086  0.0023
    1DIPC   PO426150  10.155   8.725   2.631  0.2985  0.3581  0.1844
    1DIPC   GL126151  10.264   8.903   3.055 -0.1868 -0.2157 -0.0766
    1DIPC   GL226152  10.577   8.871   3.225 -0.2296  0.1493  0.3457
    1DIPC   C1A26153  10.223   9.221   3.401 -0.0154 -0.1443  0.3536
    1DIPC   D2A26154  10.309   9.618   3.678  0.1589  0.1435 -0.3775
    1DIPC   D3A26155  10.274   9.315   4.042  0.1081  0.1320 -0.1867
    1DIPC   C4A26156  10.141   9.429   4.468 -0.2739 -0.1394 -0.1244
    1DIPC   C1B26157  10.411   8.767   3.660 -0.1165  0.1507  0.0180
    1DIPC   D2B26158  10.352   8.818   4.065  0.3234  0.1385 -0.0065
    1DIPC   D3B26159  10.668   9.005   4.240 -0.0608  0.0362 -0.2965
    1DIPC   C4B26160  10.672   9.122   4.646  0.0284 -0.1456  0.3064
    1DIPC   NC326161   5.739   5.040   2.366 -0.3314  0.0273 -0.3651
    1DIPC   PO426162   5.628   5.401   2.194  0.1430 -0.0531  0.1327
    1DIPC   GL126163   5.743   5.545   2.620 -0.2887 -0.3784  0.0101
    1DIPC   GL226164   6.080   5.646   2.750 -0.2712  0.0815  0.0520
    1DIPC   C1A26165   5.572   5.513   3.115  0.3268  0.0971  0.1123
    1DIPC   D2A26166   5.494   5.634   3.530  0.0251  0.2499  0.2014
    1DIPC   D3A26167   5.926   5.545   3.681  0.0388 -0.1511 -0.4141
    1DIPC   C4A26168   5.821   5.573   4.196 -0.0452 -0.0356 -0.0534
    1DIPC   C1B26169   6.055   5.512   3.098  0.0143  0.0700 -0.0548
    1DIPC   D2B26170   5.995   5.138   3.164  0.0701  0.0183 -0.2377
    1DIPC   D3B26171   5.845   5.033   3.547 -0.0602  0.1491  0.1917
    1DIPC   C4B26172   5.474   5.140   3.594 -0.1201  0.1375  0.3043
    1DIPC   NC326173  11.387  15.113   2.195 -0.2434  0.1792  0.0582
    1DIPC   PO426174  11.570  14.844   2.463  0.1931  0.1237  0.0200
    1DIPC   GL126175  11.483  14.625   2.761  0.2033 -0.0333 -0.0340
    1DIPC   GL226176  11.247  14.320   2.793 -0.0278  0.0229 -0.2245
    1DIPC   C1A26177  11.616  14.385   3.155  0.1006  0.0631  0.0613
    1DIPC   D2A26178  11.574  14.541   3.646 -0.1379 -0.1247 -0.0361
    1DIPC   D3A26179  11.301  14.764   3.375  0.1758 -0.1165 -0.0899
    1DIPC   C4A26180  11.284  15.062   3.064  0.2139 -0.0362  0.2083
    1DIPC   C1B26181  11.118  14.397   3.053  0.3428  0.1168  0.4191
    1DIPC   D2B26182  10.942  14.447   3.450 -0.0940  0.1931 -0.1766
    1DIPC   D3B26183  10.881  14.733   3.742  0.0577  0.0775  0.0612
    1DIPC   C4B26184  11.271  14.889   3.894  0.2600  0.1293 -0.3538
    1DIPC   NC326185  27.747   3.144   2.231  0.0365 -0.0270 -0.0061
    1DIPC   PO426186  28.238   3.215   2.261  0.1779 -0.0242 -0.3759
    1DIPC   GL126187  27.941   3.487   2.463 -0.0565 -0.0685 -0.1097
    1DIPC   GL226188  28.004   3.803   2.648 -0.2138 -0.0482  0.3495
    1DIPC   C1A26189  27.942   3.452   3.000  0.0689  0.1305  0.2427
    1DIPC   D2A26190  27.961   3.349   3.393 -0.1389  0.1512  0.2510
    1DIPC   D3A26191  28.011   3.544   3.820 -0.1457 -0.0085 -0.1653
    1DIPC   C4A26192  28.153   3.391   4.202 -0.0767 -0.2633 -0.2608
    1DIPC   C1B26193  28.333   3.821   2.961 -0.1647  0.1987 -0.0011
    1DIPC   D2B26194  28.763   3.771   3.040 -0.2702  0.1089 -0.0997
    1DIPC   D3B26195  28.926   3.575   3.531  0.0659  0.2523 -0.2714
    1DIPC   C4B26196  29.255   3.603   3.775  0.0644  0.0445 -0.0760
    1DIPC   NC326197   9.374  29.317   1.934 -0.1832 -0.0716 -0.2354
    1DIPC   PO426198   9.117  29.092   2.269 -0.0959 -0.1855 -0.0125
    1DIPC   GL126199   9.095  29.337   2.702 -0.1250  0.1681 -0.1612
    1DIPC   GL226200   9.238   0.075   2.832 -0.1370  0.0016  0.0412
    1DIPC   C1A26201   9.213  29.336   3.188 -0.1109 -0.0432  0.1507
    1DIPC   D2A26202   9.346  29.546   3.590  0.1876 -0.0055 -0.1376
    1DIPC   D3A26203   8.879  29.519   3.493  0.1569 -0.2973  0.2779
    1DIPC   C4A26204   8.695  29.536   3.120 -0.1303 -0.1447  0.0453
    1DIPC   C1B26205   9.087   0.310   3.150 -0.0712 -0.0898  0.0246
    1DIPC   D2B26206   9.177   0.422   3.566 -0.1103 -0.0729 -0.2292
    1DIPC   D3B26207   9.435   0.320   3.941 -0.0425  0.0015  0.1106
    1DIPC   C4B26208   9.385   0.687   4.160  0.0685  0.0491  0.1104
    1DIPC   NC326209   4.296  28.012   2.855  0.0750  0.2295  0.1999
    1DIPC   PO426210   4.219  28.194   3.166 -0.3158 -0.3073 -0.1317
    1DIPC   GL126211   3.977  28.136   3.482 -0.0111  0.0162  0.1413
    1DIPC   GL226212   4.068  27.890   3.766 -0.0230  0.4305 -0.0514
    1DIPC   C1A26213   3.863  28.283   3.904  0.0504  0.1303  0.2705
    1DIPC   D2A26214   4.037  28.663   4.176 -0.2616 -0.0902 -0.0620
    1DIPC   D3A26215   3.909  28.884   4.470  0.3863  0.2913 -0.1445
    1DIPC   C4A26216   4.274  29.029   4.657 -0.0658 -0.1645 -0.0376
    1DIPC   C1B26217   3.632  27.856   3.729  0.2520  0.0730 -0.1520
    1DIPC   D2B26218   3.562  27.509   3.509 -0.0297 -0.0157  0.1909
    1DIPC   D3B26219   3.848  27.065   3.848  0.0314 -0.0358  0.2596
    1DIPC   C4B26220   4.087  26.575   3.959 -0.2276  0.0321  0.1130
    1DIPC   NC326221   1.777  17.066   2.606 -0.0610 -0.0415 -0.2532
    1DIPC   PO426222   2.197  17.127   2.673 -0.2278  0.1402 -0.2886
    1DIPC   GL126223   2.283  16.878   3.104  0.2369 -0.0954 -0.2148
    1DIPC   GL226224   2.494  17.021   3.383 -0.0428  0.1791 -0.2411
    1DIPC   C1A26225   2.244  16.615   3.458 -0.0386  0.1314 -0.1391
    1DIPC   D2A26226   2.280  16.625   3.948 -0.0067  0.0547 -0.2568
    1DIPC   D3A26227   1.943  16.762   4.094  0.0669 -0.2597  0.0560
    1DIPC   C4A26228   1.736  16.889   4.478 -0.2494  0.0181 -0.0458
    1DIPC   C1B26229   2.649  16.807   3.668 -0.1332 -0.1905  0.0081
    1DIPC   D2B26230   2.639  16.762   4.250 -0.0421 -0.3321 -0.0182
    1DIPC   D3B26231   3.055  16.748   4.391  0.0206 -0.1999  0.1131
    1DIPC   C4B26232   3.064  16.925   4.830  0.2804  0.2287  0.0607
    1DIPC   NC326233  18.519   3.014   3.088 -0.3731  0.2654 -0.1414
    1DIPC   PO426234  18.403   2.806   3.416  0.0325 -0.1820 -0.1711
    1DIPC   GL126235  18.628   2.779   3.763 -0.0201 -0.0205  0.0226
    1DIPC   GL226236  18.777   2.473   3.865  0.3101  0.0586 -0.0755
    1DIPC   C1A26237  19.027   2.862   4.030 -0.0100  0.1426 -0.1095
    1DIPC   D2A26238  19.335   3.189   4.139 -0.2726 -0.1293 -0.1809
    1DIPC   D3A26239  19.419   3.307   4.522  0.0828 -0.2289 -0.1637
    1DIPC   C4A26240  19.147   3.281   4.936  0.0155 -0.2496  0.0323
    1DIPC   C1B26241  18.810   2.504   4.333 -0.1017 -0.0220  0.1711
    1DIPC   D2B26242  18.828   2.460   4.752 -0.0639  0.1396  0.1745
    1DIPC   D3B26243  18.529   2.064   4.817 -0.1496 -0.2998 -0.0908
    1DIPC   C4B26244  18.063   2.203   4.774 -0.1112  0.0219  0.2250
    1DIPC   NC326245   1.824  17.836   3.038 -0.3763 -0.2216  0.2735
    1DIPC   PO426246   2.325  17.898   2.996  0.0120  0.0910  0.0939
    1DIPC   GL126247   2.247  17.842   3.436  0.1714 -0.1707 -0.2071
    1DIPC   GL226248   1.996  17.738   3.471  0.0050  0.1796 -0.1100
    1DIPC   C1A26249   2.089  17.996   3.917  0.0895  0.1855  0.2960
    1DIPC   D2A26250   2.238  17.950   4.375  0.1293  0.2784  0.0377
    1DIPC   D3A26251   2.544  18.245   4.007 -0.0393 -0.0500  0.1048
    1DIPC   C4A26252   2.317  18.360   3.598 -0.0796  0.0266  0.4456
    1DIPC   C1B26253   2.189  17.375   3.544 -0.2348 -0.2027 -0.0880
    1DIPC   D2B26254   2.009  17.004   3.667 -0.2280  0.0932 -0.2826
    1DIPC   D3B26255   2.293  17.170   3.982  0.0534  0.1506 -0.1699
    1DIPC   C4B26256   2.233  16.899   4.437 -0.0970  0.3157  0.0563
    1DIPC   NC326257   6.995   0.442   1.638 -0.0271  0.1883  0.1047
    1DIPC   PO426258   6.730   0.327   2.023 -0.1241 -0.0241 -0.2269
    1DIPC   GL126259   6.767   0.162   2.479 -0.2060  0.0067 -0.1010
    1DIPC   GL226260   6.804  29.510   2.676 -0.0606  0.2290 -0.1820
    1DIPC   C1A26261   7.099   0.226   2.872  0.0106 -0.0702  0.1357
    1DIPC   D2A26262   7.305   0.322   3.266  0.1351 -0.0194  0.1447
    1DIPC   D3A26263   6.938   0.523   3.374 -0.0952  0.3200  0.1535
    1DIPC   C4A26264   6.838   0.890   3.100 -0.1287 -0.2982  0.0505
    1DIPC   C1B26265   6.599  29.213   2.971  0.1726 -0.0099  0.1519
    1DIPC   D2B26266   6.482  29.397   3.450 -0.3670 -0.0404 -0.2578
    1DIPC   D3B26267   6.955  29.592   3.534 -0.0842 -0.1356  0.2336
    1DIPC   C4B26268   7.124  29.444   3.922 -0.0144  0.0757 -0.2060
    1DIPC   NC326269  25.736   1.492   3.469 -0.2182  0.0736  0.0267
    1DIPC   PO426270  25.926   1.711   3.094  0.1799 -0.0673  0.2739
    1DIPC   GL126271  25.991   1.969   3.454  0.1232  0.3290 -0.2303
    1DIPC   GL226272  26.150   1.842   3.570  0.0693  0.2280  0.2126
    1DIPC   C1A26273  25.962   2.442   3.446 -0.1696  0.0684 -0.0453
    1DIPC   D2A26274  26.110   2.760   3.401  0.1189 -0.1219 -0.2620
    1DIPC   D3A26275  26.073   3.017   3.760 -0.1333  0.0507 -0.0282
    1DIPC   C4A26276  26.343   2.884   4.095  0.0529 -0.1406  0.2455
    1DIPC   C1B26277  26.088   2.172   3.882 -0.0247 -0.2241 -0.0042
    1DIPC   D2B26278  26.332   2.257   4.163 -0.1156  0.1710  0.0489
    1DIPC   D3B26279  26.059   2.067   4.582 -0.1597 -0.0467 -0.1423
    1DIPC   C4B26280  25.832   2.298   4.898  0.0078 -0.1176 -0.0443
    1DIPC   NC326281  10.036  28.923   2.798  0.1868  0.0209 -0.3696
    1DIPC   PO426282  10.186  29.227   2.954 -0.1458 -0.1930 -0.1035
    1DIPC   GL126283  10.006  29.592   3.108  0.2238 -0.3536  0.1207
    1DIPC   GL226284   9.671   0.208   3.077 -0.0405  0.2959 -0.1528
    1DIPC   C1A26285  10.079   0.425   3.157  0.0941 -0.0948 -0.0300
    1DIPC   D2A26286   9.906   0.786   2.972  0.1053 -0.1783 -0.1047
    1DIPC   D3A26287   9.855   0.864   3.330 -0.2483  0.1056 -0.0873
    1DIPC   C4A26288  10.270   0.791   3.508  0.0576  0.2388 -0.0729
    1DIPC   C1B26289   9.479   0.673   3.149 -0.0376  0.2793  0.0879
    1DIPC   D2B26290   9.321   0.912   3.455  0.0828  0.0807  0.0530
    1DIPC   D3B26291   9.581   0.751   3.737  0.1532  0.1164  0.0594
    1DIPC   C4B26292   9.900   0.455   3.672  0.0801 -0.1641  0.3857
    1DIPC   NC326293   3.156  20.596   3.379  0.1003  0.2075  0.0554
    1DIPC   PO426294   3.350  20.284   3.469 -0.2879 -0.1437 -0.1053
    1DIPC   GL126295   3.396  20.474   3.911  0.2495 -0.0081  0.0176
    1DIPC   GL226296   3.188  20.745   3.906 -0.1514  0.5106  0.1228
    1DIPC   C1A26297   3.299  20.671   4.427 -0.2903  0.1823 -0.0966
    1DIPC   D2A26298   3.114  20.826   4.856  0.3633 -0.1138  0.2479
    1DIPC   D3A26299   2.715  20.554   4.905 -0.1081  0.1089 -0.0909
    1DIPC   C4A26300   2.635  20.657   5.375  0.0853  0.3771  0.0446
    1DIPC   C1B26301   2.989  20.368   4.141 -0.2923 -0.0366 -0.1900
    1DIPC   D2B26302   2.994  20.236   4.590 -0.0116 -0.1621 -0.0548
    1DIPC   D3B26303   3.260  20.327   4.818  0.3826  0.3668 -0.0781
    1DIPC   C4B26304   3.657  20.670   4.905 -0.0930  0.0867 -0.1259
    1DIPC   NC326305   0.127  17.499   2.635  0.1158 -0.2059 -0.0970
    1DIPC   PO426306   0.478  17.470   2.946  0.0128  0.0852  0.1010
    1DIPC   GL126307   0.561  17.633   3.395 -0.1453 -0.0184 -0.1532
    1DIPC   GL226308   0.292  17.742   3.574 -0.2711  0.0417 -0.0256
    1DIPC   C1A26309   0.787  17.330   3.745  0.1822  0.2347 -0.2057
    1DIPC   D2A26310   0.754  17.104   4.089  0.1236 -0.0096 -0.0432
    1DIPC   D3A26311   0.944  17.254   4.462 -0.1183 -0.1291 -0.0088
    1DIPC   C4A26312   1.413  17.412   4.423 -0.1170  0.1998 -0.4197
    1DIPC   C1B26313   0.476  17.645   4.041 -0.0238  0.2075  0.0009
    1DIPC   D2B26314   0.325  17.766   4.363 -0.1059 -0.2367  0.1673
    1DIPC   D3B26315   0.554  17.567   4.607 -0.2118  0.1454 -0.0216
    1DIPC   C4B26316   0.303  17.320   4.939  0.3476 -0.1138 -0.1153
    1DIPC   NC326317  24.516  28.117   3.204 -0.3972 -0.0132 -0.0374
    1DIPC   PO426318  24.820  28.245   3.465  0.1530  0.2035  0.0260
    1DIPC   GL126319  24.748  27.877   3.739  0.0444 -0.1332  0.4509
    1DIPC   GL226320  24.921  27.976   3.922 -0.0906 -0.0031  0.2738
    1DIPC   C1A26321  24.551  27.496   4.000  0.1030  0.0298 -0.1250
    1DIPC   D2A26322  24.345  27.340   4.270 -0.3225  0.4230 -0.3414
    1DIPC   D3A26323  24.620  27.271   4.631  0.0976 -0.1151  0.1644
    1DIPC   C4A26324  24.505  26.912   4.862  0.0026  0.1572 -0.2269
    1DIPC   C1B26325  24.567  27.928   4.267 -0.2721  0.2483  0.1829
    1DIPC   D2B26326  24.177  27.851   4.224  0.1598 -0.0467  0.1887
    1DIPC   D3B26327  24.175  27.765   4.611  0.1241  0.2269  0.0621
    1DIPC   C4B26328  24.641  27.776   4.751  0.0308  0.0854 -0.2845
    1DIPC   NC326329  18.387  29.596   3.006 -0.2141  0.3304  0.1836
    1DIPC   PO426330  18.511   0.079   3.460  0.0825  0.2289 -0.2483
    1DIPC   GL126331  18.040   0.178   3.551  0.0130  0.0013  0.1894
    1DIPC   GL226332  17.902  29.509   3.675 -0.1719 -0.1273  0.2155
    1DIPC   C1A26333  17.944   0.451   3.905 -0.0008 -0.0674  0.2132
    1DIPC   D2A26334  17.738   0.512   4.336  0.2377  0.3363 -0.0201
    1DIPC   D3A26335  17.607   0.877   4.617  0.1160  0.0753  0.2569
    1DIPC   C4A26336  17.199   1.109   4.528  0.1801 -0.2968 -0.1111
    1DIPC   C1B26337  17.699   0.062   4.040 -0.0495  0.2838 -0.1143
    1DIPC   D2B26338  17.608   0.028   4.547 -0.0321 -0.0547 -0.1284
    1DIPC   D3B26339  18.044   0.032   4.436  0.0071  0.0559  0.0980
    1DIPC   C4B26340  18.217   0.016   4.129  0.1479 -0.1696  0.1727
    1DIPC   NC326341  12.824  27.215   2.596  0.1127 -0.2029  0.1564
    1DIPC   PO426342  13.062  27.690   2.425 -0.1368 -0.1565 -0.3203
    1DIPC   GL126343  13.083  27.572   2.890  0.0639  0.0570  0.1196
    1DIPC   GL226344  13.391  27.393   3.098  0.0539 -0.1606 -0.0387
    1DIPC   C1A26345  12.903  27.460   3.251 -0.2022 -0.1564  0.1011
    1DIPC   D2A26346  12.536  27.608   3.661 -0.1495  0.2119  0.1795
    1DIPC   D3A26347  12.576  27.565   4.108  0.0229 -0.1077 -0.1630
    1DIPC   C4A26348  12.496  27.920   4.307  0.2130 -0.0501  0.3061
    1DIPC   C1B26349  13.275  27.363   3.533 -0.1977  0.0851  0.1331
    1DIPC   D2B26350  12.982  27.375   3.929 -0.1119  0.1593 -0.1089
    1DIPC   D3B26351  13.083  27.773   4.204  0.1622 -0.3620 -0.1436
    1DIPC   C4B26352  13.077  28.230   4.094  0.0754  0.1709 -0.1030
    1DIPC   NC326353  26.934  22.740   3.329 -0.0710  0.1317  0.0687
    1DIPC   PO426354  26.517  22.926   3.181 -0.0442  0.0990  0.0160
    1DIPC   GL126355  26.514  22.910   3.576  0.2516  0.3067 -0.0891
    1DIPC   GL226356  26.491  23.142   3.671 -0.2375 -0.0512 -0.0260
    1DIPC   C1A26357  26.472  22.677   4.010  0.2010 -0.1682 -0.0948
    1DIPC   D2A26358  26.421  22.703   4.414 -0.0164 -0.0656  0.0633
    1DIPC   D3A26359  26.531  23.094   4.619 -0.0495  0.0783 -0.2221
    1DIPC   C4A26360  26.472  23.005   5.031  0.0448  0.3987 -0.0624
    1DIPC   C1B26361  26.524  23.179   4.115 -0.2287  0.2596 -0.1888
    1DIPC   D2B26362  26.322  23.476   4.327  0.0010 -0.0542  0.1522
    1DIPC   D3B26363  25.955  23.345   4.460  0.0048  0.0907 -0.2955
    1DIPC   C4B26364  26.022  23.058   4.785 -0.1679 -0.0366 -0.3028
    1DIPC   NC326365   1.567   4.473   1.671  0.0306  0.0781  0.3891
    1DIPC   PO426366   1.643   4.483   2.150  0.0071  0.0770 -0.0343
    1DIPC   GL126367   1.807   4.557   2.604 -0.0077  0.0232 -0.1868
    1DIPC   GL226368   2.157   4.568   2.757  0.2780  0.0789  0.0893
    1DIPC   C1A26369   1.692   4.631   3.026 -0.1505  0.1226  0.2242
    1DIPC   D2A26370   1.675   4.862   3.397  0.1990  0.2671  0.3164
    1DIPC   D3A26371   1.920   5.157   3.223  0.0709 -0.0632 -0.1118
    1DIPC   C4A26372   1.921   5.019   2.700 -0.1119 -0.0443  0.2487
    1DIPC   C1B26373   2.214   4.765   3.136 -0.2154  0.0147  0.0769
    1DIPC   D2B26374   2.251   4.897   3.606 -0.1579 -0.2689 -0.5435
    1DIPC   D3B26375   2.092   4.623   3.956 -0.1566 -0.0659 -0.0904
    1DIPC   C4B26376   2.043   4.781   4.349  0.1584  0.0945 -0.0929
    1DIPC   NC326377  12.340  14.262   2.413  0.0790  0.1441  0.1120
    1DIPC   PO426378  12.240  13.940   2.715  0.3103 -0.5387  0.0847
    1DIPC   GL126379  12.196  13.801   3.101 -0.1152 -0.0888  0.3082
    1DIPC   GL226380  11.986  13.461   3.202 -0.0560  0.1130 -0.1508
    1DIPC   C1A26381  12.220  13.769   3.509 -0.1503 -0.0327 -0.3929
    1DIPC   D2A26382  12.117  13.775   3.840 -0.1181  0.0038 -0.0450
    1DIPC   D3A26383  12.387  13.927   4.151  0.0512 -0.0123  0.1944
    1DIPC   C4A26384  12.244  14.327   4.190  0.1350  0.0655  0.1102
    1DIPC   C1B26385  12.262  13.129   3.511  0.1558 -0.1426 -0.2053
    1DIPC   D2B26386  12.395  12.987   3.901  0.2674 -0.1000  0.0286
    1DIPC   D3B26387  12.051  13.314   4.050 -0.1327  0.0402 -0.2092
    1DIPC   C4B26388  11.847  13.281   4.519 -0.1292 -0.2320 -0.2599
    1DIPC   NC326389  12.741  23.913   2.719 -0.0295 -0.0057 -0.3927
    1DIPC   PO426390  12.442  23.815   2.612 -0.0637  0.6075  0.2004
    1DIPC   GL126391  12.433  23.774   3.093 -0.1545  0.0971 -0.1832
    1DIPC   GL226392  12.157  23.886   3.333 -0.1444  0.1485 -0.0544
    1DIPC   C1A26393  12.667  23.712   3.481  0.1402 -0.0886  0.2945
    1DIPC   D2A26394  13.005  23.742   3.792 -0.2503 -0.2294  0.0068
    1DIPC   D3A26395  12.878  23.934   4.242 -0.0066  0.2122 -0.0456
    1DIPC   C4A26396  12.907  24.365   4.226  0.0945  0.0425 -0.0124
    1DIPC   C1B26397  12.156  23.684   3.758  0.0840  0.1062  0.0744
    1DIPC   D2B26398  12.169  23.942   4.147 -0.0366 -0.1753 -0.0536
    1DIPC   D3B26399  12.462  23.656   4.120 -0.6052 -0.1394  0.0886
    1DIPC   C4B26400  12.554  23.222   4.173  0.2240 -0.1479 -0.2363
    1DIPC   NC326401  14.986  24.132   2.063  0.3063 -0.2610  0.2437
    1DIPC   PO426402  15.181  24.157   2.463 -0.1071 -0.0976 -0.4059
    1DIPC   GL126403  15.019  24.248   2.890  0.1546 -0.0161 -0.0243
    1DIPC   GL226404  14.665  24.077   2.998 -0.2162 -0.1330 -0.0612
    1DIPC   C1A26405  15.132  24.162   3.223 -0.1400 -0.1863  0.1670
    1DIPC   D2A26406  15.411  24.311   3.558  0.0012 -0.2183  0.0933
    1DIPC   D3A26407  15.821  24.565   3.403  0.3164 -0.0894  0.2894
    1DIPC   C4A26408  16.061  24.706   3.755  0.1869  0.1700  0.1059
    1DIPC   C1B26409  14.579  24.281   3.380  0.2459 -0.1210  0.0601
    1DIPC   D2B26410  14.570  24.536   3.711  0.0651  0.1556  0.2337
    1DIPC   D3B26411  14.572  24.330   4.125  0.1414 -0.1298  0.0214
    1DIPC   C4B26412  14.895  24.352   4.381  0.4060  0.0138 -0.1880
    1DIPC   NC326413   7.562  21.286   3.315  0.2194 -0.1268 -0.1962
    1DIPC   PO426414   7.354  21.580   3.362  0.0638  0.0862 -0.0567
    1DIPC   GL126415   7.394  21.859   3.705 -0.1804 -0.2144  0.0447
    1DIPC   GL226416   7.682  21.804   3.873  0.0317  0.0565 -0.0814
    1DIPC   C1A26417   7.243  21.820   4.053  0.1219  0.2536 -0.1472
    1DIPC   D2A26418   7.276  21.682   4.408  0.1307  0.1070  0.0848
    1DIPC   D3A26419   7.092  21.938   4.688 -0.4118 -0.0173 -0.1064
    1DIPC   C4A26420   6.853  22.342   4.566 -0.1491  0.3736 -0.1113
    1DIPC   C1B26421   7.687  21.533   4.217  0.0991 -0.1560 -0.0566
    1DIPC   D2B26422   7.600  21.430   4.703 -0.0829 -0.1336 -0.1553
    1DIPC   D3B26423   7.866  21.141   4.442 -0.1539 -0.2368 -0.1610
    1DIPC   C4B26424   7.681  20.895   4.089 -0.5248 -0.1749  0.3136
    1DIPC   NC326425  25.081  17.103   3.170 -0.1773  0.1861 -0.0843
    1DIPC   PO426426  24.673  16.985   3.337  0.0827  0.0900  0.0322
    1DIPC   GL126427  24.621  16.999   3.796 -0.0714 -0.2976 -0.2177
    1DIPC   GL226428  24.459  17.293   3.885  0.3379  0.1797  0.2159
    1DIPC   C1A26429  24.747  16.683   4.021  0.3823 -0.0191 -0.1576
    1DIPC   D2A26430  25.112  16.522   4.141  0.0114 -0.1134 -0.0927
    1DIPC   D3A26431  25.497  16.743   4.171  0.0435  0.0693  0.1000
    1DIPC   C4A26432  25.781  16.908   4.497  0.0570  0.1381 -0.5588
    1DIPC   C1B26433  24.624  17.253   4.236 -0.6088  0.1292 -0.0458
    1DIPC   D2B26434  24.490  17.155   4.587  0.1853 -0.1601  0.0859
    1DIPC   D3B26435  24.750  16.785   4.577  0.2212  0.3156  0.3658
    1DIPC   C4B26436  25.119  16.776   4.576 -0.1138  0.3066 -0.3151
    1DIPC   NC326437  13.003   4.067   2.862 -0.3524 -0.0227 -0.0204
    1DIPC   PO426438  12.836   3.648   2.860 -0.1253  0.1234  0.1582
    1DIPC   GL126439  12.736   3.869   3.276 -0.0245  0.1179 -0.0889
    1DIPC   GL226440  12.714   4.164   3.279  0.1009 -0.0962 -0.2891
    1DIPC   C1A26441  12.970   3.846   3.649 -0.0915 -0.0326 -0.2653
    1DIPC   D2A26442  13.174   3.661   3.936 -0.0592  0.0858  0.1821
    1DIPC   D3A26443  12.863   3.376   3.885  0.2731  0.1083  0.2633
    1DIPC   C4A26444  12.710   3.062   4.072  0.0022 -0.1489  0.0954
    1DIPC   C1B26445  12.551   4.103   3.685  0.0774  0.1474 -0.4152
    1DIPC   D2B26446  12.639   3.775   4.000 -0.2739 -0.1442 -0.0209
    1DIPC   D3B26447  12.414   4.111   4.169  0.1348 -0.1993  0.3836
    1DIPC   C4B26448  12.477   4.625   4.096 -0.0082  0.1250  0.2215
    1DIPC   NC326449  11.528  21.985   2.143  0.3150 -0.0361  0.1832
    1DIPC   PO426450  11.386  21.691   2.343  0.0411 -0.0167  0.2250
    1DIPC   GL126451  11.361  21.666   2.768 -0.0644 -0.3168  0.1201
    1DIPC   GL226452  11.110  21.392   2.821  0.1094  0.1219  0.1406
    1DIPC   C1A26453  11.169  21.747   3.184 -0.0404 -0.0127 -0.0244
    1DIPC   D2A26454  11.187  21.814   3.722  0.1781  0.0384 -0.2461
    1DIPC   D3A26455  10.973  21.400   3.886  0.4840 -0.1078  0.1394
    1DIPC   C4A26456  11.105  21.014   4.017 -0.1447 -0.1943  0.0124
    1DIPC   C1B26457  11.256  21.229   3.298  0.1528 -0.1863 -0.0282
    1DIPC   D2B26458  11.454  21.208   3.666 -0.1447 -0.1180  0.1216
    1DIPC   D3B26459  11.472  21.482   4.067 -0.0808  0.0682 -0.3640
    1DIPC   C4B26460  11.794  21.491   4.394 -0.2091 -0.1259  0.1082
    1DIPC   NC326461   7.901   3.862   2.492 -0.0263 -0.0364  0.2973
    1DIPC   PO426462   7.508   4.016   2.395  0.2922 -0.2450 -0.1410
    1DIPC   GL126463   7.591   4.074   2.847  0.1708 -0.1651 -0.1868
    1DIPC   GL226464   7.582   4.427   2.957 -0.0002 -0.1743 -0.2468
    1DIPC   C1A26465   7.842   4.107   3.187 -0.1075 -0.1110 -0.1550
    1DIPC   D2A26466   8.134   4.309   3.467 -0.2114 -0.0549  0.2685
    1DIPC   D3A26467   8.410   4.636   3.634  0.0171 -0.2040 -0.0083
    1DIPC   C4A26468   8.872   4.600   3.727 -0.0704  0.0663 -0.1892
    1DIPC   C1B26469   8.011   4.448   2.819  0.0656  0.1479  0.0989
    1DIPC   D2B26470   8.315   4.307   3.029  0.0755 -0.3754 -0.0541
    1DIPC   D3B26471   8.156   3.882   2.874  0.2601  0.1816  0.0201
    1DIPC   C4B26472   8.039   3.623   3.272 -0.0010  0.1278 -0.0636
    1DIPC   NC326473  14.971   7.319   2.796 -0.2654 -0.3550  0.1484
    1DIPC   PO426474  14.547   7.332   2.800 -0.2316 -0.0152  0.2915
    1DIPC   GL126475  14.621   7.276   3.251  0.2277  0.2907  0.0596
    1DIPC   GL226476  14.879   7.303   3.292  0.2072 -0.2489 -0.1721
    1DIPC   C1A26477  14.566   7.014   3.568  0.2926 -0.0501 -0.1421
    1DIPC   D2A26478  14.549   6.781   3.848  0.2321  0.3683 -0.1474
    1DIPC   D3A26479  14.410   6.723   4.182 -0.0907 -0.0143  0.0158
    1DIPC   C4A26480  14.641   6.566   4.555 -0.0019 -0.0061  0.0066
    1DIPC   C1B26481  14.852   7.453   3.721  0.0854  0.0003  0.1328
    1DIPC   D2B26482  14.934   7.692   4.059 -0.1514 -0.1633  0.1527
    1DIPC   D3B26483  15.276   7.616   4.319  0.2314  0.1578  0.2911
    1DIPC   C4B26484  15.435   7.992   4.457 -0.2288  0.0083 -0.1043
    1DIPC   NC326485  29.581  28.177   2.629  0.2305 -0.0822 -0.2426
    1DIPC   PO426486   0.129  28.234   3.087  0.0333  0.2207 -0.0166
    1DIPC   GL126487   0.134  27.976   3.493 -0.3306  0.0774 -0.1340
    1DIPC   GL226488   0.003  28.222   3.697  0.0946  0.1046  0.1179
    1DIPC   C1A26489   0.385  28.005   3.899 -0.0091  0.0446 -0.0178
    1DIPC   D2A26490   0.263  28.091   4.319 -0.0997 -0.0110 -0.1671
    1DIPC   D3A26491   0.679  28.205   4.330 -0.0381  0.1082 -0.1108
    1DIPC   C4A26492   0.887  28.474   4.600  0.0476  0.0378  0.0194
    1DIPC   C1B26493  29.595  28.460   4.017 -0.0847 -0.2200 -0.0330
    1DIPC   D2B26494  29.435  28.463   4.488 -0.0773 -0.0137  0.0614
    1DIPC   D3B26495  29.498  28.479   4.943  0.0677  0.3199 -0.1906
    1DIPC   C4B26496   0.177  28.217   5.092 -0.1870  0.0712  0.2863
    1DIPC   NC326497   4.825   6.619   1.968  0.3732  0.0714 -0.1040
    1DIPC   PO426498   4.726   6.160   2.051 -0.2774 -0.1767 -0.1440
    1DIPC   GL126499   4.535   6.262   2.348  0.0339 -0.1070  0.2640
    1DIPC   GL226500   4.655   6.417   2.630  0.2723  0.0256 -0.0600
    1DIPC   C1A26501   4.346   5.977   2.665 -0.0967  0.3318 -0.2232
    1DIPC   D2A26502   4.325   5.507   2.741  0.0235 -0.0175 -0.2123
    1DIPC   D3A26503   4.649   5.584   3.139 -0.0332 -0.0261  0.0175
    1DIPC   C4A26504   4.486   5.663   3.558 -0.0173  0.0386  0.0760
    1DIPC   C1B26505   4.871   6.185   2.964 -0.0322 -0.0020 -0.2717
    1DIPC   D2B26506   5.217   6.316   3.320  0.1192 -0.2058 -0.1642
    1DIPC   D3B26507   5.209   6.106   3.751 -0.0848  0.0952  0.1228
    1DIPC   C4B26508   5.316   6.304   4.089  0.0511  0.1119 -0.1035
    1DIPC   NC326509  10.855   6.975   2.264 -0.0510 -0.1624 -0.0318
    1DIPC   PO426510  10.946   7.448   2.445 -0.0013 -0.4906 -0.0295
    1DIPC   GL126511  10.741   7.735   2.828  0.0796  0.2122 -0.1253
    1DIPC   GL226512  10.470   7.871   2.804  0.0486  0.1564  0.1667
    1DIPC   C1A26513  10.676   7.786   3.279 -0.0871 -0.2783 -0.2059
    1DIPC   D2A26514  10.463   7.918   3.628  0.0070 -0.0977 -0.1461
    1DIPC   D3A26515  10.769   7.923   3.828 -0.3370 -0.2014 -0.4642
    1DIPC   C4A26516  10.833   7.772   4.205  0.1161 -0.1750  0.0693
    1DIPC   C1B26517  10.181   7.529   3.085 -0.1419 -0.1943  0.0768
    1DIPC   D2B26518  10.315   7.455   3.519 -0.1561 -0.3739  0.2723
    1DIPC   D3B26519  10.352   7.090   3.723 -0.1214  0.0426  0.1101
    1DIPC   C4B26520  10.727   6.894   3.758  0.0119  0.1562 -0.1493
    1DIPC   NC326521  17.917  18.925   3.126 -0.2934  0.0037 -0.2880
    1DIPC   PO426522  18.305  18.727   3.246 -0.2386 -0.0658 -0.1048
    1DIPC   GL126523  18.047  18.811   3.579  0.0313 -0.2952 -0.4067
    1DIPC   GL226524  17.819  18.602   3.766 -0.2240 -0.1750 -0.0564
    1DIPC   C1A26525  18.078  18.871   4.075 -0.0752 -0.0831 -0.2410
    1DIPC   D2A26526  17.876  18.940   4.425 -0.0685 -0.2104  0.1701
    1DIPC   D3A26527  17.797  19.257   4.153  0.3992  0.6572 -0.2615
    1DIPC   C4A26528  17.751  19.230   3.735  0.0019 -0.1552  0.2200
    1DIPC   C1B26529  17.797  18.366   4.143  0.1134  0.0754 -0.2558
    1DIPC   D2B26530  17.691  18.479   4.604 -0.1283  0.2396  0.1843
    1DIPC   D3B26531  17.643  18.049   4.779  0.1577  0.1655 -0.3029
    1DIPC   C4B26532  17.658  17.859   5.192 -0.1969  0.0744  0.1386
    1DIPC   NC326533  26.909  19.179   3.273 -0.1605 -0.2133 -0.1638
    1DIPC   PO426534  27.100  19.462   3.617  0.0602  0.0541 -0.0486
    1DIPC   GL126535  27.188  19.692   3.981 -0.2580  0.1646  0.0829
    1DIPC   GL226536  27.300  19.993   3.938  0.2524 -0.1918 -0.0590
    1DIPC   C1A26537  26.823  19.887   4.113 -0.0525  0.2709 -0.3753
    1DIPC   D2A26538  26.535  19.902   4.416  0.0817 -0.2144  0.0906
    1DIPC   D3A26539  26.569  20.194   4.658 -0.1077  0.0513 -0.1227
    1DIPC   C4A26540  26.304  19.931   5.051 -0.2765 -0.0129 -0.1513
    1DIPC   C1B26541  27.311  20.033   4.352  0.1214 -0.1948  0.2711
    1DIPC   D2B26542  27.040  19.978   4.663 -0.2302  0.4043 -0.0489
    1DIPC   D3B26543  27.210  19.628   4.824  0.2177  0.4396 -0.1067
    1DIPC   C4B26544  27.091  19.412   5.187 -0.2930  0.3256 -0.0949
    1DIPC   NC326545  20.398  24.207   4.524  0.1350  0.1858  0.1678
    1DIPC   PO426546  20.248  24.445   4.143 -0.2240  0.0727 -0.0006
    1DIPC   GL126547  20.290  24.665   4.513 -0.0780 -0.0952 -0.1980
    1DIPC   GL226548  19.994  24.809   4.352  0.0034 -0.2293 -0.0797
    1DIPC   C1A26549  20.334  24.957   4.793  0.0053  0.1235  0.0857
    1DIPC   D2A26550  20.385  25.420   4.837 -0.0390  0.0532 -0.3118
    1DIPC   D3A26551  20.392  25.688   5.231  0.1918  0.0073 -0.2234
    1DIPC   C4A26552  20.747  25.681   5.504  0.0741  0.1471  0.2418
    1DIPC   C1B26553  19.892  24.579   4.745  0.3230  0.5243 -0.0975
    1DIPC   D2B26554  20.036  24.664   5.132 -0.0958  0.0618  0.0126
    1DIPC   D3B26555  19.638  24.660   5.274  0.2419 -0.3377  0.3231
    1DIPC   C4B26556  19.365  24.927   5.480  0.0247 -0.0236 -0.1423
    1DIPC   NC326557  10.393  24.745   2.767  0.0814  0.3978  0.0670
    1DIPC   PO426558   9.951  24.565   2.817 -0.2369  0.0058 -0.1020
    1DIPC   GL126559  10.180  24.519   3.191  0.0650 -0.0911 -0.0940
    1DIPC   GL226560  10.283  24.187   3.195  0.0100  0.0949 -0.3639
    1DIPC   C1A26561  10.556  24.691   3.354  0.3876  0.2286  0.3281
    1DIPC   D2A26562  11.018  24.888   3.486 -0.2430  0.2533  0.4364
    1DIPC   D3A26563  11.014  25.066   3.920 -0.0976  0.0418  0.2395
    1DIPC   C4A26564  11.049  25.144   4.455  0.2830  0.1200  0.0724
    1DIPC   C1B26565  10.307  23.932   3.649 -0.2463 -0.0919  0.0452
    1DIPC   D2B26566  10.202  23.774   3.981 -0.0426  0.0369  0.1812
    1DIPC   D3B26567  10.478  23.681   4.360 -0.2033  0.1015  0.1953
    1DIPC   C4B26568  10.943  23.814   4.326 -0.3136  0.4888 -0.0673
    1DIPC   NC326569  26.467  21.690   3.676 -0.0736  0.0731  0.1309
    1DIPC   PO426570  26.303  21.320   3.916  0.2611 -0.1016 -0.1076
    1DIPC   GL126571  26.251  21.162   4.285 -0.1871 -0.2489  0.0513
    1DIPC   GL226572  25.939  21.001   4.394 -0.0209  0.0999 -0.0271
    1DIPC   C1A26573  26.441  21.161   4.787 -0.0434  0.6484 -0.0450
    1DIPC   D2A26574  26.605  20.863   5.120 -0.0953  0.0698 -0.2600
    1DIPC   D3A26575  26.952  21.161   5.122 -0.0598  0.0426  0.1512
    1DIPC   C4A26576  26.952  21.604   5.197  0.2769  0.0272  0.3804
    1DIPC   C1B26577  25.743  20.850   4.669 -0.1615  0.0619  0.2468
    1DIPC   D2B26578  25.626  20.433   4.796  0.4411 -0.2513  0.3036
    1DIPC   D3B26579  25.873  20.575   5.206 -0.1053 -0.1508 -0.0275
    1DIPC   C4B26580  26.108  20.897   5.090  0.0589 -0.3937  0.0752
    1DIPC   NC326581  10.726   2.677   2.458  0.0540 -0.0693 -0.1051
    1DIPC   PO426582  11.165   2.679   2.725  0.3805  0.0702 -0.2353
    1DIPC   GL126583  11.194   2.780   3.187 -0.2501  0.1660  0.3145
    1DIPC   GL226584  11.251   2.415   3.184 -0.1758 -0.1245 -0.0331
    1DIPC   C1A26585  11.405   2.735   3.581 -0.2040 -0.0208 -0.0787
    1DIPC   D2A26586  11.757   2.547   3.778  0.0406  0.0108  0.1516
    1DIPC   D3A26587  11.755   2.591   4.217 -0.1141 -0.1689 -0.0032
    1DIPC   C4A26588  11.893   2.938   4.490 -0.0030 -0.0489  0.0434
    1DIPC   C1B26589  11.040   2.419   3.578 -0.0109  0.4148  0.1158
    1DIPC   D2B26590  10.804   2.710   3.923 -0.2273 -0.0224  0.3361
    1DIPC   D3B26591  10.450   2.919   3.797  0.1007  0.0359  0.3203
    1DIPC   C4B26592  10.303   3.396   3.802 -0.2174 -0.0803 -0.3021
    1DIPC   NC326593  25.820  24.889   3.130  0.0094  0.2039 -0.3376
    1DIPC   PO426594  25.371  24.733   3.195 -0.1178 -0.4429  0.2363
    1DIPC   GL126595  25.565  24.795   3.614 -0.4932  0.1377 -0.1851
    1DIPC   GL226596  25.438  25.019   3.885  0.2186  0.1706  0.0596
    1DIPC   C1A26597  25.936  24.643   3.713  0.3582  0.0474 -0.0691
    1DIPC   D2A26598  26.214  24.548   4.059 -0.0128 -0.0591 -0.0537
    1DIPC   D3A26599  25.941  24.675   4.397 -0.1442  0.0741 -0.0339
    1DIPC   C4A26600  25.574  24.667   4.270 -0.1814 -0.1622  0.1898
    1DIPC   C1B26601  25.834  25.055   4.007  0.1092  0.1346  0.2808
    1DIPC   D2B26602  26.248  25.026   3.948  0.1149 -0.0027  0.0045
    1DIPC   D3B26603  26.415  24.947   4.278  0.3483 -0.1182  0.0302
    1DIPC   C4B26604  26.455  25.314   4.481  0.2131  0.0765 -0.2256
    1DIPC   NC326605   6.185   9.695   1.026  0.0665  0.1958 -0.1347
    1DIPC   PO426606   6.032   9.519   1.404 -0.0654 -0.1718  0.2352
    1DIPC   GL126607   5.905   9.578   1.803  0.4456  0.2776  0.0640
    1DIPC   GL226608   5.608   9.883   1.882  0.1297 -0.2325  0.1862
    1DIPC   C1A26609   6.059   9.658   2.247  0.0228  0.0383  0.0752
    1DIPC   D2A26610   5.981   9.743   2.636 -0.2135  0.2711  0.1910
    1DIPC   D3A26611   5.605   9.847   2.807  0.2372  0.1393  0.0541
    1DIPC   C4A26612   5.282   9.515   2.727 -0.0864  0.1868 -0.0783
    1DIPC   C1B26613   5.561   9.559   2.258  0.1092  0.0118 -0.3177
    1DIPC   D2B26614   5.790   9.258   2.483 -0.1831 -0.0700  0.3913
    1DIPC   D3B26615   5.822   9.366   2.930  0.1859 -0.1890  0.1989
    1DIPC   C4B26616   5.788   9.198   3.423 -0.4216 -0.0703 -0.1204
    1DIPC   NC326617  11.188  23.405   3.244  0.1277  0.1031 -0.0431
    1DIPC   PO426618  11.167  23.839   3.164 -0.1751 -0.0447 -0.0179
    1DIPC   GL126619  11.235  23.913   3.490  0.0451  0.1419  0.1014
    1DIPC   GL226620  11.332  23.586   3.681  0.5121 -0.0179 -0.3201
    1DIPC   C1A26621  11.176  23.997   3.941 -0.0665  0.2770 -0.1267
    1DIPC   D2A26622  11.232  24.239   4.206 -0.1306  0.2368  0.1167
    1DIPC   D3A26623  11.075  24.219   4.551 -0.3964  0.2524 -0.4657
    1DIPC   C4A26624  11.032  23.915   4.950  0.0630  0.0296 -0.1069
    1DIPC   C1B26625  11.142  23.482   4.043  0.1274  0.2625  0.0344
    1DIPC   D2B26626  10.831  23.291   4.402  0.0833  0.3288  0.0457
    1DIPC   D3B26627  10.862  23.505   4.765 -0.0049  0.0679 -0.2651
    1DIPC   C4B26628  11.233  23.354   4.926 -0.0094 -0.0611 -0.2616
    1DIPC   NC326629  26.430  23.691   2.852 -0.0856  0.4159  0.1489
    1DIPC   PO426630  26.641  23.485   3.067  0.2790  0.0768  0.0139
    1DIPC   GL126631  26.609  23.612   3.528 -0.0091  0.0259 -0.0952
    1DIPC   GL226632  26.313  23.670   3.667 -0.2690  0.0777  0.1528
    1DIPC   C1A26633  26.753  23.545   3.902 -0.0237  0.2385  0.4493
    1DIPC   D2A26634  26.821  23.473   4.402 -0.0695 -0.0951  0.1158
    1DIPC   D3A26635  26.783  23.624   4.782  0.0604  0.1370 -0.3697
    1DIPC   C4A26636  26.365  23.509   4.890  0.2746  0.1650 -0.3971
    1DIPC   C1B26637  26.463  23.903   4.031 -0.1286 -0.0512 -0.1635
    1DIPC   D2B26638  26.713  23.946   4.379  0.1116  0.3775  0.0271
    1DIPC   D3B26639  26.784  24.218   4.668 -0.2527 -0.0174 -0.2974
    1DIPC   C4B26640  26.997  24.067   4.930 -0.2330  0.0363 -0.0998
    1DIPC   NC326641  18.143  26.380   3.867  0.0160  0.1456 -0.0289
    1DIPC   PO426642  17.906  26.013   3.997  0.2103 -0.0174 -0.1221
    1DIPC   GL126643  17.513  25.753   4.202  0.2304 -0.1078 -0.0987
    1DIPC   GL226644  17.289  25.504   4.069 -0.1380 -0.2637 -0.0248
    1DIPC   C1A26645  17.493  25.506   4.562  0.0078  0.0553  0.3867
    1DIPC   D2A26646  17.285  25.233   4.866 -0.1810 -0.1207  0.1432
    1DIPC   D3A26647  17.436  25.701   5.017  0.1985 -0.1128 -0.1238
    1DIPC   C4A26648  17.711  25.942   4.640 -0.1509 -0.3595  0.2541
    1DIPC   C1B26649  16.914  25.454   4.027 -0.2711 -0.2009 -0.1795
    1DIPC   D2B26650  16.446  25.531   3.997  0.5364  0.2163  0.0283
    1DIPC   D3B26651  16.552  25.683   4.380  0.1000 -0.0697 -0.0785
    1DIPC   C4B26652  16.293  25.520   4.754 -0.1652 -0.3468 -0.0659
    1DIPC   NC326653  12.511   0.126   2.661  0.1348 -0.2139  0.1153
    1DIPC   PO426654  12.349   0.526   2.910  0.0817  0.1089 -0.1869
    1DIPC   GL126655  12.428   0.489   3.343 -0.2395 -0.1649 -0.0029
    1DIPC   GL226656  12.594   0.813   3.471  0.0680 -0.1994  0.2512
    1DIPC   C1A26657  12.415   0.484   3.768  0.1148 -0.0647  0.0822
    1DIPC   D2A26658  12.466   0.647   4.277  0.1137  0.0353 -0.2647
    1DIPC   D3A26659  12.710   1.042   4.340 -0.1817  0.1155  0.1319
    1DIPC   C4A26660  12.558   1.431   4.222  0.1301 -0.1676  0.1175
    1DIPC   C1B26661  12.858   0.796   3.871 -0.2489 -0.0019  0.2606
    1DIPC   D2B26662  13.131   0.705   4.246  0.0479  0.0345  0.0273
    1DIPC   D3B26663  13.029   0.742   4.647  0.0935  0.1260  0.2147
    1DIPC   C4B26664  13.205   0.401   4.894  0.1650 -0.1231 -0.2431
    1DIPC   NC326665  20.725  18.960   3.451 -0.1439  0.3172  0.0303
    1DIPC   PO426666  20.402  18.920   3.495 -0.1096 -0.2142  0.0725
    1DIPC   GL126667  20.540  18.703   3.897 -0.2669 -0.2662  0.3243
    1DIPC   GL226668  20.351  18.712   4.167  0.0805  0.0359  0.1860
    1DIPC   C1A26669  20.887  18.698   4.200 -0.1341 -0.1476  0.1082
    1DIPC   D2A26670  20.932  18.678   4.635 -0.2003 -0.0322 -0.2939
    1DIPC   D3A26671  21.048  18.629   5.073 -0.2187  0.0824 -0.0602
    1DIPC   C4A26672  20.837  18.444   5.341  0.0326  0.0312 -0.1109
    1DIPC   C1B26673  20.050  18.347   4.314 -0.1923  0.1746  0.0768
    1DIPC   D2B26674  19.797  18.023   4.470  0.0629  0.0507 -0.3412
    1DIPC   D3B26675  19.478  17.857   4.715 -0.3604  0.0158 -0.0610
    1DIPC   C4B26676  19.424  17.779   5.185  0.0389 -0.0557 -0.0369
    1DIPC   NC326677  18.706  19.098   3.241  0.2548  0.0545 -0.0667
    1DIPC   PO426678  18.927  19.465   3.486  0.3254  0.1305 -0.0178
    1DIPC   GL126679  18.822  19.118   3.817  0.0800  0.0383 -0.0255
    1DIPC   GL226680  18.553  18.900   3.647 -0.1009 -0.1607  0.1097
    1DIPC   C1A26681  18.646  18.875   4.210 -0.1102 -0.0955  0.1999
    1DIPC   D2A26682  18.479  18.858   4.574 -0.5221 -0.3164 -0.2958
    1DIPC   D3A26683  18.328  19.263   4.424  0.0537  0.2155 -0.1698
    1DIPC   C4A26684  18.347  19.251   3.917  0.1617 -0.3373  0.2280
    1DIPC   C1B26685  18.414  18.554   3.885 -0.0984 -0.0009 -0.3226
    1DIPC   D2B26686  18.278  18.291   4.214 -0.3332 -0.1990  0.1809
    1DIPC   D3B26687  18.167  18.376   4.632 -0.2526  0.0718  0.2641
    1DIPC   C4B26688  18.085  18.225   5.042  0.0462 -0.3233  0.1561
    1DIPC   NC326689   1.538  19.619   3.202  0.3551  0.0685 -0.2712
    1DIPC   PO426690   1.302  19.796   3.551 -0.1065  0.0054  0.2274
    1DIPC   GL126691   1.311  19.585   3.900 -0.2144 -0.0540  0.0327
    1DIPC   GL226692   1.629  19.368   3.922 -0.2199  0.0668  0.1410
    1DIPC   C1A26693   1.149  19.503   4.338 -0.0454  0.2718  0.0013
    1DIPC   D2A26694   1.004  19.799   4.737 -0.3604  0.3289  0.0277
    1DIPC   D3A26695   0.980  19.325   4.882  0.0363  0.0794  0.1767
    1DIPC   C4A26696   0.877  19.179   5.243  0.0987  0.0580 -0.1009
    1DIPC   C1B26697   1.593  19.353   4.316 -0.1720  0.1593 -0.1073
    1DIPC   D2B26698   1.529  19.264   4.714 -0.1707  0.3220 -0.1815
    1DIPC   D3B26699   1.867  19.374   4.887 -0.1263  0.1925  0.2699
    1DIPC   C4B26700   2.102  19.557   5.238  0.1003 -0.2638  0.0800
    1DIPC   NC326701   4.373   3.890   2.934 -0.0586 -0.2197  0.0320
    1DIPC   PO426702   4.275   4.318   3.076 -0.1034  0.1563  0.1698
    1DIPC   GL126703   4.608   4.484   3.367  0.1111 -0.1000  0.0083
    1DIPC   GL226704   4.333   4.438   3.597  0.1444 -0.1944  0.0680
    1DIPC   C1A26705   4.635   4.738   3.782 -0.1330  0.0119  0.3305
    1DIPC   D2A26706   4.561   5.238   3.950  0.1042 -0.2133 -0.1563
    1DIPC   D3A26707   4.190   5.158   4.192  0.2026 -0.0825  0.0196
    1DIPC   C4A26708   3.794   5.422   4.294 -0.2629 -0.1846  0.1421
    1DIPC   C1B26709   4.444   4.265   4.005 -0.2722  0.2365  0.2011
    1DIPC   D2B26710   4.390   3.913   4.199  0.0853  0.0824 -0.1962
    1DIPC   D3B26711   4.521   4.342   4.531 -0.1156  0.1761  0.0094
    1DIPC   C4B26712   4.456   4.714   4.354 -0.0397  0.0651 -0.2395
    1DIPC   NC326713   7.601  17.656   2.828 -0.0443  0.0417  0.3059
    1DIPC   PO426714   7.861  17.301   2.871  0.0144 -0.1097 -0.1533
    1DIPC   GL126715   7.965  17.408   3.278  0.1682 -0.3219 -0.1725
    1DIPC   GL226716   8.092  17.792   3.295  0.0847  0.1856 -0.2781
    1DIPC   C1A26717   8.113  17.178   3.676 -0.1043  0.0056 -0.1220
    1DIPC   D2A26718   7.839  17.131   4.006  0.0384  0.0985  0.1849
    1DIPC   D3A26719   8.163  17.127   4.284  0.0727 -0.0425  0.2275
    1DIPC   C4A26720   8.576  17.108   4.142  0.0649 -0.0587 -0.1058
    1DIPC   C1B26721   8.009  17.662   3.693  0.3106 -0.1445  0.0208
    1DIPC   D2B26722   8.012  17.640   4.079 -0.1506 -0.0093 -0.1239
    1DIPC   D3B26723   7.645  17.615   4.154  0.0714 -0.0348 -0.2943
    1DIPC   C4B26724   7.490  17.640   3.779 -0.1940  0.1169 -0.0355
    1DIPC   NC326725  27.030   3.572   2.078  0.1282 -0.0253  0.0505
    1DIPC   PO426726  27.400   3.547   2.341 -0.0078 -0.0331  0.0516
    1DIPC   GL126727  27.494   3.412   2.746 -0.1310 -0.3333 -0.0781
    1DIPC   GL226728  27.557   3.735   2.984  0.0344  0.0811 -0.1748
    1DIPC   C1A26729  27.524   3.266   3.188  0.1306  0.0423  0.0794
    1DIPC   D2A26730  27.522   3.157   3.574  0.2462  0.2615  0.0900
    1DIPC   D3A26731  27.742   3.132   3.979 -0.1769 -0.0687 -0.0732
    1DIPC   C4A26732  27.532   3.063   4.334 -0.1930 -0.1623  0.2117
    1DIPC   C1B26733  27.453   4.168   3.270 -0.0111  0.1164 -0.0385
    1DIPC   D2B26734  27.388   4.250   3.625  0.0715 -0.2343  0.2369
    1DIPC   D3B26735  27.711   4.119   3.822 -0.3762 -0.0455 -0.0654
    1DIPC   C4B26736  27.741   4.111   4.237 -0.1227 -0.2076  0.1708
    1DIPC   NC326737   4.512   1.253   2.769 -0.2300  0.3639  0.4117
    1DIPC   PO426738   4.621   0.905   3.008  0.3032 -0.1069 -0.3325
    1DIPC   GL126739   4.369   0.928   3.325 -0.0306  0.0820  0.2739
    1DIPC   GL226740   4.233   0.666   3.258  0.0062  0.0536  0.1025
    1DIPC   C1A26741   3.921   0.968   3.449 -0.2267 -0.5909 -0.2727
    1DIPC   D2A26742   3.762   0.754   3.827 -0.0963  0.0275 -0.0667
    1DIPC   D3A26743   3.982   0.810   4.210  0.0682  0.0522  0.1406
    1DIPC   C4A26744   3.711   0.979   4.554 -0.0580 -0.3308  0.2560
    1DIPC   C1B26745   4.233   0.558   3.694 -0.0095 -0.3834  0.0121
    1DIPC   D2B26746   4.110   0.314   4.027 -0.5439 -0.2023 -0.1454
    1DIPC   D3B26747   3.726   0.262   4.107  0.0684 -0.2298 -0.0890
    1DIPC   C4B26748   3.539   0.537   4.306  0.1378 -0.0464  0.0964
    1DIPC   NC326749   7.509  22.059   3.216  0.1139 -0.3814 -0.1176
    1DIPC   PO426750   7.810  21.738   3.153 -0.2070 -0.0273  0.2700
    1DIPC   GL126751   8.006  21.591   3.533  0.0332 -0.1173 -0.1367
    1DIPC   GL226752   7.880  21.307   3.674  0.3908 -0.2168 -0.0666
    1DIPC   C1A26753   8.174  21.705   3.939  0.1557  0.5410  0.2230
    1DIPC   D2A26754   8.117  21.701   4.336  0.2680  0.1658 -0.2109
    1DIPC   D3A26755   8.208  22.120   4.324 -0.1761  0.1239  0.2054
    1DIPC   C4A26756   7.908  22.424   4.338 -0.0189 -0.0091  0.1998
    1DIPC   C1B26757   8.136  21.236   3.978  0.0570 -0.0999  0.2762
    1DIPC   D2B26758   8.312  20.995   4.254 -0.5244  0.0128  0.0315
    1DIPC   D3B26759   8.354  21.287   4.542 -0.2034  0.0288 -0.2034
    1DIPC   C4B26760   8.080  21.454   4.860 -0.1418 -0.0035 -0.0744
    1DIPC   NC326761  21.839  25.588   3.299  0.1079  0.2083 -0.0331
    1DIPC   PO426762  21.397  25.534   3.342 -0.1701  0.0297 -0.0406
    1DIPC   GL126763  21.302  25.734   3.743 -0.5094 -0.1255  0.0591
    1DIPC   GL226764  20.933  25.726   3.748 -0.3609 -0.0544 -0.3455
    1DIPC   C1A26765  21.488  25.789   4.207  0.0899  0.0001  0.3445
    1DIPC   D2A26766  21.485  25.906   4.458 -0.0062 -0.2333 -0.3861
    1DIPC   D3A26767  21.914  25.745   4.520 -0.0989 -0.0079  0.1081
    1DIPC   C4A26768  22.019  25.360   4.748 -0.0649  0.0295 -0.0358
    1DIPC   C1B26769  20.912  25.901   4.192  0.0018 -0.2104 -0.0384
    1DIPC   D2B26770  21.019  26.097   4.514  0.0906  0.1047 -0.0023
    1DIPC   D3B26771  20.727  26.401   4.431  0.2551 -0.2312  0.0923
    1DIPC   C4B26772  20.919  26.747   4.595  0.0806 -0.2586 -0.1195
    1DIPC   NC326773  22.302  25.463   3.698  0.1080  0.1207 -0.0988
    1DIPC   PO426774  22.446  25.146   3.990 -0.1211 -0.2066 -0.2817
    1DIPC   GL126775  22.713  25.374   4.259  0.0710 -0.0150  0.1274
    1DIPC   GL226776  22.490  25.368   4.512 -0.1378  0.1340  0.0884
    1DIPC   C1A26777  23.060  25.286   4.644  0.1033  0.0280 -0.1871
    1DIPC   D2A26778  23.032  25.058   5.022  0.0494  0.3941  0.0426
    1DIPC   D3A26779  23.237  25.252   5.312  0.0474 -0.0975 -0.0029
    1DIPC   C4A26780  23.626  25.082   5.406  0.0509  0.2237 -0.0014
    1DIPC   C1B26781  22.666  25.391   4.928 -0.0084  0.0875  0.3758
    1DIPC   D2B26782  22.782  25.418   5.395 -0.1157  0.0252  0.0034
    1DIPC   D3B26783  23.021  25.120   5.713 -0.0760  0.2450 -0.1519
    1DIPC   C4B26784  23.365  25.160   5.876 -0.2142  0.1000 -0.0783
    1DIPC   NC326785  16.488  26.530   3.156 -0.0684 -0.1699  0.0365
    1DIPC   PO426786  16.567  26.149   2.950  0.1815  0.2762  0.1294
    1DIPC   GL126787  16.352  26.080   3.423 -0.2235  0.3416  0.0993
    1DIPC   GL226788  16.529  26.231   3.617  0.3925  0.1762  0.1323
    1DIPC   C1A26789  16.076  26.153   3.793 -0.1688 -0.0355  0.0947
    1DIPC   D2A26790  15.761  26.166   3.989  0.0276 -0.1209 -0.1002
    1DIPC   D3A26791  15.595  26.516   4.226 -0.0026  0.0245 -0.1052
    1DIPC   C4A26792  15.443  26.546   4.707 -0.0891  0.1397 -0.0733
    1DIPC   C1B26793  16.631  26.100   4.062 -0.1998  0.0602 -0.3689
    1DIPC   D2B26794  16.502  26.232   4.446  0.0570 -0.2468  0.1402
    1DIPC   D3B26795  16.541  26.594   4.741 -0.0968 -0.0386 -0.3506
    1DIPC   C4B26796  16.661  26.891   4.962 -0.1694 -0.2048  0.1347
    1DIPC   NC326797  19.703   1.682   3.444 -0.0403  0.0902  0.2260
    1DIPC   PO426798  19.489   1.353   3.686  0.2013  0.1314  0.1009
    1DIPC   GL126799  19.429   1.212   4.044  0.0350 -0.2591 -0.1098
    1DIPC   GL226800  19.776   1.306   4.143  0.0112  0.0379  0.0779
    1DIPC   C1A26801  19.247   1.127   4.473 -0.2681 -0.1238  0.2851
    1DIPC   D2A26802  19.301   1.224   4.963 -0.0028  0.2556  0.2277
    1DIPC   D3A26803  18.935   1.453   5.183  0.3805  0.1611 -0.1566
    1DIPC   C4A26804  18.714   1.642   4.811 -0.1058 -0.0783 -0.0037
    1DIPC   C1B26805  20.141   1.470   4.008  0.0216 -0.4693  0.0876
    1DIPC   D2B26806  20.580   1.394   4.012  0.0780 -0.1275  0.3187
    1DIPC   D3B26807  20.762   1.276   4.399 -0.1999 -0.0517  0.1705
    1DIPC   C4B26808  20.796   1.521   4.792 -0.0130 -0.1506 -0.0917
    1DIPC   NC326809  23.193  20.602   3.115  0.0308 -0.3080 -0.0763
    1DIPC   PO426810  23.313  20.904   3.448 -0.2259 -0.1431 -0.1245
    1DIPC   GL126811  23.109  20.898   3.779 -0.1341 -0.0094  0.1042
    1DIPC   GL226812  23.164  21.263   3.964  0.0991  0.2633  0.0305
    1DIPC   C1A26813  23.029  20.774   4.192 -0.1935 -0.1022  0.1019
    1DIPC   D2A26814  22.829  20.723   4.511  0.1209  0.3263  0.0921
    1DIPC   D3A26815  23.084  20.387   4.434  0.2659  0.1442 -0.4373
    1DIPC   C4A26816  23.281  20.309   4.883  0.0577  0.1229  0.0793
    1DIPC   C1B26817  22.932  21.220   4.350  0.1981  0.1209 -0.3095
    1DIPC   D2B26818  22.830  21.236   4.892  0.0662 -0.1896  0.3688
    1DIPC   D3B26819  22.516  21.449   5.107 -0.2098  0.3567  0.0804
    1DIPC   C4B26820  22.616  21.486   5.536 -0.0538 -0.0918  0.0483
    1DIPC   NC326821  13.486   4.547   2.492  0.1058 -0.0267 -0.1910
    1DIPC   PO426822  13.013   4.431   2.513  0.0227 -0.0117 -0.0343
    1DIPC   GL126823  13.256   4.591   2.961 -0.0835  0.0243  0.0512
    1DIPC   GL226824  13.566   4.435   2.977 -0.0213 -0.2021 -0.2153
    1DIPC   C1A26825  13.032   4.657   3.384 -0.1877 -0.2624 -0.1258
    1DIPC   D2A26826  12.615   4.581   3.611 -0.1517 -0.0300  0.3690
    1DIPC   D3A26827  12.316   4.897   3.687 -0.0392  0.1359 -0.0184
    1DIPC   C4A26828  12.203   5.042   4.097  0.1749 -0.0478  0.0975
    1DIPC   C1B26829  13.643   4.646   3.397 -0.5390 -0.3663 -0.0395
    1DIPC   D2B26830  13.822   4.854   3.801  0.2358 -0.0245  0.2068
    1DIPC   D3B26831  13.776   4.706   4.238  0.2290  0.0330  0.1065
    1DIPC   C4B26832  13.769   5.104   4.467 -0.0585 -0.2780 -0.0701
    1DIPC   NC326833   1.133  27.535   2.804  0.1584 -0.1622  0.0602
    1DIPC   PO426834   1.338  27.185   2.877 -0.0252 -0.1190  0.1683
    1DIPC   GL126835   1.283  27.003   3.273 -0.1169 -0.3254  0.4662
    1DIPC   GL226836   1.030  27.064   3.392  0.0142  0.0931  0.3256
    1DIPC   C1A26837   1.531  27.120   3.622 -0.1692  0.1446  0.0355
    1DIPC   D2A26838   1.817  27.485   3.649 -0.0327  0.1693  0.1540
    1DIPC   D3A26839   2.036  27.335   3.969 -0.0406  0.1206 -0.0055
    1DIPC   C4A26840   1.863  27.364   4.446 -0.1363  0.1132  0.1585
    1DIPC   C1B26841   1.005  27.374   3.697  0.2259  0.0768  0.2459
    1DIPC   D2B26842   0.833  27.339   4.042  0.3562  0.3811 -0.1359
    1DIPC   D3B26843   1.093  27.294   4.452 -0.0942 -0.2149 -0.1594
    1DIPC   C4B26844   1.413  27.465   4.051  0.0851  0.2404 -0.0011
    1DIPC   NC326845   7.219   1.481   2.256  0.2483  0.1278 -0.3148
    1DIPC   PO426846   7.390   1.757   2.464  0.2891 -0.2117  0.1759
    1DIPC   GL126847   7.356   1.558   2.821 -0.6275 -0.1236 -0.0634
    1DIPC   GL226848   7.518   1.293   2.909 -0.0255 -0.0765  0.1502
    1DIPC   C1A26849   7.190   1.396   3.269 -0.1749 -0.2673 -0.1327
    1DIPC   D2A26850   7.308   1.082   3.431  0.0654  0.0881  0.3049
    1DIPC   D3A26851   7.551   1.154   3.756  0.3572  0.3099 -0.0457
    1DIPC   C4A26852   7.502   1.357   4.146 -0.1916 -0.1008  0.2294
    1DIPC   C1B26853   7.790   0.927   3.029  0.0836 -0.0793  0.0767
    1DIPC   D2B26854   8.004   0.569   2.879 -0.1400 -0.2820  0.2143
    1DIPC   D3B26855   7.818   0.502   3.305  0.3532 -0.0675  0.1986
    1DIPC   C4B26856   7.851   0.233   3.470  0.0808  0.2152  0.0849
    1DIPC   NC326857   4.990  13.172   2.110 -0.0648 -0.1151 -0.0988
    1DIPC   PO426858   5.025  12.719   2.061  0.1964 -0.0996  0.0213
    1DIPC   GL126859   5.254  12.642   2.384 -0.0562  0.1304 -0.0198
    1DIPC   GL226860   5.611  12.533   2.272  0.2001 -0.0873 -0.1429
    1DIPC   C1A26861   5.436  12.805   2.711  0.0425  0.0477 -0.2757
    1DIPC   D2A26862   5.499  13.082   3.023  0.1440 -0.0850 -0.1235
    1DIPC   D3A26863   5.490  12.922   3.440 -0.1047 -0.1638 -0.1083
    1DIPC   C4A26864   5.237  12.956   3.796 -0.1891  0.0386  0.1749
    1DIPC   C1B26865   5.486  12.172   2.393  0.0319  0.0480  0.0665
    1DIPC   D2B26866   5.655  11.864   2.671 -0.2888 -0.0091  0.1062
    1DIPC   D3B26867   5.792  12.130   2.943  0.0992  0.2054 -0.1005
    1DIPC   C4B26868   6.242  12.299   2.895 -0.0472 -0.0136 -0.1602
    1DIPC   NC326869  26.112  27.896   3.906  0.2602 -0.0036  0.1137
    1DIPC   PO426870  26.133  28.365   3.807 -0.0947 -0.0845 -0.1205
    1DIPC   GL126871  26.010  28.311   4.222 -0.1270  0.4054  0.0729
    1DIPC   GL226872  25.708  28.231   4.205  0.0778 -0.4078  0.1726
    1DIPC   C1A26873  26.109  28.125   4.609 -0.2519  0.1454 -0.2956
    1DIPC   D2A26874  26.314  28.220   5.027 -0.1825 -0.0415 -0.1173
    1DIPC   D3A26875  26.090  27.815   5.249 -0.1846  0.4180 -0.0145
    1DIPC   C4A26876  25.949  27.496   5.479  0.0674  0.0203 -0.0178
    1DIPC   C1B26877  25.593  28.391   4.558 -0.1029 -0.0849  0.0264
    1DIPC   D2B26878  25.312  28.179   4.864  0.1478  0.0329 -0.1227
    1DIPC   D3B26879  25.369  28.630   4.987 -0.0853 -0.2437  0.2670
    1DIPC   C4B26880  25.422  28.871   4.634 -0.0873  0.0046  0.0497
    1DIPC   NC326881  25.939  15.625   2.571  0.3231 -0.1858 -0.0226
    1DIPC   PO426882  26.058  16.034   2.532  0.1081  0.1815  0.1685
    1DIPC   GL126883  26.209  15.933   2.970  0.1177  0.0700 -0.0916
    1DIPC   GL226884  25.892  15.813   3.054 -0.0613 -0.0575 -0.1761
    1DIPC   C1A26885  26.599  15.929   3.173 -0.0232 -0.0879  0.0525
    1DIPC   D2A26886  27.118  16.065   3.283 -0.2702 -0.0870 -0.0745
    1DIPC   D3A26887  27.306  15.677   3.230  0.1761  0.1384  0.2689
    1DIPC   C4A26888  27.281  15.450   3.520 -0.1247  0.1537  0.2155
    1DIPC   C1B26889  26.212  15.666   3.453  0.2269 -0.0280 -0.0871
    1DIPC   D2B26890  26.417  15.494   3.873 -0.0740 -0.0295  0.0664
    1DIPC   D3B26891  26.709  15.792   4.130  0.0250  0.2553  0.1809
    1DIPC   C4B26892  26.676  15.867   4.507 -0.0761  0.0664 -0.0469
    1DIPC   NC326893   5.889  15.299   1.787 -0.0357 -0.1105  0.3808
    1DIPC   PO426894   5.661  15.446   2.109  0.0871  0.1357 -0.2925
    1DIPC   GL126895   5.442  15.483   2.514  0.1721  0.1217 -0.0599
    1DIPC   GL226896   5.612  15.743   2.691  0.0442  0.3606 -0.2518
    1DIPC   C1A26897   5.327  15.205   2.820  0.0492 -0.0250  0.2146
    1DIPC   D2A26898   4.870  15.181   2.826 -0.0164  0.0459 -0.1632
    1DIPC   D3A26899   4.662  14.781   2.962 -0.4556 -0.3368 -0.0497
    1DIPC   C4A26900   4.682  14.526   3.290 -0.2325  0.0049  0.2029
    1DIPC   C1B26901   5.280  15.673   3.078 -0.1537 -0.2147  0.0756
    1DIPC   D2B26902   4.933  15.422   3.249  0.1843  0.0179  0.2772
    1DIPC   D3B26903   5.239  15.412   3.615  0.0588  0.1402 -0.1563
    1DIPC   C4B26904   5.276  14.959   3.806 -0.2026 -0.1626 -0.3449
    1DIPC   NC326905   1.550  20.225   3.643  0.2769  0.0601 -0.0914
    1DIPC   PO426906   1.646  20.517   3.873 -0.1218  0.3386  0.1688
    1DIPC   GL126907   1.503  20.514   4.252 -0.3185 -0.0023 -0.2921
    1DIPC   GL226908   1.209  20.766   4.364  0.1159  0.1080 -0.0152
    1DIPC   C1A26909   1.241  20.271   4.594  0.2128  0.1820  0.1908
    1DIPC   D2A26910   0.969  20.316   4.874  0.1567 -0.0890  0.3048
    1DIPC   D3A26911   1.054  20.224   5.220  0.3879 -0.0705  0.0743
    1DIPC   C4A26912   1.402  20.329   5.498 -0.0100 -0.0287  0.2220
    1DIPC   C1B26913   0.907  20.781   4.671  0.2385 -0.1291 -0.0640
    1DIPC   D2B26914   0.591  21.069   4.929 -0.0846  0.0861  0.0058
    1DIPC   D3B26915   0.747  20.768   5.152 -0.0694 -0.0663  0.3341
    1DIPC   C4B26916   1.006  20.628   5.486  0.0535  0.0860  0.0323
    1DIPC   NC326917   5.574   3.180   2.852 -0.2060  0.2109 -0.4643
    1DIPC   PO426918   5.205   3.207   2.752 -0.2215  0.0716  0.3296
    1DIPC   GL126919   5.107   3.311   3.092 -0.3196  0.2109  0.2280
    1DIPC   GL226920   4.849   3.219   3.270  0.1730  0.0825 -0.2694
    1DIPC   C1A26921   5.254   3.173   3.474  0.0446  0.3369 -0.1809
    1DIPC   D2A26922   5.200   2.994   3.885 -0.1096 -0.1691  0.0373
    1DIPC   D3A26923   4.874   2.804   4.002 -0.0659 -0.1048  0.0913
    1DIPC   C4A26924   4.805   2.599   4.391 -0.1661  0.2538  0.1150
    1DIPC   C1B26925   4.784   3.285   3.755 -0.5470  0.1738  0.0963
    1DIPC   D2B26926   4.635   3.390   4.138 -0.2179  0.2603  0.0529
    1DIPC   D3B26927   4.672   3.121   4.348  0.3740 -0.3486 -0.1336
    1DIPC   C4B26928   4.565   2.954   4.710  0.1683 -0.3901 -0.0071
    1DIPC   NC326929  12.108   8.772   3.062 -0.2241  0.0535 -0.0238
    1DIPC   PO426930  12.557   8.748   3.043 -0.2222  0.2572  0.0001
    1DIPC   GL126931  12.825   8.826   3.425 -0.1562 -0.1177 -0.0077
    1DIPC   GL226932  13.124   8.923   3.346  0.0429 -0.2461  0.0179
    1DIPC   C1A26933  12.737   9.054   3.798 -0.0668  0.2262  0.3725
    1DIPC   D2A26934  12.505   9.288   4.177 -0.0438 -0.3290 -0.2680
    1DIPC   D3A26935  12.629   9.065   4.594 -0.0729  0.2448 -0.3599
    1DIPC   C4A26936  12.976   8.725   4.549  0.2633  0.0154  0.0769
    1DIPC   C1B26937  13.228   8.801   3.777 -0.0689 -0.1818  0.0194
    1DIPC   D2B26938  13.534   8.899   4.132  0.1173 -0.2908 -0.2784
    1DIPC   D3B26939  13.448   8.755   4.420  0.0289  0.0668  0.2317
    1DIPC   C4B26940  13.237   8.377   4.229  0.3497  0.0711 -0.1330
    1DIPC   NC326941   8.109  18.830   2.378 -0.0357  0.2913 -0.0739
    1DIPC   PO426942   8.507  18.863   2.624 -0.0238  0.0027 -0.1496
    1DIPC   GL126943   8.298  18.764   2.943 -0.3311 -0.0903  0.1007
    1DIPC   GL226944   8.567  18.627   3.165  0.3632  0.0432  0.2007
    1DIPC   C1A26945   8.086  18.753   3.369  0.1379  0.4328  0.2277
    1DIPC   D2A26946   7.880  18.705   3.784  0.3047  0.2695 -0.0932
    1DIPC   D3A26947   7.633  18.901   4.008  0.0165  0.1649 -0.0982
    1DIPC   C4A26948   7.674  18.892   4.489  0.1348  0.1574 -0.3371
    1DIPC   C1B26949   8.649  18.426   3.555  0.0082  0.4386 -0.3136
    1DIPC   D2B26950   8.636  18.452   4.044 -0.1223 -0.0492 -0.0591
    1DIPC   D3B26951   8.320  18.498   3.956 -0.4699  0.0919  0.0259
    1DIPC   C4B26952   8.097  18.633   4.234 -0.3250 -0.1779 -0.0585
    1DIPC   NC326953   0.004   3.616   1.618 -0.2902 -0.2343  0.3083
    1DIPC   PO426954   0.166   3.922   1.906 -0.0280 -0.3176 -0.0678
    1DIPC   GL126955   0.004   4.072   2.343 -0.1469  0.1734  0.2104
    1DIPC   GL226956  29.516   4.440   2.478  0.1491  0.0638  0.0708
    1DIPC   C1A26957  29.597   4.113   2.845  0.1032 -0.0933  0.0803
    1DIPC   D2A26958   0.205   4.520   3.087  0.2826  0.1301  0.3532
    1DIPC   D3A26959   0.471   4.552   3.423  0.2758  0.0084 -0.3059
    1DIPC   C4A26960   0.902   4.296   3.368 -0.0571  0.4390 -0.1166
    1DIPC   C1B26961  29.368   4.591   2.794 -0.0140  0.0965 -0.2379
    1DIPC   D2B26962  29.200   4.924   3.139  0.2141  0.0399 -0.1311
    1DIPC   D3B26963  29.308   4.853   3.511  0.2191 -0.1893 -0.1825
    1DIPC   C4B26964   0.128   4.996   3.711  0.1844  0.2632  0.1468
    1DIPC   NC326965  26.564  28.459   3.494  0.1993  0.0999  0.3103
    1DIPC   PO426966  26.618  28.252   3.937 -0.3356  0.2952 -0.1114
    1DIPC   GL126967  26.645  28.375   4.278 -0.3459 -0.2803 -0.3205
    1DIPC   GL226968  26.519  28.529   4.362 -0.1265 -0.1820  0.0477
    1DIPC   C1A26969  26.787  28.311   4.668 -0.0435 -0.3435  0.0362
    1DIPC   D2A26970  27.071  28.345   4.835 -0.1583  0.2626 -0.0788
    1DIPC   D3A26971  27.114  28.390   5.208 -0.0483  0.1532 -0.0323
    1DIPC   C4A26972  26.681  28.494   5.467 -0.0124 -0.2273  0.1718
    1DIPC   C1B26973  26.409  28.689   4.758 -0.1067 -0.1256 -0.0316
    1DIPC   D2B26974  26.422  28.796   5.162  0.3213  0.0671  0.0095
    1DIPC   D3B26975  26.842  28.763   5.047 -0.1036 -0.1433  0.1894
    1DIPC   C4B26976  27.020  28.855   5.440  0.0721  0.0524 -0.0368
    1DIPC   NC326977  14.965  13.973   2.724 -0.1591 -0.2042 -0.3484
    1DIPC   PO426978  15.162  14.320   2.573 -0.0751  0.0760 -0.0012
    1DIPC   GL126979  15.101  14.422   2.993  0.1920 -0.0303  0.0123
    1DIPC   GL226980  15.303  14.373   3.211 -0.1264  0.1978  0.0131
    1DIPC   C1A26981  14.929  14.528   3.420 -0.0492 -0.0773  0.1853
    1DIPC   D2A26982  14.662  14.436   3.763  0.1100 -0.0154 -0.0307
    1DIPC   D3A26983  14.918  14.697   4.074 -0.3888  0.0523  0.1190
    1DIPC   C4A26984  15.292  14.522   4.262 -0.2539 -0.1636  0.0166
    1DIPC   C1B26985  15.555  14.069   3.485  0.0392 -0.3455 -0.1788
    1DIPC   D2B26986  15.882  13.943   3.764 -0.0583 -0.1045  0.2724
    1DIPC   D3B26987  15.511  14.210   3.990  0.1148 -0.0820 -0.1736
    1DIPC   C4B26988  15.247  14.459   3.750  0.0044  0.1530  0.1471
    1DIPC   NC326989   9.690  13.417   2.074 -0.0275  0.1601  0.0476
    1DIPC   PO426990   9.886  13.120   2.411  0.2362 -0.0898  0.2092
    1DIPC   GL126991   9.969  12.921   2.837 -0.3273  0.3152 -0.4174
    1DIPC   GL226992  10.340  13.005   3.078  0.1484  0.1753 -0.0315
    1DIPC   C1A26993  10.030  12.600   2.921 -0.2163  0.3209  0.3549
    1DIPC   D2A26994  10.100  12.425   3.306 -0.0110 -0.1781 -0.1847
    1DIPC   D3A26995  10.029  12.560   3.670  0.1035  0.1904 -0.1817
    1DIPC   C4A26996  10.010  12.475   4.153  0.2400  0.1956  0.0169
    1DIPC   C1B26997  10.011  13.271   3.291 -0.0279  0.0066 -0.1195
    1DIPC   D2B26998   9.961  13.395   3.674 -0.2339 -0.2505 -0.2126
    1DIPC   D3B26999  10.095  13.357   4.101 -0.3874  0.1570  0.1511
    1DIPC   C4B27000   9.915  13.517   4.526 -0.1677  0.2643 -0.0674
    1DIPC   NC327001  16.585   8.131   2.055  0.1688  0.0285  0.2635
    1DIPC   PO427002  16.313   8.212   2.563  0.0018  0.2796 -0.0441
    1DIPC   GL127003  16.266   8.395   2.863  0.0207 -0.2161  0.1999
    1DIPC   GL227004  16.024   8.164   2.959  0.2230 -0.0341  0.0863
    1DIPC   C1A27005  16.376   8.705   3.106  0.1398 -0.0666  0.1628
    1DIPC   D2A27006  16.478   8.980   3.496  0.0077  0.1853  0.1747
    1DIPC   D3A27007  16.227   9.029   3.934  0.4597 -0.1721 -0.0241
    1DIPC   C4A27008  16.082   9.465   3.971  0.1830 -0.0676 -0.0937
    1DIPC   C1B27009  15.867   8.507   3.148  0.0181 -0.3132  0.1732
    1DIPC   D2B27010  15.468   8.656   3.304  0.2429 -0.0399 -0.2291
    1DIPC   D3B27011  15.741   8.786   3.618 -0.0153  0.0054  0.2236
    1DIPC   C4B27012  16.113   8.689   3.545  0.1969 -0.0681 -0.2049
    1DIPC   NC327013   8.979  26.050   2.761  0.0546  0.0106 -0.1115
    1DIPC   PO427014   9.478  26.050   2.622 -0.2106  0.1794  0.3663
    1DIPC   GL127015   9.562  25.896   2.987  0.2771  0.4915  0.2553
    1DIPC   GL227016   9.811  25.814   3.134  0.0311 -0.1887  0.2743
    1DIPC   C1A27017   9.640  26.167   3.433  0.3007 -0.4918 -0.2717
    1DIPC   D2A27018   9.654  26.382   3.798 -0.0136 -0.0645 -0.2196
    1DIPC   D3A27019   9.924  26.173   4.237 -0.0398  0.0188 -0.0991
    1DIPC   C4A27020  10.135  26.319   4.641 -0.2370  0.2050  0.0586
    1DIPC   C1B27021   9.626  25.675   3.442 -0.3058  0.3571  0.0179
    1DIPC   D2B27022   9.163  25.576   3.473 -0.0133  0.2664  0.1258
    1DIPC   D3B27023   9.159  25.832   3.800 -0.2392 -0.2800 -0.1765
    1DIPC   C4B27024   9.454  25.989   4.081 -0.5831  0.2261  0.0970
    1DIPC   NC327025   9.512   5.499   2.206 -0.0284  0.0731  0.0612
    1DIPC   PO427026   9.952   5.522   2.324  0.4077 -0.0681 -0.0845
    1DIPC   GL127027   9.979   5.490   2.774  0.2298 -0.0357 -0.1674
    1DIPC   GL227028   9.903   5.180   2.921  0.1252 -0.0279 -0.0261
    1DIPC   C1A27029  10.114   5.718   3.169  0.0477 -0.0090  0.1167
    1DIPC   D2A27030  10.247   6.010   3.411  0.0897 -0.3380  0.1441
    1DIPC   D3A27031  10.755   6.097   3.338 -0.4661 -0.0653  0.2219
    1DIPC   C4A27032  10.996   6.106   2.908  0.0631  0.0292  0.2192
    1DIPC   C1B27033   9.858   5.311   3.294  0.0054 -0.0921  0.0661
    1DIPC   D2B27034  10.152   5.476   3.664 -0.0965 -0.0062  0.1333
    1DIPC   D3B27035  10.125   5.832   3.854  0.2923 -0.0095 -0.0106
    1DIPC   C4B27036  10.216   5.820   4.386 -0.1054 -0.0589  0.0840
    1DIPC   NC327037   6.900   1.849   2.801  0.1545 -0.0120  0.2330
    1DIPC   PO427038   6.918   1.362   2.666  0.0978 -0.0359 -0.0251
    1DIPC   GL127039   6.694   1.368   3.062  0.1764  0.0298  0.0343
    1DIPC   GL227040   6.612   1.753   3.227  0.0043  0.0344  0.1345
    1DIPC   C1A27041   6.702   1.255   3.410 -0.0131  0.0764 -0.0310
    1DIPC   D2A27042   6.929   1.261   3.717  0.1773  0.1766  0.0838
    1DIPC   D3A27043   7.114   0.951   3.922  0.0192 -0.0118 -0.2488
    1DIPC   C4A27044   6.965   0.961   4.420 -0.0100 -0.0122  0.3070
    1DIPC   C1B27045   6.422   1.623   3.664 -0.1094 -0.2142 -0.0514
    1DIPC   D2B27046   6.448   1.900   3.933  0.0123 -0.1616 -0.2094
    1DIPC   D3B27047   6.831   1.762   4.193 -0.1069  0.2506 -0.1003
    1DIPC   C4B27048   7.141   1.388   4.430 -0.0013  0.0221 -0.0962
    1DIPC   NC327049  12.133  15.644   2.398  0.1761 -0.0199  0.1290
    1DIPC   PO427050  12.332  15.999   2.559  0.1074  0.1986  0.4970
    1DIPC   GL127051  12.330  15.845   2.921 -0.1081 -0.0335  0.0582
    1DIPC   GL227052  12.183  15.800   3.268  0.1603  0.0841 -0.1368
    1DIPC   C1A27053  12.666  15.628   3.151 -0.0750  0.0163 -0.1839
    1DIPC   D2A27054  12.622  15.243   3.254  0.1199 -0.0290 -0.1544
    1DIPC   D3A27055  12.735  15.145   3.655 -0.2023 -0.0259  0.0254
    1DIPC   C4A27056  12.548  14.982   4.043  0.0089  0.0001  0.0766
    1DIPC   C1B27057  12.488  15.795   3.595 -0.3119 -0.0750  0.0421
    1DIPC   D2B27058  12.530  15.981   3.940  0.0119  0.4338  0.1782
    1DIPC   D3B27059  12.577  16.057   4.384  0.1386 -0.3882  0.3906
    1DIPC   C4B27060  12.533  16.418   4.521 -0.3063 -0.1720  0.1039
    1DIPC   NC327061  19.571  21.328   3.684 -0.1853 -0.1495 -0.1226
    1DIPC   PO427062  19.941  21.644   3.677  0.1961  0.0139  0.0273
    1DIPC   GL127063  19.829  21.488   4.068 -0.1926 -0.0591  0.0583
    1DIPC   GL227064  20.189  21.473   4.114  0.1094  0.1225 -0.0825
    1DIPC   C1A27065  19.838  21.153   4.298 -0.1381 -0.1617  0.1263
    1DIPC   D2A27066  19.603  21.039   4.727 -0.1516 -0.1649 -0.0074
    1DIPC   D3A27067  19.169  21.075   4.844  0.1649  0.0979 -0.2469
    1DIPC   C4A27068  18.758  21.125   4.896 -0.1268  0.1156 -0.1114
    1DIPC   C1B27069  20.565  21.652   4.350  0.0805 -0.1230  0.1387
    1DIPC   D2B27070  20.585  21.842   4.599 -0.3437  0.1940 -0.3195
    1DIPC   D3B27071  20.433  21.448   4.877 -0.1458 -0.2018  0.1744
    1DIPC   C4B27072  20.251  20.936   4.867  0.0802  0.2304  0.0588
    1DIPC   NC327073   6.204  28.102   2.276  0.0029 -0.0266  0.0040
    1DIPC   PO427074   5.994  27.823   2.522  0.2895 -0.1636  0.1892
    1DIPC   GL127075   6.296  27.953   2.861 -0.0637  0.3043  0.0111
    1DIPC   GL227076   6.082  28.203   3.024  0.0425 -0.2202  0.1754
    1DIPC   C1A27077   6.498  27.869   3.301 -0.0866 -0.4161 -0.0397
    1DIPC   D2A27078   6.360  27.872   3.749 -0.0107  0.0830 -0.2182
    1DIPC   D3A27079   6.430  28.179   4.125  0.2160 -0.0255  0.3839
    1DIPC   C4A27080   6.784  28.353   4.241  0.0548 -0.2187 -0.1330
    1DIPC   C1B27081   6.249  28.424   3.251 -0.2510  0.0666 -0.0343
    1DIPC   D2B27082   6.536  28.355   3.625  0.0134 -0.0561  0.0085
    1DIPC   D3B27083   6.409  28.646   4.071 -0.2634  0.0631  0.2598
    1DIPC   C4B27084   6.063  28.749   4.295 -0.0207 -0.0414  0.4559
    1DIPC   NC327085   9.140  27.886   2.541  0.1143  0.1397 -0.0167
    1DIPC   PO427086   8.786  27.734   2.694 -0.0777  0.1629  0.0904
    1DIPC   GL127087   8.771  27.758   3.094  0.1936 -0.2430 -0.1909
    1DIPC   GL227088   8.744  27.542   3.157 -0.2887 -0.2522 -0.0658
    1DIPC   C1A27089   9.124  27.721   3.443 -0.1462 -0.0834  0.0524
    1DIPC   D2A27090   9.572  27.836   3.766  0.1063  0.0427  0.3925
    1DIPC   D3A27091   9.727  27.903   4.177 -0.0486 -0.2294  0.2066
    1DIPC   C4A27092   9.627  27.919   4.671 -0.1369  0.2191  0.0369
    1DIPC   C1B27093   8.585  27.888   3.511 -0.1539  0.1925 -0.0715
    1DIPC   D2B27094   8.542  28.265   3.702 -0.1117 -0.2642  0.0567
    1DIPC   D3B27095   8.333  28.295   4.149  0.0558  0.4286  0.3355
    1DIPC   C4B27096   8.135  28.679   4.226 -0.0624 -0.1429 -0.1026
    1DIPC   NC327097   7.294  24.723   2.414 -0.5181 -0.2220 -0.3133
    1DIPC   PO427098   7.671  24.750   2.716  0.0881  0.0593  0.0875
    1DIPC   GL127099   7.693  24.698   3.164  0.1274 -0.0194 -0.0058
    1DIPC   GL227100   7.757  24.411   3.206 -0.2393 -0.0620  0.0612
    1DIPC   C1A27101   7.661  24.657   3.637  0.0484  0.2710  0.1370
    1DIPC   D2A27102   7.769  24.738   4.077  0.1705 -0.0571 -0.0092
    1DIPC   D3A27103   7.858  24.362   4.305  0.0141  0.1684  0.0216
    1DIPC   C4A27104   8.255  24.351   4.675 -0.2674  0.0376 -0.2087
    1DIPC   C1B27105   7.668  24.109   3.553  0.1899 -0.1955  0.0055
    1DIPC   D2B27106   7.593  24.146   3.882 -0.2917 -0.0655  0.3387
    1DIPC   D3B27107   7.704  23.824   4.275  0.0005  0.1737  0.3138
    1DIPC   C4B27108   7.697  23.451   3.987 -0.0146 -0.0170  0.0051
    1DIPC   NC327109  21.803  27.872   3.586 -0.0993 -0.0356 -0.0719
    1DIPC   PO427110  21.484  27.580   3.602  0.3092 -0.1289  0.1914
    1DIPC   GL127111  21.676  27.603   3.990 -0.0633  0.1013  0.3014
    1DIPC   GL227112  21.863  27.326   4.142 -0.0207 -0.1704  0.1905
    1DIPC   C1A27113  21.556  27.850   4.361  0.2904  0.0027  0.1515
    1DIPC   D2A27114  21.404  27.771   4.879  0.0256  0.1697  0.0613
    1DIPC   D3A27115  21.097  27.592   5.140  0.0799  0.1679 -0.1489
    1DIPC   C4A27116  21.273  27.221   5.429  0.0445 -0.1424 -0.0763
    1DIPC   C1B27117  21.770  27.501   4.630 -0.0343  0.1446 -0.0705
    1DIPC   D2B27118  22.220  27.514   4.796 -0.0068 -0.0929 -0.0029
    1DIPC   D3B27119  22.304  27.427   5.120  0.1896  0.2750  0.1474
    1DIPC   C4B27120  22.135  27.058   5.235  0.3155  0.0150 -0.0724
    1DIPC   NC327121   9.126  22.636   2.320 -0.0101  0.1887  0.2585
    1DIPC   PO427122   8.939  22.858   2.514  0.2244  0.3834 -0.2356
    1DIPC   GL127123   8.958  22.857   2.995 -0.2380 -0.1265 -0.1181
    1DIPC   GL227124   8.955  23.141   3.124  0.0136  0.1619  0.1585
    1DIPC   C1A27125   9.031  22.749   3.403 -0.0075 -0.3253 -0.1820
    1DIPC   D2A27126   9.264  22.715   3.612 -0.0426 -0.0615  0.2386
    1DIPC   D3A27127   9.163  22.456   3.901  0.2150  0.1603 -0.0871
    1DIPC   C4A27128   9.427  22.405   4.177  0.1207 -0.0135 -0.0766
    1DIPC   C1B27129   8.988  23.510   3.429  0.2438  0.1883  0.0533
    1DIPC   D2B27130   8.999  23.878   3.492 -0.2037 -0.1092  0.0462
    1DIPC   D3B27131   8.886  24.312   3.464  0.1880 -0.0026  0.1033
    1DIPC   C4B27132   8.954  24.524   3.826 -0.2211 -0.2889 -0.2134
    1DIPC   NC327133   2.491  22.412   3.635 -0.3391 -0.0740  0.1216
    1DIPC   PO427134   2.878  22.667   3.690  0.1050  0.0878  0.2201
    1DIPC   GL127135   2.888  22.896   4.154  0.0928  0.0897  0.3867
    1DIPC   GL227136   3.186  23.095   4.205  0.0116 -0.2298  0.3328
    1DIPC   C1A27137   2.745  23.183   4.568  0.2740  0.0416 -0.0091
    1DIPC   D2A27138   2.692  23.328   5.010  0.1755 -0.1498  0.2052
    1DIPC   D3A27139   2.302  23.565   4.874  0.2394  0.3006 -0.3339
    1DIPC   C4A27140   1.899  23.517   4.790 -0.0041 -0.4442  0.2104
    1DIPC   C1B27141   3.499  23.406   4.343 -0.0510  0.1678 -0.0136
    1DIPC   D2B27142   3.756  23.356   4.629  0.1151  0.0603  0.1014
    1DIPC   D3B27143   3.984  23.726   4.425  0.2797  0.0241  0.0487
    1DIPC   C4B27144   4.223  23.989   4.368 -0.3449  0.0532 -0.1995
    1DIPC   NC327145   6.028  26.396   2.287 -0.2336  0.2925  0.0469
    1DIPC   PO427146   5.933  26.296   2.771  0.0760  0.2431  0.2003
    1DIPC   GL127147   5.935  26.398   3.239 -0.0271  0.0563  0.2995
    1DIPC   GL227148   6.158  26.553   3.213 -0.1217 -0.0789 -0.1360
    1DIPC   C1A27149   6.028  26.587   3.669  0.0049  0.2050  0.1928
    1DIPC   D2A27150   6.067  26.434   4.063  0.0948 -0.1536  0.0337
    1DIPC   D3A27151   5.966  26.583   4.443 -0.2524 -0.2101  0.0086
    1DIPC   C4A27152   6.153  26.838   4.736  0.0210 -0.0795 -0.3044
    1DIPC   C1B27153   6.266  26.972   3.332  0.0663  0.1808  0.3144
    1DIPC   D2B27154   6.316  27.001   3.763  0.0904 -0.3089  0.1819
    1DIPC   D3B27155   6.701  27.190   3.894 -0.0987 -0.4000  0.2918
    1DIPC   C4B27156   7.052  26.891   4.134  0.3099 -0.0704  0.2666
    1DIPC   NC327157  13.697   3.047   2.672  0.0896  0.1200  0.1472
    1DIPC   PO427158  13.363   2.901   2.633  0.1384  0.2413 -0.1300
    1DIPC   GL127159  13.514   2.793   3.051  0.2278 -0.0555  0.1645
    1DIPC   GL227160  13.863   2.726   3.170 -0.0560 -0.1622  0.2401
    1DIPC   C1A27161  13.339   2.704   3.404 -0.0301  0.1675 -0.6963
    1DIPC   D2A27162  13.626   2.564   3.782  0.5700  0.1530 -0.0406
    1DIPC   D3A27163  13.523   2.588   4.197  0.2089  0.1039 -0.3509
    1DIPC   C4A27164  13.789   2.529   4.554 -0.3223 -0.2226 -0.0068
    1DIPC   C1B27165  13.742   3.003   3.594  0.0031 -0.2188 -0.0399
    1DIPC   D2B27166  13.838   2.991   3.947 -0.0039  0.1443 -0.0596
    1DIPC   D3B27167  14.078   2.804   4.190  0.3862 -0.0251 -0.2139
    1DIPC   C4B27168  14.502   2.893   4.363 -0.3745 -0.1358  0.1580
    1DIPC   NC327169  16.177  28.609   3.338  0.4331 -0.1732  0.3634
    1DIPC   PO427170  16.435  28.351   3.489  0.3964  0.2377 -0.0332
    1DIPC   GL127171  16.235  28.524   3.856  0.0417 -0.0159 -0.1607
    1DIPC   GL227172  16.125  28.879   3.860 -0.0098 -0.2511 -0.0308
    1DIPC   C1A27173  16.222  28.585   4.337  0.0014  0.0255  0.0767
    1DIPC   D2A27174  16.127  28.771   4.614 -0.1098  0.0446 -0.1495
    1DIPC   D3A27175  15.785  28.585   4.732 -0.1068  0.2889 -0.2147
    1DIPC   C4A27176  15.850  28.221   5.009  0.0931  0.1324  0.0666
    1DIPC   C1B27177  16.084  29.202   4.266  0.3232  0.2087  0.1842
    1DIPC   D2B27178  16.046  29.254   4.625  0.0271  0.0588  0.2722
    1DIPC   D3B27179  16.333  29.317   4.897 -0.0770  0.1289 -0.1248
    1DIPC   C4B27180  16.433  29.431   5.384 -0.0438 -0.0592  0.0326
    1DIPC   NC327181  14.358  12.001   2.264  0.1666 -0.0872 -0.1271
    1DIPC   PO427182  14.693  12.006   2.554 -0.4279 -0.3165 -0.0369
    1DIPC   GL127183  14.498  12.006   2.941 -0.0824  0.0860 -0.0088
    1DIPC   GL227184  14.731  11.828   3.108 -0.0850  0.0950 -0.0305
    1DIPC   C1A27185  14.344  12.205   3.369 -0.1028 -0.0279 -0.0551
    1DIPC   D2A27186  14.584  12.432   3.664 -0.1173  0.0940  0.2021
    1DIPC   D3A27187  14.353  12.193   3.930  0.1055 -0.0858 -0.1919
    1DIPC   C4A27188  14.225  11.756   4.132  0.0030  0.0442 -0.0601
    1DIPC   C1B27189  14.744  11.921   3.511 -0.2129  0.1259 -0.2991
    1DIPC   D2B27190  14.943  11.977   3.881  0.0090 -0.1763 -0.0735
    1DIPC   D3B27191  14.743  11.659   4.091  0.3447  0.1034 -0.0016
    1DIPC   C4B27192  14.906  11.589   4.414  0.1484  0.0852 -0.0171
    1DIPC   NC327193  15.856   4.758   2.508  0.1097 -0.2396 -0.0633
    1DIPC   PO427194  15.588   5.194   2.658  0.0096  0.0512  0.0960
    1DIPC   GL127195  15.344   5.070   3.052 -0.0141  0.0913 -0.0133
    1DIPC   GL227196  15.153   5.410   3.201 -0.0399  0.3172 -0.0292
    1DIPC   C1A27197  15.247   4.788   3.471 -0.0114 -0.1499  0.1067
    1DIPC   D2A27198  14.979   4.588   3.662  0.0268 -0.2726 -0.0152
    1DIPC   D3A27199  14.789   4.716   4.118  0.1181 -0.0936 -0.1755
    1DIPC   C4A27200  14.626   4.448   4.423  0.0664 -0.4259  0.0535
    1DIPC   C1B27201  15.029   5.672   3.615 -0.2057 -0.0677  0.1494
    1DIPC   D2B27202  14.861   5.684   4.050  0.2211  0.2763  0.2481
    1DIPC   D3B27203  14.706   6.039   4.260 -0.1123  0.0384 -0.1229
    1DIPC   C4B27204  14.712   5.926   4.710 -0.0530 -0.5892  0.0065
    1DIPC   NC327205   8.465  20.214   2.499  0.5839 -0.3491 -0.1981
    1DIPC   PO427206   8.810  20.008   2.820  0.0838 -0.0109  0.3028
    1DIPC   GL127207   8.880  20.062   3.218  0.2148 -0.2194  0.0596
    1DIPC   GL227208   9.174  19.860   3.297 -0.1104  0.0194  0.1481
    1DIPC   C1A27209   9.072  20.183   3.736  0.1064 -0.1861  0.1598
    1DIPC   D2A27210   9.262  20.500   3.894  0.3409 -0.2105  0.1997
    1DIPC   D3A27211   9.097  20.737   4.285 -0.0927  0.2028  0.1461
    1DIPC   C4A27212   9.300  20.851   4.562  0.0369 -0.1854 -0.3418
    1DIPC   C1B27213   9.504  19.937   3.599  0.1091  0.1548  0.0605
    1DIPC   D2B27214   9.405  19.973   4.115  0.2166  0.2484 -0.0068
    1DIPC   D3B27215   9.463  20.367   4.362 -0.0844  0.6995  0.3720
    1DIPC   C4B27216   9.665  20.651   4.190 -0.0507 -0.0419  0.0470
    1DIPC   NC327217  10.544  16.215   2.662 -0.1578  0.1751 -0.2466
    1DIPC   PO427218  10.638  15.786   2.528 -0.0259 -0.3337 -0.2442
    1DIPC   GL127219  10.855  15.755   2.832 -0.0451 -0.0806 -0.4085
    1DIPC   GL227220  10.756  16.063   3.074 -0.2063 -0.1313  0.0528
    1DIPC   C1A27221  11.022  15.509   3.130  0.0032  0.1397  0.2179
    1DIPC   D2A27222  10.839  15.199   3.422 -0.2500  0.1628  0.1258
    1DIPC   D3A27223  10.931  15.307   3.838  0.1859 -0.1967  0.0486
    1DIPC   C4A27224  10.776  15.581   4.079 -0.3820 -0.0671 -0.1088
    1DIPC   C1B27225  11.122  15.975   3.396 -0.0873  0.1426  0.0004
    1DIPC   D2B27226  11.205  16.379   3.724 -0.0523 -0.1424 -0.1530
    1DIPC   D3B27227  11.022  16.043   3.936 -0.0047  0.0632  0.0922
    1DIPC   C4B27228  10.808  16.114   4.285 -0.1289  0.1962 -0.2544
    1DIPC   NC327229   4.472  28.684   2.284  0.0059 -0.0480 -0.1673
    1DIPC   PO427230   4.602  29.064   2.586  0.0886  0.0204 -0.1565
    1DIPC   GL127231   4.814  29.346   2.908  0.2396  0.0398  0.1030
    1DIPC   GL227232   4.495  29.569   3.042  0.1057 -0.1849  0.0865
    1DIPC   C1A27233   5.078   0.050   3.267  0.0373  0.0999  0.1397
    1DIPC   D2A27234   5.047   0.194   3.628  0.1128  0.0753  0.0640
    1DIPC   D3A27235   4.733   0.380   3.772  0.1009 -0.1147 -0.0490
    1DIPC   C4A27236   4.565   0.189   4.205  0.0741 -0.0468  0.1602
    1DIPC   C1B27237   4.550   0.290   3.372 -0.0395 -0.1861 -0.0025
    1DIPC   D2B27238   4.754   0.717   3.455  0.2113  0.2726  0.0758
    1DIPC   D3B27239   4.562   0.937   3.812 -0.1575  0.1717 -0.1430
    1DIPC   C4B27240   4.500   0.692   4.161 -0.0090 -0.3859 -0.2313
    1DIPC   NC327241  28.605   1.752   2.649 -0.1677 -0.1373 -0.0149
    1DIPC   PO427242  28.894   2.092   2.509 -0.0198 -0.0032  0.1053
    1DIPC   GL127243  28.788   2.462   2.727  0.0871 -0.1986  0.0501
    1DIPC   GL227244  28.480   2.415   2.945  0.3032  0.0951  0.1389
    1DIPC   C1A27245  28.903   2.730   2.940 -0.2379  0.1435 -0.1648
    1DIPC   D2A27246  29.317   2.980   3.079  0.3740  0.2016  0.1502
    1DIPC   D3A27247  29.304   3.316   3.297 -0.3610  0.1539 -0.1141
    1DIPC   C4A27248  29.232   3.093   3.731 -0.0474  0.2633  0.3916
    1DIPC   C1B27249  28.244   2.548   3.285  0.0945 -0.1294 -0.2866
    1DIPC   D2B27250  27.883   2.864   3.226  0.2710 -0.2708 -0.0720
    1DIPC   D3B27251  27.811   2.765   3.711  0.2309 -0.2334 -0.1622
    1DIPC   C4B27252  27.692   2.648   4.092 -0.0892  0.0905 -0.2077
    1DIPC   NC327253  28.768  28.662   3.297  0.0749  0.1766 -0.0127
    1DIPC   PO427254  28.429  28.455   3.505 -0.2989 -0.0725  0.0288
    1DIPC   GL127255  28.518  28.697   3.912  0.1261  0.2022  0.1954
    1DIPC   GL227256  28.297  28.542   4.129 -0.1450  0.5281  0.0680
    1DIPC   C1A27257  28.460  29.075   4.033 -0.1715 -0.2532 -0.0391
    1DIPC   D2A27258  28.253  29.394   3.862  0.0551  0.1782 -0.0245
    1DIPC   D3A27259  28.652  29.429   3.811  0.1492  0.0316  0.2409
    1DIPC   C4A27260  28.821   0.169   3.733  0.0268  0.0976 -0.0053
    1DIPC   C1B27261  28.419  28.377   4.506 -0.1407  0.4671 -0.3397
    1DIPC   D2B27262  28.500  27.927   4.670 -0.2176  0.0685  0.2443
    1DIPC   D3B27263  28.302  27.844   5.071 -0.1199  0.2545  0.1354
    1DIPC   C4B27264  28.009  28.195   5.175 -0.1355  0.0291 -0.0596
    1DIPC   NC327265   6.699  25.704   2.875  0.2271 -0.0914 -0.1852
    1DIPC   PO427266   6.798  25.251   2.976 -0.1816  0.3013  0.0409
    1DIPC   GL127267   6.743  25.190   3.373  0.1168  0.1358  0.3710
    1DIPC   GL227268   6.472  25.099   3.396 -0.1737 -0.0869  0.0499
    1DIPC   C1A27269   6.840  25.299   3.768  0.1663 -0.5093  0.1692
    1DIPC   D2A27270   6.858  25.362   4.216  0.1675  0.0527 -0.0079
    1DIPC   D3A27271   6.944  25.311   4.665  0.1361 -0.0341  0.1261
    1DIPC   C4A27272   7.075  25.090   5.003 -0.2073 -0.0134  0.1983
    1DIPC   C1B27273   6.189  25.228   3.756 -0.1910  0.3486 -0.0833
    1DIPC   D2B27274   6.367  25.424   4.167  0.2777  0.0857 -0.1739
    1DIPC   D3B27275   6.515  25.106   4.516 -0.0119 -0.3777 -0.1228
    1DIPC   C4B27276   6.229  25.096   4.687  0.1271 -0.2044 -0.0879
    1DIPC   NC327277   8.385  27.491   2.543 -0.1479  0.0543 -0.2177
    1DIPC   PO427278   8.454  27.830   2.344  0.1574  0.0959  0.1171
    1DIPC   GL127279   8.348  27.919   2.862 -0.3062  0.1188 -0.0358
    1DIPC   GL227280   8.241  27.820   3.109  0.0346 -0.1366 -0.1140
    1DIPC   C1A27281   8.332  28.269   3.220  0.1763 -0.0109  0.2129
    1DIPC   D2A27282   7.999  28.511   3.390 -0.2390  0.2359 -0.0270
    1DIPC   D3A27283   8.197  28.602   3.753  0.0972  0.1962  0.1426
    1DIPC   C4A27284   8.553  28.760   3.852  0.2060 -0.2372 -0.2005
    1DIPC   C1B27285   8.153  27.575   3.462 -0.2570  0.0151  0.0141
    1DIPC   D2B27286   8.130  27.236   3.527 -0.2066 -0.1197 -0.1149
    1DIPC   D3B27287   8.491  27.123   3.360  0.0420  0.0703 -0.2583
    1DIPC   C4B27288   8.762  26.669   3.464 -0.0370 -0.2190 -0.2263
    1DIPC   NC327289  23.049  26.154   3.364  0.0604  0.1601 -0.1078
    1DIPC   PO427290  23.360  26.473   3.576 -0.0857  0.0160 -0.0895
    1DIPC   GL127291  23.371  26.429   3.962  0.0794  0.0641 -0.1966
    1DIPC   GL227292  23.724  26.500   3.961 -0.1293  0.0019  0.1123
    1DIPC   C1A27293  23.311  26.297   4.375 -0.0162  0.1990  0.1170
    1DIPC   D2A27294  23.149  26.416   4.736  0.2454 -0.1570  0.2008
    1DIPC   D3A27295  22.886  26.616   5.070  0.1267 -0.1680  0.1850
    1DIPC   C4A27296  22.456  26.558   5.225  0.0265  0.0145  0.2127
    1DIPC   C1B27297  23.722  26.585   4.378  0.0756 -0.2172 -0.0730
    1DIPC   D2B27298  23.550  26.731   4.849 -0.0624  0.1625  0.0621
    1DIPC   D3B27299  23.813  26.940   5.215  0.1443  0.0435  0.0485
    1DIPC   C4B27300  24.163  27.260   5.121  0.3673  0.0195  0.0120
    1DIPC   NC327301   5.266  25.082   3.151 -0.1207 -0.1733 -0.1049
    1DIPC   PO427302   5.448  25.471   3.380 -0.2104  0.3799  0.1287
    1DIPC   GL127303   5.668  25.428   3.689  0.4467 -0.0791  0.1112
    1DIPC   GL227304   5.929  25.585   3.566  0.4114 -0.0656  0.1297
    1DIPC   C1A27305   5.725  25.390   4.098  0.2751 -0.1993 -0.0343
    1DIPC   D2A27306   5.387  25.426   4.313  0.2781 -0.1048 -0.0948
    1DIPC   D3A27307   5.164  25.345   3.986 -0.0244 -0.2120 -0.0203
    1DIPC   C4A27308   4.819  25.402   3.988 -0.2347  0.3133  0.2929
    1DIPC   C1B27309   6.398  25.682   3.730 -0.2372 -0.0554 -0.0819
    1DIPC   D2B27310   6.730  25.993   3.571 -0.0267 -0.0965 -0.0392
    1DIPC   D3B27311   6.622  26.308   3.185 -0.2196  0.1471  0.1325
    1DIPC   C4B27312   6.843  26.687   2.955  0.0570 -0.4397  0.3401
    1DIPC   NC327313  10.573  29.590   2.813 -0.4160 -0.0812  0.3312
    1DIPC   PO427314  11.023  29.517   2.837  0.0847  0.0022 -0.3031
    1DIPC   GL127315  10.789  29.548   3.247 -0.3650 -0.0620 -0.3722
    1DIPC   GL227316  10.497   0.023   3.319 -0.1435  0.0312  0.2646
    1DIPC   C1A27317  10.960   0.005   3.585  0.0379 -0.1390  0.2662
    1DIPC   D2A27318  10.788   0.112   3.972  0.2559 -0.3206 -0.1377
    1DIPC   D3A27319  10.336   0.098   4.114  0.2786  0.0751  0.0493
    1DIPC   C4A27320  10.395  29.476   4.417 -0.1121 -0.2171 -0.1924
    1DIPC   C1B27321  10.518   0.324   3.608  0.2205 -0.1823 -0.2455
    1DIPC   D2B27322  10.443   0.597   4.036  0.0208  0.0461 -0.2741
    1DIPC   D3B27323  10.760   0.875   4.222  0.1199  0.1162 -0.1399
    1DIPC   C4B27324  10.529   1.313   4.306  0.0855  0.0111 -0.2270
    1DIPC   NC327325  10.317   0.388   2.274 -0.2171 -0.1915 -0.0325
    1DIPC   PO427326   9.921   0.522   2.402  0.2256 -0.1007 -0.1929
    1DIPC   GL127327   9.515   0.801   2.648 -0.0421  0.3041 -0.1158
    1DIPC   GL227328   9.503   1.123   2.548 -0.3254  0.1252 -0.2860
    1DIPC   C1A27329   9.138   0.895   2.855 -0.0200 -0.1803 -0.0587
    1DIPC   D2A27330   8.713   1.102   3.018 -0.1150  0.1248 -0.3074
    1DIPC   D3A27331   8.757   0.856   3.477 -0.3531  0.1498 -0.0241
    1DIPC   C4A27332   8.683   0.362   3.447  0.0435 -0.0497 -0.0428
    1DIPC   C1B27333   9.595   1.380   2.940 -0.2714 -0.4810 -0.2631
    1DIPC   D2B27334   9.566   1.352   3.374  0.3048 -0.0881 -0.0099
    1DIPC   D3B27335   9.404   1.619   3.670  0.4324 -0.2128  0.0568
    1DIPC   C4B27336   9.355   1.541   4.213 -0.2148  0.0866  0.0664
    1DIPC   NC327337   4.581   9.054   1.965  0.2223 -0.2453 -0.1514
    1DIPC   PO427338   4.337   8.687   1.878  0.1438  0.1460  0.2447
    1DIPC   GL127339   4.144   8.876   2.249  0.5213  0.0017 -0.1502
    1DIPC   GL227340   3.930   8.576   2.301  0.0753 -0.2179 -0.3311
    1DIPC   C1A27341   3.758   9.048   2.615  0.4034 -0.1377 -0.0202
    1DIPC   D2A27342   3.506   9.149   3.012  0.0468 -0.4794  0.2877
    1DIPC   D3A27343   3.836   8.918   3.244  0.0696 -0.1276  0.0110
    1DIPC   C4A27344   3.928   8.561   3.562  0.1445 -0.2304 -0.0109
    1DIPC   C1B27345   4.002   8.633   2.774 -0.2596  0.1262  0.1270
    1DIPC   D2B27346   4.276   8.509   3.210  0.0383  0.1827  0.1014
    1DIPC   D3B27347   4.554   8.691   2.919 -0.1376 -0.0169  0.0411
    1DIPC   C4B27348   4.861   9.001   2.946  0.0498  0.0594 -0.0873
    1DIPC   NC327349  12.724   9.498   2.893  0.1301 -0.2462  0.0213
    1DIPC   PO427350  12.428   9.127   2.817  0.1055 -0.3883 -0.2696
    1DIPC   GL127351  12.385   9.194   3.252  0.0278  0.1532  0.0152
    1DIPC   GL227352  12.757   9.314   3.313  0.0511 -0.1093 -0.0378
    1DIPC   C1A27353  12.254   9.192   3.708  0.5842  0.1434  0.0631
    1DIPC   D2A27354  11.984   9.198   4.131  0.2232 -0.0972 -0.0617
    1DIPC   D3A27355  12.187   8.910   4.438  0.1038  0.2172 -0.1528
    1DIPC   C4A27356  12.573   8.764   4.167  0.0162 -0.0181  0.1636
    1DIPC   C1B27357  13.141   9.287   3.705  0.0438  0.1089  0.1016
    1DIPC   D2B27358  13.135   9.178   4.168 -0.0839  0.2280 -0.0197
    1DIPC   D3B27359  13.022   9.594   4.211  0.2759 -0.1557 -0.1798
    1DIPC   C4B27360  12.708   9.722   4.514 -0.0656 -0.1088  0.2053
    1DIPC   NC327361  29.167  23.375   3.120 -0.0721 -0.0044  0.2664
    1DIPC   PO427362  29.049  22.965   3.305 -0.3308  0.1964  0.0178
    1DIPC   GL127363  28.997  23.108   3.801  0.2480 -0.0909  0.2030
    1DIPC   GL227364  29.315  23.134   4.030 -0.1006 -0.1816 -0.2026
    1DIPC   C1A27365  28.866  23.579   4.042 -0.1300 -0.0492 -0.2108
    1DIPC   D2A27366  29.202  23.736   4.326  0.1822  0.0437 -0.4513
    1DIPC   D3A27367  28.990  24.051   4.152 -0.2470 -0.4222 -0.1888
    1DIPC   C4A27368  28.869  23.940   3.728 -0.1609 -0.0189  0.0764
    1DIPC   C1B27369  29.005  23.173   4.350 -0.2927  0.0711  0.1630
    1DIPC   D2B27370  29.020  23.021   4.825  0.1113 -0.0489 -0.0510
    1DIPC   D3B27371  28.741  23.213   5.059 -0.3197  0.2428 -0.2484
    1DIPC   C4B27372  28.682  23.131   5.464  0.2243  0.0518 -0.0351
    1DIPC   NC327373   9.684   9.946   2.392  0.0964  0.2303 -0.0904
    1DIPC   PO427374   9.941   9.717   2.802  0.1697  0.2178 -0.0650
    1DIPC   GL127375   9.882   9.805   3.164 -0.1019 -0.0300  0.0251
    1DIPC   GL227376  10.171   9.936   3.216  0.0124 -0.1008  0.1310
    1DIPC   C1A27377   9.822   9.757   3.570 -0.1214 -0.2444  0.1278
    1DIPC   D2A27378   9.914   9.816   3.902 -0.0612  0.1170 -0.1774
    1DIPC   D3A27379   9.582  10.049   4.170  0.2790  0.2723 -0.1836
    1DIPC   C4A27380   9.268   9.786   4.386 -0.0274 -0.2255  0.1485
    1DIPC   C1B27381  10.113  10.189   3.551  0.2342  0.0392  0.0903
    1DIPC   D2B27382  10.093  10.269   3.998  0.0194  0.1302 -0.1408
    1DIPC   D3B27383   9.990  10.751   3.930  0.0545 -0.3428  0.0273
    1DIPC   C4B27384   9.630  10.867   4.038  0.2113  0.0199  0.1536
    1DIPC   NC327385  28.604  20.013   3.729  0.0383  0.2810 -0.0183
    1DIPC   PO427386  28.567  19.606   3.483 -0.1302  0.1446 -0.1889
    1DIPC   GL127387  28.732  19.432   3.917 -0.1830 -0.0126 -0.1002
    1DIPC   GL227388  28.595  19.590   4.185  0.4451 -0.0436 -0.1645
    1DIPC   C1A27389  28.906  19.251   4.336 -0.0565  0.1628 -0.1159
    1DIPC   D2A27390  28.827  19.139   4.822  0.0172 -0.1367  0.1333
    1DIPC   D3A27391  28.978  18.908   5.122  0.0098 -0.4271 -0.1826
    1DIPC   C4A27392  28.902  18.966   5.553 -0.1450 -0.0227 -0.0137
    1DIPC   C1B27393  28.192  19.545   4.311  0.0252 -0.0987 -0.1137
    1DIPC   D2B27394  27.922  19.344   4.398  0.0987 -0.0968 -0.1365
    1DIPC   D3B27395  28.061  19.240   4.727  0.2297 -0.1134  0.3259
    1DIPC   C4B27396  28.309  18.977   4.953 -0.1839 -0.1504 -0.0607
    1DIPC   NC327397  10.197  10.619   2.705  0.1980 -0.2449  0.2286
    1DIPC   PO427398   9.969  10.316   2.391 -0.0632 -0.0801  0.1904
    1DIPC   GL127399   9.883  10.257   2.858  0.1306 -0.0787  0.0438
    1DIPC   GL227400   9.686  10.632   2.899  0.0927  0.2377 -0.2034
    1DIPC   C1A27401   9.547  10.215   3.294  0.2143  0.0009 -0.3405
    1DIPC   D2A27402   9.647  10.328   3.741 -0.0880  0.2701 -0.0227
    1DIPC   D3A27403   9.336   9.947   3.704  0.1162  0.0105 -0.2198
    1DIPC   C4A27404   9.358   9.575   3.813 -0.2742 -0.2491 -0.0985
    1DIPC   C1B27405   9.751  11.070   3.210 -0.0320  0.2115 -0.0514
    1DIPC   D2B27406   9.493  11.298   3.352 -0.3249  0.1622 -0.0280
    1DIPC   D3B27407   9.357  11.221   3.803  0.1740  0.3058  0.1275
    1DIPC   C4B27408   9.629  11.377   4.135 -0.3381 -0.0691 -0.0040
    1DIPC   NC327409   9.055  12.895   1.885 -0.2072  0.4228  0.0512
    1DIPC   PO427410   8.809  12.847   2.318  0.2509  0.2688 -0.1986
    1DIPC   GL127411   8.821  13.167   2.751  0.0701  0.0204 -0.2318
    1DIPC   GL227412   9.056  13.438   2.672 -0.0229  0.2391 -0.1360
    1DIPC   C1A27413   8.797  13.171   3.263  0.0580 -0.0960 -0.4743
    1DIPC   D2A27414   8.968  12.912   3.670  0.2303 -0.0030 -0.1044
    1DIPC   D3A27415   8.587  12.685   3.684 -0.3137  0.0999 -0.0162
    1DIPC   C4A27416   8.241  12.788   3.404 -0.0031  0.0149 -0.1015
    1DIPC   C1B27417   9.336  13.749   2.995 -0.2193  0.0032  0.0712
    1DIPC   D2B27418   9.606  13.929   3.380 -0.0101  0.6452 -0.1696
    1DIPC   D3B27419   9.521  13.629   3.559  0.1861  0.0455  0.0986
    1DIPC   C4B27420   9.094  13.441   3.589  0.1916  0.1475 -0.2169
    1DIPC   NC327421   8.941  20.423   2.540  0.0159 -0.1636 -0.2510
    1DIPC   PO427422   9.431  20.540   2.577  0.3288 -0.1559  0.1165
    1DIPC   GL127423   9.693  20.488   2.996 -0.0819 -0.0119  0.0889
    1DIPC   GL227424   9.776  20.159   3.138  0.0377 -0.2494 -0.1880
    1DIPC   C1A27425   9.493  20.574   3.329  0.0981  0.0743 -0.0496
    1DIPC   D2A27426   9.490  20.861   3.601  0.2234 -0.1234 -0.1058
    1DIPC   D3A27427   9.499  21.328   3.674 -0.3264 -0.1318 -0.6296
    1DIPC   C4A27428   9.271  21.720   3.535 -0.1502 -0.1308 -0.0597
    1DIPC   C1B27429  10.072  19.957   3.459 -0.0579 -0.1483  0.1494
    1DIPC   D2B27430  10.336  19.794   3.563  0.0617  0.2561 -0.0048
    1DIPC   D3B27431  10.701  19.639   3.775  0.1290  0.2542  0.0608
    1DIPC   C4B27432  10.816  19.927   4.118 -0.0472  0.1949  0.2030
    1DIPC   NC327433  24.093   0.958   3.312 -0.0897 -0.2037  0.1080
    1DIPC   PO427434  24.410   1.015   3.458  0.0593 -0.0160  0.2711
    1DIPC   GL127435  24.593   1.047   3.827 -0.1333  0.3836  0.4339
    1DIPC   GL227436  24.787   0.988   4.035 -0.2792 -0.0217  0.1330
    1DIPC   C1A27437  24.561   1.396   4.147 -0.0621  0.0384  0.0195
    1DIPC   D2A27438  24.748   1.741   4.426 -0.2073  0.0435 -0.0301
    1DIPC   D3A27439  24.381   1.404   4.637 -0.0338 -0.1255  0.0745
    1DIPC   C4A27440  24.033   1.536   4.700  0.0916  0.0428 -0.1364
    1DIPC   C1B27441  24.678   1.022   4.413 -0.2800 -0.2611  0.0613
    1DIPC   D2B27442  24.652   0.988   4.927  0.3194  0.0936  0.1764
    1DIPC   D3B27443  24.882   1.114   5.158 -0.1118 -0.3029  0.1890
    1DIPC   C4B27444  25.030   0.971   5.596  0.2442  0.3110  0.0121
    1DIPC   NC327445  26.655  17.712   3.331  0.0799  0.2625  0.0924
    1DIPC   PO427446  26.321  17.417   3.281 -0.0703 -0.3644 -0.3621
    1DIPC   GL127447  25.944  17.383   3.467 -0.0094 -0.1003  0.0094
    1DIPC   GL227448  25.975  17.110   3.615  0.0313 -0.2768  0.1978
    1DIPC   C1A27449  25.752  17.513   3.820  0.0391  0.1558 -0.0307
    1DIPC   D2A27450  25.509  17.233   4.199  0.0355 -0.1021 -0.2199
    1DIPC   D3A27451  25.579  17.366   4.626 -0.0209  0.0299 -0.1310
    1DIPC   C4A27452  25.903  17.239   4.836 -0.2215  0.3109 -0.1633
    1DIPC   C1B27453  25.988  16.847   4.019  0.0783  0.1159  0.1495
    1DIPC   D2B27454  25.951  16.477   4.290 -0.1000 -0.0957  0.0759
    1DIPC   D3B27455  26.211  16.629   4.433 -0.1690  0.0435 -0.0037
    1DIPC   C4B27456  26.493  16.729   4.139  0.2451  0.3228 -0.0125
    1DIPC   NC327457  15.518  22.758   2.676 -0.0998 -0.2685 -0.1394
    1DIPC   PO427458  14.987  22.732   2.803  0.0601  0.0650 -0.0817
    1DIPC   GL127459  15.077  22.924   3.127  0.0357  0.2165 -0.2679
    1DIPC   GL227460  15.046  22.646   3.330 -0.1145 -0.0882  0.1023
    1DIPC   C1A27461  14.796  23.190   3.427 -0.2340 -0.1637 -0.0741
    1DIPC   D2A27462  14.453  23.343   3.655 -0.0800  0.0401 -0.0843
    1DIPC   D3A27463  14.563  23.065   3.991  0.2350 -0.2294 -0.1453
    1DIPC   C4A27464  14.820  23.188   4.303  0.1797 -0.1170 -0.1292
    1DIPC   C1B27465  14.934  22.731   3.786 -0.2049  0.1535  0.0808
    1DIPC   D2B27466  14.658  22.481   3.982  0.0817  0.0104 -0.0186
    1DIPC   D3B27467  14.715  22.223   3.579  0.4177  0.3464  0.2527
    1DIPC   C4B27468  14.296  22.138   3.650  0.0209  0.3745 -0.0878
    1DIPC   NC327469  27.429  25.967   3.180 -0.0924 -0.1104 -0.2900
    1DIPC   PO427470  27.605  25.857   3.576 -0.0179 -0.1153  0.4126
    1DIPC   GL127471  27.388  25.598   3.726 -0.1294 -0.0302  0.0995
    1DIPC   GL227472  27.632  25.359   3.843 -0.1741 -0.0426 -0.1357
    1DIPC   C1A27473  27.152  25.299   3.780 -0.1628  0.1174 -0.1481
    1DIPC   D2A27474  26.793  24.877   3.846  0.2588  0.2047 -0.0892
    1DIPC   D3A27475  27.171  24.632   3.827 -0.3693  0.0057  0.1673
    1DIPC   C4A27476  27.515  24.921   3.814 -0.1073 -0.0430 -0.1084
    1DIPC   C1B27477  28.094  25.236   3.750 -0.1334 -0.0846 -0.1838
    1DIPC   D2B27478  28.498  25.365   3.695  0.2747  0.2494 -0.1376
    1DIPC   D3B27479  28.485  24.998   4.070 -0.0882 -0.1906 -0.0262
    1DIPC   C4B27480  28.374  25.091   4.535 -0.2435  0.0097 -0.3282
    1DIPC   NC327481   6.022  14.498   1.504 -0.0213 -0.1114 -0.2046
    1DIPC   PO427482   5.825  14.815   1.723  0.1984 -0.2999  0.0627
    1DIPC   GL127483   5.990  14.948   2.245  0.0384  0.4164 -0.2711
    1DIPC   GL227484   5.698  15.048   2.456 -0.0580 -0.2981 -0.2451
    1DIPC   C1A27485   6.235  14.934   2.712  0.1094  0.1512  0.2422
    1DIPC   D2A27486   6.424  15.128   3.026 -0.2384 -0.1757  0.1801
    1DIPC   D3A27487   6.088  15.014   3.214  0.0090 -0.1619  0.1901
    1DIPC   C4A27488   6.202  14.909   3.590  0.0544 -0.0599 -0.3146
    1DIPC   C1B27489   5.743  14.922   2.919 -0.0863  0.0306  0.1071
    1DIPC   D2B27490   5.470  15.051   3.289  0.1305 -0.1483  0.2195
    1DIPC   D3B27491   5.745  15.115   3.623 -0.2851  0.1496  0.1911
    1DIPC   C4B27492   5.716  14.973   4.059 -0.3184  0.1754  0.1827
    1DIPC   NC327493  12.739   9.105   2.383 -0.0529  0.3603  0.0993
    1DIPC   PO427494  13.159   9.384   2.621 -0.2751 -0.3865  0.0320
    1DIPC   GL127495  13.223   9.506   3.094  0.0991  0.0904  0.0772
    1DIPC   GL227496  13.586   9.650   3.296  0.0296  0.1305 -0.0639
    1DIPC   C1A27497  13.039   9.755   3.490 -0.1524 -0.3134 -0.2417
    1DIPC   D2A27498  12.758  10.078   3.607 -0.2637  0.0967 -0.0065
    1DIPC   D3A27499  12.965  10.087   4.048 -0.3129  0.0874 -0.0616
    1DIPC   C4A27500  13.201  10.102   4.404 -0.4878 -0.2633 -0.3293
    1DIPC   C1B27501  13.449   9.819   3.784 -0.0967  0.1358 -0.0978
    1DIPC   D2B27502  13.613  10.011   4.195  0.0228 -0.0076  0.1045
    1DIPC   D3B27503  13.574   9.870   4.600 -0.1316 -0.2812 -0.0156
    1DIPC   C4B27504  13.125   9.737   4.673  0.0589 -0.0961 -0.0982
    1DIPC   NC327505  15.689   3.865   2.235  0.1519 -0.0139 -0.1562
    1DIPC   PO427506  15.803   3.861   2.804 -0.3421 -0.1875 -0.0964
    1DIPC   GL127507  15.819   3.806   3.276  0.0439  0.3911  0.3058
    1DIPC   GL227508  15.836   3.465   3.502  0.0152  0.0797 -0.1863
    1DIPC   C1A27509  15.475   3.915   3.569  0.2105  0.0639  0.3527
    1DIPC   D2A27510  15.353   4.140   3.891 -0.0626 -0.1589 -0.2893
    1DIPC   D3A27511  15.623   4.369   4.301 -0.0030  0.0093 -0.2291
    1DIPC   C4A27512  15.811   4.155   4.694  0.0395 -0.0040  0.1059
    1DIPC   C1B27513  15.619   3.189   3.777 -0.2603 -0.0781  0.0656
    1DIPC   D2B27514  15.449   3.232   4.156 -0.0052  0.2346 -0.4495
    1DIPC   D3B27515  15.402   3.067   4.582 -0.0799 -0.1882 -0.2117
    1DIPC   C4B27516  15.844   2.920   4.737 -0.2276 -0.0096  0.2557
    1DIPC   NC327517   0.850  24.395   3.127  0.0404 -0.1308 -0.2479
    1DIPC   PO427518   0.678  24.098   3.200  0.0697  0.1091  0.1517
    1DIPC   GL127519   0.831  24.006   3.653 -0.0970  0.2431  0.2604
    1DIPC   GL227520   0.520  23.908   3.848 -0.1351 -0.2951  0.2021
    1DIPC   C1A27521   1.028  23.869   3.980  0.1644  0.0897 -0.2885
    1DIPC   D2A27522   1.255  23.560   4.105  0.0715 -0.0147 -0.0691
    1DIPC   D3A27523   1.565  23.898   4.096  0.3418 -0.2292  0.1465
    1DIPC   C4A27524   1.869  23.730   3.906 -0.0346 -0.4032  0.2061
    1DIPC   C1B27525   0.586  23.923   4.295  0.2213 -0.2012  0.0962
    1DIPC   D2B27526   0.453  23.674   4.651  0.1499  0.2213  0.2274
    1DIPC   D3B27527   0.062  23.863   4.647 -0.0676 -0.5168 -0.3066
    1DIPC   C4B27528  29.579  23.900   4.991  0.3453 -0.1442  0.2156
    1DIPC   NC327529  12.178  24.643   2.699  0.3238  0.2869 -0.1908
    1DIPC   PO427530  12.483  24.340   2.837  0.1156 -0.0233  0.0363
    1DIPC   GL127531  12.297  24.393   3.238  0.1033 -0.0325 -0.1944
    1DIPC   GL227532  12.140  24.659   3.209  0.2469  0.1837  0.2400
    1DIPC   C1A27533  12.059  24.297   3.694  0.0312  0.0789 -0.1016
    1DIPC   D2A27534  11.635  24.384   3.895 -0.1613 -0.2319  0.0157
    1DIPC   D3A27535  11.867  24.434   4.137  0.0034  0.2500 -0.1471
    1DIPC   C4A27536  11.845  24.631   4.464  0.1773 -0.1115  0.2331
    1DIPC   C1B27537  12.356  24.966   3.521  0.1630  0.2145 -0.0772
    1DIPC   D2B27538  12.728  25.019   3.704  0.0988  0.0114 -0.0923
    1DIPC   D3B27539  12.826  25.386   3.515 -0.1077 -0.1642  0.3585
    1DIPC   C4B27540  12.669  25.799   3.682 -0.1223  0.0352  0.1301
    1DIPC   NC327541   2.034   2.028   2.696  0.0945 -0.0276 -0.2131
    1DIPC   PO427542   1.697   2.020   2.578  0.0984  0.0357  0.4299
    1DIPC   GL127543   1.532   2.218   2.979  0.0845  0.1388 -0.1907
    1DIPC   GL227544   1.868   2.253   3.175  0.2232  0.1473  0.1009
    1DIPC   C1A27545   1.237   2.331   3.316 -0.2419 -0.0721  0.1658
    1DIPC   D2A27546   1.055   2.417   3.667 -0.0599  0.0495  0.2088
    1DIPC   D3A27547   0.754   2.753   3.730 -0.1807  0.3288 -0.1182
    1DIPC   C4A27548   0.687   2.843   4.117  0.1234 -0.1500  0.1692
    1DIPC   C1B27549   1.693   2.310   3.550  0.1630 -0.2576  0.2130
    1DIPC   D2B27550   1.502   2.535   3.950  0.0477  0.2702 -0.1032
    1DIPC   D3B27551   1.565   2.461   4.356 -0.0830  0.2766 -0.2058
    1DIPC   C4B27552   1.398   2.756   4.473  0.1842  0.0540 -0.0860
    1DIPC   NC327553  25.472  19.037   2.950 -0.1719 -0.1750  0.5568
    1DIPC   PO427554  25.070  19.184   3.257 -0.1436  0.0286  0.2032
    1DIPC   GL127555  25.017  19.204   3.681 -0.0698  0.0957  0.0980
    1DIPC   GL227556  25.039  18.985   3.807 -0.0242 -0.3467  0.1723
    1DIPC   C1A27557  24.903  19.438   4.079  0.1364  0.1824 -0.0407
    1DIPC   D2A27558  24.894  19.621   4.485  0.3287  0.3017 -0.0590
    1DIPC   D3A27559  25.251  19.586   4.755  0.0489 -0.0860 -0.1516
    1DIPC   C4A27560  25.184  19.545   5.219  0.1651  0.0297  0.1602
    1DIPC   C1B27561  25.402  18.736   4.058  0.0215 -0.0509 -0.0694
    1DIPC   D2B27562  25.738  18.988   4.293  0.0125  0.0508 -0.1474
    1DIPC   D3B27563  26.015  19.133   4.636 -0.3032 -0.2268 -0.0489
    1DIPC   C4B27564  26.242  19.459   4.798 -0.1835  0.1221 -0.2905
    1DIPC   NC327565  19.186  18.949   3.432  0.0178 -0.2344 -0.1746
    1DIPC   PO427566  19.024  18.679   3.675  0.0209 -0.0375  0.2240
    1DIPC   GL127567  19.161  18.744   3.979 -0.3150  0.2935 -0.1982
    1DIPC   GL227568  19.483  19.023   4.106 -0.0361 -0.2099  0.0885
    1DIPC   C1A27569  19.170  18.636   4.388 -0.0923  0.0997  0.0893
    1DIPC   D2A27570  18.951  18.833   4.815  0.4398 -0.0632  0.2450
    1DIPC   D3A27571  18.986  19.072   4.515  0.0570  0.1333 -0.1565
    1DIPC   C4A27572  19.026  19.427   4.697  0.0279 -0.3213 -0.1665
    1DIPC   C1B27573  19.499  19.327   4.517  0.0277  0.0126 -0.0257
    1DIPC   D2B27574  19.744  19.171   4.823 -0.0077 -0.0385 -0.4157
    1DIPC   D3B27575  19.584  19.137   5.222  0.0992  0.0038 -0.2562
    1DIPC   C4B27576  19.822  18.743   5.341  0.0385  0.1179 -0.0093
    1DIPC   NC327577  17.644  25.402   3.430 -0.0413 -0.0291  0.1464
    1DIPC   PO427578  18.030  25.485   3.501  0.1806  0.1053 -0.0611
    1DIPC   GL127579  17.833  25.474   3.920 -0.3764  0.2067  0.0571
    1DIPC   GL227580  17.992  25.433   4.228  0.1443 -0.4985  0.3312
    1DIPC   C1A27581  17.636  25.156   4.228  0.2304 -0.2256  0.1742
    1DIPC   D2A27582  17.677  24.998   4.558 -0.1975  0.0121 -0.1678
    1DIPC   D3A27583  17.345  24.750   4.707  0.2023 -0.2513 -0.1802
    1DIPC   C4A27584  16.915  24.745   4.724 -0.0928 -0.2161  0.0574
    1DIPC   C1B27585  17.971  25.471   4.629 -0.3703  0.0974 -0.0089
    1DIPC   D2B27586  18.068  25.664   5.023  0.1396  0.2684  0.0635
    1DIPC   D3B27587  17.817  25.962   5.272  0.1711  0.1727  0.1720
    1DIPC   C4B27588  17.533  26.238   5.123  0.0250  0.0328 -0.0520
    1DIPC   NC327589   1.581  22.653   3.236  0.0610 -0.2790 -0.1532
    1DIPC   PO427590   1.463  22.291   3.355  0.2004  0.0567  0.3565
    1DIPC   GL127591   1.716  22.258   3.684 -0.1302 -0.2095  0.1861
    1DIPC   GL227592   1.486  22.253   3.841 -0.2685  0.1675 -0.1554
    1DIPC   C1A27593   2.025  22.174   4.039 -0.0345  0.0391  0.0961
    1DIPC   D2A27594   2.283  22.309   4.468  0.0982  0.0984 -0.2073
    1DIPC   D3A27595   2.161  22.516   4.879  0.2434  0.2672 -0.0491
    1DIPC   C4A27596   2.352  22.365   5.247  0.2403 -0.0137  0.2753
    1DIPC   C1B27597   1.508  22.015   4.319  0.0145  0.1817 -0.2421
    1DIPC   D2B27598   1.452  22.136   4.721  0.2724 -0.0330  0.1468
    1DIPC   D3B27599   1.322  22.693   4.582 -0.0967  0.0071 -0.1736
    1DIPC   C4B27600   1.126  22.988   4.865 -0.3919  0.2146 -0.2109
    1DIPC   NC327601  25.747  21.335   4.005  0.0698 -0.1070  0.0469
    1DIPC   PO427602  25.299  21.445   3.595 -0.2149 -0.2132 -0.1249
    1DIPC   GL127603  25.183  21.464   4.072  0.0146 -0.0463  0.1103
    1DIPC   GL227604  25.091  21.708   4.258  0.3559  0.1796 -0.1042
    1DIPC   C1A27605  25.060  21.338   4.556  0.1806 -0.2049  0.0171
    1DIPC   D2A27606  25.099  21.282   4.947  0.1154 -0.0197  0.0861
    1DIPC   D3A27607  25.104  20.873   5.059 -0.0155  0.2154  0.1775
    1DIPC   C4A27608  24.865  20.666   5.327  0.0613  0.0346 -0.1117
    1DIPC   C1B27609  25.279  21.738   4.791 -0.0234 -0.1006 -0.0649
    1DIPC   D2B27610  25.358  21.748   5.177  0.2595  0.0580  0.2449
    1DIPC   D3B27611  24.942  21.603   5.362 -0.4049 -0.0669 -0.0304
    1DIPC   C4B27612  24.797  21.223   5.442  0.1935  0.1374 -0.0419
    1DIPC   NC327613  10.222  12.525   1.729 -0.0034 -0.3289  0.1188
    1DIPC   PO427614  10.264  12.423   2.202 -0.0251  0.0348  0.1693
    1DIPC   GL127615  10.224  12.295   2.522  0.0404 -0.1356  0.1690
    1DIPC   GL227616  10.105  12.052   2.768 -0.1169  0.1109 -0.0202
    1DIPC   C1A27617  10.459  12.358   2.921  0.4815 -0.2249 -0.2231
    1DIPC   D2A27618  10.553  12.592   3.304  0.0063  0.1262  0.0355
    1DIPC   D3A27619  10.412  13.048   3.585 -0.5496 -0.3164  0.1261
    1DIPC   C4A27620  10.483  12.998   4.119 -0.0774 -0.0682  0.1205
    1DIPC   C1B27621  10.019  11.948   3.246  0.0699  0.1227  0.1561
    1DIPC   D2B27622  10.151  12.054   3.717 -0.0212 -0.0752  0.1423
    1DIPC   D3B27623   9.721  12.133   3.944 -0.1091 -0.0346 -0.0663
    1DIPC   C4B27624   9.340  12.209   3.803  0.2522 -0.2275 -0.0259
    1DIPC   NC327625  19.354  23.416   4.011 -0.0422  0.2947 -0.1803
    1DIPC   PO427626  19.497  23.845   4.040 -0.1025  0.0657  0.0664
    1DIPC   GL127627  19.237  23.854   4.406  0.0287 -0.0918 -0.0704
    1DIPC   GL227628  19.275  24.089   4.660 -0.0077 -0.0113  0.4074
    1DIPC   C1A27629  19.009  23.658   4.824  0.1496  0.4495  0.0403
    1DIPC   D2A27630  18.669  23.535   5.147  0.0390  0.0211  0.0203
    1DIPC   D3A27631  18.231  23.478   5.123 -0.2881 -0.1902 -0.1133
    1DIPC   C4A27632  17.974  23.202   5.310  0.1754 -0.0260 -0.1503
    1DIPC   C1B27633  19.189  24.316   5.013  0.3231  0.0549  0.2233
    1DIPC   D2B27634  18.904  24.545   5.178 -0.0264 -0.1256  0.1780
    1DIPC   D3B27635  19.050  24.231   5.584  0.2712 -0.0891  0.0644
    1DIPC   C4B27636  18.605  24.055   5.724  0.0361 -0.0063  0.0282
    1DIPC   NC327637   3.841   8.893   1.879  0.1239 -0.0228 -0.1694
    1DIPC   PO427638   4.101   9.209   1.855  0.2827  0.0441  0.5071
    1DIPC   GL127639   3.964   9.372   2.215 -0.5259  0.0463  0.1273
    1DIPC   GL227640   3.735   9.528   2.219 -0.1741 -0.3148  0.1669
    1DIPC   C1A27641   3.905   9.553   2.699 -0.1084 -0.0927 -0.2545
    1DIPC   D2A27642   3.904   9.429   3.074  0.0912  0.1447  0.0808
    1DIPC   D3A27643   3.781   9.395   3.485 -0.1923  0.1638 -0.2325
    1DIPC   C4A27644   4.021   9.076   3.699 -0.3117  0.0632  0.4917
    1DIPC   C1B27645   3.397   9.337   2.394  0.0644 -0.3042 -0.1172
    1DIPC   D2B27646   3.105   9.079   2.568 -0.0868  0.2569  0.0470
    1DIPC   D3B27647   3.081   8.870   3.050  0.1200 -0.1012  0.1152
    1DIPC   C4B27648   2.659   8.991   3.120  0.3938 -0.3220 -0.2617
    1DIPC   NC327649  13.653  17.350   2.555  0.2611 -0.3706  0.4367
    1DIPC   PO427650  13.219  17.587   2.409  0.1906  0.1672  0.0962
    1DIPC   GL127651  13.122  17.379   2.837  0.2900  0.0035 -0.4097
    1DIPC   GL227652  13.456  17.454   3.009 -0.0937  0.1032  0.0729
    1DIPC   C1A27653  13.029  17.484   3.304  0.1030  0.1958  0.2497
    1DIPC   D2A27654  12.859  17.367   3.767 -0.0207  0.0768  0.3415
    1DIPC   D3A27655  12.641  17.016   3.652  0.3191  0.0458 -0.4102
    1DIPC   C4A27656  12.562  17.059   3.216  0.0910  0.1659 -0.1265
    1DIPC   C1B27657  13.493  17.461   3.526 -0.1473  0.0052  0.3233
    1DIPC   D2B27658  13.319  17.416   3.924 -0.3789 -0.1048 -0.0805
    1DIPC   D3B27659  13.530  17.776   4.249  0.1504  0.1114  0.1461
    1DIPC   C4B27660  13.938  17.577   4.359  0.2616 -0.0072  0.0685
    1DIPC   NC327661   3.211  23.089   3.653 -0.0439 -0.1770 -0.1693
    1DIPC   PO427662   2.828  23.084   3.298  0.0376  0.0210  0.0446
    1DIPC   GL127663   2.580  23.076   3.700  0.1421 -0.1230  0.1422
    1DIPC   GL227664   2.827  23.443   3.806  0.1549  0.2126  0.2002
    1DIPC   C1A27665   2.414  22.833   4.123 -0.1506  0.1967 -0.0171
    1DIPC   D2A27666   2.269  22.824   4.511  0.0998 -0.0975 -0.3987
    1DIPC   D3A27667   2.255  23.048   4.785 -0.1134 -0.1007 -0.3145
    1DIPC   C4A27668   2.340  22.881   5.095  0.0661  0.1301  0.1285
    1DIPC   C1B27669   2.601  23.427   4.167 -0.1309  0.0673 -0.1433
    1DIPC   D2B27670   2.292  23.451   4.396  0.0958 -0.0885  0.1693
    1DIPC   D3B27671   2.170  23.859   4.482  0.0466 -0.1797  0.1900
    1DIPC   C4B27672   1.915  24.118   4.323  0.4149  0.1007 -0.2330
    1DIPC   NC327673  16.818   7.001   2.779 -0.1401 -0.0161 -0.1001
    1DIPC   PO427674  16.756   7.376   2.661  0.3788  0.0713 -0.0695
    1DIPC   GL127675  16.543   7.412   2.989  0.3108 -0.2650 -0.3109
    1DIPC   GL227676  16.478   7.710   2.979  0.2205 -0.0401  0.3131
    1DIPC   C1A27677  16.355   7.423   3.432 -0.2469  0.1101  0.0746
    1DIPC   D2A27678  16.153   7.698   3.680  0.1030  0.0676 -0.3422
    1DIPC   D3A27679  16.241   7.610   4.021  0.0785 -0.0352 -0.0088
    1DIPC   C4A27680  16.349   7.697   4.476  0.0884  0.0014 -0.0702
    1DIPC   C1B27681  16.051   7.678   3.161 -0.1567  0.1063  0.2055
    1DIPC   D2B27682  15.666   7.913   3.375 -0.1402  0.4188  0.1213
    1DIPC   D3B27683  15.424   8.130   3.048  0.0989 -0.4567 -0.2545
    1DIPC   C4B27684  15.558   8.537   2.765  0.3686  0.0653  0.0319
    1DIPC   NC327685  23.842  19.524   2.944  0.1879 -0.2927  0.2680
    1DIPC   PO427686  23.551  19.077   2.890  0.2067  0.1268 -0.1801
    1DIPC   GL127687  23.188  19.177   3.170 -0.2192 -0.2084  0.0615
    1DIPC   GL227688  23.124  18.949   3.496  0.3341  0.0637  0.1793
    1DIPC   C1A27689  23.059  19.504   3.518  0.0243 -0.0628 -0.4870
    1DIPC   D2A27690  23.011  19.784   3.890 -0.1818  0.0467 -0.0696
    1DIPC   D3A27691  22.956  19.875   4.347  0.0985  0.3883 -0.1010
    1DIPC   C4A27692  23.256  19.754   4.692  0.2771  0.0300 -0.0887
    1DIPC   C1B27693  23.030  19.170   3.912 -0.0871 -0.2081  0.0268
    1DIPC   D2B27694  23.229  19.441   4.209 -0.0509  0.1677  0.1684
    1DIPC   D3B27695  23.253  19.286   4.622  0.1102  0.0932 -0.2627
    1DIPC   C4B27696  22.771  19.321   4.822 -0.0051 -0.1295  0.1612
    1DIPC   NC327697   7.522   3.199   1.985  0.0197 -0.2441  0.2312
    1DIPC   PO427698   7.505   2.773   2.185 -0.2868 -0.1690 -0.0437
    1DIPC   GL127699   7.414   2.622   2.678  0.1387  0.2250  0.0546
    1DIPC   GL227700   7.631   2.775   2.854  0.0396 -0.2055 -0.2160
    1DIPC   C1A27701   7.344   2.505   3.219 -0.3811 -0.3335  0.4199
    1DIPC   D2A27702   7.001   2.511   3.341  0.2156  0.1478 -0.0122
    1DIPC   D3A27703   6.997   2.064   3.295  0.1020  0.4736  0.4788
    1DIPC   C4A27704   6.947   1.837   3.718 -0.0982  0.2668  0.2343
    1DIPC   C1B27705   7.710   2.767   3.346  0.3183 -0.1076  0.0032
    1DIPC   D2B27706   7.621   2.801   3.770  0.0845  0.2332 -0.2421
    1DIPC   D3B27707   7.611   2.349   3.887 -0.2191 -0.0181  0.3463
    1DIPC   C4B27708   7.187   2.259   3.753  0.0540  0.0122  0.2071
    1DIPC   NC327709  16.034  23.226   2.870 -0.0043 -0.2528 -0.0356
    1DIPC   PO427710  15.898  22.998   2.956 -0.2584  0.1332 -0.0641
    1DIPC   GL127711  15.898  22.777   3.445 -0.1062 -0.2004  0.1798
    1DIPC   GL227712  15.936  22.436   3.502 -0.0112 -0.1860 -0.0354
    1DIPC   C1A27713  15.942  22.984   3.814 -0.2704  0.1447  0.1596
    1DIPC   D2A27714  16.287  23.170   3.867 -0.0924 -0.0704  0.0534
    1DIPC   D3A27715  16.064  23.415   4.173  0.0378  0.1696  0.4200
    1DIPC   C4A27716  15.625  23.393   4.214 -0.2248  0.3590 -0.1396
    1DIPC   C1B27717  15.998  22.490   4.042 -0.0204  0.4291 -0.1913
    1DIPC   D2B27718  15.928  22.533   4.608 -0.2988 -0.0403 -0.0539
    1DIPC   D3B27719  16.003  22.877   4.779  0.0580  0.0246 -0.1872
    1DIPC   C4B27720  15.659  23.213   4.663  0.0857 -0.1459  0.1938
    1DIPC   NC327721   3.240   1.889   2.737 -0.2116 -0.0246 -0.1345
    1DIPC   PO427722   2.955   2.209   2.616 -0.0862  0.1716  0.3067
    1DIPC   GL127723   3.099   2.168   3.142  0.1732 -0.2243 -0.4115
    1DIPC   GL227724   3.312   2.408   3.349  0.1781 -0.0507  0.2152
    1DIPC   C1A27725   2.898   2.289   3.546 -0.1381  0.0001 -0.2721
    1DIPC   D2A27726   2.979   2.229   3.981 -0.0324 -0.0753 -0.0749
    1DIPC   D3A27727   3.196   2.653   4.207 -0.1488  0.0678  0.0909
    1DIPC   C4A27728   3.640   2.598   4.298 -0.1926  0.1593 -0.1404
    1DIPC   C1B27729   3.473   2.395   3.878 -0.1295 -0.1467  0.1455
    1DIPC   D2B27730   3.579   2.055   4.171 -0.0289  0.1372  0.3640
    1DIPC   D3B27731   4.040   2.089   4.132 -0.1101  0.3145 -0.0292
    1DIPC   C4B27732   4.110   2.521   4.100 -0.1515  0.1153  0.0124
    1DIPC   NC327733   7.507  20.088   2.552 -0.1452  0.0143 -0.0107
    1DIPC   PO427734   7.796  20.428   2.905 -0.3134  0.0022  0.1937
    1DIPC   GL127735   7.766  20.089   3.167 -0.0533  0.2110  0.0851
    1DIPC   GL227736   7.576  20.098   3.469 -0.2192  0.3666  0.2517
    1DIPC   C1A27737   7.669  19.671   3.186  0.1766 -0.0087  0.1349
    1DIPC   D2A27738   7.434  19.243   3.149 -0.2531  0.3096 -0.0003
    1DIPC   D3A27739   7.466  19.051   3.580  0.4123 -0.2871 -0.1097
    1DIPC   C4A27740   7.497  18.593   3.545 -0.5029  0.1023 -0.0733
    1DIPC   C1B27741   7.706  19.941   3.813 -0.0162 -0.0351  0.0461
    1DIPC   D2B27742   7.746  19.369   3.870  0.2212 -0.5039 -0.3602
    1DIPC   D3B27743   8.131  19.219   3.885 -0.0844  0.2900 -0.0245
    1DIPC   C4B27744   8.438  19.005   3.734  0.1291 -0.3381 -0.1759
    1DIPC   NC327745  10.170  28.346   3.099 -0.2702 -0.0162 -0.1527
    1DIPC   PO427746  10.483  28.704   3.002  0.1323 -0.0954  0.1555
    1DIPC   GL127747  10.405  28.848   3.488 -0.1102  0.0639  0.0271
    1DIPC   GL227748  10.402  29.140   3.376 -0.2004  0.0752 -0.0837
    1DIPC   C1A27749  10.357  28.615   3.851  0.3832  0.0976  0.2048
    1DIPC   D2A27750  10.582  28.506   4.099 -0.1169 -0.0344 -0.1306
    1DIPC   D3A27751  10.669  28.103   4.349 -0.0012  0.1246  0.0610
    1DIPC   C4A27752  10.706  27.713   4.293 -0.0074  0.1146 -0.3243
    1DIPC   C1B27753  10.542  29.232   3.845 -0.1465  0.0366  0.0739
    1DIPC   D2B27754  10.662  29.120   4.214  0.0262 -0.0217  0.1809
    1DIPC   D3B27755  10.875  28.865   4.385 -0.0468 -0.1529 -0.2051
    1DIPC   C4B27756  10.747  28.501   4.573  0.0791  0.3745  0.1703
    1DIPC   NC327757   3.140  25.371   3.341  0.2930 -0.0456  0.2841
    1DIPC   PO427758   2.717  25.553   3.329 -0.1510  0.1922  0.1927
    1DIPC   GL127759   2.850  25.489   3.741 -0.1136  0.1811  0.0043
    1DIPC   GL227760   3.121  25.200   3.801  0.3471  0.0194  0.0874
    1DIPC   C1A27761   2.611  25.524   4.160  0.4379 -0.1329 -0.1191
    1DIPC   D2A27762   2.591  25.721   4.656  0.1276  0.1569 -0.4551
    1DIPC   D3A27763   2.430  25.276   4.623 -0.1373  0.0329  0.2137
    1DIPC   C4A27764   2.726  24.898   4.484  0.2113 -0.3218  0.2037
    1DIPC   C1B27765   3.000  25.247   4.134 -0.0821 -0.0361  0.1460
    1DIPC   D2B27766   3.069  25.627   4.421  0.2480 -0.0040 -0.1091
    1DIPC   D3B27767   3.084  25.841   4.788 -0.0439  0.1538 -0.2731
    1DIPC   C4B27768   3.431  25.946   4.859 -0.1967 -0.0458 -0.0823
    1DIPC   NC327769  16.465  18.738   2.402  0.0369  0.1025 -0.2199
    1DIPC   PO427770  16.449  19.221   2.672  0.0274 -0.2486  0.0911
    1DIPC   GL127771  16.385  19.400   2.977 -0.0229 -0.3708 -0.2628
    1DIPC   GL227772  16.197  19.254   3.166 -0.3560 -0.2629 -0.1816
    1DIPC   C1A27773  16.602  19.556   3.252  0.1392 -0.0243  0.0515
    1DIPC   D2A27774  16.712  19.475   3.666 -0.0207  0.1507 -0.0790
    1DIPC   D3A27775  16.965  19.174   3.788  0.0141  0.3572 -0.0232
    1DIPC   C4A27776  16.908  18.773   3.611  0.1705 -0.0742 -0.1748
    1DIPC   C1B27777  16.091  19.333   3.605  0.2984 -0.1484  0.0200
    1DIPC   D2B27778  15.793  19.426   3.867  0.0588 -0.0722  0.1358
    1DIPC   D3B27779  16.033  19.254   4.252 -0.3813  0.0670  0.0614
    1DIPC   C4B27780  16.498  19.318   4.284 -0.3156 -0.1950  0.0759
    1DIPC   NC327781   5.728   6.673   2.237  0.0529  0.1366  0.1959
    1DIPC   PO427782   6.121   6.544   2.473 -0.0362 -0.0453  0.2187
    1DIPC   GL127783   6.331   6.459   2.891  0.2228 -0.3025  0.3662
    1DIPC   GL227784   6.491   6.802   3.057  0.0982  0.0725  0.1697
    1DIPC   C1A27785   6.471   6.187   3.126  0.0557  0.1851  0.3807
    1DIPC   D2A27786   6.817   6.140   3.597 -0.0299 -0.0517 -0.1303
    1DIPC   D3A27787   6.733   5.897   3.890 -0.0736 -0.1122 -0.0566
    1DIPC   C4A27788   6.740   5.484   3.846  0.1185 -0.2179  0.1084
    1DIPC   C1B27789   6.374   6.548   3.432  0.4195 -0.1150 -0.1459
    1DIPC   D2B27790   6.310   6.098   3.574  0.0156  0.2045  0.0412
    1DIPC   D3B27791   6.165   6.072   3.957  0.3590 -0.1527  0.1601
    1DIPC   C4B27792   6.367   5.663   4.158  0.0780  0.2282 -0.1558
    1DIPC   NC327793   6.971   9.511   2.206  0.0058  0.1030  0.1106
    1DIPC   PO427794   7.193   9.082   2.236  0.1705 -0.0239  0.0170
    1DIPC   GL127795   7.368   9.373   2.462 -0.1165  0.0101 -0.0635
    1DIPC   GL227796   7.707   9.444   2.464 -0.1341 -0.0777 -0.2254
    1DIPC   C1A27797   7.390   9.633   2.847 -0.1989 -0.1652  0.0800
    1DIPC   D2A27798   7.522   9.625   3.294 -0.0875  0.0790 -0.2649
    1DIPC   D3A27799   7.312   9.366   3.600  0.0948 -0.0897  0.1416
    1DIPC   C4A27800   7.037   9.661   3.693  0.2573 -0.4677  0.1150
    1DIPC   C1B27801   7.744   9.271   2.843 -0.2405  0.2200  0.0669
    1DIPC   D2B27802   7.685   9.116   3.273 -0.0457  0.1807 -0.2524
    1DIPC   D3B27803   7.741   8.707   3.479 -0.1253 -0.1344  0.2026
    1DIPC   C4B27804   7.997   8.593   3.793 -0.0121 -0.4081 -0.3747
    1DIPC   NC327805   2.395   9.313   1.711 -0.1699  0.3281 -0.0156
    1DIPC   PO427806   2.137   9.586   1.829 -0.3375 -0.0254 -0.2365
    1DIPC   GL127807   1.830   9.487   2.101 -0.1449  0.2640 -0.1793
    1DIPC   GL227808   1.662   9.149   2.031  0.1507 -0.0660  0.0481
    1DIPC   C1A27809   1.505   9.387   2.465  0.3240  0.2354 -0.0686
    1DIPC   D2A27810   1.647   9.114   2.685 -0.1841 -0.1104  0.3002
    1DIPC   D3A27811   2.033   9.134   2.644  0.0754  0.1053 -0.1637
    1DIPC   C4A27812   2.164   9.525   2.468 -0.1511 -0.2069  0.0162
    1DIPC   C1B27813   1.739   8.792   2.326 -0.0525  0.2980  0.2142
    1DIPC   D2B27814   1.459   8.474   2.580 -0.1330  0.0675 -0.4393
    1DIPC   D3B27815   1.442   8.488   3.076 -0.1693  0.0087  0.0446
    1DIPC   C4B27816   1.765   8.619   3.349 -0.2366  0.1742 -0.4461
    1DIPC   NC327817   5.226   3.840   3.023 -0.3122  0.0045 -0.0692
    1DIPC   PO427818   4.901   3.730   3.195 -0.1745  0.2250  0.4031
    1DIPC   GL127819   4.912   3.784   3.560  0.0450  0.1543  0.0549
    1DIPC   GL227820   4.600   3.986   3.503  0.0130  0.5026 -0.1948
    1DIPC   C1A27821   4.783   3.821   3.962 -0.0034  0.0392 -0.0170
    1DIPC   D2A27822   4.895   4.100   4.307  0.0365 -0.0270 -0.0305
    1DIPC   D3A27823   4.699   3.822   4.632  0.2196  0.3615  0.3478
    1DIPC   C4A27824   4.218   3.949   4.800 -0.0254 -0.2637 -0.1560
    1DIPC   C1B27825   4.931   4.274   3.717 -0.1098  0.1029  0.0598
    1DIPC   D2B27826   5.139   4.355   3.988 -0.1945  0.4886  0.0354
    1DIPC   D3B27827   5.015   4.677   4.233  0.0098 -0.0482 -0.1670
    1DIPC   C4B27828   4.866   4.673   4.659 -0.0971  0.2797 -0.0916
    1DIPC   NC327829  25.249  27.017   3.466  0.3130  0.1819 -0.1457
    1DIPC   PO427830  25.042  26.570   3.283 -0.1696  0.2725 -0.1839
    1DIPC   GL127831  25.041  26.434   3.703  0.2070  0.0195 -0.3726
    1DIPC   GL227832  24.695  26.500   3.940  0.1645  0.1552  0.1698
    1DIPC   C1A27833  25.320  26.469   4.043 -0.0603  0.2585  0.4901
    1DIPC   D2A27834  25.384  26.470   4.534  0.0493 -0.2247 -0.2149
    1DIPC   D3A27835  25.539  26.846   4.860 -0.0324  0.2385 -0.1667
    1DIPC   C4A27836  25.838  26.910   5.220 -0.0540  0.1953  0.3107
    1DIPC   C1B27837  24.789  26.594   4.446  0.2676  0.1627 -0.0091
    1DIPC   D2B27838  24.995  26.635   4.829 -0.0910 -0.0442 -0.1845
    1DIPC   D3B27839  24.931  27.000   5.171 -0.2626 -0.0602 -0.0216
    1DIPC   C4B27840  24.967  27.408   5.087 -0.1265 -0.2050  0.2869
    1DIPC   NC327841  11.810  29.211   2.577 -0.0537 -0.1544 -0.2199
    1DIPC   PO427842  12.256  29.326   2.565 -0.3411  0.2896  0.0222
    1DIPC   GL127843  12.210  29.332   3.056 -0.0091  0.0309  0.0245
    1DIPC   GL227844  12.193   0.025   3.167 -0.0040 -0.0725  0.0215
    1DIPC   C1A27845  11.766  29.466   3.223  0.2153 -0.0003  0.1702
    1DIPC   D2A27846  11.637  29.503   3.700 -0.2945 -0.0278  0.1086
    1DIPC   D3A27847  11.578   0.346   3.891  0.1426 -0.1282 -0.1025
    1DIPC   C4A27848  11.555   0.504   4.306 -0.1188 -0.0470 -0.0175
    1DIPC   C1B27849  12.070   0.145   3.645  0.1989 -0.1404  0.2015
    1DIPC   D2B27850  12.031   0.294   4.125  0.0443  0.0979  0.2278
    1DIPC   D3B27851  12.060  29.509   4.416 -0.3685  0.2042  0.1363
    1DIPC   C4B27852  12.164  29.126   4.337  0.2261 -0.0694  0.0446
    1DIPC   NC327853   8.651  20.901   3.196  0.2292  0.2786 -0.0091
    1DIPC   PO427854   8.646  20.500   2.995  0.0153  0.1082 -0.1737
    1DIPC   GL127855   8.547  20.414   3.428  0.0403 -0.2438 -0.1075
    1DIPC   GL227856   8.603  20.231   3.614 -0.0573  0.0726  0.0674
    1DIPC   C1A27857   8.805  20.691   3.840 -0.0386 -0.2529 -0.0321
    1DIPC   D2A27858   9.151  21.084   3.973  0.2050  0.0085  0.0943
    1DIPC   D3A27859   9.511  21.164   4.209 -0.2096  0.0957  0.0646
    1DIPC   C4A27860   9.677  21.548   4.153 -0.1696 -0.0999  0.1253
    1DIPC   C1B27861   8.301  19.866   3.849 -0.0379 -0.1613 -0.2563
    1DIPC   D2B27862   8.024  19.561   4.224  0.0104  0.0990 -0.2236
    1DIPC   D3B27863   8.153  19.116   4.418 -0.1290  0.0411  0.0569
    1DIPC   C4B27864   8.525  18.934   4.354 -0.1859  0.3356  0.2358
    1DIPC   NC327865  16.946   5.986   2.704 -0.1934  0.1109 -0.4677
    1DIPC   PO427866  16.503   5.872   2.671  0.0491 -0.2085  0.1103
    1DIPC   GL127867  16.602   5.884   3.053  0.0565 -0.1563 -0.0098
    1DIPC   GL227868  16.468   6.105   3.249  0.0040  0.0901  0.1733
    1DIPC   C1A27869  16.470   5.570   3.394 -0.1778 -0.1896  0.0433
    1DIPC   D2A27870  16.526   5.419   3.813  0.1843 -0.0257  0.3491
    1DIPC   D3A27871  16.782   5.139   3.700 -0.0407  0.1984  0.0248
    1DIPC   C4A27872  16.979   4.827   3.828 -0.1406  0.0849 -0.1719
    1DIPC   C1B27873  16.283   5.942   3.734 -0.2577 -0.1735 -0.0677
    1DIPC   D2B27874  16.299   5.843   4.187  0.1768  0.1609  0.1348
    1DIPC   D3B27875  16.484   5.413   4.280 -0.1270  0.2682  0.3149
    1DIPC   C4B27876  16.401   5.048   4.089 -0.0884 -0.1852 -0.1351
    1DIPC   NC327877   8.376   2.505   2.120  0.1804 -0.1774  0.0836
    1DIPC   PO427878   8.877   2.503   1.936  0.2519  0.1630  0.0579
    1DIPC   GL127879   8.798   2.787   2.427 -0.2634  0.4758 -0.1510
    1DIPC   GL227880   8.838   2.504   2.540 -0.0380  0.1044 -0.0803
    1DIPC   C1A27881   8.910   3.112   2.624  0.3575  0.3078  0.2157
    1DIPC   D2A27882   8.551   3.519   2.698  0.1671  0.0070  0.1821
    1DIPC   D3A27883   8.829   3.494   2.959  0.0386 -0.3602  0.1444
    1DIPC   C4A27884   9.153   3.179   3.126  0.1330 -0.2121  0.0159
    1DIPC   C1B27885   8.598   2.405   2.776 -0.0520  0.0968 -0.1271
    1DIPC   D2B27886   8.233   2.147   2.767 -0.2534  0.0952  0.0375
    1DIPC   D3B27887   8.331   2.128   3.166  0.0238  0.3332  0.1906
    1DIPC   C4B27888   7.914   2.164   3.501 -0.2398 -0.0118  0.3069
    1DIPC   NC327889   8.502  28.319   2.458  0.0853 -0.0520  0.0692
    1DIPC   PO427890   8.974  28.342   2.421  0.1468 -0.1456  0.2089
    1DIPC   GL127891   8.854  28.262   2.843 -0.0009 -0.1207 -0.0489
    1DIPC   GL227892   8.741  28.523   2.938  0.1957  0.0381 -0.1544
    1DIPC   C1A27893   8.920  28.232   3.279 -0.0586  0.1730  0.0412
    1DIPC   D2A27894   8.899  28.630   3.589 -0.0728  0.1632  0.0811
    1DIPC   D3A27895   9.043  28.826   3.168 -0.1552  0.0350  0.3258
    1DIPC   C4A27896   8.828  29.042   2.969 -0.0007 -0.1899  0.0233
    1DIPC   C1B27897   8.548  28.754   3.271 -0.2892 -0.0564  0.3512
    1DIPC   D2B27898   8.742  29.059   3.533 -0.1919  0.2082 -0.0624
    1DIPC   D3B27899   8.634  29.300   3.909  0.3004  0.1682  0.0206
    1DIPC   C4B27900   8.736  29.522   4.322 -0.0627 -0.0854 -0.1090
    1DIPC   NC327901  23.760  29.596   3.677  0.0060 -0.0046 -0.2963
    1DIPC   PO427902  23.311   0.168   3.548  0.1272  0.0153  0.0045
    1DIPC   GL127903  23.401   0.380   3.879 -0.0341 -0.0730  0.4501
    1DIPC   GL227904  23.582   0.606   3.918 -0.2942 -0.0237 -0.0950
    1DIPC   C1A27905  23.170   0.658   4.233  0.0453  0.1690 -0.1730
    1DIPC   D2A27906  22.873   0.988   4.130 -0.0595  0.0661 -0.0307
    1DIPC   D3A27907  22.731   0.691   4.430 -0.0491 -0.1344 -0.2219
    1DIPC   C4A27908  22.805   0.816   4.817 -0.2261  0.5187 -0.1713
    1DIPC   C1B27909  23.606   0.991   4.142  0.1507 -0.1422 -0.1549
    1DIPC   D2B27910  23.689   1.285   4.449 -0.1033  0.1586 -0.1550
    1DIPC   D3B27911  23.479   1.551   4.680  0.4149  0.2988  0.0374
    1DIPC   C4B27912  23.623   1.597   5.052  0.1964 -0.0216  0.3130
    1DIPC   NC327913  22.186  22.883   3.937  0.0822 -0.1405  0.1679
    1DIPC   PO427914  22.539  23.067   4.122  0.2032 -0.2646 -0.0670
    1DIPC   GL127915  22.537  23.142   4.502  0.0626 -0.2414 -0.0816
    1DIPC   GL227916  22.441  23.465   4.680  0.2939 -0.1223  0.2102
    1DIPC   C1A27917  22.332  22.985   4.834 -0.0930  0.0744 -0.0552
    1DIPC   D2A27918  22.223  22.827   5.205  0.3790 -0.2560  0.1352
    1DIPC   D3A27919  21.912  22.707   5.628  0.0788 -0.0815  0.0971
    1DIPC   C4A27920  21.881  22.265   5.856  0.1700  0.2262 -0.0811
    1DIPC   C1B27921  22.445  23.496   5.092  0.1372 -0.1709 -0.2569
    1DIPC   D2B27922  22.362  23.530   5.469  0.1079  0.5063  0.0260
    1DIPC   D3B27923  22.621  23.859   5.408 -0.4239  0.1724 -0.1440
    1DIPC   C4B27924  22.538  24.315   5.288  0.0820 -0.1185 -0.0237
    1DIPC   NC327925  13.511  13.411   2.773  0.2455 -0.2234 -0.2397
    1DIPC   PO427926  13.386  13.877   2.950  0.1472  0.2052  0.0882
    1DIPC   GL127927  13.397  13.983   3.372 -0.1308  0.3630  0.0611
    1DIPC   GL227928  13.695  14.101   3.334  0.1131 -0.3597  0.0034
    1DIPC   C1A27929  13.352  13.721   3.726 -0.0978  0.1298  0.3824
    1DIPC   D2A27930  13.622  13.516   4.076  0.2754  0.3519  0.0188
    1DIPC   D3A27931  13.410  13.812   4.443 -0.1112  0.1629 -0.1225
    1DIPC   C4A27932  13.701  13.865   4.719 -0.2249 -0.3663 -0.1177
    1DIPC   C1B27933  13.649  14.194   3.766 -0.1380 -0.0514 -0.2005
    1DIPC   D2B27934  13.707  14.080   4.176  0.0098  0.2134  0.0882
    1DIPC   D3B27935  13.522  14.319   4.625  0.0229 -0.0008 -0.1278
    1DIPC   C4B27936  12.978  14.259   4.642 -0.4018  0.0236  0.0760
    1DIPC   NC327937   9.024  23.603   2.843 -0.2489 -0.1197  0.2245
    1DIPC   PO427938   9.268  23.167   2.742 -0.1649  0.2022 -0.1387
    1DIPC   GL127939   9.418  23.052   3.148 -0.1038  0.3027 -0.2279
    1DIPC   GL227940   9.594  23.443   3.183  0.1720  0.1287  0.1461
    1DIPC   C1A27941   9.774  22.894   3.511  0.0140  0.0463 -0.0088
    1DIPC   D2A27942   9.782  22.469   3.735 -0.1763  0.3798  0.2765
    1DIPC   D3A27943   9.911  22.636   4.179 -0.2164  0.0698  0.1528
    1DIPC   C4A27944  10.300  22.774   4.329  0.0313 -0.1095  0.1166
    1DIPC   C1B27945   9.406  23.263   3.596  0.1324  0.0496  0.0072
    1DIPC   D2B27946   9.523  22.931   3.940 -0.1267 -0.2128 -0.0169
    1DIPC   D3B27947   9.241  23.107   4.250  0.1550  0.0489  0.1061
    1DIPC   C4B27948   8.817  22.987   4.481 -0.0104 -0.0894  0.0519
    1DIPC   NC327949  12.057  14.923   1.974 -0.0310  0.0272  0.0834
    1DIPC   PO427950  12.078  14.702   2.342  0.2191 -0.0960 -0.0410
    1DIPC   GL127951  12.054  14.732   2.713  0.0024  0.1702 -0.0683
    1DIPC   GL227952  11.925  14.934   2.862  0.2279  0.1886 -0.1682
    1DIPC   C1A27953  12.102  14.501   3.187 -0.0524 -0.0038  0.0568
    1DIPC   D2A27954  12.010  14.255   3.540  0.2069  0.2678  0.2216
    1DIPC   D3A27955  11.846  14.144   4.006 -0.0807 -0.2142  0.2906
    1DIPC   C4A27956  11.617  14.514   4.104 -0.0884  0.2491  0.0955
    1DIPC   C1B27957  11.810  14.874   3.283  0.1702  0.2325  0.2052
    1DIPC   D2B27958  11.832  15.164   3.645 -0.0019 -0.0252 -0.0270
    1DIPC   D3B27959  11.592  15.343   4.050  0.1600  0.0861  0.3773
    1DIPC   C4B27960  11.753  15.082   4.366 -0.0308  0.0800 -0.0762
    1DIPC   NC327961   7.851  21.337   2.874  0.0580  0.1510 -0.1079
    1DIPC   PO427962   8.048  21.146   3.208  0.0074  0.2383  0.3757
    1DIPC   GL127963   8.408  21.169   3.507  0.1720  0.0929 -0.0582
    1DIPC   GL227964   8.353  20.907   3.679  0.1983 -0.0692 -0.0552
    1DIPC   C1A27965   8.621  21.306   3.915 -0.1703  0.0930 -0.2804
    1DIPC   D2A27966   8.790  21.210   4.282  0.0806 -0.0493  0.1185
    1DIPC   D3A27967   8.741  20.901   4.526 -0.2398 -0.3252 -0.1368
    1DIPC   C4A27968   8.930  20.882   4.918 -0.1608  0.0106  0.1170
    1DIPC   C1B27969   8.090  20.603   3.826 -0.1461  0.1917 -0.0411
    1DIPC   D2B27970   8.144  20.319   4.144 -0.4687  0.0656 -0.2380
    1DIPC   D3B27971   8.009  20.598   4.508 -0.5946  0.1222  0.0267
    1DIPC   C4B27972   8.072  20.384   4.861  0.0638  0.0381 -0.0001
    1DIPC   NC327973  16.024  24.946   3.126  0.0149  0.1081 -0.1180
    1DIPC   PO427974  15.655  24.957   2.890  0.1061  0.0808  0.1428
    1DIPC   GL127975  15.429  24.917   3.321 -0.0992 -0.2295 -0.2520
    1DIPC   GL227976  15.610  25.261   3.513  0.0487 -0.2402  0.2002
    1DIPC   C1A27977  15.438  24.785   3.709  0.1599  0.0154 -0.0703
    1DIPC   D2A27978  15.092  24.735   3.932  0.2724  0.3132  0.0668
    1DIPC   D3A27979  14.767  25.122   4.145  0.0266  0.0278  0.1125
    1DIPC   C4A27980  14.518  25.393   3.977  0.1688 -0.0089 -0.1998
    1DIPC   C1B27981  15.291  25.325   3.848  0.1433  0.0363  0.0490
    1DIPC   D2B27982  15.244  25.273   4.354  0.2266 -0.1845  0.0061
    1DIPC   D3B27983  15.376  25.642   4.575  0.0453  0.0713  0.0856
    1DIPC   C4B27984  15.089  25.863   4.826 -0.2668 -0.1311 -0.1817
    1DIPC   NC327985  28.649   4.620   2.184 -0.1399  0.2720 -0.1301
    1DIPC   PO427986  29.164   4.754   2.208  0.0055 -0.2255 -0.0000
    1DIPC   GL127987  29.124   5.134   2.441 -0.2462  0.0795  0.1645
    1DIPC   GL227988  29.518   5.163   2.685  0.0235  0.1766  0.0056
    1DIPC   C1A27989  28.889   5.255   2.734 -0.1739 -0.0481  0.2471
    1DIPC   D2A27990  28.782   5.076   3.057 -0.1407 -0.1139 -0.1651
    1DIPC   D3A27991  28.817   5.026   3.574 -0.2254 -0.0854 -0.3720
    1DIPC   C4A27992  28.484   5.160   3.823  0.1730 -0.3000  0.0049
    1DIPC   C1B27993  29.385   5.572   2.909  0.0203  0.0848  0.1674
    1DIPC   D2B27994  29.158   5.986   3.042  0.3137 -0.0882 -0.1779
    1DIPC   D3B27995  28.697   6.052   3.259  0.1918 -0.1095 -0.1815
    1DIPC   C4B27996  28.404   5.812   3.188 -0.1876  0.0978 -0.0418
    1DIPC   NC327997  14.973   3.011   2.128  0.0431 -0.2088 -0.3655
    1DIPC   PO427998  15.176   2.813   2.483  0.2153  0.2515  0.3958
    1DIPC   GL127999  15.026   2.900   2.826 -0.1557 -0.0057 -0.1590
    1DIPC   GL228000  15.315   2.943   2.977  0.0513  0.0374  0.2089
    1DIPC   C1A28001  14.955   3.277   3.074  0.1327  0.0385 -0.0341
    1DIPC   D2A28002  15.050   3.711   3.082  0.1796 -0.1313 -0.1071
    1DIPC   D3A28003  14.566   3.698   3.118 -0.1847 -0.0337 -0.0316
    1DIPC   C4A28004  14.381   4.045   3.305  0.1131 -0.0628  0.0033
    1DIPC   C1B28005  15.327   3.090   3.295 -0.0498 -0.1210  0.0367
    1DIPC   D2B28006  15.241   3.479   3.538  0.0234  0.1226 -0.0292
    1DIPC   D3B28007  15.125   3.727   3.940 -0.0003 -0.1324  0.2151
    1DIPC   C4B28008  15.019   3.559   4.389  0.0472 -0.3818 -0.0123
    1DIPC   NC328009   2.233   8.096   1.818 -0.1662  0.0825 -0.1452
    1DIPC   PO428010   1.931   7.736   1.833  0.1119  0.4085  0.1068
    1DIPC   GL128011   1.860   7.993   2.165 -0.0663  0.0093  0.0257
    1DIPC   GL228012   2.072   8.089   2.356  0.1468 -0.1395  0.1635
    1DIPC   C1A28013   1.671   7.963   2.574 -0.0689  0.0899 -0.2127
    1DIPC   D2A28014   1.280   8.014   2.754  0.0451  0.0153  0.0476
    1DIPC   D3A28015   1.409   7.964   3.093  0.0938 -0.3608 -0.0077
    1DIPC   C4A28016   1.797   7.803   3.045 -0.0276  0.2318 -0.4131
    1DIPC   C1B28017   1.953   8.431   2.563 -0.1941 -0.1187 -0.1950
    1DIPC   D2B28018   1.801   8.701   2.857 -0.1716  0.2450  0.0425
    1DIPC   D3B28019   2.196   8.865   2.977 -0.0832 -0.0228 -0.0535
    1DIPC   C4B28020   2.252   8.674   3.379 -0.3077  0.1048  0.1350
    1DIPC   NC328021  22.236  26.441   3.902  0.1067  0.1026 -0.0865
    1DIPC   PO428022  21.962  26.752   3.714  0.1068  0.0075 -0.3442
    1DIPC   GL128023  21.986  26.841   4.176  0.0042 -0.0434 -0.0083
    1DIPC   GL228024  22.186  26.647   4.393 -0.1074  0.0930  0.1590
    1DIPC   C1A28025  21.908  26.991   4.603  0.3117 -0.0481  0.0681
    1DIPC   D2A28026  21.662  26.974   5.035  0.2774 -0.0540 -0.3235
    1DIPC   D3A28027  21.806  27.396   5.152 -0.1976 -0.0509  0.0175
    1DIPC   C4A28028  21.572  27.639   5.323 -0.2585  0.0456 -0.0347
    1DIPC   C1B28029  22.219  26.582   4.790 -0.1094 -0.1006 -0.2976
    1DIPC   D2B28030  22.101  26.200   5.028 -0.0199  0.0040  0.1024
    1DIPC   D3B28031  21.959  26.468   5.380  0.0050 -0.0331  0.4542
    1DIPC   C4B28032  21.766  26.208   5.636 -0.1098 -0.0703  0.0377
    1DIPC   NC328033  12.128  19.244   2.411 -0.0528 -0.0632 -0.0334
    1DIPC   PO428034  11.769  19.138   2.556 -0.0287 -0.0957 -0.0369
    1DIPC   GL128035  11.978  19.076   2.866 -0.2282  0.0829  0.2902
    1DIPC   GL228036  11.782  18.913   3.109  0.2108 -0.0823  0.1377
    1DIPC   C1A28037  12.263  19.118   3.165  0.2234  0.0536 -0.1675
    1DIPC   D2A28038  12.527  19.168   3.586  0.1687 -0.2710  0.0846
    1DIPC   D3A28039  12.692  19.114   3.924 -0.1683 -0.2679 -0.0776
    1DIPC   C4A28040  12.724  19.232   4.368 -0.0927  0.1608  0.1669
    1DIPC   C1B28041  11.993  18.869   3.593 -0.0498  0.0787  0.1281
    1DIPC   D2B28042  12.311  18.807   3.981 -0.0593 -0.0542 -0.1108
    1DIPC   D3B28043  12.167  19.155   3.974 -0.3482  0.0974 -0.0562
    1DIPC   C4B28044  11.839  19.124   4.269 -0.1193  0.0216  0.0693
    1DIPC   NC328045  20.252  23.586   4.414 -0.1542  0.1903  0.1385
    1DIPC   PO428046  20.514  23.692   4.723  0.0329  0.1995  0.0665
    1DIPC   GL128047  20.537  24.021   5.009 -0.1807 -0.0257 -0.0472
    1DIPC   GL228048  20.906  24.135   4.922  0.2747 -0.0839 -0.2971
    1DIPC   C1A28049  20.250  24.214   5.235 -0.1466  0.0622 -0.0096
    1DIPC   D2A28050  20.096  24.475   5.618  0.1993  0.0678 -0.3535
    1DIPC   D3A28051  20.243  24.917   5.802 -0.0932 -0.0928 -0.0088
    1DIPC   C4A28052  20.276  25.376   5.815 -0.5283  0.0806  0.0669
    1DIPC   C1B28053  21.186  23.959   5.320 -0.1870  0.1097 -0.0771
    1DIPC   D2B28054  21.221  23.721   5.728  0.0946  0.1024  0.1984
    1DIPC   D3B28055  21.541  23.566   5.802 -0.2428  0.2102  0.2394
    1DIPC   C4B28056  21.640  23.277   5.758 -0.1342 -0.3330  0.0940
    1DIPC   NC328057  12.231  26.501   2.565 -0.2452  0.1839  0.0102
    1DIPC   PO428058  12.523  26.798   2.544  0.1229  0.2260 -0.0455
    1DIPC   GL128059  12.778  26.552   2.847  0.0011 -0.1287 -0.1806
    1DIPC   GL228060  12.470  26.627   3.022 -0.0154  0.0373  0.1193
    1DIPC   C1A28061  12.823  26.375   3.246 -0.1510  0.3102  0.0319
    1DIPC   D2A28062  12.671  26.331   3.657  0.2980 -0.1733 -0.2114
    1DIPC   D3A28063  12.929  26.446   3.930  0.3078 -0.2052 -0.0109
    1DIPC   C4A28064  12.983  26.327   4.347  0.0276  0.1841 -0.2559
    1DIPC   C1B28065  12.180  26.682   3.451 -0.2668  0.0066 -0.0487
    1DIPC   D2B28066  12.354  26.650   3.819 -0.4601  0.1262  0.0541
    1DIPC   D3B28067  12.092  26.506   4.116  0.1344 -0.1093 -0.0542
    1DIPC   C4B28068  11.970  26.788   4.469 -0.3219 -0.1053 -0.0505
    1DIPC   NC328069   2.685   7.361   1.446 -0.1508  0.5661  0.2400
    1DIPC   PO428070   2.904   7.713   1.717  0.0003 -0.1089 -0.1963
    1DIPC   GL128071   2.647   7.827   2.059 -0.2424  0.2094 -0.1409
    1DIPC   GL228072   2.642   8.135   2.055 -0.2964 -0.0054  0.0879
    1DIPC   C1A28073   2.474   7.865   2.482 -0.1036  0.4177 -0.2289
    1DIPC   D2A28074   2.185   7.965   2.837  0.1431  0.2883 -0.2328
    1DIPC   D3A28075   1.952   8.272   3.057  0.2067 -0.0180  0.3753
    1DIPC   C4A28076   1.913   8.160   3.484  0.1104 -0.1736 -0.2136
    1DIPC   C1B28077   2.461   8.407   2.404  0.3118 -0.0546  0.1355
    1DIPC   D2B28078   2.311   8.789   2.490 -0.0467 -0.0432  0.3027
    1DIPC   D3B28079   2.592   9.139   2.628 -0.0598  0.0392  0.0873
    1DIPC   C4B28080   2.491   9.449   2.922 -0.4104 -0.1077 -0.2159
    1DIPC   NC328081   7.910  14.580   2.635  0.0336  0.0802  0.0917
    1DIPC   PO428082   7.556  14.845   2.536  0.2457  0.1128 -0.0645
    1DIPC   GL128083   7.375  14.679   2.887 -0.1281 -0.3649  0.1592
    1DIPC   GL228084   7.242  14.349   2.620 -0.0791 -0.1804  0.2523
    1DIPC   C1A28085   7.352  14.743   3.391 -0.0433 -0.1749 -0.0485
    1DIPC   D2A28086   6.982  14.759   3.709 -0.1617 -0.1704 -0.5011
    1DIPC   D3A28087   6.634  14.579   3.920 -0.0304 -0.2329 -0.1711
    1DIPC   C4A28088   6.649  14.792   4.299 -0.3135 -0.0938  0.0948
    1DIPC   C1B28089   6.966  14.284   2.945 -0.0212  0.0466  0.3868
    1DIPC   D2B28090   7.074  14.358   3.394  0.2040 -0.3276  0.0567
    1DIPC   D3B28091   7.221  14.013   3.625  0.2958 -0.1591 -0.0502
    1DIPC   C4B28092   7.581  13.943   3.987  0.1303 -0.0281  0.1429
    1DIPC   NC328093   6.597   6.786   2.537  0.3704  0.0313  0.2076
    1DIPC   PO428094   6.881   7.138   2.471 -0.1991  0.0517 -0.1053
    1DIPC   GL128095   6.797   7.310   2.852 -0.0495 -0.0553 -0.0319
    1DIPC   GL228096   7.045   7.483   3.132 -0.5474  0.0605  0.0794
    1DIPC   C1A28097   6.757   7.162   3.347  0.2818 -0.2790 -0.1303
    1DIPC   D2A28098   6.697   7.065   3.700 -0.0327  0.1114  0.1448
    1DIPC   D3A28099   7.218   7.022   3.727 -0.1022 -0.3104 -0.2119
    1DIPC   C4A28100   7.503   7.197   4.024  0.2861 -0.1403  0.0586
    1DIPC   C1B28101   6.689   7.767   3.155 -0.1820  0.2553  0.0419
    1DIPC   D2B28102   6.339   8.044   3.213  0.1924  0.1953 -0.0983
    1DIPC   D3B28103   6.095   8.010   3.540 -0.2387 -0.2140  0.0628
    1DIPC   C4B28104   6.181   8.409   3.689  0.0924  0.1623  0.0972
    1DIPC   NC328105  15.446  28.444   2.593 -0.4850 -0.3059 -0.2881
    1DIPC   PO428106  15.768  28.567   2.867  0.2976 -0.1721  0.0729
    1DIPC   GL128107  15.651  28.528   3.276 -0.0628  0.4214  0.4444
    1DIPC   GL228108  15.688  28.708   3.567 -0.0881  0.0804 -0.1462
    1DIPC   C1A28109  15.441  28.300   3.585  0.2060 -0.0528  0.1308
    1DIPC   D2A28110  15.330  28.312   4.001 -0.0945  0.2486 -0.0125
    1DIPC   D3A28111  15.411  28.226   4.401  0.0392 -0.1214 -0.0372
    1DIPC   C4A28112  15.192  27.840   4.445 -0.0600  0.0486  0.0451
    1DIPC   C1B28113  15.617  28.743   4.029  0.0870 -0.0110  0.1888
    1DIPC   D2B28114  15.302  28.673   4.364  0.0584  0.6339  0.0995
    1DIPC   D3B28115  14.998  28.816   4.117  0.1562 -0.2030  0.0738
    1DIPC   C4B28116  14.804  28.569   3.883  0.0367  0.1088  0.0094
    1DIPC   NC328117  12.972   4.928   2.739 -0.1134 -0.1015  0.2816
    1DIPC   PO428118  13.325   4.999   2.577 -0.1652 -0.3982  0.0077
    1DIPC   GL128119  13.455   5.035   3.031  0.0128  0.0444 -0.2568
    1DIPC   GL228120  13.111   5.148   3.158  0.0569 -0.1453 -0.1707
    1DIPC   C1A28121  13.773   5.116   3.333  0.0234 -0.0751 -0.1940
    1DIPC   D2A28122  14.133   5.401   3.535 -0.1801 -0.1118  0.0758
    1DIPC   D3A28123  14.172   5.224   3.938  0.1045 -0.2901 -0.0441
    1DIPC   C4A28124  14.651   5.206   4.187  0.2303 -0.0743  0.1848
    1DIPC   C1B28125  13.348   5.062   3.555  0.0139  0.0104  0.2033
    1DIPC   D2B28126  13.636   5.332   3.873 -0.1033  0.0454 -0.0925
    1DIPC   D3B28127  13.467   5.152   4.108  0.2153 -0.1428 -0.1114
    1DIPC   C4B28128  13.339   5.357   4.525 -0.1581  0.3150 -0.1353
    1DIPC   NC328129   7.750   5.480   2.445  0.0275  0.1996  0.1598
    1DIPC   PO428130   7.690   5.919   2.398 -0.2458  0.1206  0.0800
    1DIPC   GL128131   7.989   5.836   2.747  0.0098  0.2106 -0.1265
    1DIPC   GL228132   8.229   5.668   2.617  0.3153 -0.2653 -0.0911
    1DIPC   C1A28133   7.937   5.864   3.037 -0.0412  0.0003 -0.2387
    1DIPC   D2A28134   8.004   5.959   3.484 -0.0220  0.2050  0.1853
    1DIPC   D3A28135   7.862   6.331   3.357 -0.4552 -0.0069 -0.2649
    1DIPC   C4A28136   7.853   6.385   2.855 -0.1522  0.2760 -0.0872
    1DIPC   C1B28137   8.467   5.735   3.001  0.0696 -0.1196  0.1089
    1DIPC   D2B28138   8.365   5.653   3.426  0.0022 -0.1520 -0.0220
    1DIPC   D3B28139   8.294   5.711   3.909 -0.1637  0.1474  0.1530
    1DIPC   C4B28140   8.099   6.126   4.013  0.1506 -0.1329 -0.4304
    1DIPC   NC328141  28.832  19.191   3.490 -0.1054 -0.1998 -0.0534
    1DIPC   PO428142  28.847  18.879   3.677 -0.1256  0.2372 -0.1282
    1DIPC   GL128143  28.710  18.818   4.008 -0.0725  0.1611  0.1926
    1DIPC   GL228144  28.409  18.828   4.020  0.0425  0.0152 -0.1061
    1DIPC   C1A28145  28.705  18.503   4.255  0.2648 -0.0207  0.0662
    1DIPC   D2A28146  28.665  18.107   4.367  0.2058  0.0135  0.0487
    1DIPC   D3A28147  28.997  18.256   4.651  0.0917 -0.3120 -0.0574
    1DIPC   C4A28148  29.258  17.949   4.783 -0.1796 -0.1952  0.2206
    1DIPC   C1B28149  28.443  19.150   4.330  0.1046 -0.1421  0.2176
    1DIPC   D2B28150  28.492  19.541   4.727  0.1639 -0.2574 -0.0941
    1DIPC   D3B28151  28.151  19.717   4.906 -0.0441 -0.2810 -0.1110
    1DIPC   C4B28152  28.047  19.337   5.215 -0.2066  0.3615  0.3012
    1DIPC   NC328153  20.995   2.822   3.137  0.1850  0.1996 -0.0639
    1DIPC   PO428154  20.831   2.370   3.324  0.0153  0.1927  0.2682
    1DIPC   GL128155  21.021   2.657   3.656 -0.4803  0.1999 -0.1748
    1DIPC   GL228156  21.296   2.733   3.558  0.1222  0.3591 -0.0465
    1DIPC   C1A28157  20.955   2.628   4.028 -0.0827 -0.2455  0.1512
    1DIPC   D2A28158  21.238   2.387   4.402 -0.0124  0.1225  0.3039
    1DIPC   D3A28159  21.196   2.701   4.599 -0.1965  0.0344 -0.1355
    1DIPC   C4A28160  21.491   2.890   4.563 -0.4413  0.2510 -0.0648
    1DIPC   C1B28161  21.326   3.042   3.870 -0.1477  0.2463  0.1645
    1DIPC   D2B28162  21.399   3.479   3.794  0.0973 -0.4360 -0.0818
    1DIPC   D3B28163  21.481   3.828   3.506  0.1341 -0.3774  0.0515
    1DIPC   C4B28164  21.780   4.132   3.519  0.1290 -0.1369  0.0532
    1DIPC   NC328165  13.094  10.877   2.800  0.0782 -0.1561  0.4118
    1DIPC   PO428166  13.532  11.038   2.915 -0.0033 -0.1183 -0.0832
    1DIPC   GL128167  13.424  10.999   3.267  0.1195  0.1651  0.1018
    1DIPC   GL228168  13.649  10.967   3.442  0.1039  0.0827 -0.1683
    1DIPC   C1A28169  13.070  11.060   3.520 -0.1608  0.0262  0.1098
    1DIPC   D2A28170  12.787  11.154   3.774  0.0858 -0.2507  0.1951
    1DIPC   D3A28171  12.363  10.971   4.069 -0.1659  0.3238  0.0116
    1DIPC   C4A28172  12.052  10.777   4.007  0.0528  0.2462 -0.0598
    1DIPC   C1B28173  13.386  10.649   3.570  0.0315 -0.0228 -0.0360
    1DIPC   D2B28174  13.382  10.301   3.899  0.0133  0.2594 -0.1104
    1DIPC   D3B28175  13.564  10.527   4.179 -0.2671  0.3018 -0.0204
    1DIPC   C4B28176  13.491  10.936   4.339  0.1735  0.1377 -0.0194
    1DIPC   NC328177  12.345   5.239   2.139 -0.0700 -0.0089  0.2031
    1DIPC   PO428178  12.397   5.539   2.476  0.2986  0.3133 -0.1620
    1DIPC   GL128179  12.329   5.758   2.758  0.3643 -0.0457 -0.1550
    1DIPC   GL228180  12.558   5.820   2.961  0.1378  0.0249  0.3480
    1DIPC   C1A28181  12.015   5.978   2.762 -0.0437 -0.2333  0.2267
    1DIPC   D2A28182  11.858   6.116   3.031  0.3580  0.1419 -0.0629
    1DIPC   D3A28183  12.120   5.782   3.200 -0.1108  0.0999 -0.1379
    1DIPC   C4A28184  12.110   5.845   3.684  0.4635 -0.0546 -0.0521
    1DIPC   C1B28185  12.640   5.563   3.331  0.1447 -0.1503  0.1310
    1DIPC   D2B28186  12.792   5.130   3.565  0.1979 -0.0750 -0.0225
    1DIPC   D3B28187  12.569   5.000   3.223 -0.2827  0.0567 -0.3507
    1DIPC   C4B28188  12.087   4.994   3.193  0.0711 -0.1221 -0.2277
    1DIPC   NC328189  18.303   4.289   2.208 -0.1255  0.1180 -0.0793
    1DIPC   PO428190  18.792   4.207   2.219  0.2029 -0.1728  0.0635
    1DIPC   GL128191  18.857   4.379   2.640 -0.0025  0.2549 -0.0175
    1DIPC   GL228192  18.635   4.540   2.800 -0.1653 -0.0038 -0.0319
    1DIPC   C1A28193  19.070   4.418   3.048 -0.3372  0.0199 -0.3368
    1DIPC   D2A28194  19.500   4.547   3.178 -0.0256 -0.0559 -0.2789
    1DIPC   D3A28195  19.892   4.548   3.045 -0.1513 -0.2699  0.0157
    1DIPC   C4A28196  20.231   4.762   3.218  0.2417 -0.1378  0.0591
    1DIPC   C1B28197  18.531   4.731   3.229  0.1172  0.0500 -0.0717
    1DIPC   D2B28198  18.210   4.952   3.397 -0.0045  0.0648  0.0725
    1DIPC   D3B28199  18.149   5.091   3.748 -0.0049  0.0821  0.2626
    1DIPC   C4B28200  17.766   5.406   3.796  0.0560  0.0977 -0.1881
    1DIPC   NC328201   5.409  17.775   2.672  0.0156  0.2356  0.1464
    1DIPC   PO428202   5.429  18.210   2.948  0.0409 -0.0763  0.0890
    1DIPC   GL128203   5.723  18.197   3.315 -0.0816  0.2076 -0.3050
    1DIPC   GL228204   5.439  18.130   3.534 -0.1252 -0.1899  0.1199
    1DIPC   C1A28205   5.904  18.257   3.711  0.1382 -0.1802  0.0281
    1DIPC   D2A28206   5.831  18.318   4.187  0.0657 -0.2483 -0.0257
    1DIPC   D3A28207   5.960  17.928   4.424  0.0143  0.0050 -0.1820
    1DIPC   C4A28208   5.911  17.548   4.460  0.2894 -0.0370  0.1536
    1DIPC   C1B28209   5.508  18.489   3.827  0.2857 -0.3735 -0.1628
    1DIPC   D2B28210   5.672  18.821   4.091  0.1436  0.0803  0.1943
    1DIPC   D3B28211   5.902  18.744   4.470 -0.4832  0.0827 -0.2303
    1DIPC   C4B28212   5.702  18.339   4.667 -0.0319 -0.2236  0.0090
    1DIPC   NC328213  16.709   3.487   2.739 -0.0828  0.1497  0.0436
    1DIPC   PO428214  17.213   3.580   2.811 -0.0016  0.0755 -0.1779
    1DIPC   GL128215  17.241   3.590   3.177 -0.0623 -0.0929 -0.3850
    1DIPC   GL228216  17.136   3.541   3.385 -0.0098  0.4678  0.1150
    1DIPC   C1A28217  17.576   3.570   3.521  0.0405  0.2212 -0.0092
    1DIPC   D2A28218  17.611   3.652   3.909  0.1309 -0.0335  0.1004
    1DIPC   D3A28219  17.946   3.467   4.097 -0.1507  0.0632 -0.1060
    1DIPC   C4A28220  18.203   3.281   4.386  0.4646 -0.0166  0.0398
    1DIPC   C1B28221  17.113   3.523   3.781  0.1655 -0.0197 -0.0402
    1DIPC   D2B28222  17.093   3.554   4.250 -0.1833 -0.0606  0.1107
    1DIPC   D3B28223  17.480   3.662   4.600  0.2053  0.1990 -0.1090
    1DIPC   C4B28224  17.845   3.726   4.493 -0.0854 -0.0364 -0.0849
    1DIPC   NC328225   5.755  21.184   3.145 -0.1918 -0.0533  0.2670
    1DIPC   PO428226   5.309  21.384   3.271  0.1441  0.0399 -0.0873
    1DIPC   GL128227   5.243  21.495   3.713 -0.1093 -0.0813  0.1884
    1DIPC   GL228228   5.562  21.534   3.826  0.0604  0.0758  0.1335
    1DIPC   C1A28229   5.125  21.813   3.987  0.0965 -0.0679  0.2757
    1DIPC   D2A28230   5.045  22.217   4.065 -0.1033  0.0165 -0.0311
    1DIPC   D3A28231   4.738  22.094   3.896  0.1805  0.4558 -0.1900
    1DIPC   C4A28232   4.332  22.187   3.987  0.1308  0.1055 -0.0442
    1DIPC   C1B28233   5.669  21.424   4.184 -0.0466 -0.0071  0.4181
    1DIPC   D2B28234   5.892  21.668   4.481  0.2451  0.3074 -0.3204
    1DIPC   D3B28235   5.829  22.043   4.657 -0.5788  0.1675  0.1604
    1DIPC   C4B28236   5.940  22.175   5.107 -0.0437  0.0091  0.1139
    1DIPC   NC328237   8.747  14.773   2.472 -0.1225 -0.0284  0.0227
    1DIPC   PO428238   8.376  14.772   2.382 -0.0225  0.1493  0.2009
    1DIPC   GL128239   8.377  14.760   2.853 -0.0337 -0.1131  0.0504
    1DIPC   GL228240   8.348  14.422   3.043 -0.3519  0.0237  0.1116
    1DIPC   C1A28241   8.592  14.752   3.332  0.0501 -0.1854  0.2753
    1DIPC   D2A28242   8.645  14.875   3.787 -0.1164  0.2984 -0.1722
    1DIPC   D3A28243   9.074  14.894   4.035 -0.1910  0.0859 -0.4773
    1DIPC   C4A28244   9.316  15.296   4.185  0.2790 -0.1589  0.0152
    1DIPC   C1B28245   8.248  14.442   3.468  0.4750 -0.2053 -0.1862
    1DIPC   D2B28246   7.922  14.742   3.685 -0.3167  0.1256  0.0684
    1DIPC   D3B28247   8.239  14.747   4.057  0.0071  0.2287 -0.3360
    1DIPC   C4B28248   8.227  14.365   4.247 -0.1125  0.1304  0.0933
    1DIPC   NC328249  25.133  22.888   3.689 -0.0237  0.3697  0.0602
    1DIPC   PO428250  25.236  22.428   3.653  0.0922  0.2360 -0.0519
    1DIPC   GL128251  25.304  22.548   4.088 -0.1561 -0.1309 -0.0216
    1DIPC   GL228252  25.461  22.845   4.146  0.0073  0.1743 -0.0795
    1DIPC   C1A28253  25.298  22.574   4.556  0.0114  0.0127 -0.2198
    1DIPC   D2A28254  25.212  22.756   4.954  0.0007 -0.1637  0.4441
    1DIPC   D3A28255  25.012  22.533   5.215 -0.0409 -0.2028 -0.0894
    1DIPC   C4A28256  25.049  22.085   5.317  0.2549  0.0130  0.1206
    1DIPC   C1B28257  25.547  23.014   4.581 -0.1851  0.0237 -0.0842
    1DIPC   D2B28258  25.572  23.105   5.043  0.2018 -0.2427  0.3224
    1DIPC   D3B28259  25.565  23.346   5.439 -0.0077 -0.1363  0.1574
    1DIPC   C4B28260  25.686  23.041   5.727  0.1739 -0.4361 -0.2553
    1DIPC   NC328261   6.525   3.509   2.578 -0.0245 -0.1491  0.0089
    1DIPC   PO428262   6.338   3.101   2.446  0.0966 -0.4431  0.1718
    1DIPC   GL128263   6.362   3.076   2.924  0.1286 -0.1058 -0.0879
    1DIPC   GL228264   6.590   2.871   3.124  0.1823 -0.2370 -0.1435
    1DIPC   C1A28265   6.211   3.225   3.344  0.0384  0.0117  0.0012
    1DIPC   D2A28266   6.141   3.538   3.527  0.0331  0.1281 -0.2099
    1DIPC   D3A28267   5.686   3.519   3.263  0.0585  0.2741  0.1421
    1DIPC   C4A28268   5.402   3.618   3.607 -0.1707 -0.2196 -0.2615
    1DIPC   C1B28269   6.624   2.785   3.492  0.0421 -0.3861 -0.1661
    1DIPC   D2B28270   6.618   2.901   3.947 -0.2614  0.2510 -0.2522
    1DIPC   D3B28271   6.502   3.040   4.339 -0.1438 -0.4049 -0.2565
    1DIPC   C4B28272   6.549   3.396   4.579 -0.0795  0.3063  0.0012
    1DIPC   NC328273   3.755   8.645   1.320  0.1136  0.0504  0.2445
    1DIPC   PO428274   3.498   8.528   1.745  0.1271 -0.2658  0.0501
    1DIPC   GL128275   3.323   8.484   2.192  0.0693  0.1565  0.0494
    1DIPC   GL228276   3.378   8.722   2.367  0.0534 -0.0409  0.0918
    1DIPC   C1A28277   3.079   8.355   2.424 -0.1151 -0.2517  0.1878
    1DIPC   D2A28278   2.969   8.009   2.446 -0.1572  0.1171  0.2883
    1DIPC   D3A28279   2.735   8.209   2.805  0.3610  0.1646 -0.0569
    1DIPC   C4A28280   2.341   8.414   2.884  0.1446  0.1221 -0.0227
    1DIPC   C1B28281   3.434   8.596   2.734  0.0261  0.0524 -0.2433
    1DIPC   D2B28282   3.522   8.431   3.076  0.0863  0.0034 -0.0034
    1DIPC   D3B28283   3.250   8.503   3.320 -0.1619  0.3352  0.1891
    1DIPC   C4B28284   3.335   8.926   3.486 -0.2225  0.2834  0.1376
    1DIPC   NC328285  18.256   1.350   3.345  0.0360 -0.1851  0.1339
    1DIPC   PO428286  17.890   1.199   3.047 -0.1634  0.1299 -0.1882
    1DIPC   GL128287  17.788   1.176   3.457 -0.2093  0.0718 -0.1242
    1DIPC   GL228288  17.934   1.453   3.792  0.0266  0.0110 -0.0465
    1DIPC   C1A28289  17.492   1.231   3.823 -0.2973 -0.2620 -0.2453
    1DIPC   D2A28290  17.069   1.143   4.037 -0.3208 -0.0274  0.2977
    1DIPC   D3A28291  16.711   1.053   3.753  0.2153  0.0102 -0.2081
    1DIPC   C4A28292  16.601   0.913   3.364 -0.1577  0.1865  0.0655
    1DIPC   C1B28293  18.363   1.537   3.992 -0.1561 -0.1764 -0.1558
    1DIPC   D2B28294  18.636   1.719   4.269 -0.2991  0.0496  0.0265
    1DIPC   D3B28295  18.336   1.913   4.393 -0.2412  0.2043 -0.0620
    1DIPC   C4B28296  18.207   1.672   4.708 -0.1947 -0.2789 -0.1206
    1DIPC   NC328297   8.005   3.040   1.965 -0.1155  0.3975 -0.1578
    1DIPC   PO428298   8.123   3.415   2.324 -0.1190  0.0892  0.2942
    1DIPC   GL128299   8.034   3.382   2.813 -0.0815 -0.2536 -0.1725
    1DIPC   GL228300   7.713   3.593   2.861  0.2709 -0.0734 -0.1709
    1DIPC   C1A28301   7.978   3.098   3.133 -0.0173  0.0100 -0.1686
    1DIPC   D2A28302   8.066   3.108   3.529  0.0073 -0.3408 -0.1259
    1DIPC   D3A28303   8.092   3.013   3.964 -0.1839  0.1652 -0.0710
    1DIPC   C4A28304   7.891   2.752   4.204  0.0441 -0.2356 -0.3065
    1DIPC   C1B28305   7.503   3.305   3.119 -0.0106 -0.1419 -0.1942
    1DIPC   D2B28306   7.545   3.224   3.569  0.1873 -0.1409  0.0851
    1DIPC   D3B28307   7.183   3.236   3.942 -0.0749 -0.1513 -0.1298
    1DIPC   C4B28308   6.979   3.395   4.324 -0.3164  0.2667 -0.1486
    1DIPC   NC328309  14.140  23.754   2.246 -0.0414  0.2775 -0.2861
    1DIPC   PO428310  14.014  23.435   2.460  0.0625  0.2709 -0.1794
    1DIPC   GL128311  13.882  23.424   2.855 -0.0288  0.1128  0.0256
    1DIPC   GL228312  13.719  23.078   2.907  0.0328  0.1683  0.2305
    1DIPC   C1A28313  13.803  23.662   3.131 -0.0191  0.0399  0.1457
    1DIPC   D2A28314  13.489  23.833   3.495 -0.3458 -0.0674 -0.0772
    1DIPC   D3A28315  13.692  23.952   3.844 -0.3915  0.1663  0.0125
    1DIPC   C4A28316  13.446  23.893   4.131  0.2169  0.1534  0.6229
    1DIPC   C1B28317  13.399  23.277   3.079 -0.2477  0.5117  0.1050
    1DIPC   D2B28318  13.215  23.342   3.499 -0.2416  0.0678 -0.3669
    1DIPC   D3B28319  12.884  23.248   3.794 -0.0696 -0.1170  0.5034
    1DIPC   C4B28320  12.998  22.883   4.084 -0.2247  0.1229  0.1223
    1DIPC   NC328321  10.506  11.936   2.271 -0.1979 -0.1388  0.1139
    1DIPC   PO428322  10.292  11.615   2.564 -0.2182 -0.3333  0.0635
    1DIPC   GL128323  10.143  11.478   2.928  0.1738  0.1617  0.0269
    1DIPC   GL228324  10.044  11.163   2.863  0.1197  0.0563  0.0396
    1DIPC   C1A28325  10.056  11.488   3.346 -0.1389  0.2154  0.0566
    1DIPC   D2A28326   9.793  11.621   3.703 -0.1138  0.4429 -0.2027
    1DIPC   D3A28327   9.854  11.221   3.693 -0.1254  0.4637 -0.0359
    1DIPC   C4A28328  10.212  11.040   3.600  0.0776  0.2556  0.2220
    1DIPC   C1B28329  10.268  11.057   3.137 -0.2658  0.0289 -0.2496
    1DIPC   D2B28330  10.653  11.250   3.322  0.0217 -0.3071 -0.3419
    1DIPC   D3B28331  10.755  11.176   3.709 -0.3702 -0.2578 -0.1717
    1DIPC   C4B28332  11.043  10.913   3.828  0.1280  0.0749  0.0156
    1DIPC   NC328333  12.102  22.408   2.330 -0.4357 -0.2225 -0.0875
    1DIPC   PO428334  11.673  22.353   2.438  0.0801 -0.3468 -0.1664
    1DIPC   GL128335  11.808  21.963   2.681 -0.1366  0.0425  0.2673
    1DIPC   GL228336  11.975  22.077   2.897 -0.1214 -0.2556 -0.4567
    1DIPC   C1A28337  11.808  21.616   3.035 -0.0748  0.1038 -0.2349
    1DIPC   D2A28338  11.739  21.627   3.459 -0.1184 -0.1790 -0.4325
    1DIPC   D3A28339  11.657  22.057   3.324  0.1228 -0.0004  0.3426
    1DIPC   C4A28340  11.442  22.145   2.985  0.0827 -0.0727  0.1086
    1DIPC   C1B28341  12.218  21.936   3.342  0.0657  0.1773  0.2270
    1DIPC   D2B28342  12.093  22.206   3.753 -0.2924 -0.2300 -0.1328
    1DIPC   D3B28343  12.081  22.586   4.037 -0.0227 -0.1810 -0.3778
    1DIPC   C4B28344  12.204  22.556   4.430  0.1953 -0.0972 -0.3123
    1DIPC   NC328345   0.659  21.294   3.784  0.1453  0.1264 -0.0973
    1DIPC   PO428346   0.977  21.527   3.786  0.0672  0.0521  0.1826
    1DIPC   GL128347   0.771  21.487   4.220 -0.0953 -0.0433 -0.0832
    1DIPC   GL228348   0.980  21.322   4.400  0.4564  0.3374 -0.1120
    1DIPC   C1A28349   0.654  21.772   4.451 -0.1212  0.1913  0.0498
    1DIPC   D2A28350   0.553  22.179   4.509  0.0673  0.0375  0.0596
    1DIPC   D3A28351   0.969  22.171   4.622 -0.2238  0.0348  0.0472
    1DIPC   C4A28352   1.239  22.398   4.230  0.3109  0.1874 -0.1464
    1DIPC   C1B28353   0.978  21.296   4.773 -0.2192 -0.1185  0.0779
    1DIPC   D2B28354   1.329  21.397   5.149 -0.2738  0.2253  0.1156
    1DIPC   D3B28355   1.189  21.025   5.222 -0.2745  0.1366  0.0280
    1DIPC   C4B28356   1.277  20.644   4.950 -0.3028 -0.2274 -0.2058
    1DIPC   NC328357   8.295  12.864   2.101  0.0847 -0.3280  0.0372
    1DIPC   PO428358   8.175  12.486   2.014 -0.0980  0.2988 -0.0522
    1DIPC   GL128359   7.918  12.192   2.303  0.1321 -0.3409 -0.0056
    1DIPC   GL228360   8.035  11.889   2.335  0.1140  0.0522  0.2457
    1DIPC   C1A28361   7.907  12.209   2.703  0.2793  0.1341  0.1506
    1DIPC   D2A28362   8.039  12.437   3.098  0.2079  0.1844 -0.3816
    1DIPC   D3A28363   7.822  12.078   3.281  0.2174  0.0798  0.2065
    1DIPC   C4A28364   8.004  11.758   3.638 -0.0077  0.0687 -0.3021
    1DIPC   C1B28365   8.293  11.895   2.675  0.0463 -0.3458 -0.0455
    1DIPC   D2B28366   8.261  11.974   3.040 -0.1185  0.3384 -0.2212
    1DIPC   D3B28367   8.282  11.569   3.179 -0.2611 -0.0229  0.1168
    1DIPC   C4B28368   8.103  11.128   3.046 -0.1100  0.0124  0.0149
    1DIPC   NC328369  29.348   2.172   2.309  0.0839  0.0817  0.1056
    1DIPC   PO428370  29.610   2.516   2.361  0.1852 -0.2225  0.0545
    1DIPC   GL128371   0.027   2.564   2.806 -0.3169  0.0110  0.1223
    1DIPC   GL228372   0.236   2.843   2.950  0.0085 -0.3289  0.0633
    1DIPC   C1A28373  29.521   2.501   3.198  0.0033 -0.0438  0.1358
    1DIPC   D2A28374  29.517   2.695   3.538  0.0162  0.0993 -0.0410
    1DIPC   D3A28375   0.253   2.700   3.862 -0.2424 -0.0516  0.1507
    1DIPC   C4A28376   0.298   2.664   4.378  0.3006  0.0126  0.2179
    1DIPC   C1B28377   0.094   3.079   3.300 -0.0971  0.3715  0.3140
    1DIPC   D2B28378   0.066   3.452   3.588 -0.0835  0.0720  0.1754
    1DIPC   D3B28379   0.262   3.154   3.773  0.0223  0.2740 -0.4967
    1DIPC   C4B28380   0.420   3.253   4.164  0.0232  0.0579  0.2742
    1DIPC   NC328381  16.199   2.772   2.779 -0.2390  0.2257 -0.0383
    1DIPC   PO428382  16.641   2.927   2.896  0.2792 -0.0873  0.1135
    1DIPC   GL128383  16.526   3.157   3.170  0.1682  0.0279  0.0642
    1DIPC   GL228384  16.715   3.407   3.248 -0.1796  0.0210  0.0676
    1DIPC   C1A28385  16.293   3.159   3.547 -0.0667  0.1075  0.2458
    1DIPC   D2A28386  16.161   3.312   3.947 -0.2498  0.1053  0.0906
    1DIPC   D3A28387  15.912   3.000   4.150 -0.0006  0.1083  0.0810
    1DIPC   C4A28388  16.241   2.865   4.435 -0.1530  0.1740  0.5695
    1DIPC   C1B28389  16.629   3.469   3.686 -0.1333  0.0925  0.0600
    1DIPC   D2B28390  16.616   3.622   4.096  0.1497 -0.3073  0.0198
    1DIPC   D3B28391  16.418   3.901   3.878  0.1235  0.1313 -0.0966
    1DIPC   C4B28392  16.337   3.801   3.432  0.2645 -0.0665 -0.0177
    1DIPC   NC328393  14.697  13.388   2.208  0.1318  0.0149  0.0308
    1DIPC   PO428394  14.619  13.520   2.665 -0.0234 -0.2443  0.0313
    1DIPC   GL128395  14.616  13.734   3.064 -0.3907  0.1087  0.0353
    1DIPC   GL228396  14.549  13.567   3.338 -0.0242  0.2238 -0.1712
    1DIPC   C1A28397  14.680  14.019   3.383  0.2289  0.0638 -0.0411
    1DIPC   D2A28398  14.939  14.019   3.755 -0.0289  0.0187 -0.0804
    1DIPC   D3A28399  14.864  14.252   4.271  0.1066 -0.2484  0.2489
    1DIPC   C4A28400  14.648  14.134   4.629  0.2137  0.1839 -0.1243
    1DIPC   C1B28401  14.442  13.536   3.783  0.0864  0.1566 -0.1652
    1DIPC   D2B28402  14.305  13.311   4.128 -0.2664  0.0502  0.0118
    1DIPC   D3B28403  14.009  13.183   4.427  0.1060  0.1316  0.2199
    1DIPC   C4B28404  14.181  13.188   4.776 -0.1628 -0.0168 -0.1961
    1DIPC   NC328405  19.383  28.993   3.431  0.1177  0.1260 -0.1515
    1DIPC   PO428406  19.586  29.396   3.585  0.0674 -0.0170 -0.1045
    1DIPC   GL128407  19.263  29.254   3.889 -0.2038 -0.0348 -0.0695
    1DIPC   GL228408  18.872  29.353   3.849 -0.3739 -0.1050  0.2636
    1DIPC   C1A28409  19.120  29.326   4.297 -0.0507 -0.0676 -0.4557
    1DIPC   D2A28410  19.155  29.485   4.828  0.1152  0.1211 -0.0370
    1DIPC   D3A28411  19.189  29.306   5.322  0.3014 -0.0818 -0.1638
    1DIPC   C4A28412  19.593  29.147   5.657  0.1015  0.1641 -0.1719
    1DIPC   C1B28413  18.991   0.114   4.116 -0.0597  0.1198  0.0012
    1DIPC   D2B28414  19.012   0.391   4.528 -0.0496 -0.3159 -0.4207
    1DIPC   D3B28415  19.045   0.732   4.888  0.1629 -0.6280  0.1410
    1DIPC   C4B28416  18.826   0.876   5.243 -0.0903  0.0693 -0.0525
    1DIPC   NC328417  13.634  21.866   2.147 -0.0869  0.1371 -0.4952
    1DIPC   PO428418  13.704  21.841   2.664  0.3935 -0.0115 -0.0131
    1DIPC   GL128419  13.779  22.136   2.994 -0.2692 -0.0581  0.3283
    1DIPC   GL228420  13.453  22.090   3.091 -0.1293 -0.1905 -0.1743
    1DIPC   C1A28421  13.841  22.092   3.446 -0.0704 -0.1800  0.3339
    1DIPC   D2A28422  13.663  22.057   3.855  0.2207  0.0169 -0.0515
    1DIPC   D3A28423  13.552  21.625   3.883 -0.1554 -0.2257 -0.2297
    1DIPC   C4A28424  13.513  21.561   4.327 -0.0406  0.1155  0.0867
    1DIPC   C1B28425  13.405  22.281   3.521  0.1705 -0.0072  0.4351
    1DIPC   D2B28426  12.917  22.456   3.733  0.1008 -0.0860 -0.0360
    1DIPC   D3B28427  13.279  22.469   3.970  0.2044  0.1504 -0.3196
    1DIPC   C4B28428  13.731  22.578   3.866  0.0858  0.0715 -0.1048
    1DIPC   NC328429   3.142   6.288   2.307 -0.0782 -0.0199 -0.1569
    1DIPC   PO428430   3.596   6.233   2.332  0.2584 -0.2831 -0.2108
    1DIPC   GL128431   3.404   6.372   2.761  0.0629 -0.0363  0.3388
    1DIPC   GL228432   3.262   6.208   2.965  0.0867  0.3028 -0.0823
    1DIPC   C1A28433   3.473   6.692   3.007 -0.1954 -0.1556  0.1896
    1DIPC   D2A28434   3.094   6.911   3.296 -0.0674  0.1405  0.1810
    1DIPC   D3A28435   3.175   7.239   3.543  0.0945  0.2384  0.1275
    1DIPC   C4A28436   3.026   7.180   3.981  0.1125  0.0084 -0.0273
    1DIPC   C1B28437   3.214   6.425   3.362  0.3439  0.0179  0.0224
    1DIPC   D2B28438   2.864   6.343   3.870 -0.0267 -0.0410 -0.0218
    1DIPC   D3B28439   2.657   6.073   3.802 -0.0952  0.1579 -0.0624
    1DIPC   C4B28440   2.618   5.820   3.386  0.2608  0.2436  0.0025
    1DIPC   NC328441  26.720  26.424   2.812 -0.2262  0.3641 -0.1853
    1DIPC   PO428442  26.415  26.235   3.098  0.0721 -0.1291 -0.1370
    1DIPC   GL128443  26.679  26.251   3.499 -0.0862  0.1426 -0.1084
    1DIPC   GL228444  26.978  26.093   3.540  0.1678  0.2005  0.2267
    1DIPC   C1A28445  26.668  26.235   3.913 -0.0839 -0.0893  0.0199
    1DIPC   D2A28446  26.787  26.579   4.261 -0.0446 -0.0668 -0.0318
    1DIPC   D3A28447  27.175  26.334   4.417 -0.0258  0.0039  0.1392
    1DIPC   C4A28448  27.601  26.165   4.544  0.3756 -0.0665 -0.3084
    1DIPC   C1B28449  26.908  25.733   3.768  0.3453  0.0898 -0.2801
    1DIPC   D2B28450  26.638  25.373   3.796 -0.1783  0.2702  0.0296
    1DIPC   D3B28451  26.791  25.372   4.138 -0.0993 -0.0987  0.1221
    1DIPC   C4B28452  26.952  25.497   4.564  0.1124  0.1748 -0.0915
    1DIPC   NC328453  11.600  27.033   2.491 -0.0216  0.0327 -0.1523
    1DIPC   PO428454  11.213  26.865   2.722  0.0963  0.1143  0.2314
    1DIPC   GL128455  11.493  26.898   2.963 -0.0074 -0.0071  0.1776
    1DIPC   GL228456  11.603  26.619   3.185 -0.1405 -0.1094 -0.0961
    1DIPC   C1A28457  11.828  27.082   3.253 -0.1608 -0.0211 -0.3248
    1DIPC   D2A28458  11.873  27.152   3.737  0.1235 -0.1626 -0.0366
    1DIPC   D3A28459  11.784  27.498   3.991 -0.2369  0.1352  0.0270
    1DIPC   C4A28460  12.093  27.753   3.768 -0.2288  0.0930  0.4374
    1DIPC   C1B28461  11.656  26.670   3.597  0.0662  0.1628  0.1450
    1DIPC   D2B28462  11.651  26.679   3.956 -0.0888 -0.1807 -0.1175
    1DIPC   D3B28463  11.383  27.071   3.910  0.2386 -0.1767  0.1249
    1DIPC   C4B28464  11.397  27.085   3.454  0.0654 -0.0441  0.2805
    1DIPC   NC328465  13.077  18.378   2.642 -0.2805 -0.3304  0.1510
    1DIPC   PO428466  12.979  18.879   2.607 -0.4079 -0.1542 -0.2455
    1DIPC   GL128467  12.974  18.809   3.014 -0.1325 -0.2152 -0.0752
    1DIPC   GL228468  12.865  18.417   3.140 -0.0873  0.0196 -0.1428
    1DIPC   C1A28469  13.029  19.011   3.524  0.4461  0.0225 -0.0143
    1DIPC   D2A28470  12.971  19.379   3.572 -0.0524  0.0831  0.3459
    1DIPC   D3A28471  12.620  19.575   3.774  0.0118 -0.0447 -0.1253
    1DIPC   C4A28472  12.714  19.697   4.213  0.1438  0.0606  0.0273
    1DIPC   C1B28473  13.039  18.172   3.495  0.0449 -0.1315 -0.0234
    1DIPC   D2B28474  13.166  17.850   3.662 -0.0981 -0.2291 -0.1898
    1DIPC   D3B28475  12.730  17.860   3.727  0.0823 -0.1148  0.0954
    1DIPC   C4B28476  12.582  17.999   4.220  0.1297  0.0643 -0.2600
    1DIPC   NC328477  12.709  17.206   2.528  0.1717 -0.2650  0.1235
    1DIPC   PO428478  12.911  16.838   2.690 -0.0004 -0.1663 -0.0939
    1DIPC   GL128479  12.864  16.714   3.076  0.1926  0.2733  0.0645
    1DIPC   GL228480  12.835  16.399   3.018  0.2351 -0.0440 -0.0331
    1DIPC   C1A28481  12.865  16.685   3.461 -0.0870  0.2814 -0.0307
    1DIPC   D2A28482  12.634  16.358   3.560  0.0023 -0.1141  0.0464
    1DIPC   D3A28483  12.390  16.606   3.941 -0.0138  0.2174 -0.2490
    1DIPC   C4A28484  12.571  16.929   4.156  0.0789 -0.0494  0.0995
    1DIPC   C1B28485  12.966  16.057   3.174  0.1237  0.3608 -0.0232
    1DIPC   D2B28486  13.001  15.984   3.587  0.2548 -0.0881 -0.1561
    1DIPC   D3B28487  12.964  15.583   3.793  0.0946 -0.1059  0.0393
    1DIPC   C4B28488  12.596  15.483   4.018 -0.2128 -0.1715 -0.0953
    1DIPC   NC328489  25.625  22.261   3.419 -0.1625  0.0547  0.1512
    1DIPC   PO428490  26.049  21.981   3.554 -0.2836 -0.3474 -0.0325
    1DIPC   GL128491  25.941  22.204   3.946  0.0110  0.0862  0.0950
    1DIPC   GL228492  26.209  22.211   4.293  0.2835  0.2802 -0.0507
    1DIPC   C1A28493  25.639  22.284   4.264 -0.1784 -0.1366 -0.1157
    1DIPC   D2A28494  25.295  22.102   4.418  0.1327 -0.1941  0.0119
    1DIPC   D3A28495  25.680  21.731   4.301 -0.0472  0.1366 -0.0760
    1DIPC   C4A28496  26.062  21.650   4.542  0.1199  0.1010  0.0601
    1DIPC   C1B28497  25.906  22.123   4.657 -0.3506 -0.0551 -0.1018
    1DIPC   D2B28498  25.760  21.763   4.870 -0.0243 -0.2748 -0.2279
    1DIPC   D3B28499  26.026  21.367   4.919 -0.1366 -0.0950 -0.0602
    1DIPC   C4B28500  26.379  21.321   5.285  0.0482 -0.1049  0.1165
    1DIPC   NC328501   9.029  14.290   2.318 -0.1892 -0.0882  0.1463
    1DIPC   PO428502   9.242  14.591   2.588  0.1604 -0.0229  0.2179
    1DIPC   GL128503   9.303  14.455   3.027 -0.0893 -0.1574 -0.2571
    1DIPC   GL228504   9.114  14.731   3.302 -0.0597 -0.1362  0.2547
    1DIPC   C1A28505   9.497  14.436   3.436  0.3507  0.0561 -0.0316
    1DIPC   D2A28506   9.763  14.244   3.784  0.1482 -0.1392  0.0019
    1DIPC   D3A28507   9.316  14.067   3.764 -0.2694 -0.0079 -0.1945
    1DIPC   C4A28508   9.023  13.869   4.012 -0.3273 -0.0291  0.0930
    1DIPC   C1B28509   9.035  14.549   3.707 -0.2865  0.0584 -0.1873
    1DIPC   D2B28510   9.120  14.331   4.209  0.2138 -0.0498  0.1290
    1DIPC   D3B28511   9.541  14.484   4.334 -0.0672  0.0326  0.0134
    1DIPC   C4B28512   9.504  14.901   4.333  0.0258 -0.1247 -0.1442
    1DIPC   NC328513   6.052  11.938   2.180  0.2624 -0.1042 -0.1278
    1DIPC   PO428514   6.486  12.009   2.058  0.1832  0.1241 -0.1863
    1DIPC   GL128515   6.531  11.690   2.453 -0.0526  0.0333 -0.2341
    1DIPC   GL228516   6.171  11.770   2.677 -0.3202  0.2174  0.0143
    1DIPC   C1A28517   6.511  11.359   2.706 -0.1136  0.0091 -0.1850
    1DIPC   D2A28518   6.592  11.301   3.226 -0.0399  0.0821 -0.0407
    1DIPC   D3A28519   6.125  11.295   2.980  0.1404  0.0689  0.1776
    1DIPC   C4A28520   5.898  11.689   3.127 -0.0594  0.1685 -0.0023
    1DIPC   C1B28521   6.401  11.703   3.087 -0.0236 -0.1696 -0.0464
    1DIPC   D2B28522   6.309  11.792   3.536  0.0966  0.0297 -0.0517
    1DIPC   D3B28523   6.045  12.090   3.416  0.1524 -0.0385  0.2376
    1DIPC   C4B28524   6.014  12.489   3.542  0.0452  0.0456 -0.0965
    1DIPC   NC328525  21.973  24.748   3.886 -0.2316 -0.0674  0.1686
    1DIPC   PO428526  21.802  25.176   3.624  0.1346 -0.2282 -0.1851
    1DIPC   GL128527  21.855  25.180   4.053  0.2853 -0.1730 -0.4763
    1DIPC   GL228528  22.058  25.126   4.346 -0.0146 -0.1207 -0.1721
    1DIPC   C1A28529  21.596  25.393   4.445  0.0930  0.1592  0.0999
    1DIPC   D2A28530  21.144  25.501   4.484 -0.1464  0.1263 -0.2862
    1DIPC   D3A28531  20.744  25.737   4.727 -0.0534  0.1255 -0.1002
    1DIPC   C4A28532  20.604  26.071   4.977  0.0677  0.2745  0.2951
    1DIPC   C1B28533  22.220  24.855   4.649 -0.0619 -0.0645  0.1324
    1DIPC   D2B28534  22.546  24.798   4.915 -0.3374 -0.2015 -0.0111
    1DIPC   D3B28535  22.249  25.182   5.165 -0.0401  0.1887 -0.4921
    1DIPC   C4B28536  22.053  25.032   5.516 -0.2638  0.2506  0.1512
    1DIPC   NC328537  13.517  25.955   2.638 -0.0643 -0.2888  0.2488
    1DIPC   PO428538  13.720  26.342   2.907 -0.1889 -0.0521 -0.0425
    1DIPC   GL128539  13.715  26.360   3.307 -0.0977 -0.0384  0.0495
    1DIPC   GL228540  13.755  26.667   3.434 -0.0180  0.0904  0.0510
    1DIPC   C1A28541  13.662  25.901   3.559 -0.0202 -0.2818  0.0161
    1DIPC   D2A28542  13.512  25.499   3.486 -0.2291 -0.2077 -0.3892
    1DIPC   D3A28543  13.799  25.127   3.555 -0.0936 -0.0202  0.0296
    1DIPC   C4A28544  13.558  24.759   3.433 -0.0648 -0.3288 -0.5646
    1DIPC   C1B28545  13.748  26.326   3.785  0.3116  0.0665 -0.0967
    1DIPC   D2B28546  13.380  26.042   3.904 -0.2225  0.3292 -0.2803
    1DIPC   D3B28547  13.451  25.945   4.305  0.3577  0.1129 -0.2595
    1DIPC   C4B28548  13.803  25.845   4.443  0.1193 -0.0639 -0.2054
    1DIPC   NC328549   8.497  17.522   3.026 -0.2227  0.0013 -0.1846
    1DIPC   PO428550   8.863  17.305   2.805  0.0367 -0.0220 -0.0941
    1DIPC   GL128551   8.631  17.024   2.994  0.1352 -0.1117  0.0552
    1DIPC   GL228552   8.617  16.726   2.868  0.1404  0.0056  0.0321
    1DIPC   C1A28553   8.354  16.900   3.355 -0.0786  0.0860 -0.1597
    1DIPC   D2A28554   8.626  16.846   3.738  0.0669  0.0861  0.2904
    1DIPC   D3A28555   8.995  17.098   3.932 -0.0279 -0.0832  0.1080
    1DIPC   C4A28556   8.954  17.322   4.374 -0.2236 -0.0303  0.0128
    1DIPC   C1B28557   8.648  16.467   3.317 -0.1000 -0.0103 -0.0921
    1DIPC   D2B28558   9.063  16.464   3.692  0.0309  0.2258 -0.0437
    1DIPC   D3B28559   9.299  16.842   3.676 -0.2628 -0.0139 -0.3087
    1DIPC   C4B28560   9.728  16.792   3.882  0.1378 -0.2340 -0.2996
    1DIPC   NC328561   3.628  19.023   3.038 -0.1046  0.0277  0.0101
    1DIPC   PO428562   3.456  19.441   3.010 -0.0575 -0.1459  0.0437
    1DIPC   GL128563   3.290  19.208   3.370 -0.1230 -0.1341  0.3208
    1DIPC   GL228564   3.385  19.452   3.692  0.0340  0.0301  0.0067
    1DIPC   C1A28565   3.196  18.914   3.757  0.0908  0.0445 -0.4859
    1DIPC   D2A28566   3.173  19.149   4.166  0.0519  0.3385  0.0363
    1DIPC   D3A28567   3.078  19.021   4.557 -0.0021  0.6070 -0.3926
    1DIPC   C4A28568   3.441  19.073   4.847  0.1985  0.1215  0.0819
    1DIPC   C1B28569   3.456  19.616   4.097  0.0464  0.2551  0.1177
    1DIPC   D2B28570   3.531  19.410   4.436 -0.0863 -0.0275  0.0139
    1DIPC   D3B28571   3.109  19.488   4.661  0.1206 -0.1176  0.0053
    1DIPC   C4B28572   3.108  19.338   5.111 -0.2646 -0.1993 -0.0530
    1DIPC   NC328573   3.827  26.230   2.993 -0.0149 -0.0934 -0.1702
    1DIPC   PO428574   3.606  26.473   3.242  0.1777 -0.3075  0.2298
    1DIPC   GL128575   3.155  26.736   3.463 -0.1988  0.1867  0.1075
    1DIPC   GL228576   3.214  27.045   3.641  0.2185  0.2505  0.2367
    1DIPC   C1A28577   3.017  26.587   3.895  0.0368 -0.2106 -0.0096
    1DIPC   D2A28578   3.051  26.533   4.255 -0.2455  0.0499  0.1887
    1DIPC   D3A28579   3.225  26.412   4.637 -0.0547 -0.2071  0.0777
    1DIPC   C4A28580   3.667  26.415   4.788  0.0075 -0.1667 -0.2357
    1DIPC   C1B28581   3.293  26.911   4.081 -0.2979 -0.2990 -0.2377
    1DIPC   D2B28582   3.310  26.933   4.529  0.1865  0.0201 -0.1330
    1DIPC   D3B28583   3.689  27.209   4.727  0.1904  0.0424  0.1573
    1DIPC   C4B28584   4.067  26.897   4.819  0.0667 -0.4446 -0.0123
    1DIPC   NC328585   6.537   4.729   1.619 -0.1398 -0.3736  0.3504
    1DIPC   PO428586   6.874   4.882   1.975  0.0902  0.1049  0.1783
    1DIPC   GL128587   6.918   4.780   2.506 -0.1439 -0.0988  0.1553
    1DIPC   GL228588   7.153   4.918   2.694 -0.1530 -0.0982 -0.1214
    1DIPC   C1A28589   6.723   4.809   2.924  0.2895 -0.1464 -0.2621
    1DIPC   D2A28590   6.643   5.186   3.134  0.0346  0.0692  0.4287
    1DIPC   D3A28591   6.932   5.361   3.347  0.0914  0.3044 -0.0626
    1DIPC   C4A28592   7.041   5.858   3.187  0.2968 -0.3734  0.0561
    1DIPC   C1B28593   7.235   5.184   3.039  0.0246 -0.1961 -0.1212
    1DIPC   D2B28594   7.447   5.251   3.506  0.0771 -0.0251  0.2652
    1DIPC   D3B28595   7.871   4.920   3.452 -0.1912 -0.2142 -0.1330
    1DIPC   C4B28596   8.198   4.835   3.142 -0.1271 -0.0183  0.1424
    1DIPC   NC328597  13.353   1.127   2.588  0.0273 -0.2886  0.2157
    1DIPC   PO428598  13.256   1.462   2.717 -0.1101  0.1453 -0.0288
    1DIPC   GL128599  13.447   1.390   3.063 -0.2623 -0.2919 -0.0296
    1DIPC   GL228600  13.390   1.576   3.373 -0.2378 -0.0956  0.1702
    1DIPC   C1A28601  13.672   1.084   3.386  0.1740  0.1919  0.1546
    1DIPC   D2A28602  13.709   0.778   3.655 -0.0298 -0.0526 -0.2296
    1DIPC   D3A28603  14.075   0.727   3.711 -0.3875  0.1225  0.0571
    1DIPC   C4A28604  14.370   0.457   3.382 -0.2013 -0.1916 -0.1119
    1DIPC   C1B28605  13.574   1.485   3.747  0.0110  0.0287 -0.0150
    1DIPC   D2B28606  13.524   1.655   4.143  0.2280 -0.1890  0.3619
    1DIPC   D3B28607  13.559   1.232   4.320  0.1619  0.2942 -0.0063
    1DIPC   C4B28608  13.669   0.881   4.114  0.1299  0.1137  0.0228
    1DIPC   NC328609   4.012  23.364   3.584 -0.1368  0.0853  0.0651
    1DIPC   PO428610   4.284  23.709   3.580  0.2588  0.2839 -0.4341
    1DIPC   GL128611   4.697  23.620   3.738  0.0844 -0.4254 -0.1515
    1DIPC   GL228612   4.568  23.593   4.062  0.2374 -0.1166  0.1323
    1DIPC   C1A28613   5.064  23.553   3.993 -0.2250  0.1072 -0.1011
    1DIPC   D2A28614   5.147  23.559   4.478  0.2408 -0.2379 -0.1120
    1DIPC   D3A28615   5.260  23.879   4.471  0.0839  0.1722 -0.1568
    1DIPC   C4A28616   5.458  24.004   4.167  0.1697 -0.1779  0.0334
    1DIPC   C1B28617   4.446  23.530   4.451 -0.3757 -0.1653 -0.0570
    1DIPC   D2B28618   4.373  23.776   4.862 -0.1361 -0.3361  0.2487
    1DIPC   D3B28619   4.080  23.492   4.998 -0.0804 -0.0247  0.0719
    1DIPC   C4B28620   3.652  23.417   5.099  0.1715 -0.0234  0.0235
    1DIPC   NC328621   5.893   9.036   1.358  0.0524  0.0505 -0.1493
    1DIPC   PO428622   5.709   8.717   1.726  0.0095  0.0518 -0.0748
    1DIPC   GL128623   5.783   8.792   2.132 -0.0283 -0.0861  0.2134
    1DIPC   GL228624   5.642   8.655   2.385  0.0214 -0.0378  0.0588
    1DIPC   C1A28625   6.198   9.119   2.255 -0.2849  0.3145  0.2826
    1DIPC   D2A28626   6.495   9.492   2.390 -0.3247  0.1996 -0.1388
    1DIPC   D3A28627   6.271   9.284   2.740  0.5968  0.1252  0.0832
    1DIPC   C4A28628   5.994   8.905   2.796  0.0770  0.1659 -0.0699
    1DIPC   C1B28629   5.693   8.538   2.897 -0.4841 -0.1296  0.1389
    1DIPC   D2B28630   5.699   8.305   3.281  0.1126 -0.1524 -0.0159
    1DIPC   D3B28631   5.700   8.242   3.757 -0.1967 -0.0404  0.4106
    1DIPC   C4B28632   5.473   8.036   4.067 -0.1362  0.0014  0.2331
    1DIPC   NC328633   7.064  23.994   2.924 -0.0844  0.0097  0.1398
    1DIPC   PO428634   6.897  24.405   3.086 -0.0165  0.4291 -0.0044
    1DIPC   GL128635   6.698  24.498   3.432 -0.0485  0.1183  0.1189
    1DIPC   GL228636   6.470  24.325   3.694  0.0012 -0.1401 -0.1211
    1DIPC   C1A28637   6.753  24.762   3.697  0.0570  0.2050 -0.2519
    1DIPC   D2A28638   6.502  24.971   3.984 -0.0440  0.2458  0.0069
    1DIPC   D3A28639   6.766  24.786   4.224  0.0694 -0.1547  0.4095
    1DIPC   C4A28640   7.177  24.984   4.388  0.0120  0.0729 -0.0567
    1DIPC   C1B28641   6.515  24.231   4.191  0.0599  0.0495  0.1311
    1DIPC   D2B28642   6.814  24.127   4.496 -0.1396 -0.4542 -0.0120
    1DIPC   D3B28643   6.691  24.498   4.620  0.2230  0.2054 -0.2219
    1DIPC   C4B28644   7.003  24.631   4.710 -0.0526 -0.1043  0.0918
    1DIPC   NC328645  26.267  18.260   3.614  0.1796  0.0163  0.1513
    1DIPC   PO428646  25.872  18.339   3.412 -0.4326  0.0127 -0.1063
    1DIPC   GL128647  25.708  18.426   3.758  0.0791 -0.1058 -0.3486
    1DIPC   GL228648  25.819  18.463   4.098 -0.4154 -0.3751 -0.0979
    1DIPC   C1A28649  25.462  18.089   4.043  0.1484 -0.3208  0.0185
    1DIPC   D2A28650  25.237  17.726   4.231  0.2205 -0.0471 -0.2577
    1DIPC   D3A28651  25.211  17.781   4.679 -0.0418 -0.1853  0.4124
    1DIPC   C4A28652  25.103  17.563   4.948 -0.1298 -0.0645  0.0816
    1DIPC   C1B28653  25.914  18.209   4.419  0.3612  0.0421  0.3936
    1DIPC   D2B28654  25.633  18.092   4.737 -0.0879  0.2416  0.1618
    1DIPC   D3B28655  25.477  17.892   5.082  0.1450 -0.0749 -0.0731
    1DIPC   C4B28656  25.639  17.531   5.174  0.2206  0.0065 -0.1727
    1DIPC   NC328657  15.494  25.850   2.324 -0.1556 -0.1723  0.2586
    1DIPC   PO428658  15.316  26.356   2.390 -0.1729 -0.0732 -0.2462
    1DIPC   GL128659  15.252  26.196   2.831 -0.0042  0.0806 -0.3380
    1DIPC   GL228660  15.156  26.485   2.964 -0.0987  0.1688  0.4858
    1DIPC   C1A28661  15.189  25.879   3.212 -0.1231  0.1304  0.0818
    1DIPC   D2A28662  15.006  26.019   3.643 -0.0937 -0.0219 -0.0167
    1DIPC   D3A28663  15.246  26.239   3.963 -0.0711  0.2822 -0.1177
    1DIPC   C4A28664  15.059  26.512   4.348  0.0499  0.1980  0.0789
    1DIPC   C1B28665  14.861  26.317   3.274 -0.2257 -0.0661  0.0473
    1DIPC   D2B28666  14.585  26.270   3.548  0.0657 -0.0911  0.0210
    1DIPC   D3B28667  14.787  26.356   3.926  0.0554  0.1173 -0.1428
    1DIPC   C4B28668  14.487  26.309   4.280  0.0553  0.1763 -0.1643
    1DIPC   NC328669  11.044  17.189   2.381  0.0535  0.1567 -0.0930
    1DIPC   PO428670  11.131  17.510   2.745 -0.0341 -0.1651  0.2690
    1DIPC   GL128671  10.968  17.463   3.146  0.2543 -0.0157  0.0631
    1DIPC   GL228672  10.710  17.542   3.246  0.0184 -0.1862  0.0172
    1DIPC   C1A28673  11.048  17.444   3.599  0.1166  0.1460 -0.3467
    1DIPC   D2A28674  11.190  17.365   4.020  0.0993  0.0563  0.2131
    1DIPC   D3A28675  10.971  17.090   4.295  0.1263  0.0440  0.3787
    1DIPC   C4A28676  10.530  17.065   4.369  0.0147 -0.0842 -0.0624
    1DIPC   C1B28677  10.422  17.825   3.559 -0.0010  0.1740  0.0030
    1DIPC   D2B28678  10.263  17.871   3.956  0.1794  0.2115 -0.1249
    1DIPC   D3B28679   9.862  17.546   4.105 -0.2302  0.1975  0.1736
    1DIPC   C4B28680   9.454  17.294   3.963 -0.1276  0.1578  0.2226
    1DIPC   NC328681   2.213   5.055   1.781  0.3815  0.3238 -0.1687
    1DIPC   PO428682   2.441   5.177   2.080 -0.1748  0.2205  0.1930
    1DIPC   GL128683   2.195   5.322   2.445 -0.1615 -0.0511  0.0712
    1DIPC   GL228684   2.141   5.600   2.581 -0.0155 -0.2722  0.1089
    1DIPC   C1A28685   2.362   5.210   2.896  0.0858 -0.1815 -0.0523
    1DIPC   D2A28686   2.568   5.046   3.158 -0.0337 -0.0203 -0.1841
    1DIPC   D3A28687   2.666   5.249   3.586 -0.1139  0.1096  0.1672
    1DIPC   C4A28688   2.530   5.099   3.943 -0.0127 -0.0147 -0.0244
    1DIPC   C1B28689   2.188   5.705   2.965  0.0342 -0.0721  0.0169
    1DIPC   D2B28690   1.945   5.752   3.326 -0.3957  0.0840  0.5004
    1DIPC   D3B28691   2.197   5.453   3.545 -0.0872 -0.2631  0.1529
    1DIPC   C4B28692   2.445   5.628   3.884  0.0212  0.0958 -0.2838
    1DIPC   NC328693  26.374   2.281   2.632 -0.1319  0.1257 -0.2770
    1DIPC   PO428694  26.571   2.628   2.426 -0.0402 -0.1637  0.1294
    1DIPC   GL128695  26.719   2.570   2.840  0.2144  0.0156 -0.0840
    1DIPC   GL228696  26.359   2.683   2.967 -0.1938  0.0733 -0.3184
    1DIPC   C1A28697  26.855   2.650   3.285 -0.2023  0.3015 -0.1499
    1DIPC   D2A28698  26.903   2.453   3.732  0.1508 -0.3771  0.0568
    1DIPC   D3A28699  26.765   2.400   4.123 -0.0489 -0.3981  0.1761
    1DIPC   C4A28700  27.069   2.638   4.367 -0.2482 -0.0547 -0.0740
    1DIPC   C1B28701  26.468   3.006   3.015  0.0424 -0.2432 -0.2560
    1DIPC   D2B28702  26.527   3.396   2.932 -0.0214  0.0361 -0.0783
    1DIPC   D3B28703  26.249   3.381   3.346 -0.3601  0.2780  0.1957
    1DIPC   C4B28704  26.019   3.625   3.188  0.1117 -0.1159 -0.1665
    1DIPC   NC328705   5.849  11.130   1.608  0.3114 -0.2605 -0.2237
    1DIPC   PO428706   6.226  11.149   1.793 -0.0585 -0.0257  0.1445
    1DIPC   GL128707   5.961  10.953   2.081 -0.3332 -0.0791 -0.0522
    1DIPC   GL228708   5.732  11.077   2.142 -0.1148  0.5804  0.1904
    1DIPC   C1A28709   5.813  10.661   2.470 -0.2687  0.0142 -0.3466
    1DIPC   D2A28710   5.518  10.406   2.660  0.1631  0.0820  0.2044
    1DIPC   D3A28711   5.523  10.254   3.093 -0.0687 -0.1426 -0.2845
    1DIPC   C4A28712   5.943  10.108   3.143 -0.0639  0.0408  0.2995
    1DIPC   C1B28713   5.839  11.083   2.607 -0.3806  0.1653 -0.2240
    1DIPC   D2B28714   6.010  10.823   2.924  0.0142 -0.0182 -0.0830
    1DIPC   D3B28715   6.247  10.932   3.293  0.0381  0.0914  0.1305
    1DIPC   C4B28716   6.152  11.309   3.509 -0.0814 -0.2904  0.1409
    1DIPC   NC328717   3.443  27.696   3.080  0.1787  0.0351  0.2151
    1DIPC   PO428718   2.981  27.742   3.170  0.1334  0.0274  0.2919
    1DIPC   GL128719   3.180  27.777   3.603 -0.1535  0.0992 -0.0895
    1DIPC   GL228720   3.257  28.132   3.677 -0.1211 -0.0946  0.0109
    1DIPC   C1A28721   3.319  27.480   3.938  0.4680 -0.1793  0.1737
    1DIPC   D2A28722   3.542  27.322   4.247  0.0395  0.0000 -0.4464
    1DIPC   D3A28723   3.131  27.526   4.404  0.0111  0.0124 -0.2021
    1DIPC   C4A28724   2.907  27.211   4.413 -0.1073  0.1870  0.3601
    1DIPC   C1B28725   3.160  28.103   4.065  0.2369 -0.0044 -0.2821
    1DIPC   D2B28726   3.492  27.871   4.254 -0.0868  0.0134 -0.2037
    1DIPC   D3B28727   3.615  28.000   4.725 -0.0809 -0.1435  0.1126
    1DIPC   C4B28728   3.483  28.261   4.957  0.2521  0.0182  0.0803
    1DIPC   NC328729  27.993  27.457   2.726  0.1782 -0.2268 -0.3742
    1DIPC   PO428730  27.914  27.536   3.169  0.2454 -0.0674  0.0408
    1DIPC   GL128731  28.204  27.479   3.461 -0.1793 -0.1867  0.4580
    1DIPC   GL228732  28.409  27.289   3.706  0.3561 -0.1767  0.2567
    1DIPC   C1A28733  28.352  27.740   3.754  0.1072  0.0674  0.0788
    1DIPC   D2A28734  28.303  28.012   4.087  0.0714 -0.0371  0.1446
    1DIPC   D3A28735  27.971  28.172   4.351 -0.0040 -0.4257  0.5025
    1DIPC   C4A28736  28.028  28.039   4.707 -0.2033 -0.0009  0.0623
    1DIPC   C1B28737  28.431  27.285   4.135  0.1665  0.0194  0.1844
    1DIPC   D2B28738  28.681  27.181   4.460 -0.1117 -0.2066  0.0371
    1DIPC   D3B28739  28.955  26.823   4.701 -0.1900 -0.2504  0.3475
    1DIPC   C4B28740  29.007  26.373   4.586 -0.1865  0.0871  0.3309
    1DIPC   NC328741   7.089   5.193   2.305 -0.1975 -0.0972  0.1820
    1DIPC   PO428742   7.218   5.684   2.592 -0.1207  0.0931  0.0239
    1DIPC   GL128743   7.490   5.666   2.843  0.2437  0.2394 -0.1660
    1DIPC   GL228744   7.652   5.438   2.904 -0.3098 -0.0580 -0.0289
    1DIPC   C1A28745   7.536   5.745   3.298 -0.0518 -0.1911 -0.2274
    1DIPC   D2A28746   7.226   5.765   3.619  0.1381  0.0786 -0.3035
    1DIPC   D3A28747   7.192   6.056   4.001 -0.1044 -0.0601 -0.0108
    1DIPC   C4A28748   7.425   5.962   4.207  0.0182 -0.2240 -0.0621
    1DIPC   C1B28749   7.856   5.387   3.239 -0.2036  0.3749 -0.2187
    1DIPC   D2B28750   7.928   5.417   3.661 -0.2511 -0.0342 -0.0851
    1DIPC   D3B28751   7.659   5.189   3.934  0.1470  0.3284 -0.1337
    1DIPC   C4B28752   7.462   4.819   3.734 -0.1391 -0.2432 -0.0254
    1DIPC   NC328753  22.085  23.826   4.208 -0.0729  0.1641  0.0491
    1DIPC   PO428754  22.530  24.132   4.136  0.0580 -0.0505  0.0023
    1DIPC   GL128755  22.576  23.894   4.501 -0.3187  0.2355  0.0842
    1DIPC   GL228756  22.891  23.632   4.492  0.5412  0.2374  0.2213
    1DIPC   C1A28757  22.746  23.997   4.914 -0.2927  0.3038 -0.2162
    1DIPC   D2A28758  23.089  24.191   5.203 -0.1516  0.1087  0.0607
    1DIPC   D3A28759  23.433  24.220   5.375  0.2927  0.3070 -0.0015
    1DIPC   C4A28760  23.858  24.361   5.224  0.0758  0.0259  0.1778
    1DIPC   C1B28761  22.925  23.326   4.889 -0.1218 -0.1366 -0.1924
    1DIPC   D2B28762  22.777  22.944   5.174 -0.0366  0.1092  0.0235
    1DIPC   D3B28763  23.053  22.716   5.297 -0.1772  0.2317 -0.0503
    1DIPC   C4B28764  23.153  22.479   4.971 -0.0344  0.0729  0.2170
    1DIPC   NC328765   4.489  15.196   2.510  0.1544 -0.0205  0.1346
    1DIPC   PO428766   4.311  14.785   2.285  0.3427  0.2263 -0.0546
    1DIPC   GL128767   4.232  14.791   2.698  0.3117 -0.0795 -0.1042
    1DIPC   GL228768   3.881  14.750   2.785 -0.1219  0.1375 -0.3434
    1DIPC   C1A28769   4.121  15.119   3.026 -0.0405  0.0577  0.2168
    1DIPC   D2A28770   4.434  15.232   3.233  0.1416 -0.0017 -0.2226
    1DIPC   D3A28771   4.527  15.006   3.498  0.1193 -0.0704  0.0510
    1DIPC   C4A28772   4.740  15.245   3.676 -0.2291 -0.3152  0.1513
    1DIPC   C1B28773   3.636  14.982   3.052  0.0546  0.1073 -0.3480
    1DIPC   D2B28774   3.463  15.278   3.354  0.1201  0.1922  0.2046
    1DIPC   D3B28775   3.185  15.389   3.567  0.0878 -0.2425  0.1706
    1DIPC   C4B28776   2.673  15.392   3.519  0.1551  0.3176 -0.1344
    1DIPC   NC328777  29.012  17.603   3.176 -0.1418 -0.2570 -0.2498
    1DIPC   PO428778  28.557  17.375   3.128  0.0656  0.0016 -0.2621
    1DIPC   GL128779  28.655  17.257   3.534  0.3082  0.0614  0.4012
    1DIPC   GL228780  28.714  17.547   3.705  0.4309 -0.0424 -0.4510
    1DIPC   C1A28781  28.596  17.008   3.801  0.0984 -0.1085  0.0982
    1DIPC   D2A28782  28.880  16.843   4.098 -0.0895 -0.0797 -0.0956
    1DIPC   D3A28783  28.724  17.259   4.176 -0.0378  0.0814  0.1365
    1DIPC   C4A28784  28.580  17.397   4.586  0.0011 -0.0836  0.1316
    1DIPC   C1B28785  29.078  17.281   3.826  0.0684  0.1502 -0.2364
    1DIPC   D2B28786  29.286  17.201   4.214 -0.0770  0.1551  0.0215
    1DIPC   D3B28787  28.994  17.037   4.561 -0.4204 -0.1143 -0.1515
    1DIPC   C4B28788  29.142  16.918   4.964  0.0799 -0.0587  0.0585
    1DIPC   NC328789   8.127   6.752   2.184 -0.1264  0.3985  0.1192
    1DIPC   PO428790   7.883   7.166   2.376 -0.0105 -0.2175 -0.0719
    1DIPC   GL128791   7.861   7.398   2.709  0.2365 -0.0980 -0.1097
    1DIPC   GL228792   8.217   7.395   2.718  0.0720  0.0598  0.0391
    1DIPC   C1A28793   7.799   7.417   3.238  0.1592  0.0381  0.2155
    1DIPC   D2A28794   7.884   7.380   3.708  0.1960  0.0286 -0.4160
    1DIPC   D3A28795   7.728   7.718   3.948 -0.2353  0.0144  0.0298
    1DIPC   C4A28796   7.333   7.697   3.999  0.0011  0.2360  0.0300
    1DIPC   C1B28797   8.270   7.340   3.062  0.0448  0.1817  0.0235
    1DIPC   D2B28798   8.518   7.434   3.441  0.1542 -0.0070  0.0384
    1DIPC   D3B28799   8.421   7.279   3.854 -0.2183 -0.1328 -0.0019
    1DIPC   C4B28800   8.794   7.093   3.959 -0.0727  0.1942 -0.2277
    1DIPC   NC328801  18.511  21.285   3.537 -0.2925  0.2002 -0.4113
    1DIPC   PO428802  18.629  21.735   3.465 -0.3025  0.0617 -0.3113
    1DIPC   GL128803  18.651  21.622   3.863  0.0631  0.1000 -0.2042
    1DIPC   GL228804  18.542  21.836   3.993 -0.2334 -0.1711  0.2482
    1DIPC   C1A28805  18.537  21.432   4.268  0.0015  0.3671  0.1671
    1DIPC   D2A28806  18.309  21.315   4.598  0.1279  0.1693 -0.0197
    1DIPC   D3A28807  18.304  21.379   5.019 -0.3490 -0.2950 -0.0696
    1DIPC   C4A28808  18.463  21.772   5.268  0.1029 -0.0980  0.0578
    1DIPC   C1B28809  18.777  21.944   4.267  0.0442  0.0662 -0.2989
    1DIPC   D2B28810  19.133  21.971   4.639  0.0234  0.0684 -0.2045
    1DIPC   D3B28811  19.267  22.046   4.959  0.0905  0.1380  0.1808
    1DIPC   C4B28812  19.572  21.941   5.197 -0.0582  0.0002  0.2254
    1DIPC   NC328813  14.031  27.763   2.644  0.0109  0.0953 -0.2292
    1DIPC   PO428814  13.960  27.359   2.942 -0.1248  0.4038 -0.0786
    1DIPC   GL128815  13.763  27.230   3.388  0.1315  0.0859  0.0352
    1DIPC   GL228816  14.131  27.104   3.428 -0.0272 -0.1326  0.0710
    1DIPC   C1A28817  13.658  27.347   3.816 -0.4291 -0.0772  0.0195
    1DIPC   D2A28818  13.404  27.224   4.153 -0.0265  0.0236 -0.0847
    1DIPC   D3A28819  13.750  27.174   4.328  0.0320 -0.0653  0.2227
    1DIPC   C4A28820  13.873  26.786   4.351  0.0253 -0.1958  0.0251
    1DIPC   C1B28821  14.071  27.037   3.819  0.1962 -0.2728 -0.1124
    1DIPC   D2B28822  13.758  26.838   3.904  0.0281 -0.1626  0.0826
    1DIPC   D3B28823  13.336  26.697   3.787  0.0576 -0.2644 -0.1432
    1DIPC   C4B28824  13.221  26.369   3.554  0.2130  0.1952 -0.1256
    1DIPC   NC328825  18.907   0.461   3.442 -0.1920  0.0766 -0.1934
    1DIPC   PO428826  19.185   0.542   3.640 -0.0588 -0.2220 -0.0456
    1DIPC   GL128827  19.058   0.590   4.010  0.0990  0.6162 -0.0270
    1DIPC   GL228828  19.262   0.789   4.137 -0.0353  0.0375 -0.1539
    1DIPC   C1A28829  18.810   0.801   4.316 -0.1241 -0.3141  0.0172
    1DIPC   D2A28830  18.540   0.827   4.655  0.2010  0.0391 -0.1344
    1DIPC   D3A28831  18.290   0.496   4.458  0.0483 -0.4590 -0.0446
    1DIPC   C4A28832  18.571   0.393   4.239  0.0437  0.0821 -0.1094
    1DIPC   C1B28833  19.452   0.685   4.621  0.0677  0.3850 -0.2332
    1DIPC   D2B28834  19.649   0.697   5.012 -0.3261 -0.6466  0.0666
    1DIPC   D3B28835  19.495   0.881   5.319 -0.2637 -0.2284  0.0262
    1DIPC   C4B28836  19.553   1.277   5.530 -0.0286 -0.2281  0.1423
    1DIPC   NC328837  23.497   0.535   3.219  0.2191  0.2539  0.0719
    1DIPC   PO428838  23.830   0.457   3.451 -0.1565 -0.0270  0.0311
    1DIPC   GL128839  24.181   0.633   3.744  0.0263 -0.2090 -0.0258
    1DIPC   GL228840  24.026   0.783   3.926  0.0796  0.3302 -0.1659
    1DIPC   C1A28841  24.362   0.666   4.259 -0.0621 -0.0969  0.0264
    1DIPC   D2A28842  24.343   0.584   4.764  0.0448  0.1704 -0.3015
    1DIPC   D3A28843  24.557   0.285   5.062  0.0988 -0.2056 -0.1089
    1DIPC   C4A28844  24.371  29.499   5.129  0.1045  0.0343  0.1840
    1DIPC   C1B28845  24.122   1.143   4.312 -0.2301 -0.0571  0.1084
    1DIPC   D2B28846  24.003   1.029   4.739  0.0021  0.0069  0.2620
    1DIPC   D3B28847  24.028   1.277   5.093  0.2088  0.1420 -0.0415
    1DIPC   C4B28848  24.436   1.459   5.160  0.0605 -0.0441  0.0137
    1DIPC   NC328849   9.218   2.780   2.186 -0.1371  0.0745  0.1439
    1DIPC   PO428850   9.490   3.211   2.070  0.0058  0.2328  0.2260
    1DIPC   GL128851   9.399   3.163   2.520  0.0526 -0.2008  0.1044
    1DIPC   GL228852   9.362   3.444   2.768  0.2597 -0.0449 -0.2921
    1DIPC   C1A28853   9.648   2.995   2.795 -0.1929 -0.0512  0.1594
    1DIPC   D2A28854   9.748   2.915   3.214 -0.0135  0.0412  0.2608
    1DIPC   D3A28855   9.931   2.574   2.989  0.1051 -0.1900  0.0564
    1DIPC   C4A28856  10.087   2.234   3.172 -0.0873  0.1847 -0.0220
    1DIPC   C1B28857   9.716   3.410   3.117 -0.2542 -0.3245  0.0518
    1DIPC   D2B28858  10.048   3.258   3.410  0.0109  0.0314 -0.0161
    1DIPC   D3B28859   9.925   2.967   3.727  0.3916  0.0889 -0.2050
    1DIPC   C4B28860   9.479   2.848   3.824  0.0466 -0.0474 -0.1715
    1DIPC   NC328861   8.960   1.926   2.071  0.1954  0.2927  0.1441
    1DIPC   PO428862   9.196   2.217   2.165 -0.0337 -0.5246 -0.1165
    1DIPC   GL128863   9.229   2.067   2.511  0.1410 -0.0357  0.0330
    1DIPC   GL228864   9.486   1.813   2.689 -0.3699  0.0781 -0.0872
    1DIPC   C1A28865   9.054   2.101   2.904  0.3172  0.1170 -0.0984
    1DIPC   D2A28866   9.090   2.144   3.371 -0.0052  0.0020 -0.3791
    1DIPC   D3A28867   9.236   2.421   3.746  0.0200 -0.0193  0.1176
    1DIPC   C4A28868   9.313   2.445   4.234 -0.4687 -0.2436  0.1921
    1DIPC   C1B28869   9.459   1.854   3.150 -0.2455 -0.1165 -0.2503
    1DIPC   D2B28870   9.590   2.091   3.521  0.3051  0.3624  0.1375
    1DIPC   D3B28871  10.095   2.033   3.648 -0.0106 -0.2536  0.0531
    1DIPC   C4B28872  10.189   1.932   4.160  0.0544  0.0284  0.1412
    1DIPC   NC328873  10.669  22.259   2.574  0.2169 -0.1443 -0.2144
    1DIPC   PO428874  10.507  21.951   2.770 -0.4821  0.2553 -0.0927
    1DIPC   GL128875  10.665  21.637   2.960  0.0254  0.0809 -0.2270
    1DIPC   GL228876  10.704  21.864   3.316  0.2585  0.1242 -0.0039
    1DIPC   C1A28877  10.800  21.348   3.367 -0.1802  0.2818 -0.1082
    1DIPC   D2A28878  10.830  20.996   3.580 -0.2002 -0.2150  0.4811
    1DIPC   D3A28879  10.791  20.643   3.857 -0.1644 -0.0872 -0.0391
    1DIPC   C4A28880  10.969  20.505   4.254 -0.3436  0.0773 -0.1451
    1DIPC   C1B28881  10.576  21.776   3.787  0.1035 -0.0057  0.2065
    1DIPC   D2B28882  10.284  21.807   4.098 -0.2303 -0.0580  0.3372
    1DIPC   D3B28883  10.561  21.433   4.143 -0.0477  0.0624  0.0641
    1DIPC   C4B28884  10.519  20.939   4.151  0.2185  0.0509  0.2982
    1DIPC   NC328885  28.036   2.240   2.184 -0.1542  0.0873 -0.2420
    1DIPC   PO428886  28.299   2.180   2.574 -0.1162  0.1696  0.2028
    1DIPC   GL128887  28.077   2.032   2.938  0.4361 -0.1108 -0.2468
    1DIPC   GL228888  28.260   1.912   3.105 -0.4418  0.0365 -0.0146
    1DIPC   C1A28889  27.835   2.292   3.260 -0.0329  0.0555  0.2049
    1DIPC   D2A28890  27.929   2.280   3.725  0.2957  0.0206 -0.2069
    1DIPC   D3A28891  28.196   2.459   3.961  0.1815 -0.0058  0.0252
    1DIPC   C4A28892  28.564   2.669   3.835 -0.2613  0.4738 -0.2129
    1DIPC   C1B28893  28.479   2.058   3.443  0.1512 -0.0255  0.3453
    1DIPC   D2B28894  28.535   2.046   3.843 -0.0565  0.3313  0.2017
    1DIPC   D3B28895  28.208   1.842   3.808  0.2352  0.0253  0.1894
    1DIPC   C4B28896  27.964   1.868   3.486  0.1850  0.0844  0.1657
    1DIPC   NC328897  18.229   4.919   2.227 -0.3953  0.0036 -0.1070
    1DIPC   PO428898  17.953   5.018   2.591 -0.3949 -0.1166  0.2034
    1DIPC   GL128899  18.070   5.293   2.937  0.1104  0.2816 -0.0033
    1DIPC   GL228900  17.786   5.194   3.163 -0.0467  0.0601 -0.0456
    1DIPC   C1A28901  18.414   5.360   3.202 -0.5108 -0.0182 -0.1828
    1DIPC   D2A28902  18.796   5.592   3.208 -0.0452  0.0152 -0.0666
    1DIPC   D3A28903  18.746   6.013   3.300  0.0549 -0.2061 -0.1366
    1DIPC   C4A28904  18.469   6.032   3.646  0.0677  0.0854 -0.0009
    1DIPC   C1B28905  17.978   5.556   3.394  0.0204  0.0097 -0.0616
    1DIPC   D2B28906  18.257   5.802   3.277 -0.0660 -0.2134  0.0670
    1DIPC   D3B28907  18.001   6.170   3.278  0.1049  0.1127 -0.2416
    1DIPC   C4B28908  18.283   6.524   3.473  0.0369 -0.0297 -0.1656
    1DIPC   NC328909  25.748   0.663   3.251 -0.1725  0.0660 -0.0368
    1DIPC   PO428910  25.388   0.624   3.537  0.0148  0.1126 -0.1041
    1DIPC   GL128911  25.293   0.828   3.883 -0.3176 -0.0367 -0.0264
    1DIPC   GL228912  25.338   1.187   3.863 -0.0103 -0.1732  0.1684
    1DIPC   C1A28913  25.151   0.927   4.369 -0.4941 -0.1115 -0.1594
    1DIPC   D2A28914  25.337   0.961   4.738  0.1717 -0.2661  0.1528
    1DIPC   D3A28915  25.686   1.245   4.921 -0.0296 -0.3699  0.0412
    1DIPC   C4A28916  26.090   1.226   5.153 -0.4173 -0.0986  0.0935
    1DIPC   C1B28917  25.077   1.414   4.190 -0.0147 -0.1016  0.0379
    1DIPC   D2B28918  24.983   1.394   4.745  0.1961 -0.1098 -0.0963
    1DIPC   D3B28919  25.315   1.567   5.144 -0.0409  0.2544  0.0235
    1DIPC   C4B28920  25.381   1.184   5.317 -0.1942 -0.0257  0.2610
    1DIPC   NC328921   7.947  11.519   1.981  0.1189 -0.0656  0.1005
    1DIPC   PO428922   7.947  11.289   2.393 -0.1006 -0.2984  0.1505
    1DIPC   GL128923   7.729  11.335   2.832  0.0330  0.0916  0.1836
    1DIPC   GL228924   7.854  11.646   2.789 -0.3724 -0.0503  0.3439
    1DIPC   C1A28925   7.786  11.449   3.273  0.0853 -0.1720  0.0964
    1DIPC   D2A28926   7.604  11.368   3.639 -0.1919 -0.0609  0.0470
    1DIPC   D3A28927   7.988  11.252   3.772  0.3035 -0.3250 -0.0992
    1DIPC   C4A28928   8.102  10.901   3.605  0.0887  0.1068 -0.0275
    1DIPC   C1B28929   7.335  11.595   3.010 -0.0340  0.1768  0.1970
    1DIPC   D2B28930   6.914  11.699   3.174  0.1126 -0.1376  0.0794
    1DIPC   D3B28931   6.825  11.925   3.414 -0.2250  0.2824  0.0105
    1DIPC   C4B28932   6.719  12.357   3.449  0.0421 -0.0557  0.2507
    1DIPC   NC328933  23.758  23.966   4.431  0.0978 -0.1824  0.1055
    1DIPC   PO428934  23.393  23.699   4.339  0.0577  0.1876  0.0181
    1DIPC   GL128935  23.491  23.705   4.711  0.2132  0.0067 -0.0656
    1DIPC   GL228936  23.248  23.804   4.861 -0.1940  0.0958 -0.0633
    1DIPC   C1A28937  23.599  23.763   5.190 -0.2661 -0.2272 -0.0411
    1DIPC   D2A28938  23.452  23.628   5.616  0.1001  0.1516 -0.1682
    1DIPC   D3A28939  23.880  23.719   5.670  0.2872 -0.0149 -0.1352
    1DIPC   C4A28940  24.052  23.949   5.346 -0.0797 -0.1705  0.4676
    1DIPC   C1B28941  23.064  23.677   5.221  0.1387  0.1388 -0.4218
    1DIPC   D2B28942  22.922  23.478   5.597 -0.1050  0.0190 -0.2134
    1DIPC   D3B28943  23.213  23.181   5.437  0.3193  0.0246 -0.2783
    1DIPC   C4B28944  23.681  23.186   5.572  0.1851 -0.1111 -0.2882
    1DIPC   NC328945   6.595  15.727   1.913  0.2904 -0.0596  0.5549
    1DIPC   PO428946   6.934  15.590   2.074  0.2044 -0.1033  0.0171
    1DIPC   GL128947   6.902  15.490   2.441  0.0395 -0.0060 -0.1202
    1DIPC   GL228948   6.604  15.495   2.586  0.0095  0.2973 -0.2056
    1DIPC   C1A28949   7.070  15.269   2.834 -0.1052 -0.2556 -0.1233
    1DIPC   D2A28950   6.915  14.971   3.071 -0.2659  0.1852 -0.0486
    1DIPC   D3A28951   6.664  14.651   2.909  0.2427 -0.3100  0.1364
    1DIPC   C4A28952   6.263  14.526   2.965 -0.0278 -0.3756  0.3437
    1DIPC   C1B28953   6.653  15.081   2.598  0.2735  0.1698  0.1929
    1DIPC   D2B28954   6.648  14.728   2.439 -0.1079 -0.1197 -0.1819
    1DIPC   D3B28955   6.240  14.429   2.469  0.1824  0.0906 -0.1217
    1DIPC   C4B28956   5.835  14.605   2.540 -0.0052  0.1710  0.3675
    1DIPC   NC328957   8.352   4.775   2.116 -0.1542 -0.0261  0.0928
    1DIPC   PO428958   7.962   4.896   2.325  0.0413  0.1832  0.1923
    1DIPC   GL128959   7.928   4.949   2.716  0.2213 -0.1531  0.2126
    1DIPC   GL228960   7.722   4.946   2.932 -0.1679  0.3475 -0.0641
    1DIPC   C1A28961   8.249   5.281   2.914 -0.1143  0.1936 -0.1800
    1DIPC   D2A28962   8.548   5.237   3.231 -0.1584  0.1012  0.2403
    1DIPC   D3A28963   8.505   5.176   3.789 -0.1839  0.0540 -0.0674
    1DIPC   C4A28964   8.152   4.898   3.992 -0.0175  0.0210 -0.0331
    1DIPC   C1B28965   7.345   4.768   3.218 -0.1899  0.4932 -0.3362
    1DIPC   D2B28966   6.944   4.730   3.437 -0.0548  0.1114 -0.0916
    1DIPC   D3B28967   6.936   5.005   3.746  0.2275 -0.0587 -0.2002
    1DIPC   C4B28968   6.541   4.991   4.057 -0.4983 -0.2945  0.1222
    1DIPC   NC328969   8.946  25.331   2.598  0.2787  0.0972 -0.3511
    1DIPC   PO428970   9.120  25.541   2.968  0.1315 -0.0854  0.0110
    1DIPC   GL128971   8.895  25.894   3.254 -0.0826  0.3115 -0.0489
    1DIPC   GL228972   8.569  25.829   3.385  0.1578  0.0469  0.2798
    1DIPC   C1A28973   8.831  26.135   3.611 -0.0513  0.1669 -0.2149
    1DIPC   D2A28974   8.670  26.457   3.855 -0.0661  0.3098 -0.1649
    1DIPC   D3A28975   8.314  26.300   4.050  0.1263 -0.0182 -0.1112
    1DIPC   C4A28976   8.432  25.982   3.873 -0.0542  0.1197 -0.2803
    1DIPC   C1B28977   8.693  25.612   3.706  0.1234 -0.0179 -0.1577
    1DIPC   D2B28978   8.623  25.403   3.996  0.0071  0.0111  0.1133
    1DIPC   D3B28979   8.589  25.787   4.281 -0.0828  0.1102  0.3083
    1DIPC   C4B28980   8.289  25.998   4.623  0.0766 -0.1027 -0.0455
    1DIPC   NC328981  26.549   1.062   3.014 -0.1832  0.2886 -0.1563
    1DIPC   PO428982  26.708   0.732   3.273  0.3779 -0.0022 -0.0938
    1DIPC   GL128983  26.726   0.733   3.750  0.1569 -0.0962  0.3218
    1DIPC   GL228984  26.426   0.846   3.905 -0.0211 -0.1523  0.2063
    1DIPC   C1A28985  26.994   0.829   4.150  0.0275 -0.2152 -0.0376
    1DIPC   D2A28986  27.009   0.820   4.533  0.3235  0.0112  0.2050
    1DIPC   D3A28987  27.186   0.432   4.433 -0.0312  0.1891 -0.0416
    1DIPC   C4A28988  26.970   0.174   4.685 -0.0263  0.0962 -0.0199
    1DIPC   C1B28989  26.461   0.761   4.415  0.2261  0.1424 -0.0032
    1DIPC   D2B28990  26.168   0.826   4.748  0.0793 -0.0238 -0.1800
    1DIPC   D3B28991  26.543   0.959   4.967 -0.0646  0.1035  0.3134
    1DIPC   C4B28992  26.646   1.211   4.602  0.0910  0.4364 -0.1733
    1DIPC   NC328993  26.008  22.847   3.234  0.0783 -0.0425  0.0344
    1DIPC   PO428994  25.770  23.123   3.357  0.2805 -0.0086  0.0996
    1DIPC   GL128995  25.998  23.260   3.759  0.0995  0.1404  0.3255
    1DIPC   GL228996  26.048  22.998   3.836  0.0081  0.2938  0.1877
    1DIPC   C1A28997  25.977  23.664   4.044 -0.1148  0.3043  0.0139
    1DIPC   D2A28998  25.930  23.819   4.506 -0.1887 -0.0895  0.0121
    1DIPC   D3A28999  26.227  24.144   4.357  0.2954  0.1803 -0.1597
    1DIPC   C4A29000  26.116  24.142   3.798  0.0931  0.1887  0.1074
    1DIPC   C1B29001  25.953  22.653   4.107 -0.0657 -0.0455 -0.0731
    1DIPC   D2B29002  25.940  22.651   4.556 -0.0739  0.2372 -0.0957
    1DIPC   D3B29003  25.773  22.613   4.973 -0.0246  0.2907  0.0870
    1DIPC   C4B29004  25.952  22.905   5.292  0.0086 -0.1434  0.3560
    1DIPC   NC329005   5.061   1.435   2.844  0.3136  0.0454 -0.1566
    1DIPC   PO429006   4.615   1.715   2.725 -0.1189 -0.1390  0.1642
    1DIPC   GL129007   4.462   1.691   3.074 -0.5842 -0.0978 -0.1088
    1DIPC   GL229008   4.607   1.403   3.221  0.0551 -0.3294  0.0041
    1DIPC   C1A29009   4.401   1.829   3.457  0.0363 -0.3819 -0.2402
    1DIPC   D2A29010   4.582   1.814   3.800  0.1241  0.0322 -0.3402
    1DIPC   D3A29011   4.889   1.770   3.539 -0.0172  0.2949 -0.0983
    1DIPC   C4A29012   5.282   1.709   3.687 -0.4787  0.1458  0.0773
    1DIPC   C1B29013   4.771   1.307   3.604  0.1278  0.1059 -0.1375
    1DIPC   D2B29014   4.856   1.354   3.972 -0.1523 -0.1953  0.1740
    1DIPC   D3B29015   5.110   1.170   4.276  0.1740 -0.0894  0.3532
    1DIPC   C4B29016   4.785   0.965   4.502 -0.0442  0.0371  0.4900
    1DIPC   NC329017  29.219  22.447   3.329 -0.0246  0.0857  0.0589
    1DIPC   PO429018  29.365  22.597   3.656  0.1451 -0.0694 -0.1928
    1DIPC   GL129019  29.277  22.356   4.113  0.2029 -0.2528  0.0313
    1DIPC   GL229020  29.560  22.324   4.253  0.2686  0.1498 -0.3122
    1DIPC   C1A29021  29.144  22.023   4.435  0.1218  0.1842 -0.2719
    1DIPC   D2A29022  28.945  22.033   4.818 -0.2027  0.2881  0.0996
    1DIPC   D3A29023  28.816  22.208   5.253 -0.1954 -0.1598 -0.1558
    1DIPC   C4A29024  28.668  22.646   5.214 -0.1046 -0.2142 -0.0269
    1DIPC   C1B29025  29.596  22.130   4.599  0.3661  0.3660  0.3182
    1DIPC   D2B29026   0.260  22.107   4.929 -0.0091  0.0586  0.3725
    1DIPC   D3B29027   0.123  22.456   5.234 -0.3142  0.1822  0.3049
    1DIPC   C4B29028  29.364  22.321   5.428  0.2891 -0.0112  0.1225
    1DIPC   NC329029  13.163  16.239   2.152 -0.0851 -0.3269 -0.2425
    1DIPC   PO429030  13.441  16.002   2.479  0.0722 -0.1801 -0.0129
    1DIPC   GL129031  13.467  16.050   2.958 -0.0934 -0.0791 -0.0323
    1DIPC   GL229032  13.627  16.260   3.047  0.5585 -0.2279  0.2657
    1DIPC   C1A29033  13.456  16.027   3.437 -0.2832 -0.1433  0.2702
    1DIPC   D2A29034  13.439  15.980   3.885  0.1863 -0.1010  0.0168
    1DIPC   D3A29035  13.061  15.978   4.079  0.0156 -0.0472  0.1028
    1DIPC   C4A29036  13.030  15.622   4.280  0.0131  0.0686 -0.0798
    1DIPC   C1B29037  13.289  16.423   3.208 -0.1019  0.0446 -0.3052
    1DIPC   D2B29038  13.263  16.460   3.648 -0.1646 -0.3388  0.1866
    1DIPC   D3B29039  12.859  16.483   3.953  0.2879  0.1052 -0.1777
    1DIPC   C4B29040  13.051  16.372   4.418 -0.0621 -0.1697  0.1990
    1DIPC   NC329041   4.756  20.191   3.163 -0.1200 -0.1983 -0.0829
    1DIPC   PO429042   4.630  19.892   3.421  0.2588 -0.1542 -0.1939
    1DIPC   GL129043   4.521  19.752   3.790  0.3853 -0.3068 -0.0067
    1DIPC   GL229044   4.353  20.005   3.969  0.0582  0.1518  0.0371
    1DIPC   C1A29045   4.427  19.556   4.260 -0.1612  0.1147 -0.1349
    1DIPC   D2A29046   4.753  19.772   4.511  0.0465  0.0543  0.3158
    1DIPC   D3A29047   4.979  19.495   4.831 -0.0678 -0.1415  0.2051
    1DIPC   C4A29048   5.033  19.027   4.794  0.0374  0.3064  0.0100
    1DIPC   C1B29049   4.398  20.088   4.354 -0.2844  0.3047 -0.0386
    1DIPC   D2B29050   4.379  20.054   4.749  0.0158  0.2162  0.0766
    1DIPC   D3B29051   4.171  20.441   4.933  0.4371  0.0369 -0.1966
    1DIPC   C4B29052   4.383  20.722   5.147  0.2480  0.0727  0.0775
    1DIPC   NC329053   8.708   5.588   2.351 -0.0279  0.0776  0.0148
    1DIPC   PO429054   8.606   5.201   2.401  0.0180  0.0745 -0.0554
    1DIPC   GL129055   8.807   5.307   2.795  0.1906  0.1455 -0.2474
    1DIPC   GL229056   8.944   4.987   2.937 -0.0254 -0.0613 -0.1013
    1DIPC   C1A29057   8.873   5.592   3.222 -0.0383 -0.0556 -0.0956
    1DIPC   D2A29058   8.816   5.505   3.573  0.0299 -0.0206 -0.0961
    1DIPC   D3A29059   8.918   5.664   4.038 -0.1626  0.1611  0.0090
    1DIPC   C4A29060   9.076   6.074   4.238  0.0571  0.1293 -0.2151
    1DIPC   C1B29061   9.003   4.985   3.360  0.1108 -0.2717 -0.3601
    1DIPC   D2B29062   9.193   5.064   3.847 -0.4064  0.1670  0.0576
    1DIPC   D3B29063   8.805   5.007   4.160  0.4285 -0.0523 -0.1265
    1DIPC   C4B29064   8.588   4.516   4.151 -0.2996 -0.2860  0.3604
    1DIPC   NC329065  20.809  26.283   3.435 -0.1648  0.0619 -0.4388
    1DIPC   PO429066  20.522  26.566   3.689  0.0850 -0.2608  0.0202
    1DIPC   GL129067  20.817  26.568   3.969  0.2310  0.0910 -0.0586
    1DIPC   GL229068  20.947  26.852   4.079 -0.0532  0.1637  0.0348
    1DIPC   C1A29069  21.222  26.443   4.206 -0.0367  0.0160 -0.0939
    1DIPC   D2A29070  21.319  26.469   4.717 -0.5109 -0.0297  0.1424
    1DIPC   D3A29071  21.124  26.246   5.091  0.0187 -0.1083  0.0108
    1DIPC   C4A29072  21.174  25.852   5.139  0.1852  0.0293  0.1139
    1DIPC   C1B29073  20.910  27.187   4.322 -0.1402 -0.0853 -0.0907
    1DIPC   D2B29074  20.798  27.525   4.734 -0.0874  0.0299 -0.0971
    1DIPC   D3B29075  20.844  27.149   4.987 -0.1633 -0.1375  0.1301
    1DIPC   C4B29076  20.771  27.071   5.366 -0.1135 -0.3259 -0.0155
    1DIPC   NC329077   4.401  26.063   3.269  0.2282 -0.0013  0.2091
    1DIPC   PO429078   4.026  25.827   3.429 -0.2993  0.0598 -0.0182
    1DIPC   GL129079   4.181  25.929   3.808 -0.0230 -0.0851  0.0733
    1DIPC   GL229080   3.978  26.091   4.048  0.3422  0.1429 -0.0431
    1DIPC   C1A29081   4.422  26.094   4.264 -0.1031  0.2161 -0.1709
    1DIPC   D2A29082   4.364  26.123   4.752  0.0931 -0.1957 -0.1040
    1DIPC   D3A29083   4.744  25.867   4.756  0.0130  0.0476 -0.1912
    1DIPC   C4A29084   5.171  26.021   4.768  0.0330  0.1407  0.1198
    1DIPC   C1B29085   3.977  26.002   4.421  0.3424  0.2078 -0.1520
    1DIPC   D2B29086   3.949  25.796   4.859  0.0218  0.0069 -0.2661
    1DIPC   D3B29087   4.072  26.107   5.188  0.0617  0.1347 -0.1987
    1DIPC   C4B29088   4.168  26.485   5.051  0.2894 -0.3163 -0.5179
    1DIPC   NC329089   4.603  18.677   3.228 -0.3659 -0.1403  0.0069
    1DIPC   PO429090   4.377  18.293   3.077  0.0956 -0.3248 -0.0566
    1DIPC   GL129091   4.581  18.213   3.402  0.5798  0.0752 -0.1585
    1DIPC   GL229092   4.862  18.086   3.413 -0.0917 -0.0797 -0.3036
    1DIPC   C1A29093   4.533  18.138   3.802  0.1217 -0.2476  0.0839
    1DIPC   D2A29094   4.731  18.191   4.213 -0.0938 -0.2183 -0.0837
    1DIPC   D3A29095   4.708  17.747   4.243  0.0976  0.1834 -0.0048
    1DIPC   C4A29096   5.032  17.490   4.321  0.0019 -0.0992  0.1283
    1DIPC   C1B29097   4.759  17.674   3.347  0.3138  0.3525  0.3484
    1DIPC   D2B29098   4.456  17.346   3.263  0.1557  0.5081  0.2096
    1DIPC   D3B29099   4.511  17.256   3.565  0.0107  0.3419 -0.1209
    1DIPC   C4B29100   4.728  16.788   3.680 -0.1089 -0.2726  0.1838
    1DIPC   NC329101  11.198   1.833   2.422 -0.2208  0.0372  0.0222
    1DIPC   PO429102  11.503   1.844   2.604  0.0227 -0.0358  0.1767
    1DIPC   GL129103  11.385   1.599   2.959 -0.0306 -0.0600  0.3010
    1DIPC   GL229104  11.427   1.878   3.132  0.1489 -0.0688 -0.0991
    1DIPC   C1A29105  11.318   1.341   3.290 -0.2976  0.4509 -0.2757
    1DIPC   D2A29106  11.090   1.096   3.559 -0.1668  0.1320 -0.0497
    1DIPC   D3A29107  10.890   1.197   3.887 -0.0021 -0.0382  0.1420
    1DIPC   C4A29108  11.147   1.337   4.139  0.2087  0.0875  0.2170
    1DIPC   C1B29109  11.025   1.997   3.243 -0.0302 -0.0074  0.2038
    1DIPC   D2B29110  10.774   1.785   3.463 -0.0541 -0.0471 -0.0680
    1DIPC   D3B29111  10.997   1.688   3.825  0.2177  0.0239 -0.1399
    1DIPC   C4B29112  10.830   1.723   4.197 -0.1172 -0.0869  0.0153
    1DIPC   NC329113   2.330  29.536   2.021 -0.3556  0.0138 -0.2946
    1DIPC   PO429114   2.747  29.613   2.202  0.2202  0.1009  0.1824
    1DIPC   GL129115   2.846   0.080   2.723 -0.1225  0.1931 -0.1143
    1DIPC   GL229116   3.001   0.390   2.838  0.1372  0.2080 -0.1118
    1DIPC   C1A29117   3.051  29.431   2.973  0.1023 -0.1867 -0.1675
    1DIPC   D2A29118   3.204  29.117   3.195  0.0887 -0.2749  0.0034
    1DIPC   D3A29119   3.505  29.330   3.513 -0.0046  0.4254 -0.3947
    1DIPC   C4A29120   3.351  29.561   3.876  0.0978  0.0090  0.1410
    1DIPC   C1B29121   2.698   0.665   3.139  0.1885  0.1280 -0.2387
    1DIPC   D2B29122   2.771   0.790   3.577  0.0836 -0.0292 -0.1852
    1DIPC   D3B29123   2.822   0.710   4.085  0.0818 -0.5393  0.0546
    1DIPC   C4B29124   3.065   0.836   4.427 -0.0107  0.4984 -0.0352
    1DIPC   NC329125  17.240  28.522   3.079  0.0374 -0.4561  0.0006
    1DIPC   PO429126  17.233  28.893   3.268 -0.4883 -0.1572  0.1132
    1DIPC   GL129127  17.219  28.961   3.591 -0.0618 -0.4524  0.0532
    1DIPC   GL229128  17.216  29.399   3.671  0.2372 -0.2488  0.0383
    1DIPC   C1A29129  17.132  28.886   4.049 -0.0206 -0.1796 -0.2461
    1DIPC   D2A29130  17.434  28.742   4.270  0.0277  0.1102  0.1749
    1DIPC   D3A29131  17.414  28.738   4.715 -0.0157  0.1441  0.2196
    1DIPC   C4A29132  17.093  28.604   4.978  0.4015 -0.1432 -0.0697
    1DIPC   C1B29133  16.770  29.179   3.734  0.1885  0.0186  0.0568
    1DIPC   D2B29134  16.683  28.749   3.689  0.0459 -0.2663 -0.2846
    1DIPC   D3B29135  16.598  28.763   4.055 -0.1194  0.2502  0.1470
    1DIPC   C4B29136  16.894  28.569   4.420 -0.1011 -0.1696  0.1884
    1DIPC   NC329137   3.011   4.556   2.444 -0.0043  0.1949 -0.0701
    1DIPC   PO429138   2.566   4.363   2.610  0.0055 -0.0402 -0.1256
    1DIPC   GL129139   2.774   4.633   2.910  0.2525  0.0060  0.0758
    1DIPC   GL229140   3.214   4.573   2.898  0.0367  0.3778 -0.2141
    1DIPC   C1A29141   2.746   4.594   3.408  0.3018  0.3981  0.3213
    1DIPC   D2A29142   2.934   4.317   3.642 -0.0143 -0.0028  0.2044
    1DIPC   D3A29143   3.201   4.191   3.913 -0.2216 -0.0328 -0.0173
    1DIPC   C4A29144   3.547   4.308   4.199 -0.2351 -0.0611  0.0073
    1DIPC   C1B29145   3.297   4.474   3.327  0.1609  0.3788 -0.0309
    1DIPC   D2B29146   3.523   4.518   3.750 -0.1829  0.1347 -0.3366
    1DIPC   D3B29147   3.644   4.877   4.046 -0.0916 -0.0777 -0.1932
    1DIPC   C4B29148   3.570   5.083   4.549  0.2426  0.0837 -0.0007
    1DIPC   NC329149  13.459  14.054   2.509  0.0118  0.0741  0.1287
    1DIPC   PO429150  13.028  14.125   2.681  0.1395 -0.1015 -0.1749
    1DIPC   GL129151  12.731  13.993   3.040  0.0176 -0.2998 -0.2393
    1DIPC   GL229152  12.920  13.903   3.209 -0.2076  0.0760  0.2404
    1DIPC   C1A29153  12.483  14.180   3.330 -0.3121 -0.1663  0.3372
    1DIPC   D2A29154  12.482  14.405   3.702 -0.0086  0.2199 -0.0605
    1DIPC   D3A29155  12.755  14.408   3.971 -0.2386  0.1005  0.0201
    1DIPC   C4A29156  12.864  14.705   4.286  0.0086  0.0411 -0.0154
    1DIPC   C1B29157  12.871  13.880   3.622  0.1284  0.0495  0.2161
    1DIPC   D2B29158  13.010  13.951   3.988 -0.0263  0.1234  0.1702
    1DIPC   D3B29159  12.820  13.821   4.362 -0.1634 -0.0968  0.1879
    1DIPC   C4B29160  12.544  13.916   4.672 -0.0672  0.3478 -0.0419
    1DIPC   NC329161  17.993   4.247   2.981  0.0019 -0.1374 -0.0189
    1DIPC   PO429162  18.024   3.786   2.930 -0.0424 -0.3216  0.2040
    1DIPC   GL129163  17.963   3.746   3.228 -0.1678 -0.1569  0.4078
    1DIPC   GL229164  17.606   3.967   3.261  0.0941 -0.1884  0.5516
    1DIPC   C1A29165  18.156   3.605   3.537  0.2570 -0.6110  0.0503
    1DIPC   D2A29166  18.395   3.601   3.935 -0.3976  0.0252  0.0760
    1DIPC   D3A29167  18.449   3.762   4.371 -0.0877  0.1298 -0.1667
    1DIPC   C4A29168  18.346   4.171   4.510  0.3536 -0.2508 -0.0730
    1DIPC   C1B29169  17.294   3.975   3.613  0.1051  0.3917 -0.1128
    1DIPC   D2B29170  16.971   4.069   3.924 -0.0917  0.1444 -0.0915
    1DIPC   D3B29171  17.118   4.482   4.137 -0.2392  0.1109  0.3168
    1DIPC   C4B29172  17.302   4.672   4.570  0.2773 -0.1795  0.2028
    1DIPC   NC329173   4.339  26.718   2.620  0.1136  0.1812 -0.0012
    1DIPC   PO429174   4.265  26.497   3.062  0.5622 -0.2436 -0.2858
    1DIPC   GL129175   4.486  26.604   3.420  0.2665  0.1013  0.1327
    1DIPC   GL229176   4.490  26.319   3.746 -0.4009 -0.0484 -0.2862
    1DIPC   C1A29177   4.522  26.864   3.798 -0.1186  0.1744  0.0255
    1DIPC   D2A29178   4.286  27.121   4.013 -0.2711  0.0468  0.4014
    1DIPC   D3A29179   4.566  27.254   4.332  0.0664 -0.1133 -0.4024
    1DIPC   C4A29180   4.869  27.329   4.592 -0.0283 -0.0307  0.0470
    1DIPC   C1B29181   4.832  26.433   3.965  0.0574  0.0592  0.1251
    1DIPC   D2B29182   4.975  26.862   4.026 -0.2269  0.1155 -0.1174
    1DIPC   D3B29183   5.202  26.561   4.305 -0.0419  0.0762 -0.0489
    1DIPC   C4B29184   5.503  26.292   4.158  0.0196  0.2111 -0.3695
    1CHOL   ROH29185   1.874   9.735   5.448 -0.1755 -0.2973  0.0075
    1CHOL    R129186   1.751   9.767   5.195 -0.1424 -0.0578  0.0177
    1CHOL    R229187   1.822   9.968   5.019  0.0531 -0.0342  0.1130
    1CHOL    R329188   1.857   9.761   4.847 -0.1374  0.0100  0.0194
    1CHOL    R429189   1.838   9.997   4.675  0.1043  0.1004  0.1272
    1CHOL    R529190   1.720   9.815   4.659 -0.0695  0.2256  0.0350
    1CHOL    C129191   1.881   9.820   4.313 -0.0448  0.2202  0.0476
    1CHOL    C229192   2.015  10.246   4.170 -0.0994 -0.2689  0.3959
    1CHOL   ROH29193  21.624  10.394   6.539  0.0640 -0.0465 -0.0897
    1CHOL    R129194  21.559  10.230   6.317  0.0990 -0.0957 -0.0634
    1CHOL    R229195  21.412  10.321   6.102 -0.0134 -0.1923 -0.0276
    1CHOL    R329196  21.625  10.231   5.960  0.0004 -0.0759 -0.0821
    1CHOL    R429197  21.423  10.292   5.758 -0.0511 -0.0896 -0.0377
    1CHOL    R529198  21.529  10.104   5.781  0.0201 -0.0599 -0.1055
    1CHOL    C129199  21.629  10.191   5.424 -0.0601  0.0794 -0.0947
    1CHOL    C229200  21.501  10.137   5.180  0.0491  0.0319  0.0060
    1CHOL   ROH29201  18.529  12.053   6.804 -0.1852 -0.0339 -0.0233
    1CHOL    R129202  18.514  12.233   6.586 -0.1036  0.1361  0.1086
    1CHOL    R229203  18.692  12.441   6.552  0.1347 -0.0572  0.1412
    1CHOL    R329204  18.727  12.329   6.307 -0.1593  0.0626  0.0404
    1CHOL    R429205  18.782  12.614   6.267  0.0824  0.0380  0.1821
    1CHOL    R529206  18.641  12.492   6.154 -0.1218  0.2436  0.2088
    1CHOL    C129207  18.867  12.609   5.870 -0.2242  0.2058  0.1112
    1CHOL    C229208  18.755  12.554   5.493 -0.0418  0.1747 -0.0536
    1CHOL   ROH29209   2.065  14.173   5.898  0.1570  0.2082  0.0700
    1CHOL    R129210   2.042  14.257   5.629  0.0426  0.1023  0.0468
    1CHOL    R229211   2.091  14.087   5.416  0.1249  0.0689  0.0975
    1CHOL    R329212   1.842  14.164   5.339  0.0529 -0.1396  0.1130
    1CHOL    R429213   1.955  14.031   5.103  0.2958  0.2558 -0.0134
    1CHOL    R529214   1.868  14.232   5.111  0.0520  0.1540  0.1912
    1CHOL    C129215   1.642  14.071   4.849  0.3277  0.1690 -0.0634
    1CHOL    C229216   1.674  13.861   4.470  0.3172 -0.0270 -0.2741
    1CHOL   ROH29217  16.570  10.062   6.493 -0.2776 -0.2088  0.0244
    1CHOL    R129218  16.479  10.062   6.225 -0.1354 -0.1627 -0.0242
    1CHOL    R229219  16.360  10.283   6.108  0.0345 -0.1056 -0.0859
    1CHOL    R329220  16.554  10.248   5.921  0.1154 -0.1975  0.0126
    1CHOL    R429221  16.307  10.285   5.767  0.2214  0.0479 -0.1161
    1CHOL    R529222  16.448  10.119   5.749  0.1047 -0.0612 -0.0887
    1CHOL    C129223  16.458  10.253   5.392  0.4063  0.0510 -0.0413
    1CHOL    C229224  16.104  10.259   5.165 -0.2279 -0.2239 -0.0717
    1CHOL   ROH29225  16.567  11.178   3.042  0.1488 -0.2208  0.0787
    1CHOL    R129226  16.561  11.169   3.325  0.1346  0.0344  0.0892
    1CHOL    R229227  16.597  11.394   3.482  0.0784  0.1869 -0.1103
    1CHOL    R329228  16.360  11.316   3.590  0.0884  0.2342 -0.0545
    1CHOL    R429229  16.483  11.485   3.795  0.1579  0.2280 -0.0932
    1CHOL    R529230  16.409  11.282   3.822  0.1301  0.2433 -0.0628
    1CHOL    C129231  16.195  11.464   4.080  0.2136  0.2963 -0.0310
    1CHOL    C229232  16.164  11.342   4.496 -0.2430  0.2146 -0.0367
    1CHOL   ROH29233   9.279  20.704   5.881 -0.3172 -0.0983  0.0806
    1CHOL    R129234   9.022  20.672   5.769 -0.3214  0.2502 -0.0223
    1CHOL    R229235   8.881  20.882   5.656  0.1066  0.4015 -0.3077
    1CHOL    R329236   8.869  20.716   5.441 -0.0657  0.2049 -0.1493
    1CHOL    R429237   8.642  20.899   5.407 -0.0556  0.2062 -0.1679
    1CHOL    R529238   8.635  20.681   5.407 -0.0931  0.2082  0.0374
    1CHOL    C129239   8.492  20.753   5.060 -0.3119 -0.0923  0.0622
    1CHOL    C229240   8.297  20.863   4.811  0.3613  0.1938 -0.2100
    1CHOL   ROH29241  19.891  11.523   6.572 -0.2015 -0.0799  0.0235
    1CHOL    R129242  19.871  11.667   6.329  0.0495  0.1085  0.1089
    1CHOL    R229243  20.093  11.741   6.182  0.1889 -0.3051  0.0877
    1CHOL    R329244  19.964  11.611   5.981 -0.1718  0.0891  0.0531
    1CHOL    R429245  20.145  11.796   5.844  0.3371 -0.3578  0.1020
    1CHOL    R529246  19.930  11.779   5.814  0.2779  0.2307  0.0956
    1CHOL    C129247  20.053  11.706   5.460  0.0847 -0.0185  0.0779
    1CHOL    C229248  20.293  11.749   5.181 -0.1656  0.2124  0.1110
    1CHOL   ROH29249   4.380   3.550   3.298  0.1610 -0.0652  0.0702
    1CHOL    R129250   4.406   3.494   3.574  0.1678 -0.0050  0.0816
    1CHOL    R229251   4.281   3.645   3.769  0.0690 -0.0412  0.0448
    1CHOL    R329252   4.184   3.403   3.848  0.1940 -0.0811  0.0780
    1CHOL    R429253   4.035   3.598   4.008 -0.1041 -0.1170 -0.1445
    1CHOL    R529254   4.148   3.427   4.083 -0.0297  0.0079  0.0374
    1CHOL    C129255   3.802   3.344   4.221 -0.0876 -0.1986 -0.2235
    1CHOL    C229256   3.386   3.159   4.259  0.0381  0.2824  0.1199
    1CHOL   ROH29257  26.097  11.442   3.276 -0.0695  0.2127 -0.0397
    1CHOL    R129258  26.251  11.506   3.505  0.0114  0.0517 -0.0473
    1CHOL    R229259  26.169  11.694   3.692  0.2118  0.1314 -0.0347
    1CHOL    R329260  26.207  11.488   3.866  0.0152  0.0852 -0.0459
    1CHOL    R429261  26.156  11.721   4.036  0.4318  0.1644 -0.0280
    1CHOL    R529262  26.326  11.585   4.048  0.2497 -0.0748 -0.1124
    1CHOL    C129263  26.184  11.543   4.400  0.3751  0.1402 -0.0345
    1CHOL    C229264  26.413  11.731   4.574 -0.3536 -0.0496  0.0848
    1CHOL   ROH29265  27.976  10.151   2.689 -0.0306  0.3511 -0.0365
    1CHOL    R129266  28.069   9.993   2.904 -0.0395  0.2527 -0.1035
    1CHOL    R229267  28.270  10.077   3.074  0.1037  0.0874 -0.1831
    1CHOL    R329268  28.086  10.023   3.267  0.1520  0.1909 -0.1071
    1CHOL    R429269  28.341  10.040   3.411  0.2011  0.1394 -0.1977
    1CHOL    R529270  28.199   9.875   3.417  0.1513  0.1895 -0.1117
    1CHOL    C129271  28.209   9.967   3.787  0.3033  0.2669 -0.1348
    1CHOL    C229272  28.428  10.002   4.130  0.0515  0.1407  0.2127
    1CHOL   ROH29273  24.542  10.751   3.379 -0.1008 -0.0605 -0.0244
    1CHOL    R129274  24.622  10.579   3.589 -0.1504  0.0072  0.0516
    1CHOL    R229275  24.864  10.608   3.721 -0.0971 -0.0603 -0.0215
    1CHOL    R329276  24.705  10.613   3.941 -0.0452  0.1574  0.0119
    1CHOL    R429277  24.978  10.607   4.047 -0.0368 -0.0758 -0.0429
    1CHOL    R529278  24.816  10.471   4.098 -0.1550  0.0980  0.0305
    1CHOL    C129279  24.895  10.611   4.444  0.0469  0.1194 -0.0240
    1CHOL    C229280  25.082  10.475   4.690 -0.0557  0.0121  0.1417
    1CHOL   ROH29281  18.958   4.333   6.584  0.3726 -0.1278  0.0035
    1CHOL    R129282  18.960   4.503   6.358  0.2419 -0.0479  0.0621
    1CHOL    R229283  19.175   4.517   6.184  0.1344  0.0027 -0.0625
    1CHOL    R329284  18.985   4.463   5.997  0.0186  0.0812  0.0293
    1CHOL    R429285  19.199   4.596   5.848  0.1078 -0.2041 -0.1153
    1CHOL    R529286  18.989   4.653   5.851  0.1578  0.0024 -0.0762
    1CHOL    C129287  19.035   4.591   5.477 -0.0164 -0.2509 -0.0599
    1CHOL    C229288  18.937   4.638   5.030  0.1783 -0.0672 -0.1151
    1CHOL   ROH29289   9.477  19.244   5.959 -0.2977  0.1134  0.0901
    1CHOL    R129290   9.538  19.500   5.853 -0.1982  0.0783  0.0622
    1CHOL    R229291   9.768  19.549   5.707 -0.1335 -0.0048  0.1381
    1CHOL    R329292   9.592  19.643   5.523 -0.0414  0.0028  0.0530
    1CHOL    R429293   9.856  19.683   5.401  0.0309  0.0716  0.2173
    1CHOL    R529294   9.701  19.834   5.428 -0.0134  0.0420  0.1578
    1CHOL    C129295   9.741  19.849   5.049  0.2129  0.1233  0.1836
    1CHOL    C229296   9.890  20.101   4.941 -0.1865 -0.1238  0.2339
    1CHOL   ROH29297  26.278   2.475   6.362  0.0465 -0.0835 -0.0018
    1CHOL    R129298  26.332   2.311   6.137  0.1491  0.0363 -0.0644
    1CHOL    R229299  26.131   2.206   5.978  0.2059 -0.1969  0.0245
    1CHOL    R329300  26.272   2.327   5.778 -0.0601  0.0316 -0.0330
    1CHOL    R429301  26.141   2.098   5.650  0.3938 -0.3134  0.0663
    1CHOL    R529302  26.354   2.146   5.645  0.3110  0.1371  0.0311
    1CHOL    C129303  26.279   2.148   5.271  0.2531 -0.1667  0.0366
    1CHOL    C229304  26.319   1.946   5.076 -0.1275 -0.0023  0.0236
    1CHOL   ROH29305  18.752  10.552   6.533 -0.0985  0.2226 -0.0316
    1CHOL    R129306  18.770  10.428   6.279 -0.0877  0.0844  0.0357
    1CHOL    R229307  18.674  10.546   6.048 -0.0822 -0.0419 -0.0338
    1CHOL    R329308  18.928  10.502   5.960 -0.0779 -0.0859  0.0006
    1CHOL    R429309  18.775  10.565   5.718  0.0139  0.1498  0.0051
    1CHOL    R529310  18.899  10.389   5.751 -0.0699  0.0747 -0.0870
    1CHOL    C129311  19.071  10.535   5.443  0.0738  0.2200  0.0601
    1CHOL    C229312  19.079  10.411   5.119 -0.2810 -0.0682 -0.0788
    1CHOL   ROH29313   4.364  20.368   6.067 -0.0367  0.1009  0.3342
    1CHOL    R129314   4.192  20.180   5.943 -0.0397  0.0738  0.3810
    1CHOL    R229315   3.962  20.087   6.064 -0.1742  0.3045  0.2997
    1CHOL    R329316   3.845  20.171   5.834  0.0337  0.1492  0.1314
    1CHOL    R429317   3.675  19.951   5.928 -0.3754  0.5700  0.4475
    1CHOL    R529318   3.766  19.970   5.730 -0.2805  0.1055  0.4297
    1CHOL    C129319   3.397  19.952   5.632 -0.2973  0.5788  0.3755
    1CHOL    C229320   3.094  19.849   5.434 -0.0519  0.1500 -0.2496
    1CHOL   ROH29321  25.479  14.580   6.321  0.2494  0.2974 -0.0762
    1CHOL    R129322  25.585  14.724   6.102  0.1740  0.2683 -0.1325
    1CHOL    R229323  25.597  14.619   5.847  0.1494  0.2070 -0.1108
    1CHOL    R329324  25.462  14.846   5.782  0.0825  0.1595 -0.1388
    1CHOL    R429325  25.526  14.721   5.524 -0.0656  0.0477 -0.1159
    1CHOL    R529326  25.572  14.926   5.584 -0.0529  0.0799 -0.2447
    1CHOL    C129327  25.358  14.993   5.276 -0.2538 -0.0896 -0.1451
    1CHOL    C229328  25.615  15.036   5.104  0.2109 -0.3108 -0.0447
    1CHOL   ROH29329  15.617  17.970   6.249 -0.0966  0.0720 -0.0505
    1CHOL    R129330  15.700  18.162   6.058 -0.0137  0.1397  0.0522
    1CHOL    R229331  15.886  18.106   5.862  0.0364  0.1947  0.0813
    1CHOL    R329332  15.690  18.196   5.696  0.0959  0.2899  0.0629
    1CHOL    R429333  15.931  18.190   5.530  0.0785  0.0358  0.0460
    1CHOL    R529334  15.798  18.361   5.560  0.2165  0.1532 -0.0070
    1CHOL    C129335  15.773  18.325   5.181  0.1588  0.0325  0.0082
    1CHOL    C229336  15.565  18.238   4.927  0.1859  0.1692  0.1036
    1CHOL   ROH29337  28.864   7.180   5.594  0.0867  0.1976  0.1384
    1CHOL    R129338  28.738   7.131   5.345  0.1151  0.0280  0.1559
    1CHOL    R229339  28.612   7.331   5.201 -0.0195 -0.1055  0.0894
    1CHOL    R329340  28.778   7.247   5.003  0.0331 -0.0630  0.1145
    1CHOL    R429341  28.558   7.380   4.863  0.1439  0.1056  0.0916
    1CHOL    R529342  28.631   7.179   4.827  0.0783  0.0935  0.0119
    1CHOL    C129343  28.683   7.330   4.481  0.2886  0.2685  0.1165
    1CHOL    C229344  28.574   7.178   4.145 -0.3319 -0.2084 -0.1314
    1CHOL   ROH29345  29.347   9.214   6.067 -0.2436  0.0200 -0.0567
    1CHOL    R129346  29.332   9.349   5.819  0.0689  0.0966 -0.0394
    1CHOL    R229347  29.535   9.340   5.631  0.1271 -0.2090  0.0276
    1CHOL    R329348  29.336   9.257   5.467  0.0370  0.1517 -0.0533
    1CHOL    R429349  29.529   9.388   5.289  0.3864 -0.2602  0.0142
    1CHOL    R529350  29.316   9.432   5.304  0.4596  0.1642 -0.0990
    1CHOL    C129351  29.338   9.338   4.935  0.4526  0.0486 -0.0696
    1CHOL    C229352  29.333   9.364   4.549 -0.2557 -0.2860  0.0544
    1CHOL   ROH29353  24.978  14.899   3.083 -0.0798 -0.1011 -0.1283
    1CHOL    R129354  25.034  14.714   3.289 -0.3745 -0.2656 -0.1932
    1CHOL    R229355  25.103  14.793   3.545  0.0857 -0.4506 -0.2663
    1CHOL    R329356  24.896  14.632   3.616 -0.2862  0.0882 -0.0577
    1CHOL    R429357  25.062  14.651   3.857  0.2665 -0.6204 -0.3155
    1CHOL    R529358  24.995  14.468   3.759 -0.4714 -0.3592 -0.3984
    1CHOL    C129359  24.843  14.417   4.105  0.0223 -0.2135 -0.1482
    1CHOL    C229360  25.111  14.330   4.403 -0.2281  0.0364 -0.0866
    1CHOL   ROH29361  24.564   7.929   2.855 -0.2323  0.0550 -0.0191
    1CHOL    R129362  24.449   7.897   3.112 -0.1357  0.0546  0.0252
    1CHOL    R229363  24.493   7.672   3.267 -0.1260  0.0257 -0.0161
    1CHOL    R329364  24.570   7.856   3.453 -0.0050 -0.0120 -0.0289
    1CHOL    R429365  24.480   7.625   3.609 -0.0588  0.0203 -0.0146
    1CHOL    R529366  24.411   7.830   3.630  0.0302  0.0466  0.0100
    1CHOL    C129367  24.544   7.769   3.982  0.0936 -0.0183 -0.0258
    1CHOL    C229368  24.347   7.658   4.286  0.1839 -0.0893 -0.2911
    1CHOL   ROH29369   5.741   3.235   6.097 -0.0569 -0.4436  0.0367
    1CHOL    R129370   5.931   3.279   5.892 -0.1243 -0.1805  0.0263
    1CHOL    R229371   6.108   3.084   5.809  0.0869  0.0320 -0.0439
    1CHOL    R329372   6.003   3.138   5.564 -0.0043 -0.0198 -0.0164
    1CHOL    R429373   6.253   2.995   5.508 -0.0867 -0.1235 -0.0834
    1CHOL    R529374   6.193   3.189   5.428 -0.0533 -0.1353 -0.1242
    1CHOL    C129375   6.239   2.995   5.102 -0.2732 -0.2628 -0.0805
    1CHOL    C229376   6.188   2.869   4.708 -0.0341  0.1328 -0.1217
    1CHOL   ROH29377  23.053   4.355   6.760  0.0458  0.0942 -0.0103
    1CHOL    R129378  23.071   4.363   6.478  0.0866  0.1387 -0.0066
    1CHOL    R229379  22.913   4.206   6.314  0.2439  0.0223 -0.0506
    1CHOL    R329380  22.849   4.445   6.202  0.0629 -0.0174 -0.0345
    1CHOL    R429381  22.885   4.264   5.975 -0.1316 -0.0524 -0.0369
    1CHOL    R529382  22.983   4.457   6.004 -0.1489 -0.0216 -0.1811
    1CHOL    C129383  22.808   4.523   5.671 -0.5200 -0.1332 -0.0138
    1CHOL    C229384  22.734   4.293   5.320  0.1321  0.1616 -0.2651
    1CHOL   ROH29385  13.951  25.407   4.347  0.1456 -0.1193 -0.2963
    1CHOL    R129386  13.695  25.303   4.407  0.1284  0.0057 -0.1486
    1CHOL    R229387  13.471  25.464   4.433  0.2073  0.1073 -0.0912
    1CHOL    R329388  13.369  25.296   4.246  0.0497  0.0967  0.0036
    1CHOL    R429389  13.135  25.398   4.391  0.1639  0.1747  0.1367
    1CHOL    R529390  13.186  25.189   4.357  0.0961  0.1571  0.1408
    1CHOL    C129391  12.842  25.201   4.191 -0.0093  0.2041  0.3584
    1CHOL    C229392  12.739  24.887   4.199 -0.0375  0.2339 -0.1274
    1CHOL   ROH29393  20.920  10.999   6.533 -0.0202 -0.2175 -0.0476
    1CHOL    R129394  20.749  11.005   6.307 -0.0075  0.0395 -0.0539
    1CHOL    R229395  20.830  11.105   6.062  0.1395 -0.0435 -0.0439
    1CHOL    R329396  20.748  10.862   5.972 -0.1906  0.0723 -0.0674
    1CHOL    R429397  20.777  11.026   5.730  0.2110  0.0045 -0.0664
    1CHOL    R529398  20.600  10.913   5.791 -0.0047  0.2869 -0.1602
    1CHOL    C129399  20.670  10.752   5.452 -0.0575  0.1411 -0.1015
    1CHOL    C229400  20.624  10.906   5.003  0.1706  0.1939  0.2003
    1CHOL   ROH29401  19.107  14.080   6.750 -0.0964  0.2110  0.1816
    1CHOL    R129402  19.131  13.994   6.482  0.0105  0.2609  0.1750
    1CHOL    R229403  18.914  13.909   6.333  0.0879  0.1825  0.1094
    1CHOL    R329404  19.001  14.099   6.158  0.0435  0.2471  0.1567
    1CHOL    R429405  18.844  13.913   5.994  0.1181  0.2264  0.1034
    1CHOL    R529406  19.049  13.977   5.957  0.1026  0.3014  0.1362
    1CHOL    C129407  18.884  14.094   5.634  0.0941  0.3127  0.1443
    1CHOL    C229408  18.890  13.879   5.293 -0.2821 -0.0425 -0.0635
    1CHOL   ROH29409  21.076   8.505   3.041  0.0437  0.2189 -0.0082
    1CHOL    R129410  21.122   8.395   3.298  0.0020  0.2159 -0.0023
    1CHOL    R229411  21.188   8.550   3.516 -0.0607  0.2156  0.0152
    1CHOL    R329412  20.975   8.426   3.630 -0.0705  0.1888 -0.0313
    1CHOL    R429413  21.124   8.540   3.856  0.0180 -0.0288  0.0250
    1CHOL    R529414  21.062   8.332   3.832 -0.0480  0.0050 -0.1231
    1CHOL    C129415  20.886   8.417   4.160  0.0548 -0.1961 -0.0130
    1CHOL    C229416  20.919   8.263   4.325  0.1747  0.1467  0.1187
    1CHOL   ROH29417   0.252  11.211   6.118 -0.3093  0.1499 -0.0068
    1CHOL    R129418   0.281  11.306   5.853 -0.1171  0.1045 -0.0033
    1CHOL    R229419   0.402  11.157   5.653 -0.1736 -0.0220  0.0558
    1CHOL    R329420   0.170  11.205   5.521 -0.0800  0.1821 -0.0400
    1CHOL    R429421   0.373  11.197   5.311 -0.0305 -0.2664  0.0131
    1CHOL    R529422   0.230  11.357   5.347  0.1710 -0.0401 -0.1545
    1CHOL    C129423   0.137  11.264   4.988  0.1406 -0.2172 -0.1017
    1CHOL    C229424   0.182  11.412   4.650 -0.0032 -0.1266  0.2389
    1CHOL   ROH29425   0.577  15.083   6.466 -0.1265 -0.2121  0.0274
    1CHOL    R129426   0.661  14.993   6.210 -0.2240 -0.2400  0.0045
    1CHOL    R229427   0.917  15.038   6.114 -0.3076 -0.1114 -0.1623
    1CHOL    R329428   0.915  14.768   6.080 -0.1612 -0.1244 -0.0758
    1CHOL    R429429   1.157  14.857   5.943 -0.1399 -0.0516  0.0065
    1CHOL    R529430   0.999  14.734   5.859 -0.0427 -0.1564 -0.0272
    1CHOL    C129431   1.295  14.499   5.812  0.0951 -0.0290  0.1860
    1CHOL    C229432   1.232  14.487   5.431  0.0976  0.1312  0.1556
    1CHOL   ROH29433  11.404  10.493   4.531 -0.2025  0.1391 -0.2695
    1CHOL    R129434  11.213  10.284   4.546 -0.0955  0.0463 -0.1673
    1CHOL    R229435  11.141  10.132   4.327 -0.1450  0.0135 -0.1325
    1CHOL    R329436  11.209   9.925   4.489  0.0472  0.0457 -0.1716
    1CHOL    R429437  11.043   9.804   4.281 -0.1626 -0.0040  0.0283
    1CHOL    R529438  11.014   9.787   4.496  0.0689  0.0273  0.0611
    1CHOL    C129439  11.050   9.418   4.406  0.0077  0.0160  0.0854
    1CHOL    C229440  11.149   9.017   4.491 -0.2002  0.0938  0.0724
    1CHOL   ROH29441  18.510  11.686   2.970  0.2885  0.0984  0.1734
    1CHOL    R129442  18.373  11.576   3.192  0.1735  0.1720  0.1403
    1CHOL    R229443  18.468  11.358   3.333 -0.0295  0.0529  0.1027
    1CHOL    R329444  18.441  11.525   3.545  0.1053  0.0358  0.1337
    1CHOL    R429445  18.427  11.256   3.661 -0.0844  0.0309  0.0888
    1CHOL    R529446  18.282  11.416   3.687  0.0355  0.1305  0.1252
    1CHOL    C129447  18.378  11.353   4.051  0.0103  0.0018  0.1098
    1CHOL    C229448  18.452  11.322   4.367  0.0185  0.0270  0.0774
    1CHOL   ROH29449  28.354  24.896   5.574 -0.0837 -0.0786 -0.1071
    1CHOL    R129450  28.521  25.121   5.616 -0.0263 -0.1400 -0.0056
    1CHOL    R229451  28.790  25.097   5.677  0.0013 -0.2362 -0.1703
    1CHOL    R329452  28.820  25.259   5.462 -0.0864 -0.0545 -0.0488
    1CHOL    R429453  29.055  25.313   5.628  0.0323 -0.2649 -0.1326
    1CHOL    R529454  28.915  25.460   5.551  0.0208 -0.1554  0.0781
    1CHOL    C129455  29.238  25.591   5.396 -0.0322 -0.1110  0.0035
    1CHOL    C229456  29.471  25.760   5.400 -0.0264  0.2403  0.1400
    1CHOL   ROH29457  26.650   9.677   3.120 -0.1596 -0.0622 -0.0188
    1CHOL    R129458  26.729   9.727   3.387 -0.1169  0.0985 -0.0621
    1CHOL    R229459  26.567   9.860   3.567 -0.2144 -0.0675 -0.0356
    1CHOL    R329460  26.608   9.639   3.720  0.1282  0.0201  0.0100
    1CHOL    R429461  26.556   9.853   3.913 -0.5274 -0.0600 -0.0415
    1CHOL    R529462  26.728   9.720   3.911 -0.2185  0.3055  0.1241
    1CHOL    C129463  26.588   9.641   4.257 -0.3880  0.0268 -0.0022
    1CHOL    C229464  26.768   9.408   4.505  0.1820 -0.0264  0.0681
    1CHOL   ROH29465  21.745  18.345   3.872 -0.1017 -0.0162 -0.0906
    1CHOL    R129466  21.583  18.441   4.083  0.0194 -0.0732  0.0303
    1CHOL    R229467  21.329  18.342   4.132 -0.0310  0.0503  0.0252
    1CHOL    R329468  21.429  18.302   4.382  0.0166 -0.2063 -0.0325
    1CHOL    R429469  21.140  18.258   4.409 -0.0281  0.1252  0.0498
    1CHOL    R529470  21.263  18.394   4.528  0.1806 -0.0851  0.0802
    1CHOL    C129471  21.124  18.172   4.805  0.0182 -0.0720  0.0100
    1CHOL    C229472  20.975  18.069   5.117 -0.2422 -0.1504 -0.3371
    1CHOL   ROH29473  26.361  13.522   6.622 -0.3620 -0.0346  0.2156
    1CHOL    R129474  26.427  13.380   6.386 -0.1379  0.0213  0.2432
    1CHOL    R229475  26.236  13.292   6.207  0.0211 -0.0815  0.1288
    1CHOL    R329476  26.388  13.429   6.028  0.0421  0.0190  0.2205
    1CHOL    R429477  26.169  13.315   5.868  0.1566 -0.0659  0.1019
    1CHOL    R529478  26.383  13.294   5.830  0.1923  0.0392  0.1956
    1CHOL    C129479  26.273  13.457   5.503  0.2552  0.0375  0.1723
    1CHOL    C229480  26.138  13.409   5.187  0.0532  0.2241 -0.3292
    1CHOL   ROH29481  22.472   9.210   3.031  0.1713 -0.4447 -0.1509
    1CHOL    R129482  22.535   9.071   3.269  0.1854 -0.2146 -0.0168
    1CHOL    R229483  22.677   9.187   3.476  0.0073  0.0587 -0.0401
    1CHOL    R329484  22.463   9.108   3.624  0.0066 -0.0014 -0.0738
    1CHOL    R429485  22.668   9.176   3.821 -0.0654  0.1086 -0.0405
    1CHOL    R529486  22.559   8.989   3.808  0.0115  0.0652 -0.0348
    1CHOL    C129487  22.462   9.096   4.161 -0.1083  0.0812 -0.0724
    1CHOL    C229488  22.491   8.851   4.466  0.0593 -0.0285  0.1806
    1CHOL   ROH29489  18.524  24.282   7.037 -0.1824  0.0415  0.3127
    1CHOL    R129490  18.597  24.345   6.770 -0.0356  0.0940  0.3646
    1CHOL    R229491  18.463  24.242   6.551  0.2496 -0.0725  0.2662
    1CHOL    R329492  18.439  24.504   6.484  0.0202 -0.1025  0.2216
    1CHOL    R429493  18.423  24.361   6.229  0.3950 -0.1511  0.2177
    1CHOL    R529494  18.558  24.524   6.278  0.1784  0.0051  0.3201
    1CHOL    C129495  18.377  24.676   5.979  0.2645 -0.2247  0.1477
    1CHOL    C229496  18.615  24.604   5.650 -0.0246  0.2998 -0.2587
    1CHOL   ROH29497   5.537  16.510   3.080  0.0438 -0.0875  0.0716
    1CHOL    R129498   5.524  16.372   3.327 -0.2883 -0.2375 -0.0242
    1CHOL    R229499   5.443  16.108   3.346  0.1982 -0.4289 -0.3721
    1CHOL    R329500   5.680  16.078   3.474 -0.0358  0.0059  0.2038
    1CHOL    R429501   5.526  15.840   3.547  0.3213 -0.4640 -0.4704
    1CHOL    R529502   5.622  15.979   3.684 -0.3521 -0.3706 -0.0477
    1CHOL    C129503   5.798  15.656   3.785  0.1734 -0.0764  0.0131
    1CHOL    C229504   6.085  15.412   3.918 -0.0733  0.1669 -0.2046
    1CHOL   ROH29505  17.885  12.444   3.178 -0.0950  0.0256 -0.0284
    1CHOL    R129506  17.894  12.490   3.457  0.0408 -0.0002 -0.0283
    1CHOL    R229507  17.679  12.441   3.623  0.0760  0.1150  0.0513
    1CHOL    R329508  17.860  12.290   3.759  0.0401 -0.0023 -0.0295
    1CHOL    R429509  17.667  12.377   3.962  0.1058  0.0034  0.0318
    1CHOL    R529510  17.884  12.401   3.969  0.1175 -0.0829  0.0055
    1CHOL    C129511  17.830  12.198   4.287  0.0896 -0.1716 -0.0554
    1CHOL    C229512  17.685  12.322   4.626  0.2628 -0.0569  0.0148
    1CHOL   ROH29513  29.295   2.278   4.329  0.0915 -0.0119 -0.0750
    1CHOL    R129514  29.449   2.515   4.343  0.1166 -0.0277 -0.1117
    1CHOL    R229515  29.483   2.683   4.127 -0.0745  0.0595 -0.0668
    1CHOL    R329516  29.389   2.872   4.298  0.0977 -0.0008  0.0996
    1CHOL    R429517  29.555   3.021   4.106 -0.1986  0.0844 -0.1167
    1CHOL    R529518  29.572   3.024   4.324  0.0986  0.0497 -0.1276
    1CHOL    C129519  29.508   3.394   4.256 -0.1093  0.0423  0.0105
    1CHOL    C229520   0.087   3.597   4.084  0.1772 -0.0380  0.0438
    1CHOL   ROH29521  20.724   6.513   3.358 -0.0566 -0.0478 -0.0302
    1CHOL    R129522  20.637   6.553   3.625  0.0160 -0.0843 -0.0010
    1CHOL    R229523  20.445   6.394   3.745  0.0113 -0.0682  0.0122
    1CHOL    R329524  20.637   6.362   3.934  0.0502 -0.1480 -0.0402
    1CHOL    R429525  20.384   6.326   4.078  0.0690  0.1262  0.0640
    1CHOL    R529526  20.544   6.464   4.130  0.2035  0.0144 -0.0504
    1CHOL    C129527  20.528   6.256   4.450  0.1390  0.1645  0.0449
    1CHOL    C229528  20.486   6.374   4.782 -0.0199  0.1414 -0.1576
    1CHOL   ROH29529  23.470  10.439   3.285 -0.0822  0.1680  0.0642
    1CHOL    R129530  23.512  10.469   3.563 -0.0417  0.1318  0.0615
    1CHOL    R229531  23.386  10.664   3.712 -0.1867 -0.0255  0.1430
    1CHOL    R329532  23.309  10.453   3.865  0.0463 -0.1387  0.1102
    1CHOL    R429533  23.330  10.677   4.053 -0.3321 -0.1017  0.1230
    1CHOL    R529534  23.427  10.482   4.071 -0.0668  0.0254  0.1558
    1CHOL    C129535  23.224  10.486   4.394 -0.1979 -0.2523  0.0806
    1CHOL    C229536  23.107  10.608   4.792 -0.0092 -0.1759  0.1906
    1CHOL   ROH29537  18.272  13.281   6.907 -0.0603  0.0532  0.0391
    1CHOL    R129538  18.184  13.173   6.661  0.1935 -0.0823  0.0052
    1CHOL    R229539  18.000  13.301   6.500 -0.0563 -0.4282  0.0114
    1CHOL    R329540  18.193  13.273   6.311  0.0338  0.0115  0.0257
    1CHOL    R429541  17.944  13.296   6.159 -0.0249 -0.5248  0.0069
    1CHOL    R529542  18.092  13.137   6.142  0.3380 -0.2084  0.0068
    1CHOL    C129543  18.093  13.266   5.783  0.0782 -0.1684  0.0178
    1CHOL    C229544  18.176  13.223   5.426 -0.2990  0.0752  0.0385
    1CHOL   ROH29545  17.897  11.355   6.364  0.2456  0.0127  0.0517
    1CHOL    R129546  18.062  11.291   6.144  0.1040 -0.0582 -0.0355
    1CHOL    R229547  17.987  11.109   5.950 -0.0958  0.0054 -0.0249
    1CHOL    R329548  18.040  11.315   5.781 -0.0576 -0.0024 -0.0218
    1CHOL    R429549  18.067  11.074   5.615 -0.1152  0.0038 -0.0291
    1CHOL    R529550  18.215  11.232   5.640 -0.0829 -0.0316 -0.0312
    1CHOL    C129551  18.163  11.247   5.262 -0.0908 -0.0046 -0.0286
    1CHOL    C229552  18.144  10.924   5.117 -0.0645 -0.0921 -0.0465
    1CHOL   ROH29553   5.609   0.788   3.340 -0.0558  0.0839  0.1109
    1CHOL    R129554   5.854   0.826   3.478 -0.0469  0.0443  0.1076
    1CHOL    R229555   5.869   0.836   3.754 -0.0400  0.0391  0.1109
    1CHOL    R329556   6.053   0.639   3.718 -0.0745  0.0093  0.1021
    1CHOL    R429557   6.091   0.726   3.995  0.1171  0.1649  0.0255
    1CHOL    R529558   6.244   0.713   3.842  0.0126  0.0684 -0.0689
    1CHOL    C129559   6.392   0.477   4.102  0.1761  0.2102 -0.0325
    1CHOL    C229560   6.648   0.586   4.262  0.2579 -0.2201 -0.4726
    1CHOL   ROH29561   8.451   4.765   5.449 -0.0633  0.2196 -0.1151
    1CHOL    R129562   8.456   4.583   5.233  0.0648  0.1219 -0.0306
    1CHOL    R229563   8.352   4.643   4.984 -0.0472 -0.0935 -0.0358
    1CHOL    R329564   8.600   4.572   4.899  0.0037  0.1021 -0.0573
    1CHOL    R429565   8.416   4.415   4.733  0.1069 -0.2746  0.1633
    1CHOL    R529566   8.581   4.338   4.851  0.2452  0.0274  0.1822
    1CHOL    C129567   8.686   4.216   4.506  0.2443 -0.1966  0.2590
    1CHOL    C229568   8.963   4.141   4.131  0.1731 -0.3931 -0.1573
    1CHOL   ROH29569  27.416   0.317   5.966  0.0433  0.2434  0.2034
    1CHOL    R129570  27.274   0.529   5.844 -0.0629  0.1454  0.1508
    1CHOL    R229571  27.400   0.751   5.740 -0.1791  0.2392  0.1967
    1CHOL    R329572  27.262   0.686   5.515 -0.0486  0.1360  0.1467
    1CHOL    R429573  27.293   0.979   5.503 -0.0951  0.1349  0.0590
    1CHOL    R529574  27.106   0.866   5.488 -0.0657  0.0978 -0.0006
    1CHOL    C129575  27.100   1.050   5.154  0.0764 -0.0228 -0.0680
    1CHOL    C229576  27.218   1.191   4.852 -0.2950  0.0671 -0.0353
    1CHOL   ROH29577  14.497   1.998   4.004  0.0525  0.0717 -0.2402
    1CHOL    R129578  14.727   2.162   4.017  0.1149 -0.0231 -0.1312
    1CHOL    R229579  14.718   2.422   4.109  0.1883 -0.0357 -0.0894
    1CHOL    R329580  14.913   2.335   4.277  0.0951 -0.1430 -0.0358
    1CHOL    R429581  15.021   2.582   4.160  0.2504 -0.1845  0.0131
    1CHOL    R529582  15.117   2.386   4.163  0.1551 -0.2331  0.0289
    1CHOL    C129583  15.380   2.593   4.348  0.1991 -0.3718  0.1231
    1CHOL    C229584  15.754   2.535   4.402  0.0327 -0.3561 -0.1283
    1CHOL   ROH29585   2.115   4.642   5.603  0.0483 -0.0203  0.0070
    1CHOL    R129586   2.096   4.668   5.322  0.0224  0.0818  0.0176
    1CHOL    R229587   2.131   4.455   5.150  0.3255  0.2036 -0.0799
    1CHOL    R329588   1.887   4.531   5.057  0.2185 -0.0906 -0.0501
    1CHOL    R429589   2.009   4.384   4.834  0.3909  0.0986 -0.0821
    1CHOL    R529590   1.925   4.585   4.827  0.1332 -0.0039 -0.0436
    1CHOL    C129591   1.708   4.415   4.564  0.3285 -0.2388 -0.0554
    1CHOL    C229592   1.538   4.099   4.574 -0.0865 -0.2111 -0.0849
    1CHOL   ROH29593  24.812   8.899   3.062  0.1176 -0.1560  0.0186
    1CHOL    R129594  24.700   8.817   3.309  0.0447 -0.0247  0.0307
    1CHOL    R229595  24.854   8.712   3.514 -0.0407 -0.1067  0.0577
    1CHOL    R329596  24.737   8.910   3.659  0.1066  0.0144  0.0130
    1CHOL    R429597  24.840   8.723   3.859 -0.1069 -0.0525  0.0533
    1CHOL    R529598  24.635   8.797   3.844 -0.0352  0.1292  0.0039
    1CHOL    C129599  24.722   8.915   4.196 -0.0073  0.0928  0.0089
    1CHOL    C229600  24.906   8.970   4.633  0.0968 -0.2532  0.2716
    1CHOL   ROH29601  25.021  18.158   4.348 -0.2307  0.1048  0.0824
    1CHOL    R129602  25.203  18.276   4.531 -0.2781  0.1121  0.1249
    1CHOL    R229603  25.417  18.430   4.449 -0.0946 -0.1179  0.1576
    1CHOL    R329604  25.308  18.613   4.619 -0.0871  0.1057 -0.0709
    1CHOL    R429605  25.597  18.662   4.632 -0.0601 -0.1071  0.1107
    1CHOL    R529606  25.464  18.625   4.801 -0.2192  0.1318  0.0401
    1CHOL    C129607  25.600  18.968   4.898 -0.0329  0.1090 -0.1310
    1CHOL    C229608  25.650  19.360   4.991  0.1746  0.1013  0.2120
    1CHOL   ROH29609  24.959   3.746   3.299  0.3532 -0.1171 -0.1546
    1CHOL    R129610  25.089   3.738   3.550  0.3286 -0.1836 -0.1422
    1CHOL    R229611  24.967   3.818   3.784  0.4419  0.1631 -0.1869
    1CHOL    R329612  25.038   3.570   3.869  0.0260  0.0850 -0.0467
    1CHOL    R429613  25.082   3.744   4.101  0.5040  0.1745 -0.2079
    1CHOL    R529614  25.227   3.608   4.011  0.1904 -0.1702 -0.1984
    1CHOL    C129615  25.216   3.468   4.366  0.1499  0.1078 -0.0885
    1CHOL    C229616  25.269   3.341   4.750 -0.0074  0.0955  0.2422
    1CHOL   ROH29617  21.881   6.867   6.642 -0.1751  0.0256 -0.0226
    1CHOL    R129618  21.819   6.929   6.373 -0.0848  0.2405  0.0040
    1CHOL    R229619  21.923   7.151   6.244  0.2262  0.1655  0.1100
    1CHOL    R329620  22.003   6.967   6.061 -0.0232  0.1357  0.0282
    1CHOL    R429621  22.014   7.222   5.918  0.1535  0.1598  0.0888
    1CHOL    R529622  21.909   7.043   5.855 -0.0405  0.2740  0.0879
    1CHOL    C129623  22.143   7.090   5.557 -0.1230  0.1285 -0.0002
    1CHOL    C229624  22.314   7.098   5.229  0.0115  0.1025 -0.2221
    1CHOL   ROH29625  28.210  15.594   6.554  0.2481  0.0234 -0.0073
    1CHOL    R129626  28.173  15.508   6.288  0.2227 -0.0477  0.0190
    1CHOL    R229627  28.105  15.680   6.083 -0.1081 -0.1499  0.0374
    1CHOL    R329628  28.325  15.575   5.964 -0.0287  0.1253 -0.0663
    1CHOL    R429629  28.164  15.682   5.743 -0.3448 -0.2003 -0.0058
    1CHOL    R529630  28.242  15.479   5.761 -0.0299 -0.0834  0.0297
    1CHOL    C129631  28.406  15.583   5.432 -0.4080  0.0285 -0.1282
    1CHOL    C229632  28.333  15.268   5.117 -0.0224 -0.0806  0.2203
    1CHOL   ROH29633  28.898  10.167   2.492  0.0620 -0.0470  0.0760
    1CHOL    R129634  28.910  10.236   2.767 -0.0093 -0.0330  0.0772
    1CHOL    R229635  28.686  10.304   2.913 -0.0631 -0.0915  0.0374
    1CHOL    R329636  28.773  10.106   3.078 -0.0322 -0.0651  0.0508
    1CHOL    R429637  28.671  10.313   3.258  0.0353 -0.0446  0.0400
    1CHOL    R529638  28.868  10.222   3.265  0.0225 -0.0505  0.0048
    1CHOL    C129639  28.743  10.133   3.614  0.1216  0.0075  0.0542
    1CHOL    C229640  28.975  10.017   3.864  0.2770 -0.2684 -0.2293
    1CHOL   ROH29641   9.309  20.800   5.434 -0.1050 -0.1953 -0.0191
    1CHOL    R129642   9.389  20.701   5.181  0.0099 -0.1390 -0.0057
    1CHOL    R229643   9.536  20.853   5.002  0.0108 -0.0645  0.0541
    1CHOL    R329644   9.704  20.640   5.009  0.0867 -0.0034  0.0858
    1CHOL    R429645   9.752  20.762   4.748  0.1023  0.0184  0.1019
    1CHOL    R529646   9.702  20.554   4.786  0.1698  0.0009  0.0845
    1CHOL    C129647  10.035  20.508   4.607  0.2269  0.1240  0.1595
    1CHOL    C229648  10.351  20.639   4.517 -0.0060  0.1660 -0.1953
    1CHOL   ROH29649  25.478  12.987   3.283  0.0818  0.2252  0.1070
    1CHOL    R129650  25.606  12.898   3.519 -0.1428 -0.1394  0.0983
    1CHOL    R229651  25.623  13.053   3.747  0.2748 -0.1890  0.1077
    1CHOL    R329652  25.511  12.835   3.865 -0.3107  0.0860  0.0956
    1CHOL    R429653  25.537  13.031   4.081  0.4644 -0.0628  0.1668
    1CHOL    R529654  25.612  12.826   4.082 -0.1545 -0.3120  0.0163
    1CHOL    C129655  25.382  12.813   4.386  0.0251  0.2689  0.1900
    1CHOL    C229656  25.474  12.978   4.725  0.0909 -0.0813 -0.2088
    1CHOL   ROH29657  29.200   8.329   5.673  0.0602 -0.0531 -0.0306
    1CHOL    R129658  29.130   8.213   5.424  0.1145 -0.0864 -0.0315
    1CHOL    R229659  28.874   8.226   5.320  0.0956 -0.2367 -0.0180
    1CHOL    R329660  29.002   8.332   5.105  0.0235 -0.1486 -0.0170
    1CHOL    R429661  28.774   8.186   4.992  0.0975 -0.2512 -0.0160
    1CHOL    R529662  28.983   8.163   4.936  0.1010 -0.1358 -0.0336
    1CHOL    C129663  28.835   8.261   4.598  0.0309 -0.1769 -0.0140
    1CHOL    C229664  28.621   8.313   4.327 -0.3358  0.1818  0.1301
    1CHOL   ROH29665   4.137  11.368   4.870 -0.0998 -0.1345 -0.0986
    1CHOL    R129666   4.044  11.599   4.735 -0.0192 -0.0925 -0.0831
    1CHOL    R229667   4.179  11.840   4.744  0.0382 -0.1259 -0.0248
    1CHOL    R329668   4.168  11.820   4.473  0.0821 -0.0853 -0.0296
    1CHOL    R429669   4.198  12.107   4.525  0.2118 -0.1058  0.0140
    1CHOL    R529670   4.043  12.012   4.404  0.1895 -0.0150 -0.0295
    1CHOL    C129671   4.199  12.243   4.143  0.3542 -0.0559  0.0321
    1CHOL    C229672   4.319  12.529   3.876 -0.0729  0.0398  0.0896
    1CHOL   ROH29673   2.528  14.563   3.105  0.1923 -0.0373 -0.1232
    1CHOL    R129674   2.730  14.565   3.303  0.1192  0.0489 -0.0479
    1CHOL    R229675   2.688  14.470   3.560  0.0832 -0.0289 -0.0788
    1CHOL    R329676   2.906  14.318   3.504  0.1970  0.1167 -0.0339
    1CHOL    R429677   2.952  14.414   3.776 -0.0196 -0.0233  0.0484
    1CHOL    R529678   3.088  14.433   3.608  0.0746  0.1461  0.1459
    1CHOL    C129679   3.310  14.239   3.850  0.0274  0.1165  0.1645
    1CHOL    C229680   3.685  14.117   3.948 -0.0828  0.0098 -0.1732
    1CHOL   ROH29681   4.404  12.140   2.391 -0.0945  0.2690  0.1018
    1CHOL    R129682   4.524  11.995   2.602 -0.0809  0.2074  0.0524
    1CHOL    R229683   4.640  12.118   2.821 -0.0430  0.1448  0.0687
    1CHOL    R329684   4.471  11.958   2.960 -0.0402  0.1261  0.0501
    1CHOL    R429685   4.678  12.033   3.154  0.0064  0.0353  0.0354
    1CHOL    R529686   4.614  11.831   3.104 -0.0323  0.0602 -0.0159
    1CHOL    C129687   4.541  11.833   3.478  0.0377 -0.0460 -0.0015
    1CHOL    C229688   4.435  12.032   3.768 -0.1081 -0.1019 -0.2234
    1CHOL   ROH29689  25.977   8.934   6.309 -0.0432  0.0984  0.0304
    1CHOL    R129690  26.052   8.924   6.036 -0.0152 -0.0322  0.0427
    1CHOL    R229691  25.982   8.714   5.871 -0.2218  0.0126  0.0723
    1CHOL    R329692  25.880   8.912   5.715  0.0162  0.0980  0.0204
    1CHOL    R429693  25.945   8.696   5.528 -0.1381  0.0112  0.0631
    1CHOL    R529694  26.011   8.903   5.515  0.0691 -0.0517  0.0595
    1CHOL    C129695  25.829   8.871   5.182  0.1340  0.0906  0.0090
    1CHOL    C229696  25.811   8.756   4.857  0.1592 -0.3890  0.2181
    1CHOL   ROH29697  27.199   2.815   6.158  0.2306  0.0867 -0.0658
    1CHOL    R129698  27.135   2.696   5.910  0.3205 -0.0810 -0.0113
    1CHOL    R229699  27.005   2.834   5.707  0.0108 -0.3334 -0.0007
    1CHOL    R329700  27.219   2.753   5.560  0.0922 -0.0250 -0.0568
    1CHOL    R429701  27.027   2.849   5.363 -0.1024 -0.3350 -0.0075
    1CHOL    R529702  27.124   2.655   5.364  0.1894 -0.1860 -0.0186
    1CHOL    C129703  27.240   2.782   5.024 -0.0920 -0.0464 -0.0642
    1CHOL    C229704  27.240   2.986   4.732 -0.1061  0.0512  0.2120
    1CHOL   ROH29705  19.992  19.013   4.453  0.0870 -0.0006  0.2112
    1CHOL    R129706  20.059  18.770   4.581  0.0600  0.0726  0.3658
    1CHOL    R229707  19.985  18.714   4.842 -0.3984  0.0365  0.2378
    1CHOL    R329708  19.878  18.491   4.730  0.0158 -0.0742  0.0434
    1CHOL    R429709  19.966  18.405   4.996 -0.4800  0.0495  0.2547
    1CHOL    R529710  20.019  18.312   4.806  0.0024  0.0520  0.3768
    1CHOL    C129711  19.854  18.015   4.979 -0.1385 -0.0465  0.0820
    1CHOL    C229712  19.982  17.851   5.297  0.0940 -0.3280 -0.1397
    1CHOL   ROH29713  18.422   9.519   6.396  0.1134 -0.1385 -0.0901
    1CHOL    R129714  18.607   9.588   6.192  0.0517  0.0475 -0.0855
    1CHOL    R229715  18.748   9.398   6.049  0.3018  0.1889 -0.0315
    1CHOL    R329716  18.641   9.527   5.835  0.1627  0.0143 -0.0698
    1CHOL    R429717  18.855   9.359   5.723  0.3057  0.1613 -0.0268
    1CHOL    R529718  18.830   9.574   5.695  0.1089  0.1316 -0.1052
    1CHOL    C129719  18.817   9.458   5.332  0.1776 -0.0188 -0.0599
    1CHOL    C229720  18.901   9.252   5.067 -0.0847  0.0084  0.0247
    1CHOL   ROH29721  20.278  29.105   6.612 -0.1056 -0.0162  0.0963
    1CHOL    R129722  20.145  29.159   6.369  0.0250 -0.0816  0.0088
    1CHOL    R229723  20.098  29.416   6.279 -0.0994 -0.1033  0.0117
    1CHOL    R329724  20.224  29.327   6.056  0.1242  0.0181  0.0862
    1CHOL    R429725  20.103  29.582   5.976 -0.2756 -0.2006 -0.0459
    1CHOL    R529726  20.078  29.390   5.876  0.0728 -0.2856  0.0145
    1CHOL    C129727  20.224  29.595   5.590 -0.1686 -0.1434 -0.0095
    1CHOL    C229728  20.242  29.544   5.200  0.1391  0.0901 -0.0273
    1CHOL   ROH29729   4.966  11.213   4.834 -0.1001  0.0076  0.0166
    1CHOL    R129730   4.784  11.188   4.618 -0.1343  0.0907  0.0338
    1CHOL    R229731   4.518  11.255   4.640 -0.1231  0.1420  0.0824
    1CHOL    R329732   4.572  11.410   4.424 -0.1130  0.1779  0.1122
    1CHOL    R429733   4.284  11.356   4.406 -0.0748  0.0465 -0.0063
    1CHOL    R529734   4.433  11.321   4.250 -0.0005  0.1253  0.0529
    1CHOL    C129735   4.200  11.561   4.067 -0.0372  0.0245 -0.0300
    1CHOL    C229736   3.938  11.758   4.010 -0.0358 -0.1545 -0.0489
    1CHOL   ROH29737  19.849  17.203   5.533  0.2308  0.0727 -0.1147
    1CHOL    R129738  19.879  16.934   5.451  0.1017  0.0557 -0.1079
    1CHOL    R229739  19.684  16.799   5.310  0.0094  0.1248 -0.0461
    1CHOL    R329740  19.888  16.753   5.135 -0.0569  0.0326 -0.1002
    1CHOL    R429741  19.672  16.574   5.048 -0.1435  0.0876 -0.0082
    1CHOL    R529742  19.878  16.517   5.094 -0.1467  0.0282 -0.0608
    1CHOL    C129743  19.857  16.399   4.731 -0.2948 -0.0206 -0.0369
    1CHOL    C229744  19.802  16.390   4.357  0.1446 -0.1158  0.1892
    1CHOL   ROH29745  15.686  13.317   6.694  0.0702 -0.0014  0.0113
    1CHOL    R129746  15.856  13.295   6.469 -0.0309 -0.0992 -0.0592
    1CHOL    R229747  15.832  13.093   6.283 -0.1996 -0.1125 -0.0377
    1CHOL    R329748  15.819  13.300   6.107 -0.1857 -0.1163 -0.0410
    1CHOL    R429749  15.864  13.064   5.940 -0.1195 -0.0880 -0.0315
    1CHOL    R529750  15.982  13.247   5.940 -0.1495 -0.0823 -0.0047
    1CHOL    C129751  15.871  13.242   5.575 -0.0597 -0.0773 -0.0309
    1CHOL    C229752  15.766  13.436   5.214  0.0427 -0.2813 -0.1564
    1CHOL   ROH29753  22.533   9.896   6.726 -0.0476  0.0104 -0.0214
    1CHOL    R129754  22.432   9.837   6.469  0.1555 -0.1402 -0.0675
    1CHOL    R229755  22.344  10.033   6.294 -0.1141 -0.2745 -0.0746
    1CHOL    R329756  22.522   9.917   6.125  0.1546  0.0484 -0.0280
    1CHOL    R429757  22.323  10.041   5.950 -0.1465 -0.4385 -0.0779
    1CHOL    R529758  22.387   9.833   5.946  0.3195 -0.3186  0.0009
    1CHOL    C129759  22.478   9.935   5.590  0.0868 -0.2309 -0.0361
    1CHOL    C229760  22.515   9.940   5.169  0.1375  0.2522  0.2833
    1CHOL   ROH29761  27.571   3.706   5.861  0.0141 -0.0074  0.0726
    1CHOL    R129762  27.518   3.638   5.591  0.0730  0.1189  0.0287
    1CHOL    R229763  27.701   3.682   5.388  0.2123 -0.0000  0.1262
    1CHOL    R329764  27.664   3.417   5.341 -0.0236  0.0464  0.0357
    1CHOL    R429765  27.752   3.527   5.084  0.1192  0.0503  0.0845
    1CHOL    R529766  27.573   3.408   5.120  0.0030  0.2014  0.0169
    1CHOL    C129767  27.747   3.187   4.862 -0.1563  0.1232 -0.0248
    1CHOL    C229768  27.932   2.967   4.601 -0.2937 -0.1328 -0.0772
    1CHOL   ROH29769   1.779  18.281   6.254  0.0889  0.0599  0.0491
    1CHOL    R129770   1.750  18.323   5.976  0.1018  0.0759  0.0502
    1CHOL    R229771   1.845  18.549   5.848  0.2331  0.0180  0.0445
    1CHOL    R329772   1.971  18.368   5.690  0.1168 -0.0599  0.0399
    1CHOL    R429773   1.937  18.604   5.520  0.2435 -0.0422  0.0371
    1CHOL    R529774   1.874  18.401   5.474  0.1209 -0.0076  0.0457
    1CHOL    C129775   2.109  18.466   5.180  0.1404 -0.1507  0.0286
    1CHOL    C229776   2.285  18.482   4.909  0.0801  0.0211  0.0894
    1CHOL   ROH29777  20.287  13.945   7.151  0.3527 -0.0354 -0.1046
    1CHOL    R129778  20.121  14.050   6.947  0.2756  0.0168 -0.0157
    1CHOL    R229779  20.214  14.221   6.752  0.2231 -0.0056 -0.0604
    1CHOL    R329780  20.107  14.036   6.584  0.0818  0.0290 -0.0102
    1CHOL    R429781  20.150  14.274   6.417  0.2350 -0.0369 -0.0678
    1CHOL    R529782  19.963  14.164   6.440  0.1586  0.0972 -0.0279
    1CHOL    C129783  20.012  14.132   6.063  0.1093 -0.0226 -0.0248
    1CHOL    C229784  19.837  14.042   5.859 -0.0008 -0.4035 -0.0239
    1CHOL   ROH29785   7.577  17.843   3.347 -0.1832 -0.0788 -0.0779
    1CHOL    R129786   7.680  18.050   3.510 -0.2193 -0.0340 -0.1108
    1CHOL    R229787   7.592  18.094   3.768 -0.1585 -0.0691 -0.0826
    1CHOL    R329788   7.856  18.073   3.828 -0.1311  0.0411 -0.1647
    1CHOL    R429789   7.725  18.102   4.087 -0.0642 -0.0069 -0.1235
    1CHOL    R529790   7.889  18.223   4.011 -0.1369  0.0592 -0.1783
    1CHOL    C129791   8.050  18.087   4.329  0.0165  0.1331 -0.2244
    1CHOL    C229792   8.146  17.786   4.561  0.0363 -0.1003 -0.0968
    1CHOL   ROH29793  24.361  14.021   6.041 -0.1268 -0.0390 -0.1875
    1CHOL    R129794  24.466  14.020   5.779 -0.1516 -0.1102 -0.1976
    1CHOL    R229795  24.318  13.942   5.559 -0.2339  0.0123 -0.1875
    1CHOL    R329796  24.391  14.185   5.463 -0.0546 -0.0393 -0.1837
    1CHOL    R429797  24.298  14.038   5.228 -0.2034  0.0470 -0.1791
    1CHOL    R529798  24.490  14.138   5.250 -0.1204 -0.1054 -0.1997
    1CHOL    C129799  24.355  14.323   4.945 -0.0174  0.0189 -0.1706
    1CHOL    C229800  24.207  14.129   4.748 -0.0846  0.4783 -0.1893
    1CHOL   ROH29801  19.650  11.112   6.503  0.0900  0.0825 -0.0859
    1CHOL    R129802  19.590  11.107   6.226  0.0071  0.0554 -0.0684
    1CHOL    R229803  19.564  11.337   6.075 -0.0517  0.0442 -0.0836
    1CHOL    R329804  19.751  11.215   5.918 -0.0899  0.0394 -0.1237
    1CHOL    R429805  19.601  11.388   5.735 -0.0161  0.1601 -0.0617
    1CHOL    R529806  19.637  11.175   5.711 -0.0918  0.1600 -0.1435
    1CHOL    C129807  19.798  11.304   5.390 -0.0313  0.2231 -0.0868
    1CHOL    C229808  19.831  11.031   5.125 -0.0781 -0.0310  0.3083
    1CHOL   ROH29809  20.008  20.654   6.640 -0.0230  0.1524  0.0257
    1CHOL    R129810  20.096  20.668   6.372  0.0715  0.0662  0.0506
    1CHOL    R229811  19.921  20.698   6.159  0.1412 -0.0312 -0.0265
    1CHOL    R329812  20.080  20.911   6.101  0.1360 -0.0322 -0.0408
    1CHOL    R429813  19.954  20.840   5.846  0.1092 -0.0203 -0.0242
    1CHOL    R529814  20.167  20.862   5.883  0.1101 -0.0237 -0.0498
    1CHOL    C129815  20.122  21.123   5.609  0.0857 -0.0151 -0.0362
    1CHOL    C229816  20.225  21.411   5.320  0.0034  0.0174 -0.2119
    1CHOL   ROH29817  11.909  26.055   5.798  0.1303  0.0991 -0.0187
    1CHOL    R129818  11.912  26.073   5.515  0.1057 -0.1345 -0.0361
    1CHOL    R229819  11.817  25.871   5.352 -0.1811 -0.1519  0.1459
    1CHOL    R329820  11.664  26.071   5.248  0.0532 -0.0385  0.0110
    1CHOL    R429821  11.627  25.846   5.064 -0.3403 -0.1819  0.2524
    1CHOL    R529822  11.689  26.048   5.011 -0.0771 -0.3162  0.0198
    1CHOL    C129823  11.373  26.019   4.800 -0.2131 -0.0928  0.1878
    1CHOL    C229824  11.086  26.034   4.624 -0.0201 -0.0279  0.1569
    1CHOL   ROH29825  22.615  15.498   6.882  0.0329  0.3960 -0.0881
    1CHOL    R129826  22.626  15.552   6.604 -0.0374  0.2584 -0.1189
    1CHOL    R229827  22.807  15.428   6.436 -0.0275  0.2296 -0.0924
    1CHOL    R329828  22.583  15.362   6.296 -0.0351  0.0852 -0.0129
    1CHOL    R429829  22.766  15.472   6.095 -0.1772  0.1889 -0.0798
    1CHOL    R529830  22.561  15.536   6.133 -0.2017  0.0624 -0.0129
    1CHOL    C129831  22.532  15.436   5.766 -0.2713  0.0297  0.0022
    1CHOL    C229832  22.474  15.390   5.376 -0.2464  0.0737 -0.0455
    1CHOL   ROH29833  22.892  15.872   3.430  0.0235 -0.1967  0.1632
    1CHOL    R129834  22.824  15.849   3.704  0.2734 -0.1088  0.2358
    1CHOL    R229835  22.941  16.004   3.900  0.0378  0.3807  0.0072
    1CHOL    R329836  22.683  16.065   3.960 -0.0876 -0.2007  0.1204
    1CHOL    R429837  22.828  16.097   4.213  0.0672  0.5949 -0.0438
    1CHOL    R529838  22.651  15.975   4.179  0.3443  0.0584  0.3029
    1CHOL    C129839  22.521  16.208   4.452 -0.0334  0.1739  0.0326
    1CHOL    C229840  22.552  16.134   4.837  0.2141  0.1020  0.1241
    1CHOL   ROH29841   0.928  12.623   6.499 -0.0350  0.3666  0.0887
    1CHOL    R129842   0.959  12.681   6.223 -0.0044  0.1541  0.0447
    1CHOL    R229843   0.876  12.508   6.025 -0.0228  0.0150  0.1629
    1CHOL    R329844   0.741  12.726   5.936  0.0222 -0.0246 -0.0026
    1CHOL    R429845   0.788  12.566   5.695 -0.0531 -0.2293  0.1269
    1CHOL    R529846   0.839  12.776   5.724  0.0020 -0.2228 -0.0554
    1CHOL    C129847   0.610  12.805   5.421 -0.0286 -0.4086 -0.0493
    1CHOL    C229848   0.655  12.858   4.922 -0.1499 -0.2031  0.4258
    1CHOL   ROH29849  18.814   8.410   6.680 -0.1072  0.0840  0.0873
    1CHOL    R129850  18.764   8.339   6.411  0.0779  0.0202  0.0682
    1CHOL    R229851  18.513   8.357   6.296  0.1216 -0.1622 -0.0627
    1CHOL    R329852  18.644   8.507   6.111  0.1159 -0.0932 -0.0110
    1CHOL    R429853  18.464   8.336   5.955  0.0417  0.0329 -0.0647
    1CHOL    R529854  18.680   8.357   5.928  0.0404 -0.0033 -0.1001
    1CHOL    C129855  18.559   8.464   5.582 -0.0107  0.2112 -0.0173
    1CHOL    C229856  18.651   8.361   5.261  0.0212  0.1618  0.1614
    1CHOL   ROH29857  27.597  18.864   4.174 -0.0286 -0.0973  0.0392
    1CHOL    R129858  27.587  18.869   4.457 -0.0047 -0.2192  0.0424
    1CHOL    R229859  27.625  18.643   4.611  0.2005 -0.2498 -0.0520
    1CHOL    R329860  27.815  18.796   4.731  0.0851 -0.1377 -0.0095
    1CHOL    R429861  27.755  18.585   4.925  0.2019 -0.2062 -0.0443
    1CHOL    R529862  27.751  18.800   4.962  0.0535 -0.2119 -0.0158
    1CHOL    C129863  28.010  18.694   5.221  0.0939 -0.0756  0.0002
    1CHOL    C229864  28.142  18.384   5.179  0.2311  0.2844  0.2053
    1CHOL   ROH29865  19.937   5.635   3.121 -0.1904 -0.0137 -0.0181
    1CHOL    R129866  19.925   5.697   3.397 -0.1450 -0.0005 -0.0192
    1CHOL    R229867  19.718   5.612   3.560 -0.1532  0.0645  0.0041
    1CHOL    R329868  19.922   5.511   3.710 -0.1669  0.0111 -0.0125
    1CHOL    R429869  19.710   5.571   3.903 -0.2149 -0.1360 -0.0195
    1CHOL    R529870  19.917   5.640   3.911 -0.2280 -0.1065  0.0618
    1CHOL    C129871  19.896   5.453   4.243 -0.2635 -0.3029 -0.0489
    1CHOL    C229872  19.978   5.158   4.523  0.0509  0.0719  0.0910
    1CHOL   ROH29873  25.256   8.920   2.981 -0.0832  0.0499  0.1463
    1CHOL    R129874  25.410   9.009   3.200 -0.1118  0.0531  0.1654
    1CHOL    R229875  25.302   9.048   3.452 -0.1452  0.0594  0.1502
    1CHOL    R329876  25.502   8.880   3.528 -0.1571  0.0594  0.1806
    1CHOL    R429877  25.420   9.017   3.775 -0.1991  0.0572  0.1696
    1CHOL    R529878  25.623   9.003   3.695 -0.1854  0.0588  0.2021
    1CHOL    C129879  25.676   8.841   4.035 -0.2419  0.0558  0.2093
    1CHOL    C229880  25.897   8.841   4.334 -0.1002  0.4993 -0.2077
    1CHOL   ROH29881  15.609   6.589   5.947 -0.0770 -0.0163  0.0330
    1CHOL    R129882  15.740   6.558   5.698  0.1429  0.0588  0.1382
    1CHOL    R229883  15.604   6.559   5.457  0.3110 -0.2255  0.0448
    1CHOL    R329884  15.782   6.755   5.395  0.0907 -0.0080  0.0848
    1CHOL    R429885  15.664   6.679   5.138  0.2085 -0.1418  0.0557
    1CHOL    R529886  15.876   6.687   5.186  0.2017  0.1068  0.0900
    1CHOL    C129887  15.866   6.933   4.895 -0.0580  0.1112  0.0997
    1CHOL    C229888  15.908   7.169   4.530 -0.0905 -0.2247  0.0577
    1CHOL   ROH29889  20.998   4.546   6.571  0.1176 -0.0996  0.1637
    1CHOL    R129890  21.122   4.641   6.335  0.0046 -0.0606  0.1196
    1CHOL    R229891  21.335   4.512   6.216  0.0278  0.0262  0.0648
    1CHOL    R329892  21.175   4.519   5.996 -0.0418 -0.0611  0.1126
    1CHOL    R429893  21.447   4.498   5.889 -0.0631  0.0770  0.0312
    1CHOL    R529894  21.298   4.648   5.837 -0.1565 -0.0009  0.0723
    1CHOL    C129895  21.361   4.495   5.493 -0.1817  0.0247  0.0565
    1CHOL    C229896  21.285   4.645   5.065  0.1249  0.3304  0.0051
    1CHOL   ROH29897  15.301  16.407   6.028 -0.1131 -0.0124  0.0448
    1CHOL    R129898  15.405  16.406   5.765 -0.0646  0.0597  0.0644
    1CHOL    R229899  15.253  16.470   5.544 -0.0488  0.0214  0.0475
    1CHOL    R329900  15.452  16.649   5.498 -0.1126  0.1082  0.0980
    1CHOL    R429901  15.288  16.656   5.255  0.1196 -0.2090 -0.0839
    1CHOL    R529902  15.504  16.622   5.266  0.1381 -0.0669  0.1658
    1CHOL    C129903  15.497  16.932   5.043  0.1576 -0.2617 -0.1128
    1CHOL    C229904  15.394  17.017   4.639 -0.2368  0.1429  0.2789
    1CHOL   ROH29905  20.222   9.819   2.946 -0.2739 -0.0400 -0.1367
    1CHOL    R129906  20.127   9.734   3.199 -0.2426 -0.0808 -0.1377
    1CHOL    R229907  20.239   9.523   3.336 -0.1082  0.0080 -0.1024
    1CHOL    R329908  20.262   9.706   3.536 -0.2563  0.0477 -0.1216
    1CHOL    R429909  20.341   9.451   3.659  0.0610  0.1440 -0.1250
    1CHOL    R529910  20.188   9.589   3.732 -0.0722 -0.0202 -0.0935
    1CHOL    C129911  20.422   9.581   4.034  0.0204  0.2605 -0.1561
    1CHOL    C229912  20.324   9.464   4.401  0.6112 -0.0742  0.1069
    1CHOL   ROH29913  19.042   5.646   6.095  0.1318  0.0292  0.0077
    1CHOL    R129914  18.855   5.596   5.889  0.0152  0.0927  0.0964
    1CHOL    R229915  18.791   5.785   5.697  0.0803  0.0736  0.0537
    1CHOL    R329916  18.859   5.586   5.525 -0.1299 -0.0389  0.0976
    1CHOL    R429917  18.764   5.804   5.353  0.1369  0.0387  0.0474
    1CHOL    R529918  18.694   5.598   5.352 -0.1000  0.1181  0.0796
    1CHOL    C129919  18.812   5.629   4.991 -0.0276 -0.0874  0.0849
    1CHOL    C229920  18.720   5.801   4.694 -0.1324 -0.0813 -0.0493
    1CHOL   ROH29921  19.469  15.253   6.917  0.1030  0.2044 -0.0200
    1CHOL    R129922  19.304  15.335   6.703 -0.1326 -0.2290 -0.0129
    1CHOL    R229923  19.386  15.518   6.513 -0.6310  0.0224  0.0102
    1CHOL    R329924  19.315  15.321   6.340 -0.0945 -0.1651 -0.0170
    1CHOL    R429925  19.402  15.543   6.169 -0.4932  0.0479  0.0167
    1CHOL    R529926  19.212  15.437   6.157 -0.2657 -0.3947 -0.0802
    1CHOL    C129927  19.346  15.372   5.806  0.0907 -0.1134 -0.0049
    1CHOL    C229928  19.347  15.754   5.691 -0.0003  0.0088 -0.0280
    1CHOL   ROH29929  21.793  12.669   3.323 -0.1148 -0.1986  0.1231
    1CHOL    R129930  21.806  12.782   3.582 -0.0226 -0.1421  0.0945
    1CHOL    R229931  21.690  12.662   3.802 -0.0187 -0.0516  0.1474
    1CHOL    R329932  21.940  12.685   3.906  0.0116 -0.1128  0.0885
    1CHOL    R429933  21.759  12.737   4.132  0.0829  0.0244  0.1094
    1CHOL    R529934  21.922  12.865   4.063  0.1151 -0.0590  0.0368
    1CHOL    C129935  22.034  12.803   4.422  0.1705  0.0112  0.0321
    1CHOL    C229936  22.295  12.695   4.713  0.1345 -0.5304  0.2321
    1CHOL   ROH29937  26.115   9.149   2.679 -0.1996 -0.0751  0.0190
    1CHOL    R129938  26.325   9.192   2.864 -0.1512 -0.0179 -0.0500
    1CHOL    R229939  26.316   9.393   3.054 -0.1582 -0.0425 -0.0317
    1CHOL    R329940  26.363   9.187   3.226 -0.0204 -0.0392 -0.0620
    1CHOL    R429941  26.359   9.427   3.396 -0.3486 -0.0706 -0.0030
    1CHOL    R529942  26.517   9.277   3.386 -0.1813  0.0921  0.0297
    1CHOL    C129943  26.428   9.254   3.756 -0.3302 -0.0838 -0.0147
    1CHOL    C229944  26.600   9.227   4.017 -0.1414  0.2597  0.3059
    1CHOL   ROH29945  21.152  14.003   3.229 -0.1010  0.2361  0.0728
    1CHOL    R129946  21.151  13.958   3.509  0.0374  0.2088  0.0697
    1CHOL    R229947  21.373  14.003   3.667  0.0807  0.3097 -0.0171
    1CHOL    R329948  21.200  14.159   3.808  0.0563  0.2067  0.0676
    1CHOL    R429949  21.395  14.065   4.007  0.1408  0.2284 -0.0060
    1CHOL    R529950  21.178  14.047   4.019  0.1510  0.1427  0.0437
    1CHOL    C129951  21.246  14.246   4.337  0.1526  0.0842  0.0800
    1CHOL    C229952  21.221  14.153   4.712 -0.0215 -0.3299  0.1415
    1CHOL   ROH29953  26.165   6.045   6.173  0.0425  0.0494  0.0107
    1CHOL    R129954  26.144   5.909   5.925 -0.0179  0.0822 -0.0025
    1CHOL    R229955  25.946   5.966   5.741 -0.0286  0.1469  0.0276
    1CHOL    R329956  26.158   5.999   5.573 -0.0416  0.1198  0.0063
    1CHOL    R429957  25.924   5.983   5.396 -0.0457  0.0192  0.0221
    1CHOL    R529958  26.105   5.862   5.383 -0.0276  0.0436  0.0580
    1CHOL    C129959  26.110   6.023   5.038 -0.0676 -0.0807 -0.0010
    1CHOL    C229960  25.943   5.875   4.780 -0.1696  0.0873  0.2103
    1CHOL   ROH29961   0.180  10.231   2.601  0.3486 -0.0907 -0.1196
    1CHOL    R129962   0.189   9.957   2.671 -0.0381 -0.1303 -0.2116
    1CHOL    R229963   0.313   9.866   2.901  0.1380 -0.4087 -0.4200
    1CHOL    R329964   0.071   9.752   2.948 -0.0080  0.0011 -0.0968
    1CHOL    R429965   0.234   9.678   3.180  0.3131 -0.5358 -0.4529
    1CHOL    R529966   0.123   9.542   3.050 -0.1933 -0.2118 -0.4040
    1CHOL    C129967  29.586   9.461   3.386  0.2781 -0.2250 -0.1686
    1CHOL    C229968  29.589   9.282   3.664 -0.1660  0.1116  0.2308
    1CHOL   ROH29969  23.364  16.024   6.481 -0.0433 -0.1354  0.1353
    1CHOL    R129970  23.223  16.245   6.374  0.1533 -0.0210  0.1091
    1CHOL    R229971  23.287  16.359   6.131  0.0606 -0.3099 -0.0538
    1CHOL    R329972  23.025  16.314   6.077 -0.0695  0.0128  0.2628
    1CHOL    R429973  23.102  16.529   5.893  0.0940 -0.3498 -0.1095
    1CHOL    R529974  22.934  16.531   6.033  0.2223  0.0983  0.0553
    1CHOL    C129975  22.748  16.585   5.704 -0.0084 -0.0702  0.1553
    1CHOL    C229976  22.581  16.805   5.472  0.0069  0.3443 -0.1882
    1CHOL   ROH29977  19.731  11.000   3.083  0.1910  0.1055 -0.0093
    1CHOL    R129978  19.818  10.915   3.339  0.2537  0.1385 -0.0183
    1CHOL    R229979  19.927  11.089   3.524  0.2133  0.1830 -0.0288
    1CHOL    R329980  19.732  10.988   3.685  0.2659  0.1110 -0.0109
    1CHOL    R429981  19.937  11.086   3.870  0.1489  0.3676 -0.0254
    1CHOL    R529982  19.851  10.887   3.866  0.3103  0.2998  0.0635
    1CHOL    C129983  19.759  10.991   4.222  0.1606  0.4074 -0.0065
    1CHOL    C229984  19.787  10.835   4.570  0.0371  0.1160 -0.1559
    1CHOL   ROH29985  26.640  11.547   6.657 -0.2085  0.2345  0.1187
    1CHOL    R129986  26.534  11.395   6.443 -0.2294  0.1795  0.1661
    1CHOL    R229987  26.332  11.489   6.279 -0.0929  0.2318  0.0167
    1CHOL    R329988  26.509  11.429   6.082 -0.0450 -0.0211  0.1339
    1CHOL    R429989  26.258  11.484   5.941  0.1054  0.2342 -0.0272
    1CHOL    R529990  26.381  11.305   5.922 -0.0901  0.0892  0.0897
    1CHOL    C129991  26.381  11.425   5.560  0.2660 -0.0018  0.0574
    1CHOL    C229992  26.193  11.228   5.315 -0.0498  0.2436 -0.3668
    1CHOL   ROH29993   1.132   8.957   5.327  0.0392 -0.1815 -0.2438
    1CHOL    R129994   0.985   9.124   5.152 -0.1221 -0.2151 -0.1412
    1CHOL    R229995   1.105   9.282   4.960 -0.2698  0.0517 -0.0166
    1CHOL    R329996   0.935   9.152   4.793 -0.1132 -0.0136 -0.1288
    1CHOL    R429997   1.008   9.396   4.648 -0.4179  0.2226  0.0900
    1CHOL    R529998   0.806   9.327   4.691 -0.3361 -0.0730  0.0369
    1CHOL    C129999   0.791   9.341   4.310 -0.3571  0.2609  0.0467
    1CHOL    C230000   0.872   9.230   3.917 -0.4411 -0.1270 -0.0270
    1CHOL   ROH30001  20.307   9.583   6.405  0.0897 -0.3516  0.1836
    1CHOL    R130002  20.280   9.415   6.180 -0.1007 -0.1690  0.0645
    1CHOL    R230003  20.082   9.451   5.989 -0.0731  0.1799  0.0850
    1CHOL    R330004  20.293   9.453   5.818 -0.0677  0.0733  0.0921
    1CHOL    R430005  20.066   9.369   5.654 -0.0211 -0.1411  0.1582
    1CHOL    R530006  20.256   9.265   5.675 -0.0016 -0.0671  0.2659
    1CHOL    C130007  20.254   9.324   5.298  0.0144 -0.4281  0.2076
    1CHOL    C230008  20.297   9.267   4.886 -0.0213  0.0342 -0.1868
    1CHOL   ROH30009  12.044   8.406   3.419 -0.3309 -0.0123 -0.0989
    1CHOL    R130010  12.150   8.241   3.624 -0.1380 -0.1074 -0.2704
    1CHOL    R230011  12.092   8.281   3.892  0.3972 -0.0030 -0.1553
    1CHOL    R330012  12.017   8.020   3.880  0.0711  0.0800  0.0042
    1CHOL    R430013  12.083   8.065   4.162  0.3070  0.1193 -0.0604
    1CHOL    R530014  12.163   7.909   4.033  0.0337 -0.0339 -0.0457
    1CHOL    C130015  12.007   7.695   4.308 -0.0516  0.2684  0.1446
    1CHOL    C230016  12.061   7.610   4.643  0.0248 -0.1375 -0.0203
    1CHOL   ROH30017  19.954   7.972   6.405  0.1266  0.3001 -0.0293
    1CHOL    R130018  19.991   7.969   6.124  0.0829  0.2022 -0.0346
    1CHOL    R230019  20.172   7.802   5.999  0.1047  0.1988  0.0003
    1CHOL    R330020  19.954   7.726   5.855  0.1001  0.0898  0.0637
    1CHOL    R430021  20.183   7.660   5.684  0.0841  0.1901  0.0036
    1CHOL    R530022  20.010   7.781   5.629  0.0114  0.1065  0.0458
    1CHOL    C130023  19.985   7.507   5.366  0.0675  0.0828  0.0652
    1CHOL    C230024  19.734   7.528   5.025 -0.3545  0.2550  0.0129
    1CHOL   ROH30025  23.232   6.087   2.929  0.1225 -0.0901 -0.0484
    1CHOL    R130026  23.381   5.991   3.150  0.1309 -0.0433 -0.0340
    1CHOL    R230027  23.513   6.159   3.325 -0.0137  0.0031  0.0305
    1CHOL    R330028  23.369   6.026   3.512  0.0257 -0.1249 -0.0289
    1CHOL    R430029  23.597   6.135   3.659 -0.0093 -0.1141  0.0216
    1CHOL    R530030  23.533   5.927   3.655  0.0570 -0.1345 -0.0696
    1CHOL    C130031  23.511   5.995   4.029  0.0302 -0.3025 -0.0394
    1CHOL    C230032  23.565   5.889   4.430  0.3251 -0.1463  0.1628
    1CHOL   ROH30033   5.573  19.960   3.596  0.0568 -0.2982  0.0028
    1CHOL    R130034   5.490  20.077   3.840  0.1897 -0.1150 -0.0373
    1CHOL    R230035   5.308  19.956   4.009  0.0020  0.1783 -0.0207
    1CHOL    R330036   5.505  19.990   4.194  0.0340 -0.0401 -0.0117
    1CHOL    R430037   5.266  19.919   4.350 -0.0737  0.2936 -0.0170
    1CHOL    R530038   5.394  20.094   4.379  0.1505  0.1378 -0.0394
    1CHOL    C130039   5.426  19.929   4.722 -0.0878  0.1560 -0.0065
    1CHOL    C230040   5.541  20.154   4.888  0.0405 -0.1357 -0.1347
    1CHOL   ROH30041  28.298  11.173   6.519 -0.1381  0.1162 -0.1436
    1CHOL    R130042  28.308  11.275   6.256 -0.1658  0.1841 -0.1185
    1CHOL    R230043  28.287  11.113   6.032  0.0391  0.2125 -0.1590
    1CHOL    R330044  28.087  11.285   5.967 -0.1038  0.0434 -0.1723
    1CHOL    R430045  28.200  11.202   5.710 -0.1212  0.0119 -0.1731
    1CHOL    R530046  28.171  11.406   5.779 -0.2452  0.0238 -0.2516
    1CHOL    C130047  27.961  11.415   5.461 -0.3485 -0.2637 -0.1939
    1CHOL    C230048  27.989  11.382   5.175  0.1670 -0.0622 -0.1086
    1CHOL   ROH30049  16.360   9.062   6.212 -0.1527 -0.4039 -0.0240
    1CHOL    R130050  16.534   9.060   5.989 -0.1114 -0.1675  0.0023
    1CHOL    R230051  16.635   8.826   5.881  0.0294 -0.0474 -0.1355
    1CHOL    R330052  16.528   8.924   5.651  0.0174  0.0492 -0.0888
    1CHOL    R430053  16.807   8.864   5.584 -0.0060  0.0129 -0.1481
    1CHOL    R530054  16.705   9.054   5.555  0.0298  0.0432 -0.0721
    1CHOL    C130055  16.808   8.979   5.195 -0.0379  0.1387 -0.1115
    1CHOL    C230056  16.937   8.960   4.827 -0.2067 -0.3450 -0.0699
    1CHOL   ROH30057  15.016  10.878   3.089  0.0579 -0.0703 -0.0319
    1CHOL    R130058  14.988  11.053   3.310 -0.2233 -0.0886 -0.0492
    1CHOL    R230059  14.767  11.049   3.477 -0.1526 -0.5378  0.0463
    1CHOL    R330060  14.955  11.020   3.671  0.0029 -0.1069 -0.0289
    1CHOL    R430061  14.701  11.046   3.816  0.0134 -0.5346  0.0792
    1CHOL    R530062  14.881  11.165   3.847 -0.1916 -0.1752 -0.0517
    1CHOL    C130063  14.839  11.018   4.196  0.2560 -0.1281  0.0278
    1CHOL    C230064  15.014  10.873   4.554 -0.0449  0.1289  0.2612
    1CHOL   ROH30065  24.924   7.140   6.491 -0.1069 -0.0215  0.0399
    1CHOL    R130066  24.863   7.067   6.224 -0.1137  0.0434  0.0230
    1CHOL    R230067  24.656   7.182   6.082 -0.0422  0.1678  0.0122
    1CHOL    R330068  24.852   7.233   5.901  0.0073  0.0929  0.0450
    1CHOL    R430069  24.604   7.231   5.744  0.0570  0.0381 -0.0221
    1CHOL    R530070  24.784   7.114   5.705  0.0624  0.0208  0.0726
    1CHOL    C130071  24.758   7.307   5.377  0.1611 -0.1078 -0.0113
    1CHOL    C230072  24.444   7.265   5.262 -0.3010 -0.1185 -0.0385
    1CHOL   ROH30073  20.358   9.959   6.645 -0.1849 -0.2671 -0.0352
    1CHOL    R130074  20.306  10.028   6.375 -0.2775 -0.2491 -0.0145
    1CHOL    R230075  20.493   9.994   6.174 -0.1821  0.1709 -0.0127
    1CHOL    R330076  20.293   9.853   6.056  0.0811 -0.1517 -0.0863
    1CHOL    R430077  20.463   9.943   5.834 -0.1964  0.4799 -0.0590
    1CHOL    R530078  20.248   9.974   5.854 -0.2660 -0.0220  0.0638
    1CHOL    C130079  20.257   9.782   5.524  0.0426  0.3570 -0.1551
    1CHOL    C230080  20.340   9.866   5.184  0.1304  0.0267  0.1079
    1CHOL   ROH30081  27.530   7.470   5.880 -0.0348  0.1108  0.0872
    1CHOL    R130082  27.636   7.578   5.641  0.0972 -0.0730  0.0611
    1CHOL    R230083  27.641   7.438   5.403 -0.1863 -0.0939  0.0653
    1CHOL    R330084  27.512   7.658   5.308  0.1553  0.1222  0.0844
    1CHOL    R430085  27.563   7.493   5.071 -0.2271 -0.0117  0.0879
    1CHOL    R530086  27.618   7.702   5.098  0.1518 -0.0963  0.0335
    1CHOL    C130087  27.397   7.731   4.788  0.0698  0.2390  0.1191
    1CHOL    C230088  27.201   7.820   4.379 -0.1165 -0.0558 -0.1119
    1CHOL   ROH30089  23.196  10.634   6.662  0.0170  0.2145  0.0187
    1CHOL    R130090  23.203  10.506   6.409 -0.0459  0.1335  0.0571
    1CHOL    R230091  23.027  10.569   6.206 -0.0359  0.1364  0.0483
    1CHOL    R330092  23.255  10.607   6.064 -0.0296  0.0086  0.0228
    1CHOL    R430093  23.042  10.608   5.863 -0.0669  0.2748  0.0623
    1CHOL    R530094  23.221  10.484   5.861 -0.1699  0.1256 -0.0257
    1CHOL    C130095  23.265  10.667   5.530 -0.0790  0.2354  0.0464
    1CHOL    C230096  23.339  10.562   5.219 -0.0377 -0.1421 -0.0047
    1CHOL   ROH30097  17.039  13.409   6.857  0.0190 -0.0222 -0.0330
    1CHOL    R130098  16.969  13.266   6.622  0.1351 -0.1706  0.0205
    1CHOL    R230099  16.944  13.388   6.376 -0.0496 -0.2665 -0.0124
    1CHOL    R330100  17.121  13.197   6.299  0.1556 -0.0900  0.0137
    1CHOL    R430101  16.976  13.266   6.054  0.0093 -0.3585  0.0283
    1CHOL    R530102  17.002  13.066   6.138  0.2670 -0.2955  0.0983
    1CHOL    C130103  17.162  13.015   5.796  0.2366 -0.2464  0.0765
    1CHOL    C230104  17.220  12.954   5.346  0.0411 -0.1915  0.3371
    1CHOL   ROH30105  24.085   9.606   3.280  0.0381 -0.1839  0.0086
    1CHOL    R130106  23.991   9.661   3.541 -0.0049  0.0578 -0.0540
    1CHOL    R230107  24.008   9.477   3.747 -0.2792  0.1436  0.0578
    1CHOL    R330108  24.135   9.681   3.875 -0.1059  0.0808 -0.0136
    1CHOL    R430109  24.067   9.491   4.087  0.0443  0.0695  0.0078
    1CHOL    R530110  24.018   9.703   4.082  0.0990  0.0764  0.0985
    1CHOL    C130111  24.220   9.690   4.405  0.3954 -0.0325 -0.0883
    1CHOL    C230112  24.322   9.721   4.828 -0.0292  0.0308  0.0965
    1CHOL   ROH30113   2.871  26.016   3.910  0.2512 -0.0804 -0.0647
    1CHOL    R130114   2.716  26.026   4.146  0.1535 -0.0870 -0.1285
    1CHOL    R230115   2.823  26.093   4.392  0.0615 -0.1393 -0.0754
    1CHOL    R330116   2.624  26.278   4.392  0.0919 -0.1057 -0.1316
    1CHOL    R430117   2.709  26.261   4.672  0.1240  0.0001 -0.1326
    1CHOL    R530118   2.506  26.239   4.597  0.1101  0.0009 -0.0990
    1CHOL    C130119   2.456  26.533   4.835  0.1889  0.1126 -0.2187
    1CHOL    C230120   2.172  26.761   5.081  0.3000  0.1502 -0.0071
    1CHOL   ROH30121  17.929  13.396   3.742  0.0568 -0.0525  0.0796
    1CHOL    R130122  17.800  13.414   3.993  0.0595 -0.1123  0.0859
    1CHOL    R230123  17.812  13.212   4.182  0.1400 -0.1190  0.0766
    1CHOL    R330124  17.900  13.412   4.343  0.0748 -0.0941  0.0811
    1CHOL    R430125  17.806  13.206   4.527  0.0430 -0.0804  0.0756
    1CHOL    R530126  17.746  13.415   4.525  0.0240 -0.0881  0.0365
    1CHOL    C130127  17.885  13.390   4.880 -0.0748 -0.0344  0.0792
    1CHOL    C230128  17.824  13.172   5.140 -0.0513  0.1407 -0.0879
    1CHOL   ROH30129  10.981  13.708   5.712 -0.0052 -0.0669  0.0943
    1CHOL    R130130  10.933  13.724   5.433 -0.2211 -0.0064  0.1322
    1CHOL    R230131  11.110  13.623   5.246 -0.2266  0.2788 -0.0368
    1CHOL    R330132  10.889  13.490   5.158 -0.1344  0.0520  0.0692
    1CHOL    R430133  11.073  13.490   4.930 -0.2605  0.2753 -0.0309
    1CHOL    R530134  10.866  13.558   4.930 -0.3348  0.0531  0.0903
    1CHOL    C130135  10.845  13.287   4.663 -0.1937  0.0602  0.0721
    1CHOL    C230136  10.920  13.246   4.236 -0.2318  0.1544  0.0698
    1CHOL   ROH30137  22.953   9.102   6.705  0.0313  0.2415  0.1763
    1CHOL    R130138  23.046   9.038   6.446  0.0126  0.1904  0.1822
    1CHOL    R230139  22.882   8.929   6.252  0.0211  0.0634  0.2455
    1CHOL    R330140  22.970   9.140   6.105 -0.0831  0.0484  0.1601
    1CHOL    R430141  22.861   8.952   5.908  0.1844 -0.1735  0.2166
    1CHOL    R530142  23.060   9.041   5.906  0.1106 -0.0013  0.2700
    1CHOL    C130143  22.931   9.164   5.569  0.1820 -0.3255  0.1195
    1CHOL    C230144  23.013   9.090   5.249  0.0281 -0.1838 -0.1596
    1CHOL   ROH30145  23.439   7.301   6.514  0.1707  0.3169 -0.0125
    1CHOL    R130146  23.529   7.390   6.261  0.3649  0.0530 -0.0407
    1CHOL    R230147  23.716   7.250   6.112  0.1349 -0.3576  0.0305
    1CHOL    R330148  23.525   7.263   5.920  0.1687 -0.0827  0.0123
    1CHOL    R430149  23.760   7.158   5.782  0.1306 -0.0517 -0.0581
    1CHOL    R530150  23.642   7.330   5.722  0.2199  0.0571  0.0943
    1CHOL    C130151  23.606   7.116   5.409  0.1597  0.3845 -0.1268
    1CHOL    C230152  23.487   7.167   4.980  0.0223 -0.0830  0.0827
    1CHOL   ROH30153  24.066  14.218   6.375 -0.1936 -0.0445  0.0583
    1CHOL    R130154  23.987  14.321   6.123 -0.0494 -0.1182 -0.0178
    1CHOL    R230155  24.124  14.525   5.996 -0.0362 -0.0879  0.0494
    1CHOL    R330156  24.133  14.347   5.791  0.1843 -0.1174  0.0822
    1CHOL    R430157  24.117  14.610   5.661 -0.2053 -0.1537  0.0347
    1CHOL    R530158  23.986  14.439   5.626  0.0252 -0.3508  0.0858
    1CHOL    C130159  24.122  14.492   5.273 -0.0969 -0.2198  0.0569
    1CHOL    C230160  23.816  14.649   4.987  0.1586 -0.1747  0.2455
    1CHOL   ROH30161  27.209   6.182   6.225 -0.1132  0.3351 -0.0110
    1CHOL    R130162  27.252   6.043   5.982 -0.1697  0.2380  0.0333
    1CHOL    R230163  27.070   6.048   5.775 -0.1563  0.2691  0.0179
    1CHOL    R330164  27.285   6.130   5.630 -0.1029  0.1153  0.0099
    1CHOL    R430165  27.079   6.069   5.430 -0.1191  0.1816  0.0139
    1CHOL    R530166  27.283   5.989   5.436 -0.1657  0.0721  0.0448
    1CHOL    C130167  27.286   6.157   5.093 -0.0475 -0.0138  0.0040
    1CHOL    C230168  27.494   6.181   4.770  0.0309 -0.3976  0.0237
    1CHOL   ROH30169  17.009  14.560   3.227 -0.0525  0.1912  0.0133
    1CHOL    R130170  16.805  14.435   3.379 -0.2152  0.4487  0.0131
    1CHOL    R230171  16.855  14.219   3.545 -0.5642  0.0740 -0.3410
    1CHOL    R330172  16.738  14.378   3.732 -0.0172  0.1031 -0.0013
    1CHOL    R430173  16.737  14.112   3.852 -0.1818  0.0157 -0.2100
    1CHOL    R530174  16.565  14.242   3.827 -0.0474  0.2802  0.1960
    1CHOL    C130175  16.559  14.198   4.206  0.5543  0.0090  0.1854
    1CHOL    C230176  16.528  14.186   4.573 -0.0933  0.2018  0.4795
    1CHOL   ROH30177   0.584  24.382   6.536 -0.2013  0.2740  0.0067
    1CHOL    R130178   0.634  24.328   6.263  0.1311  0.1004  0.0958
    1CHOL    R230179   0.476  24.430   6.060  0.0535 -0.4467 -0.1365
    1CHOL    R330180   0.714  24.521   5.965 -0.0638 -0.0163 -0.0346
    1CHOL    R430181   0.542  24.507   5.729  0.1663 -0.7406 -0.1861
    1CHOL    R530182   0.738  24.417   5.752  0.3723 -0.2601  0.1211
    1CHOL    C130183   0.803  24.639   5.449  0.1219 -0.5080 -0.1194
    1CHOL    C230184   0.790  24.363   5.192 -0.2140 -0.0733 -0.1347
    1CHOL   ROH30185  26.192  13.875   3.460 -0.2169  0.0310  0.0267
    1CHOL    R130186  26.148  13.844   3.738 -0.0235 -0.2330  0.0305
    1CHOL    R230187  26.334  13.724   3.904  0.3195  0.0605 -0.1295
    1CHOL    R330188  26.309  13.956   4.045 -0.1193 -0.0680  0.0221
    1CHOL    R430189  26.478  13.785   4.213  0.1431  0.1029 -0.0540
    1CHOL    R530190  26.294  13.886   4.273 -0.0551 -0.2525 -0.0265
    1CHOL    C130191  26.538  14.038   4.524 -0.3714  0.0071  0.1322
    1CHOL    C230192  26.738  14.464   4.663 -0.0612  0.0286 -0.2919
    1CHOL   ROH30193  20.595   3.394   4.338 -0.1712 -0.0223  0.1495
    1CHOL    R130194  20.630   3.254   4.582 -0.1105 -0.1277  0.0812
    1CHOL    R230195  20.480   3.032   4.649 -0.0312 -0.2142 -0.0168
    1CHOL    R330196  20.724   2.917   4.682  0.0117 -0.1441 -0.0871
    1CHOL    R430197  20.537   2.734   4.813  0.1248 -0.1339  0.0772
    1CHOL    R530198  20.715   2.822   4.902  0.1444 -0.0576 -0.0463
    1CHOL    C130199  20.799   2.452   4.941  0.2559 -0.0213  0.0659
    1CHOL    C230200  21.144   2.142   4.963  0.2803 -0.1079 -0.2395
    1CHOL   ROH30201   5.652  15.254   5.618  0.0936  0.0150  0.0272
    1CHOL    R130202   5.813  15.417   5.452  0.2417 -0.2755 -0.1224
    1CHOL    R230203   5.873  15.349   5.190 -0.3086 -0.2865 -0.2619
    1CHOL    R330204   5.772  15.597   5.139  0.1888 -0.0066  0.0376
    1CHOL    R430205   5.925  15.527   4.899 -0.2131 -0.1663 -0.1715
    1CHOL    R530206   5.947  15.708   5.018  0.3182 -0.3009 -0.0482
    1CHOL    C130207   5.861  15.863   4.681  0.3095  0.1663  0.1622
    1CHOL    C230208   5.850  15.804   4.294  0.2471  0.1422 -0.1034
    1CHOL   ROH30209  23.970   0.241   4.025 -0.1123  0.0826 -0.1734
    1CHOL    R130210  23.882   0.281   4.291  0.0300  0.1845 -0.1399
    1CHOL    R230211  23.866   0.532   4.406 -0.1170  0.2536 -0.3012
    1CHOL    R330212  23.609   0.458   4.455 -0.0205  0.0526 -0.0817
    1CHOL    R430213  23.630   0.731   4.561 -0.2039  0.1533 -0.3044
    1CHOL    R530214  23.560   0.554   4.669  0.0265  0.1688 -0.1241
    1CHOL    C130215  23.251   0.777   4.697 -0.1640 -0.0938 -0.1001
    1CHOL    C230216  23.216   1.111   4.542  0.1402  0.1686  0.1176
    1CHOL   ROH30217  21.411   7.965   3.131  0.0835 -0.2935  0.0176
    1CHOL    R130218  21.527   7.992   3.388  0.0750 -0.0132 -0.0040
    1CHOL    R230219  21.494   8.218   3.544 -0.1521  0.0529 -0.1407
    1CHOL    R330220  21.406   8.039   3.728  0.0466  0.0713 -0.0261
    1CHOL    R430221  21.489   8.272   3.885  0.0812  0.1401 -0.1499
    1CHOL    R530222  21.555   8.067   3.914  0.1737  0.1719 -0.1426
    1CHOL    C130223  21.404   8.136   4.257  0.4033  0.2082 -0.0477
    1CHOL    C230224  21.450   8.029   4.607  0.1239 -0.0723 -0.2301
    1CHOL   ROH30225  18.203  14.172   7.093  0.2448 -0.0117 -0.0249
    1CHOL    R130226  18.042  14.224   6.866  0.1780  0.0614  0.0401
    1CHOL    R230227  18.121  14.395   6.664  0.1927 -0.0074 -0.0064
    1CHOL    R330228  18.070  14.180   6.506 -0.0062  0.0091  0.0298
    1CHOL    R430229  18.038  14.411   6.329  0.1742  0.0181 -0.0018
    1CHOL    R530230  17.893  14.252   6.362  0.0377  0.1428  0.0364
    1CHOL    C130231  17.942  14.218   5.985 -0.0233  0.0482  0.0349
    1CHOL    C230232  17.903  14.146   5.553 -0.1408  0.0548  0.1152
    1CHOL   ROH30233  12.721  21.587   3.456 -0.1866  0.0193  0.2670
    1CHOL    R130234  12.801  21.491   3.709 -0.1171 -0.2317  0.1534
    1CHOL    R230235  12.892  21.232   3.748  0.0892 -0.2176 -0.1620
    1CHOL    R330236  13.106  21.358   3.857 -0.0147 -0.1740 -0.0067
    1CHOL    R430237  13.162  21.074   3.894  0.0467 -0.1571 -0.0176
    1CHOL    R530238  13.163  21.227   4.048 -0.0937 -0.1848  0.0056
    1CHOL    C130239  13.521  21.100   4.081 -0.0755 -0.0810  0.2124
    1CHOL    C230240  13.839  20.892   4.167 -0.3022  0.0053 -0.0068
    1CHOL   ROH30241  14.675  21.749   5.846  0.0824  0.1003 -0.1926
    1CHOL    R130242  14.577  21.891   5.621  0.1174  0.0754 -0.2232
    1CHOL    R230243  14.717  21.906   5.383  0.0050 -0.2286 -0.3127
    1CHOL    R330244  14.485  21.810   5.278 -0.1660 -0.0307 -0.1253
    1CHOL    R430245  14.587  21.996   5.076 -0.0952 -0.2214 -0.2689
    1CHOL    R530246  14.388  21.998   5.166 -0.0393  0.0259 -0.1419
    1CHOL    C130247  14.294  21.959   4.798 -0.3142 -0.0315 -0.0673
    1CHOL    C230248  14.342  21.775   4.405  0.0051 -0.1756  0.1277
    1CHOL   ROH30249  28.514   5.651   5.671 -0.1190  0.1533  0.0821
    1CHOL    R130250  28.662   5.685   5.432 -0.0964  0.0684  0.0836
    1CHOL    R230251  28.559   5.622   5.184 -0.0869  0.0171  0.0931
    1CHOL    R330252  28.628   5.879   5.126 -0.0457 -0.0082  0.0290
    1CHOL    R430253  28.660   5.733   4.872 -0.1822 -0.0528  0.0367
    1CHOL    R530254  28.810   5.857   4.971 -0.1118 -0.0758 -0.0404
    1CHOL    C130255  28.783   6.039   4.636 -0.1989 -0.1173 -0.0563
    1CHOL    C230256  28.941   5.763   4.356 -0.2920 -0.0462 -0.0825
    1CHOL   ROH30257  19.433   7.855   3.221  0.3012  0.0535  0.1507
    1CHOL    R130258  19.351   7.915   3.485  0.0693  0.0566  0.0795
    1CHOL    R230259  19.096   7.861   3.577  0.0263 -0.0586 -0.1055
    1CHOL    R330260  19.229   7.728   3.773 -0.0537  0.0437  0.0205
    1CHOL    R430261  18.979   7.815   3.899 -0.0389  0.2481 -0.0815
    1CHOL    R530262  19.180   7.852   3.972 -0.0323  0.2261 -0.0840
    1CHOL    C130263  19.035   7.663   4.270 -0.1520  0.5227  0.0508
    1CHOL    C230264  18.598   7.461   4.415 -0.0121 -0.2943  0.2039
    1CHOL   ROH30265  22.614   1.921   6.517  0.0715 -0.2441 -0.0770
    1CHOL    R130266  22.507   1.906   6.255  0.0746 -0.0614 -0.0902
    1CHOL    R230267  22.493   2.124   6.087  0.1311  0.0441  0.0399
    1CHOL    R330268  22.627   1.961   5.916  0.0970  0.1137 -0.0544
    1CHOL    R430269  22.491   2.155   5.743  0.1580  0.2561  0.0571
    1CHOL    R530270  22.480   1.937   5.729  0.1014  0.2675 -0.0780
    1CHOL    C130271  22.616   2.019   5.382  0.1415  0.4448 -0.0215
    1CHOL    C230272  22.215   2.094   5.270  0.4270 -0.1743 -0.2219
    1CHOL   ROH30273  26.747  16.591   3.455 -0.1755  0.0969  0.1068
    1CHOL    R130274  26.751  16.594   3.738 -0.0420 -0.0132  0.1082
    1CHOL    R230275  26.732  16.364   3.889  0.0401 -0.0760  0.0305
    1CHOL    R330276  26.962  16.458   4.001  0.0903 -0.1081 -0.0462
    1CHOL    R430277  26.851  16.273   4.201 -0.0442  0.1752  0.1375
    1CHOL    R530278  26.908  16.481   4.234  0.0872  0.1706 -0.0749
    1CHOL    C130279  27.135  16.309   4.488 -0.0463  0.2913  0.1279
    1CHOL    C230280  27.186  15.937   4.578 -0.0762  0.1618  0.2798
    1CHOL   ROH30281  24.741   6.066   3.246  0.1283  0.1024 -0.1995
    1CHOL    R130282  24.927   6.091   3.459  0.2493 -0.0443 -0.2852
    1CHOL    R230283  24.888   5.971   3.704  0.1310  0.2026 -0.1801
    1CHOL    R330284  25.135   5.868   3.656 -0.0513 -0.2497 -0.1927
    1CHOL    R430285  25.080   5.803   3.937  0.0663  0.3520 -0.0167
    1CHOL    R530286  25.256   5.907   3.860  0.1642 -0.0418 -0.3547
    1CHOL    C130287  25.424   5.608   4.028 -0.1424  0.0144  0.0667
    1CHOL    C230288  25.593   5.617   4.438 -0.1646  0.1667 -0.1623
    1CHOL   ROH30289  24.665   9.104   6.674 -0.1910 -0.0646  0.0152
    1CHOL    R130290  24.629   8.994   6.416 -0.2220 -0.1100  0.0374
    1CHOL    R230291  24.396   9.029   6.269 -0.1741  0.0209 -0.0196
    1CHOL    R330292  24.568   9.121   6.080 -0.0651 -0.1529 -0.0064
    1CHOL    R430293  24.325   9.055   5.932 -0.0357 -0.1023 -0.0585
    1CHOL    R530294  24.526   8.985   5.889 -0.0596 -0.2184  0.0447
    1CHOL    C130295  24.445   9.157   5.558  0.1474 -0.3370 -0.0687
    1CHOL    C230296  24.417   9.374   5.299  0.0666 -0.0044  0.2755
    1CHOL   ROH30297  25.101  24.174   4.149  0.1159  0.1468  0.0775
    1CHOL    R130298  25.210  24.085   4.395  0.1324  0.2297  0.1005
    1CHOL    R230299  25.115  24.171   4.639  0.0008  0.1442  0.0811
    1CHOL    R330300  25.089  23.905   4.687  0.2113  0.1196  0.0658
    1CHOL    R430301  25.118  24.026   4.953  0.0296  0.1371  0.0776
    1CHOL    R530302  25.238  23.863   4.870  0.1925  0.2393  0.1089
    1CHOL    C130303  25.096  23.691   5.180  0.2442  0.1097  0.0612
    1CHOL    C230304  24.995  23.480   5.398 -0.0882 -0.0743 -0.0423
    1CHOL   ROH30305   7.030   8.153   2.936 -0.2780 -0.1304 -0.1268
    1CHOL    R130306   6.897   8.230   3.174 -0.2759 -0.1181 -0.1292
    1CHOL    R230307   6.980   8.443   3.328 -0.0940 -0.2911  0.0205
    1CHOL    R330308   6.723   8.525   3.295  0.0043  0.0073 -0.0259
    1CHOL    R430309   6.810   8.651   3.546  0.0358 -0.2723  0.1041
    1CHOL    R530310   6.633   8.527   3.518 -0.0854 -0.0635 -0.0623
    1CHOL    C130311   6.470   8.849   3.643  0.2036  0.0187  0.1093
    1CHOL    C230312   6.212   8.823   3.935 -0.4324 -0.1583 -0.0205
    1CHOL   ROH30313  23.097  18.074   3.862 -0.2100 -0.1195  0.0845
    1CHOL    R130314  23.190  17.908   4.072 -0.1273 -0.0303  0.1157
    1CHOL    R230315  23.289  18.010   4.310 -0.3199  0.0620  0.1427
    1CHOL    R330316  23.101  17.847   4.419 -0.1943 -0.1287  0.0857
    1CHOL    R430317  23.288  17.900   4.638 -0.3201  0.1256  0.1664
    1CHOL    R530318  23.223  17.704   4.567 -0.0812  0.0278  0.1634
    1CHOL    C130319  23.111  17.682   4.930 -0.2024 -0.0164  0.1267
    1CHOL    C230320  23.119  17.358   5.020 -0.3336  0.0326  0.0623
    1CHOL   ROH30321  18.949   3.543   6.259  0.0891  0.1564 -0.0450
    1CHOL    R130322  18.942   3.327   6.076  0.1558  0.0900  0.0297
    1CHOL    R230323  18.916   3.364   5.803  0.0239 -0.0169  0.0260
    1CHOL    R330324  19.142   3.212   5.794  0.1193  0.1261 -0.0108
    1CHOL    R430325  19.079   3.271   5.513 -0.1740 -0.2195 -0.0223
    1CHOL    R530326  19.112   3.074   5.601  0.0381 -0.1046  0.1640
    1CHOL    C130327  19.385   3.075   5.334 -0.1997 -0.2032 -0.0849
    1CHOL    C230328  19.601   3.224   5.115 -0.0762  0.0913 -0.3128
    1CHOL   ROH30329  19.896   6.221   6.462  0.2891  0.0124 -0.1103
    1CHOL    R130330  19.931   6.303   6.193  0.0369  0.0696 -0.1314
    1CHOL    R230331  20.172   6.274   6.059 -0.0016  0.3260 -0.2938
    1CHOL    R330332  20.017   6.142   5.878  0.0075  0.1714 -0.1863
    1CHOL    R430333  20.262   6.203   5.733 -0.0638  0.1320 -0.2682
    1CHOL    R530334  20.060   6.252   5.670 -0.0704  0.0332 -0.2616
    1CHOL    C130335  20.170   6.039   5.373 -0.0915 -0.1262 -0.1523
    1CHOL    C230336  20.154   6.139   5.002 -0.0530 -0.1698  0.2335
    1CHOL   ROH30337  17.037  18.176   3.561 -0.0374 -0.1980 -0.0539
    1CHOL    R130338  16.860  18.086   3.763  0.1946 -0.2320  0.1408
    1CHOL    R230339  16.927  18.089   4.032  0.3456  0.1388  0.1106
    1CHOL    R330340  16.696  18.231   4.054  0.1635 -0.1468  0.0793
    1CHOL    R430341  16.785  18.193   4.330  0.3782  0.2932  0.0722
    1CHOL    R530342  16.589  18.142   4.249  0.3969 -0.0662  0.2431
    1CHOL    C130343  16.486  18.386   4.524  0.2266  0.1149  0.0205
    1CHOL    C230344  16.657  18.425   4.831 -0.0960 -0.0236  0.1382
    1CHOL   ROH30345  12.615  19.517   5.164  0.0346 -0.0204  0.0911
    1CHOL    R130346  12.519  19.415   4.918  0.0048 -0.0428  0.1117
    1CHOL    R230347  12.262  19.460   4.828  0.0298  0.0489  0.0833
    1CHOL    R330348  12.390  19.552   4.607  0.0864 -0.0662  0.0675
    1CHOL    R430349  12.110  19.530   4.526  0.0254  0.3433  0.1510
    1CHOL    R530350  12.281  19.442   4.425 -0.1266  0.1330  0.0711
    1CHOL    C130351  12.142  19.658   4.142  0.0759  0.4068  0.1757
    1CHOL    C230352  12.086  19.538   3.678  0.1629  0.0329  0.2382
    1CHOL   ROH30353   8.097   7.768   4.361 -0.0176 -0.0370 -0.2055
    1CHOL    R130354   8.123   7.519   4.229 -0.2655 -0.0490 -0.2325
    1CHOL    R230355   8.207   7.290   4.358  0.0102 -0.0248 -0.3706
    1CHOL    R330356   7.975   7.187   4.259 -0.1899 -0.0574  0.0991
    1CHOL    R430357   8.138   6.952   4.326  0.0875 -0.0364 -0.4265
    1CHOL    R530358   8.044   6.995   4.133 -0.3878  0.0523 -0.1947
    1CHOL    C130359   7.881   6.660   4.213 -0.0555 -0.0737 -0.0181
    1CHOL    C230360   7.808   6.530   4.509  0.0553 -0.2285  0.2640
    1CHOL   ROH30361  21.792   8.099   6.565  0.0562 -0.0772  0.0006
    1CHOL    R130362  21.740   7.972   6.317  0.0734 -0.0334 -0.0239
    1CHOL    R230363  21.612   8.099   6.108  0.0739 -0.0063  0.0033
    1CHOL    R330364  21.833   8.024   5.969  0.0782  0.0343 -0.0153
    1CHOL    R430365  21.639   8.095   5.763  0.0038 -0.0696 -0.0026
    1CHOL    R530366  21.748   7.908   5.779  0.0724 -0.0390  0.0228
    1CHOL    C130367  21.862   8.021   5.433 -0.0328 -0.0683 -0.0236
    1CHOL    C230368  21.950   8.078   5.033 -0.1736  0.0682 -0.2883
    1CHOL   ROH30369   2.549  15.161   5.790 -0.1012 -0.0811  0.0616
    1CHOL    R130370   2.620  15.181   5.516 -0.0002  0.0173  0.0940
    1CHOL    R230371   2.515  15.014   5.323  0.1262  0.0378  0.0047
    1CHOL    R330372   2.449  15.249   5.203  0.1008  0.0516  0.0461
    1CHOL    R430373   2.419  15.045   4.993 -0.0925  0.0562  0.0690
    1CHOL    R530374   2.537  15.228   4.981 -0.0558  0.0264 -0.0148
    1CHOL    C130375   2.300  15.284   4.687 -0.2436  0.0797  0.1452
    1CHOL    C230376   2.085  15.560   4.553  0.0682 -0.2437  0.0735
    1CHOL   ROH30377  19.153  13.808   3.336  0.0029 -0.2199 -0.0426
    1CHOL    R130378  19.231  13.842   3.606 -0.0503 -0.2151 -0.0273
    1CHOL    R230379  19.139  14.049   3.764  0.0635 -0.1035 -0.1042
    1CHOL    R330380  19.067  13.848   3.931 -0.1425 -0.0085 -0.0765
    1CHOL    R430381  19.129  14.071   4.109  0.1560 -0.0665 -0.1040
    1CHOL    R530382  19.212  13.870   4.119 -0.0772 -0.1658 -0.1066
    1CHOL    C130383  19.055  13.895   4.466  0.0168  0.0441 -0.0778
    1CHOL    C230384  19.212  13.742   4.886 -0.2313 -0.3631 -0.1456
    1CHOL   ROH30385  23.780  15.830   3.656 -0.0427 -0.0423 -0.0300
    1CHOL    R130386  23.717  15.677   3.886 -0.0349 -0.0375 -0.0251
    1CHOL    R230387  23.905  15.525   4.020 -0.0290 -0.0244 -0.0227
    1CHOL    R330388  23.821  15.669   4.235 -0.0332 -0.0234 -0.0246
    1CHOL    R430389  24.068  15.538   4.324  0.0422  0.0812 -0.0646
    1CHOL    R530390  23.874  15.531   4.423  0.0659  0.0217 -0.0161
    1CHOL    C130391  24.084  15.681   4.703  0.0798  0.1437 -0.0906
    1CHOL    C230392  24.399  15.500   5.006  0.0787  0.3832 -0.0340
    1CHOL   ROH30393  23.910  12.009   3.296 -0.0299 -0.0032 -0.0677
    1CHOL    R130394  23.863  11.979   3.573  0.0530  0.0064 -0.0521
    1CHOL    R230395  24.061  11.903   3.751  0.1123  0.0405 -0.1043
    1CHOL    R330396  23.987  12.130   3.880  0.1223  0.0379 -0.0948
    1CHOL    R430397  24.085  11.953   4.092 -0.3463 -0.1708 -0.0347
    1CHOL    R530398  23.891  12.054   4.086 -0.2547  0.0057 -0.2719
    1CHOL    C130399  24.029  12.196   4.412 -0.6040 -0.2961  0.0146
    1CHOL    C230400  23.978  12.196   4.773 -0.1211 -0.0167 -0.1555
    1CHOL   ROH30401  20.710   8.815   3.076 -0.0039  0.1129  0.0255
    1CHOL    R130402  20.723   8.672   3.320 -0.0113  0.1157  0.0277
    1CHOL    R230403  20.798   8.791   3.559 -0.1072  0.1403  0.0467
    1CHOL    R330404  20.561   8.689   3.645 -0.0931  0.0587 -0.0101
    1CHOL    R430405  20.722   8.715   3.887 -0.1853  0.1770  0.0374
    1CHOL    R530406  20.621   8.536   3.818 -0.0866  0.1204  0.0416
    1CHOL    C130407  20.456   8.576   4.160 -0.2177  0.1219 -0.0212
    1CHOL    C230408  20.400   8.441   4.506  0.1468  0.1455  0.0461
    1CHOL   ROH30409  17.899  10.919   6.539  0.2266  0.1604  0.0604
    1CHOL    R130410  17.931  10.839   6.270  0.1216 -0.0923  0.1179
    1CHOL    R230411  17.831  10.601   6.172 -0.1781 -0.0591  0.3054
    1CHOL    R330412  17.712  10.763   5.989  0.0122 -0.0450  0.1931
    1CHOL    R430413  17.639  10.491   5.906 -0.1316 -0.0081  0.2519
    1CHOL    R530414  17.733  10.644   5.782  0.0224 -0.1197  0.2451
    1CHOL    C130415  17.416  10.580   5.580  0.0743  0.0349  0.1154
    1CHOL    C230416  17.407  10.763   5.249 -0.0865 -0.3793  0.0429
    1CHOL   ROH30417  17.889   7.958   3.005  0.0594 -0.0384  0.0065
    1CHOL    R130418  17.960   7.762   3.196  0.1528  0.0128  0.0233
    1CHOL    R230419  18.115   7.820   3.418 -0.0005  0.1387  0.0945
    1CHOL    R330420  17.907   7.708   3.552  0.0424 -0.0646 -0.0034
    1CHOL    R430421  18.141   7.653   3.719  0.0092  0.2990  0.1842
    1CHOL    R530422  17.997   7.507   3.645  0.2370  0.0831  0.1425
    1CHOL    C130423  17.961   7.451   4.021  0.0552  0.2017  0.1446
    1CHOL    C230424  18.040   7.327   4.360  0.2080  0.0013 -0.1976
    1CHOL   ROH30425  16.358  17.429   6.238  0.0101  0.0390  0.0439
    1CHOL    R130426  16.573  17.507   6.071  0.0270  0.0475  0.0700
    1CHOL    R230427  16.815  17.373   6.067 -0.0238 -0.0392 -0.0153
    1CHOL    R330428  16.765  17.357   5.801 -0.0457  0.1181 -0.0221
    1CHOL    R430429  17.043  17.448   5.819  0.0623 -0.1981  0.0139
    1CHOL    R530430  16.883  17.544   5.707  0.1644  0.0267  0.0497
    1CHOL    C130431  17.129  17.477   5.424  0.0918 -0.1432  0.0245
    1CHOL    C230432  17.469  17.413   5.200  0.1119 -0.3354  0.0334
    1CHOL   ROH30433  21.315  12.079   6.713  0.2922  0.1277 -0.0360
    1CHOL    R130434  21.158  12.018   6.485  0.1636  0.0567  0.0705
    1CHOL    R230435  21.085  12.210   6.300  0.0510 -0.0000  0.0603
    1CHOL    R330436  21.199  12.038   6.124 -0.0458 -0.0449  0.0395
    1CHOL    R430437  21.101  12.259   5.958  0.2742  0.1431  0.0884
    1CHOL    R530438  21.057  12.047   5.931  0.0569  0.1981 -0.0297
    1CHOL    C130439  21.217  12.126   5.594  0.3132  0.1842  0.0852
    1CHOL    C230440  21.192  12.130   5.128  0.0257  0.0822 -0.4412
    1CHOL   ROH30441   7.003  28.063   4.605  0.1356 -0.1482  0.1898
    1CHOL    R130442   6.780  27.938   4.483  0.0755  0.1088  0.0306
    1CHOL    R230443   6.623  27.752   4.615  0.0958 -0.1091 -0.2574
    1CHOL    R330444   6.421  27.920   4.545  0.0899  0.0535  0.1146
    1CHOL    R430445   6.290  27.703   4.693  0.0723 -0.4287 -0.5343
    1CHOL    R530446   6.239  27.774   4.493  0.1484  0.1284 -0.3842
    1CHOL    C130447   5.906  27.832   4.671  0.0532 -0.4623 -0.3464
    1CHOL    C230448   5.585  27.996   4.592  0.1976 -0.5982 -0.4736
    1CHOL   ROH30449  27.317  12.866   6.674  0.0790  0.0779 -0.1793
    1CHOL    R130450  27.408  12.874   6.406  0.0889 -0.0982 -0.1813
    1CHOL    R230451  27.335  12.684   6.218 -0.1729 -0.0357 -0.1416
    1CHOL    R330452  27.257  12.903   6.076  0.1246  0.0464 -0.1866
    1CHOL    R430453  27.308  12.696   5.874 -0.1598 -0.0743 -0.1448
    1CHOL    R530454  27.393  12.897   5.879  0.1193 -0.1845 -0.1885
    1CHOL    C130455  27.219  12.908   5.540  0.1269 -0.0197 -0.1888
    1CHOL    C230456  27.140  12.659   5.363 -0.1200 -0.0283 -0.4410
    1CHOL   ROH30457  27.861  16.996   6.461  0.0081  0.0498  0.0138
    1CHOL    R130458  27.713  17.023   6.221  0.0919 -0.0407 -0.0481
    1CHOL    R230459  27.618  17.266   6.131 -0.2565 -0.1349  0.0597
    1CHOL    R330460  27.752  17.198   5.905 -0.0213  0.2260  0.0819
    1CHOL    R430461  27.491  17.292   5.811 -0.1610 -0.1938  0.0160
    1CHOL    R530462  27.585  17.101   5.763  0.2119 -0.0072 -0.0458
    1CHOL    C130463  27.543  17.242   5.412  0.1159  0.1110  0.0115
    1CHOL    C230464  27.354  17.445   5.082 -0.0798 -0.0855  0.0112
    1CHOL   ROH30465  25.025   7.071   2.793 -0.0834  0.1360  0.1208
    1CHOL    R130466  25.051   6.953   3.049 -0.1976  0.1296  0.1292
    1CHOL    R230467  25.278   6.979   3.203 -0.1903 -0.0405  0.1453
    1CHOL    R330468  25.102   7.069   3.390 -0.1353  0.1071  0.1282
    1CHOL    R430469  25.319   6.946   3.545 -0.1504  0.1052  0.1556
    1CHOL    R530470  25.107   6.901   3.561 -0.1661  0.1831  0.2069
    1CHOL    C130471  25.178   7.011   3.919 -0.0757  0.3287  0.1455
    1CHOL    C230472  25.256   7.003   4.269  0.1812 -0.1541 -0.1078
    1CHOL   ROH30473  20.541   7.739   3.178  0.0023  0.0562 -0.0542
    1CHOL    R130474  20.496   7.628   3.434 -0.0427  0.1435 -0.0226
    1CHOL    R230475  20.655   7.428   3.539 -0.2265 -0.0211 -0.0407
    1CHOL    R330476  20.680   7.601   3.747  0.0290 -0.0101 -0.0782
    1CHOL    R430477  20.605   7.346   3.871 -0.3010  0.1189 -0.0176
    1CHOL    R530478  20.505   7.538   3.898 -0.0393  0.2588 -0.0451
    1CHOL    C130479  20.599   7.461   4.259 -0.1045  0.2108 -0.0392
    1CHOL    C230480  20.451   7.144   4.459 -0.1021  0.1639  0.0523
    1CHOL   ROH30481  29.288  11.919   6.341 -0.2241 -0.1130  0.2124
    1CHOL    R130482  29.186  11.814   6.099 -0.0952 -0.2004  0.1939
    1CHOL    R230483  28.977  11.932   5.962 -0.0873 -0.2989  0.0848
    1CHOL    R330484  29.153  11.926   5.755  0.0004 -0.2822  0.1593
    1CHOL    R430485  28.888  11.909   5.629  0.0707 -0.3947  0.0490
    1CHOL    R530486  29.056  11.773   5.599  0.1241 -0.3412  0.1468
    1CHOL    C130487  29.002  11.891   5.240  0.2447 -0.4347  0.0980
    1CHOL    C230488  28.855  11.524   5.144 -0.1547  0.1202  0.0351
    1CHOL   ROH30489   3.093  12.023   2.888 -0.0176  0.1151  0.1269
    1CHOL    R130490   3.093  11.951   3.162 -0.0752  0.1176  0.1270
    1CHOL    R230491   3.242  12.086   3.351 -0.0976  0.1020  0.1506
    1CHOL    R330492   3.002  12.109   3.477 -0.1164  0.1277  0.1115
    1CHOL    R430493   3.200  12.185   3.680 -0.1148 -0.1216  0.2185
    1CHOL    R530494   3.045  12.034   3.701 -0.1998 -0.0642  0.0687
    1CHOL    C130495   2.950  12.265   3.989 -0.1425 -0.2275  0.2215
    1CHOL    C230496   2.751  12.592   4.232  0.0811  0.0833 -0.0603
    1CHOL   ROH30497  21.488  16.123   3.781  0.0778 -0.0517 -0.0286
    1CHOL    R130498  21.467  16.224   4.044  0.0888 -0.2047  0.0329
    1CHOL    R230499  21.517  16.069   4.268  0.2836 -0.2884 -0.0591
    1CHOL    R330500  21.690  16.270   4.328  0.1532 -0.1866 -0.0227
    1CHOL    R430501  21.682  16.104   4.569  0.2469 -0.2066 -0.0485
    1CHOL    R530502  21.647  16.319   4.559  0.1138 -0.2344 -0.0256
    1CHOL    C130503  21.941  16.313   4.802  0.1031 -0.0631 -0.0081
    1CHOL    C230504  22.079  16.351   5.139  0.2637  0.0152  0.2464
    1CHOL   ROH30505  26.403  13.037   6.687  0.1289 -0.0798 -0.0160
    1CHOL    R130506  26.410  12.868   6.460  0.0661 -0.0058 -0.0747
    1CHOL    R230507  26.201  12.852   6.281  0.0366  0.0935 -0.0549
    1CHOL    R330508  26.395  12.910   6.099  0.0239  0.1197 -0.0584
    1CHOL    R430509  26.150  12.882   5.940  0.0170  0.1340 -0.0474
    1CHOL    R530510  26.339  12.777   5.908  0.0163  0.1432 -0.0708
    1CHOL    C130511  26.303  12.954   5.571 -0.0065  0.1822 -0.0463
    1CHOL    C230512  26.083  12.900   5.241  0.0292  0.2487 -0.0355
    1CHOL   ROH30513   0.860  16.065   3.761  0.1762  0.0989 -0.0124
    1CHOL    R130514   1.027  15.943   3.954  0.1349  0.0130 -0.0293
    1CHOL    R230515   1.047  16.034   4.213  0.2500  0.0377 -0.0424
    1CHOL    R330516   0.984  15.777   4.275  0.0872  0.0878  0.0023
    1CHOL    R430517   1.099  15.886   4.521  0.2608  0.0224 -0.0525
    1CHOL    R530518   1.162  15.705   4.418  0.0889 -0.0308 -0.0614
    1CHOL    C130519   1.071  15.559   4.759  0.1143  0.0605 -0.0164
    1CHOL    C230520   1.031  15.414   5.161 -0.1493 -0.1043  0.1026
    1CHOL   ROH30521  17.511  10.801   3.126  0.0662  0.3234  0.1590
    1CHOL    R130522  17.629  10.726   3.372  0.0681  0.0858  0.0874
    1CHOL    R230523  17.532  10.813   3.616  0.1889  0.0095  0.1600
    1CHOL    R330524  17.525  10.547   3.671  0.0062 -0.0210  0.0038
    1CHOL    R430525  17.401  10.675   3.905  0.0331 -0.0699  0.0533
    1CHOL    R530526  17.568  10.534   3.907 -0.0538 -0.1812  0.0103
    1CHOL    C130527  17.318  10.345   4.125 -0.2293 -0.1446 -0.1554
    1CHOL    C230528  17.315  10.448   4.450 -0.2073  0.0680  0.0267
    1CHOL   ROH30529  24.487   5.647   3.192 -0.0092 -0.0891 -0.0798
    1CHOL    R130530  24.460   5.735   3.460 -0.1238 -0.0857 -0.0916
    1CHOL    R230531  24.331   5.586   3.653 -0.0616 -0.1614 -0.1045
    1CHOL    R330532  24.564   5.618   3.788 -0.1084  0.0104 -0.0626
    1CHOL    R430533  24.360   5.591   3.997 -0.1088 -0.2571 -0.0992
    1CHOL    R530534  24.505   5.752   3.978 -0.2585 -0.1132 -0.0215
    1CHOL    C130535  24.597   5.623   4.325 -0.1801 -0.1515 -0.0567
    1CHOL    C230536  24.462   5.916   4.529  0.0553  0.4448  0.1871
    1CHOL   ROH30537  19.632  12.753   6.553 -0.1707 -0.0874  0.1793
    1CHOL    R130538  19.659  12.791   6.274 -0.2412  0.0405  0.1871
    1CHOL    R230539  19.824  12.633   6.118  0.0222  0.3497  0.1286
    1CHOL    R330540  19.597  12.595   5.974  0.0699  0.0164  0.1365
    1CHOL    R430541  19.807  12.633   5.773 -0.0195  0.4701  0.1318
    1CHOL    R530542  19.619  12.743   5.787 -0.2108  0.1372  0.1992
    1CHOL    C130543  19.584  12.598   5.436  0.0012  0.2273  0.1411
    1CHOL    C230544  19.659  12.873   5.168 -0.0037 -0.0289  0.2529
    1CHOL   ROH30545  26.316  17.600   3.779  0.2265  0.0329 -0.0192
    1CHOL    R130546  26.251  17.535   4.047  0.1441  0.2062  0.0035
    1CHOL    R230547  26.231  17.275   4.137 -0.0551  0.2653  0.1238
    1CHOL    R330548  26.411  17.359   4.322 -0.0206  0.2206  0.1117
    1CHOL    R430549  26.284  17.124   4.443 -0.1264  0.2847  0.1462
    1CHOL    R530550  26.302  17.322   4.532 -0.0444  0.2963  0.1172
    1CHOL    C130551  26.484  17.115   4.796 -0.1357  0.2539  0.1481
    1CHOL    C230552  26.513  17.148   5.244 -0.2641  0.0730 -0.2653
    1CHOL   ROH30553   9.151  29.552   5.440  0.2707 -0.2985  0.2301
    1CHOL    R130554   9.026  29.360   5.274  0.2057 -0.1908  0.1536
    1CHOL    R230555   8.930  29.422   5.022  0.1481 -0.0380  0.2123
    1CHOL    R330556   9.088  29.214   4.946  0.1045 -0.0147  0.0545
    1CHOL    R430557   8.892  29.242   4.730 -0.0194  0.0573  0.1740
    1CHOL    R530558   8.937  29.060   4.841  0.0436  0.0203  0.0896
    1CHOL    C130559   9.018  28.942   4.488 -0.1580  0.1346  0.0035
    1CHOL    C230560   9.060  29.154   4.207  0.0447 -0.3814 -0.1139
    1CHOL   ROH30561  25.413  13.589   6.553  0.3998 -0.1406 -0.1096
    1CHOL    R130562  25.266  13.571   6.312  0.1865 -0.2533  0.0267
    1CHOL    R230563  25.316  13.734   6.095 -0.2166 -0.1358  0.0163
    1CHOL    R330564  25.338  13.497   5.964 -0.0597 -0.0780 -0.0648
    1CHOL    R430565  25.337  13.699   5.751  0.0477  0.0072  0.0147
    1CHOL    R530566  25.206  13.525   5.766  0.0792 -0.0324 -0.1529
    1CHOL    C130567  25.370  13.456   5.429  0.3486  0.1447 -0.0623
    1CHOL    C230568  25.480  13.574   5.068 -0.0603  0.0896 -0.1166
    1CHOL   ROH30569  16.916  16.339   3.399 -0.2156 -0.0592 -0.0963
    1CHOL    R130570  16.861  16.221   3.650  0.1448 -0.1432 -0.0510
    1CHOL    R230571  17.016  16.267   3.874  0.1835  0.1804 -0.1369
    1CHOL    R330572  16.778  16.336   3.985  0.0998 -0.2615 -0.0213
    1CHOL    R430573  16.977  16.384   4.197  0.1536  0.3151 -0.1893
    1CHOL    R530574  16.796  16.263   4.213  0.4208 -0.0740  0.0191
    1CHOL    C130575  16.730  16.518   4.489  0.0577 -0.0212 -0.1112
    1CHOL    C230576  16.741  16.823   4.685 -0.0224  0.0673 -0.1893
    1CHOL   ROH30577  19.488   7.427   2.959  0.1166  0.1105  0.1782
    1CHOL    R130578  19.563   7.335   3.216  0.1431  0.1324  0.1786
    1CHOL    R230579  19.703   7.491   3.395  0.0278  0.2031  0.2107
    1CHOL    R330580  19.496   7.430   3.561  0.0436  0.0617  0.1787
    1CHOL    R430581  19.691   7.568   3.732 -0.1006  0.2350  0.1993
    1CHOL    R530582  19.602   7.372   3.768  0.0470  0.1707  0.2061
    1CHOL    C130583  19.490   7.555   4.084 -0.1606  0.1208  0.1627
    1CHOL    C230584  19.560   7.562   4.480  0.0984  0.4954 -0.0035
    1CHOL   ROH30585  15.103  11.275   2.922 -0.1273 -0.1658  0.0670
    1CHOL    R130586  15.180  11.438   3.141  0.0508 -0.2099  0.0386
    1CHOL    R230587  15.004  11.509   3.342  0.1317  0.0010  0.0363
    1CHOL    R330588  15.197  11.404   3.503  0.0334 -0.1730  0.0429
    1CHOL    R430589  15.013  11.539   3.686  0.1304 -0.0357  0.0397
    1CHOL    R530590  15.229  11.569   3.674  0.1570 -0.2129  0.0592
    1CHOL    C130591  15.199  11.458   4.037  0.0373 -0.2204  0.0479
    1CHOL    C230592  15.343  11.214   4.355  0.2157  0.1106  0.1759
    1CHOL   ROH30593  27.854   6.146   2.754 -0.1829 -0.0789  0.1747
    1CHOL    R130594  27.860   6.212   3.029 -0.1222 -0.1175  0.1830
    1CHOL    R230595  27.924   6.028   3.225  0.0525 -0.1137  0.1344
    1CHOL    R330596  28.109   6.214   3.295 -0.0271 -0.0191  0.0934
    1CHOL    R430597  28.118   6.017   3.511  0.3045 -0.1456 -0.0351
    1CHOL    R530598  28.090   6.232   3.532  0.1616 -0.1809  0.1212
    1CHOL    C130599  28.405   6.186   3.742  0.3767 -0.0755 -0.1723
    1CHOL    C230600  28.643   6.199   4.150  0.2824  0.0717 -0.0631
    1CHOL   ROH30601  11.223  20.214   2.862 -0.2038  0.2435  0.0966
    1CHOL    R130602  11.136  20.248   3.130 -0.1934  0.1443  0.1136
    1CHOL    R230603  11.097  20.036   3.302 -0.0637  0.0867  0.0771
    1CHOL    R330604  11.267  20.176   3.461 -0.1180  0.1451  0.0833
    1CHOL    R430605  11.149  19.974   3.638  0.0932 -0.0185  0.0346
    1CHOL    R530606  11.154  20.189   3.672 -0.0585 -0.0308  0.1260
    1CHOL    C130607  11.338  20.069   3.983  0.1338 -0.0249  0.0156
    1CHOL    C230608  11.468  20.222   4.273  0.1529 -0.0333 -0.1964
    1CHOL   ROH30609   0.909  20.111   6.837  0.0707 -0.3158  0.0565
    1CHOL    R130610   0.796  19.966   6.622  0.0798 -0.1989 -0.0281
    1CHOL    R230611   0.574  20.054   6.483  0.0746 -0.1322  0.0226
    1CHOL    R330612   0.736  20.022   6.267  0.0767  0.0025  0.0032
    1CHOL    R430613   0.478  20.104   6.155 -0.0173 -0.2445  0.0319
    1CHOL    R530614   0.594  19.928   6.099  0.1401 -0.1430  0.0295
    1CHOL    C130615   0.574  20.102   5.761 -0.0688 -0.1837  0.0191
    1CHOL    C230616   0.592  20.412   5.524  0.3684  0.1443 -0.1771
    1CHOL   ROH30617  23.810  11.871   6.766 -0.0761 -0.1536 -0.0702
    1CHOL    R130618  23.975  11.891   6.538 -0.2395  0.1116 -0.1692
    1CHOL    R230619  24.092  11.670   6.420  0.1979  0.3123 -0.1159
    1CHOL    R330620  23.970  11.765   6.196 -0.1425 -0.0716 -0.1067
    1CHOL    R430621  24.187  11.595   6.096  0.2892  0.4416 -0.1207
    1CHOL    R530622  24.150  11.803   6.042 -0.2767  0.3476 -0.1812
    1CHOL    C130623  24.128  11.640   5.697  0.0227  0.1564 -0.1149
    1CHOL    C230624  24.173  11.653   5.278  0.1181  0.0509  0.4314
    1CHOL   ROH30625   1.597   2.208   5.596  0.0012 -0.2114 -0.1230
    1CHOL    R130626   1.407   2.219   5.387  0.0845 -0.1447 -0.1966
    1CHOL    R230627   1.196   2.398   5.386 -0.0200 -0.2620 -0.1346
    1CHOL    R330628   1.296   2.465   5.142  0.0508  0.0007 -0.0363
    1CHOL    R430629   1.011   2.529   5.125  0.0376 -0.0867 -0.0881
    1CHOL    R530630   1.124   2.403   4.988  0.1350  0.0818 -0.1619
    1CHOL    C130631   0.997   2.668   4.745  0.1376  0.2619  0.0313
    1CHOL    C230632   0.687   2.966   4.598  0.2453 -0.0078  0.0806
    1CHOL   ROH30633  23.642   6.868   3.063  0.1182 -0.2365  0.0631
    1CHOL    R130634  23.759   6.933   3.313  0.0824 -0.0582  0.0340
    1CHOL    R230635  23.665   7.139   3.472 -0.0882 -0.0952 -0.0216
    1CHOL    R330636  23.651   6.944   3.660  0.1039 -0.0522  0.0413
    1CHOL    R430637  23.728   7.184   3.808 -0.0810  0.0664 -0.0427
    1CHOL    R530638  23.831   6.992   3.810  0.0858  0.1511  0.0038
    1CHOL    C130639  23.751   7.026   4.182  0.1032  0.2008  0.0039
    1CHOL    C230640  23.872   6.899   4.621  0.0730  0.0213  0.2617
    1CHOL   ROH30641  20.645   9.945   2.940 -0.1249 -0.0376 -0.0087
    1CHOL    R130642  20.563   9.901   3.207 -0.0673  0.0820  0.0281
    1CHOL    R230643  20.705   9.739   3.382 -0.1271  0.0231  0.0108
    1CHOL    R330644  20.700   9.961   3.539  0.0842  0.0583 -0.0267
    1CHOL    R430645  20.782   9.744   3.718 -0.2146 -0.0292  0.0330
    1CHOL    R530646  20.617   9.882   3.749 -0.0724  0.1754 -0.0356
    1CHOL    C130647  20.823   9.955   4.062 -0.0670 -0.0267  0.0108
    1CHOL    C230648  20.786   9.896   4.398 -0.0916 -0.1895  0.3733
    1CHOL   ROH30649  18.816   9.452   3.217  0.1035  0.0506 -0.0507
    1CHOL    R130650  18.662   9.394   3.447  0.0518  0.1947 -0.0469
    1CHOL    R230651  18.711   9.174   3.608 -0.1827  0.1160 -0.0763
    1CHOL    R330652  18.722   9.361   3.805  0.0419  0.0829 -0.0551
    1CHOL    R430653  18.644   9.114   3.941 -0.1141  0.1264 -0.0609
    1CHOL    R530654  18.540   9.305   3.950  0.0462  0.2129  0.0017
    1CHOL    C130655  18.615   9.255   4.320  0.1370  0.1012 -0.0319
    1CHOL    C230656  18.554   9.247   4.673 -0.1396 -0.2071 -0.4010
    1CHOL   ROH30657  19.242  11.905   3.350  0.0923 -0.2239  0.0242
    1CHOL    R130658  19.114  11.895   3.602  0.1123 -0.3555  0.0309
    1CHOL    R230659  19.240  11.800   3.829  0.2865 -0.0683  0.0642
    1CHOL    R330660  19.168  12.042   3.931 -0.1222 -0.1474 -0.0217
    1CHOL    R430661  19.219  11.874   4.166  0.0840  0.0053  0.0367
    1CHOL    R530662  19.038  11.988   4.125 -0.0871 -0.2923 -0.0407
    1CHOL    C130663  19.140  12.144   4.458 -0.4175 -0.0261 -0.0600
    1CHOL    C230664  18.919  12.263   4.821  0.1416 -0.1498  0.1810
    1CHOL   ROH30665  21.021   3.624   6.711 -0.2459  0.2335 -0.0127
    1CHOL    R130666  21.047   3.506   6.456 -0.1364  0.1044  0.0571
    1CHOL    R230667  20.907   3.596   6.235 -0.0690 -0.0300 -0.0399
    1CHOL    R330668  21.155   3.612   6.125 -0.0320 -0.0527  0.0391
    1CHOL    R430669  20.982   3.525   5.905  0.0337 -0.0886 -0.0046
    1CHOL    R530670  21.165   3.428   5.972  0.0123 -0.0812  0.0732
    1CHOL    C130671  21.258   3.499   5.610  0.1281 -0.1442  0.0902
    1CHOL    C230672  21.393   3.533   5.302  0.1808 -0.1478 -0.3870
    1CHOL   ROH30673  27.793  16.563   6.184 -0.0672 -0.0785 -0.0493
    1CHOL    R130674  27.802  16.693   5.933 -0.0924  0.0092 -0.0062
    1CHOL    R230675  27.833  16.555   5.695  0.0047  0.1010 -0.0499
    1CHOL    R330676  27.606  16.687   5.626 -0.0481  0.0181 -0.0343
    1CHOL    R430677  27.737  16.626   5.371 -0.0431  0.0688 -0.0424
    1CHOL    R530678  27.671  16.822   5.439 -0.1104  0.0431 -0.0371
    1CHOL    C130679  27.468  16.791   5.117 -0.1206 -0.0277 -0.0233
    1CHOL    C230680  27.484  17.008   4.880 -0.1263 -0.0805 -0.3639
    1CHOL   ROH30681   1.181   4.524   3.011 -0.0179 -0.0510  0.0480
    1CHOL    R130682   1.251   4.640   3.259 -0.0411  0.1103 -0.0202
    1CHOL    R230683   1.142   4.878   3.348 -0.2701  0.0179 -0.0547
    1CHOL    R330684   1.079   4.729   3.567 -0.0104  0.0194  0.0244
    1CHOL    R430685   1.116   5.002   3.670 -0.1602  0.0807 -0.0696
    1CHOL    R530686   1.215   4.821   3.742  0.0331  0.1740 -0.0864
    1CHOL    C130687   1.043   4.935   4.063  0.1476  0.1186 -0.0041
    1CHOL    C230688   1.023   4.857   4.458  0.0982  0.0808 -0.1772
    1CHOL   ROH30689  26.059  16.773   6.373 -0.2153 -0.2189  0.0493
    1CHOL    R130690  26.009  16.710   6.102 -0.1938 -0.1342  0.0251
    1CHOL    R230691  25.756  16.715   5.992 -0.1727 -0.0067 -0.0183
    1CHOL    R330692  25.873  16.881   5.811 -0.0756 -0.0101  0.0410
    1CHOL    R430693  25.683  16.723   5.654  0.0517 -0.0628 -0.0691
    1CHOL    R530694  25.896  16.748   5.614  0.0783 -0.0340  0.0719
    1CHOL    C130695  25.751  16.883   5.288  0.2734 -0.0987 -0.0430
    1CHOL    C230696  25.497  16.946   4.979 -0.1256  0.3440 -0.2329
    1CHOL   ROH30697   5.057  29.119   3.336 -0.0399  0.0712 -0.0289
    1CHOL    R130698   4.956  29.250   3.566 -0.1018  0.0839 -0.0637
    1CHOL    R230699   4.724  29.400   3.562 -0.2002 -0.0696 -0.0924
    1CHOL    R330700   4.652  29.236   3.766 -0.0729 -0.0463 -0.0271
    1CHOL    R430701   4.506  29.485   3.817 -0.0648 -0.0476  0.0176
    1CHOL    R530702   4.637  29.380   3.956  0.0234 -0.0178 -0.0388
    1CHOL    C130703   4.312  29.380   4.157  0.1337 -0.0129  0.1430
    1CHOL    C230704   4.124   0.017   4.410  0.0437 -0.0616  0.1803
    1CHOL   ROH30705  20.330  15.586   3.477  0.2101 -0.0726 -0.0664
    1CHOL    R130706  20.386  15.605   3.753  0.1105 -0.0656 -0.0468
    1CHOL    R230707  20.190  15.650   3.943  0.0344 -0.1299 -0.1134
    1CHOL    R330708  20.292  15.425   4.056  0.0619 -0.1030 -0.0834
    1CHOL    R430709  20.250  15.608   4.280 -0.0902 -0.1239 -0.0895
    1CHOL    R530710  20.436  15.506   4.230 -0.0340 -0.0623 -0.0202
    1CHOL    C130711  20.382  15.373   4.583 -0.1371 -0.0952 -0.0474
    1CHOL    C230712  20.159  15.476   4.881 -0.3829  0.1601  0.0746
    1CHOL   ROH30713  26.771   6.907   5.988  0.3296 -0.0398 -0.0943
    1CHOL    R130714  26.831   6.884   5.712  0.2326  0.0916 -0.1256
    1CHOL    R230715  26.643   6.813   5.525  0.2140  0.0036 -0.0614
    1CHOL    R330716  26.722   7.043   5.403 -0.0172  0.1006 -0.0381
    1CHOL    R430717  26.634   6.868   5.183  0.3202 -0.0546 -0.0751
    1CHOL    R530718  26.827   6.969   5.200  0.1919  0.2040  0.0217
    1CHOL    C130719  26.704   7.115   4.870  0.1653  0.0025 -0.0612
    1CHOL    C230720  26.636   7.024   4.506  0.0021  0.2415  0.0357
    1CHOL   ROH30721   9.786   4.027   5.499 -0.0360 -0.1295  0.0704
    1CHOL    R130722   9.673   3.894   5.276 -0.1925  0.0136  0.0593
    1CHOL    R230723   9.523   4.025   5.085  0.0617  0.2328 -0.0090
    1CHOL    R330724   9.702   3.914   4.914 -0.0581 -0.0818  0.0660
    1CHOL    R430725   9.471   3.983   4.746  0.0645  0.1486  0.0027
    1CHOL    R530726   9.567   3.787   4.761 -0.1976  0.0292  0.1026
    1CHOL    C130727   9.609   3.854   4.388 -0.0463 -0.1958  0.0799
    1CHOL    C230728   9.448   4.046   4.122  0.1975  0.0098  0.1451
    1CHOL   ROH30729  23.958  25.185   7.039 -0.0725  0.1113  0.1613
    1CHOL    R130730  23.782  25.045   6.867 -0.1077  0.1644  0.1560
    1CHOL    R230731  23.747  25.113   6.602  0.1291  0.0071  0.0880
    1CHOL    R330732  23.810  24.851   6.560 -0.1126 -0.0927  0.3125
    1CHOL    R430733  23.621  24.918   6.345  0.3021  0.0500 -0.0330
    1CHOL    R530734  23.605  24.752   6.486 -0.1259  0.1247  0.0268
    1CHOL    C130735  23.607  24.560   6.157  0.1761 -0.0190  0.1073
    1CHOL    C230736  23.492  24.474   5.860 -0.0856 -0.1049 -0.2897
    1CHOL   ROH30737  19.272   7.002   6.399 -0.3039 -0.0984 -0.3091
    1CHOL    R130738  19.292   7.074   6.126 -0.1851 -0.0050 -0.2771
    1CHOL    R230739  19.486   7.246   6.032 -0.1510  0.0392 -0.1327
    1CHOL    R330740  19.539   7.041   5.862 -0.0639  0.0985 -0.1774
    1CHOL    R430741  19.612   7.282   5.712  0.0109  0.1495 -0.0576
    1CHOL    R530742  19.477   7.125   5.646  0.0454  0.1716 -0.1805
    1CHOL    C130743  19.736   7.111   5.366  0.1870  0.2694 -0.0556
    1CHOL    C230744  19.627   7.045   5.024 -0.0914 -0.0211  0.3253
    1CHOL   ROH30745  18.030  17.280   3.441 -0.0124 -0.1145 -0.0513
    1CHOL    R130746  17.905  17.133   3.649 -0.0949  0.0040 -0.0144
    1CHOL    R230747  18.032  16.927   3.782 -0.2584 -0.1389 -0.0650
    1CHOL    R330748  17.966  17.071   4.002 -0.0322 -0.0707 -0.0398
    1CHOL    R430749  17.889  16.796   4.068 -0.2372  0.0096  0.0141
    1CHOL    R530750  17.762  16.972   4.079 -0.0783  0.1144  0.0662
    1CHOL    C130751  17.743  16.855   4.441 -0.0126  0.1601  0.0838
    1CHOL    C230752  17.826  16.521   4.720  0.0547  0.0477 -0.1563
    1CHOL   ROH30753   4.336  24.917   6.393 -0.0770  0.0600  0.0172
    1CHOL    R130754   4.478  24.843   6.160  0.3897  0.1783  0.2514
    1CHOL    R230755   4.361  24.839   5.909  0.5718 -0.6688  0.1510
    1CHOL    R330756   4.570  25.000   5.845  0.0543  0.0158  0.0648
    1CHOL    R430757   4.505  24.861   5.596  0.6176 -0.5118  0.1817
    1CHOL    R530758   4.701  24.871   5.692  0.5772  0.2801  0.2572
    1CHOL    C130759   4.786  25.025   5.353  0.1585  0.2220  0.1188
    1CHOL    C230760   4.809  25.076   4.954 -0.1629 -0.1955 -0.0565
    1CHOL   ROH30761  26.311  24.386   5.816 -0.0368  0.1246  0.1154
    1CHOL    R130762  26.210  24.310   5.563  0.1344  0.0239  0.0760
    1CHOL    R230763  26.214  24.049   5.473  0.0082 -0.0458  0.2712
    1CHOL    R330764  25.948  24.091   5.438  0.0698  0.1448 -0.0041
    1CHOL    R430765  26.014  23.875   5.252  0.0820 -0.0154  0.1789
    1CHOL    R530766  25.913  24.061   5.203  0.2714  0.0398 -0.0243
    1CHOL    C130767  25.647  23.813   5.090  0.1829  0.1815 -0.1332
    1CHOL    C230768  25.742  23.558   4.913 -0.1044  0.1638 -0.0453
    1CHOL   ROH30769  17.542  12.481   6.449 -0.0123  0.0763  0.0442
    1CHOL    R130770  17.716  12.430   6.232 -0.0027  0.2037  0.0216
    1CHOL    R230771  17.736  12.181   6.112  0.2450  0.1875  0.0935
    1CHOL    R330772  17.683  12.322   5.886  0.0386  0.0623  0.0611
    1CHOL    R430773  17.868  12.111   5.800  0.3140  0.2846  0.0999
    1CHOL    R530774  17.891  12.326   5.767  0.0271  0.3102  0.0438
    1CHOL    C130775  17.894  12.203   5.406  0.1606  0.2235  0.0732
    1CHOL    C230776  17.905  12.179   5.048  0.2364 -0.1666  0.1542
    1CHOL   ROH30777  27.724  10.958   3.069 -0.1547  0.1473  0.0661
    1CHOL    R130778  27.879  10.948   3.305  0.0234  0.0154 -0.0540
    1CHOL    R230779  27.801  11.071   3.540  0.3038  0.0680  0.0119
    1CHOL    R330780  27.836  10.823   3.644  0.1905  0.0359 -0.0234
    1CHOL    R430781  27.783  10.995   3.876  0.3072  0.0444  0.0069
    1CHOL    R530782  27.954  10.861   3.849  0.2394 -0.0429 -0.0324
    1CHOL    C130783  27.807  10.717   4.170  0.2028  0.0006 -0.0292
    1CHOL    C230784  27.676  10.858   4.491 -0.1781 -0.2676  0.1336
    1CHOL   ROH30785  27.434  12.863   3.122 -0.3075  0.2044  0.0098
    1CHOL    R130786  27.562  12.898   3.372 -0.2520  0.2378 -0.0222
    1CHOL    R230787  27.430  12.995   3.595 -0.2431  0.1255  0.0372
    1CHOL    R330788  27.524  12.767   3.709 -0.0766  0.1584 -0.0337
    1CHOL    R430789  27.499  12.956   3.932 -0.0398  0.1179 -0.0047
    1CHOL    R530790  27.677  12.843   3.877 -0.0209  0.2065 -0.1105
    1CHOL    C130791  27.628  12.719   4.235  0.2348  0.1446 -0.0956
    1CHOL    C230792  27.814  12.797   4.612 -0.1388  0.0541  0.2273
    1CHOL   ROH30793  15.359  24.465   6.075 -0.0759 -0.0741 -0.1031
    1CHOL    R130794  15.359  24.382   5.805 -0.0908 -0.0223 -0.1195
    1CHOL    R230795  15.376  24.560   5.594 -0.0816  0.0175 -0.0872
    1CHOL    R330796  15.587  24.405   5.522 -0.0965  0.0134 -0.1208
    1CHOL    R430797  15.527  24.565   5.283 -0.0241  0.1328 -0.0577
    1CHOL    R530798  15.543  24.348   5.293 -0.0648  0.1261 -0.1548
    1CHOL    C130799  15.814  24.422   5.035 -0.0048  0.1959 -0.0720
    1CHOL    C230800  16.108  24.509   4.716 -0.1154 -0.1145  0.2378
    1CHOL   ROH30801  24.142   1.241   3.792  0.0198 -0.1141 -0.0276
    1CHOL    R130802  24.038   1.491   3.876 -0.0296 -0.1106 -0.1014
    1CHOL    R230803  23.805   1.514   4.022  0.0620 -0.1293  0.0405
    1CHOL    R330804  23.964   1.653   4.193  0.1151  0.0419 -0.1424
    1CHOL    R430805  23.690   1.733   4.263  0.0992 -0.2219  0.1447
    1CHOL    R530806  23.856   1.866   4.214 -0.0782 -0.0585 -0.0494
    1CHOL    C130807  23.773   1.992   4.565  0.1708 -0.1152  0.0336
    1CHOL    C230808  23.976   1.989   4.947 -0.2003  0.0172  0.2247
    1CHOL   ROH30809  16.882  11.430   6.302  0.2156 -0.0642 -0.0217
    1CHOL    R130810  17.077  11.444   6.097  0.1571 -0.1525 -0.0844
    1CHOL    R230811  17.050  11.310   5.856 -0.0755  0.0179 -0.1575
    1CHOL    R330812  17.090  11.558   5.752  0.1518  0.0405 -0.0216
    1CHOL    R430813  17.129  11.375   5.527  0.0475  0.1255 -0.1073
    1CHOL    R530814  17.269  11.528   5.595  0.1600 -0.0245  0.0013
    1CHOL    C130815  17.214  11.646   5.236  0.3326  0.2094  0.0496
    1CHOL    C230816  17.171  11.616   4.898 -0.1605 -0.0355  0.1554
    1CHOL   ROH30817  10.454  23.036   5.747 -0.0449 -0.0470  0.0649
    1CHOL    R130818  10.409  23.081   5.472  0.1089  0.1453  0.0683
    1CHOL    R230819  10.613  23.135   5.295  0.2591 -0.1199  0.1507
    1CHOL    R330820  10.509  22.924   5.158 -0.0573  0.1045  0.0349
    1CHOL    R430821  10.693  23.054   4.968  0.3068 -0.1852  0.1791
    1CHOL    R530822  10.482  23.007   4.935  0.2321  0.2171  0.0379
    1CHOL    C130823  10.641  22.809   4.650  0.0375 -0.0125  0.0869
    1CHOL    C230824  10.963  22.771   4.546 -0.2349 -0.2647  0.0311
    1CHOL   ROH30825  23.379   3.180   3.278 -0.0993 -0.1733 -0.0031
    1CHOL    R130826  23.482   3.296   3.514 -0.0618 -0.1569 -0.0279
    1CHOL    R230827  23.389   3.536   3.615  0.0712 -0.0658 -0.1233
    1CHOL    R330828  23.353   3.390   3.841 -0.0512  0.0339 -0.0770
    1CHOL    R430829  23.359   3.669   3.932  0.0534  0.0681 -0.1799
    1CHOL    R530830  23.482   3.505   4.007 -0.0385  0.0381 -0.0884
    1CHOL    C130831  23.306   3.609   4.330 -0.0719  0.2397 -0.1694
    1CHOL    C230832  23.276   3.734   4.731  0.2417 -0.1268 -0.1045
    1CHOL   ROH30833  19.574   8.891   3.056  0.0995 -0.1337  0.1024
    1CHOL    R130834  19.555   8.762   3.307  0.0563 -0.0264  0.1548
    1CHOL    R230835  19.757   8.774   3.496  0.0918 -0.0785  0.1199
    1CHOL    R330836  19.557   8.863   3.657  0.1695  0.1074  0.1168
    1CHOL    R430837  19.754   8.746   3.840 -0.0226 -0.2495  0.1063
    1CHOL    R530838  19.542   8.697   3.829 -0.0895  0.0365  0.0311
    1CHOL    C130839  19.565   8.813   4.192 -0.0161 -0.1746  0.0953
    1CHOL    C230840  19.449   8.736   4.536  0.1052 -0.1188  0.1088
    1CHOL   ROH30841  24.554  12.083   3.360  0.1005 -0.1280 -0.1258
    1CHOL    R130842  24.432  12.133   3.611  0.0398 -0.0372 -0.1740
    1CHOL    R230843  24.519  12.015   3.845 -0.0961 -0.0476 -0.1331
    1CHOL    R330844  24.533  12.272   3.931 -0.0039 -0.0432 -0.1560
    1CHOL    R430845  24.491  12.115   4.175  0.0559 -0.0240 -0.1254
    1CHOL    R530846  24.372  12.285   4.108  0.0649  0.0014 -0.0912
    1CHOL    C130847  24.487  12.414   4.448  0.2312 -0.0061 -0.1423
    1CHOL    C230848  24.475  12.086   4.723  0.3940  0.1962  0.2535
    1CHOL   ROH30849  21.611  12.244   5.953  0.0750 -0.0272  0.0459
    1CHOL    R130850  21.686  12.395   5.726  0.0859 -0.0288  0.0483
    1CHOL    R230851  21.561  12.367   5.481  0.0999 -0.0329  0.0409
    1CHOL    R330852  21.527  12.636   5.504  0.0953 -0.0334  0.0366
    1CHOL    R430853  21.507  12.584   5.217 -0.0041 -0.0523  0.0465
    1CHOL    R530854  21.639  12.727   5.313  0.0233 -0.0399 -0.0089
    1CHOL    C130855  21.442  12.962   5.085 -0.0691 -0.0639  0.0457
    1CHOL    C230856  21.329  13.303   4.848  0.0104 -0.1594  0.2441
    1CHOL   ROH30857   9.536  13.445   4.048  0.1167 -0.2069  0.0134
    1CHOL    R130858   9.337  13.244   4.054  0.0155 -0.1123 -0.1398
    1CHOL    R230859   9.152  13.223   4.259  0.1322 -0.2909 -0.0542
    1CHOL    R330860   8.973  13.232   4.055  0.0069  0.0788  0.0631
    1CHOL    R430861   8.822  13.123   4.282  0.1118 -0.2141  0.0005
    1CHOL    R530862   8.841  13.034   4.084 -0.0409  0.0748 -0.1518
    1CHOL    C130863   8.462  13.073   4.105 -0.0176  0.1777  0.1424
    1CHOL    C230864   8.165  12.694   4.046  0.4140  0.1279  0.1323
    1CHOL   ROH30865  20.891  23.625   5.045 -0.3051  0.0298 -0.0790
    1CHOL    R130866  20.820  23.617   5.319 -0.0256  0.0139 -0.0049
    1CHOL    R230867  20.558  23.618   5.405  0.0629  0.1397  0.2671
    1CHOL    R330868  20.634  23.393   5.537  0.0786  0.0710  0.1452
    1CHOL    R430869  20.374  23.462   5.653  0.0773 -0.0021  0.1911
    1CHOL    R530870  20.559  23.428   5.762  0.0838 -0.0515  0.1680
    1CHOL    C130871  20.339  23.160   5.922  0.1006 -0.1488  0.0325
    1CHOL    C230872  20.010  23.137   6.186 -0.0881 -0.4309  0.1182
    1CHOL   ROH30873  10.593   5.932   3.850  0.0881 -0.0078 -0.0667
    1CHOL    R130874  10.737   6.169   3.906 -0.0141  0.0457 -0.0243
    1CHOL    R230875  10.951   6.176   4.081 -0.0965  0.1353  0.0826
    1CHOL    R330876  11.080   6.285   3.868 -0.0321  0.1460  0.1274
    1CHOL    R430877  11.273   6.301   4.087 -0.0314 -0.0315  0.1241
    1CHOL    R530878  11.206   6.466   3.961  0.0608  0.0444  0.1864
    1CHOL    C130879  11.581   6.477   3.891  0.0670 -0.1184  0.1905
    1CHOL    C230880  11.761   6.874   3.884 -0.2010  0.3615  0.3087
    1CHOL   ROH30881  28.840   9.144   2.626  0.2236 -0.1974  0.0978
    1CHOL    R130882  28.665   9.205   2.840  0.2360 -0.0366  0.0634
    1CHOL    R230883  28.488   9.021   2.946  0.0318  0.1285  0.0189
    1CHOL    R330884  28.610   9.086   3.179  0.0473 -0.0006  0.0467
    1CHOL    R430885  28.336   9.018   3.256  0.0128  0.0978  0.0089
    1CHOL    R530886  28.443   9.202   3.305  0.0922  0.0346  0.0734
    1CHOL    C130887  28.363   9.078   3.657  0.0162 -0.0413  0.0292
    1CHOL    C230888  28.613   9.119   4.109  0.0190  0.0046 -0.1051
    1CHOL   ROH30889  22.575  24.405   4.541  0.1318 -0.0111  0.0342
    1CHOL    R130890  22.362  24.346   4.718  0.1255 -0.0939 -0.0021
    1CHOL    R230891  22.188  24.134   4.677  0.1892 -0.1305 -0.0557
    1CHOL    R330892  22.263  24.066   4.929  0.1695 -0.1510 -0.0545
    1CHOL    R430893  22.004  23.937   4.892  0.0975 -0.0293 -0.0402
    1CHOL    R530894  22.060  24.070   5.055  0.1710 -0.0430 -0.0475
    1CHOL    C130895  21.966  23.759   5.255  0.0254  0.0102 -0.0300
    1CHOL    C230896  21.842  23.448   5.335 -0.0587 -0.2807  0.0265
    1CHOL   ROH30897  17.289   7.264   6.410 -0.0384  0.0571  0.0588
    1CHOL    R130898  17.442   7.385   6.205  0.0541 -0.0090  0.0890
    1CHOL    R230899  17.504   7.254   5.969 -0.0544  0.0049  0.0539
    1CHOL    R330900  17.393   7.475   5.855  0.1193  0.1259  0.1134
    1CHOL    R430901  17.495   7.318   5.630 -0.1572  0.0155  0.0584
    1CHOL    R530902  17.538   7.527   5.672  0.0862 -0.0270  0.0402
    1CHOL    C130903  17.384   7.562   5.325 -0.0540  0.1353  0.1169
    1CHOL    C230904  17.358   7.767   4.980 -0.2389  0.1481 -0.0040
    1CHOL   ROH30905  17.028  24.226   6.061  0.0826 -0.0228 -0.0524
    1CHOL    R130906  16.872  24.326   5.847 -0.0463 -0.0436  0.0314
    1CHOL    R230907  16.711  24.550   5.872  0.0550  0.0256  0.0747
    1CHOL    R330908  16.852  24.635   5.656 -0.0795 -0.1058 -0.0665
    1CHOL    R430909  16.580  24.737   5.613 -0.0299  0.1668  0.2176
    1CHOL    R530910  16.697  24.617   5.474 -0.2886  0.0537  0.0888
    1CHOL    C130911  16.636  24.925   5.258 -0.2056  0.1260  0.1682
    1CHOL    C230912  16.505  25.253   5.402  0.0829  0.2145  0.0485
    1CHOL   ROH30913  29.198   9.155   4.063  0.0566 -0.0765 -0.0123
    1CHOL    R130914  29.278   8.961   3.873 -0.1534 -0.0317 -0.1503
    1CHOL    R230915  29.491   8.789   3.916 -0.0067  0.0556 -0.4868
    1CHOL    R330916  29.305   8.598   3.861 -0.0165 -0.0197 -0.2077
    1CHOL    R430917  29.560   8.480   3.778 -0.0704  0.0046 -0.4051
    1CHOL    R530918  29.381   8.499   3.656 -0.1982 -0.1011 -0.2357
    1CHOL    C130919  29.426   8.121   3.646 -0.1170 -0.0958 -0.0954
    1CHOL    C230920  29.390   7.787   3.800  0.2469 -0.0744 -0.2146
    1CHOL   ROH30921  22.669   7.677   6.482 -0.0873  0.0129  0.1109
    1CHOL    R130922  22.623   7.755   6.214 -0.0934  0.0828  0.1311
    1CHOL    R230923  22.771   7.953   6.089  0.0484 -0.0267  0.1099
    1CHOL    R330924  22.813   7.760   5.903 -0.1710 -0.0499  0.0828
    1CHOL    R430925  22.855   8.011   5.759  0.2333 -0.0844  0.1467
    1CHOL    R530926  22.721   7.849   5.702  0.0208  0.1204  0.0729
    1CHOL    C130927  22.944   7.863   5.393  0.1349 -0.1396  0.1427
    1CHOL    C230928  22.952   7.972   5.045  0.2797 -0.1842  0.1713
    1CHOL   ROH30929  23.117  19.927   5.095 -0.1002 -0.0130  0.2408
    1CHOL    R130930  22.870  20.036   5.182 -0.1005 -0.0006  0.2242
    1CHOL    R230931  22.641  19.884   5.206 -0.1225  0.0224  0.1594
    1CHOL    R330932  22.641  19.982   5.460 -0.1497 -0.0270  0.1786
    1CHOL    R430933  22.392  19.827   5.439 -0.1554 -0.0099  0.1165
    1CHOL    R530934  22.411  20.035   5.503 -0.1524 -0.0234  0.1596
    1CHOL    C130935  22.247  19.887   5.813 -0.2002 -0.0753  0.1096
    1CHOL    C230936  21.898  19.727   5.791  0.0696 -0.0444 -0.1970
    1CHOL   ROH30937  22.654   2.810   3.667 -0.0530 -0.1865  0.0249
    1CHOL    R130938  22.663   2.929   3.923 -0.1081 -0.1224  0.0007
    1CHOL    R230939  22.522   2.829   4.140  0.0231 -0.2109  0.0658
    1CHOL    R330940  22.767   2.830   4.257  0.0547  0.0338 -0.0065
    1CHOL    R430941  22.581   2.883   4.476  0.1001 -0.0656  0.0265
    1CHOL    R530942  22.754   3.002   4.422 -0.0291  0.0591 -0.0557
    1CHOL    C130943  22.845   2.916   4.782  0.1749  0.2486 -0.0643
    1CHOL    C230944  22.898   2.909   5.181 -0.0380  0.1947  0.2178
    1CHOL   ROH30945  16.094  12.179   6.341  0.1460  0.2377  0.2280
    1CHOL    R130946  16.239  12.296   6.128  0.0854  0.1671  0.1487
    1CHOL    R230947  16.375  12.145   5.940  0.1733  0.1094  0.2640
    1CHOL    R330948  16.226  12.289   5.764  0.1002 -0.0991  0.1505
    1CHOL    R430949  16.467  12.216   5.614  0.1391 -0.1053  0.2046
    1CHOL    R530950  16.386  12.417   5.640  0.0420 -0.1182  0.0482
    1CHOL    C130951  16.380  12.393   5.260  0.0505 -0.4262  0.0634
    1CHOL    C230952  16.476  12.404   4.964 -0.0120  0.1164  0.1147
    1CHOL   ROH30953  27.933  27.520   3.835  0.2628  0.2529  0.0719
    1CHOL    R130954  28.020  27.578   4.098  0.2758  0.0656  0.1087
    1CHOL    R230955  27.859  27.540   4.320  0.2195  0.0945  0.0635
    1CHOL    R330956  28.071  27.392   4.407  0.0913 -0.1114  0.0372
    1CHOL    R430957  27.936  27.480   4.651  0.0556 -0.1742  0.0574
    1CHOL    R530958  28.147  27.507   4.603  0.1003 -0.2843  0.1450
    1CHOL    C130959  28.179  27.307   4.926 -0.1603 -0.5243  0.0292
    1CHOL    C230960  28.376  27.436   5.305 -0.2003 -0.1685 -0.0401
    1CHOL   ROH30961  25.898   5.449   2.751 -0.1823  0.0590  0.0898
    1CHOL    R130962  25.902   5.279   2.976 -0.0667  0.0615  0.0906
    1CHOL    R230963  26.096   5.296   3.173 -0.0599  0.1733  0.0758
    1CHOL    R330964  25.881   5.318   3.338 -0.0603  0.0512  0.0918
    1CHOL    R430965  26.097   5.222   3.511  0.0278  0.2484  0.0923
    1CHOL    R530966  25.900   5.131   3.486  0.0916  0.0981  0.1316
    1CHOL    C130967  25.895   5.199   3.862  0.0786  0.1776  0.1169
    1CHOL    C230968  25.899   5.326   4.175 -0.2175 -0.1181 -0.3305
    1CHOL   ROH30969  21.306  14.471   3.428  0.0188 -0.2810  0.1373
    1CHOL    R130970  21.456  14.501   3.666 -0.0570 -0.1524  0.1707
    1CHOL    R230971  21.422  14.714   3.839 -0.1754 -0.1046  0.0913
    1CHOL    R330972  21.387  14.517   4.022 -0.1630 -0.0560  0.1459
    1CHOL    R430973  21.467  14.750   4.179 -0.1315 -0.0232  0.0771
    1CHOL    R530974  21.559  14.553   4.183 -0.1425 -0.0258  0.1154
    1CHOL    C130975  21.460  14.585   4.550 -0.0943  0.0699  0.1202
    1CHOL    C230976  21.451  14.634   4.976  0.1203  0.0990 -0.1751
    1CHOL   ROH30977  23.589   0.854   6.519  0.0932 -0.0400 -0.0866
    1CHOL    R130978  23.536   0.837   6.242  0.1159 -0.0101 -0.0929
    1CHOL    R230979  23.441   1.051   6.095  0.0640 -0.0110 -0.0650
    1CHOL    R330980  23.657   0.998   5.939  0.0911  0.0743 -0.0568
    1CHOL    R430981  23.449   1.081   5.751 -0.0057 -0.2641 -0.0911
    1CHOL    R530982  23.566   0.897   5.742  0.1624 -0.1592  0.0306
    1CHOL    C130983  23.656   1.049   5.404 -0.0207 -0.3313 -0.0984
    1CHOL    C230984  23.572   1.112   4.992  0.1069 -0.2944  0.0356
    1CHOL   ROH30985  20.629  17.292   3.813  0.0776 -0.1499  0.0492
    1CHOL    R130986  20.518  17.184   4.050  0.0333 -0.1040  0.0497
    1CHOL    R230987  20.598  16.941   4.154  0.0760 -0.0444  0.1591
    1CHOL    R330988  20.640  17.088   4.379 -0.0439  0.0461  0.1231
    1CHOL    R430989  20.723  16.817   4.452  0.1988  0.1358  0.1841
    1CHOL    R530990  20.580  16.942   4.558  0.0929  0.0352  0.1600
    1CHOL    C130991  20.836  16.883   4.835  0.1577  0.3258  0.1649
    1CHOL    C230992  20.720  16.723   5.134 -0.0409 -0.0651 -0.2104
    1CHOL   ROH30993  28.544  13.133   6.661 -0.0779 -0.2732 -0.0620
    1CHOL    R130994  28.405  13.149   6.415 -0.0773 -0.1529 -0.0546
    1CHOL    R230995  28.268  13.376   6.336  0.0422 -0.0646 -0.0078
    1CHOL    R330996  28.423  13.354   6.114  0.0224 -0.1067 -0.0178
    1CHOL    R430997  28.171  13.467   6.017  0.0956  0.0951  0.0207
    1CHOL    R530998  28.271  13.289   5.941 -0.0274  0.0473 -0.0334
    1CHOL    C130999  28.260  13.500   5.623  0.1082  0.1488  0.0279
    1CHOL    C231000  28.248  13.576   5.234  0.2117  0.0678  0.0524
    1CHOL   ROH31001  15.804   3.437   4.477 -0.0250 -0.1113 -0.0001
    1CHOL    R131002  15.557   3.576   4.485  0.0120 -0.0447 -0.0376
    1CHOL    R231003  15.503   3.772   4.673  0.0406 -0.0293 -0.0525
    1CHOL    R331004  15.447   3.921   4.452  0.1062 -0.0150 -0.0612
    1CHOL    R431005  15.329   4.070   4.676  0.0514 -0.0218 -0.0759
    1CHOL    R531006  15.227   4.007   4.494  0.0951 -0.0094 -0.1108
    1CHOL    C131007  15.175   4.384   4.471  0.1192 -0.0040 -0.0979
    1CHOL    C231008  15.538   4.553   4.763  0.0473  0.1908 -0.2091
    1W        W31009  16.061   9.062   8.487 -0.1934 -0.1319 -0.0179
    1W        W31010  21.202  15.533   2.281  0.0291 -0.0042  0.1234
    1W        W31011  25.189  16.933   1.491 -0.2989  0.0061  0.1418
    1W        W31012   0.227  29.621   7.922  0.2565  0.1463  0.0095
    1W        W31013   4.459  20.142   7.912 -0.3047  0.4020  0.1660
    1W        W31014  25.133  22.098   1.191  0.0269 -0.0901 -0.0861
    1W        W31015  21.155  21.823   2.662  0.3191  0.1631  0.1996
    1W        W31016  24.732  20.873   6.758 -0.0408  0.1552  0.0929
    1W        W31017  14.039  11.521   9.108 -0.0934  0.0292 -0.0406
    1W        W31018  22.302   0.666   0.020 -0.0393 -0.1906  0.0592
    1W        W31019  13.932  14.471   1.898  0.1360  0.3947 -0.1583
    1W        W31020  16.128  28.180   7.687 -0.1362  0.2647 -0.1819
    1W        W31021  18.589  23.888   9.479 -0.1742 -0.2517 -0.1517
    1W        W31022  22.677  13.534   7.536  0.3369 -0.1095  0.2325
    1W        W31023  26.497   4.412   0.046 -0.0167 -0.1014  0.3953
    1W        W31024  19.343  21.493   2.314  0.0978 -0.0362 -0.2406
    1W        W31025  12.125  22.303   8.250  0.0850  0.2751 -0.1896
    1W        W31026   5.104  19.740   9.318  0.2995 -0.0271 -0.0874
    1W        W31027   9.794  10.951   1.929 -0.2300  0.0142  0.0248
    1W        W31028  15.492  16.894   2.764 -0.2862 -0.1303 -0.0989
    1W        W31029   9.865  25.297   7.179 -0.4656 -0.3455 -0.0173
    1W        W31030  14.146  26.183   7.371 -0.3099 -0.0645  0.2817
    1W        W31031   6.645  28.234   1.469 -0.1534 -0.3442 -0.0681
    1W        W31032  17.169  13.488   0.211 -0.0884 -0.0248 -0.1990
    1W        W31033  15.850   5.484   2.316  0.0731 -0.1396 -0.2325
    1W        W31034  10.942  14.803   0.046  0.0410  0.2432  0.2044
    1W        W31035   7.481  29.444   0.496  0.0793  0.1470  0.2385
    1W        W31036   8.457  23.741   0.359  0.1019 -0.0675 -0.0931
    1W        W31037  24.082  11.371   2.076  0.0531 -0.2967  0.0270
    1W        W31038   0.227  18.200   1.709  0.2334  0.1815 -0.0647
    1W        W31039   9.792  15.081   8.625 -0.3180 -0.1856 -0.1165
    1W        W31040  11.719  16.291   0.164  0.1495 -0.0003 -0.0427
    1W        W31041  27.261  13.900   1.925  0.1455  0.1044  0.0480
    1W        W31042  24.653  16.583   1.445  0.1745 -0.2020  0.1361
    1W        W31043  16.084  20.585   9.364  0.0205 -0.3627 -0.0862
    1W        W31044  10.583   6.994   7.249 -0.2274  0.0439 -0.0266
    1W        W31045  15.773  11.224   0.043 -0.0132  0.2630 -0.0665
    1W        W31046  17.715  18.997   7.143 -0.0769 -0.2135  0.2493
    1W        W31047  19.073   5.687   1.377  0.4259  0.3382 -0.0602
    1W        W31048  24.008  21.829   8.031  0.0728  0.2019 -0.0843
    1W        W31049   0.584  26.029   8.577  0.0541 -0.0509 -0.1146
    1W        W31050  13.124   6.254   8.183  0.0779 -0.0608  0.0412
    1W        W31051  22.328  11.975   0.395  0.0250  0.2196  0.0300
    1W        W31052  27.107  19.819   1.334 -0.1903 -0.0869 -0.0646
    1W        W31053  21.867  23.320   8.116 -0.1813  0.2662  0.4304
    1W        W31054  15.244  23.749   8.469  0.0217  0.1264 -0.1211
    1W        W31055  24.504  14.583   9.308 -0.2377  0.0146 -0.0877
    1W        W31056  18.911   3.905   1.441 -0.2145 -0.0375 -0.3322
    1W        W31057  24.160  18.604   9.191 -0.1291 -0.0346 -0.0518
    1W        W31058  13.074  20.228   8.940  0.2847 -0.1389  0.2943
    1W        W31059  14.723  19.484   0.503  0.0012 -0.1930  0.0239
    1W        W31060   4.632  20.652   2.289 -0.1114  0.0246  0.0272
    1W        W31061  21.600  17.336   2.139 -0.1953 -0.0577 -0.0954
    1W        W31062   1.291  16.560   7.580 -0.1006 -0.2221 -0.1558
    1W        W31063   6.848  15.227   6.340 -0.1424 -0.1482  0.1299
    1W        W31064  13.413  27.521   7.021 -0.0791 -0.0117  0.1875
    1W        W31065  17.275  19.039   9.599  0.0659 -0.0188  0.0069
    1W        W31066  17.636  25.347   8.420  0.2885  0.0882  0.0110
    1W        W31067  11.473  26.847   8.539 -0.0983 -0.0442  0.0611
    1W        W31068  15.856  24.273   6.448 -0.0452 -0.4405  0.2547
    1W        W31069  29.620   6.178   8.212  0.2245  0.0215  0.0678
    1W        W31070   4.421   7.020   8.522 -0.1523  0.1748  0.1013
    1W        W31071  10.122  20.596   0.562  0.0097  0.0917 -0.1808
    1W        W31072   4.679  22.093   2.695 -0.0356  0.0879  0.1685
    1W        W31073  24.253  29.175   7.625  0.0087 -0.0444 -0.2411
    1W        W31074   9.687  27.265   6.775  0.0078  0.0267 -0.0825
    1W        W31075  11.626  25.505   7.340  0.1208 -0.0441 -0.2469
    1W        W31076   2.870   2.408   5.863  0.0571  0.0912  0.3135
    1W        W31077  16.163  25.669   1.880 -0.0538 -0.2046 -0.2177
    1W        W31078  22.034   3.755   9.410 -0.1868  0.3755 -0.0499
    1W        W31079  20.505  12.495   7.906 -0.0383  0.1256 -0.2083
    1W        W31080   1.911   6.942   7.358 -0.1291 -0.1321 -0.3383
    1W        W31081  10.099  10.177   7.294 -0.1410 -0.0126 -0.0881
    1W        W31082  12.477  10.671   8.182  0.0175  0.0201 -0.2080
    1W        W31083  19.216  12.096   8.606 -0.0369 -0.1955 -0.1320
    1W        W31084  18.724   5.861   0.769  0.2764  0.0656 -0.0231
    1W        W31085  27.934  16.057   1.462 -0.0952 -0.0208 -0.1590
    1W        W31086  10.452   2.923   8.724 -0.2235 -0.0417  0.0933
    1W        W31087   2.892  12.644   7.907  0.0584 -0.0791  0.3897
    1W        W31088  11.767  29.538   0.153 -0.1472  0.2619  0.2456
    1W        W31089   6.523  18.175   7.105 -0.2771  0.2201 -0.2806
    1W        W31090  29.265  18.983   1.846  0.1637 -0.1057  0.4703
    1W        W31091  22.156   5.014   0.189  0.2192  0.1405  0.2739
    1W        W31092   5.241   3.767   8.763  0.0639  0.0826  0.1654
    1W        W31093  24.062  21.997   3.195  0.1026  0.3143 -0.2174
    1W        W31094   7.342   3.923   6.861  0.2341  0.1519  0.1535
    1W        W31095  19.707  13.758   8.144 -0.2541 -0.2076 -0.0848
    1W        W31096  28.986  16.502   1.477  0.1257  0.0794  0.2333
    1W        W31097   7.812  22.680   7.915  0.0003 -0.3443 -0.2655
    1W        W31098  24.499  15.133   9.347 -0.2373  0.0208 -0.2383
    1W        W31099  17.824  23.389   8.684 -0.2608  0.3069  0.1712
    1W        W31100  21.746  27.092   9.247  0.3107 -0.0421 -0.1427
    1W        W31101  20.882   9.976   2.104 -0.1278  0.3060  0.0195
    1W        W31102  26.731   0.513   1.087  0.0454  0.1411  0.0896
    1W        W31103  13.131  19.740   6.347  0.0586 -0.1711  0.0792
    1W        W31104  13.410   5.010   8.037  0.1502 -0.1769 -0.1941
    1W        W31105  23.706  24.965   7.403 -0.0399  0.1550  0.2983
    1W        W31106  27.682  23.390   8.138  0.0076 -0.0109  0.0143
    1W        W31107   5.406  11.488   0.846  0.0318  0.3234  0.3059
    1W        W31108  23.791  27.800   3.019  0.3087  0.1481 -0.1747
    1W        W31109  17.139  14.357   9.305  0.0578 -0.1561  0.2331
    1W        W31110  11.638  23.594   7.678  0.2037  0.1616  0.1420
    1W        W31111   1.826  21.201   0.835  0.5173  0.4066 -0.1920
    1W        W31112  23.721  10.571   0.046  0.2484  0.2629 -0.1919
    1W        W31113  14.196  10.084   0.724  0.2047  0.1117  0.2146
    1W        W31114   1.562  25.597   2.056  0.1502  0.2406  0.0133
    1W        W31115  25.221  22.563   7.921  0.0773 -0.5918 -0.0846
    1W        W31116   1.948   1.141   2.276  0.1207 -0.0306  0.2013
    1W        W31117   0.219  12.434   7.724  0.0228 -0.0556  0.2037
    1W        W31118  26.190  15.838   7.806  0.1054 -0.0408 -0.1087
    1W        W31119  15.014   9.814   1.939  0.3898  0.0052  0.0874
    1W        W31120  24.030   8.368   2.155 -0.0600 -0.1101  0.1783
    1W        W31121   6.469  20.163   0.369  0.1339  0.1152 -0.3634
    1W        W31122  25.666  13.323   7.717 -0.0176  0.0661 -0.1133
    1W        W31123   2.753  12.750   8.354 -0.0669  0.1462 -0.0437
    1W        W31124   7.181   8.118   0.001  0.0081 -0.1443  0.0616
    1W        W31125   3.631  16.221   7.543  0.2595  0.1581  0.0756
    1W        W31126  26.695  22.878   6.902 -0.0683  0.4704  0.2345
    1W        W31127  14.670  10.861   0.510  0.1865  0.0109 -0.3295
    1W        W31128  11.179  27.358   7.058 -0.0929 -0.1685 -0.0129
    1W        W31129  22.938  27.832   0.696  0.0041  0.1399 -0.1898
    1W        W31130  18.595   4.721   8.001  0.0828 -0.0553  0.0192
    1W        W31131   3.151  21.278   0.600 -0.0654  0.1021 -0.1977
    1W        W31132  21.210  27.399   9.428 -0.2292  0.3628 -0.2520
    1W        W31133  21.273  23.585   0.953 -0.1135 -0.0027  0.2153
    1W        W31134  14.788  27.556   1.945  0.1071  0.0605 -0.0320
    1W        W31135  16.090  15.157   0.983  0.1164 -0.2357 -0.2900
    1W        W31136  28.038  23.057   7.719 -0.1572  0.2223 -0.1305
    1W        W31137  24.761   6.055   1.106  0.1183 -0.1293  0.3725
    1W        W31138  17.914  26.067   3.453 -0.2370  0.0619 -0.0365
    1W        W31139   3.052  27.033   1.085  0.0131  0.3516  0.1054
    1W        W31140  22.276   3.740   1.208  0.3551  0.1917  0.0662
    1W        W31141  11.887   3.112   8.274  0.0762 -0.2598 -0.0962
    1W        W31142   9.882  10.980   7.511 -0.0406 -0.0923  0.1063
    1W        W31143  29.194  17.492   9.476 -0.4113 -0.0350 -0.0576
    1W        W31144  10.076   9.368   8.251 -0.0610 -0.2327  0.2528
    1W        W31145   2.055   1.609   9.461 -0.4400 -0.2495  0.0163
    1W        W31146  28.390  16.527   2.704 -0.0370  0.2580 -0.1527
    1W        W31147  26.465  19.491   3.399  0.3919 -0.0288  0.1195
    1W        W31148  15.917  10.869   2.146  0.2470  0.2979  0.1966
    1W        W31149  13.477  13.916   6.344  0.1827  0.0005 -0.0125
    1W        W31150   3.508  22.096   0.494  0.3403 -0.3226  0.0032
    1W        W31151  15.608   5.729   1.539  0.2270  0.1870  0.1009
    1W        W31152  23.150  18.315   6.717 -0.0790  0.1007 -0.0434
    1W        W31153   5.963  17.451   2.273  0.2698 -0.1430  0.3464
    1W        W31154  13.082   4.799   9.337 -0.2526 -0.1025 -0.1580
    1W        W31155  16.458  21.535   7.553 -0.2739  0.2232  0.0527
    1W        W31156   1.972  28.333   2.641  0.0626  0.0325  0.0069
    1W        W31157  10.441  13.514   8.003 -0.2565  0.0327  0.1768
    1W        W31158  14.106   0.109   0.489 -0.2231  0.1186 -0.1913
    1W        W31159  12.967  28.080   1.396  0.0490  0.0115 -0.3032
    1W        W31160   2.915  18.158   2.365 -0.2056  0.2574 -0.0708
    1W        W31161  13.463   7.770   9.295 -0.1532  0.2103  0.2472
    1W        W31162  14.955  10.953   7.871  0.0101  0.0902  0.0949
    1W        W31163  23.509  28.651   8.702  0.0277 -0.2120 -0.1694
    1W        W31164  24.261  12.752   7.993 -0.1411 -0.0484  0.1245
    1W        W31165   0.827   8.006   0.106 -0.4546  0.1993  0.0997
    1W        W31166  14.983   1.998   6.927 -0.1887 -0.0476  0.0543
    1W        W31167   7.082  24.807   2.927  0.1396 -0.2869 -0.1670
    1W        W31168   2.299  26.542   1.808  0.0268 -0.1267 -0.1312
    1W        W31169  16.854  19.889   1.183 -0.3157 -0.1279  0.1406
    1W        W31170   3.904  27.066   9.449  0.0546  0.0687  0.1503
    1W        W31171   1.115  13.217   8.087  0.0141 -0.1730  0.1428
    1W        W31172   2.106  15.996   7.861 -0.0047  0.0696 -0.1644
    1W        W31173  23.255  15.063   2.056 -0.0773  0.2238 -0.0532
    1W        W31174  12.911  23.175   0.087  0.0847 -0.2140  0.0719
    1W        W31175  28.929  14.367   0.542  0.1017 -0.0766 -0.0412
    1W        W31176   7.255  20.225   9.177 -0.1986 -0.2940 -0.2253
    1W        W31177  21.817  26.984   2.386  0.0368  0.1209 -0.0914
    1W        W31178  11.932   8.668   9.249  0.3350 -0.0300  0.2723
    1W        W31179   1.478  11.509   9.249  0.1558 -0.0928 -0.0461
    1W        W31180   8.229  19.304   2.570 -0.2008  0.1954  0.0433
    1W        W31181  16.646  17.391   0.364  0.0171  0.1627  0.0286
    1W        W31182   9.004  22.540   7.206 -0.0243 -0.3672 -0.1470
    1W        W31183   1.393  26.647   2.388 -0.1762  0.0547  0.1771
    1W        W31184  18.425  28.270   9.545 -0.1660  0.1605  0.1615
    1W        W31185   4.172   5.259   2.315  0.0692  0.1933  0.0024
    1W        W31186  27.370   8.663   9.160  0.0345  0.2467 -0.2219
    1W        W31187   3.655  15.856   1.447 -0.0936  0.0793  0.1613
    1W        W31188   1.953   5.677   0.824 -0.0462 -0.1758  0.2281
    1W        W31189   5.423  16.069   7.131 -0.3663 -0.3980 -0.0207
    1W        W31190   5.026  17.471   2.639  0.0204 -0.2954 -0.3165
    1W        W31191  10.648  26.065   1.142 -0.2078 -0.1053  0.0311
    1W        W31192  20.773  16.138   7.829  0.2494 -0.3475 -0.2406
    1W        W31193  18.195   0.425   2.047 -0.0692 -0.0652  0.1028
    1W        W31194   3.265   3.297   8.548  0.2162 -0.0330  0.0292
    1W        W31195  13.584   8.010   7.027  0.2592 -0.0026  0.1075
    1W        W31196  20.141   5.469   7.508  0.0229 -0.2309 -0.2753
    1W        W31197  28.978   3.781   9.015 -0.1632  0.2148 -0.2538
    1W        W31198  19.622  18.632   2.541 -0.0111  0.1709  0.0477
    1W        W31199  20.212   2.052   1.735  0.1737 -0.0646 -0.1194
    1W        W31200   1.263  24.368   7.959  0.1816 -0.1294 -0.2421
    1W        W31201  23.190  22.951   3.645 -0.2099 -0.3767 -0.3285
    1W        W31202  22.864  26.857   6.742 -0.1014  0.1145 -0.4876
    1W        W31203  28.386  17.921   8.006 -0.1598  0.1634 -0.3671
    1W        W31204  22.218  16.103   7.403 -0.1265 -0.0685 -0.2612
    1W        W31205  19.965   3.268   7.715  0.0065 -0.0002  0.0803
    1W        W31206   0.168   0.711   9.341  0.0873  0.0645 -0.1231
    1W        W31207  27.767  11.946   7.365 -0.2830  0.1444 -0.0821
    1W        W31208  24.086   8.099   8.072  0.2750  0.1281  0.0649
    1W        W31209   4.871  25.775   7.937 -0.0959 -0.0232  0.0765
    1W        W31210  27.722  12.653   9.484 -0.0589  0.0889 -0.3148
    1W        W31211  14.666  28.867   9.261 -0.1951  0.4941 -0.1872
    1W        W31212  11.581   3.121   8.716 -0.2899  0.0333  0.1454
    1W        W31213   0.860  28.049   1.271  0.2315 -0.1167  0.2438
    1W        W31214   1.170  22.725   0.448  0.1272 -0.3472  0.2818
    1W        W31215   0.216   2.187   8.277  0.0843 -0.0837  0.2379
    1W        W31216  13.363  21.535   0.708 -0.0728  0.0305  0.1417
    1W        W31217  14.028  18.799   6.141  0.0347  0.2032 -0.2340
    1W        W31218  12.606  13.071   8.568  0.0836 -0.2408  0.3672
    1W        W31219  16.431  23.023   7.613  0.1557 -0.0211 -0.0549
    1W        W31220   4.392  27.793   7.287  0.0371 -0.2460  0.1560
    1W        W31221  23.967  16.856   2.160  0.0203  0.0747 -0.2190
    1W        W31222   0.325  23.855   2.246  0.1521 -0.0315 -0.3035
    1W        W31223  24.246   9.761   9.469  0.0853 -0.1357  0.2243
    1W        W31224  22.221  15.610   8.060 -0.0570  0.2523  0.1439
    1W        W31225  23.769  18.955   7.808  0.2434  0.2317  0.0370
    1W        W31226   6.796  28.210   2.471 -0.1950  0.1521 -0.0990
    1W        W31227  24.957  11.828   2.022 -0.0383  0.1767 -0.0180
    1W        W31228   5.361  19.548   0.802 -0.2135 -0.0304 -0.0012
    1W        W31229   5.969   0.647   8.407 -0.1553  0.3116  0.0563
    1W        W31230  20.965  21.346   3.195 -0.0615 -0.0412  0.1393
    1W        W31231  15.565   6.381   0.303 -0.0659 -0.2301  0.1313
    1W        W31232  26.467  18.445   2.680 -0.0183 -0.3301  0.0961
    1W        W31233  15.674  23.991   2.178  0.0882 -0.0271  0.0288
    1W        W31234  13.041  22.258   1.992 -0.0234 -0.0421  0.0036
    1W        W31235  26.530   6.262   0.563 -0.0023 -0.2585  0.2063
    1W        W31236  24.372   8.538   8.233  0.1594  0.2500 -0.0737
    1W        W31237  29.317   8.710   6.903 -0.1819  0.0059  0.1774
    1W        W31238  25.310   2.209   7.717 -0.1191  0.3159 -0.2428
    1W        W31239   8.799  22.393   9.555 -0.0980  0.0397 -0.0632
    1W        W31240  10.151  19.167   9.359 -0.5352  0.1659  0.2197
    1W        W31241  15.829   6.573   7.644 -0.2386  0.1199  0.2525
    1W        W31242  24.506  26.763   1.278 -0.1165 -0.1818  0.0027
    1W        W31243  11.171   9.962   2.135 -0.1027  0.0274 -0.0519
    1W        W31244  18.702  12.193   1.538  0.1603  0.3026  0.0029
    1W        W31245  22.264  21.669   3.463 -0.2333 -0.1526 -0.1855
    1W        W31246  25.972  15.426   6.846 -0.3607 -0.0410 -0.0120
    1W        W31247  24.670   3.563   8.480  0.1578  0.0659  0.0133
    1W        W31248  10.899  15.208   7.004  0.0229  0.3810 -0.0063
    1W        W31249   0.177   4.256   8.096 -0.1293 -0.2606 -0.0921
    1W        W31250  12.498  22.331   7.220 -0.1803  0.0249 -0.1008
    1W        W31251   4.560  11.050   2.318 -0.1964  0.1387  0.1006
    1W        W31252   9.838   8.404   9.200  0.2163  0.0753 -0.5852
    1W        W31253   7.255  20.298   2.099 -0.1070 -0.2761 -0.1910
    1W        W31254   5.515  26.959   0.893  0.0459  0.1507 -0.3106
    1W        W31255  29.533  27.460   8.177 -0.3588  0.1858 -0.0260
    1W        W31256  29.100   0.532   7.579 -0.1885  0.0984 -0.3645
    1W        W31257   1.140  14.763   7.549  0.0594  0.0049  0.1862
    1W        W31258  10.677   9.457   0.095  0.0994 -0.3092  0.1650
    1W        W31259  13.510  18.247   0.582 -0.2216  0.0926  0.1022
    1W        W31260  19.434   2.822   2.156  0.1011 -0.1363 -0.1315
    1W        W31261  15.253   2.672   8.888 -0.3254 -0.0374  0.1585
    1W        W31262  14.381   3.531   8.852 -0.0440 -0.1679  0.0042
    1W        W31263  19.856   5.894   9.586  0.1803  0.0343 -0.1316
    1W        W31264  15.795   1.025   2.963 -0.2055  0.0816  0.0551
    1W        W31265  24.687  22.921   8.528 -0.1158  0.0633  0.2204
    1W        W31266   4.209  15.670   8.514 -0.4751  0.0915  0.0144
    1W        W31267   6.837   6.526   9.178  0.0478 -0.1233 -0.3525
    1W        W31268  19.328   5.226   7.878  0.1738 -0.0057 -0.4347
    1W        W31269   0.441  23.459   1.586 -0.1431  0.1313 -0.0635
    1W        W31270   8.585  18.109   5.801  0.0077 -0.1044 -0.3173
    1W        W31271  15.495   9.527   8.179 -0.1648 -0.0547  0.0236
    1W        W31272   2.826  25.778   1.734  0.0469  0.1185 -0.3647
    1W        W31273  14.009  11.100   1.655 -0.2306 -0.0901 -0.0720
    1W        W31274  20.040  16.295   9.623  0.1950 -0.0661  0.3195
    1W        W31275  14.994  12.293   0.348  0.1093 -0.0443 -0.0592
    1W        W31276  29.333  15.079   1.880  0.0158  0.0391 -0.0280
    1W        W31277  16.764  24.425   0.458 -0.1925  0.1550  0.2150
    1W        W31278  23.067   4.504   0.347  0.1573 -0.1398 -0.4441
    1W        W31279  14.091  17.613   7.944  0.2868  0.0465  0.2708
    1W        W31280   2.134  14.315   8.352 -0.0987  0.0708  0.0100
    1W        W31281   1.250   2.951   1.028 -0.1547 -0.1913 -0.0818
    1W        W31282  25.801  27.014   8.747  0.2038  0.1412 -0.1082
    1W        W31283   7.640   1.656   9.264  0.3247  0.0115 -0.0251
    1W        W31284  21.388  23.566   4.227 -0.0944 -0.2131 -0.0153
    1W        W31285  29.198  11.312   7.203  0.1235  0.0953  0.0831
    1W        W31286  10.201  16.016   9.178  0.2704  0.0447  0.2466
    1W        W31287  25.352  13.146   8.588 -0.2019 -0.0246 -0.0786
    1W        W31288  18.307  24.314   1.895 -0.1325 -0.0817  0.1483
    1W        W31289  19.315  15.322   3.163 -0.5032 -0.0166 -0.1484
    1W        W31290  26.359  20.227   7.767  0.0973 -0.0399  0.2701
    1W        W31291  28.903   4.076   7.017 -0.1131  0.3080 -0.0670
    1W        W31292  20.873  15.905   7.402  0.0988  0.3068  0.0586
    1W        W31293  17.346   2.834   2.143  0.2146 -0.1256  0.0969
    1W        W31294  11.576  18.330   7.154  0.1178  0.0934 -0.3397
    1W        W31295   6.599  17.261   0.321 -0.0114 -0.0892 -0.1992
    1W        W31296  28.779  13.691   1.330  0.3456  0.0248 -0.0012
    1W        W31297  11.480  27.864   1.412 -0.4177 -0.1045  0.0301
    1W        W31298  27.964  24.575   1.154  0.1821 -0.0559  0.1323
    1W        W31299  12.624   4.499   2.895  0.1279  0.0055  0.0904
    1W        W31300  14.194  12.830   1.688 -0.2932 -0.1309 -0.2230
    1W        W31301  25.840  25.174   2.664 -0.1307 -0.2582  0.0918
    1W        W31302  21.522   5.128   2.077 -0.0249  0.0204 -0.1062
    1W        W31303   5.676   9.492   1.023 -0.0168 -0.0846  0.0088
    1W        W31304  10.608  17.636   8.947 -0.0465 -0.1339  0.3131
    1W        W31305  27.771  19.215   0.446  0.0697  0.1705 -0.1941
    1W        W31306   3.638   3.922   0.051 -0.1843  0.3383  0.0025
    1W        W31307  27.330  25.930   1.926  0.3071 -0.3000  0.4327
    1W        W31308  18.544  23.045   9.606 -0.0386 -0.0950  0.4585
    1W        W31309   9.920  13.571   0.598 -0.0750  0.0019 -0.0430
    1W        W31310  10.428  21.333   9.636 -0.0052 -0.1249  0.1122
    1W        W31311  10.005   0.423   8.806 -0.0430  0.0370 -0.0431
    1W        W31312  24.244   8.713   0.296 -0.1508  0.0341 -0.2988
    1W        W31313  12.871   2.027   9.388  0.0207 -0.0552 -0.2715
    1W        W31314  20.285  24.650   1.111 -0.0089  0.0648  0.1555
    1W        W31315  17.472  16.902   8.519  0.1805 -0.2375  0.0700
    1W        W31316  12.901  10.911   6.918  0.5712 -0.1124 -0.0473
    1W        W31317  24.140  16.760   8.089  0.1073 -0.0492  0.0478
    1W        W31318   5.693   5.258   6.121 -0.2394 -0.0010 -0.1848
    1W        W31319  16.419  19.427   1.351 -0.2154  0.5032 -0.0474
    1W        W31320  24.670  15.584   8.493 -0.2095  0.0046 -0.0400
    1W        W31321   6.330  11.458   6.169  0.2792  0.1252  0.0087
    1W        W31322  28.716   5.327   6.651 -0.0547 -0.0324  0.0990
    1W        W31323  12.214  11.003   7.762 -0.0793 -0.0512 -0.1165
    1W        W31324  18.986   3.127   7.729 -0.1631 -0.1807 -0.5208
    1W        W31325  21.239  12.204   8.488  0.1924  0.0080 -0.0764
    1W        W31326  23.507  14.292   7.862 -0.1270 -0.2694 -0.1920
    1W        W31327   0.213  10.726   1.228  0.0955 -0.1443  0.1392
    1W        W31328  15.912  19.993   6.128 -0.2255  0.1273  0.1041
    1W        W31329  22.289  23.999   1.406  0.2963 -0.2034 -0.2447
    1W        W31330  25.146  28.731   0.383  0.0119 -0.3295  0.2003
    1W        W31331   0.749  24.382   2.258  0.0490  0.0001  0.0395
    1W        W31332   2.716  21.155   9.294 -0.2087 -0.2062  0.1577
    1W        W31333  28.272  21.309   3.523  0.1857  0.2226  0.3614
    1W        W31334  16.020  19.745   9.494  0.1850  0.0877  0.3327
    1W        W31335  24.745  28.812   9.210  0.3627  0.0249 -0.2302
    1W        W31336   0.659   0.115   6.390  0.0438  0.0512 -0.0195
    1W        W31337   8.603  20.094   7.573  0.0133  0.4082 -0.1127
    1W        W31338  27.105   1.130   0.069 -0.3758 -0.2401  0.2076
    1W        W31339   3.499   3.289   7.300 -0.3599 -0.3598 -0.0084
    1W        W31340  21.257  11.597   1.448 -0.1621 -0.3479  0.1638
    1W        W31341   1.677   2.833   7.140  0.2160  0.0195 -0.1225
    1W        W31342  24.891  16.106   0.733  0.0436 -0.0884 -0.0216
    1W        W31343  15.411  17.584   8.262  0.1818 -0.0349  0.5852
    1W        W31344  28.707  24.016   2.384 -0.3814  0.1345 -0.3249
    1W        W31345   9.690   3.521   7.148 -0.1202 -0.1841 -0.0232
    1W        W31346   9.958  22.814   0.975 -0.4429 -0.0406 -0.0273
    1W        W31347   9.930   7.844   7.677 -0.0764 -0.3428  0.1892
    1W        W31348   4.951  15.922   1.695  0.0898  0.3653  0.2087
    1W        W31349  19.099  22.105   8.433 -0.3277 -0.0225 -0.1307
    1W        W31350  21.006   2.211   9.585 -0.1610 -0.1322  0.0522
    1W        W31351  20.718  15.571   0.988  0.0137  0.1790 -0.0755
    1W        W31352  13.460   9.903   6.778  0.2712  0.2925 -0.3573
    1W        W31353  20.442  11.486   0.058  0.1108 -0.0346 -0.2184
    1W        W31354   2.470  15.742   7.702 -0.2058 -0.0371  0.0111
    1W        W31355  20.794  16.641   1.058  0.1080 -0.2819  0.0674
    1W        W31356  26.767  19.205   0.649 -0.1995 -0.0648 -0.0226
    1W        W31357   7.091   2.171   9.538 -0.0047  0.4413  0.0934
    1W        W31358  16.563  25.605   3.538  0.0674 -0.1081 -0.2447
    1W        W31359  15.904   3.786   7.346  0.0849  0.1796 -0.0529
    1W        W31360   3.909  22.764   1.220  0.2778  0.1763  0.0403
    1W        W31361  18.769   1.632   0.036 -0.0296 -0.2180  0.1062
    1W        W31362  29.070   8.528   9.639  0.1694  0.0127 -0.0847
    1W        W31363  13.495   3.216   0.718  0.3458  0.3195 -0.2062
    1W        W31364  19.936  17.464   0.960 -0.4352 -0.0529 -0.0195
    1W        W31365  12.079   9.670   0.390  0.0663 -0.0935 -0.3103
    1W        W31366   6.015  19.978   2.207  0.2136 -0.0090 -0.1526
    1W        W31367   4.110  24.890   0.924 -0.2251  0.0191  0.0845
    1W        W31368   9.337   7.492   6.477 -0.1242  0.1490 -0.0096
    1W        W31369  27.669  11.141   8.874 -0.1055 -0.0655  0.0816
    1W        W31370  10.885  25.788   7.904 -0.1900 -0.0830  0.1070
    1W        W31371  20.621   3.621   0.311  0.2216 -0.1720 -0.0309
    1W        W31372  22.627  13.789   2.687 -0.1503 -0.2258  0.0401
    1W        W31373  24.460  21.647   3.593  0.1311 -0.2594  0.0174
    1W        W31374   2.037  21.550   1.832  0.3582 -0.4278 -0.0229
    1W        W31375  11.716  17.187   9.277 -0.1720  0.0756 -0.0502
    1W        W31376   1.628   0.945   7.958 -0.3774  0.1922 -0.0196
    1W        W31377  18.917  11.317   7.134 -0.1275  0.0604 -0.2483
    1W        W31378  20.132  26.602   8.714  0.0965  0.0668 -0.0284
    1W        W31379   1.262  26.444   1.993 -0.0093  0.2325  0.0876
    1W        W31380   6.758   9.604   7.436 -0.0225 -0.3543  0.2365
    1W        W31381   2.520  10.638   1.888  0.0180 -0.0236 -0.2723
    1W        W31382  25.520  17.687   9.104 -0.0794 -0.0648 -0.0818
    1W        W31383   9.614  29.503   8.346 -0.0274 -0.1550 -0.1295
    1W        W31384   3.367  25.812   0.853  0.2925 -0.1121 -0.3246
    1W        W31385  10.525  11.857   5.957 -0.0552 -0.1057 -0.0462
    1W        W31386  24.157  27.881   8.875  0.1247  0.2165  0.3041
    1W        W31387  14.447  17.816   7.607  0.1296  0.1876  0.1532
    1W        W31388  22.104   1.374   2.483  0.0107  0.0497 -0.0121
    1W        W31389   3.033  22.267   1.815  0.0804  0.0309  0.0621
    1W        W31390  21.546  14.178   7.771  0.0839 -0.0489  0.1331
    1W        W31391  19.624  19.260   1.243 -0.0777  0.0055 -0.1163
    1W        W31392  28.038   3.763   0.504  0.1854 -0.0095 -0.0477
    1W        W31393   3.622  17.142   0.424 -0.0399  0.0343  0.3175
    1W        W31394  24.491  18.022   7.648  0.1676 -0.2036  0.0288
    1W        W31395  24.799  26.968   0.436 -0.0860  0.0524 -0.1430
    1W        W31396  21.393  25.075   8.337 -0.1032 -0.1833 -0.2798
    1W        W31397  13.146  29.084   1.709  0.0726  0.0024 -0.1377
    1W        W31398  20.011  26.955   2.432 -0.0460 -0.2099  0.1020
    1W        W31399  10.314  20.848   0.980  0.1209 -0.0778  0.0440
    1W        W31400  15.228  27.354   2.198  0.3760 -0.2359 -0.0740
    1W        W31401  29.157   7.019   6.405  0.1474  0.0282 -0.0133
    1W        W31402  13.581  22.533   6.387 -0.3522 -0.0693 -0.3644
    1W        W31403  26.784  19.844   3.636  0.0664 -0.0402  0.0528
    1W        W31404  22.686  18.479   8.718 -0.1370 -0.1681 -0.1360
    1W        W31405  18.396  14.242   2.616  0.0746 -0.0270  0.0170
    1W        W31406   2.949  11.109   1.161 -0.2155  0.0777 -0.1553
    1W        W31407  18.944  27.271   9.292  0.1473  0.0734 -0.4337
    1W        W31408  12.461  16.349   6.626  0.1047  0.1293  0.0183
    1W        W31409  24.484  16.683   2.398 -0.0000 -0.1586 -0.0216
    1W        W31410   1.062  17.744   0.221 -0.0399  0.0808 -0.0181
    1W        W31411   4.067  28.367   0.665 -0.2594 -0.1088 -0.0043
    1W        W31412  28.273  24.872   1.743 -0.2075 -0.1183  0.0002
    1W        W31413  26.049  25.558   2.180  0.0627  0.5781 -0.0309
    1W        W31414  21.089  14.268   0.013 -0.3525  0.1118 -0.0174
    1W        W31415  21.502  24.966   7.830  0.0332 -0.0361 -0.1793
    1W        W31416  27.075  20.217   7.985  0.2423  0.2923  0.0737
    1W        W31417  17.401  16.109   7.923 -0.0739 -0.0173  0.1967
    1W        W31418  21.320  29.359   9.539  0.3805  0.0826 -0.0234
    1W        W31419   1.927  15.771   1.877 -0.0431  0.2264  0.1269
    1W        W31420  10.093  15.486   7.293  0.2921  0.1368 -0.2773
    1W        W31421   3.886   0.069   7.077 -0.1207 -0.1126  0.1794
    1W        W31422  21.705  15.261   2.010 -0.0314 -0.2168  0.2169
    1W        W31423   2.900  15.139   0.587 -0.1516 -0.1351 -0.1630
    1W        W31424  18.967   5.850   0.074  0.1117 -0.0908  0.0090
    1W        W31425  29.083  24.250   9.221  0.2146 -0.0575 -0.0656
    1W        W31426  11.178   8.690   8.037  0.0491 -0.0310  0.2128
    1W        W31427  23.736   7.822   9.275  0.2271  0.3285  0.3953
    1W        W31428   0.697   3.983   0.580  0.0123 -0.0047 -0.1221
    1W        W31429  29.115  10.224   8.925  0.2583 -0.1381  0.0384
    1W        W31430   6.809  11.754   5.977  0.1135  0.0827 -0.3776
    1W        W31431  23.933  13.101   2.245 -0.1901 -0.2318 -0.2318
    1W        W31432  11.673  19.827   1.401  0.0116  0.2393  0.0289
    1W        W31433  16.360   1.045   0.902 -0.1831 -0.0263  0.2695
    1W        W31434   6.843  10.850   0.041  0.1852  0.1322  0.1464
    1W        W31435  22.789  10.076   2.050 -0.0107  0.0068  0.1217
    1W        W31436  12.546  27.738   7.951  0.0497  0.0726  0.1723
    1W        W31437  23.864   3.116   1.916 -0.0740 -0.0381 -0.2591
    1W        W31438  22.617  19.961   8.387 -0.1549  0.3094 -0.1423
    1W        W31439   0.512   1.446   8.216  0.1945 -0.1804 -0.0491
    1W        W31440  25.615  15.629   7.762  0.1224 -0.2625  0.0596
    1W        W31441   0.883   8.153   6.868 -0.2516 -0.0468  0.0332
    1W        W31442   4.167  19.004   1.492 -0.0167  0.1347  0.1057
    1W        W31443  16.940   2.877   2.468 -0.1116 -0.0787  0.0590
    1W        W31444  25.236  11.548   7.635 -0.2445  0.0701  0.0006
    1W        W31445   6.145  17.305   9.216 -0.0758 -0.2039  0.2589
    1W        W31446  16.325  20.443   8.894  0.1093 -0.0858  0.2076
    1W        W31447  17.841  16.664   9.576 -0.1120  0.0198 -0.2256
    1W        W31448  27.710  18.245   0.724 -0.3835  0.0474 -0.1765
    1W        W31449  18.173   7.865   7.616  0.0595  0.0880 -0.0742
    1W        W31450  11.165  29.613   0.021  0.0594  0.0137 -0.0378
    1W        W31451   4.770   3.655   6.978  0.1873 -0.1635  0.4139
    1W        W31452   2.286  13.221   6.337 -0.0099  0.2242  0.2353
    1W        W31453  15.797  21.451   6.968 -0.2579  0.2382 -0.0369
    1W        W31454  17.492  21.677   0.736 -0.1171  0.2430  0.1469
    1W        W31455  17.616  11.845   0.164  0.1238 -0.3362 -0.3911
    1W        W31456  18.653  18.257   1.663  0.3396 -0.2721 -0.0586
    1W        W31457  11.057  18.399   6.117 -0.1196  0.3040 -0.2588
    1W        W31458  13.967   5.731   6.804  0.1364 -0.0604 -0.0562
    1W        W31459  19.936  26.831   8.295  0.0435  0.1091  0.0898
    1W        W31460   1.288   2.444   7.089  0.3435 -0.1409 -0.1177
    1W        W31461  12.703   5.747   2.076 -0.0077  0.0707  0.5470
    1W        W31462   2.377  20.767   8.374 -0.3475  0.6418 -0.4320
    1W        W31463  14.426  27.026   8.809  0.0931  0.1692  0.1142
    1W        W31464   1.811  18.518   3.783  0.1321 -0.0778  0.0509
    1W        W31465   2.949  14.316   1.089  0.0291  0.0888  0.0468
    1W        W31466  21.894  26.753   2.864  0.2862  0.2728  0.0299
    1W        W31467   4.228  22.452   7.453  0.0087  0.1677 -0.1836
    1W        W31468  13.574  23.013   7.866  0.1636 -0.0387 -0.0429
    1W        W31469   2.583   6.639   6.098  0.1575  0.0419  0.0914
    1W        W31470   0.998  21.178   2.102  0.1063 -0.0598 -0.2868
    1W        W31471   3.990  21.919   8.085 -0.1869  0.0896 -0.1569
    1W        W31472  18.768  16.396   3.052 -0.1459 -0.1099 -0.0518
    1W        W31473   3.243  13.567   8.666 -0.2711  0.1100  0.1488
    1W        W31474  28.304   7.778   9.616  0.1614  0.1820  0.0048
    1W        W31475  12.112   8.393   8.414  0.0111 -0.0915 -0.0917
    1W        W31476  12.484  13.599   7.118  0.1569  0.0887  0.0429
    1W        W31477  17.535   5.289   9.601 -0.0793  0.0202  0.0671
    1W        W31478  14.654  25.344   1.111 -0.2320 -0.2246 -0.5649
    1W        W31479  24.203  18.693   2.217  0.1804  0.1432 -0.0991
    1W        W31480   4.158   5.318   6.795  0.0858  0.0356  0.1732
    1W        W31481   9.024  17.951   9.295 -0.0797 -0.1285  0.2569
    1W        W31482  19.534  24.283   0.182 -0.0249  0.0294 -0.2828
    1W        W31483  13.992  25.261   2.323  0.0002 -0.1386  0.0308
    1W        W31484   6.505  22.247   0.223 -0.0298 -0.2415 -0.1423
    1W        W31485  15.981  24.675   8.732 -0.3371 -0.1351 -0.0709
    1W        W31486  25.471  17.888   7.065  0.0325  0.0427  0.1986
    1W        W31487  10.701  26.818   7.803 -0.0019  0.2712 -0.1240
    1W        W31488   2.643   7.985   7.754 -0.0492  0.0210 -0.1905
    1W        W31489   1.917  22.994   3.166  0.2665 -0.1241 -0.2745
    1W        W31490   8.833  19.223   2.574 -0.1552  0.0048 -0.1553
    1W        W31491  10.793  12.013   6.660 -0.3619  0.3782 -0.0956
    1W        W31492  27.406   5.245   1.732  0.2658 -0.1626  0.0697
    1W        W31493   8.197  22.636   2.145 -0.1530  0.0681 -0.1522
    1W        W31494   7.286   3.089   2.550 -0.1491 -0.4151  0.1182
    1W        W31495   6.521  28.199   9.223 -0.1403  0.1834 -0.0447
    1W        W31496   5.232   9.809   8.273 -0.1980 -0.0471 -0.0913
    1W        W31497   2.390  26.219   8.568  0.2216  0.0577  0.2914
    1W        W31498  10.745  12.817   6.961 -0.0777  0.0916 -0.0857
    1W        W31499  29.224   6.049   6.705 -0.1224  0.1801 -0.0765
    1W        W31500   3.259  22.779   0.962 -0.0424 -0.1306  0.1495
    1W        W31501   7.391   6.054   1.491  0.0614 -0.1674  0.2579
    1W        W31502  23.709  14.480   8.651 -0.0442  0.0993  0.3854
    1W        W31503  28.221  28.733   9.341 -0.1666 -0.1802 -0.0462
    1W        W31504   0.497   3.496   6.413  0.0382 -0.0606 -0.0595
    1W        W31505   6.825  24.735   2.087 -0.2685 -0.4428 -0.1117
    1W        W31506  11.259  11.996   6.325 -0.2748 -0.0428 -0.0060
    1W        W31507  10.637  10.492   9.196 -0.4519  0.0333 -0.0701
    1W        W31508  25.528  28.399   2.304  0.0162 -0.0383 -0.0975
    1W        W31509   8.280  24.040   9.628  0.0669 -0.2396  0.1534
    1W        W31510   0.498   0.180   0.562  0.1046  0.1053  0.0483
    1W        W31511   0.888  15.749   1.667  0.1061 -0.1168  0.2624
    1W        W31512  29.131  25.288   1.542 -0.0708 -0.1430  0.1277
    1W        W31513  27.358  18.942   8.291  0.0658  0.0882 -0.0721
    1W        W31514  28.137  20.495   8.845 -0.2948 -0.1856  0.2628
    1W        W31515  16.691   1.374   8.400  0.1016  0.1501  0.1707
    1W        W31516  26.202  21.432   1.928  0.0077  0.1642 -0.0006
    1W        W31517   9.257   9.364   7.134 -0.4155 -0.1586 -0.0216
    1W        W31518  11.562  19.335   8.152 -0.0251  0.1175 -0.0942
    1W        W31519  27.186  12.113   1.964  0.1820 -0.0294 -0.0776
    1W        W31520  20.209   6.181   6.890  0.4017 -0.0989 -0.1158
    1W        W31521  16.287  20.866   8.477  0.1183 -0.0672 -0.2729
    1W        W31522  24.449   0.538   3.255 -0.0613  0.1831  0.0614
    1W        W31523  27.084   3.663   1.005  0.3852 -0.1279  0.2871
    1W        W31524  10.296  24.331   7.660 -0.0867 -0.0937 -0.1929
    1W        W31525  23.363  20.358   8.366 -0.5205  0.0067  0.2738
    1W        W31526   3.974  23.683   3.176  0.0393  0.0322 -0.0642
    1W        W31527  10.526  28.749   9.607  0.0362 -0.1651  0.3461
    1W        W31528   2.450   6.538   1.455 -0.3702 -0.3654 -0.2111
    1W        W31529   1.376  25.026   0.808 -0.2569  0.0736  0.1136
    1W        W31530  20.506   4.453   2.244 -0.1265  0.0134 -0.0151
    1W        W31531  22.815   7.072   1.365  0.2786 -0.1089  0.0417
    1W        W31532  14.106  29.093   9.316  0.0442 -0.0474 -0.1386
    1W        W31533  13.468  11.832   1.388  0.3029  0.1822 -0.0468
    1W        W31534   7.113   9.251   7.508  0.0843 -0.2727 -0.0335
    1W        W31535  12.540  22.569   1.159  0.1321  0.0767  0.1022
    1W        W31536  15.900  18.464   8.188 -0.0153 -0.0244 -0.2596
    1W        W31537  27.302  29.025   7.078  0.3104 -0.1950 -0.0620
    1W        W31538   8.634  14.343   8.390 -0.0206 -0.1269  0.0960
    1W        W31539  20.810   4.237   0.146 -0.1243 -0.2729  0.0744
    1W        W31540   9.912  24.929   9.081  0.2618  0.2241 -0.2886
    1W        W31541  12.413  18.543   9.086  0.4906  0.0920  0.3137
    1W        W31542  19.577  24.311   4.397 -0.0098 -0.3119 -0.0021
    1W        W31543  29.382  10.626   8.049  0.1034 -0.1762  0.1314
    1W        W31544  13.962  10.659   3.187  0.1173 -0.1165  0.3985
    1W        W31545  10.487  29.484   6.493  0.0970 -0.0377 -0.0465
    1W        W31546  14.695   5.882   0.963  0.0447  0.1208  0.1379
    1W        W31547  28.041  27.956   2.008  0.1114 -0.0955  0.0646
    1W        W31548  14.862   4.185   3.131 -0.0237  0.2498  0.2163
    1W        W31549  10.572  19.706   8.056  0.2508 -0.0164  0.0698
    1W        W31550  15.520   5.636   2.854 -0.6029 -0.0957  0.0252
    1W        W31551  12.728  14.433   7.351  0.1903 -0.2737 -0.0969
    1W        W31552  24.923  14.895   9.456 -0.1295 -0.2808  0.1452
    1W        W31553   9.990   3.787   9.379  0.1333  0.0801  0.1689
    1W        W31554  14.621   0.004   8.895  0.1359  0.1667  0.0027
    1W        W31555   0.950  12.318   8.320 -0.3783 -0.3760 -0.2255
    1W        W31556   5.397  28.703   6.326  0.0143 -0.2398  0.2545
    1W        W31557  25.402  27.349   3.117 -0.0355  0.2167 -0.0208
    1W        W31558  13.028  28.647   8.060 -0.0507 -0.2378  0.0780
    1W        W31559   4.317   3.581   9.226  0.2183  0.0843 -0.2026
    1W        W31560   7.475   5.499   9.005 -0.1360 -0.0861  0.0830
    1W        W31561  24.485  29.462   1.245 -0.0565  0.1194  0.0287
    1W        W31562   0.660  14.347   1.588 -0.0083 -0.0342 -0.1383
    1W        W31563   4.498   7.137   8.056 -0.3695  0.0382  0.1340
    1W        W31564  19.344   8.551   8.873  0.2780  0.0086  0.0997
    1W        W31565  15.780  18.921   7.473  0.1667 -0.2514 -0.1580
    1W        W31566  12.624  19.241   0.981 -0.0721 -0.5084  0.0668
    1W        W31567   2.168  28.659   2.997 -0.2281  0.1210  0.1777
    1W        W31568   0.335   9.460   8.589  0.0103  0.0742 -0.0095
    1W        W31569  24.170  25.624   3.184 -0.2288  0.0417 -0.3362
    1W        W31570  28.866  15.321   1.681  0.1452  0.0504 -0.1051
    1W        W31571  23.047   3.862   0.686  0.2914  0.1335  0.2432
    1W        W31572   5.157  19.873   3.327 -0.0236 -0.0278  0.1303
    1W        W31573   7.766  23.833   1.708 -0.0216 -0.0645 -0.0204
    1W        W31574  23.684   2.640   9.543  0.3164  0.2063 -0.1738
    1W        W31575  24.011  25.642   2.687  0.0607 -0.3771 -0.0060
    1W        W31576  15.979  22.105   0.084  0.2385  0.1239 -0.2191
    1W        W31577   3.968   0.919   6.432 -0.2085  0.0449  0.0603
    1W        W31578  15.558  15.153   0.097 -0.2514 -0.0625  0.0236
    1W        W31579   7.155  23.206   1.985 -0.0351 -0.0679  0.0373
    1W        W31580  21.481   2.781   0.844  0.1823  0.0134 -0.0637
    1W        W31581   3.402  23.081   7.486 -0.4774  0.0983 -0.4227
    1W        W31582  22.738  11.298   9.419 -0.0747  0.0650 -0.0604
    1W        W31583  18.812  26.703   4.226  0.0987  0.0434 -0.0234
    1W        W31584  13.036   3.554   7.507 -0.1922  0.0943  0.0585
    1W        W31585  23.010   9.566   1.401  0.1173 -0.0840 -0.2057
    1W        W31586   0.248  23.286   3.707  0.1551 -0.2625 -0.0017
    1W        W31587  19.066   7.922   7.909 -0.2346 -0.1339 -0.3159
    1W        W31588  25.182  21.348   2.268  0.0135 -0.1853 -0.1611
    1W        W31589  18.007  14.492   0.357 -0.2890  0.0632  0.1164
    1W        W31590  10.826  22.312   1.568  0.0972  0.1486 -0.0597
    1W        W31591  17.702  22.978   0.498 -0.1471 -0.0597  0.0857
    1W        W31592  24.049  17.138   0.323  0.0884 -0.2510 -0.2876
    1W        W31593  28.550   2.841   7.916  0.1682  0.0836  0.2378
    1W        W31594  10.422   3.517   7.363  0.1932  0.0155 -0.3502
    1W        W31595  19.048  25.215   3.507  0.0935  0.0433 -0.1073
    1W        W31596  23.815  12.500   1.738 -0.0695 -0.0361  0.1720
    1W        W31597  12.995  17.999   7.771 -0.1923  0.1068 -0.2872
    1W        W31598  19.462  28.026   8.351  0.0656 -0.1764  0.0473
    1W        W31599  27.671   6.440   0.906  0.0254  0.0605  0.0687
    1W        W31600   9.839   2.974   0.771 -0.1007 -0.1378  0.0513
    1W        W31601  17.462   2.473   3.181  0.2610 -0.1119 -0.1015
    1W        W31602   6.695  18.173   0.455 -0.3423 -0.1247 -0.1711
    1W        W31603   1.531   3.432   1.486  0.0905 -0.0349  0.0711
    1W        W31604  14.830  24.047   9.148 -0.0627 -0.1250  0.1617
    1W        W31605  10.708  21.120   2.831  0.3238  0.1521 -0.0624
    1W        W31606  22.197  19.459   0.506 -0.0159 -0.1482 -0.2785
    1W        W31607  28.066  13.400   8.907  0.0364  0.0794 -0.0312
    1W        W31608   7.564   3.652   0.919 -0.3138  0.1280  0.1753
    1W        W31609  20.264  26.084   3.539  0.0009  0.0698 -0.1692
    1W        W31610  11.827  26.063   7.998 -0.1654  0.0958 -0.0678
    1W        W31611   9.773  17.281   1.205  0.1151 -0.0696 -0.1760
    1W        W31612  16.834   4.612   8.400 -0.0815  0.2211 -0.1435
    1W        W31613   6.120  10.767   0.843 -0.0664  0.0612  0.0584
    1W        W31614  23.204  23.048   0.922 -0.2794  0.0384 -0.0660
    1W        W31615  12.321  20.687   1.912 -0.0710 -0.1793  0.3717
    1W        W31616   6.885  20.953   0.872 -0.2139  0.1047  0.0821
    1W        W31617   1.865  27.293   7.144 -0.1438 -0.0449 -0.2071
    1W        W31618   9.094  11.844   5.984  0.3278  0.1950  0.1014
    1W        W31619  16.621  28.698   2.286  0.2196 -0.2968  0.0696
    1W        W31620  16.926  28.636   1.856  0.0434 -0.0324  0.2174
    1W        W31621   1.977  21.875   9.322 -0.1876 -0.1285 -0.3734
    1W        W31622  12.909   5.172   7.292 -0.0404 -0.0144  0.0342
    1W        W31623  13.689   8.790   7.666  0.1538  0.2031 -0.0660
    1W        W31624   7.898  10.539   1.846 -0.2063 -0.0808 -0.0934
    1W        W31625   8.245   7.160   0.190 -0.0321  0.4675  0.0389
    1W        W31626  11.991  15.684   8.043 -0.2125  0.0065 -0.1424
    1W        W31627  12.799   8.615   2.552 -0.0377 -0.1533  0.3645
    1W        W31628   2.009   4.860   6.437  0.3347 -0.1078 -0.0497
    1W        W31629   5.098  15.904   6.159  0.0621  0.0941 -0.1617
    1W        W31630   2.709   4.111   6.556 -0.0384  0.0992 -0.1939
    1W        W31631  10.498  15.775   9.509 -0.4124  0.4220 -0.0739
    1W        W31632  19.957  21.861   1.548 -0.1929  0.0754 -0.0578
    1W        W31633   2.400   4.284   3.087  0.1028  0.1535 -0.1053
    1W        W31634   6.584  12.537   0.503 -0.1488 -0.1074 -0.1914
    1W        W31635  25.497   5.283   7.880  0.4252  0.1872 -0.2397
    1W        W31636  10.243  24.467   9.249 -0.1466 -0.0924  0.0562
    1W        W31637   4.011  27.156   8.258  0.1747  0.0573 -0.0664
    1W        W31638  19.086   5.136   1.786 -0.2218 -0.0481  0.2036
    1W        W31639  26.103   1.040   0.029  0.1395 -0.3450 -0.1109
    1W        W31640  15.751   0.399   9.040  0.3956  0.0107  0.1581
    1W        W31641  19.485  22.651   1.576  0.0878 -0.0325 -0.0662
    1W        W31642   3.772  25.478   9.508  0.0241  0.0409 -0.2509
    1W        W31643  15.271  24.837   1.700  0.0125  0.1437 -0.2347
    1W        W31644   4.911  26.879   8.677 -0.0576  0.0418 -0.1417
    1W        W31645   5.551   4.326   1.163  0.2297 -0.1609 -0.0884
    1W        W31646  24.591  17.266   0.737 -0.2266 -0.0509  0.1507
    1W        W31647  24.996  16.033   8.385  0.1967  0.2808  0.1812
    1W        W31648  22.569  21.052   8.192  0.3142 -0.1508  0.2717
    1W        W31649   1.227  20.767   8.518  0.2224  0.0265  0.1205
    1W        W31650  14.109   0.534   2.252 -0.1201 -0.2379 -0.2523
    1W        W31651  21.797   8.448   0.734 -0.1857 -0.2349  0.0595
    1W        W31652  18.079   3.239   2.697 -0.2240 -0.0569 -0.2111
    1W        W31653   7.889   2.530   9.271 -0.1996  0.4324  0.0212
    1W        W31654  23.614   1.866   2.558  0.0947  0.1310 -0.0719
    1W        W31655  25.044  18.950   8.219  0.0339  0.2242  0.2976
    1W        W31656  21.724   2.915   9.394  0.0142 -0.1894 -0.1855
    1W        W31657  18.706   9.300   7.222  0.0238  0.0016  0.2572
    1W        W31658  25.880   2.120   2.442 -0.3104 -0.1208 -0.0834
    1W        W31659  28.210  18.459   7.982 -0.1947  0.2218 -0.0271
    1W        W31660  18.937  13.900   7.685  0.0811  0.1138 -0.0238
    1W        W31661  24.583  16.915   8.280 -0.2049  0.1944 -0.0061
    1W        W31662  22.890   6.626   7.569 -0.0690 -0.1360  0.3435
    1W        W31663   4.403  27.914   0.499 -0.1081  0.0493 -0.1519
    1W        W31664  17.900  21.771   6.658 -0.1867 -0.1354  0.1411
    1W        W31665   9.225  27.196   0.810 -0.1806  0.0538 -0.0582
    1W        W31666   6.495   4.162   7.769  0.3081 -0.2607  0.0244
    1W        W31667  28.265  17.654   0.057  0.1078  0.0399  0.0111
    1W        W31668  28.793  20.001   2.726 -0.1041  0.0205 -0.0598
    1W        W31669  27.416  14.738   1.862  0.0750  0.1168  0.1259
    1W        W31670  18.705   6.013   1.309 -0.1130  0.0731 -0.0132
    1W        W31671   9.138  14.823   0.991 -0.0936  0.3679 -0.1447
    1W        W31672   6.773   1.166   2.261  0.1097 -0.2886 -0.1109
    1W        W31673   3.987   1.402   0.172  0.1164 -0.0369  0.1092
    1W        W31674  20.046  21.151   7.765 -0.1586  0.0786  0.0747
    1W        W31675  14.346  27.447   7.016  0.2680 -0.0603  0.0252
    1W        W31676  14.216  25.056   9.199 -0.2070 -0.2545 -0.2334
    1W        W31677  20.475  26.619   2.467  0.0891  0.0273  0.0406
    1W        W31678  23.707  24.426   3.692 -0.1920  0.0306 -0.0632
    1W        W31679  11.623  28.814   8.965 -0.0781 -0.2471  0.1928
    1W        W31680  19.763  23.450   9.266  0.1404 -0.0940 -0.1887
    1W        W31681   3.774   5.163   7.843 -0.0955 -0.4030  0.1108
    1W        W31682  12.244   6.771   6.766 -0.0656  0.0801  0.3683
    1W        W31683   2.989  13.549   2.334 -0.0543  0.0456  0.0233
    1W        W31684  18.394  15.635   2.831  0.1945  0.0649  0.2055
    1W        W31685  15.599  15.043   0.815  0.0252  0.0396  0.0787
    1W        W31686  29.339  22.293   0.413 -0.0063 -0.0385  0.1209
    1W        W31687  12.492  16.920   5.935 -0.1513 -0.1560 -0.0076
    1W        W31688   4.668  11.436   7.061  0.2543  0.2509 -0.0687
    1W        W31689   7.520  28.104   6.798  0.2444 -0.1374  0.1392
    1W        W31690  22.241  10.081   1.958 -0.0503  0.1888 -0.0780
    1W        W31691  22.876  28.108   2.917  0.4353 -0.2256  0.0844
    1W        W31692   8.977  23.731   7.017 -0.0051 -0.1389 -0.2744
    1W        W31693  24.901   9.929   9.403 -0.1597 -0.1083 -0.1402
    1W        W31694   2.146   7.641   5.702  0.0016 -0.1654 -0.1137
    1W        W31695  27.573  26.272   1.034  0.0083 -0.4616 -0.4291
    1W        W31696  28.683  26.464   2.897 -0.0272  0.1993  0.1943
    1W        W31697  14.277  14.817   6.581 -0.1285  0.0147 -0.0420
    1W        W31698  28.873  26.041   8.206 -0.1724  0.1671 -0.1602
    1W        W31699  11.033  25.171   1.631 -0.3178  0.1478 -0.3388
    1W        W31700  24.984  16.915   0.598 -0.2741 -0.0392  0.5808
    1W        W31701   6.651   7.137   9.224  0.0605  0.1434 -0.3231
    1W        W31702  23.456  14.230   1.474  0.0107 -0.0341  0.2141
    1W        W31703  23.174  16.706   0.830  0.0737  0.1115 -0.0755
    1W        W31704  20.253  19.651   2.029 -0.4169  0.1590 -0.2465
    1W        W31705   6.862  20.520   9.634 -0.0660  0.1665  0.0108
    1W        W31706  24.284  20.230   8.107  0.0998 -0.1965 -0.4628
    1W        W31707  15.932  22.313   1.352 -0.2112  0.0452 -0.0196
    1W        W31708  27.761   6.127   6.417  0.0455 -0.0078 -0.0069
    1W        W31709  23.565  14.334   9.140 -0.2144 -0.0685  0.0919
    1W        W31710  27.079  25.814   2.353  0.1417  0.1019  0.1267
    1W        W31711  10.038  14.418   7.962  0.0507 -0.0519  0.1386
    1W        W31712  13.513  15.559   9.378 -0.1133 -0.1881 -0.0659
    1W        W31713  13.138  14.154   6.662 -0.4149 -0.1795 -0.1538
    1W        W31714   7.570  24.696   6.086  0.0143 -0.0515 -0.1219
    1W        W31715   3.723  26.253   9.088 -0.1327  0.2782  0.0167
    1W        W31716  20.153   2.795   2.675 -0.1848  0.2227  0.0420
    1W        W31717   8.630  21.192   1.109 -0.1838  0.1147  0.5043
    1W        W31718   0.845  25.972   7.753  0.0590  0.1395  0.0150
    1W        W31719  27.672  27.219   0.073 -0.1136 -0.1679  0.2148
    1W        W31720  12.904   0.697   8.637  0.2813 -0.1937  0.0111
    1W        W31721  19.860  22.713   0.238 -0.2799  0.0471  0.0382
    1W        W31722   3.000   7.085   8.869 -0.2108  0.3368  0.0569
    1W        W31723   5.558   0.063   2.240 -0.0652 -0.1181 -0.3006
    1W        W31724  10.368  24.367   0.921  0.1284  0.0104 -0.6036
    1W        W31725  23.974  25.385   9.535  0.1124 -0.3298 -0.0899
    1W        W31726  10.974  20.455   1.694  0.1140  0.1100  0.0092
    1W        W31727  15.507   4.496   0.547 -0.3320  0.1151 -0.0202
    1W        W31728   2.930  28.688   3.157  0.0258 -0.2373  0.3328
    1W        W31729  25.072  14.848   7.662  0.1643  0.0332 -0.2022
    1W        W31730  21.163  10.355   2.100  0.0599 -0.1902  0.3672
    1W        W31731  23.668  12.144   9.213  0.1414  0.2199  0.1546
    1W        W31732  26.879  26.146   0.094 -0.3080 -0.2108  0.1783
    1W        W31733   0.980  21.442   0.097 -0.0448  0.0197  0.2856
    1W        W31734   6.198   8.000   8.546 -0.0447 -0.0370 -0.0525
    1W        W31735   9.271  19.092   8.236 -0.0566 -0.0980 -0.1275
    1W        W31736   1.769   6.448   7.434  0.0195  0.0924  0.0786
    1W        W31737  22.519   2.970   2.650  0.2308  0.1045  0.1144
    1W        W31738  16.307  21.999   1.429 -0.2072 -0.0824 -0.0477
    1W        W31739   4.893  19.430   3.323  0.1415 -0.0887  0.0271
    1W        W31740   1.152   2.046   8.654  0.0768 -0.1021  0.4071
    1W        W31741   6.456   5.685   8.428  0.1129 -0.1636  0.0418
    1W        W31742  12.514  27.158   0.562 -0.1022  0.1505  0.1723
    1W        W31743   5.997  25.738   2.709  0.1367 -0.2247 -0.1320
    1W        W31744  10.319   5.601   1.972 -0.2638  0.4120 -0.1473
    1W        W31745   9.831  28.908   7.103 -0.1658 -0.1560  0.1423
    1W        W31746  27.237  10.125   8.925 -0.0185 -0.5969 -0.2139
    1W        W31747   3.930  26.943   1.877  0.2122 -0.1162  0.3978
    1W        W31748   1.611  27.691   6.893  0.3269  0.1180  0.0123
    1W        W31749  20.321  22.998   3.302  0.1738  0.0930 -0.1770
    1W        W31750  24.209   1.064   2.853 -0.1475 -0.1555  0.1274
    1W        W31751  23.441   2.158   0.116  0.2948  0.2626  0.0641
    1W        W31752  10.034   2.144   7.495  0.1030  0.0883 -0.0144
    1W        W31753  27.707   9.049   9.180  0.0165 -0.0213 -0.5208
    1W        W31754  21.710   1.528   1.192 -0.0317  0.0133 -0.1530
    1W        W31755  17.888  29.483   1.225  0.3775 -0.0200 -0.4004
    1W        W31756  19.554  27.714   8.678 -0.1161  0.0303 -0.1668
    1W        W31757  28.725  23.149   1.312  0.0688 -0.3416 -0.1095
    1W        W31758  10.132  19.169   8.293  0.0390  0.0487 -0.3929
    1W        W31759   3.400  16.582   7.249  0.0611 -0.1630  0.0584
    1W        W31760  24.204  16.300   8.842  0.0913  0.2852  0.3405
    1W        W31761  18.152   0.350   7.996  0.2052 -0.1333 -0.2338
    1W        W31762  21.768  27.291   3.230  0.1121  0.0531 -0.3315
    1W        W31763   4.979   1.796   8.646  0.3143  0.1667 -0.0924
    1W        W31764   9.917   5.796   1.152 -0.1741 -0.0851  0.0279
    1W        W31765  15.505  21.842   2.879 -0.0814  0.2056 -0.2271
    1W        W31766  13.543  23.335   6.566 -0.3134  0.1598 -0.1049
    1W        W31767  11.075  21.819   7.001  0.3337  0.0030  0.1038
    1W        W31768  21.891   7.257   8.345 -0.0558 -0.1751 -0.1708
    1W        W31769  19.957   4.616   9.474  0.0611 -0.5154 -0.1896
    1W        W31770  28.949  24.877   8.703  0.1865 -0.5642 -0.0697
    1W        W31771   5.418   7.535   7.772 -0.0122 -0.2457 -0.0244
    1W        W31772  14.095  19.914   8.994 -0.0334 -0.0623  0.0183
    1W        W31773  25.193  28.411   3.745  0.0196  0.3184 -0.1915
    1W        W31774  23.300   8.881   2.587  0.0716  0.1415  0.0425
    1W        W31775  24.469   2.951   0.075 -0.0642  0.0209  0.1138
    1W        W31776  17.681   3.779   6.637 -0.3112 -0.2533 -0.0021
    1W        W31777   9.671   8.585   0.456 -0.0691  0.0564  0.0917
    1W        W31778  19.855  18.282   1.061 -0.1406  0.1173  0.1699
    1W        W31779  21.287  18.191   8.258  0.0055  0.0631  0.0477
    1W        W31780  11.201  24.603   9.342 -0.0108 -0.1044 -0.1076
    1W        W31781   8.325  28.910   0.224  0.0710 -0.0520  0.1133
    1W        W31782  10.740   3.775   7.122  0.0262 -0.0519  0.4261
    1W        W31783  17.517  21.202   3.126 -0.0651  0.1361  0.0757
    1W        W31784   1.505  10.288   0.853 -0.3030 -0.1112 -0.1523
    1W        W31785  16.237  11.505   7.863  0.3683 -0.1534 -0.5265
    1W        W31786  16.751   6.862   0.557  0.1292 -0.1168 -0.3570
    1W        W31787   7.199  12.674   6.457 -0.1529 -0.0283 -0.0332
    1W        W31788  14.636  22.327   7.742  0.1654 -0.2716 -0.0730
    1W        W31789   5.534  23.374   2.794 -0.2011  0.0677 -0.3360
    1W        W31790  16.893  20.740   1.340 -0.3372 -0.0713 -0.1413
    1W        W31791   7.755  20.973   9.479 -0.0678 -0.0509 -0.1607
    1W        W31792  17.279   4.972   0.304 -0.1893 -0.2576  0.1459
    1W        W31793  10.286  23.676   6.857 -0.3432 -0.1439  0.3352
    1W        W31794   0.642  18.636   8.309  0.1500  0.0867  0.4211
    1W        W31795  22.428  15.269   3.338  0.0955  0.2864 -0.0058
    1W        W31796   2.398  15.288   9.375 -0.2757  0.1573 -0.0315
    1W        W31797  12.659  13.565   1.233 -0.0850 -0.0915  0.1454
    1W        W31798   3.315  11.030   1.961 -0.2786  0.1043 -0.3107
    1W        W31799  11.244  12.261   6.923  0.0548 -0.1996  0.1734
    1W        W31800  20.602   6.833   8.678 -0.0118 -0.0281 -0.0410
    1W        W31801  28.406  24.496   2.554  0.3457 -0.0357 -0.1864
    1W        W31802   1.582   0.383   1.229 -0.0489  0.0330 -0.3410
    1W        W31803  25.271   3.755   0.493  0.1691  0.1561 -0.2914
    1W        W31804   7.420  12.030   8.312 -0.1371  0.1366  0.2572
    1W        W31805   5.896  16.287   0.152 -0.1912  0.0015  0.0665
    1W        W31806   4.090  28.398   1.146 -0.0936  0.0883  0.3666
    1W        W31807  23.907  18.636   8.714  0.0806  0.0122  0.2353
    1W        W31808  17.966   3.678   2.081  0.0712  0.0601  0.1313
    1W        W31809  12.420   4.900   2.598  0.0128 -0.1110  0.0692
    1W        W31810  20.837  18.052   7.295  0.2687  0.1656  0.0337
    1W        W31811  23.867  19.916   2.514  0.1486  0.0841 -0.1640
    1W        W31812  10.084  14.108   7.147 -0.0426  0.0669 -0.2784
    1W        W31813   9.101  10.532   1.118  0.1362  0.0068  0.1524
    1W        W31814  29.181  29.183   9.416  0.0787  0.2368  0.2184
    1W        W31815   6.921  12.291   6.111 -0.0902  0.0231 -0.2725
    1W        W31816  19.955  17.343   7.985 -0.1917  0.0356 -0.2667
    1W        W31817  16.037   4.062   8.439 -0.2138  0.1306  0.0986
    1W        W31818  12.336  28.059   6.939 -0.1101  0.3216 -0.0429
    1W        W31819  19.494  14.216   8.111  0.1043 -0.1767 -0.1390
    1W        W31820  29.154  18.320   2.520 -0.1494  0.1195  0.0126
    1W        W31821  10.062  10.375   6.240  0.0596 -0.0049  0.0403
    1W        W31822   3.504   9.739   5.373 -0.1453 -0.2476  0.5802
    1W        W31823   8.267  27.114   0.498  0.1546 -0.2399  0.2071
    1W        W31824  15.563  21.290   0.251  0.3457 -0.2573  0.3384
    1W        W31825  27.628  12.977   0.785 -0.2559  0.0567  0.5442
    1W        W31826  10.053   1.176   6.664 -0.1286  0.0131  0.0096
    1W        W31827   3.735  15.075   8.865  0.0357 -0.1175 -0.0029
    1W        W31828  22.731  16.886   8.761 -0.4220 -0.2560 -0.0850
    1W        W31829   4.998  10.705   1.632 -0.2071 -0.1089  0.0086
    1W        W31830   4.932   2.707   0.413  0.0042  0.0201 -0.2707
    1W        W31831  22.552  29.149   6.948 -0.0406  0.0182 -0.0660
    1W        W31832  11.666   6.574   6.720 -0.1766 -0.1900 -0.0056
    1W        W31833   2.320  22.504   9.620  0.1236  0.0564  0.2190
    1W        W31834  14.230  18.169   7.963 -0.0691  0.0407  0.4544
    1W        W31835  26.887  18.638   8.565  0.1740 -0.1714 -0.0563
    1W        W31836  11.577  27.584   0.093 -0.2128 -0.0239  0.3639
    1W        W31837  19.513  18.734   1.403 -0.0217 -0.0265  0.5435
    1W        W31838  14.736   6.324   2.973  0.0991 -0.2472 -0.2526
    1W        W31839  12.612  26.605   8.986 -0.0264  0.3208 -0.2005
    1W        W31840  14.637  21.306   6.086  0.0088 -0.3366  0.2323
    1W        W31841  27.768   0.180   2.266  0.2024  0.1180 -0.1616
    1W        W31842   9.179  19.242   7.683 -0.1803  0.0236  0.2205
    1W        W31843  10.477   1.966   7.250 -0.0428 -0.2089  0.2297
    1W        W31844   9.341   5.806   1.084  0.3425 -0.2767  0.2850
    1W        W31845  15.265  17.980   0.300  0.1025  0.0844  0.1210
    1W        W31846  23.015   3.163   1.468  0.0857 -0.0903 -0.0279
    1W        W31847  25.248  26.377   8.315  0.1131  0.1409 -0.2426
    1W        W31848  13.901   9.927   0.284  0.1173 -0.2572  0.1249
    1W        W31849   4.922  26.783   2.692  0.2693 -0.0707  0.1003
    1W        W31850   8.725  26.662   9.437  0.2080  0.0277 -0.0662
    1W        W31851  14.702   8.384   8.840 -0.1608 -0.1475  0.1613
    1W        W31852   0.667   9.124   7.858  0.1476  0.0455  0.2539
    1W        W31853  22.242  15.660   1.279 -0.0949  0.1115 -0.1495
    1W        W31854  12.277   0.354   9.212  0.0010  0.1575  0.0728
    1W        W31855  15.759  10.077   8.859  0.0217  0.1112 -0.0794
    1W        W31856  20.081  26.341   1.772 -0.0010 -0.2128 -0.0375
    1W        W31857  18.660  13.818   2.496 -0.0861 -0.1288 -0.1211
    1W        W31858  13.928   0.018   2.365 -0.1973  0.2038  0.2661
    1W        W31859  29.215  16.622   8.605 -0.0503  0.2968  0.1131
    1W        W31860  15.472   6.970   0.721  0.0192 -0.0119  0.0972
    1W        W31861  22.978  10.541   7.714 -0.0880  0.2947 -0.1962
    1W        W31862  25.121  11.402   8.979 -0.1564 -0.3410 -0.1022
    1W        W31863  13.592   5.165   0.578  0.0758  0.2500  0.1967
    1W        W31864   5.411   5.971   2.842  0.1614 -0.1100  0.0493
    1W        W31865  26.642  15.954   1.831  0.2680  0.3565  0.0501
    1W        W31866  13.456   5.630   1.355  0.1853 -0.1864  0.1739
    1W        W31867  14.944  14.521   1.652  0.0230 -0.0834 -0.0599
    1W        W31868   5.736   5.726   8.254  0.0503  0.0227 -0.1250
    1W        W31869   6.381  20.015   9.557  0.0815  0.3521 -0.0457
    1W        W31870   7.348  10.229   6.865  0.0570  0.0477  0.2522
    1W        W31871  18.967  27.117   3.443 -0.4352  0.2395 -0.7075
    1W        W31872  19.547   9.772   8.539 -0.1306 -0.1267  0.1304
    1W        W31873  21.216   9.396   2.385  0.0954  0.1507 -0.1681
    1W        W31874   5.595  15.252   9.551  0.2867 -0.1446 -0.1350
    1W        W31875   4.415  14.607   7.366 -0.2025 -0.0194 -0.5696
    1W        W31876  18.961  19.884   8.337 -0.2815 -0.0020  0.1830
    1W        W31877  28.244   3.358   7.605  0.0258 -0.4520 -0.1231
    1W        W31878  22.755  24.799   8.156 -0.1487 -0.1808  0.0026
    1W        W31879  16.203  14.122   9.605  0.0682 -0.2956 -0.0088
    1W        W31880   5.317  24.806   2.131 -0.1188  0.1406 -0.1139
    1W        W31881   8.877  10.702   7.459  0.0724  0.0052  0.1343
    1W        W31882  14.083   8.190   7.253 -0.1614 -0.1774 -0.2561
    1W        W31883  18.812   3.592   0.589  0.1779  0.1381  0.1163
    1W        W31884  26.699   7.168   8.666  0.2130  0.3155 -0.2129
    1W        W31885   4.677  23.051   6.997 -0.1739  0.1928 -0.2845
    1W        W31886  26.446   0.108   1.137  0.3195  0.2349 -0.1431
    1W        W31887   6.211  25.060   0.573  0.2063 -0.0773  0.1621
    1W        W31888  10.536  13.265   6.109 -0.2491 -0.1178 -0.3649
    1W        W31889   2.637  16.054   0.629 -0.0308 -0.1597 -0.3471
    1W        W31890  17.685  19.592   1.880 -0.1675  0.0076 -0.0364
    1W        W31891  23.315  11.903   8.945  0.1259  0.0194  0.1025
    1W        W31892  21.555  22.928   1.811  0.0903 -0.0763  0.1902
    1W        W31893  23.745  11.734   1.284  0.2870 -0.1724 -0.0877
    1W        W31894   2.181   1.006   0.667 -0.3176  0.2489  0.1938
    1W        W31895   3.679  19.768   2.560 -0.2260  0.2506 -0.1338
    1W        W31896  14.375  23.761   9.026  0.1107  0.1150  0.2417
    1W        W31897  28.480   5.341   0.728 -0.0921  0.3420 -0.1310
    1W        W31898  20.180   8.907   0.199 -0.0180 -0.2912 -0.2524
    1W        W31899  14.731  13.766   8.874 -0.0996 -0.0220  0.1685
    1W        W31900   3.659   5.248   5.774  0.1713 -0.1585  0.1359
    1W        W31901  22.332  10.923   9.376 -0.1407  0.2020 -0.1618
    1W        W31902  26.507  16.402   8.861  0.2297 -0.2961  0.1809
    1W        W31903  11.234   8.334   6.557  0.0365 -0.1583 -0.1198
    1W        W31904   6.420  14.747   1.274  0.4197  0.0440 -0.0970
    1W        W31905   8.498  21.698   8.547 -0.3193 -0.1300  0.1518
    1W        W31906  27.973  24.235   9.097 -0.0754 -0.0893  0.0592
    1W        W31907  16.342  10.747   0.938  0.1289 -0.2522 -0.2882
    1W        W31908  19.786  14.991   1.712 -0.0128 -0.0518  0.2703
    1W        W31909   6.531  23.525   1.685 -0.3187 -0.3592  0.0193
    1W        W31910  23.847  20.217   0.957  0.1578 -0.0457 -0.1226
    1W        W31911  28.070   7.019   0.309 -0.0833  0.0842  0.2651
    1W        W31912   5.664   7.703   5.568 -0.0167  0.0771  0.0034
    1W        W31913  12.476   4.057   6.794  0.3694  0.1711 -0.2409
    1W        W31914   3.105  29.028   6.861 -0.0249 -0.3001  0.4399
    1W        W31915   1.225  29.402   9.285 -0.5220 -0.2044 -0.0857
    1W        W31916   8.435  16.027   2.456  0.2121  0.1847  0.0456
    1W        W31917  22.170  17.968   9.309 -0.1889  0.0430  0.0339
    1W        W31918  28.666   7.543   5.877  0.0725 -0.3218  0.1071
    1W        W31919  10.629  12.152   8.791 -0.0174 -0.4858  0.0639
    1W        W31920   6.952  16.785   2.572 -0.1801  0.0701 -0.3607
    1W        W31921  17.616  27.537   8.904 -0.3113  0.3748  0.0311
    1W        W31922  19.439  24.324   2.380  0.3736 -0.0641  0.0160
    1W        W31923   9.859  12.372   9.603  0.0725  0.0610  0.1176
    1W        W31924   4.992   7.011   7.977  0.1513  0.0924  0.0643
    1W        W31925  11.198   5.998   6.455 -0.0706  0.2242 -0.1807
    1W        W31926   8.514   7.095   8.656 -0.0585 -0.0318  0.0021
    1W        W31927  21.229  20.342   2.148 -0.2114  0.1213 -0.0069
    1W        W31928   6.472  10.378   9.592  0.0716 -0.0469  0.1396
    1W        W31929  18.644   7.653   1.993  0.1162 -0.2642 -0.2261
    1W        W31930  14.370  11.127   2.097 -0.1305  0.1149 -0.0866
    1W        W31931  14.391  23.231   0.510 -0.0666 -0.0488 -0.2203
    1W        W31932  15.312   0.837   0.020  0.0956  0.0900  0.2163
    1W        W31933  20.126   7.020   8.877  0.0581  0.1051 -0.0838
    1W        W31934   0.601  28.460   1.558  0.0237 -0.0649  0.3580
    1W        W31935   1.149  20.629   3.912  0.1579 -0.1109 -0.2054
    1W        W31936   0.369   1.661   2.388  0.0380  0.1641 -0.1091
    1W        W31937   1.397  20.656   3.407 -0.0828 -0.3290 -0.2973
    1W        W31938  28.975   1.489   7.498  0.1034  0.2042  0.3848
    1W        W31939  20.171  14.715   0.096 -0.0445 -0.2055 -0.0236
    1W        W31940   1.870  19.235   3.116  0.1765 -0.1366  0.0704
    1W        W31941  21.461  13.722   0.556  0.0409  0.0022 -0.3437
    1W        W31942  27.397  12.520   0.242  0.1382  0.1441  0.1238
    1W        W31943  12.435   0.484   7.827  0.0977 -0.1502 -0.0093
    1W        W31944  15.940   3.934   0.194 -0.0195  0.0023 -0.3972
    1W        W31945   2.106  26.162   2.697 -0.0840  0.0894  0.2227
    1W        W31946   0.095   1.717   8.186 -0.0958 -0.0481  0.0060
    1W        W31947  22.455   1.843   0.222 -0.1034 -0.2795 -0.3829
    1W        W31948  19.281  21.912   7.990 -0.0207 -0.0841  0.1550
    1W        W31949  14.855  15.929   7.240 -0.1295 -0.2306  0.2323
    1W        W31950  11.286  23.203   9.091 -0.4590 -0.3124 -0.0126
    1W        W31951  10.349   2.111   8.354 -0.0121 -0.0473  0.1926
    1W        W31952  28.009  20.334   2.837 -0.1388 -0.0807 -0.0656
    1W        W31953  27.947   2.171   7.949 -0.0119  0.0861 -0.0948
    1W        W31954  11.863  24.294   6.613 -0.0396 -0.3022  0.1744
    1W        W31955  27.420  23.623   8.500 -0.0872  0.2103 -0.0656
    1W        W31956  26.135  24.246   0.039  0.1589  0.0495  0.3405
    1W        W31957   0.912  23.062   0.183 -0.1823  0.0502 -0.1382
    1W        W31958  19.686  28.195   0.086  0.1175 -0.0892  0.0042
    1W        W31959   0.954  16.935   1.567 -0.0976  0.0563  0.4223
    1W        W31960   2.610   8.926   6.265  0.2053 -0.0441 -0.0904
    1W        W31961   0.836  29.164   9.077 -0.0471  0.4102 -0.1862
    1W        W31962  20.672  11.065   0.431  0.0108 -0.1264 -0.1770
    1W        W31963  10.998  11.630   1.357  0.1597  0.2874  0.1299
    1W        W31964   3.637  27.398   0.673  0.1958 -0.2380 -0.1193
    1W        W31965   1.002   5.827   1.191  0.0457  0.1203 -0.1201
    1W        W31966   6.845  24.009   1.640  0.1948  0.0988 -0.1456
    1W        W31967   0.248  15.347   0.750  0.3712 -0.2896 -0.0609
    1W        W31968  29.079  19.555   8.517 -0.3201 -0.0582  0.3118
    1W        W31969   1.215  16.092   9.592  0.0599  0.0600  0.0305
    1W        W31970  17.398  23.996   9.543  0.1313  0.0287 -0.0712
    1W        W31971   6.767   5.886   8.128  0.1382 -0.2658  0.0292
    1W        W31972  25.113  27.601   2.614 -0.1630  0.1459 -0.0010
    1W        W31973  21.693  10.662   7.789 -0.3632  0.0632 -0.0383
    1W        W31974  14.783  16.909   7.923 -0.0727 -0.2009  0.4597
    1W        W31975   0.910  27.648   0.962 -0.1990  0.0137  0.0125
    1W        W31976  19.387  15.071   1.962  0.0853 -0.1259  0.0282
    1W        W31977  12.548   9.269   8.466  0.2925 -0.2896 -0.1817
    1W        W31978  14.398   5.044   0.132  0.0241 -0.3110 -0.1738
    1W        W31979  15.898  27.317   1.590 -0.6190  0.0016 -0.1154
    1W        W31980  29.244  25.941   6.400 -0.1914  0.0264 -0.2660
    1W        W31981  27.150   9.599   8.274 -0.0311  0.0157  0.0316
    1W        W31982   8.284  26.619   8.897  0.2338 -0.0740 -0.0282
    1W        W31983  12.262   5.503   0.771  0.1913 -0.2230  0.0728
    1W        W31984   2.172  24.629   2.682  0.0400  0.3758  0.2290
    1W        W31985   3.018  21.798   1.336 -0.0960 -0.2349  0.1393
    1W        W31986  15.824   9.719   0.804  0.1719  0.0442  0.1068
    1W        W31987  21.909   9.686   9.447 -0.2287  0.1454 -0.0155
    1W        W31988  18.991  11.294   9.038 -0.0536  0.0481  0.0021
    1W        W31989  13.564  20.979   6.692 -0.0150  0.0783  0.0907
    1W        W31990  22.725  18.758   9.186  0.0411  0.0294 -0.1530
    1W        W31991  22.934   6.751   9.617 -0.1026 -0.2109 -0.0442
    1W        W31992  11.611   4.734   2.171 -0.3368 -0.0904  0.1818
    1W        W31993   6.403   1.813   8.082 -0.0161  0.2330 -0.0614
    1W        W31994  22.488   1.169   7.996  0.1421 -0.0422 -0.1334
    1W        W31995   8.998  24.646   6.980  0.0267 -0.0346  0.0630
    1W        W31996  25.219   2.742   7.366 -0.0324  0.2490 -0.0518
    1W        W31997  25.516   5.018   1.047 -0.1382  0.0030 -0.3454
    1W        W31998   9.362  19.573   7.991 -0.3101 -0.3423 -0.0978
    1W        W31999  17.551   2.229   7.197  0.2691 -0.4889 -0.4236
    1W        W32000  11.321  22.682   7.923 -0.2041  0.1259 -0.0903
    1W        W32001  12.235  10.980   0.405 -0.0914 -0.0271  0.0946
    1W        W32002   9.429   2.174   6.786 -0.3281  0.2950 -0.2768
    1W        W32003  25.544   5.939   7.746 -0.0833 -0.0625  0.1745
    1W        W32004  13.061  20.773   7.701 -0.0759  0.0898 -0.0440
    1W        W32005   9.468  13.558   9.591 -0.0853 -0.1321 -0.3055
    1W        W32006   2.480   5.541   6.364  0.1066 -0.1049  0.1405
    1W        W32007  18.726  21.902   9.347  0.0342  0.2525  0.0291
    1W        W32008  21.707  13.836   9.467  0.4027  0.2271 -0.0778
    1W        W32009   0.791   6.839   6.875 -0.3074  0.1387 -0.0619
    1W        W32010  25.736   6.227   0.117 -0.2370  0.1436  0.0633
    1W        W32011   1.387   6.900   1.733  0.0782 -0.1964 -0.1928
    1W        W32012  22.572  20.734   0.664  0.0282  0.4513 -0.1266
    1W        W32013  16.154  18.601   6.976  0.1113 -0.1820 -0.1569
    1W        W32014  21.834  24.889   1.751 -0.0329  0.0436 -0.2054
    1W        W32015  24.686   0.616   0.525  0.1007  0.0973 -0.1309
    1W        W32016  13.714   5.513   0.874  0.0443  0.3684 -0.0189
    1W        W32017   4.629  16.597   8.464 -0.0518  0.1090  0.0570
    1W        W32018   6.207  21.347   7.441 -0.2698 -0.0757  0.0694
    1W        W32019  28.920  16.845   7.715  0.1606  0.0569  0.2319
    1W        W32020   7.708  18.998   0.809 -0.0551  0.1299  0.0247
    1W        W32021   6.189  18.002   8.376  0.0848 -0.0529 -0.1028
    1W        W32022   0.683   9.719   9.294 -0.0240  0.0335 -0.1679
    1W        W32023   9.569  28.207   8.087 -0.2157 -0.2703  0.2875
    1W        W32024   8.846  22.505   0.384  0.1803  0.0574 -0.0557
    1W        W32025  26.672   7.423   7.600 -0.3033 -0.2122  0.1313
    1W        W32026  15.454  16.441   1.956 -0.2192 -0.0042 -0.2646
    1W        W32027  27.996   4.117   0.839 -0.1421  0.0009  0.2441
    1W        W32028  26.290  18.546   3.202 -0.0012  0.1490  0.2415
    1W        W32029  11.546  22.710   8.922 -0.1124  0.0407  0.1778
    1W        W32030  13.439  28.399   6.655  0.1597  0.2610  0.1504
    1W        W32031  17.339  17.535   1.547  0.2772 -0.2561  0.0501
    1W        W32032   5.837  15.581   0.204 -0.1884  0.1081 -0.2915
    1W        W32033  23.688  18.675   8.216  0.2873  0.0564 -0.0845
    1W        W32034  26.119  18.907   1.485 -0.1455  0.1488  0.0655
    1W        W32035  24.709  22.283   0.892 -0.1338  0.0547  0.0782
    1W        W32036  23.818   9.229   7.049  0.0874 -0.1646 -0.0481
    1W        W32037  17.398   3.791   7.711 -0.1423  0.0140  0.1521
    1W        W32038   1.696   9.635   0.100  0.2385  0.2514 -0.0719
    1W        W32039   9.621   0.442   8.203 -0.1050 -0.1044  0.1069
    1W        W32040   8.450   4.423   9.266 -0.1210  0.0482  0.3243
    1W        W32041  11.233  10.741   3.404  0.0640  0.1197 -0.4004
    1W        W32042  18.379  20.762   8.476  0.1005 -0.2322  0.0081
    1W        W32043   2.053  19.181   7.933 -0.0364  0.2038 -0.2009
    1W        W32044  20.508  15.440   0.149  0.1502  0.1586 -0.1439
    1W        W32045  21.934  26.413   3.320 -0.0326  0.1105 -0.1974
    1W        W32046  20.946   7.535   9.146  0.0729 -0.2663  0.2618
    1W        W32047  26.033  13.808   2.193  0.0677  0.0529  0.3209
    1W        W32048  20.308   6.718   0.102 -0.0760  0.0918 -0.0041
    1W        W32049  21.973  28.007   8.469 -0.2471 -0.4112 -0.1667
    1W        W32050  19.554  27.671   1.745  0.1145 -0.0698  0.1433
    1W        W32051  17.635   8.151   9.086 -0.4544 -0.0502 -0.0135
    1W        W32052  26.209   0.441   6.716 -0.2313 -0.1472 -0.0102
    1W        W32053  11.508   6.805   7.315  0.0240 -0.3560  0.0604
    1W        W32054   7.471  28.173   7.842  0.2086 -0.0515 -0.2844
    1W        W32055  23.564  19.863   0.678 -0.2825  0.1276  0.1548
    1W        W32056   5.442   2.736   0.724  0.3141  0.2506 -0.0106
    1W        W32057  10.520   4.686   1.877  0.2527 -0.3783  0.2667
    1W        W32058  13.434   3.910   9.160  0.0782 -0.1456  0.1634
    1W        W32059   6.483  29.248   1.527 -0.1506  0.0263 -0.0212
    1W        W32060  23.950   9.335   2.011 -0.0616 -0.4113 -0.3121
    1W        W32061  13.834   1.175   7.889  0.2423 -0.0436 -0.0383
    1W        W32062  21.583  25.595   0.141  0.0723  0.1651  0.0211
    1W        W32063   4.213  20.142   8.813 -0.2921 -0.0191  0.1197
    1W        W32064   0.607  26.989   1.705  0.1330  0.0721 -0.0316
    1W        W32065  10.520  20.528   1.403  0.1139 -0.1050  0.0200
    1W        W32066  28.002  21.108   0.390  0.1383  0.3782 -0.3836
    1W        W32067  16.504   0.420   0.107 -0.0928  0.1793  0.2794
    1W        W32068  13.768  22.555   1.585  0.1433 -0.3894 -0.3842
    1W        W32069   0.856  27.803   0.398  0.1336  0.1545  0.0111
    1W        W32070  22.366   2.084   2.057 -0.1080 -0.1300 -0.0016
    1W        W32071  14.111   8.933   6.563  0.3479 -0.1367 -0.0378
    1W        W32072   3.242  17.960   9.645  0.1091  0.1003 -0.0711
    1W        W32073  10.158  13.752   1.694  0.0401 -0.1222  0.0131
    1W        W32074   4.238  13.089   1.025 -0.2749  0.0044  0.2601
    1W        W32075  22.534   7.505   1.712 -0.0599  0.1443  0.2813
    1W        W32076  15.893  16.844   0.229 -0.1689 -0.0699 -0.4241
    1W        W32077  18.184  28.182   8.269 -0.3373  0.1599  0.0502
    1W        W32078   9.553  27.730   0.114 -0.1716  0.1718  0.0237
    1W        W32079  20.757   2.545   9.362  0.3545  0.0043  0.1865
    1W        W32080   9.053  21.593   8.550 -0.4528  0.1001  0.3122
    1W        W32081  11.072   9.826   6.284 -0.1561  0.0351 -0.0507
    1W        W32082  25.885   7.084   2.406 -0.2757 -0.2864  0.0147
    1W        W32083  13.917   9.033   8.053  0.2363 -0.2555 -0.0985
    1W        W32084   3.683   4.691   9.147 -0.1532 -0.1483  0.3300
    1W        W32085   7.035  12.329   2.088 -0.1379  0.2304  0.0980
    1W        W32086  14.398  28.126   7.987  0.1289 -0.0062 -0.0715
    1W        W32087   2.772   9.335   8.956  0.3074  0.3212 -0.2143
    1W        W32088  21.178  10.502   8.715  0.1067 -0.0538 -0.2252
    1W        W32089   7.981   2.754   1.331  0.0328 -0.3227 -0.1653
    1W        W32090   6.931   9.072   1.414 -0.1594 -0.1417 -0.0239
    1W        W32091   1.153  20.901   2.512  0.0197  0.2839 -0.3029
    1W        W32092   2.638  27.669   6.960  0.2692  0.4175 -0.0465
    1W        W32093  13.186  14.967   3.379 -0.0676 -0.1140 -0.0200
    1W        W32094   7.965  18.600   9.588  0.0636  0.1890 -0.5940
    1W        W32095  14.884  13.908   0.957  0.0957  0.3597 -0.1677
    1W        W32096  25.562   9.196   9.346  0.0345  0.1630  0.2224
    1W        W32097  20.105  20.590   0.184  0.0259  0.0630 -0.2604
    1W        W32098   4.576   6.875   7.239  0.3237  0.1268 -0.0240
    1W        W32099  23.913  15.740   8.233 -0.3055 -0.0536 -0.3210
    1W        W32100  19.507  17.814   9.103  0.2237  0.0785  0.1718
    1W        W32101  14.263  17.910   1.628 -0.2492 -0.1776  0.0919
    1W        W32102  15.005  13.062   0.513 -0.1357 -0.2975 -0.3662
    1W        W32103  28.611  12.146   7.843 -0.1106 -0.1601  0.2314
    1W        W32104  10.002  19.541   6.132 -0.1321 -0.1335  0.1061
    1W        W32105   6.658   2.184   2.005  0.0117  0.1238  0.4740
    1W        W32106  22.347   6.438   8.071 -0.1519  0.1122  0.2640
    1W        W32107  15.630  19.490   1.713  0.1684 -0.0824  0.0183
    1W        W32108  19.648  15.410   2.721 -0.0007  0.0201 -0.1052
    1W        W32109  18.404  24.109   8.953  0.2282 -0.1929 -0.1298
    1W        W32110  28.472  19.539   2.466 -0.0988  0.1354 -0.0567
    1W        W32111  23.647   4.505   2.903 -0.0669 -0.0602  0.0314
    1W        W32112  13.584  16.652   8.666 -0.2052  0.0048  0.0626
    1W        W32113  10.128  15.288   9.608 -0.3430 -0.0151 -0.0731
    1W        W32114  24.009  16.359   2.242  0.1861  0.1205  0.0105
    1W        W32115  24.053  28.933   8.056 -0.0050 -0.1227 -0.0702
    1W        W32116  17.604   6.382   1.133 -0.1592  0.1597 -0.0731
    1W        W32117  11.820  21.659   5.531  0.1406 -0.2242 -0.1846
    1W        W32118  14.358  27.995   0.428  0.0450  0.0560 -0.0491
    1W        W32119  13.861  11.583   1.672  0.0530  0.1609 -0.0271
    1W        W32120  19.727  10.442   0.154  0.3025 -0.3262  0.1058
    1W        W32121  24.203  15.067   1.922 -0.0800  0.1510  0.0556
    1W        W32122  18.169  19.545   0.083  0.0764 -0.0711  0.0359
    1W        W32123   2.238   8.770   7.702 -0.2941 -0.0059 -0.0949
    1W        W32124  11.110   3.988   9.207  0.1300  0.0627 -0.1467
    1W        W32125   4.110  18.221   7.780  0.1353 -0.0148 -0.0082
    1W        W32126   2.170  19.652   2.363  0.1995  0.0547  0.2736
    1W        W32127  24.934  29.079   2.009  0.1049 -0.3669 -0.1303
    1W        W32128  28.012  17.060   7.958  0.0959 -0.3025 -0.2043
    1W        W32129   8.518  15.721   2.007  0.1463  0.0529  0.0164
    1W        W32130  22.697   0.870   8.401 -0.0430 -0.4071  0.3863
    1W        W32131  12.310  15.888   5.774 -0.1345  0.0925  0.2758
    1W        W32132  11.860  11.266   2.785 -0.0344  0.0876 -0.1346
    1W        W32133  20.764  21.283   2.546  0.0600 -0.2605  0.2655
    1W        W32134   1.328   2.104   6.704 -0.2433 -0.1008  0.3284
    1W        W32135   0.926  25.799   8.310  0.4344  0.3463 -0.1085
    1W        W32136  12.905   1.206   1.771 -0.2428 -0.1601 -0.1481
    1W        W32137   0.606  16.747   7.650 -0.2002 -0.0509  0.1549
    1W        W32138  12.850  25.644   9.432  0.0525 -0.3437 -0.0828
    1W        W32139  15.759  12.413   7.554 -0.0453 -0.0828  0.1783
    1W        W32140  22.239   1.582   9.006 -0.2185 -0.0335 -0.1652
    1W        W32141   6.805  28.177   0.579  0.2495 -0.3165 -0.1057
    1W        W32142   8.919   7.121   0.967 -0.0357  0.0559 -0.1652
    1W        W32143   1.306   4.477   8.948  0.1544  0.2129 -0.0928
    1W        W32144   6.794   0.716   6.003  0.0873  0.1632 -0.0582
    1W        W32145  20.000  29.432   7.826 -0.1660  0.0578  0.2130
    1W        W32146   0.456  15.383   1.242  0.1482  0.2212 -0.1902
    1W        W32147   4.026  24.574   6.657 -0.0125 -0.1920 -0.3110
    1W        W32148  23.790  26.517   2.614 -0.0049 -0.2898 -0.4389
    1W        W32149  25.044  10.377   7.305  0.2007  0.2742  0.0492
    1W        W32150  25.902  15.182   8.903 -0.1196 -0.2715  0.0491
    1W        W32151   9.190  22.738   7.619  0.0136  0.0069  0.0898
    1W        W32152  21.662   4.874   0.270 -0.2582  0.1995 -0.0006
    1W        W32153  21.547  12.941   7.976 -0.2336  0.0213 -0.1314
    1W        W32154   9.601  16.578   0.119 -0.0180  0.3371 -0.1167
    1W        W32155  29.561   7.282   6.346  0.0090 -0.0506 -0.1043
    1W        W32156  15.915  25.039   8.390  0.0953 -0.1708 -0.0588
    1W        W32157  21.369  16.090   2.259 -0.1520 -0.2425  0.2403
    1W        W32158   2.170  25.072   9.237  0.2059 -0.0370  0.3341
    1W        W32159   0.663   0.768   2.716 -0.1993  0.0873 -0.0384
    1W        W32160  12.452  24.274   0.533  0.2873  0.1533 -0.2624
    1W        W32161  24.468  21.736   1.666  0.0684 -0.2364 -0.0274
    1W        W32162  21.230   0.032   8.552 -0.1362 -0.0802  0.0774
    1W        W32163  26.331   4.145   7.913  0.0797  0.1429  0.0930
    1W        W32164   0.014  14.346   8.752 -0.1788  0.0295 -0.0189
    1W        W32165   5.360   3.980   1.535  0.1067  0.4588  0.1504
    1W        W32166  29.533  18.241   9.291 -0.2372 -0.1290  0.0829
    1W        W32167  17.731  20.409   1.120  0.2263 -0.1233 -0.0048
    1W        W32168   0.118   8.729   0.872  0.0764 -0.1002 -0.2523
    1W        W32169  26.127  14.001   8.487  0.1414  0.1797  0.0450
    1W        W32170  23.825  26.042   8.292 -0.1536  0.2108  0.1675
    1W        W32171   0.634  19.720   1.221  0.0932 -0.0137 -0.0765
    1W        W32172  24.865   0.687   7.610  0.0011  0.0409 -0.1817
    1W        W32173  10.429  11.898   9.157 -0.0054  0.0300  0.0386
    1W        W32174   0.095  29.302   1.320  0.1398  0.0062 -0.1612
    1W        W32175  27.031   6.165   0.508  0.0564 -0.1561 -0.0589
    1W        W32176  11.386  23.530   1.295 -0.2126 -0.2758 -0.0219
    1W        W32177   9.190   6.867   1.300 -0.0742 -0.0401  0.3504
    1W        W32178   1.751  28.017   1.523  0.0329 -0.1769 -0.0747
    1W        W32179  10.367   6.902   6.644 -0.2643 -0.1276  0.2270
    1W        W32180  23.982  27.088   8.896 -0.0639  0.1304 -0.0142
    1W        W32181  22.256   3.926   7.115  0.2407  0.0535 -0.3909
    1W        W32182  10.336   1.661   9.207 -0.0492  0.4396  0.1579
    1W        W32183   3.112   9.300   9.318  0.0356 -0.0348  0.0027
    1W        W32184  25.273   8.678   8.667 -0.1911  0.0102  0.2947
    1W        W32185  26.681  10.754   8.694  0.1516 -0.0240 -0.2256
    1W        W32186  21.152  14.272   0.531  0.3050  0.0644 -0.0579
    1W        W32187  24.771   0.946   3.054  0.1757  0.0592 -0.0887
    1W        W32188   8.618  13.156   7.614  0.1676 -0.1555 -0.0365
    1W        W32189  18.586  10.290   1.664  0.2340  0.1896 -0.2113
    1W        W32190  11.602  23.136   7.752 -0.1547  0.1486 -0.0221
    1W        W32191  29.526  27.980   0.100  0.1407 -0.0127 -0.1024
    1W        W32192   6.950  16.091   2.010  0.2859  0.0425 -0.1082
    1W        W32193   7.751  22.987   2.125  0.1244  0.0572  0.2483
    1W        W32194   9.310  27.576   9.317  0.0905  0.2590  0.0487
    1W        W32195  13.658   9.119   2.432 -0.1593 -0.1728 -0.1128
    1W        W32196   0.650   1.208   2.378  0.0337  0.0495 -0.1978
    1W        W32197  18.701   2.645   0.834 -0.1980 -0.1352 -0.2016
    1W        W32198  10.555  18.021   8.619 -0.1095  0.1961  0.0036
    1W        W32199  17.532  22.710   2.756  0.2021 -0.1623  0.3662
    1W        W32200  14.636   7.449   1.069 -0.2476  0.0030  0.2233
    1W        W32201  27.056  27.570   0.542 -0.0760  0.2367  0.2371
    1W        W32202  22.988   5.090   9.259 -0.1307  0.0592  0.1835
    1W        W32203  19.604  25.550   2.532 -0.0541 -0.1145 -0.1038
    1W        W32204   1.484   2.478   2.529  0.1483  0.3740 -0.1726
    1W        W32205   3.022   1.618   8.905 -0.2939  0.3114  0.1470
    1W        W32206  15.885  22.864   1.307  0.3465  0.1647 -0.0587
    1W        W32207  10.385   8.772   2.163  0.2610  0.2412 -0.2927
    1W        W32208  28.960   6.921   0.995 -0.5351  0.2157  0.1951
    1W        W32209  19.343  22.055   2.897  0.1071 -0.0217  0.2374
    1W        W32210  10.031   2.879   6.705 -0.0537 -0.2345 -0.0335
    1W        W32211  19.517  13.457   8.518 -0.0738 -0.3552  0.0656
    1W        W32212   1.580  27.391   0.325 -0.0159 -0.0058  0.1201
    1W        W32213   0.767  24.270   9.347  0.2069  0.0491  0.0682
    1W        W32214  12.708  12.138   1.702 -0.0537  0.0940 -0.1745
    1W        W32215   0.135  29.078   2.333  0.0167 -0.1184 -0.3373
    1W        W32216   5.315  19.972   8.376  0.0931 -0.1347 -0.1649
    1W        W32217  13.588  29.093   9.237  0.2113  0.2322 -0.4419
    1W        W32218   6.797  19.895   7.777  0.4609 -0.1116 -0.0090
    1W        W32219   9.673  28.847   8.987 -0.1830  0.2551  0.0918
    1W        W32220  12.784  15.428   6.875  0.3996 -0.2961  0.3829
    1W        W32221   4.798   0.112   6.963  0.0612  0.3441 -0.1112
    1W        W32222  15.048  19.788   7.215  0.2751 -0.2081 -0.2938
    1W        W32223  21.381  26.136   2.437 -0.3128  0.2230 -0.0251
    1W        W32224  21.322  20.625   2.535 -0.0730  0.0796 -0.1645
    1W        W32225   8.935  27.860   0.105 -0.1007  0.0330  0.2944
    1W        W32226   5.069   3.919   1.140 -0.1892  0.5080 -0.0393
    1W        W32227  13.471  15.760   0.723 -0.1422 -0.2635 -0.0629
    1W        W32228  19.683  12.321   0.338 -0.1266  0.0183  0.2102
    1W        W32229   4.945   0.530   6.761 -0.1129  0.2556  0.1143
    1W        W32230   6.726   3.887   2.903 -0.0163  0.0233  0.0153
    1W        W32231  18.444  24.320   7.972  0.0919 -0.0229 -0.1058
    1W        W32232   8.091  17.785   7.000 -0.0206  0.0820 -0.2548
    1W        W32233  25.825  17.401   0.305 -0.0477 -0.2040  0.2857
    1W        W32234  20.288   9.270   9.537  0.0767 -0.1551  0.2006
    1W        W32235   9.201  18.335   6.984  0.2035 -0.1633 -0.0782
    1W        W32236  16.378  22.701   3.578  0.0258 -0.0301 -0.0996
    1W        W32237   8.394   7.877   9.052 -0.2265  0.2194 -0.0906
    1W        W32238  19.624  12.818   1.000 -0.0705 -0.1403  0.1852
    1W        W32239  13.978  25.671   8.204 -0.1718 -0.4724 -0.0264
    1W        W32240  26.798  20.122   3.173 -0.0715  0.0625 -0.1512
    1W        W32241  20.796   2.451   2.849  0.1706  0.0295  0.1181
    1W        W32242   2.715  13.388   0.607 -0.0197  0.0304 -0.3924
    1W        W32243   8.581  16.857   0.685  0.0128  0.4074 -0.2281
    1W        W32244   9.533  18.696   6.926  0.0027 -0.2580 -0.0456
    1W        W32245  27.555  20.893   0.439 -0.2074  0.2043  0.1676
    1W        W32246  29.119  20.477   9.577 -0.2057  0.1931  0.0580
    1W        W32247  28.447  21.254   1.268 -0.3103  0.1039  0.3057
    1W        W32248  19.277   9.452   8.899 -0.0604 -0.0560 -0.2537
    1W        W32249  10.644   3.023   2.817  0.0263 -0.1872 -0.0362
    1W        W32250  19.931  17.876   2.771  0.2379  0.2606 -0.5151
    1W        W32251  29.452   0.978   7.570  0.0642  0.2414 -0.1663
    1W        W32252  27.748   0.898   1.753  0.1466 -0.3003 -0.1793
    1W        W32253  12.385  25.540   9.602 -0.1058 -0.0402 -0.0557
    1W        W32254  27.111   1.769   7.050 -0.1684  0.2738 -0.0879
    1W        W32255  19.926   4.722   0.884 -0.0267 -0.2322 -0.1833
    1W        W32256   0.876  13.419   8.468  0.1810 -0.1558 -0.1422
    1W        W32257   6.811  25.945   7.210 -0.0684  0.2456  0.1250
    1W        W32258  28.431  21.951   3.160 -0.1620  0.0516  0.1558
    1W        W32259  12.740  10.744   0.308  0.1979 -0.1468  0.1671
    1W        W32260  17.252  16.113   1.151  0.1351 -0.1318 -0.1415
    1W        W32261   0.851   3.325   7.264 -0.0931  0.2758 -0.1306
    1W        W32262  13.523  21.588   7.672  0.3493 -0.3751  0.1224
    1W        W32263  28.953  16.374   0.408 -0.2173 -0.2308 -0.0963
    1W        W32264  16.439  15.026   7.895 -0.0433  0.0019 -0.1191
    1W        W32265  25.446  23.300   3.689  0.2708 -0.0034 -0.0651
    1W        W32266  21.539  26.130   8.840 -0.1288  0.1020  0.3501
    1W        W32267  25.982  17.662   2.983  0.2657 -0.2453  0.3528
    1W        W32268   0.843  12.800   8.497  0.0503  0.0647 -0.1285
    1W        W32269  23.628  25.235   2.059  0.2595  0.0095  0.3492
    1W        W32270  16.784  20.894   1.885 -0.0166 -0.0645  0.0326
    1W        W32271  14.968  13.566   0.332  0.1220  0.3156  0.0914
    1W        W32272  13.174   6.188   6.943  0.1466  0.1189 -0.0363
    1W        W32273   6.254  26.497   9.111  0.0392 -0.3279  0.0491
    1W        W32274  11.412  20.163   7.032 -0.0618  0.2225  0.0019
    1W        W32275  15.854   6.916   7.253  0.3163 -0.0084  0.1269
    1W        W32276  22.646  19.436   2.449  0.1229  0.2143 -0.1424
    1W        W32277   8.729   4.732   9.622 -0.0652  0.1284  0.1217
    1W        W32278  25.349   4.222   8.410 -0.0326 -0.1356 -0.0169
    1W        W32279  20.454   2.465   7.144  0.0096 -0.1369 -0.1624
    1W        W32280   0.235   4.282   1.596 -0.1135 -0.4576 -0.1262
    1W        W32281  28.777   2.661   7.032  0.1992 -0.1319 -0.0288
    1W        W32282  11.052  10.369   7.094  0.1128  0.2664 -0.0653
    1W        W32283  24.563  26.587   3.435  0.1262  0.1729 -0.0335
    1W        W32284  26.145  18.875   2.775  0.1951 -0.0374  0.2161
    1W        W32285  19.669  24.145   8.583  0.0207 -0.2862 -0.3667
    1W        W32286  23.684  22.820   3.497  0.3332 -0.0476 -0.3948
    1W        W32287  29.446   0.531   0.157 -0.3493  0.1789 -0.1805
    1W        W32288  21.855   4.755   2.104  0.2028 -0.0764 -0.0799
    1W        W32289  17.533  18.596   8.631  0.0046  0.2008  0.0152
    1W        W32290  13.685   3.564   8.565  0.0764  0.1430  0.0854
    1W        W32291  18.473  10.422   0.764 -0.0591  0.0765 -0.3745
    1W        W32292  15.327  23.189   8.563 -0.0877  0.3374 -0.1695
    1W        W32293  21.927  26.120   9.262 -0.2213 -0.1892 -0.1983
    1W        W32294   2.907   0.670   8.312  0.1163 -0.1824  0.1897
    1W        W32295   4.748  17.229   1.455  0.0773 -0.3387  0.1530
    1W        W32296  11.682   5.869   6.633 -0.0707  0.3700 -0.1832
    1W        W32297  26.928  26.417   8.385 -0.1289  0.3249 -0.0130
    1W        W32298  14.599  22.941   3.053  0.0236  0.0028  0.0591
    1W        W32299   6.649   2.221   2.536 -0.0497  0.0719  0.0075
    1W        W32300   5.231  17.654   9.197  0.3037  0.3066  0.2002
    1W        W32301   4.484  24.502   8.571 -0.3029 -0.0138 -0.2883
    1W        W32302   7.873   1.258   9.134 -0.1598 -0.1377 -0.1814
    1W        W32303   9.541   5.550   5.855  0.0976 -0.2660  0.2102
    1W        W32304  19.868  28.530   9.372  0.1071 -0.0016  0.1212
    1W        W32305  14.522  18.459   9.326  0.1065  0.4036 -0.1564
    1W        W32306   0.776  14.789   9.335  0.4383  0.0165 -0.1067
    1W        W32307  27.087  11.137   7.581 -0.0672  0.0056  0.0440
    1W        W32308  10.051   9.585   2.054  0.5203  0.2151  0.0573
    1W        W32309  12.253   6.286   0.852  0.0155  0.2090 -0.1945
    1W        W32310  26.318  11.879   0.618 -0.1780 -0.1729  0.0114
    1W        W32311   0.649  14.447   9.641 -0.1236  0.2171 -0.2150
    1W        W32312  15.212  28.757   8.158  0.2723 -0.0209  0.2555
    1W        W32313   4.999   2.356   6.197 -0.0018  0.0801  0.4455
    1W        W32314   9.149  19.695   1.443  0.0985 -0.1600  0.1691
    1W        W32315  16.734   5.463   8.685 -0.0247 -0.0366  0.1320
    1W        W32316  13.695  22.587   0.724  0.0998 -0.2366  0.0003
    1W        W32317   1.060   4.324   0.630  0.1825  0.2232 -0.2548
    1W        W32318   5.586  25.871   0.090  0.0208 -0.3615 -0.2965
    1W        W32319  29.501  15.730   8.301 -0.1950 -0.0159  0.0571
    1W        W32320  14.643   5.420   8.663 -0.1738 -0.0135  0.0356
    1W        W32321   6.966  14.858   9.097 -0.1615 -0.0790  0.0097
    1W        W32322  29.362  24.246   7.380 -0.0641  0.0535  0.1075
    1W        W32323  20.748  19.473   1.227 -0.2208 -0.0886 -0.2199
    1W        W32324  23.850  17.363   0.732  0.0973 -0.1168  0.2507
    1W        W32325  26.216  22.513   7.938 -0.2151 -0.2378 -0.1282
    1W        W32326   1.442   8.164   7.856  0.2316 -0.1883 -0.2896
    1W        W32327  11.623  16.818   0.236  0.0491 -0.0590 -0.0716
    1W        W32328  22.387  27.223   1.756 -0.0236  0.1360  0.0771
    1W        W32329   2.331  28.670   0.311 -0.0732  0.1094  0.0891
    1W        W32330   5.109  19.319   7.675  0.3444  0.0198 -0.1141
    1W        W32331  24.586  11.307   1.244  0.3225 -0.3814 -0.2423
    1W        W32332  29.316  18.215   8.426 -0.3196 -0.1748  0.1284
    1W        W32333   8.401   1.297   9.175 -0.0807  0.2317 -0.0682
    1W        W32334  12.552   4.963   1.379  0.0260 -0.0901 -0.0247
    1W        W32335  22.726  25.803   2.988 -0.0639 -0.3119  0.0737
    1W        W32336  27.009  10.530   9.054  0.1042  0.3399 -0.1723
    1W        W32337  10.368  29.531   1.779 -0.1481 -0.3169 -0.1559
    1W        W32338  15.109  14.901   1.201 -0.2370  0.0566  0.1195
    1W        W32339  25.124  25.141   1.522  0.0515 -0.2386  0.1846
    1W        W32340   3.234   8.268   7.479 -0.1462 -0.2750 -0.0980
    1W        W32341  10.579  28.535   6.305 -0.3289  0.2983 -0.1396
    1W        W32342   2.432   9.692   8.815 -0.2205 -0.2340  0.0053
    1W        W32343  15.662  18.765   0.442  0.2106 -0.1485 -0.2761
    1W        W32344  20.764  18.595   0.153  0.0452 -0.1286 -0.0312
    1W        W32345  10.211  18.068   1.427  0.2399 -0.4117  0.4085
    1W        W32346   4.439   0.285   1.518  0.1673  0.0729 -0.2721
    1W        W32347   2.437   5.624   7.556 -0.0231  0.0034 -0.0053
    1W        W32348   5.289   0.608   7.815 -0.0075  0.0257 -0.1177
    1W        W32349  20.687   7.666   7.599 -0.0416 -0.0869 -0.2687
    1W        W32350   0.073   4.447   0.981 -0.3709  0.0231  0.1276
    1W        W32351   4.900   7.932   8.219  0.0226 -0.1530  0.0041
    1W        W32352  23.531   9.710   8.928 -0.2409 -0.2512  0.0102
    1W        W32353  18.039  12.343   8.895  0.1494 -0.0835 -0.0251
    1W        W32354   4.802   1.352   9.067  0.1750  0.1655  0.2608
    1W        W32355   8.124   3.351   7.891 -0.0069  0.0556 -0.0950
    1W        W32356   1.076   0.963   8.734 -0.2144 -0.0847 -0.0351
    1W        W32357  27.031  23.900   8.327 -0.1967 -0.1832  0.2268
    1W        W32358  27.080  22.301   3.146  0.0811  0.0611 -0.1619
    1W        W32359  20.011   6.526   8.808  0.0029  0.1277  0.2660
    1W        W32360   2.653  25.981   6.631 -0.0752 -0.0203 -0.1306
    1W        W32361  18.918   0.565   2.716  0.1220  0.2287  0.1384
    1W        W32362  19.647  29.038   9.526 -0.0626  0.0140  0.1907
    1W        W32363  21.658   7.765   6.895  0.2402 -0.1024  0.1106
    1W        W32364  17.627  10.661   1.361  0.1848  0.0143  0.1020
    1W        W32365  28.478  19.017   2.705  0.0464  0.0229 -0.2277
    1W        W32366   3.138   3.788   1.835  0.1085  0.1744  0.1397
    1W        W32367  25.086  23.960   2.084 -0.0999 -0.1137 -0.0517
    1W        W32368  26.770  28.906   2.878  0.1237 -0.2133 -0.1331
    1W        W32369  14.566  26.326   2.006 -0.2327  0.1502 -0.1478
    1W        W32370  17.059  17.317   1.925 -0.2068  0.1545 -0.2471
    1W        W32371   9.169   8.615   0.555 -0.0613 -0.1087 -0.4143
    1W        W32372  19.023   1.159   1.140  0.0071 -0.0032  0.1222
    1W        W32373  12.872  20.627   8.670  0.1765 -0.2642 -0.1723
    1W        W32374  14.492   1.631   1.214  0.2176 -0.1123  0.0372
    1W        W32375   4.883   3.526   5.574  0.1741 -0.1841  0.3003
    1W        W32376  24.836  25.599   1.725 -0.0276  0.1021 -0.1521
    1W        W32377  15.428  26.407   8.053  0.1072  0.4742  0.2446
    1W        W32378  23.091   0.206   7.863 -0.1121  0.0627 -0.2031
    1W        W32379  15.831  17.269   9.540 -0.0713 -0.0886  0.0101
    1W        W32380  20.110  20.814   2.510  0.1193 -0.1025  0.1936
    1W        W32381  15.411   2.994   1.223 -0.3099 -0.1507 -0.2475
    1W        W32382  18.954  13.176   8.109 -0.0329 -0.0475  0.1493
    1W        W32383  13.974   1.476   6.768 -0.0861 -0.1248 -0.0381
    1W        W32384   1.119  25.500   0.653  0.3614 -0.2319 -0.2840
    1W        W32385  10.901  19.085   0.110 -0.1083 -0.2586 -0.0888
    1W        W32386  21.795   9.080   7.398  0.4332 -0.2707  0.1755
    1W        W32387  17.092   0.650   8.884 -0.2628 -0.0649 -0.2034
    1W        W32388   1.293  14.336   8.680  0.2094  0.1344 -0.1768
    1W        W32389   9.812  28.739   0.186  0.4306  0.1333 -0.1103
    1W        W32390   4.634  26.200   8.952 -0.1423  0.1443 -0.4390
    1W        W32391   7.757  24.741   8.419  0.0701 -0.0116  0.0199
    1W        W32392  14.258  29.094   3.097 -0.1794  0.0824 -0.1178
    1W        W32393  11.801   2.425   8.073 -0.1169  0.1238 -0.1218
    1W        W32394  10.989   7.022   8.270  0.1062  0.0474  0.1405
    1W        W32395  20.620  19.959   1.002  0.1417  0.1525 -0.1086
    1W        W32396  13.552   6.376   2.738  0.2409  0.3658  0.0513
    1W        W32397   1.127  10.562   9.104  0.1860  0.2713 -0.1468
    1W        W32398  19.191   5.715   7.922  0.1362  0.5006 -0.0968
    1W        W32399  16.289   2.590   1.407  0.1629 -0.1732 -0.0952
    1W        W32400  23.239  24.796   8.443 -0.2883  0.1588  0.4661
    1W        W32401  15.836  11.021   0.898  0.0477  0.1551 -0.2384
    1W        W32402  26.241   4.784   6.936  0.0942  0.3092 -0.0210
    1W        W32403  15.096  13.286   9.583 -0.3812 -0.1576 -0.0228
    1W        W32404  13.269  14.534   0.986  0.0565  0.1435 -0.1104
    1W        W32405   7.633  24.744   0.195 -0.1612 -0.1470 -0.1577
    1W        W32406   7.665  13.790   6.957 -0.0320 -0.3864  0.2020
    1W        W32407  10.256  11.459   1.910  0.1307  0.2485 -0.1774
    1W        W32408   1.855  19.002   2.594  0.1725 -0.1606 -0.1532
    1W        W32409   0.998   5.770   9.616 -0.0084  0.3679  0.1625
    1W        W32410  17.478   4.959   2.850  0.0193 -0.1735 -0.1906
    1W        W32411  13.078  27.548   7.946 -0.0365  0.2761 -0.0481
    1W        W32412   4.000  25.660   7.345 -0.0755 -0.0433  0.4438
    1W        W32413  28.723  17.345   0.065  0.4270 -0.4161 -0.1658
    1W        W32414   6.385   1.153   6.597  0.0177 -0.0198  0.0825
    1W        W32415   0.772  26.958   9.202  0.0510 -0.0270 -0.0562
    1W        W32416   9.961  26.353   2.716 -0.2533 -0.2658 -0.0132
    1W        W32417  17.989  18.595   7.826 -0.1422  0.2566 -0.4058
    1W        W32418  12.408   8.780   9.410  0.1497 -0.0030 -0.0294
    1W        W32419   2.491   1.517   6.162 -0.1488 -0.0571 -0.1649
    1W        W32420  21.352  23.556   3.719 -0.2949  0.1555  0.2414
    1W        W32421  24.631  19.358   1.601  0.0604 -0.2309 -0.1547
    1W        W32422  10.722  29.514   0.339  0.0374 -0.2254 -0.0602
    1W        W32423  26.108  28.258   7.131  0.0114  0.0115  0.0350
    1W        W32424  23.848  29.531   8.245 -0.0954  0.0313 -0.0738
    1W        W32425   6.256   2.342   8.141 -0.1714 -0.0713  0.0718
    1W        W32426  20.759   6.750   1.690 -0.0080  0.0805  0.0201
    1W        W32427   0.621  25.421   0.638 -0.3428 -0.1943 -0.1973
    1W        W32428  20.619  14.483   8.877 -0.0148  0.1353  0.0392
    1W        W32429  19.109  10.464   9.307  0.3322  0.2232  0.0451
    1W        W32430  23.264   7.357   7.288  0.1574  0.0103  0.1309
    1W        W32431  11.802  26.170   1.962  0.1245  0.1027  0.0060
    1W        W32432  11.022  25.066   2.969 -0.0103 -0.1074  0.1487
    1W        W32433  20.128  18.767   9.251 -0.1193 -0.0803  0.1422
    1W        W32434  26.729   7.212   2.103  0.0102  0.0142  0.2296
    1W        W32435   3.333   2.530   7.257  0.0625  0.3445  0.0916
    1W        W32436  13.552   0.213   8.073  0.0021  0.1202 -0.1319
    1W        W32437  10.711   3.142   9.117  0.1818 -0.1373 -0.0913
    1W        W32438  19.874  23.502   3.996  0.1412 -0.2331 -0.1759
    1W        W32439  29.478  26.075   3.244 -0.0575  0.2149 -0.0261
    1W        W32440   6.239  11.686   1.004 -0.0334  0.0817 -0.3025
    1W        W32441  21.457  13.412   9.250 -0.0572  0.2350  0.1235
    1W        W32442  27.682   9.949   1.412 -0.1172  0.3123 -0.0193
    1W        W32443  13.720  13.637   1.274  0.3193  0.0954 -0.0576
    1W        W32444  17.464  14.232   2.362  0.1219  0.0781 -0.1882
    1W        W32445  23.888  23.765   7.836  0.0108 -0.1360 -0.2749
    1W        W32446   8.236  17.497   0.937  0.3148  0.1180  0.1594
    1W        W32447  14.054  28.404   2.424  0.1893 -0.1114  0.5258
    1W        W32448  23.528  15.142   1.144 -0.0977  0.6049  0.2240
    1W        W32449   9.275  13.345   1.827  0.3188  0.3006 -0.0351
    1W        W32450  21.334  14.624   7.404  0.1389  0.1077  0.0953
    1W        W32451  16.443  25.229   3.152  0.0384  0.0070 -0.0823
    1W        W32452  15.227   9.725   0.884 -0.0779 -0.0236 -0.0889
    1W        W32453  16.826   5.052   1.637  0.1805  0.0359 -0.3246
    1W        W32454  19.725   9.842   0.167 -0.0594 -0.0343  0.0868
    1W        W32455   8.050  18.857   0.330 -0.1767 -0.1373 -0.3056
    1W        W32456   4.959  28.458   9.531  0.0190 -0.0185  0.0874
    1W        W32457   2.880   8.603   8.357 -0.0220  0.0792  0.0080
    1W        W32458   4.957  20.882   7.678 -0.0982  0.4556 -0.1018
    1W        W32459  23.072  19.707   7.575  0.0197 -0.1510 -0.2216
    1W        W32460  15.661  26.571   1.245  0.0715 -0.2375 -0.1592
    1W        W32461   7.187  13.487   2.341 -0.1768 -0.0388 -0.0583
    1W        W32462   8.689  27.282   2.074 -0.1928 -0.2936  0.0507
    1W        W32463  26.339  11.199   2.770 -0.1459 -0.2488 -0.1320
    1W        W32464  20.651  11.919   0.271 -0.0624 -0.0068  0.1451
    1W        W32465  13.933  17.012   1.900  0.0657 -0.1449 -0.1274
    1W        W32466   1.577  24.949   3.315  0.0128  0.4480 -0.1867
    1W        W32467   8.886   6.446   1.330  0.0108 -0.0698  0.1128
    1W        W32468   0.897  14.510   2.449  0.0913 -0.2936 -0.0396
    1W        W32469   1.752   4.497   8.581  0.0830 -0.0173  0.1794
    1W        W32470   9.247   1.167   6.124  0.1750  0.0724  0.2375
    1W        W32471  14.963  17.117   6.493 -0.2676  0.1073  0.2164
    1W        W32472  10.006  29.566   8.650 -0.0464 -0.2482 -0.3575
    1W        W32473  12.872  24.876   2.170 -0.2853  0.1094 -0.1353
    1W        W32474   7.216   1.087   8.293 -0.0095  0.6984 -0.1978
    1W        W32475   5.992  22.307   8.327  0.1657  0.1522  0.0160
    1W        W32476  11.578  24.135   0.435  0.2898 -0.1724 -0.0765
    1W        W32477   0.100  14.838   8.832 -0.0691 -0.0993 -0.1448
    1W        W32478   7.023   6.638   2.265  0.2377 -0.1113 -0.2201
    1W        W32479  28.813  20.212   0.982 -0.0964  0.0280  0.1824
    1W        W32480  13.977  22.223   1.956 -0.0343  0.1312  0.0276
    1W        W32481   3.989  14.525   1.394  0.1457  0.1706  0.3455
    1W        W32482  12.756  26.831   8.199  0.0574  0.4401 -0.0614
    1W        W32483  12.777  24.021   0.086 -0.0226 -0.0858 -0.2672
    1W        W32484  17.458  19.285   7.945 -0.1807 -0.1048  0.1857
    1W        W32485  19.387  23.067   9.339  0.1454  0.2121 -0.1956
    1W        W32486   0.281  21.261   1.415  0.0162  0.3028 -0.2737
    1W        W32487   1.093   0.278   9.414  0.0252 -0.1035  0.2939
    1W        W32488   5.524  21.490   6.505 -0.0927  0.1831  0.1152
    1W        W32489  23.971  18.342   3.597  0.2864 -0.2935  0.0366
    1W        W32490  29.076   1.567   6.905 -0.2589 -0.0830 -0.0513
    1W        W32491   9.658   9.201   6.351  0.0532 -0.1680  0.0804
    1W        W32492   1.171  26.968   1.663  0.1812 -0.1655 -0.1102
    1W        W32493  27.153   4.816   1.514  0.0550 -0.0369 -0.1153
    1W        W32494   6.006  22.064   1.983  0.0561 -0.1482 -0.0710
    1W        W32495  18.617  13.995   1.275 -0.3672 -0.0346 -0.0911
    1W        W32496   9.122   4.973   8.177  0.3270  0.1052  0.0497
    1W        W32497   6.497   0.591   0.388  0.1142  0.1078  0.2098
    1W        W32498   0.814  23.562   7.738  0.1107  0.2383  0.0102
    1W        W32499   3.377  14.415   1.277 -0.2466  0.3116  0.2995
    1W        W32500   1.646  19.706   7.864 -0.3279 -0.0650 -0.1809
    1W        W32501   6.997  13.736   9.428  0.0186 -0.2682  0.2434
    1W        W32502  23.149   8.504   0.579 -0.0269  0.1850  0.0434
    1W        W32503  13.971  21.439   8.483  0.1244 -0.1446  0.1681
    1W        W32504  26.817   1.753   8.533  0.2993  0.1195  0.2428
    1W        W32505  14.146  11.118   8.072 -0.0719 -0.1595 -0.1755
    1W        W32506  24.623   1.126   1.739  0.2930 -0.0404  0.0613
    1W        W32507   6.659  29.537   6.614 -0.1349  0.1313  0.1780
    1W        W32508  21.646  22.229   3.236  0.2608 -0.0825 -0.0370
    1W        W32509  26.854   4.198   7.991 -0.0717 -0.2785 -0.2628
    1W        W32510  20.607   2.335   8.757 -0.0591 -0.3448 -0.1481
    1W        W32511  24.159  11.694   0.653  0.1097 -0.0909 -0.0117
    1W        W32512   4.341  19.297   0.286 -0.1147  0.2918 -0.1323
    1W        W32513  22.347  14.665   1.785  0.1189  0.1794  0.1012
    1W        W32514  21.877  25.100   3.146 -0.2815  0.2043  0.2010
    1W        W32515  19.384   4.985   7.141 -0.0020 -0.0243  0.1155
    1W        W32516  17.609   5.224   6.135 -0.2385  0.0369  0.0072
    1W        W32517  20.757   0.955   3.043 -0.2803 -0.2590 -0.1256
    1W        W32518  16.954   6.019   0.303 -0.2374 -0.3632  0.1377
    1W        W32519   3.516  22.516   9.536  0.0517 -0.1253  0.0756
    1W        W32520  20.784   2.371   8.317  0.1531 -0.2776 -0.1119
    1W        W32521   2.994  27.517   8.672  0.1917  0.0516  0.1709
    1W        W32522   4.929   4.198   1.826 -0.0432  0.0693 -0.2634
    1W        W32523  28.036  12.324   7.175  0.0069  0.1130  0.0795
    1W        W32524   3.044  25.480   8.491  0.0633 -0.1581  0.1556
    1W        W32525  24.903   9.980   7.789  0.0548 -0.0952  0.1420
    1W        W32526  27.735   5.860   8.895  0.2289  0.1680 -0.1724
    1W        W32527   2.809  20.951   0.415 -0.0993  0.2612 -0.3754
    1W        W32528   5.443   7.745   0.471  0.1174  0.0944 -0.0062
    1W        W32529  26.156  27.798   1.653 -0.0524 -0.1192 -0.3400
    1W        W32530  13.772   2.014   7.179  0.1203  0.0398  0.2237
    1W        W32531  18.921  22.437   0.083  0.1886 -0.0277 -0.1249
    1W        W32532   8.709  11.502   9.596 -0.1428 -0.1565  0.1104
    1W        W32533  12.742   0.044   2.105  0.2971  0.0307 -0.2355
    1W        W32534  23.010   0.850   1.048  0.1003  0.0350  0.0446
    1W        W32535   7.006   4.547   6.372 -0.0070  0.2170 -0.2238
    1W        W32536   3.655   1.143   6.783 -0.1942  0.0800 -0.0247
    1W        W32537  19.121   7.736   9.262 -0.3754  0.0731 -0.0452
    1W        W32538   0.155   2.952   1.876 -0.2781  0.3611  0.0768
    1W        W32539  29.346   9.627   6.867  0.0074  0.0400 -0.0915
    1W        W32540   9.725   4.662   0.066  0.2942 -0.0273 -0.0011
    1W        W32541   3.081   8.509   0.673 -0.1409  0.2259 -0.4151
    1W        W32542  19.353  24.018   3.079 -0.2125  0.2308 -0.0360
    1W        W32543   5.850   3.117   7.424  0.0466 -0.0315 -0.0262
    1W        W32544  21.243  18.756   3.217  0.1130 -0.1378  0.0471
    1W        W32545   0.086   3.767   7.382 -0.0446 -0.2792  0.3125
    1W        W32546   5.123   1.433   6.755 -0.2765 -0.2369 -0.1468
    1W        W32547  10.510   7.889   1.662 -0.0514 -0.0179  0.0587
    1W        W32548  10.289  10.351   6.796  0.1637  0.0312 -0.0600
    1W        W32549  10.252  23.100   8.175  0.1554  0.2198  0.2744
    1W        W32550   0.423   2.605   1.099 -0.2422  0.1074  0.4824
    1W        W32551   9.509   8.328   1.663 -0.0229 -0.1197  0.0912
    1W        W32552  12.312   7.560   1.141  0.2931  0.4197  0.0837
    1W        W32553  18.365   5.379   1.950 -0.2449 -0.0981 -0.0007
    1W        W32554  10.832  26.306   7.988  0.0328 -0.4268  0.0707
    1W        W32555   1.914  24.535   4.096 -0.1787 -0.0953  0.0615
    1W        W32556  21.086  14.052   1.898 -0.1887 -0.0622 -0.3556
    1W        W32557  21.286  13.476   6.963 -0.0174  0.0643 -0.3693
    1W        W32558  25.457  20.073   2.970  0.4047 -0.1197 -0.1694
    1W        W32559   6.616   4.258   6.121  0.0393 -0.1244  0.1597
    1W        W32560  18.017  15.191   2.685 -0.2790 -0.0754 -0.2309
    1W        W32561  24.901   1.610   8.782 -0.0283 -0.5764  0.2532
    1W        W32562   0.253  17.727   0.355 -0.1011  0.3553  0.0012
    1W        W32563   5.848   2.665   1.021  0.0459  0.0951 -0.2135
    1W        W32564  19.729  13.298   2.285 -0.2828  0.0830 -0.1795
    1W        W32565  25.969  13.166   1.066 -0.0959 -0.0051  0.1378
    1W        W32566  26.062  24.122   8.444  0.0342  0.0435 -0.0001
    1W        W32567  27.245  28.568   8.988 -0.0201 -0.0274  0.2509
    1W        W32568  26.164  18.878   0.612 -0.0673  0.3204  0.3299
    1W        W32569   9.507  21.322   2.253  0.0304 -0.0334 -0.1102
    1W        W32570  10.935  11.518   8.441  0.1798  0.2734 -0.0197
    1W        W32571  21.163  10.233   1.627 -0.0429 -0.1078 -0.2633
    1W        W32572  23.188  22.706   8.657  0.0668  0.1454 -0.4503
    1W        W32573  29.357  20.993   8.405  0.1904  0.2227  0.1281
    1W        W32574  21.743  18.211   8.913 -0.3073 -0.1013 -0.1233
    1W        W32575   2.274  10.058   0.605  0.2644 -0.0020  0.2029
    1W        W32576  18.775   8.607   7.493 -0.1622  0.0777  0.2296
    1W        W32577   6.016  18.597   0.238 -0.0966 -0.1226  0.1835
    1W        W32578  16.039   6.475   0.217 -0.2168  0.1560  0.0116
    1W        W32579  17.449  23.129   8.492 -0.1506 -0.0585 -0.0835
    1W        W32580  24.111   6.588   1.115  0.0884  0.0794  0.1507
    1W        W32581  21.133  27.434   2.857 -0.0245  0.0227  0.0972
    1W        W32582  28.115  23.900   7.333 -0.2739  0.3064 -0.1696
    1W        W32583  18.250  22.411   8.899  0.5349  0.0934 -0.1145
    1W        W32584  15.936  28.505   1.880  0.1048 -0.0634 -0.0683
    1W        W32585   6.091   3.975   0.156 -0.4156 -0.0349  0.0500
    1W        W32586  10.759  10.051   1.862  0.3858  0.0036  0.1163
    1W        W32587  15.671  13.301   1.057 -0.1984  0.2910 -0.1732
    1W        W32588  28.489  27.624   3.099 -0.0878  0.0774  0.0103
    1W        W32589   5.107   9.665   0.256 -0.1105 -0.1546 -0.0381
    1W        W32590  17.386   9.069   9.212 -0.2560 -0.0873 -0.2758
    1W        W32591   7.400  20.365   8.220  0.2862  0.0035 -0.0714
    1W        W32592   4.359  18.982   7.150  0.0412  0.1174 -0.0736
    1W        W32593   9.243   7.343   8.793 -0.1632  0.0012 -0.1699
    1W        W32594   6.924  21.377   2.525 -0.3297 -0.0483  0.1090
    1W        W32595   2.908  10.870   9.290 -0.0060 -0.2230  0.0500
    1W        W32596   9.339  18.998   0.080 -0.0635  0.1016  0.3221
    1W        W32597  29.307   0.975   7.105 -0.0792 -0.1792  0.1073
    1W        W32598  28.920   8.151   0.895 -0.0440 -0.2070  0.1967
    1W        W32599  28.972  27.585   6.435  0.0442  0.0280 -0.1255
    1W        W32600  23.684  17.066   2.519 -0.3849 -0.0379  0.0004
    1W        W32601  22.016   8.682   8.255 -0.1267  0.1042 -0.0014
    1W        W32602  23.454  13.944   7.352  0.1865  0.2031  0.2102
    1W        W32603  16.191   3.575   8.390  0.1909 -0.3151 -0.0859
    1W        W32604  17.843  15.801   7.942 -0.1671 -0.0217 -0.0403
    1W        W32605  28.493  15.341   8.087 -0.1818  0.0421  0.1097
    1W        W32606  12.619  14.346   8.477  0.1692 -0.1515  0.0289
    1W        W32607  12.986   5.870   1.283  0.1041 -0.1857  0.2079
    1W        W32608  19.652   8.937   8.218  0.2345  0.1057  0.1212
    1W        W32609   5.252   3.168   2.268 -0.0105  0.1851  0.3171
    1W        W32610  10.503   5.857   9.631  0.0647 -0.0591  0.0319
    1W        W32611   1.958  18.538   1.711 -0.0676  0.1187  0.0963
    1W        W32612   5.636   1.846   1.652  0.0677  0.1944  0.2655
    1W        W32613  11.614  17.783   7.268  0.0798  0.4777 -0.0471
    1W        W32614  13.510  15.394   1.300 -0.1593 -0.0773 -0.0719
    1W        W32615  19.621  23.166   1.756  0.0764 -0.1044 -0.1252
    1W        W32616   3.739  17.367   1.606  0.1338 -0.1921  0.0428
    1W        W32617  17.616   5.240   1.425  0.2881 -0.1207 -0.2006
    1W        W32618  11.155   1.181   7.859 -0.1012  0.2617  0.1717
    1W        W32619  12.498  23.343   8.037  0.3091  0.1771 -0.1701
    1W        W32620  17.685  21.699   7.095  0.0699 -0.0472 -0.3454
    1W        W32621  25.222  24.930   8.055  0.1400 -0.0376  0.3193
    1W        W32622  16.216   6.569   9.384  0.1786  0.0758  0.2084
    1W        W32623   9.109  21.238   7.792  0.0127  0.3180 -0.4077
    1W        W32624   8.323  15.571   7.989 -0.1054  0.0012 -0.0184
    1W        W32625  25.955  21.738   9.505 -0.0480  0.3098 -0.0859
    1W        W32626   5.512  11.329   0.247 -0.1349  0.0160  0.3518
    1W        W32627  25.937  20.084   2.714 -0.3424 -0.1265 -0.0834
    1W        W32628   5.640  18.357   1.866  0.4132  0.0885  0.1121
    1W        W32629  24.069  17.798   2.748  0.0770 -0.0966  0.2472
    1W        W32630  18.800  24.674   1.022 -0.0682  0.1209 -0.0684
    1W        W32631   2.832   8.441   8.818 -0.1873 -0.2602  0.2330
    1W        W32632  23.918  17.875   3.450  0.0819  0.0790 -0.2424
    1W        W32633   4.645   5.453   0.349  0.2529  0.1061 -0.1087
    1W        W32634   1.191  19.390   7.898  0.0821 -0.0628 -0.0088
    1W        W32635  11.828   2.763   2.213 -0.1281  0.1712  0.0903
    1W        W32636  24.656   5.232   1.444 -0.0772 -0.0444 -0.0389
    1W        W32637  10.630   7.137   7.706  0.0044 -0.0814  0.0411
    1W        W32638  28.060   0.901   8.397 -0.1942 -0.0675 -0.2388
    1W        W32639  16.936  18.717   0.391 -0.1050 -0.0258 -0.3203
    1W        W32640   6.974  16.095   6.501  0.0113  0.0441 -0.0288
    1W        W32641   2.477  12.082   1.174 -0.3714 -0.0223 -0.0162
    1W        W32642  27.179  12.757   9.464 -0.0000  0.3389 -0.0696
    1W        W32643  17.889  28.976   1.377  0.1378  0.5397  0.3921
    1W        W32644  21.680  23.744   1.273  0.0444  0.1650  0.4752
    1W        W32645  22.212   2.431   2.462 -0.0477 -0.2393 -0.1688
    1W        W32646  28.520  17.678   0.944 -0.0010 -0.0060 -0.0809
    1W        W32647   8.708  22.546   2.060 -0.0315 -0.0328 -0.3091
    1W        W32648  29.541  17.765   1.744  0.1951 -0.3938 -0.3366
    1W        W32649   2.623  28.901   2.783 -0.0014  0.2622  0.0238
    1W        W32650  29.529  10.573   7.549  0.3501 -0.0353  0.0902
    1W        W32651  19.313  24.488   2.895 -0.1065  0.0869 -0.0457
    1W        W32652   8.194  14.639   0.698  0.0934  0.1878 -0.0373
    1W        W32653  29.198   7.937   1.287  0.0193  0.0179 -0.0050
    1W        W32654  25.317  20.787   8.772 -0.0699  0.1378  0.2510
    1W        W32655  11.751  20.816   0.485  0.0238  0.2067  0.3152
    1W        W32656   4.585  15.947   6.121  0.2036 -0.0652  0.0971
    1W        W32657  18.367  20.192   8.385  0.1135 -0.5072 -0.0548
    1W        W32658  14.809   2.579   1.765 -0.0261 -0.0264 -0.0005
    1W        W32659   9.330  26.251   8.912 -0.0192 -0.0644  0.0933
    1W        W32660  23.419  22.379   1.851  0.0974  0.2041 -0.1105
    1W        W32661   8.622  16.024   6.452 -0.0142  0.0737 -0.0663
    1W        W32662  17.542   1.130   8.578  0.2816 -0.3541 -0.0309
    1W        W32663  19.508  21.723   8.456  0.0511 -0.0012  0.1673
    1W        W32664  22.875  13.766   0.436  0.1067 -0.0013  0.4112
    1W        W32665   5.631   1.411   1.394 -0.0520  0.0327  0.2874
    1W        W32666  10.870  10.020   0.610 -0.1586 -0.0493 -0.0977
    1W        W32667  23.589   5.449   7.528  0.2541  0.1229  0.1260
    1W        W32668  23.269  21.742   0.327 -0.1427 -0.2061  0.0684
    1W        W32669   7.366  29.067   8.450 -0.1425 -0.1515 -0.0891
    1W        W32670   8.972   4.476   1.468  0.1851  0.1964  0.1648
    1W        W32671   3.863  14.978   9.336 -0.0773 -0.1727  0.0799
    1W        W32672   6.843   3.152   6.408 -0.2528 -0.0119  0.2235
    1W        W32673   3.562  29.594   1.204 -0.2907  0.0402 -0.0233
    1W        W32674   4.386  25.752   0.853  0.0414 -0.0774 -0.1155
    1W        W32675   8.157   4.061   6.429 -0.1045 -0.3763 -0.2481
    1W        W32676   5.865  23.637   1.196  0.2998  0.0684 -0.1329
    1W        W32677  18.283  10.855   9.075  0.2236 -0.1970 -0.2903
    1W        W32678   6.306   1.901   1.146 -0.1620  0.1852 -0.1818
    1W        W32679   9.711  10.463   1.686  0.2549 -0.0946 -0.1552
    1W        W32680  15.286   0.994   6.715 -0.2294 -0.1616 -0.2126
    1W        W32681  29.415  11.122   7.887  0.0174 -0.0132 -0.0024
    1W        W32682  12.912  15.290   0.225 -0.1643  0.0735 -0.1795
    1W        W32683  11.847  19.413   0.638 -0.1502  0.0151 -0.2408
    1W        W32684  22.729  22.235   9.338 -0.0333 -0.2810 -0.3164
    1W        W32685   4.105  18.255   9.533 -0.1083  0.0849  0.1381
    1W        W32686   7.363   0.939   0.996 -0.5327  0.3233  0.0227
    1W        W32687  13.292  18.862   6.850 -0.2533  0.3032  0.3508
    1W        W32688  14.246  17.549   1.088 -0.0499 -0.0121  0.0551
    1W        W32689   3.982  28.858   2.120  0.0973  0.0885 -0.3201
    1W        W32690  25.827  17.979   1.939 -0.0216 -0.1938 -0.2727
    1W        W32691  23.796  26.279   0.664 -0.0674  0.1108  0.1623
    1W        W32692  10.254   7.936   9.513 -0.0560  0.1838 -0.0056
    1W        W32693   4.309  23.744   0.841 -0.2472  0.1039 -0.1790
    1W        W32694  19.166  11.822   1.516  0.2720 -0.0122  0.0049
    1W        W32695   5.213  16.809   9.632  0.1102 -0.2171  0.3916
    1W        W32696   1.447  23.117   2.984  0.4022  0.2082 -0.0400
    1W        W32697   1.303   2.340   8.255 -0.0231 -0.2006  0.3219
    1W        W32698  13.954   3.562   9.032  0.1359  0.1784  0.1530
    1W        W32699   7.999   7.758   0.297  0.0067 -0.1102 -0.3015
    1W        W32700  18.168   3.320   7.114  0.2080 -0.0199 -0.1046
    1W        W32701  19.676  27.284   0.555  0.1055 -0.1907 -0.0705
    1W        W32702   5.810  26.136   6.783 -0.0909  0.1010  0.0640
    1W        W32703   8.098   0.339   7.466 -0.2205 -0.2518 -0.0386
    1W        W32704   8.733   5.735   0.363  0.2019  0.1544  0.0542
    1W        W32705  21.769   8.089   8.910 -0.2251  0.1250  0.1706
    1W        W32706  20.172  25.489   9.585  0.0537  0.1400 -0.2864
    1W        W32707  29.596  22.004   2.718  0.0261 -0.3701  0.1596
    1W        W32708   7.110  26.170   8.133 -0.0747  0.3869 -0.1491
    1W        W32709   6.422  18.427   1.615 -0.2407  0.1227  0.2508
    1W        W32710   3.838   6.259   9.523 -0.0206  0.0304  0.1222
    1W        W32711  15.547  26.741   2.669 -0.2338 -0.5602 -0.1320
    1W        W32712  22.500   1.278   1.884 -0.0102 -0.2777  0.0709
    1W        W32713  11.033  28.991   7.682 -0.2844 -0.2077  0.0858
    1W        W32714   5.906  27.819   8.163  0.1862  0.0016  0.1575
    1W        W32715  12.688  24.367   6.148  0.3165 -0.2018  0.4591
    1W        W32716   4.864   1.180   1.890  0.0517  0.1130 -0.2725
    1W        W32717  26.972  27.670   1.495  0.1948  0.0360 -0.0644
    1W        W32718   9.449   1.871   2.028  0.0090  0.1964 -0.3328
    1W        W32719   2.798  24.243   3.055  0.3076 -0.0739  0.0952
    1W        W32720  13.413  19.889   0.157 -0.0225  0.3509  0.2158
    1W        W32721  18.777   6.585   7.323  0.0008 -0.1175  0.1610
    1W        W32722   4.993   0.688   0.126 -0.2315 -0.1097  0.0192
    1W        W32723  20.914  15.108   2.499 -0.0609  0.0517  0.4805
    1W        W32724  19.089  21.346   7.421  0.2040 -0.0921 -0.1340
    1W        W32725   7.500   1.069   7.725 -0.1177  0.1294 -0.3786
    1W        W32726  11.233  29.553   0.478  0.0795  0.1334 -0.0528
    1W        W32727   4.296  20.781   1.948 -0.2728  0.2428 -0.1124
    1W        W32728  17.124   4.121   7.475 -0.0512  0.5272 -0.0615
    1W        W32729  25.449  11.132   0.149 -0.1551 -0.1941 -0.0584
    1W        W32730   0.284  23.663   0.950 -0.1424 -0.1677  0.0752
    1W        W32731  19.433  20.412   7.896 -0.0380  0.1774  0.3914
    1W        W32732  11.775   9.816   7.478 -0.2047 -0.3615  0.1898
    1W        W32733  11.839   4.757   7.016 -0.1594 -0.0198  0.1218
    1W        W32734  10.036  26.968   9.212 -0.3173  0.0183  0.0899
    1W        W32735   1.681   4.809   9.047 -0.1596 -0.0680  0.0307
    1W        W32736   8.303  25.211   9.107  0.0414 -0.2419  0.0409
    1W        W32737  16.706  28.819   7.389 -0.2769  0.1095 -0.0792
    1W        W32738   1.171  24.098   2.944 -0.0344 -0.0316 -0.0587
    1W        W32739   0.101  19.534   2.948  0.1914  0.1436  0.4828
    1W        W32740   6.950  15.409   8.435 -0.3533  0.1414  0.1602
    1W        W32741  10.005  23.405   9.624  0.0872  0.0726 -0.0108
    1W        W32742   5.112  24.661   7.090 -0.0059  0.3100  0.1132
    1W        W32743  24.453  16.985   1.981  0.0287 -0.1416 -0.0346
    1W        W32744   4.146  11.424   7.341 -0.1956  0.1120 -0.1213
    1W        W32745  24.315  25.582   1.831 -0.5842  0.0996  0.2536
    1W        W32746  29.246  19.532   7.290  0.3080 -0.1731  0.3114
    1W        W32747  25.505  15.149   9.363  0.0278  0.3222  0.0801
    1W        W32748  19.344   9.099   0.076 -0.1892 -0.3758  0.1173
    1W        W32749   9.354  12.976   1.461  0.1612  0.4578  0.0068
    1W        W32750  17.165  25.420   1.825  0.1607  0.1321 -0.1928
    1W        W32751  20.284  20.297   0.586  0.1595  0.1062  0.1494
    1W        W32752   8.366  25.211   0.693  0.0844 -0.2314 -0.3426
    1W        W32753  10.314  22.910   0.560  0.0053  0.0349 -0.0952
    1W        W32754  23.387   0.388   0.424 -0.0601  0.0723 -0.0073
    1W        W32755  18.539   0.734   9.259  0.0687 -0.0243 -0.1019
    1W        W32756  23.779  17.715   8.195  0.3737  0.0083  0.0057
    1W        W32757  26.064  26.627   8.602 -0.1166  0.2036  0.3558
    1W        W32758   0.471  28.658   2.407  0.1336  0.1482 -0.2069
    1W        W32759   6.385  16.916   9.060 -0.0884  0.3823 -0.0939
    1W        W32760  10.607  24.679   7.388  0.2406 -0.1935 -0.0548
    1W        W32761   7.956  18.207   0.951  0.2108 -0.2077 -0.2123
    1W        W32762   9.015  12.988   8.343 -0.2005 -0.1389 -0.1797
    1W        W32763  18.060  15.670   0.555  0.2688 -0.1827 -0.2002
    1W        W32764  12.537  11.459   7.686 -0.0826 -0.3881  0.2309
    1W        W32765  28.626  10.132   1.618 -0.0837  0.0122  0.2865
    1W        W32766   0.041   9.462   6.524  0.1270  0.1353 -0.2178
    1W        W32767  14.788   4.319   8.012 -0.1515  0.2965 -0.1353
    1W        W32768   0.339   4.522   6.402 -0.0850 -0.0505 -0.0174
    1W        W32769  24.005  17.986   7.566 -0.0188 -0.1430 -0.1821
    1W        W32770  26.357  18.048   0.098  0.3566  0.0486  0.0422
    1W        W32771   9.904   3.690   0.247 -0.1970  0.1633 -0.1653
    1W        W32772  10.676  27.064   1.622 -0.3245 -0.0091 -0.0116
    1W        W32773  21.849  13.762   7.687 -0.1846 -0.0289 -0.1479
    1W        W32774  22.360  19.066   7.888 -0.2571  0.0723  0.0852
    1W        W32775  23.729  18.703   0.478  0.2180 -0.0598  0.1179
    1W        W32776  14.658  11.443   0.116 -0.2983  0.0837  0.1356
    1W        W32777   3.848   1.960   0.068  0.0945 -0.0058  0.0119
    1W        W32778  19.934  16.622   1.354  0.0661  0.1354 -0.0117
    1W        W32779   3.256   1.432   2.148  0.1624 -0.0059 -0.0357
    1W        W32780   6.103  27.308   9.389  0.2999 -0.1364 -0.0190
    1W        W32781  17.294  21.913   2.738 -0.0246 -0.3936  0.0172
    1W        W32782   0.760  13.114   6.552 -0.1695  0.0647 -0.0513
    1W        W32783   2.550  10.169   8.288 -0.2236  0.0113 -0.0255
    1W        W32784   9.838  26.858   0.892 -0.0754  0.2439 -0.4170
    1W        W32785  11.864  17.098   8.168  0.0142  0.0546 -0.0314
    1W        W32786   3.119  17.424   2.765  0.4934  0.0343  0.1115
    1W        W32787  27.455  27.860   8.341  0.4010  0.0619  0.0114
    1W        W32788  10.402  23.390   7.271  0.3458 -0.1502  0.1109
    1W        W32789  11.346  25.076   9.510  0.0315  0.2713 -0.0495
    1W        W32790  23.457  27.741   8.593 -0.0406 -0.0680  0.0492
    1W        W32791   8.157  22.468   7.666 -0.1022 -0.2127  0.0789
    1W        W32792  19.791   5.837   0.432 -0.1261  0.0181 -0.1182
    1W        W32793  18.851   0.739   8.447 -0.1146 -0.2766 -0.0064
    1W        W32794   9.513  10.333   0.731 -0.2742  0.1138  0.1202
    1W        W32795  20.410   3.307   9.224 -0.0053 -0.0876 -0.1524
    1W        W32796   2.359   2.278   0.182  0.4087  0.0358 -0.0464
    1W        W32797  20.925   0.059   1.189 -0.0468 -0.1260 -0.2879
    1W        W32798  19.844  18.646   8.817 -0.0693 -0.1834  0.0258
    1W        W32799  26.932   8.812   7.104  0.0218 -0.1721 -0.0364
    1W        W32800  17.182  28.348   0.238  0.0180  0.1581 -0.0183
    1W        W32801  29.076  25.956   9.640  0.0579 -0.0502 -0.0963
    1W        W32802  21.220  23.193   2.250  0.4025 -0.0782  0.4004
    1W        W32803  11.179  12.459   5.245  0.1255 -0.3771 -0.0946
    1W        W32804  17.176   6.458   0.189 -0.4742 -0.3349  0.0149
    1W        W32805  22.391   2.668   7.733 -0.2155  0.1112 -0.4847
    1W        W32806   5.544  28.989   0.192  0.0718 -0.2060  0.0926
    1W        W32807  15.251   7.830   7.850 -0.1946 -0.0009 -0.0745
    1W        W32808  27.037   2.916   0.982 -0.3344  0.1275 -0.0477
    1W        W32809   6.701   6.641   8.304 -0.0576 -0.1503  0.1047
    1W        W32810  15.301   1.507   0.227  0.0815  0.1724  0.5916
    1W        W32811  27.660   1.604   1.024  0.2014 -0.4728 -0.0055
    1W        W32812  25.194   4.887   7.935 -0.0287 -0.1223  0.2411
    1W        W32813   4.838  22.736   1.435  0.2349  0.1753 -0.1014
    1W        W32814  24.698  16.560   0.712  0.0870 -0.0255 -0.1412
    1W        W32815  24.993  17.528   8.333  0.1199 -0.1164 -0.0003
    1W        W32816   3.862   2.938   0.883 -0.2267  0.1795 -0.1007
    1W        W32817  19.177  23.673   1.058 -0.0011  0.1806  0.1276
    1W        W32818   5.248  27.818   1.428 -0.1322 -0.4096 -0.0131
    1W        W32819  21.936   1.399   8.543 -0.2426 -0.0144  0.0403
    1W        W32820  13.466   9.952   8.391 -0.0261 -0.0107 -0.1037
    1W        W32821   4.263  13.692   0.354 -0.1146 -0.0272  0.0651
    1W        W32822  23.964  11.918   9.538  0.2974 -0.2757  0.1090
    1W        W32823   2.752  20.486   8.591 -0.0996 -0.0050  0.0516
    1W        W32824   7.305  29.106   0.032  0.1350 -0.1058 -0.3523
    1W        W32825  10.658  20.036   1.619 -0.0172 -0.1724 -0.1851
    1W        W32826   8.742   4.799   5.974 -0.0919 -0.2696 -0.2116
    1W        W32827   6.327  29.058   9.239  0.1496  0.2205  0.0529
    1W        W32828  18.553  10.926   7.496 -0.1113  0.0815 -0.0474
    1W        W32829  11.649  17.306   7.206 -0.0586  0.0540 -0.0342
    1W        W32830  23.167   0.513   9.179  0.0861 -0.0065  0.1087
    1W        W32831  15.773  24.686   1.796 -0.1729  0.1394  0.0291
    1W        W32832   1.839  27.512   0.734  0.4917  0.0758  0.0355
    1W        W32833  11.968  28.574   9.208  0.1529  0.1254 -0.3475
    1W        W32834   1.772  29.571   9.423  0.0047 -0.0246 -0.3189
    1W        W32835   0.718   1.693   0.603 -0.0518 -0.1841 -0.1311
    1W        W32836  15.514  27.026   1.373  0.1137 -0.1369 -0.1416
    1W        W32837  24.678   4.626   9.438  0.0947  0.2862 -0.0681
    1W        W32838   8.867  27.116   1.186  0.0234  0.1921  0.0324
    1W        W32839  11.415   5.723   9.576  0.0532 -0.0158  0.0659
    1W        W32840  10.334  11.972   5.465 -0.0603  0.2860 -0.2689
    1W        W32841   4.669  14.708   6.503 -0.0132  0.2114  0.0533
    1W        W32842  26.712   1.395   2.691 -0.1480 -0.2551  0.1987
    1W        W32843  12.420  15.847   1.691 -0.0363  0.2071 -0.0163
    1W        W32844  17.083  22.971   2.836  0.0225 -0.1031 -0.2053
    1W        W32845  22.963  20.779   8.458  0.0809 -0.1296  0.1536
    1W        W32846  16.548  12.082   8.700  0.0021 -0.1526 -0.1627
    1W        W32847   7.991   8.732   6.624  0.2137 -0.1774 -0.0271
    1W        W32848  13.097  15.704   2.869  0.2080 -0.0151 -0.0051
    1W        W32849  16.972   6.214   8.235  0.0963  0.2592  0.1895
    1W        W32850  21.191  13.817   0.938  0.0684 -0.0845  0.0836
    1W        W32851  20.464  21.764   2.397 -0.0096  0.1162  0.1853
    1W        W32852  13.355   1.214   9.133 -0.1153  0.1541  0.0961
    1W        W32853  10.315   7.417   0.031 -0.0972  0.4784 -0.2191
    1W        W32854   3.685  21.219   9.107  0.3687  0.1711 -0.5263
    1W        W32855  13.365  24.357   7.397  0.1796  0.1928  0.0762
    1W        W32856   7.688   4.255   8.174  0.3383 -0.0955 -0.0087
    1W        W32857   8.613   8.761   6.235 -0.0874  0.1147 -0.3971
    1W        W32858  24.670   5.911   0.604 -0.0451 -0.0013 -0.0412
    1W        W32859  17.259  17.550   2.316 -0.0333 -0.0919 -0.4044
    1W        W32860   3.191   0.950   2.333 -0.0733 -0.2230  0.1344
    1W        W32861   5.889  11.351   0.943  0.2368  0.0037  0.1575
    1W        W32862  10.033   4.591   0.451  0.1011  0.0312 -0.0482
    1W        W32863   3.765  28.373   7.789  0.0257 -0.1187 -0.2215
    1W        W32864  26.723  25.414   0.518 -0.0797 -0.1850  0.2465
    1W        W32865  29.352  19.719   2.597 -0.2993 -0.0774  0.0373
    1W        W32866  24.584  20.495   0.658  0.0873 -0.0222  0.0670
    1W        W32867  21.003  22.368   7.673 -0.4883 -0.0099 -0.1598
    1W        W32868  15.023  20.301   1.532 -0.2689  0.0340 -0.1024
    1W        W32869  24.629   5.616   1.941 -0.0518  0.1037 -0.0555
    1W        W32870   0.779   9.509   8.293  0.0704  0.3942 -0.1561
    1W        W32871   8.280   0.563   6.147 -0.0901  0.0406  0.0408
    1W        W32872  21.233  21.503   1.117  0.0381 -0.2166 -0.1164
    1W        W32873  11.126  14.327   0.440 -0.2240  0.2857  0.0094
    1W        W32874  11.694  15.754   1.051 -0.0680 -0.2171  0.0043
    1W        W32875  12.853   3.640   0.140  0.2231 -0.1168  0.0803
    1W        W32876  26.634   9.852   8.269  0.4607 -0.0213 -0.1306
    1W        W32877  16.377  26.798   2.030 -0.1678 -0.0468 -0.0516
    1W        W32878  26.718   2.153   1.813  0.0740  0.0393 -0.1052
    1W        W32879   5.008  24.014   7.097  0.3541  0.0091 -0.1433
    1W        W32880   7.074   5.331   5.577 -0.1979 -0.0552 -0.0506
    1W        W32881  27.512   3.872   7.384  0.0443 -0.0258  0.3062
    1W        W32882  27.716   8.840   0.740  0.0196 -0.1593  0.2242
    1W        W32883   5.260  19.254   9.119 -0.0750 -0.0183  0.2210
    1W        W32884   0.199  18.985   8.322 -0.1230  0.0450 -0.0091
    1W        W32885   4.221  21.746   1.518  0.2549  0.2518  0.0125
    1W        W32886  29.211  23.081   1.012 -0.2936  0.0881  0.0247
    1W        W32887   9.578  15.362   6.487 -0.1948  0.0504 -0.2428
    1W        W32888  21.525  25.131   2.329 -0.2318  0.0353 -0.0508
    1W        W32889  21.530  27.187   7.835 -0.0672 -0.0905  0.1804
    1W        W32890   3.850  21.492   7.820 -0.4136  0.4231 -0.0934
    1W        W32891   0.854  15.698   8.290 -0.1682  0.0514  0.1429
    1W        W32892  19.575  12.435   1.304  0.1284 -0.2392 -0.0270
    1W        W32893  26.614   9.012   0.474  0.0100 -0.1966  0.1513
    1W        W32894  10.852  28.781   0.435  0.1488  0.0252 -0.1270
    1W        W32895  21.406  12.601   8.801  0.1439  0.0682 -0.0529
    1W        W32896  15.543  25.738   0.544  0.0240  0.0587 -0.0708
    1W        W32897   3.701  14.759   0.172  0.1281 -0.1228 -0.2990
    1W        W32898   4.051   2.289   1.388 -0.3399 -0.3132 -0.2056
    1W        W32899  12.237   6.922   8.247  0.0715 -0.1716  0.0827
    1W        W32900   9.596   5.364   8.532 -0.0504 -0.2220 -0.0902
    1W        W32901  11.038  25.094   8.528  0.0564 -0.1839 -0.1533
    1W        W32902  14.745  14.867   2.553  0.2712  0.1317 -0.0176
    1W        W32903  22.207  13.623   9.415 -0.2570  0.3172 -0.1857
    1W        W32904   3.951  18.039   1.030  0.2340 -0.1918  0.1144
    1W        W32905   7.496   3.739   1.940  0.1122  0.0457  0.1180
    1W        W32906  21.495  13.453   8.060  0.1811 -0.0100 -0.1704
    1W        W32907   5.123  15.221   6.884  0.1727  0.0860  0.2588
    1W        W32908   9.363  27.084   0.287  0.0328 -0.2866 -0.2403
    1W        W32909  28.130  28.301   9.027 -0.1159 -0.2302 -0.0388
    1W        W32910  15.083   4.026   9.335  0.2172  0.3180  0.1975
    1W        W32911  27.623  23.779   0.275  0.2083  0.0891 -0.0842
    1W        W32912  12.332  24.393   1.861 -0.1031 -0.0358 -0.0884
    1W        W32913  23.576  10.855   0.534  0.3355  0.0684 -0.4889
    1W        W32914  22.484   5.189   0.761  0.1025 -0.0706  0.0118
    1W        W32915  27.133  21.076   0.781  0.1299  0.0468  0.1503
    1W        W32916  11.034  10.412   2.121  0.0034 -0.1042 -0.2686
    1W        W32917   5.515   7.294   0.814  0.1153 -0.0783 -0.2508
    1W        W32918   7.145   9.887   8.944 -0.0370 -0.2837  0.1349
    1W        W32919  10.988  14.466   6.714  0.0346  0.2990  0.1170
    1W        W32920  27.819   1.958   9.311 -0.2049 -0.4784  0.0907
    1W        W32921   9.390  14.808   6.200 -0.1153  0.1656 -0.0376
    1W        W32922  15.489  21.605   2.092  0.1085 -0.0246 -0.2881
    1W        W32923  26.504   0.331   0.659 -0.3635  0.4591 -0.2143
    1W        W32924  13.918   0.542   0.921  0.3873 -0.1004 -0.2239
    1W        W32925   0.566  12.566   8.119 -0.3321 -0.1673  0.0845
    1W        W32926   8.268  10.791   1.452  0.1730 -0.0287  0.0185
    1W        W32927  13.312  22.291   8.049 -0.0529 -0.2242  0.0514
    1W        W32928  26.122  19.669   2.141  0.4087 -0.0870  0.0193
    1W        W32929  15.328  15.253   8.934 -0.0774  0.0548 -0.1580
    1W        W32930   5.680  16.763   2.658 -0.1416 -0.0013 -0.2185
    1W        W32931   1.230  20.780   0.080  0.2086  0.2605 -0.1423
    1W        W32932  10.636  11.469   9.354 -0.1347  0.1345  0.1056
    1W        W32933  18.050  20.495   8.686  0.2032  0.2071  0.1005
    1W        W32934  25.806  14.669   9.633  0.1921  0.0157  0.2088
    1W        W32935  11.707   7.069   0.197  0.1848  0.1034 -0.1009
    1W        W32936   2.593   4.847   0.312 -0.1023 -0.0519 -0.0277
    1W        W32937  21.325  25.772   2.061 -0.0538 -0.2236  0.1104
    1W        W32938  12.878  11.481   6.908  0.0552 -0.3066 -0.0619
    1W        W32939  18.722   5.222   2.246 -0.0984 -0.0157  0.1804
    1W        W32940   7.689  23.321   2.594 -0.2307 -0.2719 -0.1975
    1W        W32941  15.023  29.162   9.476  0.2883  0.2575 -0.2748
    1W        W32942  14.439   1.019   8.923  0.1484  0.2756 -0.3060
    1W        W32943  19.190  14.177   7.285 -0.1281  0.1672  0.1356
    1W        W32944  24.560  28.926   7.997  0.1861 -0.2756  0.2721
    1W        W32945  19.154  26.448   3.236  0.1896  0.0184  0.2315
    1W        W32946  13.319   4.685   2.051  0.1230 -0.2998 -0.3335
    1W        W32947   9.062   9.283   2.171  0.3566 -0.1452  0.2690
    1W        W32948  28.670   7.974   0.377  0.2656  0.0657  0.2413
    1W        W32949  11.915  21.255   0.174 -0.0123  0.1896 -0.0012
    1W        W32950  10.293  21.701   7.158  0.4288 -0.1416 -0.1976
    1W        W32951  23.486   0.246   8.141 -0.0271  0.0646 -0.1680
    1W        W32952  27.483  17.905   7.150  0.0472 -0.1900  0.2118
    1W        W32953  16.725  27.947   7.852 -0.0532 -0.3424 -0.1101
    1W        W32954   4.627  27.946   0.023  0.1432  0.2891  0.0033
    1W        W32955  10.746   6.696   6.794  0.0246 -0.3010 -0.3532
    1W        W32956  17.027  16.832   2.173  0.0962 -0.0639 -0.2765
    1W        W32957  11.692   5.622   8.063 -0.0114 -0.0063 -0.2337
    1W        W32958  14.266   1.903   7.146  0.0650  0.1344 -0.1024
    1W        W32959  24.514  21.202   0.149  0.1653  0.2826 -0.0182
    1W        W32960  22.738  25.078   7.213 -0.0941 -0.0837  0.1804
    1W        W32961  16.278   9.187   8.970  0.1024 -0.2435 -0.1012
    1W        W32962  20.220  28.582   1.660  0.0985  0.1955  0.1072
    1W        W32963  24.681  14.353   0.584  0.1666  0.1530  0.0736
    1W        W32964  14.386   1.739   2.636 -0.1768  0.2619  0.2865
    1W        W32965   9.261   9.855   7.981 -0.2536 -0.1047 -0.0584
    1W        W32966   0.790  28.865   1.854  0.0734 -0.3251  0.3422
    1W        W32967   4.954  25.286   3.537  0.1202  0.0372  0.1372
    1W        W32968  25.179   5.408   0.760 -0.2376 -0.0921  0.1063
    1W        W32969   3.912  24.411   2.945 -0.1024 -0.1704  0.1459
    1W        W32970  11.067  23.497   2.682 -0.0134  0.1385  0.1184
    1W        W32971   8.475   6.944   9.328  0.1887  0.3633  0.2235
    1W        W32972  28.673   5.139   2.268  0.1723 -0.0039 -0.3718
    1W        W32973  18.127  24.630   9.441 -0.0233  0.0964  0.2738
    1W        W32974   2.287  28.733   2.467  0.1549  0.2026  0.1210
    1W        W32975  12.617  13.152   8.020 -0.0714  0.0579  0.0941
    1W        W32976  11.492   8.228   6.984  0.1647 -0.1263  0.1367
    1W        W32977  25.038   7.583   6.713  0.2588 -0.2194  0.2930
    1W        W32978  10.619  13.046   0.613  0.1527  0.0846 -0.2675
    1W        W32979   9.322  21.380   7.332 -0.0527  0.1915 -0.1129
    1W        W32980  21.732  12.764   8.474  0.0863  0.1319 -0.0848
    1W        W32981   6.667  20.212   2.051 -0.2683  0.0621 -0.2353
    1W        W32982  14.895  23.704   1.726 -0.0611 -0.0593 -0.0681
    1W        W32983   5.537   7.021   7.746  0.1382 -0.2445  0.3524
    1W        W32984  10.960  23.709   0.017  0.2644 -0.0820  0.1257
    1W        W32985   9.040   9.275   7.524 -0.3384  0.2453 -0.1287
    1W        W32986  10.954  26.669   6.657  0.0719  0.0764 -0.2682
    1W        W32987   3.835   2.362   8.802  0.1439 -0.0198  0.0194
    1W        W32988  28.606   9.645   1.709  0.2436  0.1128  0.0191
    1W        W32989  19.207  14.325   7.741  0.2682 -0.0976  0.2043
    1W        W32990  17.121  21.461   2.913 -0.1946 -0.3828 -0.1607
    1W        W32991  21.043   9.768   0.309 -0.2076 -0.1277 -0.0657
    1W        W32992   1.168  13.801   2.386 -0.3669 -0.0739  0.1636
    1W        W32993  29.474   0.028   7.128 -0.1515  0.2736 -0.0519
    1W        W32994   5.888  21.262   0.830  0.2911  0.1888 -0.0205
    1W        W32995  23.225   6.812   7.876  0.0408 -0.0122 -0.0722
    1W        W32996  22.870  26.856   7.415  0.2872  0.0662  0.1727
    1W        W32997   8.203   5.635   0.684  0.0406  0.3141 -0.0687
    1W        W32998  17.842  12.012   9.275  0.0107 -0.2783 -0.0596
    1W        W32999  23.310  27.977   2.108 -0.1237  0.3603  0.0875
    1W        W33000  10.466   3.843   7.696  0.0483  0.3084 -0.1700
    1W        W33001  28.460  11.760   8.537  0.0193 -0.1825  0.0728
    1W        W33002  25.768  22.922   6.916 -0.2135 -0.1126 -0.0442
    1W        W33003  18.418   9.446   2.950  0.1997  0.0617  0.2361
    1W        W33004  20.554  16.857   0.653  0.0252 -0.1010  0.1789
    1W        W33005   7.215  17.510   8.789  0.0548 -0.2836  0.5289
    1W        W33006  14.805   3.171   7.579  0.1561 -0.0872 -0.0078
    1W        W33007  27.978  22.328   7.866  0.0354  0.0727 -0.1340
    1W        W33008   8.440  25.333   1.267 -0.0358  0.2295 -0.1123
    1W        W33009   4.157  27.033   0.286  0.0819 -0.1134 -0.2986
    1W        W33010   5.591  28.149   3.050 -0.0420 -0.2000  0.0834
    1W        W33011   1.154  22.466   1.454 -0.0710  0.3699 -0.2064
    1W        W33012  20.728  25.252   7.720 -0.1899  0.2807 -0.0468
    1W        W33013  22.276   4.303   1.972  0.2425 -0.0758  0.0324
    1W        W33014   7.832  15.084   9.084 -0.1171 -0.2337 -0.1847
    1W        W33015   9.218   9.624   1.436 -0.1002  0.0184 -0.0643
    1W        W33016  21.953  23.925   8.672 -0.1230  0.0834 -0.2141
    1W        W33017  19.945  25.236   2.828  0.0254  0.0550 -0.0305
    1W        W33018   0.614  23.428   0.544  0.1453  0.2776 -0.0834
    1W        W33019   1.859  24.065   3.549 -0.1090 -0.1325 -0.1182
    1W        W33020  12.459  12.548   1.942  0.4095  0.3157  0.4622
    1W        W33021  14.722  25.588   7.591  0.2065 -0.1926 -0.2128
    1W        W33022   6.245  24.354   8.904  0.0953 -0.2361 -0.3170
    1W        W33023  15.059  22.756   7.210 -0.2328 -0.1407  0.0291
    1W        W33024   4.916   1.225   0.334 -0.1389  0.2031 -0.0189
    1W        W33025  26.584  12.887   8.063  0.1973  0.3772  0.1757
    1W        W33026  27.680  12.454   7.891 -0.1979 -0.2898 -0.0319
    1W        W33027  21.179   4.458   2.765 -0.0081  0.0043  0.0888
    1W        W33028  11.385  21.237   1.526  0.0530 -0.3036 -0.1610
    1W        W33029   6.984   9.854   5.327  0.0183 -0.0600  0.0260
    1W        W33030  16.367  23.876   7.051 -0.0542  0.1326  0.1590
    1W        W33031  24.694  23.222   0.994  0.1825 -0.3041  0.1448
    1W        W33032   6.958   8.345   0.928 -0.0491 -0.0671  0.3463
    1W        W33033  20.270  23.090   0.228  0.1181  0.1857 -0.0342
    1W        W33034  27.695   9.270   7.587  0.0323 -0.0611  0.0358
    1W        W33035  18.712  11.926   1.150 -0.1206  0.4237 -0.0439
    1W        W33036  19.213   5.563   2.850  0.2963 -0.0870 -0.1701
    1W        W33037   5.199  25.541   0.136  0.1112  0.2862 -0.2100
    1W        W33038   9.002   0.607   1.997 -0.4014 -0.0214 -0.0276
    1W        W33039  14.109  18.382   8.443 -0.0976  0.0137 -0.1882
    1W        W33040  28.100  16.937   2.692  0.0424  0.2726  0.0884
    1W        W33041  25.343  27.635   0.406 -0.0501 -0.2322  0.0429
    1W        W33042   3.250  26.839   6.863 -0.0461  0.0989 -0.1523
    1W        W33043  25.880   1.113   3.096  0.0742  0.2214 -0.2345
    1W        W33044  28.300  15.671   7.696 -0.0621  0.3930  0.0351
    1W        W33045  16.581   7.037   8.169 -0.1396  0.0157  0.1582
    1W        W33046  10.786   1.577   9.062 -0.1490  0.0194  0.0169
    1W        W33047  23.143  11.531   0.764  0.0305  0.1688  0.1561
    1W        W33048   5.409   5.280   7.290 -0.0808 -0.0940  0.2387
    1W        W33049  16.666   6.458   0.212  0.0556 -0.0136  0.0878
    1W        W33050  22.392   9.977   8.513 -0.0239  0.0566 -0.0290
    1W        W33051   6.524   3.796   9.510  0.0822 -0.2371 -0.0481
    1W        W33052   5.533  28.554   8.456  0.5251 -0.1988  0.1173
    1W        W33053  15.358  27.123   7.311 -0.3855 -0.2205  0.0122
    1W        W33054  11.505   8.463   9.500 -0.2240 -0.0294  0.0224
    1W        W33055  22.667   1.376   9.075 -0.0907 -0.1008  0.0281
    1W        W33056  23.767   0.369   9.112  0.0170 -0.0384 -0.2153
    1W        W33057   0.200  22.293   0.293  0.1128 -0.0839  0.4901
    1W        W33058   2.795   7.555   8.072  0.1374  0.1041  0.1076
    1W        W33059  13.159  23.485   6.350  0.2601 -0.1255 -0.3722
    1W        W33060   1.386  25.898   0.497  0.1132  0.1131 -0.1230
    1W        W33061   9.980   2.191   1.119 -0.4191 -0.1354  0.0557
    1W        W33062  19.568  27.779   0.923 -0.0634 -0.4556  0.1760
    1W        W33063   6.133  29.402   8.901 -0.2436  0.1024 -0.0351
    1W        W33064  28.601  24.918   7.097  0.0259 -0.1678 -0.0483
    1W        W33065  14.987  26.720   6.007  0.0338 -0.2694  0.0463
    1W        W33066  11.793   3.237   1.516  0.2540 -0.0204 -0.0745
    1W        W33067  29.332  14.724   7.554  0.2813 -0.0303 -0.2727
    1W        W33068  25.011  24.109   2.589  0.0160  0.1376 -0.0014
    1W        W33069  13.539   3.812   1.770 -0.0323  0.0454 -0.0408
    1W        W33070   3.611  23.907   2.835  0.1377 -0.2091 -0.3890
    1W        W33071  10.176  28.899   8.051  0.0344  0.0055 -0.2245
    1W        W33072  13.129  15.353   0.684  0.1795 -0.0072  0.1618
    1W        W33073  18.725   6.380   0.940  0.1116  0.0065 -0.0912
    1W        W33074  20.902  11.085   2.640 -0.1100  0.1490 -0.0663
    1W        W33075  20.040   1.159   8.081 -0.2585 -0.1681  0.1401
    1W        W33076   4.112  14.742   6.994  0.3798  0.3851 -0.0227
    1W        W33077  16.220  29.481   1.320  0.0531  0.1565  0.1659
    1W        W33078   0.799  23.053   3.429  0.2187 -0.2753  0.1586
    1W        W33079  17.263  26.499   9.519  0.1022 -0.1144  0.0098
    1W        W33080  14.734  24.624   0.362  0.0398 -0.1599 -0.1247
    1W        W33081  15.853  11.415   1.164  0.1499 -0.0740  0.0264
    1W        W33082  24.863  26.065   8.434 -0.0543  0.0068 -0.2265
    1W        W33083   1.496   9.723   6.633 -0.1402 -0.0494  0.0824
    1W        W33084  15.965  10.993   9.253  0.3882  0.0260  0.0368
    1W        W33085  28.760  25.589   0.206  0.0266  0.1266 -0.0652
    1W        W33086   5.762  24.126   9.557  0.1977 -0.6053 -0.1047
    1W        W33087  22.452  28.043   0.872 -0.0731 -0.1929  0.3376
    1W        W33088  13.676  17.157   7.945  0.2161  0.0652 -0.3003
    1W        W33089  23.966  16.100   1.723  0.0001 -0.0015  0.0786
    1W        W33090   9.188  16.025   2.600 -0.1700  0.1600 -0.2045
    1W        W33091   2.375  14.972   8.278 -0.0254  0.0680  0.2455
    1W        W33092  20.851   7.633   1.379  0.1237  0.2665  0.0243
    1W        W33093  16.963  29.231   9.314  0.0105  0.1928 -0.0975
    1W        W33094  27.879  11.639   0.998  0.1194 -0.0210  0.1055
    1W        W33095   1.357   9.319   1.175  0.0754 -0.0076 -0.2879
    1W        W33096   7.765  10.378   5.720  0.0128  0.2461 -0.4327
    1W        W33097   4.393  18.117   7.388 -0.2296  0.1146  0.1087
    1W        W33098  13.203  19.657   1.822  0.1241 -0.1898  0.1657
    1W        W33099  29.354   3.814   6.743  0.1408  0.3667  0.0228
    1W        W33100  22.341  14.141   1.176  0.0416  0.5083 -0.1073
    1W        W33101   7.694  26.762   2.333  0.0603  0.1570  0.2506
    1W        W33102  23.017  23.935   4.031 -0.0309  0.0146  0.1061
    1W        W33103  17.969   0.842   1.747 -0.1816 -0.0267 -0.0262
    1W        W33104  10.663  22.962   9.092 -0.0969  0.0063 -0.1413
    1W        W33105  29.549   8.234   0.059  0.0014  0.1472 -0.1097
    1W        W33106  22.211  27.289   7.885 -0.1852  0.4831  0.0529
    1W        W33107   6.324  17.118   6.854 -0.3733  0.3062 -0.1358
    1W        W33108  26.955   3.324   1.360  0.1435  0.1450 -0.0713
    1W        W33109  25.710  20.103   6.827 -0.1064  0.2884  0.2663
    1W        W33110   2.644  18.675   2.523  0.2554  0.1550  0.1215
    1W        W33111  22.333   1.120   0.404  0.0719 -0.0478 -0.0403
    1W        W33112   2.427   5.959   0.769 -0.0675 -0.1663  0.0885
    1W        W33113   8.711   6.082   7.497  0.3063  0.0107 -0.0114
    1W        W33114  11.350   4.186   0.992  0.1618  0.2248 -0.2199
    1W        W33115   0.425   9.703   1.146 -0.0834 -0.0002  0.2973
    1W        W33116  11.059  25.647   2.301 -0.3638 -0.1300  0.1129
    1W        W33117  16.873   5.812   9.049 -0.1428  0.0333  0.1991
    1W        W33118   6.184  25.494   2.264  0.2779  0.0424 -0.1463
    1W        W33119   4.452  23.354   8.793  0.1603  0.2211 -0.0104
    1W        W33120  23.527  18.923   1.419  0.0727 -0.0149  0.1338
    1W        W33121  22.777  12.763   8.013 -0.0909 -0.0129 -0.0938
    1W        W33122   0.293  19.844   7.977  0.0675  0.2288  0.0375
    1W        W33123   7.596  13.909   7.749  0.0299 -0.3674  0.1362
    1W        W33124   8.738  12.474   8.716  0.1415 -0.3166  0.0496
    1W        W33125  26.684   5.419   0.210  0.2658 -0.2694 -0.2606
    1W        W33126   1.614  15.821   9.426 -0.1543  0.2969 -0.0337
    1W        W33127  27.556  15.270   1.960 -0.1458  0.1592 -0.0115
    1W        W33128   6.764   1.753   2.335 -0.0620  0.1590 -0.0332
    1W        W33129   6.415  13.665   6.130 -0.2505  0.2376  0.1333
    1W        W33130  28.916  26.214   7.148  0.2301  0.1764 -0.1349
    1W        W33131   0.495  13.065   1.573 -0.0229 -0.1876  0.0797
    1W        W33132  28.945  24.780   0.795 -0.0781  0.0805  0.2770
    1W        W33133  27.165  12.461   8.600 -0.0616  0.0954  0.0977
    1W        W33134  26.612  19.913   2.730 -0.0300 -0.1837 -0.3283
    1W        W33135   2.950  16.511   1.033  0.1013  0.1266  0.3114
    1W        W33136  18.171  22.192   8.318 -0.0491 -0.0029  0.1966
    1W        W33137   9.963  14.006   0.800  0.3419 -0.1061  0.0318
    1W        W33138   2.808   6.290   7.161 -0.1386 -0.1150  0.0222
    1W        W33139  14.232  12.822   9.284 -0.2312 -0.1379  0.1083
    1W        W33140  15.832   8.126   0.786 -0.0249  0.1570  0.2907
    1W        W33141  29.326   7.836   0.774 -0.0098 -0.2532 -0.0219
    1W        W33142   3.349   5.167   7.399 -0.1447 -0.0940 -0.0105
    1W        W33143   6.235  13.320   7.279 -0.2050  0.2645  0.0572
    1W        W33144  25.631  26.658   9.608  0.2928  0.0776 -0.2383
    1W        W33145  28.278   3.217   9.346 -0.0632  0.1504  0.0196
    1W        W33146   9.718   9.433   2.381 -0.0671  0.0166 -0.0787
    1W        W33147   9.968  15.353   8.198 -0.0728  0.0057 -0.1928
    1W        W33148   5.043   3.316   7.258 -0.0312  0.1236  0.0034
    1W        W33149   0.858  28.291   2.527  0.0658 -0.1738  0.0270
    1W        W33150   5.043  16.809   1.404 -0.0471  0.0133  0.2114
    1W        W33151   4.192  24.605   0.386 -0.0974 -0.0110 -0.2440
    1W        W33152   7.784   4.248   6.811 -0.0906 -0.2309  0.1550
    1W        W33153  28.480   7.988   7.112 -0.1323 -0.0360  0.1197
    1W        W33154  24.984   4.283   2.155 -0.0750 -0.2478 -0.0644
    1W        W33155   2.417   2.414   9.178  0.0974 -0.0997  0.0835
    1W        W33156  22.953  26.359   7.603  0.2424 -0.3508  0.2362
    1W        W33157  27.414  21.183   1.167 -0.1576 -0.0227 -0.2458
    1W        W33158  15.655   6.743   9.401  0.0680 -0.0965 -0.1248
    1W        W33159   9.397  24.817   7.731  0.1328  0.1185  0.1883
    1W        W33160  28.127   0.187   8.966 -0.1916  0.1351  0.1119
    1W        W33161  17.346   8.273   8.610  0.0498  0.2972  0.1314
    1W        W33162   8.454  19.399   1.136 -0.2538 -0.0579  0.0679
    1W        W33163   6.810   9.312   0.495 -0.0361  0.0924 -0.2135
    1W        W33164   8.362  12.946   5.670 -0.2408  0.1412 -0.2764
    1W        W33165  28.094  28.909   0.126  0.0008 -0.1254 -0.1702
    1W        W33166  15.637  18.315   0.330 -0.2187 -0.0965 -0.1306
    1W        W33167  22.279  25.521   3.168  0.1205  0.1627  0.0387
    1W        W33168  15.276  26.533   8.908 -0.1328  0.0616 -0.2678
    1W        W33169   4.666  14.289   0.706  0.1704 -0.0992  0.1665
    1W        W33170  12.502   8.186   8.663  0.2122  0.1867  0.1157
    1W        W33171  14.865  19.269   7.222  0.1181 -0.2719  0.0700
    1W        W33172   4.870   0.928   7.090  0.2287  0.1288  0.0551
    1W        W33173   5.852  28.570   0.316 -0.1823 -0.1726  0.0604
    1W        W33174  21.468  21.936   8.738  0.1328 -0.3003  0.4333
    1W        W33175  27.855  23.646   0.914  0.2306  0.1728  0.4500
    1W        W33176  17.056   2.045   0.002  0.0247  0.1514 -0.0777
    1W        W33177   6.920  14.742   6.508  0.0757 -0.0850 -0.1656
    1W        W33178  12.619  14.681   8.810  0.1580 -0.0755 -0.2531
    1W        W33179   2.797  17.076   6.648  0.0263  0.1773 -0.1044
    1W        W33180   2.121  27.137   1.202  0.1403 -0.1999  0.0699
    1W        W33181  20.394  16.535   1.336  0.0328  0.3952 -0.1484
    1W        W33182  15.203  12.694   8.262 -0.0405  0.0946  0.0133
    1W        W33183  24.387  27.656   8.446 -0.2500  0.2987 -0.0323
    1W        W33184   1.130  27.283   8.954 -0.1541 -0.2687 -0.2209
    1W        W33185   1.655   8.686   1.811 -0.3733  0.2431 -0.1269
    1W        W33186  10.970   8.719   6.166 -0.0581 -0.1771  0.1423
    1W        W33187  21.512   3.532   0.536  0.1490 -0.0225  0.1667
    1W        W33188  17.604   5.334   9.128 -0.2487 -0.2960  0.3462
    1W        W33189   3.791   6.683   6.395 -0.1517  0.1288 -0.0153
    1W        W33190   6.604   6.964   6.254 -0.2817  0.0338  0.1844
    1W        W33191   0.353  19.093   9.343 -0.0151  0.0160 -0.2427
    1W        W33192   3.781  11.048   7.201 -0.1571  0.2269  0.3073
    1W        W33193   8.058  11.761   9.049  0.0386  0.0815 -0.1970
    1W        W33194  19.790  20.040   9.097 -0.2757  0.3770  0.1349
    1W        W33195  27.174  21.288   7.521  0.0353  0.1359  0.0491
    1W        W33196  13.284   2.263   7.427  0.0065 -0.0072  0.0719
    1W        W33197   0.545   9.890   0.654 -0.2841 -0.1227  0.4920
    1W        W33198   8.088  28.722   2.376 -0.1577  0.2084  0.1435
    1W        W33199  20.147  23.229   7.162  0.0705  0.0453  0.2451
    1W        W33200  13.547   4.895   9.454  0.2604  0.0061 -0.2142
    1W        W33201   1.989   3.628   1.212 -0.0720 -0.4652 -0.2019
    1W        W33202  21.213   6.106   7.876  0.1134 -0.0271  0.0824
    1W        W33203  28.735  12.572   6.684 -0.0600  0.3413 -0.0577
    1W        W33204  10.367  28.566   8.322 -0.0449 -0.0456 -0.2263
    1W        W33205  17.153  13.403   9.357  0.2845 -0.0380 -0.0456
    1W        W33206  16.979  14.285   7.509  0.0586  0.1105 -0.1753
    1W        W33207  11.352  27.953   2.325  0.0066  0.2104  0.1478
    1W        W33208  28.795  11.930   9.629  0.1184 -0.1162 -0.2072
    1W        W33209  23.660  27.631   1.031  0.2666  0.0905 -0.1439
    1W        W33210   7.016  15.981   8.107 -0.1258  0.2786 -0.0449
    1W        W33211   3.305  14.103   0.822 -0.1275 -0.0742 -0.0250
    1W        W33212  17.964  18.462   8.322 -0.2245  0.2676 -0.2108
    1W        W33213  15.680  18.745   7.049 -0.0351  0.2949  0.1423
    1W        W33214  28.238  17.125   0.075  0.1233  0.1873  0.1094
    1W        W33215  11.506   6.080   8.955 -0.1272  0.1578  0.1633
    1W        W33216   6.534  29.180   6.927  0.0699 -0.0847  0.2993
    1W        W33217   7.927   6.681   1.669 -0.1189  0.1340 -0.1701
    1W        W33218   6.037  15.041   1.337  0.2144 -0.0459  0.0185
    1W        W33219  26.870   0.683   9.507 -0.1561  0.2326  0.0680
    1W        W33220  17.242   5.031   7.476  0.4400 -0.0230  0.0014
    1W        W33221   7.822  26.854   6.875 -0.0631  0.0820 -0.0690
    1W        W33222   1.088   1.023   7.966  0.1222 -0.0432  0.1121
    1W        W33223   4.720  10.225   7.990 -0.1257  0.1047  0.0578
    1W        W33224  12.403  27.849   7.425 -0.2005  0.2743 -0.1791
    1W        W33225  16.043  15.093   0.029  0.1229 -0.1038  0.0271
    1W        W33226  25.348  27.273   2.358 -0.2016 -0.1275  0.0516
    1W        W33227  20.949   2.488   7.258  0.1823  0.1500 -0.1136
    1W        W33228   2.024  29.169   9.645 -0.0936  0.1864 -0.1632
    1W        W33229  21.500  12.460   1.334  0.2047  0.2095  0.1742
    1W        W33230   4.342  12.011   0.456 -0.1191  0.0915  0.1008
    1W        W33231   4.092  24.156   9.495  0.1339  0.2624 -0.3580
    1W        W33232   0.334  13.339   8.530  0.0144  0.1957 -0.2355
    1W        W33233   5.838   5.621   9.277 -0.2783 -0.2589 -0.0566
    1W        W33234  26.381   6.689   0.723  0.2394  0.1849 -0.3483
    1W        W33235  28.146  27.864   0.320  0.0085 -0.1751  0.0447
    1W        W33236   0.417  21.762   1.610 -0.0725  0.1290 -0.0729
    1W        W33237  26.862  27.372   9.317 -0.2178 -0.2579 -0.1078
    1W        W33238  21.848   9.219   9.397 -0.0142  0.0433 -0.1884
    1W        W33239  24.624  20.235   1.951  0.1469  0.0391  0.2712
    1W        W33240   7.733  28.852   7.551  0.1028  0.1084  0.0651
    1W        W33241  21.289   4.971   9.209  0.1696  0.0423  0.1214
    1W        W33242  11.199   6.467   7.774  0.0290 -0.0820 -0.2262
    1W        W33243   7.837  13.777   9.560 -0.2036  0.1256 -0.2174
    1W        W33244   1.693   2.742   8.014 -0.0722  0.0643  0.1824
    1W        W33245  20.927  11.998   0.841 -0.0392  0.1071 -0.2791
    1W        W33246  16.557  26.586   1.606 -0.0831  0.1944  0.1327
    1W        W33247  16.808  11.256   7.185  0.0775  0.0525 -0.0862
    1W        W33248   8.571   8.324   8.038  0.0425  0.2874  0.1856
    1W        W33249  20.018  20.059   2.802 -0.1447  0.1459 -0.0575
    1W        W33250  27.209   4.048   9.505 -0.0258 -0.1593  0.2255
    1W        W33251  22.887   1.856   1.991 -0.1801  0.0182 -0.2722
    1W        W33252   5.543   3.086   1.517  0.1550  0.0915  0.2240
    1W        W33253  13.691  14.522   7.187 -0.0731 -0.2412  0.1851
    1W        W33254  10.063  23.591   8.180  0.3827 -0.0557  0.0954
    1W        W33255  17.236   0.131   2.070 -0.1840 -0.0353 -0.1622
    1W        W33256   2.458  15.583   0.555  0.0363 -0.1378 -0.0465
    1W        W33257   8.942   1.471   7.663 -0.1211  0.5742 -0.0527
    1W        W33258   3.206   7.579   8.605 -0.0445  0.1639 -0.0395
    1W        W33259  10.290   0.370   0.825 -0.1132  0.0994  0.0576
    1W        W33260  19.500  26.976   2.067  0.1308  0.0239  0.4562
    1W        W33261  11.356   8.736   7.113  0.1091  0.0461  0.0999
    1W        W33262   4.717  10.093   2.196  0.4544  0.0912 -0.0525
    1W        W33263  22.326  11.184   2.905 -0.0999  0.2183 -0.2057
    1W        W33264  22.892   4.981   0.566 -0.2526 -0.2360  0.3010
    1W        W33265  10.848   2.642   8.957 -0.0243  0.0011 -0.0455
    1W        W33266   7.629  13.738   2.177  0.0084  0.0193 -0.0851
    1W        W33267  13.492  16.071   6.899  0.0237 -0.1708 -0.0667
    1W        W33268   4.684  25.960   0.388  0.1867  0.0760  0.0547
    1W        W33269   4.637  12.302   0.719 -0.0624  0.0094  0.1929
    1W        W33270  15.444   3.050   9.270  0.1466  0.3609 -0.0357
    1W        W33271  20.308   4.113   8.185  0.4207 -0.1258 -0.1627
    1W        W33272   9.828   8.230   6.419 -0.0912 -0.4404  0.2856
    1W        W33273  16.771  22.767   0.195 -0.2217  0.1001  0.4426
    1W        W33274   0.837   6.073   9.168 -0.5153 -0.0452 -0.2521
    1W        W33275  16.887  26.615   2.836  0.1505  0.0612 -0.4310
    1W        W33276  10.941   5.627   9.354  0.0063  0.0940  0.5296
    1W        W33277  14.522  20.291   1.760  0.3335  0.0464  0.3005
    1W        W33278   0.558  13.011   2.465  0.2909  0.1235  0.2066
    1W        W33279  10.430  15.630   8.320  0.0384 -0.0626  0.1081
    1W        W33280  27.319   6.835   8.296  0.2065  0.0846  0.1547
    1W        W33281   9.366  20.721   9.096  0.1404  0.0678  0.0244
    1W        W33282   3.449   8.979   6.582  0.1102  0.0195 -0.0772
    1W        W33283   9.265  17.087   8.281 -0.2587  0.1683  0.0414
    1W        W33284  29.044   8.202   8.405  0.0933 -0.1654  0.1205
    1W        W33285  26.057   2.854   7.807  0.1056  0.0764  0.4558
    1W        W33286  29.362  14.000   2.608  0.1397  0.1146 -0.0275
    1W        W33287  23.006  14.266   1.702  0.0261 -0.5093 -0.2794
    1W        W33288   9.113  19.405   9.434 -0.5492  0.1915  0.1950
    1W        W33289  26.612  25.416   7.790 -0.2338 -0.1503 -0.3925
    1W        W33290  12.013  24.613   1.494 -0.0754 -0.0358 -0.0272
    1W        W33291  18.052  23.351   2.526  0.1394 -0.1700 -0.2908
    1W        W33292  11.818  23.159   1.203  0.2783  0.0909  0.0009
    1W        W33293  26.179  25.278   1.057 -0.0128 -0.3586  0.2447
    1W        W33294  18.647   0.542   2.228 -0.0171  0.0837  0.1308
    1W        W33295  20.916  24.887   0.862 -0.2026 -0.0287 -0.2351
    1W        W33296  29.383   6.662   0.806 -0.2569  0.0963  0.1374
    1W        W33297   9.720  25.368   1.674 -0.3827  0.0049  0.2305
    1W        W33298  18.955   1.544   7.462 -0.2847  0.2417  0.1394
    1W        W33299  26.206  21.770   8.540  0.1647  0.1421  0.0476
    1W        W33300  19.481  28.628   3.109  0.2043 -0.1631  0.1437
    1W        W33301  13.063  23.157   1.628 -0.3981 -0.0158  0.0961
    1W        W33302  21.062  10.995   8.581  0.0923  0.0508 -0.0335
    1W        W33303  23.744   5.115   7.882 -0.0223 -0.2007  0.0955
    1W        W33304  23.237  20.567   1.995 -0.2378  0.0332 -0.2335
    1W        W33305   5.331   3.067   9.284 -0.1540  0.0137  0.0389
    1W        W33306  10.237  11.853   8.715 -0.4215  0.4603  0.1512
    1W        W33307  29.144   0.228   8.050  0.2095  0.0497  0.0240
    1W        W33308   3.530  23.452   9.160  0.3616 -0.1036 -0.0405
    1W        W33309  23.200   1.744   6.626  0.1222 -0.4408  0.1351
    1W        W33310  22.813  24.693   0.420 -0.1706 -0.0491  0.0060
    1W        W33311  19.752   1.920   6.855  0.2672  0.0630  0.2056
    1W        W33312   1.772  22.681   7.878 -0.2211  0.1406 -0.0184
    1W        W33313   8.157  16.066   0.359 -0.1665 -0.0401 -0.0082
    1W        W33314   2.753  28.664   6.821  0.4251  0.0884 -0.0555
    1W        W33315   7.430  28.212   0.618  0.2836 -0.2419  0.2725
    1W        W33316  24.470  11.115   9.239 -0.3159  0.2761 -0.2004
    1W        W33317  23.675   5.371   2.392  0.0691  0.0318  0.0765
    1W        W33318  17.790   0.907   1.098  0.0150  0.0159 -0.0922
    1W        W33319   5.653  13.690   1.566 -0.1061 -0.2787 -0.1152
    1W        W33320   8.248   6.685   6.950  0.2354 -0.0747 -0.0818
    1W        W33321  24.793   0.668   8.617  0.0743 -0.0057 -0.0164
    1W        W33322  22.452   7.274   7.414  0.0560  0.1256 -0.1342
    1W        W33323  22.351   9.319   9.509 -0.3920  0.0777  0.2764
    1W        W33324  11.913  21.666   9.371 -0.1979  0.1376  0.2056
    1W        W33325  26.264  20.971   8.996 -0.3855  0.1401  0.4458
    1W        W33326  17.641  10.982   7.797  0.1470  0.0215 -0.0880
    1W        W33327  23.217   2.143   1.733  0.0074  0.2984 -0.0288
    1W        W33328  23.252   3.502   1.815  0.0223 -0.0730 -0.0081
    1W        W33329  28.730   1.509   9.490 -0.0121  0.2111 -0.1931
    1W        W33330   5.953   6.181   7.221 -0.0066  0.1512 -0.4991
    1W        W33331  28.464  26.223   3.241  0.1893  0.0879  0.1623
    1W        W33332  20.872   9.151   2.686 -0.0939 -0.0284 -0.1200
    1W        W33333   5.324  19.063   0.912 -0.0143 -0.3506 -0.1298
    1W        W33334  22.036  20.627   8.775  0.3181  0.0926  0.0573
    1W        W33335  15.058  16.083   8.843  0.0017  0.0466  0.0989
    1W        W33336  10.036  20.913   6.020  0.0735  0.1648 -0.1631
    1W        W33337   9.920   4.290   1.303 -0.1964  0.2394  0.1299
    1W        W33338   8.656  15.134   8.028 -0.0715 -0.3082  0.3784
    1W        W33339  18.264   3.354   1.842 -0.1279  0.0564 -0.1533
    1W        W33340   4.022  21.420   8.365  0.1794  0.2047  0.0182
    1W        W33341  21.058   8.424   1.377  0.1962  0.0220 -0.0658
    1W        W33342   0.457  28.792   7.407  0.1487 -0.3974  0.0131
    1W        W33343   2.307   7.540   7.799 -0.1527  0.1382  0.1414
    1W        W33344  18.000   9.189   7.776 -0.1456 -0.0870  0.0571
    1W        W33345  28.480   7.114   6.617  0.1125 -0.2761 -0.0563
    1W        W33346  10.230  20.074   7.178  0.2215  0.1400 -0.1241
    1W        W33347   0.513  21.284   8.613 -0.2318 -0.1688 -0.1452
    1W        W33348   4.786  24.123   9.296  0.1155 -0.3814  0.1595
    1W        W33349   8.825  21.935   1.022 -0.0906  0.0263  0.0672
    1W        W33350   1.059  28.902   9.492 -0.0553  0.0565 -0.3076
    1W        W33351   8.692   2.128   9.478 -0.0401  0.0813  0.0758
    1W        W33352  17.493   8.723   2.451 -0.0326  0.1419 -0.1478
    1W        W33353  11.067   1.686   1.297  0.0037  0.1886 -0.1041
    1W        W33354   7.763  19.443   7.300 -0.2150 -0.0280 -0.1997
    1W        W33355  25.731  13.757   0.377 -0.2868 -0.0636 -0.0405
    1W        W33356  20.947  27.000   7.057 -0.2928 -0.2364 -0.1568
    1W        W33357  17.951   6.561   1.403 -0.2523 -0.2275  0.1748
    1W        W33358  20.518  29.063   8.977  0.1576 -0.1446 -0.0741
    1W        W33359   5.003  22.646   6.982 -0.1558  0.0216 -0.1489
    1W        W33360  24.437  11.569   9.564  0.1143  0.0462 -0.2477
    1W        W33361  19.536  16.307   1.290  0.0324  0.1201  0.0083
    1W        W33362  23.055   9.396   7.997  0.2757 -0.1521  0.1081
    1W        W33363  18.409  17.274   1.768 -0.2625  0.2435  0.2345
    1W        W33364   3.908  20.877   9.457  0.1915 -0.0160 -0.3351
    1W        W33365   9.465   4.631   1.695  0.3495  0.0539 -0.0302
    1W        W33366  20.971   1.928   8.563 -0.0225 -0.1567  0.1293
    1W        W33367  21.700  14.683   9.217  0.0581 -0.1293  0.1474
    1W        W33368  12.964  10.703   7.378  0.0233 -0.1088 -0.1090
    1W        W33369  21.146  18.337   0.350  0.1646  0.0491  0.0249
    1W        W33370   7.044  11.456   6.817 -0.2851  0.2140 -0.0368
    1W        W33371  18.143   1.701   9.171  0.0782  0.1429 -0.2729
    1W        W33372  19.672  22.886   1.204  0.0645 -0.0054 -0.0685
    1W        W33373  23.252  22.290   9.127  0.1400 -0.1446  0.2566
    1W        W33374  22.436  21.176   2.589  0.3224 -0.2097  0.3143
    1W        W33375   2.195  14.449   6.960 -0.1030 -0.1451 -0.1207
    1W        W33376  18.195  12.711   8.085  0.1011 -0.1262 -0.1596
    1W        W33377   1.455   6.902   1.236  0.0484  0.2962 -0.0422
    1W        W33378   3.974   1.879   1.025 -0.1017 -0.1662 -0.1620
    1W        W33379   0.199   0.558   1.553  0.4157 -0.5908  0.2524
    1W        W33380   5.274   6.768   6.517  0.3140  0.0713 -0.2044
    1W        W33381  13.718   3.480   6.863  0.1795  0.1126 -0.0445
    1W        W33382  17.388   8.296   0.427  0.0186  0.1544 -0.1968
    1W        W33383   6.575  13.402   5.414 -0.1016 -0.0261 -0.1685
    1W        W33384  22.371  12.264   0.893 -0.0126 -0.2015 -0.0056
    1W        W33385  13.761   2.506   7.378 -0.1168  0.1818 -0.0267
    1W        W33386  29.385   3.404   8.149  0.0092  0.1311 -0.0721
    1W        W33387   5.486  28.858   7.107 -0.0741 -0.4078 -0.0340
    1W        W33388  10.860  18.772   6.921  0.1329  0.2564 -0.0430
    1W        W33389  17.125  25.434   8.589  0.0599 -0.0247  0.4752
    1W        W33390  29.363  23.263   8.367  0.1355 -0.0722 -0.2417
    1W        W33391  11.052  12.613   7.463  0.1427 -0.0290 -0.0304
    1W        W33392   6.692  19.591   9.519 -0.0783 -0.2922  0.0689
    1W        W33393  23.758   1.323   2.590 -0.0266  0.0209 -0.1464
    1W        W33394  15.877   4.932   8.412 -0.0088 -0.0454  0.0817
    1W        W33395  27.099  14.869   7.321  0.0501 -0.0951 -0.0338
    1W        W33396  12.404   7.313   7.352 -0.1326 -0.0389  0.2646
    1W        W33397  13.882   9.755   6.446 -0.0259 -0.3099  0.1021
    1W        W33398   2.127  15.844   9.345 -0.0417 -0.0210  0.1357
    1W        W33399   5.189  23.463   7.627  0.0514 -0.3049 -0.4691
    1W        W33400   2.483  26.425   2.790  0.1873  0.2696 -0.0898
    1W        W33401  27.632   7.712   9.547 -0.0437 -0.2068 -0.3986
    1W        W33402   2.516  25.788   8.975 -0.0286 -0.0347 -0.2797
    1W        W33403  13.907   6.153   0.618 -0.0032 -0.1830 -0.0889
    1W        W33404   2.115   9.959   7.285  0.0325 -0.2000  0.1312
    1W        W33405  11.730  20.347   0.735  0.0075  0.0835 -0.3451
    1W        W33406   4.619  23.544   0.545 -0.1115  0.1392  0.0802
    1W        W33407   0.763   3.689   9.467  0.0606 -0.0488 -0.1231
    1W        W33408  27.317  21.739   7.763 -0.1358  0.1486  0.1177
    1W        W33409   1.169  27.888   8.902 -0.2550 -0.1461 -0.3051
    1W        W33410  25.428  17.888   0.429 -0.2364 -0.4084  0.2522
    1W        W33411  28.344   5.656   1.260 -0.1119 -0.0092  0.0621
    1W        W33412   8.975   8.155   1.632 -0.2018  0.2517  0.0078
    1W        W33413  14.521  28.556   2.243 -0.2376 -0.1117  0.1479
    1W        W33414  19.279  13.054   1.547 -0.0555  0.0354  0.0996
    1W        W33415  12.699   3.463   1.356  0.0153  0.0383  0.1662
    1W        W33416  19.039  28.162   2.591  0.2340  0.1063 -0.3089
    1W        W33417  12.845   1.205   8.841  0.0642  0.2253 -0.1689
    1W        W33418  19.091   7.907   2.204  0.3802 -0.1422 -0.2593
    1W        W33419  12.995  28.903   0.458 -0.0273 -0.1109 -0.0494
    1W        W33420  28.070  20.970   1.736 -0.0109  0.1526 -0.3281
    1W        W33421  24.158  24.502   2.075 -0.2005  0.3010 -0.0071
    1W        W33422   1.680  23.551   0.265  0.0908 -0.0857  0.1581
    1W        W33423  29.610   1.617   2.792 -0.2121  0.0784  0.1280
    1W        W33424   0.406  20.538   0.787  0.0979 -0.0952 -0.0827
    1W        W33425  27.527  25.018   8.672 -0.2843 -0.0666 -0.1389
    1W        W33426  13.098  17.167   0.129 -0.0554  0.0129  0.1765
    1W        W33427   9.598  26.159   7.669 -0.2163  0.0892  0.2614
    1W        W33428  18.265  16.764   1.478 -0.1873 -0.0918 -0.1422
    1W        W33429  14.033   2.213   9.548 -0.5564 -0.1141  0.0433
    1W        W33430  22.767  13.263   8.632 -0.1413 -0.2051 -0.2497
    1W        W33431  25.665  26.368   8.770  0.0336 -0.1802  0.1765
    1W        W33432  14.460   1.297   9.418  0.3235  0.1843  0.2955
    1W        W33433  14.368   4.500   8.352 -0.4257  0.2975 -0.4181
    1W        W33434  17.358  24.597   3.195 -0.0432 -0.0165  0.2305
    1W        W33435  16.042   8.184   1.251 -0.0864 -0.3552 -0.1341
    1W        W33436  22.702  28.821   0.231  0.0780 -0.1048  0.1748
    1W        W33437  14.271  15.324   9.226 -0.2261  0.1817  0.2065
    1W        W33438  29.538  20.535   1.730  0.2017  0.2277  0.0682
    1W        W33439   6.616  28.683   9.109 -0.0624 -0.1842 -0.1214
    1W        W33440  12.779   5.652   6.472 -0.1106  0.2507 -0.0302
    1W        W33441  20.121   5.715   6.469  0.0615 -0.0685  0.0534
    1W        W33442   0.004   5.239   9.049  0.3116 -0.0701 -0.2650
    1W        W33443   6.246  12.355   9.035  0.2782  0.1506  0.1212
    1W        W33444  10.875   1.744   2.796 -0.2789  0.0629 -0.0961
    1W        W33445  24.412  10.262   0.568  0.2367 -0.4770  0.0627
    1W        W33446   8.761   4.634   7.288  0.0815 -0.2841  0.1284
    1W        W33447   7.256  24.837   8.669 -0.1944  0.2541 -0.2015
    1W        W33448  12.391  10.023   0.697 -0.0223 -0.0529  0.0986
    1W        W33449  17.197  24.257   0.331 -0.1755 -0.1101  0.0588
    1W        W33450   5.066   1.648   5.723 -0.0785 -0.1090  0.0598
    1W        W33451   4.779  17.640   0.042 -0.0187  0.1143  0.0187
    1W        W33452  20.685  29.217   1.302 -0.0689  0.4969  0.0155
    1W        W33453  14.796  21.927   0.255  0.2662 -0.4201  0.1697
    1W        W33454  28.333   3.543   8.569  0.0498  0.1759  0.3349
    1W        W33455  20.162  27.439   2.440 -0.0208  0.0054  0.0118
    1W        W33456  21.965  11.751   7.902 -0.1054  0.1541  0.1744
    1W        W33457   9.982  21.580   1.544 -0.0811  0.0312 -0.0486
    1W        W33458  24.216   0.842   0.335  0.0260 -0.1005  0.5874
    1W        W33459  24.558   7.290   0.630 -0.5043  0.0675  0.1217
    1W        W33460  22.753  24.457   8.513  0.0287  0.0353 -0.1352
    1W        W33461  18.073  26.874   0.096 -0.0744  0.1373  0.2521
    1W        W33462   2.641  29.182   1.826  0.0157  0.0836  0.3706
    1W        W33463  19.737  28.662   1.844 -0.2413  0.2299  0.1072
    1W        W33464  23.694  28.732   7.714  0.0451  0.1787 -0.3030
    1W        W33465   3.615   8.306   8.657  0.1081 -0.0664 -0.0061
    1W        W33466   9.419   9.895   0.528  0.1938  0.0004 -0.0239
    1W        W33467   0.568  16.940   0.513  0.1544  0.0014  0.1080
    1W        W33468   7.832  13.340   7.077  0.1569 -0.3080 -0.2159
    1W        W33469  22.930  14.966   7.511  0.0358  0.6449 -0.0551
    1W        W33470   7.953  16.960   2.347 -0.1239 -0.2433  0.0906
    1W        W33471   8.727   8.456   1.329 -0.5002 -0.1391  0.2586
    1W        W33472  12.375   1.124   0.929 -0.0166 -0.3196  0.1225
    1W        W33473   6.037  10.612   5.425 -0.1883 -0.3339 -0.0602
    1W        W33474   7.866  24.337   0.211 -0.2252 -0.0882  0.0651
    1W        W33475  16.827  12.629   9.142 -0.1005 -0.1266  0.1322
    1W        W33476  12.777  27.654   2.013  0.1836  0.4356  0.3522
    1W        W33477  25.833   4.243   8.226 -0.0650  0.1241 -0.0937
    1W        W33478   7.919  19.231   1.180  0.1637  0.0697 -0.1221
    1W        W33479  17.383   2.484   9.133  0.0447 -0.2318  0.1141
    1W        W33480   6.078   5.795   6.883 -0.1904 -0.2530  0.1361
    1W        W33481  26.877  28.776   9.307 -0.3136 -0.2757  0.1260
    1W        W33482   3.887  14.676   8.537 -0.1630 -0.0406  0.3184
    1W        W33483   0.000  11.024   1.757 -0.0439 -0.1198 -0.0036
    1W        W33484  17.665  18.102   8.463  0.2105 -0.3265 -0.0712
    1W        W33485  14.190  14.399   9.126  0.0317  0.0532 -0.0003
    1W        W33486  24.169  10.643   0.911 -0.3732  0.0443  0.0203
    1W        W33487  26.293  27.093   1.000 -0.1909  0.0249 -0.0372
    1W        W33488  24.033  29.183   8.575 -0.1022  0.0297  0.1423
    1W        W33489   3.080   7.538   0.658 -0.0861  0.0342  0.2149
    1W        W33490  25.235  26.355   2.846  0.1890  0.1939  0.1394
    1W        W33491  17.561   4.144   1.300 -0.0086  0.0412 -0.1396
    1W        W33492  21.734   7.788   1.339 -0.0813  0.3059 -0.2172
    1W        W33493  16.246   7.013   0.457  0.2102  0.0942 -0.0758
    1W        W33494   5.880  19.119   9.195  0.1272  0.0642  0.1836
    1W        W33495  17.949  27.617   3.022  0.0618  0.0260  0.3040
    1W        W33496  16.569  17.731   7.035  0.2013 -0.2863  0.0452
    1W        W33497   5.418  13.864   6.054  0.0614  0.1287  0.0773
    1W        W33498   0.437   5.091   6.390 -0.0499  0.0063  0.0561
    1W        W33499   3.336   8.382   8.227  0.1516 -0.0826  0.0456
    1W        W33500   1.517  12.141   1.693  0.1851 -0.1345 -0.2294
    1W        W33501   5.256   9.704   5.229 -0.3803 -0.0281 -0.1172
    1W        W33502  13.128   3.082   1.663 -0.3422 -0.0034 -0.3373
    1W        W33503   9.650  23.789   8.920  0.0832  0.1442 -0.0669
    1W        W33504  26.428  27.547   2.221 -0.2774 -0.1885  0.2123
    1W        W33505  17.054   5.344   9.063  0.2782  0.1747  0.0066
    1W        W33506  10.439   5.761   5.849 -0.1005  0.0178  0.0744
    1W        W33507  12.958   0.581   6.661 -0.0606  0.2042 -0.0401
    1W        W33508  21.190   6.336   1.397  0.0650 -0.1525  0.1516
    1W        W33509   2.019  17.591   2.573 -0.1723 -0.2409  0.0235
    1W        W33510   5.972  19.234   6.817 -0.1689  0.0977 -0.1723
    1W        W33511  23.324  26.760   7.659 -0.1937 -0.0226  0.3413
    1W        W33512  14.130  29.425   0.060 -0.1083 -0.1621  0.1607
    1W        W33513  15.719   5.655   9.414 -0.0107  0.3853 -0.3784
    1W        W33514  11.336  13.560   7.752  0.2762 -0.1789 -0.0384
    1W        W33515  12.351  13.530   1.729  0.2401 -0.1195 -0.0690
    1W        W33516  18.708  13.055   1.132  0.0940  0.1996  0.0346
    1W        W33517  14.899  28.335   9.271  0.1026 -0.2301  0.2171
    1W        W33518  18.058  25.288   8.072  0.2191 -0.0134 -0.1750
    1W        W33519  27.103  25.207   8.864  0.1227  0.5697 -0.2449
    1W        W33520  28.157   7.753   0.752 -0.1729 -0.0855 -0.0046
    1W        W33521  10.127   0.058   2.574  0.2333 -0.2464  0.1120
    1W        W33522  17.355  17.001   1.724 -0.2806  0.0783  0.1978
    1W        W33523  17.929  25.159   0.921  0.2450  0.0148  0.0423
    1W        W33524   2.285  24.940   6.720 -0.3619 -0.0206 -0.2005
    1W        W33525   6.377  15.470   0.250  0.1848 -0.3769  0.0069
    1W        W33526   2.648  23.025   6.752 -0.2675  0.3219 -0.1806
    1W        W33527  27.481   2.457   1.390  0.0319  0.1068  0.0587
    1W        W33528  17.211  19.182   7.159  0.1045 -0.1219 -0.2027
    1W        W33529  20.525   7.569   8.160 -0.0979  0.0046  0.0373
    1W        W33530   4.563  21.127   0.336  0.0365 -0.1830 -0.3547
    1W        W33531   9.102  28.324   9.475 -0.1260  0.0632 -0.0691
    1W        W33532   1.993   7.552   7.301  0.1239 -0.1231 -0.3289
    1W        W33533  16.233  27.709   8.010  0.1279 -0.2581  0.1182
    1W        W33534   6.059  16.658   1.408 -0.0377 -0.1060 -0.1311
    1W        W33535  11.849   9.812   2.854  0.4064 -0.0146 -0.1199
    1W        W33536  22.692  21.562   8.159 -0.0524  0.2092 -0.0831
    1W        W33537   9.061   7.512   0.671 -0.2440  0.2291  0.0174
    1W        W33538   1.579  24.564   8.321 -0.1303  0.1551 -0.0458
    1W        W33539  19.376  11.428   7.371  0.1958 -0.0427 -0.1502
    1W        W33540  17.659  25.008   2.590  0.1583 -0.2334 -0.2746
    1W        W33541  27.465  26.343   1.536  0.2161 -0.0520 -0.1725
    1W        W33542  16.809  26.124   2.513  0.1453  0.1275 -0.2314
    1W        W33543  21.315  11.110   1.163 -0.3845 -0.0241 -0.0423
    1W        W33544  17.141  14.728   0.028 -0.0594  0.1984 -0.1339
    1W        W33545  24.570   2.868   7.136 -0.3115  0.1422 -0.0970
    1W        W33546  11.936   6.856   8.633 -0.2651  0.0850 -0.0844
    1W        W33547  13.735  20.198   7.880  0.0456  0.0812 -0.1145
    1W        W33548  18.432  11.307   0.671 -0.0105  0.2511  0.2408
    1W        W33549  20.636  27.124   3.226 -0.0055  0.3390  0.2662
    1W        W33550  10.855   8.622   2.467 -0.1206  0.0052  0.1453
    1W        W33551  27.111  28.342   2.313  0.0666  0.0784  0.0863
    1W        W33552   7.640  23.703   8.658 -0.1293 -0.1615 -0.1266
    1W        W33553   6.437  27.179   8.908 -0.1916 -0.4523 -0.3160
    1W        W33554   9.821  14.522   8.425  0.2608  0.0923  0.0334
    1W        W33555  24.149  28.958   2.807  0.0456 -0.3140 -0.0295
    1W        W33556  15.721  12.930   0.258  0.2569  0.3615  0.0721
    1W        W33557  13.533  26.867   8.111  0.2410 -0.1205 -0.0369
    1W        W33558   1.481   1.884   7.085 -0.1270 -0.3088 -0.0022
    1W        W33559  29.303   2.196   2.806 -0.0492 -0.0446  0.0077
    1W        W33560  17.319  25.915   8.564  0.0186 -0.0353 -0.0731
    1W        W33561  23.709  22.266   9.324 -0.0506 -0.2423 -0.1450
    1W        W33562  15.364   2.999   0.180 -0.2751  0.0156  0.1408
    1W        W33563  27.620  10.774   0.587 -0.0607 -0.0746  0.0285
    1W        W33564  20.943   8.632   2.546 -0.3122 -0.0031  0.0412
    1W        W33565   7.236  16.367   8.623  0.1604  0.0084 -0.0442
    1W        W33566   1.327  27.888   0.128 -0.2461 -0.1514 -0.0251
    1W        W33567  21.677  12.815   9.231 -0.0511 -0.1232 -0.0149
    1W        W33568  16.508  29.005   3.319 -0.0610  0.4567  0.0570
    1W        W33569  26.576  22.262   3.369  0.2031 -0.0750 -0.2019
    1W        W33570  11.588  26.502   2.662 -0.2224 -0.3190 -0.1546
    1W        W33571  25.591  21.191   0.320 -0.3054  0.1177 -0.2055
    1W        W33572   0.462  26.706   8.630  0.0564  0.0060 -0.3646
    1W        W33573   8.827  28.292   1.547  0.2246 -0.2657  0.2609
    1W        W33574  27.289  20.639   4.013 -0.0713 -0.0516  0.0007
    1W        W33575   0.812   2.567   8.371 -0.2733 -0.0617  0.1784
    1W        W33576   2.415  16.755   6.865 -0.0429  0.1352  0.2108
    1W        W33577   2.659  13.314   7.404 -0.3847 -0.2552  0.3441
    1W        W33578  16.575   7.094   2.288 -0.3564  0.2178 -0.0706
    1W        W33579  25.479  17.818   7.567  0.1270 -0.1085  0.1606
    1W        W33580   6.380  21.511   9.233 -0.2462  0.2088  0.3810
    1W        W33581   2.553  22.339   6.640 -0.2242 -0.2259  0.0078
    1W        W33582   4.400   7.000   6.799  0.0284  0.1525 -0.4353
    1W        W33583  10.008   5.606   7.640 -0.2795 -0.1423  0.0470
    1W        W33584  12.093  15.549   0.887  0.0860  0.0565  0.3426
    1W        W33585  26.706   3.764   0.607  0.1386 -0.2859 -0.0919
    1W        W33586  24.729  16.111   1.171  0.0814  0.0649 -0.0397
    1W        W33587  11.335   3.669   6.397 -0.3253  0.1187 -0.0817
    1W        W33588  24.800  20.390   6.850  0.0901 -0.2801  0.1418
    1W        W33589  24.967  14.439   6.873  0.0790 -0.1312 -0.0885
    1W        W33590  16.925  19.913   3.107  0.0461  0.2039 -0.0086
    1W        W33591  15.105  24.470   7.089 -0.1338 -0.2150  0.1223
    1W        W33592  27.085  26.474   3.234  0.0186  0.0035 -0.1891
    1W        W33593  10.094  26.357   7.565  0.1042 -0.0926  0.2437
    1W        W33594  10.436   0.226   8.815 -0.1156 -0.1546 -0.5600
    1W        W33595  19.704  13.394   7.732 -0.0912 -0.1165  0.1725
    1W        W33596  12.525   0.760   6.837 -0.2920  0.2230  0.2122
    1W        W33597   6.023  24.875   2.558  0.0211  0.1349 -0.3085
    1W        W33598  15.090  14.614   9.063  0.0360 -0.1105 -0.0921
    1W        W33599  27.009  24.194   3.523  0.1170 -0.2903  0.3593
    1W        W33600  26.252   1.828   1.070 -0.0557  0.1739 -0.1365
    1W        W33601  29.410   5.510   9.446 -0.1185  0.2558  0.3407
    1W        W33602  19.442   2.387   0.816  0.0730  0.1154  0.1778
    1W        W33603   8.627   6.429   9.407 -0.1640  0.0042  0.3371
    1W        W33604   2.941  22.377   3.198 -0.0915  0.3167  0.1235
    1W        W33605  29.419  18.201   2.042  0.0896  0.0613 -0.4074
    1W        W33606  16.703  25.687   3.041 -0.0292 -0.1384  0.2070
    1W        W33607  26.605   2.912   0.015 -0.0497  0.3599 -0.0871
    1W        W33608   0.331   6.930   0.086  0.1351  0.0932 -0.3489
    1W        W33609   1.735   5.351   2.136 -0.2625  0.1098  0.1413
    1W        W33610   8.925  28.377   8.117  0.4299 -0.1318 -0.0499
    1W        W33611  19.596  26.999   8.703 -0.1330 -0.1022 -0.2382
    1W        W33612  10.283  26.503   9.122  0.0184  0.0943  0.3443
    1W        W33613  21.013  23.712   3.357 -0.2205  0.0527 -0.2324
    1W        W33614  17.431  26.161   3.350  0.0395 -0.2048  0.1082
    1W        W33615  19.002  16.196   1.304  0.3254  0.1072  0.1467
    1W        W33616  26.005   0.167   1.421  0.2526 -0.0027 -0.1069
    1W        W33617  16.029  12.808   8.786 -0.1017 -0.0534 -0.1863
    1W        W33618  24.047  14.959   7.804 -0.0417  0.1234  0.3245
    1W        W33619   6.847  16.837   9.149 -0.2322 -0.0248  0.0716
    1W        W33620  27.286  11.923   7.173  0.0944  0.0205 -0.2721
    1W        W33621   5.818   0.526   2.013  0.3204 -0.1440 -0.0725
    1W        W33622  16.766   9.957   2.114  0.1078 -0.0812 -0.1434
    1W        W33623   2.460   8.374   8.019  0.1308 -0.1980 -0.2307
    1W        W33624  15.142  11.575   7.877  0.4433 -0.0592  0.4380
    1W        W33625  21.538  17.897   6.779  0.0679 -0.2382  0.3349
    1W        W33626   7.325  10.768   7.020 -0.0851 -0.2433  0.1475
    1W        W33627  22.092  23.422   8.574  0.5188 -0.1758  0.4458
    1W        W33628  24.627  27.455   2.308 -0.2278 -0.1154 -0.1000
    1W        W33629  17.347   6.695   1.390  0.0941 -0.0626  0.0578
    1W        W33630  26.240   6.262   1.008  0.0495  0.1599  0.2012
    1W        W33631   3.556  18.309   7.572 -0.0903  0.1330 -0.2226
    1W        W33632  28.157   1.827   0.849  0.0032  0.0053 -0.1026
    1W        W33633   7.926  29.475   6.294  0.3306  0.0056  0.1825
    1W        W33634  16.690  17.984   7.662  0.0626  0.1952  0.0551
    1W        W33635  17.423   9.035   0.987  0.1089  0.2051  0.1968
    1W        W33636  21.343  17.992   8.702 -0.2391  0.0145 -0.2925
    1W        W33637  29.390  21.594   0.579 -0.0013  0.0516  0.0754
    1W        W33638  16.877  27.554   1.464  0.1847  0.0214 -0.1823
    1W        W33639  24.443  14.800   1.488 -0.1830 -0.0622  0.1007
    1W        W33640  10.134  26.254   3.211 -0.3506  0.0452 -0.0217
    1W        W33641   5.598  27.590   8.592 -0.0397  0.0314  0.2481
    1W        W33642   0.125   1.458   0.013 -0.1797  0.1320  0.3040
    1W        W33643   4.814  23.074   8.484  0.0154 -0.0043  0.0873
    1W        W33644  29.549  13.092   0.224  0.0556  0.0945  0.0179
    1W        W33645  22.752  15.125   9.023 -0.0524  0.1150 -0.2743
    1W        W33646   4.532   3.248   8.624  0.1649 -0.1666 -0.1127
    1W        W33647   7.196  22.089   7.513 -0.0622 -0.1287  0.1259
    1W        W33648  23.303  29.189   3.577  0.0144 -0.0078 -0.0712
    1W        W33649  10.509  25.015   2.361 -0.2359  0.1254 -0.4917
    1W        W33650   2.623  12.666   2.334  0.1449 -0.2256 -0.1048
    1W        W33651   5.440  20.776   8.976 -0.0812  0.1555 -0.0238
    1W        W33652   5.054  13.181   1.134  0.0442  0.0225  0.0467
    1W        W33653  16.210  20.314   0.124  0.1574 -0.0079 -0.0900
    1W        W33654  24.927  21.575   3.275  0.1078  0.0042  0.0532
    1W        W33655  14.385  26.396   7.775  0.1273  0.2275 -0.0845
    1W        W33656   5.153  23.728   3.501  0.2419  0.1747  0.1333
    1W        W33657  10.608  11.990   7.394  0.0414  0.2484  0.1063
    1W        W33658  28.923  24.554   2.577  0.0073 -0.0213  0.1178
    1W        W33659  16.368  26.568   2.639  0.1658  0.1840 -0.3662
    1W        W33660  23.370  21.675   8.561  0.0873  0.1097  0.1187
    1W        W33661   1.758   7.832   0.462 -0.1199  0.0588 -0.0338
    1W        W33662  20.693  16.235   1.620 -0.0057 -0.1207  0.0558
    1W        W33663  13.176  21.578   7.309 -0.0336 -0.0251  0.4568
    1W        W33664  12.822  24.269   1.024  0.1601 -0.0456  0.1763
    1W        W33665   7.862  13.661   1.744 -0.1614  0.1546  0.1482
    1W        W33666   4.469   9.409   9.071 -0.1104 -0.0288 -0.1323
    1W        W33667  12.727   4.170   0.637 -0.0121  0.0064  0.1592
    1W        W33668  21.127   6.902   0.790  0.2115  0.0237  0.0322
    1W        W33669  12.122   1.339   8.193  0.0642 -0.2782  0.0861
    1W        W33670   7.292   4.562   0.044 -0.1287 -0.2598  0.3122
    1W        W33671  16.332  28.657   6.853 -0.2824 -0.4255 -0.1189
    1W        W33672   5.287  13.557   9.238  0.0549  0.2611 -0.1159
    1W        W33673   7.781  27.015   0.660  0.0639 -0.1577  0.0748
    1W        W33674  28.409   6.069   8.705 -0.0978 -0.1687 -0.2966
    1W        W33675   7.344   3.450   1.302  0.1419  0.4319 -0.0362
    1W        W33676  15.628  17.702   9.396 -0.0543  0.1991 -0.1724
    1W        W33677   3.283   2.525   6.721  0.0667 -0.1430 -0.4383
    1W        W33678  13.192   4.446   0.318  0.1492 -0.0884 -0.1447
    1W        W33679  13.310  22.943   6.343 -0.0068 -0.2920 -0.0282
    1W        W33680   3.069  23.883   8.435 -0.2264 -0.3322 -0.3987
    1W        W33681  23.454  19.788   2.108  0.3648 -0.0498 -0.0340
    1W        W33682  13.117  21.922   6.136  0.0528  0.0773 -0.3159
    1W        W33683  16.095  16.545   2.200 -0.0446 -0.1189  0.0314
    1W        W33684  14.524  10.857   0.064 -0.1455 -0.2422 -0.0421
    1W        W33685  25.570  27.319   8.390 -0.1881 -0.1249 -0.2256
    1W        W33686   1.743  22.316   7.071  0.0404  0.1182  0.3833
    1W        W33687   3.267  22.415   2.765 -0.0503  0.1680 -0.1581
    1W        W33688  28.070  16.620   7.729  0.0361 -0.0676  0.0466
    1W        W33689  19.788  18.981   8.288 -0.3757 -0.0864 -0.0080
    1W        W33690  27.255   8.045   0.920 -0.1285  0.0832 -0.0331
    1W        W33691  17.891  14.235   2.590 -0.0694 -0.3620 -0.0437
    1W        W33692  17.781  23.803   1.241  0.0750 -0.3790  0.1085
    1W        W33693  10.948   0.429   2.786  0.1386  0.0495  0.1781
    1W        W33694  17.324  22.549   6.676 -0.1776  0.0274 -0.2268
    1W        W33695  15.870  25.235   1.941  0.0956  0.0845  0.1467
    1W        W33696  14.615   4.544   1.206 -0.0493  0.0199  0.1891
    1W        W33697  20.397   5.805   9.638  0.0089  0.0735 -0.0028
    1W        W33698   0.798   8.130   5.886 -0.1279  0.1694  0.0842
    1W        W33699   1.114  24.786   2.244 -0.3067  0.0220 -0.2658
    1W        W33700   2.480  12.469   0.776 -0.0303  0.1998 -0.0542
    1W        W33701  26.993  13.844   7.275  0.0476  0.1072  0.2519
    1W        W33702   2.065  20.769   0.991 -0.0809 -0.0980 -0.2027
    1W        W33703  20.650  15.508   2.503 -0.0524  0.2816 -0.2968
    1W        W33704  28.355  23.807   6.406 -0.3670 -0.3047 -0.5312
    1W        W33705  16.617   0.606   1.698 -0.1801  0.0692  0.2191
    1W        W33706  17.972  27.363   0.092 -0.0978 -0.0386  0.2234
    1W        W33707   3.677  27.118   0.270 -0.2576  0.4110 -0.0154
    1W        W33708   5.197  18.226   0.681  0.3762 -0.0400 -0.2076
    1W        W33709   0.383   1.603   1.317 -0.0535 -0.3158  0.0822
    1W        W33710  15.602   9.773   7.742  0.3807  0.0189  0.1307
    1W        W33711  26.909  24.680   7.143  0.1564  0.1079 -0.1626
    1W        W33712  17.906  25.986   7.743  0.2432  0.0203 -0.0310
    1W        W33713  14.577  21.021   0.073  0.0457  0.2832 -0.2485
    1W        W33714   3.845   6.101   0.368 -0.0810  0.1638  0.2342
    1W        W33715  20.026  11.170   7.905 -0.1341 -0.1787  0.0989
    1W        W33716  23.686   6.209   9.113 -0.6222 -0.2092  0.1411
    1W        W33717   0.403  13.136   9.582  0.0989 -0.0431 -0.0112
    1W        W33718  16.516   4.689   0.052  0.0690 -0.1842  0.1250
    1W        W33719   9.951  29.549   6.528  0.0751 -0.0217  0.4362
    1W        W33720  15.690   7.380   6.693  0.3235  0.0074 -0.0244
    1W        W33721  15.697   5.871   1.976  0.0937  0.4545 -0.0152
    1W        W33722   0.407  21.892   6.979  0.0365  0.0168  0.0430
    1W        W33723  16.739  16.535   2.897 -0.0639  0.3950  0.2159
    1W        W33724  27.662   0.443   9.141  0.2108 -0.2111 -0.1396
    1W        W33725  19.444  26.284   9.328 -0.0938  0.3394  0.3072
    1W        W33726  27.486  18.547   1.070  0.0582  0.0294 -0.0325
    1W        W33727   4.917  29.338   1.097  0.1373  0.4543  0.0462
    1W        W33728   4.610   2.796   7.392 -0.1167 -0.2244  0.0281
    1W        W33729  15.960   8.873   7.060 -0.0318 -0.0035  0.2806
    1W        W33730  24.856   9.473   1.491 -0.1505 -0.1756  0.1582
    1W        W33731  23.253  12.427   0.742 -0.1656  0.0560  0.0849
    1W        W33732  10.572  25.244   1.859  0.2002  0.1789 -0.1195
    1W        W33733  26.454   4.388   8.329  0.0209 -0.2267 -0.0489
    1W        W33734   4.814  11.153   8.556 -0.0525  0.3056  0.0051
    1W        W33735   3.099  14.346   6.568 -0.4808 -0.2111 -0.1879
    1W        W33736  25.433  17.586   0.023  0.2251  0.2589  0.4777
    1W        W33737  10.990  23.408   1.509  0.1101 -0.0690 -0.1657
    1W        W33738   1.749  20.078   8.560  0.0830  0.2736  0.0647
    1W        W33739  10.296  10.892   6.719 -0.0376 -0.0395 -0.2351
    1W        W33740   1.160   2.778   8.092  0.2211 -0.0802  0.1087
    1W        W33741  11.501  20.582   7.740  0.2667 -0.1188 -0.1445
    1W        W33742   6.619   8.057   7.263 -0.1088  0.1833  0.1899
    1W        W33743  18.075  18.764   2.316  0.0206 -0.1156  0.1203
    1W        W33744   1.265  28.985   6.664 -0.1412  0.0563 -0.2818
    1W        W33745  28.762  27.397   6.890  0.2110  0.1761  0.0057
    1W        W33746   8.516   6.531   0.985  0.0516  0.2155  0.4722
    1W        W33747   7.733  15.935   7.085 -0.3991 -0.0729 -0.3354
    1W        W33748   4.726   6.889   5.967 -0.2928  0.0974 -0.1188
    1W        W33749   7.563  18.776   2.071 -0.0854 -0.0252 -0.0582
    1W        W33750   2.658  23.387   1.901  0.0625 -0.0313  0.0468
    1W        W33751  11.612  25.182   7.805 -0.0427  0.1379  0.0310
    1W        W33752   1.415  27.240   6.939 -0.0244  0.1676 -0.1292
    1W        W33753  14.466  29.023   0.517  0.3703  0.1549  0.1756
    1W        W33754  13.564  16.585   9.170  0.1203 -0.2350  0.1520
    1W        W33755  17.759  26.776   2.773  0.0079 -0.0847 -0.0176
    1W        W33756  12.265  20.685   9.288  0.2501 -0.2306  0.0574
    1W        W33757  14.594  17.213   1.228  0.0267  0.1562  0.0277
    1W        W33758   0.825  27.089   2.936 -0.1587 -0.1732 -0.2046
    1W        W33759  28.340   6.386   1.911 -0.0779 -0.0473  0.2266
    1W        W33760   6.309  22.861   8.174 -0.0572  0.2032  0.0440
    1W        W33761   7.887  18.005   2.418  0.4212 -0.2733 -0.0283
    1W        W33762  10.316   7.915   6.618  0.2344 -0.1483  0.1223
    1W        W33763   1.690  11.980   9.306  0.2092 -0.2626  0.1189
    1W        W33764  28.537   0.979   9.379  0.1102 -0.1055  0.3085
    1W        W33765   9.955   3.745   7.587  0.4014 -0.1937 -0.0286
    1W        W33766   0.742   9.519   6.861  0.3248  0.2671  0.0510
    1W        W33767  15.054  10.779   2.175  0.3289  0.0726 -0.0089
    1W        W33768  28.580  19.431   8.339 -0.0678 -0.0012  0.0811
    1W        W33769  12.263   1.811   1.365  0.4129  0.3454  0.0760
    1W        W33770  29.191  19.228   1.302  0.2972  0.0659  0.1155
    1W        W33771   8.504   9.571   8.331 -0.0761  0.0632  0.3468
    1W        W33772  11.459  13.034   2.282  0.1881 -0.2970 -0.2941
    1W        W33773  19.536   1.038   7.959 -0.2397  0.2211  0.1274
    1W        W33774  27.295   5.244   8.619 -0.1438  0.5085 -0.2746
    1W        W33775   3.632  26.794   9.155 -0.0367  0.0253 -0.1869
    1W        W33776  11.013  19.921   7.287  0.0021  0.0051 -0.2171
    1W        W33777  20.590  16.006   2.058 -0.0244 -0.0211 -0.1934
    1W        W33778   5.184  24.160   0.023 -0.0973  0.0455 -0.0167
    1W        W33779  20.603   4.830   8.778 -0.4121 -0.1399 -0.2519
    1W        W33780   3.607  11.165   0.857  0.1377 -0.0805  0.1400
    1W        W33781  23.087  16.206   0.254  0.0364 -0.0712 -0.1384
    1W        W33782  23.099   0.532   8.316 -0.0863 -0.1870  0.2224
    1W        W33783   6.827  26.900   0.614 -0.0763  0.0125 -0.1238
    1W        W33784   8.059  13.464   7.585 -0.1348  0.0017 -0.0599
    1W        W33785  27.380  26.830   1.214 -0.0384 -0.3836 -0.2357
    1W        W33786  26.905  21.598   0.991 -0.2021  0.1227 -0.1803
    1W        W33787  18.585  23.456   1.879 -0.0512  0.0603 -0.1026
    1W        W33788  19.792   0.353   0.468 -0.1192 -0.1008  0.0762
    1W        W33789  23.848  14.322   1.870 -0.0969 -0.2086 -0.0330
    1W        W33790  18.081   3.475   1.298 -0.0626  0.5324  0.2016
    1W        W33791  16.912   5.465   7.800 -0.0947  0.0274  0.0972
    1W        W33792  15.362  25.405   7.078  0.0345  0.0244 -0.3683
    1W        W33793  14.003   4.925   9.521 -0.3245 -0.1656  0.0937
    1W        W33794  12.132  14.588   8.745  0.2637  0.3750 -0.2042
    1W        W33795  25.721   0.554   1.396 -0.0493 -0.1562 -0.3898
    1W        W33796  17.970   0.576   9.363 -0.2510  0.4272  0.0490
    1W        W33797  25.496  28.852   6.791  0.0201 -0.0961 -0.0038
    1W        W33798   0.516  11.763   7.421 -0.0760 -0.0868  0.1496
    1W        W33799  13.268  24.306   1.375 -0.0430  0.4096  0.0345
    1W        W33800  21.468  25.343   2.914  0.0224 -0.0756 -0.1221
    1W        W33801  25.316  16.188   2.241 -0.3222 -0.0838  0.1827
    1W        W33802   9.787  27.604   6.423  0.1198 -0.0530  0.1301
    1W        W33803  16.355  20.597   7.832 -0.1642 -0.0462  0.0391
    1W        W33804   2.887  11.359   7.510 -0.0559 -0.3354  0.0854
    1W        W33805  10.976  23.184   9.502  0.1614 -0.0095 -0.1476
    1W        W33806  25.662  26.389   1.039  0.1765 -0.1229 -0.1741
    1W        W33807   6.919  12.241   5.091 -0.0257  0.0335  0.3893
    1W        W33808   5.141  15.096   0.695 -0.0567  0.0004 -0.2858
    1W        W33809  24.476  20.997   0.592  0.0641  0.2526  0.1323
    1W        W33810  17.383  25.303   9.626  0.2047  0.3097  0.2500
    1W        W33811  24.010  22.760   2.568  0.1074 -0.0718 -0.3251
    1W        W33812   9.203  13.317   6.212  0.1376  0.2989 -0.1171
    1W        W33813  11.309  14.001   7.456  0.1940 -0.0262  0.0499
    1W        W33814   6.304   4.701   0.131 -0.0531 -0.3173  0.1239
    1W        W33815   1.900  10.023   9.248 -0.1605 -0.1466  0.0434
    1W        W33816  24.709   3.621   7.513  0.0537 -0.0687  0.0521
    1W        W33817  28.245  21.772   8.910 -0.0441 -0.2538  0.1840
    1W        W33818  18.630  20.940   8.904  0.0179  0.0761  0.1394
    1W        W33819  16.622  25.545   8.568  0.0404 -0.0276  0.0062
    1W        W33820  15.335  12.884   2.307  0.0288 -0.0932 -0.0427
    1W        W33821   5.055  25.028   0.141  0.0055 -0.1381 -0.1812
    1W        W33822  28.892  25.556   9.276  0.2293  0.1050 -0.2857
    1W        W33823   5.371  24.544   3.878 -0.1215 -0.0199 -0.3250
    1W        W33824  18.277   1.394   8.147 -0.1658  0.0624  0.1447
    1W        W33825  24.139   5.450   1.396 -0.1468  0.0122  0.0090
    1W        W33826   5.228  29.080   6.006 -0.2807  0.0421 -0.1020
    1W        W33827  16.968  21.595   1.447  0.1117 -0.0692  0.0033
    1W        W33828  10.686  25.145   7.742  0.0455  0.3178 -0.0780
    1W        W33829  23.677  12.095   7.994 -0.2003  0.0627 -0.0338
    1W        W33830   5.110   2.411   0.972  0.2371  0.0531 -0.3455
    1W        W33831   6.583  12.197   8.654 -0.2977 -0.0292 -0.0612
    1W        W33832   9.493  16.718   6.917  0.0569 -0.1450 -0.0796
    1W        W33833   0.191  13.863   8.613  0.0923  0.2679  0.1928
    1W        W33834  29.519  11.075   1.273 -0.0298 -0.0327  0.1064
    1W        W33835  16.001  22.126   8.722  0.0269  0.2998  0.0171
    1W        W33836   6.291  26.912   0.603 -0.0238  0.0211  0.0227
    1W        W33837   6.458  22.274   2.697  0.0304  0.0508  0.0904
    1W        W33838   7.468  16.177   2.071 -0.4925  0.0207  0.0810
    1W        W33839  25.362   9.913   7.957 -0.0337 -0.1901  0.1914
    1W        W33840  22.397   7.748   7.559 -0.2287  0.4314 -0.0811
    1W        W33841   2.195   0.349   1.151 -0.1846 -0.0198  0.0630
    1W        W33842   6.687  15.895   0.467 -0.0998 -0.0072 -0.0797
    1W        W33843  27.958  26.626   3.347  0.3098 -0.2270 -0.0884
    1W        W33844  20.616  23.913   3.154 -0.0978  0.1362  0.2359
    1W        W33845  18.982   3.734   8.220  0.0477  0.1784 -0.0083
    1W        W33846   4.753   0.093   0.225 -0.2629 -0.2533 -0.0872
    1W        W33847   7.488   4.490   7.721 -0.1659 -0.3409  0.2963
    1W        W33848   9.725  26.752   7.614  0.2262  0.1192  0.0850
    1W        W33849   1.413  21.999   9.487  0.0154  0.1516  0.0305
    1W        W33850   6.073   9.586   6.667 -0.0560  0.0301 -0.2240
    1W        W33851   2.765  25.453   8.105  0.0617  0.1484 -0.0433
    1W        W33852  21.766  11.697   1.801 -0.0176 -0.1135  0.0415
    1W        W33853  13.538  23.731   7.492  0.0535 -0.1195 -0.1399
    1W        W33854   7.563   3.823   8.532 -0.0152 -0.0161 -0.0589
    1W        W33855   7.846   2.307   5.777 -0.2514  0.0744 -0.0559
    1W        W33856  11.471  13.544   6.659  0.0053 -0.1324 -0.0627
    1W        W33857   8.865  13.701   1.561  0.1435 -0.0629 -0.2387
    1W        W33858  10.050  10.532   8.725 -0.0548 -0.0495  0.1848
    1W        W33859   8.179  24.697   0.307 -0.0875 -0.0840  0.1787
    1W        W33860   4.844  22.630   2.808  0.0056  0.2079  0.3207
    1W        W33861   2.677  11.988   0.691 -0.1606  0.1698  0.2502
    1W        W33862  24.069   2.020   7.117 -0.0117 -0.2441 -0.1614
    1W        W33863  10.668  26.811   9.215  0.1387  0.0376  0.0767
    1W        W33864   4.306  24.977   4.057 -0.0778 -0.0216 -0.1424
    1W        W33865   5.650  22.869   9.112  0.0016  0.1170 -0.2854
    1W        W33866  10.080  16.060   8.652  0.1543  0.2480  0.0514
    1W        W33867  26.921  15.892   8.211  0.3268 -0.1665 -0.1925
    1W        W33868  19.965  15.952   3.454 -0.0792 -0.0062  0.0795
    1W        W33869  18.272   5.860   1.521 -0.1022 -0.4325 -0.1048
    1W        W33870  10.539   3.080   9.611  0.0140  0.1989  0.1982
    1W        W33871   8.413  17.989   8.156 -0.1061 -0.0414 -0.1062
    1W        W33872  24.644  14.008   6.936  0.1530  0.0319  0.1037
    1W        W33873   2.244   3.175   9.477  0.0013  0.3869  0.1058
    1W        W33874  26.370  20.160   0.949 -0.2110  0.5957 -0.0205
    1W        W33875   9.907  25.474   8.227  0.0641  0.2006 -0.0922
    1W        W33876  18.209  29.157   2.745  0.1442  0.5247  0.2041
    1W        W33877   9.163  11.679   0.178 -0.0897  0.0711 -0.1237
    1W        W33878   9.692  17.614   1.965  0.3609 -0.3296 -0.0816
    1W        W33879  19.422   2.977   8.197  0.2486 -0.0039  0.2341
    1W        W33880   0.979   7.842   7.880  0.2859 -0.0669  0.1039
    1W        W33881  10.945  23.390   2.003 -0.2930  0.1868  0.0895
    1W        W33882  28.532   4.899   0.276 -0.0577  0.0222  0.0305
    1W        W33883  27.491  20.019   0.946 -0.2516  0.3163 -0.3945
    1W        W33884  13.965   6.000   9.048  0.1347  0.1028 -0.0541
    1W        W33885  15.699  19.039   8.957 -0.2104 -0.3041 -0.2236
    1W        W33886  21.709  23.521   8.865  0.3333  0.0988  0.1835
    1W        W33887   6.319  20.729   8.964 -0.2677  0.1839  0.1666
    1W        W33888  17.310  28.039   7.896  0.1464  0.1836  0.0570
    1W        W33889  23.047   9.416   1.929 -0.1637  0.1371 -0.1894
    1W        W33890  29.107   3.900   8.081 -0.1036 -0.0602 -0.1470
    1W        W33891  23.273  14.050   9.534  0.0633 -0.1022  0.1104
    1W        W33892  11.374   3.987   7.266 -0.2229  0.0522  0.1606
    1W        W33893   5.942   3.590   9.497  0.3946  0.0898  0.1011
    1W        W33894   6.374  16.688   8.576  0.0125 -0.1708 -0.0407
    1W        W33895  12.047   0.714   7.571 -0.1834 -0.1352 -0.0514
    1W        W33896   4.664   5.689   2.329 -0.1333 -0.2389 -0.0446
    1W        W33897  21.354  12.758   0.967  0.0499  0.4112  0.1257
    1W        W33898   9.204  28.225   6.620  0.0874 -0.0550 -0.1120
    1W        W33899  21.504  11.255   7.716  0.1712  0.2415  0.1109
    1W        W33900   3.514  19.542   1.399  0.1602  0.1253  0.2252
    1W        W33901  19.401  12.416   0.780 -0.0810  0.1981  0.2351
    1W        W33902   8.724  17.077   1.849  0.0126  0.0766 -0.0077
    1W        W33903  27.764   0.274   1.620  0.1381  0.1783 -0.0095
    1W        W33904  25.073  15.905   2.649 -0.0844  0.0694  0.1726
    1W        W33905   4.021  20.386   1.759 -0.2811 -0.1005  0.1633
    1W        W33906   1.452  10.938   8.153  0.0386 -0.0378 -0.0765
    1W        W33907   8.488  26.570   7.645 -0.0197  0.0727 -0.3258
    1W        W33908  27.390  22.061   2.227  0.0871  0.1180  0.1498
    1W        W33909  14.095  28.819   2.087  0.1691  0.1844 -0.0797
    1W        W33910  21.668  26.089   1.907 -0.1295 -0.0159  0.0005
    1W        W33911  17.814   9.968   9.271  0.0419 -0.2457 -0.0385
    1W        W33912   9.513  10.321   7.915 -0.6399  0.2394 -0.1460
    1W        W33913  23.111   8.420   8.956 -0.1214 -0.0178 -0.3705
    1W        W33914  19.587  17.443   8.301 -0.4960  0.0149  0.0805
    1W        W33915   1.509   8.496   1.306  0.2930 -0.2759  0.0605
    1W        W33916  10.779  19.307   0.954 -0.0892  0.2659 -0.0934
    1W        W33917  11.255  22.285   9.316  0.1243 -0.0331 -0.2980
    1W        W33918   9.432  15.916   2.095 -0.0243  0.0622  0.1384
    1W        W33919  23.527  27.127   0.956 -0.1024  0.2096 -0.0046
    1W        W33920  24.178  10.539   2.391 -0.0625  0.2017  0.0853
    1W        W33921  15.833  25.595   6.854  0.0362 -0.5585 -0.2777
    1W        W33922  25.312  25.638   1.654 -0.1429 -0.0440 -0.1652
    1W        W33923  23.427   6.969   0.641  0.2096 -0.3244 -0.0130
    1W        W33924  10.632   7.302   6.873 -0.2499 -0.0972 -0.0508
    1W        W33925  27.144   4.814   7.166 -0.1049  0.0483  0.1117
    1W        W33926   6.491  20.890   1.261 -0.0646  0.0261  0.2603
    1W        W33927   0.470  26.855   8.121 -0.3240  0.1759  0.3962
    1W        W33928  12.563  15.677   9.003 -0.2906 -0.2923  0.1909
    1W        W33929  26.621   1.576   7.629  0.0474 -0.0988 -0.0485
    1W        W33930  21.973  22.731   0.407 -0.0847 -0.0262 -0.1758
    1W        W33931   4.768  25.096   9.247  0.1693 -0.1377 -0.0951
    1W        W33932  24.649  13.505   7.308  0.0466 -0.0728  0.1632
    1W        W33933  21.677  22.728   2.753  0.2156  0.1438  0.2945
    1W        W33934  22.227  28.136   3.478  0.2144 -0.0147  0.3470
    1W        W33935   6.471   1.668   8.837  0.1688  0.0572 -0.0864
    1W        W33936  26.302  25.751   1.770 -0.0245  0.1090  0.0516
    1W        W33937   9.918  22.983   6.523  0.2950  0.1431  0.0066
    1W        W33938  18.199   2.527   1.212  0.0276  0.0831 -0.3483
    1W        W33939  11.979  28.738   1.313  0.2537 -0.1242 -0.0318
    1W        W33940   4.891  14.271   6.678 -0.0327  0.0636 -0.0377
    1W        W33941  24.789  29.123   2.859  0.1498  0.1986  0.0007
    1W        W33942  26.747  20.477   2.722  0.0733 -0.5057  0.0255
    1W        W33943   3.476  16.150   0.039  0.1473  0.2412  0.0522
    1W        W33944  14.333   3.075   0.044 -0.0642  0.2390 -0.1388
    1W        W33945  21.852   4.271   1.744 -0.2043 -0.2874  0.0392
    1W        W33946   3.285   6.460   6.312  0.0557 -0.2028  0.1953
    1W        W33947  10.503   0.349   0.311  0.0198 -0.0602  0.1917
    1W        W33948  25.735   2.813   1.647  0.2329 -0.0180  0.1257
    1W        W33949  15.926   3.267   9.104  0.0233 -0.2559 -0.1247
    1W        W33950   8.650   0.364   7.582 -0.2216  0.2538 -0.1777
    1W        W33951  28.424  18.605   1.375 -0.0800  0.0815  0.0256
    1W        W33952   7.135  13.190   6.221 -0.0668 -0.2685 -0.1102
    1W        W33953   2.174   1.514   7.619 -0.1335  0.0258 -0.3323
    1W        W33954   0.585   0.344   9.212  0.1109  0.3856 -0.1956
    1W        W33955  16.860  11.481   9.000  0.2412  0.1277  0.1575
    1W        W33956   1.135  14.856   0.594  0.3045  0.0656  0.0356
    1W        W33957   2.762  20.803   2.455  0.0789  0.0652  0.0172
    1W        W33958  22.380  11.189   7.544 -0.0825 -0.0317  0.2052
    1W        W33959  17.661  26.971   0.426 -0.1396  0.0414 -0.0043
    1W        W33960   7.627  12.343   0.237  0.2983  0.1291 -0.4530
    1W        W33961   2.232   2.258   7.228 -0.0190  0.1590 -0.1637
    1W        W33962  24.729  20.514   3.187  0.0387 -0.2098 -0.0685
    1W        W33963  17.185  21.353   7.028  0.2748 -0.3782 -0.2500
    1W        W33964  23.756   1.736   6.633  0.1880 -0.2493 -0.0600
    1W        W33965  17.608  24.798   1.359  0.0514 -0.1205  0.0063
    1W        W33966  13.167   8.917   2.469 -0.0726  0.0840  0.3277
    1W        W33967  16.376  17.923   0.231 -0.6078  0.1549  0.1538
    1W        W33968  10.026  14.835   9.368 -0.0325  0.1304 -0.1643
    1W        W33969   2.404   0.459   2.053  0.1759  0.0162 -0.1568
    1W        W33970   0.199   4.237   6.821  0.1324  0.1931  0.3526
    1W        W33971   5.056  28.449   0.691 -0.3387  0.0800  0.1567
    1W        W33972  15.415  11.182   7.744  0.0808 -0.0446 -0.1340
    1W        W33973  23.471   2.552   2.003 -0.3219  0.0189 -0.2321
    1W        W33974  27.479  16.799   0.877  0.0735 -0.0271  0.0102
    1W        W33975  29.455   6.767   7.332  0.2826 -0.2128 -0.1971
    1W        W33976  19.509  21.892   3.777  0.0499 -0.0250 -0.2353
    1W        W33977  26.229  17.449   0.069  0.0574 -0.1307  0.3456
    1W        W33978  28.776  28.180   6.424  0.2098 -0.1697 -0.0925
    1W        W33979   6.744  10.101   5.671  0.2819 -0.0517 -0.1652
    1W        W33980   5.392   8.475   8.679  0.0209  0.0559 -0.2346
    1W        W33981  17.528  26.874   8.699 -0.1206 -0.1578  0.0911
    1W        W33982   1.708  21.375   1.516  0.0913  0.3513 -0.0210
    1W        W33983  10.701  28.177   8.819  0.1348  0.0653  0.3127
    1W        W33984   2.863  12.191   1.496  0.1419 -0.0382  0.1312
    1W        W33985  21.178  19.796   7.513  0.0479  0.0141  0.0924
    1W        W33986   2.351   7.385   8.290 -0.1152 -0.1196  0.0319
    1W        W33987   9.313  11.774   2.621  0.3278  0.0519 -0.1137
    1W        W33988  11.416  23.436   6.036 -0.3105 -0.1016  0.1856
    1W        W33989   8.001  13.407   0.271  0.1157 -0.0009  0.0994
    1W        W33990  13.019  18.527   7.874 -0.0996  0.0289 -0.0765
    1W        W33991  24.556  29.176   8.510 -0.1321 -0.2877 -0.1352
    1W        W33992  24.897  15.211   8.659 -0.2932  0.1034  0.2660
    1W        W33993   4.650  15.172   6.650 -0.2690  0.2763  0.0913
    1W        W33994  22.792   3.704   1.535  0.0143  0.1061 -0.2370
    1W        W33995  13.621   6.839   9.556 -0.2988 -0.1490  0.2489
    1W        W33996  27.134  12.559   1.580  0.2014  0.0156 -0.1168
    1W        W33997  25.844  17.854   6.783  0.0392  0.1344 -0.1622
    1W        W33998   9.614  25.379   2.970 -0.2090 -0.0350 -0.3185
    1W        W33999  27.627   4.759   6.457 -0.1581 -0.1519 -0.2326
    1W        W34000   9.839  23.972   6.997  0.3344 -0.0796  0.0342
    1W        W34001  18.004  15.898   7.095  0.0220 -0.2114 -0.1917
    1W        W34002  18.061   2.802   8.639 -0.0036  0.0371 -0.0392
    1W        W34003  13.797  12.357   2.199  0.0195  0.1988  0.3922
    1W        W34004   5.385  10.787   8.714  0.1237  0.0295 -0.0846
    1W        W34005  15.898  11.863   1.422 -0.0742  0.2747 -0.0469
    1W        W34006  15.988   8.851   0.168 -0.0521  0.1168 -0.0039
    1W        W34007  25.407  29.369   3.296  0.0149  0.0202  0.0021
    1W        W34008  23.848  10.333   0.692 -0.1605  0.0385  0.1355
    1W        W34009  28.370  20.756   3.115 -0.1709  0.1570  0.1906
    1W        W34010  18.140  20.535   7.231  0.1330  0.2771 -0.0222
    1W        W34011  22.870   1.738   0.714  0.2303  0.0671  0.1571
    1W        W34012  24.154   2.743   3.231 -0.1488 -0.2026  0.0403
    1W        W34013   1.914   8.725   5.863  0.3118  0.5334  0.1449
    1W        W34014   6.268  16.222   8.612  0.1917  0.0117 -0.2397
    1W        W34015  24.882  21.742   8.404 -0.3007  0.1992  0.1128
    1W        W34016  15.194  26.489   1.375  0.1268 -0.2812 -0.1286
    1W        W34017  28.602  24.525   8.567  0.2243 -0.0519  0.1733
    1W        W34018  15.853   8.668   1.425  0.1299  0.1143 -0.4133
    1W        W34019   3.250  25.993   8.617  0.1569 -0.2463  0.0666
    1W        W34020   4.987  15.084   7.346  0.1699  0.1545 -0.2608
    1W        W34021   7.067   4.243   7.797 -0.1380  0.1541 -0.0269
    1W        W34022  28.660  23.388   6.964 -0.1621  0.1742  0.1273
    1W        W34023   0.117  25.986   8.481 -0.1415 -0.0400  0.2907
    1W        W34024  18.239  13.509   2.374  0.0498  0.0977  0.2596
    1W        W34025   7.740  17.620   8.898 -0.0162 -0.0266 -0.0678
    1W        W34026   1.982  26.216   1.587  0.1159 -0.4568 -0.1427
    1W        W34027  18.496   9.968   7.486 -0.0955 -0.0956  0.0521
    1W        W34028  22.652  19.365   0.233  0.0677 -0.1624 -0.0804
    1W        W34029  11.386  10.417   8.009 -0.0913 -0.1044 -0.2453
    1W        W34030  18.004  11.297   1.000  0.0213 -0.2519  0.0264
    1W        W34031  13.371   6.815   7.502  0.0933 -0.1801  0.1340
    1W        W34032   2.062   4.371   5.997  0.1581 -0.2123  0.1793
    1W        W34033   7.738   1.895   0.735  0.0234 -0.1613  0.0191
    1W        W34034   2.452  22.252   7.292 -0.0495 -0.1240 -0.0378
    1W        W34035  26.899  20.122   0.951  0.1389 -0.1468  0.1302
    1W        W34036  26.826  16.426   9.300  0.2072 -0.0003 -0.0974
    1W        W34037  20.226  27.972   1.299  0.0546 -0.1892  0.3023
    1W        W34038  17.735   6.581   1.855  0.0591  0.1194  0.0480
    1W        W34039  13.305  17.916   3.103  0.0731 -0.1272  0.3217
    1W        W34040  24.795  29.394   2.350 -0.0006 -0.3711 -0.2089
    1W        W34041  29.259   5.311   0.231 -0.3532  0.0189 -0.2646
    1W        W34042  27.368   2.070   2.619  0.0701  0.1784 -0.0068
    1W        W34043   6.893  15.474   0.296 -0.3200  0.3616  0.0622
    1W        W34044   5.788   8.245   7.749 -0.2759  0.0303 -0.2639
    1W        W34045  20.659  23.075   9.496 -0.1349 -0.3295 -0.2224
    1W        W34046  25.778  12.310   0.837 -0.0912 -0.1912 -0.1111
    1W        W34047  26.091   5.409   1.358  0.3413  0.0191 -0.1156
    1W        W34048  21.277  20.228   9.003 -0.1159 -0.1771 -0.1765
    1W        W34049  11.100   8.852   7.548  0.0852  0.0311 -0.1962
    1W        W34050  15.136  23.778   9.617  0.0308 -0.0467 -0.0204
    1W        W34051  22.255   7.872   1.407 -0.0629 -0.0652 -0.2173
    1W        W34052  23.039  22.992   9.331 -0.1041 -0.1208 -0.1369
    1W        W34053  24.418  13.208   2.507 -0.0610 -0.2706  0.2298
    1W        W34054   8.555   0.924   8.954 -0.1189 -0.2677 -0.3408
    1W        W34055  10.678   4.855   9.351  0.0740  0.3504  0.3218
    1W        W34056   3.249  20.389   8.623 -0.1332  0.1138 -0.0588
    1W        W34057   8.575  24.650   9.171 -0.3447  0.0456  0.2060
    1W        W34058   5.259  21.737   9.486 -0.0200 -0.3735 -0.0747
    1W        W34059  19.185  26.557   1.755 -0.1476 -0.3694 -0.2151
    1W        W34060  10.868  13.562   0.605  0.3911  0.1207 -0.0754
    1W        W34061   1.638  25.411   6.810 -0.1854  0.2263 -0.2864
    1W        W34062  24.740  23.300   9.445  0.2330  0.2148  0.5000
    1W        W34063   9.247  14.418   7.503 -0.1947 -0.2713 -0.0216
    1W        W34064  16.193  15.836   7.432  0.0529  0.0937 -0.0550
    1W        W34065   8.850  16.290   8.791 -0.1984 -0.0897  0.1876
    1W        W34066   0.311  24.105   8.196 -0.0618  0.3259  0.1613
    1W        W34067   1.958  25.195   2.130 -0.1501 -0.0011  0.3040
    1W        W34068   1.718   0.815   6.197  0.0847 -0.2556 -0.0536
    1W        W34069   5.427   1.002   7.392  0.1224  0.2105 -0.0045
    1W        W34070  13.325   1.287   7.169 -0.3308  0.0645  0.0481
    1W        W34071   3.647  22.431   0.833 -0.0741  0.0956 -0.0900
    1W        W34072  12.660  22.900   7.760 -0.1010 -0.2096 -0.0059
    1W        W34073   6.031  19.296   1.996  0.1190  0.0752  0.3703
    1W        W34074   8.695  27.224   8.180  0.1331 -0.3621 -0.1198
    1W        W34075  18.257  16.322   1.781  0.1159  0.2581 -0.0085
    1W        W34076  23.717  22.766   1.714 -0.0513 -0.0971 -0.1542
    1W        W34077  26.561   4.922   0.261 -0.4041 -0.0400 -0.2516
    1W        W34078  13.497  13.183   7.391 -0.0708 -0.1373 -0.0992
    1W        W34079  25.138  13.378   1.963  0.5300 -0.0137 -0.2803
    1W        W34080  22.175  16.956   2.674 -0.4310  0.1846  0.1656
    1W        W34081  23.098   2.121   7.622 -0.3625  0.2431  0.2394
    1W        W34082  13.528  22.387   2.051  0.0887  0.2428 -0.1546
    1W        W34083   1.582  25.478   7.342 -0.0641  0.1787  0.1406
    1W        W34084  16.195  12.795   0.001  0.1370 -0.1109  0.3347
    1W        W34085  23.651  18.672   2.007  0.0348 -0.0709  0.0534
    1W        W34086   4.105  10.994   0.702  0.2705  0.0730 -0.0087
    1W        W34087   2.378   2.267   0.704 -0.0097  0.1691  0.0501
    1W        W34088  13.884  20.754   9.091  0.1207  0.0860  0.3288
    1W        W34089  14.187  16.326   8.449  0.1001  0.2535  0.1766
    1W        W34090   2.804  23.668   8.922 -0.0613  0.2192 -0.0197
    1W        W34091  23.217  28.857   3.952  0.1649  0.4820 -0.2609
    1W        W34092   4.928  28.546   2.534  0.0916 -0.1809 -0.1041
    1W        W34093  23.381   7.033   0.049 -0.0750 -0.0951 -0.3440
    1W        W34094  14.679  28.463   8.240 -0.0001  0.1962 -0.5498
    1W        W34095  15.016   0.362   0.061  0.0023  0.3601 -0.1711
    1W        W34096   5.824  13.112   7.414  0.0900 -0.1704  0.0035
    1W        W34097   0.645  24.920   2.247 -0.0395 -0.1799  0.2612
    1W        W34098   9.111  24.551   8.027  0.1333 -0.0830 -0.2111
    1W        W34099  13.354  23.809   1.567  0.2545 -0.0883  0.0437
    1W        W34100   4.335   7.501   7.057 -0.1187 -0.0447  0.2046
    1W        W34101  10.838   4.170   7.484 -0.1497 -0.0813 -0.1073
    1W        W34102   8.350   1.349   7.842  0.1442  0.0160 -0.2314
    1W        W34103   4.016  22.756   1.790  0.1571  0.1210  0.2641
    1W        W34104   2.163  22.006   3.571  0.0330  0.3313 -0.3247
    1W        W34105  10.504   5.804   0.514 -0.2433 -0.4470 -0.1606
    1W        W34106  17.806  11.745   8.815 -0.2707 -0.4800 -0.0228
    1W        W34107  15.658   6.089   6.879  0.0128  0.1732  0.1129
    1W        W34108  21.406   5.594   7.942  0.1246 -0.2862 -0.0494
    1W        W34109  25.728  15.077   8.444  0.0448 -0.0433 -0.0637
    1W        W34110  25.824  27.792   0.532  0.4099  0.0910  0.3322
    1W        W34111  10.848   8.804   7.126 -0.0258 -0.2345  0.3672
    1W        W34112  17.939  21.523   1.218 -0.0390 -0.1718 -0.2932
    1W        W34113  24.754  17.497   3.236 -0.1249  0.0535  0.0732
    1W        W34114  13.859   1.165   1.305 -0.0942  0.1176 -0.0065
    1W        W34115  28.096  22.638   1.950 -0.2476  0.1020  0.2001
    1W        W34116  15.689  22.760   7.175  0.0507  0.0150  0.1615
    1W        W34117  13.867  18.974   1.776  0.4047  0.1173 -0.1766
    1W        W34118  19.683  25.239   0.929 -0.3098  0.0381  0.2413
    1W        W34119  18.976  18.761   8.668  0.1313  0.2573  0.1444
    1W        W34120  16.263   4.425   8.218 -0.0346  0.4703  0.0272
    1W        W34121   4.917  10.564   8.632  0.2555  0.0979  0.3198
    1W        W34122   1.786  17.212   0.532  0.1315 -0.1664 -0.2173
    1W        W34123  24.086  21.721   9.190  0.1141 -0.0302 -0.1013
    1W        W34124   9.938  16.157   6.767  0.1246 -0.1193  0.1651
    1W        W34125  26.888  27.015   2.573 -0.1919  0.5042  0.2284
    1W        W34126  27.707  10.291   1.831  0.1627 -0.0271  0.2362
    1W        W34127  23.399   9.294   2.306  0.0488 -0.0733 -0.0899
    1W        W34128   6.891   1.252   8.641 -0.0935 -0.0677  0.3148
    1W        W34129  27.803  20.792   0.861 -0.2037 -0.0207  0.0478
    1W        W34130   7.029  28.922   9.278  0.0373  0.2535  0.0947
    1W        W34131  19.772   3.354   8.167 -0.0667  0.4142 -0.1686
    1W        W34132  13.974  26.339   0.414 -0.0322 -0.0103  0.1509
    1W        W34133   1.919   0.753   0.155 -0.1562 -0.0250  0.1305
    1W        W34134  10.497  21.359   2.073 -0.1603  0.1264  0.2177
    1W        W34135   8.995  18.400   7.522  0.0631 -0.0147 -0.0638
    1W        W34136  18.726   1.379   0.462 -0.2108 -0.1758 -0.0950
    1W        W34137   8.311  10.684   6.437 -0.1255 -0.2124  0.0102
    1W        W34138  19.636   0.639   1.236  0.1701  0.0124  0.0536
    1W        W34139   1.714  19.738   0.241  0.1023 -0.1935  0.1882
    1W        W34140   6.850   3.857   6.919 -0.0206 -0.3285  0.0733
    1W        W34141   4.201  21.937   2.669 -0.0463  0.0119 -0.0522
    1W        W34142  14.024  29.018   8.472 -0.0788 -0.0513  0.1274
    1W        W34143  21.187   7.892   7.603 -0.0155 -0.0774  0.2814
    1W        W34144   4.036  19.885   3.430 -0.2930  0.3091 -0.0584
    1W        W34145  14.165   8.099   6.295 -0.2695 -0.2422 -0.0707
    1W        W34146  13.004  21.435   8.315 -0.0645 -0.0499  0.1245
    1W        W34147  19.841  24.974   8.587 -0.0250 -0.0395 -0.1857
    1W        W34148   2.264  25.109   2.608  0.1187 -0.3760 -0.1937
    1W        W34149  23.842  17.218   1.844 -0.0662  0.1631  0.0153
    1W        W34150  24.621   3.485   1.927 -0.0998 -0.1397  0.2671
    1W        W34151  13.320   6.804   2.780 -0.0359  0.0249 -0.0174
    1W        W34152  27.967   7.914   7.424  0.3595  0.0022  0.1293
    1W        W34153  26.365  26.698   7.710 -0.0780 -0.0641 -0.0130
    1W        W34154  29.207  14.679   8.102  0.0241 -0.0705  0.0490
    1W        W34155   4.282  19.832   8.441  0.3427  0.0700  0.2493
    1W        W34156  17.857  12.650   8.481 -0.1621 -0.1439 -0.3253
    1W        W34157   3.862  15.844   9.433  0.3407 -0.2384 -0.2868
    1W        W34158  10.822  14.161   7.210 -0.0127  0.0447 -0.0282
    1W        W34159   1.098  12.277   1.356  0.1745  0.1067 -0.0076
    1W        W34160  21.502   9.818   0.010  0.1027  0.3279  0.1253
    1W        W34161  19.868  28.118   7.572 -0.0399 -0.0762 -0.1152
    1W        W34162  23.197  15.711   1.533  0.1579 -0.0671 -0.0694
    1W        W34163  18.065   4.162   6.833  0.0367 -0.1135  0.3051
    1W        W34164  24.164   6.707   2.221 -0.1776 -0.1490  0.1092
    1W        W34165  19.954  28.860   7.878 -0.0375 -0.0955  0.1665
    1W        W34166   1.454  13.333   7.004 -0.0507 -0.2482 -0.1160
    1W        W34167  15.534  15.560   2.689  0.0004 -0.2000  0.2063
    1W        W34168   7.671  21.745   6.555 -0.2306  0.0059  0.3521
    1W        W34169  25.199  11.037   7.990  0.2537 -0.0344 -0.0664
    1W        W34170   2.974   5.390   1.401 -0.2356  0.0555  0.1370
    1W        W34171  18.746  24.599   0.495  0.0638  0.0295 -0.0219
    1W        W34172   7.031   2.953   2.171 -0.0414 -0.0064 -0.2444
    1W        W34173  23.161  15.578   0.306  0.1159  0.0829 -0.1370
    1W        W34174  11.497  27.056   7.970  0.0948 -0.0615  0.1672
    1W        W34175  11.172  28.921   8.605  0.0628  0.0354 -0.1195
    1W        W34176   2.713  21.933   1.681  0.2192 -0.1893 -0.1387
    1W        W34177   7.214  25.061   1.944 -0.1143  0.2831 -0.0855
    1W        W34178   6.980  10.286   8.118 -0.1355 -0.1846  0.0418
    1W        W34179  12.767  14.563   1.111 -0.0065 -0.3494 -0.0790
    1W        W34180  23.703  27.043   7.850  0.1372 -0.1255 -0.1029
    1W        W34181  14.230  12.788   0.174 -0.1316 -0.1097  0.2778
    1W        W34182  12.446  18.124   7.250 -0.1157 -0.1051  0.3525
    1W        W34183   0.300   9.069   8.237 -0.0093 -0.6526  0.1567
    1W        W34184   8.389  22.441   0.678 -0.3161  0.1938  0.2327
    1W        W34185   2.570  14.362   2.659  0.3637  0.1377  0.2246
    1W        W34186  12.409   7.199   8.636  0.1292 -0.1978 -0.0126
    1W        W34187   6.339   9.407   8.205  0.1541  0.1075  0.0857
    1W        W34188  22.179   3.525   8.864 -0.0984 -0.3082 -0.0175
    1W        W34189  23.101   2.099   2.546 -0.1694 -0.4238  0.0287
    1W        W34190   2.077   9.760   6.833 -0.1595  0.0115 -0.0057
    1W        W34191   7.722  11.629   6.043 -0.0522  0.1470 -0.0067
    1W        W34192  25.780  27.479   7.405 -0.1522  0.0912  0.3052
    1W        W34193   7.693  26.401   5.808  0.0053  0.1311 -0.0517
    1W        W34194   4.753  13.676   7.770 -0.0698 -0.1336  0.2386
    1W        W34195   5.796   0.956   6.690 -0.0255 -0.1030 -0.0057
    1W        W34196  21.712   3.702   8.001 -0.1958 -0.1315 -0.0016
    1W        W34197  20.146  10.021   1.022 -0.0597 -0.0568  0.2662
    1W        W34198   3.243  27.647   7.148 -0.0836  0.4245  0.0006
    1W        W34199  17.790  12.801   8.991 -0.1707 -0.0270  0.0716
    1W        W34200  23.332  20.023   7.939 -0.1750  0.2190  0.3537
    1W        W34201  11.382  16.993   7.513  0.0218 -0.1035 -0.2071
    1W        W34202   6.069   7.315   8.622 -0.1177 -0.3496  0.3169
    1W        W34203   7.138   9.690   7.791 -0.0340 -0.0141  0.0442
    1W        W34204   8.371  26.073   7.577 -0.3106  0.4127 -0.0754
    1W        W34205   4.792   3.615   7.556 -0.0731  0.2168 -0.1439
    1W        W34206   3.118  16.921   8.073  0.0519 -0.3605 -0.1137
    1W        W34207   6.817  19.378   1.424  0.0007 -0.0445  0.2471
    1W        W34208   0.930  10.218   8.630 -0.3060 -0.2296 -0.0994
    1W        W34209  27.288  10.401   0.344 -0.2002  0.3481 -0.2575
    1W        W34210  26.243  25.128   6.841  0.2098 -0.0566  0.0568
    1W        W34211  28.068  28.320   8.548 -0.1129 -0.2737 -0.2513
    1W        W34212  10.944  28.503   1.869 -0.0155  0.0161 -0.0815
    1W        W34213  12.294  23.413   9.170  0.0839  0.0687  0.0689
    1W        W34214  16.391  22.220   7.117 -0.1160  0.0225 -0.2528
    1W        W34215   7.754   7.327   1.259  0.1545 -0.1439  0.1893
    1W        W34216  25.078  19.620   1.443  0.0734 -0.1162  0.2732
    1W        W34217   1.446  10.265   9.306  0.0136  0.1312 -0.1532
    1W        W34218   0.707  13.985   0.175  0.0483 -0.0070 -0.1664
    1W        W34219  21.116  22.865   7.938  0.1893 -0.0696 -0.0846
    1W        W34220  15.222  16.602   6.767  0.0404  0.2576 -0.2662
    1W        W34221  13.722  28.220   9.288  0.2493  0.1643  0.0171
    1W        W34222  22.042  14.190   7.735 -0.0903  0.1823 -0.3326
    1W        W34223   8.893   6.860   7.676 -0.0595 -0.1165  0.4166
    1W        W34224  29.360   1.650   7.825 -0.1663  0.0098 -0.3859
    1W        W34225   6.115  12.821   5.991 -0.2440  0.3067 -0.1015
    1W        W34226  18.809   9.070   7.669 -0.1444 -0.2985  0.0277
    1W        W34227  24.548  13.614   0.272  0.0362 -0.0113  0.1597
    1W        W34228  16.187  21.066   7.716  0.1006 -0.0239  0.2218
    1W        W34229  26.340  19.078   7.511  0.1014 -0.0739 -0.1557
    1W        W34230   3.905   4.492   7.780  0.0064  0.1705  0.0724
    1W        W34231  16.976   6.307   8.994 -0.2440  0.0642  0.2031
    1W        W34232  15.924  18.822   6.487 -0.0422 -0.1833 -0.0569
    1W        W34233  27.835  24.229   1.607  0.2415 -0.0846 -0.3663
    1W        W34234   1.806  18.705   9.394 -0.0550  0.2550 -0.0459
    1W        W34235  10.451   6.338   0.748 -0.2657  0.1614  0.2259
    1W        W34236   4.531  23.284   7.993 -0.0299 -0.0159  0.1171
    1W        W34237  28.860   5.308   7.144 -0.2857 -0.0778  0.0117
    1W        W34238   0.606  24.856   3.269 -0.1377 -0.1706 -0.1742
    1W        W34239  10.153  26.904   1.267  0.2335  0.1039 -0.4449
    1W        W34240  12.560  15.275   0.602 -0.1107 -0.1474 -0.0311
    1W        W34241   9.995  13.509   7.722 -0.1317  0.1678 -0.4194
    1W        W34242  12.007  12.957   5.785 -0.0118  0.1662  0.1677
    1W        W34243  23.073  22.007   3.372 -0.1058 -0.0338  0.0621
    1W        W34244  11.012  12.658   6.077 -0.0325 -0.1092  0.3169
    1W        W34245   6.481   0.044   8.502 -0.0470 -0.0515  0.0477
    1W        W34246   0.036  23.484   9.303 -0.4977 -0.1661 -0.1962
    1W        W34247   5.359   2.391   7.735 -0.1747 -0.1826 -0.1234
    1W        W34248  17.763   8.528   1.181  0.2790 -0.0020 -0.0065
    1W        W34249  21.443   4.509   1.510 -0.0189 -0.0273  0.1409
    1W        W34250  21.145  25.037   2.651  0.1473 -0.0143  0.2334
    1W        W34251  26.003  10.572   7.549  0.1472  0.1561 -0.3078
    1W        W34252   4.242  10.790   6.486  0.2389  0.1666  0.1321
    1W        W34253  17.317   9.304   8.702 -0.4498  0.3482 -0.0316
    1W        W34254  10.264   2.637   6.294  0.1016 -0.0099 -0.3598
    1W        W34255  15.122   6.662   2.793 -0.1225  0.0731  0.3144
    1W        W34256   9.807  18.042   6.165  0.0299 -0.0056 -0.1676
    1W        W34257   1.902   3.014   0.245 -0.0610 -0.1480 -0.0023
    1W        W34258   9.976  23.912   6.467  0.1721  0.3043 -0.2070
    1W        W34259  14.009  25.622   0.034 -0.3433 -0.2333 -0.0241
    1W        W34260  11.388  10.842   1.218 -0.0681  0.1346 -0.1826
    1W        W34261  12.411  27.977   1.817  0.0818 -0.1625  0.0130
    1W        W34262  23.272  24.821   4.511 -0.4097  0.0771 -0.0019
    1W        W34263   8.203  24.301   2.377  0.0197  0.1847  0.0686
    1W        W34264  24.867  19.515   7.077 -0.1906  0.6814  0.1791
    1W        W34265  18.809  26.839   6.933 -0.2019  0.1393  0.0552
    1W        W34266  26.217   8.161   7.432  0.2107 -0.1412 -0.0139
    1W        W34267   8.721   4.301   2.575 -0.1654  0.1150 -0.1028
    1W        W34268   2.737  27.279   9.184  0.0999  0.1703 -0.2484
    1W        W34269   4.986  21.457   8.569 -0.1399  0.2694  0.0425
    1W        W34270  28.765   6.277   8.455 -0.2926  0.0273 -0.1181
    1W        W34271  11.264  12.588   1.515 -0.1719 -0.2125  0.0407
    1W        W34272  17.341   7.298   8.730 -0.0369 -0.0704 -0.2680
    1W        W34273  28.258  20.088   4.063 -0.2138 -0.2971  0.1395
    1W        W34274  28.596  28.286   2.974  0.0056  0.2822  0.1783
    1W        W34275  21.861  13.009   0.816  0.2001 -0.0602  0.2380
    1W        W34276   7.945  27.448   0.759 -0.0410 -0.4249  0.2581
    1W        W34277  27.551   7.220   0.058 -0.1486 -0.0118  0.1009
    1W        W34278  22.317  18.884   1.994  0.1431  0.2161  0.0397
    1W        W34279  25.415   6.637   7.128  0.0233 -0.4194 -0.3205
    1W        W34280   4.477   4.281   8.637  0.0780  0.1671  0.0335
    1W        W34281  27.977  13.307   1.772 -0.2070 -0.0536  0.0743
    1W        W34282   3.339   5.704   7.326 -0.0929  0.0805  0.1615
    1W        W34283   4.701   9.760   7.627  0.2080 -0.1009 -0.1909
    1W        W34284  18.820  23.394   8.732  0.0040 -0.1268  0.1225
    1W        W34285  21.184   1.473   8.059 -0.1079  0.2716  0.2090
    1W        W34286   2.744  22.977   2.310 -0.0898 -0.1966 -0.3586
    1W        W34287   7.487  13.904   1.258  0.0305 -0.2295 -0.0914
    1W        W34288   1.811  29.445   0.348  0.0140 -0.0836 -0.2882
    1W        W34289  21.199  23.485   9.103  0.0740  0.1095  0.1267
    1W        W34290  18.795   6.968   2.336  0.0733  0.4397  0.2065
    1W        W34291   3.440   1.647   6.734  0.3002 -0.2133 -0.1486
    1W        W34292  17.050  15.998   7.548  0.1076  0.1075  0.0369
    1W        W34293  17.931  13.602   1.976  0.1662  0.0141  0.2027
    1W        W34294  13.154  11.583   8.190  0.0573  0.0762  0.2686
    1W        W34295  21.202  26.959   1.136  0.0362  0.3085  0.1812
    1W        W34296  26.681  24.429   1.017 -0.0501 -0.0014 -0.0309
    1W        W34297  20.182   6.256   9.475  0.0900 -0.1070 -0.5255
    1W        W34298  22.289  20.881   9.328  0.1032  0.0361  0.2321
    1W        W34299  28.400  14.489   2.372  0.2850 -0.1441 -0.0552
    1W        W34300   4.865   1.471   1.414  0.2578  0.0789  0.0852
    1W        W34301  25.463  12.630   8.409 -0.0123 -0.0194  0.2624
    1W        W34302  27.903  21.349   2.303  0.0475  0.2438  0.0140
    1W        W34303   8.985  25.775   2.345 -0.0737 -0.1705 -0.0398
    1W        W34304  21.559  27.401   1.033  0.1092  0.0905  0.0559
    1W        W34305   6.998  27.518   0.099 -0.0694 -0.0938 -0.4570
    1W        W34306  22.156   6.956   8.609 -0.1814  0.3514  0.0623
    1W        W34307   2.973  10.788   1.590  0.0676 -0.1193  0.2166
    1W        W34308  27.893  26.002   8.176 -0.0031  0.2880  0.0645
    1W        W34309  11.229  28.738   8.133  0.1867  0.1505 -0.2118
    1W        W34310  17.799  11.583   8.258  0.2204  0.3007 -0.0355
    1W        W34311   9.384   6.512   0.198 -0.1678 -0.1377  0.3498
    1W        W34312  20.401  11.659   8.400  0.0649 -0.4020 -0.2040
    1W        W34313  13.193   8.315   1.778  0.2681 -0.0281  0.0237
    1W        W34314   3.405  10.861   6.388 -0.1246  0.1855  0.0990
    1W        W34315  29.291   7.293   8.184  0.0330 -0.0417 -0.0174
    1W        W34316  13.516   3.812   6.027  0.2073  0.0223 -0.1805
    1W        W34317  16.306  22.853   7.082  0.2348  0.0612  0.3033
    1W        W34318  19.196  22.790   8.141 -0.1748  0.1851  0.2190
    1W        W34319   4.984  17.084   7.336 -0.0123 -0.2227  0.0421
    1W        W34320  14.630  13.779   7.336  0.2025  0.1948  0.2129
    1W        W34321  16.878  10.493   0.533 -0.0209  0.0500  0.1149
    1W        W34322  17.613   6.738   8.969 -0.0642  0.0602 -0.1330
    1W        W34323  10.833   3.753   6.604  0.0810 -0.2277  0.1482
    1W        W34324   6.532   7.598   8.602  0.1271  0.0958  0.0207
    1W        W34325  20.973  28.567   2.898 -0.1505 -0.1278 -0.0513
    1W        W34326   3.235  24.906   9.353  0.4162  0.0940 -0.3018
    1W        W34327  25.734   5.809   0.443 -0.2466  0.2059  0.1373
    1W        W34328   9.063  10.668   6.208 -0.3217 -0.1117  0.0862
    1W        W34329  16.015  21.371   0.225  0.2828  0.0094  0.0512
    1W        W34330  29.465  13.447   0.922 -0.1650  0.2986  0.2961
    1W        W34331  28.616  16.432   9.245 -0.0624 -0.0730  0.0112
    1W        W34332  11.409  26.086   6.152 -0.2339 -0.0181 -0.3670
    1W        W34333  28.616   9.133   1.416 -0.0624 -0.3599 -0.1795
    1W        W34334  12.459   3.256   0.421 -0.0123 -0.1784  0.1659
    1W        W34335  24.759  26.357   9.212  0.0100  0.1372  0.1151
    1W        W34336   0.927   5.485   1.660  0.0982 -0.1811 -0.1745
    1W        W34337   9.247  18.335   0.859  0.2027  0.0546  0.0848
    1W        W34338  28.908   4.760   7.842 -0.1894 -0.0187 -0.1135
    1W        W34339  26.977  21.454   8.862  0.0205 -0.1403  0.1534
    1W        W34340  23.989  21.611   3.925  0.0607 -0.0664  0.0637
    1W        W34341   1.341   7.281   6.584 -0.4431 -0.1932  0.1117
    1W        W34342   3.304  12.256   1.881 -0.0168 -0.1213  0.4503
    1W        W34343  23.748  15.348   7.744  0.0784 -0.1059  0.0731
    1W        W34344   7.592  22.594   2.794  0.0666 -0.4327  0.1303
    1W        W34345  28.684  28.718   7.034 -0.0714  0.0809  0.0764
    1W        W34346   4.048  22.325   2.089  0.4510  0.3819  0.1226
    1W        W34347  29.001  28.812   7.763 -0.0095  0.2742  0.1223
    1W        W34348   9.070  14.651   1.567 -0.1926 -0.1111 -0.0321
    1W        W34349  29.211  23.274   9.352 -0.1976 -0.0494  0.0748
    1W        W34350  22.499  22.299   8.307  0.0836 -0.1581  0.1448
    1W        W34351   5.919   9.193   7.962  0.4280 -0.0614 -0.0418
    1W        W34352  10.752   0.588   0.664 -0.2155 -0.4288 -0.0164
    1W        W34353   8.164  29.232   8.656  0.0378  0.2652  0.1662
    1W        W34354   9.949   0.045   2.049 -0.1945 -0.0356 -0.0202
    1W        W34355  12.727  19.792   6.703  0.0138 -0.1342 -0.0605
    1W        W34356   9.927   6.840   9.093  0.0872 -0.1117  0.2024
    1W        W34357   6.558  29.070   2.360  0.2124  0.2660  0.0442
    1W        W34358  18.150   2.894   2.159  0.0401  0.0441 -0.0024
    1W        W34359  21.880  26.204   2.636  0.1825  0.0376 -0.2406
    1W        W34360  20.836   7.368   0.797 -0.2511 -0.1705  0.2779
    1W        W34361  27.406   0.646   7.463  0.1699  0.1180  0.0047
    1W        W34362   5.414  18.900   7.514  0.0197 -0.0143 -0.2265
    1W        W34363  11.790  26.153   0.461 -0.1041  0.3136  0.0759
    1W        W34364  28.148  28.244   9.538  0.2897 -0.0166  0.0384
    1W        W34365  20.200  19.802   0.497  0.3402 -0.0711  0.3873
    1W        W34366  12.230  19.430   1.503  0.0765  0.0371  0.2767
    1W        W34367  13.817  24.412   7.627 -0.1405 -0.3653  0.1808
    1W        W34368  20.823  19.216   9.186 -0.1900  0.2115  0.2822
    1W        W34369  24.837  28.134   0.200 -0.2765 -0.3255 -0.2150
    1W        W34370  21.633  18.784   3.566  0.0129 -0.1215  0.0955
    1W        W34371  12.181   9.454   0.940 -0.2512  0.1023  0.2106
    1W        W34372   0.326  20.933   1.809  0.1338  0.0113 -0.2663
    1W        W34373   6.086  27.137   0.234 -0.1192  0.1034 -0.3010
    1W        W34374  20.881  19.033   1.028  0.1901 -0.0484 -0.4038
    1W        W34375  21.300  23.329   8.026  0.0325 -0.1346 -0.2171
    1W        W34376   5.273  10.065   8.712 -0.0881 -0.3034  0.0213
    1W        W34377   0.164  15.257   7.570  0.0552 -0.0782  0.1692
    1W        W34378  19.446  19.351   3.235 -0.0086  0.3301  0.2623
    1W        W34379  10.508   2.125   7.718  0.1249 -0.0547  0.0784
    1W        W34380  11.647  24.164   2.627  0.2672 -0.0318  0.4301
    1W        W34381  15.575   5.737   8.267 -0.0675  0.0804 -0.0929
    1W        W34382  29.260  14.189   8.329 -0.0623  0.1531  0.2597
    1W        W34383  14.681  12.016   9.549  0.0859 -0.1294  0.1767
    1W        W34384  20.658   2.984   0.280  0.0167  0.2767 -0.0622
    1W        W34385  17.099  22.376   7.988 -0.3168 -0.0514  0.0612
    1W        W34386  27.747  10.895   1.050 -0.1149  0.2498  0.2100
    1W        W34387  10.184  19.622   0.001 -0.1045  0.0652 -0.2284
    1W        W34388  27.097  18.148   8.732 -0.1703  0.4265 -0.2889
    1W        W34389   4.738  20.428   7.595 -0.0989 -0.2282 -0.0593
    1W        W34390   7.497  10.903   2.235 -0.4480 -0.0033 -0.0341
    1W        W34391  23.821  29.259   0.162 -0.2182  0.1147  0.0463
    1W        W34392  14.671  25.854   1.913  0.0773 -0.1895 -0.3238
    1W        W34393  13.704  23.895   2.586 -0.0966  0.0251 -0.2080
    1W        W34394  13.739  21.519   8.080  0.2013  0.1463  0.0631
    1W        W34395  10.637  27.600   6.826 -0.0475  0.0799 -0.0040
    1W        W34396  23.115  13.108   1.690 -0.2092 -0.3647 -0.1047
    1W        W34397  20.352  26.996   8.387  0.2984 -0.1815  0.0080
    1W        W34398   6.277  14.980   1.790  0.0151  0.2263 -0.0476
    1W        W34399  22.535  18.298   1.392 -0.0348 -0.0203  0.2495
    1W        W34400  27.013  12.489   9.079  0.0997 -0.0904 -0.0124
    1W        W34401   1.955   1.343   3.260  0.0220  0.0703 -0.3113
    1W        W34402   2.186  29.323   1.557  0.0519 -0.0083  0.0444
    1W        W34403  21.746   6.869   9.514  0.1798  0.1009 -0.3396
    1W        W34404  24.760  10.007   8.298 -0.0030  0.1661 -0.1232
    1W        W34405   1.069  18.935   7.779 -0.1118 -0.1181 -0.1187
    1W        W34406   0.722  27.856   2.759 -0.1532 -0.2727  0.1977
    1W        W34407   9.876   7.653   9.388 -0.0709  0.0161 -0.0713
    1W        W34408  10.485  27.987   8.102 -0.3575 -0.1535  0.0889
    1W        W34409   6.728  19.818   8.689  0.0349  0.2209 -0.0507
    1W        W34410  21.479   7.665   2.704 -0.0177 -0.1447 -0.1022
    1W        W34411  28.856   1.319   1.429 -0.1438 -0.1982  0.0116
    1W        W34412  16.412  14.090   1.785  0.1361 -0.0373 -0.0816
    1W        W34413  18.042  15.967   1.554  0.2048  0.1287  0.3847
    1W        W34414   9.328  24.273   0.525  0.1122 -0.0180  0.2119
    1W        W34415  18.680  27.435   8.388 -0.1350  0.3186  0.2766
    1W        W34416   7.072  12.513   1.196 -0.0518 -0.2946 -0.0468
    1W        W34417   1.981  22.162   7.467 -0.0164  0.3846  0.2163
    1W        W34418  29.598  20.383   0.091 -0.0533 -0.0763  0.1929
    1W        W34419   8.056  19.874   7.375  0.3733  0.0606  0.1235
    1W        W34420   6.985  23.921   2.435  0.1461 -0.1604  0.0492
    1W        W34421   9.911   5.843   8.182 -0.0935 -0.0563  0.1856
    1W        W34422  14.785  14.896   7.295 -0.1581  0.3315  0.0581
    1W        W34423  26.125  26.231   8.995 -0.3467 -0.3008 -0.0310
    1W        W34424  21.798  21.149   9.586 -0.2178  0.2055  0.2392
    1W        W34425   2.293  16.068   2.075  0.2169 -0.0022  0.0325
    1W        W34426   7.069  18.062   7.333 -0.1354 -0.0465 -0.1008
    1W        W34427  13.167  18.462   8.595  0.0631  0.1314  0.0286
    1W        W34428  21.676  26.190   3.841  0.4490  0.2495 -0.0781
    1W        W34429  25.150   6.362   0.993 -0.1612  0.2075 -0.1399
    1W        W34430   6.199  20.134   1.015  0.1854 -0.1216 -0.0294
    1W        W34431  10.240  26.344   1.947 -0.0564 -0.2286  0.0541
    1W        W34432   8.483  11.408   0.807  0.0375 -0.2641  0.0183
    1W        W34433   2.938  16.802   2.476  0.0990  0.1476 -0.0141
    1W        W34434   5.762   5.870   7.798  0.0753 -0.0301  0.1350
    1W        W34435  28.869  27.451   2.178 -0.0962 -0.1085 -0.0670
    1W        W34436  11.757   0.290   6.860  0.1338  0.4447  0.0420
    1W        W34437  25.265  15.368   6.931  0.0103 -0.1176 -0.0832
    1W        W34438  13.262  17.831   8.509  0.2730 -0.0033  0.1624
    1W        W34439   7.713  28.377   2.337  0.1898 -0.3307  0.2042
    1W        W34440  24.040  10.097   0.239  0.1501 -0.1684 -0.1301
    1W        W34441   8.181  25.841   3.023  0.2362 -0.0328  0.3258
    1W        W34442   9.242   9.300   8.526  0.3209  0.0294 -0.0872
    1W        W34443  21.014   3.238   2.273  0.1215  0.2588  0.0459
    1W        W34444  16.509  19.600   0.899  0.3959  0.2586 -0.0318
    1W        W34445   0.237   2.718   8.257  0.4506 -0.2101  0.0634
    1W        W34446  20.858  22.114   3.854 -0.1097  0.0652 -0.1063
    1W        W34447  20.183   9.053   1.238  0.1710 -0.1851 -0.1439
    1W        W34448  29.368  26.820   0.265 -0.0111  0.0579 -0.0794
    1W        W34449  23.800  13.158   0.971  0.0324  0.2977  0.2556
    1W        W34450   6.708  22.303   7.394  0.0751 -0.1938 -0.0447
    1W        W34451  26.335   1.270   0.443  0.1517 -0.0434 -0.0446
    1W        W34452   7.114  28.545   0.373  0.1423 -0.1767  0.3558
    1W        W34453   3.501  25.897   3.211 -0.1347  0.1108 -0.1262
    1W        W34454  26.754   3.277   8.963  0.0801 -0.0207 -0.1672
    1W        W34455   9.412  12.033   2.157  0.3738  0.0211  0.0213
    1W        W34456   8.099   6.806   7.433 -0.0858 -0.0905  0.0955
    1W        W34457  19.597  24.583   8.407 -0.1784  0.0154 -0.3729
    1W        W34458  11.582   1.098   7.178  0.0155  0.2988 -0.2443
    1W        W34459   8.711  13.164   9.498  0.0124  0.1107 -0.1556
    1W        W34460   4.979   6.605   1.020  0.0300 -0.3963 -0.0361
    1W        W34461  10.241  13.504   2.172 -0.0718 -0.1060  0.0347
    1W        W34462  10.724  28.674   9.060 -0.1192  0.4900 -0.1696
    1W        W34463   5.629  26.355   0.318 -0.0473  0.0694 -0.2910
    1W        W34464  11.032  17.233   1.406  0.1348 -0.2804 -0.0486
    1W        W34465  28.895  22.214   2.063 -0.0394 -0.1035  0.2366
    1W        W34466  16.192   4.731   7.076 -0.0853  0.3343 -0.0796
    1W        W34467   9.082  20.418   0.698 -0.3776 -0.0167 -0.1748
    1W        W34468  26.323  16.430   9.340  0.0853 -0.0591 -0.2936
    1W        W34469  12.370  28.235   7.735 -0.1089  0.0456  0.0462
    1W        W34470  22.187  26.810   9.193  0.2076  0.1247 -0.1648
    1W        W34471  19.131   1.943   2.065  0.0887  0.2837 -0.1608
    1W        W34472  16.944   5.173   9.501  0.0596  0.2905 -0.1914
    1W        W34473  19.047   8.500   2.067 -0.1613  0.0888 -0.1153
    1W        W34474  14.421   3.300   6.616  0.0903  0.0324 -0.2024
    1W        W34475   1.262   6.049   1.652  0.0328  0.0091 -0.0445
    1W        W34476  26.141   8.274   8.971  0.2311 -0.3397 -0.1955
    1W        W34477   2.150  21.161   1.247  0.2572 -0.0777 -0.0760
    1W        W34478  16.185  11.442   1.707 -0.0411  0.1149 -0.1294
    1W        W34479   6.453   5.224   8.673 -0.1588 -0.1172 -0.0542
    1W        W34480  15.825   0.663   2.276 -0.0050 -0.2774  0.0123
    1W        W34481   2.986  15.517   9.429 -0.0052  0.0249 -0.0232
    1W        W34482  15.490  16.680   9.484  0.2271 -0.0336  0.0767
    1W        W34483  12.564   1.627   6.333 -0.2347  0.0842  0.0833
    1W        W34484  21.697   3.377   9.114 -0.0598  0.1945 -0.0323
    1W        W34485  15.189  26.629   9.632  0.0736  0.4108  0.0220
    1W        W34486  12.748  11.002   7.887 -0.0596 -0.2285  0.4345
    1W        W34487   8.332   1.675   7.460  0.1471 -0.0754  0.0540
    1W        W34488  13.297  13.653   7.455  0.0480 -0.0337  0.1513
    1W        W34489  21.423  18.991   2.815  0.0336 -0.0855  0.0808
    1W        W34490   8.348  20.784   7.049 -0.1497 -0.0719 -0.2791
    1W        W34491   0.094  21.774   0.248 -0.0055  0.2386 -0.0840
    1W        W34492  26.394  27.248   9.115  0.0088 -0.5437 -0.2253
    1W        W34493  23.855  14.948   0.762 -0.0391  0.0893 -0.1862
    1W        W34494  21.305   6.593   9.526  0.0720  0.0368  0.2741
    1W        W34495   1.818  28.782   2.570 -0.2547  0.2058  0.1947
    1W        W34496  15.192   8.272   8.044 -0.1215 -0.1403  0.0113
    1W        W34497  21.308  10.140   0.459  0.0529  0.1360 -0.0309
    1W        W34498   3.903  17.572   0.544 -0.1809 -0.2122 -0.1956
    1W        W34499  14.047  21.711   7.660  0.0156  0.0733 -0.2327
    1W        W34500  13.484  12.146   1.828 -0.0670  0.1389  0.2984
    1W        W34501  24.220   0.175   3.428 -0.1819  0.2190  0.0914
    1W        W34502   2.755   7.463   6.307  0.0487  0.0594  0.0572
    1W        W34503  20.466  17.894   2.478 -0.1916  0.0489 -0.0938
    1W        W34504   6.009  17.201   7.937 -0.0633 -0.0233 -0.0261
    1W        W34505  12.964   8.204   7.872 -0.3352  0.0270  0.2605
    1W        W34506  25.862  27.465   2.241 -0.0016 -0.1175 -0.1304
    1W        W34507   3.998  14.182   1.896 -0.2835 -0.2206  0.0436
    1W        W34508  29.460   7.104   6.927  0.1370  0.0183 -0.0716
    1W        W34509  12.561   0.058   7.576  0.3353  0.1432  0.0811
    1W        W34510   1.914  27.501   1.514 -0.1546  0.2186  0.1396
    1W        W34511   3.059  23.126   8.976  0.1152  0.0473 -0.0643
    1W        W34512  23.776  21.159   0.749  0.4355  0.1206  0.1572
    1W        W34513  21.123  24.246   8.530 -0.3742  0.2429  0.4673
    1W        W34514  19.109  28.328   0.782  0.1742  0.1842  0.0750
    1W        W34515   7.235  20.115   0.865  0.0543 -0.2467 -0.1548
    1W        W34516  28.587  29.520   1.565  0.0423 -0.0100 -0.0063
    1W        W34517  29.441  26.424   9.102 -0.2353 -0.1463  0.1055
    1W        W34518   4.540  11.184   5.202  0.1035 -0.0728 -0.3485
    1W        W34519  27.116  21.202   2.024 -0.1016 -0.0922  0.1095
    1W        W34520   7.095  26.347   1.656 -0.1014 -0.0461  0.0797
    1W        W34521  22.682   1.817   8.758  0.0192  0.1990 -0.2304
    1W        W34522  23.132  10.275   8.067  0.0621 -0.1443  0.1313
    1W        W34523  28.224  15.076   0.301 -0.0034  0.0625  0.0761
    1W        W34524  18.626   6.236   2.748  0.0737  0.3346 -0.0329
    1W        W34525  26.417   5.588   1.892 -0.0043  0.2994 -0.0141
    1W        W34526   0.878   8.809   1.723 -0.0144 -0.0368 -0.4067
    1W        W34527  14.794   2.078   2.460 -0.1423  0.1409 -0.0620
    1W        W34528   7.246  28.466   2.636  0.1305 -0.5732  0.3383
    1W        W34529  25.548   0.913   1.101 -0.1008  0.1304 -0.2333
    1W        W34530  10.084  23.541   8.688 -0.0733 -0.0216  0.1269
    1W        W34531   6.945  12.040   8.317  0.0609 -0.0961  0.4625
    1W        W34532  24.507  25.600   0.855 -0.1074 -0.0706 -0.2468
    1W        W34533   9.534   4.473   6.324 -0.0990 -0.0545 -0.0478
    1W        W34534  16.191   2.354   0.943 -0.1661  0.1350  0.1998
    1W        W34535  11.930  17.669   6.292 -0.2129  0.1174 -0.0240
    1W        W34536  20.855  14.160   7.954  0.0728  0.0050  0.2336
    1W        W34537  18.685  22.659   8.898 -0.0117  0.1735 -0.1756
    1W        W34538  19.590  20.961   2.900  0.0884 -0.2226  0.1207
    1W        W34539  19.913  29.289   9.163  0.0206 -0.1012  0.0933
    1W        W34540   8.734   8.577   7.073 -0.2973 -0.2334  0.2442
    1W        W34541   1.171   5.533   7.459  0.1374 -0.2606 -0.0386
    1W        W34542  11.371  10.775   1.911  0.0967 -0.2411  0.2717
    1W        W34543  13.003  27.535   1.499 -0.1648  0.1130  0.0201
    1W        W34544  29.067   5.634   6.507 -0.1790  0.1999 -0.1526
    1W        W34545   1.318   9.240   0.680 -0.2741  0.1472 -0.1328
    1W        W34546  13.369  13.473   0.294  0.0674  0.0758  0.0872
    1W        W34547  20.656   0.509   9.516 -0.1515 -0.3479  0.0951
    1W        W34548   7.174  15.854   8.676  0.1177  0.0507  0.1399
    1W        W34549   2.567   3.293   1.618  0.1246  0.0178 -0.4170
    1W        W34550   6.793   9.730   6.557  0.2332 -0.1464  0.1286
    1W        W34551  27.186  12.984   1.126 -0.0601 -0.4061 -0.1938
    1W        W34552  22.393  25.291   9.271  0.1225  0.0699 -0.0424
    1W        W34553   7.434  18.004   6.728 -0.0539 -0.1152 -0.0841
    1W        W34554  15.028   1.444   2.287 -0.1727 -0.5788 -0.0912
    1W        W34555  28.893  21.981   3.872 -0.0904  0.3202  0.0412
    1W        W34556  15.847  14.154   1.687  0.0166  0.0039  0.1342
    1W        W34557  27.811   4.668   9.321  0.0598 -0.0083 -0.0502
    1W        W34558   9.001  21.917   2.603  0.3071 -0.0382 -0.2391
    1W        W34559  10.753   7.940   9.564 -0.2681  0.1222  0.1898
    1W        W34560   7.702  15.561   2.574 -0.1542  0.1974 -0.3208
    1W        W34561   9.735  28.097   0.994  0.3428  0.2412 -0.2557
    1W        W34562   5.798  28.453   1.679  0.0366 -0.0342 -0.0305
    1W        W34563   1.681  27.865   7.971 -0.0726 -0.0646 -0.0412
    1W        W34564   6.184   9.605   0.559  0.4386  0.2652  0.1668
    1W        W34565  13.903  28.291   8.840 -0.3996 -0.1210 -0.1191
    1W        W34566  29.023  16.908   2.489  0.1163 -0.0249 -0.0432
    1W        W34567  19.723   8.584   8.542  0.1109 -0.0145  0.0228
    1W        W34568  25.387  26.181   3.337  0.0601 -0.3284  0.1196
    1W        W34569   9.437   3.733   0.493 -0.0869 -0.0001  0.0330
    1W        W34570  15.532  23.575   0.953  0.3301  0.3178 -0.0163
    1W        W34571   3.717   4.941   8.619 -0.0169 -0.2880 -0.1717
    1W        W34572   3.249  10.728   1.024 -0.1149 -0.0675 -0.0832
    1W        W34573  27.364  22.965   0.308 -0.2124  0.2537 -0.1203
    1W        W34574  23.563  13.374   9.462  0.1682  0.0265  0.1839
    1W        W34575  11.491  10.344   8.607  0.0259 -0.2252  0.2954
    1W        W34576  19.238  11.424   1.861 -0.0133  0.1459 -0.1063
    1W        W34577  28.518  27.740   7.193  0.1008  0.2278  0.2208
    1W        W34578   5.994   9.884   7.176  0.0332  0.3133 -0.1295
    1W        W34579   8.616  14.225   0.747  0.1479  0.0088  0.1263
    1W        W34580  17.903   2.469   7.555  0.1278  0.2305 -0.0631
    1W        W34581  13.660   8.987   0.253  0.0378 -0.2438 -0.1868
    1W        W34582  21.472  15.678   9.343 -0.1660 -0.1692  0.1578
    1W        W34583   8.245  16.266   8.157  0.4893  0.1343  0.1120
    1W        W34584  27.946  27.155   7.341 -0.0820  0.1216 -0.1023
    1W        W34585   1.369   4.155   0.178  0.0515  0.0199  0.3530
    1W        W34586  29.468  16.233   0.484 -0.1676  0.1266  0.2761
    1W        W34587  13.527  18.677   7.249 -0.0760 -0.0704  0.0815
    1W        W34588  16.620  18.286   2.300 -0.0498  0.1914 -0.1393
    1W        W34589  20.370   4.745   1.101  0.0330  0.0675 -0.2072
    1W        W34590  28.502  16.079   7.741  0.2027 -0.1993 -0.1160
    1W        W34591  18.118  22.442   1.023 -0.0157 -0.0990  0.0356
    1W        W34592   6.293   3.982   1.824  0.1587  0.1293 -0.0255
    1W        W34593  25.649   9.149   1.974  0.1910  0.0167 -0.0211
    1W        W34594   2.165  23.186   7.596 -0.0127 -0.3289 -0.2932
    1W        W34595   3.145  16.363   7.643  0.2370 -0.0443 -0.0481
    1W        W34596   1.298  25.692   2.468  0.1862 -0.0190  0.4960
    1W        W34597  20.857  23.617   4.123  0.1784 -0.1090  0.2678
    1W        W34598  21.198   7.367   1.164  0.0988  0.0922 -0.1514
    1W        W34599  24.080  26.148   2.453  0.1449  0.0280 -0.0997
    1W        W34600   4.181   5.651   8.617  0.3306 -0.0919 -0.2708
    1W        W34601   5.726  26.623   8.489  0.4571 -0.1414  0.1785
    1W        W34602   4.482  17.173   7.017 -0.3325  0.0927  0.0753
    1W        W34603   5.916   7.519   6.599  0.3095 -0.0051 -0.2211
    1W        W34604  26.768  24.829   2.194  0.0891 -0.3000  0.1327
    1W        W34605  22.037   5.109   9.348 -0.0225  0.3709 -0.1866
    1W        W34606  21.516  27.033   2.012  0.2290 -0.1567  0.3175
    1W        W34607  19.874   6.002   7.266 -0.0458  0.2690  0.1820
    1W        W34608  19.017   0.766   7.973  0.0927  0.0140  0.0935
    1W        W34609   3.418   7.692   1.606 -0.1139 -0.1107 -0.0362
    1W        W34610  24.601  27.957   8.729 -0.0009 -0.4108  0.1163
    1W        W34611  26.766  26.458   0.457  0.0776  0.2124  0.0181
    1W        W34612   2.889  14.675   7.038 -0.2013  0.4318 -0.1458
    1W        W34613   9.215  25.996   8.020  0.2141 -0.3027  0.0862
    1W        W34614   1.085  15.348   0.432 -0.2644 -0.0616 -0.2104
    1W        W34615  20.512  11.175   7.919 -0.0154 -0.0958 -0.0314
    1W        W34616  26.894   1.612   0.832 -0.1990  0.0956 -0.5790
    1W        W34617   9.008   5.778   9.456  0.2528  0.1171  0.1861
    1W        W34618   8.307  23.604   6.411  0.1291 -0.1001 -0.0137
    1W        W34619  28.208  27.545   0.729 -0.2690 -0.2425  0.0729
    1W        W34620  15.333  20.001   8.818  0.2555 -0.0146 -0.0162
    1W        W34621  10.061   8.896   1.287 -0.0201  0.0169 -0.1627
    1W        W34622  27.191  25.841   8.951 -0.2567 -0.1527 -0.4742
    1W        W34623  21.622   0.812   0.096  0.3763  0.2691  0.1225
    1W        W34624  27.134   4.273   0.262 -0.0869 -0.1078 -0.0529
    1W        W34625  16.495  23.438   0.537 -0.1637  0.2935  0.1468
    1W        W34626  16.133  17.067   2.078  0.0515  0.1276 -0.1755
    1W        W34627  19.149  12.707   7.871 -0.2828 -0.1987  0.4163
    1W        W34628   7.924  18.121   0.266  0.0586  0.1040  0.1201
    1W        W34629   0.854  16.573   1.245 -0.0092 -0.1011  0.0725
    1W        W34630  26.272  27.145   8.648  0.2506  0.0405 -0.0305
    1W        W34631   8.161   8.179   8.611  0.0020 -0.2312 -0.1593
    1W        W34632   3.946  14.896   6.125  0.0679 -0.0528 -0.0439
    1W        W34633   9.994  24.142   1.187 -0.1345 -0.1146 -0.2208
    1W        W34634  21.399  19.204   3.859  0.0384 -0.0747 -0.0261
    1W        W34635   3.590  10.014   6.338  0.1257  0.2563  0.0395
    1W        W34636   3.294   5.501   7.805  0.1466 -0.1343 -0.3668
    1W        W34637  26.574   0.796   0.442  0.2014 -0.2154 -0.4191
    1W        W34638   3.882   5.993   7.257  0.3409  0.1760 -0.1595
    1W        W34639  11.106  25.143   0.937  0.0734 -0.1345 -0.4282
    1W        W34640  27.294  18.984   1.847  0.3262 -0.0456 -0.2599
    1W        W34641   3.310  26.519   8.639 -0.0987  0.0036 -0.1155
    1W        W34642  24.940  20.389   8.185 -0.0286 -0.1266 -0.0777
    1W        W34643   9.744  17.512   2.462 -0.0228 -0.1566 -0.1777
    1W        W34644  16.371   9.549   7.731 -0.1256 -0.1452 -0.2259
    1W        W34645  28.248  20.873   8.475  0.1580  0.1454 -0.2780
    1W        W34646   5.359  23.324   3.634  0.1092  0.0566  0.0239
    1W        W34647   2.884   9.216   2.090 -0.0484 -0.1448 -0.0125
    1W        W34648  20.274  13.043   1.597  0.2405 -0.1668  0.3220
    1W        W34649   7.815  24.286   2.688 -0.0068  0.0587 -0.1494
    1W        W34650  21.427   8.958   7.047  0.0537 -0.0723  0.2304
    1W        W34651   4.761  27.487   2.211 -0.0617 -0.1928 -0.0678
    1W        W34652   7.817  24.013   9.418 -0.1012  0.4936  0.1548
    1W        W34653  20.595  20.156   3.971  0.2190  0.1728  0.3419
    1W        W34654  22.403   9.006   0.216  0.0075 -0.1953 -0.2248
    1W        W34655  24.731  13.048   7.601  0.2623 -0.0859 -0.0990
    1W        W34656   6.470  21.842   1.997 -0.0421  0.1395  0.2175
    1W        W34657  14.659  12.898   9.053  0.0844  0.2174 -0.2234
    1W        W34658   3.407  12.632   7.969 -0.1534  0.1024 -0.0002
    1W        W34659   3.553  27.089   1.056 -0.1839  0.0276 -0.0779
    1W        W34660  19.413  25.818   8.773 -0.0408  0.1668 -0.0894
    1W        W34661  20.232  27.237   1.326 -0.2679  0.1499  0.1175
    1W        W34662  27.002  17.484   2.842 -0.3822 -0.0777 -0.0920
    1W        W34663  12.064  26.342   3.085 -0.3344 -0.1439 -0.0623
    1W        W34664  18.231  11.721   9.157 -0.3186  0.0133  0.3913
    1W        W34665   2.298  13.543   9.600 -0.2544 -0.1429 -0.2900
    1W        W34666   8.388   6.444   8.189  0.1751 -0.0567  0.1037
    1W        W34667   8.396  23.519   8.354 -0.0501  0.1324 -0.1518
    1W        W34668  25.948  27.974   8.873 -0.1930  0.3229  0.0301
    1W        W34669   6.569   2.663   2.250 -0.1957 -0.1149 -0.2351
    1W        W34670  25.728  15.873   0.906 -0.2203  0.2825 -0.0972
    1W        W34671  12.025  11.508   2.421  0.0918 -0.2450 -0.0387
    1W        W34672  25.974  11.824   1.396  0.0258 -0.0201  0.2955
    1W        W34673   6.117  13.847   0.839  0.0368  0.0048 -0.0854
    1W        W34674   8.472  17.533   8.128  0.1449 -0.3051  0.1607
    1W        W34675  28.472  19.293   3.114 -0.1964  0.2043 -0.1789
    1W        W34676  24.070   8.497   8.600 -0.1093 -0.1610 -0.2156
    1W        W34677   9.030   4.486   0.759  0.0015 -0.2132 -0.0786
    1W        W34678  14.867   2.650   6.814 -0.1771  0.1213  0.0149
    1W        W34679  11.336  24.705   0.194 -0.1297 -0.0651  0.0232
    1W        W34680  21.766  26.539   8.507  0.0680 -0.0762  0.1935
    1W        W34681   4.633   8.876   5.294 -0.2779  0.1310  0.1267
    1W        W34682  13.598  20.201   9.041 -0.0132 -0.0708  0.1690
    1W        W34683   5.719   2.041   8.304  0.1034 -0.2427  0.2234
    1W        W34684  13.009  17.624   8.111 -0.5795 -0.0267 -0.0335
    1W        W34685   5.597   4.720   0.547 -0.0099  0.1538  0.0313
    1W        W34686  27.132   7.510   7.349  0.0090  0.0834 -0.1456
    1W        W34687  22.818  12.184   8.841  0.0422 -0.0030  0.3027
    1W        W34688  14.154  16.572   6.820  0.3116  0.0268 -0.1263
    1W        W34689  16.003   2.931   9.579 -0.2133  0.2836  0.0730
    1W        W34690  27.993   4.628   0.643  0.2691 -0.0385  0.2300
    1W        W34691  12.565  12.251   8.106  0.0218  0.1598 -0.1926
    1W        W34692  10.508  14.206   0.692  0.0997 -0.0834  0.2706
    1W        W34693   3.320  25.802   8.202 -0.0004  0.1322 -0.2151
    1W        W34694  12.547  28.686   2.091 -0.2255  0.1740 -0.2680
    1W        W34695   2.637  13.513   1.852 -0.0011 -0.3458 -0.1158
    1W        W34696  24.120   6.607   8.947  0.1555  0.0934 -0.1132
    1W        W34697  13.748  19.749   1.779  0.0467 -0.0478  0.1033
    1W        W34698  23.128   2.905   8.450  0.3225 -0.1976  0.1822
    1W        W34699   0.037  17.604   0.856 -0.0574 -0.0724  0.0580
    1W        W34700  20.279   3.551   8.042 -0.0095  0.1050 -0.2061
    1W        W34701  20.593  27.120   1.758 -0.0025 -0.0864 -0.2894
    1W        W34702  11.940   9.621   1.406 -0.0341 -0.1765  0.2804
    1W        W34703   3.869  22.851   7.552 -0.0680 -0.0249  0.1875
    1W        W34704  26.461   2.872   0.477 -0.1567  0.1380 -0.1317
    1W        W34705  18.499  17.976   6.657 -0.0456  0.3716 -0.1247
    1W        W34706  21.916   6.010   1.195  0.1545  0.2092 -0.1515
    1W        W34707  22.875  14.714   1.756 -0.0558  0.1972 -0.2631
    1W        W34708   8.574   2.431   0.217  0.0092 -0.0028  0.1395
    1W        W34709  16.576  25.883   2.110 -0.1272  0.1558 -0.2101
    1W        W34710  24.223   2.586   9.456 -0.1539  0.1616  0.0331
    1W        W34711  29.486   8.242   6.714  0.2494 -0.1224  0.2719
    1W        W34712   3.409   1.924   9.521  0.2311  0.0519  0.3170
    1W        W34713  14.805  16.084   6.778 -0.2361 -0.2546  0.2741
    1W        W34714  24.391  25.700   9.215  0.2097 -0.3261 -0.6644
    1W        W34715   3.916   4.896   0.547  0.0696  0.1494 -0.3093
    1W        W34716  25.761  20.930   2.685 -0.0712  0.1572  0.1994
    1W        W34717  15.864  18.813   8.524 -0.0558  0.1378  0.2996
    1W        W34718  14.719  28.632   7.334  0.1681  0.0430  0.1827
    1W        W34719  17.451  26.916   1.713 -0.2482 -0.0777  0.0500
    1W        W34720   6.410   7.324   2.431 -0.1535 -0.1424  0.2023
    1W        W34721  14.132  25.338   1.369 -0.1905 -0.1191 -0.1058
    1W        W34722  11.864   6.567   0.827  0.4385 -0.0200  0.0667
    1W        W34723  19.307  25.585   0.948 -0.1352 -0.1829  0.0668
    1W        W34724  24.176  16.221   7.975  0.1784  0.1249 -0.2527
    1W        W34725   0.297  14.293   8.301  0.1102  0.2021 -0.0679
    1W        W34726   8.577   4.503   1.166  0.0492  0.1777  0.2656
    1W        W34727   0.372  21.529   9.022  0.0053  0.4142 -0.1453
    1W        W34728  23.141  14.737   9.083  0.1043 -0.2941  0.0079
    1W        W34729  16.275  28.111   6.900 -0.1603  0.5133  0.0500
    1W        W34730  10.053   6.943   7.124  0.0094 -0.2280 -0.0182
    1W        W34731   2.909   5.877   1.157  0.1071  0.1124  0.2535
    1W        W34732  26.627  14.822   1.955  0.3362 -0.0314  0.1061
    1W        W34733  23.949  11.503   7.602  0.2379  0.1636 -0.1312
    1W        W34734  14.803  11.307   0.795  0.0991 -0.1193 -0.3344
    1W        W34735  22.229  11.256   0.720 -0.2098 -0.0947 -0.0102
    1W        W34736   5.042   6.083   7.035 -0.1439 -0.0062  0.2240
    1W        W34737  25.454   4.400   1.076  0.1551 -0.1680  0.1281
    1W        W34738   0.294  20.723   0.320 -0.3611 -0.4436 -0.1541
    1W        W34739  19.050  13.766   2.812 -0.0928 -0.1182 -0.0528
    1W        W34740  21.571   4.669   8.349  0.0961  0.1364 -0.0032
    1W        W34741   0.623  23.438   2.161  0.0932 -0.1768  0.2701
    1W        W34742  16.422   3.716   0.428 -0.0631 -0.3876 -0.0517
    1W        W34743  18.628  24.791   9.426 -0.0638 -0.1147 -0.1131
    1W        W34744  29.531   1.519   0.440  0.0153 -0.0190  0.2779
    1W        W34745  26.349   5.756   0.417 -0.1304  0.0081 -0.1786
    1W        W34746  19.444  22.372   8.223 -0.0591  0.1490  0.2202
    1W        W34747  21.993   5.967   1.967  0.2487 -0.0369 -0.0102
    1W        W34748  10.823   3.816   1.448  0.1735 -0.1369  0.2651
    1W        W34749   3.852  11.207   1.285  0.0475 -0.1658  0.0403
    1W        W34750  25.711   4.815   7.782  0.1935  0.0115  0.2834
    1W        W34751  26.409   2.953   8.694 -0.2324  0.1734 -0.0928
    1W        W34752  25.716  27.483   0.073 -0.2074 -0.5883  0.0459
    1W        W34753   9.388   3.700   5.647 -0.0583  0.0157 -0.0395
    1W        W34754   1.096   1.555   0.264 -0.2954  0.3572  0.0968
    1W        W34755   3.338  12.344   9.293  0.1195 -0.0634 -0.0238
    1W        W34756   8.473  26.215   9.236  0.3073 -0.2152  0.1821
    1W        W34757  22.909   5.596   8.329 -0.0645 -0.2574  0.1438
    1W        W34758  21.233  25.631   1.537 -0.4014 -0.1578  0.0327
    1W        W34759  25.550  17.275   1.334  0.0802  0.1338  0.0539
    1W        W34760  10.063  25.844   7.461 -0.1401 -0.2717  0.2393
    1W        W34761  16.401  17.460   2.394  0.2065  0.1847  0.3003
    1W        W34762   6.602   6.709   7.112 -0.1760 -0.3158  0.1155
    1W        W34763  19.788   8.933   1.527  0.1197  0.0070 -0.0776
    1W        W34764   0.075  17.025   0.815 -0.1481 -0.2801 -0.0374
    1W        W34765   6.696   5.205   6.428 -0.2030 -0.1548 -0.2965
    1W        W34766  12.665  10.148   7.497 -0.0606 -0.0994 -0.3488
    1W        W34767  23.488  15.992   0.064  0.1233  0.2686  0.1100
    1W        W34768  18.171  27.551   8.862  0.2920 -0.1039 -0.1585
    1W        W34769  14.373  28.304   9.602  0.0918  0.0257  0.0950
    1W        W34770   3.947  28.821   2.621 -0.0631 -0.1156  0.3097
    1W        W34771   6.017   4.096   1.090  0.2997 -0.1374 -0.2567
    1W        W34772   2.109  25.985   7.584  0.1013 -0.0157 -0.1544
    1W        W34773   7.970  25.352   0.988 -0.1486  0.0924 -0.0684
    1W        W34774   4.421   1.050   8.034  0.3558 -0.2234  0.1187
    1W        W34775  16.153  18.365   0.278  0.1655 -0.0123 -0.1128
    1W        W34776   0.398   6.347   1.759 -0.1769 -0.1618 -0.2955
    1W        W34777   1.222  22.196   7.251 -0.0188  0.1753  0.0112
    1W        W34778  17.553   8.436   0.006  0.0028 -0.1130 -0.0351
    1W        W34779  26.289   2.976   9.288  0.1370 -0.1007  0.1601
    1W        W34780   7.184  25.175   9.026 -0.0039  0.2098 -0.2301
    1W        W34781  19.227   2.401   2.431 -0.5719 -0.1107 -0.1539
    1W        W34782  16.208   6.195   9.090  0.2053  0.0060  0.2842
    1W        W34783   3.515  27.172   8.430 -0.1090 -0.1615  0.0999
    1W        W34784  14.777   4.853   3.251 -0.1286  0.1268 -0.3312
    1W        W34785   8.147  10.222   2.304  0.2391  0.0956  0.2425
    1W        W34786  13.078  12.115   2.703 -0.1502  0.0782  0.1008
    1W        W34787   8.109  22.911   0.442 -0.0136  0.0043 -0.0053
    1W        W34788  21.416  22.870   1.326  0.0482 -0.1402  0.0539
    1W        W34789  28.885  13.354   1.644  0.2748  0.2199  0.0522
    1W        W34790  11.622  12.749   0.256  0.0895  0.0770  0.0149
    1W        W34791  29.173  15.979   2.935 -0.0177 -0.0160 -0.1321
    1W        W34792  26.818   6.090   8.078  0.0489  0.2055  0.1875
    1W        W34793   3.610  28.216   6.516 -0.0856  0.2603  0.1823
    1W        W34794   0.879   9.036   0.854 -0.0451 -0.2818  0.1085
    1W        W34795  27.482  24.844   8.179 -0.1874 -0.0935  0.2209
    1W        W34796   4.302  23.032   7.488  0.1974 -0.0248 -0.2769
    1W        W34797   4.402  21.643   9.462 -0.2672  0.0622  0.1059
    1W        W34798   2.112   5.843   1.368  0.1944 -0.0694 -0.1644
    1W        W34799  15.150  11.825   9.457 -0.1524 -0.1509  0.2893
    1W        W34800  13.412  29.364   0.673  0.0054 -0.0059  0.0291
    1W        W34801   6.292  15.892   6.752 -0.2275  0.0930  0.0595
    1W        W34802  14.479  15.544   8.300  0.1848  0.1688 -0.0243
    1W        W34803  17.713   4.939   7.213  0.1543  0.1508  0.1602
    1W        W34804  25.605   5.543   8.774 -0.1642 -0.3464  0.3121
    1W        W34805  12.479  15.754   0.273  0.1250 -0.1526  0.0756
    1W        W34806  22.026  19.727   2.333 -0.0163  0.1515  0.1926
    1W        W34807  26.222   2.700   7.337  0.1768 -0.0820 -0.0778
    1W        W34808  27.819  13.348   1.336  0.2329 -0.0351 -0.0765
    1W        W34809  27.225  29.563   2.142  0.1416 -0.0845  0.0769
    1W        W34810  12.296   1.642   0.620  0.0955  0.1157  0.0675
    1W        W34811   5.109   2.930   6.329 -0.2445 -0.2006 -0.2911
    1W        W34812  28.773  12.379   1.207 -0.1004  0.0886 -0.0384
    1W        W34813  14.296   6.433   6.321  0.3157  0.2241 -0.0250
    1W        W34814  12.898  20.611   9.175  0.2992 -0.1098  0.1287
    1W        W34815  11.984  26.577   7.382 -0.0757  0.0666 -0.1429
    1W        W34816  12.894  23.663   6.757  0.0300 -0.0925 -0.0759
    1W        W34817  21.849  17.505   1.436  0.1277  0.1202 -0.0696
    1W        W34818  10.773   4.413   9.574  0.0353 -0.0609  0.4283
    1W        W34819  19.871  11.572   8.300 -0.1624 -0.1970  0.0726
    1W        W34820  14.830   2.023   9.266  0.0140  0.0636  0.1097
    1W        W34821   6.315   2.793   0.738 -0.0278  0.0840  0.0309
    1W        W34822   6.607   7.145   8.274 -0.0181 -0.1410  0.0753
    1W        W34823   6.049  20.391   7.519  0.0632 -0.0451  0.0361
    1W        W34824  14.880  10.527   6.794 -0.0193  0.1677  0.1350
    1W        W34825  25.218   5.944   0.146 -0.0068 -0.2292 -0.0810
    1W        W34826  15.610  28.903   7.244  0.3022 -0.0631 -0.3130
    1W        W34827   8.059  11.473   8.226 -0.0341 -0.3018  0.3897
    1W        W34828  16.759  17.133   8.275  0.0157 -0.0542 -0.0859
    1W        W34829  24.515   5.384   7.724 -0.1701  0.0054 -0.1048
    1W        W34830  14.089  16.627   8.876  0.0910  0.3554 -0.0388
    1W        W34831   7.134   9.714   0.560 -0.0593 -0.2254  0.0928
    1W        W34832  23.056  10.785   8.169  0.1654 -0.0550 -0.2180
    1W        W34833  15.093  11.347   6.877 -0.1566 -0.2014 -0.2746
    1W        W34834   9.984  17.073   9.078  0.1573  0.5879  0.2098
    1W        W34835  16.382  17.668   8.010  0.1167  0.0236 -0.2291
    1W        W34836   3.024  16.839   7.608  0.3125 -0.1303  0.0292
    1W        W34837  12.999  11.900   2.065 -0.1257 -0.1686  0.1870
    1W        W34838  27.353  17.527   1.365  0.2365 -0.0405 -0.2364
    1W        W34839   1.189  17.946   7.886 -0.0433 -0.2621 -0.4067
    1W        W34840  21.520  21.682   2.161 -0.0754  0.0722 -0.0963
    1W        W34841  20.326  21.892   0.037  0.0902 -0.0825 -0.1712
    1W        W34842  23.523  27.146   0.215  0.2287  0.0092 -0.2175
    1W        W34843  20.758   6.727   2.946 -0.1735  0.1301  0.4539
    1W        W34844  12.556   0.326   1.280 -0.1861  0.1231 -0.1436
    1W        W34845  21.596  14.409   1.730  0.0264  0.0173 -0.0093
    1W        W34846   5.405   6.300   1.131 -0.3375  0.0192  0.3904
    1W        W34847  20.623  27.470   2.689  0.1864  0.1221  0.1673
    1W        W34848  20.260   6.487   7.991  0.1985 -0.2011  0.0225
    1W        W34849   9.887  13.032   7.403  0.2633  0.1043  0.2029
    1W        W34850  22.138  29.343   7.410 -0.0193 -0.0961  0.0509
    1W        W34851  17.945  21.420   9.573 -0.0107  0.3025  0.0031
    1W        W34852   1.124   6.093   8.355  0.1833 -0.1639  0.1095
    1W        W34853  21.299   2.473   0.352 -0.1831 -0.1393  0.0443
    1W        W34854   7.138  10.999   0.831 -0.0905 -0.0986 -0.1789
    1W        W34855   3.068  15.008   8.215  0.0510 -0.3197 -0.2882
    1W        W34856  20.862  16.264   2.879  0.1033 -0.2522  0.1206
    1W        W34857  14.079   7.243   8.009  0.0866  0.1499 -0.1393
    1W        W34858  28.477  10.165   0.211 -0.1466 -0.2187  0.0631
    1W        W34859  26.872  18.642   1.819  0.0560  0.2937 -0.0255
    1W        W34860  22.373   3.285   0.858 -0.2270  0.0080 -0.1765
    1W        W34861  29.137  28.562   7.349 -0.0228 -0.0605 -0.0213
    1W        W34862  12.026   4.985   6.542 -0.2304 -0.0373  0.0031
    1W        W34863  18.481   2.826   2.545  0.0609  0.0471 -0.0174
    1W        W34864   4.007  16.666   1.713  0.2279 -0.3622  0.1973
    1W        W34865  29.540  20.747   7.372 -0.0507 -0.0469 -0.3727
    1W        W34866  22.820  22.528   3.312 -0.0934  0.5832  0.2371
    1W        W34867  23.425  22.160   3.035  0.6494  0.1912  0.1345
    1W        W34868  11.675  27.872   0.942 -0.0570 -0.2044  0.1168
    1W        W34869  15.635   0.320   1.977  0.0337  0.1764 -0.1184
    1W        W34870   4.171  15.178   1.974  0.1092 -0.0645 -0.2277
    1W        W34871  18.977   7.507   7.586  0.0269  0.0016 -0.0675
    1W        W34872  12.205  10.779   6.661 -0.0762  0.0321  0.1919
    1W        W34873   1.014  10.809   8.681  0.2074 -0.0362  0.0955
    1W        W34874   6.696  27.359   9.331 -0.2816  0.0882 -0.1178
    1W        W34875  19.313  23.447   8.942  0.0448  0.1935 -0.3416
    1W        W34876  18.136  19.391   1.801 -0.0930 -0.0891 -0.0910
    1W        W34877  24.431  24.878   7.954  0.1112  0.0935 -0.1986
    1W        W34878   7.400  14.063   9.520  0.0917 -0.0708 -0.2930
    1W        W34879  20.469   1.995   8.401 -0.0096  0.0872  0.0469
    1W        W34880  12.702   9.589   2.246  0.0834 -0.0743  0.1213
    1W        W34881   0.323  14.383   1.256  0.0047 -0.1314  0.0009
    1W        W34882  12.422  12.007   9.037  0.0277 -0.0550 -0.1136
    1W        W34883  12.398  29.398   6.503 -0.1462 -0.1278  0.3565
    1W        W34884  11.214  15.213   2.623 -0.1446  0.1123  0.3142
    1W        W34885   5.344  24.685   9.016 -0.0085 -0.2532 -0.1266
    1W        W34886   6.732   3.324   9.337 -0.0330  0.2472  0.6256
    1W        W34887   6.732   5.011   1.232  0.2114 -0.0184  0.2114
    1W        W34888   5.948  21.541   8.974  0.1164 -0.0796 -0.0308
    1W        W34889  23.973  26.335   9.640  0.0775 -0.0022 -0.2738
    1W        W34890   4.876  14.625   7.760 -0.0231 -0.1958 -0.2109
    1W        W34891  18.696  26.297   7.156 -0.1603  0.2653  0.0196
    1W        W34892  24.612   4.761   0.325 -0.0021 -0.0090  0.0694
    1W        W34893  21.703   2.220   0.594  0.0143  0.1471  0.0343
    1W        W34894  27.032  17.916   7.484 -0.3383  0.0003  0.2012
    1W        W34895  11.526   3.154   2.419 -0.0958 -0.3835 -0.0078
    1W        W34896  23.696  16.901   3.503 -0.0283 -0.0535  0.2149
    1W        W34897  29.403   4.397   0.457  0.3064 -0.3317  0.4575
    1W        W34898  19.079   5.542   2.369  0.1703  0.0546  0.2209
    1W        W34899  21.986   8.741   1.320  0.0318  0.0372  0.1789
    1W        W34900  15.428   5.951   0.045 -0.0209 -0.4176 -0.0220
    1W        W34901  21.962   4.459   1.253  0.3657  0.1895 -0.0575
    1W        W34902  20.023   7.134   6.951  0.4615 -0.0426 -0.4822
    1W        W34903  27.508  21.328   1.633 -0.2754  0.0061  0.1716
    1W        W34904   7.158   8.823   7.213  0.2503 -0.3821 -0.0593
    1W        W34905   5.659  10.451   6.329 -0.0590  0.2553  0.4123
    1W        W34906   5.476  18.677   2.667  0.2493  0.1765  0.1753
    1W        W34907  16.794   4.079   0.100  0.2521  0.1501 -0.1886
    1W        W34908  27.432   8.064   1.421 -0.1864 -0.0516 -0.1432
    1W        W34909   3.782  24.444   8.040  0.1252  0.0123 -0.0277
    1W        W34910  17.553   6.991   7.272  0.0892 -0.0307 -0.0254
    1W        W34911   4.812   0.650   2.147 -0.0203 -0.0953 -0.1928
    1W        W34912  19.484  16.314   7.732 -0.0122  0.2396  0.0183
    1W        W34913  13.236  24.460   2.248  0.0186  0.4854  0.0289
    1W        W34914  11.815   3.603   2.504  0.2220 -0.2892 -0.0172
    1W        W34915  11.386  28.187   0.054  0.0831  0.1841  0.1158
    1W        W34916  11.331   6.055   0.302  0.3175 -0.0651  0.0801
    1W        W34917  16.834  20.053   7.757 -0.1977  0.0315  0.1039
    1W        W34918   3.850  21.961   1.736  0.1544 -0.1853 -0.2444
    1W        W34919   4.907  24.719   2.568  0.0193 -0.1275  0.1191
    1W        W34920  26.623  28.354   0.675  0.1954  0.0540 -0.2264
    1W        W34921  26.835  15.090   2.373 -0.0599  0.0512 -0.0749
    1W        W34922  18.928  15.703   0.106 -0.2916 -0.0533  0.0200
    1W        W34923   5.620   5.777   1.750  0.0256 -0.0686  0.0708
    1W        W34924  29.614  15.487   1.227  0.0997 -0.2120 -0.4014
    1W        W34925  10.960   3.343   1.260 -0.0811 -0.3127 -0.1758
    1W        W34926   9.022  18.767   0.356  0.0075 -0.0121 -0.2783
    1W        W34927   8.900  25.822   6.123  0.0935 -0.2709 -0.0719
    1W        W34928  19.639   1.648   0.088 -0.1017  0.4189 -0.0392
    1W        W34929  10.226  25.637   7.004  0.1966  0.1533  0.0403
    1W        W34930   1.898  12.369   7.775 -0.0350 -0.0606  0.0009
    1W        W34931  29.393  25.084   8.741 -0.0355  0.2432  0.0992
    1W        W34932  13.231   0.264   6.945  0.0139  0.3496 -0.0947
    1W        W34933  17.697  22.207   7.849  0.1096 -0.2386 -0.1114
    1W        W34934  12.013  23.577   2.956  0.2450  0.3802  0.0011
    1W        W34935  15.666   1.362   8.515 -0.0158  0.1082 -0.0123
    1W        W34936  20.961  12.055   7.988  0.1393  0.0855 -0.3077
    1W        W34937  25.508  14.451   8.210 -0.0436  0.2129  0.3106
    1W        W34938  21.934  18.505   8.559 -0.2922  0.0489 -0.0653
    1W        W34939   5.531  23.628   3.214 -0.1582 -0.2538  0.0858
    1W        W34940  28.675  11.229   7.426  0.3690 -0.0636  0.1297
    1W        W34941   5.492  28.443   6.781 -0.0576 -0.2659 -0.1322
    1W        W34942   4.753  13.277   5.629 -0.0832 -0.1499  0.1513
    1W        W34943  18.876   4.903   9.470 -0.2034 -0.0972 -0.2240
    1W        W34944  26.660  19.748   1.148 -0.0737 -0.2148 -0.1660
    1W        W34945   5.498   3.614   8.375 -0.2433  0.1914 -0.0177
    1W        W34946  13.377   9.942   2.880  0.3796  0.0901  0.1191
    1W        W34947  16.668   8.235   9.279 -0.2261  0.0640 -0.3425
    1W        W34948  21.562  14.203   3.090 -0.2232  0.0837  0.1490
    1W        W34949   2.352   7.893   8.193 -0.0397  0.1355 -0.0790
    1W        W34950   7.879   2.446   7.818 -0.1595  0.1121  0.5104
    1W        W34951  14.672  11.580   7.591  0.0326 -0.0813 -0.0198
    1W        W34952   0.078  20.221   3.155  0.0224  0.0930 -0.0149
    1W        W34953  23.873  11.347   9.482  0.0919  0.0186 -0.1652
    1W        W34954  22.193   1.040   1.260  0.3871  0.1035  0.1030
    1W        W34955  28.130  11.043   1.611  0.0148 -0.3491 -0.0478
    1W        W34956  25.734   0.847   7.334  0.0160  0.2908 -0.0550
    1W        W34957  21.328  15.905   3.038  0.0566 -0.1422 -0.0102
    1W        W34958  18.114   3.496   8.319 -0.1946  0.0164 -0.0851
    1W        W34959  20.442  23.952   4.069  0.2040 -0.0751  0.0432
    1W        W34960   9.145  26.963   1.658 -0.3392 -0.0306  0.2849
    1W        W34961  16.317  18.833   7.417  0.0967  0.1100  0.0312
    1W        W34962  16.378  10.088   2.389 -0.1134 -0.0345 -0.0846
    1W        W34963  26.503  18.970   1.040  0.0676 -0.2125 -0.0203
    1W        W34964   3.491  28.929   8.493  0.2132  0.1589  0.1090
    1W        W34965   0.428  17.702   1.723 -0.1527 -0.1523 -0.2049
    1W        W34966   7.156  26.178   6.965  0.1805  0.0621 -0.1418
    1W        W34967  18.286  17.973   1.928  0.2739  0.1390 -0.1155
    1W        W34968  19.190   2.507   7.403  0.0339 -0.1116  0.3435
    1W        W34969  13.508  26.896   9.223 -0.2285 -0.0652 -0.1570
    1W        W34970   3.168   9.505   5.835 -0.2749 -0.0650 -0.0473
    1W        W34971  25.524  13.767   2.225  0.0425 -0.0926 -0.1568
    1W        W34972  29.136  26.952   2.166  0.2352  0.1278 -0.2712
    1W        W34973  16.755   0.077   9.374 -0.0598 -0.3445  0.0757
    1W        W34974  10.289  25.297   9.007  0.0136 -0.0896 -0.2652
    1W        W34975   9.903  19.998   6.777  0.0534  0.1148 -0.1821
    1W        W34976  22.069   0.242   8.925 -0.0337  0.0867  0.1419
    1W        W34977   4.954  29.259   6.830 -0.1363  0.0268  0.3368
    1W        W34978  26.018  15.328   8.131  0.0464  0.1446  0.0659
    1W        W34979  15.291   1.075   0.579 -0.0011  0.1031  0.0528
    1W        W34980  20.149  11.856   0.215  0.0059 -0.3378 -0.0791
    1W        W34981  16.610  11.628   1.959 -0.0080  0.1894  0.1895
    1W        W34982  14.063   2.717   9.391 -0.0284 -0.0956 -0.3874
    1W        W34983   2.823   2.234   9.512 -0.2762 -0.0275  0.2290
    1W        W34984  25.914   9.565   0.504  0.0071 -0.1339  0.0105
    1W        W34985   2.692  11.910   8.031 -0.2751 -0.1900 -0.0427
    1W        W34986   2.172  27.868   8.412  0.0650  0.1159 -0.2157
    1W        W34987   7.455  22.267   9.133 -0.1705  0.0474  0.0252
    1W        W34988  10.072   6.738   0.033 -0.2154  0.2619 -0.1457
    1W        W34989   6.150   0.810   1.803  0.0150  0.1457  0.0231
    1W        W34990  20.602  22.426   3.416 -0.1475  0.1237 -0.1409
    1W        W34991  15.588  16.323   9.056  0.3533  0.0304 -0.0194
    1W        W34992  12.105  29.328   9.479  0.1319  0.1712  0.2737
    1W        W34993   1.579  16.560   7.127 -0.0205  0.1142  0.1500
    1W        W34994  19.308   7.018   2.637 -0.2229  0.0217 -0.3017
    1W        W34995  12.192  25.819   7.633 -0.2891  0.1932 -0.0101
    1W        W34996   2.187  27.397   0.255  0.2014  0.1074  0.2346
    1W        W34997  26.365  25.907   9.621 -0.0529  0.0081 -0.0072
    1W        W34998  22.346   1.742   8.070  0.0144 -0.1072 -0.4354
    1W        W34999  27.424  25.030   1.511 -0.2153  0.4205  0.3469
    1W        W35000  20.551   1.764   0.094 -0.0491  0.0008 -0.0569
    1W        W35001  13.168  13.378   7.085 -0.2205  0.2174 -0.0747
    1W        W35002  15.438   5.112   8.100 -0.1183  0.1725 -0.2813
    1W        W35003  28.901  29.083   7.388 -0.1824 -0.1091  0.0456
    1W        W35004  18.068  17.680   1.187 -0.2170 -0.1488 -0.2717
    1W        W35005  26.769  21.236   9.338  0.1143  0.0944  0.0793
    1W        W35006  13.608  21.857   8.545  0.0770 -0.4119 -0.1881
    1W        W35007  19.929   6.324   0.275  0.0577 -0.0008 -0.1456
    1W        W35008   3.675  17.527   6.553 -0.2236 -0.0156  0.3134
    1W        W35009  16.804   9.194   9.045 -0.1417  0.2355 -0.0066
    1W        W35010   0.502   4.930   1.001  0.1742  0.1561  0.0403
    1W        W35011  21.343   6.869   1.355  0.0085  0.2382  0.4335
    1W        W35012  15.041  28.488   1.790 -0.1831 -0.1301 -0.1197
    1W        W35013  24.692   0.617   9.153  0.0488 -0.2937 -0.0171
    1W        W35014  14.139  17.154   1.464  0.0294 -0.2625  0.0644
    1W        W35015   4.332   5.624   1.873  0.2681  0.1739 -0.2848
    1W        W35016  25.464  28.205   8.831  0.0657 -0.0264  0.1224
    1W        W35017   5.768  28.435   8.831 -0.0695 -0.0662 -0.0448
    1W        W35018  16.695  28.679   0.454  0.0072 -0.1695  0.0442
    1W        W35019  12.174  25.145   0.209 -0.1170 -0.1269  0.1281
    1W        W35020   5.380   7.387   5.873  0.0920  0.3333 -0.1978
    1W        W35021  11.681   7.605   0.070  0.2423 -0.0867  0.0913
    1W        W35022  28.679  25.509   8.378 -0.0123 -0.0903 -0.5270
    1W        W35023  26.207   2.546   9.557 -0.2127 -0.2039 -0.1640
    1W        W35024   7.709  20.840   3.484 -0.0340 -0.1925  0.1969
    1W        W35025   7.948  24.994   1.975 -0.2214  0.4255  0.1343
    1W        W35026  17.039   5.063   2.992 -0.3051 -0.1240 -0.1056
    1W        W35027  12.991  26.420   0.074  0.0747  0.2322  0.0108
    1W        W35028   9.585  29.274   7.479  0.0300  0.0671 -0.0505
    1W        W35029  24.089  25.375   2.245 -0.0868 -0.0627 -0.2809
    1W        W35030  11.630   3.579   7.099 -0.2276  0.1300  0.1606
    1W        W35031   6.455  26.987   8.097  0.0339 -0.0765  0.1697
    1W        W35032   7.126  26.505   0.872  0.0052 -0.2087 -0.0586
    1W        W35033   7.750  16.142   7.886 -0.3556  0.1230  0.1395
    1W        W35034  19.141  15.078   8.090 -0.2825 -0.0506 -0.0679
    1W        W35035  21.624  20.092   2.234  0.1650  0.0269  0.2244
    1W        W35036  10.934  12.248   7.753 -0.0163  0.1409 -0.0005
    1W        W35037  25.322  28.711   8.001  0.1850  0.3952 -0.0307
    1W        W35038  12.055   3.266   0.124 -0.2431 -0.0157 -0.1161
    1W        W35039   7.675  11.451   9.453 -0.1207 -0.0566 -0.2675
    1W        W35040  18.675  26.221   4.086 -0.4395 -0.1021 -0.1554
    1W        W35041  17.155  24.741   6.588 -0.0061  0.1088  0.2488
    1W        W35042  13.002  12.968   0.129 -0.0461 -0.2180 -0.0281
    1W        W35043  23.848  21.486   1.630 -0.2057 -0.1047  0.0015
    1W        W35044  26.075  14.421   1.164 -0.3163  0.1250 -0.5498
    1W        W35045   2.259   8.940   1.238 -0.1918 -0.1537 -0.1603
    1W        W35046   5.309  26.394   1.728  0.1848 -0.2746 -0.1580
    1W        W35047  14.225  18.765   9.610  0.1715 -0.2567 -0.0191
    1W        W35048  23.301   4.234   8.854 -0.3008  0.0382 -0.2986
    1W        W35049  11.860  19.360   9.365  0.2107 -0.2296 -0.3218
    1W        W35050  16.698   5.065   7.418  0.1084 -0.0423 -0.3097
    1W        W35051   5.123  25.863   7.298 -0.0331 -0.1003 -0.1712
    1W        W35052  24.436  13.255   7.922  0.1454  0.0095  0.0688
    1W        W35053  25.372   5.519   2.036  0.0549  0.0263 -0.3390
    1W        W35054  12.726  26.778   6.774  0.3227 -0.0987  0.0568
    1W        W35055   8.190  14.391   2.146  0.1356  0.1356  0.1895
    1W        W35056   6.622   9.780   0.520  0.0498 -0.0083 -0.1266
    1W        W35057  22.302  12.095   7.121  0.0120  0.0445  0.0747
    1W        W35058  19.153  10.143   2.125  0.2110  0.0152  0.0718
    1W        W35059   6.847   4.071   1.803 -0.4511 -0.1922 -0.1684
    1W        W35060  28.216  11.607   2.506 -0.0552 -0.2048  0.1386
    1W        W35061   8.682   9.429   0.550 -0.0603 -0.0549  0.0951
    1W        W35062   2.704   0.721   1.666 -0.0213  0.2070  0.1536
    1W        W35063  15.919   9.381   2.456  0.1810 -0.1731  0.0628
    1W        W35064  21.191  19.221   8.385 -0.0854  0.0265 -0.0771
    1W        W35065   3.874  23.778   3.930  0.4277 -0.0323 -0.0870
    1W        W35066   7.361  21.126   2.385 -0.1337  0.0585  0.3944
    1W        W35067  24.379  20.360   1.539 -0.0179 -0.2766 -0.0636
    1W        W35068  27.480   5.649   2.065 -0.0070  0.1602  0.0361
    1W        W35069  21.296  24.937   0.489  0.1349 -0.0322  0.0798
    1W        W35070   8.200  10.959   0.992 -0.2700 -0.0887 -0.3070
    1W        W35071  26.878   1.643   0.236  0.1444  0.0787  0.1267
    1W        W35072  15.217  28.549   9.563 -0.1043 -0.0494  0.1752
    1W        W35073   0.966   1.178   9.544  0.0211 -0.4803 -0.1283
    1W        W35074  15.523   0.488   8.604  0.0188 -0.4441 -0.4209
    1W        W35075  26.949  13.019   9.045  0.0278 -0.1619 -0.2550
    1W        W35076  20.962   7.298   8.247  0.1323 -0.1647  0.2619
    1W        W35077  25.323   7.056   7.442 -0.2253 -0.3012  0.2429
    1W        W35078  16.605  16.439   2.283  0.0662  0.2216 -0.0196
    1W        W35079  24.022   6.552   0.567  0.0972 -0.0036  0.1405
    1W        W35080   6.387  19.683   9.107 -0.2748  0.0587  0.0088
    1W        W35081   0.786   3.503   0.338  0.0460  0.0105 -0.0442
    1W        W35082  27.724  26.701   0.856 -0.2415 -0.1662  0.0211
    1W        W35083  28.390   5.000   9.013 -0.0467  0.1283 -0.0314
    1W        W35084  12.337   8.547   6.805  0.1215  0.2113  0.1529
    1W        W35085  13.371  18.830   7.692  0.0669  0.1939 -0.0915
    1W        W35086  14.747  19.061   1.199 -0.3094 -0.2095 -0.0016
    1W        W35087  27.703  14.773   8.081 -0.1447 -0.0479 -0.2162
    1W        W35088  13.666  17.785   0.561  0.1358  0.0257  0.2016
    1W        W35089  17.822  22.529   7.081  0.1449 -0.2286  0.0150
    1W        W35090  17.998   7.032   2.077 -0.2640  0.1557 -0.1161
    1W        W35091   8.748  29.565   7.344  0.2322  0.0617 -0.4571
    1W        W35092  29.604  29.610   1.710  0.2348 -0.3070 -0.0571
    1W        W35093   9.435  18.101   0.424  0.0332  0.1355 -0.1071
    1W        W35094  10.988  26.042   7.485 -0.0721  0.0355 -0.4411
    1W        W35095  12.044  18.618   7.019  0.1905  0.2373 -0.1502
    1W        W35096   9.180  21.118   8.299  0.0517  0.0491 -0.2033
    1W        W35097   1.960  22.127   3.119  0.0476 -0.1502 -0.1953
    1W        W35098   6.067   4.325   8.768  0.0631 -0.0541  0.0254
    1W        W35099  10.587  12.627   7.641  0.1771 -0.3913 -0.0761
    1W        W35100  21.058  27.436   0.950 -0.1421 -0.3351 -0.1573
    1W        W35101  10.732   1.130   6.839 -0.0508  0.2457 -0.0919
    1W        W35102   3.207  22.646   8.785  0.1614  0.1529 -0.2937
    1W        W35103   1.677  10.409   7.422  0.1951 -0.2040 -0.0528
    1W        W35104  12.340  10.612   0.059 -0.1082  0.5212  0.3292
    1W        W35105  16.297  27.300   2.095  0.1267 -0.0829  0.0730
    1W        W35106  18.526   4.220   8.744 -0.1845 -0.2848  0.2412
    1W        W35107  20.462  13.109   0.744 -0.1256  0.1571  0.0707
    1W        W35108  27.273  26.327   7.249  0.0835 -0.0057  0.1684
    1W        W35109   0.043  26.202   8.014 -0.2300  0.4508  0.1858
    1W        W35110  20.034   6.956   0.902  0.2444 -0.0216 -0.1269
    1W        W35111  18.751  12.341   9.331 -0.1649 -0.4488 -0.1461
    1W        W35112  28.869  22.239   7.850 -0.0945  0.0653 -0.0059
    1W        W35113  23.719   9.386   0.649  0.1026  0.4500 -0.0974
    1W        W35114  21.324  21.196   0.131 -0.1427 -0.2106  0.0132
    1W        W35115   5.855  23.356   2.027 -0.3545 -0.1033 -0.0470
    1W        W35116  19.889   1.908   3.803  0.1699  0.0316 -0.0431
    1W        W35117   0.061  25.088   9.212  0.2542  0.1818  0.0108
    1W        W35118  12.763   5.541   0.763  0.3853 -0.0213  0.1374
    1W        W35119   1.811  23.857   1.972  0.0804  0.0332  0.1467
    1W        W35120  10.573  27.225   2.123 -0.1911  0.1753 -0.0200
    1W        W35121  21.243  15.131   0.138  0.3081  0.0892  0.0490
    1W        W35122   7.812   0.533   0.232  0.3994 -0.3030 -0.0481
    1W        W35123  21.930   7.997   1.776 -0.1812  0.0573 -0.0744
    1W        W35124  29.206  17.374   2.476 -0.1848  0.0679  0.0387
    1W        W35125   5.749  19.534   8.959 -0.2844 -0.0359 -0.4028
    1W        W35126   1.247   0.782   6.284  0.2060 -0.0299 -0.4598
    1W        W35127  22.849   7.572   7.392 -0.0450 -0.1653  0.3062
    1W        W35128  22.720  14.997   2.241  0.4027  0.1611  0.0005
    1W        W35129  27.948  23.741   9.516 -0.2924 -0.1585  0.0082
    1W        W35130  22.297  14.101   9.295 -0.0707  0.2589 -0.1255
    1W        W35131  15.235   3.445   0.537  0.0613  0.0576  0.0299
    1W        W35132  26.572  18.535   6.951 -0.1149  0.2230  0.0500
    1W        W35133   3.979   9.509   9.158 -0.2054  0.0764  0.1648
    1W        W35134   7.616  25.394   1.827  0.1721 -0.0450  0.0246
    1W        W35135   7.162  19.166   9.244 -0.3234 -0.0829 -0.2633
    1W        W35136  15.887  23.987   6.800  0.1151 -0.1528  0.0882
    1W        W35137  16.268  29.295   8.723 -0.0985  0.0976  0.2143
    1W        W35138  14.422  22.625   8.743  0.0358  0.0016  0.1625
    1W        W35139  28.460  23.266   8.340  0.1199 -0.3245  0.1074
    1W        W35140  14.034  22.151   8.590 -0.1957 -0.2692 -0.0558
    1W        W35141   2.763   1.367   0.480  0.3134  0.0157 -0.1205
    1W        W35142   1.209  14.290   1.438 -0.1726  0.0179  0.0729
    1W        W35143  28.019   9.010   7.846  0.0826  0.0147 -0.1379
    1W        W35144  16.337  15.260   0.409 -0.1160 -0.1537  0.1601
    1W        W35145  13.719  21.967   7.345 -0.0375  0.0130  0.1428
    1W        W35146  29.569  20.515   0.644  0.1025  0.2204 -0.3925
    1W        W35147  23.174  10.916   7.354  0.0559 -0.3585 -0.1076
    1W        W35148  23.100   9.063   1.516  0.1494 -0.0578 -0.2830
    1W        W35149   6.349  15.322   7.526  0.2159  0.3248  0.0761
    1W        W35150  23.981  27.485   3.949 -0.1407  0.0253  0.2029
    1W        W35151   6.950  20.345   2.563 -0.0612 -0.1359  0.1015
    1W        W35152   8.813  23.374   6.570  0.0152 -0.1387 -0.0166
    1W        W35153   6.657   6.947   2.007 -0.2099  0.0539  0.2159
    1W        W35154   7.046   2.626   1.370 -0.1478 -0.0096 -0.2122
    1W        W35155  21.219  19.529   7.970 -0.0816 -0.3734 -0.1186
    1W        W35156  28.328  26.983   1.660  0.0235 -0.2529 -0.0554
    1W        W35157  10.231  24.287   7.070 -0.1040 -0.1116 -0.2298
    1W        W35158  21.376  10.626   1.353  0.1502  0.0660  0.0264
    1W        W35159  21.939  27.892   2.694 -0.2825  0.0136  0.1265
    1W        W35160   7.081  17.356   0.620 -0.0989  0.0337 -0.1060
    1W        W35161   5.036  24.613   9.514 -0.0515 -0.0749 -0.2359
    1W        W35162  19.550   4.414   6.509 -0.0627 -0.0656  0.4056
    1W        W35163  27.214  26.622   0.145  0.0820  0.0079  0.0221
    1W        W35164   2.064  23.310   3.559  0.1189 -0.0789  0.2922
    1W        W35165   2.059  23.711   0.550  0.3208 -0.0534  0.0175
    1W        W35166   6.736   2.271   8.122  0.2486  0.1916 -0.2075
    1W        W35167  23.634  22.489   8.773 -0.2963 -0.4645  0.2945
    1W        W35168   0.222  25.078   1.269 -0.1496 -0.0383 -0.3664
    1W        W35169   6.618  18.441   7.629  0.0333  0.0923  0.0236
    1W        W35170  14.298  28.562   8.583 -0.2287  0.0896  0.1879
    1W        W35171   5.230  13.463   1.778 -0.1488 -0.2742 -0.0378
    1W        W35172  27.335  25.466   0.558 -0.0129  0.0647  0.1121
    1W        W35173  19.027  14.613   1.876 -0.0875  0.2459 -0.4070
    1W        W35174   2.590  24.665   2.911 -0.1368  0.1139 -0.2026
    1W        W35175  16.732  27.217   2.262  0.3312  0.0565 -0.0452
    1W        W35176  12.690   1.982   1.326 -0.1961  0.2927 -0.0409
    1W        W35177  13.630  15.066   0.153 -0.1744 -0.0841 -0.2179
    1W        W35178   7.077  10.972   6.585  0.0203 -0.0473 -0.1148
    1W        W35179   0.117  15.299   0.041 -0.3142  0.0166  0.3754
    1W        W35180   6.667  12.596   8.225 -0.0498 -0.0520 -0.2784
    1W        W35181   6.198  11.565   8.174  0.0018 -0.0398  0.0885
    1W        W35182   1.895  27.488   8.257 -0.0991 -0.2384 -0.1043
    1W        W35183   2.260   3.625   7.133 -0.2396 -0.2415 -0.2668
    1W        W35184   7.182  24.477   9.009 -0.2535  0.1450 -0.1942
    1W        W35185  17.194  21.775   7.313 -0.0521  0.1079 -0.1719
    1W        W35186  20.623   6.907   0.780  0.1026  0.3512  0.0342
    1W        W35187  28.598  11.448   1.129 -0.0138  0.3296 -0.3250
    1W        W35188   3.263   5.197   1.964 -0.0001 -0.0140 -0.1496
    1W        W35189  20.259   6.612   0.616  0.0923  0.3805  0.1548
    1W        W35190  23.175  28.915   2.517  0.1034  0.0192  0.0470
    1W        W35191   8.911  24.277   9.204 -0.2335 -0.0088 -0.2034
    1W        W35192  13.773  21.842   0.918  0.2044 -0.2051  0.0826
    1W        W35193   7.639   4.493   1.571 -0.2831  0.0919 -0.0871
    1W        W35194  14.671  26.703   1.420  0.3339 -0.1827  0.0133
    1W        W35195  18.347  23.811   2.648  0.0721 -0.0221  0.0128
    1W        W35196  10.838  10.164   0.120  0.3069 -0.0815 -0.3784
    1W        W35197  17.785  18.914   8.160 -0.3027 -0.0780 -0.0043
    1W        W35198   7.974  22.839   2.597  0.3169 -0.0757 -0.1370
    1W        W35199   6.973   8.840   8.176  0.0414 -0.1510  0.3074
    1W        W35200  16.813   3.681   9.269 -0.1043 -0.1977 -0.1133
    1W        W35201  11.149   4.663   6.676 -0.2451 -0.0905  0.0513
    1W        W35202   2.889  13.818   0.863  0.0975 -0.3254 -0.1449
    1W        W35203  20.483   1.205   8.381 -0.2778  0.0128  0.0488
    1W        W35204   2.797  29.599   7.831  0.0961  0.2124 -0.2829
    1W        W35205  20.784   0.387   7.864  0.0470  0.1686  0.1565
    1W        W35206   1.112  19.920   1.209  0.1415  0.1483 -0.0873
    1W        W35207  22.678   7.273   9.608 -0.0668 -0.0039  0.1040
    1W        W35208  21.490  27.176   0.143  0.0704 -0.3873  0.2171
    1W        W35209  15.662  26.786   0.034  0.1723 -0.0408 -0.2196
    1W        W35210  11.192   5.765   8.576 -0.1285 -0.1429 -0.1405
    1W        W35211  12.780  18.384   1.733 -0.0082 -0.1498 -0.1344
    1W        W35212  18.681  12.506   1.144 -0.0827 -0.1319 -0.2062
    1W        W35213  27.109   2.026   7.487  0.0336 -0.0007  0.0234
    1W        W35214   8.846   9.429   1.685  0.2262 -0.1034  0.1853
    1W        W35215  12.968   2.592   7.668 -0.2800 -0.1366 -0.1083
    1W        W35216   5.391  19.030   9.539  0.1140 -0.0396 -0.0545
    1W        W35217   3.954  24.066   3.505  0.0487  0.3801  0.0385
    1W        W35218  21.093  17.172   0.989 -0.0528  0.3837  0.0231
    1W        W35219  17.747  14.421   1.162 -0.3996 -0.1054 -0.0635
    1W        W35220   4.317  27.139   2.221 -0.2164  0.0185 -0.3121
    1W        W35221  21.718   5.491   8.390  0.1535 -0.0011  0.1418
    1W        W35222   6.852  18.791   1.464  0.0760  0.1021 -0.1895
    1W        W35223   8.534  12.081   8.393  0.0369 -0.0237 -0.0091
    1W        W35224  21.749  19.304   0.225 -0.2705  0.0687 -0.1448
    1W        W35225   0.560   0.976   7.879 -0.1387  0.0577 -0.1179
    1W        W35226  15.375  22.671   8.623  0.0194  0.0427 -0.3262
    1W        W35227   6.670  17.566   0.783 -0.2834  0.0037  0.0181
    1W        W35228  28.068  22.794   0.133 -0.0414 -0.1826  0.0437
    1W        W35229  17.904  14.459   8.615  0.0208 -0.0558 -0.1259
    1W        W35230   2.259  26.456   8.999 -0.1430 -0.1127  0.0763
    1W        W35231   7.237   7.119   0.187  0.2763 -0.0017 -0.0369
    1W        W35232  14.672  27.178   1.638 -0.1740  0.3571 -0.1649
    1W        W35233  28.939   8.155   7.726  0.0920 -0.2358  0.0893
    1W        W35234  23.782   1.681   7.647  0.1673  0.0715 -0.2345
    1W        W35235   8.794   4.103   9.425  0.1536 -0.2618 -0.3388
    1W        W35236   7.984  13.630   6.568 -0.1548 -0.0730  0.1014
    1W        W35237   3.586  16.960   2.028  0.2211  0.2375 -0.2219
    1W        W35238  19.826   6.091   2.005 -0.3294  0.1357 -0.4398
    1W        W35239  25.264  16.620   7.598  0.1663 -0.0931  0.0955
    1W        W35240   7.541   0.599   7.254  0.0017  0.1215 -0.1636
    1W        W35241  15.267   7.557   8.739 -0.1404  0.1058 -0.1781
    1W        W35242  11.016   4.760   8.790  0.2534  0.2229  0.0321
    1W        W35243  17.415   7.002   9.378 -0.4776 -0.1122  0.3805
    1W        W35244   5.547   1.828   6.682  0.1351  0.0564  0.1293
    1W        W35245  20.444  27.105   0.826 -0.0759 -0.3256 -0.1012
    1W        W35246   0.594  13.110   8.193 -0.0449  0.1527 -0.1254
    1W        W35247   9.278  11.130   8.052 -0.1159  0.3825  0.2858
    1W        W35248  18.506  14.052   9.255 -0.1640  0.0293 -0.3709
    1W        W35249   4.446   7.659   0.303 -0.0039 -0.3301  0.2469
    1W        W35250  15.267  15.083   7.520  0.0570 -0.1762  0.0245
    1W        W35251   3.966  11.485   1.694  0.0390 -0.1606  0.1823
    1W        W35252   5.358   9.194   7.002  0.1514  0.2072  0.0568
    1W        W35253  17.124  21.511   0.347 -0.0801  0.1958 -0.4157
    1W        W35254  24.649  28.048   8.232  0.0038 -0.0265 -0.0339
    1W        W35255   3.489  28.104   7.047 -0.1043 -0.0992 -0.0482
    1W        W35256   0.947  18.089   0.832 -0.1231 -0.1582  0.1246
    1W        W35257   8.887  24.536   0.452  0.1058 -0.2322 -0.0101
    1W        W35258  19.708   4.595   7.274 -0.0266 -0.1253 -0.1049
    1W        W35259  23.123  27.693   9.343  0.0488  0.0668 -0.2429
    1W        W35260   2.505  19.555   8.130  0.2112 -0.1802  0.2384
    1W        W35261  26.255  22.267   2.599  0.4661 -0.0743 -0.0942
    1W        W35262  22.797  13.232   9.299 -0.1093  0.1126  0.0423
    1W        W35263  28.485   5.403   9.264  0.2533  0.2903 -0.0210
    1W        W35264  27.559  25.499   1.240  0.3089  0.1018  0.0199
    1W        W35265  20.426  29.406   8.094  0.0460 -0.0161 -0.0936
    1W        W35266  24.810  10.231   0.897 -0.0351 -0.0713  0.1593
    1W        W35267  12.502  13.955   0.321  0.0454  0.1274 -0.0331
    1W        W35268   1.638   1.319   7.047  0.0483 -0.1284 -0.0392
    1W        W35269  14.283  25.861   7.851 -0.3515 -0.1243 -0.0165
    1W        W35270  26.775  24.513   3.188  0.1487  0.1762  0.1097
    1W        W35271   0.121  22.138   1.513  0.0240  0.1605  0.1035
    1W        W35272  13.357   9.160   7.755 -0.1019  0.0474 -0.1532
    1W        W35273  28.157  11.650   9.397 -0.0949 -0.1353  0.3194
    1W        W35274  21.707  28.686   1.841  0.0831 -0.1820  0.2127
    1W        W35275   0.754  29.503   2.559  0.0246  0.0275  0.3419
    1W        W35276   0.027  17.065   2.294  0.0709 -0.0482  0.0917
    1W        W35277  27.007  27.503   2.779 -0.1755  0.0678 -0.1228
    1W        W35278  11.720  23.409   9.197 -0.2985 -0.3012  0.2034
    1W        W35279   2.262   7.893   0.862  0.0604 -0.0189 -0.3078
    1W        W35280  27.013   2.491   9.118  0.0909  0.5031  0.1806
    1W        W35281  24.873  20.833   8.555 -0.0979 -0.0061 -0.2596
    1W        W35282  18.759  25.070   2.238 -0.1415  0.1737  0.3500
    1W        W35283  21.208  12.877   7.554 -0.0954  0.1456  0.0656
    1W        W35284  18.142  14.502   0.874 -0.1267  0.0001 -0.1082
    1W        W35285  10.250   2.375   6.821 -0.1188  0.1788 -0.2003
    1W        W35286  20.789  25.729   0.785  0.2788 -0.0827  0.0045
    1W        W35287   0.300  28.977   9.244 -0.2241 -0.0965 -0.1282
    1W        W35288  24.979  27.235   7.741 -0.1121  0.1021 -0.0877
    1W        W35289  19.713  22.413   3.118  0.0087 -0.0502  0.2067
    1W        W35290   8.993   4.617   1.972 -0.0851  0.0390  0.2437
    1W        W35291  19.912  19.612   7.480 -0.2162 -0.5185  0.1486
    1W        W35292   8.981  14.347   1.116  0.1428 -0.0974  0.1203
    1W        W35293  11.167  11.269   7.085  0.1593  0.1067 -0.0709
    1W        W35294   4.624   9.443   1.044 -0.3393 -0.1133  0.2649
    1W        W35295   6.792   0.555   7.232 -0.1232  0.1273 -0.0131
    1W        W35296  14.351  25.527   9.339  0.4241  0.2218  0.0388
    1W        W35297   9.161   6.444   9.366  0.1647 -0.2153 -0.0485
    1W        W35298  22.018  24.984   2.264 -0.3666  0.0735 -0.1240
    1W        W35299  11.951  10.721   1.253  0.0508 -0.3087  0.0000
    1W        W35300   9.581   1.274   1.410  0.3252 -0.1512 -0.0077
    1W        W35301  10.163  13.351   6.437  0.2039 -0.0358 -0.0665
    1W        W35302   2.375  20.314   1.217  0.0908 -0.3101  0.1592
    1W        W35303   9.395  20.171   6.807 -0.0502 -0.0608  0.3792
    1W        W35304  15.178  19.415   1.841 -0.1371 -0.1963  0.0232
    1W        W35305   0.206  28.365   0.111 -0.1225 -0.0069 -0.1068
    1W        W35306  13.114  16.209   9.453 -0.0182 -0.0155 -0.2071
    1W        W35307  15.438   9.759   1.709 -0.1420 -0.0807 -0.3744
    1W        W35308  27.037  11.577   8.847  0.0323  0.1160 -0.2235
    1W        W35309  27.213  10.071   1.727 -0.1431  0.0639 -0.4474
    1W        W35310  20.344  18.874   0.890 -0.2290 -0.1909  0.1305
    1W        W35311   8.112   9.499   7.936 -0.1104 -0.2231  0.0175
    1W        W35312  16.992  10.228   1.794  0.1628 -0.2807  0.0766
    1W        W35313  21.630  16.939   2.687 -0.0456  0.0705  0.1910
    1W        W35314  27.792  24.749   1.699  0.1037  0.1155 -0.2604
    1W        W35315   1.750   8.303   5.572  0.0147  0.1259 -0.1609
    1W        W35316  12.907   8.190   0.805 -0.0913 -0.0141 -0.0094
    1W        W35317  20.213  12.416   1.965 -0.1431 -0.2119  0.1011
    1W        W35318  25.204  22.361   1.953  0.0992  0.1019  0.0900
    1W        W35319   6.623  21.794   2.970 -0.0046  0.2096  0.1389
    1W        W35320  26.502  23.216   7.290 -0.0967 -0.1789 -0.0033
    1W        W35321   5.197  10.149   5.642  0.2425 -0.1925 -0.1621
    1W        W35322  11.463  23.987   6.748 -0.1319  0.0831 -0.1080
    1W        W35323  16.971  12.932   8.732  0.1206  0.1894  0.2087
    1W        W35324   1.502  18.581   0.133 -0.0266  0.1015  0.3370
    1W        W35325  18.008  11.568   1.977 -0.1205  0.1407  0.0838
    1W        W35326  14.730  20.697   1.568 -0.0509 -0.0028  0.0282
    1W        W35327  11.691  27.451   7.708  0.0056 -0.1197  0.1609
    1W        W35328  17.146   9.319   1.456  0.0653  0.0989 -0.0590
    1W        W35329  28.745  22.635   3.047 -0.1744  0.0751 -0.1675
    1W        W35330  27.404  25.459   1.825 -0.2191  0.0124 -0.0884
    1W        W35331  26.006  26.236   9.500 -0.0236 -0.0022  0.3459
    1W        W35332   1.419   0.799   7.499 -0.0267  0.4006 -0.0994
    1W        W35333   4.057   5.164   1.823 -0.0342 -0.2989 -0.1415
    1W        W35334   0.842   3.105   9.002 -0.2345  0.1342  0.0168
    1W        W35335   8.969  11.286   6.011 -0.0492 -0.0709  0.1726
    1W        W35336  22.736   4.987   1.568 -0.0036 -0.0776 -0.2200
    1W        W35337  23.095  12.726   2.094  0.0254 -0.0151 -0.0031
    1W        W35338  11.567  10.287   7.073  0.0577  0.2118 -0.0610
    1W        W35339   4.250  16.316   1.427 -0.0602  0.0771 -0.0565
    1W        W35340  16.917  17.555   1.156  0.2358  0.0790  0.2089
    1W        W35341  19.207  25.068   1.130 -0.0450  0.0968  0.2175
    1W        W35342  26.428  17.119   8.153  0.1541 -0.2978  0.1543
    1W        W35343  28.227   0.468   8.515 -0.1519 -0.0135 -0.1192
    1W        W35344  27.935  18.921   2.638  0.2277 -0.0665 -0.2752
    1W        W35345   3.402  11.168   8.661 -0.2154  0.2193 -0.1748
    1W        W35346   2.626  12.658   9.644  0.3500  0.3582  0.1816
    1W        W35347  10.293  18.115   0.855 -0.6319 -0.2681 -0.3433
    1W        W35348  29.048   5.295   8.342  0.2971  0.1027 -0.1472
    1W        W35349  26.341   2.282   2.163 -0.4121  0.1025  0.0165
    1W        W35350   2.525   9.787   0.153 -0.3917 -0.1041  0.0627
    1W        W35351   3.924   3.420   1.011  0.1705  0.0540 -0.2113
    1W        W35352   1.279  14.033   1.034 -0.0188 -0.0054 -0.0543
    1W        W35353  12.418   9.449   1.406  0.0390 -0.1149 -0.1272
    1W        W35354  16.852   3.057   9.398  0.0974 -0.1626  0.0061
    1W        W35355  14.881  27.860   7.837 -0.3900 -0.0806  0.1282
    1W        W35356   6.002  14.786   6.420  0.0921  0.1062  0.1687
    1W        W35357  18.115  14.300   7.600  0.0585  0.0892  0.1354
    1W        W35358  29.013  11.202   1.058 -0.4208 -0.4304  0.0786
    1W        W35359  11.222  26.849   8.977 -0.1767 -0.1470 -0.2798
    1W        W35360  24.457  21.161   2.640 -0.0124  0.0155 -0.2936
    1W        W35361  13.725  13.080   8.512 -0.1315  0.1081  0.0908
    1W        W35362  16.101   5.766   1.620  0.3559 -0.0689 -0.1215
    1W        W35363  21.902  24.589   7.717 -0.1018  0.0766 -0.0641
    1W        W35364   8.884   9.830   0.014  0.1461  0.2246 -0.2562
    1W        W35365  25.268  16.186   8.830  0.3253  0.0136 -0.2223
    1W        W35366   4.401  12.500   1.566 -0.2733 -0.0646 -0.1202
    1W        W35367   2.085  28.756   9.143  0.0679  0.0070  0.1643
    1W        W35368  11.218   0.390   8.487  0.1901 -0.1135 -0.2340
    1W        W35369  29.345   0.074   8.973  0.3005 -0.0727 -0.0148
    1W        W35370  14.024   1.186   6.370 -0.2977  0.2110 -0.0940
    1W        W35371  26.765  13.269   0.988  0.0715 -0.0235  0.0728
    1W        W35372  22.969  26.508   1.323 -0.1991  0.0795  0.3175
    1W        W35373   0.546   6.754   8.862 -0.3527 -0.0584 -0.1389
    1W        W35374  25.321   4.427   7.782  0.2386 -0.0423  0.0912
    1W        W35375   7.741  25.007   8.975 -0.0073 -0.1151 -0.0513
    1W        W35376  10.773  10.841   8.891 -0.1586  0.3599 -0.0175
    1W        W35377  13.300   8.458   2.234 -0.2215  0.0704 -0.0656
    1W        W35378   0.262  13.305   9.125  0.0521 -0.1128  0.0943
    1W        W35379  14.702   6.797   6.308 -0.1739  0.2471 -0.1373
    1W        W35380  24.335  23.836   8.609 -0.1228 -0.1951  0.1509
    1W        W35381   7.497  10.829   7.457 -0.0287 -0.0305  0.1485
    1W        W35382   6.174  23.981   2.446 -0.2939  0.1300  0.1328
    1W        W35383   9.021  12.602   7.753  0.0571 -0.0765 -0.2148
    1W        W35384   5.565  19.491   2.111 -0.0535 -0.1886  0.2302
    1W        W35385  27.937  20.102   8.661  0.1585  0.0911 -0.1201
    1W        W35386  10.189  18.242   6.501  0.1140  0.2158 -0.2174
    1W        W35387  21.194  11.612   8.525 -0.0967 -0.0788  0.3571
    1W        W35388   6.053  17.997   2.384  0.1676 -0.1535  0.2729
    1W        W35389  19.150   0.006   2.694 -0.1351  0.0822  0.1376
    1W        W35390   0.899  23.139   2.913 -0.1856  0.0092  0.1334
    1W        W35391  20.830   1.183   2.624 -0.1152  0.2089  0.1427
    1W        W35392  19.062  17.281   8.444 -0.0348  0.1657 -0.4545
    1W        W35393   8.718   5.590   7.222  0.1107 -0.5429 -0.1174
    1W        W35394  27.517   4.590   0.489 -0.1655 -0.0652 -0.0455
    1W        W35395  28.752  11.327   7.956 -0.1230  0.0168  0.1751
    1W        W35396  29.132  18.294   7.756 -0.0627 -0.2484 -0.2097
    1W        W35397  24.070   2.244   8.629 -0.1335  0.0575 -0.2073
    1W        W35398  12.344   1.086   8.578 -0.0565 -0.1042  0.2864
    1W        W35399  18.070  18.137   7.553 -0.0701  0.2448 -0.1339
    1W        W35400   7.452  20.438   8.746  0.3951  0.1736  0.1614
    1W        W35401   7.493  29.477   6.882 -0.2140  0.4946  0.0889
    1W        W35402  16.567   2.539   2.533 -0.0692  0.0825  0.2974
    1W        W35403  10.745  15.669   1.915  0.2049  0.0755 -0.0474
    1W        W35404   0.843  21.218   3.286  0.0696 -0.1617  0.0773
    1W        W35405  18.346  16.219   2.980 -0.3491  0.3426  0.0974
    1W        W35406  20.204  28.665   8.744 -0.0187 -0.1524 -0.2724
    1W        W35407  16.423   5.455   2.401  0.0983 -0.0782 -0.0022
    1W        W35408  21.995  29.089   2.014 -0.0851 -0.0546 -0.0387
    1W        W35409   5.544  27.954   8.893  0.2666 -0.1097  0.0304
    1W        W35410  13.557  28.456   7.982  0.1730  0.1065  0.1610
    1W        W35411   4.168   0.905   2.825  0.0196 -0.0182  0.1366
    1W        W35412  29.067  11.682   8.882 -0.0758 -0.0356  0.0834
    1W        W35413  22.553   2.782   8.184 -0.1766  0.0743  0.3766
    1W        W35414   9.469  24.733   2.178  0.0478 -0.0877 -0.0119
    1W        W35415  19.309  23.331   7.776 -0.3286  0.2396  0.0301
    1W        W35416   5.342  10.988   7.217 -0.1376  0.0404  0.1863
    1W        W35417  19.356  26.690   7.127 -0.1419 -0.2293  0.0359
    1W        W35418   6.576  10.670   8.119  0.1545  0.1570  0.3880
    1W        W35419  26.141   7.139   9.229 -0.3408 -0.1394  0.0290
    1W        W35420   9.023  24.966   8.413  0.2427 -0.2704  0.1131
    1W        W35421  14.148   7.746   8.131  0.2284  0.1480 -0.0111
    1W        W35422  17.310  20.963   8.252  0.0694 -0.0207 -0.3292
    1W        W35423  11.248  15.137   7.438  0.1609 -0.2910  0.1272
    1W        W35424  17.075   8.782   7.232  0.1062 -0.1825 -0.0835
    1W        W35425  27.875   4.159   9.425 -0.0830 -0.0813 -0.0572
    1W        W35426   4.397  28.049   1.326  0.1242 -0.2056  0.1423
    1W        W35427  25.884   7.860   7.663 -0.3966 -0.0491 -0.0769
    1W        W35428   4.778  25.493   2.055  0.0218 -0.0310  0.0664
    1W        W35429  13.831  11.067   0.743  0.0210  0.0630  0.1626
    1W        W35430  16.812  13.112   7.630  0.1609  0.0575  0.2164
    1W        W35431  15.160  15.170   9.421  0.1557  0.1452 -0.2874
    1W        W35432  10.880   7.449   7.294 -0.2027  0.1731  0.0589
    1W        W35433  21.060   0.796   0.833  0.3131  0.2798 -0.2107
    1W        W35434  23.027  13.278   3.391  0.0922  0.2375 -0.1083
    1W        W35435  18.617  20.751   1.670  0.1581 -0.0363  0.1767
    1W        W35436   9.612  10.309   6.909  0.2864 -0.2692  0.3120
    1W        W35437  11.140   1.578   8.157 -0.2115  0.2145  0.0875
    1W        W35438  27.794  11.142   7.358  0.0623 -0.1957 -0.0689
    1W        W35439   1.049  10.016   9.094  0.1337 -0.2342 -0.0795
    1W        W35440  23.170  18.262   9.312 -0.1041 -0.2052  0.2738
    1W        W35441  13.499  15.987   6.335 -0.2442 -0.0463 -0.1827
    1W        W35442  11.832  18.868   7.886 -0.1232  0.0121  0.1927
    1W        W35443   4.513   8.514   9.504  0.0868 -0.0005  0.0390
    1W        W35444  15.169  12.898   9.217  0.0749 -0.1280 -0.1252
    1W        W35445  17.784  21.803   7.563  0.0836 -0.1049  0.1144
    1W        W35446   6.300   2.025   8.507  0.2462 -0.0309 -0.0574
    1W        W35447   0.664   7.383   1.571 -0.0493 -0.0986  0.2916
    1W        W35448  29.196  12.462   1.736 -0.0942  0.1334 -0.1087
    1W        W35449  17.930   8.506   8.713 -0.1647  0.0829 -0.0748
    1W        W35450   7.669  18.971   7.338 -0.2897 -0.1701  0.2716
    1W        W35451  16.880  19.281   2.369 -0.0198 -0.2276 -0.2849
    1W        W35452  29.107   9.065   9.500  0.0766  0.0523  0.2424
    1W        W35453   8.295   3.425   9.290 -0.1261  0.0159 -0.1865
    1W        W35454   0.983  14.000   1.740 -0.0397 -0.2662 -0.1937
    1W        W35455  15.937  22.433   7.936 -0.0261 -0.3076  0.0578
    1W        W35456  28.134   5.288   8.105  0.0901 -0.0767 -0.2144
    1W        W35457   1.918   2.507   0.418  0.1330 -0.1727 -0.0458
    1W        W35458  13.895  26.451   9.240 -0.1574  0.3361  0.1596
    1W        W35459   1.028   3.276   1.459 -0.0497  0.3058 -0.1375
    1W        W35460  23.075  13.587   2.101 -0.1230  0.2888  0.0180
    1W        W35461   6.985  26.942   2.611 -0.4081  0.0878  0.1365
    1W        W35462  15.848   9.523   1.315  0.1914 -0.1161  0.2518
    1W        W35463  15.209  23.600   7.261 -0.1644  0.0223  0.0119
    1W        W35464  16.380  22.978   1.096 -0.2125 -0.0765 -0.2868
    1W        W35465  11.096   7.371   7.930 -0.2119  0.4486 -0.0288
    1W        W35466  18.530   7.913   0.960  0.0207  0.0950  0.0917
    1W        W35467  22.984  23.165   4.214 -0.4775  0.1006 -0.0376
    1W        W35468  18.499  22.438   2.523 -0.1592 -0.2214  0.2573
    1W        W35469  11.384  22.016   0.084 -0.3540 -0.0335 -0.1009
    1W        W35470   4.710  13.755   0.623 -0.1787 -0.0726  0.0239
    1W        W35471  18.976   0.980   2.262  0.2425 -0.1903 -0.0303
    1W        W35472   3.069  18.629   9.312 -0.1072 -0.1254  0.1074
    1W        W35473  27.552  29.297   8.458 -0.4486  0.0405 -0.1663
    1W        W35474   9.238  19.358   8.938 -0.1742  0.0102 -0.2771
    1W        W35475   5.153  21.421   7.501  0.1449  0.0230 -0.1029
    1W        W35476  24.176  23.097   1.750  0.1531 -0.1894 -0.0788
    1W        W35477  20.922  16.034   9.167  0.2891 -0.0707 -0.3269
    1W        W35478   4.686  12.771   1.222 -0.1737  0.0210 -0.0266
    1W        W35479  21.031   8.208   8.430  0.3585  0.0996 -0.3080
    1W        W35480  13.942   5.737   1.472  0.2274  0.1628  0.0385
    1W        W35481  16.828  20.412   2.150 -0.0283  0.1069  0.0176
    1W        W35482  13.271   8.459   6.993 -0.0024  0.2099 -0.0370
    1W        W35483  14.148   4.893   8.603 -0.2042 -0.0452 -0.1132
    1W        W35484  14.820   5.811   8.916 -0.0147  0.0380  0.0023
    1W        W35485  28.449  27.398   2.585  0.1096 -0.0370 -0.0871
    1W        W35486   4.678  21.678   1.688 -0.1484  0.0057  0.1569
    1W        W35487  28.624  18.045   2.519  0.0044 -0.0504  0.1073
    1W        W35488   6.003   3.366   2.700  0.3346  0.0359  0.1317
    1W        W35489  18.584  18.874   0.868  0.0340  0.0357 -0.2109
    1W        W35490  29.538   6.583   6.821  0.0234 -0.3185 -0.2726
    1W        W35491  16.630  12.122   2.915 -0.0254 -0.0894  0.1784
    1W        W35492   1.621   5.024   1.333 -0.1428 -0.2438  0.1274
    1W        W35493  18.514  21.301   8.584 -0.2062  0.2828 -0.3082
    1W        W35494  19.609  17.807   0.806  0.2059  0.0820 -0.1130
    1W        W35495   7.722  25.011   6.648 -0.1087 -0.0301 -0.2304
    1W        W35496  24.603  19.849   8.146 -0.1551 -0.1231  0.2325
    1W        W35497  27.872   1.273   8.167 -0.2007 -0.1432 -0.3074
    1W        W35498  19.255  27.233   7.121  0.1848  0.0119  0.2645
    1W        W35499  14.212  18.341   1.251 -0.1072 -0.1415 -0.2493
    1W        W35500  21.539  20.177   1.746 -0.0171 -0.0437 -0.1149
    1W        W35501   4.141  18.915   8.667  0.1036 -0.0538 -0.0675
    1W        W35502   0.206   8.497   1.469 -0.2614  0.2432  0.0356
    1W        W35503  25.039  16.628   3.569 -0.1155 -0.0091  0.3414
    1W        W35504  15.043  26.853   1.692 -0.2859 -0.1284 -0.1529
    1W        W35505  17.186  17.739   3.428 -0.1910 -0.1395 -0.1694
    1W        W35506  18.222  12.101   2.056  0.0459 -0.0618 -0.0965
    1W        W35507  23.544  25.052   0.916 -0.0064  0.1888  0.0854
    1W        W35508  25.118  25.459   2.220 -0.0726 -0.0186  0.0319
    1W        W35509   2.232  21.420   8.691 -0.2000  0.1904  0.1530
    1W        W35510   0.388   3.263   0.715 -0.1901 -0.3156 -0.0837
    1W        W35511  21.813   6.955   1.092  0.2543 -0.0927 -0.1852
    1W        W35512  12.221   4.520   6.831 -0.0193  0.0993 -0.0088
    1W        W35513  12.895   0.278   7.925 -0.0032 -0.0062 -0.0156
    1W        W35514   4.799  13.376   9.168 -0.2899 -0.0949 -0.1355
    1W        W35515  27.419  12.842   7.699 -0.0722  0.1153  0.1066
    1W        W35516  12.922  23.960   9.175 -0.2596  0.0200  0.0857
    1W        W35517   8.236  26.688   2.500  0.0785 -0.2272  0.3413
    1W        W35518  27.514   4.422   9.632  0.0748 -0.1495 -0.1575
    1W        W35519   5.026  23.062   1.756  0.3642 -0.3490  0.0331
    1W        W35520  13.609  28.093   8.362  0.2451  0.2215 -0.1894
    1W        W35521   1.660   8.406   6.615  0.0238  0.0793  0.1599
    1W        W35522  24.801  23.992   8.989 -0.4917  0.1925 -0.1889
    1W        W35523  28.747  11.696   7.582 -0.0107  0.0610 -0.2700
    1W        W35524  23.578  11.942   8.434  0.0369  0.0781  0.3253
    1W        W35525  27.402  19.462   1.142  0.3692  0.2739  0.0710
    1W        W35526  27.698  10.815   1.628  0.0777 -0.0945  0.2655
    1W        W35527   4.928  17.385   7.826 -0.2146 -0.0124 -0.0732
    1W        W35528  29.494  10.355   1.021  0.1017 -0.0589 -0.2797
    1W        W35529  15.928  10.789   7.319 -0.0377  0.3425  0.1294
    1W        W35530  13.684  16.782   6.958 -0.0635  0.2728 -0.0890
    1W        W35531  19.907   9.768   0.692  0.1421 -0.1952 -0.0939
    1W        W35532  24.861   4.320   0.237  0.0097 -0.2248  0.0653
    1W        W35533   7.898  17.012   7.660 -0.1675  0.3361  0.0646
    1W        W35534  22.804  23.283   3.699 -0.1765 -0.1843 -0.0026
    1W        W35535  14.438   2.894   0.521  0.0830 -0.1976  0.0568
    1W        W35536  20.230  13.807   0.788 -0.1149  0.1003  0.1757
    1W        W35537   9.797  13.980   7.776 -0.0701 -0.0470 -0.2153
    1W        W35538  27.782   2.682   8.703 -0.1914  0.1800  0.3879
    1W        W35539  23.986  27.446   7.575 -0.0839  0.2726 -0.2953
    1W        W35540   0.667   8.093   8.363 -0.0493 -0.0265  0.2403
    1W        W35541  21.435  29.184   0.667 -0.2542 -0.0020 -0.0869
    1W        W35542  28.239   3.332   0.239 -0.0501  0.1135  0.1295
    1W        W35543   5.595   5.156   9.203  0.3465  0.1303  0.1951
    1W        W35544  12.629   3.664   0.613  0.1935 -0.0372  0.0659
    1W        W35545  17.550   8.934   7.915  0.0855  0.1587 -0.2409
    1W        W35546   0.799  10.350   0.340 -0.1053  0.1951 -0.1715
    1W        W35547   3.184  19.018   2.816 -0.0396 -0.0151  0.0292
    1W        W35548   1.742   9.949   0.546 -0.2619  0.2406  0.2668
    1W        W35549  29.273  28.319   7.810 -0.1048  0.3175 -0.1441
    1W        W35550   9.464  10.229   1.275 -0.0411 -0.0598 -0.0411
    1W        W35551  19.681  18.786   7.120  0.0181  0.0060 -0.1324
    1W        W35552  18.264  16.314   8.946 -0.3292  0.1168 -0.0964
    1W        W35553  20.492  17.431   8.033 -0.3162  0.1248 -0.1647
    1W        W35554  17.717  24.948   9.581  0.1436  0.2977 -0.0212
    1W        W35555  13.816   6.771   7.337 -0.3407  0.1638  0.1097
    1W        W35556  11.367  11.129   8.550  0.2602  0.1650 -0.1709
    1W        W35557  23.342   4.784   8.783  0.1068 -0.0938  0.0759
    1W        W35558   8.263  14.299   1.129 -0.0047 -0.3176 -0.0196
    1W        W35559  21.091  17.711   3.115 -0.3438 -0.0829 -0.3331
    1W        W35560   2.841   9.941   7.012 -0.0372  0.2642 -0.1243
    1W        W35561   0.308   5.311   9.481 -0.0713  0.1710 -0.0962
    1W        W35562  19.780   8.824   9.598 -0.2277 -0.0155  0.0207
    1W        W35563  21.836  12.170   6.856  0.2231  0.1223 -0.0771
    1W        W35564  10.661  24.310   1.851  0.0542  0.1693  0.0015
    1W        W35565   8.944   0.007   2.088  0.0507  0.2310  0.0060
    1W        W35566   1.560  23.992   1.226  0.1452 -0.1803 -0.2034
    1W        W35567   7.593  29.182   7.889  0.0489  0.0972 -0.2511
    1W        W35568  18.096  29.049   9.072  0.0626 -0.0630  0.1535
    1W        W35569  15.530   6.708   8.131  0.0545  0.3175  0.2626
    1W        W35570  26.430   7.398   0.010 -0.3422  0.0378 -0.0081
    1W        W35571   1.222  23.096   9.225 -0.3112  0.0734 -0.1162
    1W        W35572  13.160  28.500   1.613 -0.0340  0.0680  0.0269
    1W        W35573  15.959   6.226   6.023 -0.0172  0.0997 -0.0162
    1W        W35574   4.408  17.892   1.943 -0.2343 -0.2036 -0.0335
    1W        W35575   2.794  17.499   9.272  0.1055 -0.2221 -0.2284
    1W        W35576   5.503  10.830   6.048  0.0090  0.2783 -0.1007
    1W        W35577  22.251   3.942   0.179 -0.0784 -0.2481 -0.2223
    1W        W35578  22.203  13.367   7.382  0.1206  0.1501 -0.1217
    1W        W35579  21.303  14.148   2.657  0.0517  0.2288  0.4336
    1W        W35580  25.009  13.573   1.016  0.3305 -0.1844  0.4955
    1W        W35581   3.367   0.541   8.327  0.2151  0.1692  0.1354
    1W        W35582   2.380  21.145   3.306  0.2044 -0.0493  0.4966
    1W        W35583  19.958   7.983   7.458 -0.1124  0.1676  0.3330
    1W        W35584  11.381  18.116   1.557  0.1870  0.0544  0.1487
    1W        W35585   5.899  25.500   6.920 -0.0157  0.0639  0.0106
    1W        W35586  12.865   7.594   7.639  0.0804 -0.0732 -0.1103
    1W        W35587  15.125  19.317   1.383  0.2024  0.1205 -0.0279
    1W        W35588  24.639  14.911   8.970 -0.3176 -0.0405  0.0287
    1W        W35589   7.220  14.044   6.802 -0.2399  0.1262 -0.0903
    1W        W35590  24.200   9.417   8.184  0.0107  0.2496  0.1611
    1W        W35591  24.136  27.375   6.638  0.1106 -0.0217 -0.1450
    1W        W35592  14.468   5.146   8.251  0.0388  0.1529  0.1612
    1W        W35593  15.288  21.634   6.809 -0.2194  0.1849  0.1796
    1W        W35594  25.634   6.367   7.980 -0.1274  0.1026 -0.0142
    1W        W35595  25.412  13.476   7.049  0.0903  0.0518 -0.2261
    1W        W35596  13.529  24.591   6.752 -0.0989 -0.0716  0.0001
    1W        W35597  24.387  27.402   8.923  0.1839 -0.0978 -0.2267
    1W        W35598  14.689  13.510   1.320  0.1925  0.2563 -0.1011
    1W        W35599  26.160  28.304   1.717 -0.1671  0.2811 -0.1100
    1W        W35600  26.691  18.710   0.563 -0.3136  0.0561  0.2347
    1W        W35601   7.507   3.533   2.365 -0.2321  0.1925 -0.0896
    1W        W35602  25.813  16.033   8.029 -0.2880  0.1136 -0.1773
    1W        W35603  20.895  25.999   2.483  0.1107  0.0725 -0.1395
    1W        W35604  16.047  10.301   7.314 -0.1338  0.1228 -0.0549
    1W        W35605  18.469   3.819   2.070 -0.1021  0.1431  0.1544
    1W        W35606   3.640  12.014   6.200 -0.0004 -0.4210 -0.2809
    1W        W35607   7.799  24.023   2.205 -0.2330 -0.0075  0.0069
    1W        W35608  20.919   8.080   9.060  0.1577  0.1697  0.2456
    1W        W35609  23.176  12.397   7.887 -0.3250  0.3699  0.1569
    1W        W35610  22.301  24.348   3.016  0.1134 -0.1288 -0.2119
    1W        W35611  25.224  17.266   9.308 -0.3584 -0.4351  0.0724
    1W        W35612  22.278   4.912   7.153  0.1963  0.2466  0.1349
    1W        W35613  23.084   9.747   2.370 -0.1845  0.1291  0.0691
    1W        W35614   5.334  13.355   8.308 -0.0823 -0.2164  0.3463
    1W        W35615  16.032  22.555   0.255 -0.2796  0.2762 -0.3156
    1W        W35616  18.370  25.590   3.897  0.2890  0.1306  0.0547
    1W        W35617   2.110  10.075   0.128 -0.1034  0.3365  0.1553
    1W        W35618  22.027  17.823   2.649 -0.1176 -0.1901  0.3060
    1W        W35619   5.735  24.857   9.368  0.1726 -0.2845 -0.1219
    1W        W35620  21.028  12.183   1.704  0.0399  0.0570  0.1551
    1W        W35621  28.512   4.835   0.788 -0.1768  0.1998  0.1664
    1W        W35622  23.701  25.655   0.565  0.0953  0.1461 -0.2674
    1W        W35623  19.036  21.949   1.205 -0.2226 -0.1299  0.0146
    1W        W35624  17.514  29.290   8.233  0.1523  0.1881 -0.2584
    1W        W35625   7.019   6.376   7.934 -0.1580  0.4180  0.3159
    1W        W35626  23.326  25.309   0.535  0.0332  0.0686 -0.0184
    1W        W35627  27.511  17.787   0.959  0.3194 -0.1229  0.1117
    1W        W35628  14.653   6.576   0.448 -0.1171 -0.0442  0.1888
    1W        W35629   5.506  27.054   8.539 -0.0275  0.0618 -0.1328
    1W        W35630   6.676  20.348   7.569  0.2895  0.1023  0.0995
    1W        W35631   3.520  13.568   1.510  0.0596  0.1778 -0.1176
    1W        W35632  16.927  19.496   1.435 -0.0543 -0.0168 -0.1223
    1W        W35633  18.818  13.525   0.260  0.0255 -0.0987 -0.1157
    1W        W35634  21.919  11.828   7.259  0.0200 -0.5669 -0.0292
    1W        W35635   0.857   1.396   1.919  0.0534  0.1205 -0.0343
    1W        W35636   6.281  14.237   7.977  0.1380  0.1824 -0.1924
    1W        W35637   0.362  24.259   9.024 -0.1417  0.0620  0.2325
    1W        W35638   8.599  24.969   9.581 -0.0246 -0.1468 -0.2025
    1W        W35639   6.698  21.397   8.801  0.1141  0.2695 -0.2277
    1W        W35640  12.200  26.820   9.170  0.4023 -0.1226 -0.0600
    1W        W35641  21.074  19.090   2.460 -0.1157  0.2485 -0.2465
    1W        W35642  28.122  27.141   7.828  0.2460  0.3208 -0.0617
    1W        W35643  27.272  22.509   9.556  0.5595  0.1972 -0.0639
    1W        W35644  22.592   5.384   0.337 -0.1713  0.0345  0.0110
    1W        W35645  25.835   1.632   2.426  0.1384 -0.0701 -0.4646
    1W        W35646   2.363   6.208   6.263  0.2377 -0.0440 -0.2839
    1W        W35647  16.874  11.138   9.371  0.1209  0.0117 -0.0501
    1W        W35648  22.115  24.267   2.464 -0.1165 -0.1255  0.1338
    1W        W35649   6.894  26.588   8.640 -0.2266 -0.0234  0.0141
    1W        W35650   0.995  16.512   1.769 -0.0329  0.1605  0.1618
    1W        W35651  12.381   1.819   2.198  0.0206  0.2030  0.0657
    1W        W35652  16.578  20.419   9.392 -0.1348 -0.1823 -0.2399
    1W        W35653  24.847  19.685   2.678  0.0902 -0.2351  0.3140
    1W        W35654  17.595  29.185   0.887  0.0479  0.2553  0.0458
    1W        W35655  15.300  18.216   6.611  0.3800  0.1312  0.1811
    1W        W35656  15.416  16.014   2.330 -0.0877 -0.0891  0.2199
    1W        W35657   8.411  28.877   8.291  0.3694 -0.0447 -0.0350
    1W        W35658  28.019   4.729   8.785  0.5974  0.3602 -0.0682
    1W        W35659   8.345  22.166   8.326 -0.2179  0.0873  0.0234
    1W        W35660  28.410  18.102   0.079 -0.0370 -0.1029  0.4477
    1W        W35661  12.799  20.098   9.348 -0.2415  0.0491 -0.2069
    1W        W35662  28.111   2.153   7.392 -0.1482 -0.3106 -0.0104
    1W        W35663  24.922  11.999   1.052 -0.2270 -0.0196 -0.0739
    1W        W35664  19.834  21.771   8.850  0.3381 -0.3093 -0.2528
    1W        W35665  10.547  16.716   1.075 -0.1736  0.0320 -0.2425
    1W        W35666  10.361  24.889   1.033  0.0900 -0.0986  0.1526
    1W        W35667   7.379  11.591   6.405  0.2120 -0.2100  0.1459
    1W        W35668  11.103   2.186   2.785 -0.0977 -0.1876  0.0261
    1W        W35669  13.206  15.711   8.240 -0.2292  0.0127 -0.2258
    1W        W35670   2.818   5.056   8.280  0.2224 -0.2282 -0.0275
    1W        W35671  23.626  15.483   9.035 -0.1068  0.0747  0.0126
    1W        W35672  15.636  21.682   9.570  0.1809  0.1422  0.1153
    1W        W35673   0.412   1.518   9.124 -0.5349 -0.1595 -0.1926
    1W        W35674  19.221   3.242   0.384 -0.2584 -0.0175  0.0598
    1W        W35675   4.369   1.388   1.320  0.4644 -0.0452  0.0269
    1W        W35676  13.744   5.977   1.057 -0.1377 -0.2106  0.1547
    1W        W35677   2.041  29.169   2.351  0.1077  0.3900  0.0271
    1W        W35678  21.015  12.187   7.165  0.3016  0.1111 -0.0947
    1W        W35679  10.526  14.631   9.388 -0.1122 -0.2164 -0.2141
    1W        W35680  12.726  20.891   0.406 -0.1493  0.0257  0.0077
    1W        W35681  19.429  22.855   0.400 -0.0943 -0.2905 -0.2849
    1W        W35682   2.577   1.202   7.524  0.2240  0.1047  0.0925
    1W        W35683  20.649  15.215   8.100  0.1513  0.0602  0.0545
    1W        W35684  22.761  19.723   2.834 -0.0254 -0.0520  0.0138
    1W        W35685  18.374   8.972   7.453 -0.0974 -0.0548  0.0505
    1W        W35686  13.802  18.326   0.971 -0.2681  0.0980 -0.1825
    1W        W35687   7.720  28.942   0.769 -0.2028 -0.0780 -0.1544
    1W        W35688  18.955   9.052   1.967  0.3308 -0.2353  0.0680
    1W        W35689   4.512  13.774   1.615  0.1169 -0.0284 -0.2864
    1W        W35690  14.002  28.741   1.315 -0.2226 -0.1405 -0.1241
    1W        W35691  13.598  20.717   8.412 -0.2734 -0.0584  0.2328
    1W        W35692  14.934  17.567   2.528 -0.0320  0.3134 -0.1176
    1W        W35693  25.841   0.431   7.955 -0.0824 -0.0324 -0.0136
    1W        W35694   8.027  20.934   1.590 -0.2455 -0.3218 -0.0054
    1W        W35695   3.843  23.391   9.624 -0.0840 -0.0399  0.1514
    1W        W35696   3.511  14.308   8.535 -0.0723  0.3652 -0.0267
    1W        W35697  27.853  11.060   6.839  0.0683  0.2853  0.1070
    1W        W35698  13.152   5.715   7.702 -0.2226 -0.2767 -0.0836
    1W        W35699  20.169  12.149   2.362 -0.1266  0.0861  0.1136
    1W        W35700   7.368  16.209   0.230  0.0376  0.0810 -0.1162
    1W        W35701  28.250  19.623   8.979 -0.0890  0.0409 -0.2745
    1W        W35702  13.558   8.796   1.944 -0.0991  0.0474 -0.0296
    1W        W35703  14.975  14.074   7.736 -0.1588 -0.1375 -0.0504
    1W        W35704  17.645   9.405   8.116  0.2241 -0.2824 -0.2355
    1W        W35705   4.157  22.884   3.796  0.0637 -0.1481 -0.0207
    1W        W35706  11.932  17.982   9.163  0.2238 -0.1128  0.4864
    1W        W35707  16.157  24.924   9.109  0.0448 -0.2859  0.0394
    1W        W35708  27.076  21.486   1.469 -0.0224  0.2300  0.3337
    1W        W35709  20.886  27.404   8.973 -0.1013  0.1638 -0.3013
    1W        W35710  24.989   2.215   8.625 -0.0930  0.2291 -0.4734
    1W        W35711  22.376  11.171   8.928 -0.1643  0.3168  0.0940
    1W        W35712   4.287   6.066   8.821 -0.0817  0.3160 -0.2018
    1W        W35713  25.196  21.978   3.357  0.1630  0.1160 -0.0182
    1W        W35714   2.639  14.288   6.813  0.0466  0.0520 -0.1089
    1W        W35715  20.458  28.471   1.186 -0.0933 -0.1979  0.1606
    1W        W35716  17.289   9.911   2.122 -0.4435 -0.1508  0.1072
    1W        W35717  26.565  19.181   8.526 -0.3247  0.1869  0.3376
    1W        W35718  10.586  23.875   0.396 -0.1966  0.0653  0.1665
    1W        W35719   3.763  25.733   7.780  0.1646 -0.2092 -0.1353
    1W        W35720  15.390  18.135   9.498  0.1213  0.0385 -0.1926
    1W        W35721   9.813   2.912   1.763 -0.3109  0.2789 -0.0647
    1W        W35722  22.506   1.738   1.645 -0.1091 -0.2537  0.1400
    1W        W35723  13.954  20.021   1.337  0.1197  0.3593  0.2042
    1W        W35724  19.663  26.145   3.221 -0.0321 -0.1130  0.0163
    1W        W35725   9.232  17.349   1.689  0.0306 -0.1835  0.0733
    1W        W35726   0.000   3.460   6.430 -0.1278  0.0477  0.2724
    1W        W35727   4.800  15.706   1.256  0.1986 -0.1351 -0.1632
    1W        W35728  19.679   2.662   2.531  0.0827  0.0285 -0.0923
    1W        W35729   7.382  16.806   7.617 -0.0585  0.1422  0.0631
    1W        W35730   0.942   0.934   1.106  0.1014 -0.1505  0.0598
    1W        W35731   1.650  18.071   1.613  0.0071 -0.2274 -0.0475
    1W        W35732   1.275  14.378   0.624  0.2159 -0.1514 -0.1121
    1W        W35733  26.230   7.210   8.767  0.0670  0.3222  0.1161
    1W        W35734   1.471  16.233   8.655 -0.1392 -0.0515  0.2131
    1W        W35735   6.539  11.191   8.272 -0.3618 -0.1501  0.0700
    1W        W35736   1.046  15.100   2.205 -0.1810 -0.1560  0.2321
    1W        W35737  14.949  10.346   1.755 -0.0435 -0.0397 -0.0043
    1W        W35738  12.004  19.334   0.188  0.3359  0.0169 -0.1548
    1W        W35739  18.467  19.841   0.502  0.2148  0.2326  0.0998
    1W        W35740  22.220  16.381   2.227 -0.1341  0.0559  0.2037
    1W        W35741  22.302   4.224   8.414 -0.0747 -0.1633  0.0323
    1W        W35742  28.724   7.043   0.224  0.0119 -0.2286  0.2286
    1W        W35743   8.175   8.990   7.561 -0.1545 -0.0900 -0.0151
    1W        W35744   9.822   7.736   6.962 -0.1939  0.1334 -0.0656
    1W        W35745  20.455   8.433   0.728 -0.0423  0.2260 -0.1002
    1W        W35746  10.651  13.519   8.490  0.1303  0.1796  0.2579
    1W        W35747  11.970  23.286   8.058  0.2435 -0.0884  0.3040
    1W        W35748   8.318   5.847   7.337 -0.1719 -0.2775  0.0942
    1W        W35749  22.808  18.362   3.008 -0.2359 -0.0546  0.1769
    1W        W35750  27.106   1.036   1.092 -0.4429  0.1447  0.1443
    1W        W35751  24.386  28.168   7.220  0.1521 -0.1792 -0.1099
    1W        W35752  14.662   4.822   8.634 -0.2259 -0.2401  0.1766
    1W        W35753  17.818  29.148   2.373  0.1193  0.2724 -0.1839
    1W        W35754  20.333   5.523   1.431 -0.0934  0.1094 -0.1815
    1W        W35755  25.286  12.656   2.430 -0.0320  0.0765 -0.4645
    1W        W35756  20.009  24.394   1.746  0.0345  0.4438 -0.0117
    1W        W35757  11.579   9.004   1.341 -0.0435  0.0818 -0.1348
    1W        W35758  19.716  28.967   1.450 -0.0781 -0.4427  0.0590
    1W        W35759  15.570  14.665   2.725  0.0691  0.0602 -0.1129
    1W        W35760  19.525  13.410   1.795  0.2389  0.2684  0.0883
    1W        W35761  27.900  10.260   8.495  0.0555 -0.0602  0.1171
    1W        W35762   5.793  11.139   8.821 -0.1859  0.0470 -0.1300
    1W        W35763   0.996  11.059   0.996  0.2541  0.3106  0.1438
    1W        W35764  16.897  19.690   0.655 -0.0160 -0.2981 -0.2168
    1W        W35765  10.993  18.188   1.820 -0.2308 -0.1420 -0.0201
    1W        W35766  20.437  27.448   9.300  0.2099 -0.0511 -0.1542
    1W        W35767  11.135   6.321   6.866  0.1874 -0.0566 -0.0961
    1W        W35768  24.427   3.754   1.019 -0.1486 -0.0511 -0.0496
    1W        W35769  15.157   4.572   0.921  0.1130  0.0228 -0.1210
    1W        W35770   5.969  26.850   8.880  0.1745 -0.0964 -0.1114
    1W        W35771   8.632  23.347   1.866 -0.3406  0.0777 -0.1674
    1W        W35772   5.278  14.532   8.018  0.1328  0.0311  0.0971
    1W        W35773  10.693  18.292   7.299 -0.1849  0.1569 -0.2012
    1W        W35774  12.018   8.997   8.420  0.0321 -0.0045  0.1766
    1W        W35775  10.565  21.004   6.713 -0.0634  0.0999 -0.0321
    1W        W35776  20.873   2.669   2.082  0.0550  0.1951  0.1210
    1W        W35777  16.377  19.954   7.111 -0.1890 -0.0625  0.2044
    1W        W35778  17.701  28.661   3.213  0.0981 -0.0325  0.2722
    1W        W35779  23.583  18.277   6.258 -0.1178 -0.0928 -0.0237
    1W        W35780   4.836  20.741   6.653  0.1449 -0.0596 -0.0619
    1W        W35781  16.992  28.073   2.736  0.0216  0.2554 -0.0820
    1W        W35782  10.792  11.519   1.799 -0.1764  0.1030  0.0319
    1W        W35783   1.130  23.546   0.386 -0.3924  0.0927  0.0674
    1W        W35784   7.545  27.088   8.212 -0.0399  0.1541 -0.0120
    1W        W35785  22.531   4.682   0.319  0.1139 -0.1605 -0.0220
    1W        W35786   7.172  25.695   8.348 -0.0081  0.2211 -0.0967
    1W        W35787   5.622  12.784   5.990 -0.0605 -0.1591 -0.0887
    1W        W35788  25.468  25.956   8.537 -0.0428  0.1487 -0.1900
    1W        W35789  12.517   6.616   7.317  0.1966 -0.0615  0.0432
    1W        W35790   1.160  16.165   1.461 -0.1665 -0.3847  0.1356
    1W        W35791  20.983   3.270   1.422  0.0742  0.1105 -0.1780
    1W        W35792  22.975  20.823   7.906 -0.0749  0.3334  0.0840
    1W        W35793  26.072  11.099   7.505  0.0894  0.1419 -0.2101
    1W        W35794   2.148  25.844   8.466 -0.1373 -0.0962 -0.1951
    1W        W35795  22.881   6.980   1.869 -0.1155  0.0209 -0.2781
    1W        W35796   0.071  29.161   1.821 -0.2132  0.2142 -0.0929
    1W        W35797   7.814  12.021   6.493  0.1372  0.0366  0.1385
    1W        W35798  14.412  23.254   7.752 -0.1990 -0.0929 -0.0608
    1W        W35799  13.712  28.247   6.144 -0.0386  0.1666  0.1259
    1W        W35800   9.353  29.515   1.058  0.1782  0.0275  0.1631
    1W        W35801   8.396  11.268   6.463  0.0113 -0.0906  0.0938
    1W        W35802  16.523  28.015   8.345 -0.1536 -0.0026  0.4009
    1W        W35803   4.737  11.908   9.009  0.3081  0.1746  0.0845
    1W        W35804  28.840   5.966   8.961  0.0709  0.2868  0.1090
    1W        W35805   8.445  21.623   1.263  0.1731  0.0429  0.0348
    1W        W35806   4.604   1.310   6.845 -0.1089 -0.0002 -0.1583
    1W        W35807   2.928  15.945   7.462 -0.0191 -0.4192  0.0376
    1W        W35808  18.253  15.064   1.680 -0.1658 -0.3091  0.0158
    1W        W35809  23.539  13.561   6.869  0.0396 -0.2225  0.2020
    1W        W35810  27.525  18.024   7.630 -0.3005  0.0887  0.0965
    1W        W35811  22.537   0.322   8.579 -0.2619  0.1468  0.1795
    1W        W35812  23.148  28.297   7.304  0.1400 -0.2696  0.0787
    1W        W35813  28.055  16.401   8.159 -0.1474  0.0397  0.1884
    1W        W35814  13.187   2.000   7.014 -0.0121 -0.0207  0.1016
    1W        W35815   7.906  27.307   2.936  0.2097 -0.0394  0.3370
    1W        W35816  25.501  28.869   2.156  0.1440 -0.0861  0.1849
    1W        W35817  19.081  24.400   1.973  0.1175 -0.1337 -0.0446
    1W        W35818   3.995   0.918   0.231 -0.1733 -0.1578 -0.1908
    1W        W35819  17.154  13.041   0.050  0.1506  0.2749 -0.0026
    1W        W35820  28.792  21.313   8.269 -0.0767 -0.0732  0.2299
    1W        W35821  25.278  19.223   6.782 -0.1017 -0.3817  0.1807
    1W        W35822  26.805   0.357   7.689 -0.0747 -0.1823 -0.0402
    1W        W35823  18.703  12.822   2.231 -0.1532  0.4283  0.2289
    1W        W35824   0.763   1.775   8.877  0.2265  0.1952 -0.2273
    1W        W35825  26.793  29.319   0.357  0.2694 -0.0182 -0.0368
    1W        W35826  29.186  27.390   7.841  0.0501 -0.0130  0.2742
    1W        W35827  23.663   8.559   8.288  0.3483 -0.0120 -0.0016
    1W        W35828   3.179   1.263   6.897  0.1323 -0.0717  0.4457
    1W        W35829   5.560  20.458   1.700 -0.0810  0.0559  0.1919
    1W        W35830  25.916  18.317   9.613 -0.0382 -0.0688  0.3297
    1W        W35831  24.731   8.775   6.978  0.3746 -0.0158  0.1089
    1W        W35832  12.836   5.291   0.010 -0.1247 -0.3787 -0.0009
    1W        W35833   9.686  15.302   7.643 -0.0865  0.0944  0.1535
    1W        W35834  12.966  15.364   9.297  0.2767 -0.2046  0.1776
    1W        W35835  11.535  19.911   1.963 -0.0849 -0.5385 -0.0212
    1W        W35836   4.222   0.252   7.411  0.2470 -0.4247  0.0927
    1W        W35837  10.778   6.520   8.146 -0.0593 -0.0716  0.1881
    1W        W35838  19.234   2.659   8.520  0.0501 -0.1384 -0.1100
    1W        W35839  24.390  14.621   1.958 -0.2149  0.1933  0.1134
    1W        W35840   5.877   7.220   9.455  0.2558  0.2275 -0.2532
    1W        W35841  24.718   9.297   0.475 -0.2135 -0.1608  0.2853
    1W        W35842   5.625   3.715   0.897  0.2020  0.1826 -0.1529
    1W        W35843  14.850   3.534   6.705 -0.0064 -0.3352 -0.1307
    1W        W35844  17.114  19.001   3.244  0.0538  0.0279  0.1938
    1W        W35845  17.626   3.638   1.045  0.0093 -0.2512 -0.0275
    1W        W35846  16.669  21.185   1.414 -0.0879  0.0956  0.0922
    1W        W35847  16.207  15.617   0.824 -0.1765 -0.0834 -0.0484
    1W        W35848  14.225   6.867   1.833  0.0931 -0.0855 -0.1126
    1W        W35849  21.831  12.164   7.624 -0.1306  0.0030 -0.1169
    1W        W35850  14.351  24.543   7.797  0.0563 -0.0143  0.0689
    1W        W35851  29.113   0.296   0.838  0.0681 -0.2566 -0.0452
    1W        W35852  15.589   7.448   7.967  0.0836 -0.2832 -0.2224
    1W        W35853   7.371  15.627   8.280  0.2713  0.0689  0.0090
    1W        W35854   0.261  18.169   0.048  0.0753 -0.0528  0.2113
    1W        W35855  16.247  21.516   1.615 -0.1350 -0.1721  0.0379
    1W        W35856   0.020  29.175   6.968  0.1847 -0.0978  0.0497
    1W        W35857  12.911  19.339   2.084  0.0856  0.0325 -0.3033
    1W        W35858   7.444  26.552   6.750  0.0375 -0.2180  0.1399
    1W        W35859   8.597   1.526   1.132  0.0281  0.1777 -0.1541
    1W        W35860  18.484   3.842   8.131  0.1498 -0.5451 -0.0770
    1W        W35861   3.988  16.751   1.206  0.2207 -0.0057  0.1278
    1W        W35862   8.999   7.276   9.230 -0.3507 -0.4574 -0.1270
    1W        W35863  20.945  26.776   3.508  0.0977 -0.0127  0.3463
    1W        W35864  14.211  27.017   1.486 -0.1080  0.0769 -0.0926
    1W        W35865  27.677  18.725   0.522  0.1369 -0.1088 -0.0220
    1W        W35866   5.688   2.254   0.733  0.3370 -0.2105  0.1077
    1W        W35867  27.073   8.311   7.154 -0.0569  0.1313 -0.0274
    1W        W35868  12.110  29.544   8.957  0.0284  0.2095  0.0101
    1W        W35869   1.085  20.880   1.252 -0.2174  0.1465  0.0765
    1W        W35870  14.503   4.465   6.045  0.1580  0.3496  0.1010
    1W        W35871   1.090   7.189   1.420 -0.1304 -0.0030  0.2839
    1W        W35872   4.279   6.728   6.293 -0.1353 -0.4704  0.0716
    1W        W35873  24.966  25.147   2.571  0.2037 -0.0154 -0.1433
    1W        W35874   0.054   6.900   8.165 -0.1417  0.1082  0.1030
    1W        W35875   5.843  16.482   6.073 -0.3527 -0.3470 -0.0597
    1W        W35876   1.487  15.902   0.301  0.2630  0.2323  0.1267
    1W        W35877  16.641  13.420   1.308  0.0435 -0.3589  0.1076
    1W        W35878  26.439   8.385   0.286 -0.0494  0.0310  0.0407
    1W        W35879  19.979   9.564   1.147 -0.1564  0.1397 -0.1046
    1W        W35880  21.286   7.831   2.179  0.3126 -0.1343  0.0579
    1W        W35881  27.501  19.384   1.622 -0.1968 -0.1788  0.1910
    1W        W35882  21.138  18.991   8.820  0.1779 -0.0451  0.1383
    1W        W35883  10.713  22.392   7.323 -0.2893 -0.1864 -0.1954
    1W        W35884  10.863  11.248   7.783 -0.0514 -0.1158  0.1916
    1W        W35885   5.989  28.727   9.182  0.3309 -0.1844 -0.0611
    1W        W35886   7.324  29.121   1.035  0.0691  0.0673 -0.1624
    1W        W35887  19.218  18.716   2.158 -0.0731 -0.1699  0.0627
    1W        W35888  25.526  26.219   0.096 -0.2419 -0.0677 -0.0203
    1W        W35889  19.056   3.081   9.419 -0.0509 -0.1729 -0.0535
    1W        W35890  22.478  18.216   8.333 -0.0867 -0.0680  0.0812
    1W        W35891  10.417  10.989   9.259 -0.1252 -0.2420  0.0225
    1W        W35892  22.087   5.469   0.477 -0.0428  0.0516  0.2752
    1W        W35893   4.082  24.969   2.213  0.1056 -0.2795 -0.1394
    1W        W35894   4.088  24.244   8.522  0.1464 -0.2075 -0.0131
    1W        W35895   4.766  16.917   2.213  0.1814 -0.0596 -0.1817
    1W        W35896   5.302  19.980   1.114  0.1562 -0.3165  0.0030
    1W        W35897  16.290  21.021   0.584  0.0237  0.2142 -0.0295
    1W        W35898   0.925   7.019   0.948 -0.1677  0.1273 -0.0599
    1W        W35899  22.642   9.817   8.928  0.1733  0.2008  0.0439
    1W        W35900   2.528  13.381   6.746 -0.1153  0.0550 -0.0513
    1W        W35901   7.021   8.865   0.622  0.0809  0.0025  0.0350
    1W        W35902   5.235  14.292   9.443  0.0129 -0.0130  0.0344
    1W        W35903  10.724  27.021   8.739 -0.0947 -0.1036  0.4263
    1W        W35904  19.743  26.343   8.633 -0.0003  0.1447  0.2204
    1W        W35905  21.849  20.874   7.327 -0.2004  0.0309  0.0717
    1W        W35906   8.609  12.485   0.444  0.0258  0.0461  0.1424
    1W        W35907  25.430  21.695   0.548  0.0450 -0.0202  0.1804
    1W        W35908   2.008  23.574   1.015 -0.2072 -0.4077  0.0050
    1W        W35909  26.576  14.139   8.237  0.0024 -0.0423  0.0633
    1W        W35910  20.175   0.279   7.988 -0.0550 -0.0493  0.0869
    1W        W35911   9.836   1.623   5.404  0.1078 -0.2851 -0.3291
    1W        W35912  16.396   9.463   7.206  0.1556  0.0667  0.2130
    1W        W35913  13.909  22.714   2.050 -0.0138  0.1011 -0.0747
    1W        W35914  28.532  29.091   0.287 -0.0060 -0.0970 -0.1847
    1W        W35915  25.177  16.939   0.086  0.0166  0.0500  0.1801
    1W        W35916  26.818  12.927   2.524 -0.2099  0.1503  0.0568
    1W        W35917  16.082  11.864   8.693  0.0552  0.2277 -0.1047
    1W        W35918  15.215  29.610   1.929 -0.2495 -0.1613  0.1398
    1W        W35919  20.855  19.543   9.550 -0.0076  0.0827  0.1421
    1W        W35920  17.481   5.463   0.496 -0.0702 -0.1216 -0.1522
    1W        W35921  11.632  26.565   0.286  0.0978 -0.0294  0.0444
    1W        W35922  21.217  26.274   9.286 -0.2086 -0.2701 -0.2058
    1W        W35923  20.265  26.856   2.032  0.1774 -0.0550 -0.1244
    1W        W35924  26.119   1.314   2.719  0.0166 -0.1780 -0.4726
    1W        W35925   4.596  13.476   1.082 -0.1040  0.2872 -0.0908
    1W        W35926  12.768   4.442   6.941 -0.1837  0.2575 -0.1508
    1W        W35927  25.611  23.698   0.543 -0.1135 -0.1322 -0.0457
    1W        W35928  29.330  16.634   8.013 -0.0407 -0.1945  0.0284
    1W        W35929  21.303  24.786   1.935 -0.4346  0.3277 -0.1196
    1W        W35930  19.776   8.911   2.073 -0.0386  0.1847  0.1794
    1W        W35931  27.458  28.269   3.680  0.0900  0.2946  0.1370
    1W        W35932  23.508  26.361   9.106 -0.0064 -0.0718 -0.1756
    1W        W35933   8.409  27.355   0.920  0.0395 -0.1224  0.4326
    1W        W35934   4.978  12.118   8.288  0.4022 -0.2728  0.1744
    1W        W35935  19.449   3.145   7.578 -0.0105 -0.0989 -0.2301
    1W        W35936  21.084   9.233   0.347  0.0718 -0.1113  0.3326
    1W        W35937  27.474  13.018   0.166 -0.0739 -0.3251  0.4214
    1W        W35938  25.097  21.600   9.206  0.0792 -0.0988  0.0204
    1W        W35939   1.686  17.444   9.098  0.0628 -0.4148  0.2378
    1W        W35940  20.877   9.246   8.393  0.0319  0.2326 -0.0386
    1W        W35941  28.815  21.632   1.217 -0.2027 -0.0099  0.2436
    1W        W35942   4.271  21.466   2.412  0.0173 -0.0915  0.2010
    1W        W35943  24.433  19.769   0.408  0.0552 -0.0025 -0.2224
    1W        W35944   1.663   6.091   0.717  0.1608  0.1174  0.0211
    1W        W35945  13.987  20.478   8.161 -0.1629 -0.2991 -0.2137
    1W        W35946   6.775  19.925   2.452  0.3693  0.2405  0.0152
    1W        W35947  19.615   8.412   2.205  0.0605  0.0876  0.0342
    1W        W35948  11.514  11.631   2.339  0.0084 -0.0404 -0.0435
    1W        W35949   9.159   7.105   0.258 -0.0827  0.1110  0.1626
    1W        W35950  19.867  22.353   1.703  0.0739 -0.3020  0.3085
    1W        W35951  11.335  18.778   7.046  0.1847  0.0189  0.0882
    1W        W35952  10.587   0.771   6.363  0.1353 -0.1766 -0.1348
    1W        W35953  23.365  19.078   8.160 -0.1179 -0.0305 -0.0853
    1W        W35954  17.703  12.779   7.954  0.2898  0.1991  0.2712
    1W        W35955  12.706   3.958   2.296 -0.2663 -0.1967 -0.0532
    1W        W35956  18.579  26.231   8.581 -0.0188 -0.5205  0.2172
    1W        W35957  17.697  22.982   6.969  0.1771  0.2764 -0.0846
    1W        W35958  24.570   7.321   1.627 -0.1558  0.2441  0.2254
    1W        W35959  15.859   0.136   8.646 -0.4944  0.0075 -0.0595
    1W        W35960  28.490   7.344   1.724  0.2444 -0.2485 -0.1672
    1W        W35961   9.899   5.468   7.127  0.0728  0.1048 -0.1612
    1W        W35962  16.994   4.531   7.129 -0.1912 -0.1084 -0.2322
    1W        W35963   0.253  21.824   9.421  0.0164 -0.0305 -0.1344
    1W        W35964   3.133  23.951   7.405  0.0964  0.1889 -0.1113
    1W        W35965  27.351  24.483   7.346  0.2856  0.2511 -0.0255
    1W        W35966  19.485   8.476   8.114  0.1038  0.2309 -0.1627
    1W        W35967  10.594  26.033   7.210 -0.0000 -0.1748 -0.1086
    1W        W35968  23.519  25.993   3.344  0.0063 -0.3212 -0.1925
    1W        W35969  15.702  12.261   8.789 -0.1614  0.2016  0.0310
    1W        W35970   8.476   1.975   8.593 -0.2829 -0.1571 -0.1709
    1W        W35971   7.721   3.266   0.616 -0.1344 -0.0637 -0.0218
    1W        W35972  25.744  20.900   8.625  0.3462  0.1682 -0.1448
    1W        W35973   2.087  11.592   1.606 -0.0273  0.4040  0.2210
    1W        W35974  20.834   2.254   6.830 -0.1329  0.1506  0.1155
    1W        W35975  17.589   0.915   2.758  0.0876  0.0436 -0.1646
    1W        W35976   6.727  25.817   0.779 -0.2413  0.1977 -0.0066
    1W        W35977  13.377  26.998   7.168 -0.0780  0.0109  0.0293
    1W        W35978  27.643   7.523   7.428 -0.2246 -0.1075  0.1829
    1W        W35979   8.540  27.089   7.720 -0.1808 -0.0550 -0.0512
    1W        W35980  10.462  10.451   2.333  0.2549 -0.0290  0.1365
    1W        W35981   7.991  26.651   7.602 -0.3136 -0.2198  0.2014
    1W        W35982   1.992  16.789   0.382  0.0379  0.3440 -0.1987
    1W        W35983  20.838  13.533   8.386 -0.1584  0.0782 -0.1275
    1W        W35984  28.677  12.416   0.083 -0.1822  0.2882  0.1493
    1W        W35985  16.467  14.984   8.404 -0.2158 -0.0329  0.1775
    1W        W35986   6.036   6.030   1.560 -0.0136 -0.2822  0.2883
    1W        W35987  15.500   6.167   6.361 -0.2642 -0.0721  0.0370
    1W        W35988   3.316  18.899   0.848  0.0026  0.0802 -0.1111
    1W        W35989   8.126  17.744   2.778 -0.0570 -0.3258 -0.0145
    1W        W35990  20.226  28.464   7.771 -0.0407 -0.0687 -0.2288
    1W        W35991  28.716   3.236   7.446  0.1605 -0.0254 -0.0257
    1W        W35992   1.690  20.638   7.789  0.0608 -0.0849 -0.3968
    1W        W35993  12.580  11.152   6.664 -0.2093 -0.1225 -0.0435
    1W        W35994   7.718   0.238   6.562  0.3059 -0.0087  0.1310
    1W        W35995   3.468  18.198   0.536  0.2868 -0.0191  0.1619
    1W        W35996  10.025   1.056   1.172  0.0379  0.0674 -0.1948
    1W        W35997   4.074   4.991   8.228  0.4014 -0.1981 -0.1941
    1W        W35998   7.091  11.640   9.267 -0.1047  0.0026  0.0404
    1W        W35999  20.476  16.756   2.854 -0.0035  0.3368 -0.0941
    1W        W36000  23.715   0.599   9.594  0.0209  0.1148 -0.1160
    1W        W36001  13.048  10.439   6.983 -0.0847 -0.1909  0.2259
    1W        W36002  23.433  28.739   9.317 -0.0397  0.1039  0.0084
    1W        W36003  19.125  12.088   1.976  0.3912  0.1705 -0.0014
    1W        W36004  29.557  10.546   9.279 -0.2155  0.1813 -0.1622
    1W        W36005   8.353  23.731   2.009  0.1271 -0.0264 -0.1178
    1W        W36006  16.820  15.584   0.253 -0.1300  0.1159 -0.2115
    1W        W36007  14.015  26.907   7.449 -0.3064  0.1974  0.0271
    1W        W36008   0.257   3.707   6.892  0.0886 -0.1032 -0.1520
    1W        W36009  24.321   2.947   0.600  0.0200  0.0606 -0.0498
    1W        W36010  23.338   3.725   7.470  0.0171 -0.1525 -0.0374
    1W        W36011  28.990  27.722   7.373 -0.1038  0.0516  0.0502
    1W        W36012   6.928  29.379   0.256 -0.2885  0.3867  0.0311
    1W        W36013  26.709  12.388   1.831  0.1069  0.4159 -0.2089
    1W        W36014  23.025  28.780   1.096  0.1619  0.1879 -0.1746
    1W        W36015  16.411   7.909   1.595 -0.1219  0.3865 -0.2646
    1W        W36016   7.278  18.461   1.760 -0.0424 -0.0004 -0.0053
    1W        W36017  22.803   7.195   8.718  0.3118  0.0590  0.1678
    1W        W36018  16.355  29.595   9.609 -0.0860 -0.2095 -0.1981
    1W        W36019  13.758  14.884   6.753 -0.0289  0.0169  0.1427
    1W        W36020  28.012   4.705   7.803  0.2520 -0.1092 -0.0067
    1W        W36021  20.436  13.005   2.080  0.2127 -0.2238 -0.0989
    1W        W36022  18.456  20.017   0.957  0.1058  0.0536 -0.0658
    1W        W36023   2.268  27.809   6.605  0.3986 -0.1866 -0.0728
    1W        W36024  10.291  18.505   2.145 -0.0127 -0.0713  0.1624
    1W        W36025  21.038   1.196   3.836  0.1737 -0.1639 -0.0661
    1W        W36026   3.397  22.593   1.408 -0.2968  0.1041 -0.0121
    1W        W36027   9.991  22.204   9.593  0.0797  0.2981 -0.1667
    1W        W36028  16.606  17.266   7.732 -0.0692 -0.0767  0.0019
    1W        W36029   1.361  11.665   1.922  0.0235  0.2603 -0.1839
    1W        W36030  27.003  19.428   1.634  0.1671 -0.1186  0.0285
    1W        W36031  14.456  10.163   2.524 -0.1745 -0.2447 -0.4131
    1W        W36032   5.925  12.920   1.112 -0.0455  0.0871  0.0746
    1W        W36033   9.925   4.187   0.051  0.1342 -0.0665 -0.0716
    1W        W36034  23.025  28.307   0.905  0.4923  0.1632 -0.2732
    1W        W36035   0.437  16.632   9.613  0.2308  0.4221 -0.2030
    1W        W36036   3.267  27.722   7.852 -0.1614  0.0321  0.0424
    1W        W36037  18.624  28.406   7.848  0.0138  0.2056  0.1846
    1W        W36038  13.883   7.752   0.115  0.3471  0.1741  0.1141
    1W        W36039  17.401  14.447   8.892 -0.0498  0.2614 -0.1195
    1W        W36040  18.094  26.047   8.705  0.1227  0.1892  0.1543
    1W        W36041   2.128  19.016   1.881  0.2502  0.2730 -0.0088
    1W        W36042   9.133   8.313   7.126 -0.1061 -0.1279  0.1549
    1W        W36043   2.139  26.070   1.143 -0.1686  0.0178 -0.1119
    1W        W36044   7.882  17.165   1.905 -0.0932 -0.3624 -0.0367
    1W        W36045  29.043  13.689   9.098  0.0619 -0.0776  0.2198
    1W        W36046  21.822  23.848   3.703  0.1945 -0.0278 -0.3453
    1W        W36047   9.158   5.189   9.282  0.1992 -0.3326 -0.0009
    1W        W36048  26.187   4.417   5.999  0.1470 -0.0383 -0.2199
    1W        W36049   3.521  12.994   1.263 -0.0168 -0.1007  0.4310
    1W        W36050  25.587  26.819   8.334 -0.1610  0.1179 -0.0800
    1W        W36051  11.362  14.479   7.546  0.0951 -0.3201 -0.0020
    1W        W36052   6.003   2.689   7.134  0.2163  0.0172  0.3246
    1W        W36053  16.319   4.472   2.029  0.0775 -0.1234  0.0517
    1W        W36054  11.805   2.834   7.762  0.2419  0.2636  0.1083
    1W        W36055  20.121  18.873   7.969  0.0792 -0.1059  0.3951
    1W        W36056  15.419  26.822   0.845  0.0256  0.2159 -0.2017
    1W        W36057  26.772   1.367   1.310 -0.0310 -0.1620  0.1660
    1W        W36058  24.750   7.265   0.105 -0.1956  0.4391  0.1039
    1W        W36059   8.771  24.769   1.917  0.0143 -0.2723 -0.0695
    1W        W36060  20.506  18.479   2.536  0.0764 -0.2958  0.2776
    1W        W36061   9.361  25.428   8.539  0.0375  0.2272 -0.1522
    1W        W36062  28.289  27.940   2.736  0.2182 -0.0809  0.0554
    1W        W36063  14.693  26.084   7.509  0.1388 -0.1869 -0.2440
    1W        W36064  26.388  21.517   9.442  0.0605 -0.2700  0.0748
    1W        W36065   9.670   9.974   7.538  0.0107  0.0354  0.3172
    1W        W36066  17.880  20.399   7.647 -0.3389 -0.0350 -0.1595
    1W        W36067  15.635  19.152   6.749 -0.0658 -0.3711 -0.0779
    1W        W36068  26.585  15.964   9.163 -0.1120  0.2017 -0.3017
    1W        W36069   2.553  25.775   1.066  0.0917 -0.0298 -0.2477
    1W        W36070   9.853  29.134   1.838 -0.0132 -0.0005  0.0930
    1W        W36071  29.239  26.423   8.168  0.2648 -0.0704 -0.0239
    1W        W36072  27.777   9.100   0.306 -0.0685 -0.2061 -0.2058
    1W        W36073  17.479  20.711   7.383 -0.0060 -0.0082 -0.1882
    1W        W36074   5.274  26.696   0.470  0.0935  0.2114  0.1531
    1W        W36075  10.240   8.207   1.970 -0.1343 -0.0986 -0.0018
    1W        W36076   1.212  24.963   8.103 -0.3001 -0.1494  0.0518
    1W        W36077   1.099   4.020   6.926  0.3392  0.1362  0.1496
    1W        W36078   0.422  26.062   0.808 -0.0749 -0.0551  0.1071
    1W        W36079   7.624  21.436   9.310  0.1192 -0.1824  0.0007
    1W        W36080   3.411  24.340   7.554 -0.1947  0.0268 -0.0410
    1W        W36081  28.124   9.127   8.319 -0.0326 -0.2218  0.0205
    1W        W36082  21.866   4.345   8.689 -0.2039 -0.2794  0.3251
    1W        W36083  27.599  29.306   2.355 -0.0345 -0.2643  0.0444
    1W        W36084  25.952  14.235   7.959  0.1726  0.3082 -0.1481
    1W        W36085   1.577  22.930   2.191 -0.0484 -0.0225  0.0156
    1W        W36086  24.939  21.270   2.741 -0.2040 -0.1596 -0.2722
    1W        W36087  13.149   0.493   2.022  0.0889 -0.2695  0.0635
    1W        W36088  14.554   8.858   7.101 -0.0872  0.2375  0.1630
    1W        W36089  23.143   8.125   1.004 -0.3456 -0.1868 -0.1198
    1W        W36090   3.842  26.712   8.606 -0.2087  0.0296 -0.0147
    1W        W36091  21.794   0.730   8.959 -0.1615  0.1034  0.3427
    1W        W36092  10.464  29.054   2.591 -0.1520 -0.2971 -0.1147
    1W        W36093   5.348   0.908   8.849 -0.1820 -0.1661 -0.1873
    1W        W36094  12.995   3.994   9.491  0.0524 -0.0644 -0.0534
    1W        W36095  12.691  20.368   7.548  0.2425 -0.1295  0.1491
    1W        W36096   2.436   1.920   9.381 -0.0507  0.2355 -0.3005
    1W        W36097  16.864   8.105   8.288 -0.0420  0.0650 -0.0121
    1W        W36098  11.941   5.055   2.656 -0.1219 -0.3236  0.0461
    1W        W36099  10.932  21.627   0.673  0.0718  0.3239  0.3246
    1W        W36100  22.573  11.697   0.708 -0.0030 -0.3430 -0.0498
    1W        W36101  18.770   2.752   7.447  0.0196 -0.0989  0.2180
    1W        W36102  22.392  17.536   1.498 -0.3560  0.0176 -0.1615
    1W        W36103  12.636  26.987   8.685  0.4101 -0.1546 -0.1163
    1W        W36104  14.058  10.784   8.687 -0.0762  0.2326  0.3726
    1W        W36105   1.344  19.046   2.468 -0.0687  0.1149  0.2364
    1W        W36106  10.098  22.035   0.472  0.0971 -0.2855 -0.0953
    1W        W36107  28.819   5.852   6.982 -0.0418 -0.2370  0.0437
    1W        W36108  27.886  11.187   9.346 -0.3132  0.3913 -0.1026
    1W        W36109  12.335  24.302   1.166 -0.0458  0.0922  0.0289
    1W        W36110   1.904   7.935   7.749 -0.1972  0.2922  0.1712
    1W        W36111   3.600  18.090   8.534  0.1053  0.3541  0.1503
    1W        W36112   1.463  12.697   8.295  0.0593  0.0025  0.1124
    1W        W36113  12.215  10.164   0.244  0.3365 -0.0769  0.1236
    1W        W36114  12.082  15.046   7.115 -0.1074 -0.0339  0.2441
    1W        W36115   7.803   2.085   9.076 -0.2895 -0.0692 -0.0036
    1W        W36116  19.355   9.691   7.581  0.0281  0.1692 -0.0659
    1W        W36117  22.193   9.429   9.052  0.3377  0.2460  0.2540
    1W        W36118  27.569   3.787   8.018  0.1443 -0.1672 -0.2162
    1W        W36119   4.394   3.081   3.042  0.1092 -0.2681  0.1796
    1W        W36120  25.349  21.665   6.789 -0.1791  0.1714 -0.0551
    1W        W36121   6.408  13.922   0.177 -0.0962  0.4487 -0.0138
    1W        W36122   2.158   4.876   8.847 -0.2448 -0.1853 -0.4319
    1W        W36123   9.507   3.380   6.071  0.1304  0.0133  0.3192
    1W        W36124  26.708  26.180   0.874 -0.0894  0.0479 -0.2749
    1W        W36125   7.025  23.047   1.026  0.1389 -0.1280  0.0650
    1W        W36126  15.973  26.659   0.536  0.3233 -0.0115 -0.1075
    1W        W36127  17.911  27.807   2.096  0.0294  0.1305 -0.2381
    1W        W36128   9.258   9.643   2.405  0.0384  0.0324  0.1504
    1W        W36129  28.992  18.856   2.574  0.0494 -0.2806 -0.0523
    1W        W36130   2.740  19.147   2.593  0.0052  0.0039  0.1168
    1W        W36131  19.708  13.000   8.567 -0.2771  0.0595 -0.1483
    1W        W36132   4.295  17.307   9.425  0.1004 -0.2051  0.1200
    1W        W36133  11.595  16.329   8.484  0.2058  0.2071  0.0599
    1W        W36134   3.696  16.383   1.405  0.1443 -0.1723 -0.0990
    1W        W36135  29.073   5.183   9.193 -0.1794 -0.0452  0.0768
    1W        W36136  21.386  16.665   0.448 -0.0850 -0.1810  0.1077
    1W        W36137  25.091  24.108   8.060 -0.0374  0.1530 -0.3490
    1W        W36138  28.788  17.076   7.270 -0.0141 -0.0245  0.0345
    1W        W36139  10.628  17.586   2.330  0.0264 -0.1243  0.0031
    1W        W36140  29.508  16.101   7.875  0.0521 -0.0424 -0.1359
    1W        W36141  15.793  21.864   1.636  0.1407 -0.1968 -0.1613
    1W        W36142   3.184   2.911   8.837  0.1440  0.0493 -0.0313
    1W        W36143   2.266  12.281   6.046 -0.0594  0.0107  0.0665
    1W        W36144  29.173   6.609   1.343  0.0375 -0.0872  0.1035
    1W        W36145  16.625   4.154   2.608  0.1850  0.2188  0.0730
    1W        W36146  13.763   7.044   1.648  0.0244  0.0279  0.0242
    1W        W36147  17.059  12.686   7.527 -0.1589 -0.4127 -0.1153
    1W        W36148  26.791  18.353   7.527 -0.0021 -0.2869  0.0396
    1W        W36149  14.210  22.751   8.347 -0.0825 -0.3420 -0.0580
    1W        W36150  22.709  23.852   9.286  0.1448  0.0069  0.1685
    1W        W36151  23.691   6.877   8.092  0.5349  0.0993 -0.0595
    1W        W36152  19.622  23.556   8.514 -0.2273  0.3236 -0.0479
    1W        W36153  26.781  25.553   8.849 -0.1355  0.1016 -0.0557
    1W        W36154  13.317  19.123   1.937 -0.0771  0.0561  0.1717
    1W        W36155  21.862  15.796   0.931  0.0653 -0.2157  0.3811
    1W        W36156   6.422   2.166   1.536 -0.1679  0.2162  0.1719
    1W        W36157  26.407  24.816   1.840 -0.2539  0.0235 -0.2885
    1W        W36158  19.370   1.408   3.132  0.1150  0.0793  0.0411
    1W        W36159   1.820  19.324   1.024 -0.0278  0.1879  0.0600
    1W        W36160  27.138  24.151   1.085 -0.2051 -0.2400 -0.0079
    1W        W36161   0.635  19.103   7.961  0.1744  0.0233  0.1544
    1W        W36162  25.007  14.572   8.153  0.2456  0.0260  0.2154
    1W        W36163  16.553  15.799   8.790  0.0884 -0.0910  0.2004
    1W        W36164   6.594  17.092   6.418  0.1167  0.1453 -0.0140
    1W        W36165   9.445  27.481   8.653  0.0054 -0.0987 -0.0385
    1W        W36166  27.829  20.185   7.092 -0.0524 -0.1872  0.1289
    1W        W36167   4.900  18.377   2.986 -0.4585  0.0598 -0.0973
    1W        W36168   8.936  13.554   0.185  0.0646  0.1022 -0.2329
    1W        W36169   7.912   3.214   1.078 -0.3621  0.3218  0.0294
    1W        W36170   7.398  22.249   0.617 -0.2181 -0.1112  0.1408
    1W        W36171   9.283  13.758   8.737  0.2584 -0.0344 -0.0824
    1W        W36172  20.814  12.907   2.344 -0.0355  0.4021 -0.0835
    1W        W36173  23.810  29.323   2.799 -0.1425  0.0810  0.1063
    1W        W36174  15.501  27.034   6.411  0.2056  0.1313  0.2697
    1W        W36175  26.613  25.878   0.463 -0.0644  0.1077  0.0136
    1W        W36176   0.764  17.812   7.610 -0.2698 -0.1110 -0.1198
    1W        W36177  17.131  26.100   7.838  0.0961  0.0270  0.2141
    1W        W36178   3.913  11.288   8.596  0.0848  0.2261  0.4352
    1W        W36179  23.413  21.872   2.047 -0.1851  0.0121  0.1072
    1W        W36180  18.319  17.139   9.126 -0.2001 -0.1340  0.1199
    1W        W36181  23.699  17.664   3.073 -0.0530 -0.1040  0.0999
    1W        W36182  18.892  22.790   9.339  0.3402 -0.1579 -0.0834
    1W        W36183  10.193   5.947   2.263 -0.2142 -0.0707  0.0416
    1W        W36184  23.468   9.760   7.809  0.2285 -0.1718  0.1565
    1W        W36185   3.270   0.038   0.803 -0.0245  0.1793 -0.0618
    1W        W36186  12.658   3.736   1.745  0.2723 -0.2222  0.3300
    1W        W36187   0.161  22.242   8.257  0.0134  0.0752  0.0645
    1W        W36188   7.632   2.407   1.381 -0.2533 -0.2863 -0.1811
    1W        W36189  10.517   5.318   0.300 -0.0667 -0.0670  0.0962
    1W        W36190  25.716  29.184   7.158 -0.0807  0.0180 -0.3715
    1W        W36191  19.209   0.205   1.808  0.0902 -0.0785  0.2241
    1W        W36192   5.290  11.274   8.501  0.2170  0.3685 -0.0895
    1W        W36193   3.877  25.729   0.834  0.0087  0.1047 -0.1138
    1W        W36194   1.292   7.171   0.197  0.0586 -0.2546 -0.1244
    1W        W36195  14.648  29.131   7.541 -0.0142 -0.2331  0.3007
    1W        W36196   3.863  17.420   0.006  0.1734  0.0933 -0.1712
    1W        W36197  14.686  24.046   1.093 -0.0956 -0.2008 -0.2454
    1W        W36198   6.686  17.612   8.528  0.1320  0.0472 -0.1226
    1W        W36199  20.155  17.944   1.768 -0.0302  0.0075 -0.1158
    1W        W36200  13.406  26.613   7.461  0.2578 -0.2822 -0.0643
    1W        W36201  10.956   2.782   7.304 -0.0704 -0.0462 -0.1390
    1W        W36202  18.936  22.217   8.974 -0.1496  0.1313 -0.0535
    1W        W36203  22.774   5.304   7.794 -0.0436 -0.2700 -0.0951
    1W        W36204  17.386  24.167   2.483  0.2772 -0.0984  0.2445
    1W        W36205  15.736   8.247   1.751 -0.1303  0.0353 -0.0290
    1W        W36206  13.787   2.544   8.368 -0.3085 -0.2719 -0.1460
    1W        W36207   8.121   1.584   8.863  0.0876 -0.1319  0.2124
    1W        W36208   9.730  20.241   8.127  0.0170  0.0804  0.1223
    1W        W36209   1.662  18.754   2.109 -0.2579 -0.0162  0.4367
    1W        W36210   7.357  14.487   1.690  0.1219 -0.3492 -0.0109
    1W        W36211  11.461   1.551   2.148 -0.1251  0.0512  0.0138
    1W        W36212  12.938  17.437   7.667  0.4492  0.3138  0.1107
    1W        W36213   4.559   4.442   6.649  0.2342 -0.2346  0.3961
    1W        W36214  11.219   9.716   1.726  0.2003  0.3880  0.1509
    1W        W36215   1.072  15.583   2.133  0.2617  0.0247  0.0531
    1W        W36216  11.941  14.242   2.108  0.1907  0.0562 -0.0116
    1W        W36217  28.082  18.513   0.060 -0.1549 -0.2779  0.1596
    1W        W36218  28.309   0.341   7.499 -0.1888 -0.0019 -0.1916
    1W        W36219  14.528  12.353   6.587 -0.0002 -0.0358  0.0540
    1W        W36220  10.227  18.501   0.517 -0.0166  0.0793 -0.1523
    1W        W36221  17.022  18.439   9.130  0.3132  0.1142  0.2562
    1W        W36222   7.555  27.657   8.803  0.1668  0.0264  0.2671
    1W        W36223  28.529  13.086   7.568  0.4366  0.3845  0.1326
    1W        W36224  29.490  22.868   3.092  0.0813 -0.3162 -0.0200
    1W        W36225  18.685  21.956   8.144 -0.0928 -0.0622 -0.0190
    1W        W36226  19.777   9.307   0.162  0.0702 -0.2672 -0.1362
    1W        W36227  26.536   3.843   8.259 -0.2188 -0.1640  0.0353
    1W        W36228  13.398  11.899   6.430  0.0834 -0.0334  0.2441
    1W        W36229  20.280  16.058   9.054  0.3733  0.0639 -0.4283
    1W        W36230   9.108  16.806   0.922  0.0690  0.3718 -0.1042
    1W        W36231   9.692  14.948   8.048 -0.1357  0.2851 -0.0371
    1W        W36232  19.786  25.063   2.367  0.1486 -0.0092  0.1745
    1W        W36233  14.160   0.636   0.496 -0.3892  0.3070  0.3765
    1W        W36234  26.748  27.731   8.500 -0.3231 -0.1750 -0.1074
    1W        W36235  21.932  21.324   7.033  0.1226 -0.0861  0.0811
    1W        W36236  14.063  19.932   0.089 -0.0864  0.1225 -0.1832
    1W        W36237  25.301  20.574   2.611 -0.2122  0.1881  0.2893
    1W        W36238   9.143  20.187   7.198 -0.2087  0.1201 -0.1298
    1W        W36239   2.528  19.299   1.821  0.1824  0.2195 -0.1439
    1W        W36240  15.454   6.880   6.500 -0.1439 -0.0811  0.2048
    1W        W36241  11.910  15.165   8.010  0.1603 -0.0308  0.0269
    1W        W36242  14.804   0.743   8.530  0.0846  0.0911  0.2781
    1W        W36243   9.013  26.261   5.836 -0.0492  0.0210  0.4060
    1W        W36244   7.646  28.385   1.795  0.1576  0.1021 -0.2946
    1W        W36245  17.344   6.989   7.794  0.2076  0.1773  0.0466
    1W        W36246  17.087  14.049   8.106  0.1470  0.1107 -0.3386
    1W        W36247  21.144  10.148   7.882 -0.1829 -0.0309 -0.1646
    1W        W36248   8.875  28.333   8.622  0.0820 -0.1073 -0.1945
    1W        W36249   2.541   1.462   9.602  0.1715  0.2662  0.1521
    1W        W36250  23.674  23.357   3.524  0.1224  0.0368  0.0716
    1W        W36251  22.699   4.976   6.847 -0.0846 -0.0220 -0.1230
    1W        W36252  13.698   4.362   1.628 -0.0604 -0.0163  0.0387
    1W        W36253   6.608  11.511   7.172  0.1021 -0.0579 -0.1163
    1W        W36254  29.142   2.370   9.312  0.1024 -0.2585 -0.1024
    1W        W36255  19.828   7.392   2.107 -0.3125 -0.3398 -0.0658
    1W        W36256  28.271  16.113   9.452 -0.1513 -0.0497 -0.2331
    1W        W36257  19.863  28.259   3.954 -0.2933 -0.3741 -0.1991
    1W        W36258  21.637  19.436   1.047  0.0341  0.1840 -0.2554
    1W        W36259  19.555  11.254   8.871  0.1623 -0.2064  0.0015
    1W        W36260  10.493   7.121   1.759 -0.1964 -0.0193  0.0299
    1W        W36261  26.254  15.086   1.502  0.0566 -0.0150  0.1556
    1W        W36262  18.844  23.006   2.060  0.1556  0.1547  0.1524
    1W        W36263  25.672  26.847   2.339  0.1162  0.2796  0.0222
    1W        W36264  14.212   6.068   1.212  0.1412  0.1810 -0.1350
    1W        W36265  21.343   6.059   9.432 -0.0419 -0.1403 -0.0969
    1W        W36266   7.084   5.319   1.813  0.2873  0.0456  0.2879
    1W        W36267  20.793   0.021   2.570 -0.0743 -0.1722 -0.0003
    1W        W36268   4.179  17.665   1.494  0.0717  0.0908  0.2757
    1W        W36269   1.298  18.826   1.612 -0.0956 -0.0978  0.2739
    1W        W36270   6.542  17.063   9.527 -0.3993  0.0338 -0.2092
    1W        W36271   3.667   0.743   8.778 -0.1529 -0.3469  0.2480
    1W        W36272  15.359  24.928   7.008 -0.2175 -0.0554 -0.1654
    1W        W36273  28.166  22.572   3.693  0.0668 -0.1263  0.0207
    1W        W36274  19.971  15.334   8.973 -0.0591 -0.2288  0.1898
    1W        W36275  11.758  27.249   7.194  0.0121 -0.0266 -0.1733
    1W        W36276  16.503   2.318   0.167 -0.0257 -0.2664 -0.0126
    1W        W36277   1.769  21.550   8.595 -0.0532 -0.3642 -0.1645
    1W        W36278   1.473   0.463   7.957  0.0771  0.1804  0.2083
    1W        W36279  22.143  24.532   1.523  0.1362 -0.2190  0.0998
    1W        W36280  22.933  27.871   2.433  0.0688 -0.2693  0.0010
    1W        W36281  27.578  28.765   8.605  0.0497  0.0314 -0.3424
    1W        W36282  12.802  15.639   7.380  0.2396 -0.1504  0.1976
    1W        W36283  29.095  11.663   0.208 -0.0763 -0.2312  0.1512
    1W        W36284   5.276  24.807   7.560 -0.2611 -0.0708 -0.1707
    1W        W36285   8.678  22.538   1.376 -0.0593  0.2353 -0.1127
    1W        W36286  26.233  23.196   2.872 -0.1438  0.0496  0.1847
    1W        W36287  27.413  27.625   1.900 -0.1892  0.1633  0.1618
    1W        W36288   3.987  19.204   9.051  0.4699  0.1122  0.2322
    1W        W36289  21.278   0.046   0.550 -0.2730  0.0579  0.2658
    1W        W36290  23.511  20.870   2.429 -0.4552  0.0155  0.3101
    1W        W36291   8.761  19.627   1.964 -0.0272 -0.1859 -0.1261
    1W        W36292  20.359  12.764   0.218 -0.0609  0.0162  0.1987
    1W        W36293  25.548  22.710   3.124 -0.1203 -0.0019 -0.0826
    1W        W36294   1.238  14.615   9.295  0.0093  0.0058 -0.0885
    1W        W36295  14.260   7.973   9.559  0.0461  0.1710  0.0101
    1W        W36296   0.262  20.513   7.749 -0.1672 -0.1578 -0.2846
    1W        W36297  27.751   6.923   1.159 -0.2912 -0.2231  0.1578
    1W        W36298   2.034  18.167   1.317  0.3934  0.0276 -0.2696
    1W        W36299   0.968   2.684   8.788  0.3058  0.1418 -0.1255
    1W        W36300   4.218   8.064   9.607 -0.0916 -0.1922 -0.0191
    1W        W36301  17.491   9.864   8.791  0.0559 -0.0688 -0.2097
    1W        W36302   4.571  15.251   8.549  0.0692  0.0432  0.4329
    1W        W36303  24.523  18.290   2.234 -0.0365 -0.3414 -0.1472
    1W        W36304   4.784   6.469   6.959 -0.1265 -0.2463 -0.1381
    1W        W36305   7.671  18.587   2.875 -0.0823 -0.0925 -0.3559
    1W        W36306  17.730   5.123   8.656 -0.5637 -0.2062 -0.3351
    1W        W36307  24.064  28.985   3.545 -0.2015 -0.2201 -0.0611
    1W        W36308   5.588  12.338   1.281 -0.0276  0.2641  0.0268
    1W        W36309  15.432   7.178   9.518 -0.0727 -0.2731 -0.4037
    1W        W36310  13.546  23.752   6.901 -0.3080  0.0763  0.3008
    1W        W36311  15.064   8.612   0.116  0.3885 -0.0618  0.0100
    1W        W36312  21.874  12.456   2.189  0.1068  0.1710 -0.2870
    1W        W36313  23.198  25.701   2.565 -0.0327 -0.0696 -0.0547
    1W        W36314  20.960  10.847   9.080  0.1455  0.1950  0.0980
    1W        W36315  18.283  14.694   8.840  0.0078 -0.1988  0.3454
    1W        W36316  28.217  20.107   9.125 -0.2245 -0.1156 -0.1310
    1W        W36317   9.646  13.686   1.617 -0.1776 -0.1489 -0.0252
    1W        W36318   2.262  29.192   0.463 -0.0033 -0.1344  0.1507
    1W        W36319  19.464   9.927   9.094  0.1719  0.1678  0.2007
    1W        W36320  23.015  15.212   1.102  0.0464  0.0666  0.0810
    1W        W36321  27.038  25.648   0.902 -0.0087  0.0293 -0.0500
    1W        W36322   3.295  13.884   1.877  0.1379  0.1061 -0.0439
    1W        W36323   6.553  29.231   0.672 -0.0095  0.0120 -0.1020
    1W        W36324   8.346   5.591   8.235 -0.2451  0.0284 -0.1248
    1W        W36325  20.749   0.807   0.398  0.1731 -0.1468  0.0806
    1W        W36326   6.637  20.934   0.369 -0.1279  0.0257  0.1863
    1W        W36327  12.991  11.964   6.852 -0.1226  0.0643 -0.0980
    1W        W36328  22.092  28.090   8.980 -0.0939 -0.1074  0.2518
    1W        W36329   0.053   4.733   8.011 -0.0121 -0.1266 -0.1262
    1W        W36330  23.373  24.586   1.045  0.1628 -0.0609 -0.1816
    1W        W36331   9.357  17.569   8.473  0.3286 -0.0085  0.0079
    1W        W36332  27.648   8.942   8.205  0.0985 -0.0003  0.0822
    1W        W36333  21.035  23.655   2.869 -0.0809  0.2578 -0.0993
    1W        W36334  23.468  29.548   0.255 -0.2574 -0.2684  0.3650
    1W        W36335  15.111   7.929   8.314 -0.1776  0.0803  0.0149
    1W        W36336   1.341  26.184   1.590  0.1895  0.2482 -0.1804
    1W        W36337  10.148   3.144   0.361  0.0630 -0.2481 -0.1549
    1W        W36338  23.475  12.405   8.331 -0.1125  0.0264 -0.2195
    1W        W36339  16.567   9.661   9.035 -0.0187 -0.0865 -0.0798
    1W        W36340   3.256  15.481   0.446 -0.2828 -0.1297  0.0563
    1W        W36341   7.072  29.508   0.801 -0.0701  0.2797  0.1258
    1W        W36342   3.798  23.769   0.832  0.0806 -0.3815 -0.1641
    1W        W36343  25.701   0.084   1.788  0.1475  0.1284  0.3030
    1W        W36344   3.935  11.852   9.392  0.3609  0.1388 -0.2775
    1W        W36345  15.393  15.497   1.665  0.1727  0.1698  0.0252
    1W        W36346  26.808  10.823   1.155  0.0815  0.1618 -0.2111
    1W        W36347  23.593   4.845   2.483  0.0193 -0.0222  0.0876
    1W        W36348  28.548  28.017   8.862 -0.0232 -0.1863  0.2624
    1W        W36349  26.036   3.565   2.748  0.1455 -0.0868  0.3287
    1W        W36350   9.460  23.186   0.073  0.0857 -0.2088 -0.5330
    1W        W36351  10.462   1.055   1.423  0.1113 -0.2310 -0.2613
    1W        W36352   5.523   8.714   9.197 -0.0992  0.0159  0.0288
    1W        W36353  19.072  20.593   1.588 -0.1489 -0.0280 -0.0174
    1W        W36354  24.807  12.602   2.574  0.0951  0.1036 -0.2381
    1W        W36355  27.031  25.699   7.969 -0.2225 -0.6450 -0.3252
    1W        W36356  25.293  26.772   0.780 -0.0778  0.1028 -0.3498
    1W        W36357  17.520  23.469   6.762  0.1473  0.1330  0.2232
    1W        W36358  21.127  19.660   0.915  0.1622  0.5149  0.2053
    1W        W36359  28.564  16.549   7.484  0.0533 -0.3241  0.1814
    1W        W36360  23.363  23.276   0.525  0.0570 -0.1151 -0.3603
    1W        W36361  28.460  25.743   9.487  0.0800  0.0702 -0.0726
    1W        W36362  12.733  18.162   6.375  0.0587  0.2339 -0.0424
    1W        W36363  16.735  16.559   7.033  0.0732 -0.0762  0.0876
    1W        W36364   7.320  11.320   8.899 -0.0140 -0.3314 -0.0911
    1W        W36365  15.612   1.645   9.496  0.1653 -0.1215 -0.0612
    1W        W36366  26.459   2.253   0.217  0.1537 -0.1697 -0.1556
    1W        W36367  15.832   6.785   8.515  0.1349 -0.2780 -0.1499
    1W        W36368   4.483   7.762   1.566 -0.2014  0.1958 -0.1012
    1W        W36369  13.593  29.524   6.720 -0.0819 -0.1610  0.2855
    1W        W36370  24.965   6.524   1.874  0.1374  0.0865  0.2813
    1W        W36371  16.763  25.106   8.269 -0.4909 -0.4987 -0.3480
    1W        W36372   0.540   4.203   1.064  0.1532 -0.1535  0.0239
    1W        W36373   1.793  28.467   2.055 -0.1539  0.1458 -0.0194
    1W        W36374  20.097  11.495   2.337  0.0389 -0.0938  0.0171
    1W        W36375  28.867  16.018   1.952  0.3390 -0.0180 -0.1692
    1W        W36376  22.210   5.857   7.655 -0.0434  0.0017  0.3226
    1W        W36377   2.614  26.802   3.504 -0.2526  0.3852 -0.3487
    1W        W36378  22.991  24.577   7.172  0.0364  0.1237  0.1394
    1W        W36379   7.745  21.417   0.756  0.1229  0.0770 -0.1467
    1W        W36380   9.739  22.870   7.299  0.0356  0.1759 -0.0800
    1W        W36381  20.350   4.876   9.186 -0.3165 -0.2678  0.1057
    1W        W36382   9.320  11.055   1.194  0.0262 -0.1517 -0.0263
    1W        W36383  12.221  16.821   1.320 -0.1429 -0.1194 -0.1898
    1W        W36384  13.171   4.293   1.531 -0.0496 -0.1245  0.0393
    1W        W36385  16.135  12.382   8.435  0.1139  0.0254  0.1167
    1W        W36386  16.234  28.757   7.847  0.0918 -0.1396 -0.0290
    1W        W36387   7.987  13.898   8.603  0.0252  0.0608 -0.1599
    1W        W36388   7.922   4.875   1.837 -0.3627  0.2647 -0.0978
    1W        W36389  12.854  18.712   6.532 -0.2329 -0.0935 -0.1583
    1W        W36390  12.281  18.603   7.477  0.2474 -0.3909  0.1808
    1W        W36391  13.544  17.310   2.077  0.2870  0.3575  0.0013
    1W        W36392   1.880  15.286   7.716  0.1734 -0.1276 -0.0650
    1W        W36393  12.301   4.217   7.751 -0.0968 -0.2351 -0.0688
    1W        W36394  26.110   0.322   8.378  0.1463  0.0693  0.1921
    1W        W36395   3.889  15.090   2.419 -0.1236  0.2107 -0.2700
    1W        W36396   7.975  25.473   8.755 -0.1323 -0.0511  0.3817
    1W        W36397   9.071  10.200   9.355 -0.1369 -0.1057 -0.0278
    1W        W36398  17.619   9.887   6.721  0.0398 -0.0996  0.1400
    1W        W36399  21.197   0.871   1.381  0.2707  0.0539 -0.1545
    1W        W36400   8.655  27.037   8.985 -0.0001  0.2902  0.0498
    1W        W36401   8.672  26.535   0.381  0.0748 -0.2946  0.0178
    1W        W36402  14.823  25.202   8.429  0.0917 -0.0525  0.1000
    1W        W36403  20.127  15.560   2.498 -0.1202  0.2092 -0.1923
    1W        W36404   7.294  27.448   7.914  0.1203 -0.0845  0.1916
    1W        W36405  15.056  19.449   0.906 -0.3025 -0.3233  0.1795
    1W        W36406  23.673   2.166   1.671 -0.2673  0.0777  0.0123
    1W        W36407   1.267   8.175   0.337 -0.0843 -0.0572 -0.0829
    1W        W36408   6.272  26.171   7.929  0.2742 -0.0870  0.0785
    1W        W36409   4.602  26.032   1.249 -0.0931  0.2615  0.1464
    1W        W36410  16.337  27.414   9.612 -0.1273  0.0394  0.0893
    1W        W36411   7.297   3.971   8.147  0.1307  0.2186  0.1354
    1W        W36412  17.833   6.434   8.634 -0.1341  0.0411 -0.1904
    1W        W36413   8.817   1.759   2.605  0.4336  0.3218 -0.0532
    1W        W36414   2.130  23.498   2.009  0.3005 -0.1636  0.1055
    1W        W36415   9.436  27.968   6.206  0.2141 -0.0819  0.1474
    1W        W36416  13.436   5.362   8.425 -0.0623  0.4213  0.0059
    1W        W36417  20.141  26.235   2.265  0.1546  0.0270  0.1625
    1W        W36418   7.327  20.663   0.775  0.0354 -0.1912  0.2170
    1W        W36419   0.156  27.895   8.471  0.3211  0.1296  0.1177
    1W        W36420   7.169  22.613   8.533  0.1307  0.6363  0.2628
    1W        W36421   4.084  19.212   2.008 -0.0841  0.1110  0.0171
    1W        W36422   2.705  10.201   6.593 -0.0130  0.4408  0.0161
    1W        W36423  23.028  25.763   8.439  0.2346 -0.0661  0.1764
    1W        W36424   3.254  15.057   2.773  0.0610 -0.0481 -0.2529
    1W        W36425  27.306  15.363   1.062 -0.1106  0.0808  0.1573
    1W        W36426  12.437  21.972   0.769  0.1079  0.1864 -0.1629
    1W        W36427  14.262   2.343   8.600  0.2394  0.1164 -0.0147
    1W        W36428   4.785   9.743   6.663  0.2545  0.0981 -0.2185
    1W        W36429   5.254  14.011   0.840  0.3254 -0.0464 -0.0435
    1W        W36430  13.736   5.885   9.540 -0.3099  0.1555 -0.0141
    1W        W36431  10.286  15.147   1.379 -0.1006  0.1666 -0.0500
    1W        W36432   4.169   2.928   6.132  0.0617 -0.1019 -0.0306
    1W        W36433   8.198  21.416   2.274 -0.1945  0.0390  0.0938
    1W        W36434  10.623  26.716   1.136  0.0827 -0.2496  0.2585
    1W        W36435   8.633  15.114   6.361 -0.2342  0.1059 -0.0611
    1W        W36436  21.402   9.514   1.089 -0.1230  0.2284 -0.0039
    1W        W36437  11.156   8.475   1.110  0.0689 -0.0509  0.0678
    1W        W36438  21.109   9.876   1.255  0.0103  0.0619  0.0559
    1W        W36439  11.739  14.688   7.911  0.2514  0.0857  0.2257
    1W        W36440  25.590   4.382   8.768  0.3104 -0.0206 -0.0328
    1W        W36441  15.171  24.708   0.091  0.4452  0.2397  0.2891
    1W        W36442  26.241   0.142   2.759  0.1508  0.0840 -0.2243
    1W        W36443  12.637   0.757   8.197 -0.2044 -0.1340  0.1705
    1W        W36444  10.587  13.037   8.124  0.2384  0.0196  0.1099
    1W        W36445   5.336  29.243   2.250 -0.2321  0.1504  0.1277
    1W        W36446   3.660  23.219   3.947  0.3441  0.2098 -0.0218
    1W        W36447   0.983  23.542   1.561  0.1026 -0.2992  0.1248
    1W        W36448  12.272  17.514   8.528  0.2047 -0.1295  0.0460
    1W        W36449  25.977  24.661   9.299 -0.0271 -0.1619  0.0787
    1W        W36450  25.925  11.305   9.050  0.1518 -0.3853 -0.2195
    1W        W36451  26.246   0.800   3.410  0.1333  0.1591 -0.4402
    1W        W36452  28.961   9.940   2.036 -0.2548  0.4393  0.5076
    1W        W36453  23.197  15.566   9.289 -0.0490  0.1277  0.1190
    1W        W36454   1.398  28.744   7.751 -0.0168  0.0614  0.3258
    1W        W36455  23.719  10.945   8.682  0.1878  0.3755 -0.1305
    1W        W36456  22.663  26.160   3.736 -0.3438 -0.0037 -0.3504
    1W        W36457  20.999   7.200   0.325  0.0859 -0.0718 -0.0902
    1W        W36458   1.992  21.715   7.750 -0.0914  0.1830  0.3405
    1W        W36459  25.536  11.049   7.555 -0.2010  0.0435  0.0497
    1W        W36460   5.181  16.093   0.855  0.4501 -0.0161  0.2580
    1W        W36461   6.102  20.812   0.952  0.1730 -0.1144 -0.0756
    1W        W36462  23.757   5.120   1.523 -0.3176 -0.0327  0.2633
    1W        W36463  14.412   4.784   9.306  0.1135  0.1366 -0.1319
    1W        W36464  10.195  26.006   6.174  0.3966  0.4149 -0.0846
    1W        W36465   7.295  28.840   1.796  0.0199 -0.1492 -0.1871
    1W        W36466  15.312   8.004   0.859  0.0324 -0.0548  0.3105
    1W        W36467  20.775  29.116   2.382  0.0320  0.2006 -0.0283
    1W        W36468   9.260  27.031   8.225 -0.2167 -0.0544 -0.1638
    1W        W36469   9.379  13.754   6.506  0.0218  0.0246 -0.1075
    1W        W36470  16.750  21.427   1.890  0.1572  0.2013 -0.0036
    1W        W36471   7.347   2.584   9.337  0.2179  0.1183  0.1384
    1W        W36472  10.348  25.522   0.977 -0.1419 -0.3508 -0.2502
    1W        W36473  24.228   5.786   8.006  0.1445 -0.2074 -0.0176
    1W        W36474   2.484  27.078   9.553  0.1324 -0.1133  0.2818
    1W        W36475  29.133  20.290   1.891  0.0672  0.0413 -0.0515
    1W        W36476  29.397  20.787   0.275  0.0039  0.3141  0.0489
    1W        W36477   6.719  18.630   7.073 -0.2792 -0.0526  0.1416
    1W        W36478   2.817  28.491   0.202 -0.2029 -0.1023 -0.2506
    1W        W36479  22.646  15.611   0.878 -0.0033 -0.0992 -0.1066
    1W        W36480   1.221  17.544   2.286 -0.1204 -0.0648 -0.1047
    1W        W36481   9.073  28.632   6.349 -0.3437 -0.2539 -0.0721
    1W        W36482  20.360  21.484   9.347 -0.1600  0.0675 -0.4392
    1W        W36483  15.847  22.739   8.890  0.2499 -0.1275  0.4400
    1W        W36484   5.763  15.797   8.204 -0.1345 -0.1246  0.1578
    1W        W36485  28.585   7.959   9.198  0.1297  0.0613 -0.1398
    1W        W36486  20.169   2.717   0.250 -0.0824  0.0700 -0.2250
    1W        W36487   4.951  10.978   8.056  0.1901  0.3383  0.1444
    1W        W36488   8.110  25.880   9.141  0.1826  0.2407 -0.0286
    1W        W36489  10.200  27.364   6.778  0.0168  0.1574 -0.1128
    1W        W36490   4.516   1.677   0.912 -0.1886 -0.3776  0.2156
    1W        W36491   6.289  17.668   6.980  0.2447 -0.1064  0.1022
    1W        W36492  16.404  14.367   1.354  0.0753  0.2879  0.1116
    1W        W36493   5.476   5.655   0.338  0.1867 -0.1975 -0.1448
    1W        W36494   6.982  21.922   0.500 -0.0253  0.0301  0.0523
    1W        W36495  17.202  23.746   2.760  0.0169  0.1231 -0.1333
    1W        W36496   8.869   4.900   1.107  0.0862 -0.3381 -0.0979
    1W        W36497   0.210   4.207   0.590  0.5003  0.0419  0.3670
    1W        W36498  21.111   7.425   7.774 -0.1652  0.0761 -0.3887
    1W        W36499  11.608  11.202   6.730 -0.0291 -0.0121 -0.0102
    1W        W36500  22.003  23.399   2.610  0.1448  0.0089  0.0024
    1W        W36501  27.634   2.337   1.840 -0.1320 -0.1687 -0.0377
    1W        W36502   1.013  14.468   1.903 -0.1255  0.1630 -0.0706
    1W        W36503  16.345   4.012   9.567  0.1162 -0.2837  0.1020
    1W        W36504  12.813   3.728   6.713 -0.1703  0.0123 -0.1310
    1W        W36505   8.391   5.363   0.320  0.2149 -0.0419  0.1904
    1W        W36506  24.441   0.449   0.128 -0.0017  0.1019  0.0971
    1W        W36507  22.520  20.563   8.508 -0.0883  0.2225 -0.0582
    1W        W36508  13.159  23.894   1.073 -0.0094  0.0594 -0.3088
    1W        W36509  12.092  18.752   2.300  0.1153  0.5144  0.0921
    1W        W36510   1.843  24.665   0.823  0.1740 -0.0607 -0.1198
    1W        W36511   4.076   3.934   0.543 -0.0803  0.0682  0.1405
    1W        W36512   0.656   8.278   6.397 -0.0918 -0.2729 -0.0580
    1W        W36513  27.706  13.047   2.570  0.0223  0.2356  0.1485
    1W        W36514   7.494  28.114   6.299 -0.0543 -0.0017  0.2996
    1W        W36515  15.323   8.282   6.824 -0.2488  0.0086 -0.1580
    1W        W36516  24.711   3.814   0.419 -0.0839  0.0632 -0.1275
    1W        W36517   5.567  27.227   9.031  0.0840  0.0009  0.0928
    1W        W36518  15.407   4.526   7.423 -0.0589 -0.0542 -0.1537
    1W        W36519   6.952   6.254   9.569 -0.0418  0.2446 -0.1400
    1W        W36520   8.831  10.034   1.322 -0.1100  0.4083 -0.2364
    1W        W36521   8.756  15.527   6.695  0.0276 -0.2605 -0.0224
    1W        W36522  12.057  27.188   0.838  0.3089 -0.0465  0.1167
    1W        W36523  13.941   4.489   8.665  0.2869 -0.1015  0.2416
    1W        W36524  14.751  21.486   0.610 -0.3991  0.0115 -0.1186
    1W        W36525  20.291   5.673   0.454  0.0720 -0.1382 -0.0163
    1W        W36526   1.159   7.292   7.037 -0.1289  0.3596 -0.1838
    1W        W36527   4.485  16.052   7.749  0.0234  0.1591  0.0722
    1W        W36528  19.075  20.014   2.440  0.2549 -0.0930  0.0490
    1W        W36529  20.678  12.634   1.856 -0.0493  0.1690  0.1211
    1W        W36530  29.039   0.728   2.037  0.1280  0.1475 -0.1243
    1W        W36531  24.720  23.293   1.489 -0.0991  0.0259  0.0604
    1W        W36532  12.899  21.747   0.912  0.0513  0.2518 -0.1993
    1W        W36533  23.949  13.094   8.161  0.3024 -0.2184 -0.0051
    1W        W36534  26.616  18.289   8.784  0.1284 -0.1963 -0.1888
    1W        W36535  10.814  17.766   7.734  0.1486  0.4626 -0.1569
    1W        W36536  11.625  20.769   1.810 -0.1702 -0.2808 -0.0389
    1W        W36537   2.165   3.288   6.692 -0.1031 -0.1295 -0.0204
    1W        W36538  21.923   4.274   2.318 -0.1893 -0.1901  0.0397
    1W        W36539  10.661  26.911   2.500  0.0901  0.2093  0.1793
    1W        W36540  14.981  10.350   7.283  0.0716 -0.0888  0.1291
    1W        W36541   1.901  27.492   2.432 -0.2134  0.1387  0.0467
    1W        W36542   8.713  23.041   7.092  0.3405 -0.1900  0.0895
    1W        W36543  27.604  12.969   2.013 -0.3833  0.1933 -0.1341
    1W        W36544  15.137  10.807   1.553  0.2287  0.2732  0.1505
    1W        W36545  16.435  14.784   7.464  0.1278  0.0387  0.0069
    1W        W36546  20.218  18.734   8.478  0.0062 -0.0445 -0.2212
    1W        W36547  17.092  25.816   1.153 -0.1252  0.1807  0.0902
    1W        W36548   0.772   6.643   7.439 -0.1520  0.2788  0.0744
    1W        W36549  29.246   8.768   8.821  0.1281 -0.0641  0.0017
    1W        W36550  13.763  17.927   1.729 -0.0993 -0.2245  0.1644
    1W        W36551  18.575  28.785   2.800 -0.1413 -0.0297 -0.0776
    1W        W36552   7.911  10.757   9.440  0.4405 -0.1402 -0.1541
    1W        W36553  17.714   2.988   8.297 -0.3219 -0.1736 -0.1426
    1W        W36554  21.645  23.229   1.002 -0.1972 -0.0082  0.2900
    1W        W36555  23.896   8.899   8.992  0.1286  0.0337  0.1322
    1W        W36556  25.715  28.578   1.818 -0.1482  0.1508  0.0852
    1W        W36557  21.205  10.836   7.497  0.0175  0.0909  0.1599
    1W        W36558  27.117  11.208   1.844 -0.0520 -0.3135 -0.3567
    1W        W36559  15.112  15.693   9.590  0.0012  0.5170 -0.4726
    1W        W36560  29.492  26.872   9.349 -0.0277  0.0977  0.3144
    1W        W36561   3.387  15.688   9.594 -0.0125  0.0762  0.1815
    1W        W36562  18.514  13.570   1.049 -0.4209 -0.0884  0.0970
    1W        W36563  10.428   0.723   8.226  0.0821 -0.0654 -0.0268
    1W        W36564   2.942  21.816   0.830 -0.1616 -0.3027  0.1954
    1W        W36565   5.211  13.507   0.710  0.2792  0.0297  0.2475
    1W        W36566  20.434  13.172   8.591 -0.0107 -0.0561 -0.0871
    1W        W36567  24.436   1.521   0.302 -0.2691  0.1385  0.1228
    1W        W36568  18.380  19.308   1.251 -0.4399  0.1977 -0.3503
    1W        W36569   5.733  14.067   0.601 -0.0241 -0.1656  0.1413
    1W        W36570   5.051  26.305   8.771 -0.0416  0.0818 -0.0387
    1W        W36571   8.373   8.059   0.067 -0.0539  0.0639  0.0413
    1W        W36572   3.526   7.332   0.810  0.1834  0.4442 -0.0136
    1W        W36573  20.009  27.959   8.486 -0.5509  0.0629 -0.0495
    1W        W36574  19.387  14.792   7.815  0.0245 -0.1193  0.0239
    1W        W36575  21.602  10.521   1.920  0.1264  0.0918  0.1765
    1W        W36576  23.026  25.484   7.091 -0.3651 -0.1308  0.4934
    1W        W36577   0.169  28.262   7.860 -0.1832 -0.0560  0.1418
    1W        W36578  27.158  15.180   2.782 -0.3487 -0.0328  0.1037
    1W        W36579   1.890  16.770   7.564  0.4372  0.1227  0.2507
    1W        W36580  21.278   2.557   8.134  0.0083 -0.0626  0.3244
    1W        W36581  18.216  16.320   1.226  0.0483  0.0403 -0.2957
    1W        W36582  17.003  12.012   8.142  0.1242  0.1174 -0.1857
    1W        W36583  15.652  27.448   8.152  0.2064 -0.3392 -0.1578
    1W        W36584   9.586  10.453   9.476  0.0096 -0.1248  0.1298
    1W        W36585   5.481  28.124   8.279 -0.0398  0.0922  0.2322
    1W        W36586  21.030  29.259   0.273 -0.2807  0.0653  0.1437
    1W        W36587  25.255  19.408   8.586 -0.1982  0.0542 -0.2796
    1W        W36588  16.556  13.382   2.445 -0.2678 -0.0360  0.2698
    1W        W36589  27.722  22.664   7.558  0.1540  0.1645 -0.1025
    1W        W36590  13.015  27.162   0.814 -0.2906 -0.1161 -0.0073
    1W        W36591   1.154   3.384   9.253 -0.2659  0.0816 -0.0681
    1W        W36592  18.922  19.208   8.955  0.0908  0.3221 -0.0843
    1W        W36593  19.743   7.879   0.387 -0.0803 -0.0303 -0.0118
    1W        W36594  16.912  17.011   7.413  0.0460  0.0835  0.0113
    1W        W36595  21.208  12.715   8.335  0.0420  0.2619  0.4286
    1W        W36596  25.209  21.297   8.379 -0.3875 -0.1892 -0.0927
    1W        W36597  21.111  19.972   1.292 -0.2165 -0.3495  0.1750
    1W        W36598  23.180   5.911   1.675  0.0836 -0.0288  0.2247
    1W        W36599  26.303   4.036   2.445  0.1258  0.1200 -0.0639
    1W        W36600   3.362   9.458   6.864 -0.2332  0.0009 -0.1254
    1W        W36601  22.979  21.598   2.105  0.0521 -0.3233  0.3665
    1W        W36602  26.448   3.029   8.003  0.0246  0.0158 -0.0860
    1W        W36603  13.135   0.923   0.717  0.0896 -0.0493  0.1755
    1W        W36604  20.336  26.649   1.414 -0.0083 -0.0850 -0.1585
    1W        W36605   8.768   1.658   1.634  0.2948 -0.0031 -0.1391
    1W        W36606  18.046  16.716   9.145  0.1017  0.2075 -0.1916
    1W        W36607   1.496   2.727   8.561 -0.2777 -0.0081 -0.0816
    1W        W36608  21.391   8.277   0.586 -0.1854  0.0078  0.1652
    1W        W36609   0.574  26.674   2.827 -0.1392  0.0960  0.0836
    1W        W36610  25.988   2.991   1.283 -0.2114  0.0905  0.0355
    1W        W36611  22.834   0.400   6.562 -0.2722  0.1605  0.1171
    1W        W36612  19.654  20.023   8.439  0.0350 -0.0123  0.0071
    1W        W36613  28.451   9.664   0.404 -0.0528 -0.0027 -0.2519
    1W        W36614   9.159  28.025   1.195 -0.0293  0.1969 -0.1445
    1W        W36615  12.090  17.051   7.293  0.0028  0.0079 -0.0413
    1W        W36616  20.019  12.321   9.005  0.1846  0.1175  0.0603
    1W        W36617   4.151  21.217   9.154 -0.1527 -0.3289  0.0948
    1W        W36618  14.231  22.384   1.553 -0.1944 -0.2020 -0.2528
    1W        W36619   8.920  20.769   1.030  0.0785 -0.1477  0.3208
    1W        W36620   1.297  11.425   7.644  0.0792 -0.3742  0.2623
    1W        W36621  13.800  24.967   1.384  0.2322  0.0517  0.0380
    1W        W36622  13.175  14.419   0.317 -0.1219 -0.0380  0.1153
    1W        W36623   7.994   1.113   0.333 -0.0262 -0.0292  0.0382
    1W        W36624  11.160   7.234   1.300 -0.0617 -0.3369  0.1364
    1W        W36625  16.828  17.229   8.746  0.1380 -0.0452 -0.0857
    1W        W36626   3.316   1.978   0.358 -0.2815 -0.0997 -0.1481
    1W        W36627  11.860  22.044   0.995  0.1884 -0.0677 -0.0164
    1W        W36628  26.453  26.940   2.261 -0.0194  0.4308 -0.2225
    1W        W36629  19.992  13.727   9.262 -0.1337  0.0779 -0.0060
    1W        W36630  29.504   9.400   1.618 -0.1352 -0.2532 -0.1016
    1W        W36631  16.966  26.913   0.143 -0.2474 -0.2685 -0.0170
    1W        W36632  15.194   1.825   2.571 -0.3188  0.2133 -0.1538
    1W        W36633  21.591  10.106   9.264  0.0900 -0.2284 -0.1524
    1W        W36634  25.242  29.161   0.067 -0.1645 -0.5087  0.0043
    1W        W36635  27.943  25.405   2.899 -0.0880 -0.1696 -0.2719
    1W        W36636   1.898  28.666   7.591  0.2797  0.1250 -0.1239
    1W        W36637   0.350   7.848   0.829 -0.1754  0.0630 -0.2915
    1W        W36638   9.064  19.652   2.474  0.3089  0.0539  0.1065
    1W        W36639   9.589   1.129   6.503 -0.2948  0.0256  0.0606
    1W        W36640   8.851  10.594   9.124  0.2417 -0.1210  0.1547
    1W        W36641   3.909  12.512   0.606 -0.2677 -0.1739 -0.0212
    1W        W36642  22.597  13.743   8.484  0.5034 -0.1113 -0.0623
    1W        W36643  14.994  29.335   8.990  0.0306  0.0941 -0.1264
    1W        W36644   7.723   3.582   8.109 -0.1769  0.1555 -0.0264
    1W        W36645   9.486  28.001   9.313 -0.1556  0.2367  0.0425
    1W        W36646  20.865  16.714   0.088  0.2555  0.0851  0.3424
    1W        W36647   1.298  28.962   7.256 -0.1032 -0.1080  0.1596
    1W        W36648   0.346  17.428   8.657  0.2974  0.2982  0.0483
    1W        W36649  23.897  13.526   0.131  0.0715  0.0678  0.1982
    1W        W36650  17.936  26.055   1.677 -0.3840 -0.0346  0.1109
    1W        W36651   8.570  27.903   8.776 -0.0816 -0.1306  0.1464
    1W        W36652  28.719  28.878   2.203  0.2291  0.0382 -0.0827
    1W        W36653   8.257  17.753   2.303 -0.4538  0.0175  0.1290
    1W        W36654  11.610   1.969   9.002  0.1191 -0.0496 -0.2526
    1W        W36655  25.377  12.777   8.925  0.0085 -0.0993 -0.0538
    1W        W36656  10.592   4.019   9.136 -0.2392  0.1196  0.0277
    1W        W36657   0.905  25.619   9.364  0.0990 -0.0430  0.4339
    1W        W36658   5.219  12.690   1.165  0.0674  0.1612 -0.1180
    1W        W36659  25.790  18.241   9.139 -0.1437  0.1819  0.0280
    1W        W36660   2.984  24.550   8.085 -0.0885  0.0554 -0.3109
    1W        W36661   2.020  17.251   2.180 -0.2006 -0.0332 -0.0956
    1W        W36662  15.245   4.759   8.446  0.0651  0.1077 -0.0233
    1W        W36663  12.282  18.380   1.472  0.0458  0.0849 -0.2647
    1W        W36664  27.833  17.034   0.581  0.1774  0.1261 -0.3337
    1W        W36665  20.306   3.027   7.990 -0.0426  0.2443  0.0879
    1W        W36666   9.883   0.778   6.960 -0.0256 -0.1661  0.0126
    1W        W36667  20.692  19.048   8.403 -0.0742  0.2023  0.2690
    1W        W36668  27.768  24.951   9.122 -0.0969  0.0101 -0.0216
    1W        W36669  17.484  22.583   3.719 -0.3775 -0.0256 -0.0616
    1W        W36670  28.208   5.409   6.587  0.2490 -0.2476  0.0703
    1W        W36671  18.034  28.325   8.869 -0.1052  0.0638  0.3798
    1W        W36672   6.669  13.309   6.399  0.0424 -0.0914  0.1442
    1W        W36673  16.253  14.759   2.009 -0.1749 -0.0748 -0.0097
    1W        W36674  24.322  28.900   8.957 -0.3609 -0.2286 -0.3163
    1W        W36675  24.264  12.205   2.418 -0.0186 -0.4101  0.3335
    1W        W36676   2.362   4.616   9.174  0.0350  0.1697  0.1802
    1W        W36677   0.904   5.692   6.825  0.1257 -0.0685 -0.0742
    1W        W36678  21.646  15.780   2.046  0.0187 -0.0161  0.0860
    1W        W36679  21.044   7.773   8.198  0.0138  0.0317  0.3918
    1W        W36680   3.590   0.360   2.274 -0.0701  0.0672  0.2036
    1W        W36681  16.089   0.843   9.105  0.0220  0.0141 -0.1136
    1W        W36682  16.535  13.078   0.885 -0.2468  0.0810  0.0381
    1W        W36683  24.332  18.871   6.449 -0.2340  0.2570 -0.1758
    1W        W36684  18.532  20.274   1.492 -0.0967 -0.0291 -0.0009
    1W        W36685  21.587  12.449   8.028 -0.2279  0.0579 -0.0684
    1W        W36686  20.347  17.774   1.021 -0.1255  0.0344  0.2627
    1W        W36687  16.686   5.624   9.525  0.2822 -0.1878 -0.0942
    1W        W36688   6.956  29.067   1.568  0.0479 -0.0246  0.1214
    1W        W36689  12.413   9.010   0.802 -0.0431  0.2057  0.3618
    1W        W36690  13.961  24.738   5.898 -0.0469 -0.2044 -0.2483
    1W        W36691  23.951  18.509   7.657  0.0936 -0.2436 -0.2903
    1W        W36692  13.132  22.623   0.938 -0.2605 -0.0466 -0.0489
    1W        W36693  18.065  10.454   1.119 -0.0081 -0.1552 -0.1790
    1W        W36694  11.731   2.859   0.970  0.0226 -0.0777 -0.1990
    1W        W36695   6.969   0.883   0.525 -0.0814 -0.1760  0.2168
    1W        W36696   7.174  15.186   1.124  0.0982 -0.0260  0.1617
    1W        W36697  13.242  15.584   1.647 -0.1832 -0.1041 -0.1760
    1W        W36698   8.041  13.067   6.583 -0.0697 -0.1814 -0.1658
    1W        W36699  11.927  29.005   7.040  0.1164  0.1898  0.0370
    1W        W36700  18.334  21.436   2.809 -0.1204  0.0618  0.1066
    1W        W36701  22.673  20.842   8.889 -0.2117 -0.1358 -0.2027
    1W        W36702  16.237  20.766   7.356  0.0967  0.0810 -0.1638
    1W        W36703   1.547  17.219   0.995  0.3175 -0.2461 -0.0591
    1W        W36704  13.290   9.787   9.185  0.0854  0.4025  0.1215
    1W        W36705  10.674  14.800   8.508  0.0085  0.1278 -0.2997
    1W        W36706  28.932  19.482   0.407  0.4070  0.2850 -0.4615
    1W        W36707   8.540  26.183   6.065  0.0920  0.3233 -0.3591
    1W        W36708  10.786  18.122   1.367  0.1239  0.0745 -0.1283
    1W        W36709  20.498   1.611   1.636  0.0376 -0.1224 -0.0569
    1W        W36710  14.202  24.068   7.521 -0.2045  0.0672 -0.1093
    1W        W36711  20.538  24.142   1.293 -0.1796 -0.1436 -0.0242
    1W        W36712   9.731   6.369   8.041  0.1164  0.2763 -0.0319
    1W        W36713   0.497   2.574   2.636 -0.0099 -0.1527 -0.0424
    1W        W36714  29.225   7.416   8.682 -0.2020 -0.2402  0.3521
    1W        W36715  28.188  16.910   8.443 -0.2357  0.1550  0.3392
    1W        W36716   8.072  14.265   8.031  0.3498 -0.1580 -0.2117
    1W        W36717  25.072  16.204   1.508  0.0154 -0.1592 -0.2419
    1W        W36718  21.490  23.952   8.776  0.0339 -0.2338  0.0700
    1W        W36719  12.416   5.078   0.898  0.0158  0.0297  0.2347
    1W        W36720  13.772  26.592   6.092  0.1540  0.0142 -0.1104
    1W        W36721  20.997  17.476   7.898 -0.1202  0.2822 -0.1395
    1W        W36722  17.530  20.614   7.935 -0.0586  0.0760 -0.1437
    1W        W36723  24.292   5.729   0.980  0.1324 -0.1846 -0.1016
    1W        W36724  18.088  11.011   7.351  0.1013 -0.0454 -0.0097
    1W        W36725  14.016  19.281   6.375  0.2723  0.2596 -0.2515
    1W        W36726  11.420  23.926   6.243 -0.1765  0.0976 -0.0142
    1W        W36727  15.518  12.786   7.893  0.2385  0.0021  0.0121
    1W        W36728  10.980   5.815   1.180 -0.2783  0.0932  0.1088
    1W        W36729  24.880  15.480   2.796  0.0264  0.1899 -0.0071
    1W        W36730  12.066  29.191   6.131  0.2316  0.0619 -0.1558
    1W        W36731  25.150  17.069   6.971  0.0651  0.0632  0.0357
    1W        W36732   2.242  19.540   7.687  0.1052 -0.1504 -0.3918
    1W        W36733  28.118  27.438   1.895 -0.1721 -0.0938 -0.3692
    1W        W36734  10.287  26.589   0.290 -0.3944  0.2637  0.2763
    1W        W36735   7.666   3.520   7.036 -0.1977  0.2818 -0.1118
    1W        W36736  11.069  22.753   8.786 -0.2306 -0.1014 -0.1854
    1W        W36737  14.918   3.042   1.445 -0.1280 -0.1071 -0.0448
    1W        W36738   1.566   3.612   9.182 -0.1160 -0.2057  0.1718
    1W        W36739  23.126  12.544   7.195  0.2363 -0.0779 -0.0036
    1W        W36740  21.725  25.892   7.641  0.1555  0.0894  0.0452
    1W        W36741  11.083   6.989   8.935 -0.1946 -0.3505  0.0843
    1W        W36742   3.852   6.297   9.016 -0.0538 -0.0743  0.0126
    1W        W36743  20.826  28.420   0.354 -0.0279 -0.1742  0.0625
    1W        W36744  10.359   6.247   0.263  0.0715  0.1988 -0.3599
    1W        W36745   0.722  10.144   6.887  0.0528 -0.1356 -0.0149
    1W        W36746   9.330  15.540   7.369 -0.3469  0.0568 -0.2773
    1W        W36747  27.875  20.460   8.307  0.0663  0.1807  0.0055
    1W        W36748  23.796  17.335   7.234  0.1296  0.4426  0.0569
    1W        W36749   0.387   6.744   7.152  0.1059  0.0833 -0.1247
    1W        W36750   6.811  28.615   1.804  0.0728 -0.4811  0.0976
    1W        W36751   5.622   1.404   0.707  0.0028  0.1334  0.1609
    1W        W36752  11.836  12.108   5.629 -0.1212 -0.0593  0.1381
    1W        W36753   8.277   7.034   0.823  0.0346 -0.1937 -0.0326
    1W        W36754  18.910   6.161   8.287 -0.4840 -0.1530 -0.0049
    1W        W36755   1.541   0.404   2.141 -0.2771 -0.2311 -0.2687
    1W        W36756  15.163   9.624   3.012  0.1404  0.1754  0.2769
    1W        W36757   7.676   7.539   7.395  0.1535 -0.2711 -0.0880
    1W        W36758   9.266  21.699   7.745  0.1243 -0.2981  0.1337
    1W        W36759  21.154   0.406   8.204 -0.1726 -0.0175  0.0740
    1W        W36760   2.551  10.563   9.419 -0.0912  0.0929  0.0075
    1W        W36761   6.249  24.872   8.956  0.0922  0.0361  0.0925
    1W        W36762  11.396  25.897   0.146  0.0347 -0.1729 -0.0578
    1W        W36763   9.443  14.566   7.111  0.1185  0.1202 -0.2914
    1W        W36764  10.710  20.471   2.289  0.1668  0.0395 -0.1346
    1W        W36765   5.858   2.735   1.558  0.2237 -0.0385  0.0157
    1W        W36766  19.936  27.617   9.486 -0.0408 -0.2167 -0.1489
    1W        W36767  28.594  15.386   2.471  0.2712 -0.0024  0.4430
    1W        W36768  24.588  10.121   0.064  0.3437 -0.2221 -0.1901
    1W        W36769  11.113   2.184   2.071 -0.1371  0.1139 -0.2078
    1W        W36770   5.103  13.372   6.436  0.4600 -0.0935  0.0040
    1W        W36771  10.697   0.488   1.151 -0.2201 -0.1454  0.0680
    1W        W36772  16.691  19.051   7.151  0.2368  0.0253  0.1055
    1W        W36773   6.213  16.444   8.146  0.1605  0.1243  0.3356
    1W        W36774  19.016  17.920   1.470 -0.0355 -0.0799  0.2778
    1W        W36775  11.519  21.139   2.530 -0.0988 -0.0248  0.0518
    1W        W36776  29.136  21.360   3.222 -0.0297  0.0170 -0.2015
    1W        W36777  14.199   0.626   8.565  0.0044  0.0845 -0.0848
    1W        W36778   0.344   8.240   6.800 -0.2863 -0.0533 -0.2770
    1W        W36779  11.050  18.262   6.930 -0.0209 -0.0355 -0.1347
    1W        W36780   3.992  23.729   0.324  0.0821 -0.0140  0.0811
    1W        W36781   7.269  17.545   6.740  0.0938  0.0526 -0.2544
    1W        W36782  29.486  18.717   2.355  0.1661  0.2021 -0.2297
    1W        W36783  21.818   5.078   7.956 -0.2976  0.2073 -0.1008
    1W        W36784  11.181   6.248   8.286 -0.2617  0.2593 -0.0944
    1W        W36785   7.584  23.902   0.340 -0.1465  0.0471  0.1960
    1W        W36786  10.244   5.819   6.708 -0.1640  0.0592  0.1333
    1W        W36787   3.522   2.474   7.688 -0.2291  0.1609  0.0764
    1W        W36788   1.799  26.264   6.927  0.0339  0.3277  0.0586
    1W        W36789  18.483   0.286   8.658  0.0392 -0.0369 -0.0433
    1W        W36790  29.402   3.971   1.304  0.3168 -0.2005  0.1060
    1W        W36791  25.047   1.502   1.623  0.2786 -0.1398  0.0899
    1W        W36792   5.019  18.962   2.403 -0.1590  0.0081 -0.1901
    1W        W36793   0.994  12.017   1.772 -0.2143 -0.0923  0.1503
    1W        W36794   3.804  16.957   8.742 -0.2286 -0.1449 -0.0823
    1W        W36795  14.813  13.869   9.372 -0.3403  0.0318 -0.1521
    1W        W36796   8.423   8.994   6.724 -0.1140 -0.3185 -0.0978
    1W        W36797  17.633   2.568   1.345 -0.1096 -0.2513  0.1415
    1W        W36798   5.941   8.535   5.801  0.2640 -0.1034  0.0600
    1W        W36799  20.564  16.110   1.135  0.2169 -0.0536 -0.0728
    1W        W36800  24.088  22.147   3.731  0.2573  0.0906 -0.1451
    1W        W36801  11.490   3.045   0.445  0.3194 -0.2411  0.0586
    1W        W36802  24.689  17.522   7.445 -0.0993 -0.1258  0.0278
    1W        W36803  15.085  18.844   1.734 -0.1805  0.0277 -0.1954
    1W        W36804  18.142  25.664   2.033 -0.2141  0.0748  0.0031
    1W        W36805   0.033   2.517   9.242 -0.2105 -0.2066 -0.1516
    1W        W36806  22.186  20.657   8.176  0.2278  0.1428  0.1321
    1W        W36807   9.544  16.122   0.400 -0.3518 -0.3156  0.0840
    1W        W36808  27.451  26.652   2.337 -0.1445 -0.3189 -0.0575
    1W        W36809  25.907   7.475   9.517 -0.0858 -0.2769  0.0968
    1W        W36810  18.069   0.302   1.098 -0.0720 -0.0099  0.2133
    1W        W36811  23.293   4.894   2.990  0.0979 -0.0737 -0.0316
    1W        W36812  12.947  23.937   0.617 -0.0079  0.1522  0.1435
    1W        W36813  14.110  22.435   0.603  0.0819 -0.0645  0.1611
    1W        W36814   7.572  25.138   0.560 -0.4175  0.2179  0.0395
    1W        W36815  26.691  23.192   2.626 -0.0657 -0.0378 -0.4551
    1W        W36816  20.668   0.735   8.517 -0.1093  0.0263  0.1967
    1W        W36817  26.091  18.418   1.868 -0.1219 -0.0671  0.0633
    1W        W36818  20.127   8.501   8.835 -0.3127 -0.2974  0.0988
    1W        W36819  27.338   7.985   7.551 -0.1224  0.1165 -0.1408
    1W        W36820  12.728   2.169   7.681  0.0782 -0.0211  0.3882
    1W        W36821  27.504  28.376   3.195  0.1373 -0.1399  0.1302
    1W        W36822  13.236  18.366   1.073 -0.0204  0.1063  0.3603
    1W        W36823  23.259  21.472   3.502 -0.2505  0.2920  0.2321
    1W        W36824  27.803  23.133   2.115  0.0518 -0.0147 -0.2424
    1W        W36825   5.327  27.420   0.854 -0.0588 -0.0897  0.0210
    1W        W36826  13.118  16.789   9.414  0.1215 -0.0116 -0.0846
    1W        W36827   6.537   5.519   7.790  0.1528 -0.0629  0.0736
    1W        W36828  10.960  14.011   2.365  0.1951 -0.0584  0.2059
    1W        W36829  29.434   7.775   9.514 -0.0020 -0.0219 -0.0485
    1W        W36830  29.510  27.839   7.864 -0.0638  0.0539 -0.0263
    1W        W36831  13.468  21.242   8.374 -0.0425 -0.3394 -0.0452
    1W        W36832  11.902  20.250   1.995  0.3446  0.2275 -0.2315
    1W        W36833   8.660  12.849   1.107 -0.1120 -0.0536 -0.0207
    1W        W36834   6.565  25.276   0.860  0.1711  0.0025  0.3911
    1W        W36835   5.248   0.033   6.775 -0.0767  0.1112  0.0860
    1W        W36836  15.840  13.767   0.897 -0.1209  0.3352  0.2856
    1W        W36837  11.650  13.540   8.625  0.2710 -0.1689 -0.2321
    1W        W36838   7.369   8.907   8.983 -0.2206 -0.1766  0.0707
    1W        W36839   4.690  28.947   7.681 -0.0778  0.0412  0.0131
    1W        W36840  14.334  28.298   7.444  0.0108 -0.3311  0.1705
    1W        W36841  10.786   7.765   8.206 -0.0464  0.2391 -0.1226
    1W        W36842   7.467   8.443   7.207 -0.3203  0.0009  0.2398
    1W        W36843  21.136  23.536   0.477  0.2162 -0.3088  0.0444
    1W        W36844  25.780  23.759   1.619  0.0176 -0.0140 -0.1423
    1W        W36845   6.163  26.581   8.226 -0.2802  0.2258  0.1160
    1W        W36846   5.741   6.725   6.290 -0.0618  0.0053 -0.0717
    1W        W36847   7.221  19.781   2.170 -0.1844 -0.3526 -0.0210
    1W        W36848  28.871  13.513   0.774  0.2504  0.1377 -0.2034
    1W        W36849  11.568  19.003   0.493 -0.3232 -0.0334  0.0135
    1W        W36850  26.150   9.204   0.286 -0.0195  0.0360  0.0231
    1W        W36851  16.793   9.608   1.256 -0.1395 -0.0346  0.1839
    1W        W36852  16.581  23.605   7.814 -0.1868  0.0203  0.1213
    1W        W36853  23.710   3.724   7.845 -0.1861 -0.1506  0.1684
    1W        W36854  13.561  19.501   6.252  0.3157 -0.2272 -0.2836
    1W        W36855   2.565   7.433   0.955 -0.1518  0.0541 -0.1817
    1W        W36856  25.661  17.430   0.886 -0.3027 -0.2249  0.0163
    1W        W36857  28.428  25.178   2.099 -0.1169  0.0494 -0.0784
    1W        W36858  24.674  15.682   7.472  0.0715  0.1134  0.0184
    1W        W36859   6.428  12.040   6.237 -0.1078  0.0426 -0.3068
    1W        W36860   0.878  28.090   6.742  0.2674 -0.3159 -0.0238
    1W        W36861  13.530  28.846   1.343  0.2635 -0.0440  0.1523
    1W        W36862   0.082   1.272   7.943 -0.0181  0.0771  0.0042
    1W        W36863  19.157   4.630   7.406 -0.4914 -0.1611 -0.0560
    1W        W36864   8.572   7.540   7.265 -0.0171  0.1422 -0.3100
    1W        W36865  17.778  17.331   7.308  0.1556  0.3738  0.1596
    1W        W36866  17.184   6.610   1.889 -0.0099  0.0725 -0.3314
    1W        W36867   6.843  12.663   1.598  0.1029 -0.2489  0.1276
    1W        W36868  10.359  11.915   6.911 -0.1341  0.2567 -0.2188
    1W        W36869   6.895  19.461   2.334 -0.3286  0.0939  0.1027
    1W        W36870   4.884   8.554   5.702  0.1883 -0.0946  0.0914
    1W        W36871  22.608  16.499   1.944 -0.0868  0.1614 -0.1025
    1W        W36872   4.473  29.149   2.134 -0.1220  0.3087 -0.3496
    1W        W36873   4.476  26.915   6.600  0.1176  0.0691  0.3579
    1W        W36874   9.979  10.461   0.589  0.1703 -0.0509  0.0166
    1W        W36875  20.984  29.323   0.793 -0.0372 -0.0715  0.0277
    1W        W36876   6.374  14.876   0.281 -0.0136  0.0925  0.0764
    1W        W36877   4.382  27.756   3.407 -0.0233  0.1313  0.2267
    1W        W36878  14.219  13.545   6.934  0.1324 -0.2848  0.0699
    1W        W36879  26.378  10.643   9.628  0.0218 -0.0479 -0.0730
    1W        W36880   0.890  23.065   7.609  0.2897  0.3012 -0.3982
    1W        W36881  21.891   4.846   7.518  0.0489  0.1426 -0.0957
    1W        W36882  17.845  18.429   3.283  0.0133  0.2631 -0.2001
    1W        W36883  25.888   2.328   2.972 -0.0392  0.5179  0.0839
    1W        W36884  21.635  24.171   0.763  0.0371  0.2130 -0.1692
    1W        W36885  12.324   3.427   8.233  0.0132  0.0413 -0.0665
    1W        W36886   7.570  19.458   9.279  0.3197 -0.0600  0.0091
    1W        W36887  26.821  20.505   7.632 -0.0241 -0.1767  0.1666
    1W        W36888  17.904  17.195   1.471 -0.0323  0.3124 -0.0082
    1W        W36889  21.241   2.174   0.818 -0.1114  0.1043 -0.1450
    1W        W36890  21.018   9.050   0.786 -0.0051  0.1303 -0.2016
    1W        W36891   9.027   8.637   9.274  0.0061 -0.0567  0.1649
    1W        W36892  28.858  23.694   7.756 -0.2441  0.1716  0.0211
    1W        W36893  11.304  27.321   8.657 -0.1741  0.3376 -0.0138
    1W        W36894  17.209  28.932   0.619  0.1879 -0.0516  0.1694
    1W        W36895   4.068   3.226   8.966 -0.2750 -0.1334 -0.3936
    1W        W36896   2.765   2.973   2.088  0.0322  0.3590 -0.0096
    1W        W36897   8.028  23.953   0.482 -0.2019  0.0515  0.0544
    1W        W36898  16.102   8.465   7.334  0.0407 -0.0471 -0.2360
    1W        W36899  28.241  21.955   9.399  0.1828  0.0365  0.0417
    1W        W36900  22.459  17.963   1.766 -0.2976  0.1242 -0.0595
    1W        W36901   7.010  28.659   1.237  0.0861 -0.0113 -0.0869
    1W        W36902   2.387  29.466   2.613 -0.1877  0.0211  0.2128
    1W        W36903  17.905  28.019   2.579  0.0249 -0.3719  0.0464
    1W        W36904  17.306  10.925   1.009 -0.0556  0.3224  0.4106
    1W        W36905  10.898  23.161   7.161  0.1592 -0.3488 -0.0242
    1W        W36906   6.998  22.577   1.304  0.1030 -0.2629  0.2367
    1W        W36907  23.258  16.533   7.124 -0.2872 -0.0471 -0.0496
    1W        W36908  21.715   6.122   7.827 -0.0006 -0.1763 -0.0667
    1W        W36909  28.595  24.700   2.164  0.3332 -0.0649  0.0483
    1W        W36910  27.221  14.240   1.396 -0.2424  0.1378  0.1672
    1W        W36911  18.445  20.665   2.178 -0.2882 -0.1569  0.4921
    1W        W36912   5.101  25.552   1.476 -0.0620  0.1973 -0.3327
    1W        W36913   7.475  11.332   1.053 -0.0377  0.0856 -0.1807
    1W        W36914  27.015  19.674   7.381  0.2452  0.1732 -0.0445
    1W        W36915  18.022  20.965   1.324 -0.2655  0.0438 -0.2064
    1W        W36916  27.312   5.207   7.625  0.2397  0.0897 -0.0019
    1W        W36917  18.643  19.758   7.140  0.2169 -0.0529  0.1164
    1W        W36918  26.248   3.609   1.955 -0.0643 -0.0424  0.2021
    1W        W36919  21.335  13.847   9.124 -0.2386 -0.0287 -0.1390
    1W        W36920  27.646  24.892   7.313 -0.2011  0.1720 -0.0833
    1W        W36921  13.206  24.244   8.728  0.1606  0.1550  0.3626
    1W        W36922   3.975   4.230   1.582  0.3357 -0.1395  0.2223
    1W        W36923   6.794   4.503   0.157 -0.1000 -0.2652  0.0037
    1W        W36924  14.775  19.679   6.840 -0.2970 -0.1355 -0.3012
    1W        W36925   9.432   7.083   1.738  0.0863 -0.1906 -0.1285
    1W        W36926   6.798   9.309   7.864  0.0208 -0.2812  0.0651
    1W        W36927   4.032   2.906   9.604 -0.0371 -0.0144 -0.1419
    1W        W36928  15.067   9.593   7.302  0.1338 -0.1485  0.1880
    1W        W36929  15.461  10.379   1.593 -0.2963 -0.3259 -0.0537
    1W        W36930   2.194   9.089   2.122  0.1861 -0.2353  0.3807
    1W        W36931  25.062  22.624   7.313 -0.3543  0.1395  0.1260
    1W        W36932  20.813   2.596   1.389 -0.2183 -0.0166  0.2422
    1W        W36933   0.040  12.667   1.670  0.3136  0.0620 -0.0703
    1W        W36934  28.869  16.030   9.477  0.2278  0.1119 -0.1442
    1W        W36935  18.444  13.833   7.648  0.1088 -0.3751 -0.1478
    1W        W36936   3.611  26.681   3.679  0.1406 -0.4255  0.0317
    1W        W36937  15.447  14.515   1.527 -0.1229 -0.0456  0.0632
    1W        W36938  15.311  20.245   9.263 -0.0961 -0.2893  0.0346
    1W        W36939   6.428  23.179   9.504  0.1158 -0.2959  0.0926
    1W        W36940  20.867   8.134   0.476 -0.2473  0.0436 -0.3047
    1W        W36941   0.711  18.232   8.665 -0.2783 -0.2495  0.2189
    1W        W36942  26.850   1.594   1.803  0.0757 -0.4634  0.0374
    1W        W36943   6.568  13.063   0.540 -0.1369  0.1915  0.0049
    1W        W36944   2.975   0.379   1.905 -0.0829 -0.0187 -0.0118
    1W        W36945  15.795  21.971   6.297  0.0584 -0.0580 -0.1732
    1W        W36946  14.273  11.035   6.400 -0.0604  0.0845  0.1536
    1W        W36947  24.869   2.400   7.137 -0.3606 -0.2058 -0.1252
    1W        W36948  20.589   3.556   2.257 -0.2401 -0.0686 -0.0412
    1W        W36949   3.212  26.205   1.199  0.2735  0.3153 -0.1031
    1W        W36950  14.080  17.461   0.609  0.1164  0.0750  0.0094
    1W        W36951   5.075  28.623   8.174  0.1093 -0.0128  0.1995
    1W        W36952  21.173  10.230   0.034  0.1260 -0.1842  0.0864
    1W        W36953  28.216  18.946   9.046 -0.0769  0.0195 -0.2999
    1W        W36954  23.292  15.338   0.705  0.5151  0.1714 -0.1957
    1W        W36955  17.496  26.300   7.670 -0.2665 -0.0742  0.2582
    1W        W36956  14.802   4.490   9.187  0.1905  0.3085  0.0888
    1W        W36957  22.694  25.966   1.210 -0.0272  0.2488 -0.3275
    1W        W36958  19.157  20.986   0.332 -0.0736  0.3549 -0.1080
    1W        W36959  14.965   5.760   0.198  0.0200  0.2535  0.1214
    1W        W36960  20.683  12.138   7.583  0.0418 -0.2019 -0.1328
    1W        W36961  20.014  16.153   1.081  0.2665 -0.1971  0.0435
    1W        W36962   5.500   8.477   9.628 -0.0041 -0.2767  0.2083
    1W        W36963   5.799   8.838   8.825  0.0929 -0.0272  0.0601
    1W        W36964  28.178  27.569   8.043  0.1586  0.0208  0.1730
    1W        W36965  12.146  17.083   1.787  0.0526 -0.2448  0.0728
    1W        W36966  13.732   3.617   2.228  0.0805  0.0715  0.1716
    1W        W36967   9.174   7.531   2.016 -0.3458 -0.1556 -0.0017
    1W        W36968  27.611   2.185   7.578  0.1291  0.1989 -0.2499
    1W        W36969   3.292  28.580   6.775  0.0424  0.0405 -0.4234
    1W        W36970   6.861  21.730   9.194  0.0345  0.1191  0.0830
    1W        W36971  25.480  11.036   9.049 -0.1494 -0.1965 -0.2866
    1W        W36972   3.952  12.300   1.480 -0.0231  0.2892  0.0317
    1W        W36973  16.860  10.725   1.023  0.1422  0.0197  0.0362
    1W        W36974   4.472   0.956   6.261 -0.0090 -0.2883  0.2033
    1W        W36975  27.484  20.125   8.207 -0.0301 -0.0852  0.1431
    1W        W36976   3.094  26.908   8.313  0.1435 -0.0016  0.1265
    1W        W36977   2.902   2.844   6.591 -0.2620 -0.1055  0.0719
    1W        W36978   5.999  13.657   8.762  0.1200  0.0619  0.1650
    1W        W36979  10.608  16.016   8.547 -0.0345  0.1398  0.0022
    1W        W36980   5.615  16.694   0.219  0.1850 -0.1139  0.3679
    1W        W36981  26.834   2.316   8.670  0.0257  0.0228  0.2390
    1W        W36982   2.535  11.110   0.047 -0.1255  0.0219 -0.1091
    1W        W36983   9.222  13.103   0.022 -0.1231  0.1465  0.3416
    1W        W36984   2.376  23.493   6.778 -0.1785  0.1366  0.1852
    1W        W36985   6.598   2.941   1.488  0.0786 -0.2151  0.0891
    1W        W36986   2.671  25.552   0.193 -0.0344  0.0302  0.0560
    1W        W36987   4.846  23.529   6.899  0.0104  0.1506  0.0369
    1W        W36988   2.783   1.784   2.879 -0.0888  0.0298 -0.1172
    1W        W36989   4.373  20.828   1.459  0.0960 -0.2903 -0.0237
    1W        W36990  28.580  19.813   8.658  0.0248 -0.3292 -0.0873
    1W        W36991  27.738  10.992   0.124  0.0467  0.0193 -0.1946
    1W        W36992  19.240  14.485   0.426 -0.0287  0.1423 -0.1303
    1W        W36993  11.577  13.035   8.875 -0.0719  0.2021  0.1349
    1W        W36994   9.137   5.801   7.423  0.4947  0.1289 -0.0613
    1W        W36995  12.042  17.518   1.524 -0.0397  0.2498  0.3855
    1W        W36996  26.836  13.597   9.217 -0.0376  0.0728  0.2359
    1W        W36997   3.955  26.009   9.463 -0.2701  0.0445  0.1419
    1W        W36998   6.655  14.944   7.787 -0.0625  0.1963  0.0657
    1W        W36999  13.192  29.410   8.028 -0.0801 -0.0919  0.1330
    1W        W37000   0.883  25.989   2.346 -0.0903  0.1801  0.3886
    1W        W37001  21.314  16.719   8.341  0.0707  0.1913  0.1529
    1W        W37002   6.427  23.312   2.890 -0.2153  0.0939 -0.2158
    1W        W37003  27.092  27.155   0.965  0.0011  0.3160 -0.1146
    1W        W37004  22.253  25.367   8.160  0.0497  0.1963 -0.1607
    1W        W37005  19.552  19.632   8.939 -0.1866 -0.3223 -0.1761
    1W        W37006   6.998   2.159   1.573 -0.0597  0.0201 -0.1230
    1W        W37007   4.852  11.434   0.829  0.2361  0.3295 -0.1285
    1W        W37008  25.585  26.373   2.322  0.0043 -0.0479 -0.0697
    1W        W37009  28.929  18.537   8.516 -0.0637 -0.0107  0.4448
    1W        W37010  21.396   2.721   2.090  0.0664 -0.0397  0.0347
    1W        W37011  12.335  16.605   8.797 -0.0960  0.0790  0.6197
    1W        W37012   1.238  28.839   9.046 -0.2000 -0.1622 -0.2514
    1W        W37013  28.175   5.937   0.334 -0.1100 -0.0218  0.0322
    1W        W37014  20.460  23.591   2.136 -0.0573 -0.1656  0.0149
    1W        W37015  20.445  15.738   7.678 -0.0000  0.0793  0.1281
    1W        W37016   3.134   8.043   8.884 -0.0792 -0.2673  0.1702
    1W        W37017  10.376  26.102   9.509  0.0618 -0.0152  0.2147
    1W        W37018  21.366   1.646   0.349  0.1279 -0.4033 -0.2335
    1W        W37019  28.463  12.992   1.784  0.1987 -0.0572  0.0118
    1W        W37020   2.601   5.535   1.035 -0.3792 -0.0048 -0.0813
    1W        W37021   3.120  23.703   1.706 -0.0257  0.3248  0.0521
    1W        W37022  13.612  17.859   2.729 -0.0087 -0.0795 -0.3127
    1W        W37023  12.937   0.315   8.954 -0.1461 -0.0277 -0.0087
    1W        W37024   8.716   3.291   1.464 -0.1974  0.3169 -0.0286
    1W        W37025   8.317  14.186   8.796  0.4445 -0.1367  0.0733
    1W        W37026  19.382  20.325   7.437 -0.2908  0.0066 -0.1437
    1W        W37027  11.025   5.239   5.633 -0.0915 -0.2618  0.1204
    1W        W37028   3.884  27.562   8.558 -0.0857 -0.3394  0.0337
    1W        W37029  20.744  27.840   8.270 -0.0338  0.3484  0.1824
    1W        W37030  24.391  14.278   0.978  0.3998  0.0437 -0.0972
    1W        W37031  28.115  19.666   8.469  0.0645 -0.0225  0.1078
    1W        W37032   8.175  28.412   0.179  0.1137  0.0358 -0.0870
    1W        W37033  18.624   3.378   8.013  0.0912  0.2226 -0.0583
    1W        W37034  13.185   9.219   0.214  0.2884 -0.0676  0.0705
    1W        W37035  17.378  15.217   2.623 -0.0450 -0.3366  0.0262
    1W        W37036  23.890   9.748   8.114 -0.0447 -0.0523  0.1831
    1W        W37037  17.815   8.287   0.760  0.3660 -0.0547 -0.0178
    1W        W37038  15.871  21.092   9.436  0.2318 -0.1851  0.1054
    1W        W37039   5.172   0.987   1.533  0.0993 -0.2574 -0.1245
    1W        W37040  23.594  20.655   0.958 -0.0449 -0.0455  0.1949
    1W        W37041   8.584  29.092   0.642  0.2238 -0.0330  0.0452
    1W        W37042  23.283  16.259   7.586 -0.4179 -0.0982  0.1343
    1W        W37043  29.011   4.079   0.165 -0.2161  0.0728 -0.2311
    1W        W37044  15.834  15.503   1.230  0.1388 -0.1054  0.1566
    1W        W37045  11.934   3.387   1.039 -0.0663 -0.1100 -0.0325
    1W        W37046  17.422   0.072   1.487 -0.0042 -0.2604  0.1438
    1W        W37047  25.765  19.710   3.042  0.1768  0.1009  0.0842
    1W        W37048  13.927  27.401   7.306  0.0302 -0.2408  0.1703
    1W        W37049   7.027   9.547   1.585 -0.0959  0.0103  0.0537
    1W        W37050   6.361   4.012   6.468  0.0196  0.0326  0.2031
    1W        W37051  18.757  16.694   9.645  0.0442 -0.1595  0.3720
    1W        W37052  12.075  13.310   6.590  0.2002  0.2712  0.0656
    1W        W37053  21.410   4.037   1.770 -0.1132  0.2246  0.0522
    1W        W37054  13.237  26.483   2.655  0.0912  0.1293  0.1083
    1W        W37055  20.827  12.349   0.522 -0.0242  0.3283  0.1018
    1W        W37056   2.458  12.028   6.989  0.2838 -0.2297 -0.0139
    1W        W37057   6.653  18.674   6.463  0.1083 -0.3915  0.0596
    1W        W37058  24.841   6.669   2.449  0.1291 -0.2804 -0.0714
    1W        W37059  27.203  11.625   2.079  0.1432 -0.0593  0.0581
    1W        W37060  24.135  15.745   2.218  0.0519 -0.1430  0.0187
    1W        W37061   5.266   2.335   0.432 -0.0885  0.2330  0.1083
    1W        W37062  11.894   5.744   8.706  0.3009  0.0036  0.3920
    1W        W37063  25.938  24.411   7.967  0.0829 -0.2034 -0.1007
    1W        W37064  17.362  29.306   2.387 -0.0540 -0.1525  0.3406
    1W        W37065  28.230  10.477   1.632 -0.0983 -0.0532  0.0057
    1W        W37066   0.094  18.900   7.787  0.5170 -0.0980 -0.2195
    1W        W37067  12.996   7.705   0.614  0.2104 -0.0665  0.1204
    1W        W37068  27.505  28.077   2.138 -0.1220  0.1440  0.0352
    1W        W37069  29.551   2.627   6.430  0.1616 -0.1611  0.0353
    1W        W37070  23.158  21.464   9.575 -0.2900 -0.1500  0.3942
    1W        W37071  17.120  18.062   8.186 -0.0083 -0.3783  0.0095
    1W        W37072  11.524  14.330   0.880 -0.0874 -0.1785 -0.1178
    1W        W37073  28.148  19.878   2.660 -0.2975 -0.1293 -0.0032
    1W        W37074   7.661  21.743   8.890  0.0024 -0.2328 -0.3581
    1W        W37075  22.476   5.980   1.115  0.0548  0.1659  0.2014
    1W        W37076   2.484  27.716   9.621  0.1130 -0.0818 -0.2813
    1W        W37077  24.781  26.720   2.850  0.0986 -0.0815 -0.2262
    1W        W37078   0.907  22.644   9.480 -0.1418 -0.1089 -0.1991
    1W        W37079  17.596   8.771   1.958  0.1569 -0.1241 -0.0891
    1W        W37080   3.598  19.858   0.375 -0.0200  0.2833 -0.0871
    1W        W37081   9.895  29.527   1.537  0.0018  0.0004 -0.1020
    1W        W37082   1.048  10.153   1.277 -0.2298  0.0848  0.1465
    1W        W37083   8.690   0.402   6.441 -0.0696 -0.0337 -0.0239
    1W        W37084  13.479  14.680   1.901  0.1980  0.0530 -0.1175
    1W        W37085   9.539  14.948   6.742  0.2094 -0.3164 -0.0416
    1W        W37086   5.485   0.598   0.388 -0.1615 -0.0106  0.1205
    1W        W37087  27.538   5.483   7.274  0.2864 -0.1353  0.2113
    1W        W37088  15.260  19.589   0.412 -0.4046  0.1541 -0.5002
    1W        W37089  25.397  27.465   9.290 -0.1363 -0.0286  0.2234
    1W        W37090  19.964  22.202   2.186 -0.4986  0.0877 -0.0808
    1W        W37091  24.269   6.801   0.168 -0.0658  0.2200  0.0244
    1W        W37092   7.554   7.862   7.003  0.2135  0.0563  0.1211
    1W        W37093  20.732  18.088   0.144 -0.0242 -0.1992 -0.1689
    1W        W37094   6.425   5.977   1.954 -0.1908  0.1437  0.0192
    1W        W37095  13.305  12.520   9.591  0.0400 -0.1023 -0.2169
    1W        W37096  20.519  13.382   7.483 -0.2721 -0.0072 -0.2205
    1W        W37097   1.320  17.664   9.407 -0.0267 -0.0419 -0.0026
    1W        W37098  13.653  21.458   7.218 -0.0136  0.2687  0.0328
    1W        W37099  15.771   1.209   6.584 -0.1658 -0.3451  0.0771
    1W        W37100   1.251  21.533   9.257  0.0396 -0.0194 -0.1351
    1W        W37101  12.923  11.921   7.763 -0.2142 -0.0959  0.2260
    1W        W37102   0.020   0.320   2.172 -0.0755 -0.0900 -0.2806
    1W        W37103   0.146  14.510   7.749  0.1874  0.1142  0.1138
    1W        W37104   9.243  20.071   0.310 -0.1013  0.2127 -0.1282
    1W        W37105  24.029   5.514   7.630 -0.2895 -0.1472  0.4624
    1W        W37106  12.600  26.659   7.702  0.3028 -0.3806  0.2391
    1W        W37107  10.632  13.570   9.608  0.2990 -0.1158  0.1767
    1W        W37108   1.136  26.694   2.859  0.0639 -0.0038  0.0195
    1W        W37109   4.471  16.893   1.757  0.1793  0.0634  0.2674
    1W        W37110  18.992   7.280   1.958  0.2945  0.0592 -0.1495
    1W        W37111  17.069  21.467   9.072  0.0257 -0.0736  0.2793
    1W        W37112   6.542   0.663   6.533 -0.0622 -0.1473 -0.0576
    1W        W37113   8.279  12.035   6.635  0.1340  0.0432  0.1631
    1W        W37114  18.231  22.662   0.053 -0.0831  0.0774 -0.1204
    1W        W37115   3.155  28.721   9.354 -0.0811  0.1862 -0.0640
    1W        W37116   8.631   3.644   0.006 -0.1275  0.1832 -0.1584
    1W        W37117  13.738  18.782   8.062 -0.1266 -0.0735 -0.1099
    1W        W37118   5.624  17.317   2.578  0.1087 -0.0706  0.0356
    1W        W37119  10.750   9.584   2.153 -0.0404  0.1465 -0.1740
    1W        W37120   9.655  25.216   2.120  0.4613  0.1146 -0.0584
    1W        W37121  27.537   1.497   8.502 -0.1422  0.1466 -0.0361
    1W        W37122   3.572  23.357   1.033  0.0873 -0.0636  0.1734
    1W        W37123  11.841  14.298   1.276 -0.0990 -0.4087 -0.3702
    1W        W37124  12.473   8.176   7.080  0.0079 -0.0484  0.1965
    1W        W37125   5.946  25.692   1.186 -0.0932 -0.2141 -0.1255
    1W        W37126  24.012  28.667   3.162  0.0433  0.2583 -0.0683
    1W        W37127  14.963  10.012   9.391 -0.0329  0.0755  0.0002
    1W        W37128  17.368   5.195   8.082  0.0474  0.0031 -0.1614
    1W        W37129  20.467  13.357   8.048 -0.4857 -0.1536 -0.4293
    1W        W37130  18.397  29.148   1.326 -0.3313  0.0725 -0.3031
    1W        W37131  26.951   6.079   9.304  0.0549 -0.0693 -0.1404
    1W        W37132  19.719   1.995   1.906 -0.0052 -0.1627 -0.1716
    1W        W37133   1.567   8.128   7.375 -0.2676 -0.1669  0.2725
    1W        W37134  12.799  10.196   0.203 -0.0979  0.2151 -0.0488
    1W        W37135  20.180   6.981   7.895  0.3004 -0.0927 -0.0594
    1W        W37136   9.786  24.943   3.117 -0.1903 -0.1495  0.3054
    1W        W37137  23.139  17.372   7.932  0.3259  0.2255 -0.0036
    1W        W37138   1.436  28.185   6.844  0.2545  0.0302  0.1631
    1W        W37139   0.695  10.256   6.420  0.0687 -0.1326  0.3477
    1W        W37140  25.312  26.995   9.386  0.1700 -0.1452 -0.1146
    1W        W37141   1.047  12.028   7.581 -0.0837  0.0309 -0.1585
    1W        W37142  28.839   3.406   0.946  0.0060  0.2398  0.2478
    1W        W37143   6.149   4.548   7.615  0.1701  0.1794  0.0192
    1W        W37144  16.738   8.597   1.703  0.1703  0.2338  0.0710
    1W        W37145   8.526  14.713   6.634  0.2009  0.0802  0.0163
    1W        W37146  12.818   6.801   0.353 -0.1656 -0.1008 -0.3413
    1W        W37147  22.635  23.846   7.562  0.1767 -0.1242 -0.1439
    1W        W37148  21.622  16.540   1.404 -0.2824 -0.0200  0.3498
    1W        W37149  23.504  12.595   0.342 -0.2483  0.2128 -0.2881
    1W        W37150   7.161   2.355   7.200  0.1947 -0.3365  0.1136
    1W        W37151  10.598  16.006   6.087  0.4252  0.3561 -0.1459
    1W        W37152  12.930  15.653   8.636  0.0811 -0.0243 -0.3125
    1W        W37153   4.607   1.810   7.690 -0.3438  0.1717 -0.2812
    1W        W37154   2.781   0.741   2.217 -0.2546 -0.2610  0.0235
    1W        W37155  24.376   2.480   9.003  0.1223 -0.0310  0.0405
    1W        W37156   2.403  19.268   3.227 -0.1267  0.0151 -0.0102
    1W        W37157  28.438   5.066   6.925 -0.0419  0.2499  0.2397
    1W        W37158  12.802   5.416   1.243  0.3897 -0.0381  0.3769
    1W        W37159  14.501  28.090   2.379 -0.5221 -0.1075 -0.0562
    1W        W37160  18.186   9.256   8.901 -0.1950 -0.1881 -0.0026
    1W        W37161   3.174  29.241   7.879 -0.1436  0.1964 -0.1761
    1W        W37162  28.837  22.524   8.761 -0.1555 -0.0387  0.0640
    1W        W37163  16.885   4.578   1.631  0.0704 -0.1754  0.0978
    1W        W37164  18.127  20.842   9.018 -0.1367  0.2819 -0.1556
    1W        W37165   2.581  17.806   7.240 -0.4579  0.0499 -0.2422
    1W        W37166  15.132   0.091   1.368  0.1323 -0.0353 -0.0494
    1W        W37167   7.504  10.259   1.483 -0.2573 -0.2542  0.0239
    1W        W37168   1.883   0.334   9.003 -0.2021 -0.0050 -0.1007
    1W        W37169   4.455  11.969   9.368  0.2638  0.0331  0.1225
    1W        W37170   5.123  23.835   0.364  0.1125  0.1929  0.0794
    1W        W37171  10.672   0.760   0.025 -0.0476  0.1495  0.0148
    1W        W37172  19.956   1.360   2.874 -0.0593 -0.0705 -0.1139
    1W        W37173   4.943  18.471   2.431  0.0027 -0.0325  0.3537
    1W        W37174   3.053   6.291   6.720 -0.2022 -0.2937 -0.1027
    1W        W37175   0.291  14.568   0.747  0.3540  0.1506 -0.1967
    1W        W37176  15.168   8.677   7.631 -0.0953 -0.1041 -0.0754
    1W        W37177   5.612   1.382   2.806 -0.2138  0.1651 -0.2389
    1W        W37178   8.946  20.478   9.362  0.0405 -0.0807  0.4377
    1W        W37179  24.682  19.981   7.127 -0.1982 -0.0933 -0.0880
    1W        W37180   9.042  29.173   0.237 -0.1038 -0.1683  0.0211
    1W        W37181  18.884  12.946   8.910 -0.0573  0.0478 -0.0406
    1W        W37182  24.773  13.717   8.245  0.1771  0.2809  0.2039
    1W        W37183  17.921   5.879   1.066 -0.0165  0.0563  0.1852
    1W        W37184  13.128   3.668   0.832  0.1984  0.3010  0.0610
    1W        W37185  24.706  18.509   0.463 -0.2185  0.0690 -0.0925
    1W        W37186  29.610  24.002   0.585 -0.0174  0.0411 -0.0489
    1W        W37187  11.118   0.923   0.394  0.2146  0.0077 -0.0413
    1W        W37188   9.270  10.812   0.730  0.0333 -0.1680  0.2190
    1W        W37189   7.178   9.379   8.828 -0.0995  0.1380  0.2731
    1W        W37190  18.439  13.550   0.568  0.3977  0.0278  0.1672
    1W        W37191  20.566  16.285   0.659  0.0644 -0.2403 -0.1414
    1W        W37192  11.810  18.429   1.423  0.1423 -0.1252 -0.1645
    1W        W37193  28.104  29.409   1.463  0.0102 -0.3815  0.0212
    1W        W37194   6.356   9.238   7.714  0.1101 -0.1987 -0.1148
    1W        W37195  27.721   0.978   2.255  0.0266 -0.0496  0.2034
    1W        W37196   2.094  28.169   7.465  0.3488  0.0638 -0.2946
    1W        W37197   9.174  10.825   5.699  0.0137 -0.2323  0.0828
    1W        W37198  22.963  13.191   7.797  0.1199  0.2035 -0.0949
    1W        W37199  19.977   0.357   8.873 -0.3041 -0.0331 -0.2151
    1W        W37200  20.466  19.506   0.791 -0.4130 -0.0352 -0.0421
    1W        W37201   5.981  22.000   9.321 -0.0410 -0.4831 -0.1417
    1W        W37202  19.645  21.111   2.455 -0.0330 -0.1830  0.2314
    1W        W37203  17.903  23.200   0.959 -0.0599  0.2895 -0.1216
    1W        W37204  22.101  11.728   3.046  0.1992  0.2232  0.0758
    1W        W37205  27.931   7.185   7.807  0.4129  0.3108  0.1330
    1W        W37206  11.155  21.947   7.633  0.2307 -0.1322  0.3188
    1W        W37207  13.098  10.018   7.175 -0.1287  0.2925  0.0507
    1W        W37208   4.736  20.808   0.660 -0.2063  0.0561  0.0185
    1W        W37209   2.122  16.636   1.336 -0.2330 -0.2269 -0.2118
    1W        W37210  15.286   6.157   9.235 -0.2250 -0.0935  0.1923
    1W        W37211  11.584  18.226   9.496  0.0294 -0.0561  0.0893
    1W        W37212   9.972  19.310   1.373 -0.1720 -0.3215 -0.0453
    1W        W37213   8.502  22.568   7.332  0.0727 -0.1900  0.0978
    1W        W37214   3.163  12.292   6.206 -0.1078  0.0033  0.0766
    1W        W37215  16.580  14.499   8.536 -0.0867 -0.2183  0.1243
    1W        W37216  10.043  23.176   7.571  0.2590 -0.0867 -0.0027
    1W        W37217  15.719   3.342   1.039  0.2233 -0.1227 -0.1090
    1W        W37218  21.703   1.052   1.403  0.1556 -0.0564 -0.0871
    1W        W37219   6.535  12.489   1.975 -0.0856  0.4268  0.3810
    1W        W37220   9.297  27.837   1.657 -0.1735  0.1058  0.1212
    1W        W37221   5.180   4.308   0.814  0.0994 -0.1935  0.3368
    1W        W37222  28.430  23.430   7.442  0.0948  0.0539  0.0736
    1W        W37223  12.667  23.591   8.871 -0.1058  0.1010  0.0921
    1W        W37224   5.819  12.938   6.523 -0.1709  0.3922 -0.1454
    1W        W37225  10.629   7.293   8.183  0.1776  0.4356  0.0735
    1W        W37226  13.309  18.816   1.140  0.1591 -0.0071 -0.0149
    1W        W37227   4.644  14.471   8.997 -0.0967  0.2866 -0.2073
    1W        W37228   7.186  23.831   7.539  0.2091 -0.1753 -0.0086
    1W        W37229  21.457  24.473   0.373 -0.1904  0.0315  0.0881
    1W        W37230  14.057  13.071   6.935 -0.0589 -0.1195 -0.0933
    1W        W37231   7.273  19.933   8.570  0.1373  0.1351 -0.0539
    1W        W37232  20.634   8.808   1.101  0.1731  0.3235 -0.0068
    1W        W37233  12.640  29.028   0.801  0.3736  0.1759  0.1267
    1W        W37234   7.040  24.571   0.280 -0.0067  0.0416 -0.1974
    1W        W37235  17.191  21.088   0.634  0.0750 -0.1825  0.0947
    1W        W37236  15.409  12.103   1.749  0.1718  0.1013  0.1918
    1W        W37237  23.020  27.953   8.844 -0.1343 -0.2904 -0.0391
    1W        W37238   9.852  15.733   9.405  0.0509  0.2002  0.2447
    1W        W37239  26.039   9.130   9.430 -0.0546 -0.3177 -0.0041
    1W        W37240  27.626  20.727   1.414 -0.0016  0.5161  0.1370
    1W        W37241  26.152   9.747   2.204 -0.2400 -0.3177  0.1369
    1W        W37242   6.180  10.119   9.167 -0.0623 -0.2840 -0.2023
    1W        W37243  22.025  17.303   2.390 -0.0333 -0.2170  0.1988
    1W        W37244   4.768   3.873   8.568  0.0116 -0.3056 -0.2922
    1W        W37245  27.096   6.995   7.895 -0.1456 -0.0476  0.1234
    1W        W37246   6.932  12.249   5.608  0.1312  0.1554  0.0704
    1W        W37247   6.968  25.605   1.690 -0.0210 -0.0586 -0.1533
    1W        W37248  29.400   4.459   1.423 -0.1097  0.2472  0.0963
    1W        W37249   9.899   2.048   6.854  0.0857  0.0832  0.2793
    1W        W37250   6.175   7.624   9.004 -0.0475 -0.0747 -0.1388
    1W        W37251   6.727   1.517   0.500 -0.3187 -0.1031 -0.1344
    1W        W37252  27.361  17.270   0.842  0.1818 -0.1735  0.1137
    1W        W37253  20.662  25.887   3.052  0.3053  0.0563 -0.1031
    1W        W37254  27.609   7.195   1.620 -0.5634 -0.2699  0.0790
    1W        W37255  15.484  27.233   1.795  0.1997 -0.2510 -0.3653
    1W        W37256   4.523   0.565   2.592 -0.0053  0.0483 -0.1443
    1W        W37257   3.165  20.730   8.090 -0.1384  0.4391 -0.2042
    1W        W37258   5.738  21.518   9.528 -0.0452  0.2915 -0.2720
    1W        W37259  28.178  23.230   6.812 -0.2007 -0.1943 -0.3541
    1W        W37260  17.775  12.377   0.061  0.0620 -0.0386  0.0673
    1W        W37261  22.565  14.664   0.389 -0.2179  0.1001 -0.0189
    1W        W37262  11.497  14.304   9.122  0.1700 -0.0432  0.0574
    1W        W37263  16.755  10.032   0.265 -0.0168  0.1765 -0.0401
    1W        W37264  21.022  18.157   1.212 -0.0906  0.0159 -0.4911
    1W        W37265  13.155   6.485   2.448  0.0228  0.1525  0.0592
    1W        W37266   7.779   4.012   7.723  0.4055 -0.0632 -0.0407
    1W        W37267  18.068  21.383   7.778  0.1717  0.2781  0.1729
    1W        W37268  27.832  18.807   8.789  0.0455 -0.0701  0.3703
    1W        W37269   4.534  21.368   8.349  0.2205 -0.3703 -0.1032
    1W        W37270  21.208  11.974   2.795  0.1851 -0.2134 -0.0208
    1W        W37271   1.600  26.551   8.016 -0.0319 -0.2284 -0.1645
    1W        W37272   3.397  21.771   2.025 -0.1380 -0.0632 -0.4755
    1W        W37273  27.326   1.309   0.746 -0.1905 -0.0677  0.0102
    1W        W37274   7.969   2.624   2.375  0.0705  0.0133 -0.1389
    1W        W37275  23.881  10.010   7.649 -0.0472 -0.0583  0.0040
    1W        W37276  27.649  27.632   7.287 -0.1750  0.1656 -0.2008
    1W        W37277  10.645  24.228   2.620 -0.2019 -0.0843 -0.1205
    1W        W37278  25.270   0.700   8.534 -0.1960  0.0048  0.1316
    1W        W37279  25.122  16.551   1.009 -0.0647  0.0417 -0.0372
    1W        W37280  27.210  27.251   3.191  0.0590 -0.0387 -0.0858
    1W        W37281  11.699   2.456   8.964 -0.0392 -0.0992  0.1009
    1W        W37282  12.107  13.183   8.728  0.2576  0.3207  0.3957
    1W        W37283   1.947  10.945   5.983 -0.1340 -0.1850 -0.0426
    1W        W37284  12.885  17.414   2.061  0.0502 -0.1933 -0.1281
    1W        W37285  28.325  24.981   0.407  0.0728  0.0848  0.0330
    1W        W37286   8.792   9.287   1.109 -0.1942 -0.1209 -0.2026
    1W        W37287  13.778  14.292   2.873  0.0758  0.0053  0.0700
    1W        W37288  20.215  18.530   1.354 -0.2853  0.2375 -0.3027
    1W        W37289  14.879  18.706   7.358  0.1069  0.2071 -0.2260
    1W        W37290   2.004   9.477   7.264 -0.1292 -0.0678  0.1287
    1W        W37291   6.860  22.338   1.732  0.0448 -0.0788  0.1016
    1W        W37292  23.606  18.584   0.987 -0.0821 -0.3943 -0.0747
    1W        W37293  26.803  28.615   7.690  0.0063  0.1761 -0.3060
    1W        W37294   1.014  16.425   2.851 -0.3545 -0.4420  0.0141
    1W        W37295   3.538  24.145   3.286  0.0367 -0.0995  0.0661
    1W        W37296  22.861  24.100   2.877 -0.0319  0.1455 -0.0437
    1W        W37297   7.079   6.117   6.728  0.0830  0.0066  0.1566
    1W        W37298  23.203  12.775   1.137 -0.0280 -0.1616 -0.1631
    1W        W37299   6.773   8.063   7.698 -0.1011 -0.1259 -0.2669
    1W        W37300  28.145  21.639   0.374  0.1267  0.0304  0.0180
    1W        W37301  11.599   6.041   8.401  0.1394 -0.2080  0.2126
    1W        W37302  27.804  11.879   1.488 -0.0070  0.0860  0.3096
    1W        W37303  16.221  17.086   8.141  0.1183  0.2152  0.0123
    1W        W37304  14.495  23.598   2.567 -0.0052 -0.0079 -0.1122
    1W        W37305   5.117  12.258   8.862  0.0523 -0.2527 -0.1466
    1W        W37306   3.988   5.555   8.140  0.1214 -0.1998  0.0185
    1W        W37307   5.003   0.247   9.414  0.0889  0.0891  0.1321
    1W        W37308  23.058  28.517   0.066  0.2578 -0.3565  0.0001
    1W        W37309   7.827   7.742   7.904 -0.0051  0.1309 -0.0729
    1W        W37310  26.322  24.868   1.290 -0.2120 -0.2104 -0.0959
    1W        W37311  27.936   4.180   1.341 -0.0148  0.2829  0.0739
    1W        W37312  25.008  22.599   1.122  0.0434 -0.2834  0.0778
    1W        W37313   3.616  21.049   0.756 -0.0213 -0.0247 -0.1680
    1W        W37314  11.170  20.958   1.882  0.0966 -0.0639 -0.2544
    1W        W37315  26.838  19.198   7.730 -0.3328  0.0405  0.2711
    1W        W37316  15.209   4.146   8.271 -0.0549 -0.0956  0.1717
    1W        W37317   2.033  20.738   0.502  0.0943  0.0669 -0.0373
    1W        W37318   4.864  17.421   0.519 -0.1797  0.1240 -0.1044
    1W        W37319  28.467  18.664   0.820  0.0390 -0.3026 -0.0006
    1W        W37320   0.213  12.726   9.149  0.0007  0.1407  0.1698
    1W        W37321   7.494   7.158   8.922  0.2320  0.1415  0.2659
    1W        W37322   2.083  10.567   9.102  0.1463  0.2188 -0.1250
    1W        W37323  15.483  28.456   0.330 -0.0532  0.0773 -0.1032
    1W        W37324  25.217   3.504   7.631  0.1688 -0.3023 -0.2040
    1W        W37325   8.871   8.192   6.728 -0.0746  0.1206 -0.0568
    1W        W37326  17.780   8.956   8.906 -0.0026  0.3886 -0.0713
    1W        W37327   6.684  24.111   2.104  0.1534 -0.0238  0.0060
    1W        W37328   0.680  15.497   7.809  0.2407  0.3065 -0.2005
    1W        W37329   7.360  27.503   0.921  0.0978 -0.1798 -0.1238
    1W        W37330   5.353   0.437   9.129  0.2062 -0.3236  0.1167
    1W        W37331  25.035   5.979   9.254  0.0418  0.1194 -0.1615
    1W        W37332   0.355  28.050   1.239  0.0766  0.0145 -0.0790
    1W        W37333   6.837  25.348   1.268 -0.0634 -0.1008  0.1830
    1W        W37334  24.790  28.665   0.054  0.0458 -0.0565  0.0216
    1W        W37335   9.110  14.399   8.556  0.1692 -0.2764  0.2001
    1W        W37336   6.940  10.517   8.608  0.0205 -0.4051  0.4144
    1W        W37337  18.643  16.370   2.109 -0.1440 -0.1600 -0.2021
    1W        W37338  27.480  29.522   9.234  0.0026  0.1196 -0.3201
    1W        W37339  19.530  18.643   3.174  0.0242 -0.0744  0.1042
    1W        W37340  23.315   2.262   9.286  0.2357  0.4506  0.2852
    1W        W37341  28.717   0.259   7.759  0.0429  0.1333  0.0806
    1W        W37342   3.566  11.245   8.196 -0.0708  0.2966 -0.0146
    1W        W37343   4.372   6.721   1.814  0.1109  0.0753  0.1111
    1W        W37344   0.680   5.876   6.014 -0.3394  0.1552  0.0770
    1W        W37345   5.029  28.672   7.138  0.0675 -0.1965 -0.0482
    1W        W37346  18.860   7.289   9.287 -0.3195 -0.0640 -0.3470
    1W        W37347  20.593   1.944   9.232 -0.2624 -0.2029 -0.1284
    1W        W37348   2.541  23.274   7.224 -0.1630  0.1616 -0.1379
    1W        W37349  14.201  11.126   2.616  0.0100 -0.0653  0.3334
    1W        W37350  16.940  17.867   0.158 -0.0916  0.0819  0.0918
    1W        W37351   9.387  10.833   6.589 -0.0630  0.1419  0.1944
    1W        W37352  20.131   6.839   8.373  0.2334  0.0891  0.0154
    1W        W37353  24.326   2.425   7.840  0.3855  0.0579 -0.1134
    1W        W37354  14.813   0.827   1.991 -0.1715 -0.2406 -0.0891
    1W        W37355   1.016   8.602   1.187  0.0716  0.0609 -0.1488
    1W        W37356  13.328  25.076   1.922 -0.1836 -0.0695  0.0149
    1W        W37357   6.217  15.851   2.703 -0.0434 -0.2660  0.0629
    1W        W37358   2.873   7.215   8.395  0.1189 -0.0498  0.2083
    1W        W37359  22.539   0.694   1.207  0.1334  0.2041  0.0053
    1W        W37360  14.709  22.240   2.530 -0.0919  0.0737  0.1919
    1W        W37361  16.850   0.203   8.898 -0.5534 -0.0218 -0.2486
    1W        W37362  10.312   0.801   0.480 -0.3149  0.1755  0.1536
    1W        W37363  27.960   0.985   6.398  0.0302  0.0200 -0.0922
    1W        W37364   8.895  25.807   1.762 -0.3836  0.0725  0.0993
    1W        W37365   7.620   1.395   0.532  0.0209  0.1050 -0.1137
    1W        W37366   4.708  26.467   1.744 -0.2853 -0.0690  0.3358
    1W        W37367  28.653   6.139   0.317  0.4305  0.3393 -0.1488
    1W        W37368  25.889   6.890   1.486  0.1717 -0.1382 -0.0630
    1W        W37369  19.050  15.575   1.877 -0.0731 -0.1032  0.1307
    1W        W37370   2.558   4.578   2.159 -0.2939 -0.0261 -0.0947
    1W        W37371  29.132  10.291   9.443  0.3037 -0.1646 -0.1393
    1W        W37372   6.202  19.464   0.023  0.0006 -0.2607 -0.0907
    1W        W37373  21.325  26.570   8.764  0.3071  0.2339 -0.1571
    1W        W37374  15.900  18.095   9.622  0.1218  0.1717 -0.0039
    1W        W37375   5.283  10.167   0.551 -0.0703 -0.3941  0.2663
    1W        W37376   2.038  15.677   2.475  0.0893 -0.2146  0.4429
    1W        W37377  29.002  26.169   1.543  0.4260 -0.0403 -0.0579
    1W        W37378  28.994   1.562   9.085 -0.2674  0.0997 -0.1251
    1W        W37379  13.820  17.147   8.469 -0.1899 -0.3948  0.1514
    1W        W37380  19.754   8.967   7.543 -0.2071 -0.4076  0.0402
    1W        W37381   3.180   3.985   8.211  0.1139  0.0144 -0.3775
    1W        W37382   4.689  21.702   0.656  0.1328  0.3082  0.0500
    1W        W37383  17.515  28.730   1.060  0.0082 -0.3354  0.0875
    1W        W37384   5.255   3.491   1.378 -0.1027  0.1530  0.2456
    1W        W37385  10.810  20.331   9.571  0.1717  0.3560 -0.1111
    1W        W37386   7.187  14.440   9.217 -0.1495  0.2665  0.0519
    1W        W37387   9.461  27.524   5.819 -0.0408  0.1471 -0.1521
    1W        W37388  27.417   2.725   9.490 -0.0050  0.1691 -0.0322
    1W        W37389  15.952  20.110   7.203 -0.1204 -0.0128  0.0690
    1W        W37390  23.649  22.161   6.834 -0.0704  0.3397  0.1261
    1W        W37391  21.618  28.304   8.274  0.1089  0.1099 -0.2967
    1W        W37392  11.892  27.992   0.171 -0.2311  0.3907 -0.2014
    1W        W37393  10.981  10.409   7.593 -0.0191  0.1703  0.1800
    1W        W37394   8.072   6.307   7.408  0.1889 -0.0318  0.1040
    1W        W37395  25.359  18.841   3.469 -0.4693 -0.0461  0.1754
    1W        W37396  16.453  28.840   8.826  0.2348 -0.1298  0.1748
    1W        W37397  15.447   6.472   1.963 -0.1331 -0.0961  0.1763
    1W        W37398   9.794  23.668   2.749 -0.2418  0.1765  0.3690
    1W        W37399  11.724  22.092   0.514 -0.1132  0.0679 -0.1074
    1W        W37400   9.488  18.536   1.612  0.0878 -0.0161  0.0105
    1W        W37401   1.272  22.228   6.725  0.2879 -0.3714 -0.2862
    1W        W37402  23.648   1.338   8.376  0.0824 -0.1718  0.4147
    1W        W37403  21.834  24.661   0.802 -0.2631  0.0095 -0.0596
    1W        W37404   5.686  23.651   8.504 -0.0611 -0.0394  0.0161
    1W        W37405   2.078  28.182   3.142  0.3500 -0.2628  0.0472
    1W        W37406  13.729  14.107   8.240 -0.1381 -0.3992 -0.0265
    1W        W37407  15.938   6.187   0.666 -0.0015  0.2412  0.1790
    1W        W37408  27.295   4.121   7.778  0.0291 -0.0797 -0.1972
    1W        W37409  22.690  25.846   8.912  0.0403  0.0499  0.1432
    1W        W37410   7.613   1.115   7.255 -0.0432  0.1202 -0.1232
    1W        W37411  24.583  25.152   1.629  0.0962 -0.3242  0.0491
    1W        W37412  10.426  11.612   8.316  0.2933  0.0795  0.3325
    1W        W37413   0.565  22.270   1.570 -0.1984 -0.3136  0.2005
    1W        W37414   9.424  24.315   7.023 -0.2084 -0.0278 -0.3556
    1W        W37415  24.612  19.430   2.303  0.5086 -0.2095 -0.0305
    1W        W37416   8.902   7.103   2.062  0.2810  0.1239  0.2309
    1W        W37417  22.419  14.084   8.019 -0.0703 -0.1936 -0.0352
    1W        W37418  24.897  21.028   3.202  0.2572  0.0698 -0.1178
    1W        W37419  19.629  22.759   7.844  0.1182 -0.0881 -0.2475
    1W        W37420   8.718  24.331   2.193  0.2525  0.1680 -0.1749
    1W        W37421   5.099  14.222   0.352  0.0438 -0.1908 -0.0421
    1W        W37422   7.344  16.777   1.411  0.2218  0.1020 -0.1456
    1W        W37423  22.448   6.751   7.346 -0.0010  0.3664  0.0284
    1W        W37424  27.817   0.584   2.603  0.1373 -0.0008 -0.2957
    1W        W37425  11.856  28.489   0.060  0.0736 -0.0619  0.0847
    1W        W37426  26.499  18.546   1.416  0.1015 -0.1060 -0.1524
    1W        W37427  13.646   1.740   8.431 -0.1185 -0.1822  0.1140
    1W        W37428  16.146  22.181   0.669  0.0186 -0.2350 -0.0416
    1W        W37429   3.673  14.961   1.994 -0.1036  0.0241  0.2632
    1W        W37430  10.366  11.029   7.332 -0.1106  0.0310  0.1168
    1W        W37431  18.627   9.976   0.467  0.3879  0.0105 -0.1786
    1W        W37432   9.313  27.441   1.393  0.0600 -0.1155  0.0235
    1W        W37433   9.653  20.386   8.820  0.1947  0.2096  0.0281
    1W        W37434   5.131  25.675   2.491  0.2947  0.0008  0.0110
    1W        W37435  14.268  11.166   9.480  0.1700 -0.1854  0.0784
    1W        W37436   1.055  17.125   6.755 -0.0007  0.0679  0.0125
    1W        W37437  12.037  21.167   9.295  0.0873 -0.0571  0.0069
    1W        W37438   6.504  11.220   6.617  0.1809 -0.2713  0.0879
    1W        W37439  16.379   6.335   6.363 -0.3304  0.3570 -0.1192
    1W        W37440   3.454   8.896   9.468  0.0131 -0.1567  0.0832
    1W        W37441  11.068  18.958   0.619 -0.1746 -0.1066 -0.1385
    1W        W37442  23.331  15.304   7.437 -0.0418 -0.2616 -0.1102
    1W        W37443  27.607  20.419   0.565 -0.0635 -0.0956  0.3922
    1W        W37444  24.495   6.666   8.290 -0.1256  0.3255 -0.5428
    1W        W37445  12.311   3.132   8.658  0.2774  0.0114  0.0741
    1W        W37446  11.400  18.475   1.934  0.1114 -0.0007 -0.1482
    1W        W37447   3.727   0.997   7.270  0.1309 -0.0721  0.0483
    1W        W37448  23.284  16.046   7.032 -0.1629 -0.1711 -0.0928
    1W        W37449  16.527  29.217   7.839 -0.0729  0.1123 -0.2258
    1W        W37450  23.589  13.695   2.875  0.1040  0.2762 -0.5535
    1W        W37451   5.178  15.449   1.043  0.2179 -0.2087  0.2873
    1W        W37452   3.695   2.059   2.793 -0.1926  0.1031  0.2282
    1W        W37453   9.592   8.203   7.757 -0.1874 -0.0295 -0.2894
    1W        W37454  16.337  29.404   0.579 -0.0846 -0.0134 -0.0923
    1W        W37455  11.778   7.730   1.850  0.1772  0.1498  0.1872
    1W        W37456   3.795  22.510   3.485 -0.2094  0.2251 -0.1319
    1W        W37457  23.908  27.546   3.495  0.3120 -0.0445 -0.1101
    1W        W37458  29.208  23.793   8.469 -0.2042 -0.1733  0.3037
    1W        W37459  11.185  22.965   0.721  0.0492 -0.3139 -0.0516
    1W        W37460  13.444   2.765   9.255 -0.2198  0.3953 -0.1894
    1W        W37461  29.252  16.781   1.160 -0.0821  0.0769 -0.1273
    1W        W37462  11.985   7.952   0.753  0.0826 -0.0972 -0.1810
    1W        W37463   8.719  22.931   0.757 -0.1610 -0.0599  0.0197
    1W        W37464  22.288  16.865   2.094 -0.2169  0.0933 -0.0726
    1W        W37465  16.860  14.806   0.957  0.0096  0.0571  0.0862
    1W        W37466  16.500   1.083   1.383  0.1556 -0.1535 -0.0459
    1W        W37467   0.688   2.991   0.406  0.1965  0.2138  0.0757
    1W        W37468  21.509  27.128   2.848 -0.0913  0.1570 -0.1784
    1W        W37469  13.142  25.883   1.663  0.0548  0.0455  0.1425
    1W        W37470   2.611  17.250   7.960 -0.1287  0.2579 -0.4564
    1W        W37471   6.806  15.983   1.001  0.0837  0.1018 -0.0594
    1W        W37472  27.874  25.295   1.562  0.0900 -0.0316  0.2055
    1W        W37473   8.016  25.424   6.904 -0.1059 -0.1301  0.2534
    1W        W37474  25.361  21.118   7.701 -0.2941 -0.1611  0.0030
    1W        W37475  27.853  21.578   8.589 -0.2416  0.0731 -0.0180
    1W        W37476   3.610  22.591   9.041 -0.0241  0.1628 -0.1482
    1W        W37477   6.667   9.795   7.981 -0.2584 -0.2539  0.2949
    1W        W37478   3.217   5.950   6.382 -0.1548 -0.0974 -0.0440
    1W        W37479   0.449  10.521   0.791  0.1654 -0.2337  0.2182
    1W        W37480   4.132  12.224   0.052 -0.0888  0.5852  0.2983
    1W        W37481   7.752  11.766   7.957  0.0848 -0.0190  0.2285
    1W        W37482  19.825   1.037   1.926  0.0040 -0.0854  0.0142
    1W        W37483  21.383  13.145   8.488  0.0802 -0.2069  0.0029
    1W        W37484  19.090   2.745   0.123  0.0166 -0.1621  0.0423
    1W        W37485  10.952  11.882   0.484  0.2211  0.1199  0.2289
    1W        W37486   2.218  13.497   0.881 -0.0434 -0.1257  0.1796
    1W        W37487  23.055   4.430   8.024 -0.3491  0.3664 -0.2938
    1W        W37488   0.899  14.603   8.853  0.0277 -0.2109  0.1613
    1W        W37489  20.916   2.941   8.598 -0.1258 -0.3478  0.0379
    1W        W37490  25.609   7.769   0.123  0.2102 -0.2002  0.2301
    1W        W37491  19.759  10.596   7.784  0.0694 -0.2014  0.2749
    1W        W37492  23.133  21.107   2.033  0.2430  0.1222  0.2779
    1W        W37493  22.776   7.671   8.338  0.0970  0.0072  0.0933
    1W        W37494  29.406  15.175   0.832 -0.1861  0.0355 -0.0035
    1W        W37495   0.313  13.459   1.358 -0.2417 -0.2268  0.0380
    1W        W37496  16.867  20.560   7.549  0.1930 -0.1971  0.0031
    1W        W37497  18.178  20.588   2.892 -0.0751 -0.1279 -0.0879
    1W        W37498  16.566  14.287   7.751  0.1084 -0.0709  0.6030
    1W        W37499  23.619  12.366   7.522 -0.0739 -0.0558 -0.1213
    1W        W37500   1.804  16.994   8.245  0.0348 -0.0474  0.0234
    1W        W37501   3.614  27.188   1.526  0.1356  0.3141  0.2508
    1W        W37502   5.275  15.009   8.794  0.1169 -0.0459 -0.1039
    1W        W37503   6.693   4.699   0.664  0.1695 -0.3228  0.1522
    1W        W37504  12.524  25.372   6.802 -0.1802 -0.1763 -0.0300
    1W        W37505  20.225  23.799   9.334  0.0384  0.1031  0.2590
    1W        W37506  15.886   7.019   8.102 -0.2985  0.0930  0.2328
    1W        W37507  10.220  27.818   6.555 -0.3762  0.0227  0.0703
    1W        W37508   1.296  14.372   6.722 -0.0728 -0.0831  0.1198
    1W        W37509  10.971   9.049   2.275 -0.0793  0.1159  0.2220
    1W        W37510  26.555  13.789   0.084 -0.1380  0.0114 -0.3509
    1W        W37511  22.860   5.813   2.097 -0.2912  0.1938  0.1465
    1W        W37512  14.652  27.897   2.819 -0.1208  0.1784  0.0663
    1W        W37513  19.163   1.427   7.916  0.2096 -0.0626 -0.0589
    1W        W37514   7.153  29.041   0.557 -0.1480  0.0301 -0.1293
    1W        W37515  10.886   1.248   6.266 -0.4643 -0.2460 -0.0260
    1W        W37516  18.397   6.717   2.115  0.0935 -0.3508 -0.0584
    1W        W37517   1.399   2.977   2.310  0.0645  0.0289 -0.1370
    1W        W37518  11.029   3.010   9.468 -0.0086 -0.0447  0.1382
    1W        W37519   4.670   3.855   9.494 -0.3736 -0.1242  0.1326
    1W        W37520  14.450  25.294   6.655  0.0167  0.1665  0.0902
    1W        W37521  16.017   3.657   7.805  0.1511  0.1645 -0.0747
    1W        W37522  20.193  24.291   9.239 -0.2635  0.1140 -0.1197
    1W        W37523  18.878   4.998   1.354 -0.1262 -0.1336  0.1427
    1W        W37524  13.535  18.589   9.200 -0.0833 -0.2498  0.1002
    1W        W37525  22.020   8.314   2.374 -0.0653 -0.1785  0.0774
    1W        W37526   7.757  14.221   1.912 -0.2314  0.0852 -0.0780
    1W        W37527  23.510  19.729   8.373  0.1556  0.0201 -0.0813
    1W        W37528   3.490  28.287   1.049  0.1688 -0.0243 -0.3142
    1W        W37529  29.255  10.010   0.519 -0.0745  0.0356  0.0718
    1W        W37530  23.114  27.046   3.666 -0.2418  0.0074  0.0095
    1W        W37531  19.391  22.563   9.628  0.0067  0.0132  0.0380
    1W        W37532   7.850  12.824   6.987  0.3083 -0.2309 -0.0433
    1W        W37533  27.099  12.302   1.081 -0.1561 -0.0507  0.3396
    1W        W37534  21.894  29.141   0.470  0.0269 -0.3815  0.4673
    1W        W37535  16.120  28.006   1.713 -0.0005 -0.0259 -0.1027
    1W        W37536  16.283  23.675   9.249  0.1874 -0.1378 -0.0001
    1W        W37537   9.005  12.096   0.589  0.0428 -0.0799 -0.0567
    1W        W37538   9.019   4.397   0.267 -0.0327 -0.2010  0.1281
    1W        W37539  11.465  16.541   0.608 -0.1450  0.1224  0.1120
    1W        W37540  23.610  15.378   8.539  0.1648 -0.0623  0.0393
    1W        W37541   1.254  25.390   8.830  0.0739  0.0679 -0.0101
    1W        W37542  18.703   5.974   8.737 -0.2313 -0.0311  0.2108
    1W        W37543   7.515  25.369   8.518 -0.0421 -0.0822 -0.4803
    1W        W37544  18.278  17.419   0.318  0.0545 -0.2719 -0.1963
    1W        W37545  21.968  12.477   7.184 -0.1937 -0.0374  0.0073
    1W        W37546   9.555  15.702   1.664 -0.1213  0.0523  0.0399
    1W        W37547  28.493  21.089   6.755 -0.0919 -0.2379 -0.0221
    1W        W37548  23.603  28.243   7.041 -0.0946  0.1570  0.1775
    1W        W37549   2.247   8.442   9.017 -0.0909 -0.1691  0.1208
    1W        W37550  22.039  18.874   1.542  0.0640 -0.0244 -0.3221
    1W        W37551  22.404  11.007   7.085 -0.1205 -0.1865  0.0315
    1W        W37552   6.262   3.571   9.123 -0.2348 -0.1114 -0.4208
    1W        W37553  15.776  12.030   0.481 -0.0789 -0.1908 -0.0672
    1W        W37554  19.815  22.935   3.325  0.0501 -0.0233 -0.2429
    1W        W37555   9.865  24.527   7.439 -0.1662  0.0066  0.1461
    1W        W37556  28.959   2.039   8.878 -0.1357  0.1661  0.0734
    1W        W37557  12.651  18.327   8.722 -0.3828 -0.3692 -0.0698
    1W        W37558  10.388   2.676   9.214  0.2278 -0.0866 -0.0250
    1W        W37559   3.083  12.119   6.841  0.0349  0.2830 -0.1050
    1W        W37560  16.616   4.359   7.861 -0.0249 -0.0395 -0.4719
    1W        W37561  19.695  24.299   7.643 -0.3072  0.0057 -0.2533
    1W        W37562   9.064  26.682   0.937 -0.1189 -0.0204 -0.1854
    1W        W37563  25.960   6.169   9.323  0.0248 -0.0877 -0.0690
    1W        W37564  12.346  26.949   7.394  0.0953 -0.0039  0.0448
    1W        W37565  15.820  15.999   3.025 -0.2802 -0.3040  0.1768
    1W        W37566   4.147  25.394   1.144  0.2000  0.2173  0.2885
    1W        W37567   9.092   0.361   2.430  0.1150 -0.2378 -0.2444
    1W        W37568  19.266   5.714   0.602  0.3623 -0.0649  0.2528
    1W        W37569  27.417  29.259   7.516  0.1679 -0.1105  0.2378
    1W        W37570  25.997  22.241   9.408  0.0972 -0.0189  0.1171
    1W        W37571  16.590  22.500   7.911 -0.0972 -0.0516  0.0884
    1W        W37572  11.305  26.164   7.949 -0.4098  0.0029  0.0006
    1W        W37573   3.051  25.915   7.146  0.4667  0.0496 -0.1231
    1W        W37574  15.184  19.898   1.961 -0.0255  0.0968 -0.0018
    1W        W37575  27.514  25.304   7.780  0.0723  0.0981  0.0603
    1W        W37576   9.703  11.340   1.589 -0.0613  0.3807 -0.1284
    1W        W37577   9.220  25.543   9.051 -0.0900 -0.0130  0.0308
    1W        W37578  27.632  28.849   0.357 -0.1504 -0.3286 -0.0922
    1W        W37579   8.011   9.952   0.149 -0.1484 -0.0542 -0.0138
    1W        W37580  26.308  27.420   7.660 -0.1165  0.0812 -0.1666
    1W        W37581  24.000  24.727   0.689  0.1483 -0.1428 -0.0400
    1W        W37582  26.064  21.726   4.021 -0.0648  0.1543 -0.1462
    1W        W37583   2.148   3.619   1.690  0.2269  0.1278  0.0706
    1W        W37584  27.781   2.166   0.946 -0.0760  0.1148 -0.0986
    1W        W37585   9.447  20.872   6.805 -0.1454 -0.1502  0.0404
    1W        W37586  25.808  27.600   7.990  0.0495  0.0242  0.1359
    1W        W37587  29.022  17.312   7.667 -0.1033  0.0997 -0.0826
    1W        W37588  19.753   6.611   0.717 -0.1236 -0.1070 -0.2245
    1W        W37589  19.028  27.130   1.567  0.1900 -0.1104 -0.0851
    1W        W37590  13.622   9.213   1.175 -0.1711 -0.0017  0.1926
    1W        W37591  10.905  25.593   1.767  0.2061  0.1498 -0.1327
    1W        W37592  20.781  23.921   7.803  0.1702  0.0525  0.3370
    1W        W37593  17.037   7.023   1.620  0.0225 -0.0202 -0.1493
    1W        W37594  14.900  24.523   7.948  0.0407 -0.0279  0.0715
    1W        W37595   3.937  27.755   3.175 -0.1435  0.0809  0.1253
    1W        W37596  24.815  18.288   1.470  0.0905  0.1403 -0.4282
    1W        W37597  22.978  15.081   8.363 -0.1720 -0.0341  0.2516
    1W        W37598  13.519  22.781   2.345 -0.1051  0.2381 -0.0741
    1W        W37599   3.720   2.599   6.929  0.0047 -0.1429 -0.0230
    1W        W37600  16.776  22.080   1.580 -0.3347  0.1221 -0.1576
    1W        W37601  17.216   9.863   9.526  0.2120 -0.1537 -0.0926
    1W        W37602   2.940   2.424   2.144  0.1009  0.1278 -0.2466
    1W        W37603   3.234  23.894   8.892 -0.2465 -0.1698  0.2109
    1W        W37604  26.124   8.745   0.541 -0.2123  0.0488  0.1251
    1W        W37605  16.802  14.652   7.137  0.1658  0.1886  0.1691
    1W        W37606   5.982   6.020   8.650  0.3671 -0.0945  0.2488
    1W        W37607  18.344  12.346   7.762  0.5025 -0.0904  0.0478
    1W        W37608  25.553  18.702   1.220  0.4325 -0.1965  0.0305
    1W        W37609  20.015  10.995   2.390  0.0650 -0.1605  0.0104
    1W        W37610  24.936  28.520   0.857 -0.1474  0.0392  0.2334
    1W        W37611  29.260  27.516   0.981  0.3370  0.0157  0.0687
    1W        W37612  11.336   3.027   1.478  0.2486  0.3863 -0.0378
    1W        W37613   6.113  13.516   1.330  0.0429  0.0765 -0.0796
    1W        W37614  15.304  15.338   1.196  0.0625  0.0485  0.2180
    1W        W37615  12.321  18.136   1.944 -0.0096 -0.0970 -0.1350
    1W        W37616  10.268  22.185   7.286 -0.0877  0.0203 -0.2246
    1W        W37617   6.465   4.533   2.078 -0.3713  0.0774  0.1282
    1W        W37618  11.695  20.918   9.562 -0.0186  0.0597  0.0465
    1W        W37619  17.493  16.161   2.264 -0.0525  0.0524 -0.0720
    1W        W37620  20.270  19.340   1.653  0.3137  0.2451 -0.2153
    1W        W37621  17.323   2.721   8.495 -0.0466 -0.0040  0.0064
    1W        W37622  17.414  27.814   9.337 -0.1375  0.2155 -0.2683
    1W        W37623   9.761   1.127   2.078  0.2835 -0.0971 -0.1865
    1W        W37624   7.493   3.313   8.431 -0.0395 -0.0380  0.0507
    1W        W37625   6.577  29.461   1.964 -0.0358  0.2036  0.4943
    1W        W37626   1.252  17.484   7.604  0.2326 -0.0285 -0.1638
    1W        W37627   7.856  14.837   3.064 -0.3504 -0.0714  0.2012
    1W        W37628   4.994   4.207   3.265 -0.0559  0.1397  0.2009
    1W        W37629  12.597  28.054   2.276  0.0588  0.0381 -0.1894
    1W        W37630  20.932  28.801   7.815  0.0800  0.2126  0.0605
    1W        W37631  28.413  13.313   0.565 -0.0807  0.0582 -0.1432
    1W        W37632  20.056  21.136   3.690  0.0297 -0.3058 -0.0509
    1W        W37633   1.246  18.528   0.801 -0.2178  0.2211  0.0369
    1W        W37634  19.727  16.439   0.723  0.2312 -0.1179  0.0882
    1W        W37635   9.578  16.060   8.574 -0.0910  0.1924  0.0622
    1W        W37636  18.230   2.707   9.094  0.0200  0.2866 -0.1159
    1W        W37637  17.966  17.522   8.044 -0.2307 -0.0681  0.0645
    1W        W37638  13.236   9.489   6.897  0.1303 -0.0509 -0.2400
    1W        W37639   1.435  19.523   8.976  0.3613  0.1063 -0.1790
    1W        W37640   0.008   7.420   9.242 -0.1498 -0.0029  0.2067
    1W        W37641   3.925  22.149   9.581  0.1590 -0.2635  0.1535
    1W        W37642  18.914  11.820   8.036  0.2219 -0.1117 -0.1734
    1W        W37643  24.407  12.709   2.255  0.0133  0.0105 -0.1991
    1W        W37644  27.566  21.584   2.055  0.0254 -0.1284 -0.0979
    1W        W37645  11.920   1.399   0.008 -0.1663  0.1372 -0.2590
    1W        W37646  20.705  18.585   1.288  0.4063  0.1370 -0.0016
    1W        W37647  27.254  17.654   8.882 -0.3269  0.0441 -0.0535
    1W        W37648  11.984  17.041   6.799  0.0427 -0.4024 -0.0940
    1W        W37649  29.568   5.260   7.938  0.1654 -0.0559 -0.0407
    1W        W37650  13.402   7.656   0.272  0.0628  0.2578  0.0011
    1W        W37651  28.175  17.250   1.442 -0.0118 -0.0691 -0.0264
    1W        W37652  17.281  25.735   0.718 -0.2356 -0.1338 -0.0158
    1W        W37653  27.089   6.560   7.379  0.0401 -0.4325  0.2098
    1W        W37654  21.681  17.270   9.475 -0.0010  0.0867 -0.0003
    1W        W37655   5.380  14.735   0.160  0.1674  0.0922  0.2815
    1W        W37656  26.125  22.136   6.878 -0.2804  0.3125  0.3235
    1W        W37657  11.141  17.397   7.171  0.0364 -0.0650  0.0219
    1W        W37658   3.063  18.388   0.878 -0.0485  0.0791 -0.2931
    1W        W37659   5.644   4.197   0.028  0.3330  0.1348 -0.2217
    1W        W37660   6.400  28.451   2.746 -0.1644  0.2011 -0.0362
    1W        W37661  19.915   6.940   0.370  0.1138  0.1242 -0.1546
    1W        W37662  23.146  18.567   8.926 -0.0644  0.0373 -0.0653
    1W        W37663  10.236  16.349   5.944  0.0404  0.0076 -0.0257
    1W        W37664  14.267  15.863   9.402  0.1605 -0.2742  0.4034
    1W        W37665   6.237  13.822   7.564  0.1376 -0.2973  0.1553
    1W        W37666  17.324  17.393   7.689  0.3083  0.2752 -0.0027
    1W        W37667   4.991  21.857   3.416 -0.0313 -0.1160 -0.1478
    1W        W37668  10.361  12.147   6.323  0.0131 -0.3565 -0.1667
    1W        W37669  22.224  18.412   1.772  0.2376  0.2287 -0.1019
    1W        W37670   7.704  14.363   1.374 -0.0613  0.1224 -0.0387
    1W        W37671  12.193  10.297   6.841 -0.1127 -0.0589 -0.0764
    1W        W37672   0.447  14.528   9.087  0.0106  0.0742 -0.3225
    1W        W37673   2.764  23.899   2.137  0.0633  0.0378 -0.0160
    1W        W37674   2.857  28.608   7.629 -0.0063  0.0016  0.1610
    1W        W37675  16.487   6.618   8.968 -0.2683  0.2165  0.1149
    1W        W37676   3.113  15.925   0.777  0.0386  0.1445 -0.0649
    1W        W37677  23.749   5.513   1.840 -0.2012  0.0992  0.1718
    1W        W37678   2.131  12.988   1.467  0.0577  0.4500 -0.2068
    1W        W37679  19.253   4.406   1.411  0.0423 -0.1879 -0.0668
    1W        W37680  16.978  22.295   7.532  0.0709 -0.2925 -0.1471
    1W        W37681  21.429  13.812   1.368 -0.0576 -0.2338  0.1258
    1W        W37682   8.117   8.621   7.922  0.1872  0.0356  0.2083
    1W        W37683  13.407  23.045   0.868  0.2711  0.1404 -0.1786
    1W        W37684   3.493   7.931   8.302 -0.0461  0.1620  0.3218
    1W        W37685  27.267  24.534   1.774  0.0833 -0.2268 -0.1044
    1W        W37686  20.334  20.453   3.662 -0.0150 -0.2474 -0.1393
    1W        W37687   0.489   8.391   0.882  0.1103 -0.3018 -0.0850
    1W        W37688  18.954  11.508   9.488 -0.2163 -0.1765 -0.1422
    1W        W37689  11.705  27.052   8.920  0.2530  0.2674  0.1691
    1W        W37690   7.807  20.186   8.582 -0.0026 -0.4151  0.0814
    1W        W37691  14.062  23.115   8.680 -0.3214 -0.0677 -0.0583
    1W        W37692  23.136  16.056   8.045 -0.1368 -0.0369  0.0723
    1W        W37693  21.001  11.597   0.437 -0.0717  0.2457 -0.3642
    1W        W37694   4.688  25.445   2.526  0.2043 -0.1841 -0.0802
    1W        W37695  22.974   3.328   0.621  0.1512  0.2224  0.0446
    1W        W37696  27.376  17.220   2.666 -0.1392 -0.1954  0.0493
    1W        W37697  20.722   5.359   8.452 -0.2281  0.2033  0.3010
    1W        W37698   2.304  12.339   8.188 -0.2892  0.0616 -0.1329
    1W        W37699   5.801  19.138   7.794  0.1466  0.0421  0.1870
    1W        W37700  12.473  14.100   1.071 -0.0353  0.1666  0.0403
    1W        W37701  27.591  13.918   1.538 -0.1151 -0.5284 -0.1814
    1W        W37702  24.629  21.652   8.015  0.0269 -0.2265  0.0073
    1W        W37703  17.089  20.376   8.093  0.1107  0.1307  0.1316
    1W        W37704   3.233   2.400   0.075 -0.3145 -0.4155  0.3214
    1W        W37705   7.101  11.675   0.836  0.0023  0.0617 -0.2407
    1W        W37706   6.346   2.681   7.521 -0.1207  0.3820 -0.0509
    1W        W37707  28.617   8.411   7.974  0.0833  0.0453  0.0255
    1W        W37708  17.002  16.371   7.961  0.2463  0.1500  0.2384
    1W        W37709   7.225   5.744   9.490 -0.0418 -0.0996  0.1039
    1W        W37710  11.186  23.603   6.614 -0.3437 -0.1040 -0.1613
    1W        W37711  22.417   5.740   9.165 -0.0694  0.2430 -0.1763
    1W        W37712   3.791   1.825   7.997 -0.0575 -0.1088  0.1102
    1W        W37713   4.785  20.454   0.038 -0.3572 -0.0148 -0.2895
    1W        W37714  15.267  11.609   1.907  0.0383  0.1949 -0.1688
    1W        W37715   6.912   6.168   0.831 -0.2137 -0.2795 -0.2801
    1W        W37716   5.709   2.538   8.142 -0.1897  0.1368 -0.0878
    1W        W37717  23.290  20.258   0.894 -0.1191 -0.0205 -0.2362
    1W        W37718  17.470   5.782   1.364 -0.0962  0.1595  0.1655
    1W        W37719  22.782  12.577   7.575  0.0945  0.0699 -0.1756
    1W        W37720   1.001   6.439   7.940 -0.1699  0.0087 -0.0108
    1W        W37721   0.873   4.646   0.993  0.0610  0.3957  0.1807
    1W        W37722   3.738  20.874   2.119  0.0360 -0.5259  0.2075
    1W        W37723  25.467  13.976   1.176 -0.0653  0.0065  0.1955
    1W        W37724   4.968   8.383   7.213  0.0871 -0.0773  0.4418
    1W        W37725   2.896  26.747   2.625  0.1179  0.1589 -0.0266
    1W        W37726  28.407  29.578   8.614 -0.0685 -0.0969 -0.0162
    1W        W37727   9.652  15.312   0.008  0.0355 -0.0656 -0.1643
    1W        W37728  20.031  28.689   7.401 -0.0226 -0.0595 -0.0588
    1W        W37729  17.265  21.076   8.771 -0.1460 -0.0242  0.0587
    1W        W37730  15.019   0.471   1.703 -0.1571 -0.2265 -0.1372
    1W        W37731   6.963  17.143   1.524 -0.1158  0.1087 -0.0282
    1W        W37732   7.480  23.474   3.034  0.0691  0.2837  0.0675
    1W        W37733   1.014   6.908   7.776  0.2972 -0.1920 -0.1348
    1W        W37734  22.657  27.003   7.969  0.0274 -0.0934  0.0651
    1W        W37735  28.048  10.461   0.818 -0.0534  0.2464 -0.0928
    1W        W37736  21.338  16.311   2.722  0.3220  0.0293 -0.5162
    1W        W37737  23.632  16.031   7.907  0.1927  0.0959 -0.4580
    1W        W37738   8.306  17.204   0.388  0.3708 -0.1708  0.2159
    1W        W37739  18.861   1.095   7.597  0.2920  0.0555 -0.0135
    1W        W37740   2.011  23.859   8.492 -0.0366  0.1453 -0.2470
    1W        W37741   2.162  26.170   2.066  0.2035  0.0057 -0.1398
    1W        W37742  11.193   7.798   9.433  0.0670  0.0468 -0.0770
    1W        W37743   2.570  29.125   2.300 -0.1924  0.0147 -0.0144
    1W        W37744  14.248  25.266   8.375  0.4647 -0.1826  0.1161
    1W        W37745  24.442   3.500   7.940 -0.1043 -0.1355  0.3199
    1W        W37746  17.641  24.511   2.694 -0.4385  0.0476  0.1239
    1W        W37747   1.804  29.323   1.896  0.0243  0.1468  0.0627
    1W        W37748  20.563  14.687   2.549  0.1012  0.0223 -0.0312
    1W        W37749  27.889  18.580   2.253 -0.0669 -0.1851  0.1083
    1W        W37750  27.994   8.645   9.070  0.0084 -0.2919 -0.3042
    1W        W37751  20.152  21.331   2.317 -0.0429  0.0094  0.1334
    1W        W37752   0.663  15.593   7.194  0.1163  0.0449 -0.0353
    1W        W37753  21.091  13.282   2.282 -0.0854  0.0240  0.0075
    1W        W37754  25.884   0.071   8.742  0.3264  0.0651 -0.0019
    1W        W37755   3.820  20.270   7.886  0.0249 -0.0520  0.0995
    1W        W37756  10.456  22.201   9.403 -0.1465  0.1560 -0.0396
    1W        W37757  11.319  23.294   2.325 -0.0629  0.2403 -0.2503
    1W        W37758  13.786  20.883   7.163  0.3612  0.1141 -0.2145
    1W        W37759  25.987  16.995   1.170 -0.3231 -0.2010 -0.0611
    1W        W37760   0.976  25.715   0.180 -0.1277  0.1337 -0.3121
    1W        W37761   1.426  20.962   2.125 -0.2207  0.0191  0.0811
    1W        W37762  10.353  10.086   2.800  0.1937  0.0131 -0.0012
    1W        W37763   6.248  24.787   6.417 -0.1933  0.0584  0.2013
    1W        W37764   9.865  16.977   7.200  0.2060 -0.0052  0.1565
    1W        W37765  19.443  25.824   7.567  0.1426  0.1294 -0.0061
    1W        W37766  11.711  11.210   8.098 -0.4401  0.0981  0.0887
    1W        W37767  24.491  24.867   0.660 -0.2293  0.3547  0.1028
    1W        W37768  22.666   5.936   0.252  0.2274  0.0748 -0.0545
    1W        W37769   6.930  10.310   5.253 -0.1105 -0.0001 -0.2801
    1W        W37770  20.855  18.081   2.889  0.0931 -0.2408  0.0010
    1W        W37771  19.846  29.001   3.120  0.0930 -0.0181  0.3238
    1W        W37772   3.708  20.421   1.390  0.0164 -0.0354  0.2064
    1W        W37773   4.712   7.609   2.027  0.2152  0.0042  0.0238
    1W        W37774  22.106  24.577   2.068  0.0447  0.4449  0.0675
    1W        W37775  14.704  11.292   8.048  0.2673 -0.6592  0.2378
    1W        W37776  25.191   3.033   2.378  0.0794 -0.1022 -0.2362
    1W        W37777  14.108   8.616   1.874  0.2131  0.0814 -0.0553
    1W        W37778  10.138   5.106   1.916 -0.0400  0.0921 -0.0770
    1W        W37779  25.082   2.314   2.915 -0.4043  0.0533 -0.1769
    1W        W37780  12.241  21.261   7.651 -0.0570  0.2331 -0.4938
    1W        W37781  16.108  26.699   8.563  0.1872  0.1948  0.0205
    1W        W37782  12.746   4.381   8.447  0.0496 -0.3766 -0.2185
    1W        W37783   9.448  29.050   5.646  0.0433 -0.1322 -0.0458
    1W        W37784   0.059  22.015   0.732 -0.1567  0.1365  0.0139
    1W        W37785  19.587   1.469   2.092 -0.0532  0.0801 -0.1474
    1W        W37786  16.962  21.487   7.643 -0.1590 -0.0383  0.1737
    1W        W37787   7.660   2.494   6.208  0.2209  0.1444  0.1542
    1W        W37788   0.381  18.654   8.716 -0.3006 -0.0615  0.0155
    1W        W37789  26.425  28.976   7.696  0.2464 -0.1637  0.0537
    1W        W37790  13.971  19.169   8.493  0.3388 -0.1540  0.0289
    1W        W37791   3.533  28.365   8.276  0.1021 -0.4086  0.1540
    1W        W37792  27.922   5.343   8.586 -0.2817  0.0285 -0.0151
    1W        W37793   6.590   9.616   1.390  0.3526  0.0404 -0.1836
    1W        W37794   3.240  25.558   0.324 -0.0151  0.0696  0.1062
    1W        W37795  19.314   0.442   3.123  0.0443  0.3397  0.0087
    1W        W37796  12.236  26.456   7.878 -0.0299 -0.0311 -0.3434
    1W        W37797  14.627   4.731   1.686 -0.2855  0.1411 -0.0235
    1W        W37798  12.820   7.712   1.113 -0.2265 -0.0702  0.0823
    1W        W37799  23.327   6.131   2.313  0.2204  0.1480  0.0459
    1W        W37800   6.390   4.302   9.504 -0.0766  0.1463  0.1908
    1W        W37801  24.225  14.856   2.369 -0.3229 -0.1152 -0.1008
    1W        W37802  19.754   7.315   8.598 -0.1117 -0.1247 -0.2221
    1W        W37803  13.510   8.878   6.833 -0.3986 -0.0078  0.0609
    1W        W37804   9.259   3.680   8.610 -0.0055 -0.0187  0.3399
    1W        W37805  18.981  22.378   2.317 -0.1675 -0.0053  0.0319
    1W        W37806   2.128  23.111   2.297 -0.0693  0.1705  0.2600
    1W        W37807   9.726  14.240   9.370 -0.0504  0.0224 -0.1887
    1W        W37808   0.214  17.841   1.293  0.0440 -0.1589  0.1116
    1W        W37809  16.322  28.376   0.890  0.1075  0.1520  0.0543
    1W        W37810  29.334  11.353   0.542  0.2626 -0.1063  0.2056
    1W        W37811  27.707  10.230   9.150  0.1615  0.0394 -0.3390
    1W        W37812  10.777  24.652   7.888 -0.1103  0.1066  0.0922
    1W        W37813   3.317   0.379   8.824 -0.3916 -0.1589  0.3180
    1W        W37814  28.890  12.142   9.080 -0.1862  0.1873  0.0842
    1W        W37815   8.941  23.990   2.488  0.1134 -0.1173  0.1171
    1W        W37816  20.782  28.851   0.945  0.1431  0.0542 -0.2591
    1W        W37817   1.896   6.101   7.053  0.3321  0.0655  0.0033
    1W        W37818  22.260   8.069   8.720 -0.1981  0.0145 -0.0028
    1W        W37819  20.045   5.524   0.926 -0.2207  0.0663  0.0918
    1W        W37820  29.519  23.401   1.443  0.1537  0.0534  0.1983
    1W        W37821  11.871  11.933   1.373 -0.1019  0.0948  0.2847
    1W        W37822   9.428  20.648   0.998  0.3197 -0.2777 -0.0716
    1W        W37823  24.167   3.451   1.536  0.0161  0.0875 -0.0767
    1W        W37824  13.800  13.084   3.043 -0.0134 -0.2621 -0.1858
    1W        W37825  26.475   1.332   6.776  0.0270  0.0352  0.3019
    1W        W37826   5.590  21.917   0.218 -0.0076 -0.0334 -0.0628
    1W        W37827  26.837  22.152   1.075  0.1253 -0.1246 -0.1950
    1W        W37828   0.077  12.383   6.637 -0.0380 -0.0623 -0.0394
    1W        W37829  13.728  19.875   9.413  0.1811  0.1053  0.1469
    1W        W37830  14.542  25.020   7.629  0.1844 -0.0828  0.2330
    1W        W37831   6.968   1.890   7.149  0.0784  0.1938  0.3247
    1W        W37832  28.309  22.368   2.846  0.0450 -0.2346 -0.4539
    1W        W37833  19.085   2.584   6.462 -0.0583  0.1249 -0.1452
    1W        W37834  12.100  24.671   0.970 -0.2526  0.0500 -0.2251
    1W        W37835  14.483   7.046   0.319 -0.1417 -0.2550  0.1340
    1W        W37836  13.580  28.449   2.220  0.1752 -0.0969 -0.2218
    1W        W37837  18.090   8.722   7.819 -0.2563  0.0122 -0.2973
    1W        W37838   3.198  20.938   3.052 -0.1650 -0.1632 -0.1512
    1W        W37839  22.927  14.297   9.284 -0.1404  0.2212 -0.0316
    1W        W37840   4.602   0.885   0.588  0.2339  0.2898  0.1245
    1W        W37841  13.191   1.437   8.631  0.2754  0.0243 -0.4664
    1W        W37842  23.759   4.642   1.388  0.0182 -0.0348  0.1224
    1W        W37843   3.234  23.859   6.952 -0.1982 -0.1336 -0.1772
    1W        W37844  17.944  18.802   6.656 -0.2615 -0.1714  0.3463
    1W        W37845  16.654  12.748   1.841 -0.1908 -0.1692  0.1007
    1W        W37846   7.930  27.641   7.834  0.1975  0.1053 -0.2334
    1W        W37847  29.338  12.699   9.637 -0.2601 -0.0117  0.0372
    1W        W37848  19.261  14.910   8.541  0.2072 -0.1127 -0.0515
    1W        W37849  25.208   0.891   0.305  0.1762  0.2314 -0.1083
    1W        W37850   2.930  11.314   1.676 -0.1644  0.1567  0.1335
    1W        W37851   5.942  18.850   1.294 -0.4878  0.0040  0.3430
    1W        W37852  14.850  11.517   8.514 -0.0387  0.3803 -0.0379
    1W        W37853   5.220   4.547   2.081  0.1920 -0.1201 -0.0138
    1W        W37854  28.033   7.540   6.976 -0.3228  0.1725  0.4039
    1W        W37855   2.909   2.857   0.169 -0.1518 -0.3677  0.0765
    1W        W37856   0.213  10.858   8.113  0.0655 -0.0410  0.1529
    1W        W37857  21.603  10.068   1.446  0.1086 -0.0161  0.0000
    1W        W37858  12.279  29.173   7.413 -0.1035 -0.0901  0.2374
    1W        W37859   9.119  13.338   6.760  0.3433  0.2689 -0.1682
    1W        W37860  19.765   7.768   2.485 -0.2230  0.0586  0.1557
    1W        W37861   7.099  24.784   9.402 -0.0422 -0.0442  0.3518
    1W        W37862   7.370   4.669   2.061  0.0462  0.1149 -0.1326
    1W        W37863  21.929  12.595   1.099 -0.2551 -0.2274 -0.1127
    1W        W37864  22.495   3.948   9.383 -0.2185 -0.0136  0.1058
    1W        W37865  18.456  24.941   8.547  0.2103  0.1093  0.3148
    1W        W37866  25.032   6.994   2.078 -0.2954 -0.0891 -0.1001
    1W        W37867   1.877  14.005   1.598 -0.0046  0.3154 -0.2203
    1W        W37868  13.614  18.422   8.368  0.2020 -0.0328  0.0060
    1W        W37869   1.918   3.299   9.087 -0.0466  0.1291 -0.1836
    1W        W37870   9.373   3.776   2.032 -0.1269 -0.2906 -0.2651
    1W        W37871  29.430  21.313   2.785 -0.0322  0.1295  0.1244
    1W        W37872  19.241  20.342   8.350  0.3125  0.1274  0.1386
    1W        W37873  21.241   6.549   1.934  0.1157  0.0775 -0.2609
    1W        W37874  22.229   2.805   1.361 -0.1734  0.2694 -0.1373
    1W        W37875  14.920  18.290   0.044 -0.0522  0.1641 -0.0304
    1W        W37876  22.320   8.181   0.527  0.1121 -0.2073  0.0715
    1W        W37877  24.092  20.000   7.240 -0.0007  0.4041  0.2918
    1W        W37878  15.007  21.070   8.110 -0.0063  0.2764 -0.3530
    1W        W37879   8.946  29.181   7.632 -0.0869  0.0419  0.3182
    1W        W37880   0.892  25.991   0.584 -0.3350  0.0179  0.2056
    1W        W37881   0.704  28.185   7.624  0.1373 -0.2088 -0.2176
    1W        W37882   7.658  14.064   8.193  0.1614 -0.1997  0.1677
    1W        W37883  20.845  17.555   0.206  0.0677 -0.0484  0.0025
    1W        W37884   0.247  15.759   7.527  0.1447  0.2070 -0.0880
    1W        W37885   7.343  24.399   2.889  0.4326 -0.3312 -0.1438
    1W        W37886   9.982   0.724   8.047  0.0795  0.1760 -0.1658
    1W        W37887  22.170  27.846   7.514 -0.0823 -0.0450  0.0100
    1W        W37888  25.986  18.786   0.122  0.0021  0.0890  0.1047
    1W        W37889  21.283  17.451   7.452  0.3463  0.0804 -0.3410
    1W        W37890  20.489   7.025   9.199 -0.3646 -0.1351 -0.1017
    1W        W37891   8.956  19.329   7.221  0.0469  0.2559  0.1592
    1W        W37892  28.201  16.352   8.984  0.2888 -0.0677 -0.1464
    1W        W37893  27.487   9.886   8.081 -0.1405 -0.2896 -0.0319
    1W        W37894  16.070  19.054   2.323 -0.0074  0.1493 -0.1426
    1W        W37895   5.857  18.146   9.183 -0.0344 -0.1751  0.1236
    1W        W37896   3.887   4.829   1.428 -0.0019 -0.2887  0.1408
    1W        W37897   7.873  28.991   8.297 -0.0705  0.0461  0.0528
    1W        W37898  25.975   1.335   1.827  0.0021 -0.1244 -0.2071
    1W        W37899  26.010  16.503   1.882  0.0244  0.1153  0.0098
    1W        W37900   3.591  15.921   1.918  0.1023 -0.1063  0.0138
    1W        W37901  10.056  14.472   0.555 -0.2764 -0.0676  0.1418
    1W        W37902  21.337  10.628   0.368  0.1143 -0.0861 -0.1036
    1W        W37903   5.383   4.390   6.979  0.2580 -0.0047 -0.0715
    1W        W37904  12.600   4.902   6.810 -0.0482  0.0242 -0.1784
    1W        W37905   8.724  28.845   1.579 -0.2782  0.1932 -0.0772
    1W        W37906  22.684  25.656   8.000 -0.0469 -0.1599  0.0140
    1W        W37907   8.103  28.144   2.151  0.1227  0.0262  0.2144
    1W        W37908  15.921   2.745   7.268 -0.0547 -0.1696 -0.0434
    1W        W37909   1.418   3.232   7.425  0.1857 -0.1185  0.1715
    1W        W37910   1.331   4.355   7.185 -0.0354 -0.1584 -0.0040
    1W        W37911  22.811   3.418   8.706  0.0905 -0.1914  0.2029
    1W        W37912  14.452  29.060   8.801  0.0522 -0.0474 -0.3536
    1W        W37913   2.346  24.796   0.819  0.0590 -0.0663  0.2517
    1W        W37914  21.403   2.542   9.429 -0.0367 -0.0661 -0.0851
    1W        W37915  24.891  16.379   2.021 -0.1606 -0.0227  0.1417
    1W        W37916  25.082  11.303   1.412 -0.0375  0.2606 -0.0145
    1W        W37917  25.448  13.930   7.290 -0.1082  0.0401  0.0562
    1W        W37918  17.725   1.556   2.258  0.2210  0.0344 -0.1669
    1W        W37919   8.003   1.437   7.035  0.0152 -0.1790 -0.2957
    1W        W37920   8.563  10.436   7.748 -0.3524  0.0304  0.0826
    1W        W37921   5.707   7.007   6.689  0.0156 -0.0399  0.0944
    1W        W37922  19.658  27.014   7.378 -0.0864 -0.0177 -0.0072
    1W        W37923  29.404   4.906   0.422 -0.0070  0.0428 -0.0014
    1W        W37924  12.009  12.053   0.651  0.3378 -0.4879  0.2043
    1W        W37925   1.144  19.985   2.189 -0.1773 -0.2299  0.2625
    1W        W37926  13.544   9.928   9.606 -0.3690 -0.2235 -0.0204
    1W        W37927  23.819  12.191   0.535 -0.0663 -0.1141 -0.1957
    1W        W37928  17.816  15.007   1.331 -0.1172  0.1001  0.1774
    1W        W37929  17.128  15.935   0.572  0.2890 -0.1890  0.2652
    1W        W37930  13.542  11.659   2.037  0.0897 -0.2121 -0.0308
    1W        W37931  26.543  24.120   3.531  0.0681  0.1797 -0.2098
    1W        W37932  24.529  17.879   7.098 -0.0413  0.3581 -0.0006
    1W        W37933  25.278  28.956   1.622 -0.1051 -0.3039 -0.1894
    1W        W37934  17.476   4.518   0.941  0.0987 -0.1491 -0.3672
    1W        W37935  11.559  15.254   1.214  0.1455 -0.1034  0.1796
    1W        W37936   7.443   9.407   1.257 -0.0919 -0.3372  0.0629
    1W        W37937   8.052  19.385   8.260  0.0923 -0.1520  0.1242
    1W        W37938   4.418  13.389   6.820 -0.1655 -0.0654  0.0570
    1W        W37939  21.227   0.138   2.762  0.1413  0.0366  0.2110
    1W        W37940  28.597  17.049   2.697 -0.1589  0.0560 -0.2844
    1W        W37941  19.683  13.384   9.356  0.3398  0.1073 -0.1492
    1W        W37942  11.307  21.930   1.110  0.0506  0.3172  0.0008
    1W        W37943  16.509  16.567   1.396 -0.3387  0.2092  0.0038
    1W        W37944  27.632   4.455   8.614 -0.0528 -0.2260 -0.2201
    1W        W37945  21.848  21.522   3.152 -0.0507 -0.1894  0.1897
    1W        W37946  14.666  14.285   7.428 -0.1277 -0.3015 -0.1117
    1W        W37947  26.272  15.484   9.208 -0.2525  0.0150  0.0687
    1W        W37948  16.206   8.427   9.378  0.5332 -0.3767 -0.2399
    1W        W37949  18.469  11.377   7.488  0.2553  0.1673  0.0714
    1W        W37950   8.463  24.145   0.943 -0.1946  0.1825 -0.0416
    1W        W37951  11.550  17.454   1.023 -0.1405 -0.1823 -0.2886
    1W        W37952  14.531   8.331   7.157 -0.2037 -0.1229  0.2344
    1W        W37953   2.367  20.559   2.273  0.1762  0.0997 -0.0868
    1W        W37954  26.870  23.604   8.685  0.0691  0.1788  0.1420
    1W        W37955   7.166  15.607   6.581  0.1512  0.3302  0.0355
    1W        W37956  26.436   8.397   7.857 -0.0310  0.1657 -0.5073
    1W        W37957  20.935  27.014   0.710 -0.0167 -0.0611 -0.3624
    1W        W37958   9.497  14.011   7.347 -0.0797 -0.1559 -0.0916
    1W        W37959   1.264   3.699   6.595 -0.0201 -0.4014  0.0471
    1W        W37960  11.391  19.615   5.672  0.0606  0.4817  0.0810
    1W        W37961  22.898  22.823   1.224  0.1155  0.0788 -0.1934
    1W        W37962  13.151   8.225   1.288 -0.0839  0.0503 -0.2530
    1W        W37963  15.001  21.649   6.374  0.1545 -0.2022 -0.0789
    1W        W37964  21.934   8.191   8.226  0.1616  0.0888 -0.1362
    1W        W37965  20.042   2.305   2.713 -0.0484  0.0091  0.2089
    1W        W37966  12.469  26.331   6.575  0.0035  0.0621  0.1583
    1W        W37967   3.272  18.430   2.232 -0.2355 -0.3425 -0.2174
    1W        W37968   6.774  23.686   1.238 -0.2584  0.2100 -0.2220
    1W        W37969   8.847  13.685   7.887 -0.1149  0.0670 -0.1680
    1W        W37970  19.071  10.434   6.962 -0.1215  0.0768 -0.1838
    1W        W37971  21.470  11.483   0.287  0.0561 -0.1258  0.0904
    1W        W37972   4.715  25.422   9.633  0.1391 -0.1889  0.4441
    1W        W37973  27.609  14.710   7.547  0.0401 -0.0697  0.0299
    1W        W37974  15.902  22.951   6.768  0.0480  0.2949  0.0705
    1W        W37975   1.444  17.429   0.190 -0.3825 -0.0477  0.1114
    1W        W37976  11.630  25.765   2.174 -0.2501 -0.2475  0.2042
    1W        W37977  19.084   6.173   1.602  0.0568  0.0351 -0.0317
    1W        W37978   9.031  20.000   9.508  0.2200  0.1314 -0.2383
    1W        W37979  12.921  21.888   9.009  0.1344 -0.1037  0.0353
    1W        W37980  22.717  16.356   9.590 -0.1047 -0.0695  0.2098
    1W        W37981  23.700  17.034   8.973  0.2573 -0.1278  0.0771
    1W        W37982  20.465  12.199   8.736 -0.3562  0.0608  0.3257
    1W        W37983  24.698  12.477   0.434 -0.1547  0.0525 -0.2357
    1W        W37984  17.039   2.415   2.263  0.0026  0.1377  0.2897
    1W        W37985   8.967  10.844   0.334  0.0865  0.1721  0.0792
    1W        W37986  11.463   2.908   8.145  0.1461 -0.2296 -0.2965
    1W        W37987  25.939  17.060   1.658 -0.2197 -0.0882 -0.1620
    1W        W37988   1.016  15.644   0.076 -0.1490  0.0517 -0.1509
    1W        W37989   1.037  25.155   9.276 -0.0996 -0.1266  0.3947
    1W        W37990  25.732  20.564   3.023 -0.0249 -0.1713 -0.2844
    1W        W37991  14.598  23.041   9.418  0.1266  0.2610 -0.0614
    1W        W37992  25.302  21.691   8.719  0.0723 -0.0736  0.3106
    1W        W37993   5.736   9.942   1.313 -0.1931  0.3496  0.1162
    1W        W37994  15.642  23.948   8.242  0.0200 -0.2318  0.1633
    1W        W37995  12.623   4.509   1.207 -0.1336  0.2521 -0.0939
    1W        W37996  21.985  15.653   9.250 -0.0723  0.3411  0.0743
    1W        W37997   5.074   1.480   0.766  0.0489 -0.0794  0.2431
    1W        W37998  14.507   5.692   0.084  0.0477  0.4349 -0.3011
    1W        W37999  18.262  27.011   0.525 -0.1873  0.1569 -0.1648
    1W        W38000  11.267   1.102   5.890 -0.1949  0.0490  0.2385
    1W        W38001   4.654   4.981   6.642  0.1342 -0.0110 -0.1502
    1W        W38002  17.673  22.724   1.066 -0.4356 -0.0234  0.1331
    1W        W38003  26.073  19.883   0.507 -0.1909  0.1050 -0.0952
    1W        W38004  27.482  28.329   0.322  0.0912  0.1942 -0.0494
    1W        W38005   5.191  16.516   0.410 -0.1058  0.1106 -0.3163
    1W        W38006  10.401   0.672   9.138 -0.1807  0.2858 -0.0325
    1W        W38007  20.484   5.274   1.030 -0.1613 -0.2057  0.0335
    1W        W38008   2.481   0.179   9.413 -0.1675  0.0183 -0.0512
    1W        W38009  13.062  13.915   0.259  0.1023 -0.1501  0.3397
    1W        W38010  28.646  13.490   9.398  0.1946 -0.1629  0.0622
    1W        W38011   6.819   2.464   9.152  0.2216  0.0518 -0.0856
    1W        W38012  13.425   9.457   8.164  0.0864 -0.1006  0.0843
    1W        W38013   0.990   2.534   2.289  0.1365 -0.1339  0.0079
    1W        W38014  14.918  25.064   1.906  0.0539 -0.3179  0.0679
    1W        W38015  13.266  15.414   8.931  0.0852  0.0317  0.3179
    1W        W38016   2.940   1.689   9.430 -0.2387  0.0902  0.1397
    1W        W38017  17.129   5.409   1.446 -0.2380 -0.0629  0.0717
    1W        W38018  28.811   3.764   8.537 -0.1021  0.0117  0.0469
    1W        W38019   4.659  15.185   2.045  0.1860 -0.1074  0.0940
    1W        W38020   8.575  24.190   6.912 -0.1086  0.1415 -0.1701
    1W        W38021  21.239   5.847   3.186  0.4631  0.0772  0.2147
    1W        W38022  20.643   4.944   1.536  0.2700  0.0328  0.1922
    1W        W38023  13.931   2.449   1.996 -0.2872 -0.1221  0.0695
    1W        W38024  10.723  24.033   6.686 -0.0697 -0.0658  0.1768
    1W        W38025  17.107  10.697   9.269  0.1142  0.0097  0.0930
    1W        W38026  17.291  11.752   8.988 -0.0239 -0.0529  0.1508
    1W        W38027   9.012  13.577   9.284 -0.0949  0.0763  0.1637
    1W        W38028   1.802  26.448   3.351 -0.0107 -0.0221 -0.0658
    1W        W38029  16.020  23.273   0.947  0.0919 -0.0336  0.0045
    1W        W38030  18.008  28.490   1.197 -0.1415 -0.1380 -0.1122
    1W        W38031   0.713   5.532   6.389  0.1585 -0.1362  0.2368
    1W        W38032   2.504  17.349   6.981  0.1185 -0.0177  0.2844
    1W        W38033   8.500  27.281   6.185 -0.2272  0.0636  0.0733
    1W        W38034  11.003   8.930   9.466 -0.0306  0.1833  0.0637
    1W        W38035   8.686   1.035   6.951 -0.0565  0.1950 -0.2670
    1W        W38036  18.287   8.928   8.507  0.1456  0.0338 -0.1445
    1W        W38037  17.352  12.193   1.612  0.1819 -0.0898 -0.1022
    1W        W38038  23.888   0.010   8.755 -0.0849  0.0622 -0.1873
    1W        W38039   0.001   8.023   1.503 -0.0459  0.1458  0.0005
    1W        W38040  21.343  27.875   7.303 -0.3947  0.1409 -0.2679
    1W        W38041  27.401   8.510   0.462 -0.0970  0.0116 -0.0314
    1W        W38042  10.268   6.431   2.343 -0.0101  0.2182  0.3127
    1W        W38043  10.551  16.616   7.833 -0.0381  0.0203  0.1131
    1W        W38044  28.801  14.949   2.048  0.1569  0.0939  0.1982
    1W        W38045   6.148  19.321   8.804 -0.0375  0.1989  0.0102
    1W        W38046  16.243   1.251   8.646  0.1253 -0.2006 -0.2052
    1W        W38047   1.349   8.604   7.580  0.0957 -0.2769  0.0423
    1W        W38048  19.071  20.074   1.539  0.1254 -0.0507  0.2726
    1W        W38049   8.987  15.511   8.001 -0.0788 -0.2862  0.0817
    1W        W38050  17.854  11.047   1.751 -0.1862  0.0803  0.0778
    1W        W38051  21.793  16.074   2.894  0.1393 -0.0665 -0.1444
    1W        W38052   4.880  14.573   1.315 -0.0338  0.2086 -0.0436
    1W        W38053   5.923  29.085   7.060 -0.1833  0.0154 -0.0825
    1W        W38054  25.509  27.714   0.907  0.0885 -0.3885  0.0713
    1W        W38055  21.986   5.368   1.949 -0.1888  0.2480  0.0814
    1W        W38056  24.544   2.137   9.311  0.2353 -0.1631  0.2220
    1W        W38057   2.125  21.507   0.089 -0.1153 -0.0973  0.1165
    1W        W38058   0.561  27.191   8.753  0.2585  0.1874 -0.2205
    1W        W38059   1.160   0.530   6.729 -0.1335  0.1717 -0.0365
    1W        W38060  20.436  12.426   1.310 -0.4787 -0.0168  0.0460
    1W        W38061   9.738  11.295   7.877 -0.0054  0.3595 -0.2771
    1W        W38062   4.983  27.013   7.369  0.1954  0.1756  0.0151
    1W        W38063  20.725  23.414   7.808 -0.0771  0.0048  0.3025
    1W        W38064   8.726  17.505   0.722  0.3634 -0.2866  0.2215
    1W        W38065  15.912   6.230   1.540  0.1687 -0.0530  0.4531
    1W        W38066  19.377  17.010   9.359 -0.1738  0.1303 -0.3591
    1W        W38067  15.206  19.625   5.839 -0.0205 -0.1401 -0.0792
    1W        W38068   4.522  23.320   0.983  0.1165  0.1051  0.0456
    1W        W38069  21.076  27.281   3.817  0.0063  0.2024  0.1985
    1W        W38070   7.612  12.002   1.533 -0.0135 -0.0926 -0.0574
    1W        W38071  24.342  19.787   1.730 -0.1235 -0.0621 -0.2690
    1W        W38072  19.403  24.669   7.946 -0.0211 -0.0409 -0.1368
    1W        W38073  17.377   2.006   2.912 -0.0630 -0.2076  0.1113
    1W        W38074  20.582  25.277   1.938  0.1226  0.2419  0.1980
    1W        W38075   7.907  28.549   7.964  0.1375  0.0774 -0.0113
    1W        W38076   2.398  17.425   3.085 -0.0880  0.1277 -0.0898
    1W        W38077  25.892  16.958   0.590  0.1734  0.2771 -0.1156
    1W        W38078   3.380   3.516   9.428  0.1716 -0.0411  0.0065
    1W        W38079   4.273  11.482   8.355  0.0446  0.1807  0.0569
    1W        W38080  20.896   6.429   8.663  0.0074 -0.2505 -0.0819
    1W        W38081   8.824   9.565   6.660 -0.0704  0.0062  0.1052
    1W        W38082  12.791   7.489   9.150 -0.0028  0.0072 -0.2192
    1W        W38083  16.417  27.395   9.106 -0.1132 -0.1491 -0.1474
    1W        W38084   8.932   1.668   0.341  0.0633 -0.0147 -0.0210
    1W        W38085   7.954  11.382   0.917 -0.1131  0.1166  0.1264
    1W        W38086  27.499  10.772   7.656  0.0011 -0.3077 -0.2966
    1W        W38087  16.357  16.813   7.382  0.0234  0.4049 -0.0387
    1W        W38088  16.407   7.075   0.957  0.2422 -0.0776 -0.4388
    1W        W38089  29.246  28.465   6.378 -0.2977  0.0060  0.3482
    1W        W38090  26.930   5.574   7.887  0.1694 -0.1156  0.0267
    1W        W38091  13.750  12.757   7.247  0.0247 -0.3634 -0.0252
    1W        W38092   4.159  22.398   2.894  0.0527 -0.2434  0.1181
    1W        W38093  28.789  20.120   0.251  0.1302  0.1130  0.0858
    1W        W38094   7.568   6.832   1.291  0.0235  0.0306 -0.1726
    1W        W38095  23.959  28.430   7.359 -0.0173  0.0146  0.1215
    1W        W38096  12.670  16.464   9.253 -0.0745  0.1173  0.2019
    1W        W38097  28.871  25.104   0.326 -0.2651  0.1175 -0.0351
    1W        W38098  14.018  13.208   7.449  0.0634 -0.1234  0.2729
    1W        W38099  24.652  17.372   7.993  0.0432 -0.1650  0.2180
    1W        W38100   3.665  15.386   7.428  0.1349 -0.0919  0.1679
    1W        W38101  23.725  14.976   7.418 -0.1791 -0.0046  0.4024
    1W        W38102  15.519   1.572   7.469  0.1641 -0.1115  0.0928
    1W        W38103  20.149  17.719   7.739 -0.0558 -0.2276 -0.1214
    1W        W38104   2.406   3.995   1.901 -0.2095  0.2445 -0.1230
    1W        W38105  23.888  29.596   0.539  0.4126  0.0003  0.2451
    1W        W38106  24.625  24.696   1.933 -0.0304  0.0185 -0.1686
    1W        W38107  23.492  16.558   6.690  0.0663 -0.0214 -0.2223
    1W        W38108  13.043  24.546   7.076  0.0934 -0.1529  0.0046
    1W        W38109  16.022   6.834   1.200  0.0132  0.1293  0.2883
    1W        W38110   0.550  21.897   0.279 -0.0660 -0.0644  0.0094
    1W        W38111  23.640  21.233   3.743 -0.0482  0.0419  0.2308
    1W        W38112   1.461   8.662   9.076  0.0118  0.3890 -0.4268
    1W        W38113  14.110   0.126   1.349 -0.3349  0.0590 -0.1689
    1W        W38114  20.270  20.264   8.480 -0.0597  0.1104 -0.4538
    1W        W38115  20.702  10.812   8.249 -0.1245  0.0916  0.1961
    1W        W38116  19.703  19.046   2.947  0.0929 -0.1620  0.1275
    1W        W38117   6.614  15.701   9.483  0.2777  0.1886 -0.3772
    1W        W38118   7.309  16.262   1.625  0.0767  0.0429  0.0967
    1W        W38119   1.013  20.296   3.552 -0.1113 -0.0177  0.2082
    1W        W38120   9.344   1.488   7.990 -0.2564  0.1247  0.0413
    1W        W38121   3.014  21.300   0.064 -0.0363  0.1211 -0.1886
    1W        W38122  13.012  14.119   1.091  0.1049  0.1948 -0.0941
    1W        W38123  17.269   4.936   6.967  0.0538 -0.4488  0.3231
    1W        W38124  13.701  21.204   8.871 -0.1561  0.1455 -0.2768
    1W        W38125  12.788  22.965   8.228 -0.3170  0.1303 -0.1265
    1W        W38126   7.637  19.992   8.990  0.0197  0.0520  0.0226
    1W        W38127  10.362   4.347   0.892 -0.1414  0.4315 -0.0871
    1W        W38128   7.029   8.084   8.662  0.1909  0.0660  0.1458
    1W        W38129  20.930  12.103   9.522  0.1320 -0.0769  0.2509
    1W        W38130   2.303  17.099   0.610 -0.1503  0.0341 -0.0497
    1W        W38131  29.318  26.270   8.661  0.1147  0.0373  0.2902
    1W        W38132  28.780  28.005   1.761  0.0909  0.0616  0.2400
    1W        W38133   8.678   5.715   8.548 -0.1549 -0.2313 -0.1266
    1W        W38134  12.143  12.325   6.507  0.1725 -0.0862  0.1477
    1W        W38135  25.906  10.603   2.288  0.2157 -0.0925 -0.0209
    1W        W38136   0.993  25.326   1.149  0.2755  0.2009  0.3615
    1W        W38137  17.202   5.204   2.489 -0.0185  0.0897 -0.1316
    1W        W38138   1.399   1.258   3.060 -0.0140 -0.2453 -0.3136
    1W        W38139  10.021  11.913   5.943  0.1115 -0.0869 -0.3270
    1W        W38140  18.466   8.569   2.842  0.4218 -0.0791 -0.1849
    1W        W38141   8.718  29.178   1.972  0.2490  0.1168 -0.2745
    1W        W38142  25.500   4.977   8.750 -0.0193 -0.1035  0.0358
    1W        W38143   8.765  27.510   7.645 -0.0235  0.0076 -0.3271
    1W        W38144  25.708  28.951   7.640  0.0390 -0.0351  0.1346
    1W        W38145  10.538   5.129   8.819 -0.2338 -0.1690 -0.0295
    1W        W38146  22.405  16.010   0.972  0.1405 -0.0389  0.0181
    1W        W38147  13.861  13.800   0.656 -0.1112  0.0479 -0.3106
    1W        W38148  28.888  26.790   9.607 -0.1261  0.1897  0.1862
    1W        W38149  10.157  17.662   8.685 -0.0350  0.1854 -0.2382
    1W        W38150   6.235   9.023   6.026 -0.2122 -0.1448  0.0688
    1W        W38151  21.252  12.073   1.181 -0.3159  0.2173  0.3082
    1W        W38152  11.601   4.911   8.592  0.3079  0.1309 -0.0495
    1W        W38153   6.020  11.045   8.050  0.0608  0.2482  0.0260
    1W        W38154   4.497  26.341   7.276 -0.2086 -0.4243  0.3228
    1W        W38155  24.117   3.736   3.030 -0.3634 -0.0226 -0.3291
    1W        W38156   5.106   7.071   1.050 -0.2098  0.0598  0.0499
    1W        W38157   0.520  20.263   1.222 -0.1759  0.0299 -0.2740
    1W        W38158  26.369  19.126   8.017  0.0709 -0.0310 -0.0304
    1W        W38159  25.236   4.828   7.397  0.1402 -0.0104  0.3477
    1W        W38160  19.778  24.713   2.863  0.0406 -0.0456 -0.1093
    1W        W38161   8.049  21.124   0.295  0.0610  0.0650 -0.1235
    1W        W38162   2.126   4.107   6.903 -0.0719 -0.2078  0.0277
    1W        W38163   1.156  12.341   8.770  0.1092  0.2353 -0.1008
    1W        W38164  23.634   7.997   0.080 -0.0052 -0.2506  0.0188
    1W        W38165  24.190  27.566   2.511  0.2824 -0.1083 -0.0603
    1W        W38166  13.733  16.302   6.008 -0.0853  0.5356  0.0714
    1W        W38167  19.457  24.456   1.680  0.0309  0.1805 -0.1327
    1W        W38168   0.732  20.073   7.979 -0.0017  0.2001 -0.0297
    1W        W38169   5.958  10.706   1.357 -0.0034 -0.3168 -0.0069
    1W        W38170  13.888   0.415   9.146 -0.1202  0.1543 -0.2215
    1W        W38171  24.011   0.467   7.901  0.2006  0.1419 -0.1145
    1W        W38172  11.676  16.635   9.416  0.2801  0.0921 -0.2178
    1W        W38173  10.992  18.104   9.411 -0.0122 -0.1877  0.1196
    1W        W38174  21.875   9.084   0.230 -0.0116  0.0946  0.1422
    1W        W38175   5.223   1.748   6.270  0.1015  0.0062 -0.2562
    1W        W38176   8.212   2.899   7.763 -0.1694  0.0269 -0.0733
    1W        W38177   6.281  29.143   1.110 -0.2395 -0.0574  0.1112
    1W        W38178  29.297  24.600   8.920  0.0163  0.0770 -0.0382
    1W        W38179  23.153  16.995   2.419  0.2108 -0.0199 -0.1147
    1W        W38180  21.013  25.195   1.651 -0.1561 -0.2847  0.0653
    1W        W38181  12.349   4.663   0.052 -0.1824  0.4053  0.1772
    1W        W38182   1.603   9.176   8.900  0.1353 -0.0232  0.2682
    1W        W38183  11.375  20.166   1.154  0.1158  0.1427  0.2641
    1W        W38184  26.578   4.578   7.794 -0.1064  0.4688  0.0561
    1W        W38185  25.895  17.051   7.910  0.0473  0.0505  0.1005
    1W        W38186  23.277   6.873   7.357 -0.1258 -0.0194  0.0728
    1W        W38187   0.185  11.001   9.517  0.0431  0.5670 -0.0781
    1W        W38188   9.200   6.344   6.236  0.3315  0.1983  0.1507
    1W        W38189  29.598   0.841   1.933  0.0111 -0.4695 -0.2010
    1W        W38190   0.545  16.932   1.066 -0.1093 -0.2537  0.2277
    1W        W38191  24.356  14.830   0.051 -0.0042 -0.1169  0.1080
    1W        W38192   3.274   4.211   2.162  0.0889  0.1911 -0.1023
    1W        W38193   9.448   7.172   0.909 -0.1108 -0.5466 -0.0196
    1W        W38194  19.111   3.312   2.186 -0.0307  0.4029 -0.0139
    1W        W38195   9.798  24.869   1.719  0.1168 -0.1518  0.1562
    1W        W38196  28.382  14.477   8.588 -0.2216  0.0830 -0.4548
    1W        W38197  29.217  17.115   2.076 -0.0413  0.0349  0.2740
    1W        W38198   5.715  17.521   7.534 -0.3215 -0.0121  0.0675
    1W        W38199   2.631  12.666   1.288 -0.2300  0.0037  0.0476
    1W        W38200   7.972   9.519   1.117  0.1739 -0.2595 -0.0304
    1W        W38201  18.782  10.423   7.386 -0.0105  0.2130 -0.0911
    1W        W38202  16.538  15.478   1.366 -0.0299 -0.0679  0.1501
    1W        W38203  26.055  23.222   1.575  0.0881  0.1653  0.1934
    1W        W38204  29.350  15.322   0.349  0.3841  0.0624  0.2137
    1W        W38205  27.316  26.628   8.228  0.0357  0.1532  0.0496
    1W        W38206  13.578  22.315   1.169  0.2080 -0.1290 -0.0338
    1W        W38207  16.985  19.931   0.149 -0.0290 -0.3504 -0.0652
    1W        W38208   6.572  13.393   7.606  0.1737  0.0292  0.0881
    1W        W38209  18.982  23.839   3.955  0.3553 -0.4334 -0.2179
    1W        W38210   2.503  23.404   2.366  0.3278 -0.0881 -0.1168
    1W        W38211   4.669  21.762   1.172 -0.1751 -0.1759 -0.0027
    1W        W38212  17.562  27.436   7.258  0.0681 -0.2743  0.0373
    1W        W38213   0.116   6.752   6.345  0.1808 -0.2476 -0.4330
    1W        W38214  16.408   7.364   1.786  0.2976 -0.2355 -0.0589
    1W        W38215  20.508  10.512   1.452  0.1713 -0.0262 -0.2367
    1W        W38216  23.877  22.040   4.133  0.0345  0.2269 -0.0311
    1W        W38217   4.448  12.220   7.243 -0.1140 -0.1886  0.1759
    1W        W38218  18.888  27.962   3.359  0.0495  0.2731  0.0906
    1W        W38219  27.775  15.283   0.152 -0.2484 -0.1302 -0.0956
    1W        W38220  10.766  12.345   2.400 -0.0018 -0.2145  0.2509
    1W        W38221  20.797  10.073   8.763 -0.2242  0.0130  0.2567
    1W        W38222   2.645  24.224   2.557  0.0115 -0.2156 -0.1846
    1W        W38223   7.219  28.391   5.961  0.1339 -0.0367  0.0512
    1W        W38224  12.637  24.655   1.346  0.0220 -0.0151 -0.0796
    1W        W38225   4.538  11.438   8.904 -0.2027  0.0419  0.0526
    1W        W38226  16.783  19.142   0.601  0.0015 -0.1233 -0.0553
    1W        W38227   4.253  14.050   7.343 -0.2096 -0.0996 -0.1410
    1W        W38228  23.605   2.026   8.912  0.0667 -0.0198 -0.1358
    1W        W38229   7.651  19.192   1.698 -0.2841 -0.1591  0.0915
    1W        W38230  27.623  24.083   1.088  0.1190  0.2334  0.0459
    1W        W38231   0.774  29.236   7.241 -0.2064  0.0408  0.2071
    1W        W38232  28.378  21.391   8.618  0.4051 -0.0824 -0.0253
    1W        W38233  17.638   2.913   8.875 -0.0340 -0.0569 -0.0378
    1W        W38234   8.616  14.534   0.391  0.3105 -0.0300  0.1117
    1W        W38235   4.387  10.456   8.261  0.0987  0.0929 -0.1429
    1W        W38236  21.526  20.704   8.964 -0.1699  0.1369  0.0752
    1W        W38237   9.218  24.846   0.616 -0.1499 -0.0326  0.1184
    1W        W38238  26.937  17.068   6.952  0.3139  0.0310  0.2750
    1W        W38239  28.318  19.042   1.578 -0.1285 -0.0691  0.1283
    1W        W38240  17.748  29.566   2.793  0.3100 -0.1304 -0.0956
    1W        W38241  13.516   5.965   1.828  0.0005  0.0063  0.1328
    1W        W38242   4.726  24.747   1.588 -0.0598  0.1874  0.2616
    1W        W38243   2.546  18.731   6.571 -0.0095 -0.2413 -0.2316
    1W        W38244  15.770  12.096   2.385  0.0458 -0.0254 -0.0035
    1W        W38245  18.468   8.978   8.037  0.2036 -0.0425  0.3181
    1W        W38246   2.329  21.325   7.772  0.1312  0.2685 -0.0445
    1W        W38247  14.625  17.505   1.628  0.2703 -0.0662  0.0887
    1W        W38248   5.089  21.971   8.598 -0.1785 -0.0890 -0.0640
    1W        W38249  21.057   7.374   2.447 -0.0806 -0.0287 -0.0362
    1W        W38250  10.278  17.185   7.358  0.0292 -0.0533  0.1921
    1W        W38251  16.871  15.069   8.696  0.2124  0.2756  0.1202
    1W        W38252   4.865  22.842   0.736 -0.1831  0.0719 -0.1288
    1W        W38253   5.627  17.342   8.269 -0.0700  0.1043 -0.0399
    1W        W38254  29.035  15.133   6.776  0.0712  0.1440 -0.1634
    1W        W38255  18.013  11.533   9.621  0.1187 -0.3483  0.1465
    1W        W38256   3.577  21.573   0.729 -0.2677  0.2954  0.0389
    1W        W38257  20.112  12.441   8.330 -0.2381 -0.0510 -0.1121
    1W        W38258   5.722  21.829   8.222  0.0183  0.1029 -0.0483
    1W        W38259  15.661  14.249   0.678  0.2704  0.0864  0.3131
    1W        W38260  11.016  11.785   7.121  0.1083 -0.1903  0.1626
    1W        W38261   6.643   8.348   1.299  0.0922  0.1345 -0.1149
    1W        W38262  16.345  11.685   1.238 -0.4732  0.0181  0.1282
    1W        W38263  27.371   1.277   7.973 -0.3647  0.1989  0.1871
    1W        W38264  18.370  27.209   1.953  0.0460 -0.1340  0.3742
    1W        W38265  17.971  28.515   2.689  0.3039 -0.1277 -0.0212
    1W        W38266   6.622  21.007   9.413 -0.0049 -0.0785  0.3624
    1W        W38267  29.424  13.514   2.076  0.1672  0.0779 -0.0420
    1W        W38268  29.304  25.956   2.634 -0.0318 -0.2639  0.3040
    1W        W38269  20.100  13.646   8.447  0.1907 -0.3151 -0.1142
    1W        W38270  12.275  12.309   0.158 -0.3167 -0.0206  0.1906
    1W        W38271  23.902   3.535   1.139 -0.0474  0.4076 -0.0384
    1W        W38272  12.117   8.430   7.813 -0.0782  0.1147  0.0729
    1W        W38273  26.035   6.580   7.071 -0.0247 -0.0056  0.1078
    1W        W38274  26.513   2.974   1.005 -0.1338 -0.2021  0.2435
    1W        W38275   0.747  24.160   2.686  0.0430 -0.4975 -0.3549
    1W        W38276   7.655  28.999   5.864 -0.1407 -0.1319 -0.1037
    1W        W38277  22.986  20.539   1.213  0.0093  0.3401 -0.1813
    1W        W38278  19.805  13.051   1.421 -0.1594 -0.2511 -0.0449
    1W        W38279  19.096  26.389   8.475  0.0367  0.1511  0.0357
    1W        W38280   6.145  25.989   1.603 -0.1905  0.1732 -0.2683
    1W        W38281  18.151  19.765   2.104  0.3249 -0.1286  0.0307
    1W        W38282  22.571  11.117   1.298  0.1315  0.1070  0.2209
    1W        W38283  20.846   9.123   7.639  0.1371  0.0747  0.2263
    1W        W38284   2.017  24.905   3.087  0.0665  0.2587 -0.0494
    1W        W38285  13.864  28.691   7.138  0.1036  0.1694  0.2707
    1W        W38286  23.572  16.380   1.991 -0.1110 -0.0771 -0.0358
    1W        W38287   6.714  15.939   8.519 -0.1531  0.0752 -0.1683
    1W        W38288  25.779  20.084   2.133 -0.1402 -0.3291 -0.1277
    1W        W38289  26.904  15.575   8.912  0.0654  0.0706 -0.0961
    1W        W38290  23.861  21.571   1.128 -0.2251  0.1449  0.2236
    1W        W38291  23.406   0.205   9.538  0.1871 -0.1077  0.3275
    1W        W38292   6.729  18.515   2.527 -0.3186 -0.0351  0.0802
    1W        W38293   3.105   8.019   0.482 -0.1520  0.4269 -0.0429
    1W        W38294  22.782  10.907   2.238 -0.1165 -0.2335  0.0363
    1W        W38295  28.661  10.623   7.262 -0.1537 -0.1639 -0.0620
    1W        W38296  20.748   2.811   7.998 -0.3012  0.1170  0.1329
    1W        W38297  13.432  26.424   9.445  0.1701 -0.1242 -0.1766
    1W        W38298   6.219  24.065   1.875  0.2948  0.0220  0.1912
    1W        W38299   2.840  25.800   9.409  0.0317 -0.2096 -0.1465
    1W        W38300  14.386  19.418   8.889 -0.2314  0.0332  0.2418
    1W        W38301   9.917  20.915   7.062  0.1621 -0.2032  0.3486
    1W        W38302  21.699  24.324   3.778  0.1092 -0.3021  0.2083
    1W        W38303   2.201   9.304   8.700 -0.1331  0.1507  0.0542
    1W        W38304  20.978  28.468   1.392  0.1345  0.0421 -0.3779
    1W        W38305  15.605  17.676   1.838 -0.2171  0.1761  0.0110
    1W        W38306  26.938  18.390   2.623  0.1225 -0.2654 -0.2602
    1W        W38307  16.590  22.801   2.670 -0.0170  0.2879  0.1332
    1W        W38308  22.481  25.484   0.266 -0.0699 -0.1216 -0.2745
    1W        W38309   4.922   7.535   0.967  0.2517  0.0017  0.0706
    1W        W38310  14.007  19.686   8.527 -0.0010  0.0716 -0.0146
    1W        W38311   3.638  23.419   0.468 -0.1370  0.1332  0.1159
    1W        W38312  22.648   0.244   8.050 -0.0692 -0.2759 -0.1563
    1W        W38313  19.745  16.048   8.154 -0.3788 -0.0652  0.0218
    1W        W38314  21.835   7.893   9.423 -0.0115  0.0190  0.4244
    1W        W38315   2.937  29.529   9.482 -0.0824 -0.2312 -0.1980
    1W        W38316  11.458  27.908   5.961  0.0482  0.0356  0.0911
    1W        W38317  15.282   7.664   2.443  0.6738 -0.1283  0.0930
    1W        W38318  28.267  20.500   9.415  0.1702  0.4688  0.4572
    1W        W38319  21.149  19.591   3.587  0.0388  0.0790 -0.1366
    1W        W38320  10.806  12.356   8.318 -0.3193  0.0598 -0.0357
    1W        W38321  28.402   2.082   8.247 -0.1295 -0.0794 -0.1181
    1W        W38322  13.309  25.117   8.194 -0.0984 -0.0496 -0.1379
    1W        W38323   6.659  21.808   7.467 -0.0460 -0.1885 -0.0463
    1W        W38324  27.320  16.039   2.176 -0.0322 -0.2899  0.2504
    1W        W38325   7.785   6.367   1.326 -0.0355  0.0622 -0.1944
    1W        W38326  14.857  15.431   7.301  0.1068 -0.0978  0.2219
    1W        W38327   3.835   2.289   7.291 -0.1008 -0.0539 -0.0591
    1W        W38328  13.594  10.707   2.213  0.1255 -0.0038 -0.0010
    1W        W38329   2.148  22.883   9.250  0.1534 -0.0854  0.0920
    1W        W38330   5.078   2.756   1.817 -0.1893  0.0862 -0.2924
    1W        W38331  25.085  12.127   8.349 -0.0977  0.0011 -0.1426
    1W        W38332  11.681   8.698   8.726  0.1457  0.1127 -0.3348
    1W        W38333  13.074  14.675   8.594  0.0881  0.0846 -0.0659
    1W        W38334  11.607   8.864   3.091 -0.1476  0.2042 -0.1096
    1W        W38335  25.372  17.720   2.747 -0.4802 -0.3575 -0.0469
    1W        W38336  12.894  12.880   9.196 -0.1890 -0.2003  0.0813
    1W        W38337   2.998  15.682   8.527  0.2553  0.2342 -0.1168
    1W        W38338   5.828  27.736   3.039  0.4333  0.0776 -0.0941
    1W        W38339  22.964  17.735   9.557  0.0090  0.0634  0.0864
    1W        W38340  24.392  21.906   8.428  0.0926 -0.1121 -0.0451
    1W        W38341  14.028   5.960   1.920 -0.0937 -0.4020 -0.2831
    1W        W38342  11.245   8.389   7.479  0.1698  0.1118  0.0432
    1W        W38343  20.833   0.374   0.698  0.2559 -0.0120 -0.0643
    1W        W38344  18.282  26.181   7.460  0.2904 -0.0194 -0.1623
    1W        W38345   5.448  28.207   7.425  0.2179  0.2404 -0.4384
    1W        W38346  13.510  14.044   1.123 -0.1914 -0.2252  0.1852
    1W        W38347   4.395  16.300   6.484 -0.1950  0.1957  0.1097
    1W        W38348  16.873  28.842   1.041  0.1394  0.1333  0.0242
    1W        W38349  10.703   1.196   0.444 -0.2517  0.0582  0.0222
    1W        W38350   8.713   1.478   7.132 -0.1195 -0.2529  0.1115
    1W        W38351   9.664   6.269   8.883  0.1744  0.0334 -0.0794
    1W        W38352  19.355   7.417   2.261 -0.1028  0.0142 -0.1379
    1W        W38353  27.226  20.161   0.509 -0.2439  0.0160 -0.2112
    1W        W38354   5.039   0.294   2.585  0.0536 -0.2307 -0.0248
    1W        W38355  25.484  20.296   9.128  0.3151 -0.3019 -0.0360
    1W        W38356  11.892  12.640   9.417 -0.0207  0.0706 -0.1131
    1W        W38357  23.575  27.930   1.427 -0.0635  0.0042 -0.1492
    1W        W38358  24.387   9.743   8.493  0.1803 -0.0686  0.0840
    1W        W38359  16.947  12.279   0.866  0.0823  0.0882 -0.0558
    1W        W38360   7.549   9.707   0.135 -0.0931  0.0571  0.1467
    1W        W38361   8.449   1.184   1.605 -0.2794 -0.0787 -0.1014
    1W        W38362  13.146  11.616   1.729  0.3275 -0.0831  0.1795
    1W        W38363  18.829   5.212   7.919  0.1365  0.0773  0.2412
    1W        W38364  29.066   7.576   9.206 -0.1872  0.1622  0.0858
    1W        W38365   9.334  23.989   8.587 -0.0916 -0.1999 -0.1597
    1W        W38366  16.716  13.601   9.208 -0.0152  0.0705 -0.1658
    1W        W38367  17.620   0.876   0.095 -0.2789  0.1540  0.0885
    1W        W38368  12.062  16.504   2.524 -0.0390 -0.2025 -0.1653
    1W        W38369  26.586  20.076   8.205  0.0658  0.2684  0.1447
    1W        W38370  13.789  12.621   9.484  0.0721  0.3802  0.1272
    1W        W38371  19.627  14.530   0.695 -0.1150 -0.2466  0.1547
    1W        W38372   3.906  13.379   1.224  0.0855 -0.2090 -0.1362
    1W        W38373  21.927  14.358   9.513 -0.1309 -0.0186 -0.1566
    1W        W38374   3.189  19.826   6.627 -0.1907 -0.0677 -0.2683
    1W        W38375   0.532  15.837   0.024 -0.0446 -0.3132  0.0089
    1W        W38376  16.467   4.974   9.243 -0.0061  0.2211  0.0178
    1W        W38377  21.093  16.981   7.277  0.0238 -0.0751 -0.1257
    1W        W38378  26.423   0.964   2.536 -0.1997  0.0934  0.0301
    1W        W38379  18.304  25.077   7.711  0.0188 -0.0145 -0.1900
    1W        W38380  25.376  25.135   2.854 -0.1063  0.3778 -0.0106
    1W        W38381  10.698   2.124   8.976 -0.1407  0.0369 -0.1688
    1W        W38382  26.419  17.273   1.756  0.1346 -0.0873  0.2671
    1W        W38383  17.827  19.680   9.393  0.3751  0.1071  0.2688
    1W        W38384   9.142   0.598   6.219 -0.1412  0.0730 -0.3561
    1W        W38385  18.387   7.514   9.301  0.0908  0.0554 -0.1410
    1W        W38386   9.378  23.738   7.399 -0.0495 -0.2531 -0.2078
    1W        W38387   1.996  25.686   1.854  0.1095 -0.0320 -0.1106
    1W        W38388  14.790   0.047   7.404 -0.0257  0.1084 -0.0539
    1W        W38389  22.551   4.381   2.535 -0.0721  0.0997  0.0493
    1W        W38390  19.435  28.255   7.315 -0.0895 -0.4047 -0.0762
    1W        W38391  11.905   6.553   7.466 -0.0659 -0.1954 -0.1753
    1W        W38392  11.519   5.397   8.568  0.3683  0.2711  0.1499
    1W        W38393  23.377   2.546   8.845  0.0584 -0.0727  0.1350
    1W        W38394  20.567  20.874   2.791 -0.0481 -0.0313  0.1467
    1W        W38395  18.661   1.547   7.866 -0.0602 -0.1824 -0.4294
    1W        W38396  16.404  27.751   0.375 -0.3107 -0.1206  0.0456
    1W        W38397  19.547   0.384   9.046 -0.2980  0.1346 -0.1504
    1W        W38398  14.128   8.337   8.565 -0.0082 -0.0777 -0.2805
    1W        W38399   0.142  26.826   2.559 -0.3368 -0.2381 -0.0861
    1W        W38400  15.166  25.733   2.713 -0.1087  0.0715 -0.1075
    1W        W38401  15.481  11.055   7.187 -0.2131  0.0463 -0.0225
    1W        W38402  24.569  29.120   7.263  0.2115 -0.0974 -0.2433
    1W        W38403  15.214  17.277   6.863 -0.0699  0.0464 -0.0438
    1W        W38404  14.902  21.415   2.292  0.1200 -0.1097  0.0768
    1W        W38405  15.450  20.532   2.909 -0.3391 -0.0320  0.3774
    1W        W38406   8.720   7.755   9.436 -0.2634  0.3392 -0.1710
    1W        W38407  27.083  21.722   1.954  0.1863  0.1198  0.2189
    1W        W38408  16.334  24.721   0.789  0.1766 -0.0119 -0.1501
    1W        W38409  21.783  20.689   9.425  0.0291 -0.2098  0.5136
    1W        W38410   2.992  26.558   0.918  0.0633  0.1024  0.1420
    1W        W38411  18.768  20.939   1.248 -0.0463  0.0608 -0.0780
    1W        W38412   6.401  19.230   1.208  0.0373  0.1914  0.1053
    1W        W38413  12.730   6.366   0.902 -0.0678  0.0099 -0.2153
    1W        W38414   6.920  11.774   7.509  0.0303 -0.0560  0.2874
    1W        W38415  23.781  26.535   7.565 -0.1407 -0.1578 -0.3508
    1W        W38416  18.442  23.090   8.820  0.0217  0.0646  0.1801
    1W        W38417   6.022   3.706   6.168  0.1665  0.0548  0.1106
    1W        W38418   3.603   1.667   2.429 -0.1855 -0.0267 -0.2437
    1W        W38419  20.445  23.012   8.463 -0.4306 -0.0223  0.1598
    1W        W38420  11.849  12.855   6.412 -0.0251  0.3311 -0.2912
    1W        W38421  27.475  21.078   2.348  0.4308  0.2445 -0.1060
    1W        W38422  26.386  11.986   1.902  0.2115 -0.1448  0.0845
    1W        W38423  24.003  28.215   1.432 -0.0169  0.0683 -0.3815
    1W        W38424   7.708   5.470   8.028  0.0649 -0.0230 -0.1749
    1W        W38425  12.023  16.532   0.404 -0.1505 -0.0147  0.0029
    1W        W38426   6.681   4.860   8.399  0.3132  0.1144  0.2017
    1W        W38427   0.673   8.430   8.748  0.0551 -0.3518  0.0375
    1W        W38428  27.961  22.444   8.342  0.5780 -0.1120  0.0306
    1W        W38429   3.947   3.597   7.496  0.0810  0.0708 -0.2314
    1W        W38430  14.258  21.703   0.750 -0.1366  0.1387  0.0989
    1W        W38431   9.419  11.557   1.142 -0.1617  0.0453 -0.1643
    1W        W38432  20.333   1.593   8.079  0.2086  0.1146  0.1048
    1W        W38433  12.551   4.390   5.910  0.2787  0.1759  0.2738
    1W        W38434  25.378  19.465   2.662 -0.0793 -0.0615  0.0055
    1W        W38435  18.997  23.693   7.920 -0.2255 -0.1346 -0.1317
    1W        W38436   8.182  13.359   8.526 -0.2018 -0.2241 -0.5800
    1W        W38437   1.742  28.729   8.104 -0.0114  0.1169  0.1548
    1W        W38438  25.809   0.374   2.819 -0.0265 -0.1220  0.2218
    1W        W38439  13.233   5.142   1.436 -0.0622 -0.1391  0.1566
    1W        W38440  20.014   3.800   0.537  0.1625 -0.2428 -0.2377
    1W        W38441  26.373  21.442   8.936  0.0835 -0.1252  0.0899
    1W        W38442  27.329   0.637   8.710 -0.3039 -0.1216  0.0082
    1W        W38443  22.254  14.538   0.824 -0.0607  0.0816 -0.1852
    1W        W38444  20.134  21.362   1.643  0.1027 -0.1883  0.1398
    1W        W38445  14.739  28.699   0.782 -0.3620  0.0564 -0.2300
    1W        W38446  21.036   6.921   7.970  0.6526  0.2808 -0.1388
    1W        W38447  15.782  28.517   9.451  0.0259  0.0995  0.0389
    1W        W38448  10.053  12.521   7.659  0.0910 -0.0689  0.1777
    1W        W38449  13.172  16.112   7.945 -0.3369 -0.2727  0.1442
    1W        W38450  15.851  23.149   8.443 -0.0039 -0.1436 -0.2692
    1W        W38451   7.386   9.155   1.705 -0.1846 -0.2250  0.0664
    1W        W38452  19.693  21.605   2.864 -0.0875  0.0882  0.0501
    1W        W38453  11.590  22.110   7.721 -0.3211 -0.0131 -0.0292
    1W        W38454  23.730  23.276   1.555  0.1610 -0.4454 -0.1084
    1W        W38455   6.731   9.052   1.981  0.0392 -0.1390 -0.0385
    1W        W38456   7.013  17.560   1.166 -0.1758  0.1233  0.0565
    1W        W38457   2.639   4.936   7.872 -0.0397  0.2429  0.0923
    1W        W38458  24.013  25.728   7.872  0.2445 -0.1660 -0.0542
    1W        W38459   7.355  26.909   0.924 -0.2783 -0.0040 -0.2099
    1W        W38460   5.704   1.867   2.160  0.2682 -0.0130  0.0378
    1W        W38461  14.424  10.617   9.076 -0.0286 -0.0480 -0.0266
    1W        W38462   7.427   5.321   6.043  0.0796  0.0362 -0.1448
    1W        W38463   4.599  22.594   9.223  0.4020 -0.0753 -0.1917
    1W        W38464   9.425  22.289   2.480  0.0807 -0.0307  0.1451
    1W        W38465  22.304   3.921   2.289 -0.0017  0.0834  0.0040
    1W        W38466   4.342  27.539   2.969 -0.0189  0.1118  0.5180
    1W        W38467  17.572  22.233   1.961  0.1493 -0.1184 -0.0831
    1W        W38468  24.661  22.878   1.817 -0.2324  0.0902  0.2446
    1W        W38469  29.592  22.673   2.201 -0.2563  0.0937  0.1328
    1W        W38470   2.554  11.722   1.664  0.0274  0.0464 -0.0772
    1W        W38471  24.731   0.427   0.978 -0.2230 -0.0387  0.2973
    1W        W38472  25.953  14.134   7.396  0.0685  0.0387  0.2472
    1W        W38473   8.868  19.420   8.121 -0.0746  0.0273 -0.1390
    1W        W38474  19.082  27.907   1.673 -0.1904  0.0120  0.0185
    1W        W38475  22.204   8.401   7.831  0.2839  0.1011 -0.3401
    1W        W38476  14.602  27.872   9.163  0.0556 -0.3776 -0.4271
    1W        W38477   4.571  22.256   1.895 -0.0045 -0.4107  0.0125
    1W        W38478  23.110   1.202   1.802 -0.0314  0.1519 -0.2522
    1W        W38479  20.599  26.114   3.907 -0.1238  0.1192 -0.2566
    1W        W38480   7.788  15.754   0.250  0.0339 -0.0163  0.5066
    1W        W38481  17.879  24.275   1.120 -0.2562  0.0297 -0.0190
    1W        W38482  21.916   1.825   7.664  0.1809 -0.2846 -0.0081
    1W        W38483  13.079  28.225   2.964 -0.1178 -0.2748 -0.1044
    1W        W38484  17.800  24.672   0.847 -0.0158 -0.0250 -0.1544
    1W        W38485  28.166   1.746   7.885  0.1033  0.0130 -0.0451
    1W        W38486  11.846   2.702   8.572 -0.2907  0.3188 -0.1969
    1W        W38487  16.388  16.703   0.919 -0.3951 -0.1375  0.3427
    1W        W38488  24.435   5.730   6.843  0.0105  0.2834  0.1121
    1W        W38489   3.104  17.724   2.255 -0.2992  0.0308 -0.0302
    1W        W38490   1.648  29.594   7.495  0.0399  0.0292 -0.1050
    1W        W38491  26.584   0.406   9.159 -0.0757  0.0260  0.2462
    1W        W38492  12.180  28.649   8.705 -0.0256  0.1360 -0.0911
    1W        W38493  12.629  15.596   6.390 -0.2420  0.0838  0.1562
    1W        W38494   4.538  19.264   2.554  0.2072  0.1255 -0.0208
    1W        W38495  25.669   0.899   1.790 -0.1395 -0.2618 -0.0010
    1W        W38496   6.604  13.445   2.275 -0.0119  0.4079  0.0151
    1W        W38497  26.413  10.969   2.299 -0.3745 -0.0388  0.2841
    1W        W38498   1.508  19.674   0.768  0.0070 -0.0133 -0.2943
    1W        W38499  13.593   6.140   2.293 -0.3496  0.1362  0.1784
    1W        W38500   2.804  25.180   7.123 -0.1364  0.1078 -0.0748
    1W        W38501  24.249   4.762   9.630 -0.1799  0.2759 -0.1595
    1W        W38502  11.380   2.519   1.361 -0.0697 -0.2561  0.2855
    1W        W38503  21.767  23.921   0.242 -0.1455 -0.3805  0.1019
    1W        W38504  16.628  20.290   1.433  0.2063  0.4244  0.2183
    1W        W38505   2.343  17.944   0.398 -0.0488  0.0012 -0.2135
    1W        W38506  23.997   5.701   7.151 -0.3357 -0.0170 -0.0795
    1W        W38507  19.625   0.342   8.516 -0.0630 -0.0584 -0.1750
    1W        W38508  10.055  25.800   1.673  0.0027  0.0632  0.1991
    1W        W38509  13.057  27.256   2.165 -0.1727 -0.4333 -0.2046
    1W        W38510   9.582  27.742   2.703 -0.1781  0.1298  0.2009
    1W        W38511  10.849  28.022   0.091  0.2090  0.0227 -0.1723
    1W        W38512  16.459  26.979   2.940  0.0702  0.0547  0.2347
    1W        W38513  12.603  16.478   2.446 -0.2121  0.1061 -0.0352
    1W        W38514  21.790  29.566   2.866 -0.1761  0.0632  0.0773
    1W        W38515  27.412   6.569   7.846  0.1279  0.2004  0.1541
    1W        W38516  17.364   3.350   1.440  0.0903  0.1977  0.0013
    1W        W38517   4.996  12.307   6.410  0.0007 -0.0607  0.2115
    1W        W38518  19.375  23.341   0.325 -0.0486  0.0250 -0.0403
    1W        W38519  11.086  23.198   7.911  0.0088  0.2321 -0.0819
    1W        W38520  28.948  27.272   1.394 -0.0427  0.0878 -0.0622
    1W        W38521   8.717  15.582   1.003  0.1591 -0.0126 -0.0428
    1W        W38522  10.439   7.394   0.921 -0.4749  0.3519 -0.3306
    1W        W38523  16.324   2.883   7.578 -0.0282 -0.0553 -0.0058
    1W        W38524  25.223   5.736   7.279 -0.1519 -0.1896 -0.1831
    1W        W38525   9.229  22.611   0.064  0.0164 -0.2797 -0.2141
    1W        W38526   8.766  12.644   5.460  0.1614  0.0050  0.0785
    1W        W38527   4.183   8.345   9.145  0.0986  0.0754  0.0582
    1W        W38528   9.739   2.293   1.562 -0.0620  0.2971  0.1699
    1W        W38529  11.796  24.290   9.549 -0.1121  0.0097 -0.1535
    1W        W38530  25.286  21.244   0.795 -0.3642  0.0660 -0.1551
    1W        W38531  15.715  17.199   0.597 -0.0601 -0.0618  0.1959
    1W        W38532  25.003  17.002   1.932  0.1473 -0.0878  0.0383
    1W        W38533  26.653   7.869   6.659 -0.0030  0.2127  0.1137
    1W        W38534  15.195   8.216   1.666 -0.0191 -0.2391  0.0003
    1W        W38535  17.927  16.660   0.439 -0.3410 -0.1141 -0.2352
    1W        W38536  29.005  12.698   0.383  0.0165  0.0452  0.0495
    1W        W38537   5.933  12.350   8.548  0.2740  0.0740  0.1106
    1W        W38538  11.271  15.940   8.517 -0.0777  0.1320 -0.1066
    1W        W38539  14.371  29.379   7.207  0.0695  0.4929 -0.0699
    1W        W38540  26.158  14.763   8.865  0.0523  0.0505  0.3206
    1W        W38541   0.944   8.488   0.703  0.1357  0.0545  0.0584
    1W        W38542  21.653   6.404   0.192 -0.0842  0.0340 -0.1504
    1W        W38543   9.087  24.207   1.820  0.3507 -0.0971  0.0189
    1W        W38544  16.430  10.796   8.621  0.2940 -0.0115  0.0673
    1W        W38545   7.000  27.931   8.056 -0.0932  0.1339  0.1171
    1W        W38546   9.816   8.915   8.840 -0.1614 -0.1855 -0.2346
    1W        W38547  28.611  12.623   9.147 -0.0195  0.1967  0.1356
    1W        W38548  25.012  24.975   2.009 -0.0672  0.2281  0.2265
    1W        W38549  19.557  17.496   9.630 -0.0385 -0.0688  0.1056
    1W        W38550  20.072  18.269   8.536  0.2680  0.2096  0.1447
    1W        W38551   4.916  12.280   1.175 -0.4233 -0.1407 -0.1196
    1W        W38552  18.232  17.721   0.734  0.2049 -0.0814  0.0532
    1W        W38553  16.090  16.521   8.127 -0.1950 -0.0688 -0.0032
    1W        W38554   3.929  29.139   8.558  0.0468 -0.0075 -0.0321
    1W        W38555   5.189  22.142   2.383  0.2398  0.1719  0.1633
    1W        W38556  22.679  17.563   0.680  0.3465  0.0110  0.1912
    1W        W38557  19.111  22.776   7.618 -0.1351 -0.0569  0.3110
    1W        W38558  16.463   6.875   9.649  0.1175 -0.0167 -0.0970
    1W        W38559  24.500  15.353   1.512  0.3078  0.0889  0.1348
    1W        W38560   8.275  13.712   8.955 -0.2311  0.3045 -0.3526
    1W        W38561  14.445  19.913   5.665 -0.1105 -0.2096 -0.2392
    1W        W38562  24.591  16.765   8.877  0.2294 -0.0602  0.1805
    1W        W38563  12.952  19.817   2.304 -0.1204  0.0922 -0.1293
    1W        W38564  25.877  16.592   9.562  0.1517  0.3324  0.2431
    1W        W38565   7.299  15.520   7.306  0.0997 -0.0597 -0.0910
    1W        W38566  13.331  25.436   9.461 -0.5022  0.0331 -0.1203
    1W        W38567  13.869   2.046   7.665 -0.1059  0.4317 -0.2470
    1W        W38568  28.062   8.066   9.277  0.1305  0.2005  0.1211
    1W        W38569  15.288  11.285   8.226  0.3833 -0.1505  0.3842
    1W        W38570  22.220   4.778   2.412  0.1480  0.1175 -0.1231
    1W        W38571  22.120   4.374   7.763 -0.4877  0.2575 -0.2520
    1W        W38572   3.490   0.405   2.791  0.2878  0.4515  0.2392
    1W        W38573   8.056  27.812   8.584 -0.2170 -0.1135  0.1625
    1W        W38574   4.791  17.895   0.508 -0.1483 -0.0794  0.0815
    1W        W38575   0.295   0.218   3.401 -0.5935  0.0200  0.1811
    1W        W38576   3.167   9.563   0.584  0.1529  0.0292 -0.2054
    1W        W38577  19.120  17.567   9.402  0.1582  0.2279 -0.1944
    1W        W38578   1.914   2.292   6.383 -0.2546 -0.0812  0.3113
    1W        W38579  24.624  20.744   1.928  0.2586 -0.2085  0.3105
    1W        W38580   9.535  19.627   2.362 -0.3532  0.0947 -0.1619
    1W        W38581   2.937  12.287   9.599  0.0236  0.1172 -0.1237
    1W        W38582  15.148   5.590   8.045 -0.1576  0.2096  0.0066
    1W        W38583   2.660   4.288   7.046 -0.1733  0.2386 -0.1863
    1W        W38584   3.731  17.395   9.138 -0.2936  0.2978 -0.0374
    1W        W38585   1.271   3.748   7.306  0.0173  0.3512 -0.2920
    1W        W38586  29.526  21.082   4.062  0.1992  0.0948  0.1301
    1W        W38587  13.802  17.020   9.002 -0.0150  0.2025 -0.0356
    1W        W38588  25.103  23.234   8.575  0.0657  0.0040  0.2214
    1W        W38589  13.054  28.473   8.809  0.1265  0.0288  0.2583
    1W        W38590  13.078  20.620   6.130 -0.1500  0.1292 -0.3374
    1W        W38591  28.269  16.907   1.896 -0.0479 -0.0474 -0.2747
    1W        W38592  11.248   0.108   9.210  0.0808  0.1437  0.1019
    1W        W38593  25.219   6.256   7.382 -0.0316  0.2653 -0.0662
    1W        W38594  22.907  15.922   8.531 -0.0511 -0.2968  0.0742
    1W        W38595   6.857   1.239   9.172 -0.0399  0.1069  0.0616
    1W        W38596  24.267  14.729   8.236  0.0579 -0.0593 -0.3908
    1W        W38597   4.732   4.462   8.293 -0.1852 -0.3016  0.0122
    1W        W38598   9.433  26.753   0.624  0.2800  0.2683  0.2697
    1W        W38599  12.434  25.844   9.190 -0.0708 -0.1048  0.0683
    1W        W38600  15.785   4.685   9.219  0.0934 -0.1581 -0.2540
    1W        W38601  25.723  16.315   0.397 -0.1428  0.0405  0.0654
    1W        W38602   5.098  19.930   2.233  0.0361  0.1891 -0.1295
    1W        W38603  27.401  16.460   2.519  0.0845  0.1721  0.0781
    1W        W38604  22.976   3.807   6.848  0.3381 -0.1067 -0.0231
    1W        W38605  16.166  13.364   1.232  0.0132 -0.2627  0.0412
    1W        W38606   2.493  20.116   0.620  0.1644 -0.1070 -0.0350
    1W        W38607  20.631   7.257   1.615  0.2233  0.1235 -0.1188
    1W        W38608  26.606   4.191   7.459 -0.0131  0.2150  0.0110
    1W        W38609  17.618  13.202   0.189 -0.1411  0.1200 -0.3259
    1W        W38610   2.848   4.562   6.359  0.1180  0.0609  0.0962
    1W        W38611  21.746  23.651   0.742 -0.0212 -0.1594  0.1420
    1W        W38612  23.616  28.288   2.354 -0.0357 -0.0285  0.2547
    1W        W38613  24.045   7.735   0.226 -0.0470 -0.1659  0.1254
    1W        W38614  25.241  22.029   0.252 -0.0487 -0.0824  0.0649
    1W        W38615  15.145   0.369   7.573 -0.0234 -0.3118 -0.3982
    1W        W38616  11.319   0.751   8.120 -0.1641 -0.0331  0.0127
    1W        W38617  24.274  10.207   8.715 -0.3583 -0.1696 -0.0097
    1W        W38618   6.439   9.113   1.461  0.3032 -0.1399  0.0395
    1W        W38619  12.596  21.948   2.072  0.0562  0.1195  0.0311
    1W        W38620  14.805   6.116   8.483  0.0831  0.0013  0.2811
    1W        W38621  14.521  24.061   7.921 -0.2203  0.0624  0.2328
    1W        W38622  11.963   5.182   7.892  0.2046  0.1517 -0.2558
    1W        W38623   2.583  13.781   7.512  0.0360 -0.0592  0.1539
    1W        W38624   1.739  20.631   0.103 -0.1810  0.1484  0.2159
    1W        W38625  25.312  17.986   1.881 -0.0480  0.2166  0.0065
    1W        W38626  21.712  26.874   1.195  0.2374  0.0506  0.0575
    1W        W38627  22.357  29.495   8.764 -0.0800  0.1442 -0.0422
    1W        W38628  14.052  13.147   6.408 -0.0824 -0.0331  0.2212
    1W        W38629  20.501  20.927   0.128 -0.0567 -0.1862  0.0827
    1W        W38630  25.760  27.301   0.555  0.0275  0.1881 -0.1082
    1W        W38631   5.519  29.375   7.151  0.0228  0.0427  0.2372
    1W        W38632  22.610  26.421   6.776  0.0370  0.0124  0.0718
    1W        W38633   1.036  19.478   0.921 -0.0699  0.1121  0.4522
    1W        W38634  14.273   5.745   8.683 -0.0237 -0.0627 -0.1516
    1W        W38635  29.279  21.449   1.039 -0.1877  0.0869 -0.1562
    1W        W38636   8.254   0.368   6.603 -0.0421  0.0284  0.2665
    1W        W38637  19.048  21.414   9.203  0.0579 -0.1537 -0.1610
    1W        W38638  29.561   2.988   7.857 -0.1954 -0.2212  0.0826
    1W        W38639  25.573  20.931   2.174  0.0373  0.4315 -0.0047
    1W        W38640   8.768  28.261   1.010  0.1111  0.0076 -0.0782
    1W        W38641  19.253  17.411   7.352  0.1341 -0.1313 -0.0884
    1W        W38642  18.694  13.434   1.552  0.3482  0.0791 -0.2907
    1W        W38643  15.989  12.757   1.868  0.0519  0.1466 -0.0115
    1W        W38644  23.139   5.111   7.320 -0.2301  0.3147  0.1458
    1W        W38645  16.293  17.265   9.169  0.1006  0.1111  0.1094
    1W        W38646   4.574  28.877   6.989  0.0100 -0.2517 -0.3645
    1W        W38647  27.274  14.413   0.863 -0.0392  0.2357 -0.0792
    1W        W38648  25.926   3.567   7.165 -0.0359  0.2402 -0.0293
    1W        W38649  11.262  28.971   6.282  0.0443 -0.0843 -0.3571
    1W        W38650   8.145   8.096   7.644 -0.1345  0.2791 -0.0172
    1W        W38651   1.319  17.129   8.910 -0.3889 -0.0610 -0.0368
    1W        W38652  11.435  11.978   0.046  0.0675  0.2099  0.0532
    1W        W38653  25.518  22.116   9.392 -0.1265 -0.3156 -0.3305
    1W        W38654  27.905  14.269   2.699  0.0746  0.2506 -0.0523
    1W        W38655   1.499   4.858   8.071  0.2052  0.0955  0.0485
    1W        W38656  18.131  12.394   2.452  0.0210 -0.1252 -0.0423
    1W        W38657  13.286   6.311   0.878 -0.0658 -0.1019  0.2716
    1W        W38658  11.124   0.765   6.382 -0.2266  0.0504 -0.0326
    1W        W38659  10.259  19.044   2.213 -0.1231  0.0919 -0.2982
    1W        W38660   1.454  18.997   1.164 -0.3193  0.1018 -0.0258
    1W        W38661  25.946  24.375   8.893  0.2347  0.1789 -0.0930
    1W        W38662   0.164  14.965   0.397  0.2818 -0.1418 -0.0678
    1W        W38663  16.405   3.269   9.324 -0.2112  0.1365  0.0848
    1W        W38664   5.157  23.773   2.832  0.0517 -0.1921 -0.0112
    1W        W38665  20.760  29.610   9.001  0.1590  0.2276  0.1201
    1W        W38666  15.034   3.505   1.633  0.3609 -0.0618 -0.0022
    1W        W38667  10.820   0.600   6.770 -0.3165 -0.0978 -0.1382
    1W        W38668  11.954   8.721   7.068 -0.0712  0.1592 -0.0037
    1W        W38669  21.590  25.238   1.406  0.0511 -0.0669 -0.0273
    1W        W38670  26.340  28.023   2.097  0.0865  0.1157 -0.1369
    1W        W38671   3.210  10.383   6.499  0.0145 -0.0153  0.2516
    1W        W38672  26.819   3.927   0.105 -0.1562  0.0683  0.1080
    1W        W38673  25.061  15.364   1.781 -0.0273 -0.1603  0.2944
    1W        W38674  26.515  13.370   7.932  0.0017  0.1622 -0.3398
    1W        W38675   0.985  25.190   2.603 -0.0627  0.1920  0.2441
    1W        W38676  13.918  17.951   1.221 -0.0141 -0.1316  0.1198
    1W        W38677   7.482   6.563   9.168  0.0191 -0.0132 -0.0763
    1W        W38678   4.415  25.794   9.463 -0.3769 -0.1305 -0.4305
    1W        W38679  12.393  17.891   6.160 -0.0247 -0.1310 -0.1402
    1W        W38680   0.843   2.377   7.921 -0.3488  0.0881  0.4179
    1W        W38681  29.586   4.689   6.730  0.1374  0.0264 -0.3527
    1W        W38682  13.105  23.082   2.186 -0.0582  0.0761  0.0863
    1W        W38683  11.718   4.488   6.572  0.0595 -0.3138  0.0605
    1W        W38684  26.368  13.436   9.378 -0.0308 -0.1574  0.1515
    1W        W38685  14.791  22.417   0.506  0.3231  0.1959 -0.1327
    1W        W38686  24.368   3.268   1.106  0.1278  0.1950  0.1591
    1W        W38687  23.796   9.620   0.090 -0.1181 -0.0113  0.2297
    1W        W38688  29.254  21.027   9.516 -0.1760 -0.1042  0.3979
    1W        W38689  21.302  26.724   0.321  0.3173  0.0324  0.0519
    1W        W38690   8.929  20.511   0.231  0.4357  0.0848 -0.1772
    1W        W38691   2.579  21.583   9.561  0.1423  0.3656 -0.2435
    1W        W38692  13.271  21.211   7.875  0.2623 -0.0474 -0.2509
    1W        W38693  27.169   6.200   0.965  0.1919 -0.0118 -0.0478
    1W        W38694  22.911  21.000   1.149  0.1253 -0.0287 -0.1341
    1W        W38695   5.217  10.326   8.271  0.1573  0.0672  0.1271
    1W        W38696   8.194  16.705   7.964  0.0813 -0.0874 -0.1831
    1W        W38697   1.981   9.893   1.457  0.2377  0.1535  0.1155
    1W        W38698  25.594  13.502   1.335  0.0120 -0.0717  0.1608
    1W        W38699  29.602  13.049   8.749  0.1541 -0.0476 -0.1045
    1W        W38700   6.420  26.632   0.158 -0.1504 -0.1992 -0.2153
    1W        W38701   2.687  27.494   6.484 -0.2171  0.2772  0.1688
    1W        W38702   2.147  27.498   8.761  0.0419  0.1755 -0.0789
    1W        W38703  13.978  24.823   0.962 -0.1705 -0.0184  0.1326
    1W        W38704  19.125  18.929   1.644  0.2273  0.0263 -0.0552
    1W        W38705   9.366  25.871   5.827 -0.0838  0.2022 -0.1834
    1W        W38706   8.092  15.500   0.568 -0.0732 -0.0141 -0.3215
    1W        W38707   9.755   0.035   0.691 -0.0195 -0.0168  0.0724
    1W        W38708   1.231  21.075   3.034 -0.3085 -0.0905  0.2736
    1W        W38709  21.673  26.652   9.539 -0.0610 -0.0731  0.0785
    1W        W38710   9.142  10.730   9.535  0.2408  0.1962 -0.1119
    1W        W38711  23.215   0.062   7.406  0.1721  0.1218 -0.1243
    1W        W38712  16.524  20.445   8.405  0.1950  0.0011 -0.1343
    1W        W38713  15.237   2.407   7.157 -0.1229  0.3259  0.1368
    1W        W38714   8.272  21.537   0.805  0.1227  0.1118  0.0578
    1W        W38715  16.437   3.990   2.136 -0.1234 -0.3644 -0.0305
    1W        W38716  15.053  19.597   8.661  0.2608 -0.2056 -0.2329
    1W        W38717   5.157  17.025   0.480 -0.3845 -0.0950  0.1566
    1W        W38718   5.586  14.756   1.225 -0.1773  0.2160 -0.1124
    1W        W38719  23.044  25.953   1.570  0.1550 -0.1496  0.1784
    1W        W38720   1.737  12.359   0.694 -0.1307 -0.0147  0.1102
    1W        W38721  10.182   5.510   8.514 -0.0245 -0.0110  0.0047
    1W        W38722   1.884   5.380   1.615  0.1883 -0.2089  0.0236
    1W        W38723   1.926  14.815   2.064 -0.1800  0.3809  0.1006
    1W        W38724  16.178  20.108   9.248  0.2266  0.2865 -0.1283
    1W        W38725  13.121  14.294   7.704  0.1137 -0.1211 -0.1231
    1W        W38726  10.898  22.996   3.232 -0.1891  0.3121 -0.0684
    1W        W38727  15.638   5.641   7.724 -0.1693  0.0878  0.0431
    1W        W38728   3.474  24.173   3.813 -0.1996 -0.0649  0.1622
    1W        W38729  12.797  19.926   5.994  0.0459  0.2439  0.0394
    1W        W38730  22.609  17.852   2.225 -0.0354 -0.2111 -0.1112
    1W        W38731  25.948  22.966   8.312  0.1168  0.2463 -0.0828
    1W        W38732  14.904   8.040   6.989  0.1499  0.2629  0.1877
    1W        W38733   1.431   8.502   9.602 -0.1055 -0.0089  0.0975
    1W        W38734  12.503   2.465   7.237  0.1259 -0.0428  0.3010
    1W        W38735  27.944  25.093   3.322  0.3994  0.1121 -0.0795
    1W        W38736   4.948  20.696   2.731  0.3234  0.1690  0.1038
    1W        W38737  10.543   1.710   8.628 -0.1520 -0.2142  0.1019
    1W        W38738   5.098   5.315   6.797  0.0997 -0.1572 -0.1247
    1W        W38739  18.696  12.824   1.654  0.2105 -0.1768  0.0400
    1W        W38740   2.397  14.709   1.317  0.1257  0.3442 -0.0692
    1W        W38741  28.740   7.521   9.622 -0.3417 -0.0676 -0.1394
    1W        W38742  24.392   7.939   1.229  0.0859  0.1490 -0.2201
    1W        W38743  10.201  28.675   0.513  0.0162 -0.2383 -0.1155
    1W        W38744  27.771  22.883   1.681  0.0718 -0.0893 -0.0156
    1W        W38745   8.806   6.746   9.032 -0.0589 -0.1136 -0.2943
    1W        W38746   1.620   1.691   3.472  0.0679  0.4200 -0.2588
    1W        W38747  12.508  24.920   1.786  0.2730 -0.1802 -0.1260
    1W        W38748  27.454  16.371   3.054  0.1060  0.1728 -0.3229
    1W        W38749   1.808  23.532   1.523  0.0182  0.1972  0.0839
    1W        W38750   5.863  21.326   8.522  0.3011 -0.0361 -0.0472
    1W        W38751  17.766  15.938   9.082 -0.0944  0.0452 -0.3263
    1W        W38752  12.011  10.923   8.413 -0.2453 -0.2309 -0.0644
    1W        W38753  22.406  10.743   0.654  0.3143  0.0179  0.1544
    1W        W38754   1.462   8.906   6.738 -0.1877 -0.3134  0.1979
    1W        W38755  14.173  25.584   0.924 -0.1233  0.0946  0.2077
    1W        W38756  15.310  28.423   0.807  0.0608  0.0282  0.0166
    1W        W38757   1.297  10.402   0.421 -0.1007 -0.0224 -0.0552
    1W        W38758   8.118  23.054   3.015 -0.1627  0.3676 -0.3054
    1W        W38759  26.400  27.030   0.476  0.1255  0.2278 -0.1078
    1W        W38760   5.850  11.408   5.275  0.1625 -0.1794 -0.0919
    1W        W38761  23.972  10.945   1.287 -0.0292 -0.3262 -0.1117
    1W        W38762  18.402  27.661   3.192  0.2435 -0.2066  0.3945
    1W        W38763   7.831  17.596   1.210  0.1875  0.1719 -0.0104
    1W        W38764  19.195   2.321   0.351 -0.3856  0.0083 -0.1471
    1W        W38765  27.896   3.730   2.037 -0.1436 -0.3148 -0.0024
    1W        W38766   8.047  25.507   2.680 -0.2394 -0.1920 -0.0718
    1W        W38767  13.165  11.192   6.619  0.1826 -0.0430 -0.1198
    1W        W38768   1.437  17.153   9.455  0.1540 -0.2215  0.0619
    1W        W38769  23.656   9.036   9.513 -0.0210  0.0284  0.0869
    1W        W38770  29.325  29.118   0.942 -0.4360 -0.2136  0.1459
    1W        W38771   4.213   8.004   2.125 -0.1105 -0.0242 -0.0105
    1W        W38772   0.352  28.236   7.180 -0.1546  0.0921  0.1788
    1W        W38773   7.218   7.891   0.806  0.3307 -0.1450  0.1908
    1W        W38774  14.386   1.827   7.592  0.2295 -0.0388  0.3474
    1W        W38775   7.851  18.644   6.852  0.0432  0.0051  0.0101
    1W        W38776   7.260  17.015   1.871 -0.0694  0.0157 -0.0257
    1W        W38777  27.232  22.818   6.908  0.0762  0.3334 -0.0445
    1W        W38778  15.071  23.149   0.535  0.2025  0.0789  0.0053
    1W        W38779  29.255   5.438   0.783  0.0957 -0.4022  0.2220
    1W        W38780  11.563  16.945   2.030 -0.0317  0.0544 -0.0575
    1W        W38781  16.071  22.799   0.766  0.1994  0.0589 -0.0628
    1W        W38782   9.554   5.007   7.260  0.0051  0.0781 -0.1412
    1W        W38783   3.472   9.257   7.349  0.2204 -0.0052 -0.3214
    1W        W38784  28.035  26.909   0.029  0.1441 -0.0871 -0.1655
    1W        W38785  21.358  14.166   8.752 -0.2169  0.1620  0.1338
    1W        W38786  18.861  17.443   1.483  0.0412 -0.0172  0.3120
    1W        W38787  22.226  18.452   6.765 -0.4280 -0.2909  0.2130
    1W        W38788  26.427  16.227   2.179 -0.0325  0.0938 -0.3965
    1W        W38789  15.415  22.561   0.059 -0.1286  0.2685  0.4565
    1W        W38790  11.703   1.383   5.894  0.0598  0.1334  0.0496
    1W        W38791  18.517  13.963   0.120  0.2227 -0.0766 -0.0977
    1W        W38792  26.073  28.523   3.345  0.2189 -0.1739  0.0799
    1W        W38793   4.481  17.430   1.799 -0.0618 -0.1026  0.0921
    1W        W38794  25.959   9.167   7.278 -0.3444  0.0643  0.3245
    1W        W38795  21.383  22.014   6.934  0.0397  0.0367  0.0150
    1W        W38796  15.497  26.559   0.438 -0.1530  0.2189  0.0947
    1W        W38797  20.744  12.947   8.224  0.0368  0.1694  0.3513
    1W        W38798  18.286   2.342   7.273 -0.1381 -0.2367 -0.1246
    1W        W38799  23.273   5.204   7.803  0.3241 -0.0233 -0.1040
    1W        W38800  22.201  28.550   9.109  0.0892 -0.3841 -0.2147
    1W        W38801  21.137  15.417   8.224  0.1218  0.0183 -0.3005
    1W        W38802  28.838  13.183   0.286  0.1417  0.1147 -0.1558
    1W        W38803  18.236  10.878   0.821  0.0633 -0.1299  0.0496
    1W        W38804   6.056   7.095   7.542 -0.1064 -0.1881  0.0999
    1W        W38805  20.706  21.717   0.285 -0.2908  0.0345  0.0629
    1W        W38806  21.051  14.796   1.361  0.3997  0.1269 -0.2274
    1W        W38807  21.714  25.567   1.010  0.1761  0.4627  0.0074
    1W        W38808  11.371   7.740   0.944  0.0795 -0.3705 -0.2567
    1W        W38809   9.976   6.561   6.799  0.2110  0.2977 -0.4098
    1W        W38810  24.480  17.007   7.687 -0.0286 -0.1213  0.1505
    1W        W38811  25.967  26.599   6.820 -0.2364  0.0205 -0.0845
    1W        W38812  26.396   3.052   2.531 -0.2413 -0.2365 -0.4236
    1W        W38813   8.638  18.486   6.785  0.2148 -0.2668  0.0147
    1W        W38814   2.260  16.860   8.237 -0.0855 -0.0555  0.1867
    1W        W38815  21.811   7.164   8.844  0.4281 -0.0258 -0.0344
    1W        W38816  20.502   5.150   7.579  0.1017 -0.2087  0.0469
    1W        W38817  19.879   0.779   0.639 -0.1140  0.1505 -0.1905
    1W        W38818  22.633   0.235   1.518 -0.1872  0.1018 -0.0324
    1W        W38819  22.373  22.388   3.944 -0.1126  0.2764  0.1270
    1W        W38820  17.599  15.153   9.407  0.0529 -0.1734 -0.0384
    1W        W38821  17.149   8.119   9.051 -0.2623 -0.2748 -0.0753
    1W        W38822   9.497  14.855   7.613  0.4237 -0.2597  0.1119
    1W        W38823  20.248   1.245   7.142 -0.3744  0.2082 -0.1704
    1W        W38824  19.339   5.266   1.323 -0.1939 -0.0735  0.0501
    1W        W38825  28.230  17.422   2.734  0.1971 -0.1610 -0.0939
    1W        W38826  19.075  24.875   9.170 -0.1887  0.1563  0.2470
    1W        W38827  13.285  22.610   0.352 -0.0581  0.1316  0.2040
    1W        W38828   6.345  12.767   0.871  0.0287 -0.0894 -0.2206
    1W        W38829  16.353   0.979   6.843 -0.3310  0.0616 -0.1856
    1W        W38830  11.670   3.831   1.165  0.0337 -0.0071  0.1228
    1W        W38831  16.403   8.570   2.299 -0.1495 -0.2819  0.1385
    1W        W38832   3.779  28.819   1.697  0.2142 -0.1783 -0.0140
    1W        W38833  17.584  29.159   7.629  0.1137  0.0448  0.2384
    1W        W38834   7.244   8.299   5.954  0.3216 -0.0061 -0.3286
    1W        W38835  21.716  26.389   0.319 -0.2254 -0.0086  0.1936
    1W        W38836  23.250  15.755   8.850 -0.0094  0.3421  0.3977
    1W        W38837  12.811  18.695   1.221  0.2277  0.0064  0.0415
    1W        W38838   0.610  17.696   9.568  0.0985 -0.1453  0.0087
    1W        W38839  28.402   1.060   6.621 -0.0238 -0.0508 -0.1482
    1W        W38840  11.872  21.994   5.928 -0.2507  0.1914  0.1187
    1W        W38841   7.257  18.672   9.394 -0.0447  0.0086 -0.0150
    1W        W38842   2.810  25.496   7.585 -0.1374  0.1342 -0.3697
    1W        W38843  20.093   8.794   8.288 -0.1333 -0.1172  0.3515
    1W        W38844  20.885   5.676   7.085  0.1036  0.0438 -0.2222
    1W        W38845  20.500  15.959   2.650 -0.0479 -0.3196 -0.0412
    1W        W38846  27.906  29.391   8.790 -0.1091  0.2976  0.0042
    1W        W38847  22.138  15.568   0.076 -0.0816 -0.0251 -0.0523
    1W        W38848  27.297   2.408   0.810  0.1834 -0.1486  0.1868
    1W        W38849  28.227  24.640   8.874 -0.3830 -0.1531  0.0694
    1W        W38850   7.977  10.055   5.366  0.2172  0.0774  0.0455
    1W        W38851  10.492  10.212   7.622  0.2044  0.0103 -0.0233
    1W        W38852  28.545  18.172   1.025 -0.2017 -0.1712  0.0040
    1W        W38853  16.012  26.009   2.255 -0.3480  0.1008  0.2908
    1W        W38854  18.925  15.621   8.380  0.0431 -0.0736  0.0367
    1W        W38855  12.148   4.979   1.747  0.1912  0.0651 -0.0758
    1W        W38856   8.339  29.145   1.655  0.1029 -0.2439  0.1608
    1W        W38857   4.870  14.043   7.125  0.0697  0.2107  0.0425
    1W        W38858   4.472   7.381   0.678 -0.1413  0.1008 -0.0785
    1W        W38859  20.308   0.080   2.826 -0.0345  0.0926 -0.1307
    1W        W38860   2.595  21.527   1.460  0.1437 -0.0699 -0.2313
    1W        W38861   1.423  25.184   2.311  0.0069 -0.0894 -0.2623
    1W        W38862  27.224  10.802   9.647  0.0725 -0.1600 -0.3073
    1W        W38863   0.161  25.671   0.567  0.0934  0.0660  0.0365
    1W        W38864  27.314   6.414   6.649 -0.0674  0.1538 -0.0251
    1W        W38865   3.300  28.173   9.298 -0.1198 -0.1172 -0.0325
    1W        W38866  26.570  11.138   7.526  0.0311 -0.1690 -0.0043
    1W        W38867  29.031   6.688   0.415 -0.1810  0.3432  0.1123
    1W        W38868  26.042  20.609   8.105 -0.2359  0.2191  0.3183
    1W        W38869   4.969  17.469   8.323 -0.1273  0.0059  0.0022
    1W        W38870  12.959  25.648   6.101  0.2121  0.2818  0.3272
    1W        W38871   7.246  19.503   1.711 -0.1956  0.0270  0.2958
    1W        W38872   3.898   1.175   7.979  0.1749  0.4093  0.1242
    1W        W38873   0.107   0.465   8.877  0.1841  0.3868  0.4826
    1W        W38874  23.779  27.341   2.722  0.4787  0.0315  0.0680
    1W        W38875   2.179   0.660   1.622 -0.1671 -0.0683 -0.0673
    1W        W38876   5.912  13.203   6.916  0.0395  0.0819  0.1809
    1W        W38877  18.842  12.293   7.650  0.0244  0.1747 -0.0821
    1W        W38878  15.368  12.709   7.414  0.2296 -0.0251 -0.2726
    1W        W38879  16.790  24.425   9.574 -0.0249  0.1354  0.2642
    1W        W38880  15.938  23.780   0.755 -0.0563  0.0005 -0.0084
    1W        W38881   6.941  27.265   1.006  0.0940 -0.3517 -0.1265
    1W        W38882  15.943  27.435   6.339 -0.2057 -0.1872 -0.2705
    1W        W38883   8.756  15.626   2.431  0.0373  0.4155  0.0626
    1W        W38884  26.971   5.144   8.289  0.0235 -0.3568  0.0495
    1W        W38885   7.653  20.258   1.280  0.0895  0.4373  0.0175
    1W        W38886   6.982  12.650   9.312 -0.1366 -0.2023  0.3118
    1W        W38887   2.360  24.546   9.005  0.1575  0.1874 -0.0686
    1W        W38888  15.105   4.118   8.835  0.0495 -0.0507  0.0780
    1W        W38889   5.805   7.209   1.284  0.2280  0.2811 -0.0384
    1W        W38890  26.829  11.124   0.127 -0.2746 -0.1004  0.2813
    1W        W38891  13.519  28.164   0.608 -0.0975  0.0975  0.2630
    1W        W38892   2.627  28.199   7.785  0.0654 -0.1383  0.1305
    1W        W38893   1.036   8.662   8.458 -0.1395 -0.0205  0.1543
    1W        W38894  25.085   8.056   2.016 -0.1862 -0.0504  0.0826
    1W        W38895  20.968   3.746   0.572 -0.0043  0.0488 -0.1223
    1W        W38896  15.527  28.783   7.781 -0.0768  0.1478 -0.0875
    1W        W38897  27.167  24.945   7.523  0.0027  0.0950  0.0594
    1W        W38898  27.663  20.345   4.213 -0.0324 -0.1412 -0.1559
    1W        W38899   5.504  21.389   9.082  0.2699  0.3455  0.0426
    1W        W38900  22.416  22.831   3.017 -0.0917  0.0678 -0.3427
    1W        W38901  20.517   3.630   1.433 -0.0279  0.1015  0.1274
    1W        W38902   0.889  19.804   7.235 -0.1850 -0.4189 -0.0217
    1W        W38903  17.503   7.054   1.968 -0.0240  0.4049 -0.0879
    1W        W38904  13.042  26.639   0.558  0.1078 -0.5502  0.0857
    1W        W38905  16.032  11.942   0.948  0.0685 -0.0112 -0.1151
    1W        W38906   0.128  11.541   7.828  0.0755 -0.3390  0.1176
    1W        W38907   4.070   9.724   0.171 -0.0455 -0.3482 -0.2137
    1W        W38908   2.971   9.490   7.293  0.0158  0.2444  0.3752
    1W        W38909   9.034  10.810   6.986  0.0663  0.0183  0.2347
    1W        W38910  19.674  19.882   2.469 -0.4343 -0.0437 -0.0224
    1W        W38911   9.079  21.111   8.797  0.2367  0.0330  0.3979
    1W        W38912  18.524   4.141   7.677  0.0523 -0.0502 -0.0851
    1W        W38913  29.432  15.002   7.096 -0.3118  0.2523 -0.2105
    1W        W38914  28.226  26.574   7.962  0.1803 -0.0398 -0.1211
    1W        W38915  18.425  19.308   7.902 -0.0951  0.0386 -0.0378
    1W        W38916  17.463   1.828   9.548 -0.1763  0.2339 -0.1032
    1W        W38917   3.953  16.518   2.191  0.0647 -0.2485 -0.1313
    1W        W38918  17.321  20.574   9.006  0.1012 -0.0129  0.1442
    1W        W38919  26.920  27.398   2.289 -0.2598  0.3619  0.1920
    1W        W38920   5.693   7.854   6.944 -0.3149 -0.2858  0.1483
    1W        W38921  28.180  21.370   0.817 -0.0302  0.0153  0.0550
    1W        W38922  18.288  23.616   8.828 -0.1354  0.1271  0.2457
    1W        W38923   8.417  11.253   1.345 -0.1661 -0.1602  0.0943
    1W        W38924  18.797   3.217   2.635 -0.1815  0.1144  0.0136
    1W        W38925  19.969  25.516   9.091  0.4171  0.2382 -0.0243
    1W        W38926   0.298  23.096   2.040 -0.0649 -0.0751 -0.2522
    1W        W38927  10.995   8.317   7.048 -0.1341  0.2721 -0.0601
    1W        W38928   2.821  20.214   2.512  0.3054  0.2392 -0.0208
    1W        W38929   7.811  26.276   9.070  0.1580  0.2279  0.0398
    1W        W38930   0.932  13.955   6.518 -0.1080  0.2346  0.0077
    1W        W38931  12.376  19.235   1.927 -0.1324  0.0424  0.0033
    1W        W38932  28.874   1.213   8.336  0.3679  0.2621 -0.0287
    1W        W38933  26.984  25.476   2.773 -0.2312  0.2608 -0.0930
    1W        W38934  27.986  22.239   0.556  0.0140 -0.1076 -0.0713
    1W        W38935   0.891   2.539   7.466 -0.0052 -0.1681 -0.1862
    1W        W38936  25.801   7.364   8.018 -0.0275  0.0368 -0.0959
    1W        W38937   3.582  10.313   6.759  0.0390 -0.2825 -0.3728
    1W        W38938   3.439  21.957   1.017 -0.2064  0.3116  0.0200
    1W        W38939   3.407   9.648   1.827 -0.2498 -0.0529  0.1481
    1W        W38940  18.512  22.669   2.120 -0.0192  0.0547 -0.1344
    1W        W38941  16.799   9.623   9.495 -0.0336 -0.0986  0.0907
    1W        W38942  19.249  29.107   1.246  0.0720 -0.1715  0.2040
    1W        W38943  13.411   4.497   5.789 -0.3382  0.2294  0.1379
    1W        W38944  29.360   7.802   1.960  0.0712  0.0467  0.0250
    1W        W38945   5.319  27.271   1.479  0.1177 -0.2305 -0.2961
    1W        W38946   2.700   4.160   6.033 -0.0203  0.0643 -0.1075
    1W        W38947  16.008  23.517   2.075  0.1056  0.1164 -0.0851
    1W        W38948  13.325  27.991   7.941 -0.2716 -0.1486 -0.0461
    1W        W38949  23.189   2.595   0.109 -0.0678 -0.0591 -0.1954
    1W        W38950  23.669  24.419   2.271 -0.1358 -0.0238  0.0345
    1W        W38951   0.817   7.274   6.549  0.1610  0.1460  0.1046
    1W        W38952   2.433  24.273   2.013  0.2487  0.0250  0.2209
    1W        W38953  12.604  12.085   9.524 -0.2532  0.2904  0.2582
    1W        W38954  17.050  18.395   8.579 -0.1144 -0.1241  0.3076
    1W        W38955  22.559   6.394   0.168  0.0489 -0.3553 -0.3444
    1W        W38956  24.107   3.657   1.982  0.0144 -0.0898  0.3457
    1W        W38957   8.438  27.915   0.183  0.0601  0.1355 -0.2347
    1W        W38958  23.783  12.261   8.761 -0.1016  0.1668  0.0862
    1W        W38959  16.063  25.749   0.858  0.0720  0.4186  0.0749
    1W        W38960   7.026  11.550   0.152 -0.0228 -0.1083  0.0303
    1W        W38961   5.395   5.448   6.431  0.0112  0.0456  0.1760
    1W        W38962   8.906  21.253   2.647  0.0861 -0.0446  0.2767
    1W        W38963  29.075   9.681   9.320  0.0924  0.2171 -0.0003
    1W        W38964  28.000  10.757   7.697 -0.2972 -0.0024  0.0869
    1W        W38965  18.592   6.491   8.203 -0.0139 -0.0174 -0.1552
    1W        W38966  11.488  20.009   7.578  0.1883  0.0644 -0.0711
    1W        W38967   2.106   4.514   1.870 -0.1251  0.0427  0.2022
    1W        W38968  24.624   6.229   7.539 -0.0638 -0.0836 -0.0408
    1W        W38969  15.614  14.727   7.106 -0.2274 -0.3721 -0.1277
    1W        W38970  18.483  19.737   2.659  0.0601  0.2744 -0.2140
    1W        W38971  12.692  14.428   6.818 -0.2732 -0.0127  0.0984
    1W        W38972  11.507  27.917   7.814 -0.0663  0.2018  0.2640
    1W        W38973  23.075  23.364   2.849  0.0883  0.3983 -0.1334
    1W        W38974  27.060  16.913   9.273  0.1269 -0.1683  0.2863
    1W        W38975   5.504  15.465   7.055  0.2122 -0.2603 -0.0817
    1W        W38976   7.352  23.816   8.224 -0.0572 -0.0224 -0.1937
    1W        W38977   1.674  24.719   2.155  0.0752  0.2336  0.0604
    1W        W38978   8.712  15.049   8.900 -0.0112  0.1203 -0.1747
    1W        W38979   3.491  27.317   6.889  0.1352 -0.1182 -0.0678
    1W        W38980  24.864   8.083   1.212 -0.0421 -0.2361 -0.2837
    1W        W38981   2.785   5.550   7.925  0.0080  0.1851 -0.0023
    1W        W38982  27.735  15.600   8.666 -0.1006 -0.3572  0.0273
    1W        W38983  21.630   2.553   2.593  0.3469  0.1437  0.3666
    1W        W38984   2.462  16.831   1.025  0.0241 -0.1575 -0.1339
    1W        W38985  10.621  15.186   9.496  0.1464 -0.2429  0.1279
    1W        W38986  28.577  18.786   3.176  0.0336 -0.0342  0.1017
    1W        W38987   4.379   0.700   1.849 -0.0641 -0.0212 -0.2426
    1W        W38988  18.835  24.126   2.977 -0.0279 -0.1081 -0.3559
    1W        W38989   4.728   4.519   9.024  0.1602  0.2884  0.0496
    1W        W38990  13.781   5.234   1.293 -0.1539  0.0140 -0.0929
    1W        W38991   8.761  10.927   1.030 -0.1819 -0.1898 -0.2172
    1W        W38992  13.810   4.677   1.266  0.0453  0.3477  0.0764
    1W        W38993  29.551  19.627   8.767 -0.0808 -0.0876  0.1084
    1W        W38994  12.967   8.076   7.374  0.3676 -0.2083 -0.0282
    1W        W38995   1.207  21.556   3.283  0.0640  0.1497  0.0779
    1W        W38996   8.596   9.318   7.851 -0.0126 -0.0078  0.2456
    1W        W38997   1.967  14.878   9.209 -0.1703  0.0469 -0.1084
    1W        W38998  29.409   1.163   8.287 -0.0648  0.1090 -0.0653
    1W        W38999  13.983  25.334   0.529 -0.0483 -0.1328 -0.0221
    1W        W39000   1.063   9.843   7.082 -0.0718  0.0922  0.2996
    1W        W39001  26.229  21.345   1.446  0.1320 -0.2522  0.4724
    1W        W39002   7.003  23.770   8.974 -0.4079  0.3758 -0.1121
    1W        W39003   0.948  22.888   1.309 -0.0971  0.0662 -0.0623
    1W        W39004  28.451   7.442   0.422 -0.3196  0.0541  0.1040
    1W        W39005  12.519   7.021   6.443  0.1111  0.0381 -0.0779
    1W        W39006   0.031  17.532   8.247  0.1466 -0.1237  0.1318
    1W        W39007  20.471   0.999   0.797 -0.2085  0.2332 -0.2473
    1W        W39008  10.873   4.369   2.128  0.1345  0.0325 -0.0699
    1W        W39009  17.168  26.763   0.915 -0.1975 -0.1528  0.0379
    1W        W39010  23.241  28.260   8.489 -0.0572 -0.0876  0.1528
    1W        W39011   0.153  23.710   8.429 -0.0133 -0.1565  0.0951
    1W        W39012   8.516   7.380   9.158  0.4034 -0.0749 -0.3695
    1W        W39013  28.340  28.760   3.041  0.0017  0.3912 -0.2235
    1W        W39014   9.320  14.053   9.543  0.2117 -0.3757 -0.0980
    1W        W39015   9.452   1.752   0.075  0.4100  0.0081  0.1578
    1W        W39016   4.116   2.454   6.659  0.1252 -0.2788 -0.1096
    1W        W39017   9.515  16.104   9.514  0.2326  0.0235 -0.0035
    1W        W39018  10.018  23.443   1.768  0.3951  0.2289  0.1378
    1W        W39019   6.434  25.996   0.406 -0.2300  0.0272 -0.1706
    1W        W39020  25.931  13.342   2.316 -0.1786  0.1103  0.0140
    1W        W39021  15.668  28.834   0.547  0.1283  0.1646  0.1962
    1W        W39022  17.125   3.441   2.327 -0.2149  0.0818 -0.1988
    1W        W39023  17.510  26.177   0.465  0.1379  0.0671 -0.1522
    1W        W39024   7.892   1.255   6.597  0.1003  0.1325 -0.0052
    1W        W39025  23.403   1.459   2.211  0.1078 -0.0968 -0.1911
    1W        W39026  16.125   8.665   0.945 -0.0758 -0.2241  0.1360
    1W        W39027  10.608  13.690   1.911 -0.0268  0.3031  0.1107
    1W        W39028   9.878  23.058   0.428 -0.1263  0.0487  0.0411
    1W        W39029  26.952   4.924   7.789 -0.0540  0.3388 -0.2416
    1W        W39030   6.251   3.229   9.517  0.0627  0.2033 -0.0102
    1W        W39031  24.653   4.715   7.994 -0.1556 -0.3973  0.0485
    1W        W39032  12.287  12.775   6.679 -0.1910  0.3406 -0.1537
    1W        W39033  28.640   1.671   8.111  0.0659 -0.3708  0.1147
    1W        W39034   2.150  27.835   0.492  0.2395  0.0479  0.0599
    1W        W39035  24.619  22.213   0.400 -0.0798 -0.0732  0.1124
    1W        W39036   7.371   1.935   1.329 -0.3690  0.1272 -0.1419
    1W        W39037  11.559   8.999   9.483 -0.0208  0.2968  0.1799
    1W        W39038  16.698  10.925   7.795  0.0851  0.1544 -0.0581
    1W        W39039  19.991   3.880   1.045  0.1626  0.0354  0.2893
    1W        W39040   4.504   4.980   2.044 -0.1545  0.0445 -0.0468
    1W        W39041  14.854  24.593   1.695 -0.0076 -0.0598 -0.0388
    1W        W39042  11.452  21.604   7.882  0.0495  0.1248 -0.0087
    1W        W39043   6.918   8.987   6.791 -0.0100 -0.1731  0.1932
    1W        W39044  28.051  25.822   7.309 -0.0092  0.2012  0.1315
    1W        W39045   5.204   9.669   6.336 -0.0918  0.2794  0.1054
    1W        W39046   5.884  23.232   9.362  0.3436  0.0866  0.2051
    1W        W39047  20.088   5.775   2.319  0.2894  0.2820 -0.2775
    1W        W39048  20.466   0.409   8.816  0.0990  0.0066 -0.1183
    1W        W39049   0.090   7.203   8.805 -0.2342  0.1066  0.1003
    1W        W39050   0.885  12.093   0.514 -0.0768  0.0880 -0.3001
    1W        W39051   2.706  21.432   0.471 -0.3483 -0.0675 -0.0134
    1W        W39052  13.307   5.534   2.268  0.0313 -0.0252 -0.5115
    1W        W39053  23.511   8.249   1.342 -0.0977  0.1061  0.2614
    1W        W39054  13.231  18.360   6.943 -0.0890  0.1806  0.0742
    1W        W39055   9.104  21.203   1.873  0.0066 -0.1382 -0.0340
    1W        W39056  25.592  24.747   0.445 -0.1573  0.0725  0.0847
    1W        W39057  29.013  20.240   3.916  0.0090  0.1628  0.2370
    1W        W39058  27.389  22.857   0.808 -0.0944 -0.0918  0.2657
    1W        W39059  11.595   1.850   9.591  0.0955 -0.1056 -0.4052
    1W        W39060  20.466  28.983   2.049  0.0576 -0.2095  0.4683
    1W        W39061   5.049  14.631   8.546  0.1473 -0.0313  0.2045
    1W        W39062  28.883  25.849   0.813 -0.2766  0.1960 -0.1321
    1W        W39063   8.608  27.813   6.192 -0.1358  0.1571 -0.1268
    1W        W39064  16.766  29.385   2.181  0.0233 -0.0356 -0.0539
    1W        W39065  22.959  26.569   8.105  0.0979 -0.2969 -0.1870
    1W        W39066  23.146  16.593   2.138 -0.0893 -0.0156  0.0014
    1W        W39067  28.062  23.291   9.229 -0.4031 -0.0347  0.0510
    1W        W39068  19.370  19.710   6.875 -0.2643  0.0286  0.1085
    1W        W39069   1.774   1.180   0.894  0.0311  0.0614  0.2004
    1W        W39070  25.148   0.619   1.201 -0.0491 -0.1922  0.3009
    1W        W39071  25.825   9.161   7.745 -0.0783 -0.1332  0.1571
    1W        W39072  13.765   8.595   8.362  0.0211  0.0589  0.0988
    1W        W39073  18.963  19.936   0.847 -0.0710  0.1156  0.3495
    1W        W39074  16.201   3.851   1.324 -0.2626  0.0057  0.2522
    1W        W39075  20.264   6.292   7.470  0.0666 -0.1479 -0.0362
    1W        W39076  14.871  10.620   8.797 -0.2472  0.2586  0.1292
    1W        W39077  11.306  23.999   9.563  0.0354  0.0864  0.1072
    1W        W39078   5.534   9.325   0.073  0.0126 -0.0136  0.2050
    1W        W39079  13.891  22.134   9.572  0.1004 -0.0585 -0.3642
    1W        W39080  11.173  12.375   1.950 -0.1186 -0.1759  0.0422
    1W        W39081  25.129  23.619   8.291  0.0223  0.0662  0.1154
    1W        W39082   1.816  18.079   7.224  0.2898 -0.1520  0.1992
    1W        W39083   0.121  13.262   1.825  0.3041 -0.3122  0.0308
    1W        W39084  20.679  23.291   0.409 -0.0627 -0.0009  0.0537
    1W        W39085  24.475  17.547   0.185 -0.0565  0.0615  0.1255
    1W        W39086   1.486  12.421   9.167  0.0419  0.0411  0.2063
    1W        W39087   3.074   7.206   6.598 -0.0720  0.0098 -0.2244
    1W        W39088  16.274  17.123   0.494 -0.0448  0.1310 -0.1193
    1W        W39089  13.755   8.622   0.538  0.0763 -0.2187 -0.2579
    1W        W39090  26.653   5.863   7.580  0.1395  0.0424 -0.4534
    1W        W39091   3.060   4.496   0.116 -0.1020  0.1372  0.1997
    1W        W39092  13.935  27.865   0.568  0.1927  0.3199 -0.0521
    1W        W39093   3.078  12.233   7.980  0.1062 -0.0360 -0.3905
    1W        W39094   0.674  11.685   9.271  0.0931 -0.1169 -0.3285
    1W        W39095  20.560  27.349   7.871 -0.1803  0.2554 -0.0346
    1W        W39096  10.306  20.439   9.428 -0.0261 -0.0115 -0.1424
    1W        W39097  28.884   2.082   6.973  0.2136 -0.0550 -0.0881
    1W        W39098  14.106  11.574   2.333 -0.0622  0.0327 -0.0643
    1W        W39099  23.538  11.346   2.084 -0.1712  0.1956  0.0035
    1W        W39100  10.078  11.983   7.408 -0.4223 -0.2031 -0.2481
    1W        W39101  10.029  23.093   1.376 -0.0737  0.0670  0.2438
    1W        W39102  15.382  10.158   9.189 -0.0505  0.1660  0.1412
    1W        W39103  24.429  15.163   0.966 -0.1055 -0.1886 -0.1307
    1W        W39104  14.826  16.058   6.125 -0.0747 -0.0640 -0.0541
    1W        W39105   7.288  29.107   6.616  0.0511 -0.0182 -0.1281
    1W        W39106  15.350   5.960   0.538 -0.0644  0.1801 -0.2651
    1W        W39107   5.059  11.185   9.445 -0.0240  0.0656  0.1225
    1W        W39108  25.925  21.337   9.064 -0.1027 -0.0161  0.2108
    1W        W39109  17.227   3.601   6.742 -0.0033 -0.1828 -0.1088
    1W        W39110   8.471  29.539   6.613 -0.0016 -0.0092  0.2726
    1W        W39111  20.102   9.041   8.775  0.3256 -0.4669  0.0136
    1W        W39112   6.665  12.988   7.288  0.0938  0.3035 -0.1966
    1W        W39113  26.140  29.209   8.017  0.0264 -0.0241  0.0811
    1W        W39114  14.291  21.361   9.448 -0.0260  0.0891  0.0603
    1W        W39115   8.664  10.965   6.193 -0.0967  0.1013  0.2989
    1W        W39116  22.678  26.915   9.362  0.1127  0.2385 -0.1763
    1W        W39117  26.222  12.452   1.958  0.1840 -0.0477  0.2511
    1W        W39118  21.469   7.205   8.036 -0.3608 -0.0600 -0.0814
    1W        W39119  12.963  14.958   2.076 -0.1883 -0.0563 -0.2649
    1W        W39120  28.220  17.445   8.246 -0.0609  0.1923 -0.2381
    1W        W39121  29.098  10.827   7.396 -0.0753 -0.0267 -0.0579
    1W        W39122   1.659   4.581   6.758 -0.2736 -0.2300  0.2106
    1W        W39123   9.201  18.948   2.406 -0.0471 -0.0754  0.0315
    1W        W39124  24.200  29.378   3.124  0.1314 -0.2197  0.0195
    1W        W39125   2.207  11.462   8.019  0.1549  0.0493 -0.0102
    1W        W39126   3.587  24.332   2.527  0.0614  0.1406 -0.0752
    1W        W39127  17.706   9.485   7.545 -0.2183 -0.1929  0.1151
    1W        W39128  20.130  26.036   3.048 -0.1936  0.1395 -0.2055
    1W        W39129  16.584   4.207   1.727 -0.1119  0.2204  0.1952
    1W        W39130  15.093   7.019   6.104  0.1611 -0.0616 -0.0922
    1W        W39131  13.958   5.199   6.840 -0.0326 -0.3881 -0.0833
    1W        W39132  27.233  25.941   1.288  0.0294 -0.2970  0.0678
    1W        W39133   9.162   8.355   8.670 -0.0178 -0.0323 -0.0674
    1W        W39134   3.341   7.055   8.536  0.4178  0.0046  0.2091
    1W        W39135  13.011   7.413   2.725 -0.1013  0.1362 -0.1335
    1W        W39136   1.799  24.945   8.097  0.2480  0.2220 -0.2383
    1W        W39137   0.686  26.570   9.619 -0.2485 -0.0105  0.0730
    1W        W39138  19.762   0.898   9.144 -0.1998  0.0471  0.0858
    1W        W39139  23.787   7.991   7.078  0.0406 -0.0272 -0.0432
    1W        W39140  29.236   4.303   0.976  0.1495  0.0946  0.0457
    1W        W39141   8.659   0.963   2.063 -0.0136 -0.1638  0.0472
    1W        W39142   0.919   7.095   2.256  0.1011  0.0343 -0.1283
    1W        W39143  23.187  12.843   8.313  0.0764 -0.1241 -0.0819
    1W        W39144  14.760   7.782   7.950 -0.0084 -0.0255 -0.1757
    1W        W39145   4.247  26.534   1.914  0.0687  0.1383  0.2062
    1W        W39146  14.366  16.132   8.949 -0.0071  0.1331  0.0034
    1W        W39147   3.836  27.474   1.171 -0.0204  0.2861  0.0629
    1W        W39148   6.244  10.452   8.641  0.0254  0.1023  0.2812
    1W        W39149   9.135  18.759   1.959  0.1028 -0.0378 -0.0613
    1W        W39150   4.080  19.408   2.509 -0.1658 -0.1850 -0.1146
    1W        W39151  16.444   1.020   7.422  0.3842 -0.1238 -0.0537
    1W        W39152   1.980  12.616   8.501  0.2804  0.2210 -0.1930
    1W        W39153  18.166  18.691   7.058  0.0083 -0.2512 -0.1943
    1W        W39154   5.190   0.542   7.224  0.1626 -0.0046  0.2951
    1W        W39155  29.299  16.905   1.665 -0.1352  0.0525  0.0570
    1W        W39156  20.064   1.314   9.088 -0.2648  0.4508  0.2673
    1W        W39157   3.296  15.075   9.070 -0.1566  0.0320 -0.1831
    1W        W39158  28.208   2.603   8.182  0.1906 -0.1880 -0.1461
    1W        W39159  14.173  17.875   0.301 -0.0839 -0.0801 -0.1120
    1W        W39160  14.145   6.492   2.207 -0.0369  0.0727  0.1124
    1W        W39161   0.205  21.122   7.195  0.2599  0.1518  0.0525
    1W        W39162   5.119  26.480   7.354  0.0868 -0.1789  0.1148
    1W        W39163  26.582  24.966   8.183  0.0090  0.2219  0.1358
    1W        W39164  22.297  21.320   3.096 -0.2773 -0.3326 -0.5627
    1W        W39165  12.443  24.671   2.274  0.0306  0.1152 -0.2296
    1W        W39166  21.185   7.745   0.425 -0.2060 -0.2890  0.2731
    1W        W39167  14.408  28.510   6.936 -0.0181  0.4506 -0.2447
    1W        W39168   4.523   5.626   0.847 -0.2016  0.1198  0.1309
    1W        W39169  24.241   5.446   9.104 -0.0454  0.0009 -0.2982
    1W        W39170  17.498  24.628   7.624  0.3657  0.1076 -0.0610
    1W        W39171  29.173  18.459   8.989  0.0172  0.1290  0.0193
    1W        W39172   1.168  10.435   6.246 -0.0827 -0.2331 -0.0762
    1W        W39173  13.239  10.298   7.580 -0.1630  0.0735  0.1678
    1W        W39174   9.882  11.512   8.701 -0.0845 -0.2851  0.0645
    1W        W39175   1.413  18.424   1.826 -0.0702  0.1704 -0.2786
    1W        W39176  19.155  17.308   2.541 -0.0755 -0.2148 -0.0430
    1W        W39177  23.941  11.303   8.973  0.1190  0.0084  0.0973
    1W        W39178  28.007  17.778   2.976  0.0134 -0.0302 -0.1246
    1W        W39179  20.192   0.359   3.286  0.0744  0.3068 -0.0473
    1W        W39180  12.762  28.251   7.065 -0.0472  0.0108 -0.0701
    1W        W39181  22.599  27.049   3.486 -0.1866  0.0512  0.4403
    1W        W39182  17.064  23.286   8.997  0.0507 -0.2478  0.2281
    1W        W39183  25.900  26.747   7.958  0.2678  0.2745 -0.0076
    1W        W39184  20.661  20.076   2.100  0.0530  0.1836 -0.0306
    1W        W39185   2.519   6.696   0.448  0.3735 -0.1697 -0.3555
    1W        W39186  15.592  26.226   1.995  0.0715  0.0125  0.0557
    1W        W39187   0.403  20.072   7.509  0.0908  0.3840  0.3234
    1W        W39188  13.247  18.900   8.188 -0.0739  0.1316 -0.1536
    1W        W39189  17.617  11.258   0.228 -0.1690 -0.0315  0.0517
    1W        W39190   0.180   3.754   0.935 -0.0357 -0.0629  0.0064
    1W        W39191   7.828   6.442   8.644  0.1138 -0.1877 -0.1847
    1W        W39192  22.824  12.380   8.334 -0.0900 -0.1022 -0.1149
    1W        W39193   6.730   1.646   6.722 -0.3609 -0.0312 -0.0558
    1W        W39194  22.911  15.847   9.572 -0.3631  0.0872 -0.1646
    1W        W39195  14.466  29.477   2.866 -0.0791 -0.4127 -0.2034
    1W        W39196   4.496  14.363   1.545  0.2115 -0.2442  0.0576
    1W        W39197  20.472  23.319   4.042  0.0612  0.2206  0.0227
    1W        W39198  25.674  18.899   0.506 -0.2772 -0.1421  0.1082
    1W        W39199  18.129   7.979   1.925 -0.2457  0.0085 -0.0788
    1W        W39200  11.371  20.757   8.249  0.0168 -0.0776 -0.1094
    1W        W39201  19.798   9.470   7.503 -0.0090  0.0568  0.0004
    1W        W39202  13.918   9.915   7.496 -0.2845 -0.2767 -0.1073
    1W        W39203  13.871  14.955   2.139 -0.0288 -0.2513  0.0464
    1W        W39204  13.827  14.040   7.717 -0.0777 -0.2524 -0.3721
    1W        W39205  12.606  10.089   8.050  0.0860 -0.0197  0.4034
    1W        W39206  21.787   4.234   9.638  0.1316 -0.0241 -0.1480
    1W        W39207  24.377   9.277   9.315 -0.1037  0.0704  0.0935
    1W        W39208  19.104  28.680   2.661  0.0512 -0.0030  0.1076
    1W        W39209   3.032  15.468   7.137  0.0432  0.0987  0.2500
    1W        W39210   8.135  26.513   0.735 -0.3679 -0.0000  0.0623
    1W        W39211  10.430  27.777   7.652  0.1059  0.3270  0.2083
    1W        W39212  12.100   4.968   9.312  0.0399 -0.0284 -0.1116
    1W        W39213  23.092  27.025   9.007  0.0575 -0.0611 -0.2718
    1W        W39214  11.273  22.581   1.175 -0.2245  0.0351 -0.2459
    1W        W39215  25.915  17.937   3.908  0.1501  0.2757 -0.1548
    1W        W39216   7.988   0.867   7.599 -0.0624 -0.2466 -0.3521
    1W        W39217  13.431  12.171   8.669  0.1211 -0.2554 -0.1597
    1W        W39218  27.522  17.606   2.940  0.1919  0.0300 -0.1033
    1W        W39219   5.784  18.734   6.904 -0.1184  0.3509  0.0100
    1W        W39220   3.321  26.768   2.907 -0.1162 -0.0171 -0.1771
    1W        W39221  24.889   0.453   2.849  0.0339 -0.1809 -0.3412
    1W        W39222  16.947  27.755   1.923  0.1488 -0.3784  0.0753
    1W        W39223  14.979  26.764   0.424  0.3014  0.0946 -0.1687
    1W        W39224  26.441  20.087   8.853 -0.3504 -0.0407  0.0199
    1W        W39225   9.504  14.879   2.973 -0.0804 -0.1273 -0.0733
    1W        W39226   3.841  14.328   0.991 -0.5175 -0.2531  0.1274
    1W        W39227   5.724  21.372   8.013  0.4527  0.1825  0.1335
    1W        W39228  29.454   1.681   2.338 -0.0750 -0.1936 -0.0603
    1W        W39229  17.610   6.038   2.006  0.0825  0.0776  0.3303
    1W        W39230   3.404  15.792   7.379  0.0564 -0.1466 -0.1556
    1W        W39231   0.622   0.459   1.230  0.1237 -0.2242  0.0377
    1W        W39232   1.057   8.732   6.484 -0.0454  0.2306 -0.1427
    1W        W39233  16.216   1.910   1.262  0.3320  0.0993  0.0975
    1W        W39234  25.049   8.659   9.610  0.2379 -0.0651 -0.1207
    1W        W39235  13.293   6.740   9.077 -0.0886  0.0285  0.1624
    1W        W39236  21.063   2.905   0.531 -0.2901  0.1419 -0.1729
    1W        W39237   8.331  14.349   6.353  0.2334  0.1212  0.1295
    1W        W39238  15.645  17.188   8.039  0.2743 -0.1891  0.0085
    1W        W39239   5.584   9.858   0.235  0.1566  0.2066 -0.2594
    1W        W39240  22.069  29.477   8.209 -0.1801  0.1489 -0.0474
    1W        W39241   8.644  24.411   9.629  0.1141 -0.1345 -0.4343
    1W        W39242  20.448  17.836   8.356 -0.0864  0.0639  0.0810
    1W        W39243   8.487   0.826   7.730 -0.1477 -0.1817  0.1603
    1W        W39244  11.176  21.345   8.796 -0.2150  0.1069 -0.0382
    1W        W39245  17.232  19.711   8.626  0.1462  0.0188  0.3859
    1W        W39246  22.672  27.297   2.573  0.1762  0.0285  0.2039
    1W        W39247  15.847  26.147   1.075  0.0208 -0.0336 -0.0232
    1W        W39248  14.103  27.869   8.325  0.0965  0.1005 -0.0893
    1W        W39249   6.423   6.262   9.617  0.3039  0.0525  0.1212
    1W        W39250   3.695  24.313   7.132 -0.2513 -0.2506  0.2005
    1W        W39251   5.899  22.779   7.880 -0.0278 -0.2070  0.0305
    1W        W39252  13.329  10.738   9.221  0.0563  0.2433  0.1933
    1W        W39253  18.425  21.244   1.358  0.2856  0.0210  0.1443
    1W        W39254  27.665   6.843   8.682  0.0126 -0.0478 -0.3189
    1W        W39255  11.743  15.250   1.786  0.2472  0.0980 -0.1910
    1W        W39256  25.760  28.602   7.218 -0.2670 -0.2027 -0.2168
    1W        W39257  10.553  27.110   8.220  0.2745 -0.1108 -0.1242
    1W        W39258  17.157  28.558   1.348  0.0358 -0.1144  0.2237
    1W        W39259  13.681  22.220   8.973 -0.0176 -0.0328  0.0773
    1W        W39260  22.519   2.688   2.209  0.0302  0.3565  0.5154
    1W        W39261  21.797   8.804   9.154 -0.0514 -0.0493  0.0947
    1W        W39262   3.449   5.114   1.474 -0.1047  0.0286 -0.2164
    1W        W39263   8.047   4.378   0.469 -0.1499 -0.3289  0.0170
    1W        W39264   5.345   8.476   5.842  0.2029 -0.1672  0.3598
    1W        W39265  19.816   7.223   2.626 -0.4470 -0.1260  0.1251
    1W        W39266  13.408   6.560   6.513  0.2858  0.5302  0.0156
    1W        W39267   1.637  22.417   2.807 -0.2798  0.0529  0.1730
    1W        W39268  20.434  19.407   3.517  0.0272  0.3775 -0.1163
    1W        W39269   3.200  18.050   1.816 -0.2094  0.0273  0.0927
    1W        W39270   6.316  26.415   1.420 -0.0247  0.0954  0.0367
    1W        W39271  10.499   8.270   7.016  0.2526 -0.3572 -0.1314
    1W        W39272  16.001  24.174   7.281 -0.0388  0.1696 -0.2128
    1W        W39273  23.300  12.633   1.620 -0.2537 -0.0691 -0.0442
    1W        W39274   6.795   4.254   0.940 -0.0103  0.0030 -0.1062
    1W        W39275  29.250  11.018   6.715 -0.0078  0.2631  0.4004
    1W        W39276   5.307   3.193   8.152 -0.1415 -0.0210  0.0725
    1W        W39277  12.389  18.108   1.014  0.0525  0.1160 -0.2443
    1W        W39278  26.763  28.827   0.175  0.0437  0.1542 -0.5260
    1W        W39279  21.392  27.323   8.369  0.1594 -0.1231  0.1183
    1W        W39280  12.458  27.530   6.726 -0.2769  0.0651 -0.1843
    1W        W39281  10.084   5.466   0.555  0.1743  0.0688 -0.1675
    1W        W39282  20.136  25.091   0.849 -0.0758  0.2814  0.1257
    1W        W39283  14.229   3.467   0.926 -0.1483 -0.2586 -0.3243
    1W        W39284  13.581  28.230   1.522 -0.1351 -0.1319  0.0422
    1W        W39285   2.578  27.991   1.006 -0.1559  0.0444 -0.2088
    1W        W39286  29.232   7.584   0.325  0.0116 -0.2305  0.3048
    1W        W39287   7.148  15.297   7.951 -0.0664 -0.4062 -0.1012
    1W        W39288   6.601   3.106   2.055  0.0833  0.1120 -0.2496
    1W        W39289  28.804  28.587   1.442 -0.0641  0.2266 -0.0894
    1W        W39290  14.706   2.644   2.438 -0.2137  0.3260  0.0611
    1W        W39291  26.285  16.860   7.718  0.3215 -0.0409  0.0003
    1W        W39292  17.294   0.492   7.164 -0.1574  0.1231  0.0783
    1W        W39293  29.216  11.575   7.686 -0.1219  0.1189 -0.0496
    1W        W39294   8.258   3.773   1.648 -0.1743 -0.1491  0.1476
    1W        W39295  17.657   9.773   1.664 -0.1001  0.1889 -0.1780
    1W        W39296   1.432  26.802   6.279  0.0410  0.3531 -0.1037
    1W        W39297   0.953  27.294   1.978  0.1555  0.0381 -0.1528
    1W        W39298   3.266  22.684   3.391  0.0034 -0.0124 -0.0814
    1W        W39299  16.042  12.649   0.506 -0.2005  0.3769  0.1894
    1W        W39300   7.549   8.167   8.795  0.3319  0.0216  0.1235
    1W        W39301   4.508   7.719   6.271 -0.0102 -0.3111 -0.5138
    1W        W39302  28.016  12.686   7.546 -0.1243  0.2264 -0.0827
    1W        W39303   0.393  11.392   1.871 -0.0916 -0.1712 -0.1120
    1W        W39304   3.012  21.098   1.505 -0.0649  0.0895 -0.2806
    1W        W39305  29.579  28.627   3.285  0.2670  0.0887 -0.0111
    1W        W39306  29.379  12.168   2.116 -0.3765  0.0486  0.0068
    1W        W39307  19.094  11.427   0.328  0.0433 -0.1181 -0.2190
    1W        W39308  18.070  24.634   8.275 -0.1482 -0.2129 -0.2382
    1W        W39309  25.985  14.487   8.392 -0.0537 -0.1445 -0.2237
    1W        W39310   6.690  20.080   0.845 -0.0190  0.1691 -0.2124
    1W        W39311  12.819   7.801   8.129  0.0980  0.1753  0.3370
    1W        W39312  15.741  16.460   6.294 -0.0226  0.0798 -0.0089
    1W        W39313  20.730   0.578   1.153 -0.0916  0.1221  0.0461
    1W        W39314  17.442   7.930   9.467 -0.1820  0.1747 -0.2458
    1W        W39315  10.918  22.240   0.098 -0.0006  0.0817 -0.1878
    1W        W39316   5.863  18.475   2.346 -0.3851  0.1456 -0.1719
    1W        W39317  23.558  21.977   1.571 -0.1989  0.2654 -0.0147
    1W        W39318   9.996  20.481   8.445 -0.3138  0.0681  0.1576
    1W        W39319  10.334  24.746   0.539  0.1283 -0.0791 -0.2778
    1W        W39320  19.762  10.197   9.381  0.0265 -0.2098  0.4114
    1W        W39321  22.982  10.099   7.504 -0.0530  0.0052  0.0125
    1W        W39322  10.021  18.160   8.597  0.1187  0.0748 -0.1720
    1W        W39323  13.379  11.419   6.245  0.2542  0.0431  0.3744
    1W        W39324  11.507  16.861   8.444 -0.3636 -0.0139  0.0422
    1W        W39325  24.710  10.482   8.782  0.2687  0.0352  0.3012
    1W        W39326   9.211  29.115   9.410 -0.1347 -0.2132  0.2762
    1W        W39327   8.624  29.198   1.169 -0.1101 -0.3327  0.1454
    1W        W39328  23.029  19.771   8.634 -0.5095 -0.1042 -0.0611
    1W        W39329  10.013  11.685   1.448 -0.1151 -0.1868  0.3227
    1W        W39330  13.186  25.970   9.571 -0.1759 -0.0006 -0.0588
    1W        W39331  24.567  23.457   2.869  0.1916 -0.2167  0.0612
    1W        W39332  15.980   1.809   8.529 -0.0096 -0.2509 -0.0284
    1W        W39333  15.450   0.712   1.734  0.0074 -0.2730  0.1976
    1W        W39334  11.014   6.486   7.332  0.2393  0.4227 -0.1362
    1W        W39335  22.856  23.376   1.029 -0.0271 -0.2383  0.1352
    1W        W39336  12.786  18.948   6.043 -0.0335 -0.1399 -0.3414
    1W        W39337  22.113  28.783   0.988 -0.0097 -0.1504  0.1593
    1W        W39338  24.978  11.043   2.075 -0.1034 -0.1473  0.1753
    1W        W39339  24.570   0.207   2.499 -0.2699 -0.1310  0.0105
    1W        W39340  22.862  14.077   2.367 -0.2124  0.1706 -0.2943
    1W        W39341  13.320  11.341   1.346  0.0868 -0.3014  0.1062
    1W        W39342   4.772  29.488   8.769 -0.2225 -0.0120 -0.1776
    1W        W39343  26.309   2.466   8.103  0.4354 -0.1336 -0.0182
    1W        W39344  14.504  22.748   7.386 -0.1174  0.1926 -0.2601
    1W        W39345   3.902   6.342   7.978 -0.0770 -0.2236 -0.0880
    1W        W39346  19.821   5.223   7.922  0.1472  0.2614  0.3290
    1W        W39347   6.242  27.275   1.716 -0.0855  0.3629  0.0590
    1W        W39348  13.848  10.503   0.847  0.1776 -0.2124 -0.2686
    1W        W39349  24.098  24.520   2.561 -0.0525  0.1113 -0.0140
    1W        W39350  23.181  23.159   7.568  0.2216  0.0202 -0.2781
    1W        W39351   2.900  29.437   7.284  0.0710  0.3395  0.2334
    1W        W39352  28.504  21.264   0.293  0.0390  0.0200  0.2207
    1W        W39353   3.011  27.988   7.461 -0.3020  0.1091 -0.0817
    1W        W39354   2.787   2.394   1.634  0.2637 -0.1816 -0.1923
    1W        W39355  20.605  22.174   8.431  0.1006 -0.1350 -0.1959
    1W        W39356  29.090  22.847   2.783  0.2181  0.0550  0.0282
    1W        W39357  11.049   1.697   1.896 -0.2957  0.3966 -0.1015
    1W        W39358   2.134  20.482   7.804 -0.1115  0.2893 -0.0095
    1W        W39359   1.405  13.749   1.464 -0.2543  0.2180  0.0212
    1W        W39360   5.658  17.913   2.120  0.0103 -0.1891  0.2075
    1W        W39361  10.441  11.443   1.378  0.0782  0.0006  0.0952
    1W        W39362   9.609   6.410   6.035  0.1364 -0.0084  0.1828
    1W        W39363  28.196  25.696   8.506  0.3300 -0.2125 -0.1519
    1W        W39364   6.877  21.385   0.543 -0.2031 -0.2239 -0.3440
    1W        W39365  10.026  19.419   1.983  0.0582 -0.0478 -0.0908
    1W        W39366   0.555  20.160   3.369 -0.0950 -0.3325  0.1276
    1W        W39367  19.532   7.694   7.966 -0.1009  0.0400  0.0486
    1W        W39368  11.686  17.527   6.713 -0.1763 -0.1594  0.1477
    1W        W39369   5.237  10.619   5.587  0.1184 -0.2313 -0.2521
    1W        W39370   7.076   0.377   0.523 -0.0159 -0.0668  0.0521
    1W        W39371   8.304  13.040   7.191 -0.3105 -0.1182  0.2778
    1W        W39372  17.573  26.169   7.143 -0.2627  0.1807  0.1159
    1W        W39373  15.266  20.925   2.115 -0.3338 -0.1956 -0.0881
    1W        W39374  13.067  19.433   8.164 -0.0269  0.1139  0.1385
    1W        W39375  27.967   0.520   1.976 -0.0188 -0.1178  0.1344
    1W        W39376   2.085  14.785   7.830 -0.0248  0.0558  0.0572
    1W        W39377   3.279  10.971   7.439 -0.1387  0.0134  0.3355
    1W        W39378  27.203  25.451   8.355 -0.3707 -0.4754 -0.0394
    1W        W39379   8.900   2.199   8.919 -0.0209 -0.1040 -0.1185
    1W        W39380  22.847  14.798   9.478 -0.2880 -0.2451 -0.1167
    1W        W39381  26.488  10.482   7.453  0.0218  0.1152 -0.0449
    1W        W39382   0.676   9.884   0.165 -0.1050 -0.0750  0.2417
    1W        W39383  14.782   4.804   0.024  0.0289  0.3005  0.0677
    1W        W39384  28.628  24.008   8.803  0.0725  0.1323  0.0434
    1W        W39385   5.776  15.363   7.555  0.1562 -0.4340  0.0529
    1W        W39386  11.826  20.203   8.891  0.2548  0.0178 -0.1412
    1W        W39387  27.160  28.211   1.690  0.0580 -0.0213 -0.3094
    1W        W39388  20.242  18.728   7.138  0.0804 -0.0785  0.1998
    1W        W39389  12.284   3.560   9.033 -0.1707  0.0112  0.3296
    1W        W39390  14.897   8.706   9.255  0.0802  0.0431 -0.0328
    1W        W39391  23.920  27.473   8.579  0.0214 -0.1428 -0.0248
    1W        W39392  26.271  12.549   0.758 -0.1716  0.0269  0.2065
    1W        W39393   4.913   9.678   1.457  0.2926 -0.1548  0.1239
    1W        W39394   6.344  17.747   2.064  0.2311 -0.0806 -0.2892
    1W        W39395  27.744  13.110   8.560 -0.2868 -0.0816  0.1432
    1W        W39396  19.873   3.150   3.298 -0.1056 -0.1267 -0.0088
    1W        W39397  19.607  23.793   0.333  0.2291 -0.0864  0.3179
    1W        W39398  11.330  18.407   1.165 -0.1161 -0.2320 -0.0239
    1W        W39399  28.466   3.860   8.229 -0.0287 -0.0081 -0.0448
    1W        W39400   8.203   5.999   6.450 -0.1165 -0.2661  0.0431
    1W        W39401  12.184   0.324   0.549  0.1776 -0.0481 -0.3089
    1W        W39402  18.762  19.396   0.877  0.2058  0.1657  0.0282
    1W        W39403  25.475   6.570   1.762 -0.2099  0.2013  0.1848
    1W        W39404   3.937   4.629   0.974  0.1864  0.0208 -0.2932
    1W        W39405  18.224  29.009   7.722  0.0770 -0.1727 -0.4104
    1W        W39406   8.294  18.769   7.727  0.1885  0.0356 -0.2604
    1W        W39407   2.329  13.951   1.784  0.1352 -0.0539  0.1402
    1W        W39408  21.247  21.576   8.327 -0.0584  0.0408  0.0337
    1W        W39409  13.996   1.116   0.099  0.1731  0.0764  0.0919
    1W        W39410   5.490  24.532   0.021  0.1764 -0.3819 -0.1989
    1W        W39411  23.091  10.027   1.636  0.3414 -0.1881 -0.2200
    1W        W39412  17.682   5.156   6.734  0.2847 -0.0637  0.0566
    1W        W39413  27.882  15.021   1.402 -0.1213 -0.0422  0.1039
    1W        W39414  17.669   7.415   8.365 -0.0312 -0.1547 -0.1627
    1W        W39415  19.259  23.935   1.886 -0.1087 -0.3182  0.2519
    1W        W39416   9.251   4.089   8.287  0.0238  0.2828 -0.1066
    1W        W39417   7.602  23.362   1.773  0.3600  0.1099  0.1146
    1W        W39418  26.135  19.598   2.674 -0.1383  0.0406 -0.1598
    1W        W39419   0.453   7.366   9.481  0.3039 -0.2621  0.2837
    1W        W39420   6.306   6.969   1.668  0.0801 -0.1409  0.1315
    1W        W39421   9.183  11.687   1.721 -0.0611  0.0204 -0.0931
    1W        W39422  10.314  12.111   7.824  0.0228  0.0670 -0.0181
    1W        W39423  10.993   6.607   8.628  0.0515  0.0449  0.1582
    1W        W39424  13.848  20.791   6.353 -0.1937  0.4320 -0.3372
    1W        W39425   4.017  27.184   8.940  0.0501  0.0339  0.1211
    1W        W39426   2.275   9.386   0.833 -0.2261  0.1036 -0.1503
    1W        W39427   0.149  14.319   1.700  0.1734 -0.1964 -0.0061
    1W        W39428  12.981   5.726   8.225  0.0514  0.3247  0.0831
    1W        W39429   7.209   5.218   7.884 -0.2353  0.2291 -0.2417
    1W        W39430  20.329  16.909   1.662  0.1119 -0.2727  0.0441
    1W        W39431  28.639  27.542   0.433  0.0180 -0.1070 -0.1348
    1W        W39432  22.938   7.837   1.358  0.0957 -0.0539 -0.1981
    1W        W39433   5.165  15.080   7.845  0.0017  0.1478 -0.2032
    1W        W39434   5.039  20.260   8.646 -0.0931 -0.0759  0.1390
    1W        W39435   4.169  18.926   0.963  0.0056 -0.1958  0.1931
    1W        W39436  21.404  27.407   8.902  0.2700 -0.0274  0.1881
    1W        W39437   6.669  23.189   2.113 -0.3232 -0.0994  0.0383
    1W        W39438  15.123  12.348   9.010 -0.0806  0.0522  0.1441
    1W        W39439  20.932   5.345   7.929  0.1763  0.0967  0.1536
    1W        W39440  10.357  15.195   8.525  0.0253  0.4054  0.2220
    1W        W39441  24.912   9.040   1.193  0.2227  0.2925  0.0392
    1W        W39442  25.467  14.566   1.825 -0.1955  0.1360 -0.1157
    1W        W39443   0.700   2.266   8.841 -0.1033 -0.1008  0.3994
    1W        W39444  15.391  11.077   1.907 -0.1930 -0.0308  0.2294
    1W        W39445  29.300  12.713   1.215 -0.0397  0.3409  0.0409
    1W        W39446  15.778  14.135   7.303 -0.0706  0.4238  0.0088
    1W        W39447  20.795  12.411   8.278  0.0033 -0.3036 -0.2024
    1W        W39448  27.784  25.323   8.311  0.2980  0.4199 -0.0989
    1W        W39449  18.102   1.783   2.435 -0.0678  0.1944  0.0997
    1W        W39450  11.667  14.112   8.675  0.1634 -0.4147  0.3087
    1W        W39451  11.391   4.481   7.076 -0.1186 -0.0573 -0.0446
    1W        W39452  17.524  28.225   1.015  0.1270  0.3079 -0.0963
    1W        W39453  26.741  19.012   1.545 -0.0484 -0.0969  0.1282
    1W        W39454  25.053   0.086   7.611  0.0780  0.1028 -0.0425
    1W        W39455  10.391  17.088   7.832 -0.1866  0.2278 -0.1369
    1W        W39456   3.491  14.290   2.128  0.1527 -0.0679  0.2298
    1W        W39457   4.334   0.235   6.930 -0.0785 -0.0016 -0.0552
    1W        W39458   5.259  25.194   8.811  0.1373  0.0717  0.0245
    1W        W39459  10.120   3.896   7.185  0.3103 -0.2033  0.1308
    1W        W39460  29.180  20.837   3.196  0.2277 -0.1342  0.0299
    1W        W39461   2.657  13.209   0.139  0.3300  0.0781  0.2823
    1W        W39462  16.435   8.942   1.898 -0.3877  0.0410  0.1430
    1W        W39463  24.675   9.548   8.131  0.0622  0.6192 -0.0999
    1W        W39464  11.336  28.319   6.903  0.1423  0.1349  0.1384
    1W        W39465  13.951   8.672   2.342  0.1125 -0.0023 -0.2673
    1W        W39466  18.899  18.274   2.169 -0.2353 -0.2805  0.0023
    1W        W39467  14.049   2.658   1.225 -0.1386 -0.1903  0.3162
    1W        W39468  10.050  28.736   2.258  0.0020  0.0826 -0.0778
    1W        W39469  15.668   2.515   2.006  0.0873  0.4086  0.2299
    1W        W39470  13.760   4.220   6.286  0.2117  0.0884 -0.0290
    1W        W39471  16.537   1.223   7.930 -0.0784 -0.1323 -0.2376
    1W        W39472  25.092   0.288   8.692  0.1395 -0.0567 -0.3109
    1W        W39473  19.905   7.418   9.094  0.1656 -0.1658  0.2100
    1W        W39474  21.117  16.490   9.307 -0.0253  0.0973  0.0983
    1W        W39475  23.237   3.140   8.884  0.0059 -0.1233 -0.0070
    1W        W39476  17.630  14.634   9.296 -0.2349  0.2479  0.1704
    1W        W39477   9.447   9.483   7.729 -0.0999  0.0169  0.0596
    1W        W39478   8.095  27.320   8.273 -0.0990  0.2051 -0.3178
    1W        W39479  29.323  12.186   8.881 -0.1780 -0.1450 -0.2005
    1W        W39480  27.293  23.487   2.443  0.0783 -0.0886  0.2750
    1W        W39481  28.369  28.030   8.025  0.0594  0.2906  0.3269
    1W        W39482  23.819  29.316   7.796 -0.2563  0.2370 -0.1887
    1W        W39483  11.351   7.499   9.010  0.0239  0.4160 -0.1507
    1W        W39484   6.034  10.143   6.726 -0.0130 -0.1856  0.1799
    1W        W39485  20.780  26.423   7.813 -0.0822  0.2061 -0.0611
    1W        W39486  28.704  23.145   3.025  0.0145 -0.2792 -0.0303
    1W        W39487  20.927  22.681   8.623  0.1286 -0.0919  0.0352
    1W        W39488   2.127  28.401   8.670  0.0262 -0.0366 -0.1719
    1W        W39489   4.750   1.752   0.452  0.2580 -0.1717 -0.1027
    1W        W39490   1.593   6.463   1.530  0.2178 -0.0046  0.2313
    1W        W39491  12.287   3.186   1.398 -0.3951  0.0752 -0.2389
    1W        W39492   0.842  13.479   1.617  0.0591  0.1421  0.3483
    1W        W39493  17.735  11.951   1.869 -0.0213 -0.2669 -0.0138
    1W        W39494   4.222   2.383   0.322  0.0170  0.0895 -0.0887
    1W        W39495  24.549  22.466   8.303  0.1086 -0.2447 -0.1127
    1W        W39496  15.566  24.045   1.060 -0.0766  0.0941  0.0167
    1W        W39497   0.269  27.825   7.542  0.4306 -0.3652 -0.0723
    1W        W39498  24.044  14.978   2.806 -0.1019 -0.2083  0.2837
    1W        W39499  24.522   7.570   8.283  0.0844  0.0011 -0.2407
    1W        W39500   7.237  27.018   8.569 -0.0416  0.2385 -0.2455
    1W        W39501  24.039  17.931   2.245 -0.1339  0.0810  0.1286
    1W        W39502   7.845  18.603   8.774  0.1392 -0.2538 -0.1809
    1W        W39503  21.662   6.213   1.616 -0.0974 -0.3294 -0.1858
    1W        W39504  27.126  23.889   0.153 -0.1233 -0.1361 -0.1296
    1W        W39505  24.702   9.038   1.657 -0.2118  0.0009 -0.0693
    1W        W39506  10.815  20.741   7.122 -0.1903  0.2017 -0.4889
    1W        W39507  27.903  28.943   2.095 -0.1822  0.0013  0.2884
    1W        W39508   3.636  28.065   8.868  0.0812 -0.0285  0.0294
    1W        W39509   0.347  23.621   7.918 -0.2789 -0.2577  0.0689
    1W        W39510   7.983   2.778   8.822  0.1801 -0.0451 -0.2488
    1W        W39511   3.555  22.438   1.866 -0.0734  0.0525  0.0506
    1W        W39512  17.557   8.737   0.554  0.0760  0.3326  0.1936
    1W        W39513  14.226  20.891   6.903  0.2226 -0.0253  0.0576
    1W        W39514   3.487  15.195   6.118  0.0732 -0.3389 -0.2942
    1W        W39515  18.177  13.843   2.856 -0.0704  0.1965  0.3955
    1W        W39516  21.395  24.497   7.750 -0.1789  0.0415  0.0538
    1W        W39517   8.163  27.079   8.822 -0.1208  0.1205  0.0131
    1W        W39518   5.248   5.451   1.672  0.0564  0.3625 -0.1665
    1W        W39519  25.185  28.934   3.077  0.0792 -0.2008 -0.2271
    1W        W39520   3.691  11.275   0.370  0.1666  0.2163 -0.1510
    1W        W39521   5.336  24.691   0.494  0.1098 -0.2907 -0.1097
    1W        W39522  20.257  27.396   3.159  0.0789 -0.0325 -0.1609
    1W        W39523  25.135  20.026   1.859  0.0354 -0.2260  0.3947
    1W        W39524   2.486  28.221   0.602  0.3745 -0.2832  0.1021
    1W        W39525  14.333  19.856   0.560  0.1157 -0.2607 -0.0522
    1W        W39526  24.268   8.753   9.415  0.1819 -0.0937 -0.0854
    1W        W39527  28.919  25.325   0.816  0.2980 -0.4498 -0.0511
    1W        W39528   7.406   9.720   6.706 -0.3574  0.0273  0.1505
    1W        W39529   9.356  14.099   0.824 -0.1338 -0.3056  0.3144
    1W        W39530  28.570   2.060   0.279 -0.0781 -0.1835  0.0790
    1W        W39531   9.282  10.676   1.581 -0.1472 -0.0047 -0.2363
    1W        W39532  20.350  18.242   8.050 -0.2648 -0.1273 -0.0693
    1W        W39533  13.802  28.009   1.041 -0.2745  0.2256 -0.3108
    1W        W39534   8.339  20.560   7.569  0.1796 -0.0217 -0.2123
    1W        W39535   4.024  16.948   0.080  0.0062  0.1776 -0.0837
    1W        W39536   3.059   1.152   7.364 -0.2274  0.1280  0.1673
    1W        W39537  10.492  18.748   8.067 -0.1085  0.0515  0.2970
    1W        W39538  21.994  29.204   9.028  0.0047 -0.0921  0.0742
    1W        W39539   6.612  23.572   2.522  0.0509  0.1064 -0.0359
    1W        W39540   1.197   1.059   1.695  0.1740 -0.0922 -0.0368
    1W        W39541  29.172  27.330   0.472 -0.3782  0.0213  0.1522
    1W        W39542  12.672   7.187   9.581 -0.0365 -0.0195  0.1117
    1W        W39543  27.845  25.554   6.872 -0.1647  0.0193  0.0146
    1W        W39544  21.191  25.522   2.518  0.2357 -0.1679 -0.2439
    1W        W39545  17.727  21.903   9.336 -0.0361  0.0774 -0.1753
    1W        W39546   5.408  19.158   0.377 -0.1438  0.0178 -0.2628
    1W        W39547  18.899  16.664   0.489  0.2592  0.0650  0.0584
    1W        W39548  27.726  16.384   1.142  0.0512  0.4122  0.0137
    1W        W39549  18.469  19.585   3.202  0.0555 -0.1767 -0.2587
    1W        W39550   9.982  17.578   7.205 -0.1097  0.1303 -0.0284
    1W        W39551  20.940  20.589   3.783  0.2908 -0.1232  0.2031
    1W        W39552  19.279  10.961   7.817 -0.0408 -0.0084 -0.1022
    1W        W39553  28.255   7.913   6.076 -0.1039  0.2550 -0.0962
    1W        W39554   2.670  18.292   0.577  0.0282  0.3491 -0.0525
    1W        W39555  13.664  26.637   0.698  0.0566  0.0231 -0.2300
    1W        W39556  21.482   9.994   0.909 -0.2005 -0.0103 -0.1639
    1W        W39557   9.597   2.057   5.720 -0.3373  0.1862 -0.1132
    1W        W39558  18.941  13.163   9.460 -0.0385  0.1229 -0.0272
    1W        W39559  15.605  16.987   1.116 -0.1863 -0.3148 -0.2472
    1W        W39560  18.385  22.467   0.622  0.3504 -0.1552 -0.0322
    1W        W39561  14.886  12.990   2.515  0.2467  0.1375 -0.2860
    1W        W39562  19.165   6.566   0.748  0.1802 -0.1540 -0.0376
    1W        W39563  18.451  11.339   2.112  0.0781  0.2287 -0.2138
    1W        W39564  10.760   0.738   7.260 -0.0741 -0.0055  0.4181
    1W        W39565  23.438  17.717   0.732  0.3910 -0.0131  0.0596
    1W        W39566   5.149  29.198   9.074 -0.1544  0.2459  0.0278
    1W        W39567  28.815  27.552   3.634  0.1650  0.2441 -0.0103
    1W        W39568  25.077  22.891   1.524 -0.1401 -0.0788  0.0956
    1W        W39569  29.095  28.564   8.218 -0.0539 -0.1299  0.1817
    1W        W39570   4.088  26.458   8.237  0.2191 -0.0332  0.3126
    1W        W39571  28.178  15.706   2.320 -0.0492 -0.1894  0.1280
    1W        W39572   4.824   4.118   7.468  0.0608  0.1458 -0.1649
    1W        W39573   4.046  10.024   7.030 -0.0599 -0.3516 -0.3798
    1W        W39574   0.633   9.789   2.097 -0.1758 -0.1126 -0.0836
    1W        W39575  11.575  12.160   8.608 -0.1327 -0.1390  0.0962
    1W        W39576   1.828  21.170   7.671  0.1667 -0.3018 -0.0348
    1W        W39577  13.466  29.432   7.220  0.0712 -0.3226  0.2028
    1W        W39578  28.363   7.064   7.078 -0.0639 -0.0618  0.0145
    1W        W39579   7.828  21.688   7.990 -0.0604  0.1598  0.4022
    1W        W39580   8.572  14.437   7.549  0.0651  0.5144 -0.1873
    1W        W39581  10.123  22.435   2.100 -0.0062 -0.1700 -0.0070
    1W        W39582  22.611  26.951   0.270 -0.1783  0.1987  0.0293
    1W        W39583   3.887   4.092   8.714 -0.1230  0.3959 -0.1658
    1W        W39584  12.623   5.172   0.435 -0.1532 -0.1865  0.0281
    1W        W39585  18.096   0.766   3.420  0.0254  0.1355  0.0086
    1W        W39586  19.517   9.750   1.035 -0.2159  0.2524  0.2269
    1W        W39587  15.951   9.358   7.640  0.0221 -0.0797  0.2624
    1W        W39588   3.280   8.820   8.049 -0.2430  0.0772  0.0399
    1W        W39589  14.954   3.821   0.109 -0.1547  0.0995 -0.1403
    1W        W39590   3.925   5.099   7.209  0.0507 -0.2163  0.0727
    1W        W39591  26.337   5.834   1.313 -0.1130  0.0271 -0.0071
    1W        W39592  25.478  26.739   6.967 -0.0711 -0.0642 -0.1311
    1W        W39593   3.359  24.921   3.485 -0.0833 -0.0153  0.2903
    1W        W39594   5.196   0.207   0.316  0.0050  0.0377 -0.1711
    1W        W39595  17.850  12.063   8.426 -0.4072 -0.3102 -0.0761
    1W        W39596  22.754  18.931   8.529 -0.0511  0.1444  0.1113
    1W        W39597  29.157  24.739   1.402 -0.2296 -0.1572 -0.1674
    1W        W39598  15.003  15.633   9.106 -0.1549 -0.1510 -0.1409
    1W        W39599   4.249   7.852   9.178 -0.1624 -0.1868 -0.1750
    1W        W39600   8.004   6.561   0.928 -0.0094 -0.0468  0.2566
    1W        W39601  26.941   8.668   0.271  0.2034  0.0290 -0.0607
    1W        W39602  15.389  20.503   8.793  0.1291  0.0608 -0.2034
    1W        W39603   2.710   6.369   8.299  0.2789 -0.2553 -0.2834
    1W        W39604  27.702   1.553   7.676  0.3095 -0.1339 -0.2073
    1W        W39605  24.333  29.388   9.015  0.0775 -0.1290 -0.1762
    1W        W39606   2.744  12.486   2.807 -0.0862 -0.0233 -0.0488
    1W        W39607   6.958   1.029   7.858  0.1700 -0.0697  0.0850
    1W        W39608  18.587  19.818   8.036  0.0584 -0.1793  0.1558
    1W        W39609   5.899  20.341   8.088 -0.2330  0.1232 -0.2593
    1W        W39610  28.236  18.784   8.383  0.0032  0.1707  0.0527
    1W        W39611  18.028  18.030   8.030  0.0978  0.1506  0.1175
    1W        W39612  13.385  25.992   1.222  0.0947 -0.2881 -0.0230
    1W        W39613   5.081  11.695   8.633 -0.0791 -0.3869 -0.2890
    1W        W39614   1.212  10.081   7.587  0.1305 -0.0191  0.0646
    1W        W39615   9.254  20.251   2.946  0.0217 -0.0877 -0.0350
    1W        W39616  22.498  20.153   8.845  0.0798 -0.1249  0.1042
    1W        W39617   5.610  12.123   0.620  0.1089  0.1805 -0.1097
    1W        W39618  17.124  27.610   8.967 -0.1620  0.2032 -0.3172
    1W        W39619  18.128  25.515   7.462  0.1923  0.0223 -0.1032
    1W        W39620   2.163   3.929   0.606  0.1266 -0.0410  0.0976
    1W        W39621   1.894  16.119   7.092  0.0730 -0.0228 -0.0339
    1W        W39622  17.804  20.216   2.085 -0.0380  0.2098  0.1757
    1W        W39623  10.073  11.873   9.519 -0.1470 -0.0423 -0.0236
    1W        W39624   7.673   2.399   8.715  0.2660 -0.0944 -0.0724
    1W        W39625   6.142   6.957   2.742  0.2458  0.1461 -0.3387
    1W        W39626   1.565   0.325   7.132 -0.1077 -0.1614 -0.0094
    1W        W39627  25.945  28.719   1.331  0.1612 -0.2499  0.0281
    1W        W39628   8.515  20.545   9.112 -0.0881  0.3299  0.0061
    1W        W39629   7.895  28.025   8.129 -0.1494  0.1929 -0.1847
    1W        W39630  18.369  29.577   1.666 -0.2145  0.2359  0.1984
    1W        W39631  17.200  14.665   2.387 -0.1224 -0.4730 -0.1473
    1W        W39632   3.420   3.700   0.802 -0.2032 -0.0474 -0.0546
    1W        W39633   3.484  13.112   6.622 -0.1375  0.0017  0.0042
    1W        W39634  26.177  14.634   1.859  0.0746 -0.2303 -0.4052
    1W        W39635   0.383  24.179   0.065 -0.0169  0.0803  0.0793
    1W        W39636  25.127  16.917   2.703 -0.3237  0.1279 -0.3910
    1W        W39637   8.565  25.639   2.210 -0.2557  0.2205 -0.2153
    1W        W39638  21.534  19.786   8.313 -0.0119  0.0884  0.0144
    1W        W39639   9.854   9.303   1.076 -0.0554  0.1653  0.0583
    1W        W39640  12.536  10.939   1.431  0.0098 -0.0661  0.0319
    1W        W39641  17.918   2.710   3.379 -0.1919  0.0941  0.0373
    1W        W39642  24.919  19.319   1.048  0.0358 -0.2968 -0.0307
    1W        W39643  22.701  14.113   8.879 -0.0224 -0.0158  0.1287
    1W        W39644  20.033  21.061   9.624 -0.0765  0.0588  0.0741
    1W        W39645   6.341   6.756   8.744 -0.2895 -0.0057 -0.1361
    1W        W39646  24.114  16.017   9.531  0.1434 -0.0266 -0.2062
    1W        W39647  16.176   0.859   2.653  0.1124 -0.0791  0.3924
    1W        W39648   5.735  27.364   8.144  0.1459  0.0523  0.6126
    1W        W39649  19.949  11.419   0.066 -0.1787  0.0649  0.0656
    1W        W39650  23.521  10.440   1.670  0.0928 -0.0358 -0.0917
    1W        W39651  22.170  11.653   8.339 -0.0402  0.2715  0.2659
    1W        W39652  21.202   8.450   7.760  0.3650  0.0563 -0.0286
    1W        W39653  26.081   9.977   0.266 -0.1784 -0.2586 -0.1287
    1W        W39654   4.335  15.589   2.190  0.1190  0.0571 -0.3137
    1W        W39655  28.876   3.678   6.687  0.1741  0.3494 -0.1450
    1W        W39656   8.991  27.147   8.650 -0.1689 -0.2009  0.0941
    1W        W39657  10.753  16.339   1.363  0.0273 -0.1189 -0.0453
    1W        W39658  20.350  14.016   8.756  0.0015 -0.0169 -0.1514
    1W        W39659  11.461   3.385   1.066  0.3306  0.2511 -0.0961
    1W        W39660   4.158  28.023   6.842  0.0072  0.2004 -0.2765
    1W        W39661   3.653  18.692   8.540  0.1718 -0.0182 -0.3076
    1W        W39662  16.905  19.981   1.723  0.0389  0.0142 -0.0883
    1W        W39663  10.080  25.358   2.025  0.0963 -0.2511 -0.0315
    1W        W39664  14.758  19.763   7.627  0.2492  0.2725 -0.0562
    1W        W39665   6.923  12.772   0.791 -0.0221 -0.0368  0.3394
    1W        W39666  28.831  22.846   0.780  0.0116 -0.1135  0.0086
    1W        W39667  18.131  27.143   2.873  0.1462  0.1354  0.2592
    1W        W39668   5.052  19.447   7.175 -0.2491 -0.0415 -0.2508
    1W        W39669  14.916   8.846   0.574 -0.1620  0.1485 -0.0656
    1W        W39670  10.497  15.744   7.367  0.1145  0.0664 -0.2249
    1W        W39671   2.664  27.820   1.920 -0.0369 -0.0260  0.2399
    1W        W39672  17.379  25.160   7.722  0.1741  0.0205  0.1832
    1W        W39673  10.728   0.377   8.461  0.1128 -0.0893  0.1528
    1W        W39674   2.408  26.105   9.395 -0.4174 -0.1222  0.3215
    1W        W39675  13.410  23.457   1.188 -0.2386 -0.1196  0.1911
    1W        W39676   8.598  21.760   6.990 -0.1283  0.0318  0.3085
    1W        W39677  21.627  14.099   0.260 -0.0977 -0.3227  0.1810
    1W        W39678  13.690   6.914   8.452  0.1396  0.0544 -0.0846
    1W        W39679  15.271  24.290   6.535  0.1077  0.5710 -0.1538
    1W        W39680  18.840  24.105   8.652 -0.2441  0.1685 -0.1371
    1W        W39681  29.332  13.237   7.502 -0.0986  0.1922  0.3483
    1W        W39682   2.855  18.993   7.341 -0.1037 -0.0252  0.1676
    1W        W39683  13.897   2.068   1.590 -0.0388 -0.0024  0.1091
    1W        W39684  12.921  28.022   8.858  0.0365  0.1255 -0.2087
    1W        W39685   4.920   4.042   9.028  0.3960  0.0236  0.2814
    1W        W39686   3.004  10.519   8.046 -0.1874  0.1297 -0.0731
    1W        W39687  26.096  22.876   8.808 -0.3092  0.1707 -0.1629
    1W        W39688  20.137  10.787   1.305 -0.2206 -0.2506  0.0505
    1W        W39689  28.262   0.319   2.348 -0.1327  0.0809  0.0511
    1W        W39690   6.884  15.526   0.846  0.0427 -0.1203  0.0190
    1W        W39691  21.122  14.610   8.863  0.1159 -0.0120  0.0331
    1W        W39692   5.210  24.628   2.946  0.0709 -0.0484 -0.0124
    1W        W39693  15.068   8.135   7.424 -0.2321  0.0240  0.0696
    1W        W39694  11.381  17.157   8.071 -0.1681 -0.0215  0.0886
    1W        W39695   4.941   6.440   5.746  0.2088  0.2107 -0.0709
    1W        W39696   1.479  26.673   0.914 -0.1184 -0.0580 -0.2170
    1W        W39697  13.615   4.062   8.689  0.2066  0.1425  0.2241
    1W        W39698   5.275   5.352   0.818 -0.1810  0.2833  0.1305
    1W        W39699  22.426  12.698   7.240 -0.1094  0.0906  0.0582
    1W        W39700  13.018  21.146   0.908  0.3249 -0.3385 -0.0515
    1W        W39701  14.784   8.430   6.714  0.0706 -0.1239 -0.0674
    1W        W39702  19.855  25.778   3.504  0.1483 -0.0101  0.2614
    1W        W39703  23.734   7.442   1.083  0.0737  0.0975  0.2268
    1W        W39704   3.352   9.067   1.954  0.4454 -0.2271  0.0557
    1W        W39705  20.937  24.832   8.625  0.2652 -0.1422  0.0163
    1W        W39706   2.505  14.836   9.463  0.1146 -0.0065 -0.1944
    1W        W39707  20.421  12.122   0.928  0.3197  0.0571 -0.1133
    1W        W39708   3.679   0.359   7.408  0.1975  0.3351  0.0683
    1W        W39709  17.465  10.932   9.523 -0.0460  0.1132  0.0136
    1W        W39710   8.032   3.711   8.462  0.0256 -0.0379  0.1551
    1W        W39711  26.684   9.915   2.140  0.2305 -0.0131  0.3346
    1W        W39712   9.767  27.660   8.329  0.2378 -0.3988  0.0238
    1W        W39713   7.534  14.743   8.953  0.1544 -0.0022 -0.1235
    1W        W39714  24.728  11.392   7.988 -0.2587 -0.3388  0.1501
    1W        W39715  18.145   6.633   8.268  0.0615  0.0934 -0.0585
    1W        W39716  24.500   4.052   7.591  0.1217  0.0620 -0.2127
    1W        W39717   0.744  27.669   7.653 -0.2758  0.1457 -0.0124
    1W        W39718   4.301   6.014   0.633  0.1254 -0.0273 -0.2205
    1W        W39719  22.931  18.177   2.484 -0.1040 -0.1615  0.0272
    1W        W39720  29.289  23.662   8.003 -0.3504 -0.2765  0.1529
    1W        W39721  23.184  14.325   1.048  0.2496  0.0681 -0.0284
    1W        W39722   4.427  23.414   0.028 -0.2068 -0.1417  0.0229
    1W        W39723  23.011  23.979   8.433  0.1273  0.1901 -0.0842
    1W        W39724  10.250   6.307   9.463  0.1640 -0.1248  0.1402
    1W        W39725  26.927   6.687   9.245  0.3397 -0.1765  0.0554
    1W        W39726  21.547  29.620   8.187 -0.1420  0.2936  0.2632
    1W        W39727  15.516  14.908   8.490 -0.0960 -0.0093 -0.2546
    1W        W39728   7.919  28.120   0.438 -0.1121 -0.0530 -0.1973
    1W        W39729  24.720  21.389   0.925 -0.0252 -0.1976  0.3198
    1W        W39730  26.380   3.927   1.432  0.2390 -0.3206 -0.0258
    1W        W39731   4.624  25.839   7.170  0.1327  0.0072  0.2176
    1W        W39732   7.101   4.076   0.200 -0.0020 -0.1375  0.0405
    1W        W39733   3.008  16.637   9.023  0.1580 -0.2319  0.1621
    1W        W39734   9.239  26.767   8.854  0.0332  0.1189 -0.2109
    1W        W39735  23.050  17.725   7.436 -0.4126  0.0698 -0.1160
    1W        W39736  22.358  12.301   7.597 -0.1660  0.0242  0.2254
    1W        W39737  20.638  29.466   8.548  0.2806 -0.1442  0.1647
    1W        W39738  27.866  26.489   8.371  0.4382  0.0456 -0.0888
    1W        W39739  21.097  21.841   9.079 -0.2301 -0.2110 -0.0110
    1W        W39740  14.370  15.606   2.766 -0.1336  0.2072 -0.2540
    1W        W39741  20.091  27.615   1.628  0.3592  0.0972 -0.0826
    1W        W39742  22.675  10.826   7.440 -0.1244 -0.3273  0.1717
    1W        W39743  13.359  12.099   2.283  0.0152 -0.1190 -0.2226
    1W        W39744  14.802   7.112   9.578  0.0601  0.1664 -0.0896
    1W        W39745   7.375  17.052   2.353 -0.0120  0.1385  0.0559
    1W        W39746   6.398  22.283   2.178 -0.0037  0.3593  0.0118
    1W        W39747   1.298  17.667   8.879 -0.0691  0.2370  0.0797
    1W        W39748  10.942   7.416   1.958 -0.0064  0.0731 -0.1702
    1W        W39749  15.888  22.305   7.235 -0.0931  0.1541  0.0047
    1W        W39750   0.914  26.443   6.955  0.2739  0.0349  0.0893
    1W        W39751   7.096  26.187   9.183  0.2380 -0.2107  0.1903
    1W        W39752  23.630   7.894   0.967  0.1929 -0.1519  0.1654
    1W        W39753  12.906  11.570   6.452  0.1029  0.0522 -0.2371
    1W        W39754   4.485   5.592   8.993  0.2098 -0.2371 -0.1830
    1W        W39755  20.051  20.957   2.029  0.1969 -0.0384 -0.1948
    1W        W39756   8.092  20.187   3.512  0.0062  0.2606  0.1666
    1W        W39757  18.074  14.618   1.589 -0.2894 -0.0442  0.3070
    1W        W39758   3.755   1.294   2.059  0.2691  0.1142  0.5474
    1W        W39759   5.136  19.456   2.321  0.3013 -0.0278 -0.0357
    1W        W39760  21.706  21.824   2.736 -0.0075  0.1249  0.3902
    1W        W39761  17.273  11.857   0.637 -0.0054 -0.2999 -0.3586
    1W        W39762  20.114   3.056   6.612 -0.4621 -0.0652 -0.0121
    1W        W39763  11.974  28.961   0.241  0.0992  0.0582  0.2485
    1W        W39764   3.637   9.119   6.063  0.0728  0.0450  0.1450
    1W        W39765  24.774   7.061   9.273  0.2437  0.0875  0.1291
    1W        W39766  18.442  15.573   8.376  0.0827  0.0934  0.1121
    1W        W39767   7.727   9.374   6.335 -0.0346 -0.0046 -0.1505
    1W        W39768  27.018  23.503   1.830  0.1419  0.0390 -0.1647
    1W        W39769   5.425  24.914   2.610 -0.0311  0.1963 -0.1147
    1W        W39770  27.163   9.613   8.762 -0.1013  0.2530 -0.1619
    1W        W39771  12.746  17.853   8.595  0.1169  0.3299 -0.0606
    1W        W39772   4.156  26.226   2.625 -0.1040  0.0556 -0.2052
    1W        W39773  27.159  23.123   9.410  0.4459 -0.0930 -0.2918
    1W        W39774   4.868  24.186   2.942 -0.1477  0.3411  0.3155
    1W        W39775  25.418   1.142   3.305  0.0141  0.2212 -0.2885
    1W        W39776   5.118  20.225   1.501 -0.1626  0.1424  0.0716
    1W        W39777  12.189  10.647   1.682 -0.0317 -0.1008  0.0497
    1W        W39778  14.490  11.108   7.629  0.1065  0.2693  0.0907
    1W        W39779  28.878   9.894   0.117  0.1953  0.2071  0.0360
    1W        W39780  18.882  15.619   1.396  0.1403  0.2400 -0.0504
    1W        W39781  14.663  12.424   9.237 -0.0674 -0.0159  0.2357
    1W        W39782   2.940  20.317   0.952  0.0730  0.0390 -0.0709
    1W        W39783  27.637   1.921   2.181 -0.1609  0.0068 -0.2336
    1W        W39784  17.552   2.327   6.620  0.2839 -0.0462  0.0545
    1W        W39785  28.964  12.844   7.462 -0.0575  0.0704  0.0198
    1W        W39786   5.770   9.095   7.400  0.0145 -0.3356  0.3729
    1W        W39787  18.284  27.090   7.617 -0.0652 -0.3089 -0.3548
    1W        W39788   0.404   5.525   6.807 -0.2065 -0.5569  0.2084
    1W        W39789  12.410   6.056   9.636  0.0714 -0.1794  0.1693
    1W        W39790  15.166   7.757   0.387  0.0380 -0.1086 -0.0976
    1W        W39791  28.164  26.179   0.198  0.1417 -0.0142 -0.2272
    1W        W39792  23.198  27.100   9.455 -0.1585  0.1969 -0.1596
    1W        W39793  27.425  17.963   8.414 -0.2784  0.1782  0.0227
    1W        W39794  18.586  23.751   8.424  0.1886 -0.3069  0.0845
    1W        W39795   7.436  27.515   1.863  0.1290 -0.1817  0.0702
    1W        W39796  15.852  15.963   2.527  0.1199  0.1022 -0.0982
    1W        W39797   9.761  28.396   0.538  0.0203  0.2253  0.2090
    1W        W39798  16.052  24.063   1.232  0.2928 -0.0670 -0.3160
    1W        W39799  24.090  10.670   0.383 -0.1414  0.2026 -0.0698
    1W        W39800  29.278   3.495   1.947  0.0776 -0.3072  0.1390
    1W        W39801  24.549   0.291   7.457 -0.2891  0.3469  0.0012
    1W        W39802  16.388   6.089   7.332  0.0931  0.0420  0.0323
    1W        W39803  11.362  20.468   9.315 -0.0449 -0.0157  0.1896
    1W        W39804  27.692   9.388   8.839 -0.1911 -0.1064  0.1513
    1W        W39805  15.118  21.113   0.093  0.0102  0.0506 -0.3006
    1W        W39806  12.845   8.583   7.205 -0.1785  0.0955 -0.2216
    1W        W39807   4.407   7.507   1.143 -0.0971 -0.0414 -0.0261
    1W        W39808   5.475  17.758   0.042  0.1496  0.1592  0.1060
    1W        W39809   8.309  19.064   9.543 -0.0998  0.0766 -0.0145
    1W        W39810   9.851  15.696   0.274  0.0474 -0.0673  0.0595
    1W        W39811   9.750   6.409   9.397  0.0504  0.0504  0.1016
    1W        W39812  21.088  26.583   7.306 -0.0415 -0.1088  0.2204
    1W        W39813  16.266  26.310   7.421  0.2486  0.0058 -0.0940
    1W        W39814   0.275  27.626   6.192 -0.3119 -0.1961  0.2157
    1W        W39815   5.842  16.669   7.848  0.0510 -0.0979  0.0497
    1W        W39816  26.661  17.212   9.499 -0.2306 -0.3307 -0.0181
    1W        W39817  26.548  10.537   6.874 -0.0841 -0.3207  0.1007
    1W        W39818   5.345   5.545   7.777 -0.3413  0.0525  0.0869
    1W        W39819  13.458  20.835   1.129 -0.0998  0.0331 -0.2044
    1W        W39820   8.186  16.787   8.556  0.0067 -0.1906 -0.0689
    1W        W39821  10.334  21.138   1.437  0.1770  0.0675  0.1733
    1W        W39822   9.284  14.466   6.645 -0.0714 -0.4449 -0.2197
    1W        W39823  20.495  15.733   9.325 -0.2082 -0.1610 -0.3040
    1W        W39824  28.176  19.414   0.708 -0.1276 -0.5749  0.1329
    1W        W39825  15.790  28.393   0.826 -0.3463  0.2246  0.0098
    1W        W39826   7.797  21.246   7.661 -0.1612  0.0162  0.2821
    1W        W39827  16.167   8.692   8.921  0.0949 -0.1104  0.1041
    1W        W39828   1.361   6.356   2.085  0.1685  0.0033 -0.0470
    1W        W39829  14.752  25.385   5.907  0.1165 -0.1091  0.0687
    1W        W39830  23.964  11.972   7.226 -0.1067 -0.2177 -0.0388
    1W        W39831  11.063  16.757   1.099 -0.0434  0.1740  0.1963
    1W        W39832   4.130  20.262   7.052  0.1596 -0.0707  0.0990
    1W        W39833   0.536   8.244   0.400 -0.3279  0.0636  0.3073
    1W        W39834   6.401   7.404   7.766  0.1563  0.0669  0.0895
    1W        W39835   1.411   0.163   8.997  0.1905  0.0225  0.1972
    1W        W39836  29.386  28.012   7.413 -0.0134 -0.1751 -0.1173
    1W        W39837  24.917  29.588   0.107  0.0142  0.1909  0.1603
    1W        W39838  11.369  12.905   2.811  0.2046 -0.0298  0.2475
    1W        W39839  15.829  11.340   2.117  0.2815  0.3103 -0.1462
    1W        W39840   3.223  24.858   8.861 -0.1535  0.1285  0.2376
    1W        W39841  19.005  25.120   0.682 -0.0091 -0.1070  0.1043
    1W        W39842  16.792  14.558   8.099 -0.1308 -0.2673 -0.0138
    1W        W39843  23.473  11.007   9.636  0.0183 -0.1268 -0.2169
    1W        W39844  16.004  18.631   9.093  0.0882  0.2744 -0.1809
    1W        W39845  25.069   1.113   9.472 -0.1652  0.1294  0.2647
    1W        W39846  22.710   5.890   6.924 -0.1415  0.3048  0.1318
    1W        W39847  28.202   0.117   1.810  0.0390 -0.0939 -0.0419
    1W        W39848   2.022   1.988   7.648  0.1419  0.1013  0.1866
    1W        W39849   9.222   2.376   7.510  0.0548 -0.0807  0.1264
    1W        W39850   8.279   0.745   0.162  0.2453 -0.0187  0.0907
    1W        W39851  11.842   9.911   8.741 -0.0449 -0.3637  0.0084
    1W        W39852  24.636  11.461   8.902 -0.0227  0.1283  0.0277
    1W        W39853   8.239  10.400   9.564  0.1828 -0.0801  0.0224
    1W        W39854   1.021  21.718   2.142  0.1716  0.0890  0.2305
    1W        W39855  12.674  19.858   7.264  0.4452  0.3086  0.1460
    1W        W39856   6.561  26.831   1.071  0.4575  0.0573 -0.0911
    1W        W39857   0.241  26.662   7.228 -0.0319 -0.3881  0.0461
    1W        W39858  20.176   3.267   8.447 -0.1032  0.2168 -0.0272
    1W        W39859  29.324  13.560   1.527 -0.4348 -0.1112  0.0411
    1W        W39860  29.122   3.606   7.159  0.1271 -0.3495 -0.0631
    1W        W39861  17.310   1.572   8.820  0.0662  0.1744  0.0356
    1W        W39862  24.918  11.278   8.491  0.2303 -0.2464  0.0126
    1W        W39863  18.735  14.216   2.175 -0.2393  0.1061 -0.1750
    1W        W39864  18.720  23.261   0.441  0.2372  0.1924  0.2087
    1W        W39865   4.796  20.854   1.176 -0.0262 -0.0618  0.2284
    1W        W39866   4.880  17.428   2.096  0.1337 -0.1210  0.1562
    1W        W39867  22.277  19.000   0.377  0.3372 -0.1838  0.2495
    1W        W39868  18.925   7.009   1.000 -0.0493  0.3247  0.0986
    1W        W39869   3.308   7.078   5.798  0.1502 -0.2168  0.1349
    1W        W39870  26.184  16.998   9.513 -0.1482 -0.2755 -0.2021
    1W        W39871  15.021  22.048   7.547  0.1603 -0.1006 -0.0666
    1W        W39872   0.455  25.585   8.412  0.0126 -0.1515  0.4319
    1W        W39873  29.046  21.427   7.671 -0.0669  0.0375 -0.2446
    1W        W39874   1.908  26.441   0.858  0.1644  0.1050 -0.0116
    1W        W39875  12.477  29.564   7.089 -0.3750 -0.2830 -0.0083
    1W        W39876  13.823   9.598   9.223  0.3773  0.2313 -0.2219
    1W        W39877  24.649  23.438   8.244  0.2142 -0.0232 -0.2405
    1W        W39878  22.585   5.978   1.766  0.1759  0.0017  0.0662
    1W        W39879  16.040  18.539   2.011  0.0646 -0.0039 -0.4098
    1W        W39880   2.456  10.543   7.983  0.2485 -0.1469 -0.0549
    1W        W39881  10.930  25.945   8.878 -0.3178  0.2016 -0.1552
    1W        W39882  15.796  10.354   0.107 -0.0976  0.1269  0.1472
    1W        W39883  17.062   9.211   9.586 -0.2515 -0.0146  0.0849
    1W        W39884  24.437   0.311   1.323 -0.1415 -0.1155  0.0637
    1W        W39885  27.314  11.245   0.302  0.2933 -0.1688 -0.1593
    1W        W39886   8.058  25.973   8.667  0.3395 -0.0400  0.0384
    1W        W39887  16.044  13.237   8.585  0.0690  0.1043  0.0597
    1W        W39888   9.792   9.742   0.205  0.0483  0.3383  0.0907
    1W        W39889  28.031  29.225   2.808  0.2148  0.0439 -0.2499
    1W        W39890   3.452  10.106   5.737 -0.3291  0.0157 -0.2350
    1W        W39891  12.534   3.840   9.396  0.0815 -0.0818  0.0808
    1W        W39892  19.699  10.225   0.829  0.1405 -0.1271 -0.0596
    1W        W39893  13.757  24.610   7.176 -0.1237  0.2047  0.2083
    1W        W39894  29.318   1.868   7.264 -0.2476  0.1782  0.3019
    1W        W39895  15.823  15.793   1.682 -0.0152  0.1366 -0.5272
    1W        W39896   4.044  25.148   0.135  0.1648  0.1346  0.1411
    1W        W39897  20.585  27.104   3.740  0.0189 -0.0724  0.1400
    1W        W39898  10.764  12.098   1.847  0.2157  0.3179  0.0038
    1W        W39899  14.698  14.338   9.226 -0.4411  0.2178  0.1407
    1W        W39900  27.977  24.869   8.475 -0.2890  0.2168  0.2200
    1W        W39901  25.265  25.438   8.094 -0.0813  0.1292 -0.1774
    1W        W39902   3.060   5.243   9.166  0.0586  0.2316 -0.0504
    1W        W39903  26.929   6.548   8.005 -0.0076  0.0584 -0.1925
    1W        W39904   0.086  27.555   0.342  0.1254 -0.1718  0.2237
    1W        W39905   0.759  10.002   7.513 -0.0162  0.0505 -0.0558
    1W        W39906   4.289  19.584   9.058 -0.0428 -0.0082 -0.2901
    1W        W39907  15.696   7.734   7.617 -0.2105  0.0500  0.1139
    1W        W39908   3.989  14.193   6.960  0.0185 -0.1028  0.2282
    1W        W39909   2.940  22.066   2.609  0.0029 -0.1302 -0.0279
    1W        W39910  13.311  25.305   1.115 -0.0361 -0.3190 -0.0442
    1W        W39911  18.204  28.854   2.248 -0.1154  0.1209  0.1744
    1W        W39912   0.080   6.155   0.228  0.0878 -0.0564  0.1346
    1W        W39913  20.652   9.001   1.663 -0.2071 -0.2036  0.0440
    1W        W39914  10.678  14.283   2.887  0.1638  0.1114  0.0712
    1W        W39915   4.851  27.292   1.732 -0.0772 -0.2095  0.3043
    1W        W39916  20.793   8.622   8.959 -0.1605 -0.1106 -0.3555
    1W        W39917  16.924   3.773   0.539 -0.0647 -0.0272 -0.1947
    1W        W39918  22.142  28.543   1.470 -0.0178  0.2069 -0.1490
    1W        W39919   9.812  12.642   1.134  0.1587 -0.3419  0.5900
    1W        W39920  20.461  26.019   8.053 -0.1336 -0.2465 -0.2105
    1W        W39921  17.427  20.983   6.827  0.0368 -0.0608 -0.1789
    1W        W39922  29.625  13.947   8.068  0.1260 -0.2001 -0.1086
    1W        W39923  24.831   2.045   1.065 -0.1648 -0.1913  0.0888
    1W        W39924  16.468   2.189   7.178  0.5445  0.0870  0.0794
    1W        W39925   9.607  18.065   1.731 -0.2498 -0.2983  0.1186
    1W        W39926  25.038  17.742   9.362  0.0507  0.0041  0.1799
    1W        W39927  23.517  27.578   1.936 -0.3580  0.2601  0.0499
    1W        W39928   6.688   2.280   1.060  0.0978 -0.0238 -0.0848
    1W        W39929   6.343  20.257   2.594  0.2963  0.3018  0.0428
    1W        W39930  21.924  27.338   1.869 -0.2793 -0.3789 -0.1290
    1W        W39931  12.716   1.520   0.899  0.0161 -0.0610  0.2165
    1W        W39932   8.560   0.665   9.427  0.1907  0.0167 -0.3409
    1W        W39933   9.377   7.916   6.782  0.1767  0.3571  0.0120
    1W        W39934   5.663  13.910   8.426 -0.2964  0.1954 -0.3653
    1W        W39935  20.003  26.503   3.410 -0.1940  0.0397 -0.3339
    1W        W39936   9.741  16.033   9.018 -0.2444  0.1712 -0.1292
    1W        W39937  17.879  16.235   0.844 -0.0889 -0.2193  0.0465
    1W        W39938   0.906  20.319   1.956  0.0430 -0.3978  0.0397
    1W        W39939  26.028  26.050   0.955  0.0185  0.0090 -0.0024
    1W        W39940  13.865   9.252   3.175  0.0709 -0.0695 -0.1215
    1W        W39941  24.097  15.550   1.773  0.0682  0.0102 -0.0853
    1W        W39942  20.748  26.811   8.131 -0.0389  0.2626 -0.3443
    1W        W39943   5.044   3.659   2.577  0.3652 -0.1671  0.0084
    1W        W39944   6.229  23.155   1.817  0.1049  0.0377  0.2785
    1W        W39945   0.432  26.090   0.265  0.0483 -0.2603  0.1950
    1W        W39946   6.789  20.603   7.049  0.4128 -0.0043 -0.0358
    1W        W39947   1.793  23.609   8.090  0.0104 -0.0144  0.3400
    1W        W39948  24.004   0.409   8.468  0.1209 -0.2281 -0.0949
    1W        W39949  10.684   5.498   8.411  0.0109  0.3538 -0.1090
    1W        W39950   7.746  24.395   6.524 -0.1305 -0.3310 -0.0055
    1W        W39951  14.818   1.743   0.445 -0.1978 -0.0228  0.0052
    1W        W39952   9.482  20.663   0.456  0.0176 -0.1154  0.1302
    1W        W39953   5.710   1.698   6.191 -0.4031  0.0885  0.4559
    1W        W39954   8.002  21.773   6.200 -0.3526 -0.0813  0.1708
    1W        W39955   8.176  19.476   7.720 -0.0808  0.0834  0.2182
    1W        W39956  26.759  20.216   9.252 -0.1036  0.1063 -0.0274
    1W        W39957  22.847  11.574   0.273 -0.2552 -0.4165  0.3302
    1W        W39958  12.788  22.647   9.229  0.1848  0.0230 -0.1130
    1W        W39959   1.984   9.043   1.697 -0.2489  0.0245  0.2062
    1W        W39960  21.347  27.900   9.352 -0.1900  0.0829  0.1250
    1W        W39961  17.480   3.125   2.620  0.1082  0.1967 -0.2171
    1W        W39962  17.007   6.786   8.307 -0.4075  0.0714  0.0390
    1W        W39963   4.468  28.740   0.571  0.2303  0.0232  0.1060
    1W        W39964  26.721  21.897   7.183  0.1506 -0.1919 -0.2461
    1W        W39965  11.760  16.698   6.528 -0.2363  0.1698 -0.2374
    1W        W39966  14.163   0.604   7.131  0.5002  0.1196  0.1878
    1W        W39967  25.967  29.413   7.540  0.0994  0.0826  0.0253
    1W        W39968  29.057   3.048   7.774 -0.2142 -0.4015 -0.0349
    1W        W39969  21.484   3.592   7.549 -0.0607 -0.4006 -0.0183
    1W        W39970  17.347  13.917   7.541 -0.0889  0.0583  0.1326
    1W        W39971  22.802  28.599   7.552 -0.1129  0.0282 -0.0232
    1W        W39972   8.074   6.628   0.020  0.3089 -0.0088  0.1404
    1W        W39973   4.074  10.693   9.346  0.0877  0.2640 -0.2867
    1W        W39974   2.508  26.045   0.249  0.1743  0.0554  0.0005
    1W        W39975   1.497  20.444   8.268 -0.1874  0.2346 -0.2964
    1W        W39976  20.787  19.509   3.202  0.0267 -0.0025 -0.1821
    1W        W39977   6.718   3.232   8.172  0.0716  0.0061  0.1858
    1W        W39978  23.103  29.283   0.994 -0.1774 -0.1653  0.1080
    1W        W39979  28.094   3.794   7.871 -0.0398  0.1138  0.1455
    1W        W39980  25.249   3.928   8.881 -0.2828 -0.3180 -0.3858
    1W        W39981  16.875  26.667   8.456  0.2305 -0.1276 -0.1938
    1W        W39982  17.560  20.135   8.020 -0.2015 -0.1745 -0.1117
    1W        W39983  20.219  28.871   3.439  0.0006 -0.1591  0.0047
    1W        W39984   4.854  23.078   7.596  0.1488 -0.0087  0.0246
    1W        W39985  11.608   9.428   1.687  0.3686  0.2848 -0.0280
    1W        W39986  28.515   2.990   1.146  0.1702  0.0146  0.4176
    1W        W39987  23.688  20.310   0.483 -0.1179  0.1244 -0.2407
    1W        W39988  11.581  22.392   8.281  0.1333 -0.1930 -0.0203
    1W        W39989   9.820  26.896   2.742  0.0010 -0.2273  0.3621
    1W        W39990  11.247   3.574   0.228 -0.1250 -0.1887  0.0749
    1W        W39991  21.987  22.482   8.381  0.0901  0.3097  0.2011
    1W        W39992  11.960   4.744   8.891 -0.2371  0.3365  0.0944
    1W        W39993   4.938  19.182   0.026 -0.1267 -0.2328  0.1921
    1W        W39994  22.729  23.691   2.511  0.1870  0.0197  0.0633
    1W        W39995  15.384  14.995   1.827  0.0282 -0.0046 -0.0536
    1W        W39996  23.005   5.439   1.761  0.1461 -0.1129 -0.1209
    1W        W39997   2.432   7.801   7.112 -0.0860  0.0510  0.0436
    1W        W39998  19.270  26.549   1.148  0.0889 -0.1578  0.0365
    1W        W39999   5.368  18.325   7.482 -0.2256 -0.0213  0.0046
    1W        W40000  12.103  27.157   2.409  0.4452  0.0879  0.0142
    1W        W40001  13.178  29.558   1.845  0.0846  0.1332 -0.2395
    1W        W40002  27.583   1.086   7.570 -0.0281 -0.3350  0.1271
    1W        W40003  28.314  22.362   8.620  0.0258 -0.0306  0.0467
    1W        W40004  19.263   1.095   8.425 -0.0176 -0.1782 -0.1550
    1W        W40005  23.363   1.935   1.209 -0.1231  0.1206 -0.0341
    1W        W40006   5.214   2.673   8.119 -0.0644 -0.3079 -0.2300
    1W        W40007  18.555   6.942   0.668  0.0839 -0.1000  0.0399
    1W        W40008  26.667  26.960   0.002  0.0386  0.1073  0.0401
    1W        W40009   7.392  26.131   1.087  0.0732  0.2001  0.1512
    1W        W40010  13.828  29.609   0.915 -0.3393  0.1530 -0.2639
    1W        W40011  20.965  20.820   0.823 -0.1216 -0.2925  0.1770
    1W        W40012  20.353  24.188   8.089  0.1635 -0.0779  0.0752
    1W        W40013  10.460  26.933   6.767 -0.2167  0.0867  0.5585
    1W        W40014  11.690  28.845   8.397 -0.0815 -0.1620  0.0570
    1W        W40015   2.000  25.525   9.144  0.3555 -0.2530 -0.0357
    1W        W40016  11.187  25.106   8.057 -0.0413  0.1444 -0.0591
    1W        W40017  13.106  23.947   8.248 -0.2332  0.0451 -0.2660
    1W        W40018   9.923  25.186   8.662  0.2776 -0.3844  0.0780
    1W        W40019  18.265  23.370   8.375  0.1980  0.1229 -0.1059
    1W        W40020   6.607  23.724   8.102 -0.3000 -0.1473  0.1553
    1W        W40021  22.378  26.007   2.708  0.1571  0.0135  0.2505
    1W        W40022  17.480   5.661   2.294  0.2433 -0.1321  0.0742
    1W        W40023   1.748  23.091   8.110  0.2255 -0.0363 -0.1502
    1W        W40024   5.544   7.930   6.492 -0.1158  0.0253 -0.1963
    1W        W40025   0.902  21.704   2.910 -0.1118 -0.3097  0.2225
    1W        W40026  17.198  17.798   8.774  0.0276 -0.1367  0.0813
    1W        W40027  26.085  13.017   1.967 -0.0902  0.0967  0.1616
    1W        W40028   0.516  19.803   2.969  0.0133  0.0300 -0.3382
    1W        W40029  13.747  17.417   1.593  0.0490  0.0177  0.0914
    1W        W40030   4.229  14.414   8.233  0.1227  0.2119 -0.1782
    1W        W40031  13.559  19.404   9.582  0.2888  0.3715 -0.1763
    1W        W40032  18.657   2.757   9.522  0.1697 -0.3135  0.2606
    1W        W40033  23.664   8.461   0.829 -0.1011  0.3009 -0.0773
    1W        W40034  13.931   1.235   9.197  0.1022  0.2408 -0.2005
    1W        W40035   9.839  26.379   1.159  0.1367  0.1120  0.1760
    1W        W40036   9.214  23.973   9.558 -0.0179 -0.3829 -0.3494
    1W        W40037  24.877  21.656   0.100 -0.3169  0.0907  0.0263
    1W        W40038  10.236  12.657   9.575  0.3554  0.0410  0.1539
    1W        W40039   8.944   0.275   0.788  0.1058 -0.0991 -0.1493
    1W        W40040  14.892  26.231   9.047  0.2752  0.0951 -0.1894
    1W        W40041   4.661   0.951   8.812 -0.0127  0.2102  0.0762
    1W        W40042  26.314  11.630   1.030 -0.0009  0.2550 -0.4100
    1W        W40043  18.670   6.112   6.649 -0.4930  0.2058 -0.1055
    1W        W40044   2.035   8.462   8.372 -0.0964  0.1080 -0.0971
    1W        W40045  13.566  24.604   7.991 -0.0681 -0.0340 -0.2421
    1W        W40046  14.684  27.496   1.107 -0.1568  0.3117  0.2826
    1W        W40047  22.355  24.739   0.613 -0.2209 -0.2583 -0.0223
    1W        W40048  24.783  26.173   7.421 -0.2459 -0.0343 -0.1520
    1W        W40049   4.632   8.266   2.033 -0.0553  0.0438 -0.0817
    1W        W40050  16.122   0.322   2.857  0.1068  0.0525  0.0155
    1W        W40051   2.148   9.543   5.924 -0.1210 -0.0383 -0.1127
    1W        W40052   0.805   7.521   1.100  0.1567  0.1618  0.2250
    1W        W40053  25.887  28.710   0.079 -0.3363  0.1759  0.0772
    1W        W40054   2.801  13.454   6.274  0.1004  0.0352 -0.0099
    1W        W40055   8.206  27.079   9.318 -0.2404 -0.1724  0.1650
    1W        W40056   5.490   6.696   1.384  0.1441 -0.0564  0.2198
    1W        W40057   8.648  28.294   0.007 -0.5348 -0.1241 -0.3303
    1W        W40058  28.603  18.527   9.273  0.0822 -0.0219  0.1436
    1W        W40059  21.101   3.248   7.498  0.1956 -0.1615  0.1876
    1W        W40060   6.286  23.597   2.153  0.0769  0.0672 -0.1140
    1W        W40061  10.135  20.220   9.026 -0.0217  0.1767  0.0243
    1W        W40062   1.809  27.436   7.708 -0.0501 -0.2163  0.2164
    1W        W40063  16.624  13.976   8.836 -0.3238 -0.1814 -0.3915
    1W        W40064   9.345  17.891   7.949 -0.1620  0.0046  0.0129
    1W        W40065   6.872  24.484   2.491 -0.2952 -0.1324 -0.2073
    1W        W40066   5.005  23.610   1.542  0.2163  0.0288 -0.1714
    1W        W40067  14.259  27.227   1.916  0.0707  0.1384  0.0781
    1W        W40068  29.519  10.967   9.043 -0.0652  0.2231  0.2252
    1W        W40069  17.839   5.783   7.291 -0.1840  0.0407 -0.2305
    1W        W40070  27.145  22.603   2.154  0.1748  0.0135  0.0791
    1W        W40071  10.933  14.848   7.860  0.0741  0.3642  0.0760
    1W        W40072  21.092   0.392   2.333 -0.1338 -0.1381 -0.2964
    1W        W40073   8.022   5.602   7.671  0.0499  0.1414 -0.0526
    1W        W40074   9.783  13.238   1.616  0.1163 -0.1369 -0.1505
    1W        W40075   3.886   1.772   6.471 -0.1817 -0.3565 -0.3439
    1W        W40076  16.546   1.420   6.255 -0.3798  0.2913  0.0016
    1W        W40077  22.612  20.557   7.720  0.0335  0.2569 -0.0759
    1W        W40078  12.772   0.394   9.468  0.0928  0.0874 -0.0958
    1W        W40079  13.790   1.496   0.378  0.0328 -0.0160 -0.0947
    1W        W40080   3.096  10.075   8.269  0.3385  0.1220  0.1157
    1W        W40081  19.131  23.702   8.484 -0.2369 -0.1924  0.0772
    1W        W40082   0.695   3.151   8.158 -0.0698 -0.1476 -0.2563
    1W        W40083  18.736  21.058   7.699 -0.0189 -0.2310 -0.2557
    1W        W40084  23.718  12.576   0.843 -0.0388 -0.0090  0.3257
    1W        W40085   2.006  10.845   1.949 -0.0525  0.0988  0.2238
    1W        W40086   2.426  13.694   0.387 -0.1243  0.0803 -0.2182
    1W        W40087  16.151   7.272   1.402  0.0855  0.1707  0.0326
    1W        W40088   6.144   4.984   6.607  0.3133  0.2635  0.0182
    1W        W40089  29.097   0.761   0.624 -0.1571 -0.3417  0.1721
    1W        W40090  16.029   1.501   1.073  0.4127  0.2225 -0.0426
    1W        W40091   5.328  22.887   8.719 -0.0149  0.0237 -0.1091
    1W        W40092  10.767   6.172   1.467 -0.3429 -0.0111 -0.0734
    1W        W40093  18.469   9.415   7.825 -0.1322 -0.2146  0.3753
    1W        W40094  12.933  29.394   0.627 -0.2268  0.0566 -0.0895
    1W        W40095  15.939  19.710   1.416  0.0323 -0.0144 -0.0217
    1W        W40096   9.677  19.350   9.327  0.0354  0.2258  0.0129
    1W        W40097  26.337  21.047   3.502  0.0175 -0.1732 -0.1103
    1W        W40098  15.254  19.161   8.045  0.2044  0.0679 -0.1053
    1W        W40099  24.119  22.354   2.902 -0.1545 -0.0305 -0.0623
    1W        W40100   7.858  11.878   7.493  0.4220 -0.1286  0.1068
    1W        W40101  21.922  22.248   7.867  0.1772  0.0758 -0.1394
    1W        W40102   3.294  13.058   7.600  0.1127  0.0051  0.3359
    1W        W40103  19.259  15.805   0.510  0.0679 -0.1935 -0.1605
    1W        W40104   2.389   1.173   1.549 -0.3009  0.1090 -0.2022
    1W        W40105  26.593   6.022   1.787  0.0572 -0.0411 -0.2000
    1W        W40106  24.174   8.719   1.211 -0.1148 -0.0862 -0.2095
    1W        W40107   7.218  19.234   7.214 -0.0425  0.4859 -0.2526
    1W        W40108  14.529  25.810   1.336  0.0639 -0.0272 -0.1259
    1W        W40109  14.811   9.489   1.606  0.1158  0.0479 -0.2107
    1W        W40110  11.407   8.200   1.461 -0.0053  0.3539 -0.0481
    1W        W40111   4.172  26.069   7.621 -0.1820 -0.1350  0.0162
    1W        W40112  18.638  26.404   7.675 -0.2910 -0.0229  0.0870
    1W        W40113  12.494  23.858   7.900 -0.1845  0.1066 -0.0841
    1W        W40114   2.541   0.373   8.123  0.0716  0.1129  0.2625
    1W        W40115   4.292   1.629   7.081 -0.1817 -0.1974 -0.0675
    1W        W40116  10.637  22.607   8.565  0.1387  0.1805  0.0810
    1W        W40117  26.200   3.421   1.271 -0.0133  0.3300 -0.1756
    1W        W40118  15.001  11.222   7.429  0.0322 -0.0104 -0.1992
    1W        W40119   6.597  15.472   8.066 -0.0864 -0.0223  0.0197
    1W        W40120  18.624  22.158   0.995 -0.1723 -0.3408  0.2808
    1W        W40121  28.013  11.166   2.148 -0.2832  0.0418 -0.1776
    1W        W40122  19.340   7.378   0.875  0.1471  0.0072  0.0558
    1W        W40123   8.785   3.381   8.635  0.2346  0.2551 -0.1105
    1W        W40124  14.042   0.434   1.748 -0.0841 -0.0838 -0.1105
    1W        W40125  17.652   7.423   0.552 -0.1281  0.1953  0.1402
    1W        W40126   4.430   3.695   0.849 -0.1495 -0.2155 -0.3650
    1W        W40127  28.895  28.942   1.102  0.0678 -0.1029 -0.3151
    1W        W40128  13.601   2.057   1.973 -0.1431  0.1528 -0.0524
    1W        W40129  26.464  29.164   9.339  0.1796  0.0778 -0.0790
    1W        W40130  18.146  11.985   0.114 -0.0631  0.3581 -0.0789
    1W        W40131  12.703  16.170   7.650  0.1630 -0.0420 -0.0982
    1W        W40132  20.117  11.665   7.882 -0.2249  0.2457  0.1527
    1W        W40133  14.237   5.230   3.052  0.0991  0.1023 -0.0089
    1W        W40134  10.829   7.022   6.431 -0.1488 -0.0270 -0.1871
    1W        W40135  10.549  20.460   6.478  0.1814  0.3140 -0.1101
    1W        W40136  17.958  16.021   2.176  0.0290  0.1704  0.0153
    1W        W40137  15.194   4.823   7.048  0.1097  0.1469 -0.1028
    1W        W40138  13.601  23.344   1.631  0.1016  0.1547  0.1555
    1W        W40139  11.978   1.247   7.689 -0.2455  0.2600  0.1133
    1W        W40140  11.254  27.722   8.881  0.1438 -0.1104 -0.1542
    1W        W40141  27.794  18.769   1.436  0.1254  0.2579  0.0703
    1W        W40142  20.403   8.092   9.035 -0.0210 -0.2459  0.1854
    1W        W40143  11.605  15.477   7.131  0.1135  0.2891 -0.0813
    1W        W40144   0.208  20.039   2.706 -0.1074 -0.2473  0.0646
    1W        W40145  17.813   8.970   8.370  0.1205  0.2762  0.0349
    1W        W40146  24.852   8.735   8.373 -0.3013  0.1675  0.0399
    1W        W40147  12.435   6.244   9.129 -0.0856 -0.3731 -0.3475
    1W        W40148  11.070  24.762   6.048 -0.1138 -0.2758 -0.0819
    1W        W40149   7.232  24.803   3.408 -0.0010  0.0987  0.0695
    1W        W40150   2.806  10.799   7.161 -0.1881  0.2292  0.2261
    1W        W40151  19.704  24.670   2.067  0.2596 -0.2593  0.3226
    1W        W40152  14.127  19.427   1.521 -0.1402 -0.0789  0.1423
    1W        W40153  24.188  10.667   9.094  0.0512 -0.0872 -0.0587
    1W        W40154  23.939  20.797   7.174 -0.0239  0.0534  0.0208
    1W        W40155  27.527  26.062   2.378 -0.1124  0.2128 -0.3041
    1W        W40156  13.028   5.577   1.672  0.1474 -0.2970  0.1337
    1W        W40157  18.719   2.988   6.490 -0.2164  0.1214  0.2649
    1W        W40158  20.870   1.851   0.505  0.1483 -0.0124  0.0921
    1W        W40159   0.351  19.537   8.395  0.5111 -0.2195 -0.1186
    1W        W40160   6.822   8.241   9.373 -0.0756  0.1630  0.1050
    1W        W40161  10.327   3.994   8.155  0.1720  0.1986  0.1084
    1W        W40162   0.289   1.829   8.638  0.0801 -0.0143 -0.1023
    1W        W40163  21.432   9.431   7.228  0.2688 -0.1295  0.0902
    1W        W40164  18.431  20.944   9.371 -0.1747 -0.0951  0.3021
    1W        W40165  22.235  24.276   8.326 -0.0146 -0.1022  0.2416
    1W        W40166  21.234  27.139   3.277 -0.1888 -0.1562 -0.0987
    1W        W40167   6.544  20.536   0.715 -0.2859  0.1299  0.0082
    1W        W40168  21.054  22.152   9.520  0.2361  0.2600 -0.1254
    1W        W40169  12.344   3.567   2.127  0.1032  0.2485  0.0438
    1W        W40170  27.916   8.069   8.762  0.2457  0.0991 -0.0040
    1W        W40171   7.008   8.585   0.208 -0.0220 -0.0359  0.0186
    1W        W40172  27.700  22.346   2.637  0.0586  0.1662 -0.5619
    1W        W40173   4.251  24.741   1.778 -0.4675  0.1241  0.4493
    1W        W40174   2.030  20.209   9.020  0.2159  0.0856  0.1412
    1W        W40175   0.086   5.611   0.332  0.1821  0.0030  0.3450
    1W        W40176  23.737  28.194   8.665 -0.0185  0.3166  0.1527
    1W        W40177  14.120  19.008   3.123 -0.3935  0.2392  0.3342
    1W        W40178  16.060   7.767   2.596 -0.0395 -0.0416 -0.0148
    1W        W40179  20.575  29.432   1.861  0.1635 -0.1592 -0.2364
    1W        W40180  11.711  21.215   0.830  0.2609  0.0782 -0.1962
    1W        W40181   3.454  12.431   6.990  0.1786 -0.2150 -0.2033
    1W        W40182   4.987  23.685   2.285  0.0583 -0.1887  0.0273
    1W        W40183  17.010   1.843   1.296 -0.0384 -0.0865  0.2670
    1W        W40184   2.387   5.486   1.556  0.2114  0.1657 -0.0335
    1W        W40185  13.186  17.567   0.424 -0.0873 -0.1393 -0.0379
    1W        W40186   7.097  21.781   2.836 -0.1903  0.1780  0.1972
    1W        W40187   4.582  26.443   8.394 -0.1965  0.0450  0.0102
    1W        W40188   4.199  28.673   7.709  0.1795 -0.0847  0.0738
    1W        W40189  10.731   6.422   9.575 -0.1956  0.0217  0.0954
    1W        W40190  14.165  12.799   2.199 -0.1566 -0.5935 -0.0630
    1W        W40191   4.957   3.805   6.483 -0.0426 -0.0102  0.2862
    1W        W40192  20.273  23.120   2.096 -0.1310  0.2254 -0.1179
    1W        W40193  21.571   2.268   1.518 -0.0300  0.3081 -0.3879
    1W        W40194   4.354   2.739   0.666 -0.1492  0.2352  0.2356
    1W        W40195   1.694  27.379   9.044  0.0613 -0.0648  0.3759
    1W        W40196   2.492  22.385   1.884 -0.0748 -0.3726 -0.0175
    1W        W40197   4.910  26.170   6.976 -0.0066  0.2465  0.1749
    1W        W40198  23.542  25.816   7.609 -0.1012 -0.0202 -0.1442
    1W        W40199  25.760  22.410   2.083  0.3028  0.1088 -0.1148
    1W        W40200  18.056  24.107   3.412  0.1599 -0.0799 -0.2276
    1W        W40201  13.079  23.830   7.695  0.1575  0.1525 -0.4310
    1W        W40202   1.971  16.354   1.771 -0.0088  0.5614 -0.1667
    1W        W40203  14.197   6.083   9.514  0.0286 -0.1495  0.0818
    1W        W40204  22.674  11.897   8.292  0.0118  0.1325 -0.0228
    1W        W40205  16.023  14.777   2.506  0.1211  0.1689 -0.1501
    1W        W40206  29.610  27.646   1.282  0.2816 -0.1942 -0.2550
    1W        W40207  25.950  11.057   9.547 -0.0679 -0.3078  0.0223
    1W        W40208  22.871   1.248   9.549  0.2396 -0.2625 -0.0554
    1W        W40209   0.420  20.392   8.194  0.3674 -0.2106  0.1248
    1W        W40210   4.924   3.242   1.792  0.1840  0.0589  0.1087
    1W        W40211  18.011  21.973   1.993  0.1497 -0.1232  0.2096
    1W        W40212   3.566  25.368   0.667  0.0014  0.0663  0.1484
    1W        W40213  17.382  20.174   0.009 -0.2706 -0.0999 -0.3005
    1W        W40214   8.738   6.126   6.476 -0.2985  0.1841  0.1251
    1W        W40215  24.737  16.164   7.055  0.3047 -0.0732  0.1235
    1W        W40216  16.139   5.041   2.220  0.0068 -0.1546  0.4007
    1W        W40217  13.131  27.217   9.454  0.5417  0.1539  0.1977
    1W        W40218   9.654   5.185   6.267 -0.0780 -0.2154  0.2362
    1W        W40219  21.068   8.978   1.256 -0.0320  0.1332 -0.3383
    1W        W40220  13.789  15.244   9.031  0.1196 -0.1810 -0.1794
    1W        W40221   0.523  23.860   8.717 -0.0327 -0.1320  0.0903
    1W        W40222   4.771   1.593   9.617 -0.1527  0.2340  0.3760
    1W        W40223  11.003  26.427   1.067  0.0663 -0.3095 -0.3842
    1W        W40224  23.913   3.842   9.463  0.0932  0.1789 -0.0484
    1W        W40225   5.767  11.796   7.580 -0.0545  0.0524  0.1005
    1W        W40226  13.918  14.145   8.686  0.1394  0.0974  0.1916
    1W        W40227  27.882  17.406   0.255 -0.0208  0.0198  0.2282
    1W        W40228   2.457  24.841   1.305 -0.1200  0.1439 -0.2176
    1W        W40229  19.475  21.172   9.614  0.0891  0.0435 -0.2880
    1W        W40230  21.637  22.997   0.052  0.0965  0.0659  0.0174
    1W        W40231  19.117  23.148   0.723  0.3058 -0.0831 -0.1715
    1W        W40232  12.242   2.772   1.149  0.1178  0.4224  0.0639
    1W        W40233   6.162  23.649   9.478 -0.0161  0.0193 -0.1871
    1W        W40234   5.822   2.566   7.624  0.0558  0.1323  0.2696
    1W        W40235   4.043   2.664   1.733  0.0134  0.0861  0.3961
    1W        W40236  24.814   9.360   7.089 -0.0483 -0.1719  0.1178
    1W        W40237  13.210  26.016   2.222  0.1241 -0.1369 -0.0484
    1W        W40238   3.046   2.076   8.516 -0.0365 -0.2516  0.3157
    1W        W40239   8.288  18.361   0.531  0.0872 -0.0577 -0.4352
    1W        W40240  10.839   2.030   8.100 -0.2847  0.4968 -0.2488
    1W        W40241   5.316  14.646   7.496  0.3654  0.4979 -0.1248
    1W        W40242   2.631   8.423   6.332 -0.1852 -0.2258 -0.0723
    1W        W40243  16.132  21.661   0.755 -0.2752  0.4882 -0.1074
    1W        W40244  26.066   6.932   6.717 -0.0117 -0.0514 -0.0034
    1W        W40245  11.890  23.734   6.527  0.0682  0.2873  0.1972
    1W        W40246   5.997   4.462   0.386  0.1572 -0.0177 -0.1759
    1W        W40247  11.879   1.577   9.169 -0.0743  0.1729 -0.0355
    1W        W40248  18.635  12.789   8.417  0.1877  0.0401 -0.0960
    1W        W40249  19.005  22.011   3.776 -0.4462 -0.3420 -0.1552
    1W        W40250  14.575  21.475   1.584 -0.4645  0.1994 -0.0767
    1W        W40251   6.080   9.161   0.902  0.1643 -0.0503  0.0301
    1W        W40252  15.924  11.739   0.070 -0.1934 -0.0033  0.0007
    1W        W40253   9.227  17.992   1.276 -0.0066  0.0547  0.1507
    1W        W40254  10.373  22.046   8.898 -0.2269 -0.2757 -0.4338
    1W        W40255  21.117  28.170   8.434  0.4780 -0.3001  0.2899
    1W        W40256  13.174  25.613   0.248 -0.2337  0.0740  0.0849
    1W        W40257  29.567   3.227   2.224  0.0872 -0.0070  0.0644
    1W        W40258  11.156  15.309   0.105  0.1487  0.0822  0.5254
    1W        W40259  15.032  25.169   7.375 -0.2391 -0.2200 -0.0957
    1W        W40260   1.429  15.202   6.768 -0.1248  0.0313 -0.0116
    1W        W40261  16.901  10.369   7.125 -0.0340  0.1161  0.4694
    1W        W40262  26.043  21.787   2.684 -0.0254  0.3808 -0.3707
    1W        W40263  14.770   1.703   7.292 -0.4164 -0.0275  0.1886
    1W        W40264  19.400  27.421   2.894 -0.0548 -0.3993  0.1230
    1W        W40265  17.790  22.705   1.819 -0.0573  0.0313 -0.2053
    1W        W40266   2.618   4.404   7.596 -0.0640  0.1467 -0.2328
    1W        W40267  11.205  22.419   7.486  0.3527  0.1024 -0.1433
    1W        W40268  20.854  24.174   2.762  0.0575 -0.3505 -0.1740
    1W        W40269   2.251  22.908   0.935 -0.1899  0.2902 -0.0060
    1W        W40270   5.414   0.817   8.371  0.3951  0.2896 -0.0161
    1W        W40271  23.936  26.223   7.869  0.3733  0.4465 -0.1449
    1W        W40272  15.880  16.041   0.986 -0.0623 -0.1142 -0.0308
    1W        W40273   8.320  26.297   0.139 -0.4155  0.2462  0.0383
    1W        W40274  15.096  21.433   1.810  0.2703 -0.1772  0.0686
    1W        W40275  14.529  24.952   8.110  0.0980 -0.0583  0.0298
    1W        W40276  27.651   1.200   1.312  0.2540  0.2436 -0.0279
    1W        W40277  12.618   5.820   7.705 -0.0483 -0.2764 -0.2988
    1W        W40278  25.310   1.985   1.217 -0.1295 -0.0127  0.4936
    1W        W40279   6.906  20.809   7.488  0.0725 -0.0321  0.1402
    1W        W40280  27.183  21.980   0.725  0.0227  0.1057  0.0293
    1W        W40281  27.192   9.607   7.663  0.1674 -0.2460 -0.0636
    1W        W40282  19.625   5.495   8.244 -0.3100  0.0301 -0.2605
    1W        W40283   5.114  13.586   8.697  0.1766  0.1773  0.1344
    1W        W40284  23.879  16.953   9.448  0.0066  0.1709 -0.0402
    1W        W40285  24.133   6.051   8.934 -0.0785 -0.3184  0.0638
    1W        W40286  12.922   0.617   1.063  0.2660 -0.1483 -0.2642
    1W        W40287  10.762  23.811   1.831  0.1922  0.0419 -0.0513
    1W        W40288  15.628  23.630   8.768  0.0915  0.1268 -0.1389
    1W        W40289  24.611  17.998   0.002 -0.2417  0.0506 -0.1552
    1W        W40290  27.659   1.480   2.461 -0.1098 -0.0276  0.4310
    1W        W40291  26.059  10.775   6.642 -0.0327  0.1117  0.0025
    1W        W40292  19.308  26.926   9.197 -0.2572  0.0064 -0.2043
    1W        W40293  24.015  10.542   8.416  0.0467 -0.1824  0.2768
    1W        W40294   9.825  11.880   9.059 -0.2249  0.0658  0.2485
    1W        W40295   5.257  17.300   8.690  0.2827  0.0089  0.0725
    1W        W40296  11.268  26.405   9.569  0.0496 -0.0139  0.2708
    1W        W40297  18.471   8.988   1.473  0.1634  0.1508  0.0745
    1W        W40298   6.817  23.301   8.980 -0.1061 -0.0288 -0.0278
    1W        W40299  15.741   4.383   8.213  0.0573 -0.3570 -0.2920
    1W        W40300  20.218  20.898   3.258  0.2360 -0.0964 -0.0930
    1W        W40301  22.628  26.045   0.480  0.0309 -0.0931  0.1910
    1W        W40302  16.380   8.789   1.392 -0.1376 -0.0798 -0.3004
    1W        W40303  25.560  28.468   3.254 -0.1442  0.3484 -0.1113
    1W        W40304   4.425   4.244   7.105  0.0657 -0.1181  0.0792
    1W        W40305   7.894   9.340   1.672  0.0614 -0.1395 -0.0285
    1W        W40306   7.543  13.354   6.638 -0.1070  0.0265 -0.0697
    1W        W40307   3.990   7.246   7.905  0.0998  0.0820 -0.1024
    1W        W40308   2.450  15.210   0.905  0.0942  0.2418 -0.1245
    1W        W40309   1.111  27.077   2.438  0.0033  0.2661 -0.2241
    1W        W40310  24.143  23.552   2.411  0.0915  0.2173  0.1316
    1W        W40311  18.659   4.708   2.274  0.0884  0.1037  0.0485
    1W        W40312   8.934  23.946   5.948 -0.2052 -0.1769  0.0718
    1W        W40313  24.966  10.416   8.127 -0.0747  0.2692  0.1650
    1W        W40314   2.349  29.134   9.248 -0.0213 -0.3266 -0.0664
    1W        W40315   7.536  11.580   5.549 -0.4184 -0.1853 -0.0460
    1W        W40316  13.119   3.971   0.419 -0.1388  0.1320 -0.0314
    1W        W40317   1.359  22.399   0.141 -0.1118 -0.4107 -0.1281
    1W        W40318  22.829   1.537   8.327 -0.3225  0.1262  0.1523
    1W        W40319  21.007   6.055   8.302  0.1092  0.4805 -0.0952
    1W        W40320  13.230   2.843   0.470  0.2137 -0.2766  0.0232
    1W        W40321  27.627  11.494   6.918  0.1996  0.0615 -0.2491
    1W        W40322  10.660  12.631   1.988  0.1679  0.1203 -0.1440
    1W        W40323  15.130   6.770   7.400  0.1549  0.0254 -0.1881
    1W        W40324  13.345  19.189   2.498  0.3346 -0.1982 -0.2489
    1W        W40325  19.653   4.216   0.994  0.0058  0.1686 -0.1263
    1W        W40326  25.406  11.115   8.483  0.3068  0.2721  0.1051
    1W        W40327  18.105   9.969   7.147 -0.0643 -0.1870 -0.4862
    1W        W40328  10.747   0.709   1.622 -0.1278  0.2358  0.2242
    1W        W40329  10.627  18.913   1.824  0.0320 -0.2693  0.3019
    1W        W40330  14.904  18.226   7.464  0.0635 -0.1255 -0.2339
    1W        W40331  19.491  27.158   1.543 -0.2738  0.1569  0.1320
    1W        W40332   7.044  17.830   8.254 -0.1492  0.0762  0.0700
    1W        W40333   6.788  27.461   8.083 -0.0001 -0.0456  0.1406
    1W        W40334  20.111  18.732   2.675  0.0142 -0.1931 -0.3508
    1W        W40335  10.082  29.235   2.376 -0.0875 -0.0385 -0.0376
    1W        W40336  13.114   5.022   0.615  0.1269 -0.0903 -0.1448
    1W        W40337   4.854  22.066   9.309  0.1724 -0.0775 -0.2735
    1W        W40338   1.450   9.402   7.573 -0.0413  0.1150  0.0184
    1W        W40339   4.288  12.578   0.984  0.1434  0.2612 -0.0151
    1W        W40340  21.522  21.984   8.226 -0.1442  0.1395  0.3986
    1W        W40341   3.793   5.239   1.015 -0.3248 -0.3697 -0.0372
    1W        W40342   6.851  27.655   6.697  0.3917 -0.1333  0.0711
    1W        W40343  22.519  28.516   3.301  0.3215  0.0275  0.0594
    1W        W40344  14.688  21.109   1.934  0.1639  0.3484 -0.2893
    1W        W40345  15.426   0.047   6.441 -0.0572  0.4493 -0.0381
    1W        W40346   3.493  19.549   9.225  0.1052  0.0788  0.3164
    1W        W40347  29.253   7.786   8.308 -0.2640 -0.0234  0.1293
    1W        W40348   8.197  26.244   5.633  0.1356 -0.0400 -0.1231
    1W        W40349  25.717   2.695   9.604  0.0838 -0.2195 -0.0841
    1W        W40350  17.281  25.644   3.177  0.0854  0.0311  0.1049
    1W        W40351  11.325  13.003   9.576  0.1533 -0.0016  0.1538
    1W        W40352   5.712   9.457   8.358 -0.1959 -0.1716  0.2436
    1W        W40353   9.675   7.469   7.891  0.0525 -0.0287  0.0125
    1W        W40354   5.365   2.549   6.633  0.0056 -0.0048 -0.0900
    1W        W40355  24.661   2.525   0.867 -0.0219 -0.0660 -0.0783
    1W        W40356   9.483   1.776   1.527 -0.0775 -0.0166  0.0452
    1W        W40357   1.761  13.293   0.794 -0.1398 -0.0301  0.1211
    1W        W40358  20.112   3.308   2.477  0.0168  0.0098 -0.0613
    1W        W40359   5.394   7.191   1.563  0.0138 -0.0243  0.1379
    1W        W40360  15.553  21.491   8.165 -0.0360  0.1328 -0.3517
    1W        W40361   6.537  22.679   1.889  0.0205  0.0764 -0.0829
    1W        W40362  23.177  15.559   8.376 -0.1508  0.0243 -0.6286
    1W        W40363  18.015  17.169   2.002 -0.1674 -0.2965  0.0491
    1W        W40364  17.259  14.799   0.583 -0.1377  0.0273 -0.1276
    1W        W40365   6.619  26.891   1.643 -0.0572 -0.0936 -0.3947
    1W        W40366   4.757  18.388   0.940 -0.0043 -0.1158 -0.0862
    1W        W40367  13.366  27.256   1.185 -0.0829  0.1542 -0.2743
    1W        W40368   1.632   7.110   6.909 -0.1144 -0.2049  0.1037
    1W        W40369  28.831  26.320   8.691  0.1060 -0.1592 -0.1368
    1W        W40370   7.743  26.172   1.539 -0.2263 -0.0240  0.0345
    1W        W40371  27.013   8.470   7.615  0.0145  0.1444 -0.0250
    1W        W40372  21.007  11.600   9.523 -0.0191 -0.0250  0.1006
    1W        W40373  27.476  13.364   8.891 -0.0708 -0.1691  0.1226
    1W        W40374  17.605   5.731   6.834  0.1426 -0.1682  0.0546
    1W        W40375   5.637  26.473   0.831 -0.0021 -0.2686  0.1816
    1W        W40376   3.620  14.465   0.608  0.2667  0.2097 -0.0506
    1W        W40377  16.704   7.550   8.213  0.0283  0.1038 -0.1756
    1W        W40378   7.634  14.107   8.906 -0.2109  0.1147 -0.1335
    1W        W40379  23.825  14.730   0.248 -0.2556  0.0121  0.0510
    1W        W40380  13.959  15.503   1.719 -0.1824  0.2075  0.1044
    1W        W40381   0.376  10.873   7.664 -0.1980  0.3066  0.1521
    1W        W40382  19.394  14.021   8.563  0.2664  0.2141 -0.0803
    1W        W40383  28.157   5.104   9.495  0.1647 -0.0319 -0.0765
    1W        W40384   5.645  25.682   7.328  0.1222 -0.0896  0.0671
    1W        W40385  17.372  19.821   1.525  0.1687 -0.2302  0.0512
    1W        W40386  16.022  23.936   8.912 -0.2561 -0.1444 -0.0798
    1W        W40387  24.532  17.515   6.690 -0.4906  0.1768 -0.3934
    1W        W40388  27.652  28.180   9.176 -0.0453 -0.0903  0.0256
    1W        W40389   3.542   9.141   9.019 -0.2458 -0.0192  0.3371
    1W        W40390   3.346  16.184   1.137 -0.1211  0.0348  0.1431
    1W        W40391  12.839  26.169   0.657  0.3166 -0.0769 -0.0636
    1W        W40392  21.292  10.451   0.905 -0.1906  0.2172  0.1120
    1W        W40393  13.561   9.444   9.608  0.1956  0.0824  0.2446
    1W        W40394   9.106  12.516   0.367 -0.0605 -0.1057  0.0019
    1W        W40395  14.274   7.643   3.089 -0.1171 -0.0491  0.2631
    1W        W40396  16.898  10.801   1.842  0.1095  0.1964 -0.1205
    1W        W40397  23.119  26.973   1.199 -0.1731 -0.1393  0.3332
    1W        W40398  22.130   1.053   2.100  0.2021 -0.0643 -0.2072
    1W        W40399  18.225  17.649   7.640  0.0858 -0.0625 -0.3607
    1W        W40400  18.524   7.564   7.842  0.0534 -0.1929  0.0200
    1W        W40401  10.535  11.944   1.347 -0.0566  0.3526 -0.0575
    1W        W40402  25.130  22.445   3.166  0.1593  0.0370 -0.0671
    1W        W40403   8.046   5.353   1.636 -0.0249  0.0356  0.0185
    1W        W40404   3.656   6.059   6.147  0.1948 -0.0897  0.0928
    1W        W40405  12.835  13.484   0.373 -0.1045 -0.1508  0.0620
    1W        W40406  23.384   9.465   7.057 -0.0260 -0.0926  0.0960
    1W        W40407  28.895  18.448   1.601 -0.0916 -0.0865 -0.0240
    1W        W40408  12.363  23.753   6.771 -0.1380 -0.0749 -0.2777
    1W        W40409  10.051   9.980   0.546 -0.2436  0.0092 -0.4537
    1W        W40410   7.204   9.444   5.646 -0.0642 -0.2063  0.1353
    1W        W40411   8.030   2.149   2.140 -0.0850 -0.0180  0.0811
    1W        W40412   0.104  16.855   1.443 -0.2317  0.0034  0.1821
    1W        W40413  10.959  13.253   0.199  0.1958  0.0992 -0.0508
    1W        W40414  17.651  20.927   9.105 -0.0120  0.0610  0.0574
    1W        W40415  13.890  28.692   6.519 -0.1546  0.1357 -0.0854
    1W        W40416  16.743   8.210   2.962  0.0741 -0.0946  0.0605
    1W        W40417  29.210  10.704   8.757  0.1877  0.2270  0.4171
    1W        W40418   7.786  26.851   9.116  0.1862 -0.2113  0.0530
    1W        W40419   5.287  12.437   6.002  0.2870  0.0986 -0.0936
    1W        W40420  27.107  27.803   0.089  0.0641  0.1483 -0.1038
    1W        W40421   7.845   9.730   9.354 -0.3343  0.1993  0.3234
    1W        W40422  12.076   3.048   0.650  0.2414 -0.0802 -0.0008
    1W        W40423  27.579  10.326   0.938 -0.4143 -0.0327  0.2084
    1W        W40424  28.474  22.310   8.139 -0.0495 -0.3089 -0.1542
    1W        W40425   1.889  19.684   8.833 -0.0317 -0.0319  0.0716
    1W        W40426   0.714   6.971   9.256 -0.0664  0.0625 -0.1904
    1W        W40427  16.788   0.771   2.341  0.0578 -0.0006 -0.1402
    1W        W40428  28.383   9.586   9.555 -0.0279 -0.0635 -0.0400
    1W        W40429  24.941  27.086   2.057  0.3456  0.1097 -0.1805
    1W        W40430  10.257  18.093   9.041 -0.3077  0.0735 -0.0361
    1W        W40431  23.234   8.546   8.067  0.3084 -0.1851 -0.2951
    1W        W40432  12.189  16.882   7.807  0.2962 -0.0228  0.1240
    1W        W40433   8.108  12.562   6.635 -0.3613  0.1316  0.0454
    1W        W40434  25.198  11.668   8.153  0.0956  0.1566  0.0199
    1W        W40435   0.430  25.009   1.698  0.0381 -0.3332 -0.1232
    1W        W40436  16.204  19.062   8.898  0.1830 -0.1540 -0.1256
    1W        W40437  28.382   0.910   1.129  0.0419  0.3115  0.0750
    1W        W40438   7.365   7.221   1.548  0.2013  0.3023  0.0522
    1W        W40439  10.363   9.517   3.009 -0.2111  0.0602  0.2563
    1W        W40440   7.204  15.299   8.814  0.1068  0.0639  0.0124
    1W        W40441  10.849   9.866   8.802  0.1439 -0.0196 -0.0645
    1W        W40442  17.763  22.987   2.305  0.0945 -0.0757  0.0436
    1W        W40443  26.425   0.371   2.328 -0.1927 -0.0509  0.5330
    1W        W40444  10.120  17.234   0.014  0.2317 -0.0400  0.2144
    1W        W40445   5.581   2.852   2.002  0.2388  0.3554 -0.1153
    1W        W40446   8.939   4.013   0.637 -0.1916 -0.1759 -0.2086
    1W        W40447  19.603   6.482   7.359 -0.1356  0.0555  0.3508
    1W        W40448   9.816  16.340   2.315  0.1499 -0.3064  0.1763
    1W        W40449  19.290   3.100   1.305  0.2319  0.0867 -0.0131
    1W        W40450  20.393  11.177   1.380 -0.1315  0.0365 -0.0084
    1W        W40451   9.004   5.555   6.762 -0.2388  0.0339 -0.1763
    1W        W40452   9.307  16.399   2.282 -0.0690 -0.0755  0.1242
    1W        W40453  10.654  16.318   5.687  0.1244  0.2591  0.0673
    1W        W40454  10.238   9.298   7.283 -0.3853  0.2333 -0.1957
    1W        W40455  27.767   0.055   7.413  0.2163  0.1756  0.0633
    1W        W40456  16.151  19.338   7.512 -0.2696  0.0258 -0.1498
    1W        W40457  10.806  22.799   6.867 -0.0350 -0.0098  0.0000
    1W        W40458   6.631  15.724   6.461 -0.0277 -0.0524 -0.0110
    1W        W40459  23.036  26.192   8.974 -0.1189  0.5388 -0.0520
    1W        W40460   9.470  22.754   1.900  0.1558 -0.1652  0.2444
    1W        W40461   2.406   8.768   8.376  0.0504  0.1003  0.0894
    1W        W40462  19.960  20.579   2.982 -0.0833  0.3674  0.1455
    1W        W40463  21.306   6.842   0.305  0.1172  0.1166  0.1084
    1W        W40464   0.775   2.992   0.877  0.3931  0.1339 -0.0827
    1W        W40465   2.052  26.638   1.295 -0.2734  0.3162 -0.0869
    1W        W40466  22.016  12.702   8.840 -0.1677  0.1647 -0.1406
    1W        W40467   7.522  29.245   7.314  0.1209 -0.2166  0.0061
    1W        W40468  27.851  21.819   1.446 -0.0075  0.1334  0.0788
    1W        W40469  25.539  15.598   1.301 -0.0258  0.3800 -0.1370
    1W        W40470   5.709   7.785   1.934 -0.1533  0.1019  0.0213
    1W        W40471  13.660   5.001   7.201 -0.1933 -0.1195  0.1267
    1W        W40472  28.602  13.116   2.234 -0.0645 -0.0688 -0.2568
    1W        W40473  21.688  25.390   8.907 -0.2508  0.1262  0.2887
    1W        W40474  28.660   4.509   7.100 -0.0727  0.1018  0.3715
    1W        W40475   1.865   3.460   9.593 -0.0552 -0.0581  0.0755
    1W        W40476  15.924  28.026   7.242 -0.0138  0.1363  0.1393
    1W        W40477  17.205  17.425   8.453  0.0472 -0.3152 -0.3614
    1W        W40478  12.345  26.637   8.429 -0.1959  0.0766  0.0862
    1W        W40479  23.344  19.637   9.025  0.0804  0.0652  0.0237
    1W        W40480  17.986   8.551   0.270  0.0153 -0.0632  0.1518
    1W        W40481  12.284  20.916   8.163  0.1377 -0.0106 -0.0087
    1W        W40482   5.006   9.618   8.819  0.0315  0.2596 -0.0236
    1W        W40483   8.230   1.615   1.743 -0.0757 -0.0051  0.0054
    1W        W40484  12.484   4.659   1.905 -0.0702 -0.2773 -0.2262
    1W        W40485   9.543  12.722   0.266 -0.1011 -0.0841 -0.2772
    1W        W40486  19.623  12.932   7.579  0.0318  0.3146 -0.1836
    1W        W40487   2.660  12.896   6.966 -0.2154 -0.1294 -0.0023
    1W        W40488  22.774  27.362   9.483 -0.2718 -0.1763 -0.1078
    1W        W40489  18.660  26.621   8.239  0.3440 -0.1237  0.1991
    1W        W40490   3.021  10.613   6.100  0.1714  0.0769 -0.0910
    1W        W40491  26.438  14.519   8.548 -0.0956  0.2050 -0.3158
    1W        W40492  14.581   0.501   9.446  0.0012  0.2738 -0.2675
    1W        W40493  16.108  27.615   6.894  0.2832  0.3450  0.1196
    1W        W40494  14.590  16.096   0.032 -0.3952  0.0917 -0.1796
    1W        W40495  27.975   7.576   0.353 -0.1372 -0.2109  0.3487
    1W        W40496   9.750   9.839   1.424  0.0598 -0.1341 -0.0661
    1W        W40497  24.134   1.922   1.699  0.1829  0.2639  0.2301
    1W        W40498  16.820  13.222   0.484 -0.0238  0.2095 -0.1044
    1W        W40499  16.331  27.763   3.049  0.2968  0.2565  0.0998
    1W        W40500   8.920   0.537   1.334  0.1000 -0.0455  0.0940
    1W        W40501  11.725  10.791   7.849  0.3013  0.1086  0.2319
    1W        W40502  25.838  18.569   0.859  0.1065 -0.2282 -0.0804
    1W        W40503   0.206  14.963   1.008 -0.2356  0.0032 -0.2831
    1W        W40504   6.271  24.387   7.649 -0.3124  0.3951  0.2082
    1W        W40505   4.948  10.792   5.143  0.0253  0.1249  0.0630
    1W        W40506   1.524  12.652   8.768 -0.0449 -0.0044 -0.0135
    1W        W40507   2.040  10.568   7.048  0.0191 -0.2380  0.2623
    1W        W40508  26.380  24.198   2.848  0.0803  0.0305 -0.0034
    1W        W40509   0.435   2.603   1.626  0.5946  0.1200  0.1865
    1W        W40510  24.071   9.622   1.539  0.2502  0.2251  0.1179
    1W        W40511   7.191  15.048   0.126  0.0041 -0.2969  0.1655
    1W        W40512  13.559  27.117   0.714  0.1694  0.0365  0.0225
    1W        W40513   6.711  27.451   1.994  0.1311 -0.2417  0.1271
    1W        W40514  14.661   1.300   1.921 -0.5918  0.1493 -0.1031
    1W        W40515   9.800  21.380   6.197 -0.0315 -0.1093  0.1613
    1W        W40516  11.941  21.752   1.943 -0.0093  0.1434  0.1017
    1W        W40517   5.365   5.777   9.315  0.2284  0.1246  0.0636
    1W        W40518   5.052  11.289   0.397 -0.4331  0.2335  0.1686
    1W        W40519   9.457  28.681   9.418  0.0481 -0.1777  0.1963
    1W        W40520  15.700   3.462   2.489  0.3021  0.3371 -0.1823
    1W        W40521  11.016   8.258   9.159 -0.0272  0.3287 -0.0455
    1W        W40522  18.869  14.465   0.007 -0.2011 -0.0389  0.4114
    1W        W40523   2.633  17.538   0.546 -0.2225 -0.1296 -0.0760
    1W        W40524   6.025   3.254   6.939  0.2052  0.2740  0.2132
    1W        W40525  28.403   9.846   7.909 -0.0827  0.0466  0.1608
    1W        W40526   2.261   1.806   1.683  0.2944 -0.0779  0.1828
    1W        W40527  17.698  19.534   8.836 -0.0411 -0.1360  0.1129
    1W        W40528   1.197  29.540   2.822 -0.0377  0.2412  0.4045
    1W        W40529  27.913   0.083   2.753  0.0359 -0.0073 -0.0767
    1W        W40530  25.176  23.138   7.989  0.1642 -0.0691 -0.3963
    1W        W40531   6.946  14.924   8.235  0.0180 -0.2700 -0.1434
    1W        W40532   9.786  14.025   5.875  0.0349  0.0727  0.0423
    1W        W40533  19.833  17.114   9.552 -0.0173  0.1223  0.1571
    1W        W40534  14.250   3.133   9.141 -0.0061 -0.2219 -0.4125
    1W        W40535   1.609  26.193   1.132  0.2431  0.0121 -0.1317
    1W        W40536   2.052   6.023   0.373  0.2316  0.2193 -0.0140
    1W        W40537   8.688  12.744   7.347  0.1095 -0.0082  0.0171
    1W        W40538  10.490   9.662   0.594  0.2030 -0.1862 -0.2136
    1W        W40539  19.524   5.928   1.528 -0.1236 -0.0913  0.2453
    1W        W40540   8.372  23.316   0.538 -0.1521  0.0765 -0.1082
    1W        W40541  19.070  27.491   7.645 -0.1430  0.2141 -0.0972
    1W        W40542  10.150  24.856   7.148 -0.0725  0.0611 -0.1594
    1W        W40543   7.596  20.065   9.512  0.0633  0.3003  0.0272
    1W        W40544   9.619   5.123   9.553  0.1603 -0.2474  0.2999
    1W        W40545  14.779  15.161   9.056 -0.0913 -0.2303 -0.0761
    1W        W40546  19.329  15.831   1.448 -0.2654  0.0315  0.0194
    1W        W40547   1.656  22.845   9.056  0.1508  0.4836 -0.1692
    1W        W40548  27.604   1.957   1.451 -0.1845 -0.2277 -0.1944
    1W        W40549  29.556  11.459   8.705 -0.2735  0.1564  0.2113
    1W        W40550  18.442   3.718   1.543  0.0576 -0.0613 -0.0281
    1W        W40551   3.613   6.277   5.583  0.0852  0.0566 -0.2381
    1W        W40552  14.695  21.660   9.189 -0.0953  0.0075  0.6925
    1W        W40553  23.481   7.803   2.727  0.0472  0.0513 -0.1468
    1W        W40554   5.203  27.484   2.474  0.1828 -0.2003 -0.0794
    1W        W40555  12.709   4.423   9.386  0.0715 -0.1619  0.3236
    1W        W40556  28.496  20.990   2.534 -0.2703 -0.1009  0.0456
    1W        W40557  28.775   9.324   9.235 -0.1221  0.0442  0.2915
    1W        W40558  17.704  14.067   1.951  0.1024  0.3203 -0.2629
    1W        W40559   0.292   4.995   7.543  0.1556  0.0625 -0.1553
    1W        W40560  10.967  24.344   0.045 -0.0436 -0.1075  0.1427
    1W        W40561   4.948   9.168   9.043  0.1146 -0.1766  0.1529
    1W        W40562  15.187  12.781   0.084 -0.0408 -0.0081 -0.1426
    1W        W40563   3.633  23.751   2.384 -0.4771 -0.0202 -0.3693
    1W        W40564  14.040  24.921   9.639  0.4440 -0.0375 -0.2187
    1W        W40565  28.435  12.202   6.868  0.0530 -0.0891  0.1285
    1W        W40566   6.994  20.911   1.384 -0.1692  0.2086 -0.1242
    1W        W40567   6.307  14.483   8.803  0.1855  0.2303 -0.0468
    1W        W40568   4.611   6.537   0.010  0.1531 -0.4350  0.0598
    1W        W40569  19.632  29.465   2.680 -0.1534  0.0323 -0.1118
    1W        W40570  24.975  23.637   1.095  0.3957 -0.0084 -0.1132
    1W        W40571  25.610  12.988   2.740  0.2425 -0.0438 -0.2010
    1W        W40572   3.249  20.840   6.881 -0.1873 -0.1539 -0.2884
    1W        W40573  26.500   6.903   9.503  0.1158  0.0166 -0.0180
    1W        W40574  12.924  14.290   8.894 -0.0672 -0.2791 -0.1273
    1W        W40575   2.078   5.695   7.966 -0.1996 -0.1992 -0.0606
    1W        W40576   6.637  26.004   1.506 -0.1308 -0.1343 -0.2348
    1W        W40577  23.469  13.032   2.045 -0.0968  0.3255 -0.1309
    1W        W40578  19.306   2.989   2.575  0.3517 -0.1072 -0.3385
    1W        W40579   3.465   0.502   1.060 -0.0613 -0.0673  0.4136
    1W        W40580  12.091  23.305   0.157  0.1158  0.1677 -0.0744
    1W        W40581  17.010   6.441   7.690 -0.1625  0.0231 -0.1607
    1W        W40582  29.043  18.588   7.031  0.2388 -0.1775 -0.0478
    1W        W40583  28.903   5.094   1.028 -0.3156  0.0167  0.2184
    1W        W40584   7.862   2.555   1.856 -0.4197  0.0924  0.1252
    1W        W40585   1.323  17.895   7.348 -0.1191 -0.0385  0.2132
    1W        W40586   5.514   9.221   1.965  0.0782  0.0476 -0.0702
    1W        W40587   2.172   4.942   6.939  0.3979 -0.0182 -0.2115
    1W        W40588  20.837  27.796   9.269 -0.4287 -0.2820 -0.0783
    1W        W40589  19.739  13.140   0.664 -0.0911 -0.2149 -0.1785
    1W        W40590   0.632  22.214   8.144  0.1181 -0.0124  0.0638
    1W        W40591  18.729  26.151   3.175 -0.0277  0.4596 -0.1998
    1W        W40592  12.736  14.407   0.104 -0.1164 -0.1116  0.0366
    1W        W40593   3.796  25.859   2.492  0.0032 -0.0385 -0.1820
    1W        W40594  18.377   7.981   1.517 -0.1843  0.2207  0.1213
    1W        W40595   5.263   4.123   7.833 -0.1920  0.1174 -0.0435
    1W        W40596   0.881  25.054   7.007  0.0057 -0.2677 -0.0846
    1W        W40597   5.757   5.237   1.669 -0.0718  0.0378  0.0759
    1W        W40598   4.080  22.783   3.221  0.1922 -0.1361 -0.1788
    1W        W40599   2.623  24.740   1.801  0.3373  0.0869 -0.1355
    1W        W40600  15.268  22.861   1.899 -0.2589 -0.0008 -0.0448
    1W        W40601   1.524  15.214   7.294 -0.0651  0.0122  0.0928
    1W        W40602   2.431   1.829   2.465  0.0523 -0.0930 -0.1069
    1W        W40603   2.356  24.829   7.179  0.1538 -0.1635  0.0484
    1W        W40604  11.510  15.712   1.508  0.1562  0.5233 -0.0260
    1W        W40605  18.815  25.326   3.970 -0.0704 -0.1674 -0.0800
    1W        W40606   6.330   4.594   9.065 -0.2811 -0.0952  0.0144
    1W        W40607  12.531   2.557   9.368  0.3735 -0.0738  0.0349
    1W        W40608   8.275  16.498   9.459 -0.0739  0.2153 -0.1377
    1W        W40609  14.613  18.785   2.058 -0.2982  0.3868  0.0668
    1W        W40610  22.553   4.843   9.331 -0.1127  0.0812 -0.0233
    1W        W40611   4.960  18.663   1.917  0.0579  0.2141  0.1204
    1W        W40612  17.765  18.794   0.048  0.2185 -0.0621 -0.0897
    1W        W40613   1.241   4.061   3.122 -0.2698  0.0151 -0.0858
    1W        W40614  15.255  24.285   8.235  0.2911 -0.1387  0.1947
    1W        W40615   1.461  16.342   1.877  0.0402 -0.1467 -0.1530
    1W        W40616  25.105   8.151   2.536  0.3347  0.0412 -0.2132
    1W        W40617   6.457   7.425   6.575  0.1075  0.1404  0.2904
    1W        W40618   1.090   7.724   6.652  0.3198 -0.0650  0.0064
    1W        W40619   2.855  13.212   8.628 -0.1226  0.2275 -0.0331
    1W        W40620  10.142  23.450   6.267 -0.0178  0.0182 -0.2545
    1W        W40621  25.934  10.486   0.126  0.0288  0.1527  0.1159
    1W        W40622  22.172   6.225   1.587  0.0036  0.1637 -0.0550
    1W        W40623   0.226  16.328   2.357  0.2308 -0.1216  0.0838
    1W        W40624  28.021  18.528   1.055 -0.0707 -0.1001  0.0294
    1W        W40625   2.774  26.469   0.462  0.0047 -0.0124 -0.1485
    1W        W40626  10.790  22.595   9.394  0.1498 -0.2952 -0.1634
    1W        W40627   3.794   3.816   1.342  0.0885 -0.0899  0.0679
    1W        W40628   1.766  26.624   1.836 -0.1873  0.0052 -0.1479
    1W        W40629   3.130  18.746   3.311 -0.0057  0.0393 -0.0773
    1W        W40630  13.900   7.412   8.465  0.0532 -0.1693 -0.1826
    1W        W40631  15.875  19.946   1.853  0.0243  0.1132 -0.2014
    1W        W40632  23.276  12.822   7.593 -0.1855  0.2696 -0.2206
    1W        W40633  25.856  10.899   8.719 -0.0953 -0.2496  0.0379
    1W        W40634  23.947  20.662   2.086 -0.3261  0.1678 -0.3527
    1W        W40635   2.889  14.862   8.733 -0.0485 -0.1493  0.2879
    1W        W40636  28.605   4.407   0.043  0.1397 -0.4696 -0.1990
    1W        W40637   6.302  26.725   7.198  0.1157  0.0408 -0.1981
    1W        W40638  12.198  20.185   9.251  0.1877 -0.0652 -0.0934
    1W        W40639  28.857  16.295   8.825 -0.0080  0.0171  0.1861
    1W        W40640  20.056  22.002   3.134  0.0968  0.2861 -0.1445
    1W        W40641   5.907  18.720   8.089 -0.0098 -0.1431  0.2384
    1W        W40642  27.801   0.126   6.759  0.4796  0.1983 -0.0354
    1W        W40643  18.409  23.323   2.856 -0.0880  0.1823 -0.1941
    1W        W40644  13.026  26.650   8.631  0.0609 -0.0971  0.1545
    1W        W40645  22.183  13.467   8.752 -0.2876  0.2194 -0.0522
    1W        W40646   7.495  18.003   1.057  0.2741  0.1919  0.1735
    1W        W40647  25.842  13.559   8.235  0.0558 -0.1621  0.0539
    1W        W40648  20.388  14.032   2.342  0.1796  0.2286  0.0266
    1W        W40649  17.098   9.616   0.341  0.1168 -0.0101  0.1256
    1W        W40650  29.332   4.854   1.738  0.3404 -0.3052 -0.3156
    1W        W40651  19.448  20.447   8.824 -0.0907 -0.0737 -0.2027
    1W        W40652  14.250  21.882   1.694 -0.0729  0.2169 -0.1020
    1W        W40653   6.625  27.079   0.209  0.0178  0.1441 -0.0609
    1W        W40654  17.795  27.281   8.468  0.0425  0.3750  0.0351
    1W        W40655   8.157   7.857   6.260 -0.1013  0.1936  0.0986
    1W        W40656  14.274  26.217   8.728  0.2130  0.3107  0.2135
    1W        W40657  28.163  10.725   0.112 -0.0183  0.1748  0.0430
    1W        W40658  10.910  11.206   1.021 -0.1801  0.0831 -0.0053
    1W        W40659  11.076  15.771   6.219 -0.4901  0.3033 -0.0541
    1W        W40660   5.915  12.710   8.926 -0.0158 -0.2322 -0.1390
    1W        W40661  20.854  11.112   0.887  0.3189 -0.3530  0.1696
    1W        W40662  28.787   4.816   6.713  0.1575  0.1482 -0.0124
    1W        W40663  17.197   3.371   0.975 -0.0973 -0.1756 -0.1976
    1W        W40664  11.404   4.445   8.780 -0.1150  0.2080 -0.1323
    1W        W40665  26.294  17.637   8.058 -0.0679 -0.1600 -0.0696
    1W        W40666  12.345  19.374   0.575  0.0133 -0.0672  0.0261
    1W        W40667  13.922   5.507   5.768 -0.0569  0.2336 -0.0720
    1W        W40668   4.099  18.687   1.960 -0.2207  0.1063  0.0136
    1W        W40669  24.628  16.562   7.899  0.1663  0.0306  0.2032
    1W        W40670   9.748  28.395   9.189 -0.0897  0.1261  0.3893
    1W        W40671   6.237  10.107   0.709 -0.0026  0.1571 -0.0476
    1W        W40672  27.823  12.545   2.269  0.0899 -0.2554 -0.0837
    1W        W40673  19.628  26.630   3.023 -0.2525  0.0410  0.1147
    1W        W40674   8.336  14.503   7.046 -0.1132 -0.3942 -0.0768
    1W        W40675  20.081  11.859   8.861  0.1721 -0.1114 -0.0360
    1W        W40676  16.369  14.971   6.975  0.1109  0.1138 -0.0900
    1W        W40677  19.705   2.539   8.671  0.0100 -0.2227  0.5140
    1W        W40678  26.290  25.489   0.213 -0.0651 -0.0482 -0.2263
    1W        W40679   8.567  12.442   6.385 -0.0849 -0.3267 -0.0934
    1W        W40680  11.737   2.808   6.030  0.1832  0.1315 -0.1066
    1W        W40681  11.546  17.667   1.503  0.0293  0.0873  0.0055
    1W        W40682  21.224   1.121   6.819  0.0755  0.1360 -0.0071
    1W        W40683   6.547   7.075   7.431  0.1656  0.2063  0.1223
    1W        W40684   3.160  24.810   1.901 -0.2231 -0.1516  0.1931
    1W        W40685  27.025  22.192   1.621  0.1897  0.1829  0.1259
    1W        W40686   8.140  19.114   7.361 -0.2972 -0.0378  0.2613
    1W        W40687  11.910  28.768   7.643 -0.2933 -0.0309 -0.1329
    1W        W40688  21.250  22.538   0.999  0.0247  0.2616 -0.1194
    1W        W40689  24.604  19.363   7.910 -0.1158 -0.0926  0.0389
    1W        W40690  17.510  28.297   7.512  0.0979 -0.2613  0.2227
    1W        W40691  25.697   8.401   1.191 -0.0887  0.0066  0.1823
    1W        W40692  24.136  22.067   7.012 -0.0324 -0.0643 -0.1503
    1W        W40693  10.078  17.609   1.566  0.1053 -0.1832 -0.0814
    1W        W40694  17.631  18.288   9.414 -0.0336 -0.2384 -0.0920
    1W        W40695   0.431  24.929   8.269 -0.2750 -0.0149  0.2300
    1W        W40696  18.139   4.507   7.719 -0.0196 -0.0853 -0.2788
    1W        W40697   9.548  25.958   1.257  0.3075 -0.2807 -0.0457
    1W        W40698  27.812   0.775   8.820  0.2478  0.2379  0.0937
    1W        W40699  19.347  19.110   0.163  0.0471  0.2464 -0.0380
    1W        W40700  11.929  19.666   5.664  0.0551  0.1825 -0.1392
    1W        W40701   4.302   8.420   1.095  0.1572  0.1876  0.3523
    1W        W40702   1.520   2.569   2.014 -0.1273  0.0146 -0.0596
    1W        W40703   6.322  13.007   6.433  0.0123 -0.0011 -0.0449
    1W        W40704  12.881   5.283   2.388  0.2228 -0.2604  0.1047
    1W        W40705  17.365   2.595   7.624  0.1428  0.1356  0.0070
    1W        W40706  18.972  17.098   7.570  0.0454  0.2903  0.0345
    1W        W40707   7.379  22.350   1.574  0.0023 -0.2381 -0.0053
    1W        W40708  27.676  15.984   8.308  0.0534 -0.1825 -0.0350
    1W        W40709  21.962  12.920   2.532 -0.2408  0.4123 -0.2190
    1W        W40710  16.585   3.051   8.905  0.0486 -0.4002  0.0644
    1W        W40711  12.292  18.245   2.460 -0.3467  0.3159 -0.2231
    1W        W40712  25.492  17.210   8.882  0.0446 -0.2583  0.1698
    1W        W40713  16.434  21.303   6.717 -0.1246  0.1424  0.1279
    1W        W40714   1.399  14.946   1.459  0.0218 -0.2782  0.0542
    1W        W40715   1.287  23.496   7.446  0.0681  0.0273 -0.1784
    1W        W40716  26.694  21.857   1.464 -0.2272  0.1708  0.0229
    1W        W40717   4.632  17.867   7.755 -0.0866 -0.1903 -0.3859
    1W        W40718   2.739  20.674   7.149  0.0253  0.0659  0.0754
    1W        W40719  18.620  27.957   8.139  0.0049 -0.0515 -0.1417
    1W        W40720  18.048   7.471   2.807  0.1331  0.1449 -0.2065
    1W        W40721  11.509  29.016   7.517  0.0016  0.1436  0.1302
    1W        W40722   1.442   1.340   1.314 -0.1072  0.1388 -0.0585
    1W        W40723  23.187  21.678   8.037 -0.2139 -0.1138 -0.0913
    1W        W40724  21.151  11.527   8.060  0.0003 -0.1161 -0.1659
    1W        W40725  28.696   1.943   0.755  0.2527 -0.0262 -0.1847
    1W        W40726  18.127   5.361   1.434  0.0788 -0.1562  0.0720
    1W        W40727  20.653  20.432   1.016 -0.4578  0.0906 -0.0277
    1W        W40728   3.705  28.548   9.377 -0.1711  0.0521  0.2040
    1W        W40729   7.290  29.202   8.901  0.3400 -0.3629 -0.4759
    1W        W40730   8.449  26.872   1.025  0.2138  0.2634 -0.0497
    1W        W40731  20.044   9.263   0.591 -0.0963  0.1788  0.0219
    1W        W40732  20.338   2.322   3.112 -0.0898  0.1101 -0.1573
    1W        W40733  26.986  21.560   0.451  0.0502  0.0295  0.0497
    1W        W40734   2.789  27.196   7.924 -0.1546  0.1476 -0.0873
    1W        W40735  21.091   0.463   3.274  0.1388  0.0944 -0.2447
    1W        W40736  11.936   2.347   7.505 -0.1670 -0.3908 -0.1302
    1W        W40737   4.726  26.683   7.039 -0.1265  0.1533 -0.2148
    1W        W40738  14.471  26.787   1.898 -0.0216 -0.3928  0.1383
    1W        W40739   2.580  28.663   6.315 -0.2087  0.3157 -0.1527
    1W        W40740  21.864   7.334   9.376 -0.0787 -0.0298 -0.2802
    1W        W40741  28.931   4.615   0.594 -0.1672  0.2359 -0.0255
    1W        W40742   5.297  16.274   9.641  0.1065  0.0156  0.1403
    1W        W40743   6.013  22.875   6.911  0.0163  0.0380  0.1392
    1W        W40744  12.165  25.954   8.273 -0.2717 -0.2129 -0.0158
    1W        W40745   7.197  11.924   7.881  0.0697  0.0571  0.0410
    1W        W40746  25.638  26.068   0.658 -0.2340 -0.0126  0.0707
    1W        W40747  10.643   4.383   0.420 -0.1248 -0.0849 -0.1006
    1W        W40748   2.136  27.788   7.096 -0.2580  0.0689 -0.1468
    1W        W40749  11.307  21.781   9.201  0.0858  0.2966  0.2128
    1W        W40750   7.508  11.008   8.226  0.0466  0.2748 -0.0618
    1W        W40751  25.553  26.708   9.065 -0.1531  0.3364  0.2195
    1W        W40752  15.062  10.494   0.657  0.3479  0.0404 -0.0623
    1W        W40753  15.264   9.221   6.485 -0.0159  0.0266 -0.1208
    1W        W40754  19.688  15.727   2.299 -0.0851 -0.2581  0.1707
    1W        W40755  11.333  19.724   2.494  0.1967  0.0313  0.0600
    1W        W40756   1.216  16.175   7.845  0.2961  0.1238 -0.2423
    1W        W40757  19.153  18.620   0.187 -0.2599 -0.0700 -0.0587
    1W        W40758  18.572  19.278   7.337 -0.1106  0.1907 -0.1235
    1W        W40759   1.324   9.052   6.169 -0.0515  0.2315 -0.3270
    1W        W40760  19.672   0.936   2.774 -0.0913 -0.0636 -0.0996
    1W        W40761  22.406   4.019   7.594  0.1444 -0.1220  0.2309
    1W        W40762  20.685  21.899   9.353  0.0123  0.2173  0.0408
    1W        W40763  14.027  23.344   5.561 -0.1495 -0.0040 -0.1228
    1W        W40764  13.231   5.493   0.497 -0.1064 -0.1640  0.0072
    1W        W40765   6.772  26.109   7.665 -0.2543 -0.1377  0.1887
    1W        W40766  17.113  27.148   1.328 -0.0617 -0.0863  0.1525
    1W        W40767  16.867  24.949   8.742  0.0084 -0.2976 -0.1163
    1W        W40768  12.303  18.582   0.997  0.2554  0.1025  0.0796
    1W        W40769   1.067   0.483   0.767  0.1539  0.0662 -0.1060
    1W        W40770  14.232  20.616   0.422  0.2287 -0.2592  0.2384
    1W        W40771   7.460  28.548   6.605  0.1791 -0.0396  0.2487
    1W        W40772   9.852   3.869   1.011 -0.0849  0.1328  0.0624
    1W        W40773   5.676  23.551   6.691 -0.0170 -0.0665 -0.3481
    1W        W40774  12.966  25.496   6.702 -0.0859 -0.0234  0.1307
    1W        W40775   2.989  25.203   0.053 -0.2120 -0.3905  0.1595
    1W        W40776  25.942  17.801   9.507  0.0967  0.2025  0.0512
    1W        W40777  22.419  19.250   7.240 -0.3226  0.0518  0.0167
    1W        W40778  17.123  11.791   7.708  0.1745  0.2759  0.1812
    1W        W40779   7.832  19.149   7.823  0.0928  0.0178  0.0569
    1W        W40780  19.081  14.033   9.052  0.1202  0.0085 -0.0502
    1W        W40781  20.246  10.779   7.631  0.0835 -0.0920  0.0278
    1W        W40782  13.777  20.162   7.279 -0.2706 -0.0292 -0.0132
    1W        W40783  24.647  11.447   1.828 -0.0073  0.2084  0.0713
    1W        W40784  18.168   3.969   8.519  0.2233 -0.1610  0.1277
    1W        W40785   8.276  21.534   8.126  0.0553 -0.1850 -0.0157
    1W        W40786  28.492  18.282   8.350 -0.2123 -0.1643 -0.1902
    1W        W40787  10.373  20.057   1.221 -0.0762 -0.3743  0.1988
    1W        W40788   6.671  23.493   7.684 -0.1673 -0.3206  0.0574
    1W        W40789  19.807  22.784   2.001  0.2165 -0.0361 -0.0750
    1W        W40790  27.320   9.464   1.128  0.0949  0.0334 -0.0273
    1W        W40791   3.580  20.838   2.579  0.0490  0.0958  0.0629
    1W        W40792  28.663   4.900   9.375  0.0291  0.2923 -0.3920
    1W        W40793  21.192  25.318   9.294  0.4438 -0.2127 -0.1150
    1W        W40794  28.769   7.948   8.701  0.0109 -0.0988 -0.0249
    1W        W40795  11.636  22.056   9.036  0.0776 -0.2450 -0.0888
    1W        W40796   7.954  21.848   8.479 -0.0056 -0.0633  0.1194
    1W        W40797  27.625  18.181   1.365  0.1033 -0.1258  0.4237
    1W        W40798   2.781   1.323   2.340  0.0099  0.1540 -0.0777
    1W        W40799  22.628  26.632   8.860 -0.2529 -0.3455 -0.1442
    1W        W40800  14.738  25.618   6.364 -0.0666 -0.0451  0.0977
    1W        W40801  19.406  18.800   0.608 -0.1748 -0.2288 -0.0035
    1W        W40802   5.145  22.188   8.082  0.0074 -0.1277 -0.0527
    1W        W40803  25.374   1.481   9.342 -0.2260  0.2054 -0.1113
    1W        W40804  19.661  11.670   1.574  0.0045 -0.1774 -0.2237
    1W        W40805   0.773  27.153   7.845 -0.2704 -0.0756 -0.1203
    1W        W40806  17.860  14.537   8.012  0.0311 -0.2530 -0.0110
    1W        W40807   4.495   4.227   1.556 -0.1065  0.0633 -0.0141
    1W        W40808  18.082  22.504   7.946 -0.1584 -0.2394 -0.1240
    1W        W40809  10.955  20.241   6.301  0.2389  0.0332  0.3458
    1W        W40810   6.405   3.419   6.092 -0.2408  0.4050  0.2464
    1W        W40811   6.771  19.564   0.890 -0.3196 -0.2376  0.3437
    1W        W40812  20.440   7.579   9.088  0.0093 -0.1531 -0.2897
    1W        W40813   2.685   3.506   2.105  0.1479 -0.3598 -0.2690
    1W        W40814  18.117  29.186   0.837 -0.2431 -0.1120 -0.3348
    1W        W40815  13.123  26.488   1.473  0.0505  0.0490 -0.2869
    1W        W40816   1.642  18.528   1.249 -0.0409 -0.1153  0.0669
    1W        W40817  27.356  11.667   1.579 -0.0222  0.1512 -0.4511
    1W        W40818  16.182  22.454   1.723 -0.1357  0.0695  0.0295
    1W        W40819  26.539   3.699   7.264  0.2163 -0.1028 -0.2780
    1W        W40820   6.016   5.453   7.840  0.3601 -0.3230 -0.2298
    1W        W40821  22.741  28.268   0.476  0.1010 -0.1126  0.2787
    1W        W40822  11.960  21.876   0.165  0.0677  0.0753 -0.1433
    1W        W40823   6.158  28.357   9.534  0.1664 -0.3125  0.0164
    1W        W40824   6.157  12.290   0.334 -0.0079  0.2526  0.2532
    1W        W40825   4.680  26.955   0.205 -0.2419 -0.2396  0.0493
    1W        W40826   0.253   0.940   8.801 -0.1122 -0.1506 -0.2198
    1W        W40827  24.285  17.719   8.080  0.0300 -0.1416  0.2408
    1W        W40828  24.751  26.384   1.307  0.1502  0.1094  0.1202
    1W        W40829  16.452  10.773   0.442 -0.3377  0.1615  0.3740
    1W        W40830  26.816  27.047   8.350 -0.0235  0.0568  0.0779
    1W        W40831  14.780  29.413   6.891 -0.2305 -0.3324  0.1588
    1W        W40832  19.536  27.478   7.863  0.2218  0.0646 -0.1681
    1W        W40833  19.366  24.841   2.513 -0.0973  0.2348  0.1152
    1W        W40834  27.130   4.764   0.712 -0.0322 -0.2071  0.3609
    1W        W40835  19.545   9.768   2.113  0.0681  0.0485 -0.1712
    1W        W40836  10.615   1.163   1.949 -0.3650 -0.3814  0.1813
    1W        W40837  13.712  22.106   7.846  0.2234  0.1246  0.1514
    1W        W40838  11.572  11.713   8.280 -0.3509 -0.0430 -0.0684
    1W        W40839  28.676  11.297   8.873  0.3583  0.1988 -0.0568
    1W        W40840  25.852   5.994   8.736 -0.2906  0.0533 -0.0155
    1W        W40841  16.398  19.090   0.909 -0.0587 -0.3609  0.1447
    1W        W40842  10.906  27.486   1.828 -0.2500 -0.1437 -0.1233
    1W        W40843   3.273  23.347   9.627  0.0635 -0.0801  0.1601
    1W        W40844  27.116  23.355   0.145 -0.1696 -0.3353 -0.1269
    1W        W40845  24.949  24.933   3.477  0.0742  0.1819  0.3140
    1W        W40846   1.075   0.745   9.176  0.2293 -0.0091 -0.1381
    1W        W40847  17.670  28.710   7.804  0.3215 -0.0476 -0.2050
    1W        W40848   0.215  14.794   7.330  0.2911  0.0795  0.4055
    1W        W40849   7.777  26.781   5.482 -0.2884  0.0042  0.0310
    1W        W40850  19.346  23.644   9.519 -0.3792  0.1180 -0.0206
    1W        W40851  11.236  18.565   9.296 -0.0938  0.1177 -0.2534
    1W        W40852   4.239  12.323   7.712 -0.0085 -0.1707 -0.0653
    1W        W40853   9.619   5.510   0.244  0.1161  0.2152  0.0255
    1W        W40854  12.638  27.048   9.174  0.1583 -0.1259 -0.2467
    1W        W40855   4.564   3.771   0.314  0.0451  0.0269  0.0879
    1W        W40856  20.802  21.222   0.426 -0.3197  0.0557  0.0434
    1W        W40857   5.428  19.159   2.575  0.1198  0.2618 -0.2147
    1W        W40858  21.295  26.259   0.126  0.0846  0.1778  0.1344
    1W        W40859  25.899  13.173   9.587 -0.0558 -0.3237  0.2676
    1W        W40860   5.913  13.257   1.716 -0.1214  0.1170  0.0572
    1W        W40861  16.642   8.188   1.308 -0.1565  0.1848  0.3345
    1W        W40862  16.977   5.937   1.428 -0.0252  0.1810 -0.1569
    1W        W40863  18.666  10.197   9.117  0.1470  0.0568 -0.1748
    1W        W40864  19.429   0.666   7.655  0.0185 -0.3179  0.2336
    1W        W40865  17.830  18.480   0.636  0.0069  0.1069 -0.0640
    1W        W40866  16.170   7.893   0.408 -0.0255 -0.2981  0.1009
    1W        W40867  23.142   4.115   1.419 -0.0437 -0.0179 -0.3237
    1W        W40868  21.692  29.103   7.284  0.0418  0.0663 -0.3415
    1W        W40869  10.210  17.788   2.420 -0.1516 -0.1870  0.0265
    1W        W40870  19.014   4.790   8.366  0.2015  0.0555 -0.3023
    1W        W40871  20.033   6.682   9.293  0.0689 -0.0567 -0.0360
    1W        W40872  13.643   2.667   0.032  0.3101 -0.1440 -0.1338
    1W        W40873   0.725  27.987   1.769 -0.2727 -0.0052 -0.1182
    1W        W40874   3.285  23.515   8.169 -0.1157 -0.0145  0.3657
    1W        W40875  12.067   6.509   2.167 -0.0553  0.0740  0.0409
    1W        W40876   0.027  16.996   8.262  0.2086  0.1520 -0.1279
    1W        W40877  25.763  17.272   9.338  0.2239 -0.0441  0.4245
    1W        W40878  27.421   6.899   9.228 -0.1244 -0.1074 -0.0901
    1W        W40879  19.563  15.538   9.165  0.0118 -0.0876  0.0822
    1W        W40880  18.131  13.997   2.227 -0.3423 -0.4875  0.2263
    1W        W40881  10.289   3.696   1.736  0.0889 -0.3416 -0.2206
    1W        W40882  11.940   0.574   8.946  0.3332  0.1675  0.0729
    1W        W40883  22.145   3.166   9.252  0.1856  0.1234  0.1785
    1W        W40884  19.995   0.651   1.599 -0.3012 -0.0332 -0.0011
    1W        W40885  17.343  11.027   1.698  0.0903  0.0249  0.1556
    1W        W40886  12.917  11.735   0.127 -0.0136  0.0101  0.0326
    1W        W40887   8.065  14.146   6.739 -0.0647 -0.2752 -0.1474
    1W        W40888  20.949   0.326   1.618  0.0986  0.2341  0.0504
    1W        W40889   0.597  15.248   9.400  0.1214  0.1010  0.0847
    1W        W40890  11.694  24.550   8.689  0.0987 -0.0372 -0.1494
    1W        W40891   7.007   3.577   8.397  0.1170 -0.1316 -0.2825
    1W        W40892  26.682   7.523   1.443 -0.6256 -0.2219 -0.2389
    1W        W40893   3.550  24.729   2.243  0.3365  0.2181  0.0132
    1W        W40894  24.611  27.665   1.782 -0.1594 -0.0871 -0.2896
    1W        W40895  12.793   8.033   9.027  0.2646  0.0528  0.1964
    1W        W40896  23.564  29.621   2.188 -0.0024  0.1633  0.3037
    1W        W40897   5.846  22.215   2.391  0.0899  0.0362  0.0010
    1W        W40898  13.807   5.056   7.692 -0.0823 -0.0594  0.1829
    1W        W40899  24.677  26.737   2.351 -0.0945  0.1292 -0.3523
    1W        W40900  26.993  29.136   3.807 -0.1882  0.1981 -0.2169
    1W        W40901  19.404  12.976   9.542  0.1567 -0.3143  0.0586
    1W        W40902  24.215  14.622   7.342  0.0883  0.2071 -0.5278
    1W        W40903   7.342   2.886   6.428 -0.1311 -0.1862 -0.1867
    1W        W40904  25.023  17.665   7.803  0.0945 -0.1390 -0.1438
    1W        W40905  23.235  23.318   1.532  0.0083  0.0494  0.0950
    1W        W40906  22.750  17.249   0.279  0.2869 -0.3041 -0.1457
    1W        W40907   3.524   2.112   1.540 -0.1652  0.0031 -0.1249
    1W        W40908   9.520   9.714   8.479 -0.0902  0.2021  0.1699
    1W        W40909   6.010  20.834   7.196  0.0396  0.1181 -0.0314
    1W        W40910  25.168  21.631   1.116  0.1485  0.1216 -0.1087
    1W        W40911  25.554  18.173   2.531 -0.3011  0.2991 -0.1799
    1W        W40912   1.363   1.590   2.698 -0.3201 -0.3069 -0.0829
    1W        W40913  27.521   2.404   9.101 -0.0327  0.1446  0.3782
    1W        W40914  16.443  11.905   7.690 -0.1251  0.0074  0.0336
    1W        W40915   9.233  12.543   7.283  0.0557 -0.1103 -0.0736
    1W        W40916  23.631  17.935   2.581  0.0376  0.1017 -0.0872
    1W        W40917   9.836  19.341   2.695  0.1649  0.1315 -0.1529
    1W        W40918   1.654  10.453   5.872  0.0761  0.1213  0.3796
    1W        W40919   2.795   0.244   8.645  0.3766  0.0613  0.0140
    1W        W40920  16.961   1.602   0.816 -0.1450  0.0154  0.1712
    1W        W40921   2.791  15.351   7.986 -0.0172 -0.3182 -0.2276
    1W        W40922   1.420  25.670   8.300 -0.4136  0.0621  0.0500
    1W        W40923  15.412  19.797   9.552  0.2108  0.3821 -0.2899
    1W        W40924  15.614  27.477   0.539  0.3719 -0.2544 -0.1887
    1W        W40925  19.247  10.661   2.128  0.2802  0.1425  0.0909
    1W        W40926   2.477  13.871   9.274  0.3482  0.1739 -0.0375
    1W        W40927  13.580  21.085   0.681 -0.0171 -0.2438 -0.0468
    1W        W40928  23.249  17.831   2.255  0.1252  0.1566  0.0042
    1W        W40929   1.432  16.662   2.743 -0.1619  0.3001 -0.0503
    1W        W40930  16.180  26.317   0.258  0.1383 -0.0688 -0.2742
    1W        W40931   6.500   4.974   2.335 -0.0969  0.1116 -0.1161
    1W        W40932   3.071   4.565   7.510  0.0412  0.0873  0.1786
    1W        W40933   2.380   6.007   1.771  0.4167 -0.1456  0.0131
    1W        W40934  25.925   1.861   2.012 -0.2040 -0.0162  0.2153
    1W        W40935   5.024  28.896   2.195  0.0692 -0.0228 -0.1192
    1W        W40936   9.472  28.999   8.407 -0.1393 -0.2486  0.1061
    1W        W40937  14.282  12.714   8.779  0.2495  0.0938  0.0620
    1W        W40938  20.347  19.219   9.335 -0.2428  0.1534  0.2523
    1W        W40939  24.416   0.925   8.857 -0.2017  0.1943 -0.0866
    1W        W40940  26.308  21.051   8.117  0.3102  0.1175  0.1537
    1W        W40941  26.987   6.024   6.753 -0.3368  0.0799  0.0638
    1W        W40942  26.985  16.601   8.898 -0.1190  0.0489  0.1311
    1W        W40943  10.250  16.454   1.382 -0.0777  0.0223  0.2228
    1W        W40944   4.526  18.334   2.151  0.1520  0.0304  0.0867
    1W        W40945  20.764   6.616   0.387 -0.0009  0.0333 -0.0192
    1W        W40946  23.581   7.254   7.700  0.2452  0.1388 -0.1318
    1W        W40947  11.941   1.919   2.959 -0.2689 -0.3735  0.2025
    1W        W40948   7.370  16.365   6.359 -0.1531 -0.0848  0.0343
    1W        W40949   5.339   3.778   6.846  0.1521 -0.2632 -0.2888
    1W        W40950   4.710  27.408   6.467  0.3267 -0.1199 -0.0210
    1W        W40951  12.341  28.862   9.444 -0.0158  0.4304 -0.1602
    1W        W40952  21.727  20.959   8.532 -0.0890  0.1184  0.2117
    1W        W40953   3.972  29.585   7.690 -0.0338  0.0431  0.0168
    1W        W40954  21.009   2.195   7.686 -0.2374  0.1035 -0.0150
    1W        W40955  26.584  13.746   1.651 -0.3842  0.0477  0.2543
    1W        W40956  25.503  18.647   0.031  0.2815  0.1630  0.0744
    1W        W40957  12.848  12.870   2.193  0.1917 -0.0553  0.2581
    1W        W40958  28.051  13.825   1.301  0.0657 -0.1817 -0.0917
    1W        W40959  25.758  18.398   8.379  0.0935 -0.2122  0.0978
    1W        W40960   4.830  28.367   2.048  0.2422 -0.0262  0.0588
    1W        W40961  22.867   6.324   2.005 -0.0446  0.1774  0.1102
    1W        W40962  23.128   9.750   0.088  0.1124 -0.0281 -0.2366
    1W        W40963  19.001  15.415   9.265 -0.1883 -0.0737 -0.0977
    1W        W40964  26.437  21.779   0.261 -0.1116  0.3287  0.0324
    1W        W40965  27.184  13.742   2.381  0.1398 -0.1516 -0.4050
    1W        W40966  21.764  10.425   7.154  0.3913 -0.4077 -0.0042
    1W        W40967   0.903  17.952   7.142  0.1543 -0.1539 -0.0147
    1W        W40968   7.385   9.068   6.049 -0.1756  0.1897  0.2213
    1W        W40969   2.041  21.032   9.511  0.2146  0.1979 -0.5011
    1W        W40970   2.742  19.765   2.743  0.1214  0.1116 -0.2887
    1W        W40971   6.917   0.635   9.135 -0.1083  0.0779 -0.0675
    1W        W40972   6.352  25.337   2.733 -0.0975  0.1078 -0.1563
    1W        W40973  26.949  26.227   1.640 -0.0641 -0.0317  0.1549
    1W        W40974  10.484  12.485   0.338 -0.1046  0.1987  0.1064
    1W        W40975   6.193   8.607   6.333 -0.2951  0.0310  0.1590
    1W        W40976  26.376   6.684   1.295 -0.3720  0.2221 -0.1637
    1W        W40977   1.327  24.732   2.696  0.1196 -0.1780  0.0889
    1W        W40978  28.715   2.044   1.299  0.2591 -0.3501  0.3893
    1W        W40979   8.628   8.257   6.288 -0.4244  0.1670 -0.2913
    1W        W40980   7.132  16.383   6.880 -0.1847  0.1008 -0.2032
    1W        W40981  27.348  19.440   3.145  0.2658  0.1791  0.1191
    1W        W40982  26.717  17.936   2.767 -0.1225 -0.2557  0.0498
    1W        W40983   4.530   5.735   1.376  0.1220  0.0597  0.1262
    1W        W40984  17.584  17.026   0.190  0.0562  0.0419 -0.2220
    1W        W40985  11.059   6.954   7.591 -0.2459 -0.0874 -0.1662
    1W        W40986   0.883  15.628   9.260  0.1383  0.1970  0.1611
    1W        W40987  10.760  18.456   9.159  0.1998  0.0764 -0.1564
    1W        W40988  21.026   5.220   2.228  0.1541 -0.1991  0.1825
    1W        W40989   1.471  11.096   8.658  0.1104 -0.0584  0.0550
    1W        W40990  11.327  12.078   9.094 -0.1185  0.0907 -0.0238
    1W        W40991   8.972  15.188   9.400 -0.0722 -0.1047  0.2325
    1W        W40992  23.883  16.263   8.351 -0.3356  0.0456  0.0439
    1W        W40993  20.320   5.368   7.977  0.2487  0.0349 -0.1619
    1W        W40994  12.525   0.184   8.798 -0.0053  0.1502 -0.0146
    1W        W40995  28.686   0.303   3.118 -0.1194 -0.1391  0.1478
    1W        W40996  25.798  14.235   0.297  0.0121 -0.1055 -0.5210
    1W        W40997   9.247  28.414   9.013  0.1754  0.0137  0.2080
    1W        W40998  17.072  16.087   2.999 -0.1811 -0.0733  0.0620
    1W        W40999  22.451   0.636   7.577 -0.2987  0.0194  0.0430
    1W        W41000  11.702  27.413   1.146 -0.1311 -0.3090 -0.1933
    1W        W41001  18.278   6.802   0.242 -0.3385 -0.0178  0.1603
    1W        W41002  24.394  29.176   1.937  0.1840 -0.0939 -0.0649
    1W        W41003  27.304  28.598   7.712 -0.0901  0.0174 -0.1304
    1W        W41004  15.159  19.509   7.598 -0.1897 -0.0216  0.4681
    1W        W41005  21.667  20.834   6.782 -0.0064 -0.1728 -0.2585
    1W        W41006  14.705  27.871   8.416 -0.0907  0.3223  0.3138
    1W        W41007  16.497  15.023   1.248 -0.1737  0.2635 -0.0411
    1W        W41008  10.669   8.306   0.995 -0.0631  0.1196  0.0567
    1W        W41009   2.787  22.862   8.621  0.0773 -0.1786  0.1388
    1W        W41010  16.344  12.395   1.608  0.3870 -0.1341  0.0841
    1W        W41011   5.937  23.211   8.266  0.1083 -0.0501 -0.1135
    1W        W41012   9.428  20.077   7.649  0.3469  0.1779  0.0474
    1W        W41013  11.155  17.715   0.123 -0.1357 -0.1184 -0.1654
    1W        W41014  20.913   1.391   0.165 -0.1842  0.1247 -0.0400
    1W        W41015  15.314  14.594   9.633 -0.1109  0.1624 -0.1142
    1W        W41016  21.590  26.072   3.389  0.2381 -0.0236  0.0285
    1W        W41017   5.989  20.380   0.514 -0.0041 -0.3033  0.1438
    1W        W41018  26.824   1.348   7.181  0.2182 -0.3016 -0.0589
    1W        W41019  20.276  26.925   7.917 -0.0179 -0.0931 -0.1502
    1W        W41020  17.815   9.192   0.632  0.2293 -0.0318 -0.1169
    1W        W41021   6.592  24.737   8.657 -0.1593  0.2406 -0.0325
    1W        W41022  19.005   5.647   7.322 -0.3140  0.4530  0.2793
    1W        W41023  14.986  21.436   7.812  0.0007 -0.0717  0.3992
    1W        W41024  14.558   0.508   6.531  0.2165  0.1856 -0.1988
    1W        W41025  26.584  23.886   1.949 -0.1091 -0.0799 -0.0622
    1W        W41026   5.162  26.147   0.398  0.1446 -0.0335  0.2535
    1W        W41027   6.633   0.111   1.557 -0.1380 -0.1867 -0.0350
    1W        W41028   1.213   5.239   1.022  0.2370  0.0002  0.0668
    1W        W41029  13.701  10.939   8.385 -0.2744 -0.3428  0.1618
    1W        W41030  18.722  13.673   9.433  0.1509  0.2070 -0.0019
    1W        W41031   4.959   2.397   1.461  0.0720  0.1102 -0.4121
    1W        W41032  14.235   2.956   2.719 -0.0488  0.0120  0.0738
    1W        W41033  13.834  22.632   7.906  0.0675  0.1634 -0.1894
    1W        W41034  12.306  16.011   8.618 -0.0795  0.3449 -0.0881
    1W        W41035  14.292   0.677   8.009  0.0001  0.3733  0.1198
    1W        W41036  19.201  11.156   2.248  0.0295 -0.1224  0.0920
    1W        W41037   3.543  16.241   0.636  0.1816 -0.2031  0.2123
    1W        W41038   3.571   3.572   8.226  0.2382  0.3180 -0.0008
    1W        W41039  27.225   1.476   1.276  0.1655 -0.1001  0.0072
    1W        W41040   7.278  22.639   0.882  0.3386 -0.3409  0.1960
    1W        W41041  25.080  15.876   1.957  0.2245 -0.3064 -0.1619
    1W        W41042  24.302   5.174   8.131 -0.0215 -0.1442 -0.2461
    1W        W41043  12.862   8.942   0.622  0.1224 -0.1204 -0.0580
    1W        W41044  25.526  18.745   8.012 -0.0129  0.3569  0.3147
    1W        W41045   3.177   2.031   6.633  0.2858 -0.1144  0.1994
    1W        W41046   7.337   1.763   0.293 -0.0081 -0.2128 -0.1473
    1W        W41047  25.453   3.455   8.079 -0.0076 -0.0155  0.0807
    1W        W41048  26.758   7.965   7.633  0.1192  0.1363 -0.1791
    1W        W41049  19.859  27.230   2.793 -0.0077 -0.0835  0.0912
    1W        W41050   7.421  23.448   1.039  0.0906 -0.2023 -0.1349
    1W        W41051  22.199  11.714   2.149  0.0867  0.1274 -0.1759
    1W        W41052  15.505  11.100   8.602  0.2594  0.0942 -0.1743
    1W        W41053  23.794  26.689   1.025 -0.3910  0.3250  0.0948
    1W        W41054  25.223  14.973   2.075 -0.0324 -0.0689  0.1864
    1W        W41055  10.825  26.300   9.240 -0.3638 -0.1016  0.1013
    1W        W41056   4.247   9.406   9.562 -0.2071 -0.1960  0.0532
    1W        W41057  20.002  26.933   1.628  0.0574 -0.1192  0.0583
    1W        W41058   5.309  15.639   9.529  0.1999 -0.0874  0.0495
    1W        W41059  28.918   4.887   7.322  0.0786 -0.0587  0.0196
    1W        W41060  15.990  29.523   9.119  0.4601 -0.4258  0.1266
    1W        W41061   8.514  18.300   7.587  0.1194  0.0902  0.1160
    1W        W41062   9.024  18.754   6.609  0.1930  0.2054 -0.0242
    1W        W41063  25.654  13.828   1.743  0.1000  0.3006  0.1485
    1W        W41064  24.718  20.262   3.667 -0.0376 -0.1199  0.2187
    1W        W41065   8.548  27.143   5.727  0.1268  0.1662  0.3280
    1W        W41066  28.528  11.940   1.935 -0.2485  0.1153 -0.1451
    1W        W41067  24.469  25.282   2.628 -0.0597 -0.1146 -0.0021
    1W        W41068  20.217  26.224   0.462 -0.1034 -0.3379 -0.0563
    1W        W41069  26.441  29.253   3.959  0.0330  0.0695  0.1492
    1W        W41070  16.041   2.269   7.365 -0.0439  0.1555  0.1025
    1W        W41071   5.901  13.247   6.149  0.1399  0.0598  0.4121
    1W        W41072  12.956  26.790   2.383 -0.0162 -0.0472 -0.4226
    1W        W41073   4.029  24.250   1.725 -0.0437 -0.0246 -0.2177
    1W        W41074   6.449   2.177   7.683  0.0027  0.2975  0.1943
    1W        W41075  15.644  13.149   8.913  0.1784  0.3441  0.2213
    1W        W41076  28.144  18.951   7.783  0.2417 -0.1111 -0.2074
    1W        W41077  17.353  20.166   8.465 -0.1003  0.1918 -0.1140
    1W        W41078   8.479   3.341   1.967  0.0178  0.2697 -0.0115
    1W        W41079   0.838   7.320   0.149  0.0241  0.0730  0.3025
    1W        W41080  22.469  13.108   3.294  0.1104 -0.3642  0.1412
    1W        W41081  18.255  11.768   8.566 -0.1077 -0.0934  0.2302
    1W        W41082  28.562  25.873   6.929 -0.1049 -0.1464 -0.0398
    1W        W41083  11.395  28.679   0.172  0.0766 -0.5142  0.0896
    1W        W41084  10.327  12.925   6.658  0.1151  0.0370 -0.0331
    1W        W41085   5.100  11.850   6.123 -0.1407 -0.1061  0.1149
    1W        W41086  25.410   9.787   9.481  0.1560 -0.2296  0.2660
    1W        W41087   0.516  28.524   1.050 -0.1674 -0.0912  0.0901
    1W        W41088  23.095   3.183   7.526 -0.2544  0.1741  0.1735
    1W        W41089  16.444  26.622   8.113 -0.0080 -0.4646 -0.3415
    1W        W41090  23.275   8.178   8.512  0.3031  0.0181 -0.3517
    1W        W41091  12.736  12.608   1.493 -0.3263 -0.0123 -0.1347
    1W        W41092  25.797  25.862   8.025  0.0559  0.1360  0.2826
    1W        W41093   4.447  11.796   0.867  0.0592  0.1320  0.1067
    1W        W41094   2.529  15.785   2.422  0.2296  0.1160  0.1219
    1W        W41095   6.285   6.940   9.578 -0.2788  0.0252  0.0706
    1W        W41096   0.398  28.110   2.416 -0.1493  0.0952  0.2286
    1W        W41097   1.625   4.137   2.833  0.0570  0.1341  0.0337
    1W        W41098   8.086  20.604   0.632 -0.0431 -0.1132  0.0076
    1W        W41099   4.448  25.365   7.460 -0.3866 -0.0216  0.0832
    1W        W41100   3.717  29.440   8.932  0.0525 -0.3323  0.0358
    1W        W41101  15.033  26.024   1.208 -0.1222  0.0011 -0.0338
    1W        W41102  13.571  12.340   2.697  0.1517  0.1289 -0.2029
    1W        W41103  17.337  17.405   9.451  0.2075 -0.0623  0.2194
    1W        W41104   2.998  25.602   8.943  0.4178  0.0650  0.1586
    1W        W41105  21.327  20.795   9.383 -0.0983  0.0325 -0.1239
    1W        W41106   2.947  12.335   0.983 -0.3813 -0.1559  0.2178
    1W        W41107   0.113  16.802   0.298 -0.0065  0.1851 -0.0497
    1W        W41108  29.549  23.402   7.165 -0.0454 -0.3171 -0.0767
    1W        W41109  14.310  28.230   2.913  0.2406 -0.2154  0.0425
    1W        W41110  14.558  28.949   6.987  0.2319 -0.0373 -0.3733
    1W        W41111  26.681   2.713   8.377 -0.0303  0.2164 -0.1215
    1W        W41112  27.139  10.551   0.882 -0.0435 -0.2111 -0.0485
    1W        W41113  11.455   5.596   5.686 -0.0274  0.4945  0.3049
    1W        W41114   8.969  14.222   1.806  0.1108  0.2582 -0.0659
    1W        W41115  12.533   0.224   8.224 -0.2987 -0.0085  0.0136
    1W        W41116  26.630   4.799   1.593 -0.1421 -0.1530  0.1870
    1W        W41117  24.913   7.705   8.627 -0.1449 -0.1873 -0.2080
    1W        W41118  20.646  18.178   9.251 -0.1162 -0.1683 -0.1509
    1W        W41119   6.626   6.593   1.095 -0.4385  0.0532 -0.1214
    1W        W41120  28.928  11.781   8.055 -0.1338  0.0263  0.2234
    1W        W41121  25.376  20.386   2.087 -0.3268  0.4356 -0.1836
    1W        W41122  27.217  24.137   2.959  0.1021 -0.2414 -0.0186
    1W        W41123   5.713   0.919   2.241 -0.2685 -0.0964 -0.2201
    1W        W41124  18.400  21.587   0.968  0.0613 -0.1242 -0.0120
    1W        W41125  18.141  13.010   8.696  0.1566 -0.0298  0.0606
    1W        W41126  14.455  19.146   0.211 -0.1956  0.4228 -0.0176
    1W        W41127  11.795   1.253   1.865  0.1045 -0.1178 -0.1683
    1W        W41128  20.369  26.202   8.594  0.1435  0.0575  0.1177
    1W        W41129   2.002   8.815   8.771  0.4203  0.2491 -0.1850
    1W        W41130   7.121  16.390   1.159 -0.1151  0.0389 -0.0143
    1W        W41131  15.016  11.353   9.400 -0.3584 -0.1317 -0.0593
    1W        W41132  12.352  12.451   0.679  0.2694  0.2091  0.1708
    1W        W41133   7.022  21.865   1.877  0.3528  0.0187  0.0221
    1W        W41134  27.817  27.475   8.421  0.0517 -0.3268 -0.0150
    1W        W41135  17.280   2.256   8.660 -0.0053 -0.2549 -0.0851
    1W        W41136   1.546  21.987   7.653  0.3030  0.0684 -0.0909
    1W        W41137  12.465   5.288   6.482 -0.3073  0.0057 -0.0277
    1W        W41138   6.843  22.945   9.372  0.2761  0.0834 -0.1123
    1W        W41139   2.701  18.343   8.909 -0.0942  0.2108 -0.1263
    1W        W41140   1.922   9.530   9.181 -0.0825 -0.0542  0.0473
    1W        W41141  14.653   9.856   8.409 -0.1763 -0.0061 -0.0819
    1W        W41142   3.218  16.069   1.579 -0.1732 -0.3881 -0.0488
    1W        W41143  13.804  23.350   7.045  0.1780  0.0345  0.0417
    1W        W41144  17.669  20.671   1.924  0.0615 -0.3352  0.0812
    1W        W41145   4.981  25.098   1.781  0.0352 -0.1453  0.1575
    1W        W41146  18.661   0.100   2.029  0.1724  0.1215 -0.1652
    1W        W41147  23.048  23.860   3.543  0.2654 -0.0045 -0.1121
    1W        W41148  12.389  21.728   1.652  0.2194  0.0912 -0.0642
    1W        W41149   2.905  25.899   7.927 -0.1889  0.0946  0.5015
    1W        W41150  22.896  11.736   1.664 -0.1568 -0.1433 -0.0529
    1W        W41151  27.545  23.125   8.580  0.4564  0.0666 -0.0082
    1W        W41152  24.707   8.503   0.410  0.2483  0.0150 -0.0525
    1W        W41153   5.830   2.606   0.409  0.1392 -0.0375  0.1829
    1W        W41154   6.198  17.675   7.726 -0.2549 -0.2482 -0.0574
    1W        W41155  25.955  28.897   9.190 -0.1725 -0.3705 -0.0981
    1W        W41156  24.828  25.152   8.270 -0.0543 -0.0428  0.1023
    1W        W41157  15.043   7.444   8.153  0.2860  0.0722  0.0194
    1W        W41158  10.796  29.133   8.765 -0.2238 -0.0797 -0.4304
    1W        W41159  21.463   3.774   9.293 -0.0647  0.1231  0.0352
    1W        W41160  12.502  17.341   7.476  0.1370 -0.3173  0.0909
    1W        W41161   5.773   7.703   8.040 -0.0928 -0.0598  0.2367
    1W        W41162  27.679  23.698   7.088  0.1697  0.2137 -0.1275
    1W        W41163   7.829  10.083   1.902 -0.0627  0.2778  0.3189
    1W        W41164  25.498   0.756   8.083  0.0405 -0.1095  0.1319
    1W        W41165  24.349  16.537   3.084  0.0966 -0.1510 -0.1113
    1W        W41166  16.574  22.579   0.619 -0.0278 -0.2898  0.0590
    1W        W41167  21.552  21.906   9.360  0.2174  0.0896 -0.3089
    1W        W41168  25.809   2.001   8.655 -0.0049  0.1680  0.1736
    1W        W41169   5.793  18.087   8.676  0.1068  0.0810  0.1141
    1W        W41170   8.357   1.381   6.721 -0.0446 -0.1150 -0.0464
    1W        W41171  20.675  15.733   8.272 -0.1268 -0.1529 -0.1693
    1W        W41172  27.259   3.549   7.705  0.1402 -0.0226  0.3103
    1W        W41173  17.212   4.953   1.221 -0.1385  0.1545  0.1669
    1W        W41174   1.404  20.640   2.875 -0.0344 -0.0529 -0.0562
    1W        W41175  24.806  12.793   8.003  0.3507  0.3073  0.2184
    1W        W41176  28.148   4.592   7.090  0.0928 -0.0526  0.0511
    1W        W41177  23.249   4.752   0.809 -0.0878  0.2423 -0.0682
    1W        W41178  20.695  10.424   1.912  0.4531  0.1822  0.2752
    1W        W41179   8.365  13.743   1.610  0.3449  0.1152 -0.2167
    1W        W41180  16.531   6.065   8.204 -0.3211 -0.1751 -0.1662
    1W        W41181  21.045  11.815   7.559  0.0407  0.2301  0.0348
    1W        W41182  22.867  14.692   8.600  0.1168  0.0645 -0.0055
    1W        W41183  23.253  22.574   6.997 -0.2646  0.0697  0.2580
    1W        W41184   7.511  26.375   9.425 -0.2452 -0.1063 -0.2111
    1W        W41185  18.882   0.102   3.077  0.0904  0.2414  0.2295
    1W        W41186  12.960  28.419   7.466 -0.0660 -0.0354  0.2512
    1W        W41187   0.485  21.497   3.065  0.4472  0.0460 -0.4128
    1W        W41188  27.915  13.822   1.928 -0.6252  0.2461 -0.1217
    1W        W41189  13.549  28.785   1.862 -0.3752  0.0750  0.2123
    1W        W41190  20.854  24.431   1.016  0.1304 -0.2075 -0.3333
    1W        W41191  12.609  20.288   8.956 -0.1611 -0.0407  0.1699
    1W        W41192  28.856   9.653   7.718 -0.0837 -0.5283 -0.0347
    1W        W41193  23.275   7.541   8.297  0.0232  0.1369  0.3388
    1W        W41194  10.538  29.179   7.741  0.3031  0.0094  0.0792
    1W        W41195   2.252  25.086   1.676  0.0139 -0.0890 -0.1502
    1W        W41196  18.251   6.699   8.748 -0.4240 -0.2187  0.0663
    1W        W41197  19.603  14.437   7.477  0.1293 -0.3381 -0.0284
    1W        W41198  13.391  12.971   9.302  0.2713 -0.0395  0.3973
    1W        W41199   3.270  20.600   1.236  0.1434 -0.0254 -0.1454
    1W        W41200  18.633   5.485   1.455  0.2307  0.1835 -0.0385
    1W        W41201  21.011  18.635   8.399  0.0628  0.0328  0.0287
    1W        W41202  13.988   3.099   6.530  0.0782 -0.1271 -0.0927
    1W        W41203  26.073  18.366   8.768 -0.1628  0.3640  0.0575
    1W        W41204  17.796   2.757   2.516 -0.0420 -0.2034 -0.1252
    1W        W41205  12.823   3.132   6.036 -0.0503 -0.1447 -0.0421
    1W        W41206  10.804  27.359   7.896  0.0741  0.0250  0.1763
    1W        W41207  11.421  23.650   0.356  0.0901 -0.0445  0.0520
    1W        W41208  26.907   7.888   8.453  0.1931  0.1911  0.0978
    1W        W41209  23.830   8.593   9.562  0.0931 -0.1696  0.1808
    1W        W41210  20.759   6.511   8.124 -0.2084 -0.0823 -0.3935
    1W        W41211  14.581  12.145   7.076  0.0128 -0.2409  0.0584
    1W        W41212   0.200  25.177   0.785 -0.2560 -0.1701 -0.0883
    1W        W41213  12.652   7.701   7.174 -0.2830  0.1880  0.0687
    1W        W41214  16.248   2.253   8.424 -0.0614  0.0009  0.0307
    1W        W41215  10.819  24.342   3.076 -0.0325 -0.0923 -0.1037
    1W        W41216   1.936  25.037   1.194  0.0973  0.3191 -0.1487
    1W        W41217  14.617  11.170   7.155 -0.1767  0.2815  0.5367
    1W        W41218   2.209  20.956   2.873  0.3662 -0.0022 -0.1462
    1W        W41219  25.285   0.367   1.654  0.0292 -0.2638 -0.1160
    1W        W41220  13.254   6.960   6.061  0.0237 -0.0491  0.2632
    1W        W41221  13.495   5.844   9.096 -0.3529  0.0233  0.3679
    1W        W41222  24.025  21.416   2.857 -0.4688  0.0873 -0.2412
    1W        W41223  25.372   0.326   3.931 -0.2035 -0.0022  0.0471
    1W        W41224   6.266  21.245   6.895 -0.2869  0.3173 -0.4334
    1W        W41225  12.919  27.833   7.515  0.0242  0.2249 -0.0772
    1W        W41226  28.704   0.476   7.247  0.1977  0.0103  0.2689
    1W        W41227   9.128  26.576   0.166 -0.0511  0.0644 -0.0679
    1W        W41228  22.049  18.228   2.879 -0.0533 -0.0511  0.3436
    1W        W41229  28.866   8.594   1.095 -0.0035 -0.0092 -0.1539
    1W        W41230   9.753   3.387   9.113 -0.1236 -0.1122  0.1317
    1W        W41231  28.933  22.706   2.118  0.2543 -0.0732 -0.0270
    1W        W41232  16.556  12.563   8.700 -0.0880  0.2432 -0.2525
    1W        W41233  13.238   5.016   0.146 -0.0462 -0.2682 -0.3952
    1W        W41234  22.016  29.158   8.543 -0.0924  0.2296 -0.0225
    1W        W41235  23.808  23.043   2.231 -0.1870 -0.0995  0.1837
    1W        W41236  26.650  21.440   1.773 -0.2100 -0.0237 -0.3045
    1W        W41237   4.982   6.845   0.153  0.0110  0.4115  0.1868
    1W        W41238  19.824  13.905   8.791 -0.0029  0.0335  0.2441
    1W        W41239  15.332  27.767   1.891  0.0229 -0.2036 -0.1538
    1W        W41240  10.485  21.621   1.662 -0.0996  0.1962 -0.0773
    1W        W41241  11.807   5.597   2.516  0.1537 -0.0699  0.0650
    1W        W41242   9.113  14.977   7.237  0.1859 -0.2740 -0.1230
    1W        W41243   5.357  14.395   5.828 -0.0714 -0.1639  0.1373
    1W        W41244   1.182   8.250   6.459 -0.0460  0.0629 -0.2304
    1W        W41245  15.551  18.451   8.719  0.1311 -0.4063 -0.0684
    1W        W41246   5.024   1.873   1.611  0.2333  0.0539 -0.1644
    1W        W41247   7.976   7.851   1.292 -0.1443  0.1675  0.0955
    1W        W41248   0.467   2.584   0.608  0.1051  0.2612  0.1750
    1W        W41249  25.029   0.914   2.641  0.0212 -0.0119 -0.0227
    1W        W41250   8.011   4.390   9.611  0.0934 -0.1111 -0.1043
    1W        W41251  22.335  14.070   2.313 -0.2049 -0.1324  0.0033
    1W        W41252  26.437   9.439   1.314  0.1217 -0.0350 -0.2051
    1W        W41253  26.075  16.092   0.123  0.0726  0.1788 -0.2311
    1W        W41254   7.561  23.157   8.750 -0.0836 -0.1426  0.1461
    1W        W41255  25.437   1.263   1.454 -0.2915  0.0161  0.1054
    1W        W41256  24.013   7.900   8.863  0.0001  0.1857  0.0270
    1W        W41257  25.073   2.857   6.892 -0.1175  0.0470  0.0633
    1W        W41258   9.859   0.988   7.613  0.0766  0.0813  0.3522
    1W        W41259  10.138  28.817   7.529 -0.2470 -0.0723  0.0812
    1W        W41260  24.042  25.888   1.477  0.2266  0.0653  0.0502
    1W        W41261  10.281  18.692   0.033 -0.1178 -0.1318  0.0010
    1W        W41262  28.834  16.895   8.822 -0.0563 -0.1737  0.4280
    1W        W41263   3.872  13.976   8.450  0.0065 -0.0359 -0.0321
    1W        W41264   4.959  16.223   7.096  0.0316  0.1458 -0.1363
    1W        W41265  13.318   7.340   7.583 -0.1604 -0.0636  0.0242
    1W        W41266   1.567  21.841   0.742 -0.2097 -0.2491 -0.3099
    1W        W41267  20.365   6.903   1.303  0.1150 -0.0585  0.0856
    1W        W41268  27.890   6.010   8.428  0.0012 -0.1018 -0.1643
    1W        W41269  18.384  18.618   8.559  0.3232  0.1303 -0.3757
    1W        W41270   3.530   6.622   9.321 -0.0069  0.2420 -0.1529
    1W        W41271   4.462  16.800   7.358  0.0851  0.0833  0.0337
    1W        W41272  11.166  11.195   1.504  0.3002 -0.0051 -0.1194
    1W        W41273   9.152  17.046   0.083  0.2016  0.1328 -0.2270
    1W        W41274  16.912  16.664   8.829  0.2006  0.0635  0.0822
    1W        W41275  11.705   9.930   1.797 -0.2247 -0.2774  0.0135
    1W        W41276  16.857   9.512   8.653  0.0932 -0.2344 -0.0658
    1W        W41277   1.473   2.591   6.566  0.2561  0.2109 -0.2287
    1W        W41278   3.979   3.230   1.507  0.1101 -0.3460 -0.2250
    1W        W41279  10.037   3.701   6.738  0.2574 -0.0509  0.1301
    1W        W41280  14.116   5.452   9.557  0.1330  0.0528 -0.3736
    1W        W41281  27.973  21.444   1.821  0.0719  0.0914  0.2022
    1W        W41282   7.738  21.560   0.125 -0.0243 -0.1262  0.1275
    1W        W41283   6.054  26.402   0.634  0.2826  0.0604 -0.3061
    1W        W41284   7.299  19.227   0.622  0.1138 -0.1020 -0.2248
    1W        W41285  24.279  27.889   2.853 -0.0563 -0.0463 -0.0990
    1W        W41286  25.588  16.335   9.220  0.1663 -0.1119 -0.3326
    1W        W41287   2.863  26.017   2.165 -0.1046 -0.0239 -0.2906
    1W        W41288  18.811  10.685   7.839 -0.0376 -0.0042 -0.0153
    1W        W41289   0.192   1.279   7.002 -0.1627 -0.4124 -0.1168
    1W        W41290   0.897  22.169   3.176 -0.1113 -0.1370  0.0030
    1W        W41291   7.147   6.827   8.847  0.0384  0.1530 -0.0779
    1W        W41292  21.584  17.179   0.846  0.1427  0.4897  0.0729
    1W        W41293   9.269  19.185   6.847  0.1362  0.4363 -0.1850
    1W        W41294  15.490  14.743   0.392  0.1150 -0.0723 -0.2450
    1W        W41295   0.718  16.031   8.616  0.0633 -0.1847 -0.1894
    1W        W41296  11.909   3.651   7.952  0.0579  0.1939  0.0514
    1W        W41297  26.105  26.238   7.816 -0.0842  0.1085 -0.4179
    1W        W41298  19.732   2.260   9.333 -0.1945  0.2403 -0.3808
    1W        W41299  26.999   0.666   0.678 -0.2737  0.2570 -0.1998
    1W        W41300   8.895   1.558   8.189  0.1207 -0.0647  0.0579
    1W        W41301   7.860   7.718   2.275  0.0426  0.1924  0.5231
    1W        W41302   8.619  27.456   0.396  0.3073 -0.3389  0.0922
    1W        W41303  26.267  12.404   9.498  0.0496  0.1993  0.3726
    1W        W41304  21.695   1.581   9.601 -0.1329 -0.0887 -0.0177
    1W        W41305  16.437   3.779   8.014  0.1698  0.0366  0.0365
    1W        W41306  15.530  11.717   2.301 -0.0081  0.1516 -0.2529
    1W        W41307   4.919   9.318   5.330 -0.1468  0.1995 -0.1120
    1W        W41308  16.492  26.107   1.695 -0.2120  0.0130 -0.1123
    1W        W41309  22.094   5.200   1.440  0.1012 -0.0345 -0.2856
    1W        W41310  18.644  22.313   1.453  0.0809  0.1957 -0.0301
    1W        W41311  26.378  26.304   8.389  0.0740 -0.1017  0.1642
    1W        W41312  23.067   6.752   0.875  0.2472  0.1601  0.3436
    1W        W41313  17.621  11.281   8.798 -0.3224 -0.1086 -0.1248
    1W        W41314  22.938  20.009   7.104 -0.0521 -0.0685  0.0618
    1W        W41315  22.696   7.874   2.240  0.0414 -0.1045 -0.4382
    1W        W41316  28.686   7.699   0.832  0.1484  0.1839  0.0647
    1W        W41317   7.296   0.219   8.974  0.0434  0.0432  0.1957
    1W        W41318   0.454  28.427   3.407 -0.0235 -0.1258 -0.1977
    1W        W41319  11.878   3.940   7.559 -0.0220  0.1173 -0.0534
    1W        W41320  21.876   4.055   3.002 -0.1726 -0.0349 -0.0062
    1W        W41321   7.192   1.308   1.310  0.0223  0.1610 -0.1917
    1W        W41322   0.695  13.623   1.022 -0.1188  0.0191  0.1576
    1W        W41323   8.193   6.076   8.432  0.0182  0.1600  0.0336
    1W        W41324   8.610  14.120   7.971 -0.0088  0.0102  0.0463
    1W        W41325   6.224   7.059   6.870 -0.2009  0.2151  0.0371
    1W        W41326  24.537   2.284   8.423  0.0574 -0.1633 -0.1253
    1W        W41327  28.065  19.165   3.945  0.4828  0.1013 -0.0036
    1W        W41328  27.373  12.196   7.591 -0.0111  0.1917  0.4071
    1W        W41329  18.139  14.215   1.285  0.1590  0.2005  0.0085
    1W        W41330  12.714  21.067   6.863  0.1937  0.2158 -0.1609
    1W        W41331   8.011  29.518   6.821  0.1061 -0.0313  0.2611
    1W        W41332  10.927   6.915   1.730  0.2455  0.0983 -0.3394
    1W        W41333  20.772  13.909   0.466 -0.1192  0.1680  0.1071
    1W        W41334  21.149  28.756   0.602  0.0372 -0.3055  0.0312
    1W        W41335  29.268  19.357   7.774  0.1347 -0.1929 -0.0550
    1W        W41336  15.553   7.231   1.295 -0.0048  0.1556  0.0580
    1W        W41337   1.612  19.229   1.727 -0.0815 -0.0502  0.1365
    1W        W41338  20.453  16.544   0.261 -0.2138  0.1680 -0.1425
    1W        W41339  13.469  25.628   8.226 -0.0647 -0.2338 -0.1761
    1W        W41340   2.619  21.275   2.776 -0.0342 -0.0126 -0.1109
    1W        W41341  19.143   0.506   2.210 -0.1840 -0.4545 -0.0423
    1W        W41342  21.104   6.226   0.153 -0.1753 -0.1932 -0.3037
    1W        W41343   2.867   9.948   0.482 -0.1329  0.0297 -0.0836
    1W        W41344  11.807   6.015   0.607  0.0355  0.1832 -0.1020
    1W        W41345   4.339  23.775   8.104 -0.3155  0.1274  0.1388
    1W        W41346  10.669  10.747   0.969 -0.1044  0.0401  0.2400
    1W        W41347   5.248  28.342   1.750 -0.0431  0.0006  0.2336
    1W        W41348  26.908   3.480   6.861 -0.0622  0.1037 -0.1489
    1W        W41349  17.677  22.229   2.485 -0.0453  0.4642  0.1698
    1W        W41350   5.157   0.896   0.586  0.0498  0.3411  0.1006
    1W        W41351   4.682   9.020   5.819 -0.1426 -0.0204 -0.0477
    1W        W41352   1.636  20.922   8.262  0.1378 -0.1357  0.1152
    1W        W41353  11.714   7.772   6.950 -0.0925 -0.0233 -0.0348
    1W        W41354  19.236  16.469   9.520 -0.2400  0.0775 -0.0253
    1W        W41355  18.746  13.334   2.354  0.2078  0.2819 -0.0027
    1W        W41356   9.685   3.585   2.340  0.3172 -0.0146 -0.0174
    1W        W41357   9.550   2.197   9.484  0.0857 -0.0242 -0.1938
    1W        W41358  23.559  11.223   1.107 -0.0470  0.0026 -0.1299
    1W        W41359  20.614  14.500   0.229 -0.2784  0.3260 -0.1942
    1W        W41360  26.882   8.646   8.878  0.3429  0.1414  0.0907
    1W        W41361   3.094  14.035   9.240  0.2962  0.2109 -0.1833
    1W        W41362  24.410  20.639   2.378 -0.1999 -0.0242  0.0507
    1W        W41363   4.943  25.353   2.908 -0.3253  0.1355 -0.0207
    1W        W41364   2.238  29.121   6.895  0.1891 -0.2095  0.0005
    1W        W41365  23.370  10.932   1.582 -0.1126  0.2196  0.2399
    1W        W41366  24.445  13.124   1.994  0.1008  0.2545 -0.1238
    1W        W41367  17.158  17.871   1.896  0.1195  0.1982  0.2105
    1W        W41368  18.157   6.334   1.806 -0.1243 -0.2123 -0.0245
    1W        W41369  17.703  23.803   9.046 -0.0075 -0.0809  0.1089
    1W        W41370   0.540  15.396   0.309  0.0269 -0.1975 -0.0600
    1W        W41371   7.850  17.086   0.133 -0.1669  0.3379  0.0667
    1W        W41372  10.435   5.382   6.986  0.1354 -0.1225  0.0346
    1W        W41373  28.504  14.006   2.093 -0.1102  0.0451  0.2599
    1W        W41374   8.587  15.015   0.008 -0.1562  0.2409 -0.1701
    1W        W41375  17.274   2.985   8.054 -0.2274 -0.2459 -0.0507
    1W        W41376   0.700  20.910   0.063 -0.2862 -0.3468 -0.1098
    1W        W41377  17.233  19.294   0.381 -0.0303  0.1299  0.0447
    1W        W41378  26.138  20.184   8.467  0.1073 -0.0543 -0.1096
    1W        W41379  23.541  21.982   8.198 -0.1068  0.0580 -0.0603
    1W        W41380   2.898   6.406   1.199  0.0226  0.0285 -0.0896
    1W        W41381   3.645  12.028   8.932  0.0390  0.0956  0.0736
    1W        W41382   2.722  21.534   7.336 -0.0937  0.2671  0.0594
    1W        W41383   2.524  29.103   0.976 -0.0427  0.3657  0.2452
    1W        W41384  24.618   3.927   8.124  0.0609  0.0154  0.0790
    1W        W41385   1.821  18.655   7.937 -0.0859 -0.0253  0.2106
    1W        W41386  16.209  17.784   8.512  0.1793  0.2440 -0.2162
    1W        W41387  20.254   9.164   1.961 -0.0083  0.1080  0.1040
    1W        W41388   9.603  13.424   6.000 -0.3819 -0.0452  0.0657
    1W        W41389  23.916  10.990   7.752  0.1984 -0.1371 -0.2588
    1W        W41390   5.856  19.051   0.077 -0.4652  0.1500  0.0703
    1W        W41391   3.195  17.071   1.699 -0.0742  0.0500 -0.0174
    1W        W41392   3.055  28.079   1.145  0.1996  0.3324  0.0709
    1W        W41393  26.483  11.598   8.253 -0.0583  0.2171  0.0736
    1W        W41394   5.839  27.564   0.156  0.2349  0.1409  0.0248
    1W        W41395  23.677   3.746   1.771 -0.3231  0.1013  0.1009
    1W        W41396  27.494   7.340   7.899 -0.0334  0.0398 -0.3646
    1W        W41397  17.029  28.069   9.190 -0.1556  0.0415  0.1019
    1W        W41398  14.102   4.002   8.951 -0.0502 -0.1822 -0.2600
    1W        W41399   7.015   6.346   8.646 -0.0463 -0.0201 -0.4443
    1W        W41400   7.465  23.508   9.109  0.1091  0.1969 -0.1898
    1W        W41401  25.813  19.933   9.590 -0.0697 -0.0675  0.2300
    1W        W41402   1.643  16.739   2.290  0.2723 -0.0090  0.3543
    1W        W41403  17.279  10.821   8.531 -0.1329 -0.0049  0.2402
    1W        W41404   3.775  28.486   6.929 -0.0655  0.1592 -0.0138
    1W        W41405  22.522  13.224   8.185 -0.0820  0.0655 -0.0070
    1W        W41406  21.622  24.216   8.340 -0.0242 -0.0113  0.1846
    1W        W41407  20.489  17.360   9.358 -0.0149 -0.2312  0.1457
    1W        W41408  23.830  13.614   7.311  0.0221  0.0537  0.1437
    1W        W41409  25.244  19.904   9.501  0.3127 -0.0414  0.3359
    1W        W41410  28.811  16.856   8.310  0.1143 -0.0338  0.0333
    1W        W41411  20.971  16.346   8.350 -0.1740  0.1134 -0.2078
    1W        W41412  13.868  22.663   8.761 -0.1246  0.0977 -0.1812
    1W        W41413  24.134  18.132   1.314  0.0059  0.2260 -0.1248
    1W        W41414   0.520  18.677   7.774  0.3020 -0.1817  0.0682
    1W        W41415   8.456   7.386   8.167  0.0633 -0.0935 -0.0434
    1W        W41416  19.439   4.874   8.177  0.1501  0.1589 -0.0432
    1W        W41417  24.933   8.588   0.900  0.1154 -0.1632  0.0972
    1W        W41418  21.541  27.935   2.371 -0.2298 -0.2754  0.2657
    1W        W41419   6.832  25.643   2.368 -0.0085 -0.0817 -0.1755
    1W        W41420  29.479   0.327   6.182 -0.3338 -0.0968 -0.0372
    1W        W41421   8.612   7.698   0.348 -0.0838  0.1892  0.3286
    1W        W41422  15.992  24.203   8.525 -0.0473  0.0844  0.2561
    1W        W41423  14.553   1.780   6.765 -0.2550  0.0685 -0.1718
    1W        W41424   4.406  24.500   2.878 -0.1625 -0.2180 -0.2584
    1W        W41425   7.997   2.012   8.579  0.3143  0.5386 -0.0684
    1W        W41426  17.344  13.142   0.621  0.1981  0.0083  0.3976
    1W        W41427   8.156  23.839   7.264  0.0798  0.2146  0.0088
    1W        W41428  29.267   9.342   7.503 -0.0773  0.1270 -0.0800
    1W        W41429  22.488   6.250   7.607  0.1806  0.2217 -0.1164
    1W        W41430  28.318   6.579   8.513  0.0400 -0.1771 -0.0800
    1W        W41431   2.768  21.216   8.789 -0.1225 -0.1019 -0.0679
    1W        W41432   2.353   1.842   6.916  0.0350  0.3739  0.0368
    1W        W41433  16.561  15.291   9.550 -0.0158  0.1203 -0.1788
    1W        W41434   9.552  11.965   1.495  0.2883 -0.5051 -0.0939
    1W        W41435  13.528   7.271   8.047  0.0549 -0.1560  0.3014
    1W        W41436  20.641   7.230   7.806  0.1670 -0.2823  0.0015
    1W        W41437  27.613  28.540   2.025 -0.0786 -0.0279 -0.2468
    1W        W41438   5.270   2.109   8.136  0.0007 -0.0598  0.3170
    1W        W41439  17.232  15.403   3.100  0.2776  0.1493  0.1355
    1W        W41440  17.118  11.453   0.461 -0.1127  0.1068  0.1872
    1W        W41441   3.214  20.492   2.254  0.0869 -0.2710 -0.0756
    1W        W41442  25.759  16.038   2.153  0.0786 -0.1049  0.0272
    1W        W41443   2.889   1.653   6.882  0.0038 -0.1672  0.1620
    1W        W41444   7.556   7.936   0.455  0.2508  0.3770 -0.0460
    1W        W41445   8.362  27.099   2.844  0.1180  0.2693 -0.0959
    1W        W41446   7.509  25.620   0.917  0.1239 -0.0608  0.2411
    1W        W41447  16.321   4.002   0.811  0.0582  0.2978  0.1301
    1W        W41448  11.092  15.019   8.358  0.2343  0.1616  0.0058
    1W        W41449  12.272  26.955   8.126  0.2582  0.0085  0.0603
    1W        W41450   1.981   1.794   7.205  0.0802 -0.2198 -0.0836
    1W        W41451  15.702  27.392   1.036 -0.2809 -0.1181  0.1624
    1W        W41452  22.410   1.531   2.897  0.2262 -0.0550  0.0885
    1W        W41453  24.127   0.050   7.731  0.1515 -0.1084 -0.2913
    1W        W41454  13.607   4.188   0.540  0.1063 -0.0096 -0.1619
    1W        W41455   7.308  24.892   6.990  0.0208 -0.1833  0.1495
    1W        W41456  27.002  17.658   8.436  0.0058  0.0706  0.1341
    1W        W41457  28.010  11.997   0.598 -0.1849  0.2152 -0.1949
    1W        W41458  14.977  19.673   8.090 -0.6146 -0.0971 -0.0097
    1W        W41459  11.835   6.526   9.123 -0.0862  0.1683 -0.0537
    1W        W41460   4.708   2.318   0.188  0.0295 -0.2438 -0.0374
    1W        W41461   3.722  10.659   0.877  0.0696 -0.0008 -0.0793
    1W        W41462  16.568  26.213   9.153  0.1915  0.0610  0.0370
    1W        W41463  28.966  14.529   2.319 -0.0002  0.1767 -0.0943
    1W        W41464  11.778  28.129   6.963 -0.3272  0.1136 -0.0026
    1W        W41465  21.588   0.503   1.471  0.1675  0.0883 -0.2411
    1W        W41466   5.786  19.831   0.844  0.0537  0.3365  0.0289
    1W        W41467   1.155  18.504   1.281  0.0386 -0.2064 -0.0225
    1W        W41468  12.713   6.319   2.811 -0.0747 -0.0038  0.0391
    1W        W41469  17.380  21.889   2.240  0.1255  0.2179 -0.1887
    1W        W41470   6.887  14.685   9.550 -0.0543  0.0876 -0.0930
    1W        W41471  15.458  16.915   1.582  0.3641  0.2255  0.2116
    1W        W41472  13.806  11.857   8.803 -0.1392 -0.1339 -0.2464
    1W        W41473   4.759  23.171   2.923 -0.3043  0.0627 -0.0843
    1W        W41474   2.793   8.415   1.103 -0.1434 -0.1498 -0.1471
    1W        W41475   6.390  19.088   9.318  0.0755 -0.2863  0.0716
    1W        W41476  11.854   0.479   3.183  0.0732  0.0290 -0.4823
    1W        W41477   0.399   0.073   1.478 -0.0518 -0.1415  0.2689
    1W        W41478  22.842  28.037   1.932 -0.1682  0.2417  0.0345
    1W        W41479   9.063   4.103   1.795 -0.1649 -0.0623  0.1188
    1W        W41480  23.940   4.781   9.250 -0.2978 -0.1538 -0.0605
    1W        W41481  22.117   9.530   0.272 -0.1112 -0.0779 -0.2082
    1W        W41482   5.123  28.213   7.859 -0.3124 -0.1954  0.1315
    1W        W41483  23.942   9.455   8.731 -0.1126  0.4558  0.2271
    1W        W41484   5.949   7.818   0.701  0.0648  0.0322  0.1902
    1W        W41485  29.366   9.826   0.080 -0.0222  0.0703  0.2182
    1W        W41486  21.859  21.689   7.957  0.1559  0.2801  0.0208
    1W        W41487  23.677   7.093   7.152 -0.0504  0.1524 -0.0166
    1W        W41488   7.362  10.866   1.289  0.2095 -0.0876 -0.1226
    1W        W41489  14.761   8.210   1.042  0.0249  0.0288 -0.0111
    1W        W41490  11.356  12.097   2.548  0.1445  0.0210 -0.0913
    1W        W41491  12.545   8.539   6.337 -0.0523 -0.1517 -0.1211
    1W        W41492  25.040  27.553   2.042 -0.1262  0.1494 -0.3530
    1W        W41493   8.952  15.909   9.437 -0.0191  0.0794  0.0248
    1W        W41494  13.624  19.034   6.439  0.0473  0.4472  0.0585
    1W        W41495  15.488   0.811   9.054  0.5732 -0.0304 -0.4717
    1W        W41496  19.827  20.304   3.459 -0.0131 -0.2133 -0.1315
    1W        W41497  15.728  22.028   1.041 -0.2075 -0.2137  0.1868
    1W        W41498  11.802  13.164   9.515 -0.0427 -0.2576 -0.0053
    1W        W41499  14.760   2.942   8.049 -0.2966  0.1271  0.0704
    1W        W41500  16.380  11.524   8.745 -0.0110  0.2831  0.1790
    1W        W41501   5.185  27.653   8.368  0.0171 -0.0193  0.1170
    1W        W41502   0.345   9.318   1.424  0.2531 -0.0734 -0.1149
    1W        W41503  18.928  12.750   0.745 -0.1015 -0.1142  0.1740
    1W        W41504  28.985   0.338   0.296  0.1915 -0.2843 -0.2445
    1W        W41505   8.780   3.839   8.290  0.1240 -0.1949 -0.1044
    1W        W41506  28.189   1.980   1.373  0.0533  0.1116  0.3740
    1W        W41507  11.192  24.913   7.618  0.4956  0.0079 -0.1534
    1W        W41508  25.408  11.937   7.272 -0.0367  0.0106  0.0069
    1W        W41509  24.350   4.845   2.238  0.2919  0.1247 -0.0390
    1W        W41510  28.436   2.053   8.764  0.0806 -0.1052 -0.1902
    1W        W41511   6.943  23.040   7.703 -0.2809  0.1236 -0.1009
    1W        W41512   7.160  21.618   0.966  0.1191 -0.0594  0.0217
    1W        W41513  29.252  15.865   0.187 -0.3019 -0.0997  0.1420
    1W        W41514  10.107   9.216   2.592 -0.1916  0.3113  0.2389
    1W        W41515  26.483  22.048   9.482  0.0140 -0.1392 -0.3247
    1W        W41516  19.185  22.617   3.126 -0.2075  0.1632  0.0143
    1W        W41517  26.227  24.704   0.787  0.0048  0.1648 -0.1315
    1W        W41518   1.802  13.059   8.549 -0.0971  0.1754 -0.0410
    1W        W41519  17.137  13.581   7.903  0.0378  0.2712  0.1278
    1W        W41520   7.190  20.170   7.613  0.0526  0.0092 -0.1150
    1W        W41521  21.845   8.246   1.373 -0.2180 -0.0549  0.0336
    1W        W41522  26.822  22.749   9.241  0.0534 -0.1070 -0.2326
    1W        W41523  21.781  24.039   9.174  0.0283  0.1629 -0.1605
    1W        W41524  22.084  22.229   7.302  0.0277  0.0468 -0.0528
    1W        W41525  26.218  12.272   1.484 -0.1708  0.2109  0.1808
    1W        W41526   0.778  23.415   3.761  0.0534  0.1528 -0.3212
    1W        W41527   6.578  24.882   8.231 -0.3371 -0.0361 -0.2188
    1W        W41528  27.894  12.467   1.436 -0.0062 -0.1997  0.0078
    1W        W41529   7.913  23.657   8.221  0.0717  0.0158 -0.1428
    1W        W41530   2.716   5.096   0.721  0.1011  0.1056 -0.0183
    1W        W41531  24.372   7.425   9.513  0.0892 -0.2962 -0.2394
    1W        W41532  26.181  10.594   8.576 -0.2955 -0.3061 -0.1803
    1W        W41533  26.292  21.875   3.166 -0.1351  0.1392 -0.0984
    1W        W41534  21.935  14.980   0.813 -0.0192 -0.1351  0.2730
    1W        W41535   9.583  10.984   9.514 -0.3072 -0.0343  0.0658
    1W        W41536   3.132  25.082   2.297  0.2007 -0.1855  0.2441
    1W        W41537   4.479  25.174   1.810  0.2092 -0.2055 -0.2078
    1W        W41538  15.689  13.605   7.550 -0.1279  0.2588 -0.1019
    1W        W41539  26.778  18.228   3.181 -0.0485  0.0441  0.0683
    1W        W41540   8.811  12.547   8.235  0.0097  0.1218  0.0889
    1W        W41541   6.590  16.403   1.288 -0.0725 -0.1222  0.3439
    1W        W41542  18.976   8.438   7.933 -0.1396  0.1425  0.1884
    1W        W41543  25.116  14.395   8.659 -0.0842  0.0646 -0.1091
    1W        W41544  26.451  24.282   8.750  0.0720  0.1258  0.0210
    1W        W41545  15.285  19.451   6.327  0.0946  0.0515 -0.1427
    1W        W41546  28.829  16.967   1.816 -0.1235 -0.0618 -0.3765
    1W        W41547  25.538   3.090   7.660 -0.1947 -0.1679  0.0720
    1W        W41548  24.881   4.210   2.636 -0.0637  0.0070 -0.0680
    1W        W41549   2.228  29.585   8.903  0.3191  0.2218 -0.0665
    1W        W41550  20.377  25.525   2.823 -0.1042 -0.0666  0.0333
    1W        W41551  10.143  23.559   0.429 -0.0892 -0.2987 -0.2117
    1W        W41552  25.372  25.722   9.039  0.1208  0.0629 -0.0789
    1W        W41553   1.053  16.060   2.038  0.1092  0.0029  0.1484
    1W        W41554  21.618  19.910   8.768  0.0775  0.1467 -0.2293
    1W        W41555   9.703  13.131   1.102 -0.3992 -0.4855 -0.1071
    1W        W41556  12.806   0.327   7.201  0.0617  0.2570 -0.0379
    1W        W41557  16.906  17.308   2.500  0.2155 -0.1975  0.1153
    1W        W41558  17.739  14.291   0.043  0.4980 -0.3192 -0.3524
    1W        W41559   3.838  28.751   8.099  0.0525  0.0106  0.0191
    1W        W41560   8.845   4.376   8.157 -0.0383  0.0413  0.1996
    1W        W41561   4.663  28.432   7.932  0.0383 -0.0081 -0.1499
    1W        W41562   8.582  16.669   7.642 -0.0561 -0.0510 -0.0128
    1W        W41563  19.129   6.369   9.587 -0.1614 -0.0396  0.1303
    1W        W41564  26.449  28.234   2.584  0.1485  0.0901  0.0402
    1W        W41565  16.035  24.734   7.303  0.1521 -0.0166  0.3026
    1W        W41566  15.653  25.260   0.272 -0.0385  0.4024 -0.2146
    1W        W41567  27.296   0.638   0.216  0.1615  0.2999 -0.0138
    1W        W41568  26.867  10.483   0.179 -0.0497  0.0912 -0.1727
    1W        W41569  19.677   4.164   8.692  0.3061 -0.0567 -0.0230
    1W        W41570  22.698   2.815   7.404  0.0808 -0.2749  0.1271
    1W        W41571   1.162   0.589   1.811 -0.2050 -0.2383 -0.1698
    1W        W41572  19.795  29.482   0.101 -0.1110 -0.1454 -0.0361
    1W        W41573  14.776   6.337   7.055 -0.1050  0.2722 -0.0372
    1W        W41574   9.186  13.802   6.004 -0.0195  0.1960  0.0543
    1W        W41575  11.043  23.951   1.370 -0.1374 -0.2522  0.0893
    1W        W41576  10.398  17.252   8.766  0.1041  0.1413  0.0282
    1W        W41577   6.456  13.219   6.853 -0.0150  0.3223  0.1769
    1W        W41578   1.673  25.192   9.002 -0.4242  0.0684  0.0984
    1W        W41579  23.252   4.609   1.331 -0.2182 -0.0414  0.4798
    1W        W41580   3.106   5.060   0.219 -0.0378  0.0253 -0.0243
    1W        W41581  15.987  24.827   7.833 -0.2437 -0.0519  0.2090
    1W        W41582  14.131   4.199   6.688  0.0666  0.0563  0.0401
    1W        W41583  21.547   3.773   0.117 -0.0418  0.1515  0.1383
    1W        W41584   1.039   0.288   2.281 -0.0230  0.1621 -0.0129
    1W        W41585  18.212   4.937   8.258  0.1076  0.4038  0.1805
    1W        W41586  15.923  25.517   2.330  0.0401 -0.3316 -0.1656
    1W        W41587  17.948  18.001   0.438  0.0479 -0.0034 -0.2782
    1W        W41588  16.964   1.854   8.635  0.0855  0.0124 -0.0669
    1W        W41589  28.452  12.243   8.748 -0.1841  0.0276  0.1893
    1W        W41590  19.266  13.569   8.040 -0.2589 -0.2675 -0.0113
    1W        W41591  13.169   0.286   1.507  0.2526 -0.1972 -0.0507
    1W        W41592   7.767   0.834   9.508  0.1471  0.0233 -0.2481
    1W        W41593  15.373  24.746   8.011  0.0353 -0.1514 -0.3816
    1W        W41594  28.225  27.130   3.135  0.2473  0.1331 -0.3325
    1W        W41595  22.183  23.611   9.058 -0.1583 -0.0008  0.0755
    1W        W41596  10.050  20.677   1.643 -0.2750  0.0606 -0.0875
    1W        W41597  26.654  28.031   8.104  0.3024 -0.1402 -0.2420
    1W        W41598   1.931  18.168   0.785  0.2005 -0.2571 -0.5049
    1W        W41599  22.891  25.402   3.813  0.3584  0.1686 -0.1133
    1W        W41600   4.142   4.851   6.510 -0.0061 -0.2248 -0.2757
    1W        W41601  11.944  21.935   1.485 -0.0868 -0.0381 -0.0755
    1W        W41602  16.244  28.374   2.270  0.4437  0.0516  0.0708
    1W        W41603  10.117  27.057   2.320 -0.0767  0.3562  0.1288
    1W        W41604  15.053   0.098   0.540  0.0086 -0.2761 -0.0820
    1W        W41605   9.523   7.436   8.369 -0.3789 -0.1717  0.0389
    1W        W41606  28.273   6.388   9.517 -0.1273  0.1865 -0.1491
    1W        W41607  18.180  17.670   2.946  0.2157  0.0260 -0.2162
    1W        W41608  23.190  19.541   0.173 -0.0490  0.2317 -0.3416
    1W        W41609   3.898  28.642   0.251 -0.1016 -0.0458 -0.1299
    1W        W41610  22.235   5.949   8.751 -0.1204 -0.2222 -0.0754
    1W        W41611   2.994  28.935   2.016 -0.0419  0.0075  0.0929
    1W        W41612  15.268  26.219   6.992 -0.0187  0.1016 -0.3159
    1W        W41613  19.332   2.343   9.022  0.0204 -0.0502  0.0350
    1W        W41614   6.810  15.510   1.470  0.0050 -0.0054 -0.0695
    1W        W41615   4.866   5.443   7.739 -0.2300 -0.1422 -0.1198
    1W        W41616  10.186   5.000   9.310  0.1984  0.1101  0.0682
    1W        W41617   5.134  10.822   1.163  0.1594  0.3554 -0.2555
    1W        W41618   6.485  22.171   0.724 -0.0171  0.1162  0.3040
    1W        W41619  20.242   4.038   8.681 -0.2319 -0.2221 -0.3118
    1W        W41620   6.127  13.544   6.618  0.1899  0.0180 -0.0135
    1W        W41621  18.157  28.066   1.686  0.0538 -0.3013 -0.0974
    1W        W41622  15.907  26.563   7.805 -0.0902 -0.0713  0.3533
    1W        W41623   5.697   3.911   2.892  0.0052  0.2960  0.0134
    1W        W41624  10.840   9.034   0.332  0.0203 -0.0787  0.2086
    1W        W41625  26.649  14.704   7.569 -0.3071 -0.2824 -0.1843
    1W        W41626  12.218   4.136   9.614 -0.4093 -0.1923  0.1463
    1W        W41627   1.201  24.325   9.514 -0.1484  0.1436  0.0233
    1W        W41628  25.249   5.811   1.123  0.0835 -0.0431 -0.0754
    1W        W41629   2.309  10.974   9.295 -0.1871  0.2323  0.1227
    1W        W41630   7.084   8.049   1.271 -0.1170  0.1174 -0.1121
    1W        W41631   5.360  18.202   2.427 -0.1465  0.0999 -0.0250
    1W        W41632  19.001   0.193   0.780  0.1957 -0.1936  0.1245
    1W        W41633  19.008   3.156   0.771 -0.0131 -0.1312 -0.0944
    1W        W41634  20.013   1.529   1.548 -0.3253  0.0013 -0.1396
    1W        W41635  21.955   5.485   8.854  0.1013 -0.0988 -0.1422
    1W        W41636  19.377  10.190   0.484 -0.3242 -0.0577 -0.1636
    1W        W41637  20.469  10.746   9.224  0.4769  0.2029 -0.0748
    1W        W41638  14.873   0.021   6.416  0.1633  0.0208 -0.1535
    1W        W41639  20.751  23.603   0.860  0.0601  0.0835  0.1585
    1W        W41640   0.176  27.296   9.036  0.3245  0.0525 -0.0917
    1W        W41641  29.064   3.141   2.443 -0.1410 -0.2275 -0.2046
    1W        W41642  14.948   9.046   1.483 -0.1375  0.3373 -0.1522
    1W        W41643   7.167  13.600   7.831 -0.1515 -0.0032  0.0520
    1W        W41644  27.294   0.135   7.497  0.0656  0.1731 -0.0911
    1W        W41645  15.597  18.051   9.062 -0.1875 -0.0001 -0.0682
    1W        W41646  14.544  19.281   9.390 -0.2740  0.2604  0.0493
    1W        W41647  11.655  28.550   7.208 -0.0008  0.0982 -0.0621
    1W        W41648  25.891  21.555   7.556  0.1506 -0.2153 -0.0025
    1W        W41649  25.292  25.994   2.499 -0.0599  0.1276 -0.1102
    1W        W41650   6.645  18.590   8.132 -0.0575  0.0217  0.1958
    1W        W41651   6.422   7.486   1.950  0.0051 -0.1020  0.1008
    1W        W41652   0.021  18.360   7.706 -0.2271 -0.1603  0.1616
    1W        W41653  27.233  29.062   0.530  0.0344  0.1184  0.2241
    1W        W41654  20.925  12.546   0.075 -0.1485 -0.0401 -0.3126
    1W        W41655   6.266  26.358   6.725  0.3598 -0.0717  0.1728
    1W        W41656  10.247  14.121   9.543 -0.1126  0.2369 -0.0486
    1W        W41657   8.534  25.762   8.910 -0.2053  0.1010 -0.1057
    1W        W41658  14.653  24.177   1.584 -0.1182  0.1931  0.1335
    1W        W41659   5.525  11.351   9.234  0.0858  0.3118  0.0581
    1W        W41660   1.362  26.364   7.261  0.0273  0.1240 -0.1040
    1W        W41661  27.649  14.490   9.011 -0.2371 -0.1813  0.1743
    1W        W41662  17.669  19.321   7.518  0.1202  0.0065  0.0606
    1W        W41663   2.319   8.138   9.450  0.1360 -0.1825 -0.0659
    1W        W41664   0.644   7.134   7.447 -0.3506  0.0061 -0.2159
    1W        W41665   6.174  22.563   1.018 -0.0290  0.3360 -0.5445
    1W        W41666  19.355   0.307   7.375 -0.0268 -0.0466 -0.1137
    1W        W41667  19.538  21.739   9.266  0.3701  0.0668 -0.4753
    1W        W41668   1.814   0.815   7.075  0.0644 -0.2405 -0.0157
    1W        W41669   9.956  25.951   7.977 -0.1416 -0.2297  0.1415
    1W        W41670  25.502  17.059   8.189  0.1125 -0.1434 -0.1434
    1W        W41671  18.281  21.834   9.528 -0.0205  0.1590 -0.1233
    1W        W41672   4.984  14.500   5.520 -0.0121  0.3544  0.0360
    1W        W41673   2.355  11.642   6.533  0.3532 -0.2463 -0.5323
    1W        W41674  21.857  28.671   8.761 -0.1198  0.1787  0.3231
    1W        W41675   0.225  23.423   8.792  0.2493  0.1355 -0.0378
    1W        W41676   1.075  26.321   0.204 -0.1808  0.1922  0.2025
    1W        W41677  22.087  20.541   7.631  0.3862 -0.1342  0.0118
    1W        W41678  23.495  17.057   0.633 -0.0049  0.0017  0.1528
    1W        W41679  16.185  25.674   8.277  0.2101  0.1864  0.2247
    1W        W41680  20.166   7.053   2.347  0.0720  0.2505 -0.0914
    1W        W41681  21.575  17.576   2.633  0.2890 -0.0059  0.1233
    1W        W41682  24.494  18.375   6.886 -0.0953 -0.0936  0.0799
    1W        W41683  22.231   2.537   8.569 -0.1305 -0.1438  0.2119
    1W        W41684   7.909  18.299   1.974 -0.0222  0.0827  0.2055
    1W        W41685  29.595   0.350   0.592  0.2098 -0.0984  0.0406
    1W        W41686  11.122  23.282   0.339 -0.2832 -0.0945  0.2355
    1W        W41687  21.611   7.193   7.026 -0.1337  0.4300 -0.0436
    1W        W41688   9.616  22.253   2.049 -0.0880 -0.3047 -0.1056
    1W        W41689  26.450   6.761   9.033 -0.0524 -0.1161 -0.1973
    1W        W41690   7.888   8.759   0.366 -0.0855 -0.0811  0.2257
    1W        W41691  22.571  22.093   3.559 -0.2219  0.0361  0.0956
    1W        W41692  25.889  20.171   3.235 -0.0656  0.2836 -0.1126
    1W        W41693   2.476  18.054   6.804 -0.0326  0.1462 -0.0967
    1W        W41694  17.699  29.057   2.868  0.0066 -0.0311 -0.0983
    1W        W41695  20.642   2.926   7.396  0.0178 -0.1648 -0.1619
    1W        W41696  27.355  20.601   1.003 -0.0015  0.5176 -0.6010
    1W        W41697   2.215  20.604   8.800  0.1649  0.1979  0.0878
    1W        W41698  26.996  25.001   8.427 -0.1800  0.0936  0.1620
    1W        W41699   1.888  20.669   9.175 -0.2366 -0.0531  0.0350
    1W        W41700  22.021   3.361   2.189 -0.0789  0.0244 -0.0740
    1W        W41701  22.264  29.449   2.902 -0.0151 -0.0748 -0.1474
    1W        W41702  22.649  10.496   0.148 -0.0328 -0.0339  0.2233
    1W        W41703   2.347   2.691   1.301 -0.0875  0.2831 -0.0927
    1W        W41704   9.406  13.983   2.402 -0.2652 -0.0884 -0.0174
    1W        W41705  26.650  25.431   8.322  0.1474  0.0196  0.3204
    1W        W41706  10.699   7.819   7.006 -0.0005 -0.0611  0.0022
    1W        W41707   6.147  20.704   2.876 -0.0680  0.1444 -0.0832
    1W        W41708  11.258   0.851   8.738 -0.0187 -0.3515 -0.2756
    1W        W41709  16.974  25.438   7.666 -0.1155 -0.2454 -0.1868
    1W        W41710   2.075  20.325   0.857  0.0460 -0.0190 -0.1011
    1W        W41711   8.525  20.285   0.041  0.2647 -0.3880 -0.0806
    1W        W41712  29.575  15.938   2.665  0.4758 -0.1635  0.1530
    1W        W41713  23.379  12.474   9.546 -0.2106  0.1751  0.0090
    1W        W41714  10.601   0.816   8.730 -0.1793  0.1173 -0.2945
    1W        W41715   4.683   8.326   5.245 -0.0890  0.0928 -0.1963
    1W        W41716  17.661  19.766   7.694 -0.0887 -0.4300  0.0081
    1W        W41717  27.649  15.674   2.342 -0.0146  0.0279 -0.0544
    1W        W41718  17.314  18.464   2.542  0.0687 -0.0420 -0.1325
    1W        W41719  19.139   3.077   1.789 -0.1957  0.1429  0.2201
    1W        W41720   3.595   0.647   0.600 -0.1605 -0.1536  0.0936
    1W        W41721  21.577  15.068   7.584 -0.3717  0.1146 -0.2862
    1W        W41722  14.876  20.111   2.294 -0.1426 -0.0609  0.0830
    1W        W41723  26.622  29.525   8.044  0.0981  0.0152 -0.1375
    1W        W41724  15.953  10.623   0.526  0.2075 -0.3534  0.3814
    1W        W41725  13.594  20.489   5.856  0.0128  0.1434  0.1222
    1W        W41726  17.390  19.595   9.611  0.0080 -0.0217  0.0930
    1W        W41727  12.558  25.037   2.580  0.1126  0.1264 -0.1585
    1W        W41728   4.986  17.347   6.836 -0.4954  0.0487 -0.2295
    1W        W41729   7.723   8.369   6.814 -0.0340  0.0977  0.0623
    1W        W41730   1.161   4.207   6.033 -0.0513  0.1778 -0.2701
    1W        W41731  25.712   6.951   7.824 -0.2524 -0.0254 -0.2173
    1W        W41732  19.914  25.708   8.124  0.0772 -0.1357  0.3503
    1W        W41733   3.403  24.087   1.663 -0.0459  0.0498  0.0399
    1W        W41734   7.610  16.509   6.797  0.1045  0.1563 -0.2727
    1W        W41735  10.867  14.365   8.351 -0.0034 -0.0878  0.4318
    1W        W41736   7.374  21.377   2.834 -0.1838  0.0794  0.0963
    1W        W41737  20.391  10.630   0.507 -0.2271  0.0781 -0.4284
    1W        W41738   9.663  16.730   5.857 -0.0562 -0.1851 -0.1805
    1W        W41739  29.604   9.492   0.970  0.0561  0.0549  0.0067
    1W        W41740   7.277  15.929   6.993 -0.1258  0.1133  0.1477
    1W        W41741  21.494  11.244   8.723  0.3349 -0.0010  0.3581
    1W        W41742  14.493   1.895   8.893  0.1278 -0.2970 -0.3430
    1W        W41743  14.889  29.151   8.025  0.1098 -0.2355  0.0200
    1W        W41744  16.971   8.936   0.729  0.1390  0.0398  0.0563
    1W        W41745  13.210  23.712   8.779  0.1341  0.0510 -0.3793
    1W        W41746   6.535  10.378   0.928 -0.2565  0.3549 -0.2937
    1W        W41747   3.068  24.682   2.673  0.0170 -0.0993  0.6262
    1W        W41748   4.457  19.657   9.585 -0.2555  0.1869  0.3911
    1W        W41749   6.129  18.241   9.593 -0.0482 -0.1160  0.0934
    1W        W41750  12.902  10.632   8.977  0.1146  0.2770 -0.1201
    1W        W41751   1.509  28.383   7.313  0.0766 -0.1240 -0.0258
    1W        W41752  20.189  19.441   4.404  0.0930 -0.0698 -0.0627
    1W        W41753  15.857  11.466   8.979 -0.0708  0.0663 -0.3112
    1W        W41754  19.444   8.697   1.819 -0.3460  0.0561 -0.0748
    1W        W41755  23.043  24.974   3.120 -0.0832  0.1060  0.0591
    1W        W41756  18.670  21.799   2.962 -0.4189  0.2116 -0.0810
    1W        W41757  21.829  22.554   9.470 -0.2112  0.1956  0.2542
    1W        W41758   3.815   1.205   0.647 -0.0365 -0.3226  0.2256
    1W        W41759  11.975  25.551   7.952  0.3104 -0.0900  0.1396
    1W        W41760  11.110  25.328   7.169 -0.1856 -0.1473 -0.0181
    1W        W41761   7.089  25.742   1.205 -0.0123 -0.0945  0.1075
    1W        W41762   1.063   1.345   7.158 -0.2965  0.1649  0.1489
    1W        W41763  15.247  16.320   8.117  0.2319  0.3452  0.2269
    1W        W41764  21.019   7.810   0.941  0.2525  0.1678  0.1256
    1W        W41765  27.367   3.372   1.769  0.3077 -0.0637  0.1682
    1W        W41766  21.581   0.709   2.198 -0.0748 -0.3311  0.2466
    1W        W41767  20.824   9.767   8.348 -0.4228 -0.0640  0.0100
    1W        W41768   3.370   2.480   2.733  0.0820 -0.1394 -0.1645
    1W        W41769  19.209  26.869   2.988  0.1932  0.0362 -0.1666
    1W        W41770   0.633  27.500   9.142  0.0709 -0.0874 -0.3545
    1W        W41771  12.485  23.055   9.550  0.0796 -0.1314 -0.1329
    1W        W41772   6.902  16.579   1.630  0.1321  0.3165  0.1716
    1W        W41773  20.518   8.344   1.975  0.0213 -0.0684 -0.0189
    1W        W41774   6.385  16.793   1.008 -0.1780  0.0926  0.2671
    1W        W41775   7.797   9.842   6.465 -0.2098 -0.0350  0.1351
    1W        W41776  14.025   2.948   1.792 -0.0782 -0.0747  0.0523
    1W        W41777  13.718  22.109   0.492 -0.0082 -0.0703  0.0431
    1W        W41778  16.434  20.020   0.583  0.0367 -0.1799  0.1945
    1W        W41779  18.744  15.448   8.833 -0.0699 -0.4393  0.1684
    1W        W41780   1.833  11.923   2.852 -0.1904 -0.1827  0.0382
    1W        W41781  24.344  12.671   2.765  0.1558 -0.2832 -0.1503
    1W        W41782  15.306  12.385   6.775 -0.0032  0.2242  0.0741
    1W        W41783  21.005  24.681   2.373 -0.0740 -0.0011  0.5036
    1W        W41784  23.999   7.689   8.372 -0.1022 -0.0530  0.2264
    1W        W41785  15.934  25.876   0.045 -0.3022 -0.1194  0.2177
    1W        W41786  19.734  19.810   1.986  0.1337  0.1929 -0.1254
    1W        W41787  25.572  13.637   0.807  0.1004 -0.0669 -0.1650
    1W        W41788  14.545  22.393   1.012  0.0313  0.3804  0.3504
    1W        W41789  24.778  19.734   6.648 -0.0489 -0.1317  0.0384
    1W        W41790   2.190  13.007   9.606  0.0577  0.1287 -0.0494
    1W        W41791  10.209   9.232   8.761  0.0199  0.0223  0.0457
    1W        W41792  10.817   8.268   8.727  0.0029  0.6995 -0.0011
    1W        W41793   2.318  26.107   0.704 -0.0645 -0.0227 -0.3642
    1W        W41794   6.222   0.208   6.591  0.1562  0.2910 -0.0180
    1W        W41795   2.072  15.252   7.238  0.2201  0.2494  0.1758
    1W        W41796  18.414  15.614   0.215  0.1698  0.0235  0.0639
    1W        W41797   1.701  11.574   0.811 -0.0567 -0.0379  0.1700
    1W        W41798  25.739   5.074   1.501  0.2124  0.2581 -0.1059
    1W        W41799  14.107  24.143   1.374 -0.3386 -0.1242 -0.0486
    1W        W41800  19.894  19.696   1.517  0.1015  0.2752  0.2265
    1W        W41801  15.837  18.664   0.045 -0.0420  0.1076 -0.1316
    1W        W41802  15.184  25.548   8.265 -0.1692 -0.0588 -0.0212
    1W        W41803   1.702  17.654   2.236  0.1407 -0.0927  0.0507
    1W        W41804  11.590   8.197   1.014  0.0351  0.1172 -0.0877
    1W        W41805   0.763  25.600   7.204 -0.0053  0.1859  0.0288
    1W        W41806  16.179  16.293   1.618 -0.0863  0.3480 -0.1683
    1W        W41807   1.256   4.154   1.817  0.1291  0.1953  0.1342
    1W        W41808  13.165  22.602   1.516  0.1508  0.1073 -0.2261
    1W        W41809   3.899   3.957   3.057 -0.1611 -0.0018  0.0664
    1W        W41810  18.726  25.290   1.145  0.0461 -0.2362  0.2226
    1W        W41811  14.201  13.614   2.376 -0.0282 -0.1211 -0.0706
    1W        W41812  22.041   0.379   8.374 -0.2051 -0.0915 -0.2447
    1W        W41813  21.587   3.053   2.446 -0.0729 -0.1169  0.2020
    1W        W41814  28.249  27.828   1.602  0.0300  0.0756  0.2809
    1W        W41815  21.166  21.620   0.445  0.3330  0.3000 -0.3038
    1W        W41816  13.120  15.245   7.474 -0.0251  0.1697 -0.2569
    1W        W41817  12.261  23.190   1.285 -0.2258  0.2509  0.0198
    1W        W41818  24.495  26.256   2.181 -0.0311  0.1447 -0.1510
    1W        W41819   9.566  17.653   1.441 -0.0806  0.0989 -0.2909
    1W        W41820  29.215  26.965   6.712  0.2989  0.0051  0.3281
    1W        W41821  24.201  17.076   0.919 -0.0280  0.1468 -0.0565
    1W        W41822  28.505   8.571   2.462 -0.0220  0.0295 -0.2238
    1W        W41823  19.128  19.735   9.134  0.0092  0.0294 -0.0140
    1W        W41824   3.683  19.606   7.222  0.3198 -0.0647 -0.1609
    1W        W41825  12.173   4.662   1.335 -0.0934  0.1666  0.0055
    1W        W41826  13.156   6.057   8.738  0.3361 -0.0278  0.0799
    1W        W41827   3.321  10.769   8.350  0.0674 -0.2931  0.0044
    1W        W41828  22.538  29.385   8.354  0.0475  0.3895 -0.3838
    1W        W41829  13.327   5.116   8.875 -0.0302  0.1465 -0.2178
    1W        W41830  18.413  25.755   3.250 -0.1329  0.3261  0.4039
    1W        W41831  10.939  16.286   7.915 -0.2671 -0.0710  0.3865
    1W        W41832   8.037  13.101   1.714 -0.1251 -0.1523  0.1412
    1W        W41833  28.092   1.651   7.345  0.1883 -0.1162 -0.1998
    1W        W41834   5.418   8.212   7.389  0.2015 -0.0083  0.2019
    1W        W41835  13.655   5.422   0.027  0.1301 -0.1296 -0.1541
    1W        W41836  10.771  11.519   6.788  0.0062  0.2979  0.1966
    1W        W41837   5.764   5.883   1.178  0.0920 -0.3218 -0.5608
    1W        W41838   3.140  29.396   2.116  0.1597  0.1432 -0.0937
    1W        W41839  13.511   0.393   7.390  0.0651  0.0049  0.0602
    1W        W41840  23.376  11.526   1.607  0.0208 -0.1109 -0.1191
    1W        W41841   6.578   3.821   0.840 -0.2657  0.1864 -0.0234
    1W        W41842  26.807  10.825   9.372  0.4813 -0.0363 -0.2994
    1W        W41843   8.704   6.305   1.772 -0.0715 -0.0974  0.2898
    1W        W41844   8.083  28.976   9.176  0.2167  0.0797 -0.0421
    1W        W41845  10.785  21.757   6.042 -0.0199  0.3888 -0.0209
    1W        W41846   7.555   6.301   7.187  0.2622  0.1057  0.0879
    1W        W41847   1.535   5.719   7.794  0.1680  0.0765 -0.2457
    1W        W41848  12.204  10.010   7.251  0.1749  0.0950 -0.0999
    1W        W41849  29.036   5.833   0.104 -0.0200  0.0919 -0.1683
    1W        W41850  15.758   9.471   3.005  0.3692  0.1282  0.1049
    1W        W41851  26.885   7.969   1.506  0.0764 -0.0370  0.0535
    1W        W41852   6.093   3.845   0.678 -0.1006 -0.0912  0.1198
    1W        W41853  15.132  18.368   0.545 -0.1035  0.0323  0.3883
    1W        W41854   5.311  26.967   6.217 -0.1184 -0.1230  0.3354
    1W        W41855   7.074   4.912   0.439  0.2218 -0.0611  0.2089
    1W        W41856  23.993   8.313   9.109 -0.1241  0.0229  0.2052
    1W        W41857   9.072   6.106   0.198  0.1741  0.2634  0.4076
    1W        W41858  17.646  11.264   7.358 -0.0767 -0.0209  0.0324
    1W        W41859   1.162  25.913   7.306  0.1266 -0.1642  0.0234
    1W        W41860   4.451  15.897   1.808  0.2541  0.1925  0.2710
    1W        W41861   5.740   4.727   1.607 -0.0673  0.0776 -0.0541
    1W        W41862  26.594   8.950   2.330  0.1278 -0.4079 -0.0102
    1W        W41863   8.075  29.101   7.853 -0.1596 -0.0832  0.2328
    1W        W41864  27.349   9.877   7.167 -0.3448 -0.0341 -0.5043
    1W        W41865  19.353  19.173   2.452 -0.0037 -0.0359  0.2329
    1W        W41866   2.953  13.515   7.742 -0.2329  0.1846 -0.1581
    1W        W41867   7.891  27.139   7.810  0.0759 -0.0244 -0.1179
    1W        W41868  19.144  27.437   1.905  0.1270  0.0311 -0.0988
    1W        W41869   0.904  25.155   3.600 -0.2671  0.2074  0.1518
    1W        W41870  29.587   6.657   0.364  0.3465 -0.3380 -0.0598
    1W        W41871  17.182  29.058   2.804  0.3438 -0.1008  0.2127
    1W        W41872   3.049   1.888   1.373 -0.0660 -0.1375  0.0832
    1W        W41873  28.579   3.047   8.972  0.0445 -0.0805  0.0105
    1W        W41874  13.053  10.713   8.285 -0.0952 -0.2056 -0.2985
    1W        W41875  20.838   8.168   7.926 -0.2025  0.0625  0.0852
    1W        W41876   6.567   8.284   2.250  0.2897  0.1855  0.2164
    1W        W41877  21.840   2.869   8.929 -0.1173 -0.0246  0.0803
    1W        W41878  21.794  16.606   0.195  0.0564 -0.2132  0.2176
    1W        W41879  10.719  23.844   2.903  0.0889  0.2877 -0.0239
    1W        W41880  15.392  16.876   9.025  0.5505  0.0880  0.2992
    1W        W41881  18.660  20.827   2.616 -0.1210 -0.0218 -0.1132
    1W        W41882  17.307  11.216   9.114 -0.0961  0.0956 -0.1599
    1W        W41883  11.393  28.294   2.730  0.2911 -0.1627  0.2595
    1W        W41884   5.265   2.752   8.861 -0.1676  0.0797 -0.1239
    1W        W41885  28.760  20.303   7.784  0.0150 -0.0822 -0.1007
    1W        W41886  13.950  15.422   9.610  0.0665  0.0911 -0.0267
    1W        W41887   0.473  21.876   8.456 -0.1865 -0.2410 -0.2765
    1W        W41888  27.750  25.711   0.388 -0.3285 -0.0909 -0.0784
    1W        W41889  25.261  18.468   8.303  0.1148  0.0563 -0.0513
    1W        W41890  25.705  22.474   7.965 -0.0063 -0.0471  0.0759
    1W        W41891  26.966  16.837   7.425 -0.1394  0.1026  0.1544
    1W        W41892  11.263  22.268   8.763 -0.3303 -0.0959  0.0236
    1W        W41893  12.432  11.941   7.689 -0.0047  0.1222 -0.0088
    1W        W41894   0.154  29.499   0.856 -0.4158 -0.1932 -0.2452
    1W        W41895  11.673  13.818   1.106  0.0758 -0.2268 -0.0555
    1W        W41896  14.263  20.823   7.844  0.0819  0.1582  0.2352
    1W        W41897  27.866  21.991   2.997 -0.0707  0.2620 -0.2715
    1W        W41898  13.391  21.414   2.298 -0.2603 -0.0105  0.0472
    1W        W41899  13.304  28.101   7.057 -0.1331 -0.0996 -0.4267
    1W        W41900  10.016  25.582   6.515  0.0247 -0.1585  0.1434
    1W        W41901  13.634  10.430   9.495 -0.0795  0.0236  0.1618
    1W        W41902  13.647   0.728   1.606 -0.0623  0.0762  0.3677
    1W        W41903  14.836  24.982   0.708  0.2845  0.2343  0.1944
    1W        W41904  20.959   8.354   0.909 -0.2396 -0.3019  0.1290
    1W        W41905  27.390   5.798   7.950 -0.1543 -0.0120 -0.0240
    1W        W41906   9.953  21.986   1.812  0.1525  0.2129 -0.1119
    1W        W41907  28.922  12.512   8.628 -0.2613 -0.1311  0.0258
    1W        W41908  19.561  15.944   0.895  0.1646 -0.4053 -0.0766
    1W        W41909   3.667  18.551   7.093  0.3367 -0.0045 -0.4678
    1W        W41910   3.961   7.437   7.409 -0.0416 -0.2244 -0.1610
    1W        W41911  23.003  27.282   0.322  0.1426 -0.1278 -0.1468
    1W        W41912   4.807  26.610   7.693  0.0915 -0.0621 -0.2775
    1W        W41913  12.007  15.097   8.835 -0.1592  0.0907  0.0274
    1W        W41914  11.510  20.280   8.236  0.1239 -0.0703  0.0353
    1W        W41915   5.184  10.303   6.107  0.2306 -0.1534 -0.0379
    1W        W41916  23.929  15.716   0.259 -0.1320 -0.1286  0.0475
    1W        W41917   4.407   3.040   1.998  0.0726  0.1183 -0.1294
    1W        W41918  10.749  13.775   6.147 -0.4308  0.1672 -0.1830
    1W        W41919  22.507  17.328   2.106  0.0725 -0.0230  0.0417
    1W        W41920   4.765   2.326   0.662 -0.2216  0.0141 -0.1952
    1W        W41921  18.802  21.358   3.133 -0.0396  0.0044 -0.1587
    1W        W41922  17.702  12.367   2.152  0.0838 -0.0468 -0.1757
    1W        W41923  29.557  11.656   7.341 -0.2163  0.3147  0.1198
    1W        W41924  16.929  17.563   7.380  0.3786 -0.3471 -0.2280
    1W        W41925   1.152   4.489   7.967 -0.1720 -0.0497 -0.0868
    1W        W41926  13.333  13.119   8.848 -0.1177  0.0737 -0.1993
    1W        W41927  17.019  15.222   9.289 -0.1888 -0.1354 -0.0482
    1W        W41928   5.355  10.485   7.477 -0.0069  0.0801 -0.0498
    1W        W41929  11.968  15.239   9.337  0.0097  0.0084  0.2760
    1W        W41930  20.358   0.507   0.769  0.5844  0.4432  0.3361
    1W        W41931   8.469  24.684   7.140 -0.3761  0.0412 -0.0205
    1W        W41932  12.579  12.982   5.842 -0.1946 -0.2846  0.1069
    1W        W41933  11.802  12.513   1.479 -0.3755 -0.0436 -0.0452
    1W        W41934  28.879  28.412   0.977  0.1087  0.0612  0.0691
    1W        W41935  10.880  24.803   0.482  0.1402 -0.0633 -0.0804
    1W        W41936  12.561   0.710   8.962 -0.1030  0.1434  0.3743
    1W        W41937  10.751   2.514   1.417  0.1258  0.1865  0.0740
    1W        W41938  24.220  17.400   2.075 -0.1133  0.0285  0.1017
    1W        W41939  25.387   9.344   7.895 -0.0550 -0.2278 -0.4001
    1W        W41940  24.539  25.172   3.227 -0.1075 -0.0188  0.1114
    1W        W41941  28.989  15.446   0.810 -0.0830  0.2360  0.1325
    1W        W41942  11.038  20.552   0.928 -0.4929  0.0173 -0.5281
    1W        W41943  14.526   0.267   7.061  0.2108  0.2250  0.0813
    1W        W41944  13.543  17.624   8.000  0.0516  0.0154 -0.2827
    1W        W41945  19.953  10.177   2.343  0.1245  0.0012  0.1541
    1W        W41946  16.790  26.798   3.731 -0.1349  0.3115  0.1486
    1W        W41947  13.832  14.630   8.932 -0.2484 -0.0920 -0.2181
    1W        W41948  24.439  27.143   0.125  0.1480 -0.0396 -0.0405
    1W        W41949   8.111  21.227   1.201  0.0159 -0.0006 -0.2118
    1W        W41950   2.374  26.985   8.861 -0.1191  0.2075 -0.3678
    1W        W41951  20.612   5.941   1.679  0.0912 -0.0730  0.0679
    1W        W41952  12.066  25.634   2.436  0.1510 -0.0380  0.1018
    1W        W41953  21.975  27.771   0.917 -0.2008  0.0829 -0.0211
    1W        W41954  23.861  20.429   8.040  0.2912  0.1902  0.0366
    1W        W41955  19.560   2.995   0.069  0.1196  0.1703  0.2304
    1W        W41956  29.276   1.431   8.723  0.2715  0.0339 -0.1407
    1W        W41957  17.645  25.533   7.887 -0.1317  0.0586  0.1233
    1W        W41958  12.076  17.497   9.052 -0.2701  0.0371 -0.2287
    1W        W41959  13.813  18.599   8.789 -0.2056  0.1866  0.3543
    1W        W41960   4.511   8.251   1.477  0.0472 -0.4406 -0.0467
    1W        W41961  17.150  27.085   7.584  0.1876  0.2002 -0.0529
    1W        W41962  12.171  27.407   7.477 -0.0285  0.1205 -0.3357
    1W        W41963  11.699   2.709   2.645 -0.0982  0.2177 -0.1001
    1W        W41964  25.714  28.062   3.624  0.1883 -0.2708 -0.0457
    1W        W41965   6.164  25.582   0.705 -0.5018  0.2049 -0.0188
    1W        W41966   1.185   8.189   8.308  0.0625  0.0709  0.0826
    1W        W41967  18.922  21.041   9.506 -0.0922 -0.1293  0.0880
    1W        W41968  10.070  22.484   1.357  0.0960 -0.2431  0.0995
    1W        W41969  19.597  20.857   0.780  0.0517  0.1907 -0.0215
    1W        W41970   2.679  21.704   2.577 -0.0077  0.0677 -0.0030
    1W        W41971   6.024   5.255   8.402  0.0217 -0.3202 -0.2277
    1W        W41972  13.283   2.143   9.094  0.2473 -0.1390 -0.0332
    1W        W41973  24.953   5.246   2.696  0.1820  0.0104  0.0842
    1W        W41974  13.056  25.239   0.701 -0.4362 -0.2074 -0.0035
    1W        W41975  18.230   1.260   1.604  0.3595 -0.2323 -0.3034
    1W        W41976  13.566   6.300   9.375  0.2180  0.3052 -0.0112
    1W        W41977   7.689  23.941   7.829  0.0540 -0.0829  0.1813
    1W        W41978  23.373  29.413   2.577  0.0042  0.3244 -0.1153
    1W        W41979  27.612  26.443   3.016 -0.2132  0.3607 -0.0916
    1W        W41980   6.660  15.334   9.032 -0.1231  0.0423 -0.0109
    1W        W41981  25.447  24.300   2.244 -0.3077  0.0154  0.2567
    1W        W41982  29.539  22.133   9.599  0.1859 -0.0360  0.2239
    1W        W41983  23.347  23.050   1.942  0.2028  0.0574 -0.3176
    1W        W41984   2.002  12.474   1.609 -0.0074  0.0324 -0.1264
    1W        W41985   5.639   4.091   7.250  0.1444 -0.1887 -0.3356
    1W        W41986  27.338  26.697   7.702 -0.2916 -0.2092 -0.3437
    1W        W41987  14.886  29.523   8.419  0.0651  0.2767 -0.0309
    1W        W41988  28.564   7.514   6.889  0.0216 -0.2522  0.0259
    1W        W41989  28.699   2.445   9.602 -0.2863  0.1629  0.0975
    1W        W41990   4.370   0.859   7.540 -0.2532 -0.1411  0.0490
    1W        W41991  14.237  28.250   0.895 -0.0664  0.0422 -0.0107
    1W        W41992  21.618  20.483   7.533 -0.0079  0.0036 -0.1145
    1W        W41993  28.276  21.748   1.117 -0.1423 -0.1001  0.1842
    1W        W41994   8.039  29.359   7.377 -0.1429  0.1509 -0.1186
    1W        W41995  27.525  15.911   7.855  0.2498  0.0352  0.2446
    1W        W41996  28.197   6.822   9.122  0.1567  0.1148  0.2462
    1W        W41997   9.605   5.937   6.176  0.1176  0.1805  0.1614
    1W        W41998  19.962  27.332   7.958  0.0724  0.2627  0.0457
    1W        W41999  14.456  12.025   1.661  0.1118  0.1532 -0.1146
    1W        W42000   2.472  28.880   1.428 -0.1659 -0.1123  0.1531
    1W        W42001  16.633   6.515   8.028 -0.2408 -0.0676  0.2624
    1W        W42002  26.905  21.054   4.151  0.0710 -0.0410 -0.2016
    1W        W42003  25.231  18.801   2.301  0.1020  0.0671  0.2027
    1W        W42004  11.023  29.179   0.229 -0.0508  0.1914  0.0204
    1W        W42005  15.810   3.403   1.977  0.1281 -0.1766 -0.1243
    1W        W42006  23.548   5.741   9.645 -0.1273 -0.2366 -0.2860
    1W        W42007  14.497   3.024   1.002  0.2831 -0.0432  0.0366
    1W        W42008  23.706  24.285   7.906 -0.1393 -0.0183 -0.0592
    1W        W42009  29.620   8.484   0.467 -0.2458 -0.0292  0.0056
    1W        W42010  15.504  26.139   1.485 -0.1054  0.1948  0.1624
    1W        W42011  12.351  16.120   7.239 -0.1485 -0.0980  0.2893
    1W        W42012  18.081   1.652   1.102  0.1599 -0.0341  0.0448
    1W        W42013   7.679  24.603   9.252  0.1169 -0.1055  0.0177
    1W        W42014  28.308  20.996   9.472  0.2403  0.1000 -0.3295
    1W        W42015  25.792  18.664   7.485  0.2947 -0.1651 -0.2414
    1W        W42016  14.339  26.591   9.107 -0.2172  0.0244 -0.2238
    1W        W42017  13.234  20.351   8.378  0.0129  0.1231 -0.3743
    1W        W42018   1.637  10.790   9.412 -0.0473  0.0590 -0.0452
    1W        W42019   0.110  22.253   1.994 -0.0991 -0.0147 -0.2203
    1W        W42020  21.149   1.943   7.244  0.1242  0.2223  0.1466
    1W        W42021   9.231  16.892   1.531 -0.3978  0.4463  0.1702
    1W        W42022  26.466   5.427   0.753 -0.1588 -0.1158  0.1758
    1W        W42023  13.048  19.218   6.474 -0.0588  0.1537 -0.0781
    1W        W42024  24.636  23.657   2.397  0.0395 -0.3079  0.1706
    1W        W42025  26.007  28.069   2.999 -0.0663 -0.0083 -0.0290
    1W        W42026   2.497   4.130   9.202  0.0814 -0.1132 -0.1875
    1W        W42027  10.296   7.363   7.275  0.1572  0.0224  0.1039
    1W        W42028  10.183  20.013   6.338  0.0419  0.0050 -0.2141
    1W        W42029  22.002  18.900   9.541 -0.1831 -0.0170  0.1019
    1W        W42030   6.775  11.913   9.050  0.1009 -0.2365  0.2454
    1W        W42031   7.341  19.245   2.189  0.2073 -0.0801  0.0189
    1W        W42032  19.511   4.530   2.675 -0.2106  0.1855 -0.0956
    1W        W42033  19.243  13.557   9.600  0.1916 -0.1053 -0.1373
    1W        W42034   6.797  17.733   6.980 -0.0666  0.1638 -0.1230
    1W        W42035  11.150   1.146   2.035  0.0284 -0.1941 -0.1062
    1W        W42036  18.866  28.936   2.217  0.1881 -0.2626 -0.0419
    1W        W42037   5.588  10.058   7.515 -0.3841 -0.0920 -0.0789
    1W        W42038  10.755  22.902   8.190  0.1802 -0.0178 -0.3725
    1W        W42039  10.865  17.615   6.771 -0.2134 -0.3141 -0.1457
    1W        W42040  20.864  19.066   2.947  0.1427  0.1046 -0.1018
    1W        W42041  13.155  14.507   2.204  0.2032 -0.1741 -0.1226
    1W        W42042  14.043   3.725   1.359  0.1209  0.2287 -0.2964
    1W        W42043  18.218  23.035   0.369  0.0649 -0.0606  0.3384
    1W        W42044  23.371   5.686   7.936 -0.0329  0.0463 -0.1348
    1W        W42045  11.883  23.886   9.159 -0.3142 -0.2913  0.1274
    1W        W42046  17.683   7.401   9.649 -0.1937 -0.0668 -0.2739
    1W        W42047  28.787  26.296   9.367 -0.0771 -0.0792 -0.1611
    1W        W42048  19.867  17.838   1.312 -0.1991 -0.0121 -0.1904
    1W        W42049  28.458   3.548   1.193 -0.0501  0.0988 -0.1456
    1W        W42050   8.037  18.625   7.294  0.0834 -0.0801  0.0875
    1W        W42051  22.022  19.744   8.047  0.0711 -0.2181 -0.1131
    1W        W42052   5.118   7.577   5.533 -0.0939  0.4322  0.0083
    1W        W42053  11.847  13.860   2.408 -0.4479 -0.0726 -0.0378
    1W        W42054  27.770   4.898   7.343  0.1660 -0.3307 -0.2609
    1W        W42055  22.526   6.892   7.832  0.0439  0.0968 -0.0938
    1W        W42056  22.500  29.328   9.214  0.2132 -0.0206  0.0256
    1W        W42057  19.269  29.203   2.368 -0.0369 -0.1321  0.1431
    1W        W42058  25.256   3.471   8.606  0.3010 -0.1912  0.0071
    1W        W42059  15.508  24.518   2.493  0.1184  0.3439  0.2226
    1W        W42060  21.893   7.469   1.848 -0.1279 -0.0314  0.2824
    1W        W42061   3.530  21.634   8.128 -0.0361  0.1029 -0.5531
    1W        W42062   8.529   4.759   1.612  0.3671 -0.2098 -0.0858
    1W        W42063  23.031  23.034   0.230  0.2539  0.2147 -0.0473
    1W        W42064   6.375  22.187   1.655 -0.2025  0.1048 -0.0190
    1W        W42065  13.391   3.505   0.254  0.2165  0.2428 -0.2977
    1W        W42066   0.993  18.500   3.617  0.1268 -0.0237 -0.1209
    1W        W42067   4.315  23.031   1.340 -0.2172  0.1544  0.0406
    1W        W42068  18.234  11.895   1.532  0.0087  0.0209  0.1908
    1W        W42069  14.024  15.795   8.520 -0.0600 -0.1370  0.0474
    1W        W42070   7.926   6.834   0.432 -0.0656 -0.0469 -0.0425
    1W        W42071  15.190  15.055   7.016  0.3110 -0.2034 -0.3056
    1W        W42072   4.742  19.071   1.693 -0.1366  0.1527  0.1096
    1W        W42073   4.751   9.497   7.104  0.3001  0.1079  0.1283
    1W        W42074  15.741  20.554   1.945  0.1445  0.0879  0.2535
    1W        W42075  18.426   5.067   0.229  0.0142 -0.1739 -0.0043
    1W        W42076  24.059   6.742   8.506  0.1441  0.1508 -0.1035
    1W        W42077  13.292  13.651   9.018 -0.0357 -0.2123  0.3682
    1W        W42078   0.537   1.048   9.270  0.2436 -0.4472 -0.0434
    1W        W42079  22.603  11.816   9.466  0.0698  0.0629 -0.0818
    1W        W42080   8.245  25.309   7.310 -0.0339 -0.0841  0.1830
    1W        W42081  19.398  12.847   0.512 -0.2798  0.0937  0.0939
    1W        W42082  27.024  24.660   7.895  0.1317 -0.1254  0.1437
    1W        W42083  22.806  17.040   7.833  0.0612 -0.0129 -0.1571
    1W        W42084   5.714  13.504   5.720 -0.2961 -0.1621  0.1486
    1W        W42085   4.509  12.651   6.450 -0.0408  0.1390 -0.1896
    1W        W42086  23.547  25.933   1.666 -0.0051 -0.1403  0.0790
    1W        W42087   4.694  20.258   2.553  0.3440  0.1001 -0.1455
    1W        W42088  16.781  12.819   2.440  0.2192 -0.0198 -0.0056
    1W        W42089  23.778   5.935   8.097 -0.1344  0.2529 -0.0695
    1W        W42090  15.249  14.109   7.330 -0.2009 -0.1449  0.1867
    1W        W42091  14.224  21.753   8.191 -0.0114 -0.2858 -0.0875
    1W        W42092  26.568  26.112   7.545 -0.0003  0.1932 -0.1295
    1W        W42093  26.425   8.848   0.038  0.1460  0.0408  0.1647
    1W        W42094   7.331   6.544   8.324  0.0509  0.0052  0.0264
    1W        W42095  19.273  29.408   0.042 -0.1134  0.2165  0.2169
    1W        W42096  16.318  22.989   0.329 -0.2042 -0.0639  0.0155
    1W        W42097  20.367  25.724   1.994  0.4755  0.3022 -0.1047
    1W        W42098   9.129   1.399   6.586  0.1259  0.2821  0.1540
    1W        W42099   5.246  12.768   6.489 -0.2614  0.0751  0.1642
    1W        W42100  17.012   0.894   1.500  0.1663  0.2271 -0.0779
    1W        W42101  22.961  15.467   2.006 -0.0440  0.1760 -0.0745
    1W        W42102  23.482   4.970   9.339 -0.1906 -0.1661 -0.0445
    1W        W42103   0.740  24.905   0.888  0.1915 -0.1011 -0.2145
    1W        W42104   2.478   2.270   7.685  0.1701  0.0402 -0.0465
    1W        W42105  20.399  18.651   1.821 -0.0159 -0.0657 -0.0790
    1W        W42106   2.044  14.453   2.408  0.2214  0.3159 -0.0603
    1W        W42107  24.003   1.634   8.039  0.2597 -0.0061 -0.3549
    1W        W42108   1.964   9.189   9.630 -0.0067 -0.0291  0.1726
    1W        W42109  16.209  14.270   2.193 -0.0528 -0.0214 -0.0056
    1W        W42110  14.794   5.013   7.328 -0.2227  0.0848 -0.0255
    1W        W42111  26.655  18.123   1.241 -0.0756  0.0144 -0.3609
    1W        W42112  10.793  13.138   8.896  0.0757 -0.1356 -0.0368
    1W        W42113   9.286   3.339   8.961 -0.1817 -0.1861  0.3705
    1W        W42114   9.536   8.685   6.229  0.0138 -0.1219  0.0948
    1W        W42115   1.581  11.985   1.124  0.1186  0.0625  0.0824
    1W        W42116  27.501  25.890   7.034 -0.2337  0.3574  0.2188
    1W        W42117  13.468  10.113   3.383 -0.0465  0.2007 -0.0577
    1W        W42118  11.464   1.634   0.861 -0.2169 -0.2379 -0.0077
    1W        W42119  27.906  19.357   2.955 -0.2524 -0.0320  0.0930
    1W        W42120   9.192  22.974   7.224  0.2426  0.0071  0.1444
    1W        W42121  21.920  11.408   7.480 -0.2725 -0.0202 -0.0476
    1W        W42122   1.619   6.600   6.963  0.2645 -0.1431 -0.0313
    1W        W42123   8.016  27.591   2.108  0.2183 -0.3567 -0.0650
    1W        W42124  23.170  24.187   9.391 -0.0921  0.0327 -0.0228
    1W        W42125  19.690   6.898   9.590 -0.0363  0.0661  0.1517
    1W        W42126  13.162  21.168   6.936 -0.1200  0.0507 -0.0257
    1W        W42127  14.827  20.751   6.605  0.1131 -0.3391 -0.0247
    1W        W42128   6.763  21.893   2.454 -0.1152 -0.1409  0.0543
    1W        W42129   9.060  24.208   6.675  0.0389  0.0414  0.1884
    1W        W42130  24.867  16.621   3.060 -0.0819  0.1178 -0.1962
    1W        W42131   0.607   8.300   7.246  0.0449 -0.0754 -0.0157
    1W        W42132  17.479   6.160   9.084 -0.1417  0.2361 -0.1849
    1W        W42133   1.303   3.493   2.316  0.1874 -0.0089  0.0160
    1W        W42134  17.700   1.409   0.821  0.0023  0.0352  0.2990
    1W        W42135   6.474   5.468   0.331 -0.1291 -0.1044 -0.1324
    1W        W42136  14.465   6.157   0.268  0.5203  0.0956 -0.4092
    1W        W42137  20.118  26.100   4.034  0.1183  0.2919  0.4398
    1W        W42138  26.193  23.372   9.009 -0.2492  0.2398  0.2376
    1W        W42139  16.085  19.312   8.482 -0.2466  0.0385 -0.2736
    1W        W42140   7.711  22.436   2.302 -0.1634  0.2667  0.3763
    1W        W42141   1.516   4.976   9.568  0.0225  0.2783 -0.1200
    1W        W42142   3.305  26.959   0.678  0.0663 -0.0378  0.0211
    1W        W42143   5.566   9.555   5.562  0.2630 -0.1575  0.1427
    1W        W42144  11.227   8.682   0.249  0.2446  0.0181 -0.1790
    1W        W42145   7.541  25.115   9.494 -0.3498  0.1861 -0.0965
    1W        W42146   3.096   6.659   7.093 -0.1078  0.2190  0.0708
    1W        W42147  15.118  29.313   7.484 -0.1120  0.0020  0.2822
    1W        W42148  16.296   1.446   6.664  0.1739  0.0248 -0.0712
    1W        W42149  26.190   1.117   8.607  0.3686 -0.2776 -0.1975
    1W        W42150   8.093  24.687   7.554  0.1915  0.0112  0.0115
    1W        W42151  26.141  16.011   1.836  0.1656 -0.1227  0.0968
    1W        W42152  11.155  18.997   8.416  0.2041  0.2957  0.2532
    1W        W42153  17.970  23.486   6.903 -0.0716  0.1331 -0.0520
    1W        W42154  23.855   6.954   1.336  0.0267 -0.0165  0.1981
    1W        W42155  27.609  24.822   0.893 -0.2429 -0.1467  0.0058
    1W        W42156  24.490  28.204   7.734 -0.1590  0.2323  0.0998
    1W        W42157  26.984  21.064   0.176 -0.3455 -0.0256 -0.0406
    1W        W42158  20.359  13.317   3.067  0.0743 -0.2517  0.1462
    1W        W42159   7.711  10.642   6.120 -0.0555 -0.2455  0.0686
    1W        W42160  28.653  10.589   8.729 -0.0597 -0.0460 -0.0573
    1W        W42161  18.769  11.128   8.013  0.3592  0.4990  0.2156
    1W        W42162  18.576  28.309   0.353  0.2598 -0.0106  0.2525
    1W        W42163   7.519  24.518   0.607 -0.0182  0.0634 -0.0073
    1W        W42164  26.514  27.439   1.724 -0.0171  0.0000 -0.1993
    1W        W42165  28.023  16.592   2.291  0.0019 -0.3063  0.2076
    1W        W42166   8.150  19.790   1.187 -0.2611  0.2964 -0.2343
    1W        W42167   5.974  18.353   1.407  0.2412  0.4557 -0.4189
    1W        W42168  11.172  16.878   7.040 -0.0052  0.1833  0.0328
    1W        W42169  18.819  11.450   2.457 -0.1486 -0.0217  0.1110
    1W        W42170   8.215  13.097   9.465  0.1523 -0.0804 -0.5239
    1W        W42171   1.919  24.096   0.886 -0.0561 -0.2738  0.0594
    1W        W42172  15.595  18.781   7.907  0.0693 -0.0287  0.1366
    1W        W42173  24.235   6.129   1.337 -0.0639  0.0114  0.0995
    1W        W42174  29.438  20.977   7.890 -0.4802  0.2487 -0.2304
    1W        W42175  29.334  19.149   8.289 -0.0272 -0.0181 -0.5392
    1W        W42176   9.409   8.794   8.543  0.0703 -0.1066 -0.3831
    1W        W42177  19.034  22.314   7.949 -0.0504 -0.0476 -0.2076
    1W        W42178  26.396  16.025   1.360  0.1213  0.1626  0.2418
    1W        W42179  27.663   0.339   7.843 -0.0569  0.0257  0.0199
    1W        W42180  16.679  19.583   1.829 -0.1067  0.0553 -0.2319
    1W        W42181  19.265  20.942   9.006 -0.1846  0.3506  0.1858
    1W        W42182   0.640  14.140   7.883 -0.1641 -0.0065  0.2401
    1W        W42183  15.222   2.151   8.980 -0.0889 -0.0470  0.1133
    1W        W42184  20.836  29.543   9.551 -0.0000  0.1149 -0.0009
    1W        W42185   8.601  13.339   8.128  0.2215 -0.0402 -0.1444
    1W        W42186   8.059  24.383   0.780 -0.0697 -0.0462 -0.1667
    1W        W42187  19.274  11.758   2.418 -0.2385 -0.1498  0.3563
    1W        W42188  27.084  16.536   0.067  0.0442 -0.0733 -0.2476
    1W        W42189  19.828  27.872   8.038 -0.0328 -0.0670 -0.0629
    1W        W42190  10.443  25.969   8.995  0.1212  0.0571  0.0066
    1W        W42191  18.261  12.652   2.010 -0.3344 -0.2011 -0.0039
    1W        W42192   4.041  18.183   1.819  0.1328 -0.0261 -0.0661
    1W        W42193   4.957   3.122   7.777  0.0051  0.0952  0.0943
    1W        W42194  11.675   3.448   9.090  0.1134  0.0936  0.0707
    1W        W42195  21.721   1.598   0.705 -0.0350  0.1790 -0.0513
    1W        W42196  29.525  26.528   2.128  0.1119 -0.2820  0.4561
    1W        W42197   9.668  15.028   2.006  0.0603  0.0110 -0.2199
    1W        W42198  14.667  10.598   6.330  0.2382  0.2058  0.1540
    1W        W42199  28.203  26.691   0.451 -0.0630  0.0166  0.1118
    1W        W42200   3.734  25.126   1.112 -0.2155  0.2744 -0.0253
    1W        W42201  13.385  15.098   7.061  0.2057 -0.0170  0.1868
    1W        W42202  27.937  23.440   2.696  0.3113  0.0449 -0.1427
    1W        W42203  12.533  21.486   0.772 -0.3528  0.2218 -0.0088
    1W        W42204   0.139  19.508   9.549 -0.2781  0.0693  0.0687
    1W        W42205  16.053  15.577   9.582  0.1925 -0.1195  0.0335
    1W        W42206   7.191   1.759   0.778 -0.1491  0.0140 -0.0289
    1W        W42207   0.070  26.677   6.729  0.2570 -0.0060  0.2595
    1W        W42208   4.071   7.871   6.485 -0.2361 -0.0276 -0.0620
    1W        W42209  14.396  12.673   7.138  0.0763 -0.0300  0.1220
    1W        W42210  27.380   3.070   7.770 -0.0069 -0.1484  0.0143
    1W        W42211   9.683   2.689   0.313 -0.0103 -0.0150 -0.0372
    1W        W42212   2.609   4.886   7.379  0.1037  0.1249  0.1315
    1W        W42213   2.321  20.178   3.127 -0.1836  0.1528  0.0429
    1W        W42214  26.629  18.773   7.829 -0.4518 -0.0984  0.0594
    1W        W42215   0.186   6.305   0.746 -0.1412  0.2420  0.0635
    1W        W42216   4.479   8.163   8.732  0.0278  0.1557  0.0472
    1W        W42217   8.349  17.312   2.613  0.2729 -0.0715  0.2178
    1W        W42218   2.530  11.329   1.342  0.0992  0.2043  0.1301
    1W        W42219  14.230  24.489   7.218 -0.3382 -0.0263  0.0145
    1W        W42220   4.731   6.502   8.860 -0.2201  0.1687 -0.0903
    1W        W42221  17.914   4.051   2.374  0.3518  0.0503 -0.0902
    1W        W42222   0.463  16.844   9.069  0.1002 -0.1019  0.0720
    1W        W42223  21.656  20.255   6.805  0.0725  0.2790  0.3214
    1W        W42224  16.527  13.534   2.915  0.0592 -0.3068 -0.0484
    1W        W42225   0.506  22.874   2.513  0.4178 -0.1259 -0.0613
    1W        W42226  16.392  25.309   9.465 -0.0556 -0.0497  0.2478
    1W        W42227  13.635  23.033   9.579 -0.2994 -0.2221  0.0432
    1W        W42228  24.030  21.158   0.366  0.1445  0.1471 -0.0070
    1W        W42229  25.517  18.059   9.570  0.4599  0.1131  0.3337
    1W        W42230  22.007   0.638   1.069 -0.1342 -0.1308  0.0970
    1W        W42231   9.119  16.843   2.133 -0.0526  0.0363  0.1330
    1W        W42232  15.662  15.017   1.351  0.0284  0.0352  0.2286
    1W        W42233   4.203   5.880   9.276  0.0998  0.0151 -0.2741
    1W        W42234   4.525  29.230   0.079  0.0611  0.1124 -0.2029
    1W        W42235  21.829  20.319   8.023  0.0801  0.1270 -0.2212
    1W        W42236   2.147  14.433   1.803 -0.1173 -0.0252 -0.0736
    1W        W42237   7.227  11.450   5.950 -0.1317 -0.1124  0.2088
    1W        W42238  25.022  17.032   7.449 -0.0758 -0.0272 -0.0136
    1W        W42239   6.413  19.275   0.665 -0.0082  0.0392  0.0487
    1W        W42240  22.107  12.580   9.289  0.0963 -0.2380 -0.2419
    1W        W42241   4.407   1.828   8.504 -0.0413 -0.0504  0.0471
    1W        W42242  10.615   7.914   2.268 -0.2587 -0.0788  0.3013
    1W        W42243   6.765   8.107   0.470  0.1282 -0.0473 -0.1617
    1W        W42244  12.834  21.315   2.996  0.0605  0.2314 -0.0240
    1W        W42245  22.457  19.500   8.116  0.0844  0.0845  0.1244
    1W        W42246  14.913   5.880   7.198 -0.3094 -0.1323 -0.0102
    1W        W42247   5.627  20.500   7.267 -0.0918  0.1655 -0.0341
    1W        W42248  18.865  25.097   8.808 -0.1832 -0.0811  0.2242
    1W        W42249   0.277  17.882   8.534 -0.0219 -0.0383  0.0151
    1W        W42250  21.253   4.131   1.244  0.1693 -0.0359 -0.0249
    1W        W42251  17.283   5.454   8.527  0.2144  0.0724 -0.1807
    1W        W42252  11.630  15.160   0.195  0.0980 -0.1661 -0.1591
    1W        W42253   7.400   9.834   0.985 -0.2368  0.0891  0.2189
    1W        W42254  13.877  11.118   2.217  0.0219  0.0793 -0.2112
    1W        W42255   9.355  12.047   0.915 -0.0767 -0.0139 -0.1618
    1W        W42256   9.686   8.276   8.676  0.0912  0.0444  0.3677
    1W        W42257   5.059   9.707   1.989 -0.1352  0.1071 -0.2824
    1W        W42258  11.921  17.165   8.668 -0.0284 -0.0245  0.0585
    1W        W42259  22.114   8.582   8.789  0.0013  0.1864  0.0577
    1W        W42260  18.650  12.715   7.903 -0.0762 -0.0588  0.1177
    1W        W42261  17.524  12.071   7.886  0.1588 -0.0211  0.1116
    1W        W42262  25.290   4.907   1.522 -0.2281  0.0021  0.0115
    1W        W42263  27.432  25.372   2.329  0.1944  0.2677 -0.0432
    1W        W42264  20.935   2.201   2.409  0.3110 -0.0098  0.0913
    1W        W42265  22.803   1.371   0.374 -0.0168  0.1221 -0.0179
    1W        W42266  19.518  25.773   9.261 -0.1069 -0.1465 -0.0220
    1W        W42267  22.874  16.447   1.502 -0.1786  0.0335 -0.0215
    1W        W42268  24.813  26.980   0.988 -0.2294 -0.3522  0.0331
    1W        W42269   5.025  19.936   2.763 -0.0570  0.1975 -0.0207
    1W        W42270  18.247   3.717   7.581 -0.0266 -0.0464 -0.1288
    1W        W42271  29.050  16.561   2.052 -0.0150  0.1663 -0.0893
    1W        W42272  10.135  28.388   7.916  0.4741  0.2274  0.2162
    1W        W42273  12.866  10.436   0.683  0.1009  0.1024  0.0564
    1W        W42274  12.087   6.930   7.254  0.1044  0.5831 -0.1500
    1W        W42275  12.936   6.003   0.599  0.0417 -0.3293 -0.0839
    1W        W42276  17.729  10.942   0.777 -0.2510 -0.0321  0.0105
    1W        W42277  15.993   9.795   7.354  0.2610  0.1632  0.1197
    1W        W42278   1.866   0.713   8.346  0.2961  0.1780  0.0709
    1W        W42279  11.776   3.774   6.616  0.0145  0.1814 -0.1366
    1W        W42280   0.934  19.204   1.352 -0.2063  0.2888  0.1879
    1W        W42281   6.064  29.529   0.850 -0.0956 -0.5790 -0.3180
    1W        W42282   4.777  10.957   5.730  0.0837 -0.1529  0.0744
    1W        W42283  24.706  17.340   9.231 -0.0375 -0.1808  0.0077
    1W        W42284   4.020  27.701   9.002 -0.0111 -0.0761  0.0763
    1W        W42285  13.174  20.517   1.634 -0.2289  0.0292 -0.0275
    1W        W42286   7.976  24.140   8.477 -0.1154 -0.0500  0.0244
    1W        W42287  23.462  21.679   3.989 -0.2199 -0.2015 -0.0475
    1W        W42288   4.487  25.051   3.575 -0.1034 -0.1184 -0.0157
    1W        W42289   3.761   9.764   6.708 -0.1759  0.0027 -0.1461
    1W        W42290  24.604  20.640   7.858  0.0863 -0.3152  0.0656
    1W        W42291  26.308   3.378   8.374 -0.0868  0.0800  0.2721
    1W        W42292   9.583  11.142   8.586 -0.2197 -0.1102  0.2683
    1W        W42293  16.170   3.246   7.291 -0.1194 -0.2054 -0.2068
    1W        W42294  15.022  17.795   8.386  0.3227  0.1828 -0.0283
    1W        W42295   3.348  26.307   8.168  0.0274 -0.1808 -0.2740
    1W        W42296   0.267  20.807   3.855 -0.0208 -0.0857 -0.6187
    1W        W42297  12.013  10.618   7.224  0.6529 -0.0444 -0.2258
    1W        W42298  24.890  20.939   0.970 -0.1515  0.2002 -0.0609
    1W        W42299   1.249  28.502   8.190 -0.0388  0.0696 -0.2004
    1W        W42300  26.976   2.927   9.332  0.0777  0.0816  0.3023
    1W        W42301  21.269  12.837   0.412 -0.3181  0.0044  0.1547
    1W        W42302  19.973  19.456   0.203  0.1953  0.0933  0.2424
    1W        W42303   7.603  11.683   8.601 -0.0334  0.0614 -0.0841
    1W        W42304  15.140  24.722   7.552  0.1799 -0.1675  0.1816
    1W        W42305   0.641  21.372   1.805  0.0947  0.0242  0.0562
    1W        W42306  18.504  26.618   2.871  0.1944 -0.1136  0.2096
    1W        W42307  20.172  23.361   7.742  0.0014  0.1283  0.0340
    1W        W42308  12.191  24.150   8.263  0.1396 -0.3583  0.2915
    1W        W42309  15.134  26.141   9.501 -0.0699  0.1879 -0.1662
    1W        W42310   4.011  29.095   1.380 -0.4278  0.1795  0.1020
    1W        W42311  16.164  21.476   7.968  0.1076 -0.0228 -0.4276
    1W        W42312  22.082  23.434   1.139  0.1571 -0.1381  0.2102
    1W        W42313   1.030  27.686   9.382 -0.2768  0.0120 -0.1041
    1W        W42314  22.250  19.092   3.256 -0.1376 -0.2718 -0.0401
    1W        W42315  28.339  14.230   0.992  0.2102 -0.0862  0.0206
    1W        W42316  28.669  10.092   7.470 -0.1559  0.0747 -0.0400
    1W        W42317  18.362  24.198   2.966  0.1293 -0.0652  0.0537
    1W        W42318  26.294  21.889   1.726  0.1158  0.1377 -0.1987
    1W        W42319  15.970  27.843   1.275  0.2048  0.1603 -0.0882
    1W        W42320  26.285  11.446   8.741  0.0132 -0.0221 -0.1316
    1W        W42321   3.655  29.358   2.151 -0.1674 -0.0736 -0.1843
    1W        W42322   8.880   5.520   1.394  0.2855  0.3307 -0.0233
    1W        W42323  22.733  21.834   0.047  0.0533  0.1727  0.0721
    1W        W42324   3.539   0.099   7.844 -0.0038 -0.0061 -0.2151
    1W        W42325   7.197  17.129   1.078  0.0025 -0.1632  0.2543
    1W        W42326   7.914   8.503   7.408  0.1124 -0.1402  0.2912
    1W        W42327  19.781   7.370   0.701  0.1730 -0.2823 -0.0458
    1W        W42328   2.440  16.556   1.780  0.0655 -0.1311 -0.3044
    1W        W42329   6.893  14.743   0.901  0.0163  0.0334 -0.0359
    1W        W42330   4.341  24.091   0.406 -0.1692  0.0675  0.1629
    1W        W42331  16.802  13.101   9.191 -0.0653 -0.0135 -0.3129
    1W        W42332   9.308  28.519   8.439  0.2482 -0.0908 -0.4532
    1W        W42333  28.158  11.191   1.119 -0.0543 -0.3024  0.1108
    1W        W42334  24.273  11.160   1.621  0.1873 -0.0039 -0.1736
    1W        W42335   9.484   0.621   2.129 -0.0606 -0.0983 -0.0605
    1W        W42336   9.631   0.632   7.413  0.0380 -0.0560 -0.0120
    1W        W42337   3.262  21.215   8.083  0.3862 -0.1754  0.0318
    1W        W42338   4.415  13.954   6.819 -0.3557 -0.1669 -0.1167
    1W        W42339  10.647  17.218   0.969 -0.0067  0.1493  0.1110
    1W        W42340  26.559  20.549   8.057 -0.2021 -0.0620  0.2265
    1W        W42341   7.108  29.206   2.060  0.3350 -0.2395 -0.2220
    1W        W42342  17.468  15.821   3.214  0.1502  0.2860 -0.0461
    1W        W42343  21.888  13.841   2.304  0.1432  0.0193 -0.3163
    1W        W42344   8.139   8.207   7.003  0.4993 -0.0582  0.0864
    1W        W42345  27.654  14.797   0.371 -0.2721  0.0600  0.2113
    1W        W42346  26.816  23.032   2.155  0.1939  0.0276 -0.2742
    1W        W42347   8.043   0.223   0.863  0.3773 -0.0879  0.0454
    1W        W42348  16.549  12.156   1.225 -0.3999  0.0633  0.2179
    1W        W42349  12.975  19.544   5.464 -0.0937  0.1257  0.0670
    1W        W42350  29.296  20.811   4.402 -0.0827  0.5321 -0.0921
    1W        W42351  16.244  13.986   7.994  0.0491  0.0352 -0.2266
    1W        W42352   4.717  27.419   7.404  0.1227 -0.2482 -0.1639
    1W        W42353   7.320  27.147   2.208  0.1567  0.2266 -0.2542
    1W        W42354  18.706  26.042   0.656  0.2294 -0.1544  0.1814
    1W        W42355  22.483   7.971   8.045 -0.1278  0.1219  0.3100
    1W        W42356  27.776  29.305   7.098 -0.1256  0.4291  0.2587
    1W        W42357   0.317  19.264   2.046  0.0246 -0.1532 -0.0746
    1W        W42358  28.894  12.359   7.158  0.0946 -0.4935  0.2729
    1W        W42359   0.501  12.063   7.903 -0.1630 -0.0073  0.0617
    1W        W42360   6.003  18.496   0.886  0.3021 -0.1665  0.2615
    1W        W42361  14.487  15.133   2.885 -0.0218  0.2078  0.0787
    1W        W42362  13.400   3.374   2.492  0.0995  0.0757  0.0796
    1W        W42363   7.474  22.009   1.101  0.0983  0.0417 -0.0794
    1W        W42364  22.612   4.198   0.431 -0.0561 -0.2901 -0.3266
    1W        W42365   7.449  25.967   7.816  0.3729 -0.2356  0.1722
    1W        W42366  27.758  27.371   2.257 -0.0211 -0.3230  0.1663
    1W        W42367   0.323  25.631   1.015  0.1320 -0.6516  0.0884
    1W        W42368  19.954   3.740   8.403 -0.0668 -0.1308 -0.1452
    1W        W42369  15.342   8.843   8.959  0.0937  0.0112  0.0552
    1W        W42370  13.559   2.392   6.866  0.1750 -0.0194 -0.1952
    1W        W42371   6.329   9.815   7.555 -0.0357  0.1974 -0.3111
    1W        W42372   9.220  24.267   6.158  0.4239  0.0516  0.0131
    1W        W42373  10.220  17.437   2.031  0.0292  0.0060  0.1069
    1W        W42374   3.879  10.451   6.402 -0.0222  0.1288  0.0696
    1W        W42375   5.801  29.146   6.161 -0.2091  0.2761 -0.1067
    1W        W42376  23.740  11.751   1.852  0.1661 -0.1417  0.0533
    1W        W42377  19.860  15.269   2.139  0.0357  0.1481 -0.0707
    1W        W42378   8.217  22.143   0.225 -0.2331  0.0036 -0.3219
    1W        W42379   5.015   0.845   6.108  0.0498 -0.4620 -0.1294
    1W        W42380  17.624   3.190   0.661 -0.2886  0.1196  0.0213
    1W        W42381  28.431  23.778   8.392  0.1126 -0.0929 -0.0040
    1W        W42382  12.853  16.724   6.553 -0.2652 -0.1887 -0.2114
    1W        W42383   1.173  26.846   0.313 -0.0288  0.0327  0.1357
    1W        W42384   4.141  27.476   0.627 -0.0005  0.2234 -0.1138
    1W        W42385  17.074  16.468   2.494  0.2717  0.3245  0.2077
    1W        W42386  28.391  24.291   1.907 -0.1254  0.0197  0.0351
    1W        W42387   2.432  19.127   6.243  0.1290  0.1197  0.0402
    1W        W42388   2.501  24.312   7.221  0.0777  0.3974  0.3112
    1W        W42389  25.977  10.665   9.247  0.1229  0.0409 -0.1860
    1W        W42390  26.521  14.341   2.087  0.2049 -0.0524 -0.0739
    1W        W42391  17.116  25.406   9.089 -0.0128  0.0349 -0.0797
    1W        W42392   6.859  12.869   6.760 -0.2705 -0.3608  0.2401
    1W        W42393  21.572   3.211   7.847  0.1012 -0.0557  0.0556
    1W        W42394   9.870  12.692   6.575  0.0279 -0.2906  0.0183
    1W        W42395  25.570   7.543   0.647  0.0739 -0.3176 -0.0100
    1W        W42396  19.708  15.939   7.191 -0.2955  0.2021 -0.0902
    1W        W42397  29.482  15.550   7.858 -0.0370  0.0033  0.0552
    1W        W42398  15.064  28.148   8.248 -0.1113 -0.3126 -0.0648
    1W        W42399   9.539   3.482   7.680 -0.0484 -0.1033  0.1344
    1W        W42400  20.292   4.029   2.358  0.0496  0.1391 -0.0368
    1W        W42401  19.229  27.572   1.271 -0.2188  0.0855  0.0784
    1W        W42402  17.923   1.925   7.347 -0.2180 -0.4157 -0.0053
    1W        W42403  18.148  28.017   1.104  0.0254  0.1323  0.1534
    1W        W42404  12.472  15.377   5.937 -0.3159  0.1583  0.2469
    1W        W42405  24.979  11.017   0.264 -0.0460 -0.1221  0.0493
    1W        W42406   3.287  28.312   7.774 -0.0415 -0.0183 -0.2856
    1W        W42407  25.699  12.360   7.996 -0.1847  0.1457  0.0719
    1W        W42408   0.743  15.966   7.867 -0.0948 -0.2177 -0.0192
    1W        W42409  28.335  20.314   1.135 -0.1255  0.2626  0.2893
    1W        W42410  13.671   6.337   8.340 -0.0413 -0.3479  0.0750
    1W        W42411  20.376  26.021   4.448 -0.4590  0.1128  0.2946
    1W        W42412  18.082   4.502   0.285 -0.1633  0.0241 -0.0777
    1W        W42413  20.476  28.445   7.059  0.0151 -0.0027  0.2513
    1W        W42414   3.536   3.295   8.976 -0.2264  0.1462 -0.0590
    1W        W42415   8.766  22.140   7.276  0.0618  0.1602  0.0582
    1W        W42416   4.634   7.671   9.467  0.0261  0.1615  0.0005
    1W        W42417  13.710  16.291   2.149  0.0330  0.1238  0.0419
    1W        W42418  16.894  21.555   9.524 -0.2808  0.0737  0.0532
    1W        W42419  10.610  19.456   9.544  0.0863  0.2163 -0.0304
    1W        W42420  27.912  14.648   8.610 -0.2648 -0.2297 -0.0783
    1W        W42421   1.767   7.156   0.937 -0.1412  0.3476 -0.1905
    1W        W42422  25.807   6.612   0.937  0.2132 -0.1469  0.3287
    1W        W42423  20.957   0.625   2.729  0.0529  0.3594  0.1618
    1W        W42424   8.344  22.331   6.351 -0.0797 -0.1181  0.0509
    1W        W42425   2.568  11.538   7.099  0.1640  0.2964  0.1373
    1W        W42426   5.140  22.341   7.618 -0.1746  0.1198  0.0863
    1W        W42427  16.067  12.271   1.988  0.0575  0.4913 -0.1567
    1W        W42428   8.821  23.850   2.032 -0.1646  0.1773 -0.2482
    1W        W42429  12.111  15.897   0.567  0.0654  0.1268  0.1594
    1W        W42430  29.287  11.297   9.255 -0.3023 -0.0141  0.1521
    1W        W42431   8.792  27.914   0.614 -0.2418 -0.2114  0.0428
    1W        W42432   4.270   0.057   0.509  0.1967  0.1520 -0.1125
    1W        W42433  20.511  25.848   0.344  0.0381  0.1342  0.2154
    1W        W42434  15.049  10.763   0.220  0.3449  0.3039 -0.1804
    1W        W42435  11.859   5.237   8.914 -0.0941  0.2855 -0.0248
    1W        W42436  12.828   6.748   8.196 -0.0328  0.4959 -0.0337
    1W        W42437  24.729   9.965   7.321  0.0879  0.3011 -0.2810
    1W        W42438   8.415  24.034   9.171 -0.2060 -0.0077 -0.0318
    1W        W42439   5.300  27.020   2.340  0.0367 -0.3047  0.0444
    1W        W42440  15.959  22.212   2.083  0.3254  0.1821  0.0018
    1W        W42441  17.733  11.096   8.352 -0.0490 -0.1462  0.2544
    1W        W42442  20.886   1.683   2.575  0.1752 -0.1757  0.0934
    1W        W42443   0.617  29.106   2.232  0.0874  0.2407  0.2368
    1W        W42444   3.007  15.951   0.238 -0.0772 -0.4140 -0.1368
    1W        W42445   6.270   7.689   6.171 -0.1514  0.2201 -0.1359
    1W        W42446  14.359  28.078   8.737 -0.0906 -0.1487 -0.1023
    1W        W42447  14.411  27.138   7.416 -0.5235  0.1548 -0.0206
    1W        W42448  10.333  10.346   9.608  0.3253 -0.0767  0.2039
    1W        W42449   2.304  25.598   0.643  0.0815 -0.1524  0.2617
    1W        W42450   9.588  28.252   0.083  0.0892 -0.1873  0.0664
    1W        W42451   8.589  15.906   8.376 -0.1262  0.2867 -0.0079
    1W        W42452  18.501  19.305   0.459 -0.2057  0.0795 -0.0348
    1W        W42453   1.279  20.806   9.046  0.1045  0.0557  0.0159
    1W        W42454  11.657  14.691   8.841  0.0457 -0.0587  0.0769
    1W        W42455   8.540  16.081   0.071 -0.2745  0.1083 -0.2769
    1W        W42456  12.974  18.795   0.187 -0.0403  0.0927 -0.1256
    1W        W42457  23.411  12.974   0.714  0.3991 -0.1415  0.0955
    1W        W42458  26.387  26.796   8.213  0.0696 -0.1327 -0.1757
    1W        W42459   3.767  28.360   2.465 -0.2950  0.0107  0.2448
    1W        W42460  19.608  27.206   0.034 -0.0457  0.0733  0.0207
    1W        W42461  21.169  14.269   1.455  0.0992 -0.1269 -0.0761
    1W        W42462  19.994   5.119   8.359 -0.1157 -0.2718  0.1074
    1W        W42463   3.017   6.202   0.117  0.0773  0.1845 -0.2342
    1W        W42464   5.502  28.806   1.937 -0.0813  0.4983 -0.0389
    1W        W42465  18.344  15.181   8.796  0.0532 -0.1248  0.1827
    1W        W42466  16.323   0.056   7.064  0.0709 -0.2000 -0.3002
    1W        W42467  20.021  13.419   1.867 -0.2340  0.0307 -0.0696
    1W        W42468  15.774  18.349   6.599 -0.0710  0.0790  0.0840
    1W        W42469   6.390   2.837   9.285  0.0775 -0.1788 -0.2123
    1W        W42470   3.514  27.827   8.418 -0.1466 -0.1671  0.1966
    1W        W42471  14.617   8.608   7.508 -0.0945 -0.3045 -0.2840
    1W        W42472   0.141  28.157   0.567  0.1442 -0.0816 -0.1702
    1W        W42473  24.119   8.149   9.605 -0.0287 -0.2988  0.0424
    1W        W42474   3.616   7.397   0.118 -0.0179 -0.0300 -0.1528
    1W        W42475   8.877  15.572   1.513  0.1698 -0.3045 -0.3075
    1W        W42476   5.864   9.688   9.279 -0.0123  0.2944 -0.1182
    1W        W42477  18.929   0.775   0.877  0.2260  0.0426  0.0923
    1W        W42478   1.160   8.321   1.596  0.2712  0.2212  0.1105
    1W        W42479  13.442  20.067   2.052  0.1136  0.0435 -0.0069
    1W        W42480  23.036   9.680   9.260  0.0016  0.2294 -0.1350
    1W        W42481  29.512  24.234   0.125  0.2027 -0.0992  0.4918
    1W        W42482  21.731  27.545   9.410  0.1183 -0.2167  0.0599
    1W        W42483  15.211  20.771   7.599  0.0157 -0.2044 -0.1014
    1W        W42484   7.370  25.876   1.774  0.2071  0.2051 -0.3544
    1W        W42485  18.506  24.454   3.350  0.2280 -0.2741  0.2457
    1W        W42486  10.265   2.088   0.736  0.0888 -0.1275 -0.2119
    1W        W42487   2.431  15.954   0.152  0.1870 -0.2143  0.0834
    1W        W42488  23.513  26.618   9.608  0.2420  0.1815  0.0061
    1W        W42489  19.660  25.373   9.625 -0.1005  0.1100 -0.2505
    1W        W42490   3.081   0.523   0.665 -0.2097 -0.0477  0.0749
    1W        W42491  14.930  25.803   8.717  0.0599  0.0689 -0.0621
    1W        W42492   2.131   2.052   9.020  0.0101 -0.0400  0.0144
    1W        W42493  21.845  11.274   2.058 -0.2748 -0.1535  0.0389
    1W        W42494   2.983  17.455   7.111  0.0953  0.2383 -0.2005
    1W        W42495   3.262  10.335   1.344 -0.1358  0.2140  0.1836
    1W        W42496   2.816  20.117   1.378  0.0497 -0.0719 -0.1136
    1W        W42497  28.706  26.186   2.218  0.4486 -0.1761 -0.1738
    1W        W42498  22.144   7.183   0.136  0.0109  0.1363  0.4027
    1W        W42499  26.888   7.588   9.527  0.1455 -0.2679 -0.1661
    1W        W42500   1.967   1.504   0.603 -0.0657 -0.1099  0.2105
    1W        W42501  11.600  13.132   7.503  0.0568 -0.0671 -0.2202
    1W        W42502  15.207  28.544   7.233 -0.0692 -0.1220 -0.0625
    1W        W42503   1.359  21.947   2.991  0.0745  0.0824  0.0580
    1W        W42504   9.345  27.375   6.424  0.2600 -0.1765  0.1367
    1W        W42505   4.011  11.756   6.588  0.0274  0.1740 -0.1684
    1W        W42506   5.511  23.124   2.358 -0.0415  0.1121 -0.3162
    1W        W42507  17.446   6.617   6.834  0.1210 -0.1818  0.2226
    1W        W42508   1.431  21.444   1.110 -0.0588 -0.1249 -0.1726
    1W        W42509  20.332   4.721   2.647  0.3945 -0.2640  0.2152
    1W        W42510  14.566   0.409   0.280  0.0035 -0.0572  0.2715
    1W        W42511  28.352   6.160   7.002 -0.0817 -0.0968  0.2201
    1W        W42512  22.926  17.490   2.381 -0.3639 -0.0919  0.0648
    1W        W42513  18.510  29.401   8.038 -0.1253 -0.2855  0.0062
    1W        W42514  28.653  24.556   0.406  0.0355 -0.0478  0.3061
    1W        W42515  12.356   8.872   2.053  0.0580  0.0408 -0.0261
    1W        W42516  12.847  14.781   0.503  0.1409 -0.0814  0.2214
    1W        W42517  11.267  14.039   9.535  0.1910 -0.1623 -0.0678
    1W        W42518   8.779  27.039   0.695 -0.0485 -0.1035 -0.0321
    1W        W42519  17.810  25.101   7.512 -0.1121 -0.5705 -0.0270
    1W        W42520  23.970  28.651   1.177  0.3095  0.3322 -0.1737
    1W        W42521  10.263  19.877   2.034 -0.3264  0.1096 -0.1800
    1W        W42522  15.812  15.355   0.450 -0.0961  0.0245 -0.0615
    1W        W42523   1.877  10.697   1.046  0.0037 -0.0055  0.0185
    1W        W42524  24.359   4.336   8.088 -0.0289 -0.2459 -0.0183
    1W        W42525   4.585  15.433   0.848  0.1333 -0.2858  0.1278
    1W        W42526  19.225  28.821   0.788 -0.1538  0.1124 -0.1782
    1W        W42527  15.758   9.570   8.604 -0.2895  0.0174  0.1715
    1W        W42528   3.229  29.595   6.942  0.1692 -0.1792 -0.1980
    1W        W42529  18.482  14.344   0.456  0.0172 -0.0752 -0.3528
    1W        W42530  28.061  22.439   3.252 -0.0149  0.0435 -0.2007
    1W        W42531  13.284   0.776   7.024  0.1701 -0.0939  0.1500
    1W        W42532  10.154   9.693   1.000 -0.1904 -0.1304 -0.2816
    1W        W42533   8.055  18.033   7.570 -0.1198 -0.1608 -0.1727
    1W        W42534   6.313  11.200   0.669  0.0368 -0.1508  0.1028
    1W        W42535  14.022   2.008   6.715 -0.0467  0.0500 -0.0412
    1W        W42536   5.172  16.608   9.166 -0.0702  0.0798  0.2561
    1W        W42537  20.767  13.046   0.291  0.0285 -0.4236 -0.1218
    1W        W42538  22.378  13.079   8.929 -0.1119 -0.0629 -0.1885
    1W        W42539   4.043  28.096   9.329  0.2629 -0.0754 -0.1660
    1W        W42540   3.372  22.186   8.704  0.0368  0.2060 -0.0898
    1W        W42541   6.761  11.658   8.036 -0.1177  0.2308 -0.1027
    1W        W42542   2.518  26.725   8.358  0.1888  0.1550 -0.1199
    1W        W42543  21.097  22.799   1.902  0.1483 -0.1173  0.1278
    1W        W42544  20.891   5.875   1.299  0.0433 -0.1399 -0.0262
    1W        W42545  15.493  25.802   1.080 -0.3712 -0.2512  0.0850
    1W        W42546  20.922  24.832   3.257 -0.0007 -0.5417  0.1390
    1W        W42547   0.629  29.290   1.661 -0.2291  0.0403  0.1359
    1W        W42548  21.623   8.175   2.097  0.1904  0.0486 -0.2158
    1W        W42549   3.557  12.945   0.382 -0.3888 -0.0030  0.0458
    1W        W42550   0.576  25.408   1.373  0.1680 -0.2052  0.0891
    1W        W42551  14.284   5.492   6.460  0.0751  0.1083  0.0033
    1W        W42552  16.896  25.594   9.539  0.1067  0.1697 -0.1750
    1W        W42553  22.791  14.775   2.680  0.1292  0.2589 -0.0395
    1W        W42554   9.270  13.920   7.796 -0.2904  0.0639  0.0751
    1W        W42555  23.434   4.729   7.928 -0.2021  0.0069  0.0817
    1W        W42556  12.829   2.402   0.065  0.0845  0.0962  0.0192
    1W        W42557  16.696   0.267   2.061 -0.2456 -0.1417  0.0995
    1W        W42558  26.802   5.348   7.410  0.0662 -0.3291 -0.1930
    1W        W42559  26.845   3.298   7.871 -0.1077  0.2572 -0.2120
    1W        W42560  20.305   6.051   2.740 -0.1370  0.2196  0.1311
    1W        W42561  16.381  21.878   2.972  0.1798 -0.4179 -0.1841
    1W        W42562  27.749   0.824   7.956 -0.5213  0.1650  0.1617
    1W        W42563  23.665  28.166   0.875 -0.1475 -0.2891  0.0281
    1W        W42564  19.523  28.666   7.533 -0.1460 -0.2743 -0.1575
    1W        W42565   9.497  18.625   0.478  0.0719  0.2152 -0.0617
    1W        W42566  26.040  17.016   7.268  0.1075  0.0853 -0.0679
    1W        W42567  23.988   3.253   2.635  0.1876  0.1220  0.2198
    1W        W42568  20.562  24.592   3.694  0.2573 -0.1194 -0.2318
    1W        W42569  24.712  19.461   3.074 -0.0713 -0.3370  0.0407
    1W        W42570   9.643   1.185   0.060 -0.0501 -0.2118 -0.0319
    1W        W42571   8.620  13.962   9.213 -0.1332  0.1429 -0.2392
    1W        W42572  12.115  14.408   1.699 -0.3997 -0.0747 -0.1640
    1W        W42573   1.758  19.299   2.209  0.2694  0.3444  0.1247
    1W        W42574  19.263  27.597   3.367  0.0223  0.0761 -0.0854
    1W        W42575  20.492   2.050   2.737  0.0523 -0.0237 -0.1300
    1W        W42576  23.380  11.164   2.551 -0.2337  0.0170 -0.0721
    1W        W42577   6.874  28.919   7.253 -0.0126 -0.2571  0.1721
    1W        W42578  13.623   4.882   5.985 -0.2908  0.0186 -0.0247
    1W        W42579  16.862  29.248   0.626  0.0892 -0.0131 -0.0359
    1W        W42580  16.616   8.614   7.403 -0.4043 -0.0056  0.0607
    1W        W42581   7.976   3.953   2.023 -0.1239 -0.0871 -0.0672
    1W        W42582  12.616  27.313   7.211 -0.4790 -0.0174  0.2236
    1W        W42583   0.395  27.367   7.284  0.0087  0.0127  0.4519
    1W        W42584  20.402   4.796   7.060  0.0573 -0.1243  0.1754
    1W        W42585   0.349  19.686   2.363 -0.3058 -0.0418  0.2096
    1W        W42586  23.734   4.446   0.897 -0.0744 -0.0851 -0.1882
    1W        W42587  13.830   1.137   1.836 -0.1607 -0.2382 -0.2064
    1W        W42588  13.077   0.265   8.419 -0.2894 -0.0956  0.0696
    1W        W42589   0.014  13.073   1.306  0.0268 -0.5115  0.0082
    1W        W42590   3.644   3.316   7.757  0.0095  0.0931  0.0289
    1W        W42591   2.709   3.775   1.531 -0.0069 -0.3704 -0.2473
    1W        W42592  16.111  15.643   8.934 -0.1859 -0.1477 -0.0225
    1W        W42593  10.656   4.708   6.893 -0.2053 -0.2847  0.0789
    1W        W42594  23.441  29.256   9.375 -0.1466 -0.0658 -0.2698
    1W        W42595  24.943  18.361   8.817 -0.1039  0.0677 -0.0176
    1W        W42596   3.792   5.494   1.544  0.1895  0.1629 -0.1092
    1W        W42597  12.440  16.247   0.459 -0.0633  0.1842  0.2004
    1W        W42598   2.841  25.523   2.317 -0.1803  0.1267  0.0257
    1W        W42599  24.993  27.740   3.095  0.0235 -0.1879 -0.0296
    1W        W42600  14.104  22.325   9.144 -0.2440  0.1393 -0.0390
    1W        W42601   3.206  15.615   1.390  0.1571  0.3681 -0.0411
    1W        W42602  24.466   7.526   7.318  0.2421 -0.0920  0.0719
    1W        W42603   2.198   2.606   5.822 -0.0041  0.2072 -0.1840
    1W        W42604  26.649  16.947   2.615 -0.1591 -0.0490  0.1503
    1W        W42605   7.839  29.085   0.309  0.0469 -0.2806  0.0753
    1W        W42606  16.464   5.605   0.454  0.2449  0.2641  0.2111
    1W        W42607  20.442  10.442   9.639 -0.1314  0.1368 -0.1662
    1W        W42608  14.318   6.982   7.655 -0.4399  0.3889  0.0133
    1W        W42609   8.784   4.435   6.779 -0.1687 -0.0485  0.1392
    1W        W42610  19.359   5.558   9.629  0.2316  0.0521 -0.2905
    1W        W42611  19.662   2.062   7.299  0.3088 -0.2163  0.0386
    1W        W42612   4.008   7.024   1.660 -0.0693 -0.0328  0.1907
    1W        W42613  20.430  10.879   0.899  0.1030  0.1057 -0.0688
    1W        W42614  20.656  19.050   7.093  0.1038 -0.2840 -0.3993
    1W        W42615   6.278  26.036   3.043  0.0567 -0.1741  0.1187
    1W        W42616  22.158  15.015   2.122 -0.0613  0.3363  0.1629
    1W        W42617  22.973   2.921   2.298 -0.0638 -0.0200 -0.0825
    1W        W42618  18.402  17.131   7.778  0.1384  0.0618  0.0161
    1W        W42619  12.117  27.397   9.010  0.3678 -0.2601  0.0482
    1W        W42620   9.515   1.398   9.252  0.1060 -0.1657 -0.0973
    1W        W42621  17.516   1.415   2.690 -0.1100 -0.2639 -0.0273
    1W        W42622   3.849  20.848   0.327  0.2702  0.0412  0.0378
    1W        W42623   9.497  24.170   0.986 -0.2440  0.0876  0.1583
    1W        W42624  26.950  19.710   9.331  0.0682 -0.0955  0.0433
    1W        W42625  12.969   1.455   3.166 -0.2069  0.0133  0.1332
    1W        W42626  25.371  19.085   0.960 -0.0026  0.2422  0.2876
    1W        W42627   7.194  18.365   8.238  0.0134 -0.2588  0.0354
    1W        W42628  26.711  17.603   0.201 -0.1131  0.0853 -0.4327
    1W        W42629  15.180  12.355   7.774  0.2171  0.1540  0.2723
    1W        W42630   7.757  22.969   7.455 -0.0494 -0.2852  0.2382
    1W        W42631  13.370  20.995   9.238 -0.0037 -0.2075  0.1847
    1W        W42632  10.282   9.302   6.467  0.0587 -0.3324  0.0743
    1W        W42633  24.680  13.309   0.741  0.1799  0.1218  0.0766
    1W        W42634  10.414  29.423   0.791 -0.0471 -0.2351  0.0777
    1W        W42635   0.304   7.042   6.742  0.0459 -0.3315  0.0837
    1W        W42636  29.093  12.200   0.311  0.2898  0.0983  0.0471
    1W        W42637  28.012   4.182   7.474 -0.0064  0.0046  0.0996
    1W        W42638   5.853   6.363   8.191  0.5459  0.3671 -0.0058
    1W        W42639   4.737  23.705   7.849 -0.1400  0.3328 -0.1807
    1W        W42640   7.382   8.901   0.274  0.1489 -0.0325 -0.1200
    1W        W42641   6.834  22.625   8.065  0.0104 -0.2535  0.1352
    1W        W42642  13.340   3.050   0.008  0.0359 -0.1117 -0.0235
    1W        W42643  11.509  20.791   0.949 -0.2227  0.0058  0.2003
    1W        W42644  16.517   4.600   7.409  0.3345  0.0447 -0.2260
    1W        W42645  26.548  16.207   0.062 -0.1800 -0.0743  0.0909
    1W        W42646  10.657   8.497   7.485 -0.0459 -0.1154  0.0312
    1W        W42647   1.149   1.334   2.318 -0.0319 -0.0493  0.2006
    1W        W42648  15.414  18.489   7.406 -0.1410 -0.1437 -0.0788
    1W        W42649   3.668  19.379   6.775  0.1548 -0.1333  0.0163
    1W        W42650  25.196   3.198   0.595 -0.0238  0.1598 -0.0314
    1W        W42651  13.837  26.706   2.011  0.2557  0.1434  0.0957
    1W        W42652   2.631   7.687   8.573 -0.0617  0.3509  0.1949
    1W        W42653  11.300  10.234   1.642  0.1475  0.0126  0.3562
    1W        W42654   2.046  12.753   8.056  0.4349 -0.0756  0.3339
    1W        W42655  11.293   3.701   8.884 -0.2433 -0.0385  0.1307
    1W        W42656   3.276   8.528   1.251 -0.1287  0.1631 -0.1364
    1W        W42657  26.540  16.828   6.782 -0.2057 -0.2150  0.1121
    1W        W42658  17.522   4.121   6.985 -0.0839 -0.4772 -0.0832
    1W        W42659  11.452  10.870   6.377  0.0247 -0.1240 -0.2054
    1W        W42660  17.076  20.631   8.495  0.1967 -0.1017 -0.2576
    1W        W42661  19.036  26.732   3.746  0.1429  0.0315 -0.2486
    1W        W42662   4.783  16.989   9.332 -0.1167 -0.1127 -0.1716
    1W        W42663   3.095   3.097   9.311  0.0979  0.3354  0.0695
    1W        W42664  21.586  11.049   8.144  0.2542 -0.0128  0.0229
    1W        W42665   6.589  13.790   7.973  0.0348  0.0668  0.0894
    1W        W42666  19.480  21.353   8.830  0.1272 -0.3886  0.0484
    1W        W42667  11.569  24.574   7.770 -0.3402  0.1130  0.0816
    1W        W42668  24.784   5.692   0.158  0.0500  0.0558  0.2998
    1W        W42669  20.049  22.953   7.963  0.1505 -0.0639 -0.4378
    1W        W42670  15.867  21.079   8.079  0.1211 -0.0237  0.1293
    1W        W42671   0.045   0.331   6.820 -0.0122  0.2627 -0.0170
    1W        W42672  26.363  13.141   0.653  0.0934  0.1777 -0.0731
    1W        W42673  22.520   8.010   0.981  0.0511 -0.2965  0.0522
    1W        W42674  22.207   5.296   7.549 -0.3195 -0.0939  0.0667
    1W        W42675  14.468   1.598   6.253 -0.1324  0.0009 -0.1240
    1W        W42676  15.839  10.496   1.122 -0.0790 -0.1601 -0.3173
    1W        W42677  16.086   9.171   1.552 -0.1600 -0.1014  0.2445
    1W        W42678   6.782  14.178   9.521 -0.2790 -0.0729 -0.0160
    1W        W42679   6.290  20.065   1.650 -0.2054  0.1242  0.0308
    1W        W42680  21.910  13.690   1.560  0.0085 -0.0370 -0.1301
    1W        W42681  25.239  14.043   0.762  0.0460  0.1275  0.1393
    1W        W42682   9.246  28.267   7.606  0.1705  0.2388  0.1503
    1W        W42683   3.897   9.094   8.071  0.0722 -0.2115 -0.0050
    1W        W42684  16.519   9.649   8.208 -0.2239 -0.0368 -0.0119
    1W        W42685   9.995  18.429   1.749 -0.2439  0.0431  0.3212
    1W        W42686   1.310  25.734   7.831  0.3113  0.1309 -0.0899
    1W        W42687   8.811  16.332   0.731  0.0955  0.0602  0.0334
    1W        W42688  15.741  17.500   0.967 -0.2740  0.0809  0.3515
    1W        W42689  17.154  10.121   8.012 -0.1585  0.0781  0.2047
    1W        W42690  27.934  16.388   0.662  0.2424  0.2332 -0.3013
    1W        W42691  21.398   3.303   9.498  0.0428  0.0762 -0.1690
    1W        W42692   9.683  14.526   2.255 -0.0788  0.0640  0.0821
    1W        W42693  22.777  18.959   2.263 -0.3081  0.2779  0.0660
    1W        W42694  11.828   9.837   0.952 -0.2141 -0.3829 -0.2187
    1W        W42695  22.764  22.814   8.963  0.0263  0.1275 -0.1366
    1W        W42696  11.517  17.984   2.000  0.0235 -0.1014 -0.1351
    1W        W42697  22.399  26.250   8.147 -0.0245 -0.5172  0.2048
    1W        W42698  17.999  18.470   1.837 -0.2884  0.2097  0.2604
    1W        W42699  26.036  10.165   2.016  0.0866 -0.1146  0.0208
    1W        W42700  28.135   9.750   8.371  0.2478  0.0247 -0.4462
    1W        W42701  20.343  20.323   3.162 -0.1661  0.0768 -0.0930
    1W        W42702  22.677  19.672   7.328 -0.0374 -0.1735 -0.2082
    1W        W42703  20.478  28.205   8.701 -0.3252 -0.1514  0.0835
    1W        W42704  17.092  13.939   9.575  0.1573  0.0733  0.0989
    1W        W42705  14.531  25.294   8.816  0.0078 -0.1271  0.2664
    1W        W42706  12.029  12.763   7.357  0.0156  0.0826 -0.0818
    1W        W42707   4.829   9.485   9.434 -0.2549 -0.1585  0.1745
    1W        W42708  14.130  10.532   8.244 -0.4145  0.1995  0.0827
    1W        W42709  27.425   6.939   7.503 -0.0972 -0.1336  0.0254
    1W        W42710  13.894   7.350   6.298 -0.3788  0.0619  0.0671
    1W        W42711  20.145   2.792   7.570 -0.1619  0.1489  0.0428
    1W        W42712  11.134  27.708   9.463 -0.0011 -0.0897  0.0298
    1W        W42713  24.782  25.365   1.216  0.1922 -0.3707  0.1646
    1W        W42714  20.042  23.865   8.371  0.0718  0.2316 -0.1599
    1W        W42715   6.962   2.927   9.128 -0.0181  0.0372 -0.0522
    1W        W42716  21.865  18.696   9.089  0.1221  0.3202  0.1253
    1W        W42717  13.766  23.989   9.464 -0.0970  0.2559  0.2288
    1W        W42718   1.885  16.482   2.611 -0.1529 -0.1567 -0.0388
    1W        W42719   4.119  18.694   7.950  0.2259 -0.0050 -0.4094
    1W        W42720   8.442   2.846   1.154  0.1497  0.0421  0.0465
    1W        W42721  19.131  20.450   2.779  0.0188  0.4792  0.3513
    1W        W42722  25.476  25.500   9.479  0.0760  0.2106  0.2261
    1W        W42723  25.361  27.158   7.325  0.4503  0.3812 -0.0679
    1W        W42724  16.894  27.153   2.721 -0.2848 -0.0361  0.3973
    1W        W42725   4.941   8.799   6.896 -0.3462  0.3705 -0.1419
    1W        W42726  28.413  26.246   7.296 -0.2274 -0.1309 -0.2891
    1W        W42727   2.546  16.256   7.669 -0.2545  0.0556  0.1062
    1W        W42728  14.097  24.443   8.596  0.1209 -0.1473 -0.1605
    1W        W42729  14.872  26.612   2.363  0.1375 -0.0365  0.1291
    1W        W42730  16.650   2.633   6.291  0.0830 -0.0543 -0.0875
    1W        W42731  24.614  19.997   2.341 -0.0396 -0.0011 -0.1166
    1W        W42732  12.824  20.419   0.458  0.0365 -0.0334 -0.3529
    1W        W42733  12.809  29.191   7.374 -0.0979 -0.1581 -0.1131
    1W        W42734   3.926  16.802   7.491  0.0459 -0.0400 -0.2730
    1W        W42735  11.830  12.104   9.332 -0.1200 -0.0463 -0.0716
    1W        W42736   9.444  26.623   1.879 -0.1084  0.0375 -0.2275
    1W        W42737  19.055  26.507   2.683  0.1398 -0.2627  0.1111
    1W        W42738  16.936   8.625   2.159 -0.2873 -0.2744 -0.1911
    1W        W42739   8.632  26.282   8.047  0.3254  0.0639 -0.0173
    1W        W42740  29.181   2.205   7.662  0.1729 -0.1987 -0.0090
    1W        W42741  14.351   8.842   1.435 -0.1712 -0.3465 -0.0762
    1W        W42742  17.012  14.180   8.587 -0.2787 -0.0961 -0.1341
    1W        W42743   8.645  23.645   7.910  0.2101  0.1447  0.0539
    1W        W42744  17.015  23.857   0.222 -0.0953 -0.1345  0.0595
    1W        W42745   8.026  25.638   7.769 -0.2498 -0.1929 -0.0448
    1W        W42746  27.182  20.645   3.285  0.2613  0.0492  0.1441
    1W        W42747  12.584   7.521   0.291  0.0518 -0.1560  0.1177
    1W        W42748   4.119  15.199   8.643  0.0609  0.2410  0.1802
    1W        W42749   7.159  14.116   7.896 -0.0206  0.0234  0.0771
    1W        W42750   4.811   5.749   1.829 -0.3115 -0.2194  0.1284
    1W        W42751   5.073  18.123   7.914 -0.1199  0.1378  0.0151
    1W        W42752  22.984  25.017   4.056  0.1162  0.3554  0.0723
    1W        W42753  28.455   4.015   8.757 -0.0181  0.2275 -0.0554
    1W        W42754   1.383  17.576   8.404 -0.2483  0.1830  0.1828
    1W        W42755   3.312   0.684   7.350  0.2476 -0.0732 -0.3379
    1W        W42756  24.768  27.203   8.720 -0.1679 -0.0874 -0.2209
    1W        W42757   6.148   5.013   1.916  0.1828 -0.2350 -0.2020
    1W        W42758  22.888   5.570   9.145 -0.3410  0.1380 -0.1776
    1W        W42759  23.570   2.057   7.899 -0.3048  0.0063  0.3206
    1W        W42760   4.256   2.616   2.177 -0.0722  0.1637 -0.0376
    1W        W42761   2.917  15.193   1.639  0.1099 -0.0612 -0.0014
    1W        W42762   6.098  25.737   0.060  0.4774 -0.2672  0.0326
    1W        W42763  28.971  21.814   2.897 -0.0718  0.2599  0.0615
    1W        W42764  22.058  10.126   9.482 -0.3718  0.1807 -0.0027
    1W        W42765  29.365  17.931   0.001  0.1356  0.0250 -0.1640
    1W        W42766  28.605  26.557   6.282 -0.0730 -0.3519  0.0881
    1W        W42767  28.580   0.804   6.273  0.2915  0.1768  0.1205
    1W        W42768  15.515  20.206   1.649  0.2969  0.1380  0.1600
    1W        W42769  22.358  20.211   7.965 -0.1429  0.4218 -0.5056
    1W        W42770  10.826  28.578   8.459 -0.1311 -0.2239  0.0948
    1W        W42771  21.884  18.053   7.646 -0.1748  0.1087 -0.0854
    1W        W42772  17.843  19.964   0.261  0.2924 -0.1117  0.1200
    1W        W42773  14.102  29.051   6.875  0.1690 -0.1057 -0.0422
    1W        W42774  10.125  24.034   8.027 -0.1718 -0.1010 -0.2336
    1W        W42775  10.014  10.695   9.309 -0.2066  0.0126  0.0113
    1W        W42776  28.922  21.941   3.377 -0.1329  0.1877 -0.2617
    1W        W42777   9.298   7.877   8.575  0.2406 -0.1147  0.0941
    1W        W42778  19.577  28.370   7.977  0.0104 -0.0245  0.0345
    1W        W42779   7.026  18.825   3.421  0.2803 -0.0833  0.1189
    1W        W42780  29.084  23.310   0.520 -0.1743 -0.0950 -0.3077
    1W        W42781  26.506   2.570   9.044  0.0984  0.1930  0.0541
    1W        W42782  20.310  15.569   2.093  0.3447  0.1673  0.2079
    1W        W42783  18.145  18.892   1.511 -0.0125 -0.0514 -0.0723
    1W        W42784  28.596  28.344   7.747  0.2670 -0.3021 -0.0334
    1W        W42785  10.234  11.537   0.629  0.0339  0.3113 -0.5486
    1W        W42786   3.789  23.879   8.764  0.3457 -0.1173  0.1296
    1W        W42787   6.277   7.578   7.222 -0.1070 -0.1782 -0.1783
    1W        W42788  18.262  16.582   7.839  0.0019 -0.0946  0.0785
    1W        W42789  27.955   5.703   7.328  0.0371  0.3945 -0.0204
    1W        W42790  29.204  17.700   7.962 -0.2272  0.1059 -0.0187
    1W        W42791  28.227  12.437   0.378 -0.1322 -0.1827 -0.0490
    1W        W42792   1.931   5.596   8.477  0.2671  0.2048  0.0506
    1W        W42793  15.513  16.391   0.245  0.0769 -0.0507 -0.0163
    1W        W42794  19.801   6.466   8.249  0.1937 -0.2447 -0.2460
    1W        W42795  11.140   3.150   8.904 -0.1093  0.0242  0.3847
    1W        W42796   6.963  25.321   8.594 -0.0509 -0.1829  0.1560
    1W        W42797  18.692  24.719   1.924  0.1410 -0.1800 -0.1910
    1W        W42798   6.302  12.913   5.522 -0.1160  0.1358 -0.3190
    1W        W42799  22.881  15.317   9.531 -0.1522  0.0808 -0.1421
    1W        W42800  16.167  24.377   7.720 -0.2864 -0.0311  0.2366
    1W        W42801   9.810  10.298   8.327 -0.0833 -0.1444  0.2887
    1W        W42802  12.332   5.057   8.866  0.2946 -0.0565  0.0896
    1W        W42803  23.236  22.567   0.014  0.1538 -0.1619 -0.4040
    1W        W42804  22.476   7.644   8.772  0.1624 -0.0380  0.1778
    1W        W42805  22.972  16.524   7.963 -0.2395 -0.1229 -0.1150
    1W        W42806  29.514   1.958   0.681 -0.1500 -0.2309 -0.0678
    1W        W42807  25.463  24.540   2.705 -0.0632  0.0439  0.1338
    1W        W42808  17.247  26.229   0.893  0.2882 -0.1449  0.2147
    1W        W42809  18.259  12.921   2.461  0.0231  0.3033  0.0398
    1W        W42810   8.124  25.112   8.480 -0.0846 -0.0154 -0.1440
    1W        W42811   4.009  19.529   8.129  0.0421  0.0020 -0.0410
    1W        W42812   6.266   9.923   1.684 -0.0714 -0.4053  0.2028
    1W        W42813   5.173  17.369   0.135 -0.0838  0.0126 -0.1096
    1W        W42814   7.571  17.663   7.123  0.1356  0.2921  0.0315
    1W        W42815   5.625  21.948   0.681  0.0324 -0.0267 -0.0158
    1W        W42816  14.296  20.818   9.395 -0.2914  0.1551  0.1176
    1W        W42817  14.550   2.238   2.039  0.0655  0.0412  0.0364
    1W        W42818  25.575  27.541   3.628  0.0172  0.0349 -0.5545
    1W        W42819  25.806  19.216   2.570  0.1177  0.3038  0.0419
    1W        W42820  12.412  27.173   2.839  0.1511  0.2128 -0.0168
    1W        W42821   0.374  10.616   0.259 -0.3152  0.2777  0.3528
    1W        W42822   4.435  21.143   7.840 -0.1671 -0.2129  0.1032
    1W        W42823   8.335  13.178   1.285 -0.4109  0.0789 -0.4509
    1W        W42824   6.018  11.543   1.469 -0.0342 -0.1494 -0.3008
    1W        W42825  15.437  17.740   1.381 -0.0917  0.0287  0.2213
    1W        W42826  24.192  11.926   8.133 -0.4086 -0.0241 -0.3186
    1W        W42827  21.237   9.746   1.784  0.0099 -0.4068 -0.1072
    1W        W42828  12.246   0.080   2.220  0.2769  0.2444  0.2101
    1W        W42829   5.752  15.162   0.939 -0.1620  0.0530 -0.2112
    1W        W42830  18.451   5.731   0.300  0.1922  0.1050 -0.1725
    1W        W42831   7.855  20.686   8.445  0.0747 -0.0893 -0.2565
    1W        W42832   4.430   4.861   1.581  0.0381 -0.4158  0.0484
    1W        W42833  15.825  20.312   8.858 -0.2123 -0.0611 -0.1038
    1W        W42834   8.711  22.468   2.984  0.0933 -0.0713 -0.1739
    1W        W42835   6.145  14.296   0.429  0.3082  0.1282  0.3323
    1W        W42836   5.999  12.833   8.272 -0.2849 -0.0920 -0.1117
    1W        W42837   9.007   7.825   6.386  0.1225  0.0327  0.1336
    1W        W42838  25.610  22.618   8.743  0.1179 -0.2586  0.0010
    1W        W42839  17.484  27.075   3.422  0.1384  0.0143 -0.0681
    1W        W42840  25.440   0.286   8.282  0.0124  0.3401 -0.1620
    1W        W42841   0.896   8.387   9.288 -0.0171  0.0930  0.4068
    1W        W42842  28.383   8.795   7.639  0.1350  0.1754  0.0355
    1W        W42843  16.762   9.587   1.749 -0.3129  0.1064 -0.0321
    1W        W42844  11.645  17.886   0.206 -0.1966  0.0475  0.0526
    1W        W42845   2.858   2.384   6.427  0.3929 -0.1200  0.1240
    1W        W42846  17.215  16.556   0.773  0.3007 -0.1463  0.1616
    1W        W42847  12.361  12.368   7.455 -0.3434  0.0358  0.1497
    1W        W42848  17.116  21.045   7.781  0.3141 -0.1135 -0.0676
    1W        W42849  24.009  15.801   7.689 -0.2709  0.2568  0.2552
    1W        W42850  22.453  20.412   1.682  0.2255 -0.3755 -0.2607
    1W        W42851  29.301  22.412   1.846 -0.1613 -0.1043 -0.0485
    1W        W42852   0.319   3.468   2.003 -0.0339 -0.1672 -0.4866
    1W        W42853   8.382  15.635   0.210 -0.2013  0.2041  0.1566
    1W        W42854   7.298   6.635   0.005 -0.0260  0.0878 -0.2297
    1W        W42855  25.586   8.393   8.362 -0.0035  0.0587  0.0112
    1W        W42856   0.756  20.974   4.125  0.2456  0.1526 -0.0427
    1W        W42857  15.081   7.560   9.600 -0.0351  0.2044 -0.0243
    1W        W42858  20.662   7.368   9.546 -0.2340  0.0611 -0.3075
    1W        W42859  27.496  23.001   7.825 -0.0630  0.3729 -0.1729
    1W        W42860   9.217   1.518   2.385  0.0074  0.0212  0.0792
    1W        W42861  12.406   5.333   7.666  0.1019  0.0784 -0.0967
    1W        W42862   9.034   3.490   2.220 -0.3753 -0.0470 -0.1656
    1W        W42863  22.872  21.856   7.686 -0.0906 -0.0494 -0.1644
    1W        W42864   5.824  12.039   1.668 -0.2303  0.1561  0.1157
    1W        W42865  25.545  25.607   1.240  0.1838  0.0706 -0.1775
    1W        W42866  24.515   7.799   0.123 -0.1212 -0.1242 -0.0335
    1W        W42867   6.589  17.661   6.547  0.0072  0.1263  0.2767
    1W        W42868  23.638  18.019   1.426 -0.1417 -0.4473  0.1364
    1W        W42869   3.702  21.082   8.145 -0.1317 -0.3125  0.0810
    1W        W42870  19.703  13.822   0.030 -0.1706  0.2245 -0.0784
    1W        W42871   3.331  29.307   6.515  0.2820  0.0303  0.2109
    1W        W42872  10.481  11.861   0.202  0.0629 -0.0726  0.0821
    1W        W42873   6.083  18.676   9.324  0.1748  0.0518 -0.1714
    1W        W42874  17.066  27.260   1.819 -0.2333  0.0594 -0.3835
    1W        W42875   8.238  13.610   7.083 -0.0525  0.1233 -0.2534
    1W        W42876  21.810  20.324   2.604  0.0012  0.2997 -0.3495
    1W        W42877  29.579   9.108   7.121 -0.1566  0.0482  0.0463
    1W        W42878  18.279   8.732   9.513 -0.1354  0.0098 -0.0102
    1W        W42879  24.519  10.609   0.133  0.3002 -0.0924  0.2506
    1W        W42880  29.584  21.023   3.546 -0.0867 -0.0700 -0.1565
    1W        W42881  20.346  17.629   8.932  0.3004 -0.1810 -0.0453
    1W        W42882  16.014   7.732   8.023  0.0732  0.1308 -0.1753
    1W        W42883  14.823  20.560   2.068  0.0958 -0.1283 -0.2310
    1W        W42884   0.476   4.573   7.773 -0.0161  0.2216  0.0315
    1W        W42885  19.389  17.186   2.950 -0.1186 -0.1357 -0.3334
    1W        W42886  26.592  25.380   1.326  0.0478 -0.1715 -0.0907
    1W        W42887  19.649  11.721   0.346 -0.1279  0.2231  0.6063
    1W        W42888   5.736  24.910   0.645  0.2022  0.2740  0.2241
    1W        W42889   4.695   7.934   2.414  0.1379 -0.0610 -0.1337
    1W        W42890  23.033  24.903   0.840  0.0481  0.1159  0.0712
    1W        W42891   6.973   1.220   0.875  0.3533 -0.3267  0.0499
    1W        W42892  18.210  14.673   7.225 -0.0291 -0.0458 -0.1175
    1W        W42893  16.383  17.915   1.896 -0.0274 -0.1485  0.1307
    1W        W42894  21.554  19.683   0.592  0.0072 -0.0571  0.0098
    1W        W42895   7.281  19.248   1.160 -0.1900 -0.0732 -0.2907
    1W        W42896  11.653  19.859   8.499  0.1315 -0.0406  0.1421
    1W        W42897  13.665  16.177   7.687 -0.0362 -0.1804  0.2736
    1W        W42898   5.056  21.162   8.976 -0.2224  0.3078  0.3231
    1W        W42899  13.278  18.162   1.639  0.1299 -0.0337 -0.1739
    1W        W42900   6.769   6.727   9.643 -0.3390 -0.2846 -0.2661
    1W        W42901  21.744  18.975   8.651  0.1128 -0.0758 -0.1865
    1W        W42902  15.440  11.995   2.761 -0.1215  0.0391  0.0955
    1W        W42903   6.836  19.773   1.845 -0.3493 -0.2043  0.2220
    1W        W42904  24.768   5.549   0.987  0.1701 -0.0210  0.0790
    1W        W42905  24.050  20.786   0.715 -0.0080  0.0704  0.0407
    1W        W42906  19.105   2.288   8.192 -0.3071 -0.1114  0.2499
    1W        W42907  16.164  26.772   0.021  0.1441 -0.3637  0.3525
    1W        W42908  27.561  24.711   2.245  0.0320  0.1836 -0.0566
    1W        W42909  12.190   0.574   8.440 -0.2556 -0.1013  0.1658
    1W        W42910   1.437   3.444   1.001 -0.0076 -0.2391 -0.2443
    1W        W42911   3.852  19.802   8.917 -0.2418 -0.1338  0.1271
    1W        W42912   0.503   6.490   0.255 -0.2025  0.0913 -0.0427
    1W        W42913  10.510  14.252   6.828 -0.0091 -0.1206  0.2362
    1W        W42914  18.277   6.905   1.627  0.2710  0.0186 -0.0940
    1W        W42915  25.304   6.637   7.699  0.3551 -0.0387  0.1780
    1W        W42916  29.090  19.820   1.211  0.0815  0.0706 -0.0997
    1W        W42917   8.866  27.781   2.088 -0.1958 -0.3779 -0.4206
    1W        W42918  24.729  22.090   2.515  0.0078 -0.0529  0.1114
    1W        W42919  23.643  24.044   9.373  0.2754  0.0466 -0.1640
    1W        W42920  19.070  19.585   1.756 -0.0328 -0.3759 -0.0933
    1W        W42921  10.848  16.194   6.572  0.0890 -0.1101  0.2368
    1W        W42922  23.080   8.161   0.123 -0.0343 -0.1143 -0.1613
    1W        W42923  12.653  17.398   8.937  0.2077 -0.0396  0.0655
    1W        W42924   7.342  27.178   9.041 -0.2696 -0.0841  0.1162
    1W        W42925  27.207  23.922   7.231 -0.0934  0.3863  0.0873
    1W        W42926  14.025   8.262   8.066  0.1880 -0.1962  0.0575
    1W        W42927  11.118   3.798   8.380 -0.1659 -0.0713  0.0517
    1W        W42928   9.768  22.000   1.318  0.0069  0.1373  0.0455
    1W        W42929  12.819  26.992   0.129 -0.2409  0.3503 -0.3103
    1W        W42930  25.505  23.261   1.448 -0.1502 -0.1184  0.0715
    1W        W42931  26.647  23.641   0.125 -0.1351 -0.2307  0.0694
    1W        W42932  29.050   2.961   8.287  0.0242  0.1274 -0.0393
    1W        W42933   6.119  21.778   7.180  0.2392 -0.2304 -0.0846
    1W        W42934  26.976   0.369   3.466  0.0688 -0.0334 -0.1900
    1W        W42935  22.278  18.466   9.213 -0.0217 -0.1406 -0.0623
    1W        W42936   3.708   9.896   9.101 -0.0637  0.1570 -0.0101
    1W        W42937  28.310   8.532   6.958 -0.1767  0.3107  0.0045
    1W        W42938  21.447  25.353   0.623 -0.2430 -0.3528  0.2986
    1W        W42939   7.837   9.951   7.777  0.1325 -0.0500  0.1818
    1W        W42940   8.039   7.558   8.895  0.0823  0.1776 -0.1459
    1W        W42941  21.833  21.188   0.483 -0.2616 -0.0705 -0.1002
    1W        W42942  19.270  27.598   9.609 -0.0466 -0.2723  0.0109
    1W        W42943  22.732  26.887   1.564 -0.1623  0.0605  0.3107
    1W        W42944   3.568  14.183   9.314  0.2528 -0.3064  0.0566
    1W        W42945  11.721   0.049   1.663 -0.0828 -0.2056 -0.0359
    1W        W42946  13.351   3.035   6.823  0.2922 -0.1110 -0.0742
    1W        W42947  14.413  18.328   0.125  0.0440 -0.0373 -0.0807
    1W        W42948   9.636   3.837   6.345 -0.4740 -0.1759  0.1090
    1W        W42949   6.350  28.249   6.964 -0.2691  0.0121 -0.1935
    1W        W42950   3.580   3.420   2.086  0.0182  0.2767  0.0628
    1W        W42951  24.581   7.360   2.856 -0.2576  0.2650 -0.0619
    1W        W42952   8.784  10.161   8.114  0.2224 -0.3857 -0.4189
    1W        W42953  20.059  14.153   8.246  0.0116  0.3036 -0.1037
    1W        W42954  10.574  14.718   1.993  0.1270  0.3296  0.2190
    1W        W42955   1.879  19.517   8.278  0.1279  0.0671 -0.0535
    1W        W42956  12.084  11.227   6.460 -0.0947 -0.2095 -0.0766
    1W        W42957  22.250  16.911   0.095  0.2092  0.2059 -0.2048
    1W        W42958  27.002  16.361   1.896  0.5305 -0.1419 -0.0552
    1W        W42959  29.168  28.418   3.575  0.1109 -0.0972  0.0827
    1W        W42960  25.983  19.058   1.038 -0.1215  0.4559 -0.2821
    1W        W42961  23.516   9.969   0.329 -0.2397 -0.2724  0.0929
    1W        W42962  15.180   0.676   8.232  0.3447  0.1000  0.2181
    1W        W42963   4.738  14.383   8.239  0.0310  0.2548  0.0902
    1W        W42964  16.640  24.697   6.752  0.3084 -0.7527 -0.1335
    1W        W42965   5.659  28.269   6.266  0.3918  0.1855 -0.4377
    1W        W42966   6.770   8.409   8.066 -0.1399  0.0938 -0.5029
    1W        W42967  22.374   4.000   8.839 -0.0598 -0.0237  0.3949
    1W        W42968  18.652  18.410   3.424 -0.0090  0.0077  0.1835
    1W        W42969  15.812  17.278   1.447  0.5430  0.1428 -0.1049
    1W        W42970  15.436  12.537   2.605 -0.1327  0.1332 -0.1023
    1W        W42971  25.407   1.857   1.761  0.0352  0.0749  0.1177
    1W        W42972   4.326  21.334   1.884  0.0139  0.3624 -0.0401
    1W        W42973  25.460   0.024   0.216 -0.1409  0.1491  0.0595
    1W        W42974  18.826  18.926   8.152  0.0204  0.0693 -0.3906
    1W        W42975  24.085  19.973   1.359 -0.1832  0.3092 -0.0440
    1W        W42976  25.380  13.171   0.871 -0.1814 -0.1325 -0.3230
    1W        W42977  24.274  25.206   8.312 -0.1092 -0.2669  0.0583
    1W        W42978   8.418  28.703   9.412  0.0412 -0.2735  0.1595
    1W        W42979  27.922  13.157   9.478 -0.2192 -0.0347  0.0646
    1W        W42980  22.317  18.824   8.772  0.2551  0.0163 -0.0863
    1W        W42981  12.055  29.046   9.035 -0.1909  0.3070  0.0445
    1W        W42982  13.816  25.768   2.238 -0.0997  0.0353 -0.0346
    1W        W42983   6.215   4.797   8.599  0.1269 -0.2118  0.0423
    1W        W42984   6.670  26.459   7.278  0.1627 -0.1067 -0.0942
    1W        W42985  15.780  16.320   6.790 -0.2817  0.1225 -0.3335
    1W        W42986   4.137  28.606   7.214 -0.0914  0.0403 -0.2598
    1W        W42987  19.976  20.521   8.911  0.0542 -0.1574 -0.0625
    1W        W42988   6.814  26.926   2.141  0.3908  0.1112  0.1515
    1W        W42989   9.517  14.453   7.986 -0.0617 -0.2853 -0.0441
    1W        W42990   1.219  27.966   2.613 -0.1660 -0.1992  0.0039
    1W        W42991   1.926  15.640   1.214  0.2301 -0.1030  0.2963
    1W        W42992   4.101  17.176   2.881 -0.1211  0.3888 -0.0375
    1W        W42993  22.628   4.640   8.100  0.0302 -0.2605 -0.0681
    1W        W42994  15.983  21.036   6.714  0.1152 -0.1942  0.3006
    1W        W42995   3.934   5.908   7.794 -0.1347 -0.0185  0.0107
    1W        W42996  28.438  16.072   8.257 -0.0687  0.1613  0.0693
    1W        W42997   8.039  17.140   8.141  0.0140  0.2846  0.0245
    1W        W42998   6.906  11.956   6.988 -0.2230  0.1210  0.1962
    1W        W42999  19.301   7.956   1.255  0.1555  0.2392 -0.0815
    1W        W43000  26.604  28.354   6.906  0.1661 -0.2440 -0.1333
    1W        W43001  12.919   9.930   3.104  0.0126 -0.1460  0.2440
    1W        W43002  13.839  13.902   9.100 -0.1885  0.0422 -0.1588
    1W        W43003  22.766  22.779   8.379  0.0781  0.3928 -0.0845
    1W        W43004   6.257  21.500   1.152 -0.2968 -0.4332 -0.0862
    1W        W43005  11.807  28.304   8.026  0.2497 -0.2644  0.0330
    1W        W43006   5.554   1.323   6.989 -0.0027 -0.2150  0.0261
    1W        W43007   1.515  16.809   0.212  0.2011 -0.2970 -0.0465
    1W        W43008   0.864  18.293   2.384  0.0943 -0.3562  0.1785
    1W        W43009   5.970  28.312   8.365 -0.0874 -0.3359  0.1779
    1W        W43010  25.184  26.307   8.906 -0.0351 -0.0469  0.1171
    1W        W43011  15.465   3.978   7.266 -0.1918  0.0450 -0.0464
    1W        W43012  21.472  10.993   1.841  0.0816  0.3310 -0.1828
    1W        W43013  23.106  15.275   2.482 -0.1571 -0.0444  0.0237
    1W        W43014  18.420  28.412   1.431 -0.2523  0.0412 -0.2753
    1W        W43015   1.181  11.872   9.036  0.2836 -0.1258 -0.1680
    1W        W43016  18.249   5.931   9.007  0.1398  0.0879 -0.0767
    1W        W43017  23.472  27.399   1.461 -0.2017  0.3547 -0.1798
    1W        W43018   5.479  24.998   1.108 -0.0190  0.1273 -0.2466
    1W        W43019   9.045  24.808   9.337  0.0877 -0.0461  0.2012
    1W        W43020   2.154   2.954   7.142 -0.2261  0.2143 -0.0255
    1W        W43021  15.804  12.876   2.828 -0.3151 -0.2160 -0.2756
    1W        W43022  27.865   0.720   1.231 -0.1565  0.1663 -0.2690
    1W        W43023   7.075   2.894   8.003 -0.5184 -0.1706 -0.0582
    1W        W43024  19.670  10.751   1.102  0.1382  0.0601  0.1400
    1W        W43025  28.273  29.033   7.151 -0.3535 -0.1608 -0.3065
    1W        W43026  25.593  14.612   8.674 -0.0115  0.1153  0.1996
    1W        W43027  12.118   3.694   0.627 -0.0187 -0.1648 -0.2329
    1W        W43028  11.165   3.567   6.995 -0.1442  0.1316 -0.0640
    1W        W43029   4.332   4.253   0.182 -0.1059 -0.1950  0.1170
    1W        W43030  25.529  22.049   1.778  0.0880 -0.1859 -0.1903
    1W        W43031  25.824   8.848   8.594  0.0286  0.2037  0.2820
    1W        W43032  21.607   2.006   1.081 -0.1876  0.0067 -0.2460
    1W        W43033  20.390   9.496   0.898  0.3142  0.0245  0.1021
    1W        W43034  15.132   6.125   0.998  0.1999  0.1382  0.4814
    1W        W43035  18.445  25.982   2.308  0.2666  0.1287  0.1273
    1W        W43036  24.293   0.772   7.654 -0.0280  0.4131  0.0490
    1W        W43037   8.709  11.109   9.332  0.1022 -0.2376 -0.0949
    1W        W43038  13.534  11.175   1.788  0.4455 -0.0547  0.1609
    1W        W43039   8.248  29.113   6.389  0.3920  0.0150  0.0134
    1W        W43040   5.520  15.215   1.431 -0.2073 -0.0050  0.1330
    1W        W43041   6.887  10.569   6.871 -0.0234  0.3981  0.1291
    1W        W43042  23.292  26.550   0.879  0.0294  0.1222 -0.1754
    1W        W43043   9.203  19.686   7.403  0.1743 -0.2780  0.1205
    1W        W43044  10.326  28.634   7.073 -0.2220 -0.2535  0.3248
    1W        W43045  26.193  14.450   0.605 -0.2546  0.0726  0.0795
    1W        W43046  13.540  26.890   2.321 -0.0630  0.1328  0.2892
    1W        W43047   4.395   4.798   8.620  0.0747 -0.2020 -0.1613
    1W        W43048   9.961   1.707   8.432 -0.0322  0.0378 -0.0245
    1W        W43049  24.284  16.539   1.854 -0.2131  0.2451 -0.0359
    1W        W43050   0.963  15.096   1.627  0.4085 -0.2373 -0.1411
    1W        W43051   5.830  27.202   1.293 -0.0235 -0.0948  0.3177
    1W        W43052  16.361  20.562   0.561 -0.3440 -0.1220 -0.2952
    1W        W43053   7.267  19.886   7.998  0.1298 -0.4031 -0.0296
    1W        W43054  23.040  22.199   0.278  0.2258  0.0691 -0.2579
    1W        W43055  20.664  10.019   1.617  0.1684  0.0535 -0.1801
    1W        W43056  22.372  23.043   0.290  0.2555 -0.0981  0.0400
    1W        W43057  16.679  25.854   7.602  0.0920 -0.0175  0.1191
    1W        W43058   3.590  11.262   6.798 -0.1204 -0.1642  0.2272
    1W        W43059   3.216  14.841   6.384  0.1150  0.2093  0.1091
    1W        W43060   1.538   7.999   1.279 -0.0156  0.0355 -0.2463
    1W        W43061   1.430  29.297   3.234 -0.2196 -0.2337  0.3327
    1W        W43062  29.558  24.686   8.454 -0.3298 -0.0314  0.0954
    1W        W43063  15.434   9.490   6.844 -0.0014 -0.2784 -0.1321
    1W        W43064  29.112   6.126   8.065  0.3965 -0.2138  0.1187
    1W        W43065   5.288  17.661   1.726  0.0363  0.1089  0.3102
    1W        W43066  19.912   8.472   7.338 -0.0429 -0.1274  0.2617
    1W        W43067  11.716   4.341   0.639  0.1753 -0.0190  0.2237
    1W        W43068   4.757  28.940   9.311 -0.0851 -0.0680  0.0800
    1W        W43069  10.975   9.071   8.337  0.2988  0.2199 -0.2860
    1W        W43070   2.601  23.771   7.204  0.2126  0.0872  0.3497
    1W        W43071  16.482  25.892   9.583  0.0404 -0.2368 -0.1901
    1W        W43072   4.803  10.389   6.486  0.2023 -0.0859 -0.0640
    1W        W43073   4.317   2.123   1.819  0.0259  0.0620 -0.1181
    1W        W43074  13.242  18.804   6.268 -0.1982 -0.2617 -0.0175
    1W        W43075   6.880  10.654   0.587 -0.0342  0.1103 -0.0914
    1W        W43076  29.581  19.127   7.369  0.1198  0.0720 -0.2813
    1W        W43077   6.269  25.296   6.626 -0.0370 -0.0021 -0.1570
    1W        W43078  15.926   5.650   0.686 -0.0813  0.0022 -0.1873
    1W        W43079  17.583  15.171   0.694 -0.3355  0.2023 -0.3182
    1W        W43080  24.823  27.460   0.359  0.0298 -0.0638  0.1170
    1W        W43081   5.026   4.892   8.825  0.0128 -0.0781 -0.1500
    1W        W43082  12.945   1.854   8.880  0.2256  0.1779 -0.0030
    1W        W43083   0.061  29.536   8.659 -0.2479  0.2582  0.3728
    1W        W43084  20.870  15.263   0.486 -0.2900 -0.2924 -0.0338
    1W        W43085  19.561  26.197   7.265 -0.1450 -0.1918 -0.1971
    1W        W43086  12.110  28.409   6.653 -0.2018 -0.0381  0.1018
    1W        W43087  22.975   1.225   7.877  0.0193 -0.0131  0.1996
    1W        W43088  20.393  26.841   9.214 -0.2799 -0.0868  0.0160
    1W        W43089  11.044  22.035   1.942  0.2760 -0.2251 -0.2002
    1W        W43090  25.128   5.510   8.968 -0.0999  0.4142 -0.0893
    1W        W43091  14.983   9.128   0.082  0.2159  0.0955 -0.4735
    1W        W43092   5.769  11.324   8.368  0.3808 -0.2366  0.1731
    1W        W43093   6.641  11.723   9.530  0.0329 -0.0003  0.0599
    1W        W43094  13.824  11.315   1.188 -0.0362  0.1353 -0.2303
    1W        W43095   4.743  15.758   8.513 -0.2748 -0.0277  0.0996
    1W        W43096   5.993  27.368   8.893 -0.1343  0.1586 -0.0840
    1W        W43097   1.745  27.064   1.584  0.2257  0.3265 -0.0449
    1W        W43098   7.581  12.465   6.222  0.2364  0.2243 -0.0498
    1W        W43099  17.652  26.334   1.232 -0.1471  0.1289  0.0890
    1W        W43100  15.590  16.708   8.084 -0.0445  0.1104  0.0460
    1W        W43101  10.261  22.373   3.027 -0.1859 -0.0033  0.1302
    1W        W43102  26.083  18.717   7.874  0.0131  0.3145 -0.3083
    1W        W43103  28.051   0.695   9.370  0.1785 -0.0792  0.0683
    1W        W43104   8.632   1.563   9.543  0.1394  0.2418 -0.2003
    1W        W43105  15.798   2.693   1.129  0.2584  0.0457  0.0280
    1W        W43106  23.043   2.844   7.851 -0.0937  0.1837  0.1507
    1W        W43107   2.203  22.962   8.017  0.0731  0.2460 -0.0233
    1W        W43108  18.730  21.087   3.930  0.1964 -0.1934  0.2310
    1W        W43109  27.060   9.866   0.239  0.2338  0.1171 -0.2308
    1W        W43110   6.805   2.604   1.795 -0.0541 -0.1470  0.0810
    1W        W43111   4.559  17.679   9.241  0.0707 -0.0088 -0.2062
    1W        W43112   1.997  26.102   8.087  0.0169  0.0255 -0.1086
    1W        W43113   9.197  26.490   9.345  0.1446  0.0093 -0.2684
    1W        W43114  21.421   4.831   2.447 -0.1097 -0.1059  0.2008
    1W        W43115   7.687   5.076   7.666 -0.0279  0.0377  0.1836
    1W        W43116  24.803  29.534   8.839 -0.1865 -0.1359 -0.0097
    1W        W43117  12.606   6.749   8.625  0.3626 -0.0771 -0.0177
    1W        W43118   7.418   2.936   8.887  0.3886  0.0512  0.2824
    1W        W43119  22.716   1.216   1.361 -0.1058  0.1692 -0.1999
    1W        W43120   7.354   4.196   1.924 -0.1348 -0.0763 -0.0575
    1W        W43121   6.519   0.587   1.445  0.1024 -0.0806 -0.2096
    1W        W43122  14.554  17.664   2.124 -0.1477 -0.0390  0.1499
    1W        W43123   9.567  21.527   8.568 -0.2860  0.0435  0.2132
    1W        W43124   7.481  14.905   1.375 -0.2319 -0.0668  0.2211
    1W        W43125  28.720  20.717   1.203 -0.0564  0.0158 -0.1409
    1W        W43126   6.814  12.886   2.456  0.0994 -0.1484  0.3573
    1W        W43127   3.142  13.301   0.244  0.3812  0.1906  0.1018
    1W        W43128  11.411  11.707   8.794  0.1552 -0.1628 -0.0784
    1W        W43129  15.335  11.285   6.350 -0.1063  0.2144  0.1566
    1W        W43130   2.387  15.001   3.271 -0.0730  0.0816  0.3751
    1W        W43131  12.521  26.687   9.499 -0.2940 -0.2449  0.1929
    1W        W43132  10.798   3.239   7.160 -0.2096 -0.1153 -0.1109
    1W        W43133  27.238   6.596   0.613 -0.0004 -0.2482 -0.2369
    1W        W43134  29.416  23.085   2.529 -0.0182 -0.4141  0.1561
    1W        W43135   7.962  22.520   8.529  0.1880  0.1383  0.3232
    1W        W43136  19.599   5.163   1.812 -0.1396  0.2521 -0.4669
    1W        W43137  16.672  27.054   1.604 -0.0443 -0.1100 -0.3067
    1W        W43138  26.586  28.488   1.981 -0.4359 -0.0988 -0.0945
    1W        W43139   6.783  13.517   7.144 -0.1257 -0.0059  0.2305
    1W        W43140  20.908   5.241   8.938 -0.0591 -0.1015 -0.2269
    1W        W43141  28.022   6.018   2.124 -0.1434  0.1149 -0.1405
    1W        W43142   2.481  26.194   7.865 -0.1678 -0.1841 -0.3501
    1W        W43143  14.049  22.586   1.144  0.0120  0.0597 -0.2201
    1W        W43144  23.176   6.007   0.319  0.3813  0.3780  0.1107
    1W        W43145  26.492  14.589   1.490  0.0474 -0.0676 -0.2484
    1W        W43146   4.895   7.449   1.421 -0.3217 -0.0428 -0.0084
    1W        W43147   3.485   2.066   7.042  0.3450 -0.2251  0.2031
    1W        W43148   0.615   6.272   7.082  0.2393  0.0998 -0.3389
    1W        W43149  11.846  27.452   1.688  0.0786 -0.2668 -0.0037
    1W        W43150   5.655  21.735   3.263 -0.1422  0.2972 -0.1536
    1W        W43151   8.807  17.166   9.368 -0.2557  0.0638  0.0384
    1W        W43152  14.826  15.085   7.723 -0.1050  0.0653 -0.0249
    1W        W43153   8.628  16.560   8.396 -0.3860 -0.0352 -0.3674
    1W        W43154  28.618   5.382   8.179  0.1434 -0.0105  0.0892
    1W        W43155   2.030  13.349   6.828 -0.2376  0.0915  0.0880
    1W        W43156   1.737  10.161   6.932 -0.3724  0.0047  0.1133
    1W        W43157  18.672  27.539   8.899 -0.0232  0.3193 -0.0023
    1W        W43158  10.221  25.135   1.413  0.1019  0.2995 -0.2478
    1W        W43159   3.780  10.798   6.691  0.2981 -0.3348 -0.0332
    1W        W43160  26.669  26.681   1.374  0.3072  0.1154  0.0089
    1W        W43161  28.480  14.546   1.416 -0.0979 -0.1939 -0.1448
    1W        W43162  27.590  18.086   3.106  0.1560 -0.2113 -0.3404
    1W        W43163  16.182  24.044   2.044 -0.0047  0.3919  0.3283
    1W        W43164  26.463   8.972   7.203  0.0727  0.2175  0.0114
    1W        W43165   1.657   4.309   0.550 -0.0631 -0.2577 -0.0827
    1W        W43166  28.424   0.809   7.621  0.3322  0.2783 -0.1965
    1W        W43167  12.452  20.645   6.762  0.2845  0.1171  0.0577
    1W        W43168  15.878  15.164   2.057  0.1521 -0.0699 -0.1569
    1W        W43169  12.948   3.717   9.106  0.0187 -0.1214 -0.0246
    1W        W43170  26.328  21.990   8.043  0.1263 -0.0526  0.1345
    1W        W43171  25.113   1.280   2.953 -0.3084  0.0268  0.2080
    1W        W43172  24.505  10.172   9.186 -0.0487 -0.0728  0.1103
    1W        W43173   6.322  13.617   8.339 -0.3611  0.0151  0.0090
    1W        W43174   4.094  20.633   6.376 -0.0393  0.0198 -0.0579
    1W        W43175   2.022  22.236   2.392 -0.0010  0.2918  0.2771
    1W        W43176  10.400  20.934   9.305  0.2722  0.1720 -0.0647
    1W        W43177  11.100   5.139   8.511  0.1444 -0.1429  0.1626
    1W        W43178  29.046  11.809   7.126 -0.2512 -0.3017 -0.0772
    1W        W43179  26.195  25.410   8.066 -0.0335 -0.1905  0.1570
    1W        W43180   9.931   5.981   0.680 -0.4417 -0.3795 -0.0157
    1W        W43181   6.697  15.174   9.637 -0.0454  0.1564 -0.2408
    1W        W43182  23.390   9.183   1.101  0.1912  0.4038 -0.5347
    1W        W43183   9.507  16.795   0.597 -0.0785 -0.0139  0.3116
    1W        W43184  21.261   3.256   0.835 -0.2038  0.0553  0.1514
    1W        W43185   7.150  22.954   8.957  0.2693  0.0268 -0.1953
    1W        W43186   4.733  26.457   0.322 -0.0671  0.1893 -0.0998
    1W        W43187  12.555   9.770   0.234 -0.0380  0.1348 -0.1295
    1W        W43188  14.825  10.055   0.776 -0.0320  0.0513 -0.4359
    1W        W43189   9.167  25.346   0.587 -0.0651  0.1434 -0.0059
    1W        W43190  14.701  11.494   2.730 -0.0486  0.0447  0.3924
    1W        W43191   9.936  18.349   9.348 -0.0248  0.2025  0.1146
    1W        W43192   0.596  22.458   2.876  0.2118 -0.0436  0.0779
    1W        W43193  17.335   4.416   2.177  0.0212 -0.2688 -0.3119
    1W        W43194  17.706  26.377   8.658 -0.2035 -0.2054  0.0659
    1W        W43195   2.466  16.310   8.244 -0.1541 -0.1276  0.1336
    1W        W43196   4.034   0.630   7.078 -0.0406  0.1268 -0.0851
    1W        W43197  22.937   4.858   7.733 -0.0130  0.3162 -0.0168
    1W        W43198  20.845  17.651   0.739  0.0892  0.0276  0.2269
    1W        W43199   3.184  12.491   7.482 -0.2612 -0.0597  0.2380
    1W        W43200   6.902   9.608   9.331 -0.2517 -0.0036 -0.1083
    1W        W43201  24.863   2.204   8.019 -0.0300 -0.2552 -0.2633
    1W        W43202  23.270  26.471   2.597 -0.2270  0.1462  0.1663
    1W        W43203  17.299   7.790   0.276 -0.2529  0.2239 -0.2677
    1W        W43204  16.638  28.140   3.106 -0.0640 -0.0046  0.2348
    1W        W43205  15.505   4.388   6.993 -0.0004 -0.0055 -0.0242
    1W        W43206  16.391  25.297   0.719  0.2638  0.0833  0.1533
    1W        W43207  17.050   0.510   9.475  0.2347 -0.0617 -0.2692
    1W        W43208  19.735  25.457   8.543  0.0878 -0.0720  0.1678
    1W        W43209   9.447   5.482   7.528 -0.3365 -0.3566  0.3749
    1W        W43210  19.705  16.611   9.463 -0.0883  0.1138  0.1890
    1W        W43211  20.794  18.136   0.635  0.0892  0.0225 -0.3096
    1W        W43212   8.914   8.606   8.273  0.1851  0.1318 -0.1042
    1W        W43213  24.214  15.517   9.557  0.0846  0.1061  0.1112
    1W        W43214   9.517   9.258   0.619 -0.0044 -0.0580 -0.0315
    1W        W43215  16.242  18.609   1.158  0.0462  0.0410  0.1241
    1W        W43216  10.692   7.652   6.494  0.1265  0.0188  0.0468
    1W        W43217  29.020  21.119   1.298 -0.1887  0.1013  0.0309
    1W        W43218  11.116   6.077   9.498 -0.2692  0.0416  0.2367
    1W        W43219   0.543   0.624   7.475  0.0686 -0.0207 -0.1367
    1W        W43220   9.866  13.781   2.404  0.2286 -0.0333  0.1772
    1W        W43221  18.728  26.603   2.349  0.1464 -0.0686  0.1013
    1W        W43222  11.531  23.834   0.911 -0.1109 -0.3525 -0.1885
    1W        W43223  27.326   3.821   6.912  0.0265  0.0067  0.1133
    1W        W43224   7.906   1.829   0.193  0.0200  0.0294 -0.1119
    1W        W43225   5.016  25.162   2.337 -0.0062  0.1582 -0.2051
    1W        W43226  11.486  27.424   9.201 -0.0473 -0.0945 -0.2786
    1W        W43227  19.554   1.018   0.964  0.0238  0.4465 -0.1319
    1W        W43228  27.948  28.484   0.334 -0.0229 -0.3872  0.2849
    1W        W43229   0.526  11.400   9.626  0.0412  0.0027 -0.2132
    1W        W43230  20.201  20.603   4.237  0.1461 -0.1738 -0.0625
    1W        W43231  13.721   7.571   8.953 -0.2228 -0.0074  0.0335
    1W        W43232  12.126   1.075   9.089  0.1246 -0.0114 -0.1931
    1W        W43233  13.643  24.858   2.214 -0.0550 -0.1244 -0.3273
    1W        W43234  10.549  13.305   6.906  0.2509 -0.2759  0.0457
    1W        W43235  23.872  16.227   0.397  0.2085  0.0719 -0.0223
    1W        W43236  28.062   1.154   7.645 -0.2364  0.2032  0.1089
    1W        W43237   4.937   2.074   2.560  0.3459  0.2623 -0.0727
    1W        W43238  29.597  19.708   7.598 -0.0802 -0.1987 -0.1611
    1W        W43239  17.372   1.264   7.942 -0.2570 -0.3576  0.0448
    1W        W43240  17.788   9.382   8.629 -0.1609 -0.0804  0.0913
    1W        W43241  12.079   9.187   1.641  0.0324  0.0090  0.2481
    1W        W43242  13.095   7.490   2.154  0.1131 -0.4619 -0.0099
    1W        W43243  28.257  14.310   8.132  0.0773  0.1701  0.1231
    1W        W43244   4.045  26.107   7.165 -0.0444  0.1807  0.1312
    1W        W43245  18.513  24.792   8.057  0.0891 -0.3661  0.1757
    1W        W43246  25.010   7.500   7.276  0.0567  0.1113  0.2382
    1W        W43247  24.095  29.299   1.511 -0.0794  0.1164  0.1099
    1W        W43248  17.297   6.731   0.714  0.2237 -0.2708 -0.1751
    1W        W43249  28.146   5.052   1.072 -0.0787 -0.1573  0.1811
    1W        W43250  13.155   0.794   1.571  0.0801 -0.1165 -0.1180
    1W        W43251  15.165  25.822   9.146 -0.0748 -0.0962 -0.0295
    1W        W43252  15.618  22.332   8.363 -0.0342 -0.1995 -0.4193
    1W        W43253  18.290  11.291   1.611 -0.0884 -0.3366  0.0262
    1W        W43254  18.282  24.764   0.277  0.2858 -0.1604 -0.0054
    1W        W43255  16.478  20.792   6.555  0.0505 -0.0529 -0.0717
    1W        W43256  26.674  18.168   1.729 -0.2030  0.0330 -0.0529
    1W        W43257  26.102  16.448   1.349 -0.1341 -0.1684  0.3329
    1W        W43258  19.514  18.168   1.403  0.1347  0.1554  0.2099
    1W        W43259  24.872  15.132   1.212 -0.1368 -0.1394  0.1423
    1W        W43260   0.915  29.521   0.554  0.1357 -0.3202  0.2887
    1W        W43261   7.238   2.183   8.337  0.0012  0.1679  0.0445
    1W        W43262  16.203   5.121   2.701  0.2444 -0.0756  0.0144
    1W        W43263  22.061  22.472   2.955 -0.0933 -0.1564 -0.0645
    1W        W43264  21.691   4.728   9.390  0.0067  0.3512  0.0620
    1W        W43265   8.582   6.760   0.155 -0.0290  0.4056 -0.0038
    1W        W43266   7.958  16.197   9.199  0.0535  0.1433  0.1370
    1W        W43267  19.326  19.187   9.238  0.0974  0.0070 -0.0537
    1W        W43268  19.879  14.956   9.398  0.0515  0.2217 -0.0899
    1W        W43269  12.931  13.901   7.051 -0.0056  0.1122 -0.1042
    1W        W43270   4.021   1.790   1.585 -0.0308 -0.0870  0.1385
    1W        W43271  22.768   3.629   7.382  0.0418 -0.0423 -0.2146
    1W        W43272   2.364  12.134   1.739  0.4532 -0.0840 -0.5307
    1W        W43273   0.527   4.570   0.614  0.0212 -0.2165 -0.1410
    1W        W43274   8.295  27.766   0.605  0.1737 -0.1593 -0.0597
    1W        W43275  27.824  16.334   9.298 -0.2953 -0.1824 -0.0800
    1W        W43276  24.742  29.155   0.323 -0.0328 -0.2409  0.3067
    1W        W43277  22.212  29.421   1.230 -0.2018  0.0437 -0.4981
    1W        W43278   4.529   6.293   1.583  0.0775  0.1697  0.2071
    1W        W43279  25.449  24.709   1.940  0.3636  0.0854  0.1659
    1W        W43280  10.231  19.599   6.625  0.2168  0.2574  0.1753
    1W        W43281  11.695  15.721   6.631  0.0138  0.0912  0.0471
    1W        W43282   0.513   4.616   1.404  0.0398 -0.1759  0.2190
    1W        W43283  14.337   5.659   2.227 -0.0902 -0.1475 -0.1623
    1W        W43284  21.030  27.630   3.348  0.0975 -0.1733 -0.3768
    1W        W43285  21.000  22.934   7.083  0.1437  0.0276  0.3114
    1W        W43286   8.619  27.451   7.137 -0.2721  0.1345 -0.2852
    1W        W43287   6.973  17.321   9.183  0.1706 -0.1770  0.1005
    1W        W43288  14.623   8.178   2.458  0.0493 -0.0948 -0.0396
    1W        W43289  13.332  16.024   0.235 -0.1136  0.0645  0.0324
    1W        W43290  20.140  10.185   0.517 -0.0175 -0.1110 -0.0374
    1W        W43291   7.419  24.364   9.618 -0.0341 -0.2361 -0.0616
    1W        W43292   6.944  27.865   9.257  0.1455 -0.0845 -0.0225
    1W        W43293  16.333  10.259   0.312 -0.2771  0.0135 -0.0616
    1W        W43294  21.262  11.237   9.203 -0.1800 -0.0082 -0.1526
    1W        W43295  18.687  25.687   2.705 -0.0214  0.0440 -0.0353
    1W        W43296   9.607   8.482   1.151 -0.0690 -0.3732  0.1804
    1W        W43297   8.565  24.287   2.692  0.0649 -0.1006 -0.1582
    1W        W43298   4.257   0.813   8.491  0.1193 -0.0681  0.0934
    1W        W43299   4.802   5.234   0.813 -0.0794  0.2104  0.0021
    1W        W43300  23.518   4.622   1.941  0.1308 -0.0784  0.3650
    1W        W43301  17.357   6.240   1.566  0.1706 -0.1614 -0.0677
    1W        W43302   0.311   1.059   7.440  0.1151 -0.1735  0.1208
    1W        W43303  25.978   2.859   8.332 -0.1483 -0.1659  0.0771
    1W        W43304  12.712  13.485   8.378 -0.2010 -0.0671 -0.1225
    1W        W43305   2.518  21.072   7.348  0.1525 -0.0902 -0.3937
    1W        W43306  18.509  26.926   0.949 -0.3416 -0.1418  0.2863
    1W        W43307  21.358  16.843   9.638  0.1435  0.1995  0.4876
    1W        W43308  12.052  24.076   2.902  0.0220  0.0207 -0.0685
    1W        W43309  28.693   6.624   6.358 -0.0570  0.1622 -0.0445
    1W        W43310   1.521  18.320   7.707 -0.0774 -0.2114  0.3226
    1W        W43311  14.435   8.077   0.459  0.3801 -0.1232  0.1594
    1W        W43312  13.823  17.826   9.640  0.0713  0.2135  0.2893
    1W        W43313  19.166   1.791   0.363  0.3171 -0.0991 -0.2246
    1W        W43314  24.181  21.434   0.812 -0.1368  0.2289 -0.1541
    1W        W43315   2.676  17.777   7.781  0.0050  0.3414 -0.0532
    1W        W43316   2.978  22.184   0.039 -0.1834  0.1948 -0.1710
    1W        W43317  19.713   6.943   7.276 -0.0454 -0.0469  0.3414
    1W        W43318  22.768   4.351   9.602  0.2094  0.0033  0.4925
    1W        W43319  26.400  29.132   8.826 -0.3452  0.2766  0.2255
    1W        W43320  10.802   9.212   7.510 -0.0657  0.1306  0.0894
    1W        W43321  29.012   5.673   7.441  0.2487 -0.1330 -0.3872
    1W        W43322  25.383  11.860   9.180  0.0840  0.0358  0.0558
    1W        W43323   2.761  28.189   1.569  0.3762  0.1577 -0.0317
    1W        W43324  25.871  15.995   1.393  0.1105 -0.2960 -0.0373
    1W        W43325  24.702  12.316   2.135 -0.1588  0.2222 -0.0200
    1W        W43326  14.029  14.918   7.775  0.3789  0.0678 -0.0167
    1W        W43327  29.355  25.573   0.778  0.0460 -0.1017 -0.2582
    1W        W43328  25.656   3.633   1.952 -0.0436  0.0791 -0.0953
    1W        W43329  20.844  18.568   2.215 -0.1171 -0.0174  0.0951
    1W        W43330  25.430   9.119   8.801  0.0882 -0.1244 -0.0446
    1W        W43331  14.838   9.033   7.850  0.3711 -0.1820 -0.1639
    1W        W43332   2.861  15.079   0.007 -0.1105 -0.2597  0.1254
    1W        W43333  14.630   8.651   8.313 -0.3368 -0.0677 -0.1289
    1W        W43334  25.019  14.738   1.546  0.1172 -0.1622 -0.0450
    1W        W43335  15.483  26.695   1.745  0.0012  0.1503 -0.0957
    1W        W43336  10.717   9.354   6.992  0.0744  0.0385  0.0740
    1W        W43337   6.831  22.838   7.250 -0.2118  0.1122 -0.1130
    1W        W43338   8.310  20.461   8.446  0.3405  0.1564 -0.2325
    1W        W43339   8.280  15.153   6.733  0.0281 -0.1355  0.1410
    1W        W43340  11.422  12.505   6.362 -0.0729  0.2315 -0.1008
    1W        W43341   8.091  16.951   0.736  0.5179  0.2395 -0.1048
    1W        W43342  16.770   1.983   0.528 -0.1620  0.2046 -0.2568
    1W        W43343  14.497   6.645   6.753 -0.0413  0.1798  0.1155
    1W        W43344   0.915  17.413   9.335 -0.0407  0.3887  0.0881
    1W        W43345   4.854  11.945   7.033 -0.2334 -0.2485 -0.1134
    1W        W43346   9.676  29.388   6.889  0.2729 -0.1165  0.0970
    1W        W43347   3.399  18.060   6.430  0.4258  0.0590 -0.0118
    1W        W43348   1.093  21.097   9.371  0.2867  0.1840  0.1253
    1W        W43349  27.471  20.525   7.025  0.0844  0.1308  0.2974
    1W        W43350  14.943  27.224   7.673  0.0901 -0.0286 -0.0446
    1W        W43351   0.365  10.423   7.923 -0.0895  0.2801  0.0445
    1W        W43352  20.056  21.193   2.791 -0.0181 -0.2475 -0.0646
    1W        W43353  12.396  20.798   1.354  0.0836 -0.0734 -0.2369
    1W        W43354   2.087   2.617   7.596  0.1805 -0.1671 -0.0458
    1W        W43355  21.484   7.568   9.624  0.1590 -0.0256  0.2473
    1W        W43356  20.707   3.263   8.275  0.0154  0.0996  0.1113
    1W        W43357   4.233   1.631   8.032  0.1047 -0.0495  0.2166
    1W        W43358  18.738  22.728   0.432  0.1089  0.2651 -0.0268
    1W        W43359  27.763   6.464   1.955  0.0275  0.3024  0.0757
    1W        W43360  25.116   7.272   0.643 -0.0054 -0.0335  0.1402
    1W        W43361  18.417  23.889   2.171  0.0670 -0.1221  0.1387
    1W        W43362  22.507  17.427   8.092 -0.1806 -0.0234 -0.0107
    1W        W43363  11.358  27.847   0.491 -0.1934 -0.3092  0.3075
    1W        W43364   6.074   4.048   7.452 -0.3334  0.1209  0.3650
    1W        W43365  14.960  22.928   8.963 -0.3592 -0.0167 -0.1273
    1W        W43366  23.525  18.170   0.476  0.0868  0.2367 -0.0590
    1W        W43367  13.022  24.027   1.875  0.2921 -0.2252  0.1453
    1W        W43368   2.550   0.703   1.215 -0.2304 -0.1312 -0.1969
    1W        W43369  12.777  18.308   0.762  0.0556 -0.1410 -0.3233
    1W        W43370   0.185  11.798   9.467 -0.0178 -0.3276 -0.0851
    1W        W43371  22.721  16.507   1.025 -0.0313  0.2710  0.0089
    1W        W43372  21.696  11.343   0.807 -0.2838  0.2183 -0.1074
    1W        W43373  11.334  26.843   6.976 -0.2276 -0.0520 -0.0038
    1W        W43374  17.994   9.803   8.844 -0.1129  0.4104  0.1090
    1W        W43375  13.520  27.204   7.643 -0.2204 -0.2128  0.2511
    1W        W43376   7.724   0.101   7.229  0.0290 -0.2702  0.0813
    1W        W43377   0.481   7.558   6.277 -0.2322 -0.3305 -0.1389
    1W        W43378  16.981  17.606   8.004 -0.0872 -0.0546 -0.2385
    1W        W43379   8.819   0.006   1.216  0.0043 -0.0466 -0.0439
    1W        W43380  22.324   4.986   1.938 -0.0370 -0.0412 -0.2030
    1W        W43381   3.678   7.754   1.121 -0.3134  0.2901 -0.0852
    1W        W43382  12.008  16.635   8.430 -0.2166 -0.2775 -0.0870
    1W        W43383  20.303  10.557   2.279 -0.0524 -0.0129 -0.0794
    1W        W43384   8.578  16.497   0.330  0.1107  0.0211  0.0109
    1W        W43385  10.084   1.272   9.454 -0.0820 -0.1256  0.1721
    1W        W43386  13.757  29.099   2.977 -0.1439 -0.0664  0.0996
    1W        W43387   8.986   6.730   1.735 -0.0068 -0.0978  0.0029
    1W        W43388  15.329  23.646   0.435  0.4296  0.2377  0.2150
    1W        W43389  14.461  26.760   0.947 -0.1092 -0.0241 -0.2742
    1W        W43390  13.955  10.680   9.155 -0.0355  0.2011 -0.0170
    1W        W43391  21.144  16.346   1.437  0.1743 -0.4189  0.3043
    1W        W43392  25.245  11.410   1.907  0.2452 -0.0749 -0.1594
    1W        W43393  11.457  11.657   1.495 -0.0040 -0.2361 -0.0348
    1W        W43394  16.163  23.696   0.214  0.0421  0.0124 -0.1261
    1W        W43395  14.977  14.405   1.177  0.2350 -0.1967  0.2257
    1W        W43396  20.501  11.402   1.915  0.2473 -0.0809 -0.1576
    1W        W43397  12.707  24.780   0.865  0.1565 -0.0215  0.0078
    1W        W43398   3.829  21.679   0.272 -0.0578  0.1818  0.0264
    1W        W43399   9.137  15.078   5.853  0.1397  0.0541  0.1251
    1W        W43400  18.478  13.142   9.077  0.0679 -0.1460 -0.1426
    1W        W43401  24.101  15.490   8.622  0.0833 -0.3293  0.0265
    1W        W43402   5.052  25.427   8.297  0.0731 -0.1028 -0.0145
    1W        W43403  17.028   9.901   0.755 -0.2503 -0.1228 -0.0590
    1W        W43404   6.082  24.831   8.470 -0.0706  0.1174 -0.0301
    1W        W43405   9.056  26.332   1.718 -0.0426 -0.1206 -0.2208
    1W        W43406  19.367   0.651   8.279 -0.1200  0.0861 -0.0101
    1W        W43407  10.605   1.957   1.161 -0.3190 -0.3699  0.1198
    1W        W43408  15.685   3.880   8.167  0.3196  0.0295 -0.2788
    1W        W43409   1.873  11.224   9.088  0.2917  0.2546 -0.1496
    1W        W43410  27.419   9.508   0.186 -0.0263 -0.1561 -0.4093
    1W        W43411  11.732  25.585   1.667 -0.1247 -0.5875 -0.0010
    1W        W43412   5.840   1.682   9.169 -0.2016 -0.1698 -0.2729
    1W        W43413  10.536   5.088   1.564  0.2572 -0.2689 -0.1386
    1W        W43414   8.270  26.827   0.094  0.1369  0.2692  0.3890
    1W        W43415   9.285  23.558   8.018  0.0609  0.2069 -0.0284
    1W        W43416  11.198   1.918   9.290 -0.2970 -0.3115  0.2851
    1W        W43417  28.445  11.393   1.986  0.0943 -0.0942 -0.2610
    1W        W43418   6.339  12.687   8.631 -0.0651 -0.1916  0.1427
    1W        W43419  18.942  22.549   1.841 -0.0726 -0.2487 -0.0673
    1W        W43420  18.061  19.763   6.460  0.0224  0.1913 -0.0984
    1W        W43421  11.127   5.914   1.680  0.0767  0.1192 -0.1304
    1W        W43422  22.060   4.692   9.052  0.1463  0.0021 -0.4071
    1W        W43423   9.527   7.155   2.219 -0.2665 -0.0206 -0.2420
    1W        W43424  11.431  17.980   8.431  0.0632 -0.1154  0.0153
    1W        W43425  20.086   0.232   1.918 -0.0618  0.0191  0.1313
    1W        W43426   4.792   4.537   7.781  0.0874  0.3572 -0.1047
    1W        W43427   7.701  29.445   8.548  0.1550  0.1137  0.0780
    1W        W43428  28.493  15.717   7.188 -0.0709  0.0445  0.1229
    1W        W43429  23.247  16.372   3.120 -0.2615 -0.1292 -0.1161
    1W        W43430  22.481   8.842   8.564  0.2412 -0.0845  0.0098
    1W        W43431  14.089  17.008   0.360 -0.1889 -0.2238 -0.2583
    1W        W43432  27.153   2.046   1.600  0.1043  0.1635  0.1078
    1W        W43433  19.407  29.155   8.865 -0.2363  0.0141  0.1574
    1W        W43434   1.847   0.427   7.581 -0.2454 -0.1574 -0.0829
    1W        W43435  22.588  20.168   1.272  0.4588 -0.1903  0.0414
    1W        W43436   7.601   4.265   0.292 -0.0795  0.4161 -0.2244
    1W        W43437   5.990  16.555   8.878  0.1875  0.2021 -0.3749
    1W        W43438   0.217   7.645   1.810  0.1170  0.0199  0.2015
    1W        W43439  16.423  19.458   6.930  0.3692 -0.2500 -0.0959
    1W        W43440   4.875  16.794   6.990  0.1782  0.0960 -0.0160
    1W        W43441   7.956   7.329   8.488  0.2540 -0.1175 -0.1947
    1W        W43442  10.468  16.089   1.634  0.1797  0.0271 -0.2161
    1W        W43443  25.166   4.585   9.603  0.1245 -0.0463 -0.1343
    1W        W43444  22.600  13.215   1.784 -0.1967  0.3576  0.0962
    1W        W43445  22.683   6.735   2.230 -0.0161  0.0157 -0.1671
    1W        W43446  20.332  18.512   0.448 -0.2504 -0.0851 -0.1396
    1W        W43447  14.034  11.201   3.074 -0.0409  0.1886 -0.1275
    1W        W43448  21.002  29.537   8.126 -0.0584 -0.1082  0.0465
    1W        W43449  16.314  22.279   8.254  0.0475 -0.2068 -0.2683
    1W        W43450   4.310   1.875   0.156  0.4540 -0.3359  0.0486
    1W        W43451  18.080  13.891   8.865  0.1055  0.1185 -0.0047
    1W        W43452  13.831  24.846   9.060 -0.2580  0.2427  0.0490
    1W        W43453   5.366  23.526   1.238  0.2056 -0.0094 -0.0547
    1W        W43454  15.322   1.098   2.090 -0.7327 -0.0261 -0.2597
    1W        W43455  26.725  29.550   7.082  0.1096 -0.0184 -0.1156
    1W        W43456  19.739  14.838   8.919 -0.0319 -0.0928  0.1952
    1W        W43457  27.268  12.258   8.129  0.2307 -0.0804  0.1071
    1W        W43458  14.437  27.534   0.620 -0.1828  0.0882  0.2102
    1W        W43459  16.922  15.883   8.032 -0.1395  0.0810 -0.3327
    1W        W43460   7.581  13.611   8.806  0.0478 -0.0182 -0.4137
    1W        W43461  26.085  13.120   8.016  0.1014 -0.0203 -0.1714
    1W        W43462   3.550  17.819   7.494 -0.3380 -0.1680  0.2785
    1W        W43463  23.094   1.007   9.111 -0.0877 -0.0488  0.1167
    1W        W43464  20.735  23.724   1.739  0.0391  0.0047 -0.2191
    1W        W43465   6.191  25.747   8.282 -0.0857  0.1357 -0.1173
    1W        W43466  20.442   5.892   7.244 -0.2196 -0.1290 -0.1276
    1W        W43467  12.785  11.216   8.308 -0.1965 -0.0484  0.3287
    1W        W43468   1.026   1.754   7.407  0.2895  0.0445  0.1604
    1W        W43469  20.901  14.061   9.086 -0.0089  0.2823  0.1887
    1W        W43470  23.061  10.542   1.864  0.2901 -0.0888  0.0867
    1W        W43471  13.990  28.582   7.688 -0.2908 -0.0834  0.2650
    1W        W43472   8.320  19.427   2.061  0.3812  0.0408 -0.0527
    1W        W43473   4.509  10.646   7.803  0.0738 -0.0998 -0.0750
    1W        W43474  12.029  16.193   8.192 -0.0597  0.0084  0.3139
    1W        W43475  27.547  26.783   1.807 -0.2378  0.2874  0.3459
    1W        W43476  18.387   3.496   0.184 -0.1890 -0.2291 -0.2687
    1W        W43477  24.224  25.726   8.293 -0.0185  0.0636 -0.0121
    1W        W43478  19.316  19.114   8.302  0.4318 -0.4160 -0.1355
    1W        W43479   9.596  19.048   1.755  0.1382 -0.2024 -0.1061
    1W        W43480  14.441  28.448   9.054 -0.0942 -0.1778 -0.0068
    1W        W43481  25.535  14.296   7.720  0.1265  0.1057  0.0663
    1W        W43482  14.489  21.102   8.460  0.0004 -0.1098 -0.0687
    1W        W43483  28.951   3.836   1.087 -0.3005 -0.2736  0.1046
    1W        W43484   2.849  12.916   0.672  0.1823  0.2634  0.1570
    1W        W43485  21.432   2.940   8.591 -0.2490 -0.2144 -0.2689
    1W        W43486  24.917   3.351   8.063  0.0693 -0.0664 -0.1495
    1W        W43487  21.093  19.921   8.630 -0.3875 -0.1232  0.1042
    1W        W43488   9.845   7.243   0.015 -0.4074 -0.0278  0.0259
    1W        W43489   5.167  28.653   7.671  0.2877  0.1469 -0.1806
    1W        W43490  10.778  21.261   7.129 -0.2802  0.1002  0.1037
    1W        W43491  12.740   2.510   1.498  0.0017 -0.0592 -0.1101
    1W        W43492   1.468   5.659   6.136 -0.1812  0.0967  0.1536
    1W        W43493   8.726  25.598   0.591 -0.0883  0.0990 -0.0760
    1W        W43494   9.599  10.790   0.319  0.3735  0.2544 -0.1135
    1W        W43495  20.785  17.220   1.871  0.0589  0.4990 -0.2713
    1W        W43496  22.009   1.869   1.649  0.0301 -0.0880  0.2140
    1W        W43497  28.418  22.606   0.551 -0.1853 -0.0973  0.3012
    1W        W43498   2.059   0.188   0.587  0.0473  0.1669 -0.2936
    1W        W43499   0.250  26.380   3.096 -0.2326 -0.1744  0.2271
    1W        W43500   3.239  21.407   9.202 -0.2786  0.4114 -0.0994
    1W        W43501  19.652   4.180   0.468 -0.3092 -0.2032  0.1584
    1W        W43502  25.937   8.186   0.375 -0.1542  0.1916 -0.1997
    1W        W43503  11.767  22.504   1.294  0.1614  0.0329  0.1969
    1W        W43504   7.422  20.706   1.234  0.0607  0.2627 -0.3229
    1W        W43505   4.796  11.816   1.253 -0.1963 -0.0412 -0.1841
    1W        W43506  27.723  20.516   9.205  0.0873 -0.0108  0.3361
    1W        W43507  12.621  13.002   6.443 -0.0345  0.0470  0.1510
    1W        W43508  27.817  19.665   7.696  0.0577 -0.0319 -0.1399
    1W        W43509  20.909   4.317   0.832  0.2568  0.2764  0.0473
    1W        W43510   6.604   5.647   7.251 -0.2065 -0.5121  0.0032
    1W        W43511  16.392  10.448   7.684  0.1361  0.2139 -0.0414
    1W        W43512  23.056  19.381   2.168 -0.1175 -0.1173  0.0448
    1W        W43513  23.398  10.245   7.637  0.0334  0.0815  0.0313
    1W        W43514  20.474  12.360   7.167  0.1282  0.0532  0.0635
    1W        W43515  23.807   6.976   0.302 -0.1210 -0.2769 -0.3230
    1W        W43516   8.056   3.697   6.134  0.3412  0.1688  0.1044
    1W        W43517  20.331   2.455   8.092 -0.1462 -0.5126 -0.0754
    1W        W43518  20.327   7.368   0.724  0.0046  0.0220  0.0140
    1W        W43519  13.007  23.040   8.664  0.1115  0.0893  0.0557
    1W        W43520   9.944   7.448   1.024  0.1603 -0.1457  0.1118
    1W        W43521   1.882   2.137   6.840 -0.2493 -0.1433 -0.1032
    1W        W43522  13.980  14.905   9.408  0.1573 -0.1473 -0.1658
    1W        W43523   5.291  15.822   2.099 -0.1348  0.1651 -0.0426
    1W        W43524  15.056  14.166   8.827  0.2551  0.2381  0.1256
    1W        W43525   2.122  10.212   8.054  0.3613  0.2089 -0.1469
    1W        W43526  25.756  20.425   8.718  0.1322  0.1960 -0.2904
    1W        W43527   6.954  16.717   8.377 -0.0875  0.0244  0.1197
    1W        W43528   8.546  13.660   7.482 -0.1862 -0.1631 -0.1202
    1W        W43529  19.929  13.276   8.197 -0.0642 -0.3072 -0.0843
    1W        W43530   5.222   9.248   0.506 -0.1672  0.1360 -0.2546
    1W        W43531   5.038  20.933   2.122 -0.1058  0.0276  0.1671
    1W        W43532   4.774   3.442   8.210 -0.0178 -0.1263  0.0877
    1W        W43533  15.130  10.268   1.128 -0.0786  0.0162  0.0110
    1W        W43534  20.551   6.987   8.199  0.0930  0.1896  0.1149
    1W        W43535   3.486   8.594   7.237 -0.0145 -0.0957  0.1000
    1W        W43536  18.781  10.704   8.978 -0.1369  0.1712 -0.0876
    1W        W43537  15.991   6.860   9.003  0.2008  0.2967 -0.1571
    1W        W43538  21.017  19.982   7.974  0.0143  0.1344 -0.1879
    1W        W43539  11.583  18.512   6.220  0.1551 -0.0270 -0.0771
    1W        W43540  20.553  18.670   3.073  0.1446  0.0865 -0.2120
    1W        W43541  27.930   0.068   0.237 -0.0804 -0.1111  0.1584
    1W        W43542   0.784   1.256   1.463  0.2147 -0.2284 -0.2918
    1W        W43543  20.378  21.827   1.134  0.0427 -0.0744  0.0490
    1W        W43544  26.515  25.418   9.328 -0.1379 -0.3070 -0.0361
    1W        W43545  18.141  24.639   7.259 -0.0116  0.0506 -0.3876
    1W        W43546  14.037  20.931   8.627 -0.1569 -0.1526  0.4709
    1W        W43547  26.404  23.667   1.340  0.3516  0.0266  0.1036
    1W        W43548  20.175   7.478   0.283 -0.1979  0.2500  0.2146
    1W        W43549  24.775  20.491   9.024 -0.1738 -0.0162 -0.0096
    1W        W43550  17.759   3.759   1.556 -0.2073 -0.2514  0.2132
    1W        W43551  29.552  23.817   8.938 -0.1551 -0.2311 -0.0537
    1W        W43552  22.457  17.474   2.603  0.3807 -0.2433 -0.1050
    1W        W43553   9.604  16.893   8.660  0.1555 -0.1075 -0.0581
    1W        W43554  11.042   0.344   0.331 -0.1354  0.0815  0.0930
    1W        W43555  28.961  17.710   8.463  0.1528  0.3708  0.0681
    1W        W43556  22.052  14.669   0.361  0.0430 -0.0077 -0.1367
    1W        W43557  24.423  16.444   8.373  0.0840 -0.0898 -0.0581
    1W        W43558  22.650  14.407   2.096 -0.1904  0.0328  0.3252
    1W        W43559   9.356   5.498   1.675 -0.1314  0.0038 -0.2650
    1W        W43560  12.568  18.458   6.901 -0.2923  0.0096 -0.0356
    1W        W43561   3.924  12.696   9.648 -0.0635 -0.1501  0.2422
    1W        W43562  10.743  11.890   2.735  0.2464 -0.2430 -0.2815
    1W        W43563   9.470   9.910   6.525  0.0127 -0.1832 -0.0084
    1W        W43564  16.146  18.060   7.899  0.4536 -0.2418 -0.1828
    1W        W43565  11.216   2.121   1.107 -0.1822 -0.1971 -0.0046
    1W        W43566  16.208  21.286   7.210  0.0560 -0.0126 -0.0791
    1W        W43567   4.140  27.860   0.918  0.0223  0.1195 -0.2001
    1W        W43568   7.162  25.591   2.730 -0.2045  0.3439 -0.0153
    1W        W43569   8.242  20.102   0.691 -0.0130 -0.0982 -0.2493
    1W        W43570  18.588  11.147   8.731 -0.1949  0.3093 -0.0576
    1W        W43571  15.668  29.361   2.083  0.0829 -0.1333  0.0377
    1W        W43572  18.121   0.709   6.654 -0.2007  0.1412  0.0890
    1W        W43573  25.654  22.994   7.857  0.1200  0.0803  0.1816
    1W        W43574  18.948  11.438   7.655 -0.1634  0.0302  0.1491
    1W        W43575  11.164  23.730   7.958 -0.3945  0.2237 -0.0235
    1W        W43576  13.775   4.433   0.073  0.2117 -0.1831 -0.1141
    1W        W43577   3.193  22.211   7.739 -0.2610  0.0274  0.0166
    1W        W43578   5.698  22.415   0.479  0.1004 -0.0445  0.1009
    1W        W43579   0.322  28.769   1.948  0.3572 -0.1222 -0.1190
    1W        W43580  18.359  17.557   2.169  0.0975 -0.2665 -0.1128
    1W        W43581   1.300   6.209   8.905  0.3190  0.1648  0.1413
    1W        W43582  24.442  20.686   3.563 -0.0202  0.0386  0.0592
    1W        W43583   6.612  25.212   2.205  0.0017  0.3920  0.0224
    1W        W43584  12.626  10.889   8.642 -0.0724  0.1632 -0.1618
    1W        W43585  26.927   0.218   2.446  0.0523 -0.1616 -0.0688
    1W        W43586   5.739   4.924   7.668  0.1034 -0.0967  0.0204
    1W        W43587  18.217  22.668   3.566  0.0278  0.0542 -0.0273
    1W        W43588  20.792   4.869   0.821 -0.2288  0.0061  0.2307
    1W        W43589   7.197   1.207   6.022 -0.0352 -0.0417  0.3016
    1W        W43590   8.886  29.530   6.382 -0.0498 -0.1423  0.0066
    1W        W43591  14.374  22.136   6.216  0.1990  0.0865 -0.2999
    1W        W43592  10.269  13.908   0.388 -0.0886 -0.0807  0.3316
    1W        W43593  14.884   6.287   7.548 -0.0034 -0.1973  0.3675
    1W        W43594   7.714   9.300   8.910  0.0071 -0.2394  0.1936
    1W        W43595   2.513   0.865   9.399 -0.0445  0.0888 -0.2737
    1W        W43596   7.002   5.007   6.074 -0.0059  0.1468 -0.1115
    1W        W43597   5.417  12.641   8.836 -0.3160  0.0035  0.1035
    1W        W43598  13.011   7.291   0.364 -0.0705  0.0029  0.3881
    1W        W43599  16.551  12.646   7.599 -0.0960  0.1552  0.0089
    1W        W43600  22.084  15.623   2.880  0.0680  0.1083  0.1560
    1W        W43601   5.753  25.813   3.204  0.0299 -0.1978 -0.1618
    1W        W43602   4.089   8.458   8.647 -0.1837  0.1632  0.0010
    1W        W43603  18.234  11.885   8.081  0.0948 -0.0719 -0.3263
    1W        W43604  24.995  21.836   1.589  0.1834 -0.2161  0.1364
    1W        W43605   6.052  22.980   7.422  0.4413  0.1281  0.2600
    1W        W43606   8.305   7.050   6.305 -0.3088  0.0144 -0.2701
    1W        W43607  19.423  19.422   3.731 -0.0343  0.0112 -0.1714
    1W        W43608   2.070  10.812   6.538 -0.0094  0.0355  0.0872
    1W        W43609   6.431  24.795   6.894 -0.0087  0.1405  0.2051
    1W        W43610  24.421  10.918   2.058 -0.0777 -0.1927 -0.0770
    1W        W43611  16.521  19.150   2.073  0.0889  0.1411  0.3689
    1W        W43612   6.348   2.627   2.690  0.0701 -0.2150  0.3359
    1W        W43613  11.990  25.227   6.864  0.0145  0.0481 -0.1349
    1W        W43614  18.315   8.266   0.653 -0.1559 -0.1441 -0.2838
    1W        W43615  15.809   2.457   6.910  0.5186  0.2645  0.0792
    1W        W43616  27.637  14.607   1.477 -0.0564 -0.0590  0.2114
    1W        W43617  26.862   8.769   9.385 -0.0204 -0.3633  0.0934
    1W        W43618  20.363   3.346   3.439 -0.0655 -0.0631  0.2858
    1W        W43619  20.703  10.884   7.475  0.3715  0.1739 -0.0603
    1W        W43620  18.991  26.890   9.617 -0.0908  0.0542  0.1274
    1W        W43621  28.071  22.630   2.478  0.0858 -0.3048  0.3087
    1W        W43622  12.402  17.854   1.542  0.1730  0.4614  0.3511
    1W        W43623  23.550  17.673   1.887 -0.2534 -0.1076 -0.0849
    1W        W43624  20.369   6.066   1.257 -0.2159 -0.1453  0.0141
    1W        W43625  27.052   5.026   2.519  0.2530 -0.0253 -0.3306
    1W        W43626   0.857  24.464   8.203  0.0371 -0.2089  0.1507
    1W        W43627  12.839  19.211   0.511 -0.0249 -0.0574  0.1898
    1W        W43628  23.219   2.888   0.650 -0.1246  0.0282 -0.0324
    1W        W43629  17.114   5.937   3.159  0.2967  0.2770 -0.1135
    1W        W43630  26.975   0.118   2.938  0.0852 -0.3158  0.0965
    1W        W43631   9.083   6.245   8.901  0.1387 -0.0003  0.2446
    1W        W43632  20.216  28.895   9.319  0.2833  0.1737  0.0219
    1W        W43633  25.564  10.104   1.860  0.0813 -0.0024  0.1651
    1W        W43634  25.919  12.050   9.387  0.2911  0.1791  0.0749
    1W        W43635   2.816  25.525   0.629 -0.0342 -0.0893  0.2263
    1W        W43636  22.617   6.956   0.836 -0.3661  0.0130  0.1666
    1W        W43637  17.249  22.740   9.612 -0.0423 -0.3467 -0.0464
    1W        W43638  26.101  21.503   8.028 -0.2718 -0.2732  0.2342
    1W        W43639  17.284  27.852   1.350  0.0606 -0.2023 -0.1819
    1W        W43640  28.428  27.119   2.210 -0.1419  0.1355  0.0498
    1W        W43641  19.958  16.552   2.367 -0.0894  0.0170 -0.0636
    1W        W43642   8.725  10.472   0.024  0.1061 -0.4227  0.0887
    1W        W43643   0.173  17.193   7.839  0.0140 -0.1171  0.0303
    1W        W43644  17.334  26.473   8.234 -0.1374 -0.3864 -0.1669
    1W        W43645  10.543   6.852   0.871 -0.2762 -0.3272  0.0434
    1W        W43646  17.403   9.046   7.429 -0.1941 -0.0316  0.0660
    1W        W43647  20.721  17.191   2.652  0.4640  0.1461 -0.0767
    1W        W43648  24.928   7.168   8.338  0.3710  0.3958  0.0202
    1W        W43649  18.050  13.657   1.081  0.1636  0.4172 -0.0987
    1W        W43650  11.764  17.972   1.192 -0.0295  0.2379 -0.1590
    1W        W43651  11.373   7.903   7.332  0.1106 -0.0968  0.1057
    1W        W43652  11.243   1.242   6.743  0.1342 -0.3830 -0.5199
    1W        W43653  15.601  19.301   7.689 -0.1798  0.2578  0.2798
    1W        W43654   7.166   7.584   0.339  0.1358  0.3085  0.1747
    1W        W43655  12.979   4.770   8.157 -0.1847  0.1299  0.2765
    1W        W43656  16.309  25.166   8.049  0.0221  0.0677  0.1598
    1W        W43657   8.832  22.166   9.084 -0.2560 -0.0512  0.0813
    1W        W43658  18.731   3.102   0.289  0.0177 -0.2516  0.2963
    1W        W43659  10.475  15.195   1.850 -0.4908 -0.2898  0.0591
    1W        W43660  16.411  21.734   2.469 -0.2814  0.0962 -0.0113
    1W        W43661  29.068   2.137   0.400  0.0505  0.2448 -0.1221
    1W        W43662  19.156  23.600   1.544  0.0520  0.1371 -0.3239
    1W        W43663  17.641  13.765   0.068  0.1064 -0.0904  0.1427
    1W        W43664  25.539   0.444   2.120  0.4297 -0.2326  0.2504
    1W        W43665  25.128  27.127   8.337 -0.2210  0.1412  0.1873
    1W        W43666   5.334  13.115   7.404  0.1814  0.0495  0.0132
    1W        W43667  15.271  13.177   8.108 -0.1554 -0.3872  0.4323
    1W        W43668   2.008  26.629   2.348  0.0751  0.0337  0.0595
    1W        W43669  17.795   1.596   8.784 -0.1875  0.0072  0.0698
    1W        W43670  12.016   6.496   6.401 -0.1241 -0.0335 -0.1810
    1W        W43671  17.237   1.321   1.130 -0.0778 -0.3630  0.2981
    1W        W43672   6.765   7.789   0.085 -0.2463  0.0048 -0.1195
    1W        W43673  26.985  11.993   1.518 -0.0771 -0.1865  0.0141
    1W        W43674  23.604  13.049   6.663 -0.1951  0.1785 -0.2321
    1W        W43675   4.164  27.654   0.182 -0.1759  0.1207 -0.0969
    1W        W43676  24.477  20.180   0.068 -0.0837  0.0249 -0.0177
    1W        W43677   2.114  28.322   7.962 -0.0530 -0.0129 -0.0201
    1W        W43678   7.244   3.350   7.984 -0.2167 -0.1425 -0.1675
    1W        W43679   0.721  17.786   9.039  0.1982  0.1258 -0.1161
    1W        W43680   6.977   9.889   8.456  0.1489 -0.0806 -0.0964
    1W        W43681  15.405  24.942   2.164 -0.2455  0.1749  0.0486
    1W        W43682  12.448   1.990   8.420 -0.4220  0.1680  0.1768
    1W        W43683  12.760  19.785   8.963  0.0491  0.3094 -0.4885
    1W        W43684  12.493   8.212   8.106  0.0685  0.4152 -0.1779
    1W        W43685   8.824  12.709   0.007  0.1754  0.3026 -0.3667
    1W        W43686  10.432  20.204   8.557  0.0385  0.2461  0.0462
    1W        W43687  12.327  21.092   7.227 -0.1952 -0.0500  0.0368
    1W        W43688   8.371   2.453   8.608 -0.0046 -0.1846 -0.2226
    1W        W43689  25.464  12.669   1.323  0.0290  0.0359  0.1521
    1W        W43690  14.506  21.441   7.597  0.2468  0.0365  0.1288
    1W        W43691  26.601  25.090   0.124  0.3586  0.0011 -0.1608
    1W        W43692  19.394   1.880   8.119  0.1917 -0.0470  0.1849
    1W        W43693  21.782  12.143   1.079 -0.0124  0.0249  0.1184
    1W        W43694  25.639  27.915   9.288 -0.0296  0.2345 -0.1256
    1W        W43695  15.826   5.391   1.223 -0.1960  0.1239  0.1134
    1W        W43696  28.805  20.805   2.109  0.1727  0.1912  0.0772
    1W        W43697  15.723   0.589   7.850 -0.2338  0.0457  0.0717
    1W        W43698  27.305   9.365   7.265  0.3515  0.0382 -0.4999
    1W        W43699  11.035   5.745   2.502 -0.0205 -0.0252 -0.1284
    1W        W43700  14.771  19.728   9.074 -0.2238  0.0817 -0.2371
    1W        W43701  14.761  10.463   9.427  0.1653 -0.1897 -0.2208
    1W        W43702   9.943  24.289   2.299  0.1874 -0.1989 -0.0223
    1W        W43703  22.063  23.056   0.769 -0.2802 -0.0816 -0.0185
    1W        W43704  20.172  27.466   0.290  0.1504  0.0065  0.3995
    1W        W43705  15.622  21.977   2.374  0.0315  0.1448  0.0465
    1W        W43706  18.503   9.684   2.495  0.2258  0.0377 -0.2301
    1W        W43707   3.237   2.526   8.313 -0.2282 -0.1733 -0.1654
    1W        W43708   5.392   0.003   9.302  0.2472 -0.3049  0.2869
    1W        W43709   0.207  25.812   7.142  0.1077 -0.2671 -0.0431
    1W        W43710   8.771   8.260   9.522 -0.2634 -0.3506 -0.2361
    1W        W43711  11.152   7.831   7.837  0.0248  0.0226  0.0571
    1W        W43712   8.539  12.924   6.708  0.2058 -0.1266  0.0087
    1W        W43713  13.383  24.941   7.189  0.2919 -0.1817 -0.1455
    1W        W43714  21.161  13.369   0.228  0.1846 -0.3012 -0.0610
    1W        W43715  18.724   4.110   0.141  0.0203 -0.1812 -0.0116
    1W        W43716  17.996  23.077   9.551 -0.1774 -0.0640 -0.2003
    1W        W43717   4.604  29.166   6.483  0.0953  0.2463 -0.0034
    1W        W43718   4.936  12.492   1.628 -0.1237 -0.2685 -0.0275
    1W        W43719  24.181   6.799   7.934  0.2067 -0.1666  0.1956
    1W        W43720   5.050  11.296   6.566 -0.1823 -0.1494 -0.2080
    1W        W43721   6.755  15.962   7.004  0.0881 -0.2203  0.1307
    1W        W43722  18.864  16.365   2.542  0.0162 -0.2689 -0.0925
    1W        W43723   8.798  22.515   6.295  0.1875  0.0716 -0.1959
    1W        W43724  15.006   7.795   1.234 -0.1383  0.0332 -0.0717
    1W        W43725   5.182   2.930   6.892  0.0517 -0.1331  0.0985
    1W        W43726  15.898  13.314   1.624 -0.1949 -0.0677 -0.3606
    1W        W43727  28.411  10.334   2.554 -0.1868 -0.0048 -0.0034
    1W        W43728  17.706  28.385   2.283  0.2038 -0.1288  0.0460
    1W        W43729  13.834  23.020   0.414 -0.4441  0.1413  0.3087
    1W        W43730  19.029  28.392   0.209 -0.2092 -0.2219 -0.0781
    1W        W43731  29.185  21.765   8.499 -0.0550 -0.2297  0.0585
    1W        W43732  21.377  18.563   0.711 -0.1990  0.3264  0.1793
    1W        W43733   8.832  13.747   6.791  0.0181 -0.1643  0.1910
    1W        W43734   7.985   4.229   9.151 -0.2940 -0.0613 -0.1835
    1W        W43735  14.550  16.193   1.859 -0.1352 -0.3377 -0.2566
    1W        W43736  16.158  29.419   2.163  0.2365 -0.2216  0.2108
    1W        W43737  25.904  13.694   9.515 -0.1868  0.2072  0.1800
    1W        W43738  10.340   3.583   9.088  0.3522 -0.2042 -0.1183
    1W        W43739   4.082   7.931   7.231  0.0622 -0.1059  0.0243
    1W        W43740   9.587  20.240   0.709  0.0495 -0.0126  0.0962
    1W        W43741  14.905   4.616   7.627  0.0711  0.2642 -0.2060
    1W        W43742  12.230  24.098   6.255  0.0953  0.1935  0.1385
    1W        W43743   3.187  29.549   9.004  0.1379 -0.0491 -0.0089
    1W        W43744  19.103   6.045   2.116 -0.1861 -0.0966 -0.0812
    1W        W43745  11.870   2.135   2.465  0.2115  0.0688 -0.2042
    1W        W43746  26.690  17.117   7.735  0.1284 -0.1348  0.1296
    1W        W43747   9.325  15.610   9.235 -0.4318 -0.0090  0.0406
    1W        W43748   3.277  19.941   2.190  0.0502  0.3234 -0.1484
    1W        W43749   2.200   3.238   2.077 -0.0052 -0.3553  0.0575
    1W        W43750   0.625  20.873   8.090 -0.1541 -0.0064 -0.3057
    1W        W43751   1.748  11.653   6.682  0.1193  0.1431 -0.0460
    1W        W43752  27.819  19.181   8.390  0.1463 -0.2883  0.2060
    1W        W43753   7.209  25.799   7.398 -0.0792  0.3991  0.0721
    1W        W43754   4.273   7.080   7.535  0.1366 -0.5722  0.0152
    1W        W43755   9.722  27.910   8.879 -0.2162 -0.1940  0.2044
    1W        W43756  13.811  26.790   6.691  0.0703 -0.0150  0.1231
    1W        W43757  18.751  12.219   0.747 -0.1178  0.1556 -0.3053
    1W        W43758  12.148  14.418   7.623  0.2032  0.1830  0.1580
    1W        W43759  21.260  27.026   9.141 -0.0633 -0.2327 -0.1684
    1W        W43760   7.577  10.221   6.202 -0.0683  0.2948  0.2241
    1W        W43761  20.394   1.478   2.536  0.0407  0.4044  0.1934
    1W        W43762  28.476  14.047   1.584 -0.2418  0.2268 -0.1322
    1W        W43763   6.309   6.374   8.327 -0.0139 -0.0667 -0.3238
    1W        W43764   1.899  17.288   3.114 -0.3106 -0.0524  0.1496
    1W        W43765  15.966  28.495   6.491  0.0936 -0.1407  0.3346
    1W        W43766  11.526  24.898   9.046  0.1688 -0.1568  0.0904
    1W        W43767  28.388  16.297   2.189  0.1625  0.1357  0.0034
    1W        W43768  28.688  19.019   1.163 -0.0941 -0.1781 -0.2600
    1W        W43769   3.581  26.994   3.291 -0.1873  0.2679 -0.1015
    1W        W43770  18.019  17.437   9.474  0.1357  0.2822 -0.1372
    1W        W43771  10.715  24.374   6.217  0.1666 -0.0518 -0.1455
    1W        W43772   8.269  16.829   1.943  0.3101  0.0574  0.1827
    1W        W43773  27.041  18.030   9.233  0.0656  0.2872 -0.1201
    1W        W43774   7.998  19.465   9.643  0.3173 -0.1212  0.1490
    1W        W43775  21.353  11.478   1.941 -0.1259 -0.1147 -0.1453
    1W        W43776   7.776   6.875   2.752 -0.1460 -0.0298  0.2100
    1W        W43777  13.954  10.158   6.125  0.0578  0.0822  0.2000
    1W        W43778   6.161  11.340   2.393  0.1353  0.0381 -0.2315
    1W        W43779   3.523  20.893   7.263  0.0597 -0.0352  0.1158
    1W        W43780  24.223  12.561   0.254  0.0972  0.3618 -0.1124
    1W        W43781  15.346  24.347   1.489  0.0034 -0.1893 -0.4099
    1W        W43782  29.410   5.757   7.827 -0.2635 -0.1734 -0.1902
    1W        W43783   8.683  24.517   8.326  0.2867 -0.0807 -0.0854
    1W        W43784   1.936  25.830   2.372 -0.2521 -0.0419  0.0242
    1W        W43785  22.850  13.978   1.288  0.0507 -0.0035  0.0199
    1W        W43786  19.323  29.032   8.396  0.0317 -0.1886  0.0465
    1W        W43787  19.770  15.033   8.003  0.2930 -0.0036 -0.0282
    1W        W43788  22.931  27.628   2.884 -0.0880 -0.1167 -0.0555
    1W        W43789  24.886  24.154   1.439  0.3431  0.1563  0.1619
    1W        W43790  11.248   7.763   2.096  0.5463  0.0779  0.0930
    1W        W43791  28.131   0.395   6.427  0.2780  0.1385  0.2927
    1W        W43792  19.495  23.834   7.780  0.0298 -0.2065  0.1952
    1W        W43793  21.139   5.505   9.413 -0.3567  0.0662  0.0210
    1W        W43794  25.315  11.552   0.961 -0.0549  0.5568  0.0216
    1W        W43795   2.405  22.617   2.312 -0.1099  0.3579  0.0910
    1W        W43796   8.363   0.150   7.073  0.2187  0.1359  0.2604
    1W        W43797  27.623  22.586   2.167 -0.3595  0.0983 -0.3266
    1W        W43798   5.062   1.992   0.019 -0.0289  0.3765 -0.0007
    1W        W43799  16.266   6.829   7.754 -0.1335  0.1179  0.0392
    1W        W43800  10.381   5.185   7.674  0.0167 -0.1064 -0.2715
    1W        W43801  20.725   3.307   0.674 -0.2919  0.2423  0.0788
    1W        W43802   2.946   1.787   2.294  0.0326  0.3146  0.1852
    1W        W43803  22.986  26.993   0.694  0.0225 -0.0060 -0.1908
    1W        W43804  13.768  22.589   0.191 -0.0097  0.1019 -0.0013
    1W        W43805  15.374  11.703   1.402 -0.4570  0.0405  0.1410
    1W        W43806  11.958   2.470   9.460 -0.0642 -0.0504  0.0499
    1W        W43807  21.492  11.954   8.107  0.2302 -0.2870 -0.1816
    1W        W43808  23.160  23.673   7.422  0.1128 -0.3737 -0.1043
    1W        W43809   4.008  29.281   1.804 -0.1658  0.0334 -0.1271
    1W        W43810   0.645  26.406   9.001  0.2277  0.0301  0.1052
    1W        W43811  12.785   4.877   7.691 -0.2709 -0.2166 -0.0906
    1W        W43812  28.458  12.643   2.178 -0.2247  0.2374  0.0250
    1W        W43813  19.588   7.853   0.849  0.3973 -0.1056 -0.1926
    1W        W43814  24.146  19.625   2.185 -0.1792  0.5738  0.0002
    1W        W43815   9.373  21.891   0.953  0.2200  0.1270  0.1964
    1W        W43816   8.167   3.863   7.952  0.5048  0.2385  0.3731
    1W        W43817   0.365  24.219   1.805  0.1208 -0.2001  0.3500
    1W        W43818  14.793  19.896   0.898  0.0752 -0.1465 -0.0712
    1W        W43819  22.994  17.263   9.447  0.1831 -0.2029 -0.0142
    1W        W43820  26.242  16.619   2.432  0.2445 -0.2279 -0.0361
    1W        W43821  20.787   4.853   0.343 -0.2315  0.0177  0.1053
    1W        W43822   5.636   9.750   7.939  0.0884  0.0354  0.0576
    1W        W43823  20.361  29.582   2.315 -0.0081 -0.0226 -0.2107
    1W        W43824  16.302   6.522   1.504  0.0583 -0.0416  0.2599
    1W        W43825   5.016  28.159   8.337  0.5326 -0.3141 -0.0197
    1W        W43826  20.915  11.292   2.181  0.0056 -0.0678  0.0750
    1W        W43827  21.323   2.403   8.589  0.0254  0.1451  0.1560
    1W        W43828   5.784   7.602   6.099  0.1937  0.3203  0.0119
    1W        W43829  18.501   1.041   2.323  0.1772  0.0311  0.0009
    1W        W43830  11.095   3.206   1.904 -0.0295  0.1724 -0.0667
    1W        W43831  23.275   3.382   8.427 -0.2850  0.0242 -0.0743
    1W        W43832  22.033  14.952   9.514 -0.1664  0.0332  0.0477
    1W        W43833  29.044  26.025   9.052 -0.1337 -0.1871 -0.0267
    1W        W43834   6.237  17.540   8.282  0.0027  0.3559 -0.1600
    1W        W43835  19.857  17.775   8.736  0.0128 -0.1673  0.0246
    1W        W43836   1.634  21.472   9.537 -0.0570 -0.1715 -0.0267
    1W        W43837  10.493   7.739   8.618 -0.1153 -0.1455  0.1517
    1W        W43838   2.190  12.891   6.727 -0.1557  0.2167  0.2190
    1W        W43839  29.332  19.851   3.097  0.2082 -0.0692 -0.1325
    1W        W43840  15.045  28.517   2.309 -0.3438 -0.1005 -0.1430
    1W        W43841  17.532   2.371   2.313  0.0426  0.0647 -0.2041
    1W        W43842   8.663  19.773   0.936 -0.0067 -0.2166 -0.4420
    1W        W43843   3.545   3.038   1.735 -0.3289 -0.2217 -0.0679
    1W        W43844  27.077  23.703   2.801  0.1024  0.0667  0.2495
    1W        W43845  21.362  27.906   0.201 -0.2963  0.4475  0.0887
    1W        W43846  24.839  27.084   1.517  0.1250  0.0547  0.0806
    1W        W43847   1.492   2.702   7.565  0.0009 -0.1061 -0.1026
    1W        W43848   3.995  25.411   8.880  0.0550  0.2954  0.4388
    1W        W43849   8.550  23.026   2.265 -0.1217  0.0792 -0.0895
    1W        W43850  14.564   5.303   2.438  0.0918  0.0693 -0.1147
    1W        W43851  28.951  13.936   2.328  0.2748 -0.0679 -0.0184
    1W        W43852  13.996   0.041   6.995  0.0217  0.1797  0.0900
    1W        W43853  25.950   3.263   8.020  0.0863 -0.0095 -0.2674
    1W        W43854  17.715   9.453   9.117 -0.2754  0.1954  0.1876
    1W        W43855  27.415   5.045   0.429  0.1802 -0.2371  0.1649
    1W        W43856  14.517   4.156   5.623 -0.2005  0.1225 -0.0570
    1W        W43857   7.821  10.644   1.341  0.0179 -0.0167  0.2824
    1W        W43858  25.075  24.299   7.532  0.1187  0.2412 -0.2932
    1W        W43859  13.425   7.331   8.620 -0.3652 -0.1446 -0.2087
    1W        W43860  24.813  19.683   1.925  0.1713  0.1865  0.0290
    1W        W43861  17.623  11.596   7.672 -0.0702 -0.1756 -0.1849
    1W        W43862  15.255  29.537   0.041  0.0892  0.2946 -0.0172
    1W        W43863  11.207   4.570   1.298 -0.1143 -0.0912 -0.1649
    1W        W43864  24.899  27.628   8.475  0.1576  0.2181 -0.1664
    1W        W43865  22.053  20.332   3.014  0.0076  0.2938  0.2354
    1W        W43866  12.421  12.774   1.127 -0.1571 -0.0302 -0.0466
    1W        W43867  28.095  25.348   9.368  0.3178  0.1915 -0.1648
    1W        W43868   9.103   1.817   9.362 -0.0429 -0.3174 -0.1500
    1W        W43869  27.791  18.179   8.044 -0.3060 -0.1136  0.0281
    1W        W43870  22.156   4.600   9.576 -0.0080  0.1846 -0.1775
    1W        W43871   6.079  19.675   1.192 -0.2910  0.2594  0.0458
    1W        W43872  12.567  15.178   7.333  0.4359  0.0885  0.1130
    1W        W43873   1.964  12.804   0.735 -0.2637 -0.0231 -0.0203
    1W        W43874   1.474  13.879   0.548 -0.2192  0.1324 -0.1366
    1W        W43875  19.142  29.056   9.260 -0.0737 -0.1811 -0.0445
    1W        W43876  10.847   4.372   1.571  0.1538 -0.2363  0.0966
    1W        W43877  27.587  14.828   0.961  0.0606  0.2178  0.0032
    1W        W43878  14.340   6.373   1.724 -0.0270 -0.0677  0.1783
    1W        W43879   8.894  15.372   7.468  0.2573  0.2630  0.3842
    1W        W43880  20.437  12.280   0.005 -0.0382  0.2151  0.3111
    1W        W43881  21.582   5.416   9.161 -0.2442  0.1319  0.0728
    1W        W43882  18.787  25.317   9.311 -0.2435  0.1874  0.0034
    1W        W43883  29.183  18.595   1.149  0.0139 -0.2060 -0.3176
    1W        W43884  27.656   9.066   1.239  0.2065  0.2366  0.0667
    1W        W43885  24.416  28.377   0.217  0.1198  0.1137  0.0424
    1W        W43886  23.628  12.415   1.296 -0.0374  0.0354 -0.2115
    1W        W43887   7.161   8.146   6.974  0.0623  0.1521 -0.0541
    1W        W43888   0.651  16.364   6.807  0.2039  0.0652  0.0235
    1W        W43889   6.425  26.612   7.730 -0.2322  0.0772 -0.0728
    1W        W43890  25.746  21.480   2.111  0.0948 -0.0264 -0.2327
    1W        W43891  20.105  10.703   1.813  0.1598  0.3494  0.1042
    1W        W43892   8.883   1.172   9.233 -0.1498  0.1206  0.1279
    1W        W43893   9.357  13.188   9.203  0.0270 -0.0646  0.0549
    1W        W43894   1.937   3.134   2.730  0.0416  0.0748 -0.1561
    1W        W43895   3.832  21.874   2.302 -0.1794  0.0530 -0.0803
    1W        W43896  12.911  23.133   9.149  0.0043 -0.3866  0.1540
    1W        W43897  23.833   5.292   9.407 -0.2747  0.2437 -0.2163
    1W        W43898  16.138   3.618   2.351  0.1436 -0.0724 -0.1088
    1W        W43899  18.156  26.537   8.401  0.0928 -0.0039 -0.1906
    1W        W43900   6.293   6.081   6.420  0.2649 -0.0962  0.2517
    1W        W43901   2.837  24.345   8.577 -0.2639 -0.0620  0.0128
    1W        W43902  28.637  28.230   8.419  0.1271  0.1190 -0.2136
    1W        W43903  19.945   2.659   3.101 -0.3274  0.2356 -0.1937
    1W        W43904  10.379   7.306   6.350 -0.2665  0.0792 -0.2603
    1W        W43905   6.172   4.391   1.565 -0.0671  0.0613  0.0386
    1W        W43906  20.113   9.724   8.657 -0.0952 -0.1273  0.1383
    1W        W43907  20.809  27.063   9.344 -0.1055 -0.5056 -0.1069
    1W        W43908  21.319   3.895   0.842 -0.0935 -0.2355 -0.0215
    1W        W43909  23.212   6.615   2.185  0.0993 -0.2262  0.1925
    1W        W43910   1.460   8.605   8.158 -0.0583  0.0149  0.0489
    1W        W43911  25.603  12.872   1.949 -0.0743 -0.0688 -0.2673
    1W        W43912  25.036   5.312   7.645  0.2085 -0.0063 -0.0390
    1W        W43913  27.788  19.800   9.092  0.1373 -0.1407  0.3165
    1W        W43914  11.204   6.009   7.350  0.0594 -0.1743  0.1081
    1W        W43915   1.128  14.447   0.168 -0.0212 -0.0951  0.1955
    1W        W43916  17.185  25.397   3.593 -0.0155  0.1457  0.2380
    1W        W43917  28.503  26.062   1.756  0.1026 -0.0029 -0.0219
    1W        W43918  16.054  25.109   1.059 -0.1284 -0.0217  0.3874
    1W        W43919  14.604  15.098   6.303 -0.1700 -0.1623  0.0194
    1W        W43920  13.212  13.680   2.455  0.0055 -0.0497  0.0602
    1W        W43921   1.731  11.718   7.935 -0.0369 -0.1972  0.0287
    1W        W43922  17.628   1.525   9.249 -0.0262  0.2407 -0.0862
    1W        W43923  16.359   8.300   0.707  0.0171 -0.1902 -0.1305
    1W        W43924   5.343  18.668   2.190 -0.2376  0.3204 -0.2341
    1W        W43925   5.868   8.178   6.301 -0.0263 -0.0913 -0.1013
    1W        W43926   6.710  14.506   6.088 -0.1597  0.0457  0.0619
    1W        W43927   8.320  15.425   6.011 -0.0633 -0.0307  0.1304
    1W        W43928   8.558  10.909   0.571  0.0915  0.1371  0.1289
    1W        W43929  17.972  25.572   2.648  0.1282  0.2786 -0.0504
    1W        W43930  26.968   4.784   8.855 -0.0394 -0.1055  0.0837
    1W        W43931   0.280  26.747   9.113  0.0080 -0.0312 -0.1934
    1W        W43932  11.813  26.171   8.889  0.0760  0.2062 -0.0189
    1W        W43933  22.929   8.324   1.418  0.0820 -0.2109  0.0515
    1W        W43934   6.195   3.650   2.220 -0.4437 -0.0316 -0.0248
    1W        W43935  12.611  18.459   9.576  0.0191 -0.1513  0.4727
    1W        W43936  22.520   5.484   1.883  0.1716 -0.0071  0.1308
    1W        W43937  11.014  12.284   0.203 -0.1215 -0.1053  0.0617
    1W        W43938  14.961  15.485   2.713  0.0887 -0.3881 -0.1896
    1W        W43939  17.045   2.829   0.681  0.3131 -0.0930  0.0915
    1W        W43940   3.466  16.517   6.731  0.1946 -0.1766 -0.1935
    1W        W43941  14.400  18.681   2.782 -0.0170 -0.0276 -0.1860
    1W        W43942  18.523  17.776   8.011  0.0359 -0.0774 -0.0823
    1W        W43943   2.620   8.026   8.964 -0.0695  0.3368  0.3846
    1W        W43944   1.417  15.355   1.835 -0.1748  0.3451 -0.0645
    1W        W43945  23.894  21.084   1.294 -0.4077  0.1968  0.2059
    1W        W43946  15.092  11.264   0.297 -0.0421 -0.2544 -0.1439
    1W        W43947   4.962  15.888   0.164 -0.1281 -0.2254  0.1003
    1W        W43948  19.603  25.580   0.589  0.1130  0.2998  0.2218
    1W        W43949  21.600   0.774   0.813  0.0641 -0.1444 -0.0702
    1W        W43950   9.702  16.395   7.249 -0.1039 -0.4313 -0.0764
    1W        W43951  22.722   1.117   2.653 -0.3644 -0.1151  0.1308
    1W        W43952  28.081  10.197   9.532 -0.1959 -0.0404 -0.2498
    1W        W43953   8.622  14.598   1.356 -0.3229 -0.3182  0.3586
    1W        W43954  21.847  15.796   7.756  0.0890  0.0003 -0.0028
    1W        W43955   2.543  18.576   9.347  0.1051 -0.0247  0.0455
    1W        W43956   9.772   5.796   8.760 -0.0899  0.0477  0.2315
    1W        W43957  19.709  23.050   7.497  0.0639 -0.3421 -0.0301
    1W        W43958  15.569  24.592   0.341  0.2595  0.3642 -0.2768
    1W        W43959   7.930  22.213   1.841 -0.0600  0.1159 -0.3336
    1W        W43960  15.062  26.988   1.176  0.3642 -0.2895 -0.4525
    1W        W43961   3.479   4.360   8.543 -0.0747 -0.2222  0.0805
    1W        W43962  29.275  21.425   8.191 -0.0371  0.0006  0.2642
    1W        W43963  13.309  26.585   1.981 -0.0863  0.2348  0.0106
    1W        W43964   3.879   4.437   0.323 -0.4723  0.0836 -0.0684
    1W        W43965  22.931  10.864   9.345  0.0240 -0.1905  0.0690
    1W        W43966   5.323   7.988   8.444  0.0721 -0.0823  0.0169
    1W        W43967  24.322  26.406   7.606 -0.1454  0.0237 -0.1595
    1W        W43968  18.451  20.483   9.109  0.2813 -0.1619  0.2428
    1W        W43969  12.901  26.366   7.510  0.3049  0.0066 -0.1828
    1W        W43970   8.291   7.932   0.789  0.1341 -0.2761 -0.1918
    1W        W43971  28.495  19.674   0.443  0.1588  0.1484  0.2883
    1W        W43972  24.085  23.342   7.676  0.1651 -0.4472  0.1337
    1W        W43973  21.706  19.324   8.261 -0.1295  0.2777 -0.4076
    1W        W43974   5.554  22.428   7.912  0.0944  0.1585  0.2452
    1W        W43975  23.137  24.383   2.400  0.0731  0.3559  0.0795
    1W        W43976  24.400  25.794   7.450 -0.0684  0.0876 -0.0701
    1W        W43977  25.873   1.330   7.011 -0.0764  0.0389  0.2164
    1W        W43978   7.006  10.540   1.552  0.0194  0.0155 -0.1193
    1W        W43979  17.308   0.827   7.769 -0.3484  0.2057  0.1793
    1W        W43980   9.817  18.807   9.578  0.1554  0.2201 -0.0433
    1W        W43981  18.668   8.977   1.018  0.0929 -0.2541 -0.0173
    1W        W43982  23.115   9.628   8.719  0.2263  0.1418  0.2852
    1W        W43983   8.477  23.149   7.983 -0.0765  0.0104 -0.1548
    1W        W43984   9.226  25.833   0.854  0.1616 -0.2800  0.0261
    1W        W43985  11.446   7.421   0.539 -0.2130  0.2379  0.2093
    1W        W43986  10.523  24.980   8.155 -0.0638  0.0828 -0.2281
    1W        W43987  21.649   6.918   1.867 -0.1593 -0.0396  0.2744
    1W        W43988  21.528  11.852   0.775 -0.0284 -0.4144 -0.1368
    1W        W43989  10.519  13.749   6.580  0.2248 -0.2762 -0.3083
    1W        W43990   3.086  29.111   0.178 -0.0693  0.0960 -0.0934
    1W        W43991  14.801   3.698   2.593 -0.1890 -0.1634 -0.0359
    1W        W43992  24.675   9.514   0.020 -0.2286  0.1868 -0.1226
    1W        W43993   2.524  20.618   0.692 -0.0844  0.1451 -0.1097
    1W        W43994  19.767   9.481   8.918 -0.0455  0.0076 -0.1145
    1W        W43995   5.517  17.128   0.868  0.0544 -0.0099 -0.3266
    1W        W43996  12.932   4.736   6.450 -0.1066  0.0003 -0.0439
    1W        W43997  17.090  13.899   9.009 -0.1660 -0.3007 -0.2222
    1W        W43998  25.202  28.697   9.426  0.0702  0.2266  0.0628
    1W        W43999  12.408  13.891   8.411  0.1993  0.2330  0.2198
    1W        W44000  23.143  23.222   8.870 -0.1368  0.3765  0.0642
    1W        W44001   8.873   6.062   2.113  0.1584 -0.1088  0.0955
    1W        W44002  14.271  14.290   1.550 -0.1640  0.1212 -0.0990
    1W        W44003   5.943  20.428   2.345 -0.1892 -0.2646  0.0612
    1W        W44004  18.694  20.756   3.555  0.1447 -0.2294  0.1287
    1W        W44005   4.801  14.906   8.237  0.0852  0.0490 -0.0120
    1W        W44006  24.966  11.553   9.578  0.3299 -0.0534 -0.0479
    1W        W44007  28.235  15.633   8.625  0.1378  0.1100 -0.2188
    1W        W44008   6.559  11.637   0.560  0.3028  0.2322  0.0444
    1W        W44009  28.569   0.779   2.897 -0.0603  0.1991 -0.0464
    1W        W44010  13.232   3.392   5.907 -0.1048 -0.1890 -0.1386
    1W        W44011  25.544  11.443   9.453  0.0232 -0.2540 -0.1803
    1W        W44012   4.673  25.969   2.788 -0.0005  0.2519  0.3467
    1W        W44013   8.030   5.989   1.529  0.2729 -0.0630 -0.1095
    1W        W44014  25.369  12.008   7.808 -0.1753  0.0609 -0.4113
    1W        W44015  17.747  24.375   7.319 -0.0689  0.4872 -0.0529
    1W        W44016  24.748  18.944   7.648 -0.3601 -0.1419  0.1650
    1W        W44017   6.139   1.956   9.471 -0.2315  0.1700 -0.1858
    1W        W44018   1.054  15.869   0.588  0.1157 -0.1766 -0.0152
    1W        W44019   0.279   6.821   0.674 -0.1477 -0.2567  0.0295
    1W        W44020   1.593  25.987   7.542 -0.1183  0.1083  0.1232
    1W        W44021  19.843   9.355   8.394 -0.1147 -0.2220  0.1869
    1W        W44022  11.449   4.169   8.073  0.1601 -0.1737  0.1170
    1W        W44023  20.196   9.595   0.254 -0.4158 -0.1769 -0.2337
    1W        W44024  24.927  27.152   2.620  0.0022 -0.0225 -0.1275
    1W        W44025  16.594  18.038   9.339  0.0258  0.2328 -0.0978
    1W        W44026   5.171   2.444   2.217 -0.3002  0.1994 -0.2387
    1W        W44027  29.604   4.718   7.234  0.0394 -0.1689 -0.0321
    1W        W44028  24.928   6.828   0.535 -0.1299  0.2093  0.2588
    1W        W44029  16.487  23.293   9.629  0.0542 -0.3327 -0.0461
    1W        W44030   8.124  18.348   2.688 -0.0050  0.0683 -0.0121
    1W        W44031  27.131  22.478   0.378  0.2634 -0.2961 -0.1448
    1W        W44032  25.443  29.199   8.022 -0.0809 -0.3454  0.0799
    1W        W44033  24.131   4.305   9.331  0.0466  0.0626 -0.1951
    1W        W44034   1.732  22.094   8.462  0.0457  0.0329  0.1240
    1W        W44035   5.470  22.455   2.744  0.1240  0.1270  0.2547
    1W        W44036  12.492   3.125   2.269  0.1501  0.0295 -0.0748
    1W        W44037   6.233  14.016   6.483  0.1384  0.0971 -0.0167
    1W        W44038  11.921   1.548   7.238 -0.3116  0.1504  0.1190
    1W        W44039  22.356  15.060   0.562  0.2423 -0.1674  0.3035
    1W        W44040  16.381  21.844   6.480 -0.1160 -0.0347 -0.2133
    1W        W44041  26.293  28.983   3.118  0.2572  0.1234  0.1538
    1W        W44042  17.891  27.118   2.384 -0.2164 -0.3055  0.1970
    1W        W44043  24.771   4.205   8.512 -0.0338  0.1370  0.1851
    1W        W44044  23.552  17.962   9.174  0.1317 -0.1476 -0.3216
    1W        W44045  11.818  25.577   0.126 -0.0937 -0.1117 -0.2692
    1W        W44046  28.068  26.628   7.109  0.3582 -0.1647  0.1858
    1W        W44047  25.408  19.783   9.044  0.4245 -0.3118 -0.0850
    1W        W44048  11.257  21.112   7.820 -0.2116 -0.0797 -0.0109
    1W        W44049   9.610  25.883   8.264 -0.5958  0.3744 -0.2110
    1W        W44050   8.295   8.636   0.684  0.1402 -0.0036 -0.3137
    1W        W44051   4.087   7.322   8.857  0.0022 -0.2500 -0.0419
    1W        W44052   9.506  18.986   7.337  0.2258 -0.0052 -0.0156
    1W        W44053  10.789   9.219   0.814 -0.1116  0.0779  0.0753
    1W        W44054   8.703   1.201   6.438 -0.1524  0.0728  0.2664
    1W        W44055   5.879  14.654   0.820 -0.1728 -0.1729  0.0240
    1W        W44056  18.588  22.175   8.586 -0.3022  0.2779 -0.1251
    1W        W44057  26.956   1.490   3.106 -0.0968  0.1434 -0.4248
    1W        W44058   8.778  24.945   5.799  0.0978 -0.3238 -0.1704
    1W        W44059  26.130  26.577   2.076  0.1362  0.0522  0.2604
    1W        W44060  24.699  27.064   3.557 -0.1336  0.0885  0.0180
    1W        W44061  21.538   0.420   3.903 -0.1966 -0.0582 -0.1759
    1W        W44062  22.691  19.438   8.536  0.2880 -0.1076  0.1301
    1W        W44063   4.485  28.309   9.356 -0.1169 -0.2205  0.5436
    1W        W44064  20.227   1.869   1.248 -0.0774 -0.0731  0.0984
    1W        W44065  26.629  21.486   8.026 -0.0034 -0.0199 -0.2666
    1W        W44066  11.650   1.905   6.751 -0.2688 -0.0910  0.0097
    1W        W44067  28.361  26.268   2.609 -0.1322  0.2685 -0.0373
    1W        W44068  20.951  27.869   1.140  0.0606 -0.2768  0.0581
    1W        W44069   6.526   9.372   0.923  0.0591 -0.1577 -0.1610
    1W        W44070  25.896  20.303   0.797 -0.1090  0.1695  0.0370
    1W        W44071   6.583   8.865   6.364  0.1633 -0.0432  0.1123
    1W        W44072  27.450   9.140   1.972 -0.1883 -0.0599  0.0719
    1W        W44073   7.333  14.391   6.334  0.2083 -0.2146 -0.1946
    1W        W44074   9.581  21.017   9.442 -0.1476 -0.1624 -0.3068
    1W        W44075  19.995  14.407   2.477  0.1305 -0.0290  0.1280
    1W        W44076  14.436  23.732   1.590 -0.1345  0.0991  0.0429
    1W        W44077   1.829  15.391   9.239  0.1216 -0.0066  0.4027
    1W        W44078  28.801   9.895   8.279 -0.0498 -0.0176 -0.2209
    1W        W44079   8.785   9.161   9.173 -0.2639  0.0233  0.0820
    1W        W44080  17.417  18.714   9.136  0.1107 -0.1278 -0.3968
    1W        W44081   6.812  11.344   5.731  0.0955 -0.3115  0.1796
    1W        W44082  13.920  21.626   0.026  0.0369 -0.2022  0.0375
    1W        W44083  17.380   8.809   8.532  0.2523  0.1059  0.1435
    1W        W44084  25.505   1.846   0.042  0.1950  0.1152  0.0432
    1W        W44085  12.781  29.349   2.875  0.0879  0.0760 -0.0328
    1W        W44086   9.060  29.270   1.552 -0.1389  0.1804  0.0718
    1W        W44087  15.839   5.893   0.278  0.0378 -0.2687  0.1466
    1W        W44088   4.972  23.558   8.795  0.0697  0.0346  0.0144
    1W        W44089   7.367   0.154   0.176  0.1161  0.0559 -0.0508
    1W        W44090  20.889  24.977   9.116 -0.2387 -0.0016 -0.3455
    1W        W44091  11.903  19.704   8.101 -0.1118  0.0415  0.0715
    1W        W44092  29.159   8.390   7.363 -0.1366  0.1041 -0.0913
    1W        W44093  27.619  25.451   3.297  0.1260  0.2470 -0.1978
    1W        W44094  24.800  24.524   8.341 -0.0162 -0.1735  0.2437
    1W        W44095   1.338  15.289   3.021 -0.1716 -0.1257 -0.3287
    1W        W44096   8.531  12.904   8.613 -0.0044 -0.2584  0.0886
    1W        W44097   2.098  24.574   7.520 -0.2555  0.0293 -0.1368
    1W        W44098  29.186   8.617   0.688 -0.2209 -0.0013 -0.1097
    1W        W44099  24.844  22.997   7.527 -0.3520 -0.2359 -0.2552
    1W        W44100   6.769   0.369   5.635 -0.3473  0.0836 -0.0142
    1W        W44101  17.484   7.509   9.168  0.2528 -0.1667 -0.0145
    1W        W44102  25.623  12.183   1.290 -0.0302  0.2358  0.2273
    1W        W44103  12.890  13.088   1.325 -0.1104 -0.1141 -0.2316
    1W        W44104  22.760  14.180   6.966  0.2109  0.2287  0.3208
    1W        W44105  29.596  27.177   6.971  0.1984 -0.2433 -0.1815
    1W        W44106  19.975  23.611   2.012 -0.0772  0.0351  0.0946
    1W        W44107  19.021   1.553   0.842 -0.0199  0.1211 -0.1143
    1W        W44108   6.976  12.731   5.744  0.1451 -0.0446  0.1557
    1W        W44109   4.816  12.705   0.055 -0.1741  0.1540 -0.1795
    1W        W44110  28.818   7.495   8.400  0.1386 -0.3355  0.0742
    1W        W44111   6.719  26.120   6.724  0.3457 -0.3962  0.0395
    1W        W44112   3.354   9.933   7.023 -0.0850 -0.0734  0.0035
    1W        W44113   1.933  18.555   7.414  0.4840 -0.0040  0.4227
    1W        W44114  11.188  22.048   0.545  0.1354 -0.1131 -0.1362
    1W        W44115   0.631  19.101   8.467 -0.3723 -0.0571  0.3385
    1W        W44116  29.407  20.897   2.012  0.0948 -0.0317  0.0787
    1W        W44117  13.899  22.458   5.995 -0.0410  0.1461  0.2520
    1W        W44118  27.868   0.659   7.317 -0.0866 -0.0952 -0.2580
    1W        W44119  25.466   8.927   8.208  0.0768  0.2283  0.0710
    1W        W44120  22.674  22.647   4.255  0.0222 -0.1352  0.0609
    1W        W44121   9.410   7.047   7.553  0.2580  0.3266 -0.2830
    1W        W44122   8.691  25.194   3.054 -0.1709 -0.1106 -0.0272
    1W        W44123  19.755  29.110   7.497 -0.1166 -0.2826  0.0462
    1W        W44124  17.094   3.261   7.040  0.0829 -0.3749  0.0817
    1W        W44125   1.124   3.795   1.476  0.0461  0.2423  0.0512
    1W        W44126  16.332  24.865   2.697 -0.2924  0.3312  0.1848
    1W        W44127  17.642  25.621   1.051  0.0725  0.0973  0.2206
    1W        W44128  26.603   9.616   0.853  0.2841  0.0096  0.2342
    1W        W44129  15.472  27.358   7.737 -0.2811  0.1992  0.0694
    1W        W44130   6.052   8.976   8.385  0.1107  0.0114 -0.4084
    1W        W44131  17.164   2.129   3.367  0.1287 -0.1270 -0.0807
    1W        W44132  21.708  21.761   1.114 -0.0212 -0.2314  0.0252
    1W        W44133  11.677  28.858   2.127 -0.3294  0.0535  0.2540
    1W        W44134  19.610  25.124   9.103 -0.0667  0.1977 -0.1676
    1W        W44135   7.744  11.768   1.107  0.0991  0.2392 -0.1753
    1W        W44136  23.914  26.990   2.998  0.2792  0.4226  0.0382
    1W        W44137  11.718  18.727   0.053  0.0407 -0.2401  0.2904
    1W        W44138   3.317  19.929   7.246 -0.0635 -0.1360 -0.0984
    1W        W44139  11.296  14.585   8.112  0.1971  0.3645  0.0995
    1W        W44140  13.368  19.734   0.913  0.3412  0.0952 -0.0897
    1W        W44141   0.363  23.456   0.043 -0.1485 -0.1017  0.0723
    1W        W44142  19.431   4.687   1.799 -0.3637 -0.1625 -0.0355
    1W        W44143   3.706   4.653   6.686 -0.0402  0.1695 -0.0632
    1W        W44144  24.015   1.698   2.125  0.0610 -0.1081 -0.0907
    1W        W44145  17.017  18.117   7.265  0.1601  0.2161  0.2524
    1W        W44146   6.629   7.938   8.150 -0.0501 -0.0308 -0.2055
    1W        W44147   3.602  19.958   3.049 -0.2497  0.0085 -0.0293
    1W        W44148  19.744  23.470   8.015  0.0820  0.1736  0.2069
    1W        W44149  22.254   7.745   2.036 -0.0237  0.0070 -0.0124
    1W        W44150  27.265  20.846   2.803 -0.1091 -0.1345 -0.2302
    1W        W44151  22.334  26.126   0.895  0.1602 -0.0892 -0.0259
    1W        W44152   7.339   9.273   0.600  0.0263  0.1149 -0.0955
    1W        W44153   8.285  14.756   8.480  0.0052  0.1369  0.0836
    1W        W44154  11.873  14.638   6.004 -0.3085  0.0281 -0.0606
    1W        W44155  22.659  25.688   0.826  0.2637 -0.0212 -0.0825
    1W        W44156   7.168   7.045   9.286 -0.1648 -0.0230 -0.1125
    1W        W44157  12.565   4.007   6.283 -0.0363 -0.0768 -0.0288
    1W        W44158   7.028  28.355   9.215  0.1998 -0.2738  0.1915
    1W        W44159  16.142   4.109   8.964  0.2147  0.0718  0.0721
    1W        W44160  13.083   7.572   9.504  0.0549 -0.1843  0.2167
    1W        W44161  24.714  15.046   1.908 -0.0370 -0.0014  0.1477
    1W        W44162   3.396  19.960   8.993  0.3040 -0.0965  0.1161
    1W        W44163   3.333   6.372   1.498 -0.0896 -0.0356  0.2280
    1W        W44164  21.275  18.076   2.620 -0.0095 -0.1391 -0.0501
    1W        W44165   8.443  24.609   7.875 -0.1558  0.1453  0.2781
    1W        W44166  11.659   9.413   8.565 -0.1962 -0.2046 -0.0189
    1W        W44167   3.497  28.733   2.811 -0.0322 -0.0550 -0.2373
    1W        W44168  12.184  24.683   8.313  0.0166  0.1245 -0.1014
    1W        W44169  13.836   1.621   1.867 -0.0603 -0.1286  0.0155
    1W        W44170  23.782  24.740   1.855  0.0103 -0.0926  0.1865
    1W        W44171   4.740  26.884   2.224 -0.2456 -0.0480 -0.0535
    1W        W44172  12.336  27.644   2.968  0.1320 -0.1472 -0.3275
    1W        W44173  11.861   4.494   7.927  0.0076 -0.0628 -0.3067
    1W        W44174  22.057   0.726   7.164 -0.1554  0.3019 -0.1922
    1W        W44175  16.429  28.042   2.593 -0.0764  0.0307  0.3423
    1W        W44176  26.740   9.979   8.802  0.0332 -0.1777  0.0309
    1W        W44177  21.677  27.487   0.482 -0.2837 -0.1130 -0.0488
    1W        W44178  23.744  29.285   1.846  0.2230  0.1298  0.1826
    1W        W44179  17.726  24.816   8.552  0.0381  0.1794  0.1594
    1W        W44180  19.336  17.698   8.641  0.0317  0.0703  0.2765
    1W        W44181   7.781  24.624   1.135 -0.0119 -0.0755  0.1998
    1W        W44182  22.363   1.624   0.683  0.1495 -0.4771  0.1323
    1W        W44183  25.324  23.796   7.536  0.1463 -0.0622  0.4883
    1W        W44184   8.839  10.959   1.560 -0.2111  0.2982 -0.1937
    1W        W44185   1.966  20.168   2.325  0.1052 -0.1519  0.1777
    1W        W44186  14.419  21.049   1.390 -0.1934 -0.0216  0.1077
    1W        W44187  16.640   8.760   6.468 -0.0850 -0.2167 -0.0738
    1W        W44188  26.235   5.501   9.644 -0.3209 -0.1574  0.0087
    1W        W44189  22.255  27.198   2.267 -0.1461  0.0695 -0.0847
    1W        W44190  19.369   8.420   9.364 -0.2310 -0.1357 -0.2666
    1W        W44191  24.809  17.132   6.592  0.0814 -0.0856 -0.1355
    1W        W44192  20.037   5.080   1.307  0.0645 -0.1137  0.0438
    1W        W44193  25.726  16.501   2.346  0.1905 -0.1645 -0.1087
    1W        W44194   2.442  20.071   2.120 -0.1207  0.2511 -0.1957
    1W        W44195  17.389  23.093   0.912 -0.2233  0.2051  0.0254
    1W        W44196  28.627  27.536   1.691 -0.2768  0.3639  0.1021
    1W        W44197   9.702  13.257   0.276  0.4088 -0.0934  0.1566
    1W        W44198  10.771  23.752   2.372  0.0380 -0.0082  0.1195
    1W        W44199  11.544   1.957   6.165 -0.0771  0.3478 -0.1008
    1W        W44200  17.359  11.954   1.131 -0.1497  0.0449  0.4774
    1W        W44201  26.691  22.493   2.411 -0.1174  0.0536 -0.1196
    1W        W44202   0.553  27.911   0.793 -0.3177 -0.0962 -0.1979
    1W        W44203  17.671   8.496   8.241 -0.3241  0.2120  0.2546
    1W        W44204  22.126   7.132   2.992 -0.2100 -0.4896 -0.1682
    1W        W44205  18.747  28.729   0.608 -0.0151 -0.0143 -0.0201
    1W        W44206  28.689  24.078   0.350  0.0805  0.1446 -0.2129
    1W        W44207  11.006  15.398   8.047  0.0569 -0.1538  0.0255
    1W        W44208   5.589  25.877   1.712  0.2324 -0.0456 -0.4328
    1W        W44209  18.206  11.280   8.356 -0.0342 -0.2088  0.0444
    1W        W44210   4.179   6.734   8.043 -0.1275 -0.3543 -0.2836
    1W        W44211  14.913  17.276   8.297 -0.0520  0.0749 -0.0626
    1W        W44212   9.931  15.915   7.225  0.1209 -0.2309  0.0422
    1W        W44213  15.408   9.309   2.564 -0.1009  0.4338 -0.2684
    1W        W44214  22.282  22.552   7.916  0.2895  0.1135 -0.1094
    1W        W44215  12.575  27.186   6.424  0.0542 -0.0413 -0.0400
    1W        W44216   9.980   8.238   6.969 -0.0483 -0.0428 -0.0449
    1W        W44217   3.511   4.779   7.710 -0.0444 -0.0081  0.1615
    1W        W44218   9.137   9.701   8.952 -0.0412  0.1185 -0.0086
    1W        W44219  17.826  14.124   0.720 -0.2475 -0.1161  0.0175
    1W        W44220   1.327   1.341   7.628 -0.0622  0.0257  0.1851
    1W        W44221   7.001  10.218   0.726 -0.1304  0.3978  0.0061
    1W        W44222  29.201  21.841   7.946 -0.2823 -0.2056  0.5369
    1W        W44223   2.079  20.820   7.421  0.3072 -0.2665 -0.0496
    1W        W44224  24.083   6.288   1.947 -0.2918  0.1162  0.2252
    1W        W44225  25.602  20.829   0.008 -0.1382 -0.0087 -0.0207
    1W        W44226   8.819  14.811   8.465 -0.1690 -0.3077  0.1323
    1W        W44227  11.543  13.655   8.185 -0.0572 -0.0993  0.1513
    1W        W44228  24.188  16.813   8.577  0.1248  0.2857 -0.2577
    1W        W44229   5.229  25.478   1.023 -0.0325 -0.1002 -0.1190
    1W        W44230   7.569   8.857   0.693  0.0039 -0.2503 -0.1949
    1W        W44231  24.668  20.284   8.551  0.0318 -0.1765 -0.0567
    1W        W44232  29.034   1.777   1.532 -0.1157 -0.1081  0.0429
    1W        W44233  15.447  12.085   7.311 -0.1011  0.1232  0.4638
    1W        W44234  25.385  17.210   0.458 -0.1460  0.0636  0.4110
    1W        W44235   1.588   3.661   1.945  0.0014 -0.3057  0.0088
    1W        W44236  13.515   1.712   9.002 -0.1026  0.2008 -0.2389
    1W        W44237   7.594   2.266   2.311  0.1138  0.0894  0.1847
    1W        W44238  14.184   8.505   6.823 -0.0897  0.0559 -0.2177
    1W        W44239   0.237   9.778   9.521  0.1658 -0.0750 -0.1579
    1W        W44240  23.346  15.054   9.398 -0.1858  0.0793 -0.0906
    1W        W44241   8.800  14.085   8.776 -0.1318 -0.0340 -0.1250
    1W        W44242  24.245  12.132   8.605  0.1578 -0.1591 -0.3025
    1W        W44243  19.824  24.257   8.129  0.1364  0.1187 -0.1357
    1W        W44244  14.803  19.947   0.357  0.0732 -0.3269  0.1185
    1W        W44245  17.552   9.864   7.921 -0.2216  0.0369  0.1158
    1W        W44246  10.245  21.328   6.375 -0.1534  0.0719 -0.0794
    1W        W44247   6.326  23.176   7.804  0.1812  0.1012  0.1537
    1W        W44248  18.815  29.218   9.633  0.0880 -0.1229 -0.0167
    1W        W44249  15.068   7.256   9.188  0.1906 -0.0536  0.2078
    1W        W44250   5.960  22.761   1.610 -0.0393  0.0083 -0.1309
    1W        W44251   3.031  28.360   1.995  0.0144 -0.2195  0.0197
    1W        W44252  11.232   0.585   9.530 -0.0978  0.1802  0.0962
    1W        W44253  19.301  21.033   7.819  0.1008  0.1977  0.1522
    1W        W44254  16.914   7.362   7.765  0.2557  0.3846 -0.1469
    1W        W44255  12.425   9.367   1.928  0.1601  0.0439 -0.1156
    1W        W44256   3.742   4.283   3.359 -0.4421 -0.1342  0.1318
    1W        W44257   7.987  28.639   6.653  0.3195 -0.0930 -0.1396
    1W        W44258  21.646   7.320   1.360 -0.2658  0.0685 -0.0984
    1W        W44259   5.107   4.654   0.434 -0.0028 -0.2796 -0.1036
    1W        W44260  15.486   9.068   0.291  0.2017  0.0495 -0.0781
    1W        W44261  23.325  23.549   3.807  0.0731 -0.0887  0.5544
    1W        W44262   7.697   8.872   9.501 -0.0048 -0.0682  0.0188
    1W        W44263  13.725  13.236   1.817 -0.0420 -0.2182 -0.1167
    1W        W44264  13.828  17.036   6.502 -0.1932  0.0786  0.3269
    1W        W44265   8.073  18.776   8.248  0.1571 -0.2775 -0.2979
    1W        W44266  29.423   1.954   8.578  0.2066 -0.1082 -0.1345
    1W        W44267  11.513  16.252   1.716 -0.0117 -0.2798 -0.0654
    1W        W44268  22.542  24.800   1.086  0.1911  0.1215  0.0920
    1W        W44269   9.479  13.155   7.052 -0.0838  0.0448  0.0536
    1W        W44270  18.166   0.721   8.912  0.0343  0.0020  0.1608
    1W        W44271  24.933   9.689   0.866 -0.1244 -0.0523 -0.0043
    1W        W44272  19.022  21.455   7.883  0.1370  0.2714  0.0746
    1W        W44273   3.845   2.249   1.869 -0.0397  0.4435  0.0661
    1W        W44274  11.975  10.120   9.218 -0.1731 -0.0279  0.0992
    1W        W44275   2.416  14.240   2.173 -0.1918  0.0053 -0.1474
    1W        W44276  28.438  12.186   9.302  0.1204  0.0636  0.2823
    1W        W44277  16.322   3.201   0.315  0.2375 -0.1421  0.0157
    1W        W44278  14.296  11.554   1.849  0.0911  0.0192 -0.1117
    1W        W44279  20.040  16.985   2.677 -0.2723  0.0361  0.1831
    1W        W44280  25.000  28.980   8.283  0.0522 -0.3557 -0.2472
    1W        W44281  21.820   8.023   0.478 -0.1587  0.1224  0.0069
    1W        W44282   2.429  21.255   8.277  0.1363  0.3600  0.1351
    1W        W44283  10.399  15.599   1.510 -0.1221 -0.0934  0.1200
    1W        W44284   2.466  25.956   3.107  0.1977 -0.3049 -0.1123
    1W        W44285  24.488  18.033   2.642 -0.1918  0.1511  0.0234
    1W        W44286  11.485   5.098   8.090  0.1900 -0.1290  0.1998
    1W        W44287   3.605   1.772   1.867 -0.0441 -0.2531 -0.0480
    1W        W44288   1.764  26.158   8.616 -0.0918 -0.3845 -0.0215
    1W        W44289   6.711  25.045   6.548 -0.2341  0.0555  0.3668
    1W        W44290  13.105  25.111   0.214  0.0158 -0.1398 -0.3137
    1W        W44291  22.435  26.162   3.254 -0.0476  0.2265  0.4504
    1W        W44292   6.933  14.759   0.411 -0.1712 -0.3908 -0.1240
    1W        W44293  25.701  22.048   0.199 -0.2916  0.2416 -0.0936
    1W        W44294   3.805  26.162   7.967 -0.2216 -0.1134 -0.1697
    1W        W44295  12.965  11.359   2.130  0.1088 -0.2359  0.2083
    1W        W44296   7.625   8.530   6.328  0.2498 -0.0594  0.0388
    1W        W44297   4.519  16.762   1.290  0.1702 -0.2125  0.3485
    1W        W44298  26.503  19.685   8.600  0.0456  0.0272  0.2716
    1W        W44299   3.097  18.570   2.691  0.1588  0.0168 -0.0462
    1W        W44300   8.447   0.606   8.435  0.1356 -0.0623 -0.1044
    1W        W44301   2.032  15.513   0.045 -0.0217 -0.2169  0.0391
    1W        W44302  21.778  27.381   6.830 -0.0237  0.2112  0.4297
    1W        W44303  12.341  25.085   1.169  0.0023 -0.2689  0.2549
    1W        W44304  22.410   9.766   9.393 -0.0339 -0.1696  0.0539
    1W        W44305  22.149  23.759   2.271 -0.0788  0.2218 -0.4142
    1W        W44306  22.142  22.984   9.487  0.0022 -0.1170 -0.1707
    1W        W44307  10.989  16.906   1.952  0.0906  0.3461 -0.1471
    1W        W44308  22.304   0.795   2.489  0.2084  0.0974 -0.0759
    1W        W44309  27.841   6.868   9.461  0.0473  0.4402  0.0012
    1W        W44310  13.392  25.436   7.429 -0.0493  0.0171  0.0612
    1W        W44311  29.601  28.535   2.254  0.0415  0.1948  0.1010
    1W        W44312  24.523   3.949   7.110  0.1233  0.2059  0.1541
    1W        W44313  14.981  25.793   7.226 -0.0887  0.1827  0.0836
    1W        W44314  21.157   1.953   1.406 -0.1027  0.0152  0.2583
    1W        W44315  21.209  26.814   7.817  0.0950  0.2646  0.2458
    1W        W44316  13.192   2.398   2.072 -0.0452 -0.3532 -0.2430
    1W        W44317   2.272  12.127   7.452 -0.0061  0.2518 -0.0514
    1W        W44318   1.499  17.005   7.834 -0.0427 -0.0846  0.2717
    1W        W44319   5.197  26.969   0.048 -0.1279  0.0044 -0.1705
    1W        W44320  28.863  19.796   2.308  0.1515  0.0099  0.0115
    1W        W44321  17.213   8.378   1.713 -0.1323  0.0835 -0.0043
    1W        W44322   8.249  26.922   6.413 -0.2323 -0.1127  0.3189
    1W        W44323  13.153   8.251   9.307  0.1973 -0.0024  0.0022
    1W        W44324  19.386  20.810   8.352  0.0167  0.0904  0.1377
    1W        W44325   1.768  21.294   9.040 -0.0175  0.0898  0.2066
    1W        W44326  25.802  10.073   7.632  0.1438  0.0693  0.0670
    1W        W44327  28.296   7.755   1.236 -0.0397  0.0822  0.0530
    1W        W44328  28.585  10.954   0.307 -0.0262  0.2570  0.1268
    1W        W44329   2.553  18.051   8.597  0.3283 -0.0122 -0.2524
    1W        W44330  25.397   6.736   1.272 -0.0026 -0.0245 -0.1302
    1W        W44331  18.808  16.172   8.191 -0.2457  0.1241 -0.2643
    1W        W44332  29.300  18.571   2.907  0.2930  0.1266  0.1057
    1W        W44333  17.909   8.260   7.832 -0.1041  0.1339 -0.0831
    1W        W44334  17.859  17.788   2.150  0.2060  0.2749  0.0550
    1W        W44335  27.653  13.949   2.385 -0.3007  0.2134 -0.0207
    1W        W44336  28.398   8.234   6.598 -0.3883  0.1689  0.2317
    1W        W44337   2.946   9.119   8.294  0.0691  0.1210 -0.1123
    1W        W44338  20.894  20.073   2.538  0.1114  0.0381 -0.5447
    1W        W44339   9.330   4.631   8.445 -0.0116  0.0945 -0.3340
    1W        W44340  21.989   7.854   7.845  0.0545  0.1775  0.3145
    1W        W44341  20.202  21.983   7.436 -0.1212 -0.1022 -0.3212
    1W        W44342   8.853   4.773   7.768 -0.2888 -0.0935  0.2731
    1W        W44343   6.268   7.369   1.419  0.0068 -0.5133  0.0608
    1W        W44344   3.529  17.779   0.807 -0.3181  0.0370 -0.3006
    1W        W44345   9.424  15.101   9.252 -0.2346 -0.1752  0.0189
    1W        W44346  29.409  26.080   7.169  0.3530  0.0841 -0.3929
    1W        W44347   9.427  22.419   6.949  0.1055 -0.0859  0.0540
    1W        W44348  13.755  13.656   7.386 -0.1436 -0.0126  0.1340
    1W        W44349  19.989   3.694   2.120  0.1214 -0.2116 -0.1117
    1W        W44350  28.401   1.609   0.346  0.2447  0.0265 -0.2436
    1W        W44351   4.908   4.743   1.769  0.0478 -0.2034  0.0420
    1W        W44352   7.961   0.448   9.297  0.1520 -0.0676  0.2108
    1W        W44353  28.664   1.646   7.063 -0.0992 -0.2211 -0.4224
    1W        W44354  13.251  18.954   9.413 -0.0785  0.3227  0.5663
    1W        W44355   1.867   7.568   8.118 -0.1576 -0.0864  0.0479
    1W        W44356   2.162   8.200   6.305 -0.2074 -0.3631  0.2824
    1W        W44357  24.530   1.110   0.670 -0.0838  0.1325  0.0450
    1W        W44358  20.188  21.753   2.790  0.2934 -0.2765 -0.0421
    1W        W44359  11.979   5.304   8.437  0.0892  0.4603  0.0750
    1W        W44360  22.383  27.740   1.592  0.1281  0.0969  0.1844
    1W        W44361  24.430  25.147   9.390  0.2209 -0.1118 -0.0127
    1W        W44362  10.592   3.884   5.708  0.1479  0.0741  0.2158
    1W        W44363   7.443  15.027   5.656  0.2122 -0.1653 -0.0149
    1W        W44364  22.549  23.968   3.291 -0.3730 -0.0062 -0.3528
    1W        W44365  12.996  22.620   2.457  0.1622  0.0263  0.0023
    1W        W44366  15.474  27.358   8.585 -0.0168  0.1276 -0.3984
    1W        W44367   9.132  14.995   8.118  0.0324 -0.0391  0.0794
    1W        W44368  18.318   1.708   7.553  0.1986  0.3391  0.1417
    1W        W44369   1.080  15.085   9.079 -0.0839  0.1050 -0.1118
    1W        W44370  23.389  10.829   2.113  0.1182 -0.0680  0.0705
    1W        W44371  17.116  18.393   7.689  0.3894  0.0325  0.0901
    1W        W44372  17.494  16.923   7.580 -0.0874  0.1805  0.2285
    1W        W44373  20.872  23.707   7.395  0.1041  0.0457 -0.3027
    1W        W44374  26.894   7.125   0.013  0.2616  0.1963 -0.0099
    1W        W44375  28.232   0.071   7.909 -0.0406 -0.2073 -0.0561
    1W        W44376  29.046  23.513   1.513  0.0061  0.2092 -0.3186
    1W        W44377   0.507  12.252   1.334 -0.0882 -0.1668  0.0292
    1W        W44378  23.988  24.242   4.083  0.5241  0.1706 -0.4213
    1W        W44379   1.085  22.646   3.199  0.3392 -0.0352 -0.2415
    1W        W44380  10.209  15.754   1.053  0.0096  0.2606 -0.0124
    1W        W44381   0.391  16.260   7.688  0.2598  0.1653 -0.0546
    1W        W44382  29.551  28.235   8.872 -0.0257  0.2012 -0.0563
    1W        W44383  19.327   3.426   7.974 -0.1919 -0.0489  0.0480
    1W        W44384  24.002  22.797   3.097  0.3382 -0.3860 -0.1738
    1W        W44385  19.319  17.782   0.365  0.1933 -0.2362  0.0362
    1W        W44386  28.091   5.653   0.696 -0.0398 -0.0442 -0.1701
    1W        W44387  19.075  19.268   1.258 -0.1410  0.0151  0.0215
    1W        W44388   0.935  18.802   2.669 -0.1158  0.2937  0.0667
    1W        W44389   6.162   6.920   8.328 -0.1420  0.1358  0.0154
    1W        W44390   6.173   2.270   0.844 -0.1104 -0.0481  0.1514
    1W        W44391  18.449   6.906   1.129 -0.2438 -0.4198 -0.1494
    1W        W44392   8.989  17.392   6.112 -0.2701  0.0958  0.1744
    1W        W44393   9.030  11.316   0.904  0.1616 -0.1269  0.0850
    1W        W44394  19.327  28.296   9.023  0.0850  0.2405 -0.1497
    1W        W44395  25.618   3.416   6.748 -0.1662  0.1054  0.0597
    1W        W44396   9.482   4.269   0.411  0.2557 -0.0447 -0.0198
    1W        W44397  16.264   2.706   0.310  0.0348 -0.1785  0.2684
    1W        W44398  16.309  28.434   8.203 -0.1217 -0.2018  0.3046
    1W        W44399  26.322  10.906   9.060 -0.3644 -0.1228  0.3314
    1W        W44400  25.272  14.365   7.285 -0.2103  0.3297 -0.0009
    1W        W44401  21.034   2.300   1.774  0.1690 -0.1483 -0.0010
    1W        W44402   3.742  13.937   0.562 -0.0695  0.1075 -0.1237
    1W        W44403  25.053  26.730   7.426  0.1358  0.6767 -0.2988
    1W        W44404  25.601  21.664   9.204  0.2660 -0.2203  0.1612
    1W        W44405   7.555  26.484   7.760 -0.1862  0.0133 -0.2345
    1W        W44406   0.647  19.987   1.610  0.1524 -0.0642  0.1807
    1W        W44407  22.291   4.091   1.543 -0.1399 -0.0256  0.0650
    1W        W44408   1.061  22.983   8.309 -0.1180 -0.2340  0.1115
    1W        W44409  27.660   1.577   9.070 -0.0007  0.3432 -0.3029
    1W        W44410  26.806   9.282   7.410 -0.0354  0.1745  0.0262
    1W        W44411  21.012  27.227   8.021  0.0251  0.1929 -0.0921
    1W        W44412  24.681  18.822   2.350  0.1537 -0.0623 -0.3968
    1W        W44413  10.350   0.531   1.783  0.2303 -0.0332  0.2302
    1W        W44414   0.520  18.000   2.564  0.2232 -0.0645  0.0147
    1W        W44415  28.279  29.331   9.085 -0.2156 -0.4385  0.1565
    1W        W44416  23.018   1.373   7.270  0.3444  0.0771  0.0118
    1W        W44417  15.255   0.610   2.184  0.0836 -0.1924 -0.1438
    1W        W44418  28.114  18.933   3.096 -0.2306  0.0177 -0.0554
    1W        W44419  21.460  13.251   0.677  0.0656  0.1549 -0.0479
    1W        W44420  29.618   2.568   1.345 -0.0947 -0.1011  0.0022
    1W        W44421   0.006   5.274   8.418  0.0657 -0.2228  0.0227
    1W        W44422   8.426   2.460   1.622  0.2370 -0.0213 -0.1318
    1W        W44423  16.145  28.532   1.353 -0.0250 -0.2253  0.0534
    1W        W44424   3.361  24.926   1.421 -0.1106 -0.1009 -0.3642
    1W        W44425  11.932  26.643   1.036 -0.0829 -0.0699 -0.0388
    1W        W44426   5.102   5.191   0.335  0.4000 -0.0117  0.1687
    1W        W44427   7.080  20.528   1.701 -0.0420  0.1006  0.1268
    1W        W44428  28.296   4.927   5.898 -0.0469 -0.1134 -0.1065
    1W        W44429  15.505  15.706   0.807 -0.0956 -0.0576  0.1254
    1W        W44430  21.021   0.963   8.140  0.2647 -0.2283 -0.2180
    1W        W44431  22.311  19.393   2.835  0.0252  0.0499 -0.4377
    1W        W44432   5.020   3.111   0.065 -0.3181  0.2532  0.1594
    1W        W44433  11.910  23.728   2.387 -0.0637  0.2354 -0.3542
    1W        W44434   7.135   1.488   9.479  0.0728 -0.2467  0.2402
    1W        W44435   0.236  17.251   0.313  0.1212  0.0671  0.1450
    1W        W44436   3.517  28.498   1.986  0.2358 -0.2482 -0.2176
    1W        W44437   1.742  20.941   7.096 -0.0088  0.0840 -0.1144
    1W        W44438  13.463   4.012   0.077 -0.0431 -0.0000 -0.0658
    1W        W44439  29.378   4.048   9.002 -0.0660  0.2257  0.0460
    1W        W44440   9.952  29.125   0.516  0.0031 -0.4029  0.1127
    1W        W44441  11.637  10.611   0.786  0.2448  0.2050 -0.3232
    1W        W44442  15.915   7.369   0.315  0.0759  0.0768  0.0869
    1W        W44443  15.497  13.641   2.552 -0.1079  0.1706 -0.0448
    1W        W44444   6.714   3.000   0.423 -0.2665  0.0423  0.2014
    1W        W44445   8.469  24.846   6.174  0.1476 -0.0748  0.1111
    1W        W44446  26.949  27.300   1.798  0.1346  0.0313 -0.4194
    1W        W44447   7.189   7.684   6.648  0.2178 -0.0304  0.0707
    1W        W44448  12.305  19.025   7.231  0.4260 -0.1782 -0.0763
    1W        W44449  27.258  16.271   8.187 -0.0278  0.0479 -0.0561
    1W        W44450   1.734  20.181   7.882  0.1509 -0.6016  0.0741
    1W        W44451  24.679   5.744   8.152  0.2238 -0.0855  0.0063
    1W        W44452  24.741  29.200   0.827  0.2668  0.1682  0.1429
    1W        W44453  25.184  15.732   7.358 -0.0004  0.2135 -0.1195
    1W        W44454  13.731   7.189   2.131  0.1784  0.1789 -0.3113
    1W        W44455  26.223  17.158   2.418  0.0594 -0.0682  0.0026
    1W        W44456  26.121   8.467   9.526 -0.0050 -0.2371  0.2079
    1W        W44457  19.044   6.019   2.586  0.2299 -0.1286 -0.0910
    1W        W44458  20.294  13.062   2.656  0.1181  0.1909  0.0065
    1W        W44459  19.916   9.635   9.375  0.0766  0.0026 -0.2331
    1W        W44460  23.883  26.138   2.960 -0.1076  0.0166 -0.3427
    1W        W44461   6.399  12.133   0.765 -0.1446  0.1222 -0.3597
    1W        W44462  18.004   3.713   8.909  0.1647  0.0472  0.0735
    1W        W44463  23.015   7.479   2.075 -0.4153  0.1290 -0.0610
    1W        W44464  14.430  14.630   1.850  0.0380 -0.1280  0.0875
    1W        W44465  17.302   5.703   9.317  0.2741 -0.1805 -0.1474
    1W        W44466  14.134  22.088   1.103 -0.0679  0.2677 -0.0047
    1W        W44467   3.219   7.674   0.152 -0.0161  0.0465 -0.0860
    1W        W44468  24.582  10.363   7.793 -0.1561  0.0925  0.1690
    1W        W44469   5.656  14.253   0.164 -0.1192 -0.1784  0.1648
    1W        W44470  12.628   8.239   0.446  0.2630 -0.1774  0.0520
    1W        W44471  11.370  27.650   1.958  0.0454  0.4418  0.0077
    1W        W44472  13.547   6.419   7.261  0.1028  0.2242 -0.2756
    1W        W44473  15.579  10.645   8.820 -0.0461  0.1505  0.1507
    1W        W44474  25.873  15.108   1.185  0.0548 -0.2157 -0.3812
    1W        W44475   2.857  21.274   7.785  0.6427 -0.0418  0.1238
    1W        W44476  11.911   2.982   9.028 -0.0279 -0.1867 -0.1939
    1W        W44477   5.685  20.496   2.790 -0.2054  0.2135 -0.2006
    1W        W44478   6.477  27.829   5.804  0.2128 -0.0111 -0.1085
    1W        W44479   4.954   5.772   0.626 -0.0476  0.1473  0.0742
    1W        W44480  25.531  25.235   1.900  0.1333 -0.0640  0.2079
    1W        W44481  19.983   6.605   2.004 -0.0977  0.0315  0.1268
    1W        W44482  27.469   1.883   0.692  0.1746  0.4390  0.1627
    1W        W44483  10.041  11.814   8.109  0.0804 -0.1347 -0.3084
    1W        W44484  19.930   0.727   2.351  0.1178 -0.2318 -0.0234
    1W        W44485  26.949   0.990   9.128 -0.0213  0.1743  0.0569
    1W        W44486  16.186  26.375   1.325 -0.1526 -0.2035  0.1262
    1W        W44487  12.979  14.833   1.552  0.2481  0.2168  0.1071
    1W        W44488  12.199  25.636   0.557  0.0411  0.1307  0.0775
    1W        W44489  19.740  14.969   0.851 -0.0534  0.1439  0.1095
    1W        W44490  25.880  28.733   8.107  0.0637  0.0784  0.1085
    1W        W44491  28.570   6.529   0.865 -0.0654 -0.1253 -0.2966
    1W        W44492  13.481  14.186   2.010  0.0693  0.1630 -0.1844
    1W        W44493  11.701  10.507   1.638  0.0081  0.1189 -0.0416
    1W        W44494   8.800  22.095   8.531  0.1008 -0.1122 -0.0224
    1W        W44495   3.202   2.947   7.006  0.0593  0.1942 -0.1029
    1W        W44496   2.212  19.009   0.640  0.2427 -0.0722 -0.1730
    1W        W44497   4.794  10.507   5.906  0.1353 -0.0693 -0.1255
    1W        W44498  16.110  24.254   0.806  0.3198 -0.0174  0.2364
    1W        W44499   2.135  22.362   9.192 -0.0873 -0.0813  0.2503
    1W        W44500  15.732  27.403   9.022  0.1592 -0.1828  0.0844
    1W        W44501   7.607  25.869   6.989  0.0888  0.4082 -0.0554
    1W        W44502  19.942   4.648   0.362 -0.4612 -0.0520  0.2240
    1W        W44503  11.486   3.459   8.336 -0.0535  0.1415  0.1592
    1W        W44504   7.584  21.781   2.703  0.1947 -0.0109 -0.3296
    1W        W44505  20.425  15.381   0.636  0.2503  0.2109  0.0337
    1W        W44506  23.448   9.217   8.864  0.2556 -0.1626 -0.1541
    1W        W44507  15.596  12.396   2.086  0.1239 -0.2241 -0.6037
    1W        W44508  16.317  14.478   8.118 -0.0328  0.1047 -0.1816
    1W        W44509  10.460   5.606   6.356  0.2224 -0.2424  0.1490
    1W        W44510  24.772   1.660   7.635  0.2715 -0.0296  0.1878
    1W        W44511   0.763   2.231   1.320 -0.1057  0.1856 -0.1022
    1W        W44512  21.942   0.470   2.667  0.2379  0.5158  0.1233
    1W        W44513  14.986  11.935   7.482 -0.2374  0.1054 -0.3846
    1W        W44514  28.229   0.413   2.878  0.1522  0.0130 -0.0053
    1W        W44515  14.440  27.709   7.426  0.0281 -0.0556 -0.3023
    1W        W44516  19.601  16.323   0.236  0.1204 -0.0570  0.3603
    1W        W44517   3.263  13.780   7.438  0.0984 -0.0038 -0.2084
    1W        W44518  26.344  26.562   0.941 -0.1040  0.0959 -0.0852
    1W        W44519  10.498  13.812   2.510 -0.0553 -0.1499  0.1307
    1W        W44520  26.386   9.890   1.752  0.2491 -0.3744  0.1862
    1W        W44521  17.417  14.798   1.099  0.0897 -0.0820  0.0320
    1W        W44522   6.543  18.545   0.054 -0.1220  0.1193 -0.0750
    1W        W44523   1.136   7.264   9.381 -0.2955  0.0773  0.1869
    1W        W44524   8.845  21.039   0.602 -0.2690  0.0905  0.3256
    1W        W44525  14.955  18.421   2.018 -0.0182 -0.1396  0.2291
    1W        W44526  23.859   4.268   1.715  0.0654 -0.3068  0.4762
    1W        W44527  21.160  29.488   3.184 -0.1140  0.1433  0.3101
    1W        W44528   6.464  20.437   9.305  0.2390  0.0079  0.0372
    1W        W44529   6.617   4.686   7.944 -0.0421 -0.0061  0.1372
    1W        W44530   3.076   1.004   0.403 -0.3959 -0.1587 -0.0268
    1W        W44531  14.212  17.298   8.854  0.2998  0.0062 -0.1145
    1W        W44532  28.889   5.646   9.350  0.0710  0.1486  0.1258
    1W        W44533  25.141   3.905   1.911 -0.1182  0.2180 -0.1914
    1W        W44534   9.577  17.275   0.731  0.1682 -0.0366 -0.0772
    1W        W44535  11.625  21.340   1.983  0.1827 -0.0886 -0.0764
    1W        W44536  12.392   5.912   0.512  0.0675 -0.0687  0.0091
    1W        W44537  22.930  22.438   0.796  0.1825  0.3919  0.1542
    1W        W44538  28.992  24.556   7.277  0.0883 -0.0631  0.0199
    1W        W44539  24.227  24.687   9.073 -0.4814 -0.2822 -0.2554
    1W        W44540   7.960  25.592   6.096 -0.3679  0.0243 -0.2768
    1W        W44541  15.134   3.940   2.124  0.2171  0.0901 -0.3512
    1W        W44542  18.991  24.628   3.372 -0.0943 -0.1589  0.0246
    1W        W44543  22.731  21.061   3.241 -0.1208  0.1025  0.1694
    1W        W44544  19.922  15.664   8.449 -0.0366  0.1152 -0.0625
    1W        W44545  27.660   0.960   0.862 -0.1953  0.0984 -0.2375
    1W        W44546  12.432  18.913   1.408  0.0097 -0.0220 -0.0507
    1W        W44547   8.442  17.799   0.463 -0.1831 -0.2238  0.0574
    1W        W44548  20.508  19.993   8.150 -0.1128 -0.0580  0.1172
    1W        W44549   5.612  10.503   1.117  0.0052  0.0846 -0.0221
    1W        W44550  23.606  28.108   7.570 -0.0391  0.1743 -0.1027
    1W        W44551  18.527  19.804   1.762 -0.5082 -0.3478  0.0731
    1W        W44552   4.340  21.842   8.448  0.0288  0.0338 -0.0734
    1W        W44553  18.053   1.096   8.550  0.1180 -0.0203  0.2534
    1W        W44554  26.053  12.503   7.415 -0.0902  0.0722  0.4381
    1W        W44555   9.021  20.553   6.891 -0.0627 -0.4002  0.0188
    1W        W44556  26.548  17.783   7.651  0.1600  0.1061  0.0864
    1W        W44557  18.493  13.596   8.917  0.1302 -0.0857 -0.2969
    1W        W44558   4.480   0.705   6.793  0.3811 -0.2137 -0.1836
    1W        W44559  10.176  12.948   1.348  0.2204  0.0628 -0.2044
    1W        W44560  12.517   1.366   6.915  0.0262 -0.1394 -0.1390
    1W        W44561   3.622   1.473   7.647  0.0030  0.3523 -0.1095
    1W        W44562   9.958  19.147   7.338 -0.0238  0.1834 -0.1321
    1W        W44563  28.433  15.127   8.543  0.0801  0.2986  0.2004
    1W        W44564  10.774  27.679   9.105  0.2290 -0.1113 -0.0594
    1W        W44565   9.148   3.666   7.935 -0.2205 -0.1618 -0.0372
    1W        W44566   9.448   8.441   6.756 -0.1137  0.2601  0.0335
    1W        W44567  14.097   9.269   1.277 -0.1285  0.1767 -0.2553
    1W        W44568  25.365  10.007   9.024  0.2801  0.2696  0.0897
    1W        W44569  13.401  13.787   6.907 -0.0865 -0.0848 -0.2639
    1W        W44570   6.909   3.342   1.129  0.0334 -0.0579  0.1939
    1W        W44571   2.675   0.563   6.284 -0.0534 -0.0610  0.2996
    1W        W44572   4.477  26.265   7.940 -0.2078 -0.0169 -0.0600
    1W        W44573  23.211  16.911   8.203 -0.1723 -0.0831 -0.2620
    1W        W44574  26.255  23.689   9.437  0.0953 -0.0172 -0.2875
    1W        W44575   6.249  18.134   7.533 -0.1590 -0.1105 -0.3522
    1W        W44576   4.095  22.533   9.289 -0.0612  0.0234  0.2143
    1W        W44577  28.655  26.513   1.862  0.1147 -0.2998  0.2515
    1W        W44578   8.067   3.719   1.170 -0.0440 -0.2717  0.0102
    1W        W44579  10.783  26.655   8.337  0.0202 -0.1508  0.0468
    1W        W44580  16.109  19.896   0.983  0.1601 -0.0823  0.1463
    1W        W44581  10.549  28.096   1.625 -0.1903  0.2315 -0.1822
    1W        W44582  11.934  17.530   0.381 -0.0115 -0.0244 -0.0227
    1W        W44583  24.798  13.293   1.617  0.1475  0.1294  0.2436
    1W        W44584   0.018  23.008   9.016  0.2816 -0.1580  0.3502
    1W        W44585   8.698   8.896   0.440  0.1091  0.1415  0.1174
    1W        W44586  25.578   8.325   2.465 -0.4151  0.0220  0.0503
    1W        W44587  21.563  26.398   2.948 -0.0268 -0.0241  0.1463
    1W        W44588  21.951   8.611   7.383  0.0343  0.0384  0.3750
    1W        W44589  14.226  11.631   2.839  0.1289 -0.1461  0.0865
    1W        W44590  11.087  21.562   1.949 -0.2096 -0.0082 -0.0770
    1W        W44591  23.409   4.060   2.866  0.3761  0.1144  0.1952
    1W        W44592  29.383  14.329   0.155  0.1412 -0.1073 -0.0914
    1W        W44593  20.173  24.596   8.279 -0.0967 -0.1878 -0.5113
    1W        W44594  28.937  23.386   0.075 -0.0378  0.0005 -0.0895
    1W        W44595  23.358   7.042   1.282  0.0539  0.1535  0.1110
    1W        W44596   1.329   4.853   8.632  0.2117 -0.0089  0.2294
    1W        W44597   7.196   8.794   9.462 -0.0811  0.2108  0.1020
    1W        W44598   8.790  19.581   8.909  0.2578 -0.6673  0.1398
    1W        W44599  16.455  22.298   2.773  0.2295 -0.1807 -0.3831
    1W        W44600  24.972  11.917   0.526  0.1670 -0.1624  0.0028
    1W        W44601  11.181  22.636   0.255 -0.1380  0.0412 -0.1121
    1W        W44602   2.085   3.152   1.500 -0.2315 -0.1011 -0.0857
    1W        W44603  24.788  20.513   1.177  0.0518 -0.1794 -0.1894
    1W        W44604  22.110  10.987   1.119 -0.2836 -0.3158 -0.0666
    1W        W44605   5.661  10.952   5.588  0.1775  0.0501  0.0029
    1W        W44606  11.328   7.661   1.541  0.0859  0.0586  0.0295
    1W        W44607   6.329   5.416   2.244 -0.1065  0.1628  0.0964
    1W        W44608  15.583   3.817   0.566 -0.0450  0.1231  0.0998
    1W        W44609  18.567   3.705   1.073  0.0635  0.3504  0.0286
    1W        W44610   3.972   9.219   6.760  0.0105 -0.1480 -0.1689
    1W        W44611  18.520  17.039   0.569 -0.1249 -0.1256  0.4721
    1W        W44612  13.239  14.289   8.185 -0.1057  0.0167  0.2469
    1W        W44613  26.789  17.479   8.038  0.0119  0.0834  0.1228
    1W        W44614  12.301   2.758   2.546  0.0485  0.1670  0.3515
    1W        W44615   9.810  12.972   0.645 -0.2705  0.3287 -0.0759
    1W        W44616   3.114  16.484   8.274  0.2555  0.1148  0.0339
    1W        W44617  12.191   2.700   6.813  0.0130  0.1429 -0.1312
    1W        W44618  26.795   5.533   2.674  0.2203 -0.0359 -0.2984
    1W        W44619   2.789   5.513   8.646 -0.0439  0.1220 -0.1501
    1W        W44620  13.213  26.351   0.919  0.0282  0.0964  0.4144
    1W        W44621   9.868   9.252   7.789  0.0554  0.1264 -0.1101
    1W        W44622  15.969  29.139   9.434  0.0922  0.1134 -0.1778
    1W        W44623  11.045  12.130   1.430  0.1956  0.0099  0.2057
    1W        W44624  19.207  23.171   7.308 -0.0058 -0.0216  0.0931
    1W        W44625   3.870  17.505   1.105  0.0823  0.2378 -0.0826
    1W        W44626   2.808   0.244   1.054  0.1568  0.0941 -0.1557
    1W        W44627  21.611   6.461   1.170 -0.0636  0.2395  0.2274
    1W        W44628   2.956   8.591   5.982  0.0109 -0.1474  0.3958
    1W        W44629  10.964  19.837   1.977 -0.0423  0.1367 -0.1088
    1W        W44630  12.619  12.866   7.310 -0.1483 -0.0563 -0.3602
    1W        W44631  29.204   6.317   7.095 -0.2227  0.0323 -0.1798
    1W        W44632   8.246  21.377   1.772  0.0797 -0.1281 -0.2532
    1W        W44633   8.536  12.300   1.103  0.1242 -0.2709  0.1420
    1W        W44634  21.136   4.519   8.785  0.0309  0.1544  0.1572
    1W        W44635  24.982   0.542   0.023 -0.0874 -0.0474  0.0334
    1W        W44636  15.190  29.360   6.125 -0.0438 -0.0292  0.1818
    1W        W44637   9.739  27.784   1.401 -0.0852 -0.1611  0.1006
    1W        W44638  16.016  18.312   8.649  0.1238  0.1391 -0.0446
    1W        W44639   5.404   9.595   1.542  0.3189  0.0925  0.0710
    1W        W44640  26.911  15.483   0.275 -0.0609  0.1225 -0.2411
    1W        W44641   3.631   2.557   1.342  0.1063  0.0403  0.2242
    1W        W44642  10.477  26.485   6.514 -0.1419  0.1921 -0.0659
    1W        W44643  26.913   3.399   7.361  0.1686 -0.1798  0.0724
    1W        W44644  23.300  23.966   8.964 -0.1890 -0.1444 -0.1372
    1W        W44645   3.556  19.830   7.763  0.0717  0.0684  0.0297
    1W        W44646   0.716  20.736   3.650 -0.1940 -0.1250 -0.3182
    1W        W44647  12.436   3.566   7.716  0.2652 -0.3448  0.0660
    1W        W44648   2.431  22.965   2.684 -0.2688 -0.1346  0.2604
    1W        W44649   3.120  17.000   1.078  0.0492  0.0519 -0.2324
    1W        W44650   3.355  14.911   1.468  0.0583 -0.3859 -0.2494
    1W        W44651  14.232  28.892   7.385 -0.0170 -0.0572  0.0541
    1W        W44652   8.305   6.558   0.513 -0.0178  0.2553 -0.4196
    1W        W44653  24.950  19.490   9.025  0.1088 -0.3050 -0.0557
    1W        W44654  10.468  24.509   0.058 -0.1406 -0.2673  0.2748
    1W        W44655   8.697   3.995   6.603  0.1238 -0.1774  0.1863
    1W        W44656  10.544  12.275   9.525 -0.3090  0.1567  0.0150
    1W        W44657  19.384  29.506   3.138 -0.0970  0.0900 -0.0433
    1W        W44658   9.323  22.916   0.493 -0.0876 -0.2648  0.1417
    1W        W44659   5.750  23.872   2.083  0.1780  0.0753 -0.0649
    1W        W44660  10.276  27.512   8.112  0.0967 -0.2006  0.0239
    1W        W44661   0.927  25.932   6.834  0.1414 -0.0641 -0.1289
    1W        W44662  28.789  19.423   1.443  0.0768  0.1143 -0.2155
    1W        W44663  23.551  11.246   7.524  0.3444 -0.2046  0.0124
    1W        W44664  13.803  20.736   9.622  0.0767  0.1152 -0.1261
    1W        W44665  13.446  22.925   1.349 -0.1074  0.2188  0.0838
    1W        W44666   3.660  14.299   8.051  0.0613  0.2000 -0.0923
    1W        W44667  17.732   1.336   1.340  0.2423  0.1093  0.0774
    1W        W44668   2.982  16.367   1.921 -0.0383 -0.3014  0.1729
    1W        W44669  21.237  15.650   0.842  0.1658  0.1894 -0.1045
    1W        W44670   6.629  13.864   1.212  0.1668 -0.4407  0.1532
    1W        W44671   8.346   1.117   7.306 -0.0093  0.0477  0.2050
    1W        W44672  15.509   8.133   1.281 -0.0590  0.0736  0.0464
    1W        W44673   1.056  16.218   8.335 -0.0695 -0.3881 -0.2381
    1W        W44674   2.095   6.958   9.111 -0.0320 -0.2074 -0.1587
    1W        W44675  28.582  26.151   1.209  0.0051 -0.1832 -0.0666
    1W        W44676  18.829  25.760   1.056 -0.1194 -0.2537 -0.2707
    1W        W44677  16.041   8.132   7.740 -0.0991  0.3245  0.0485
    1W        W44678  21.011  20.988   9.056  0.0861  0.1386  0.0026
    1W        W44679   5.796  24.801   2.995  0.3843 -0.1106 -0.0323
    1W        W44680  23.087  12.182   2.355  0.0500 -0.3644  0.1597
    1W        W44681   3.628  20.990   1.292 -0.1821  0.0835 -0.0070
    1W        W44682  19.223  27.006   7.630 -0.3292 -0.1390  0.4732
    1W        W44683  24.407   6.781   0.703  0.0052  0.0097 -0.3911
    1W        W44684   8.042   4.586   8.344  0.0396 -0.1045 -0.3002
    1W        W44685  24.138   7.482   0.829 -0.0331  0.0987 -0.0303
    1W        W44686  26.887   7.698   8.944  0.1530  0.0214  0.2201
    1W        W44687   7.607  24.279   8.188 -0.3134  0.1485 -0.0691
    1W        W44688   5.046   8.835   8.540 -0.0913  0.0355  0.0204
    1W        W44689  20.872  25.365   4.052 -0.1994  0.2579 -0.2449
    1W        W44690   1.765   0.252   0.149  0.4362  0.2706 -0.0678
    1W        W44691  25.895  26.844   1.177  0.1428 -0.0113  0.0425
    1W        W44692  11.623  25.369   2.472  0.1981 -0.0951  0.1063
    1W        W44693  15.564   9.123   1.645 -0.0317 -0.1545  0.1287
    1W        W44694   2.732  25.511   2.847 -0.1441  0.2574  0.0114
    1W        W44695  14.996   6.558   8.199 -0.0317  0.0848 -0.2997
    1W        W44696  27.089  16.754   2.701  0.0284 -0.0746 -0.1111
    1W        W44697   9.054   0.797   9.581 -0.3261  0.1142  0.0508
    1W        W44698  17.680  21.950   1.393 -0.0127 -0.1092  0.0006
    1W        W44699  28.568  28.203   1.330 -0.0101 -0.0595 -0.0859
    1W        W44700  13.083  18.343   9.421 -0.2220  0.2418 -0.1861
    1W        W44701  21.404   6.377   8.696 -0.0784  0.0680  0.1601
    1W        W44702  15.347   5.494   1.949 -0.0892  0.2360  0.0003
    1W        W44703  16.843  24.386   7.497  0.0516 -0.0441 -0.1545
    1W        W44704  17.982  15.401   1.014  0.0253 -0.0741  0.0435
    1W        W44705  23.725  17.661   1.129 -0.1568  0.1356  0.3858
    1W        W44706  16.737   8.420   7.853  0.3857  0.0598  0.0803
    1W        W44707  17.176   0.894   6.700 -0.1833  0.0738  0.1992
    1W        W44708  27.342  24.533   3.236 -0.2718  0.0231 -0.3960
    1W        W44709   3.322   1.586   7.234 -0.2910 -0.0918 -0.1187
    1W        W44710  22.897  23.647   8.831 -0.0320 -0.1936  0.0083
    1W        W44711   6.090  25.329   8.740  0.0998  0.0280 -0.0930
    1W        W44712  14.797  28.456   2.818 -0.3027  0.1718 -0.0522
    1W        W44713  15.286  21.389   8.615 -0.0288  0.2457  0.1919
    1W        W44714   0.506  24.388   1.039  0.0663 -0.1099 -0.2854
    1W        W44715  17.921   0.497   0.394  0.1796  0.2248 -0.0108
    1W        W44716  22.744  19.421   6.862 -0.1130 -0.1599  0.0765
    1W        W44717   5.581  13.456   7.691 -0.1233 -0.1137  0.3851
    1W        W44718  27.339  18.965   1.347 -0.1046 -0.0558  0.0761
    1W        W44719   1.806  16.157   2.203 -0.3547 -0.0011 -0.1241
    1W        W44720  11.466   7.283   1.954  0.0393 -0.3396  0.1046
    1W        W44721  26.222  23.911   3.228 -0.0197 -0.0969 -0.1134
    1W        W44722   1.018  23.125   0.704  0.2399 -0.1320 -0.0169
    1W        W44723   7.717  19.726   8.276  0.3408  0.0987  0.1645
    1W        W44724   2.387  21.538   6.951  0.0980 -0.2503  0.3841
    1W        W44725  27.889   9.502   9.539  0.0920  0.0413 -0.1936
    1W        W44726  15.793  11.025   8.173 -0.0118  0.0354  0.0120
    1W        W44727  20.095   5.956   1.652  0.0306 -0.0131  0.1983
    1W        W44728   3.819  19.384   7.661 -0.1891  0.1850 -0.1248
    1W        W44729  18.156  28.514   7.641 -0.1202 -0.3291  0.1293
    1W        W44730  27.400  20.274   1.368 -0.0069  0.1257 -0.0884
    1W        W44731   5.474  20.105   0.611 -0.3426 -0.2527  0.1766
    1W        W44732   6.940  23.464   2.967 -0.1738 -0.3210 -0.1126
    1W        W44733   5.097   1.343   7.391  0.1715 -0.3625  0.2161
    1W        W44734   1.909  14.118   2.096  0.1434  0.0491 -0.2108
    1W        W44735  11.425  28.515   7.742  0.2031 -0.0012  0.2253
    1W        W44736   5.742   4.191   1.777  0.0207 -0.0490  0.0706
    1W        W44737  19.295  19.569   8.032 -0.1954 -0.3058 -0.1074
    1W        W44738   7.563   4.206   8.929 -0.2003  0.1125 -0.1404
    1W        W44739  13.251  29.243   0.229  0.0299  0.1294  0.0845
    1W        W44740  19.546  11.195   0.178 -0.0534  0.2683  0.1735
    1W        W44741   5.668   4.516   2.370  0.2081  0.0325 -0.0505
    1W        W44742  16.851  12.247   0.373  0.0721  0.1047  0.0817
    1W        W44743  24.381  18.489   8.725  0.0998  0.1439  0.3050
    1W        W44744  18.493  13.224   1.967 -0.3432 -0.0928 -0.2647
    1W        W44745  14.396  29.163   1.654 -0.3644 -0.0526 -0.3891
    1W        W44746  24.426  14.146   7.440 -0.0465 -0.1448 -0.4343
    1W        W44747   9.583   9.237   8.187  0.0652  0.2258 -0.0178
    1W        W44748   8.875  21.666   7.386 -0.1223  0.3586  0.0642
    1W        W44749  28.907   1.347   6.397  0.1961  0.2389 -0.0655
    1W        W44750  28.146  10.317   2.108  0.4595  0.3853 -0.0541
    1W        W44751   0.871  11.913   1.008  0.0273  0.0301  0.0581
    1W        W44752  19.953   2.931   2.178 -0.0249  0.0796 -0.2271
    1W        W44753  19.523  18.116   2.514  0.1358  0.2310 -0.0330
    1W        W44754  23.344  17.432   7.090 -0.2885  0.3793  0.2794
    1W        W44755  16.968  26.933   7.136  0.1592 -0.1047 -0.1822
    1W        W44756   5.637  20.924   8.218 -0.2482 -0.0560 -0.1611
    1W        W44757   8.404   1.619   8.272  0.0125  0.0545  0.1098
    1W        W44758  23.484  25.197   3.019  0.0708  0.1497 -0.2443
    1W        W44759  22.677  19.073   2.824 -0.0055 -0.1178 -0.1412
    1W        W44760  23.131   3.173   0.154  0.0352 -0.1431  0.0177
    1W        W44761  23.838   7.424   9.594  0.2665  0.0625 -0.0384
    1W        W44762  13.889  15.524   0.463  0.3952 -0.2769 -0.0416
    1W        W44763  16.173   2.843   9.044  0.4124 -0.1959 -0.0584
    1W        W44764   1.480   2.916   1.523  0.2218 -0.2312  0.0691
    1W        W44765  10.255  28.237   7.489 -0.3719 -0.0239  0.4162
    1W        W44766  27.204  19.366   7.040 -0.1890  0.0315 -0.3020
    1W        W44767  16.867  13.496   8.692 -0.1318  0.1412 -0.0878
    1W        W44768  29.305  23.375   8.847 -0.1585  0.0289 -0.1692
    1W        W44769  20.389  19.540   8.992  0.0447  0.1942 -0.0146
    1W        W44770  25.041   1.216   7.976  0.1419 -0.2405 -0.3638
    1W        W44771   0.714  24.730   9.128  0.0983  0.1087  0.1289
    1W        W44772  22.000   2.471   9.335  0.0119  0.1453 -0.3912
    1W        W44773  20.463  24.544   1.591 -0.0552 -0.0461  0.0358
    1W        W44774  22.550  26.429   1.577  0.1215  0.2217  0.1602
    1W        W44775   2.709   3.274   6.918 -0.0166 -0.1085 -0.1560
    1W        W44776   5.724  16.437   7.377  0.2114  0.1795 -0.1246
    1W        W44777  14.878  14.062   1.864  0.2334 -0.1913 -0.2206
    1W        W44778  14.335  15.112   1.988 -0.3579  0.0556  0.2625
    1W        W44779   5.046   9.251   6.596 -0.0073  0.2017  0.0586
    1W        W44780  22.677  15.869   1.789  0.1684 -0.0540 -0.5111
    1W        W44781  13.450  10.721   7.268  0.0956  0.0334  0.1052
    1W        W44782  17.852   7.340   8.833 -0.0699 -0.0302  0.0080
    1W        W44783   8.027  12.134   1.273 -0.3373  0.2927 -0.2740
    1W        W44784  22.809   8.976   8.150  0.2618 -0.0622  0.0919
    1W        W44785  15.413  21.204   7.818 -0.0865 -0.2045  0.0408
    1W        W44786   1.821   1.895   8.175  0.1156  0.0455 -0.1901
    1W        W44787  16.119   9.938   1.247  0.0145  0.0673  0.0089
    1W        W44788   0.856   1.711   1.179 -0.0436  0.0332 -0.2027
    1W        W44789   0.548  27.650   3.589  0.0732 -0.4680  0.1808
    1W        W44790  25.489   7.764   1.167 -0.1164 -0.0261 -0.0592
    1W        W44791  20.296  29.556   8.894 -0.0800  0.1137  0.0274
    1W        W44792   7.104  19.806   0.532  0.1052  0.3444  0.0773
    1W        W44793   5.901   6.698   1.730 -0.1314  0.1643 -0.2085
    1W        W44794  22.848   4.015   9.009  0.0720  0.3009 -0.0503
    1W        W44795  17.755  19.420   0.636  0.1650  0.1511  0.0770
    1W        W44796  14.460  18.250   2.508  0.0575  0.0016 -0.2579
    1W        W44797  19.137   8.979   8.013 -0.0725 -0.1116 -0.0377
    1W        W44798  16.577   4.137   1.239 -0.1867  0.1453  0.2260
    1W        W44799  26.311   1.414   9.167  0.0680 -0.3764 -0.1324
    1W        W44800   0.100  15.731   9.412  0.0022 -0.1973  0.0164
    1W        W44801  11.771   6.096   7.617 -0.1077  0.0680 -0.0789
    1W        W44802   0.271  18.606   9.530 -0.0737  0.1777 -0.3212
    1W        W44803   8.971   1.080   7.936 -0.1774  0.0354 -0.0982
    1W        W44804  16.849   0.204   1.010 -0.2180  0.3465  0.0483
    1W        W44805   2.788  16.923   7.187 -0.0248 -0.0159  0.0626
    1W        W44806   8.347  15.093   0.951  0.2737  0.1354 -0.1738
    1W        W44807  15.981  16.626   0.692  0.0818  0.4197  0.0387
    1W        W44808  20.777  11.453   1.216 -0.1615  0.0544 -0.0163
    1W        W44809  20.545  12.122   1.803  0.2386 -0.5310  0.2912
    1W        W44810  16.964  28.398   0.838  0.1748 -0.0236 -0.1266
    1W        W44811  17.180   3.990   6.379  0.3573 -0.3608 -0.0895
    1W        W44812  26.437  29.459   0.702 -0.2549  0.0966  0.1327
    1W        W44813   0.023  28.530   7.513  0.2833 -0.0628 -0.2224
    1W        W44814  11.009  27.267   9.113 -0.3657 -0.1860  0.1228
    1W        W44815  11.295  16.941   9.295  0.0534  0.0849 -0.0223
    1W        W44816  27.040  18.503   1.302  0.1793  0.1150 -0.1299
    1W        W44817   8.864  24.732   2.711 -0.1128 -0.1006 -0.2615
    1W        W44818  16.052   6.432   7.144 -0.0269 -0.3292  0.2151
    1W        W44819  24.967   4.344   8.085  0.0881  0.0877  0.0278
    1W        W44820  24.420  24.186   9.246  0.2077 -0.1323 -0.0423
    1W        W44821  28.999  15.911   0.660  0.0221  0.3167 -0.1727
    1W        W44822  17.055  24.137   3.006 -0.0181  0.0855  0.0117
    1W        W44823  23.273  12.477   2.751  0.0775 -0.1127 -0.1902
    1W        W44824   7.376  20.506   9.642 -0.0138 -0.1315 -0.3164
    1W        W44825   9.198   0.945   1.246 -0.0700 -0.0402 -0.0049
    1W        W44826  23.310  25.506   1.770 -0.5440 -0.1000  0.0818
    1W        W44827   6.770  21.406   7.072 -0.2773 -0.2579 -0.0490
    1W        W44828  13.882   7.000   1.071  0.2901 -0.0160  0.2128
    1W        W44829  19.460  13.680   0.895 -0.1340  0.0555 -0.1540
    1W        W44830  20.733  20.298   3.455  0.1170  0.1283 -0.0473
    1W        W44831  17.734  17.534   0.409  0.1020  0.0819  0.0918
    1W        W44832  18.243  28.700   0.327 -0.2124  0.0946  0.1612
    1W        W44833  23.447  28.065   8.046  0.1093 -0.2071  0.0801
    1W        W44834  22.567  21.885   8.928  0.0870 -0.0682  0.1385
    1W        W44835  23.488  21.280   1.204  0.1502 -0.0426 -0.1917
    1W        W44836  16.449   1.686   2.168  0.0125 -0.1434  0.0095
    1W        W44837   1.688  12.861   9.357  0.4005 -0.2046  0.2992
    1W        W44838  25.397  15.285   8.837  0.2509 -0.2260 -0.4118
    1W        W44839   9.392  23.920   2.139  0.2188 -0.0727 -0.2512
    1W        W44840  14.901   5.517   6.485  0.3763  0.1955 -0.2866
    1W        W44841  18.337  21.049   7.397 -0.0069  0.3283 -0.0266
    1W        W44842   7.744   8.914   7.079  0.0695 -0.0243  0.0154
    1W        W44843   0.664  18.106   0.431 -0.1142  0.1754  0.0636
    1W        W44844  10.920   2.788   8.440 -0.3467 -0.0007  0.2688
    1W        W44845  26.632  18.261   9.332 -0.0589 -0.0273 -0.1721
    1W        W44846   3.030   4.736   0.596  0.0747 -0.2030 -0.0077
    1W        W44847  10.531   6.069   1.925 -0.1049 -0.1312  0.2743
    1W        W44848  19.590  11.982   1.073 -0.1749 -0.0141  0.1867
    1W        W44849   1.866  15.093   8.269  0.2292  0.1163 -0.0702
    1W        W44850  27.350  27.179   2.603  0.0408 -0.0800  0.0416
    1W        W44851  15.436   7.685   1.569 -0.1927 -0.3875  0.0675
    1W        W44852   9.573  12.591   7.678 -0.1266 -0.0604  0.1383
    1W        W44853  12.262  14.211   9.643  0.1861 -0.1864  0.2784
    1W        W44854   3.319  21.322   3.456 -0.1047  0.2516 -0.0816
    1W        W44855  23.154  11.940   8.151 -0.1802  0.0080  0.0691
    1W        W44856   6.908  26.665   7.748 -0.1973 -0.2586 -0.2004
    1W        W44857  16.394   4.835   8.539 -0.1273 -0.1535  0.0050
    1W        W44858   6.645  29.528   1.079  0.3530  0.2667  0.1629
    1W        W44859  21.117  14.927   8.318 -0.2037 -0.1169 -0.0468
    1W        W44860  25.729  19.037   9.438 -0.1096  0.3687  0.3233
    1W        W44861   0.303  22.678   6.943  0.1241  0.0549  0.2890
    1W        W44862   1.701   9.381   6.179  0.1625 -0.2633 -0.1423
    1W        W44863  25.193  17.950   8.640 -0.1787  0.0578 -0.0141
    1W        W44864  22.954   6.462   0.448 -0.0090  0.0001  0.0430
    1W        W44865   3.023   8.541   7.027 -0.0178  0.2110  0.1731
    1W        W44866   4.551  21.143   2.712  0.1855  0.0812 -0.0607
    1W        W44867   8.031   7.204   9.215  0.1973 -0.1326 -0.2520
    1W        W44868  24.718  16.027   8.882  0.0168 -0.1110  0.2082
    1W        W44869   9.308  23.294   6.582 -0.2762  0.0487 -0.2740
    1W        W44870  18.986  28.852   3.158  0.2319  0.4298  0.1970
    1W        W44871  26.803  24.381   8.344 -0.0432 -0.1775 -0.1715
    1W        W44872   8.299  12.255   8.830 -0.0786 -0.0926 -0.1116
    1W        W44873  14.145  13.440   0.980  0.1507  0.0871 -0.0678
    1W        W44874  10.110   7.324   0.483  0.0913 -0.0694 -0.0064
    1W        W44875   9.654  25.856   8.831  0.1873  0.0452 -0.1422
    1W        W44876  25.673   2.010   6.980  0.2756  0.0245 -0.1834
    1W        W44877  17.430  25.141   0.900  0.1580 -0.1126 -0.0196
    1W        W44878   9.853   6.346   0.321  0.2031  0.0866  0.1108
    1W        W44879   6.025   2.540   9.535  0.1333 -0.0441  0.0033
    1W        W44880   1.162   6.664   9.186 -0.0851 -0.0992  0.1150
    1W        W44881   3.332  12.686   0.775  0.2478  0.1848 -0.0870
    1W        W44882   2.825  13.706   7.087  0.0412 -0.1237  0.1443
    1W        W44883  12.907  14.851   7.689 -0.2096 -0.2257  0.1734
    1W        W44884  17.222  29.588   2.922  0.0293 -0.1948 -0.0981
    1W        W44885  13.213  18.774   5.709  0.3069  0.2252  0.0290
    1W        W44886  20.938   5.297   7.424 -0.0223  0.0732  0.0884
    1W        W44887  22.928   1.288   2.244  0.0307 -0.1876 -0.3784
    1W        W44888  20.699   6.202   2.416  0.1526 -0.0678 -0.0830
    1W        W44889  15.171  25.957   1.791  0.2150 -0.3136 -0.0064
    1W        W44890   6.388   9.697   9.318  0.1855 -0.3658  0.0569
    1W        W44891   5.673   2.278   6.950 -0.0772 -0.0665  0.3438
    1W        W44892   2.960   1.088   1.869  0.1471  0.3075  0.2811
    1W        W44893  18.612   7.169   0.125  0.2027  0.1926  0.2443
    1W        W44894   9.085   8.282   5.471 -0.1222 -0.1599  0.0650
    1W        W44895  14.508  11.197   1.517  0.1071  0.0263  0.1007
    1W        W44896   0.231  16.643   7.964 -0.1022  0.2265 -0.1050
    1W        W44897  25.030  17.451   8.802 -0.1911 -0.1417  0.3583
    1W        W44898  13.281  28.904   2.574 -0.1433 -0.1017  0.4416
    1W        W44899   3.597  12.449   2.294  0.0048  0.2668  0.1777
    1W        W44900  22.588  14.620   9.044 -0.0324  0.0588 -0.0992
    1W        W44901  19.617  21.786   3.273  0.0958  0.0997 -0.3056
    1W        W44902  10.259  24.843   7.730 -0.2451  0.0056  0.4169
    1W        W44903  15.243  26.257   7.475  0.0300  0.1112  0.2874
    1W        W44904  28.778   8.786   7.094  0.3615 -0.0105  0.1499
    1W        W44905  28.169  18.920   0.436 -0.3331  0.1598  0.3717
    1W        W44906   6.974  19.641   8.282  0.2558  0.0662 -0.1432
    1W        W44907   1.687  27.744   8.659  0.3152  0.0506  0.0716
    1W        W44908  14.331   4.239   9.342  0.1260 -0.1945  0.0633
    1W        W44909  18.443  10.115   1.221  0.0957  0.0694  0.0023
    1W        W44910  16.974  28.608   2.660  0.1706 -0.2024  0.1737
    1W        W44911   3.966   8.494   7.344 -0.1577 -0.0615 -0.1277
    1W        W44912   8.400   5.146   0.894  0.3731 -0.1142  0.0492
    1W        W44913  23.952   7.272   6.716 -0.1129  0.2931  0.1239
    1W        W44914  27.380  12.303   9.403  0.3131 -0.0471 -0.2597
    1W        W44915   9.813  26.904   0.277 -0.0458  0.0035  0.0618
    1W        W44916  17.551  23.306   1.316  0.3917  0.2549  0.1334
    1W        W44917  18.628   2.398   9.179  0.0416  0.1033 -0.1953
    1W        W44918  14.316  25.658   2.273  0.0181 -0.2371 -0.1636
    1W        W44919   6.559  14.338   1.593  0.0618 -0.0639  0.0949
    1W        W44920  21.057  28.828   0.057 -0.2857  0.2299  0.2966
    1W        W44921   3.204  22.159   7.255  0.0432  0.0844  0.0869
    1W        W44922  17.934  23.668   7.628 -0.2473  0.0898  0.2204
    1W        W44923  14.059  24.886   7.460 -0.0642  0.0558 -0.3188
    1W        W44924  22.783   2.389   7.944 -0.1855  0.0751 -0.2794
    1W        W44925  27.518  14.037   7.228  0.0857  0.0993 -0.0488
    1W        W44926  27.246  26.832   2.932  0.0541 -0.2373  0.1683
    1W        W44927  28.946  20.942   0.262  0.1032 -0.0048  0.0640
    1W        W44928   5.401  24.920   8.441 -0.0164  0.1245 -0.1482
    1W        W44929   9.583   4.180   1.878 -0.1725  0.0574  0.0756
    1W        W44930   5.801   1.852   1.089 -0.1246  0.0453  0.0864
    1W        W44931  10.064  28.581   6.244 -0.0916  0.3268  0.0450
    1W        W44932  14.648   7.185   1.869  0.0481  0.0650 -0.2397
    1W        W44933  28.460  17.936   0.522  0.1337  0.0541  0.1653
    1W        W44934  12.644  20.859   6.251  0.0004 -0.1139 -0.1988
    1W        W44935  20.257   5.002   0.674  0.3615  0.2356 -0.1861
    1W        W44936   3.451   2.948   8.031 -0.3440 -0.0463  0.2922
    1W        W44937  27.091  19.715   0.823  0.1756 -0.0857 -0.1172
    1W        W44938  16.338   6.611   2.229  0.0820 -0.0109 -0.1239
    1W        W44939  16.028   9.571   8.134 -0.0135  0.3728  0.1865
    1W        W44940  15.605  24.582   8.413 -0.0408  0.3753  0.0564
    1W        W44941   5.848  20.760   1.978 -0.2607  0.0591  0.0755
    1W        W44942   3.082  22.191   3.679 -0.0001  0.2001 -0.0198
    1W        W44943   3.900  21.615   9.444 -0.1886 -0.0544  0.1356
    1W        W44944  28.227  21.875   8.402  0.2142  0.0662  0.1643
    1W        W44945  22.347  15.931   8.943 -0.3630 -0.0054 -0.2627
    1W        W44946  25.394   1.218   8.935  0.1067  0.3561  0.3688
    1W        W44947  17.004   4.407   1.168  0.1326 -0.5838  0.1927
    1W        W44948   5.325   7.924   1.626 -0.4058 -0.3456  0.1417
    1W        W44949  17.340  12.956   9.100 -0.0075 -0.2066  0.0731
    1W        W44950   0.211  15.221   1.696  0.3339 -0.0745 -0.2738
    1W        W44951   8.271   6.919   2.643 -0.4329 -0.0869  0.0871
    1W        W44952  16.184  16.376   7.607  0.0897 -0.1582  0.0204
    1W        W44953   8.242  22.662   8.130 -0.1675  0.3814 -0.2080
    1W        W44954  27.135  26.225   7.878  0.0694  0.1793 -0.1513
    1W        W44955   3.396  23.546   7.615  0.1237  0.0108 -0.0642
    1W        W44956  21.561  13.355   2.473 -0.0295  0.1584 -0.2189
    1W        W44957  22.633  17.437   7.511  0.1309 -0.0521 -0.4464
    1W        W44958  16.707  28.151   2.151 -0.2027  0.1190 -0.2022
    1W        W44959   2.498   9.792   1.492  0.0633 -0.2319 -0.0425
    1W        W44960   6.349  27.727   6.888 -0.2669  0.1579  0.0933
    1W        W44961   6.656  29.354   8.123  0.0788  0.1168  0.0031
    1W        W44962  18.532   2.927   7.884  0.0727  0.1813  0.0370
    1W        W44963  18.616  27.417   7.859  0.3134  0.0259  0.0697
    1W        W44964  17.360  15.546   9.620  0.0816  0.2194  0.1083
    1W        W44965   9.504  24.061   8.033  0.1055 -0.2765 -0.0724
    1W        W44966  23.874  24.881   2.327  0.0015 -0.0120  0.0681
    1W        W44967  27.668  11.260   0.648  0.0304  0.1124 -0.0657
    1W        W44968  10.539  17.520   2.802  0.3094  0.3235 -0.2615
    1W        W44969  17.300  27.915   2.229 -0.5117 -0.4322  0.2819
    1W        W44970   9.777  26.190   2.263  0.1902 -0.3293 -0.0062
    1W        W44971   3.748  20.383   7.337 -0.2350 -0.3348 -0.0049
    1W        W44972  21.121   5.847   2.646  0.2548  0.1840  0.1430
    1W        W44973  17.199   3.810   1.329 -0.1049  0.0165  0.3054
    1W        W44974  17.760  13.058   0.978 -0.0641 -0.1936  0.1153
    1W        W44975  11.691   1.845   1.251 -0.2490 -0.0120  0.1625
    1W        W44976  17.817   3.266   1.670  0.0072  0.0202  0.1328
    1W        W44977  29.064  19.884   7.588 -0.2745 -0.1823  0.1759
    1W        W44978  24.415  24.967   1.151  0.0635  0.1876 -0.3659
    1W        W44979  19.934  13.913   2.606 -0.1740 -0.1206 -0.0382
    1W        W44980  12.726   6.261   7.891 -0.1476 -0.1107 -0.0779
    1W        W44981  23.477   9.490   1.675 -0.0397  0.1355 -0.3396
    1W        W44982  14.753   1.583   7.776 -0.0898  0.2361 -0.1773
    1W        W44983  25.950   8.303   7.923  0.1072 -0.0760  0.2272
    1W        W44984  20.131  23.471   3.295 -0.1288  0.1467 -0.2403
    1W        W44985  17.469   3.728   0.543  0.1933 -0.0524 -0.1443
    1W        W44986  18.964   6.419   9.151  0.4772 -0.0810 -0.3409
    1W        W44987  10.430  25.532   1.476 -0.1050 -0.0788  0.2578
    1W        W44988  24.078  19.755   0.798 -0.1068 -0.0104  0.0261
    1W        W44989   3.253  22.194   9.225  0.0262 -0.4169 -0.1820
    1W        W44990   0.730  10.870   9.455 -0.0379 -0.3382  0.0241
    1W        W44991   7.620  23.056   9.241  0.0113  0.1072 -0.1373
    1W        W44992   8.648  14.136   1.384 -0.1949 -0.0620  0.2117
    1W        W44993  24.848  24.365   9.424  0.0199 -0.1375  0.1977
    1W        W44994   2.987  15.291   6.262  0.1576  0.2303  0.0990
    1W        W44995  27.654  24.237   2.117  0.1620  0.4682  0.1593
    1W        W44996  17.080   9.581   2.472 -0.2005  0.1844  0.2400
    1W        W44997  19.040  28.297   1.401  0.0211 -0.1698  0.1267
    1W        W44998  17.581  21.360   0.376 -0.1723 -0.3093  0.2127
    1W        W44999  27.119  15.615   7.604 -0.0045  0.0652  0.0925
    1W        W45000   2.147  16.871   8.734  0.0707  0.0453  0.0396
    1W        W45001  20.498   5.785   0.858 -0.1343  0.1112 -0.2760
    1W        W45002   8.255   8.734   7.111 -0.1061  0.2225  0.0384
    1W        W45003   0.524  24.036   0.577 -0.2080  0.3892 -0.0578
    1W        W45004  16.749  10.138   9.030  0.2687 -0.2031  0.0767
    1W        W45005  23.867  10.959   2.224 -0.1687 -0.2456 -0.2570
    1W        W45006  16.539  10.399   1.906  0.0027  0.0399 -0.0589
    1W        W45007  25.488  18.416   2.088  0.1667  0.1671  0.0968
    1W        W45008   5.998  20.939   2.400  0.2534 -0.0708  0.2145
    1W        W45009  19.457   6.553   0.285 -0.0287 -0.1469 -0.0245
    1W        W45010  23.384  15.932   0.564 -0.1500  0.0134  0.3806
    1W        W45011   7.681  19.685   1.956 -0.2190  0.3774 -0.0609
    1W        W45012   9.654  19.149   2.259 -0.2322 -0.1023 -0.0493
    1W        W45013   9.656   3.386   6.659  0.2037  0.0451  0.0108
    1W        W45014  28.973   0.781   1.114  0.2398 -0.0035 -0.2118
    1W        W45015  23.990  15.227   8.192 -0.2491 -0.1863  0.0851
    1W        W45016  16.730   2.602   1.054 -0.1781  0.1687  0.0085
    1W        W45017  16.281  11.572   7.307 -0.3587 -0.1720  0.3048
    1W        W45018  10.926   1.301   1.576  0.1858  0.1409  0.1365
    1W        W45019  23.689   6.751   8.844  0.0507 -0.5291  0.0637
    1W        W45020   5.094  18.447   8.400  0.0800  0.3132  0.3466
    1W        W45021  20.624  18.695   9.290  0.2237 -0.1910 -0.0093
    1W        W45022  28.021  22.291   7.277  0.3887 -0.3002  0.0447
    1W        W45023  19.638   4.842   1.319  0.3281 -0.2425  0.1129
    1W        W45024  18.623   7.435   0.953  0.2332  0.0532 -0.1008
    1W        W45025  11.509  24.280   9.093  0.1611 -0.0656  0.3004
    1W        W45026  26.414   3.230   7.057 -0.2256 -0.0192  0.3258
    1W        W45027  20.024  26.958   3.259 -0.0366  0.0903  0.3719
    1W        W45028   7.866  19.919   0.256 -0.0921 -0.0856  0.0699
    1W        W45029   9.193  23.356   6.070 -0.0149 -0.0644  0.1008
    1W        W45030  12.269  12.597   8.343 -0.2187 -0.1481 -0.1186
    1W        W45031  14.810  17.513   6.756  0.2122  0.0285 -0.1950
    1W        W45032  14.851  18.725   2.492 -0.1226 -0.0784 -0.3030
    1W        W45033  25.541   2.365   0.265 -0.1581 -0.1079  0.1761
    1W        W45034   3.012  20.716   7.572  0.0356  0.0337 -0.3984
    1W        W45035  13.213  25.033   6.732 -0.1426  0.0435 -0.3227
    1W        W45036  27.304  22.705   9.089 -0.1340  0.1276 -0.0859
    1W        W45037  25.549  18.455   8.790 -0.1615  0.1345 -0.5261
    1W        W45038  10.945  13.794   2.801  0.0491  0.0873 -0.1513
    1W        W45039  20.527   1.201   2.078  0.0025 -0.3371  0.1988
    1W        W45040   0.495  25.181   2.783 -0.2967  0.0916  0.1092
    1W        W45041   9.067   4.765   6.437 -0.0904 -0.2026 -0.0238
    1W        W45042  15.437   5.219   1.501 -0.2512 -0.1612  0.3748
    1W        W45043   2.534  27.899   7.392  0.1415 -0.0038 -0.0643
    1W        W45044   1.352  12.304   7.985 -0.2877 -0.0221 -0.0423
    1W        W45045   6.788  18.079   9.608 -0.1376 -0.3795 -0.0629
    1W        W45046   0.005  22.222   9.166  0.2722 -0.2056  0.1363
    1W        W45047  22.016  11.788   0.775  0.1537 -0.1495 -0.0742
    1W        W45048   0.287  25.281   3.352 -0.1683 -0.0024  0.1795
    1W        W45049  28.015  27.752   9.161 -0.0664  0.0314  0.0423
    1W        W45050   2.231  21.872   1.448 -0.0314 -0.1753  0.1678
    1W        W45051  23.439  15.225   3.041  0.1065  0.0374  0.2622
    1W        W45052  20.953   6.877   9.099  0.0421 -0.3404  0.0892
    1W        W45053  13.265   2.384   2.708 -0.3105 -0.0352  0.1262
    1W        W45054  25.423  12.951   7.318 -0.4062  0.1749 -0.1014
    1W        W45055  11.659   7.755   8.753  0.3692  0.0034  0.3572
    1W        W45056   2.525   8.601   0.029 -0.1657 -0.1390  0.0680
    1W        W45057   8.683   9.020   2.006  0.0429  0.2623  0.0752
    1W        W45058  15.142  11.315   2.302  0.0469 -0.1851 -0.0877
    1W        W45059  11.089  26.938   6.196 -0.1950  0.1294  0.2332
    1W        W45060  22.418   2.509   2.924  0.2027  0.1244  0.2000
    1W        W45061  26.081  28.231   9.425 -0.0507  0.1058 -0.0960
    1W        W45062  20.194   1.502   6.690 -0.1492  0.0710  0.1533
    1W        W45063  27.375   8.903   0.030  0.1879  0.2851 -0.1194
    1W        W45064   6.477  24.501   0.118 -0.2606 -0.1906  0.1500
    1W        W45065  17.814  19.924   7.252  0.0520 -0.0678 -0.3670
    1W        W45066  24.224   8.961   1.776 -0.1509 -0.1523 -0.1553
    1W        W45067   2.369  25.684   8.011 -0.2674  0.2747 -0.0685
    1W        W45068  24.256   5.592   8.512  0.0403 -0.1390 -0.3066
    1W        W45069  23.652  12.227   2.518  0.1787 -0.1981 -0.1066
    1W        W45070   7.597  14.408   7.763 -0.4189  0.1146 -0.0363
    1W        W45071  23.793  18.723   6.440  0.1172  0.1828  0.0348
    1W        W45072  13.579  17.390   0.236 -0.1119 -0.3226  0.1952
    1W        W45073  25.867  18.781   9.016 -0.1137 -0.2704 -0.0696
    1W        W45074   3.579   9.231   0.615  0.0508 -0.2690  0.1661
    1W        W45075  23.175  25.318   2.229  0.2137 -0.0664  0.2377
    1W        W45076   1.641   1.864   6.385  0.1403  0.1193  0.2911
    1W        W45077   2.158   6.694   6.995 -0.0878 -0.2398  0.0145
    1W        W45078  25.923   5.410   7.583 -0.2349  0.1028 -0.2415
    1W        W45079  22.433  23.274   2.328 -0.1002 -0.3852  0.2253
    1W        W45080  29.337  16.958   7.116  0.1200  0.3119 -0.0329
    1W        W45081   4.645   0.977   1.422  0.1230 -0.0903  0.0700
    1W        W45082   7.245  23.769   1.500  0.0337  0.0665  0.0337
    1W        W45083   0.895  15.119   1.136 -0.2008 -0.1638 -0.0638
    1W        W45084  27.224  26.675   0.723  0.1057  0.0889  0.2180
    1W        W45085  12.768  22.350   7.643 -0.0396  0.1817 -0.3033
    1W        W45086   7.850  19.052   9.435 -0.0139 -0.0184 -0.2930
    1W        W45087   7.941   6.265   6.785  0.1917 -0.1970 -0.0412
    1W        W45088  23.806  18.499   1.458 -0.2768 -0.0203 -0.2243
    1W        W45089  29.263   6.493   8.398 -0.0945  0.0393  0.1019
    1W        W45090  27.152   5.182   9.075  0.3954  0.1855  0.0322
    1W        W45091  27.800   0.003   1.080 -0.3772  0.2670 -0.0909
    1W        W45092  16.000  24.503   2.877 -0.1164  0.0846  0.1372
    1W        W45093  16.625  21.247   8.033  0.0388 -0.1928 -0.2050
    1W        W45094  14.512   9.068   8.885 -0.2137  0.0034 -0.0701
    1W        W45095  18.328   8.616   1.114  0.3964 -0.0457  0.2373
    1W        W45096  11.626  27.215   6.698 -0.1163 -0.4306 -0.2025
    1W        W45097  11.645   1.018   9.083 -0.1704 -0.3207  0.1731
    1W        W45098  21.767  29.063   2.944 -0.0934 -0.3351 -0.0995
    1W        W45099   2.018  19.842   0.613 -0.0198 -0.2696  0.1605
    1W        W45100   3.363   1.031   0.808 -0.2286  0.1987 -0.2306
    1W        W45101  13.164  14.186   1.611  0.2906  0.2607 -0.2105
    1W        W45102  15.752  24.070   2.625 -0.2524  0.0980  0.3128
    1W        W45103   8.853   8.010   0.924  0.0354 -0.3323 -0.5115
    1W        W45104   4.653  19.501   7.474 -0.0670 -0.0683  0.3966
    1W        W45105  15.417   3.597   6.725  0.2618 -0.0099 -0.0283
    1W        W45106   0.300   7.884   7.148  0.1145 -0.2524  0.0774
    1W        W45107  17.906  25.226   3.023 -0.2343  0.0270  0.0113
    1W        W45108  12.896   3.237   7.117 -0.4489  0.0304 -0.1195
    1W        W45109   0.403   5.918   0.529  0.1242 -0.2424  0.1028
    1W        W45110  13.271  12.021   9.617 -0.4531 -0.1224  0.1302
    1W        W45111  10.962  13.385   8.011 -0.2922 -0.1693 -0.0036
    1W        W45112   7.976  25.754   1.744  0.0852 -0.1619  0.1922
    1W        W45113   6.213  11.157   7.033  0.3146 -0.2255  0.0210
    1W        W45114   6.195  28.924   2.648 -0.0583  0.1563 -0.2087
    1W        W45115  28.162   7.786   6.566 -0.0069  0.1741  0.0824
    1W        W45116   3.214  20.195   0.093  0.0315  0.0505  0.0729
    1W        W45117  23.061   1.357   1.035  0.0708  0.2110 -0.2370
    1W        W45118   9.838   1.409   0.760  0.1007 -0.2242  0.0068
    1W        W45119  10.906  11.870   9.559  0.1685  0.3344 -0.1176
    1W        W45120   5.325  29.508   8.271  0.3575 -0.1786  0.3558
    1W        W45121   0.770  16.329   0.205  0.0912 -0.1912 -0.2774
    1W        W45122  24.674  28.427   3.928 -0.0146  0.2862 -0.0151
    1W        W45123  12.807  15.435   1.887  0.0160 -0.1302  0.0553
    1W        W45124  26.334   6.177   7.278  0.1149 -0.0262  0.2996
    1W        W45125  14.938  21.726   8.780  0.2149  0.1104 -0.1060
    1W        W45126  12.767  28.810   5.630  0.0304 -0.0429 -0.0316
    1W        W45127  21.316  12.972   9.538  0.2097  0.2226 -0.0546
    1W        W45128  23.976   7.538   7.251 -0.2026 -0.0024  0.1988
    1W        W45129  12.856  11.826   1.314  0.0261 -0.2349 -0.0217
    1W        W45130  10.851  24.146   7.547  0.0559  0.0773  0.1603
    1W        W45131  26.226  20.607   1.195  0.0487  0.1845  0.0640
    1W        W45132  27.655   6.487   7.382  0.0054 -0.2293  0.0709
    1W        W45133  22.641  14.518   1.269 -0.3389 -0.1192  0.0825
    1W        W45134  18.903  21.647   8.417 -0.1983  0.1083 -0.1555
    1W        W45135  20.363   9.340   8.501 -0.1546 -0.0184  0.0232
    1W        W45136  13.606  15.250   0.777 -0.0162  0.0692 -0.2752
    1W        W45137  11.422  19.831   8.047  0.2291 -0.1340  0.2310
    1W        W45138  14.637   7.080   8.125 -0.0557  0.0636  0.0885
    1W        W45139   8.873   5.283   7.590 -0.5021  0.1700  0.0538
    1W        W45140  21.674  22.434   7.079  0.0424  0.4769  0.2338
    1W        W45141   6.135   6.923   2.159  0.1440 -0.2299  0.1007
    1W        W45142   7.168  28.030   0.101 -0.0065  0.0154 -0.0505
    1W        W45143  29.371  21.995   3.667  0.5250 -0.0826  0.1174
    1W        W45144  11.968   4.469   7.412 -0.0173  0.0266  0.1670
    1W        W45145  18.080  13.962   9.466  0.2648 -0.0337  0.0074
    1W        W45146  29.607  18.014   8.096  0.1032  0.2801 -0.2063
    1W        W45147   1.127  11.459   8.841 -0.0809  0.0506  0.2227
    1W        W45148  24.354  19.000   9.481 -0.1759  0.1495  0.3105
    1W        W45149   3.287  15.202   2.319  0.0829 -0.1171 -0.2482
    1W        W45150   8.438  15.427   7.211 -0.0215 -0.1066 -0.1397
    1W        W45151   6.776  19.059   2.657 -0.4485  0.0583  0.2432
    1W        W45152  18.332   4.148   7.242  0.1000  0.1551 -0.0692
    1W        W45153  14.106   7.415   1.866 -0.1547 -0.4066 -0.3255
    1W        W45154   1.507   1.097   6.597  0.0710 -0.3436 -0.0665
    1W        W45155   7.652  16.622   2.093 -0.1119 -0.0985 -0.0147
    1W        W45156  25.960   8.772   1.030 -0.0602 -0.0171 -0.0708
    1W        W45157  15.566  12.429   9.312 -0.2559 -0.1057  0.0456
    1W        W45158   0.468   7.791   1.298  0.0745  0.3593 -0.1583
    1W        W45159  22.760  20.445   2.088  0.3520  0.1784 -0.1499
    1W        W45160   1.243  13.558   1.980  0.1119  0.1576 -0.1419
    1W        W45161   7.009   9.454   1.020 -0.2267  0.0510 -0.0194
    1W        W45162  25.064  22.084   7.556  0.0044  0.0531 -0.0056
    1W        W45163   8.459  24.685   0.755 -0.2349 -0.0214  0.1464
    1W        W45164   8.868  11.108   7.760 -0.3006  0.0717  0.0119
    1W        W45165   5.073  26.237   2.668  0.0082  0.3239 -0.0312
    1W        W45166  18.435  24.340   1.116  0.0085 -0.1287 -0.0191
    1W        W45167  17.379  12.630   8.725  0.0704  0.0951 -0.0310
    1W        W45168  20.864  25.381   3.414 -0.2795  0.0367  0.0112
    1W        W45169  12.956   9.057   2.903  0.2540  0.0480  0.3598
    1W        W45170  24.255  11.152   2.494 -0.0970 -0.2052 -0.1064
    1W        W45171  18.270  25.920   2.816 -0.0019 -0.0844  0.0801
    1W        W45172   4.886   2.200   7.778  0.3963  0.1041  0.1321
    1W        W45173  23.050   1.866   7.143 -0.0268  0.0818 -0.2425
    1W        W45174  23.887   0.121   0.038  0.2464  0.1542 -0.1197
    1W        W45175   3.305   3.876   1.272 -0.0537 -0.3709 -0.0590
    1W        W45176  25.332   0.219   3.098  0.2152  0.0008 -0.2051
    1W        W45177  12.032   6.547   9.589  0.3824 -0.1084 -0.1435
    1W        W45178   7.842   1.121   0.859 -0.2547  0.1589 -0.0442
    1W        W45179   7.794  14.749   0.377 -0.1654 -0.0819  0.0158
    1W        W45180  24.430  26.978   3.075 -0.4534  0.2661  0.0117
    1W        W45181   5.325   5.919   7.473  0.0062 -0.0413 -0.0672
    1W        W45182  20.783  21.271   9.520  0.0745 -0.1324 -0.1016
    1W        W45183  10.464  19.640   7.565 -0.1513 -0.3079  0.1090
    1W        W45184  15.038   3.825   7.041 -0.3725  0.1998 -0.0838
    1W        W45185   3.453  26.417   6.648  0.2790 -0.0468  0.0380
    1W        W45186   2.546   6.056   9.510 -0.0790  0.1753  0.0558
    1W        W45187  17.506  28.832   0.284  0.2097  0.0241  0.2186
    1W        W45188   5.379  15.641   7.610  0.2737 -0.1273 -0.1791
    1W        W45189  28.531  25.766   7.535 -0.1574  0.1062  0.0581
    1W        W45190  26.779  27.206   1.380 -0.0236  0.0904  0.2033
    1W        W45191   2.686  19.615   2.261 -0.1747  0.0261  0.1083
    1W        W45192   7.057   9.331   6.400 -0.0182 -0.0103  0.1621
    1W        W45193   9.031   3.532   7.445 -0.0232 -0.3044  0.1196
    1W        W45194  10.312   1.481   0.664 -0.2311 -0.1346 -0.0396
    1W        W45195  11.207  28.883   2.013 -0.1139 -0.2900 -0.0396
    1W        W45196   6.554  10.252   0.395  0.1908  0.0333 -0.1228
    1W        W45197   3.887  17.717   8.632 -0.1283  0.0392  0.0211
    1W        W45198  28.421  28.663   1.107  0.3938 -0.0316 -0.2743
    1W        W45199   9.693  25.902   6.346  0.0951  0.3318  0.1141
    1W        W45200  12.176  11.405   0.079  0.0230 -0.1138  0.0605
    1W        W45201  19.475   1.259   8.953  0.1007  0.1273 -0.0842
    1W        W45202   3.906  20.838   1.640  0.0606 -0.2722  0.1347
    1W        W45203   1.925  27.930   1.969 -0.0096 -0.1163  0.2892
    1W        W45204   4.945  25.101   1.233  0.0391 -0.2250 -0.0297
    1W        W45205   4.790  24.979   8.774 -0.2242 -0.0359 -0.0551
    1W        W45206  20.094  10.636   8.136  0.0314 -0.2527 -0.0083
    1W        W45207   2.014   5.693   6.222 -0.0218  0.2684 -0.0483
    1W        W45208   7.431  16.339   7.298 -0.2393  0.0775  0.1257
    1W        W45209  21.473  20.331   9.522  0.0376  0.0155 -0.2291
    1W        W45210   9.956  14.484   0.103  0.0185 -0.0912  0.1919
    1W        W45211   3.031  19.518   9.055  0.0091 -0.1309  0.1856
    1W        W45212  19.927  24.248   0.585  0.3458  0.1266  0.1325
    1W        W45213   6.609   1.705   9.281 -0.0801  0.1296 -0.1542
    1W        W45214  13.233   3.573   6.870 -0.2722 -0.2316 -0.1595
    1W        W45215   5.570   8.224   5.384 -0.0738 -0.3014  0.1219
    1W        W45216  14.022   0.309   0.003  0.3357 -0.2205  0.0967
    1W        W45217  10.911   8.704   0.701 -0.1122 -0.0137  0.1311
    1W        W45218   7.973  12.008   8.416  0.1489  0.1059  0.1174
    1W        W45219   3.291  21.946   2.918  0.1471  0.3801  0.3377
    1W        W45220  12.109  25.777   8.751  0.4636 -0.0357 -0.2425
    1W        W45221   4.183   2.634   7.130  0.0502  0.1956  0.1848
    1W        W45222  11.356  26.642   2.222  0.0282 -0.0271  0.5342
    1W        W45223   4.059  20.611   8.765  0.2403  0.3366 -0.0603
    1W        W45224  17.337  23.246   7.212  0.1178 -0.1009  0.1419
    1W        W45225  15.523   6.959   7.629 -0.0326 -0.0737  0.2128
    1W        W45226   9.196  11.559   6.404  0.0902  0.0061 -0.0603
    1W        W45227  23.245  13.009   9.452 -0.0357 -0.0652 -0.0973
    1W        W45228  14.098  17.988   6.890  0.1282 -0.0087 -0.0144
    1W        W45229   5.624   1.480   7.510  0.0636  0.2367  0.0302
    1W        W45230  13.186  10.552   0.051 -0.0434  0.0813  0.0579
    1W        W45231  16.890   9.626   7.303  0.0024 -0.0940  0.3158
    1W        W45232  22.942  12.681   9.190  0.0513 -0.3639 -0.0765
    1W        W45233   4.335  26.858   7.983  0.1967 -0.0788  0.0337
    1W        W45234   5.775   0.939   7.966 -0.2220 -0.3171  0.0696
    1W        W45235  24.563  16.138   1.683  0.0224 -0.0650 -0.1385
    1W        W45236  23.117   2.013   8.255  0.0597 -0.4006  0.0221
    1W        W45237  13.629   7.357   9.568 -0.2321  0.0104  0.0115
    1W        W45238  16.072  22.091   2.539  0.0221  0.0046  0.1390
    1W        W45239   2.855   9.936   8.860 -0.5873 -0.0931 -0.1782
    1W        W45240  29.071  10.336   7.257  0.5828  0.3088 -0.1661
    1W        W45241  27.216  26.851   8.625  0.2283 -0.1022 -0.0431
    1W        W45242   9.395  12.919   6.650 -0.0059 -0.0678 -0.0767
    1W        W45243  27.115   1.653   2.278  0.1369  0.1855 -0.0433
    1W        W45244  22.801   8.144   0.584 -0.0037 -0.1037 -0.1818
    1W        W45245  20.085  22.562   0.684  0.1139  0.0989 -0.0083
    1W        W45246  21.958   0.727   0.453 -0.1793 -0.2670 -0.0603
    1W        W45247  22.876  20.203   2.747  0.1192  0.0092 -0.1648
    1W        W45248   7.677   0.429   7.760  0.0941 -0.2907 -0.1596
    1W        W45249   8.965  17.129   0.536  0.1809 -0.0177  0.1673
    1W        W45250  19.351  21.979   2.415  0.5426 -0.1671  0.2249
    1W        W45251  21.129  20.073   6.929  0.1828  0.1009  0.1005
    1W        W45252  16.486  13.430   1.801 -0.1867 -0.0602 -0.2677
    1W        W45253  14.048  29.335   8.937  0.3961  0.0979  0.3152
    1W        W45254   7.849  17.936   9.384 -0.0717  0.2230  0.1208
    1W        W45255   7.503   5.906   6.738  0.0709  0.0369 -0.0810
    1W        W45256  15.527  17.880   0.699 -0.0129 -0.2259 -0.1540
    1W        W45257   2.045  15.160   1.169  0.1041 -0.2270  0.4459
    1W        W45258  18.117   3.998   1.266 -0.2311 -0.0919 -0.0765
    1W        W45259  16.589  12.624   1.099 -0.0385 -0.2409  0.3681
    1W        W45260  17.218   9.093   2.262  0.1127  0.4078  0.1987
    1W        W45261  26.702   0.534   2.808 -0.0903 -0.0283  0.4440
    1W        W45262   1.470  17.679   1.280  0.0062 -0.1919 -0.0705
    1W        W45263  11.532  22.771   1.600 -0.1009 -0.2357 -0.0337
    1W        W45264   8.478   5.174   1.367 -0.1914 -0.0175  0.0468
    1W        W45265   2.514   2.461   8.404  0.1284 -0.0301 -0.2990
    1W        W45266  28.644   8.681   1.598 -0.2458 -0.1433  0.2398
    1W        W45267  10.859  15.715   6.675  0.0540 -0.2420 -0.2634
    1W        W45268   0.789  17.406   2.507  0.2331 -0.0936 -0.1435
    1W        W45269  17.416  10.199   1.514  0.0833  0.2597 -0.0706
    1W        W45270   7.307   3.228   5.998 -0.0464 -0.0090  0.2624
    1W        W45271  14.780  21.170   7.301  0.2606  0.0568 -0.1377
    1W        W45272   1.306  17.578   0.657 -0.0172  0.0290  0.0304
    1W        W45273  28.081  11.718   1.986  0.2488  0.0866  0.0087
    1W        W45274   4.971  13.964   9.197 -0.2569  0.1222  0.3629
    1W        W45275   8.322   5.241   8.658 -0.0218  0.2677  0.0807
    1W        W45276   5.532  28.761   1.435  0.3718  0.1773  0.0341
    1W        W45277  25.500   3.925   8.035 -0.0233 -0.2063  0.2591
    1W        W45278  28.520   0.460   6.683 -0.1917 -0.2857 -0.0378
    1W        W45279  22.045  17.272   1.828 -0.0985  0.0817  0.1542
    1W        W45280  20.772  19.554   2.724 -0.3227  0.0585  0.1076
    1W        W45281  20.560  21.533   1.889 -0.0461 -0.2488  0.0039
    1W        W45282   5.392  21.328   0.237 -0.0058 -0.0400  0.1542
    1W        W45283   2.358   2.319   6.722 -0.0264  0.3579  0.0231
    1W        W45284   5.629   1.719   7.926  0.0306 -0.1708  0.0355
    1W        W45285  21.798  28.147   3.106 -0.2989  0.0998 -0.0526
    1W        W45286  25.636   9.537   7.500 -0.0565  0.1445 -0.2399
    1W        W45287   4.199  26.388   8.728 -0.1693  0.0739 -0.1806
    1W        W45288  29.576  24.175   9.274 -0.0290 -0.0559 -0.1784
    1W        W45289  24.581  28.720   0.604 -0.1135 -0.0145 -0.2527
    1W        W45290  14.442  11.662   0.760 -0.0570 -0.0112  0.1354
    1W        W45291  13.329  20.462   9.319  0.1081 -0.0136  0.1361
    1W        W45292   1.821  23.083   8.655 -0.3114  0.1652 -0.0680
    1W        W45293   7.379  18.005   1.913 -0.0234  0.2373 -0.0488
    1W        W45294   3.854  15.442   6.353  0.0382  0.0381 -0.1607
    1W        W45295  20.552  18.688   8.030 -0.2110 -0.3808 -0.1479
    1W        W45296  13.943  15.217   1.159 -0.1896  0.1077  0.1959
    1W        W45297  11.368  18.730   7.995  0.5162 -0.1888 -0.1516
    1W        W45298  12.673   0.430   1.751  0.0068 -0.1757  0.2436
    1W        W45299   9.716  29.124   9.426  0.0150 -0.0287 -0.1289
    1W        W45300  12.493   0.628   0.821 -0.3781  0.1260  0.1964
    1W        W45301   4.407  11.351   0.540 -0.0409  0.2491  0.2440
    1W        W45302   0.546  19.391   0.794  0.1948 -0.2013  0.2132
    1W        W45303   7.973   2.816   0.742  0.0191 -0.1558 -0.0590
    1W        W45304   0.543   1.872   8.004 -0.2023  0.2239 -0.1645
    1W        W45305  12.447   7.807   9.435 -0.0130 -0.5596  0.0139
    1W        W45306  22.110  19.232   1.119 -0.1897 -0.0048  0.0469
    1W        W45307   3.549   7.846   0.629  0.0354 -0.0152  0.3245
    1W        W45308  13.780  22.311   2.497  0.1604  0.1242 -0.1267
    1W        W45309  28.766  19.359   8.832 -0.0432 -0.3434  0.3022
    1W        W45310  13.069  25.809   7.125  0.3071  0.0288  0.1616
    1W        W45311  11.093   9.848   7.159 -0.0070  0.0540  0.0832
    1W        W45312  22.288  12.514   6.783 -0.0929  0.1013  0.2590
    1W        W45313  17.736   0.943   0.598  0.0648  0.2975 -0.0980
    1W        W45314  16.590   1.583   1.131 -0.1231  0.0415 -0.2354
    1W        W45315   1.340   4.485   9.424  0.2938 -0.0685  0.0712
    1W        W45316  12.573  12.035   0.870  0.1521  0.3212 -0.1266
    1W        W45317  16.848   4.474   2.245 -0.0218 -0.3755 -0.2310
    1W        W45318  20.013  24.468   0.044  0.2202  0.1404 -0.2786
    1W        W45319  13.522   1.391   9.603  0.1082  0.0588 -0.3375
    1W        W45320   9.932  20.010   8.636  0.0360 -0.0547 -0.0959
    1W        W45321  19.611  17.011   2.474  0.0442  0.2369 -0.0616
    1W        W45322  27.188  17.764   7.939  0.0864  0.0974  0.0592
    1W        W45323   7.929  24.864   0.729 -0.2339 -0.1310 -0.1700
    1W        W45324  18.134   4.158   1.761 -0.2336 -0.1627 -0.2125
    1W        W45325   5.627  22.898   0.292 -0.1941 -0.1185 -0.2040
    1W        W45326   6.050  27.077   8.447 -0.2051 -0.1644 -0.0345
    1W        W45327  18.383   6.483   7.718 -0.4225  0.1496 -0.1418
    1W        W45328   8.494   2.378   7.156 -0.1689 -0.0622 -0.0133
    1W        W45329   1.545  11.207   0.473 -0.1024 -0.3804 -0.0903
    1W        W45330  22.412   3.654   1.876  0.3608  0.2524 -0.1390
    1W        W45331  19.492   4.654   0.276 -0.1195  0.0371 -0.2371
    1W        W45332   4.818  13.406   1.538  0.1825 -0.0382 -0.0862
    1W        W45333   9.666   2.015   6.319 -0.2096  0.0517 -0.0509
    1W        W45334  21.924  19.825   0.286  0.0546 -0.1042 -0.0691
    1W        W45335  26.029   7.043   0.065 -0.3592  0.0646 -0.1006
    1W        W45336  10.822  13.866   8.118  0.0125  0.0819  0.1673
    1W        W45337  14.494   7.547   1.562  0.1258  0.0167 -0.3513
    1W        W45338  16.558  12.154   2.070  0.2371  0.1827  0.1892
    1W        W45339  20.436   1.337   3.020 -0.0081 -0.0630 -0.1063
    1W        W45340   4.572   9.973   7.109  0.0154 -0.0237 -0.0391
    1W        W45341   4.825  13.278   8.319 -0.0016 -0.1276  0.3507
    1W        W45342   7.183   0.870   8.779 -0.0316 -0.1060  0.0453
    1W        W45343  21.272  13.820   0.000  0.3724  0.1036  0.0152
    1W        W45344  16.764  14.308   0.091  0.0222 -0.2935  0.0066
    1W        W45345  21.717  13.557   0.985 -0.0054 -0.0993 -0.2909
    1W        W45346  22.959  19.182   7.324 -0.2731 -0.0972  0.4844
    1W        W45347  14.386  27.523   8.663 -0.2909 -0.2020  0.0807
    1W        W45348   7.730  11.064   1.803  0.0796  0.0782  0.1537
    1W        W45349  14.056  17.546   1.958  0.2878 -0.1509  0.1234
    1W        W45350   2.486   2.338   2.402 -0.0019 -0.1840  0.1119
    1W        W45351  15.895   7.217   0.856  0.2842  0.1543 -0.1639
    1W        W45352  15.907  23.621   7.157 -0.1570  0.2169  0.0445
    1W        W45353  24.002  25.758   0.958 -0.1275 -0.0605 -0.1007
    1W        W45354   7.702  13.213   0.638  0.1750 -0.2907 -0.0176
    1W        W45355   5.791   4.199   8.335 -0.0921  0.2154  0.0334
    1W        W45356  20.785  15.127   8.979  0.2721  0.1093 -0.1280
    1W        W45357   4.173  14.288   8.778 -0.0391 -0.1425  0.1102
    1W        W45358  26.507   0.273   3.646 -0.1806 -0.0591 -0.0659
    1W        W45359  24.540  12.908   0.477 -0.0420 -0.3077  0.1831
    1W        W45360  25.296  28.280   1.841  0.1536  0.1556 -0.2187
    1W        W45361  15.094   0.561   9.275 -0.0248  0.1650  0.0062
    1W        W45362  25.745   4.686   7.281  0.1198 -0.0623 -0.3868
    1W        W45363   4.991   3.637   0.163  0.3969  0.1022 -0.0537
    1W        W45364  28.638   3.193   0.512 -0.4218  0.1298  0.0213
    1W        W45365  20.892  27.026   2.681 -0.1370 -0.0042 -0.1301
    1W        W45366   9.495   0.192   8.762  0.0388 -0.1176  0.3030
    1W        W45367   1.690   3.845   0.833 -0.2383 -0.1043 -0.1434
    1W        W45368  24.170   4.311   0.435  0.3201 -0.0512  0.0232
    1W        W45369  20.507  16.552   8.520  0.2326  0.0501 -0.0374
    1W        W45370   5.738  25.149   7.378 -0.5433  0.1443  0.2772
    1W        W45371  23.714  21.141   6.876 -0.0096  0.1066  0.0329
    1W        W45372  27.241  13.923   7.757 -0.0379  0.0389  0.1862
    1W        W45373   8.333  22.244   9.395 -0.1332  0.1341  0.0618
    1W        W45374  23.295  28.438   7.760  0.2773  0.0395  0.1539
    1W        W45375  28.131   9.978   1.719 -0.2147  0.0397 -0.1209
    1W        W45376  16.614  25.537   8.007 -0.0152 -0.0555  0.0488
    1W        W45377   9.197   5.561   0.549  0.1455 -0.0547  0.0036
    1W        W45378   2.957  16.204   8.649 -0.1013 -0.0214  0.0442
    1W        W45379   3.309  27.852   0.421 -0.3829  0.1463 -0.0263
    1W        W45380   4.790  14.101   8.687 -0.4196 -0.0819  0.2966
    1W        W45381   0.972   9.558   7.827 -0.0898  0.0593  0.0857
    1W        W45382  26.093  25.703   3.236 -0.1932 -0.2113 -0.0133
    1W        W45383  11.387  11.238   7.642  0.1092  0.0399 -0.0486
    1W        W45384  20.997  29.098   8.773  0.0620  0.0572  0.1370
    1W        W45385  26.013  29.395   3.012 -0.0947  0.2088 -0.0144
    1W        W45386  16.558  24.931   1.341  0.0145  0.0281 -0.3177
    1W        W45387  15.998   5.331   0.311  0.0989  0.5275  0.1629
    1W        W45388   1.775  14.227   0.793  0.2662  0.2698  0.1454
    1W        W45389  11.243  19.564   6.993  0.1654  0.2128 -0.1359
    1W        W45390  24.972  21.391   0.460  0.2527  0.0830 -0.1912
    1W        W45391  27.725  19.409   6.948 -0.0474 -0.0226  0.1121
    1W        W45392  28.689   1.092   0.814 -0.2322  0.0676  0.0706
    1W        W45393   0.181  20.110   0.832  0.0827  0.1205  0.0275
    1W        W45394  22.205  26.683   0.024  0.1121  0.1515 -0.0748
    1W        W45395  29.493  27.282   2.386 -0.2590  0.1127  0.0711
    1W        W45396  16.828  23.057   7.255  0.2392  0.0209 -0.1650
    1W        W45397  13.619   7.240   5.904 -0.0081  0.0175  0.5169
    1W        W45398  12.093   2.066   9.126  0.1047 -0.0280 -0.0435
    1W        W45399  14.569  16.590   8.888 -0.1709 -0.0547  0.0688
    1W        W45400   4.565   5.630   9.530  0.0108 -0.0136 -0.1009
    1W        W45401  29.233  14.228   7.825  0.1893 -0.0934 -0.1122
    1W        W45402   1.244   3.242   1.893 -0.1785  0.0851 -0.1772
    1W        W45403   6.061   4.883   8.015 -0.0321  0.1122 -0.2514
    1W        W45404   8.502  10.070   0.182 -0.3697  0.4238  0.0768
    1W        W45405  16.714  14.813   9.348 -0.1774 -0.1128 -0.0928
    1W        W45406  15.892  14.289   9.176  0.2883  0.2807 -0.0665
    1W        W45407  15.804   2.931   1.570  0.1099  0.2209 -0.1393
    1W        W45408   8.413  29.234   7.068 -0.0223  0.0504 -0.0343
    1W        W45409  20.862  27.930   0.559  0.0722 -0.0547 -0.1918
    1W        W45410   2.525  15.457   3.035 -0.0185  0.2173 -0.3529
    1W        W45411  28.281  17.736   1.375 -0.0154 -0.2773 -0.0619
    1W        W45412  11.698  26.504   7.801 -0.0362 -0.0078 -0.0185
    1W        W45413  25.092  12.797   0.539  0.0329 -0.1393  0.1671
    1W        W45414  17.194  13.467   7.356 -0.1198 -0.1861 -0.2461
    1W        W45415  20.274  27.634   8.195 -0.2434 -0.0567  0.0083
    1W        W45416  13.669  20.037   8.359  0.3361 -0.1071  0.2487
    1W        W45417  26.630  28.797   3.903  0.1657 -0.2172  0.0642
    1W        W45418  16.188  20.586   6.909  0.0027  0.2292  0.2030
    1W        W45419  23.756   8.845   2.259 -0.0286  0.1080 -0.3315
    1W        W45420  15.682  12.941   8.422 -0.2928  0.1380 -0.0109
    1W        W45421  28.393  25.816   2.319  0.2211 -0.1415 -0.1393
    1W        W45422  17.049  18.841   8.774 -0.1117  0.1834 -0.0505
    1W        W45423  19.142  12.214   1.125  0.0893  0.1056 -0.0763
    1W        W45424  23.250  24.960   7.888  0.1213 -0.1002 -0.0815
    1W        W45425  21.876   0.860   8.216  0.0427 -0.0803  0.1704
    1W        W45426  24.093   9.844   2.018 -0.3144 -0.1066  0.3215
    1W        W45427  22.685  18.919   6.686 -0.0266  0.3062  0.1074
    1W        W45428   2.668   7.100   0.620 -0.1031 -0.0238  0.0925
    1W        W45429  11.750  19.480   1.794  0.2419  0.2894  0.1437
    1W        W45430  24.415  25.773   2.382  0.3840  0.0577 -0.1081
    1W        W45431   3.251  19.118   1.315 -0.1512  0.3306  0.4320
    1W        W45432  27.828   1.401   0.529 -0.1653 -0.0362  0.0479
    1W        W45433   5.441  17.185   7.778 -0.0716  0.1246 -0.2043
    1W        W45434  13.922  20.429   8.702  0.2039  0.0502 -0.2828
    1W        W45435  15.090   2.545   7.816  0.3169 -0.1269 -0.0816
    1W        W45436  13.073  22.499   6.686  0.0469 -0.2812  0.2776
    1W        W45437  21.242  21.675   1.716  0.2407  0.1518 -0.1159
    1W        W45438  11.478   1.401   7.536 -0.0627  0.2474 -0.2735
    1W        W45439  13.579   0.009   8.959 -0.2039 -0.3490  0.0653
    1W        W45440   1.936  21.506   6.798 -0.0474  0.5045 -0.0826
    1W        W45441   2.836   5.568   1.855 -0.0942  0.0969 -0.0793
    1W        W45442   5.378   7.639   7.293 -0.0221  0.1879  0.2613
    1W        W45443   6.935   5.402   8.258  0.3146  0.1401  0.1426
    1W        W45444   5.580  16.508   1.382  0.0361 -0.0051 -0.0450
    1W        W45445   4.603  29.336   7.272  0.1466  0.0167  0.1840
    1W        W45446  24.142  26.843   7.837  0.4837  0.2023  0.0390
    1W        W45447  14.181   0.174   8.786  0.1273 -0.1793 -0.0635
    1W        W45448   3.067  13.422   1.555  0.2984  0.1693  0.1366
    1W        W45449  28.894  10.619   6.793  0.3031 -0.4450 -0.2326
    1W        W45450   0.324   9.900   8.980  0.3684 -0.0134 -0.0973
    1W        W45451  24.312  26.202   9.264 -0.2422 -0.0032  0.0879
    1W        W45452   0.669  13.608   8.929  0.2064 -0.0519  0.2227
    1W        W45453   8.589  19.287   1.605 -0.1864 -0.0859 -0.2294
    1W        W45454  12.096   8.968   7.472  0.1992  0.2456 -0.0583
    1W        W45455  20.213  25.276   2.324 -0.2039 -0.2478  0.0600
    1W        W45456   8.013  27.405   6.387  0.1294 -0.0586 -0.1000
    1W        W45457  18.550  15.144   9.204  0.1040  0.0560 -0.0828
    1W        W45458  21.854  17.057   0.434 -0.0382 -0.1654 -0.0211
    1W        W45459  17.410  29.185   1.367  0.1766  0.2333 -0.1070
    1W        W45460  13.081  21.719   2.100 -0.3074  0.3032  0.1286
    1W        W45461  22.160   2.015   9.481  0.0888  0.2903 -0.0318
    1W        W45462  26.001  18.425   1.367  0.0616  0.0354 -0.0192
    1W        W45463  12.600  13.506   3.321  0.2511 -0.0388 -0.3924
    1W        W45464  28.185  10.154   1.231 -0.2197  0.2553 -0.1361
    1W        W45465   2.958  18.291   1.333 -0.1667 -0.1501  0.1254
    1W        W45466  20.877  10.317   8.320  0.1653 -0.0009  0.0822
    1W        W45467  20.316  25.739   8.459  0.0410 -0.0542  0.3270
    1W        W45468   6.526  11.325   0.143  0.0951 -0.2298  0.0330
    1W        W45469   1.756  19.713   9.374  0.1948 -0.0025  0.2182
    1W        W45470  25.472  20.317   7.494  0.0432 -0.0841 -0.1200
    1W        W45471   2.854   0.749   8.836  0.1138  0.1477  0.0573
    1W        W45472  27.477   9.593   6.780 -0.0274 -0.2139  0.2507
    1W        W45473  23.757   2.810   0.952 -0.2780 -0.1435  0.1388
    1W        W45474   8.264  22.112   3.392  0.0055 -0.1008  0.2175
    1W        W45475  16.382   9.576   2.452 -0.4201 -0.0320 -0.3293
    1W        W45476   1.146   9.151   8.173  0.0732  0.1312  0.2731
    1W        W45477  10.134  13.877   8.188 -0.1358 -0.0630  0.1463
    1W        W45478   8.077  17.644   0.090  0.0677 -0.0966  0.2705
    1W        W45479  13.671  13.588   2.255  0.1136  0.2429 -0.2322
    1W        W45480  14.071   3.139   8.632 -0.1487 -0.3209 -0.2038
    1W        W45481  25.692  12.789   0.816  0.1592  0.4360 -0.0374
    1W        W45482  25.304  26.837   2.924  0.1218  0.3275  0.1858
    1W        W45483  24.741  24.582   7.196 -0.0943 -0.2004 -0.0831
    1W        W45484   7.996  23.350   8.632 -0.2264 -0.4056  0.0761
    1W        W45485  26.521  25.727   0.950  0.2778  0.1962  0.1089
    1W        W45486  17.469   3.921   8.172  0.0686 -0.0247  0.0175
    1W        W45487   3.439   1.905   8.926 -0.0030  0.1600  0.1157
    1W        W45488  26.887   5.091   1.095  0.1253 -0.1127 -0.0992
    1W        W45489  24.720  11.966   0.051 -0.2218  0.2071 -0.1504
    1W        W45490  15.218  15.705   6.383 -0.1179  0.1863 -0.1185
    1W        W45491   3.017   6.502   9.349  0.1010  0.0739  0.0126
    1W        W45492  18.388   3.117   8.361  0.1120  0.2258 -0.1950
    1W        W45493  12.257  23.326   2.325 -0.2032  0.0247  0.0707
    1W        W45494  14.828  26.690   6.480  0.1283 -0.2112 -0.0439
    1W        W45495  26.161   7.043   1.049 -0.2139 -0.1269  0.3007
    1W        W45496   7.829  16.301   0.034  0.2370 -0.0193 -0.0172
    1W        W45497  23.153  15.628   6.710  0.2602 -0.1880 -0.2780
    1W        W45498  18.959  27.884   1.012  0.0297 -0.2220 -0.0423
    1W        W45499  17.723  24.968   0.439  0.2878 -0.0879  0.2281
    1W        W45500  15.560   0.408   9.507 -0.0050 -0.0497 -0.1617
    1W        W45501  12.930   4.900   1.027  0.0184  0.0441 -0.1605
    1W        W45502   3.304  17.578   1.668 -0.0165 -0.0396 -0.4046
    1W        W45503  13.161  19.220   0.865  0.4109  0.0204  0.1561
    1W        W45504  21.825  24.372   8.835  0.1410 -0.3341  0.2110
    1W        W45505   9.758  23.625   7.730  0.2093 -0.3147  0.2293
    1W        W45506  10.127  13.486   2.675  0.0875 -0.0587  0.1127
    1W        W45507  27.079  15.097   1.914 -0.2324  0.1872 -0.1958
    1W        W45508   3.101   5.488   8.293  0.2380 -0.0924 -0.1968
    1W        W45509  21.766  28.676   3.949 -0.0696  0.2244  0.0991
    1W        W45510  24.915   5.126   0.040  0.1355 -0.2320 -0.1933
    1W        W45511  11.266  18.716   0.230 -0.0006  0.1505  0.1260
    1W        W45512  19.393   8.607   7.472  0.6020 -0.1184 -0.2184
    1W        W45513   7.104  22.862   0.109 -0.0071 -0.0014 -0.2080
    1W        W45514  24.884  26.317   7.925 -0.0021 -0.0368 -0.1694
    1W        W45515  28.141   7.663   8.996  0.0852 -0.0414  0.0005
    1W        W45516   4.008  12.823   1.355  0.0462  0.2440  0.0068
    1W        W45517  14.952  21.607   7.360  0.3252  0.6138  0.1411
    1W        W45518  17.242  15.958   9.235 -0.5153  0.0857 -0.3326
    1W        W45519  24.563   7.819   0.694  0.3416  0.1160 -0.0044
    1W        W45520  29.081   2.222   0.900  0.0316 -0.0490 -0.0783
    1W        W45521   9.844  12.270   1.902 -0.0981  0.2478 -0.0599
    1W        W45522  19.050   6.803   8.149  0.1331  0.0529  0.0125
    1W        W45523  16.122  16.016   8.542 -0.1019  0.3988 -0.1517
    1W        W45524  19.558   9.340   0.668 -0.4617  0.1285  0.0624
    1W        W45525  12.379  10.523   0.560 -0.1813  0.1657  0.0277
    1W        W45526  28.435  20.328   3.377  0.0203  0.2304 -0.0844
    1W        W45527  12.349  17.018   8.410  0.2757 -0.1178  0.2225
    1W        W45528   2.727  28.172   9.481  0.4482  0.1317  0.2101
    1W        W45529   6.153   9.874   8.039  0.1833 -0.1435 -0.0790
    1W        W45530  12.183  15.455   1.944 -0.1238 -0.0011  0.1615
    1W        W45531   3.471   1.393   8.994 -0.0290  0.0041 -0.0359
    1W        W45532  10.696  15.938   9.097  0.1624 -0.1114 -0.0831
    1W        W45533  26.184  22.676   9.541 -0.0215  0.0091  0.1021
    1W        W45534  15.944  24.915   0.451 -0.0562 -0.1183 -0.0920
    1W        W45535  29.429   9.023   8.013 -0.2656  0.2788 -0.3016
    1W        W45536   2.394  16.663   2.682 -0.1851 -0.0422  0.1038
    1W        W45537  25.162   5.648   8.045  0.2262  0.0454 -0.1676
    1W        W45538   6.213  16.588   1.933 -0.0139  0.1540 -0.3396
    1W        W45539  23.137  24.496   8.047  0.0565 -0.2227 -0.3722
    1W        W45540  26.589   9.656   7.678 -0.0961 -0.1321 -0.0826
    1W        W45541  14.041   7.953   6.801  0.4398 -0.1042  0.2628
    1W        W45542   4.285  28.197   7.606 -0.0660 -0.0730 -0.0583
    1W        W45543  23.553   7.698   7.474 -0.2395 -0.2961  0.2868
    1W        W45544  16.835  10.432   7.793 -0.0970 -0.0146 -0.1007
    1W        W45545  19.885   5.946   8.200  0.1819 -0.3047 -0.0265
    1W        W45546  25.942  29.507   0.536 -0.2679  0.0142  0.0975
    1W        W45547  12.512  23.049   0.846  0.0426 -0.0126 -0.0865
    1W        W45548  12.294   3.369   5.929 -0.1040 -0.1573  0.1319
    1W        W45549   1.696  15.619   6.565 -0.0788  0.0669  0.0323
    1W        W45550  27.685  25.765   8.621 -0.2310  0.0917  0.0529
    1W        W45551  21.632   6.608   0.647 -0.0423 -0.1592 -0.1344
    1W        W45552   8.891   2.236   6.706  0.0820 -0.0744  0.0494
    1W        W45553  26.231   0.912   2.066 -0.0789  0.0360  0.0326
    1W        W45554  12.120   1.049   2.243 -0.1406 -0.0137  0.1647
    1W        W45555  24.118   6.132   8.405 -0.0411  0.2263  0.0777
    1W        W45556  17.401  16.650   8.011 -0.3450  0.0494 -0.2114
    1W        W45557  12.222  10.381   6.355  0.2179 -0.0169 -0.5022
    1W        W45558  19.148  16.617   1.493  0.0293 -0.1229  0.0111
    1W        W45559   9.456   0.033   2.299 -0.0463 -0.1197 -0.0603
    1W        W45560  18.481  20.928   3.127  0.1014 -0.0140 -0.1541
    1W        W45561  26.354  11.492   2.098  0.0515 -0.0311 -0.6567
    1W        W45562  19.451  24.543   1.160  0.1951  0.0042  0.0080
    1W        W45563   5.615  28.486   7.889  0.4039 -0.0095 -0.1845
    1W        W45564  28.526  29.062   1.383  0.3708  0.2029  0.0717
    1W        W45565   0.791  25.499   7.881 -0.0377  0.0145 -0.1724
    1W        W45566   4.941  12.330   7.859  0.1500 -0.2659 -0.2161
    1W        W45567  11.757   0.173   9.352 -0.3446  0.1559 -0.1600
    1W        W45568  27.978  21.662   3.847 -0.4291  0.3959 -0.0070
    1W        W45569  11.258   4.727   8.255 -0.2527 -0.0693 -0.0353
    1W        W45570   2.778  14.705   6.540  0.2896  0.1696 -0.1215
    1W        W45571   3.825  19.924   1.333 -0.1851  0.0752  0.2007
    1W        W45572  10.399  15.122   9.017 -0.1879  0.0512 -0.0149
    1W        W45573  26.369  10.565   2.012  0.0476 -0.1255 -0.0908
    1W        W45574  15.918  12.593   2.428  0.3668  0.0696  0.0134
    1W        W45575   5.944   6.480   8.748 -0.0228  0.2135 -0.2886
    1W        W45576   4.611  10.515   1.091 -0.0840  0.1175 -0.2004
    1W        W45577  20.093  12.602   9.433 -0.1562 -0.4604  0.0729
    1W        W45578  20.721  25.461   9.610  0.0821  0.0234  0.0422
    1W        W45579  23.421   5.091   2.086 -0.2073 -0.0337  0.0492
    1W        W45580  29.086  10.423   0.754 -0.0640 -0.0095 -0.0365
    1W        W45581  17.752  14.749   0.677 -0.0788 -0.0647  0.1021
    1W        W45582   0.384  11.800   1.079 -0.0571 -0.4155  0.0675
    1W        W45583  10.024  23.330   0.828 -0.1323 -0.4336 -0.4713
    1W        W45584  28.541  28.202   0.242 -0.0299 -0.0442 -0.0215
    1W        W45585  24.054   4.754   8.105 -0.3905  0.0243 -0.0964
    1W        W45586  24.646   9.922   1.306 -0.0446 -0.1999  0.0072
    1W        W45587  15.291  14.056   1.577  0.0343 -0.0267  0.1815
    1W        W45588   5.386  20.967   7.295 -0.2609 -0.0464 -0.2316
    1W        W45589  21.126  27.371   7.518 -0.0132  0.1327 -0.0890
    1W        W45590  21.815  28.024   7.812 -0.3449  0.2016 -0.4251
    1W        W45591  13.017   1.348   0.447  0.0167  0.1902  0.0390
    1W        W45592   8.251   5.450   6.440 -0.0550 -0.1423 -0.3207
    1W        W45593  10.124  22.248   6.159 -0.1650  0.0194 -0.2667
    1W        W45594  26.275  19.313   1.728 -0.0392 -0.0338 -0.0596
    1W        W45595  21.723   6.369   9.331  0.2824 -0.1996  0.2011
    1W        W45596   2.415  25.661   2.033 -0.0835 -0.0363 -0.0668
    1W        W45597  15.514  11.962   7.807  0.1513  0.0682  0.1565
    1W        W45598   2.639  26.769   7.017  0.1834 -0.2072  0.3799
    1W        W45599  10.542  20.412   0.906 -0.3955 -0.1669  0.0343
    1W        W45600   4.791  21.810   8.175 -0.1516 -0.1618  0.0657
    1W        W45601   4.273  19.982   1.713 -0.0686 -0.1151 -0.0015
    1W        W45602   2.713  16.316   1.469  0.3294 -0.0905  0.2445
    1W        W45603  14.740   2.579   8.464  0.1879 -0.0343  0.5794
    1W        W45604  12.732   2.463   8.121 -0.0188  0.0786  0.0976
    1W        W45605   2.024  20.420   8.307 -0.1675 -0.0189 -0.1205
    1W        W45606  14.454   2.790   8.837  0.1005 -0.2550 -0.2985
    1W        W45607   2.764   4.920   9.472 -0.0194 -0.3135 -0.2558
    1W        W45608  21.949   1.116   0.873  0.0229  0.1608  0.4689
    1W        W45609   3.827  23.192   3.031  0.4082  0.2539 -0.2722
    1W        W45610  10.100   4.238   7.693 -0.0799 -0.0024  0.0191
    1W        W45611   1.265  12.344   0.893  0.0568  0.0791 -0.0851
    1W        W45612   6.415  27.876   8.104  0.2824 -0.0844 -0.2441
    1W        W45613   7.319  18.438   6.960  0.0057 -0.0998  0.0065
    1W        W45614  24.956  20.904   8.086 -0.0293 -0.0581 -0.0265
    1W        W45615  27.236  25.170   1.002  0.2915  0.1521  0.0878
    1W        W45616  14.438   5.715   6.909 -0.1943  0.0869  0.0157
    1W        W45617   4.941   7.194   1.849 -0.1131 -0.1438  0.0215
    1W        W45618  19.315  22.038   4.215 -0.3045 -0.0017 -0.0451
    1W        W45619  20.036   8.391   0.387 -0.1859 -0.3083  0.1891
    1W        W45620  19.061   2.462   9.410  0.0388  0.2724 -0.0412
    1W        W45621  23.064  19.056   1.480 -0.1221 -0.1596 -0.1718
    1W        W45622  17.759   1.007   8.122 -0.2146  0.5011 -0.0838
    1W        W45623  28.508  12.850   0.347  0.1318  0.1496 -0.2803
    1W        W45624  14.314  10.288   6.412  0.0512 -0.2210 -0.0664
    1W        W45625   8.253   2.363   1.087 -0.0133 -0.1889 -0.0145
    1W        W45626  29.424  28.349   9.353  0.1628 -0.1130  0.0147
    1W        W45627  12.211  29.161   8.594  0.0045 -0.1083 -0.2170
    1W        W45628  27.829  12.964   9.015  0.0805  0.5532 -0.0906
    1W        W45629   0.092  17.599   9.568 -0.0938 -0.1352 -0.1344
    1W        W45630   5.060   1.155   8.477 -0.0361  0.1865 -0.0172
    1W        W45631  14.468  20.260   0.158  0.1264 -0.0236 -0.1136
    1W        W45632   6.077  16.734   7.380  0.0163 -0.3041  0.1010
    1W        W45633   4.524  17.283   7.523 -0.2970  0.0394 -0.1602
    1W        W45634   5.309   1.464   1.752 -0.2434  0.1007  0.0146
    1W        W45635   3.207  21.748   0.348 -0.1438  0.2100  0.1782
    1W        W45636  11.425   5.219   9.519  0.0374 -0.0327  0.2199
    1W        W45637   2.529  24.360   0.967 -0.0345 -0.2080 -0.2768
    1W        W45638   1.846  10.578   8.357  0.1146 -0.0265  0.2744
    1W        W45639  17.771  15.506   1.428  0.2539 -0.1660 -0.1026
    1W        W45640  22.180  13.200   1.500 -0.0840 -0.0041  0.1772
    1W        W45641  29.370   7.491   7.339 -0.2105  0.1178  0.1114
    1W        W45642   1.926  10.689   7.907  0.0917  0.1560  0.1291
    1W        W45643  21.946  21.341   1.034 -0.3641 -0.2021  0.1633
    1W        W45644   9.036  12.949   7.027  0.5067  0.0609  0.2903
    1W        W45645  18.278   0.413   7.028 -0.2606  0.1906  0.4622
    1W        W45646  12.186   3.947   2.422 -0.1858 -0.0213 -0.1815
    1W        W45647  26.889  13.941   0.885 -0.2196 -0.0517  0.1070
    1W        W45648   1.858  15.257   1.646  0.2414  0.2799 -0.1514
    1W        W45649   0.731  24.930   7.805  0.0642 -0.0281  0.3004
    1W        W45650  15.123   1.445   0.810  0.3424  0.1134 -0.0900
    1W        W45651  16.049  20.270   1.562 -0.0419  0.0834  0.1060
    1W        W45652  12.224  20.553   7.228 -0.1997  0.3865  0.1228
    1W        W45653  11.470  19.173   9.619  0.0457 -0.1758  0.0362
    1W        W45654  15.362   3.448   2.163 -0.1258 -0.0115 -0.0227
    1W        W45655   4.085  21.998   7.616 -0.2339 -0.1621 -0.3085
    1W        W45656   9.633   7.716   0.730  0.1895  0.0469 -0.0312
    1W        W45657  14.571   7.511   8.379  0.1548  0.2810 -0.1364
    1W        W45658  25.787   6.672   0.355 -0.1866 -0.0613 -0.0041
    1W        W45659   5.327  15.872   1.288 -0.0138  0.0604  0.1580
    1W        W45660   4.291  13.659   9.467  0.1569 -0.0949  0.1109
    1W        W45661  13.019  14.966   0.976  0.0812  0.2040 -0.0064
    1W        W45662  13.511   4.178   2.111  0.1486  0.1951 -0.0991
    1W        W45663   9.712   9.992   6.114 -0.3957  0.0857 -0.0895
    1W        W45664  16.333   9.455   1.972  0.5112  0.1836  0.3403
    1W        W45665  21.677   0.856   3.076  0.1714 -0.0429 -0.3764
    1W        W45666  20.508   2.986   2.201 -0.1239  0.2086  0.0876
    1W        W45667   4.757  16.439   7.483  0.1775 -0.0571 -0.0340
    1W        W45668  28.968  13.811   8.162 -0.1178 -0.1918 -0.0158
    1W        W45669  18.312  24.162   8.446  0.2282 -0.1919 -0.0685
    1W        W45670  22.100   6.777   9.150 -0.0271 -0.1624  0.1384
    1W        W45671  28.172  10.536   8.838 -0.0283 -0.1258  0.2491
    1W        W45672  20.388  25.605   7.735 -0.0029 -0.1111  0.1565
    1W        W45673  16.628  12.732   0.511 -0.0657 -0.0208 -0.1491
    1W        W45674   2.478  10.832   1.416  0.0847 -0.2324  0.0035
    1W        W45675  18.582   1.115   8.597  0.1990 -0.0518 -0.2676
    1W        W45676   7.787  20.954   0.813  0.1293 -0.0671  0.0163
    1W        W45677   0.939   7.987   1.089 -0.0553 -0.2023  0.0190
    1W        W45678   4.597   1.340   7.402 -0.1424 -0.0567  0.1489
    1W        W45679  20.267  12.317   0.484  0.2006  0.0767 -0.0202
    1W        W45680  28.857  27.938   0.724 -0.0468  0.2155  0.2441
    1W        W45681   1.549   3.144   9.440  0.0765  0.2978 -0.2080
    1W        W45682  13.210   7.007   2.338 -0.1163 -0.2183  0.2092
    1W        W45683  11.695  16.822   8.945 -0.0396  0.1260  0.0191
    1W        W45684  24.122   8.565   0.747 -0.2093  0.1463  0.0130
    1W        W45685  21.506  27.675   3.036 -0.1981  0.0339  0.1026
    1W        W45686   6.048  19.531   7.248  0.0886  0.1209 -0.0391
    1W        W45687   5.757   0.580   7.555 -0.1845  0.0093  0.1495
    1W        W45688   8.432  26.024   0.561  0.3040 -0.0486 -0.0942
    1W        W45689  20.370  18.368   9.627 -0.3800  0.0067  0.0116
    1W        W45690  15.347  17.945   7.391 -0.0507 -0.4767  0.6278
    1W        W45691  16.745  17.688   8.499 -0.3117  0.3398 -0.1134
    1W        W45692  29.351   5.325   7.422  0.0146 -0.0850 -0.0903
    1W        W45693  24.759   7.809   1.648 -0.0754  0.1976  0.1837
    1W        W45694  22.644  27.836   9.253  0.1844 -0.2708 -0.4208
    1W        W45695   9.005   1.878   1.130 -0.0263 -0.4018  0.2073
    1W        W45696  17.512  16.290   0.413  0.0843  0.0716 -0.0921
    1W        W45697   9.565   0.174   0.156 -0.1913 -0.1089 -0.1833
    1W        W45698  21.011   9.985   0.812 -0.1675 -0.1079  0.0724
    1W        W45699   8.845  28.543   7.570 -0.2111 -0.0181 -0.0845
    1W        W45700   2.302  23.399   1.531 -0.0471 -0.0415 -0.1094
    1W        W45701  21.261  25.831   1.070 -0.1256  0.0802  0.1331
    1W        W45702  16.278  14.585   9.388  0.0830 -0.0192  0.1633
    1W        W45703  22.616  13.823   0.827 -0.0523 -0.0871 -0.0622
    1W        W45704   9.948   2.808   8.892  0.0830  0.0971  0.3906
    1W        W45705  14.893   8.944   8.622 -0.1065  0.0055  0.4621
    1W        W45706  17.206  17.873   7.650 -0.0203  0.3339 -0.0219
    1W        W45707  27.135  22.617   7.652 -0.0364 -0.1890 -0.1037
    1W        W45708  20.045  19.692   8.145  0.0151 -0.5022 -0.0076
    1W        W45709  11.776  14.810   1.546 -0.0531  0.3532  0.1945
    1W        W45710   5.150   9.628   5.813 -0.1655 -0.1266 -0.1370
    1W        W45711   0.659  15.462   2.516 -0.0322 -0.3228  0.0134
    1W        W45712   6.081   6.254   7.732  0.0155 -0.5250 -0.0843
    1W        W45713  24.605  27.534   2.816 -0.1875 -0.0559 -0.1022
    1W        W45714   9.153  11.241   9.569 -0.1669  0.3966 -0.0041
    1W        W45715  28.941  28.491   1.956 -0.1210  0.1194 -0.1302
    1W        W45716   2.262   3.687   9.466  0.3174 -0.0323 -0.2394
    1W        W45717  10.717  19.690   1.274 -0.2640 -0.0009  0.1992
    1W        W45718   4.137  10.312   1.182 -0.0237 -0.2078  0.4290
    1W        W45719  19.625  23.327   3.605  0.1490 -0.2927  0.0435
    1W        W45720  23.312  17.032   8.665  0.1089 -0.1139 -0.2912
    1W        W45721  15.536  13.109   9.501  0.5203 -0.1215 -0.0435
    1W        W45722  16.060   3.111   8.649 -0.1148  0.3138 -0.3607
    1W        W45723  17.310  16.424   7.533 -0.0654  0.2025  0.0478
    1W        W45724   0.361   5.844   7.228 -0.2067 -0.1891  0.0074
    1W        W45725  24.226  14.028   1.994  0.0686  0.1547 -0.0646
    1W        W45726   6.727   9.889   1.000 -0.2069 -0.0463 -0.3623
    1W        W45727  12.688   5.979   6.857  0.2534 -0.2178  0.0218
    1W        W45728  18.326  21.758   8.469  0.0196  0.0056 -0.3725
    1W        W45729   4.306  10.754   0.274  0.1348  0.4317  0.3732
    1W        W45730   4.948   0.719   9.251 -0.0409 -0.1706  0.2357
    1W        W45731  11.749  10.272   6.575  0.0871  0.2903 -0.0758
    1W        W45732  19.608  17.711   1.752 -0.2120  0.0762 -0.1176
    1W        W45733  19.180  28.877   0.206  0.2949  0.3770  0.0567
    1W        W45734  12.725   6.929   6.005  0.3933 -0.0809  0.3308
    1W        W45735  13.504  18.211   8.809  0.0222 -0.1172  0.1126
    1W        W45736  10.233   0.919   2.074 -0.3732  0.1860  0.0485
    1W        W45737  14.484   1.918   9.638  0.2823  0.1290 -0.4263
    1W        W45738  12.367  29.409   1.848  0.1801 -0.1200 -0.2514
    1W        W45739  12.085   2.214   7.031 -0.0311 -0.0703  0.1170
    1W        W45740   3.314  28.762   7.937 -0.5022  0.1490  0.0378
    1W        W45741  24.198   5.019   7.608  0.0035 -0.0588  0.3584
    1W        W45742   8.685  13.687   0.649 -0.0567  0.1592  0.0011
    1W        W45743  28.523  15.161   0.706  0.1384 -0.4449 -0.1355
    1W        W45744   7.536  17.166   8.605 -0.1052 -0.1194 -0.4971
    1W        W45745  12.960  28.172   6.647  0.0340 -0.3885 -0.0041
    1W        W45746  16.072   0.149   0.338 -0.1722  0.1913  0.1174
    1W        W45747   8.278   5.586   1.216  0.1656 -0.0259  0.0964
    1W        W45748  16.702  18.302   0.101  0.3786 -0.1181 -0.2692
    1W        W45749   1.332  23.432   7.991 -0.0237 -0.0079  0.0784
    1W        W45750   6.675  10.172   6.156 -0.2177  0.0519  0.1403
    1W        W45751  26.897   5.711   0.540  0.1554 -0.1275 -0.2289
    1W        W45752   9.482  26.949   1.220 -0.0875 -0.0904  0.0224
    1W        W45753   4.697  23.897   0.098 -0.0337  0.0266 -0.0155
    1W        W45754  21.267  23.032   9.323 -0.2100  0.0302 -0.1022
    1W        W45755  24.786  18.431   7.446 -0.0893 -0.1840 -0.0836
    1W        W45756   0.892  21.581   8.878 -0.1495  0.0747 -0.1566
    1W        W45757  29.076  21.662   7.122  0.2242  0.1872 -0.2010
    1W        W45758   8.126  15.843   9.523 -0.1218  0.0592  0.4430
    1W        W45759  23.478  16.449   0.555  0.2863 -0.2658  0.1119
    1W        W45760  28.433  16.810   6.981  0.0605 -0.1953  0.3889
    1W        W45761  27.370  21.840   3.332 -0.3180  0.2047  0.0047
    1W        W45762   0.392  16.219   1.834 -0.0249 -0.0810 -0.1215
    1W        W45763  19.040   3.238   7.253  0.1350 -0.4937 -0.0513
    1W        W45764   8.388  11.495   2.187  0.2365 -0.0666 -0.2927
    1W        W45765   8.438  22.998   8.478  0.0497 -0.0367 -0.0359
    1W        W45766  20.248   4.385   7.824 -0.0503  0.1804 -0.1458
    1W        W45767   0.177   9.740   2.296 -0.2742 -0.0110  0.1178
    1W        W45768   2.634  10.393   0.359  0.0840  0.0405  0.1090
    1W        W45769  26.942  29.419   7.705  0.0867 -0.3335 -0.0737
    1W        W45770   8.978  25.545   8.127  0.1208 -0.0366 -0.1406
    1W        W45771  17.356  20.445   2.224 -0.0334 -0.0655  0.0206
    1W        W45772  27.584   5.993   7.460 -0.0638 -0.2505  0.0383
    1W        W45773  18.608  12.797   9.431  0.0920 -0.2146 -0.0259
    1W        W45774  11.002  13.929   6.806 -0.0802 -0.0172 -0.1055
    1W        W45775  23.580  27.598   7.725 -0.1406 -0.0672 -0.0638
    1W        W45776   6.795  26.048   8.638 -0.0404  0.1861 -0.0796
    1W        W45777   4.760  29.426   9.300  0.2442 -0.1054 -0.1775
    1W        W45778   1.982  12.519   9.451 -0.0429  0.1826 -0.0204
    1W        W45779  29.479  25.108   8.084 -0.0963 -0.2196 -0.3218
    1W        W45780   7.810  26.834   1.128 -0.2597 -0.4962 -0.2077
    1W        W45781  24.662   6.660   8.780  0.1020  0.1921 -0.1002
    1W        W45782   5.020   0.549   8.728 -0.1053 -0.4105  0.1154
    1W        W45783   7.858  28.910   1.837 -0.0831 -0.0302  0.3611
    1W        W45784  16.769  28.794   8.197  0.4361  0.1153 -0.2227
    1W        W45785  18.645   4.171   1.729 -0.2762  0.3453  0.0229
    1W        W45786  20.255  15.714   1.222 -0.0938  0.0294 -0.4368
    1W        W45787   9.621  22.951   6.116 -0.1435  0.3082 -0.0033
    1W        W45788  12.939  13.892   8.683 -0.0989  0.2762  0.1440
    1W        W45789  12.599   8.543   0.864  0.2021 -0.1746 -0.0849
    1W        W45790  27.664  16.871   2.491  0.2608 -0.2406  0.1057
    1W        W45791   8.948  17.615   8.188 -0.0122 -0.0778  0.0080
    1W        W45792  21.059  20.359   7.522  0.0130 -0.0387  0.2653
    1W        W45793  11.908  16.387   8.909 -0.0359  0.0817  0.1410
    1W        W45794  22.660  25.210   3.328  0.2285  0.2859  0.1911
    1W        W45795   4.496  29.211   0.757 -0.0203  0.0044  0.1088
    1W        W45796  22.988  23.833   0.711  0.2701 -0.0133  0.1826
    1W        W45797  19.748  28.702   0.239 -0.0957 -0.1696  0.1828
    1W        W45798   4.421   4.308   2.501 -0.2151 -0.0912 -0.1850
    1W        W45799  15.790  14.720   9.516 -0.0156  0.1626  0.1102
    1W        W45800  19.578   2.838   1.667 -0.5005 -0.0383  0.1980
    1W        W45801  23.213   5.194   2.554 -0.0020  0.0836  0.2089
    1W        W45802  10.392  20.616   8.846  0.1226 -0.2052  0.0589
    1W        W45803   1.226   4.046   0.991 -0.2399  0.2462  0.0377
    1W        W45804   2.502  23.200   9.026  0.2684  0.1353 -0.0800
    1W        W45805  14.793  11.984   8.957 -0.1642  0.1202  0.1256
    1W        W45806  10.145  10.570   7.622 -0.0823 -0.2549 -0.0239
    1W        W45807  13.513  20.907   1.632 -0.0393 -0.1234 -0.3533
    1W        W45808  16.172  25.686   7.741  0.2917 -0.1516  0.0225
    1W        W45809  28.755  28.186   7.295 -0.2263  0.0156  0.0668
    1W        W45810  21.450  21.269   9.246 -0.1052  0.1077  0.1736
    1W        W45811   0.424  21.857   7.726  0.1089 -0.1121 -0.0099
    1W        W45812  19.416   5.056   9.529 -0.3590 -0.1570 -0.0808
    1W        W45813  14.629  17.506   6.283 -0.0025  0.1017 -0.1548
    1W        W45814   3.030  23.426   2.298  0.1396  0.2230 -0.1202
    1W        W45815  22.867   2.216   0.316 -0.0942 -0.0954 -0.2294
    1W        W45816   2.930  19.426   7.914  0.0357  0.3323 -0.1879
    1W        W45817  12.485  19.092   0.193 -0.1276  0.0660 -0.0494
    1W        W45818  14.254  15.057   2.498 -0.1434  0.0014 -0.1068
    1W        W45819  23.326  25.399   0.027 -0.1758  0.0137  0.0255
    1W        W45820  22.800   3.998   1.063  0.1617 -0.2667 -0.3624
    1W        W45821   8.038  22.836   9.465  0.1427 -0.1824  0.0930
    1W        W45822  27.761  28.630   9.525 -0.0037  0.1007  0.2533
    1W        W45823   3.596   1.194   5.717  0.0914  0.1470  0.0599
    1W        W45824  19.638   6.386   9.473 -0.0516  0.1017  0.0104
    1W        W45825   5.628  14.912   7.828  0.2834 -0.0371  0.0873
    1W        W45826  11.755  19.880   6.188 -0.1614 -0.1921 -0.1132
    1W        W45827  22.991  29.008   9.489 -0.0697 -0.2404  0.1980
    1W        W45828   2.699  10.220   0.853  0.0477 -0.0805 -0.0551
    1W        W45829  27.824  24.442   8.173 -0.4753 -0.2587 -0.0785
    1W        W45830  24.709   0.959   0.118 -0.0842  0.0665 -0.0500
    1W        W45831  19.698  28.812   9.048 -0.0771  0.0650  0.2869
    1W        W45832   2.839   2.895   8.412  0.0585 -0.0383 -0.2084
    1W        W45833  10.108  16.804   6.182 -0.1220 -0.1145 -0.0211
    1W        W45834   7.130   8.544   8.596  0.0247  0.3535  0.0114
    1W        W45835  25.918   7.479   1.000  0.1036 -0.0433 -0.1921
    1W        W45836  16.544  28.872   1.391  0.1348  0.1538 -0.1338
    1W        W45837  21.318   4.045   7.777 -0.0231 -0.0046  0.0901
    1W        W45838  19.560   9.048   8.777  0.0324 -0.2368  0.3479
    1W        W45839   8.578   5.741   6.217  0.2602 -0.1373  0.0454
    1W        W45840  12.038   3.643   9.455  0.0061  0.0318  0.0117
    1W        W45841  22.451   1.343   8.590  0.1603 -0.1772  0.0376
    1W        W45842  22.981  19.211   9.470  0.1757  0.0419 -0.0731
    1W        W45843  27.728   3.515   7.057 -0.0913  0.2225 -0.1113
    1W        W45844   8.354  13.749   1.134  0.0995  0.0662  0.2090
    1W        W45845   8.942  12.115   1.387  0.0850 -0.3648  0.0060
    1W        W45846  25.057  19.367   7.531  0.0044  0.0364  0.0109
    1W        W45847  26.365   8.755   8.643 -0.3092  0.0190  0.2528
    1W        W45848  28.388  27.441   8.889  0.1426 -0.2197 -0.0811
    1W        W45849  22.239  10.256   0.767  0.1544 -0.3688 -0.0312
    1W        W45850  17.414  18.741   0.397 -0.0223  0.4559 -0.3380
    1W        W45851   6.400  14.765   0.756 -0.0801  0.0517 -0.0100
    1W        W45852  25.669  19.228   1.350 -0.2715 -0.0642 -0.2034
    1W        W45853   6.063  26.083   9.304 -0.0494 -0.2017  0.2290
    1W        W45854  26.702  17.426   6.651 -0.0466 -0.0456 -0.0136
    1W        W45855  18.001  27.436   7.891  0.0644 -0.0195 -0.0663
    1W        W45856  16.360  17.310   8.577  0.1751  0.1526 -0.1823
    1W        W45857   1.854  26.946   7.966  0.3389 -0.1992  0.0324
    1W        W45858  21.103   2.924   9.571  0.1644 -0.0457 -0.6880
    1W        W45859  19.166  13.104   8.562 -0.0249 -0.0812 -0.3580
    1W        W45860  19.809   0.656   3.256 -0.2885  0.2584  0.1564
    1W        W45861  11.290   3.551   1.562  0.2067 -0.4694 -0.0644
    1W        W45862  18.223  25.470   1.197 -0.0388 -0.0293 -0.2634
    1W        W45863   7.057   5.399   0.167  0.1750 -0.1546 -0.5057
    1W        W45864   6.585  21.769   1.491 -0.1875  0.1293  0.0684
    1W        W45865   9.842  25.125   7.682  0.0403 -0.0153  0.0747
    1W        W45866   5.210  26.633   8.363 -0.2685  0.1710 -0.1359
    1W        W45867  19.458   3.801   8.360  0.2462 -0.0186 -0.3267
    1W        W45868   6.335   5.734   9.546 -0.1633 -0.1289 -0.1098
    1W        W45869   2.214  16.120   1.421 -0.1486 -0.2485  0.0532
    1W        W45870  11.545   9.514   7.134 -0.1454  0.0003  0.0932
    1W        W45871  16.706   7.749   9.647  0.0931 -0.2260 -0.0054
    1W        W45872   3.377  19.444   0.085  0.2231 -0.0004 -0.0196
    1W        W45873  10.615  23.154   1.692 -0.0165 -0.0464  0.2417
    1W        W45874   7.918   5.104   6.329  0.0569  0.1568 -0.1919
    1W        W45875  26.685   5.677   7.056  0.3871 -0.0562  0.0598
    1W        W45876  15.771   1.172   1.826  0.1070  0.1618 -0.1774
    1W        W45877   3.425  28.772   0.091  0.1983  0.0279  0.1979
    1W        W45878  13.714  22.364   6.843 -0.0778  0.3351  0.3009
    1W        W45879  18.547   2.473   2.981  0.2504  0.0156 -0.1673
    1W        W45880   3.291  15.265   0.951  0.2329  0.1849 -0.1801
    1W        W45881  28.331  28.191   0.805 -0.0114  0.1736  0.2377
    1W        W45882  22.019  14.687   1.324  0.1102 -0.2866 -0.0287
    1W        W45883  21.234  17.678   9.040  0.1610  0.0779 -0.0047
    1W        W45884   7.235   3.774   7.716  0.0560 -0.0743  0.2124
    1W        W45885   3.809  19.141   8.334  0.0927  0.2038 -0.3366
    1W        W45886  17.316  15.735   2.609 -0.1241  0.1964 -0.2105
    1W        W45887  28.436  14.914   9.058 -0.2980 -0.2766  0.1195
    1W        W45888   7.330  18.221   0.471  0.2431 -0.0842  0.1412
    1W        W45889   8.996   2.146   0.203 -0.0919 -0.0045 -0.0199
    1W        W45890  17.182  10.946   0.541 -0.1788  0.2162  0.0331
    1W        W45891  19.556  19.299   7.206 -0.2553  0.0205 -0.2473
    1W        W45892   5.784  15.719   6.740 -0.0360  0.1059 -0.0334
    1W        W45893  18.721  11.653   1.684  0.0214 -0.1525 -0.0245
    1W        W45894  10.677  28.065   1.133  0.0967 -0.0952 -0.0215
    1W        W45895  12.344  22.472   9.627  0.1291  0.0360  0.1814
    1W        W45896   4.547  22.590   1.073  0.1439 -0.0374  0.0843
    1W        W45897  20.905   9.387   1.972 -0.1695 -0.0775  0.2343
    1W        W45898  29.270  29.528   0.615  0.2222  0.1051  0.1889
    1W        W45899  14.734  25.841   9.513  0.3210  0.0553  0.0700
    1W        W45900   0.053  19.083   1.557 -0.2035 -0.0156 -0.3811
    1W        W45901   2.663  25.804   8.465  0.0959  0.0094  0.1338
    1W        W45902   8.043  24.183   1.284 -0.0930 -0.1399  0.0531
    1W        W45903   5.019   6.106   2.486 -0.4584  0.2494  0.0702
    1W        W45904  18.482   7.205   2.036  0.1033 -0.2185  0.3519
    1W        W45905  19.321  15.381   0.020  0.1403 -0.0962  0.0358
    1W        W45906   6.717  17.052   8.661 -0.3215  0.1729 -0.1785
    1W        W45907  28.835   6.408   1.669  0.1761 -0.0767 -0.2680
    1W        W45908  11.028   7.423   8.579 -0.3021 -0.1170  0.0878
    1W        W45909   5.778   7.781   8.560 -0.1935 -0.0687  0.3311
    1W        W45910  20.252   9.616   2.463 -0.3114  0.2082  0.1451
    1W        W45911  12.989  13.492   7.971 -0.1037  0.1213  0.0952
    1W        W45912  24.394  10.244   2.099  0.0274  0.0039 -0.2858
    1W        W45913   8.704   4.846   8.535  0.0132 -0.1139  0.0549
    1W        W45914  10.934   5.262   2.488  0.1177  0.1123 -0.1183
    1W        W45915  13.938  27.688   1.733  0.0424 -0.2367  0.1703
    1W        W45916  15.557  24.098   0.535 -0.1447 -0.1288 -0.1391
    1W        W45917   9.837   4.435   2.412 -0.2796 -0.0781 -0.1401
    1W        W45918  11.235  18.209   0.200 -0.2926  0.0008  0.2647
    1W        W45919  22.383  13.018   0.931 -0.0006 -0.1242 -0.1148
    1W        W45920  25.348   7.653   1.777 -0.0133  0.3127  0.2056
    1W        W45921  25.180   8.882   7.731 -0.1431 -0.0684 -0.0395
    1W        W45922  25.834  27.140   3.389 -0.1376  0.1437  0.0274
    1W        W45923   8.090  18.329   7.979 -0.1104  0.0576  0.0788
    1W        W45924   7.884  11.512   6.499  0.1565 -0.5994 -0.1763
    1W        W45925  28.950  29.493   1.012  0.1955 -0.2023 -0.0244
    1W        W45926  15.625  20.011   2.286  0.2264  0.0572 -0.1320
    1W        W45927   4.799  26.810   8.168  0.2179 -0.0406 -0.4163
    1W        W45928   5.486  13.358   0.044  0.0353  0.0892 -0.0716
    1W        W45929  20.607  18.364   8.456  0.0455 -0.2404 -0.0091
    1W        W45930  27.578   9.892   8.595  0.0778  0.1415  0.2875
    1W        W45931  11.442   3.845   0.673 -0.4227 -0.1664 -0.2137
    1W        W45932  23.854  10.461   7.767 -0.0060 -0.0914 -0.3604
    1W        W45933   7.008  25.551   6.969  0.2245 -0.1233  0.0129
    1W        W45934   4.701  18.778   8.338 -0.0952 -0.0693 -0.2479
    1W        W45935  10.306  27.039   9.643 -0.2615  0.0659  0.3496
    1W        W45936  10.092  13.577   0.049 -0.0937  0.3322  0.1098
    1W        W45937   3.987  21.071   6.054 -0.0100 -0.1167  0.0683
    1W        W45938   5.733  28.459   1.017 -0.0834 -0.0181  0.3914
    1W        W45939   8.305  18.433   8.533 -0.1330  0.0963  0.1667
    1W        W45940   6.083  11.399   7.654  0.0596 -0.0684  0.3119
    1W        W45941  24.463  16.192   2.203  0.4950 -0.4144  0.0190
    1W        W45942  14.764  10.988   9.285  0.2187 -0.0362 -0.2948
    1W        W45943  23.192  29.037   8.981 -0.0279 -0.0489  0.1355
    1W        W45944  22.102  12.095   2.536  0.5218  0.2353  0.0985
    1W        W45945  20.546   5.457   9.266 -0.1438 -0.1200 -0.1551
    1W        W45946  27.126  19.075   2.823 -0.1465 -0.2092  0.1099
    1W        W45947   9.011  17.821   2.845  0.0151  0.0769  0.0154
    1W        W45948  15.129   9.252   1.927 -0.0160  0.1383  0.1241
    1W        W45949  28.573  12.529   7.560 -0.3115  0.2337  0.2029
    1W        W45950  18.566  22.364   9.364 -0.3363  0.0185  0.2750
    1W        W45951  12.041   4.813   8.336 -0.1595  0.1374 -0.0646
    1W        W45952   7.066  23.283   1.436  0.3042 -0.2498  0.2693
    1W        W45953  20.731  28.114   1.538 -0.0907  0.1605  0.0126
    1W        W45954   5.294  21.544   8.237  0.1264 -0.1563  0.1428
    1W        W45955  14.294   8.784   0.940 -0.0414 -0.3939  0.3752
    1W        W45956  14.236   5.413   7.898 -0.0144 -0.0888 -0.3253
    1W        W45957   4.241   8.218   6.856 -0.1018  0.0647 -0.2773
    1W        W45958  27.875  23.259   0.111  0.1280  0.2510 -0.3823
    1W        W45959  29.356   2.519   0.357 -0.0009 -0.1669  0.2933
    1W        W45960  13.535   9.590   8.708  0.3248  0.0633  0.2749
    1W        W45961  11.301  15.046   1.711 -0.0561 -0.2220  0.0164
    1W        W45962  25.745  25.551   8.407  0.3751 -0.1544 -0.2784
    1W        W45963  17.166   0.771   1.975  0.2278 -0.2630  0.3766
    1W        W45964   0.490  28.988   6.952  0.0243 -0.0507  0.1221
    1W        W45965  13.201   1.720   1.846 -0.1131 -0.0293  0.4360
    1W        W45966  15.355  27.860   8.528  0.1127  0.1364  0.0641
    1W        W45967  11.950  25.831   9.254  0.1615  0.2038  0.2176
    1W        W45968  16.629   0.180   0.539  0.0763  0.1307  0.2584
    1W        W45969   6.194  27.407   2.853  0.1779 -0.1379  0.3575
    1W        W45970   2.152  24.735   0.279 -0.1677  0.0462 -0.0030
    1W        W45971   4.457   4.780   8.032  0.1921 -0.0845  0.0048
    1W        W45972  16.636  23.712   2.233 -0.0848  0.1711 -0.1944
    1W        W45973  10.647   3.548   8.097 -0.0675 -0.1333 -0.0144
    1W        W45974   2.383  21.101   0.778  0.2302 -0.4470 -0.0803
    1W        W45975   9.364   6.018   9.213  0.1680 -0.1840  0.2935
    1W        W45976   6.528  10.260   7.805  0.0485  0.0765 -0.1505
    1W        W45977  21.833   9.099   1.791 -0.1424  0.1019  0.0442
    1W        W45978  18.964  21.398   1.198 -0.0559  0.1653 -0.1327
    1W        W45979   9.775  11.747   0.769 -0.1244  0.2064 -0.2665
    1W        W45980   9.528  10.787   7.062 -0.2768 -0.0565  0.0563
    1W        W45981  28.742  17.720   9.235 -0.3132 -0.1037  0.1913
    1W        W45982  10.711   1.236   2.530  0.2834 -0.0719  0.0997
    1W        W45983  25.037  23.078   0.133 -0.3106  0.0086  0.0051
    1W        W45984  28.255   1.338   9.163  0.1189  0.3369  0.1764
    1W        W45985  26.489   1.767   0.635 -0.1276  0.0274 -0.3376
    1W        W45986  14.014  25.645   7.387 -0.1693  0.1666  0.1048
    1W        W45987   9.469   6.479   8.515 -0.2418 -0.4435 -0.3280
    1W        W45988   4.963   0.170   1.501  0.0721 -0.1932  0.2121
    1W        W45989  27.092   4.668   6.119 -0.0229 -0.1413 -0.1513
    1W        W45990  29.120   7.421   1.074  0.2077  0.2621 -0.1858
    1W        W45991  20.024   3.131   9.648 -0.0195  0.0668 -0.1001
    1W        W45992  23.295   6.296   8.825 -0.4207  0.3752  0.0031
    1W        W45993  12.131  16.076   2.092 -0.1967 -0.2336  0.0732
    1W        W45994  27.577  28.244   8.677  0.0579  0.0334  0.0800
    1W        W45995   1.346   9.784   1.370  0.1313  0.1641  0.2046
    1W        W45996   2.427  22.951   1.916  0.1826  0.4158 -0.0903
    1W        W45997  17.210  11.351   8.523  0.0330 -0.0958 -0.0868
    1W        W45998  24.722  21.271   8.323 -0.2880 -0.0124  0.1383
    1W        W45999   2.362   5.449   7.070 -0.2407  0.2103 -0.0569
    1W        W46000  17.527   5.481   0.994  0.0796  0.3175 -0.0059
    1W        W46001   6.700  22.643   0.924 -0.1202  0.0720  0.2106
    1W        W46002   8.912  29.566   6.849  0.0715 -0.0125  0.2478
    1W        W46003  22.709   3.214   7.063 -0.1406 -0.2156  0.1327
    1W        W46004   0.658   5.618   8.348  0.0776 -0.1632 -0.1956
    1W        W46005   0.918  23.421   8.904  0.2337 -0.1341 -0.1849
    1W        W46006   1.866  17.505   9.575 -0.1044 -0.0391  0.2034
    1W        W46007   7.126  11.250   7.334 -0.1152 -0.2074  0.1140
    1W        W46008   8.332   6.521   1.438  0.1031 -0.0234  0.1569
    1W        W46009  12.269  17.270   6.318 -0.0407  0.0092 -0.1489
    1W        W46010   9.673  20.496   7.083 -0.3369  0.4730  0.0982
    1W        W46011  16.449  22.296   0.228  0.0766  0.1423 -0.0016
    1W        W46012  20.913  29.037   1.905  0.1979 -0.0881 -0.0321
    1W        W46013   3.429  10.523   5.455  0.1693 -0.1425 -0.3419
    1W        W46014  11.442   2.191   8.492  0.0764 -0.0832 -0.1889
    1W        W46015  24.774  14.460   0.035 -0.0288  0.2414 -0.0271
    1W        W46016  12.921  12.346   9.101  0.0353 -0.1152  0.0670
    1W        W46017   1.679  12.926   1.117  0.4492  0.0768  0.1583
    1W        W46018  13.381   3.907   6.526  0.1078  0.1670 -0.0195
    1W        W46019   9.885  27.512   9.142 -0.1570 -0.3106  0.2446
    1W        W46020  18.917  18.089   7.940 -0.2237  0.2600 -0.1708
    1W        W46021  11.329   8.531   2.720 -0.0080 -0.2314 -0.2484
    1W        W46022   7.647  16.836   7.198  0.1555  0.0820  0.1568
    1W        W46023  12.635  20.474   9.592  0.2362 -0.0790 -0.0889
    1W        W46024  15.436   7.830   6.660 -0.0568 -0.0718 -0.0344
    1W        W46025  26.562   8.748   8.169 -0.1208  0.0134 -0.0078
    1W        W46026   1.916  22.200   7.989  0.1279  0.1072 -0.0152
    1W        W46027   2.521  11.657   7.584  0.0612  0.1697  0.3449
    1W        W46028  21.684   2.095   0.019 -0.0245 -0.0335 -0.0392
    1W        W46029  17.593  11.566   9.315  0.0466 -0.0138  0.2602
    1W        W46030  28.704  17.269   2.245 -0.0743  0.2126 -0.0111
    1W        W46031   0.027   5.800   0.838 -0.1807  0.1705 -0.3732
    1W        W46032   6.938  14.513   1.956  0.0743 -0.1223  0.0456
    1W        W46033   6.796   6.612   7.540  0.1023  0.4819  0.2229
    1W        W46034  17.933   0.274   8.797  0.0743 -0.0051 -0.1232
    1W        W46035  19.484   6.192   0.677  0.2514 -0.0304  0.1016
    1W        W46036  22.454  23.793   8.665 -0.3724 -0.0966  0.2548
    1W        W46037  25.989  16.783   6.839  0.0805  0.0784  0.3670
    1W        W46038  23.487   4.236   7.815  0.0926 -0.0395  0.2140
    1W        W46039   8.890  23.344   8.323 -0.3871  0.0348 -0.0954
    1W        W46040   9.847  19.073   7.830 -0.5060  0.0241 -0.0037
    1W        W46041  18.452  24.315   0.038  0.1479 -0.4394  0.1331
    1W        W46042   7.177  12.497   7.840 -0.2724  0.1803  0.0764
    1W        W46043   0.505  13.676   9.504 -0.1691 -0.0560  0.4178
    1W        W46044   3.748   5.585   7.005 -0.1631 -0.1969  0.0076
    1W        W46045   7.177  18.781   2.943  0.1445 -0.0340  0.1745
    1W        W46046  18.799  16.842   2.298 -0.0481  0.0158 -0.1167
    1W        W46047  16.053  29.453   6.211 -0.0872  0.0690  0.0267
    1W        W46048   8.936   5.637   1.898 -0.0095  0.0298 -0.1062
    1W        W46049  18.259   2.459   1.747  0.0329 -0.3099  0.0564
    1W        W46050  26.074   2.816   0.809 -0.0166  0.1146  0.0277
    1W        W46051  27.568   7.305   6.996  0.0127  0.1760  0.5163
    1W        W46052  12.008  20.549   1.530  0.0101 -0.0832  0.1698
    1W        W46053   7.973  18.129   8.947 -0.0265  0.0459  0.1602
    1W        W46054  22.848  26.492   0.570  0.1653  0.0504 -0.2700
    1W        W46055  26.389  18.473   0.905 -0.0733 -0.0852 -0.2879
    1W        W46056   0.077  29.572   0.314  0.1680 -0.2206  0.0385
    1W        W46057  13.659  11.405   8.140 -0.0852  0.0172  0.2863
    1W        W46058  11.807  14.051   9.510  0.1588  0.2748 -0.0931
    1W        W46059  10.430  24.507   2.297 -0.1353  0.1628  0.1447
    1W        W46060   2.843   9.681   0.969 -0.0577  0.0501  0.1808
    1W        W46061  22.918  10.681   0.593 -0.1037 -0.2594  0.2092
    1W        W46062  12.953  16.716   2.145  0.1608 -0.0047  0.0333
    1W        W46063  21.207   4.958   0.564 -0.1879 -0.0178 -0.2809
    1W        W46064   4.136   8.926   7.620 -0.0841  0.2325 -0.0538
    1W        W46065  21.115  25.914   3.296 -0.0027  0.0721 -0.1963
    1W        W46066  14.729  24.343   6.713 -0.1961 -0.1841 -0.0137
    1W        W46067  19.403  21.547   7.084  0.2489 -0.2764 -0.3198
    1W        W46068  19.476  13.037   8.069  0.0741  0.1826  0.2440
    1W        W46069   5.969  19.878   8.152 -0.1330 -0.0040 -0.3545
    1W        W46070  25.687  23.558   9.195  0.0163  0.1018 -0.3017
    1W        W46071   4.136  19.967   9.348 -0.0477 -0.2093 -0.1748
    1W        W46072   4.806   1.834   8.149 -0.3481  0.5045 -0.1243
    1W        W46073  28.913   8.020   9.596  0.0727 -0.0517  0.2269
    1W        W46074  20.272   2.915   7.061  0.1713 -0.1214  0.1305
    1W        W46075  14.151  22.916   1.618 -0.0462  0.0327 -0.2435
    1W        W46076   1.736  13.707   1.069 -0.1990  0.0755  0.0013
    1W        W46077   8.996  23.429   7.458 -0.1445 -0.1373 -0.1691
    1W        W46078   5.014  16.310   8.660 -0.1455  0.2675  0.1138
    1W        W46079  14.175  27.007   6.969  0.4406 -0.0384 -0.0592
    1W        W46080  20.722  26.565   8.591 -0.3513 -0.3863 -0.1278
    1W        W46081  11.056  24.201   7.049  0.0468  0.1957 -0.1624
    1W        W46082  26.880  28.056   7.191  0.0291  0.3384  0.2736
    1W        W46083   8.407  10.562   1.941  0.1944  0.2409  0.0725
    1W        W46084  14.473  17.719   7.089 -0.0525 -0.1472 -0.0988
    1W        W46085  17.540   1.886   8.504 -0.2473  0.1167 -0.2419
    1W        W46086  23.096  16.559   2.666 -0.2259 -0.0694  0.0217
    1W        W46087  16.019  26.494   3.411 -0.1072 -0.1651 -0.1248
    1W        W46088  13.002  20.912   9.588  0.0116 -0.2025 -0.0523
    1W        W46089  28.777  26.980   1.761  0.0568 -0.2282  0.2011
    1W        W46090  19.435  18.621   8.433  0.0673 -0.0483 -0.0508
    1W        W46091   4.041  27.198   2.635 -0.0585 -0.2762 -0.1747
    1W        W46092   6.579   8.541   0.651 -0.2918  0.1198 -0.1225
    1W        W46093   8.970   6.534   6.708  0.1685  0.0793 -0.0564
    1W        W46094  15.610   5.998   1.129 -0.0540  0.2280 -0.0177
    1W        W46095  18.867  14.876   0.490  0.2407  0.0697 -0.0979
    1W        W46096   8.954  18.546   9.347 -0.3447  0.0270 -0.3724
    1W        W46097  15.541  29.048   2.509  0.4429  0.0561  0.1902
    1W        W46098  11.492  25.652   7.960  0.1715 -0.0700  0.1205
    1W        W46099  29.390  16.985   7.646  0.0031  0.0081 -0.2348
    1W        W46100  17.233   7.475   2.379  0.0221 -0.0892  0.0129
    1W        W46101   0.486  18.202   7.852  0.0669 -0.0086  0.0186
    1W        W46102  24.768   1.779   8.340 -0.0434  0.1742 -0.1018
    1W        W46103   4.082  29.276   2.436 -0.0400  0.3511  0.2049
    1W        W46104  15.278   4.994   7.628 -0.0970  0.0876 -0.2826
    1W        W46105   9.153  22.439   8.774  0.2277  0.1242 -0.0181
    1W        W46106  21.110   2.774   2.542  0.0611  0.0457 -0.1367
    1W        W46107   3.454  29.182   1.739 -0.0789  0.3667  0.2856
    1W        W46108   0.118  27.696   0.816 -0.1158 -0.2947 -0.1432
    1W        W46109  15.758   3.237   0.314  0.0939 -0.0695 -0.2227
    1W        W46110  14.214   6.101   8.355 -0.0222 -0.2524  0.0466
    1W        W46111  28.537  29.196   6.310  0.0311  0.0541 -0.1949
    1W        W46112   6.899  20.668   2.191  0.0156  0.2707  0.0310
    1W        W46113   3.200  15.291   8.642  0.1943  0.0664 -0.1485
    1W        W46114  27.403  11.478   7.365 -0.3384 -0.1137 -0.1573
    1W        W46115  19.503  10.829   9.499  0.1844  0.1168 -0.1926
    1W        W46116  22.337  27.665   7.071 -0.5062 -0.2624  0.1834
    1W        W46117  16.768  28.594   3.207 -0.0700  0.0739 -0.1718
    1W        W46118  21.986  14.386   2.030  0.0129 -0.0919  0.0425
    1W        W46119  27.967  15.439   6.931 -0.1760 -0.5048 -0.0722
    1W        W46120  25.299  12.926   7.835  0.0505 -0.1331 -0.0637
    1W        W46121  26.045  14.716   2.298 -0.0717 -0.1299  0.0921
    1W        W46122   6.716   4.864   8.933 -0.0495 -0.1073 -0.2577
    1W        W46123  25.647  19.837   7.313 -0.1805 -0.1035  0.0995
    1W        W46124  22.332  18.144   8.841  0.1432  0.1563  0.2843
    1W        W46125  13.038  25.877   8.314  0.2483  0.1696  0.0766
    1W        W46126  17.249  22.299   1.392 -0.0922  0.2742  0.0802
    1W        W46127   5.340  22.839   0.685 -0.3695 -0.1606  0.0972
    1W        W46128   4.090  20.376   8.257  0.0047 -0.0170 -0.1484
    1W        W46129  18.614  24.845   3.635 -0.5439  0.4352  0.4003
    1W        W46130  17.446   5.304   1.916  0.2475  0.0852 -0.1608
    1W        W46131   9.109   9.349   8.090  0.0216  0.0790  0.0086
    1W        W46132  23.512  24.958   9.602  0.0370 -0.0482 -0.3453
    1W        W46133  11.470   1.949   8.078 -0.1217  0.0389 -0.2335
    1W        W46134   9.812  16.683   1.509  0.0006 -0.1524 -0.4215
    1W        W46135  14.872  16.418   8.455  0.0705 -0.2295  0.1277
    1W        W46136  18.629   3.106   9.167 -0.1591 -0.1948  0.2069
    1W        W46137   9.269  10.206   8.331 -0.0180 -0.0274 -0.1549
    1W        W46138   8.164  28.264   6.966  0.3003  0.1846  0.0690
    1W        W46139  18.245   4.886   7.277 -0.1289  0.0360  0.0449
    1W        W46140  20.858   7.016   1.212 -0.0156  0.0112  0.0307
    1W        W46141   5.480   7.988   0.030  0.0171  0.1385  0.1689
    1W        W46142  18.580   8.158   1.979 -0.2041  0.0874  0.1246
    1W        W46143   4.489  25.046   0.502 -0.5086 -0.0222  0.1758
    1W        W46144   5.432   7.484   9.466 -0.1626  0.1129  0.1146
    1W        W46145  17.023  25.568   2.667  0.1416 -0.2587  0.0705
    1W        W46146  10.087  28.086   1.745 -0.1389 -0.3125  0.1545
    1W        W46147   3.245  28.412   2.528 -0.3225  0.0430 -0.0451
    1W        W46148   2.177   7.628   6.220 -0.0192 -0.4943 -0.3639
    1W        W46149   7.890  17.747   1.860  0.0128 -0.1340  0.0413
    1W        W46150  24.219  20.316   3.283  0.0829  0.0744 -0.0236
    1W        W46151  19.864  17.439   2.959 -0.1055 -0.0852  0.0017
    1W        W46152  15.572   3.021   8.803 -0.0297 -0.1782  0.1390
    1W        W46153   1.670  19.242   8.625 -0.1214  0.2368 -0.3655
    1W        W46154   3.726   9.359   1.578 -0.0717 -0.3670  0.2293
    1W        W46155  15.282  26.865   7.704  0.3157  0.2908  0.2451
    1W        W46156  24.658  22.738   0.766 -0.0277 -0.0612 -0.0581
    1W        W46157  11.353   1.616   7.100 -0.0560  0.1559 -0.1089
    1W        W46158  14.808   0.943   9.477  0.2129  0.0265 -0.4290
    1W        W46159   3.327   6.114   0.511  0.0343 -0.0758 -0.0822
    1W        W46160  21.200  28.621   1.861  0.0224 -0.2285  0.2182
    1W        W46161  15.896  24.967   9.554  0.1043 -0.1945 -0.1925
    1W        W46162  14.396  12.048   7.571 -0.2343  0.1084 -0.0771
    1W        W46163   8.219  20.429   6.672 -0.1106 -0.1876 -0.0335
    1W        W46164  24.453  22.194   1.367 -0.0509  0.0921  0.0329
    1W        W46165   8.928  12.830   8.967 -0.2053  0.0571 -0.0541
    1W        W46166   7.605  25.609   2.539  0.2148 -0.0293  0.0503
    1W        W46167  11.830  29.337   0.609  0.2068  0.0758  0.0801
    1W        W46168  27.844  26.742   7.576 -0.0767  0.2357  0.2392
    1W        W46169   8.094   7.759   7.193  0.3567  0.1758 -0.0020
    1W        W46170  14.287   5.101   7.422  0.0117 -0.2506  0.1306
    1W        W46171  25.438  18.859   8.570 -0.0285  0.6096 -0.0270
    1W        W46172  17.479  12.332   8.349  0.0098  0.1080 -0.0394
    1W        W46173   8.138   1.392   9.595 -0.2899  0.2495  0.1267
    1W        W46174  23.440  19.061   0.228  0.1784 -0.0505  0.0141
    1W        W46175  13.490   5.919   8.102 -0.0222  0.2671 -0.0516
    1W        W46176   7.300  11.961   5.915  0.2124 -0.1070 -0.1493
    1W        W46177  13.731   5.927   7.705 -0.1611  0.2581  0.0899
    1W        W46178   6.824  28.896   0.144  0.2214  0.3673  0.0478
    1W        W46179  16.836  16.165   9.032 -0.1573 -0.1069  0.0701
    1W        W46180  10.286  15.581   0.382 -0.3939  0.2896  0.4070
    1W        W46181   6.302   1.007   7.991 -0.0822 -0.0776  0.2080
    1W        W46182   9.159  23.762   6.364  0.3605 -0.0419  0.0821
    1W        W46183   4.810  27.713   2.723  0.1261  0.2332  0.4324
    1W        W46184   2.730  17.248   0.899 -0.2903 -0.2689  0.0124
    1W        W46185  10.989   4.031   0.612  0.0751 -0.1035  0.2908
    1W        W46186  21.947  10.192   7.573 -0.0423 -0.0760 -0.0163
    1W        W46187  25.402  27.933   6.762  0.3589  0.1935 -0.2360
    1W        W46188   3.928  10.344   8.436 -0.1081  0.1454  0.2240
    1W        W46189  18.411   1.212   7.627 -0.0043 -0.3205 -0.1608
    1W        W46190  13.257  10.797   7.791 -0.1386 -0.0942  0.0112
    1W        W46191  14.149  14.386   7.409 -0.2035 -0.0110 -0.0683
    1W        W46192  25.308  16.059   7.791 -0.0626  0.0261  0.1813
    1W        W46193   1.268   1.556   6.655 -0.2677 -0.0375 -0.2412
    1W        W46194   8.926  13.843   1.053 -0.1413  0.0104 -0.0455
    1W        W46195   5.120  14.422   8.975 -0.3323  0.1864 -0.0129
    1W        W46196   7.555   8.867   2.535  0.0776 -0.0915 -0.0038
    1W        W46197  12.798  12.686   6.871 -0.0013 -0.2518  0.0224
    1W        W46198   6.249  12.049   1.367 -0.3245  0.1222  0.0892
    1W        W46199   7.268   8.561   7.631 -0.1055  0.1518 -0.1887
    1W        W46200  14.622  20.145   7.067  0.0392  0.1655  0.2177
    1W        W46201   0.665  10.015   7.968 -0.0630 -0.0237  0.1604
    1W        W46202   6.767   1.888   0.135  0.1376  0.0517  0.2768
    1W        W46203  17.901  25.751   8.308 -0.1891  0.0641  0.0926
    1W        W46204   3.509   9.192   8.421 -0.0042 -0.0677 -0.2301
    1W        W46205   8.493   9.757   1.482 -0.1152 -0.0315 -0.3276
    1W        W46206   1.359  22.886   0.005 -0.0183  0.1536  0.3447
    1W        W46207   1.789  26.426   7.536 -0.1820 -0.2123 -0.3126
    1W        W46208  11.633   3.107   7.278  0.1194 -0.1069 -0.1631
    1W        W46209  15.431  16.225   0.740 -0.0022  0.1439  0.0180
    1W        W46210   4.087  16.794   8.296  0.2519  0.1990  0.0176
    1W        W46211   4.372  28.731   9.586 -0.2976  0.0181 -0.0662
    1W        W46212  26.316  28.056   8.473  0.1032 -0.0673  0.1211
    1W        W46213  18.255   8.042   8.130  0.1537  0.3914 -0.1643
    1W        W46214  26.691   8.595   0.694  0.0760 -0.0193 -0.0983
    1W        W46215  12.040  18.444   9.382 -0.0839  0.0758  0.1329
    1W        W46216   1.786  18.168   2.153  0.0922 -0.0107  0.1779
    1W        W46217   8.512   1.986   1.371 -0.0536  0.0346 -0.1690
    1W        W46218   5.772   8.220   8.276  0.4820  0.0397 -0.0337
    1W        W46219  24.293  19.895   7.707  0.2675  0.0393  0.1250
    1W        W46220   3.261   4.650   8.843  0.0177 -0.2115  0.0441
    1W        W46221  22.095  21.932   3.036  0.0326  0.0824 -0.0012
    1W        W46222   5.201   5.503   2.419  0.0681 -0.3606  0.0155
    1W        W46223   8.125   4.911   0.351  0.0429 -0.1338  0.1475
    1W        W46224  28.229  16.628   0.344  0.0735  0.4047 -0.1496
    1W        W46225  20.131  12.902   1.093  0.2355  0.0016  0.1398
    1W        W46226   6.697  13.446   0.115 -0.2415 -0.0658 -0.0056
    1W        W46227  22.858   7.063   9.182 -0.0228  0.0688 -0.4271
    1W        W46228  20.474  19.449   0.290 -0.0271  0.3752 -0.0088
    1W        W46229  10.120  23.614   1.264 -0.1529 -0.0343  0.3730
    1W        W46230  25.350  24.476   9.177  0.4679  0.0817 -0.2313
    1W        W46231  17.732   3.360   8.633  0.2692 -0.0158 -0.2398
    1W        W46232  26.599   5.420   1.282  0.0377 -0.0279 -0.0755
    1W        W46233  11.631   7.485   6.504 -0.2206  0.0531  0.3617
    1W        W46234  20.263  23.392   2.567 -0.3287 -0.1893  0.0885
    1W        W46235  10.696  22.104   0.611 -0.0087  0.0907 -0.1495
    1W        W46236  26.353  24.715   2.849  0.1141  0.0210 -0.0215
    1W        W46237   4.757  12.438   6.832 -0.0610  0.1195  0.1828
    1W        W46238  26.669   7.096   1.177  0.3801 -0.0842  0.0786
    1W        W46239   8.384   7.060   7.738  0.1823 -0.4232  0.0821
    1W        W46240  14.506  15.714   6.935  0.2727  0.1937 -0.0589
    1W        W46241  10.485  16.090   8.006  0.2991 -0.0723  0.2869
    1W        W46242   3.570  22.789   2.998 -0.1410 -0.1279 -0.0270
    1W        W46243   2.392  12.893   0.506 -0.1157 -0.3069 -0.0130
    1W        W46244  16.293   7.608   7.018 -0.0643 -0.0754  0.1683
    1W        W46245  22.597  13.528   2.251  0.2143  0.1984  0.1292
    1W        W46246   2.427   8.814   1.779  0.0155 -0.1471 -0.1790
    1W        W46247   8.484   3.896   0.450  0.1801 -0.1316  0.0170
    1W        W46248   6.818   1.203   5.713  0.1610  0.2583 -0.0949
    1W        W46249  17.174  28.401   2.229 -0.2162 -0.1830  0.2529
    1W        W46250  23.770  23.364   1.048 -0.2506 -0.0037 -0.1421
    1W        W46251  17.197  23.022   6.803 -0.2423  0.0926 -0.0393
    1W        W46252  18.762   5.652   8.291  0.0896  0.0050  0.1007
    1W        W46253   7.177  27.519   1.385  0.1433  0.0020 -0.0771
    1W        W46254   1.601  21.773   8.108  0.2221 -0.1173  0.2280
    1W        W46255  12.627  22.526   8.089 -0.1219 -0.1168  0.2149
    1W        W46256  16.746  11.081   0.225  0.1500 -0.0646  0.2351
    1W        W46257   8.297  16.506   2.344 -0.0860  0.1928 -0.1596
    1W        W46258  22.399  14.892   8.675 -0.0529 -0.0225  0.3840
    1W        W46259  28.537  23.778   1.990  0.4020  0.2646  0.3680
    1W        W46260  25.769   3.954   8.999 -0.0053 -0.0327  0.0527
    1W        W46261  17.638  14.005   1.371 -0.0983  0.1997 -0.0711
    1W        W46262   1.110   6.367   7.020  0.4631  0.0247  0.0761
    1W        W46263  11.281  10.013   0.305  0.1968  0.0783 -0.2790
    1W        W46264  27.311   4.358   8.172 -0.0795  0.1079  0.0901
    1W        W46265   8.960  21.541   2.225  0.0667 -0.4281 -0.1373
    1W        W46266   7.355   5.655   2.107  0.3747  0.0142 -0.0944
    1W        W46267   9.809  11.126   9.034 -0.1127 -0.1994 -0.1171
    1W        W46268   0.836   2.805   1.398  0.2159  0.0141 -0.1294
    1W        W46269   4.957  25.995   1.659 -0.0346 -0.1268 -0.0227
    1W        W46270   9.578   9.690   0.959 -0.0863  0.3542  0.3386
    1W        W46271   4.237   3.985   1.998 -0.1179  0.1633 -0.3373
    1W        W46272  25.776   3.833   9.487 -0.2083 -0.0387  0.2411
    1W        W46273  17.878   3.514   0.298 -0.1672  0.3649 -0.0509
    1W        W46274  12.286   9.189   6.677  0.0911  0.1168  0.1053
    1W        W46275   8.496   5.605   7.766 -0.3485 -0.0487  0.0313
    1W        W46276   5.780  10.086   8.828 -0.3150  0.1118 -0.5033
    1W        W46277   8.179  10.264   1.547 -0.0214  0.0230  0.0851
    1W        W46278  15.523  29.310   9.339  0.1209  0.0907  0.4378
    1W        W46279   0.601  15.875   2.174  0.5476 -0.2721 -0.0208
    1W        W46280   8.955  18.773   7.927  0.2004  0.1865 -0.3124
    1W        W46281   1.497   1.428   0.501 -0.0009 -0.0175  0.2966
    1W        W46282  10.338  23.828   0.839 -0.0506 -0.0110  0.0272
    1W        W46283   4.152   9.940   9.413  0.0331  0.0376  0.2569
    1W        W46284  18.849  22.240   2.784 -0.2337  0.0116 -0.2051
    1W        W46285   5.014   2.964   0.837 -0.3267  0.0676 -0.0707
    1W        W46286   3.262   5.347   6.931 -0.3676  0.1183 -0.0632
    1W        W46287  22.341   3.059   1.821 -0.0763 -0.0104  0.3172
    1W        W46288  20.591  23.278   7.334  0.0133  0.2108  0.0759
    1W        W46289  26.278  18.013   9.095  0.3074  0.0084  0.1082
    1W        W46290  12.490   4.028   2.784  0.1222 -0.1498  0.0209
    1W        W46291  15.567  15.112   2.443  0.0463 -0.0197 -0.0778
    1W        W46292   4.771   7.513   6.771  0.1898 -0.0372  0.1084
    1W        W46293   2.326  10.795   0.409  0.0153  0.1532  0.0084
    1W        W46294  22.106  14.495   9.020 -0.2006 -0.0497 -0.2621
    1W        W46295  17.429   7.877   1.905 -0.1729  0.0844  0.2769
    1W        W46296  21.352   8.420   6.761 -0.0114 -0.0667 -0.0057
    1W        W46297  25.650   5.778   9.543 -0.2716 -0.1141  0.2665
    1W        W46298   5.896  13.109   0.029 -0.0114 -0.1016  0.0155
    1W        W46299  23.953  18.207   3.071  0.1430  0.0154 -0.0638
    1W        W46300   4.646  22.183   7.170  0.2311 -0.1405 -0.1678
    1W        W46301   8.718  17.598   2.463  0.0008 -0.4404  0.2420
    1W        W46302  10.262  26.770   7.369 -0.1030  0.3072 -0.1841
    1W        W46303  22.477   6.766   2.831 -0.0524 -0.1376  0.0556
    1W        W46304   7.380  13.873   2.599 -0.1393 -0.1095  0.2364
    1W        W46305  27.587  25.413   8.969 -0.1080  0.2786 -0.0793
    1W        W46306   6.688   7.758   1.578  0.3447  0.1479 -0.2280
    1W        W46307  19.741   7.876   1.948 -0.0772 -0.0649 -0.1490
    1W        W46308   9.761   1.274   7.170 -0.2018 -0.0106  0.0045
    1W        W46309  25.537  26.573   7.517 -0.1640 -0.3116 -0.0091
    1W        W46310   0.386   4.055   7.687  0.1388 -0.2202  0.1523
    1W        W46311   9.018  21.999   6.110 -0.0721 -0.1591 -0.0163
    1W        W46312  12.697   3.016   7.810 -0.0216  0.0554  0.1639
    1W        W46313   3.771  12.974   0.818  0.1344 -0.0934  0.2048
    1W        W46314  13.891  19.608   1.015 -0.0650  0.2059 -0.0455
    1W        W46315   1.700  10.033   8.354  0.3274  0.4756  0.0601
    1W        W46316  24.550  18.695   1.790  0.1123 -0.0297  0.1061
    1W        W46317  23.998  22.271   8.359  0.3719 -0.0197 -0.1597
    1W        W46318  28.892   7.474   6.462 -0.1281  0.0190  0.0855
    1W        W46319  27.344   1.524   0.313  0.3600 -0.2665  0.1256
    1W        W46320  25.989  24.333   0.478 -0.1480  0.1929 -0.0283
    1W        W46321   2.830   6.253   6.307 -0.2800 -0.3676 -0.1809
    1W        W46322  18.365   6.290   2.303 -0.1588  0.0019  0.2959
    1W        W46323  27.312  20.644   9.640  0.2128 -0.0271 -0.3152
    1W        W46324   9.803  12.170   6.370 -0.0914 -0.0809 -0.1297
    1W        W46325  20.557   5.302   7.088  0.0694  0.1234 -0.0127
    1W        W46326   6.292  27.330   6.629  0.0941 -0.0813  0.3671
    1W        W46327  26.679  26.119   8.744 -0.0946  0.2362  0.1061
    1W        W46328   0.283  24.619   2.047  0.3392 -0.0957 -0.1262
    1W        W46329  21.309  22.006   1.375  0.1230 -0.0299 -0.1465
    1W        W46330  15.983  14.637   1.027  0.0176 -0.2621 -0.1370
    1W        W46331   2.819   2.290   0.381  0.0658  0.0992  0.1968
    1W        W46332   3.520   1.973   7.552 -0.0127  0.0916  0.1162
    1W        W46333   7.584  28.199   1.319 -0.0475  0.0549  0.0593
    1W        W46334   2.234  26.644   7.859 -0.2443 -0.0650 -0.1186
    1W        W46335  17.526  25.780   3.680 -0.1897 -0.3136  0.3761
    1W        W46336  18.272  20.587   1.188 -0.1879 -0.0947  0.0212
    1W        W46337   8.193   0.862   1.207  0.1259 -0.4618  0.1427
    1W        W46338   5.486  20.693   2.235 -0.0831 -0.0961  0.0160
    1W        W46339  25.461  25.648   7.710  0.3652  0.0697  0.3430
    1W        W46340   0.223  10.436   6.332 -0.1210 -0.1952  0.0378
    1W        W46341  19.124  27.012   2.369  0.0179 -0.0787  0.0433
    1W        W46342   2.999  26.023   0.303 -0.3533 -0.1665 -0.0013
    1W        W46343  18.732  21.129   7.124  0.0939  0.1195 -0.3588
    1W        W46344  13.427  16.725   1.995  0.1433  0.0369  0.1705
    1W        W46345  11.926   2.159   8.622 -0.1319  0.0196 -0.1627
    1W        W46346  27.674   6.971   2.112 -0.2391  0.0648 -0.3166
    1W        W46347  27.237   5.324   9.525  0.0900 -0.2860  0.3493
    1W        W46348  28.926  12.288   2.137  0.1068 -0.4138  0.1688
    1W        W46349   8.094  20.112   8.990 -0.0917 -0.1389 -0.1645
    1W        W46350   4.859   2.361   8.292 -0.1140  0.2777  0.0684
    1W        W46351  28.572  28.315   9.246 -0.1330  0.1404  0.0808
    1W        W46352   1.449  29.534   2.230 -0.2174 -0.2038  0.1221
    1W        W46353   8.943  24.155   7.232 -0.0237 -0.0578 -0.0026
    1W        W46354  21.610  24.452   1.750 -0.1956 -0.0862  0.1724
    1W        W46355  12.483   2.147   1.727  0.2002 -0.0343  0.0067
    1W        W46356  24.238   9.603   0.287 -0.3271  0.0772  0.0012
    1W        W46357   7.273  26.643   8.945 -0.3032  0.1445  0.1530
    1W        W46358   9.671  13.158   7.870 -0.1650  0.0434  0.1021
    1W        W46359   3.014  21.757   9.463  0.2069 -0.0234  0.1463
    1W        W46360   1.508  22.781   1.452  0.3174 -0.1350 -0.0307
    1W        W46361  11.550  15.478   0.626 -0.0158  0.0572 -0.3815
    1W        W46362  12.103   0.029   8.479 -0.0652  0.0247  0.2144
    1W        W46363   8.029  17.471   8.522 -0.2413  0.0696  0.0301
    1W        W46364   3.400  15.387   1.790 -0.0294  0.2660  0.0203
    1W        W46365  13.589  25.055   7.670  0.0743  0.3995 -0.0898
    1W        W46366  13.578   6.437   8.818 -0.1238  0.0438 -0.1059
    1W        W46367  12.737  16.170   8.855  0.2566 -0.2550  0.1899
    1W        W46368   9.496  14.198   8.868 -0.0372 -0.0165  0.0442
    1W        W46369  14.874  21.939   3.019  0.0541  0.2001 -0.0014
    1W        W46370  25.338   9.626   0.577 -0.0725  0.2109 -0.3423
    1W        W46371  11.810  14.616   7.210  0.0322 -0.1100  0.0171
    1W        W46372  14.991  22.405   1.975 -0.1204  0.2885 -0.1923
    1W        W46373  10.942  17.882   7.199  0.2705  0.3139  0.4966
    1W        W46374  16.737   3.258   0.664 -0.1319 -0.0222 -0.1697
    1W        W46375  27.064  17.342   3.333 -0.0586 -0.0725 -0.1240
    1W        W46376   2.315  23.872   2.363  0.1377 -0.0514 -0.1311
    1W        W46377  13.507   3.582   9.451  0.2426 -0.2254  0.0719
    1W        W46378   4.216   5.653   6.371  0.2039  0.0394  0.0430
    1W        W46379  19.503  13.415   1.304  0.1382  0.1643 -0.1261
    1W        W46380  14.370   7.566   0.622 -0.1564 -0.4807 -0.0170
    1W        W46381  10.154  11.874   1.034  0.0047 -0.1617  0.2382
    1W        W46382  23.380   7.976   8.958  0.0119  0.0122  0.1689
    1W        W46383  29.336   9.344   0.169 -0.4240  0.3321 -0.0217
    1W        W46384   5.323  11.896   6.628  0.1788 -0.3243  0.2887
    1W        W46385   5.156  12.391   0.755 -0.1203 -0.0144 -0.0371
    1W        W46386  16.637  15.651   2.290 -0.0188 -0.0968 -0.3036
    1W        W46387  28.925  13.525   2.088 -0.0318  0.1332  0.0903
    1W        W46388  28.920   3.304   8.717 -0.0987 -0.2715 -0.5683
    1W        W46389  13.107  23.423   0.795 -0.3725  0.0420  0.2502
    1W        W46390   1.293  18.820   8.361 -0.1032  0.1720  0.0633
    1W        W46391   4.514  15.594   8.934  0.1103 -0.0175  0.1140
    1W        W46392  27.763  27.233   1.052 -0.0819  0.0262  0.1660
    1W        W46393   6.443   3.153   7.662  0.0772 -0.0154  0.0974
    1W        W46394  27.091  25.455   1.392  0.3126  0.2478  0.1454
    1W        W46395   2.397  25.244   0.970  0.2197  0.1437  0.0233
    1W        W46396  14.290   2.773   8.187  0.4380  0.0032 -0.1356
    1W        W46397  28.486  22.909   7.164  0.1073  0.1413  0.3052
    1W        W46398   0.427  20.481   1.638 -0.1051 -0.0620  0.1415
    1W        W46399  16.306  13.087   0.411  0.0167 -0.1578  0.0550
    1W        W46400  18.042   5.744   7.792 -0.0801 -0.3045  0.2390
    1W        W46401   4.203  20.886   8.334 -0.0349  0.0155  0.0168
    1W        W46402  21.160  12.534   9.263  0.0924 -0.0283 -0.2016
    1W        W46403  26.807  24.126   7.912 -0.3819 -0.0690 -0.0950
    1W        W46404   2.959  21.913   2.132  0.0131 -0.0658 -0.1175
    1W        W46405  24.693  23.873   1.786  0.0690  0.2154  0.1806
    1W        W46406   3.409  17.485   1.210  0.1039  0.2210  0.0240
    1W        W46407  26.120   0.215   9.292 -0.1179 -0.3638 -0.1685
    1W        W46408  10.621  25.136   0.717 -0.1015  0.0825  0.3309
    1W        W46409   4.197  20.007   2.512  0.1963 -0.0438 -0.2091
    1W        W46410   3.690  21.989   7.254 -0.3231  0.0040 -0.0730
    1W        W46411  10.736   8.577   8.311 -0.0758  0.0355  0.2081
    1W        W46412   8.129   6.118   1.052  0.1056  0.1633  0.0950
    1W        W46413   7.928  29.459   1.828  0.0478  0.0137  0.0529
    1W        W46414   1.999  27.746   9.502 -0.1613 -0.2798  0.2464
    1W        W46415  18.796   6.101   7.139 -0.0797 -0.0764 -0.0021
    1W        W46416   2.810  24.157   6.871 -0.0419 -0.0246 -0.0033
    1W        W46417  18.770  23.939   1.776  0.2367  0.1409  0.2733
    1W        W46418   4.882  25.816   0.872 -0.0656 -0.4791  0.0010
    1W        W46419   8.881  14.812   7.715 -0.0178 -0.1630 -0.0154
    1W        W46420   9.645  13.331   6.525 -0.1132 -0.1013 -0.1908
    1W        W46421  26.685   0.687   1.880  0.1514 -0.0663  0.0664
    1W        W46422  14.854  10.523   2.628  0.0155 -0.1416  0.1109
    1W        W46423  12.298  25.597   1.124 -0.0378 -0.2215 -0.1714
    1W        W46424  10.513  10.310   8.626  0.0187  0.0410  0.0897
    1W        W46425   5.114  21.670   9.000  0.1378  0.0487 -0.0521
    1W        W46426   7.839  24.578   2.237  0.4462  0.1237  0.2977
    1W        W46427   5.741  17.200   8.828  0.0941 -0.3025  0.2959
    1W        W46428   9.251   4.634   7.468 -0.1714  0.1057 -0.2257
    1W        W46429   8.709  29.394   5.839 -0.1140 -0.0609 -0.1687
    1W        W46430  21.613  29.608   1.398 -0.2452  0.3570  0.2649
    1W        W46431  17.526  20.262   0.681  0.2145  0.2567 -0.0472
    1W        W46432  11.598  13.327   1.767  0.4006  0.1959 -0.4567
    1W        W46433  13.117  17.421   6.751  0.1124 -0.1399 -0.1458
    1W        W46434  21.694  28.695   0.650  0.0002 -0.0110  0.1424
    1W        W46435  14.329   1.144   7.884  0.1217 -0.0819 -0.1483
    1W        W46436  23.660   1.227   7.336  0.2977  0.1316 -0.1773
    1W        W46437  24.765  25.882   1.215  0.2145  0.0540  0.0969
    1W        W46438   7.197  15.730   1.239  0.2771  0.1878  0.3895
    1W        W46439  25.696  24.857   7.903  0.0368 -0.1448  0.1746
    1W        W46440   9.251  21.167   0.252  0.0270  0.2785  0.0407
    1W        W46441  10.471  26.502   7.023  0.0556  0.3348  0.1780
    1W        W46442  26.838   0.188   1.871  0.1187 -0.1331 -0.2124
    1W        W46443  19.662  26.562   1.565  0.0591 -0.0249 -0.1089
    1W        W46444  23.880   0.355   0.896  0.2209  0.2208  0.1372
    1W        W46445  10.970  19.882   6.699  0.3246 -0.2409  0.2114
    1W        W46446  26.744  17.000   3.129 -0.1070 -0.1504  0.1190
    1W        W46447  24.544  18.794   7.195  0.3015  0.0862 -0.5015
    1W        W46448   1.504  17.188   1.533  0.1773  0.1094  0.0111
    1W        W46449  28.145  17.820   2.469 -0.1441 -0.0907  0.0577
    1W        W46450  12.544   5.765   1.582 -0.1619 -0.1109  0.0947
    1W        W46451   2.214  22.731   8.756 -0.1159 -0.0150 -0.0455
    1W        W46452  28.259  19.202   8.670  0.1374 -0.1832 -0.0568
    1W        W46453   7.555   0.733   8.139  0.2716 -0.4894  0.1110
    1W        W46454  18.714  12.284   8.119  0.3678 -0.1278 -0.0870
    1W        W46455  15.833   0.876   8.479 -0.0832  0.0236  0.1760
    1W        W46456  16.744  18.501   7.218 -0.2883  0.0843 -0.2084
    1W        W46457   5.761  14.245   1.053  0.1184 -0.3047 -0.2186
    1W        W46458   4.152  29.144   7.443 -0.2107  0.0556 -0.1451
    1W        W46459   5.984  23.430   3.325  0.2896 -0.3774 -0.1287
    1W        W46460  17.549  23.146   9.636 -0.0742  0.0106 -0.0745
    1W        W46461  27.619   8.367   7.321  0.1769  0.3966 -0.1340
    1W        W46462  23.335   2.999   1.884  0.0159 -0.4036  0.2370
    1W        W46463  27.869  16.573   8.696  0.0413  0.3706 -0.2919
    1W        W46464  14.320   4.850   2.142  0.0869 -0.2718 -0.0655
    1W        W46465  22.256  14.288   7.162 -0.0358  0.0360  0.1743
    1W        W46466  24.654   1.311   2.541 -0.2313  0.0723 -0.1605
    1W        W46467  21.662   2.387   8.955 -0.0435 -0.0388  0.1531
    1W        W46468  11.776  16.414   2.160 -0.1609 -0.1703  0.3477
    1W        W46469  13.697  11.130   8.985  0.2218 -0.1309 -0.0186
    1W        W46470   6.349  24.304   7.050 -0.0299 -0.0147  0.0662
    1W        W46471   5.699   5.075   0.987 -0.0505 -0.1585  0.0521
    1W        W46472   8.597  25.671   2.758  0.1702 -0.0591  0.0430
    1W        W46473   9.797  17.069   8.132 -0.0908  0.1572  0.3326
    1W        W46474   3.067  22.846   2.906  0.2409  0.2086 -0.2855
    1W        W46475   7.891  16.866   9.340 -0.1102  0.2300 -0.0740
    1W        W46476  22.100   5.871   8.236  0.0315 -0.1404  0.0622
    1W        W46477  22.612   9.292   1.607 -0.2071  0.0241  0.0948
    1W        W46478  18.516   2.473   2.200 -0.1899  0.3976 -0.1622
    1W        W46479   4.476   0.621   1.083 -0.0785 -0.1946  0.1921
    1W        W46480   0.131   9.227   7.689 -0.0991 -0.0958  0.0178
    1W        W46481  27.493   5.916   1.237 -0.1025  0.1162 -0.1822
    1W        W46482  19.648   7.031   8.113 -0.0752 -0.2105  0.2274
    1W        W46483   8.030   5.694   8.738  0.2715  0.0163 -0.0591
    1W        W46484   0.869  19.804   2.560  0.2778  0.1134  0.3679
    1W        W46485  19.102   3.560   1.105  0.0510 -0.0226  0.1887
    1W        W46486  10.419  27.920   2.245 -0.0572 -0.1445  0.1741
    1W        W46487  18.047   8.588   2.067  0.1602 -0.0403  0.3934
    1W        W46488   2.624  18.739   0.182  0.1084 -0.1153 -0.1082
    1W        W46489  19.369   1.185   7.521  0.1629 -0.1419  0.2077
    1W        W46490   3.188  25.053   0.550 -0.2652  0.2331  0.1557
    1W        W46491   1.732  15.838   8.786  0.5117 -0.0011 -0.0438
    1W        W46492  29.279  29.009   2.042  0.2506  0.2815 -0.1114
    1W        W46493   7.409   0.795   1.549 -0.0745 -0.1873 -0.0166
    1W        W46494  19.196   6.813   9.326 -0.1362 -0.2407 -0.2767
    1W        W46495  24.316  15.190   6.649 -0.0070  0.0721  0.0782
    1W        W46496  19.005  23.671   3.183 -0.4420 -0.3165  0.1976
    1W        W46497  13.038  15.719   0.009 -0.0771 -0.0949  0.3229
    1W        W46498   0.272  27.860   8.940 -0.1242 -0.2540  0.1153
    1W        W46499  10.983   6.670   1.237 -0.5469 -0.2106  0.0282
    1W        W46500  26.562  25.756   2.176 -0.1003  0.1579 -0.3685
    1W        W46501  19.938  27.266   2.001 -0.1065  0.0999  0.0775
    1W        W46502  27.014   8.170   8.021 -0.0472 -0.1737  0.2219
    1W        W46503   7.726  28.960   8.777  0.2125  0.1097 -0.2500
    1W        W46504  15.810   2.251   1.327 -0.0607  0.0848 -0.1315
    1W        W46505   1.147  13.528   8.965  0.1703  0.1192  0.2322
    1W        W46506  15.594   1.511   0.601 -0.1306  0.1543  0.0226
    1W        W46507   9.181   6.597   5.738 -0.3124 -0.3209 -0.0223
    1W        W46508  22.633   0.848   2.097  0.1285 -0.0856 -0.1909
    1W        W46509  10.727  26.672   2.939  0.1922  0.0129 -0.1181
    1W        W46510  21.442   8.608   1.038 -0.2837 -0.1687  0.2844
    1W        W46511   8.050   2.171   1.563 -0.0228 -0.0040  0.1692
    1W        W46512   0.960   9.848   6.471  0.0173  0.0591 -0.1358
    1W        W46513  27.234  16.097   7.004 -0.1679 -0.1474 -0.3464
    1W        W46514  16.696   1.482   3.231 -0.1368  0.0744 -0.0236
    1W        W46515  20.385  23.810   8.880  0.2559  0.0094  0.0006
    1W        W46516  14.423  26.603   8.393 -0.0100 -0.2898  0.0055
    1W        W46517   5.367   7.642   1.248 -0.1329 -0.1023 -0.0069
    1W        W46518   3.585  19.246   8.769 -0.2440  0.0708  0.1170
    1W        W46519  18.760  10.781   0.913 -0.1966  0.0663  0.2188
    1W        W46520  22.143   8.719   9.558 -0.1915 -0.0431  0.0377
    1W        W46521  21.491  28.462   2.279 -0.2382 -0.0666  0.0809
    1W        W46522  17.408  24.484   1.050  0.2710 -0.3310 -0.4194
    1W        W46523  21.520   8.213   8.520  0.3172  0.0163  0.1735
    1W        W46524  10.902  29.337   1.921 -0.3796  0.0522  0.1272
    1W        W46525  11.747  20.967   7.928 -0.2437 -0.0821  0.4715
    1W        W46526  28.490  28.246   6.863  0.0089 -0.0076  0.2766
    1W        W46527  10.035   7.254   8.334  0.1187 -0.1692 -0.2005
    1W        W46528  15.209  23.078   2.417 -0.1003  0.4036  0.5176
    1W        W46529   3.727   8.225   2.059 -0.1371  0.1777  0.4510
    1W        W46530  20.975  15.900   2.521  0.1127  0.0261 -0.2271
    1W        W46531   2.028  21.629   0.653 -0.0087 -0.1099  0.0973
    1W        W46532  12.455  24.526   7.897 -0.2312 -0.5111 -0.0963
    1W        W46533  16.377   2.644   8.049 -0.2536 -0.1145 -0.0310
    1W        W46534  24.701  20.197   7.763  0.0671  0.0035  0.3663
    1W        W46535   5.824  26.956   6.054  0.0051 -0.0411 -0.3168
    1W        W46536  17.298   4.023   0.898 -0.2354 -0.3876  0.1267
    1W        W46537  12.244  22.166   1.861  0.3142 -0.1678 -0.0459
    1W        W46538   1.675  24.105   8.147  0.0853 -0.0177 -0.0002
    1W        W46539   5.596   0.063   0.085 -0.1157  0.1860 -0.0517
    1W        W46540   7.298   5.822   6.263  0.0577  0.0103 -0.0555
    1W        W46541  10.841  16.891   0.640 -0.1084  0.2201  0.1105
    1W        W46542  29.347   4.486   9.590 -0.1277 -0.2324  0.1714
    1W        W46543   4.563  22.566   0.459  0.0071 -0.3454  0.0165
    1W        W46544  12.813   8.407   6.739 -0.0365  0.1296 -0.3482
    1W        W46545  26.892  16.417   3.038 -0.1336  0.0611  0.1107
    1W        W46546  29.060  15.875   2.459  0.3014  0.4112  0.2863
    1W        W46547  28.535   5.785   6.563 -0.0460 -0.0321  0.1245
    1W        W46548  27.745   7.009   8.240 -0.0153  0.1979  0.0430
    1W        W46549  28.227  10.002   0.692 -0.3007 -0.1091  0.0123
    1W        W46550   6.351  28.408   8.772 -0.0936  0.3991 -0.0374
    1W        W46551  28.981  18.055   2.923 -0.0441  0.4349 -0.0528
    1W        W46552   5.840  17.642   1.663 -0.0814 -0.0773  0.3229
    1W        W46553   8.225   7.462   0.609  0.0285  0.0305 -0.1412
    1W        W46554   0.778  27.482   1.503 -0.3995  0.3485 -0.2579
    1W        W46555  25.964   3.346   2.284  0.0240  0.2460 -0.1899
    1W        W46556   3.468  26.680   1.270 -0.0068  0.2161 -0.2127
    1W        W46557  11.347  14.388   7.057 -0.2067  0.1799 -0.0354
    1W        W46558  25.232   2.502   8.296 -0.0318 -0.0282  0.1437
    1W        W46559  17.040   2.454   0.280 -0.0469  0.0237 -0.0914
    1W        W46560   5.210  21.972   1.300  0.0427 -0.2282 -0.1324
    1W        W46561  20.541   1.440   9.340  0.2720 -0.2580  0.1532
    1W        W46562  11.683   1.960   7.267  0.0633  0.3584 -0.0062
    1W        W46563   1.448   5.601   1.421 -0.2508 -0.0063 -0.3997
    1W        W46564   5.093  12.695   9.195 -0.1277 -0.0578  0.0048
    1W        W46565  18.117  26.452   8.966  0.0257  0.2005 -0.0666
    1W        W46566  24.518   1.399   8.045  0.1735  0.2342 -0.2023
    1W        W46567  13.713  22.897   8.368  0.4026  0.1067 -0.0607
    1W        W46568  24.362   2.107   0.658 -0.1995 -0.0558  0.0058
    1W        W46569  16.517   6.075   1.295  0.0129  0.0387  0.1877
    1W        W46570  18.734   1.296   6.590 -0.0150  0.0357  0.2027
    1W        W46571  21.576  27.491   2.571 -0.1697  0.0013 -0.4646
    1W        W46572  17.578  14.001   8.760 -0.0952  0.0806 -0.1447
    1W        W46573  15.232   8.342   9.141  0.1938  0.1689  0.1789
    1W        W46574   5.757   3.189   2.312 -0.2178 -0.1034 -0.2913
    1W        W46575  13.941  24.439   9.443  0.1217 -0.0574  0.1539
    1W        W46576  26.548  23.309   1.805  0.2347  0.0264 -0.3029
    1W        W46577  16.431  11.199   8.217  0.1168  0.1038 -0.0476
    1W        W46578   1.534   6.811   7.672 -0.3699  0.0327  0.0970
    1W        W46579   9.416   9.981   9.632 -0.1082 -0.0536 -0.1435
    1W        W46580  21.178  11.525   0.906 -0.1252  0.1647  0.3680
    1W        W46581  14.899  20.815   6.124 -0.1198  0.0790  0.0709
    1W        W46582   2.156  18.718   2.281  0.3951 -0.0892 -0.3175
    1W        W46583  22.938   8.279   2.139 -0.2590 -0.1561  0.1053
    1W        W46584  23.935  20.285   0.032  0.1236 -0.1707  0.3801
    1W        W46585  11.359   1.253   1.244  0.0332 -0.1427  0.1003
    1W        W46586  25.743  19.179   7.588 -0.4411  0.0515 -0.1362
    1W        W46587   8.463  25.520   1.741  0.0124 -0.1496  0.2547
    1W        W46588   0.922  17.601   8.538  0.1296  0.1199  0.0061
    1W        W46589  26.614  28.051   1.678 -0.0906  0.0547 -0.0817
    1W        W46590   1.922  22.550   8.352  0.2674 -0.1761 -0.0906
    1W        W46591   9.888  28.611   6.708  0.2067 -0.0065 -0.2943
    1W        W46592  28.196  16.617   9.506  0.1027  0.3202  0.2696
    1W        W46593   6.311  19.745   0.674 -0.0782 -0.1121 -0.0160
    1W        W46594   0.202  11.361   8.301  0.1783  0.0028 -0.0666
    1W        W46595   9.170  24.804   1.115 -0.0808 -0.2134 -0.0683
    1W        W46596  23.030  21.979   1.737  0.5747  0.1440  0.2642
    1W        W46597   6.848  18.110   1.794  0.1241  0.0141  0.0406
    1W        W46598   8.361  12.424   2.483 -0.0952  0.0300 -0.2135
    1W        W46599   1.594  26.831   9.601 -0.1058  0.1944  0.3841
    1W        W46600   5.897  13.555   2.048  0.3283  0.1443 -0.1814
    1W        W46601  10.716   8.930   7.929 -0.0794 -0.1326 -0.1922
    1W        W46602  29.354   4.846   7.713 -0.0172 -0.1492  0.0339
    1W        W46603   5.014  12.334   7.398 -0.0160 -0.1121  0.0081
    1W        W46604  24.844   2.979   9.351  0.1846 -0.0074 -0.1636
    1W        W46605  13.238  22.275   9.162 -0.0495 -0.0897  0.4114
    1W        W46606  23.820   8.943   0.931 -0.1740 -0.2960  0.1252
    1W        W46607  24.078  16.663   2.667  0.3649 -0.1455  0.2804
    1W        W46608   1.723  17.270   8.637  0.1442 -0.0664  0.1211
    1W        W46609   9.294   0.062   7.395 -0.0366 -0.0459 -0.1150
    1W        W46610  25.208   2.877   1.518  0.3775 -0.2326  0.1894
    1W        W46611  12.324  24.136   7.490 -0.1677 -0.0009  0.3117
    1W        W46612  21.863  18.676   1.971  0.1640 -0.1434 -0.0174
    1W        W46613   3.960   7.847   8.690  0.0536  0.0859 -0.0308
    1W        W46614  12.976  23.084   1.123  0.0402  0.1254  0.4914
    1W        W46615  17.548  10.990   2.662  0.1811  0.0660 -0.1899
    1W        W46616  11.690  17.884   7.820 -0.1391 -0.0646 -0.1205
    1W        W46617  26.456  24.448   2.373 -0.1310  0.1229  0.1892
    1W        W46618   4.336  27.019   3.013 -0.3073 -0.0955 -0.1214
    1W        W46619  24.011   1.012   9.574 -0.2272 -0.3289  0.2091
    1W        W46620  29.282   5.598   6.946  0.0502 -0.0472 -0.2117
    1W        W46621  16.532   8.093   7.305  0.0241 -0.2658  0.0342
    1W        W46622  15.883  19.890   8.191 -0.1346  0.2942  0.0358
    1W        W46623   0.863   0.337   0.282 -0.0140  0.0773 -0.1380
    1W        W46624  19.075   1.056   3.686  0.0836 -0.1811 -0.0099
    1W        W46625   5.863   8.639   0.671  0.3552  0.1226 -0.3919
    1W        W46626  12.628   6.996   7.019  0.3731 -0.2547  0.0901
    1W        W46627   6.721  14.448   9.065  0.0921  0.0805 -0.1520
    1W        W46628  26.559  14.805   0.546 -0.1323 -0.1195 -0.1237
    1W        W46629  15.745  13.774   1.401  0.0943  0.1646  0.0879
    1W        W46630  11.591  14.606   1.976  0.0003  0.3089  0.1240
    1W        W46631   7.293   6.588   7.500 -0.0254 -0.0852  0.3191
    1W        W46632  18.725   7.984   8.262  0.1568 -0.0178  0.2470
    1W        W46633  16.307  18.581   9.459  0.1190 -0.0028 -0.1624
    1W        W46634   7.072  27.862   2.131  0.0125 -0.0168 -0.4490
    1W        W46635   6.592  24.020   9.019 -0.2383 -0.2762 -0.2436
    1W        W46636  11.778   7.379   6.015  0.0449 -0.2414 -0.1137
    1W        W46637   4.476   7.174   1.570 -0.1042 -0.1081 -0.1416
    1W        W46638  20.255  16.127   8.505 -0.0638  0.3159  0.1186
    1W        W46639  27.083   4.756   0.208 -0.1812  0.2419 -0.0809
    1W        W46640   6.391  16.897   2.336 -0.0264 -0.1247  0.1420
    1W        W46641  10.155  22.665   8.814 -0.0390 -0.1339 -0.3637
    1W        W46642  21.004  16.153   0.935 -0.0414 -0.1781  0.1574
    1W        W46643  10.672  14.394   8.862  0.0238 -0.0492  0.1896
    1W        W46644  29.421  21.860   3.170 -0.2452  0.2419 -0.0849
    1W        W46645   1.478  25.164   2.889  0.0510 -0.0748 -0.4212
    1W        W46646  13.290   8.807   7.342  0.1944  0.2979  0.0866
    1W        W46647  13.774  13.403   9.008  0.2681  0.1552  0.0066
    1W        W46648  17.526  21.343   7.988  0.2105 -0.0617 -0.1501
    1W        W46649   7.962  16.095   2.263  0.1276 -0.1703  0.0973
    1W        W46650   4.942  18.299   1.428 -0.2446  0.1462 -0.5109
    1W        W46651  28.109   8.552   7.954  0.0434 -0.1294 -0.2583
    1W        W46652   6.234  16.626   6.916  0.1446  0.0763 -0.0909
    1W        W46653  23.969  28.199   3.305 -0.2254  0.0598 -0.0470
    1W        W46654  25.749  25.914   2.356 -0.2352  0.2548 -0.0379
    1W        W46655  15.585  11.221   0.525  0.1365 -0.1011 -0.0175
    1W        W46656   4.137  28.342   8.128  0.2875  0.2461  0.0987
    1W        W46657  11.033   2.966   0.303 -0.0036  0.0968 -0.0057
    1W        W46658  28.658   2.494   8.502  0.2167  0.1685  0.1477
    1W        W46659   1.571  24.703   8.829  0.0779 -0.2310  0.2770
    1W        W46660  27.417   0.087   2.645 -0.1087  0.2128 -0.0219
    1W        W46661  13.205  12.371   6.697 -0.0844 -0.1732  0.1462
    1W        W46662  12.084  12.811   9.022  0.0535  0.0248 -0.1362
    1W        W46663  15.753  10.138   6.912  0.1534  0.1929 -0.1343
    1W        W46664   3.781  10.768   8.639  0.2268  0.3489  0.1175
    1W        W46665  14.512   4.349   7.411  0.0204  0.0039 -0.0674
    1W        W46666  27.560  12.944   1.488 -0.1237  0.0571  0.1900
    1W        W46667   0.633  20.157   2.334 -0.2610  0.2146 -0.0533
    1W        W46668  17.035   8.318   7.417 -0.2029  0.1525 -0.1048
    1W        W46669  26.834   2.436   9.617  0.0938  0.0632 -0.0071
    1W        W46670   8.187  24.770   6.682  0.0297  0.0480  0.4114
    1W        W46671   0.654   1.590   9.604 -0.0856 -0.0406  0.0460
    1W        W46672  19.976  18.976   1.456  0.1358 -0.0328  0.1775
    1W        W46673  26.768  19.308   9.514 -0.0990  0.0920 -0.1150
    1W        W46674  10.690  12.633   8.666 -0.0996 -0.2915  0.0974
    1W        W46675   6.354  15.935   8.153 -0.0374  0.0292 -0.1894
    1W        W46676   1.789   9.651   1.075  0.2246  0.1418 -0.4657
    1W        W46677  13.757   3.221   6.050  0.1415  0.3449  0.1381
    1W        W46678  12.984   3.303   9.371  0.1512  0.0212 -0.1795
    1W        W46679  20.456  13.405   1.363  0.0884 -0.0865  0.0997
    1W        W46680  11.292   7.210   9.427  0.4328 -0.1108  0.1137
    1W        W46681  21.092  15.053   7.780  0.1102  0.0319 -0.1475
    1W        W46682  10.322  13.354   7.376 -0.2378  0.1921  0.0952
    1W        W46683  17.179   8.550   8.164 -0.3455  0.0392  0.1112
    1W        W46684   1.105  21.373   2.559 -0.1002  0.1537 -0.3289
    1W        W46685  15.498   2.877   7.940 -0.4347 -0.4299 -0.0033
    1W        W46686   6.429  19.209   7.165  0.2931 -0.1056 -0.0948
    1W        W46687   2.358   0.883   8.277  0.2799 -0.3297 -0.2110
    1W        W46688  17.628  13.327   9.357  0.0002  0.2350  0.4895
    1W        W46689  13.912  26.759   8.858 -0.2238  0.0807  0.2288
    1W        W46690  15.714  14.574   8.151 -0.0564  0.2246 -0.2544
    1W        W46691   9.915  10.762   8.010 -0.0409 -0.0948  0.1937
    1W        W46692   2.543  27.336   2.183  0.2410  0.0299  0.1882
    1W        W46693   0.066  11.842   8.424  0.0794 -0.0244  0.1790
    1W        W46694   8.082   1.904   1.149 -0.1132  0.2559 -0.3389
    1W        W46695  12.125   1.673   8.717 -0.0968 -0.2877  0.0799
    1W        W46696  11.972  26.856   2.851  0.4513 -0.0969  0.0462
    1W        W46697   5.538   8.817   8.356 -0.4485 -0.2279  0.0319
    1W        W46698  27.757  27.863   0.001  0.1683  0.0879  0.1052
    1W        W46699  22.478   7.954   9.172  0.1343 -0.2597  0.2870
    1W        W46700   6.650  12.020   0.232 -0.1011  0.1584  0.0289
    1W        W46701  13.915  26.555   8.373 -0.0579  0.0709 -0.2772
    1W        W46702  10.683   1.867   9.443  0.2286 -0.1062 -0.2428
    1W        W46703   4.956   3.711   2.076  0.1163  0.1695  0.1191
    1W        W46704   6.977   6.794   2.866 -0.2508  0.0230  0.0489
    1W        W46705  20.217  19.920   7.729  0.1526  0.1549  0.1538
    1W        W46706  16.393  18.975   1.576 -0.1422 -0.2351  0.2174
    1W        W46707  25.678   1.777   7.920 -0.0826 -0.0480  0.0243
    1W        W46708  12.486   8.068   7.556  0.3477  0.1424 -0.0941
    1W        W46709  16.808  14.485   8.946  0.0580 -0.4263  0.0759
    1W        W46710  28.887  16.368   2.440 -0.2771 -0.1569 -0.0847
    1W        W46711  20.726  24.031   3.676  0.1339  0.1977  0.1953
    1W        W46712   1.118  18.763   2.149  0.3403  0.0121  0.0857
    1W        W46713  23.123  18.248   7.219 -0.0178 -0.1584 -0.1747
    1W        W46714  11.762  23.270   2.608 -0.1818 -0.2109 -0.2419
    1W        W46715  17.879   0.616   8.464  0.1151  0.0178  0.0357
    1W        W46716   3.216   0.260   1.390  0.1036  0.2406 -0.2100
    1W        W46717  19.198   9.317   1.030 -0.0761  0.1590 -0.0498
    1W        W46718   0.077  19.154   8.769 -0.0645  0.1191 -0.0144
    1W        W46719  15.071  15.566   6.852 -0.3192 -0.0275 -0.0938
    1W        W46720  22.369   4.823   7.661 -0.0582 -0.4479 -0.0120
    1W        W46721  10.788  22.319   8.963 -0.0755  0.0444  0.0990
    1W        W46722  13.506   9.748   7.255 -0.0578  0.0025  0.0355
    1W        W46723   6.133  10.760   5.913 -0.4815 -0.2781 -0.0568
    1W        W46724  11.908  23.268   6.789  0.1977 -0.0497  0.1566
    1W        W46725  26.937  29.270   1.838  0.1798 -0.3815  0.2941
    1W        W46726  15.709  20.858   7.632  0.1495  0.0878  0.2268
    1W        W46727  24.964  18.886   8.742  0.1555 -0.2205  0.2457
    1W        W46728  18.056  19.642   6.934  0.3365 -0.1672 -0.0496
    1W        W46729  28.794  23.968   0.800  0.0794  0.3533 -0.0064
    1W        W46730  22.833  15.973   1.322 -0.1320  0.2320 -0.2014
    1W        W46731   5.576  15.386   8.027  0.0742  0.3981  0.0027
    1W        W46732   3.283  11.266   9.139 -0.3037 -0.0079 -0.0015
    1W        W46733  27.939  10.041   7.958 -0.1948  0.0328 -0.2425
    1W        W46734   1.712   8.559   7.250 -0.2841 -0.3158 -0.0265
    1W        W46735  15.145  27.114   8.155 -0.1800 -0.1270  0.2626
    1W        W46736   1.467   5.206   7.719 -0.1078 -0.0482  0.0358
    1W        W46737  11.962   5.495   6.399 -0.0429 -0.0727  0.2197
    1W        W46738  29.401  13.991   9.274  0.3068 -0.1573  0.0810
    1W        W46739  10.779   6.615   0.526  0.4912 -0.0147  0.1563
    1W        W46740  29.108  22.062   9.347 -0.3098 -0.2852 -0.0012
    1W        W46741   0.154   2.300   8.798 -0.2117  0.1025  0.0868
    1W        W46742  21.860  22.640   3.548 -0.0936 -0.0984 -0.2783
    1W        W46743  19.383  25.526   3.659 -0.1883 -0.1641  0.2193
    1W        W46744  13.257  26.808   1.063  0.0087  0.0386  0.2585
    1W        W46745  11.188   5.507   8.143 -0.2067 -0.0124  0.3317
    1W        W46746  23.411   7.738   1.454  0.0740  0.0449  0.0273
    1W        W46747  22.136   7.422   1.424 -0.0720  0.1606 -0.0793
    1W        W46748  12.537   9.242   8.994  0.0941 -0.3545  0.2669
    1W        W46749  10.952  10.043   6.707  0.3815 -0.1447 -0.1378
    1W        W46750  14.854   1.092   8.132 -0.1756 -0.0756 -0.1296
    1W        W46751  10.308  11.653   6.389 -0.0465 -0.0820  0.2539
    1W        W46752   0.629  20.332   2.826 -0.2204 -0.1460 -0.0688
    1W        W46753   4.724  12.009   5.817 -0.0855 -0.0813  0.1325
    1W        W46754  26.017  27.638   9.266  0.1866  0.1513  0.0205
    1W        W46755   8.249   2.318   8.146 -0.0461  0.1313  0.3697
    1W        W46756  17.342  25.786   0.193 -0.0022 -0.1015 -0.0736
    1W        W46757  23.887  29.504   9.263 -0.2870 -0.0169 -0.0690
    1W        W46758  27.628   9.423   8.311  0.0579  0.0390  0.0808
    1W        W46759  10.706   1.643   2.296 -0.1726 -0.1616 -0.1073
    1W        W46760  14.997   0.334   8.766  0.0566 -0.2100  0.0127
    1W        W46761  23.153   3.364   2.309 -0.0382 -0.0423 -0.0144
    1W        W46762  20.750   0.089   3.097 -0.0997 -0.0685 -0.3520
    1W        W46763  16.993   2.450   1.406  0.0803 -0.0110 -0.4021
    1W        W46764  26.395  28.678   9.532 -0.0422  0.4724 -0.2829
    1W        W46765  21.021   3.807   1.575  0.0699  0.2195 -0.4370
    1W        W46766   5.877   9.595   7.521  0.3314  0.3762 -0.2088
    1W        W46767   1.152  10.652   9.648  0.0101 -0.0868  0.1382
    1W        W46768   1.016   3.394   6.275 -0.0049 -0.0076 -0.1811
    1W        W46769  22.564  19.131   1.412 -0.1554  0.0818  0.2179
    1W        W46770  26.876  27.786   1.980  0.0407  0.2371  0.0354
    1W        W46771   0.151  12.355   8.818 -0.2972 -0.1265 -0.4120
    1W        W46772  26.224   7.246   8.294 -0.2520 -0.1208 -0.1106
    1W        W46773  14.127  25.678   1.812  0.3404 -0.4513 -0.1458
    1W        W46774  23.663  19.270   3.331 -0.1804  0.1361 -0.0369
    1W        W46775  28.058  11.946   8.949  0.1268 -0.0480  0.1834
    1W        W46776   9.134  27.878   8.933 -0.2464  0.0598  0.3622
    1W        W46777  15.157  13.884   3.230  0.0314  0.1144 -0.2544
    1W        W46778  17.220  17.995   9.310  0.2446 -0.0781 -0.0969
    1W        W46779  14.912  28.413   7.790 -0.1627  0.1799 -0.0520
    1W        W46780   1.688  21.104   0.281  0.2254 -0.2688  0.0749
    1W        W46781  25.632  13.660   8.672 -0.2283  0.0332 -0.1028
    1W        W46782   2.338  21.684   3.211 -0.1848  0.1332  0.1229
    1W        W46783   6.555   5.730   1.538  0.3650  0.0306  0.0144
    1W        W46784  29.574  23.413   7.687  0.0674 -0.2373 -0.0674
    1W        W46785  13.821  10.959   0.261  0.0556  0.0884  0.0367
    1W        W46786  11.591   8.793   7.713  0.1427  0.0614 -0.0219
    1W        W46787  16.928  28.268   7.465 -0.2424  0.3004 -0.1798
    1W        W46788  14.147   2.422   6.994  0.0016  0.3570  0.0720
    1W        W46789   3.282  15.444   8.114  0.1228  0.2204  0.4408
    1W        W46790   7.348  21.219   0.638  0.0999 -0.0562 -0.0860
    1W        W46791   6.525  28.732   1.410  0.0176 -0.2439 -0.1195
    1W        W46792   7.207  18.063   1.410  0.3910  0.0394  0.2603
    1W        W46793   8.382   5.008   6.255  0.0733 -0.0580 -0.2986
    1W        W46794  24.634  16.064   7.994  0.0484 -0.0816  0.0714
    1W        W46795  21.189  27.553   0.503 -0.0087 -0.0103 -0.1632
    1W        W46796  21.861  28.708   8.290 -0.0390 -0.0737  0.3438
    1W        W46797   0.491  18.877   3.056 -0.0375 -0.1280 -0.2041
    1W        W46798   4.453  20.067   0.199  0.1894  0.1948 -0.0672
    1W        W46799   9.609  13.143   8.365  0.2369  0.2578  0.2060
    1W        W46800   8.075  24.341   7.964  0.1066 -0.2698  0.0114
    1W        W46801  25.655  21.719   3.667 -0.3720  0.4000 -0.1939
    1W        W46802  11.634   3.301   7.759 -0.0091 -0.1580 -0.0064
    1W        W46803   4.322  16.142   9.278  0.0402  0.1212 -0.0191
    1W        W46804   5.147   3.384   6.650  0.1365 -0.2413  0.2629
    1W        W46805  17.435  18.182   8.938 -0.3200 -0.1518 -0.0994
    1W        W46806  21.204  24.556   2.884  0.1423  0.1548 -0.1034
    1W        W46807  13.070  14.714   9.159  0.1528  0.0099  0.4654
    1W        W46808  17.770   0.040   7.595 -0.0468  0.0115 -0.2345
    1W        W46809   6.882   6.960   7.897 -0.0248 -0.1703  0.2811
    1W        W46810  14.721  26.357   9.593 -0.3538  0.0101 -0.0948
    1W        W46811  27.171  12.647   2.144  0.0722 -0.1035  0.0747
    1W        W46812   0.518  19.036   1.142 -0.1092 -0.0312 -0.0505
    1W        W46813  15.229  10.098   7.591  0.2755  0.1653  0.0353
    1W        W46814  25.629  18.367   0.404 -0.0358  0.0535 -0.2606
    1W        W46815  20.594   9.909   1.142 -0.4255 -0.1572 -0.1338
    1W        W46816   6.758  28.675   6.099  0.2333  0.1625 -0.1774
    1W        W46817  18.254  28.129   3.052 -0.1114  0.3240 -0.0655
    1W        W46818  16.315  15.985   2.251  0.0316 -0.1843  0.1828
    1W        W46819  16.588  19.216   7.708 -0.1659  0.3886 -0.0772
    1W        W46820   7.780  23.533   0.630  0.3242 -0.0802 -0.1829
    1W        W46821  13.993  20.175   0.754 -0.0815  0.1998 -0.1030
    1W        W46822  12.330   4.832   7.239 -0.0060  0.3369  0.2685
    1W        W46823  19.045  29.377   7.980  0.1306 -0.2987  0.0174
    1W        W46824   6.956  20.353   0.539 -0.1343  0.1954  0.1228
    1W        W46825  11.481  19.298   2.943 -0.2481 -0.0079  0.4833
    1W        W46826   1.117  10.140   8.113  0.1297  0.0408 -0.1527
    1W        W46827  25.136  12.163   2.409  0.2663  0.0659 -0.0404
    1W        W46828  24.733  10.907   1.630 -0.1447 -0.1589 -0.3518
    1W        W46829  25.901  19.319   0.301 -0.0320  0.1329 -0.0578
    1W        W46830  25.707  17.985   8.721 -0.1558  0.0640  0.2018
    1W        W46831   9.567  26.819   9.446 -0.2136 -0.2394 -0.3665
    1W        W46832  11.700  18.774   7.397  0.3172 -0.1510  0.1239
    1W        W46833  16.635  25.916   7.100 -0.0476  0.2542  0.1334
    1W        W46834  18.726  17.555   9.079  0.0628 -0.1616 -0.0709
    1W        W46835   2.202  13.415   2.594  0.2680  0.0749 -0.0627
    1W        W46836  14.884   6.449   8.910  0.3345  0.0709  0.2380
    1W        W46837   3.049   6.736   8.329 -0.1993 -0.1179  0.0839
    1W        W46838  25.856  23.554   2.932  0.0314 -0.0238 -0.1148
    1W        W46839  10.860   1.008   1.169  0.0281  0.0093 -0.2234
    1W        W46840  20.891  16.910   8.252  0.3278  0.1412 -0.0445
    1W        W46841  18.610  16.007   8.610 -0.0850 -0.1328  0.4428
    1W        W46842  21.029  27.789   3.830  0.2064 -0.1209 -0.2955
    1W        W46843   1.963  23.094   1.816  0.1446  0.1773  0.1085
    1W        W46844  14.461  10.265   7.519 -0.0004  0.0753  0.2618
    1W        W46845  18.140   9.341   8.272 -0.1338 -0.0138 -0.0698
    1W        W46846   1.885   1.560   1.433  0.2568  0.0775 -0.0132
    1W        W46847  24.252  18.580   1.288 -0.2687  0.0290 -0.1089
    1W        W46848   7.992  25.262   1.465 -0.1063  0.2788 -0.0120
    1W        W46849   8.009  14.681   6.722 -0.2061 -0.4719  0.0371
    1W        W46850   3.370  21.654   6.418 -0.1260  0.0879  0.4293
    1W        W46851   4.011  17.348   6.879  0.0265  0.1438 -0.1682
    1W        W46852  14.107   6.370   7.704 -0.0845  0.0616 -0.0798
    1W        W46853   3.895   4.210   9.280  0.1055  0.1646  0.2368
    1W        W46854   1.997  25.126   0.640  0.1577 -0.1311 -0.0258
    1W        W46855  19.383  29.524   8.354 -0.1047  0.1155 -0.0083
    1W        W46856  25.038   2.054   9.143  0.1208  0.1040 -0.3752
    1W        W46857  29.007   8.810   8.380 -0.1381  0.0880  0.2425
    1W        W46858  26.033   2.000   8.183  0.1316 -0.2060  0.3662
    1W        W46859  20.304  11.022   9.627  0.2723  0.1525 -0.3538
    1W        W46860  21.736  11.663   1.199  0.0709 -0.0809 -0.0080
    1W        W46861  12.101  13.492   2.686 -0.2057 -0.3437 -0.2735
    1W        W46862   0.517  21.795   3.858 -0.4038  0.2802  0.1572
    1W        W46863  18.640   6.995   8.438  0.0394  0.0804  0.1672
    1W        W46864  10.464   3.286   2.396  0.2549 -0.0351  0.1396
    1W        W46865  12.305   2.779   8.224  0.1274  0.1629  0.0361
    1W        W46866   4.190  10.562   6.975  0.2001 -0.0057 -0.3142
    1W        W46867  16.599  25.516   1.741 -0.2648  0.3501 -0.2145
    1W        W46868   8.182  16.764   7.304 -0.0281  0.1589 -0.0551
    1W        W46869  19.642  14.721   0.150  0.2118  0.0043  0.1362
    1W        W46870  15.719  20.265   9.538 -0.1583  0.0233  0.0894
    1W        W46871  20.935  10.606   7.816  0.1137 -0.1640  0.0619
    1W        W46872   0.919  13.916   0.680 -0.1924 -0.2880  0.1298
    1W        W46873  27.965   3.329   6.588 -0.0269  0.3137  0.0116
    1W        W46874  26.091  26.658   3.354 -0.0873 -0.0043  0.1462
    1W        W46875  13.929  15.763   9.014 -0.2975 -0.0898  0.0364
    1W        W46876  13.653  25.900   7.249  0.3361 -0.1517  0.3817
    1W        W46877  16.945  25.045   7.006 -0.1188 -0.0169  0.0544
    1W        W46878  26.595  21.022   2.014  0.4228 -0.3719  0.1094
    1W        W46879   1.028  12.743   8.045 -0.1117 -0.0702 -0.1085
    1W        W46880  26.837   4.591   1.121  0.3113 -0.1003 -0.1305
    1W        W46881   3.338   2.394   8.829  0.0058 -0.0973  0.1553
    1W        W46882  26.126   9.675   8.843  0.0090 -0.0055 -0.3337
    1W        W46883  20.801   5.066   9.422 -0.1141  0.0811 -0.0479
    1W        W46884   8.612  25.079   8.170  0.0997 -0.1490  0.2501
    1W        W46885  15.643   2.109   0.356 -0.0678 -0.0897  0.0386
    1W        W46886  26.135  28.486   2.198  0.1231 -0.0839  0.1252
    1W        W46887  18.688  20.293   2.512  0.2203 -0.0890  0.0042
    1W        W46888   3.487   1.620   0.712 -0.2249 -0.2841 -0.2302
    1W        W46889   1.942  13.366   9.253  0.1226  0.0666  0.1127
    1W        W46890  17.055  18.885   7.541 -0.1307  0.0752 -0.0261
    1W        W46891   1.798   6.057   8.714  0.1668  0.1934 -0.0412
    1W        W46892  19.609   1.262   9.420  0.1010  0.3715 -0.1807
    1W        W46893  28.862  14.214   1.351 -0.1668  0.2459  0.1766
    1W        W46894   5.796   7.119   5.876  0.2067  0.1125  0.0027
    1W        W46895  20.397   7.290   8.550 -0.1699 -0.3306 -0.1773
    1W        W46896   1.826   8.507   7.818 -0.0319 -0.0213 -0.0035
    1W        W46897  16.574  23.231   1.476 -0.1451  0.4235  0.1891
    1W        W46898  13.394  16.426   7.282  0.0988 -0.0941 -0.0124
    1W        W46899  17.759  16.521   7.710 -0.1727 -0.1070  0.2698
    1W        W46900  21.912   5.543   7.936  0.2312  0.0123 -0.4843
    1W        W46901   6.643  12.220   1.592  0.1614  0.3266 -0.2967
    1W        W46902  26.891  21.307   2.858 -0.6331  0.0382 -0.1203
    1W        W46903   4.704  10.463   7.037  0.4650  0.1170  0.0044
    1W        W46904   6.070   3.078   6.473  0.1245  0.1126 -0.3620
    1W        W46905   7.056  18.674   7.785 -0.0842  0.4220  0.2577
    1W        W46906  11.474   2.075   0.652 -0.0113 -0.0339 -0.1250
    1W        W46907   5.807  28.969   1.105 -0.2232 -0.0546 -0.1439
    1W        W46908   6.114  23.122   1.301  0.2804 -0.0050  0.0900
    1W        W46909   3.065   7.652   1.253  0.0286  0.0252 -0.1723
    1W        W46910   2.205  16.548   7.267 -0.1366 -0.0851  0.3262
    1W        W46911   2.831   2.092   8.066 -0.0915 -0.2308  0.2762
    1W        W46912  24.434   6.678   9.332  0.2483  0.1227 -0.1254
    1W        W46913  21.696  21.615   0.119  0.3319 -0.4313 -0.0554
    1W        W46914   3.776  24.512   0.830  0.1234  0.1915  0.1545
    1W        W46915  17.660   6.132   9.582  0.0743  0.0221  0.1304
    1W        W46916  23.572  19.375   2.498 -0.0432  0.1095 -0.0718
    1W        W46917   3.914  27.693   7.126  0.0112  0.0001 -0.1461
    1W        W46918  20.888  18.387   7.848  0.1829 -0.0473  0.1680
    1W        W46919  18.816   7.899   1.367  0.0070 -0.1370 -0.3833
    1W        W46920  29.051  26.765   9.095  0.0072  0.1928 -0.0550
    1W        W46921  14.872   6.077   0.562  0.0744 -0.0499 -0.5936
    1W        W46922  11.694   1.098   0.331 -0.0463  0.3400 -0.3172
    1W        W46923  19.756   5.523   1.379  0.1558  0.4571 -0.3583
    1W        W46924  17.637  26.166   9.619  0.2156  0.1573  0.2198
    1W        W46925  22.726   3.004   9.421  0.2622 -0.0446 -0.3108
    1W        W46926   8.781  27.004   0.215  0.1905  0.0327  0.1439
    1W        W46927  17.941  28.943   7.365 -0.1280  0.2452  0.1054
    1W        W46928  15.340   6.263   7.232  0.0993  0.0150 -0.1228
    1W        W46929  23.607   0.333   2.685 -0.0045 -0.0357  0.0376
    1W        W46930   7.849  21.130   2.038 -0.1543  0.4689 -0.0630
    1W        W46931  28.934   9.175   7.906 -0.1985 -0.2933 -0.0336
    1W        W46932  22.434  26.615   3.435  0.1602 -0.0833  0.3372
    1W        W46933   9.598  21.464   1.172  0.0680 -0.2002 -0.0870
    1W        W46934  26.084  23.847   0.363 -0.0579  0.0772  0.0329
    1W        W46935   1.807  18.734   8.467 -0.0299  0.0932  0.0600
    1W        W46936  12.492   4.444   2.413 -0.0256  0.1283  0.2982
    1W        W46937  11.556   7.963   0.487  0.2567 -0.1438 -0.0573
    1W        W46938  26.096   9.403   1.766 -0.1419 -0.0142  0.0591
    1W        W46939   9.000  25.098   7.806 -0.2079  0.1320 -0.1846
    1W        W46940  24.605  18.970   1.278 -0.3151 -0.3371 -0.4095
    1W        W46941  24.026   8.884   8.046  0.0705  0.0045 -0.1442
    1W        W46942  29.398  10.586   1.482  0.1227 -0.1608 -0.1134
    1W        W46943  24.779  24.531   0.292  0.0063  0.0118  0.2974
    1W        W46944  24.568   2.024   8.852  0.2585 -0.2298 -0.1494
    1W        W46945  21.505   8.102   0.122  0.2265 -0.1487  0.3709
    1W        W46946  21.369   7.921   9.273  0.1067  0.1223 -0.3079
    1W        W46947   8.080   3.862   6.972 -0.3157 -0.1958 -0.0852
    1W        W46948  25.105  25.602   0.939 -0.0064 -0.1872  0.0715
    1W        W46949  18.612   3.114   7.014 -0.5379 -0.0536 -0.2245
    1W        W46950  23.142  22.661   4.029  0.2880  0.0374  0.0477
    1W        W46951  24.918   1.233   2.107 -0.1084  0.0001 -0.0386
    1W        W46952  12.682   6.481   6.755  0.2729  0.0800  0.1678
    1W        W46953  20.144  17.362   8.446 -0.0368  0.1700 -0.2289
    1W        W46954  28.918  20.637   0.620  0.0433  0.2481  0.1310
    1W        W46955  27.204   2.957   8.462 -0.1398 -0.2134 -0.2145
    1W        W46956  16.373   3.592   6.465  0.2382  0.0539 -0.2020
    1W        W46957  11.893  23.652   0.548  0.2511 -0.0619 -0.0642
    1W        W46958  19.567  15.636   1.838  0.0439  0.2311  0.1229
    1W        W46959  21.178  24.139   8.024  0.2277  0.0561 -0.0290
    1W        W46960  21.958   0.688   7.729 -0.2674 -0.1850 -0.2778
    1W        W46961  20.407   3.687   0.828  0.1939  0.2458  0.3179
    1W        W46962   5.783  13.497   9.279  0.1047  0.2622  0.1040
    1W        W46963  14.805  25.524   2.233 -0.3645  0.2850  0.1181
    1W        W46964  24.172  22.349   7.489  0.0509  0.0156  0.3962
    1W        W46965   4.254  29.354   6.875  0.2793 -0.1089 -0.3387
    1W        W46966  28.103  25.080   1.128  0.2262 -0.3495  0.0267
    1W        W46967  28.198   8.861   1.408 -0.0511  0.0007 -0.2147
    1W        W46968  14.268  13.847   1.390  0.1309  0.3294  0.0002
    1W        W46969  24.719   6.574   1.127  0.1473  0.1037  0.1051
    1W        W46970  21.844  13.641   9.037 -0.2531  0.0042 -0.2284
    1W        W46971   0.800  22.678   7.924 -0.0524  0.2076  0.3428
    1W        W46972  28.566  23.577   1.497  0.0158  0.2946  0.2112
    1W        W46973   1.721  29.491   8.714 -0.3815  0.0930 -0.2229
    1W        W46974  15.733   8.122   9.581  0.2433  0.0198  0.2457
    1W        W46975   4.267  18.398   0.955  0.0063  0.1133  0.1560
    1W        W46976  26.093  18.106   8.161 -0.0048  0.3401  0.0138
    1W        W46977  26.741  19.007   6.841 -0.2260 -0.0060  0.0144
    1W        W46978   1.208  10.982   1.889 -0.1771 -0.2316 -0.0263
    1W        W46979  16.014  16.009   7.955 -0.1187  0.3000 -0.2259
    1W        W46980   4.821  22.425   2.330 -0.2358  0.0734  0.1119
    1W        W46981  25.683   5.345   0.627 -0.1291  0.1670  0.2233
    1W        W46982  26.614  27.441   0.833 -0.1594  0.2158 -0.0002
    1W        W46983  10.881   4.309   8.343  0.0626 -0.3315  0.1469
    1W        W46984  28.321  20.864   0.710 -0.3384  0.2813 -0.0028
    1W        W46985  12.537  14.462   9.307 -0.0859 -0.0410  0.0359
    1W        W46986   2.755   5.238   6.846  0.1341 -0.1197 -0.0946
    1W        W46987  16.142  18.970   7.952 -0.2932  0.2769  0.2977
    1W        W46988  28.548  26.823   9.227 -0.0503 -0.2099 -0.0279
    1W        W46989  22.381  15.330   9.345 -0.2898 -0.1053  0.5154
    1W        W46990  26.559  22.105   3.956  0.0431  0.2425  0.2487
    1W        W46991   0.774   3.451   2.255 -0.2920 -0.0266  0.2715
    1W        W46992   2.844  13.674   9.599  0.0872 -0.1411  0.0236
    1W        W46993  15.892   7.858   8.763  0.0041 -0.1956  0.0604
    1W        W46994  17.417  19.094   8.423 -0.0813 -0.0701  0.0767
    1W        W46995  17.254  18.355   0.706  0.0091 -0.0563 -0.0443
    1W        W46996  18.173  21.899   7.922  0.1340 -0.2329  0.2445
    1W        W46997  12.024   5.878   1.432 -0.1819  0.0147  0.4630
    1W        W46998   8.770  20.058   0.561 -0.2577  0.1046  0.1708
    1W        W46999  13.813  21.206   9.361 -0.4754  0.2484  0.2764
    1W        W47000  20.037  20.253   8.026  0.1074 -0.0891 -0.0382
    1W        W47001   2.122   3.940   6.338  0.1086  0.2598 -0.0032
    1W        W47002   6.477  14.889   9.277  0.1182  0.0897  0.1876
    1W        W47003  17.233   9.484   1.948  0.0042 -0.0715  0.1286
    1W        W47004  22.735  15.449   8.631  0.1667  0.0199 -0.3486
    1W        W47005  27.741  18.574   7.666 -0.0561  0.0123 -0.0569
    1W        W47006   5.415   2.643   1.261 -0.0960 -0.2557 -0.1428
    1W        W47007   4.813   4.018   8.003  0.4494  0.0606 -0.0104
    1W        W47008  18.997  13.072   0.258 -0.3205  0.1058 -0.0886
    1W        W47009  16.665   1.073   2.808  0.3004 -0.1138 -0.0449
    1W        W47010  12.146  27.417   8.002  0.2345  0.0613 -0.2280
    1W        W47011  17.839  18.586   2.745  0.1300 -0.1716 -0.0985
    1W        W47012   3.818  22.254   1.350  0.0963  0.1022 -0.2412
    1W        W47013   9.401   1.389   0.523 -0.1702 -0.0389  0.0041
    1W        W47014  29.613   0.564   7.256 -0.1674 -0.0796 -0.1211
    1W        W47015  27.460  19.899   8.724  0.1746  0.1702  0.1806
    1W        W47016  24.251   1.976   0.052  0.0105  0.0492 -0.1465
    1W        W47017   6.994   2.214   6.711  0.5168 -0.0578 -0.1054
    1W        W47018  26.694   4.755   2.123  0.2341  0.0665  0.1245
    1W        W47019  18.845  24.634   2.437 -0.2786 -0.0196  0.3468
    1W        W47020  19.398   7.460   8.876  0.0158 -0.2119  0.0476
    1W        W47021  20.332   3.229   2.952 -0.3749 -0.0116  0.1734
    1W        W47022  29.188  12.578   9.132  0.0537  0.0715 -0.0743
    1W        W47023  16.054   5.176   9.478  0.3836 -0.0023  0.0853
    1W        W47024   0.967   8.541   0.220  0.1205 -0.1115  0.1586
    1W        W47025  25.664  27.146   2.773 -0.2805  0.3495  0.0863
    1W        W47026  16.240  13.901   9.165 -0.2945  0.2030 -0.0869
    1W        W47027  11.570   6.311   7.129 -0.1068  0.0151  0.3291
    1W        W47028  17.172  24.171   8.193 -0.1224  0.2680  0.1276
    1W        W47029   1.116   2.829   9.345  0.2410  0.2632  0.0480
    1W        W47030  20.154   2.171   7.416 -0.2701 -0.2844 -0.0021
    1W        W47031  27.217   3.858   0.500 -0.3423 -0.0477 -0.2277
    1W        W47032  13.710  21.000   2.084 -0.3480  0.2685 -0.0476
    1W        W47033  22.580  23.194   8.650 -0.2886  0.1002 -0.0469
    1W        W47034   0.440   1.074   1.963  0.1357  0.2550  0.1049
    1W        W47035  18.355   6.868   7.375 -0.2593  0.1738 -0.1055
    1W        W47036   5.455  15.079   7.307 -0.0889 -0.2131 -0.0442
    1W        W47037  26.285  18.397   7.509  0.3184 -0.0268 -0.3001
    1W        W47038  24.177   3.645   7.518  0.0958 -0.0572 -0.1724
    1W        W47039   5.419   3.477   0.016 -0.1036  0.2964 -0.0035
    1W        W47040  12.478  14.598   2.009 -0.1325  0.1879 -0.0650
    1W        W47041  24.057   4.746   1.762  0.0810 -0.2010 -0.0021
    1W        W47042  10.587  24.558   6.905 -0.0225  0.3190 -0.2281
    1W        W47043  23.013  15.522   2.976  0.3227  0.1803 -0.0165
    1W        W47044  16.937  29.245   7.286 -0.2186 -0.1192  0.1972
    1W        W47045  13.119   0.044   7.512  0.0455  0.0814 -0.0706
    1W        W47046   9.745  23.173   8.051  0.0586  0.1965  0.1758
    1W        W47047   9.333   6.335   1.573  0.1180  0.0214 -0.1001
    1W        W47048  10.739  28.738   6.807 -0.0187 -0.0525  0.0211
    1W        W47049  14.237  11.572   1.320 -0.1208 -0.1148 -0.3403
    1W        W47050   5.799   8.608   1.168  0.2312  0.0650  0.0606
    1W        W47051  15.827  28.091   2.623 -0.1654 -0.2911 -0.1255
    1W        W47052   5.510  15.419   8.581  0.0588  0.3335 -0.0960
    1W        W47053  16.875  12.399   6.740 -0.0763 -0.1194  0.2063
    1W        W47054  25.020   5.020   9.208 -0.1100  0.0752 -0.0648
    1W        W47055  11.412   9.060   2.582  0.0589  0.1221  0.1719
    1W        W47056  19.195  22.090   9.462  0.1216  0.0247 -0.0296
    1W        W47057   9.962  17.776   1.056  0.0508 -0.5004 -0.1258
    1W        W47058   4.792  29.568   8.307  0.1169 -0.2238 -0.0314
    1W        W47059  10.515  11.226   6.346 -0.4444  0.0990 -0.2877
    1W        W47060   8.361  28.771   6.955 -0.2086  0.1186 -0.1088
    1W        W47061  17.915  26.039   2.247  0.3661  0.2222 -0.0243
    1W        W47062  22.658  10.884   1.730  0.1783  0.0025 -0.2097
    1W        W47063   3.735  11.653   7.044 -0.1161  0.0762 -0.1698
    1W        W47064   4.267  23.513   7.639 -0.1978 -0.0526  0.3144
    1W        W47065   4.919  14.576   6.099  0.0445  0.0098  0.0413
    1W        W47066  25.115  18.319   0.225  0.0831 -0.1619 -0.1061
    1W        W47067   9.286   2.625   1.219  0.2636  0.1305 -0.0382
    1W        W47068  20.175   3.966   1.615 -0.0500  0.5665 -0.0479
    1W        W47069  22.269   7.895   2.550 -0.0986  0.3004  0.0073
    1W        W47070  10.118  10.491   1.972  0.1569 -0.0425 -0.0418
    1W        W47071  21.969   3.288   2.733 -0.0550 -0.0893 -0.0440
    1W        W47072  12.565  27.158   2.202  0.0393 -0.2492  0.0268
    1W        W47073   4.026   0.277   1.051  0.0332 -0.2226 -0.0867
    1W        W47074   2.482   5.061   1.343  0.2324  0.0743 -0.1774
    1W        W47075  27.546   9.762   9.210 -0.1398  0.0236  0.0308
    1W        W47076   7.443   0.504   8.550 -0.2943 -0.0102 -0.3592
    1W        W47077  16.631  15.001   1.752  0.1175  0.0145 -0.1780
    1W        W47078  29.077  24.096   7.763 -0.3350  0.1599  0.1577
    1W        W47079   7.859  26.286   6.932  0.0660  0.1645 -0.1223
    1W        W47080  14.258  26.148   9.253 -0.0358 -0.0474  0.2415
    1W        W47081   3.635   3.887   2.182 -0.0032 -0.1195  0.1106
    1W        W47082  24.852   2.456   1.628  0.0297 -0.2334 -0.2964
    1W        W47083   5.273  11.889   1.052  0.1616 -0.0451 -0.3411
    1W        W47084  15.954  28.819   2.327 -0.0229  0.1309 -0.0237
    1W        W47085  17.228   6.442   2.713  0.2108 -0.1282 -0.0785
    1W        W47086  11.276  19.085   6.616 -0.1235 -0.1212  0.2468
    1W        W47087  26.284  25.829   8.515  0.0083 -0.0890 -0.2700
    1W        W47088   7.294   2.494   1.819  0.0348 -0.0225 -0.2791
    1W        W47089  15.996  19.510   9.006  0.1315  0.0931 -0.0093
    1W        W47090   6.436  16.634   7.750 -0.0869 -0.0908  0.3636
    1W        W47091  28.864   3.146   1.457 -0.2160  0.2230 -0.0413
    1W        W47092   7.577  27.030   6.392 -0.1720 -0.2911  0.1659
    1W        W47093  15.873  15.213   8.764  0.1054  0.3338 -0.0570
    1W        W47094  25.093   3.791   8.247 -0.0279  0.0006  0.1550
    1W        W47095   1.277  10.997   9.124  0.3045 -0.0739  0.4365
    1W        W47096   9.150   5.340   0.073 -0.1138 -0.2526 -0.0749
    1W        W47097  24.920  27.694   7.942 -0.1194 -0.3058 -0.2264
    1W        W47098  12.507   8.946   1.419 -0.1219  0.0233 -0.0717
    1W        W47099   1.854  20.427   3.251  0.1025 -0.0779  0.0908
    1W        W47100  14.501  29.099   0.051 -0.2354  0.4981  0.0761
    1W        W47101  18.544  21.436   9.285  0.2495  0.2844 -0.1380
    1W        W47102  27.335  19.423   2.155 -0.0913  0.2388  0.2892
    1W        W47103  13.596  28.295   7.463 -0.0359 -0.1820  0.0040
    1W        W47104  26.163   0.078   7.890 -0.4028  0.2277  0.2254
    1W        W47105  24.915  24.783   2.894 -0.0281  0.0404  0.0989
    1W        W47106   4.575   6.986   1.012 -0.0016  0.0295  0.2629
    1W        W47107   5.260   1.957   2.026  0.0194 -0.2184 -0.0982
    1W        W47108   3.591  21.730   9.051 -0.1582  0.0442 -0.0168
    1W        W47109  19.835  24.130   2.820  0.2392  0.0366  0.0111
    1W        W47110  10.501  27.333   0.454 -0.0406  0.2782  0.3902
    1W        W47111  28.864   4.068   0.645 -0.3082 -0.0963  0.2203
    1W        W47112  24.010  19.732   8.127 -0.3849 -0.1894 -0.0414
    1W        W47113  16.469   8.222   0.169 -0.0210 -0.0744  0.1095
    1W        W47114   2.633  27.974   8.599 -0.1134 -0.0343 -0.0429
    1W        W47115  13.234  16.937   8.903  0.1959  0.1350  0.1836
    1W        W47116   6.392  17.761   0.427  0.2167 -0.2481 -0.2498
    1W        W47117  16.332   9.484   8.606  0.2856  0.4663 -0.0355
    1W        W47118  23.731  20.766   0.283  0.2500  0.2162 -0.1534
    1W        W47119   4.784  10.850   6.254  0.6627  0.1810  0.0638
    1W        W47120   7.974  18.008   8.424  0.2137 -0.1120 -0.1312
    1W        W47121  26.553  20.529   2.056  0.2870 -0.3292  0.0154
    1W        W47122  28.823  24.067   8.266 -0.1285  0.1844 -0.3455
    1W        W47123  18.037  21.342   8.327 -0.1393  0.1953 -0.1264
    1W        W47124  21.022   1.369   2.146  0.1304 -0.1617 -0.1958
    1W        W47125   1.256  18.043   2.166 -0.1447 -0.0131 -0.1533
    1W        W47126  15.960  29.333   2.664 -0.1818  0.2367  0.1072
    1W        W47127  24.008  13.437   8.799  0.1405  0.1366  0.2519
    1W        W47128  11.584   4.095   6.233  0.3938 -0.0192  0.1877
    1W        W47129   9.343   6.774   8.960 -0.0597  0.3996 -0.4603
    1W        W47130  26.328   4.243   6.981 -0.0711  0.1646 -0.0813
    1W        W47131  15.800   6.120   7.423  0.2669  0.1510 -0.1131
    1W        W47132  23.414  25.831   8.084  0.0122  0.2331  0.0484
    1W        W47133   1.308   3.358   6.966  0.0778 -0.2247  0.0463
    1W        W47134  19.301  13.406   0.507 -0.3278 -0.2261 -0.0069
    1W        W47135  23.264   1.072   2.653  0.2680 -0.0073  0.0879
    1W        W47136  26.283  20.376   2.995  0.0044  0.0466 -0.0340
    1W        W47137  18.280  21.853   7.455  0.1866  0.0482  0.2235
    1W        W47138   8.149  11.304   5.834 -0.0355  0.1824  0.0570
    1W        W47139  13.202   2.366   0.438 -0.3000  0.3301  0.1623
    1W        W47140  17.301  12.847   8.293 -0.1451 -0.1769  0.2008
    1W        W47141  19.341  26.549   8.882  0.0602 -0.2635  0.1568
    1W        W47142   7.804  27.352   9.149  0.1783 -0.1472  0.0861
    1W        W47143  26.367  14.112   7.669 -0.0404 -0.0757 -0.1778
    1W        W47144  11.618   9.833   2.329 -0.0748  0.3824  0.2683
    1W        W47145  18.508   1.950   8.884  0.0281 -0.0033  0.2844
    1W        W47146  20.525   1.616   8.805  0.2238  0.4177  0.0648
    1W        W47147  21.797  25.658   3.789 -0.1693  0.1042  0.0043
    1W        W47148  17.936  22.191   0.187 -0.2435  0.0529 -0.3005
    1W        W47149  27.844   8.603   1.186  0.3609 -0.0963  0.0940
    1W        W47150   7.799   7.684   0.814 -0.3130  0.0020 -0.0743
    1W        W47151   5.740   4.810   8.525  0.1301  0.3358 -0.0081
    1W        W47152  12.631  26.189   9.500  0.3654  0.2155 -0.1262
    1W        W47153  26.235  12.887   8.430  0.1255 -0.0684  0.2017
    1W        W47154  25.442  24.675   0.894 -0.0539  0.4503  0.3002
    1W        W47155   1.730   8.209   1.771 -0.4570  0.0675  0.1668
    1W        W47156  10.114   3.094   9.270 -0.0020  0.0996 -0.2536
    1W        W47157   4.683   2.660   3.147  0.0889 -0.2325  0.1050
    1W        W47158  22.586  21.298   2.137 -0.1978  0.0107 -0.1790
    1W        W47159  17.827  10.599   2.155 -0.0830 -0.0268 -0.1699
    1W        W47160   6.103  13.389   7.802  0.0180 -0.3445  0.0493
    1W        W47161  22.991   6.585   6.812  0.1527  0.1003  0.2227
    1W        W47162   3.923  19.587   1.686 -0.0318  0.0613  0.0197
    1W        W47163  23.761   3.372   7.403 -0.1364  0.1379  0.2884
    1W        W47164  14.187  13.826   7.504 -0.2635  0.1175 -0.0108
    1W        W47165  21.436  24.497   3.330  0.1957  0.1578 -0.1801
    1W        W47166  24.819   3.456   0.844 -0.1287 -0.1352 -0.0630
    1W        W47167  29.207  26.416   0.482  0.3526 -0.3510  0.1710
    1W        W47168  23.321  29.143   3.041 -0.0160 -0.0669 -0.1366
    1W        W47169  11.127  12.896   1.876 -0.1812 -0.2197 -0.0377
    1W        W47170   8.302   3.946   9.445 -0.1588 -0.1065  0.1400
    1W        W47171  26.271  23.431   2.473 -0.0741  0.0205 -0.0094
    1W        W47172  28.827  22.328   0.405 -0.0793  0.3260  0.0809
    1W        W47173   2.204   3.476   8.459 -0.2394  0.1076  0.0669
    1W        W47174   0.577   7.154   7.954 -0.2427 -0.1603  0.2590
    1W        W47175  18.760  14.941   1.570 -0.3310  0.1627  0.1961
    1W        W47176  21.963  15.276   8.512  0.0902 -0.0708 -0.0221
    1W        W47177  25.128  13.930   2.042 -0.0619 -0.0591 -0.0920
    1W        W47178  28.262  24.941   2.527 -0.2587 -0.2438 -0.4492
    1W        W47179  22.025   2.286   7.558  0.1800  0.0577 -0.2736
    1W        W47180  11.527  17.352   0.047 -0.0536  0.2447 -0.0246
    1W        W47181   7.677   3.247   6.286 -0.0641 -0.1563  0.0230
    1W        W47182  19.677  20.025   7.113  0.1250 -0.0604  0.0042
    1W        W47183  23.141  27.212   7.806 -0.3475  0.0618  0.0707
    1W        W47184  12.307  12.339   1.350 -0.1914  0.4751 -0.1348
    1W        W47185   8.000  24.919   9.528  0.3001 -0.0356 -0.0116
    1W        W47186  21.182   1.399   7.220  0.0242  0.1897  0.3122
    1W        W47187   1.064  10.155   9.601 -0.0138  0.3969  0.0469
    1W        W47188  18.671   5.104   8.355  0.2457  0.1281 -0.2942
    1W        W47189  11.904  13.977   8.222  0.0977  0.0520 -0.2215
    1W        W47190  18.327  18.940   1.975 -0.0938  0.1676 -0.2996
    1W        W47191  10.566  20.256   5.944 -0.0612 -0.1637 -0.1898
    1W        W47192  29.130   2.756   1.481  0.0963  0.3177 -0.1142
    1W        W47193  28.338  27.328   1.284 -0.3260  0.2191  0.2000
    1W        W47194  17.230  12.510   7.948  0.0519 -0.1054  0.1133
    1W        W47195   5.586   6.203   9.103 -0.0125  0.2385 -0.3006
    1W        W47196  27.660   9.970   0.058  0.0929  0.2752 -0.4534
    1W        W47197   2.373  11.012   6.896  0.0838  0.1848 -0.1175
    1W        W47198   8.844  12.303   9.277  0.3179 -0.1204 -0.1629
    1W        W47199   1.551  10.220   1.420  0.2308 -0.1749 -0.1767
    1W        W47200  26.240  20.008   9.401 -0.2268 -0.1511  0.1192
    1W        W47201  13.063  12.992   7.786 -0.2716 -0.2002 -0.0038
    1W        W47202  26.374   8.713   9.126 -0.0167  0.2160  0.2346
    1W        W47203   5.839   0.420   9.433 -0.1782  0.5291 -0.2956
    1W        W47204  29.487   8.451   8.516 -0.0855 -0.1413 -0.0443
    1W        W47205  16.059   1.468   7.621  0.0248  0.5878 -0.0326
    1W        W47206   2.208  28.233   9.298  0.1564  0.4386 -0.1094
    1W        W47207  14.414  15.152   8.007  0.1565  0.3061  0.1096
    1W        W47208   4.442   3.544   1.910 -0.1905 -0.4846 -0.1922
    1W        W47209   1.874  20.205   0.349  0.3808 -0.2443 -0.2833
    1W        W47210  26.026  15.140   9.460  0.0776 -0.0676 -0.0419
    1W        W47211  15.733   1.720   8.992 -0.1723  0.0751 -0.1739
    1W        W47212   5.310   5.884   1.403 -0.1786 -0.1656  0.0989
    1W        W47213  19.780   2.707   1.201  0.0966 -0.0232 -0.2069
    1W        W47214  14.386  28.004   7.000 -0.0111  0.0479  0.1706
    1W        W47215  19.022   4.123   0.996  0.3227 -0.0305 -0.0384
    1W        W47216   8.296  10.196   7.366  0.0159  0.0262  0.0473
    1W        W47217  26.774  23.872   0.989  0.3429 -0.2856 -0.1429
    1W        W47218  12.950   0.153   0.292 -0.0024  0.0119  0.0481
    1W        W47219  29.608  21.453   7.710 -0.2019 -0.3200 -0.3412
    1W        W47220   9.645  13.620   8.106 -0.0671  0.1842  0.2110
    1W        W47221  26.708  21.813   9.067  0.0485 -0.0562 -0.0382
    1W        W47222  12.183  20.196   0.128 -0.0210  0.2445  0.1591
    1W        W47223   7.464  21.690   8.421  0.0918 -0.1790  0.0772
    1W        W47224  17.809   3.480   7.429 -0.0912 -0.0164  0.0461
    1W        W47225  27.719  23.122   1.047 -0.0913 -0.0029  0.2204
    1W        W47226  13.269  26.118   3.085 -0.1921  0.0109 -0.0715
    1W        W47227   3.808  21.456   2.012  0.0001  0.0217  0.1848
    1W        W47228  24.847   1.554   9.262  0.1037 -0.1968 -0.0951
    1W        W47229  11.788   9.629   9.162 -0.1269 -0.2066  0.0540
    1W        W47230  28.505  28.626   0.599  0.0084 -0.0598  0.3539
    1W        W47231  21.620   8.717   8.633  0.0614 -0.0912 -0.1044
    1W        W47232  26.228  18.611   9.338 -0.0938 -0.0951 -0.0912
    1W        W47233   0.198  17.904   2.196  0.2778  0.0131 -0.0713
    1W        W47234  27.646  10.430   8.065 -0.0526  0.1090 -0.0883
    1W        W47235  15.273   2.448   0.475 -0.1614  0.0907  0.1516
    1W        W47236   5.090  20.705   1.613  0.0461 -0.0917 -0.0729
    1W        W47237  27.830  22.095   8.642  0.2305 -0.1492  0.1698
    1W        W47238  26.081   9.638   7.722 -0.1731  0.0369  0.2167
    1W        W47239  14.762   3.506   2.078 -0.0366 -0.2846  0.0125
    1W        W47240   4.235  11.333   7.826  0.2871 -0.0327 -0.1592
    1W        W47241   7.044  26.854   1.278  0.0171  0.3571  0.2620
    1W        W47242  12.700  24.068   6.559  0.0934  0.0469  0.1654
    1W        W47243   0.275  27.373   7.789  0.1876 -0.2576  0.2545
    1W        W47244   9.604  26.385   7.222 -0.2243  0.2176 -0.4807
    1W        W47245  28.969   9.536   0.598 -0.0040 -0.0630 -0.1033
    1W        W47246  18.192   7.434   1.766  0.0791 -0.1799  0.1317
    1W        W47247  12.117  24.693   7.515 -0.0832 -0.1952 -0.0223
    1W        W47248  15.997  22.651   2.639 -0.1212  0.0477  0.3044
    1W        W47249  16.852   2.075   2.534  0.1515  0.0444  0.2219
    1W        W47250  28.508   1.581   1.170 -0.0363 -0.0824 -0.1357
    1W        W47251  19.428   9.384   1.436  0.0628  0.1484 -0.1012
    1W        W47252   1.662  28.669   6.930  0.1401 -0.1937  0.2857
    1W        W47253  11.367  18.492   8.444  0.3028  0.1765 -0.0075
    1W        W47254  15.821  22.459   9.345  0.3296 -0.1945 -0.2232
    1W        W47255  17.608   4.532   0.474  0.0490  0.1292  0.1533
    1W        W47256   7.707  23.986   6.898 -0.1550  0.1989  0.0352
    1W        W47257  17.184  19.487   1.879  0.1612  0.0426  0.2274
    1W        W47258   4.317   6.127   0.059  0.0073 -0.0092 -0.2458
    1W        W47259  10.035  10.705   7.140 -0.1457 -0.0571 -0.6107
    1W        W47260  20.047   1.206   0.767  0.0859 -0.0707  0.3757
    1W        W47261  22.382  11.081   8.395 -0.0762 -0.0151  0.1258
    1W        W47262  27.790  28.707   9.044  0.0326  0.0308 -0.2775
    1W        W47263   2.041  15.679   7.482  0.0163 -0.0515  0.1281
    1W        W47264  25.542  23.061   8.997  0.1953 -0.2489  0.1790
    1W        W47265  26.227   1.622   8.508 -0.2968  0.0267  0.3121
    1W        W47266  19.395   7.804   7.452 -0.1884  0.0633  0.1727
    1W        W47267   3.903   0.844   2.242  0.3018 -0.2515  0.1442
    1W        W47268   8.436   1.891   7.040  0.0380  0.2964 -0.1108
    1W        W47269  28.576   8.444   8.454  0.1654 -0.0234 -0.1371
    1W        W47270  19.906  14.512   1.131  0.0807  0.0321 -0.0966
    1W        W47271   3.603   8.106   7.133  0.2030  0.0941 -0.1644
    1W        W47272   4.189  10.859   7.470  0.3104 -0.0857  0.2601
    1W        W47273  13.179  22.996   2.713  0.1274 -0.1747 -0.2007
    1W        W47274  13.916  21.418   2.299  0.0203 -0.0159 -0.2684
    1W        W47275   5.752  23.657   3.803 -0.0559  0.1283  0.3303
    1W        W47276  24.196  16.895   1.443 -0.3595 -0.0093  0.1302
    1W        W47277  28.097  20.931   7.985  0.0686 -0.1098 -0.0330
    1W        W47278   9.180  23.579   0.244  0.1726 -0.0164  0.1628
    1W        W47279  27.078  26.448   1.187 -0.2373  0.2032  0.1214
    1W        W47280  14.889  29.209   0.347  0.2435 -0.0339 -0.0985
    1W        W47281  23.041  13.607   1.561  0.1412  0.2602  0.0989
    1W        W47282   1.697   0.695   1.588  0.1172 -0.0978  0.1807
    1W        W47283  24.240  14.366   0.098 -0.0390  0.1305 -0.4595
    1W        W47284  15.010   4.701   1.404 -0.0717  0.1827  0.1165
    1W        W47285   5.774  21.252   6.987  0.2860  0.2495 -0.2075
    1W        W47286  28.278   0.332   1.320  0.2491 -0.2896  0.0900
    1W        W47287   0.078   1.226   2.385 -0.0416 -0.2541 -0.0348
    1W        W47288  17.569  17.897   6.800 -0.4246 -0.0240  0.4563
    1W        W47289   4.644  23.657   9.222  0.2307 -0.1232  0.3090
    1W        W47290  10.113  21.151   1.900  0.0621 -0.0703  0.2643
    1W        W47291  27.386   2.950   1.417 -0.1785 -0.0424 -0.1533
    1W        W47292   9.948  22.667   6.893 -0.0060  0.1912  0.2049
    1W        W47293  12.868  19.199   6.905 -0.0242  0.0824 -0.5192
    1W        W47294  28.770  21.109   0.708 -0.0220 -0.2820 -0.0591
    1W        W47295   6.815   7.241   8.754  0.0399  0.0317 -0.1807
    1W        W47296  15.983   2.097   2.250  0.5130  0.0542 -0.1649
    1W        W47297  17.786  26.404   8.089 -0.1142  0.1068  0.1581
    1W        W47298  28.519  27.248   7.300  0.0105 -0.2103 -0.0437
    1W        W47299  19.790   7.339   7.657 -0.0359  0.1845 -0.0450
    1W        W47300  18.449  17.581   3.369 -0.0683  0.0553  0.0033
    1W        W47301   7.257  14.400   1.141 -0.0017  0.0319 -0.0245
    1W        W47302  24.875  21.393   1.384 -0.3347  0.2232  0.1983
    1W        W47303   6.576   5.221   1.722 -0.1715 -0.1167 -0.1587
    1W        W47304  11.066  27.815   2.757  0.0008 -0.0247 -0.1436
    1W        W47305  24.171  28.065   2.380  0.3681 -0.1547 -0.2300
    1W        W47306   9.136  22.264   1.327  0.2477  0.2217 -0.0830
    1W        W47307   5.977   2.232   1.870 -0.1527 -0.0593 -0.2735
    1W        W47308  23.193   5.861   6.995  0.0818 -0.0342  0.2125
    1W        W47309  17.940   0.278   1.547  0.2129 -0.1041 -0.1164
    1W        W47310   6.364   8.035   9.449  0.0490  0.0364 -0.0149
    1W        W47311   1.407  28.869   0.791 -0.3578  0.1682  0.1970
    1W        W47312  24.363  19.137   2.007 -0.1806  0.0156 -0.1972
    1W        W47313   8.092  12.473   0.413 -0.0979 -0.0306  0.0595
    1W        W47314  28.692  29.599   0.596  0.0354 -0.1226 -0.3254
    1W        W47315  11.500   6.475   8.664 -0.2307 -0.0553  0.3257
    1W        W47316  16.782  15.488   1.808  0.0720 -0.0562  0.0346
    1W        W47317   9.763  19.913   1.951 -0.0014  0.2110  0.0666
    1W        W47318  18.859  23.288   4.091  0.3478 -0.0723 -0.2688
    1W        W47319  12.923  19.052   7.820  0.1974 -0.0836 -0.0175
    1W        W47320   9.503  21.927   2.992 -0.2288  0.0928 -0.1892
    1W        W47321  24.721  21.160   3.644 -0.1677  0.2053  0.0643
    1W        W47322  15.335  19.216   8.528 -0.1956  0.2320 -0.1276
    1W        W47323  15.850   5.369   8.108 -0.0600  0.2186  0.2443
    1W        W47324  21.696  23.070   2.322  0.3607 -0.0523  0.0167
    1W        W47325  10.349   6.887   8.090  0.0489 -0.0496 -0.0130
    1W        W47326  15.283   7.286   0.336 -0.1811  0.0484 -0.0828
    1W        W47327  19.757  17.494   0.445  0.1251 -0.0823  0.0873
    1W        W47328   6.470  24.057   9.473  0.1328 -0.4121  0.1311
    1W        W47329   7.621   5.621   1.622  0.2836 -0.1733 -0.0858
    1W        W47330  25.369  29.450   3.774 -0.1458 -0.0407  0.0549
    1W        W47331  21.277  11.033   0.623 -0.0302 -0.0908 -0.2203
    1W        W47332  10.327   8.614   8.053  0.0102 -0.1556  0.2519
    1W        W47333   0.595   5.562   0.178  0.2249  0.0793 -0.2096
    1W        W47334   2.844  20.108   7.297 -0.0940  0.2539 -0.1292
    1W        W47335   4.891  22.365   8.804 -0.0009 -0.1180 -0.0744
    1W        W47336  16.595   6.536   7.432  0.3667  0.0862  0.2401
    1W        W47337  22.124  10.768   8.888  0.0706  0.2898  0.4165
    1W        W47338   8.200  22.343   2.551  0.0314 -0.1069  0.2338
    1W        W47339   0.780  18.002   8.210 -0.0183  0.0416  0.2061
    1W        W47340   5.181  28.459   1.166 -0.0727  0.0654 -0.0927
    1W        W47341   0.041   2.997   1.025 -0.1355  0.4320  0.1417
    1W        W47342  17.139  22.223   7.045 -0.1240  0.1888 -0.0050
    1W        W47343  25.958   6.760   8.898 -0.0522 -0.4621  0.0574
    1W        W47344   5.280  10.183   1.469  0.1470  0.4063  0.1521
    1W        W47345  12.500  28.656   1.116  0.0778  0.1296  0.1426
    1W        W47346  10.279  24.498   8.153  0.1311 -0.2656 -0.0263
    1W        W47347  13.074   4.459   0.848  0.1654 -0.3003  0.1609
    1W        W47348  21.177  13.477   1.845  0.3921 -0.1572 -0.1149
    1W        W47349  16.227   1.233   3.008  0.0978  0.4152 -0.2820
    1W        W47350  24.962  24.574   2.389 -0.3559  0.0377  0.2101
    1W        W47351  12.157   8.715   1.650  0.1230  0.2419 -0.1238
    1W        W47352   4.556  14.929   7.063 -0.2664  0.1821 -0.0597
    1W        W47353  25.768   3.328   9.497 -0.0803  0.0202  0.0358
    1W        W47354   4.226  26.809   7.005 -0.1136 -0.3631 -0.2115
    1W        W47355   3.014  17.748   8.834  0.0011  0.1820  0.0031
    1W        W47356  20.421  18.345   0.922 -0.2308 -0.1750  0.1784
    1W        W47357   4.167  25.870   2.929  0.1787 -0.4508  0.3276
    1W        W47358   4.697  27.224   2.697 -0.3092 -0.2322 -0.1266
    1W        W47359  20.023  21.503   7.439 -0.1202 -0.1826 -0.0971
    1W        W47360   9.211  27.601   0.491 -0.0717  0.1337  0.1702
    1W        W47361  11.189  24.601   8.867 -0.1698  0.1036  0.2001
    1W        W47362   5.244   8.031   0.839 -0.1526 -0.0941  0.0822
    1W        W47363   9.262  15.521   6.075  0.0512 -0.1764  0.0491
    1W        W47364  12.098   9.907   6.384  0.0571  0.0610 -0.4619
    1W        W47365  15.643  22.887   0.398 -0.3588 -0.0906  0.0804
    1W        W47366  28.834  18.043   8.855 -0.4132 -0.0635  0.0620
    1W        W47367  15.935   9.799   2.185  0.0811 -0.0714 -0.1793
    1W        W47368  16.891   0.972   8.090 -0.3834  0.0459 -0.1482
    1W        W47369  10.553   2.760   0.383  0.1276 -0.2332 -0.0266
    1W        W47370  26.333  16.085   7.353 -0.0120  0.1133  0.0506
    1W        W47371   4.665   3.458   2.872 -0.0395  0.1670 -0.0534
    1W        W47372  28.985  14.350   7.343 -0.0248 -0.2578 -0.2026
    1W        W47373  11.539  25.430   0.593  0.2425 -0.0077  0.2492
    1W        W47374  18.781   3.454   1.787 -0.2383  0.2017 -0.3123
    1W        W47375   5.854   8.574   7.362 -0.0447  0.1437 -0.0073
    1W        W47376  22.267   8.749   2.597  0.0772 -0.0651  0.1049
    1W        W47377  13.746  16.467   1.692 -0.0395  0.0763  0.1871
    1W        W47378  11.993  29.274   8.142  0.1126  0.0806  0.2995
    1W        W47379  18.038  18.072   9.274  0.0768 -0.1877 -0.3525
    1W        W47380  17.231  28.541   9.447  0.2247  0.1844  0.1432
    1W        W47381  12.336   0.100   0.062 -0.1266  0.0011 -0.2454
    1W        W47382  14.172  18.192   7.444 -0.1277 -0.0728  0.0070
    1W        W47383  12.066  13.821   8.764  0.0140  0.0422  0.0941
    1W        W47384  10.380  12.121   8.320  0.1401 -0.2272  0.1559
    1W        W47385  10.144   7.620   1.879  0.1401 -0.0671  0.1207
    1W        W47386  27.374  21.871   1.600 -0.2214  0.2498 -0.0040
    1W        W47387  15.529   8.213   0.401  0.3189 -0.1685 -0.1301
    1W        W47388   6.967  24.219   9.495  0.0641 -0.0472 -0.2452
    1W        W47389   1.910  24.349   8.801 -0.0696  0.2193  0.2084
    1W        W47390  19.028   9.467   8.016 -0.1547  0.0296 -0.0251
    1W        W47391  27.684  14.245   1.116 -0.5497  0.3568  0.2302
    1W        W47392  24.315  23.288   8.680 -0.0812 -0.2254 -0.0647
    1W        W47393   2.293  25.521   1.438  0.1714  0.1289  0.3476
    1W        W47394   5.155   3.649   7.962  0.1249 -0.2634  0.0054
    1W        W47395   3.927  22.577   0.246 -0.0485 -0.2643  0.0817
    1W        W47396   6.200   5.936   8.099 -0.0650  0.0856 -0.0477
    1W        W47397   1.466  21.565   0.353 -0.2156  0.0887  0.1256
    1W        W47398   5.776   5.403   6.747  0.1080 -0.0384  0.1070
    1W        W47399  27.007   2.850   8.015  0.5668  0.1690 -0.1563
    1W        W47400  14.484   3.791   0.484  0.1249 -0.1781 -0.1781
    1W        W47401  11.965  19.362   8.570 -0.0824 -0.4834 -0.2143
    1W        W47402  12.792   2.664   1.970 -0.0478 -0.2957  0.0955
    1W        W47403  13.061   9.781   0.593  0.4521 -0.2330  0.0495
    1W        W47404  21.023  22.390   1.480  0.0039 -0.0842  0.2106
    1W        W47405  24.447   9.352   1.976 -0.2964 -0.1791  0.0508
    1W        W47406   0.728  11.495   1.215  0.2209  0.2358  0.1230
    1W        W47407   4.958  29.201   8.015  0.1719  0.0761  0.0455
    1W        W47408   7.920   7.850   6.723 -0.0599  0.1774 -0.1147
    1W        W47409  24.588   1.403   3.064 -0.1938 -0.1852  0.0320
    1W        W47410  13.119  15.780   2.098 -0.1299 -0.1230 -0.1305
    1W        W47411  18.576   6.418   0.425 -0.0924  0.1891 -0.3724
    1W        W47412   2.123  14.410   9.373  0.0901  0.1076 -0.0177
    1W        W47413   4.415  21.562   6.650 -0.0357 -0.1666 -0.1164
    1W        W47414   8.954   6.851   9.488  0.2371 -0.0502 -0.0721
    1W        W47415  11.937  22.976   3.145  0.0253  0.1025 -0.0197
    1W        W47416   9.751  11.717   6.690  0.0612 -0.0210 -0.1759
    1W        W47417  14.872   6.972   0.621 -0.1472 -0.1197  0.0343
    1W        W47418  13.080  20.194   7.299  0.0797  0.5090  0.3475
    1W        W47419  27.912  23.560   7.629  0.0128  0.1080 -0.0647
    1W        W47420  27.942  14.085   9.386 -0.0022  0.0496  0.1906
    1W        W47421   6.368  28.892   0.344 -0.0164 -0.0553 -0.0189
    1W        W47422  15.123   3.302   2.580  0.1950 -0.1057  0.3457
    1W        W47423   7.100  13.898   0.983 -0.0478  0.0770  0.0721
    1W        W47424   8.762   5.308   6.344  0.1129  0.2078  0.0938
    1W        W47425  20.493   4.373   8.953  0.0614 -0.2413  0.0027
    1W        W47426  18.268  12.288   9.365  0.1532  0.0821  0.2533
    1W        W47427  18.275  23.796   7.985  0.0851 -0.2686  0.0986
    1W        W47428   6.404  26.714   8.670  0.0146 -0.1194 -0.0341
    1W        W47429   3.203  16.865   0.618 -0.1564  0.0732 -0.0273
    1W        W47430  17.818   6.124   1.568 -0.1038 -0.1094 -0.0253
    1W        W47431  14.295  18.917   6.562  0.0017  0.1177 -0.0808
    1W        W47432  24.356   4.568   7.606 -0.0252  0.2179  0.1083
    1W        W47433  22.490  29.366   7.850  0.0945 -0.0992  0.0204
    1W        W47434   8.993   1.118   1.678  0.1407 -0.1308  0.2322
    1W        W47435  15.932   1.616   2.058  0.0610 -0.2626  0.1089
    1W        W47436  17.560   6.063   2.581 -0.3534 -0.4037  0.0030
    1W        W47437   9.944   9.352   9.197  0.0625  0.0141  0.0663
    1W        W47438  18.177  19.263   3.421 -0.0656  0.0624 -0.0386
    1W        W47439   6.192   1.019   2.279 -0.1520  0.2200 -0.4407
    1W        W47440  18.676  22.490   8.206  0.0755  0.2231 -0.0561
    1W        W47441  13.671  14.526   2.314  0.1498  0.0865 -0.1693
    1W        W47442  18.040  11.065   0.342  0.1513 -0.0633 -0.0987
    1W        W47443   3.230  29.077   0.756 -0.0151 -0.1228 -0.1460
    1W        W47444  24.838   9.526   7.594 -0.0151  0.3391 -0.2953
    1W        W47445   3.179  11.292   6.510 -0.0825  0.2377 -0.3259
    1W        W47446   2.983  26.914   8.876 -0.3383 -0.1323  0.4325
    1W        W47447  13.503   1.715   1.457  0.4394  0.0906 -0.3286
    1W        W47448  26.177  21.949   9.065 -0.2280  0.0010 -0.0232
    1W        W47449  11.953  15.977   1.593 -0.2141 -0.0858 -0.0747
    1W        W47450  11.401  10.528   0.380  0.0555 -0.1810 -0.0235
    1W        W47451  11.952   8.769   0.075  0.2743 -0.0762  0.4261
    1W        W47452  20.921  19.012   7.945  0.0135 -0.1255 -0.3223
    1W        W47453  26.178  10.186   9.420 -0.0532 -0.1367 -0.2042
    1W        W47454  25.528  29.386   6.659 -0.1153 -0.2899 -0.2995
    1W        W47455  24.365  11.827   9.073 -0.2743  0.2917 -0.1154
    1W        W47456  22.619   8.845   1.293  0.2673 -0.0420  0.1267
    1W        W47457  29.579  10.372   0.035  0.2506  0.2717  0.0906
    1W        W47458  10.142  12.624   8.590 -0.0172 -0.5994 -0.0958
    1W        W47459   0.646  26.538   1.006  0.0564 -0.1770 -0.1273
    1W        W47460  13.753  24.071   7.206 -0.0823  0.0784  0.0986
    1W        W47461   4.448   5.784   7.882 -0.0667 -0.0840 -0.2539
    1W        W47462   7.360  22.937   2.456  0.0270  0.0380 -0.0131
    1W        W47463  17.572  10.727   8.962  0.0130 -0.0488  0.0532
    1W        W47464  18.879  27.947   7.653 -0.0272  0.2994  0.1295
    1W        W47465   6.053  15.359   7.049 -0.2588 -0.0101 -0.0188
    1W        W47466   9.815   7.283   7.380  0.1920  0.3415 -0.4074
    1W        W47467  25.954   5.647   9.126 -0.0178  0.1825 -0.0901
    1W        W47468  19.539  16.269   9.176  0.0309  0.1863  0.0707
    1W        W47469  25.009   8.257   8.513 -0.0296  0.2105  0.0074
    1W        W47470  16.907  17.582   9.154 -0.2427  0.2997 -0.2214
    1W        W47471  11.338   2.659   8.693  0.2829  0.1120  0.0022
    1W        W47472  19.791  25.814   1.095 -0.2000  0.1627 -0.0387
    1W        W47473  23.736   6.463   2.246  0.1321 -0.2049 -0.3649
    1W        W47474  22.319   2.628   7.184  0.0017 -0.2772 -0.0861
    1W        W47475  21.804  16.855   2.040  0.0951 -0.0170  0.0709
    1W        W47476  28.096   1.461   2.019 -0.2004 -0.3406 -0.2761
    1W        W47477   2.220   5.098   0.700 -0.0163  0.1539 -0.1052
    1W        W47478  14.779  21.479   0.036  0.2781  0.4922 -0.0242
    1W        W47479  16.324  16.193   1.016  0.0497  0.1485  0.0491
    1W        W47480   0.131   7.927   6.366  0.2183  0.0375 -0.1668
    1W        W47481  28.826   1.189   1.928  0.4159 -0.0920 -0.1387
    1W        W47482  25.585  26.141   9.190 -0.0382 -0.3766  0.0264
    1W        W47483   3.605  14.554   1.709  0.1610  0.0530 -0.0565
    1W        W47484  27.208  19.861   2.364  0.0968  0.0036  0.1214
    1W        W47485   9.075  21.054   3.377  0.1154 -0.0085  0.0008
    1W        W47486  12.337   6.633   7.806  0.0576  0.0817  0.2032
    1W        W47487  12.681   6.335   0.362 -0.1354 -0.1119  0.1482
    1W        W47488  28.944  27.578   8.921  0.1098  0.1385 -0.1682
    1W        W47489  10.489   7.813   1.189 -0.1293 -0.0999 -0.0342
    1W        W47490  13.884   7.218   7.581 -0.1165 -0.1871  0.1652
    1W        W47491   5.219   6.632   5.343  0.0158 -0.5206  0.1400
    1W        W47492  22.814  29.237   2.830  0.0371 -0.0842 -0.0221
    1W        W47493  22.401   4.813   1.124 -0.0203 -0.0267 -0.2168
    1W        W47494  10.952  28.516   9.613  0.1603  0.0884 -0.3558
    1W        W47495   9.913  17.229   6.482  0.0856  0.0638 -0.0894
    1W        W47496  22.252  25.004   3.538  0.1438 -0.0421 -0.0454
    1W        W47497   5.843  18.662   3.070 -0.0686 -0.1379 -0.2281
    1W        W47498   5.506   8.863   0.336 -0.4091  0.1072  0.1197
    1W        W47499  12.361  26.146   0.492 -0.1197  0.1106  0.0233
    1W        W47500  19.772  13.750   2.146  0.1420  0.0670 -0.1760
    1W        W47501   8.630  16.553   1.977 -0.0714  0.0190 -0.0355
    1W        W47502  21.498  14.745   0.586 -0.0674 -0.1345 -0.1375
    1W        W47503   0.057   4.134   9.403  0.2210 -0.2092  0.1281
    1W        W47504   7.845  19.268   2.207 -0.0503 -0.0501  0.0180
    1W        W47505  26.576  16.866   8.651 -0.0715 -0.4056 -0.1366
    1W        W47506  22.702  16.867   8.279  0.1998  0.1685 -0.0680
    1W        W47507   2.550  15.743   8.221 -0.2220 -0.0865 -0.1244
    1W        W47508  20.666   0.974   9.591  0.0363  0.1100 -0.1437
    1W        W47509   2.823  21.348   0.952 -0.0109  0.1748 -0.2184
    1W        W47510   4.366   6.402   9.258 -0.0824 -0.0325  0.0113
    1W        W47511  17.993  11.566   0.523 -0.0286  0.3431  0.0331
    1W        W47512  10.337   2.411   8.779  0.0819  0.2484  0.0602
    1W        W47513  15.769  15.993   7.240 -0.1970 -0.1393  0.3252
    1W        W47514  19.034   6.221   0.441 -0.0153  0.3053  0.2565
    1W        W47515  28.923  28.636   9.270  0.0036 -0.3791  0.2245
    1W        W47516  29.512  11.405   0.040  0.2348 -0.0454  0.1440
    1W        W47517  17.493   2.085   1.464 -0.1049 -0.3414 -0.0312
    1W        W47518  29.333  27.308   9.043 -0.2523  0.0668  0.1330
    1W        W47519   7.741   7.072   0.016  0.2117 -0.0620  0.0900
    1W        W47520   1.504  23.389   9.500  0.0190 -0.1094  0.1301
    1W        W47521  14.617  22.395   5.803 -0.0436  0.0525  0.0079
    1W        W47522  25.464  22.829   1.144 -0.0082  0.2037 -0.3213
    1W        W47523  27.132  22.248   7.996  0.0418 -0.1020 -0.0850
    1W        W47524  28.657  21.487   3.191  0.1741 -0.2196 -0.3301
    1W        W47525  20.360  14.294   7.892  0.0501 -0.2507  0.0051
    1W        W47526  22.637   5.662   7.358 -0.1401  0.0782  0.1113
    1W        W47527  22.561  20.880   0.121 -0.1026  0.0271  0.0305
    1W        W47528   2.614   2.043   2.033  0.0471  0.0081  0.2008
    1W        W47529   4.632  19.106   3.023  0.0806 -0.1817  0.1702
    1W        W47530   4.122  16.865   6.979 -0.2004  0.0395 -0.0253
    1W        W47531  29.224  17.908   9.148  0.0384  0.0314  0.0370
    1W        W47532  18.878  14.925   8.946 -0.0563 -0.0650 -0.0104
    1W        W47533  11.602  10.753   8.300  0.2612  0.2213 -0.2430
    1W        W47534   7.613   3.032   7.943 -0.1755  0.0076 -0.1522
    1W        W47535  27.489   0.127   8.752 -0.0711  0.0932 -0.3013
    1W        W47536  22.999   2.445   8.441 -0.0998 -0.0252  0.1252
    1W        W47537  15.741  14.631   2.038  0.0484 -0.0834 -0.1653
    1W        W47538  28.015  13.361   0.870 -0.1955 -0.0247 -0.0958
    1W        W47539  16.553   5.691   1.879 -0.0199 -0.1914 -0.1801
    1W        W47540   8.712  25.609   7.355 -0.1348  0.0165 -0.3122
    1W        W47541  10.194  19.689   9.018 -0.0293  0.1687  0.0599
    1W        W47542   2.748   3.187   2.552 -0.5389 -0.3000  0.0214
    1W        W47543  16.005   8.185   2.154 -0.1270  0.0392 -0.0425
    1W        W47544   8.382  28.361   8.371 -0.2573  0.2370 -0.0607
    1W        W47545   5.150  18.594   7.139 -0.2376  0.2486  0.0109
    1W        W47546  13.974  13.196   2.448  0.1247  0.2732 -0.4544
    1W        W47547  19.747   8.673   9.108  0.3200 -0.0911 -0.1197
    1W        W47548  16.646   0.072   8.009 -0.0459 -0.0155 -0.1829
    1W        W47549  10.506   8.789   0.983 -0.0632  0.2538 -0.2470
    1W        W47550  11.391   8.293   8.828 -0.1080  0.0422  0.0481
    1W        W47551  16.157  19.480   1.839 -0.3035  0.1187  0.0277
    1W        W47552  21.748  26.599   9.021  0.0931 -0.0022 -0.0844
    1W        W47553  11.810  26.081   2.500 -0.2946 -0.1047 -0.1419
    1W        W47554   9.686  15.395   6.995  0.1092 -0.1738  0.0856
    1W        W47555  10.922   3.283   8.386  0.0145  0.0546 -0.1495
    1W        W47556  11.987  18.215   7.346 -0.1670 -0.3085  0.1806
    1W        W47557  28.765   2.026   3.013  0.2998  0.1833 -0.0934
    1W        W47558   1.742  11.126   6.744  0.0623 -0.3491 -0.0622
    1W        W47559   7.533  16.236   5.871 -0.0867  0.1302  0.2883
    1W        W47560  15.969   8.701   2.591  0.1313  0.0303 -0.1826
    1W        W47561   7.997   3.935   0.221 -0.1274  0.0015 -0.1180
    1W        W47562  26.294  16.858   2.000  0.2582 -0.1945  0.0697
    1W        W47563  24.480   8.307   0.939  0.0325  0.2065 -0.1600
    1W        W47564  26.352  11.150   1.125  0.3020 -0.0423 -0.1165
    1W        W47565  10.903  16.197   2.272  0.2575  0.1471 -0.2151
    1W        W47566  23.424   0.476   7.274  0.0682  0.3878 -0.0150
    1W        W47567  28.047  29.141   1.038  0.0229 -0.3354  0.1364
    1W        W47568   6.991  10.587   1.099 -0.0047 -0.2389 -0.1196
    1W        W47569  19.941   6.685   7.596 -0.0040 -0.0585  0.1355
    1W        W47570  15.748  20.949   7.110 -0.0328 -0.1958  0.0385
    1W        W47571  21.119  26.721   3.000 -0.0480 -0.5136  0.2123
    1W        W47572  22.449   5.639   8.040  0.0825  0.4862 -0.0913
    1W        W47573  19.424  27.544   6.757 -0.1330 -0.0305 -0.0377
    1W        W47574   5.848  19.226   2.899  0.2057 -0.2812  0.2359
    1W        W47575  28.324  27.817   1.115  0.1604 -0.0800  0.0336
    1W        W47576  12.108  15.878   6.763 -0.2673  0.2784 -0.0269
    1W        W47577  23.311  22.700   0.487 -0.0524  0.1243 -0.1060
    1W        W47578  22.714  18.334   7.437 -0.0387  0.1149  0.1649
    1W        W47579  16.452  24.841   0.172  0.0320  0.0552  0.0851
    1W        W47580   8.138  19.461   1.609 -0.0464  0.4783 -0.0115
    1W        W47581  10.200   2.132   9.506 -0.0374 -0.1795 -0.3138
    1W        W47582   3.496   5.270   0.568  0.0212 -0.1546  0.1304
    1W        W47583   7.366  13.866   1.760 -0.2789  0.2097  0.1429
    1W        W47584   4.967   7.311   2.335  0.3832 -0.1184 -0.1101
    1W        W47585   0.419  17.369   2.120  0.0296 -0.0208  0.0485
    1W        W47586   7.694  22.740   6.947 -0.1063 -0.0775 -0.1589
    1W        W47587  15.027   3.192   0.905 -0.1256 -0.1124 -0.3157
    1W        W47588  12.579   2.905   6.402  0.6503 -0.0427 -0.0148
    1W        W47589   8.002  25.001   2.465  0.2475  0.0095  0.0447
    1W        W47590  28.331   1.364   8.471 -0.3265 -0.4538 -0.3892
    1W        W47591  19.240  24.863   1.969  0.0041  0.2278  0.0335
    1W        W47592  26.769  20.573   0.056 -0.0611  0.2354 -0.0989
    1W        W47593   7.344  28.579   9.536  0.2630 -0.3451  0.1691
    1W        W47594  23.596   0.786   2.468 -0.1008  0.0501 -0.2640
    1W        W47595  17.136  15.410   0.658  0.0347  0.0904 -0.0582
    1W        W47596  29.018  28.850   0.163  0.0446  0.1628 -0.1809
    1W        W47597   9.417   0.897   7.059 -0.0459 -0.2197  0.1870
    1W        W47598   9.145  24.332   1.361  0.2271 -0.0375 -0.1073
    1W        W47599   8.028  23.069   8.195  0.1361 -0.3031  0.2214
    1W        W47600  24.475  21.025   8.714 -0.0260  0.0354  0.0887
    1W        W47601   9.113  16.617   0.282  0.0943 -0.1372  0.0057
    1W        W47602  13.023   6.465   1.367  0.1449  0.0781  0.4853
    1W        W47603  28.520   4.117   7.363 -0.1966 -0.1872  0.0962
    1W        W47604   5.874  27.225   0.715  0.2065  0.0367  0.0764
    1W        W47605  17.669   4.586   6.821 -0.2100  0.0412 -0.0320
    1W        W47606  16.143  25.324   8.704 -0.0059  0.1888 -0.2083
    1W        W47607  20.967  11.313   7.573 -0.1933 -0.3677  0.0141
    1W        W47608  27.826  16.148   2.377  0.0909 -0.0820  0.0028
    1W        W47609  20.624  25.494   8.144  0.1024 -0.1414  0.2628
    1W        W47610  29.076  28.194   1.367  0.1574  0.4154 -0.0815
    1W        W47611  23.604  17.745   7.412 -0.0515  0.0625  0.3200
    1W        W47612  11.665   4.600   2.648 -0.3319  0.1265  0.0463
    1W        W47613   6.720  13.760   6.585 -0.2011 -0.1529  0.1956
    1W        W47614   8.795   3.717   1.825 -0.1065 -0.0425  0.2149
    1W        W47615   6.600  22.761   0.140  0.2196 -0.0248 -0.0502
    1W        W47616  16.677  28.943   2.844  0.0567 -0.0759  0.0770
    1W        W47617   5.351   7.906   6.030 -0.0371 -0.0233 -0.2210
    1W        W47618  12.355  22.143   0.315 -0.1464 -0.0979  0.0738
    1W        W47619  26.708  20.771   1.022 -0.2806  0.2255 -0.1181
    1W        W47620  21.046   4.122   6.967 -0.0646 -0.1577 -0.2729
    1W        W47621  16.781  18.171   1.728 -0.1886 -0.0525 -0.0672
    1W        W47622  26.479  19.227   0.263 -0.0596 -0.0747 -0.1349
    1W        W47623  17.039  28.418   3.598 -0.0876  0.2067  0.0090
    1W        W47624  10.543  12.707   9.150 -0.0472 -0.1512 -0.1596
    1W        W47625   5.700  11.419   7.264  0.0984 -0.0826 -0.0857
    1W        W47626   7.446  17.305   1.477  0.1081  0.0310 -0.0436
    1W        W47627   5.213   6.885   5.995 -0.0693 -0.1007  0.2891
    1W        W47628   4.323   2.548   9.501 -0.1020  0.0810  0.0939
    1W        W47629   9.996  16.003   0.676  0.4460  0.1197  0.2018
    1W        W47630  16.986  18.444   1.086  0.3374  0.0524  0.0645
    1W        W47631  11.121   9.232   1.654 -0.1696 -0.1671 -0.1210
    1W        W47632   5.688  27.596   1.601  0.1221  0.1083 -0.3381
    1W        W47633  15.457   8.644   1.893 -0.3442  0.0790 -0.0345
    1W        W47634   4.456  17.562   6.701 -0.1290 -0.1411 -0.5133
    1W        W47635  19.097  28.224   8.083 -0.1762  0.0583 -0.0494
    1W        W47636   8.316  16.424   8.934 -0.2033  0.0607  0.1844
    1W        W47637  19.302  26.528   2.239  0.0242  0.0858 -0.0783
    1W        W47638  18.521  25.278   3.435 -0.3846 -0.0969  0.0018
    1W        W47639  14.251   1.108   0.594 -0.3810  0.1827  0.1250
    1W        W47640  26.876   7.687   1.940 -0.2685  0.2221 -0.0467
    1W        W47641   4.185  27.844   6.402 -0.2186  0.0290 -0.1939
    1W        W47642   3.531   1.702   1.241 -0.2761  0.1327  0.0126
    1W        W47643  17.175  23.710   2.287 -0.1580 -0.0039  0.0676
    1W        W47644  16.287   3.606   9.011  0.0785  0.1998  0.1249
    1W        W47645   1.647   1.697   7.565  0.0733  0.0136 -0.0590
    1W        W47646   0.523  16.402   2.776 -0.3259 -0.0774 -0.0580
    1W        W47647  27.368  26.103   8.386  0.1196  0.2648  0.0520
    1W        W47648  26.923  22.885   0.115 -0.0910 -0.0201  0.3176
    1W        W47649  26.436  24.761   9.150  0.2270  0.1877  0.2447
    1W        W47650  20.719  14.747   8.017 -0.1211  0.1289  0.2184
    1W        W47651   0.999  11.814   8.520  0.0850 -0.1697 -0.2406
    1W        W47652  24.310   0.184   2.900  0.2701  0.0479 -0.0839
    1W        W47653   6.075   7.382   0.883  0.0573 -0.0429 -0.2060
    1W        W47654  14.071   2.597   0.241 -0.1413 -0.0561  0.2098
    1W        W47655  13.463   1.258   8.268  0.3086  0.0112  0.1947
    1W        W47656  20.285   0.582   7.573 -0.2475  0.3035  0.0276
    1W        W47657  18.145   4.535   2.587 -0.1246  0.1744  0.2012
    1W        W47658   1.637  22.476   1.830 -0.3683  0.4813 -0.0371
    1W        W47659  20.827   4.773   2.483 -0.1794  0.2113  0.1056
    1W        W47660   4.157  21.278   0.044  0.0338  0.2147  0.0982
    1W        W47661  19.968   0.065   3.812  0.1617 -0.1169  0.1797
    1W        W47662  13.806   8.764   1.062 -0.0795 -0.0407  0.0099
    1W        W47663  27.247  18.500   3.020  0.0243  0.5202  0.0100
    1W        W47664  25.027  25.242   9.485  0.5374  0.2484 -0.1238
    1W        W47665  27.107  11.821   7.739 -0.2305 -0.0755 -0.1016
    1W        W47666  24.684  14.691   8.510  0.1079  0.1606 -0.3498
    1W        W47667   0.850  22.394   0.289 -0.3192 -0.3411 -0.2877
    1W        W47668  29.304   4.009   1.776 -0.4568  0.0220 -0.0359
    1W        W47669  27.074   1.247   8.464 -0.1386 -0.2257  0.0500
    1W        W47670  12.382  19.468   6.935  0.0526 -0.2408  0.1068
    1W        W47671   4.089  16.540   8.853  0.3719  0.0936  0.3025
    1W        W47672  28.011   3.054   8.414  0.0108  0.2825  0.1911
    1W        W47673  14.353  15.705   7.400 -0.2073  0.1919  0.2813
    1W        W47674  29.353  25.457   9.108 -0.1835  0.0430 -0.1680
    1W        W47675   2.403   1.004   2.008  0.1642  0.0570 -0.2503
    1W        W47676  29.297  14.606   1.919  0.1253 -0.0696 -0.1146
    1W        W47677  24.675   5.783   8.882  0.1445  0.0141 -0.1673
    1W        W47678   7.282   8.937   1.098 -0.2315 -0.0967 -0.3472
    1W        W47679  16.253   6.260   8.571  0.1690 -0.2182 -0.0421
    1W        W47680  23.517  12.056   0.918  0.0152 -0.1417 -0.0622
    1W        W47681   3.886  23.336   7.377  0.1847 -0.0943  0.1059
    1W        W47682   8.130  14.660   7.594  0.0994 -0.0530 -0.0986
    1W        W47683   4.511   0.380   8.505  0.0928  0.0688  0.0524
    1W        W47684  27.459  10.705   9.248  0.2458 -0.1085 -0.0737
    1W        W47685  12.864  21.172   7.435  0.2432  0.0146  0.2500
    1W        W47686  16.955   4.610   0.212 -0.2574  0.0975 -0.1480
    1W        W47687  19.143   0.546   1.278 -0.2283  0.0515  0.1155
    1W        W47688   0.098  20.765   1.339 -0.5024  0.1011  0.3363
    1W        W47689  15.787   7.415   8.575 -0.2388 -0.1619  0.0268
    1W        W47690  16.377   2.983   6.553 -0.0431  0.0355  0.4716
    1W        W47691   9.141   9.562   0.758  0.0924 -0.1777  0.2430
    1W        W47692  19.935  13.413   2.789 -0.0625  0.0938  0.0641
    1W        W47693  17.723  27.545   2.520  0.1633 -0.0477 -0.0219
    1W        W47694   7.560  13.442   7.533  0.0708  0.1458  0.1762
    1W        W47695  29.452   8.733   9.322  0.1329 -0.0078 -0.4661
    1W        W47696   7.061  25.132   0.137 -0.0372 -0.1564  0.1155
    1W        W47697   9.497  24.575   3.028  0.2587 -0.0309 -0.2639
    1W        W47698  22.639  27.487   8.103  0.2535  0.2371 -0.2436
    1W        W47699  19.780  29.454   1.201 -0.2021  0.3787  0.0614
    1W        W47700  19.891  11.530   7.411  0.1396  0.0542  0.1355
    1W        W47701   8.094   7.289   7.282 -0.0306 -0.0363 -0.1108
    1W        W47702   1.964  16.899   0.902 -0.0517  0.0862  0.0368
    1W        W47703  22.066  16.003   1.823  0.0685 -0.0428 -0.0582
    1W        W47704  23.049   4.828   8.292 -0.1535 -0.0630 -0.2524
    1W        W47705   5.430  23.299   9.055  0.0791  0.3548  0.0375
    1W        W47706  17.316  21.829   7.819  0.2245  0.0016 -0.2691
    1W        W47707  14.541   0.545   8.964 -0.0318  0.1906 -0.0018
    1W        W47708  11.562   6.326   6.226  0.1379  0.0406 -0.2223
    1W        W47709  28.819  17.830   0.109  0.0518 -0.0830 -0.0685
    1W        W47710  24.054   7.981   0.750  0.0775 -0.2130  0.0250
    1W        W47711  17.590  18.911   0.840 -0.4974  0.0023  0.1506
    1W        W47712  28.408   4.565   7.550 -0.2021  0.2809  0.0821
    1W        W47713   5.810  15.969   8.696  0.0712 -0.2363 -0.0282
    1W        W47714  13.382  15.468   0.261  0.5217 -0.3942 -0.1337
    1W        W47715  14.710  12.838   9.562 -0.3349  0.0951 -0.3115
    1W        W47716  20.942   7.783   9.588 -0.2605 -0.1195  0.4512
    1W        W47717  24.527   1.094   9.334  0.0448 -0.2101  0.0140
    1W        W47718  12.048  13.766   6.874 -0.0788 -0.0903  0.2467
    1W        W47719  22.357  22.558   3.458  0.3728  0.0133 -0.0732
    1W        W47720  26.701  17.772   8.828  0.0934 -0.2759  0.0345
    1W        W47721  10.253   3.175   1.743  0.1743 -0.2110 -0.0763
    1W        W47722   8.661  20.828   2.515  0.0797  0.1203  0.2001
    1W        W47723  20.479   2.780   8.423  0.0661 -0.0348 -0.1801
    1W        W47724   1.536   6.214   7.789 -0.0147  0.0647  0.2783
    1W        W47725  15.397  16.149   9.491 -0.1762 -0.1092  0.3704
    1W        W47726   4.075   9.009   9.282  0.1154  0.0211  0.1760
    1W        W47727  26.395  16.908   1.421 -0.2074  0.1668 -0.0676
    1W        W47728   8.551  27.344   8.625  0.1628  0.3879  0.2842
    1W        W47729  28.554  22.259   3.551  0.4523  0.1911  0.1160
    1W        W47730   0.394   1.381   0.413  0.2496  0.2825  0.2348
    1W        W47731  12.692  12.258   8.575  0.1544  0.2618 -0.4447
    1W        W47732  21.585   0.446   8.492  0.0226 -0.1498 -0.0846
    1W        W47733  26.928  25.837   8.423 -0.4808 -0.3117 -0.0862
    1W        W47734   6.315  15.912   7.261 -0.2399  0.0877  0.1256
    1W        W47735  14.780  13.989   1.390  0.1884 -0.2006 -0.0859
    1W        W47736   9.162   8.734   1.259  0.1330 -0.3348 -0.4532
    1W        W47737  24.516  12.028   0.747 -0.3236 -0.1511  0.0109
    1W        W47738   9.019  18.174   6.544 -0.0800  0.2784 -0.1395
    1W        W47739  13.623   1.646   7.860  0.0470  0.2612 -0.1997
    1W        W47740  16.867  10.482   2.246 -0.0510  0.2770 -0.0265
    1W        W47741  23.151  13.813   0.885 -0.2378 -0.0748  0.0068
    1W        W47742  20.017  22.283   8.765 -0.0456  0.1768 -0.1332
    1W        W47743  25.151  23.126   0.816  0.0940  0.1402 -0.2284
    1W        W47744   4.936  13.684   2.142  0.2392 -0.3267  0.1184
    1W        W47745  12.233   5.234   6.960 -0.2794  0.4170 -0.0744
    1W        W47746  11.728   7.047   6.779 -0.1334  0.4606  0.0458
    1W        W47747  19.825   2.387   1.553  0.0468 -0.0026 -0.2614
    1W        W47748   3.755   6.389   1.771 -0.2158  0.0138 -0.1482
    1W        W47749   9.837  20.437   6.596 -0.0665  0.0532 -0.1921
    1W        W47750  11.759  10.714   6.852 -0.0265  0.1429  0.0912
    1W        W47751  20.957  19.303   0.589  0.0466 -0.0650  0.2196
    1W        W47752  23.421  24.733   0.409  0.4700  0.2288 -0.1823
    1W        W47753  16.197   3.643   6.949  0.2658  0.1785  0.0368
    1W        W47754  20.604  19.859   8.609 -0.0976 -0.2439 -0.0615
    1W        W47755  20.511   0.533   2.958 -0.0882 -0.0765  0.1546
    1W        W47756  21.583  24.889   2.809 -0.0599  0.0833 -0.1908
    1W        W47757  16.402  25.357   2.180  0.2425  0.0088 -0.0647
    1W        W47758  16.390  20.042   8.016 -0.0133  0.2135  0.2736
    1W        W47759  19.712   0.142   8.066  0.0584 -0.3012 -0.1767
    1W        W47760   5.110  23.766   9.369 -0.1462 -0.2780 -0.0363
    1W        W47761   1.534  22.492   7.518  0.0356  0.1111  0.0944
    1W        W47762   8.367  17.485   6.742 -0.5114 -0.0687 -0.0841
    1W        W47763  23.733  12.597   9.149 -0.0671 -0.2427 -0.0313
    1W        W47764   2.995   2.768   7.944  0.3796 -0.0694 -0.0832
    1W        W47765  12.395   1.393   7.418 -0.0735 -0.0444  0.2057
    1W        W47766   8.295  24.617   2.006  0.3947 -0.1235 -0.1423
    1W        W47767   1.312   8.954   1.472  0.1333 -0.0245  0.1705
    1W        W47768   9.640   2.365   7.760  0.2316  0.2146 -0.0148
    1W        W47769  13.528  24.850   9.605  0.1082 -0.1997 -0.1110
    1W        W47770   0.306  26.067   1.329  0.1404  0.0067 -0.0392
    1W        W47771  29.153   6.773   1.985 -0.2944 -0.0174  0.1807
    1W        W47772   2.735  11.202   0.594 -0.2718 -0.0535 -0.1982
    1W        W47773  28.176  26.420   1.703 -0.2048 -0.1618  0.2223
    1W        W47774   8.537   0.694   1.674 -0.0207 -0.0457  0.2134
    1W        W47775  10.757  16.664   2.459  0.1817 -0.0913  0.1194
    1W        W47776  16.792   5.000   8.819 -0.2539  0.1420 -0.0943
    1W        W47777   8.704  28.070   5.792  0.0562 -0.0800  0.2548
    1W        W47778  28.265  23.735   9.047  0.1788  0.0230  0.1324
    1W        W47779  21.115  24.023   0.772 -0.1358  0.1748  0.0737
    1W        W47780   9.993  10.149   7.867 -0.1452 -0.1441  0.0600
    1W        W47781   4.155  20.154   0.562  0.2860  0.0247  0.0588
    1W        W47782   7.743   2.385   0.845 -0.0810 -0.1754 -0.2417
    1W        W47783  23.841   8.601   1.728  0.2250  0.0658  0.0045
    1W        W47784   5.767  27.608   1.111  0.0994 -0.2793 -0.2625
    1W        W47785  16.874  26.300   2.031 -0.0112 -0.0100  0.2667
    1W        W47786   2.037  18.655   1.015  0.3835  0.2655  0.0407
    1W        W47787   3.473  23.870   1.230  0.0939  0.0057 -0.1650
    1W        W47788   1.875  19.950   2.787  0.0852 -0.1475  0.0497
    1W        W47789  25.096   7.501   1.332 -0.0052 -0.0614  0.2548
    1W        W47790   6.522  26.482   2.329 -0.1930  0.0305 -0.0098
    1W        W47791   9.168  17.777   1.955  0.1432  0.3617 -0.1162
    1W        W47792  15.457   1.817   8.560 -0.0491 -0.0143 -0.2366
    1W        W47793  24.279  27.934   3.599  0.3929 -0.0921 -0.2276
    1W        W47794   5.403  25.640   7.745 -0.1881 -0.0945  0.0785
    1W        W47795  18.729  11.914   8.464  0.1696  0.0368 -0.0350
    1W        W47796  14.571  13.695   0.086  0.4481  0.0234  0.0317
    1W        W47797   9.987   8.237   8.156 -0.0431 -0.1574  0.1553
    1W        W47798  19.272   4.100   2.636  0.0686  0.2761  0.3627
    1W        W47799  27.254   4.776   8.431 -0.2904  0.0034 -0.1726
    1W        W47800   7.366  12.830   0.549  0.4077  0.0081  0.0421
    1W        W47801  12.422  11.809   0.290 -0.1241  0.1971  0.0249
    1W        W47802  16.690   1.038   1.908 -0.1284 -0.0614  0.0972
    1W        W47803  22.907   7.120   7.563  0.4648 -0.2023  0.0418
    1W        W47804   9.165  25.898   8.575  0.0141 -0.0081 -0.3232
    1W        W47805  10.597  20.860   1.834  0.2527  0.2750  0.2439
    1W        W47806   3.742  12.469   1.073 -0.2921 -0.1729 -0.0819
    1W        W47807  10.584   6.034   9.181  0.0535  0.0747 -0.0378
    1W        W47808  14.952  15.302   1.746  0.5094 -0.0091  0.1893
    1W        W47809  27.606  12.181   8.906  0.0284  0.1214 -0.0683
    1W        W47810  23.725  28.301   2.865 -0.0102  0.0559  0.3176
    1W        W47811  19.541  24.815   7.494  0.0651  0.0385  0.1132
    1W        W47812  10.176  22.099   6.757  0.0956 -0.0369  0.3092
    1W        W47813  11.044  28.301   0.475  0.1010 -0.0560  0.3029
    1W        W47814  12.150  28.882   0.715 -0.0349 -0.1495  0.1094
    1W        W47815   3.267   8.800   8.581 -0.0434 -0.1965  0.2616
    1W        W47816   5.145  24.675   1.171 -0.0791 -0.1013 -0.1328
    1W        W47817   3.041  23.813   2.620  0.2325  0.2365  0.0208
    1W        W47818  20.254  21.736   8.439 -0.0449  0.1997 -0.0181
    1W        W47819   7.935  10.926   7.740  0.0907  0.1898 -0.1011
    1W        W47820  19.157  24.776   0.166  0.0933  0.0613 -0.2184
    1W        W47821  26.077  20.956   2.224 -0.2768 -0.0352  0.0922
    1W        W47822  24.468  14.464   2.595  0.2177 -0.3506 -0.1159
    1W        W47823  27.749   8.204   7.775 -0.0971  0.2542  0.2716
    1W        W47824  14.869  10.240   0.290  0.1084 -0.0976  0.0953
    1W        W47825  27.372   3.330   8.161 -0.0627  0.2838 -0.1330
    1W        W47826  10.660  14.455   2.434 -0.0101 -0.1236  0.2602
    1W        W47827  11.992  24.320   7.845  0.2189 -0.1942  0.3182
    1W        W47828  27.613  17.701   3.419  0.1862  0.1039  0.1597
    1W        W47829  16.027  15.947   6.351  0.0557 -0.0627  0.0680
    1W        W47830  18.109  23.874   0.138  0.0259  0.0511  0.1059
    1W        W47831   6.944  27.033   8.055 -0.1445 -0.0399 -0.1038
    1W        W47832   1.081  22.509   3.650  0.1644 -0.0002  0.1442
    1W        W47833  25.453  24.216   1.728  0.1017  0.0686 -0.0369
    1W        W47834  19.643  10.114   7.649  0.2646 -0.0647 -0.0960
    1W        W47835  13.076   4.329   9.025  0.0666  0.0023  0.1183
    1W        W47836  23.459  11.366   0.376 -0.1097 -0.4007 -0.2387
    1W        W47837   2.314  13.683   7.097  0.1412 -0.5083  0.1177
    1W        W47838   9.895   8.697   7.717  0.2514  0.0357  0.0541
    1W        W47839   6.237   0.138   8.065 -0.1392  0.1036 -0.0822
    1W        W47840   4.403   5.156   6.148  0.0547  0.2175  0.0055
    1W        W47841  24.306   8.186   0.386 -0.1504 -0.0193 -0.3042
    1W        W47842  11.296  22.485   2.055 -0.1622  0.1682 -0.2263
    1W        W47843  21.959   6.697   1.508  0.2960 -0.2414 -0.1903
    1W        W47844  13.263  20.203   0.521  0.0301  0.1467  0.0939
    1W        W47845  12.764  20.950   1.688 -0.1575  0.2482  0.2421
    1W        W47846  14.073   9.162   9.426  0.2660  0.0554 -0.2253
    1W        W47847   6.909  20.481   1.071  0.2969 -0.1102  0.2070
    1W        W47848  25.318   1.541   7.538  0.6056  0.1030  0.2572
    1W        W47849   4.284  28.170   2.362  0.1777  0.1877  0.1404
    1W        W47850   1.424   8.722   0.411 -0.0888 -0.0782 -0.0497
    1W        W47851   1.789  19.191   9.206  0.0136  0.2763 -0.3789
    1W        W47852  17.250  26.628   0.400 -0.2488  0.5319 -0.2942
    1W        W47853  19.243  13.269   7.682  0.0384  0.4418 -0.1517
    1W        W47854  25.000  29.030   8.890 -0.2629  0.0971 -0.0021
    1W        W47855  18.352  15.517   1.475 -0.1101 -0.1494  0.3379
    1W        W47856   7.271  14.119   2.164  0.0270  0.0160 -0.0096
    1W        W47857  15.173  16.592   2.480 -0.2387  0.2147  0.1575
    1W        W47858   5.316  23.593   7.101 -0.2981 -0.0089 -0.1786
    1W        W47859  14.775  22.005   0.787  0.1800  0.2650 -0.0259
    1W        W47860  12.236  18.649   0.215 -0.2286  0.0117 -0.0912
    1W        W47861   1.865   8.955   7.483 -0.1210  0.1664  0.1630
    1W        W47862  18.238  12.436   1.549 -0.2251 -0.0261  0.2884
    1W        W47863  20.233   0.720   0.323 -0.1433  0.2203 -0.0260
    1W        W47864  27.700  22.679   3.504 -0.0161 -0.0395 -0.0176
    1W        W47865  24.824   0.427   7.026 -0.0438 -0.1839  0.1102
    1W        W47866   2.237  27.799   7.925 -0.0366 -0.1927  0.1551
    1W        W47867  10.484  20.421   0.309  0.2878 -0.2083 -0.1588
    1W        W47868  17.480  23.809   0.325  0.0528 -0.2056  0.1433
    1W        W47869   8.811  18.971   9.584  0.1784 -0.2493  0.0502
    1W        W47870  28.600  21.265   7.810  0.0231  0.0313 -0.0808
    1W        W47871  16.937  29.324   3.237 -0.3163 -0.0395 -0.2618
    1W        W47872  28.632   2.850   6.107  0.2180  0.2900  0.0926
    1W        W47873   3.141  22.766   7.761  0.0865  0.0330 -0.2265
    1W        W47874  26.965  23.002   7.342 -0.0775  0.0427  0.0938
    1W        W47875   6.380  14.459   6.459 -0.2442  0.2199 -0.1487
    1W        W47876  20.025  18.273   2.453 -0.2822  0.0814  0.3139
    1W        W47877  25.246   5.327   8.412  0.1977 -0.2040 -0.0151
    1W        W47878  25.615  19.856   0.744  0.3627  0.1602 -0.0565
    1W        W47879  26.822  16.789   1.711  0.0469 -0.0335 -0.2607
    1W        W47880  14.489   7.198   6.800 -0.1821 -0.0778  0.1060
    1W        W47881   7.152  17.588   7.819  0.2240  0.2367 -0.1197
    1W        W47882  19.868  22.599   8.274  0.3540 -0.1362  0.2212
    1W        W47883   6.630  21.775   0.955 -0.0171 -0.2770  0.1401
    1W        W47884  21.316  24.235   1.301 -0.3689 -0.4127  0.1511
    1W        W47885  22.899  13.908   7.403 -0.0613  0.4603 -0.1061
    1W        W47886   8.625   5.150   1.927  0.0858 -0.0337  0.3674
    1W        W47887   4.152  15.149   6.631 -0.0466 -0.4835 -0.1372
    1W        W47888   5.495  21.503   2.787  0.0759  0.0051 -0.1542
    1W        W47889  18.896  23.536   7.423 -0.2757 -0.0117 -0.0842
    1W        W47890  29.254  24.896   6.431  0.2295  0.1480 -0.0778
    1W        W47891   1.911   8.567   1.057 -0.1762  0.2305 -0.3657
    1W        W47892  28.090  25.436   2.428 -0.2185 -0.0957 -0.1229
    1W        W47893  22.600  23.884   0.987  0.1145  0.0783  0.2379
    1W        W47894   6.773   3.659   6.484 -0.0483  0.1022 -0.2726
    1W        W47895   0.644   2.072   7.560 -0.0863 -0.1643  0.0635
    1W        W47896   3.714   7.905   7.562  0.1100  0.0888  0.1880
    1W        W47897  12.322  16.584   2.071  0.1696  0.1962  0.1538
    1W        W47898   9.033   5.975   1.467  0.2366  0.1645  0.3458
    1W        W47899  22.537  22.318   2.977  0.1395 -0.2330  0.3288
    1W        W47900  22.325  25.468   1.998  0.4008 -0.0563 -0.0255
    1W        W47901   9.041  14.353   8.008 -0.0873 -0.1083  0.0870
    1W        W47902  13.914   4.828   0.396  0.2109  0.1659 -0.1379
    1W        W47903  24.768  22.745   3.380  0.0582 -0.3876 -0.1174
    1W        W47904  19.185  18.524   8.033 -0.3270 -0.1611 -0.0228
    1W        W47905   8.941  20.028   1.710 -0.0180 -0.0274  0.0024
    1W        W47906   2.711  24.627   2.274  0.0797 -0.3444 -0.0914
    1W        W47907  26.343  19.386   1.256  0.2887  0.0425  0.6315
    1W        W47908  25.168  13.420   7.573 -0.0001  0.0547  0.1305
    1W        W47909  22.132  10.766   1.999 -0.0576 -0.1916 -0.2336
    1W        W47910  18.880   2.281   8.687 -0.0623  0.0546  0.0417
    1W        W47911   3.159  27.053   2.403 -0.0493  0.1963 -0.1961
    1W        W47912  13.254  23.489   2.465  0.0640 -0.0623  0.1801
    1W        W47913   6.298  21.541   6.279  0.0331  0.2141 -0.0620
    1W        W47914  20.264  23.592   0.568  0.0033 -0.0151 -0.1149
    1W        W47915   3.590  23.217   7.966 -0.2414 -0.0343  0.0772
    1W        W47916  13.119  10.181   8.119  0.3010 -0.4397 -0.3766
    1W        W47917   3.551   4.560   0.661 -0.0039  0.0580  0.0804
    1W        W47918  11.011   1.339   0.837 -0.0139 -0.0751 -0.0578
    1W        W47919   5.945   2.259   1.365  0.0047  0.2623  0.2569
    1W        W47920  14.249  29.594   1.925 -0.0331  0.3114 -0.0916
    1W        W47921   8.152  26.987   7.246 -0.0895  0.3589 -0.0251
    1W        W47922   6.932   1.294   1.766  0.2738  0.4283  0.0107
    1W        W47923  28.254   3.273   7.131  0.0079  0.2311  0.0173
    1W        W47924  13.556  28.537   8.577  0.1391 -0.3282  0.4258
    1W        W47925   5.988  10.081   6.136 -0.4177 -0.3655  0.0387
    1W        W47926   7.125  25.879   3.153  0.0024  0.1900  0.0292
    1W        W47927  21.408  18.561   8.728 -0.3005  0.3263  0.0025
    1W        W47928  27.031   3.943   7.393  0.3604 -0.0014 -0.0678
    1W        W47929  19.643  10.654   0.583 -0.1037  0.1328 -0.1001
    1W        W47930  10.386  13.719   0.852 -0.1561  0.1355 -0.1494
    1W        W47931   0.474  27.928   8.049  0.0263 -0.0539 -0.0931
    1W        W47932   1.238  16.350   0.410 -0.1389 -0.2313 -0.1371
    1W        W47933  26.903  11.589   7.332 -0.0325  0.0084  0.1068
    1W        W47934  17.917  16.384   3.013  0.3374  0.0595 -0.2358
    1W        W47935  11.426  14.894   7.057  0.4745  0.0715 -0.0062
    1W        W47936   8.196   6.960   5.835 -0.0849  0.1241 -0.0419
    1W        W47937  21.741  25.444   7.992 -0.2415 -0.0168 -0.1148
    1W        W47938  28.684  13.819   7.647  0.1706 -0.3555  0.1890
    1W        W47939  12.140  21.940   7.357  0.0025  0.2436  0.0934
    1W        W47940   6.749  12.803   6.231 -0.0705  0.3227  0.1566
    1W        W47941  26.102  10.322   1.044 -0.1846 -0.1904 -0.1213
    1W        W47942  19.348  19.730   7.509 -0.1108 -0.2245 -0.2304
    1W        W47943  13.939  28.773   8.875 -0.0236  0.0093 -0.1271
    1W        W47944   8.444   7.196   2.249 -0.2477 -0.1855  0.2655
    1W        W47945  25.077   5.269   1.272 -0.0329  0.0325 -0.0828
    1W        W47946   3.263  25.664   2.841  0.0226  0.1700 -0.3353
    1W        W47947  19.286  14.198   2.003 -0.0033  0.2899 -0.1452
    1W        W47948  21.566  19.967   7.842  0.0788  0.3054  0.1391
    1W        W47949  15.516  23.093   0.852 -0.1644  0.1038  0.1456
    1W        W47950   2.523   8.892   8.831  0.0961 -0.1730 -0.2079
    1W        W47951  24.200  17.863   6.646  0.1912 -0.1467  0.0876
    1W        W47952   4.568  13.249   6.286  0.1261 -0.1608  0.0378
    1W        W47953  28.529  24.154   9.255  0.2142  0.0159  0.3456
    1W        W47954   4.621  29.462   1.729  0.0844 -0.1973 -0.1139
    1W        W47955   6.198  24.546   0.641  0.1186 -0.0629 -0.1401
    1W        W47956  24.221   9.028   2.296 -0.1945 -0.4313  0.0969
    1W        W47957   6.044  24.228   8.037 -0.0615  0.2461  0.1382
    1W        W47958  27.802  12.169   1.015  0.0494 -0.0252  0.0635
    1W        W47959  15.904  13.840   2.350  0.2656 -0.1511 -0.2257
    1W        W47960   6.395   1.462   7.006  0.0946  0.0764 -0.1497
    1W        W47961   2.233   6.935   0.801  0.1506 -0.2867 -0.2344
    1W        W47962  24.009   2.835   0.188  0.1748  0.0025  0.0712
    1W        W47963  27.053  20.660   0.494 -0.0526 -0.0695  0.0282
    1W        W47964   0.511  21.428   7.428 -0.1735 -0.1459  0.0301
    1W        W47965  14.742  19.197   1.714 -0.1286  0.1654  0.0881
    1W        W47966  11.763  12.487   5.906  0.0768 -0.2299 -0.0616
    1W        W47967  10.616   5.685   1.521  0.1685  0.0127 -0.0941
    1W        W47968  14.990  18.623   8.767 -0.0524 -0.3157  0.3118
    1W        W47969  13.802  26.432   7.134  0.0671  0.1148  0.2197
    1W        W47970  26.161  28.963   3.608  0.1371  0.2772 -0.1944
    1W        W47971  20.364  17.046   2.128 -0.1256  0.1414  0.0416
    1W        W47972   1.936   2.628   6.761 -0.1007  0.0213  0.1024
    1W        W47973  16.607  10.958   2.235 -0.0231  0.1573  0.2547
    1W        W47974  27.637  22.881   9.455  0.0552 -0.1042 -0.0982
    1W        W47975  15.238  19.461   6.790  0.0207 -0.1672  0.1036
    1W        W47976   0.527  25.204   9.323 -0.2931 -0.0191 -0.0566
    1W        W47977   8.443   6.070   0.686 -0.1165 -0.0661  0.1123
    1W        W47978  13.101  17.699   9.002  0.2412 -0.1129  0.1017
    1W        W47979  23.340   1.089   1.387 -0.0311 -0.2052 -0.3116
    1W        W47980  20.323  23.914   1.706 -0.0127 -0.2260 -0.1956
    1W        W47981   5.113  27.110   9.182  0.1782  0.1472  0.1207
    1W        W47982   0.450   4.806   6.885 -0.1310  0.2707  0.2506
    1W        W47983  24.929  13.960   7.373 -0.0553  0.1738  0.1305
    1W        W47984  19.762   3.972   2.475  0.1721 -0.1446  0.1366
    1W        W47985  24.847   0.192   9.341 -0.1664 -0.1786  0.3416
    1W        W47986  10.284   7.451   1.434  0.1001  0.0083  0.1636
    1W        W47987  13.324  13.533   8.483  0.3322 -0.1010  0.3478
    1W        W47988  26.391  17.770   6.675  0.1694  0.2024 -0.2006
    1W        W47989   5.914  10.684   8.980 -0.0910  0.0583 -0.1156
    1W        W47990  13.777  19.767   0.506  0.1475 -0.1340 -0.6155
    1W        W47991  17.879   1.089   9.105  0.2954 -0.1226  0.2916
    1W        W47992  19.973   9.158   7.931  0.1620  0.0218  0.2998
    1W        W47993  15.889  28.043   2.116  0.0229  0.0104  0.1801
    1W        W47994  27.605  11.656   8.843  0.0127 -0.0676  0.0852
    1W        W47995  21.155  18.737   1.890  0.1455  0.2456 -0.0130
    1W        W47996  13.363  19.071   0.295 -0.0469 -0.1357 -0.2191
    1W        W47997  13.763  20.666   0.580 -0.2733  0.0544  0.1652
    1W        W47998  11.070  16.790   7.928  0.0224 -0.2723  0.1244
    1W        W47999   9.678   5.108   1.702 -0.2134  0.0669 -0.1892
    1W        W48000  25.791  14.216   9.404  0.1933  0.2806 -0.0525
    1W        W48001  28.689  20.189   9.451 -0.1460 -0.3807 -0.0412
    1W        W48002  28.965  20.924   7.999  0.2065 -0.0605 -0.0934
    1W        W48003  28.015   2.712   2.272  0.2110  0.0679 -0.2304
    1W        W48004  15.105  27.632   7.448 -0.0772 -0.2447  0.1815
    1W        W48005  12.303  27.076   9.640 -0.0159  0.4826  0.0512
    1W        W48006  24.157  15.757   9.099  0.1295  0.1334  0.0341
    1W        W48007  28.570  15.865   6.753 -0.0732  0.4641 -0.0316
    1W        W48008  13.058  17.170   0.683  0.0389  0.1912  0.0967
    1W        W48009  20.687   9.459   0.208  0.1861  0.1927 -0.0901
    1W        W48010  17.231  20.962   2.110 -0.1858 -0.1672  0.2814
    1W        W48011  15.633   7.708   2.840 -0.0695 -0.2864 -0.2460
    1W        W48012   7.300   8.631   6.783  0.2307 -0.0353  0.3273
    1W        W48013  14.516   6.529   8.508 -0.1071 -0.2906 -0.0505
    1W        W48014  21.594  14.737   0.071 -0.0371  0.1400  0.0476
    1W        W48015   6.383  19.879   7.451  0.0897 -0.1096  0.1969
    1W        W48016   8.557  26.291   8.597 -0.1557 -0.2245 -0.0651
    1W        W48017   6.617  20.685   2.717 -0.3388  0.3012 -0.2621
    1W        W48018  22.859  11.701   9.021  0.2167 -0.2860 -0.1711
    1W        W48019  13.648  22.375   8.371 -0.1367  0.2247 -0.0349
    1W        W48020  24.613   0.913   7.191 -0.0329 -0.0597  0.1859
    1W        W48021  18.367  26.982   2.459  0.0014 -0.0279  0.0557
    1W        W48022   3.280  25.666   2.022  0.2689 -0.0049 -0.0646
    1W        W48023  23.881   5.471   8.188  0.1468 -0.1199  0.0509
    1W        W48024  26.985  13.524   8.744  0.0527  0.2684 -0.0932
    1W        W48025  21.468   6.750   7.296  0.2383  0.2156 -0.0499
    1W        W48026   5.342  26.187   7.688  0.1177  0.2161  0.1792
    1W        W48027   7.438  18.278   5.900  0.1680  0.0725  0.1125
    1W        W48028   5.992   0.566   2.532  0.1654  0.0150  0.1707
    1W        W48029   1.646  24.006   3.147  0.2573 -0.3696  0.0485
    1W        W48030   5.400   3.522   1.856 -0.1825  0.1803 -0.2055
    1W        W48031  25.897  28.038   2.471 -0.1025  0.2175  0.1731
    1W        W48032   0.263  24.259   2.636  0.0538  0.1678 -0.1167
    1W        W48033  13.860  27.795   6.340 -0.0148 -0.1660  0.1054
    1W        W48034  24.910   6.616   7.373  0.2163 -0.2031 -0.1397
    1W        W48035   3.716  13.797   1.111 -0.1617 -0.0441 -0.0322
    1W        W48036  20.501   6.513   9.034  0.2224 -0.0240 -0.1019
    1W        W48037   1.966   4.239   0.974  0.3611 -0.0944  0.1865
    1W        W48038  28.502  18.643   1.874  0.0125  0.2519  0.1831
    1W        W48039  13.674  18.420   1.514  0.0848  0.0417  0.2878
    1W        W48040  23.823  26.007   9.287 -0.0719  0.1101 -0.1873
    1W        W48041  13.940   7.398   6.783 -0.0883  0.0584 -0.0002
    1W        W48042   7.889   9.368   8.416 -0.1093  0.0856 -0.1410
    1W        W48043   5.944  20.028   7.246  0.0421  0.3452 -0.4463
    1W        W48044  10.257  15.662   7.805  0.0089  0.0446 -0.1981
    1W        W48045  22.354  23.898   2.779 -0.1513  0.0130  0.1638
    1W        W48046  11.885  28.720   2.584 -0.1619 -0.0876 -0.0384
    1W        W48047   1.290  22.303   8.760 -0.2202 -0.1711 -0.2911
    1W        W48048  10.631  18.817   0.461  0.0479 -0.1756 -0.1341
    1W        W48049  15.091  13.597   7.413 -0.1259  0.2318  0.1617
    1W        W48050  12.715  25.846   7.511 -0.0781 -0.0399  0.2390
    1W        W48051  26.643  18.781   7.345  0.3071  0.1082  0.2355
    1W        W48052   5.826  20.502   8.817 -0.0653  0.1960  0.1729
    1W        W48053  15.843  10.005   1.638 -0.2482 -0.1279  0.1028
    1W        W48054  11.169   2.770   2.232 -0.1321 -0.0493 -0.3176
    1W        W48055  24.366   0.102   9.378  0.1997  0.3859 -0.1671
    1W        W48056  10.669  11.023   1.556 -0.2573  0.2010 -0.1424
    1W        W48057  19.408  22.471   2.574 -0.2751  0.1320 -0.0543
    1W        W48058   6.118  10.282   1.191  0.1348 -0.1248  0.0631
    1W        W48059  18.330  17.912   0.152 -0.0716  0.0284 -0.1006
    1W        W48060   7.461  26.574   1.290 -0.0466 -0.4728 -0.0119
    1W        W48061   1.393  29.571   7.962 -0.1792  0.0103  0.0220
    1W        W48062   0.851  13.270   9.317 -0.1568  0.1663 -0.1274
    1W        W48063  14.352  21.953   9.488  0.3854  0.4141 -0.2237
    1W        W48064  23.849  24.639   0.214 -0.0180 -0.0535  0.1392
    1W        W48065  25.752   7.408   1.499  0.2116 -0.1248  0.1949
    1W        W48066  18.490  14.605   1.898 -0.0025 -0.1492 -0.2340
    1W        W48067  22.800   0.078   3.069  0.1809 -0.2489  0.3472
    1W        W48068   5.349  21.105   7.834  0.2661 -0.1688 -0.1495
    1W        W48069  28.486  25.053   8.586 -0.0368  0.0010 -0.0993
    1W        W48070   2.619  21.618   9.071  0.3511 -0.1409  0.3171
    1W        W48071   5.458   0.783   9.466 -0.3662  0.3224 -0.2248
    1W        W48072  10.404  15.909   6.875  0.1196  0.2726  0.0014
    1W        W48073  14.207   9.223   7.709  0.1037  0.1041  0.2888
    1W        W48074  24.082  24.699   3.287 -0.3642 -0.2496 -0.1870
    1W        W48075  15.961  27.165   0.317 -0.2242 -0.1350  0.2260
    1W        W48076  22.819  14.255   0.650  0.0392  0.0014  0.1654
    1W        W48077   9.771  13.144   8.834  0.3627  0.1074 -0.2112
    1W        W48078  28.185  25.430   0.225 -0.0105  0.1938  0.1377
    1W        W48079  26.881   6.775   1.947  0.2844  0.1220 -0.0203
    1W        W48080  15.884   4.201   0.625  0.0054 -0.1660 -0.1835
    1W        W48081  23.051  20.218   7.604  0.3367  0.2612  0.1621
    1W        W48082  15.879   6.699   0.712 -0.0679 -0.3185  0.2758
    1W        W48083   3.160   0.529   7.838 -0.1704  0.0802  0.0923
    1W        W48084   0.772  25.193   8.859  0.1141  0.3858  0.1404
    1W        W48085  27.004   6.416   0.038 -0.0524  0.3512 -0.2215
    1W        W48086   4.740   9.932   5.412  0.0258 -0.1557  0.1049
    1W        W48087   6.149   0.575   7.843  0.0479  0.3727 -0.2328
    1W        W48088  19.662  26.233   0.144 -0.0413 -0.2934 -0.1388
    1W        W48089  20.084  25.268   8.207 -0.0498 -0.1658 -0.2169
    1W        W48090  21.215  15.601   0.308  0.0200 -0.3577  0.1794
    1W        W48091   9.948   1.668   0.286 -0.2676 -0.0181  0.3706
    1W        W48092   5.164  23.688   8.141  0.0180  0.0235 -0.1302
    1W        W48093  11.341  22.225   1.501  0.0708 -0.1111  0.1512
    1W        W48094  14.908  23.694   2.292  0.1100 -0.0326  0.0382
    1W        W48095  16.177  25.370   0.241  0.0437  0.2267  0.0307
    1W        W48096   8.795  13.560   8.786  0.0076  0.3499 -0.0386
    1W        W48097  23.900  20.772   9.057 -0.0894  0.0422 -0.1542
    1W        W48098   2.665  15.900   9.409 -0.0016  0.0737 -0.3153
    1W        W48099   5.059  20.377   2.025  0.0286 -0.3646 -0.4384
    1W        W48100  12.468  17.315   1.359  0.3992  0.0379 -0.0457
    1W        W48101  29.526  28.290   7.017 -0.3407 -0.0710  0.1646
    1W        W48102  23.811  27.026   8.375 -0.2411  0.1370 -0.2443
    1W        W48103  17.471  12.530   0.856 -0.1179  0.0643  0.1061
    1W        W48104  17.747  21.745   8.257 -0.0262 -0.0813  0.4233
    1W        W48105  27.571  18.866   3.001  0.0217  0.2261 -0.2580
    1W        W48106  11.486  24.880   0.732  0.0576  0.4025  0.2003
    1W        W48107  25.078   6.227   8.829 -0.0031  0.1207  0.0280
    1W        W48108  15.469  21.106   6.744 -0.0839 -0.2345 -0.1843
    1W        W48109   6.173  14.792   7.902 -0.0816 -0.1527 -0.0618
    1W        W48110   8.667  20.813   8.226  0.2216 -0.0865 -0.0141
    1W        W48111  12.682  25.398   0.290 -0.1706  0.0659 -0.1745
    1W        W48112   5.238  23.974   8.549  0.0380 -0.0774 -0.1752
    1W        W48113  11.767  16.289   6.934 -0.2170  0.0412  0.2417
    1W        W48114  22.168   2.334   8.052  0.0314  0.0013  0.1572
    1W        W48115  25.846  22.766   1.649  0.2380  0.4728 -0.0905
    1W        W48116  14.936  15.525   8.633 -0.3853 -0.1500 -0.0528
    1W        W48117  27.984  21.381   9.032 -0.1612 -0.0656 -0.2036
    1W        W48118  22.323   8.890   9.139  0.2743 -0.1412 -0.2024
    1W        W48119  25.870  20.149   3.783 -0.1736  0.0550 -0.0275
    1W        W48120   8.700   1.686   6.604 -0.0269 -0.1641  0.1498
    1W        W48121  11.588  19.199   8.924 -0.0304  0.3016 -0.1574
    1W        W48122  28.999  25.844   7.477 -0.1745  0.2084  0.0476
    1W        W48123   2.866  19.271   9.571 -0.1304 -0.2908  0.0532
    1W        W48124   9.052  19.937   7.997 -0.3169  0.1615  0.1311
    1W        W48125  21.907   5.855   9.232 -0.1237 -0.3818 -0.2827
    1W        W48126  21.395  26.723   2.624  0.2162 -0.3137  0.3289
    1W        W48127  25.303  20.285   7.043  0.1364 -0.1156 -0.0600
    1W        W48128   9.633  25.549   7.793 -0.3040  0.5886 -0.0219
    1W        W48129  20.367   7.430   1.244  0.1471  0.0928  0.1257
    1W        W48130   2.770  12.851   7.426  0.1691  0.3193 -0.2657
    1W        W48131  11.796   1.288   8.654 -0.2663 -0.1299 -0.1151
    1W        W48132  14.869   1.641   9.591 -0.0256 -0.1965  0.1348
    1W        W48133   2.689   2.872   5.945  0.0926 -0.2796 -0.2542
    1W        W48134  11.799   5.706   7.243 -0.0622 -0.1338 -0.1634
    1W        W48135   2.130  10.467   2.206  0.0681 -0.1613 -0.1481
    1W        W48136   6.450  22.750   2.551  0.0956  0.0577  0.0090
    1W        W48137  26.440  15.316   1.089  0.2614 -0.1014 -0.2832
    1W        W48138  27.682   2.544   7.863 -0.0495 -0.1687 -0.2045
    1W        W48139   7.668  19.022   2.561 -0.0800 -0.0839  0.0441
    1W        W48140  24.349  17.698   9.349 -0.0277 -0.1163  0.0523
    1W        W48141   6.639  25.185   8.946  0.0250 -0.0624  0.1549
    1W        W48142  26.602  14.045   1.294 -0.3273 -0.2752 -0.3116
    1W        W48143   6.056  18.957   0.653  0.0948  0.2470 -0.1513
    1W        W48144   4.552  21.230   0.908  0.0743 -0.0934  0.0421
    1W        W48145   9.883  14.063   1.388 -0.0670 -0.1089  0.0037
    1W        W48146  24.521   1.475   3.563  0.0023  0.3337 -0.0815
    1W        W48147   0.946   5.655   0.739  0.0596 -0.0186  0.1610
    1W        W48148   1.036   2.862   7.102 -0.0205  0.1846 -0.2066
    1W        W48149   9.092   2.764   5.502  0.2276  0.0253  0.1044
    1W        W48150  11.180  21.444   1.111 -0.1522 -0.2180  0.1402
    1W        W48151  17.050   9.406   0.868 -0.1617 -0.1341  0.0580
    1W        W48152  17.977  15.408   9.161  0.1543  0.1286  0.3902
    1W        W48153   5.391  14.818   6.223  0.2783  0.0521  0.0000
    1W        W48154  28.854  13.909   7.066 -0.0276  0.1566 -0.2943
    1W        W48155   5.274  28.980   1.073 -0.0042 -0.1282  0.2458
    1W        W48156   4.052   1.727   2.079  0.3299  0.0211 -0.1020
    1W        W48157   8.432  24.239   7.404  0.2118 -0.4921 -0.1371
    1W        W48158  15.170   8.759   8.164 -0.1490 -0.2523  0.2306
    1W        W48159  12.971  27.234   6.884 -0.1460  0.2496 -0.1368
    1W        W48160  28.196  26.696   2.917 -0.2510  0.2143 -0.2501
    1W        W48161  14.118   1.693   8.005  0.0268 -0.1222 -0.0705
    1W        W48162  21.235   0.359   7.229 -0.1324 -0.1711 -0.1087
    1W        W48163  15.865  18.447   0.764 -0.4902  0.1193  0.1772
    1W        W48164  17.073   4.700   0.708 -0.1577  0.1297  0.1629
    1W        W48165   1.701   5.095   6.824 -0.1384  0.0763 -0.0917
    1W        W48166   4.379   7.338   5.856 -0.1718  0.1804  0.1235
    1W        W48167   4.722  19.809   8.749  0.3274 -0.0757  0.0163
    1W        W48168  14.031  23.166   8.153  0.0266 -0.0226 -0.0585
    1W        W48169   8.284   0.208   9.598 -0.2756 -0.1839 -0.0347
    1W        W48170  26.787   7.244   8.154  0.0214  0.2090 -0.2135
    1W        W48171   4.787   6.730   6.492 -0.1268  0.3830 -0.3610
    1W        W48172  16.468  16.783   8.475 -0.0825 -0.1096  0.5764
    1W        W48173   7.531   4.504   8.561  0.2232 -0.1229  0.2267
    1W        W48174  16.945  26.774   1.932  0.1637  0.1905 -0.2508
    1W        W48175  17.612  26.879   1.204 -0.1265  0.0148 -0.1042
    1W        W48176  14.549  10.549   2.199  0.3076  0.3599 -0.0959
    1W        W48177   5.537   3.720   9.199  0.0961  0.0164 -0.3822
    1W        W48178   2.691  11.397   7.975 -0.2057  0.1197  0.2670
    1W        W48179  11.775  28.945   9.453  0.0737 -0.0961  0.1196
    1W        W48180  17.685  18.063   0.881 -0.0401  0.0166 -0.2476
    1W        W48181   6.155  15.751   7.677 -0.0371 -0.0988 -0.1764
    1W        W48182  16.568  29.241   1.020  0.0706 -0.1428  0.2498
    1W        W48183  22.939  25.066   0.095  0.0460  0.1623  0.2350
    1W        W48184  29.514  25.487   8.521 -0.0972 -0.2107  0.1426
    1W        W48185  10.896   5.678   0.219 -0.2185  0.2175 -0.0709
    1W        W48186  10.090  18.950   1.754 -0.2677  0.2196 -0.1381
    1W        W48187  27.407   3.356   6.711  0.1541 -0.2518  0.2561
    1W        W48188  10.926  21.838   6.516  0.3495  0.3184 -0.3373
    1W        W48189  15.726   2.671   0.273  0.1190 -0.2424 -0.0152
    1W        W48190   5.440  25.940   8.148  0.1033 -0.0536 -0.1233
    1W        W48191  26.780   5.085   6.985 -0.2221 -0.1569  0.0675
    1W        W48192   0.526   6.442   9.278 -0.1474 -0.1524  0.0263
    1W        W48193  29.574  20.561   8.245 -0.0463 -0.3066  0.1626
    1W        W48194  28.424  23.281   8.853  0.2783 -0.0304 -0.0506
    1W        W48195  23.553   9.041   1.869 -0.0290 -0.2264  0.2806
    1W        W48196   7.699   4.677   9.342 -0.0037  0.1442 -0.0105
    1W        W48197  10.585  12.989   0.015  0.0256 -0.1935 -0.0088
    1W        W48198  14.287  27.793   9.603  0.0581 -0.0704 -0.1760
    1W        W48199  29.596  25.973   0.933  0.1042  0.1305  0.0414
    1W        W48200  13.788  14.050   1.596 -0.0796  0.0504 -0.1007
    1W        W48201  15.667  19.646   8.655  0.3586 -0.1457  0.5271
    1W        W48202  16.210  13.902   1.275 -0.0443 -0.1713 -0.0848
    1W        W48203   3.418  24.069   0.647  0.3420 -0.0191  0.2190
    1W        W48204  11.518  19.338   2.182  0.0571 -0.2056 -0.3691
    1W        W48205  27.372  24.115   1.523  0.2518  0.2227  0.0373
    1W        W48206   0.154  18.509   1.274 -0.2242 -0.1969 -0.2909
    1W        W48207  27.699   1.549   9.600  0.2426  0.1307 -0.1075
    1W        W48208   4.852  21.470   0.037  0.3383 -0.0119  0.1441
    1W        W48209   7.730  27.499   7.415  0.0184 -0.2395 -0.1441
    1W        W48210  26.895   0.117   1.384 -0.1327 -0.0442 -0.0646
    1W        W48211  12.711  16.572   7.041  0.0989  0.0768 -0.4081
    1W        W48212   9.855   5.875   9.277 -0.0779 -0.3795  0.1011
    1W        W48213  14.115  21.816   7.049  0.1467 -0.1391 -0.3483
    1W        W48214  28.904  11.452   8.429  0.1272  0.0837 -0.1092
    1W        W48215  15.041  14.628   0.720  0.2059 -0.1218 -0.0103
    1W        W48216   8.230   0.131   8.592  0.0208 -0.1275  0.0369
    1W        W48217   9.901  19.177   6.729  0.1819  0.1650  0.4827
    1W        W48218  20.655  20.102   1.489  0.2387  0.1400 -0.2935
    1W        W48219  16.808  13.832   1.686 -0.0660  0.2717 -0.1558
    1W        W48220  16.896  11.057   8.233  0.3197  0.0813 -0.0730
    1W        W48221  23.796  14.032   0.012  0.1232  0.0545 -0.1266
    1W        W48222  18.812  23.693   2.700 -0.1460  0.1907  0.1402
    1W        W48223  13.876   0.830   8.845 -0.0883  0.0050 -0.3800
    1W        W48224   1.948  21.332   3.293 -0.0161 -0.1699 -0.3889
    1W        W48225  18.712  29.221   7.567  0.1352  0.1660  0.0499
    1W        W48226  24.150   8.637   2.563 -0.2907  0.1400 -0.0035
    1W        W48227  21.989   2.619   0.722 -0.0040 -0.1145  0.1963
    1W        W48228  10.646  12.834   5.787  0.1279 -0.0357 -0.2416
    1W        W48229  21.367  28.073   3.381 -0.0071 -0.0489 -0.3833
    1W        W48230  13.447   6.638   1.238 -0.3862 -0.4145 -0.4806
    1W        W48231  21.233   5.751   7.479  0.0516  0.3498  0.3518
    1W        W48232  25.598  10.015   0.269  0.0112 -0.0038  0.0848
    1W        W48233  27.626   2.746   0.919  0.1536  0.1372 -0.2409
    1W        W48234  15.271  10.416   9.589 -0.1858 -0.0364  0.0286
    1W        W48235  27.427  24.119   8.618  0.0222 -0.0299 -0.0916
    1W        W48236  12.580  15.907   6.856 -0.2243 -0.0800  0.2931
    1W        W48237  10.165  18.713   8.575 -0.2530 -0.0131 -0.1100
    1W        W48238  15.372   5.707   9.081  0.2097  0.0666  0.0112
    1W        W48239  29.166  18.904   0.356 -0.1411 -0.0775 -0.0198
    1W        W48240   7.300  15.786   1.724 -0.2182 -0.0070 -0.5441
    1W        W48241  13.371   6.126   1.369 -0.1848  0.0119  0.0976
    1W        W48242  13.850  11.844   1.074  0.3089 -0.0808  0.3297
    1W        W48243  22.774   0.764   9.372  0.2574  0.2375  0.2410
    1W        W48244  18.716   1.582   9.134 -0.0391 -0.3834  0.2336
    1W        W48245   0.508  22.920   3.037  0.2052  0.0606 -0.0791
    1W        W48246   9.316  18.015   7.454 -0.0390  0.1365 -0.0969
    1W        W48247  17.784  29.448   8.669  0.2388  0.1048  0.1204
    1W        W48248  26.344   3.923   0.325  0.0211  0.0207  0.0014
    1W        W48249  19.097  17.702   8.198 -0.1401  0.0921 -0.0128
    1W        W48250  26.914  23.623   0.579 -0.0611 -0.0629  0.1240
    1W        W48251  13.976  16.148   6.431  0.1658 -0.4127  0.0577
    1W        W48252  18.135   5.898   9.507 -0.1585 -0.0306  0.2059
    1W        W48253  22.053   2.004   0.891 -0.2664 -0.1747 -0.0374
    1W        W48254  12.502   8.997   7.144  0.2877  0.0252 -0.1707
    1W        W48255  10.069  20.934   0.014  0.0720 -0.1673 -0.1678
    1W        W48256  17.733   3.141   2.162  0.4733 -0.1365 -0.2675
    1W        W48257  14.434  19.988   9.383 -0.1715 -0.1986  0.0875
    1W        W48258   7.324  27.906   1.604  0.3164  0.0352  0.1432
    1W        W48259   7.345   0.269   5.850 -0.0053  0.0540 -0.1252
    1W        W48260  26.345  20.076   3.514  0.1648 -0.0342  0.0189
    1W        W48261  16.449   2.682   9.452 -0.1031 -0.0644 -0.0936
    1W        W48262   0.589   8.810   6.333  0.0683 -0.1579  0.1617
    1W        W48263   8.388   9.964   1.945 -0.0677 -0.2622  0.0960
    1W        W48264  10.995  15.987   1.658 -0.0185 -0.1158 -0.2424
    1W        W48265  26.143  19.528   9.587 -0.0555  0.1978  0.2220
    1W        W48266   5.659   0.577   7.066 -0.0499  0.0401  0.2325
    1W        W48267   2.060   6.318   1.562 -0.0221  0.2409 -0.0962
    1W        W48268  19.440   6.956   0.568 -0.0152  0.3083 -0.1347
    1W        W48269  23.429  20.865   8.130  0.1611 -0.1595  0.0308
    1W        W48270  12.600  24.787   0.406 -0.1713 -0.0772 -0.1334
    1W        W48271   8.977   6.031   0.768  0.1916  0.0096  0.0492
    1W        W48272   8.907  24.014   0.388 -0.1769 -0.1920 -0.0212
    1W        W48273  25.513   2.635   7.838 -0.2604  0.0099  0.0587
    1W        W48274  17.651  14.748   2.636  0.0372 -0.2910 -0.0037
    1W        W48275  22.804  20.557   3.423  0.3119 -0.3228 -0.0337
    1W        W48276   4.489  17.572   8.440 -0.4669 -0.0507 -0.0740
    1W        W48277  14.149  18.558   2.239  0.0359 -0.1395 -0.2309
    1W        W48278   2.107  13.351   0.389 -0.1497 -0.1934 -0.2137
    1W        W48279  29.032   1.051   9.253  0.3744  0.1800  0.1378
    1W        W48280  15.388   2.740   5.932  0.1132  0.1011 -0.1656
    1W        W48281  16.013  17.174   7.163 -0.0954 -0.4606 -0.0076
    1W        W48282   9.618  19.700   8.797 -0.0503  0.3576 -0.0213
    1W        W48283  16.827  12.259   1.650  0.1709 -0.3160 -0.5843
    1W        W48284   1.073   0.434   8.621 -0.2090  0.1675  0.1579
    1W        W48285  10.449  14.158   1.650  0.0147  0.0044  0.3394
    1W        W48286   3.175  26.518   9.193  0.3309 -0.3745 -0.2107
    1W        W48287   7.818   9.108   7.984  0.2363 -0.0784  0.0109
    1W        W48288  27.636  22.539   0.252 -0.0670 -0.0738  0.0376
    1W        W48289   1.877  11.920   1.951 -0.2646 -0.0072  0.1489
    1W        W48290  28.954  25.039   2.328  0.0176 -0.0883  0.3415
    1W        W48291  26.214  10.753   0.786 -0.0331  0.0707 -0.2598
    1W        W48292   6.063  21.855   0.134  0.1594 -0.1327 -0.0859
    1W        W48293  12.632  25.397   1.648  0.4417 -0.0859  0.0943
    1W        W48294  26.430  23.576   0.781  0.1634  0.2210  0.1525
    1W        W48295  23.318  22.910   2.521 -0.1347  0.1080 -0.2170
    1W        W48296  20.380  18.425   3.470 -0.0019  0.0085  0.0681
    1W        W48297  27.524  25.729   8.075  0.2527 -0.1325 -0.0088
    1W        W48298   7.202  27.296   0.517  0.3786 -0.3115  0.0704
    1W        W48299  24.961  16.535   8.663  0.1567  0.0400 -0.1712
    1W        W48300  14.922  24.476   1.211  0.2189  0.2444  0.0409
    1W        W48301  22.726  11.208   0.775 -0.0879 -0.2928  0.1295
    1W        W48302  18.705   9.646   0.814  0.0942  0.1696 -0.1071
    1W        W48303  11.690  20.226   0.260 -0.0653 -0.1265 -0.0158
    1W        W48304  15.613  24.565   9.438  0.1987 -0.2187 -0.0280
    1W        W48305  26.504  21.058   2.662  0.2037  0.2194 -0.0299
    1W        W48306  13.320  28.154   1.080  0.1538  0.1503  0.2088
    1W        W48307  25.727  20.788   9.125 -0.3765 -0.2554 -0.0460
    1W        W48308   5.394  19.066   7.067 -0.2045 -0.2019  0.0462
    1W        W48309  28.399   9.081   2.358 -0.1098 -0.0775  0.1523
    1W        W48310   7.664  10.418   2.276 -0.2113  0.1856  0.1542
    1W        W48311   4.352   8.674   5.949 -0.2267  0.0597  0.0975
    1W        W48312   2.342  26.496   6.680 -0.0800  0.3288  0.0725
    1W        W48313  27.684   6.189   7.923 -0.0971 -0.1856 -0.1832
    1W        W48314  15.337  23.910   1.806 -0.0442  0.0169 -0.3097
    1W        W48315   7.973  12.646   9.487  0.2060  0.0392  0.0735
    1W        W48316  20.794   1.752   8.105 -0.1708 -0.0544  0.1605
    1W        W48317  14.264   7.117   1.370  0.2200  0.1011 -0.2251
    1W        W48318   1.545  13.511   8.512 -0.0212  0.2889 -0.2194
    1W        W48319   8.846  22.429   0.905  0.1551 -0.0165  0.1385
    1W        W48320  28.629  26.356   0.749 -0.1990  0.0737  0.0001
    1W        W48321   4.613  17.062   8.302  0.4636 -0.0392  0.0991
    1W        W48322   6.293   1.597   6.357 -0.1517 -0.3936  0.0962
    1W        W48323  17.514  22.142   7.306 -0.0101 -0.1166 -0.0665
    1W        W48324  18.435   9.200   9.390  0.1004 -0.2894  0.2053
    1W        W48325   6.040  15.770   1.727  0.1561  0.0550  0.0121
    1W        W48326  11.146  10.584   9.596  0.1155  0.1006 -0.2859
    1W        W48327   3.460   5.052   6.207  0.3494  0.1356  0.2028
    1W        W48328  13.354   8.156   6.561  0.3475 -0.1955 -0.2049
    1W        W48329   5.833   7.338   7.060  0.0141  0.0993 -0.2316
    1W        W48330  11.278  16.635   2.283  0.2457 -0.4976 -0.3420
    1W        W48331   7.207  25.187   5.488  0.2528 -0.0987 -0.1174
    1W        W48332  22.345  12.573   1.355 -0.2130 -0.0611 -0.1346
    1W        W48333   5.573  19.361   7.397  0.0112  0.2889 -0.2444
    1W        W48334  12.748   0.738   6.209 -0.0937 -0.1186  0.1295
    1W        W48335  16.199   7.377   8.322 -0.0292 -0.1225 -0.2058
    1W        W48336  13.431   5.882   7.278 -0.0915 -0.1486 -0.1375
    1W        W48337  26.176  24.992   7.767 -0.1196  0.2078 -0.1116
    1W        W48338  14.217  10.639   7.672  0.2253 -0.2778 -0.3138
    1W        W48339   1.388  23.797   1.699  0.0870  0.2577 -0.0546
    1W        W48340  14.164  13.993   3.102  0.0443 -0.1524 -0.0260
    1W        W48341  26.935  22.529   0.821  0.1474 -0.1050 -0.1184
    1W        W48342   7.474  19.626   0.197  0.1304  0.0832 -0.2103
    1W        W48343   1.395   5.753   8.744 -0.1264 -0.0773  0.3609
    1W        W48344  26.656  27.988   2.988 -0.1467  0.0317 -0.0808
    1W        W48345  27.912  21.767   7.790 -0.0086 -0.2013 -0.0057
    1W        W48346  14.423   3.828   6.490  0.2091 -0.1534  0.0142
    1W        W48347   7.479  21.082   1.662  0.3091  0.1885 -0.1279
    1W        W48348   2.708   8.822   7.975  0.3046  0.1770  0.0358
    1W        W48349  12.837  22.177   9.423 -0.0580 -0.1002  0.0539
    1W        W48350   6.426  10.638   1.321 -0.1365  0.0064  0.1128
    1W        W48351   4.775  19.927   1.746  0.1312  0.1691  0.0517
    1W        W48352   2.353  13.011   1.000  0.1033  0.0880  0.2926
    1W        W48353   9.736  17.686   6.522  0.1533  0.1588  0.2283
    1W        W48354  15.080   6.566   0.715  0.3402  0.0816 -0.1429
    1W        W48355   8.288  17.310   7.708  0.1132 -0.1912 -0.0766
    1W        W48356   4.140   5.713   0.271  0.1547  0.1655 -0.2647
    1W        W48357  12.007  10.287   2.923 -0.0060  0.1009  0.4425
    1W        W48358  25.094  18.688   2.811 -0.1173 -0.2313  0.3491
    1W        W48359  14.643   2.376   7.100 -0.0141  0.3803 -0.0234
    1W        W48360  28.124  13.010   7.892 -0.2151 -0.3621  0.0614
    1W        W48361  24.513  18.521   9.638  0.2472  0.1041 -0.1923
    1W        W48362  17.144  18.474   9.588 -0.2247 -0.0630 -0.3717
    1W        W48363   3.104  14.139   7.057 -0.1509 -0.1271  0.0489
    1W        W48364   9.277  25.192   6.988  0.3013  0.0363 -0.2156
    1W        W48365  24.442  21.726   1.176 -0.0921  0.2551  0.0970
    1W        W48366   1.691  18.592   0.648 -0.1125 -0.0916 -0.1125
    1W        W48367   7.382  19.065   7.706  0.1594 -0.0419  0.1104
    1W        W48368  25.431  16.196   8.338 -0.0050  0.0761 -0.0698
    1W        W48369  10.071   3.222   7.098 -0.0811  0.0652  0.2820
    1W        W48370  18.644  14.544   9.192  0.2618  0.1833 -0.1664
    1W        W48371  24.285  22.610   0.469 -0.1838  0.0256 -0.0264
    1W        W48372  14.568  12.376   2.029 -0.1933  0.0025  0.0196
    1W        W48373  24.953  27.804   9.075 -0.5839  0.0191  0.2876
    1W        W48374  19.116  22.992   1.640  0.1430 -0.1813  0.0460
    1W        W48375  13.067  27.376   7.407 -0.1295  0.1637 -0.0494
    1W        W48376   3.239   1.508   0.273  0.2151 -0.1264 -0.0725
    1W        W48377  13.416  25.613   1.985 -0.1419  0.0496  0.2638
    1W        W48378  20.371  26.550   0.902 -0.2080 -0.0377  0.1653
    1W        W48379  19.434   6.031   0.165 -0.1997 -0.0779 -0.3231
    1W        W48380   0.632   4.717   2.050 -0.0624  0.2397  0.0809
    1W        W48381   1.477  19.674   1.851 -0.0351 -0.2590  0.2996
    1W        W48382  14.318  24.592   1.305 -0.1172 -0.0093 -0.0524
    1W        W48383   5.936   4.542   9.461  0.0333 -0.2523 -0.2937
    1W        W48384  22.730   9.161   7.671  0.0244 -0.0028 -0.0895
    1W        W48385   5.038  22.069   1.832 -0.0115  0.0181  0.1607
    1W        W48386  18.432   5.089   1.193 -0.0305  0.1446  0.1296
    1W        W48387  27.948  18.404   1.783  0.1011 -0.0059  0.0678
    1W        W48388   6.019  28.775   8.187  0.1275  0.0143  0.2217
    1W        W48389  13.562  17.323   6.812  0.0722  0.0314 -0.0725
    1W        W48390  15.529  28.975   0.072 -0.1429 -0.1755 -0.1122
    1W        W48391   0.006  26.229   0.411  0.0584  0.0940  0.1324
    1W        W48392   7.844  13.551   1.024  0.1386  0.0220  0.0539
    1W        W48393  29.603   1.194   9.202  0.0612  0.1279 -0.1789
    1W        W48394  18.111  10.570   1.686 -0.1049  0.1309 -0.1493
    1W        W48395   8.393   9.984   7.840 -0.0948  0.1892 -0.2473
    1W        W48396  20.947  22.759   3.492  0.0129  0.0567  0.0575
    1W        W48397  13.211  22.826   9.517  0.1278 -0.2912  0.1676
    1W        W48398  25.592  27.831   3.101  0.2393  0.0324  0.0622
    1W        W48399  15.396   7.108   8.375  0.2132 -0.0639 -0.0016
    1W        W48400  27.111  21.804   8.233 -0.0460  0.2959  0.0544
    1W        W48401  12.823  28.319   1.897 -0.1567 -0.0820 -0.1563
    1W        W48402  13.497  18.036   9.299  0.1610 -0.0528 -0.0563
    1W        W48403  19.224   6.706   2.227  0.1825 -0.3607 -0.0284
    1W        W48404  23.052  18.680   2.672 -0.1902  0.1577 -0.0793
    1W        W48405  10.619   6.627   7.691 -0.1626 -0.1450 -0.2167
    1W        W48406  12.918   3.201   0.244 -0.3163 -0.0489  0.2630
    1W        W48407  11.775  23.710   9.612 -0.0851  0.0764  0.1167
    1W        W48408  15.686  21.105   2.283  0.2645 -0.4946  0.2912
    1W        W48409  12.525   8.013   6.082 -0.0799 -0.2292 -0.1272
    1W        W48410  10.535  20.862   6.152  0.1658  0.1434 -0.1622
    1W        W48411  10.061   8.197   2.799 -0.0696 -0.2148  0.2183
    1W        W48412  11.116   8.267   8.325 -0.1079 -0.0263 -0.1963
    1W        W48413  12.975  15.794   0.489 -0.0250 -0.1185 -0.1407
    1W        W48414  26.051  27.191   8.151  0.0526  0.1215 -0.0103
    1W        W48415  16.549   6.931   1.457 -0.2657  0.1042  0.1571
    1W        W48416  22.534  22.771   2.209 -0.3716 -0.1551 -0.2178
    1W        W48417  29.242   0.078   9.602 -0.1739  0.0872 -0.0485
    1W        W48418   3.409  16.568   9.362 -0.1441  0.2458  0.4829
    1W        W48419   1.290  25.798   1.022  0.0244  0.0145  0.0474
    1W        W48420  26.045  27.906   0.135  0.2304 -0.1853  0.0467
    1W        W48421  17.089  12.716   0.422  0.2009  0.0523 -0.2651
    1W        W48422  28.645   8.401   7.400 -0.2461  0.0147 -0.0362
    1W        W48423  21.952   3.876   8.465  0.0078 -0.0796 -0.1522
    1W        W48424  29.449   3.152   1.471  0.2756 -0.3395 -0.0528
    1W        W48425  12.609  28.449   9.125  0.0169 -0.1617 -0.2073
    1W        W48426   5.308  22.944   2.802 -0.1940  0.0652  0.1054
    1W        W48427  14.216   0.823   9.314 -0.0270  0.1942 -0.0674
    1W        W48428  14.313  22.965   2.163 -0.1267  0.0125 -0.0663
    1W        W48429  20.342  19.737   1.385 -0.3309  0.0197  0.2411
    1W        W48430  22.260  24.882   8.399 -0.2521 -0.0742  0.0161
    1W        W48431   3.131  27.405   8.192 -0.3027 -0.1842  0.1402
    1W        W48432   3.421  21.330   7.627 -0.1045 -0.0981  0.0007
    1W        W48433  24.801  23.785   9.452 -0.0566  0.0198 -0.0948
    1W        W48434  16.728  21.885   9.161 -0.0344 -0.5650  0.0023
    1W        W48435   7.591   8.035   7.524 -0.1760 -0.2901 -0.1274
    1W        W48436  16.383  24.915   8.591 -0.2609  0.1828 -0.2510
    1W        W48437  17.327   9.183   0.467  0.0874 -0.2284 -0.1907
    1W        W48438  19.171   2.029   7.299  0.0185  0.2794 -0.1809
    1W        W48439  16.761  24.862   2.390  0.0897 -0.2404 -0.1806
    1W        W48440   3.566  17.580   7.065 -0.0587  0.0777 -0.1594
    1W        W48441   8.395   1.549   6.159 -0.0102  0.0125 -0.2322
    1W        W48442  18.862  17.346   3.152  0.1230  0.0562  0.1686
    1W        W48443   9.658  12.223   2.536 -0.0723  0.2192 -0.0445
    1W        W48444  28.959  10.415   0.265  0.0535 -0.0972  0.0709
    1W        W48445  26.681  12.695   9.375  0.0930  0.1875  0.2404
    1W        W48446  25.398  15.115   1.515  0.0159  0.2628  0.0306
    1W        W48447  11.187   8.978   6.698  0.2050 -0.0238  0.2263
    1W        W48448  12.043  13.941   0.354 -0.1399 -0.0491  0.2913
    1W        W48449   7.694  18.091   1.500 -0.2733 -0.1329  0.1239
    1W        W48450  25.840  12.058   1.792 -0.3379  0.0390 -0.2412
    1W        W48451   4.279  17.535   7.951  0.0658 -0.0498 -0.0050
    1W        W48452   6.362   2.176   9.038 -0.0878  0.0233  0.2687
    1W        W48453   6.547   4.107   1.378  0.0201  0.1839  0.0351
    1W        W48454  10.422   6.832   6.146 -0.0727  0.0520 -0.1488
    1W        W48455  16.404  14.904   8.936 -0.1613  0.4096 -0.0756
    1W        W48456  18.180  13.567   7.922  0.1005 -0.4164  0.3435
    1W        W48457   6.303   2.655   1.819 -0.2606  0.1806  0.2748
    1W        W48458   5.743  27.650   9.306 -0.1400 -0.2218  0.0582
    1W        W48459   6.580   4.770   6.807 -0.0110 -0.2609  0.0069
    1W        W48460  14.929  15.233   8.198  0.0878  0.1855 -0.1998
    1W        W48461   0.446  18.229   9.097  0.0432  0.1672 -0.1060
    1W        W48462   0.144  24.282   6.814  0.0287  0.0753 -0.1641
    1W        W48463  16.666   6.025   7.737 -0.5257 -0.1438  0.0516
    1W        W48464   4.923   8.441   1.107 -0.2915 -0.0124  0.0509
    1W        W48465  10.518  17.128   9.228 -0.3226 -0.1025 -0.3961
    1W        W48466   1.214  29.179   2.475  0.1651 -0.0289  0.0991
    1W        W48467  13.768  18.926   9.498 -0.1333 -0.2388 -0.0866
    1W        W48468   7.122  26.852   6.408  0.3158  0.0718 -0.0117
    1W        W48469  12.435  21.533   9.166  0.0171  0.0709  0.0670
    1W        W48470  27.079   5.674   8.360  0.0158 -0.2545 -0.2678
    1W        W48471  18.380   3.546   9.307 -0.0282 -0.1221 -0.0078
    1W        W48472  24.071   2.847   8.753  0.0088 -0.0176 -0.1318
    1W        W48473   5.190  18.806   8.718 -0.0910 -0.1235  0.2792
    1W        W48474   9.860  29.078   6.438 -0.0335 -0.2391  0.0729
    1W        W48475  26.363  10.769   1.529 -0.1545 -0.0456 -0.1281
    1W        W48476   1.015  24.883   0.473  0.1449 -0.0419 -0.1796
    1W        W48477   4.208  24.709   8.185 -0.0814 -0.0250  0.0208
    1W        W48478   4.905  27.978   9.216  0.0557  0.0962 -0.0465
    1W        W48479   9.560  21.180   9.000 -0.0194  0.0970  0.3583
    1W        W48480  18.765  18.730   1.884 -0.3157 -0.0706 -0.0886
    1W        W48481  25.025  15.278   9.181  0.4275 -0.0911  0.2860
    1W        W48482  21.413   8.235   1.681 -0.1032  0.3976 -0.1100
    1W        W48483   8.206  22.081   8.822 -0.0044 -0.0386  0.2103
    1W        W48484   2.578   2.012   8.827 -0.2770  0.1084  0.3683
    1W        W48485  26.385   7.969   1.656 -0.1638 -0.1736  0.0735
    1W        W48486  14.524   0.435   1.977  0.1355  0.2363  0.0647
    1W        W48487  13.808  22.986   7.362 -0.2676 -0.0301  0.0189
    1W        W48488   5.961  14.950   7.428  0.1226 -0.0520  0.3048
    1W        W48489  22.798  29.557   0.714  0.2153  0.2175  0.1848
    1W        W48490  23.256  21.970   1.115  0.1068 -0.3911  0.1678
    1W        W48491   4.668   0.519   7.271 -0.2791 -0.0937 -0.1126
    1W        W48492  17.038  20.561   2.584  0.1419 -0.2299  0.1035
    1W        W48493  24.374  21.927   9.581 -0.1292 -0.3224 -0.2001
    1W        W48494  14.406  25.332   7.241  0.1682 -0.1014  0.1065
    1W        W48495  21.594  15.166   9.401 -0.0043 -0.2608  0.1826
    1W        W48496  11.759   1.631   0.428 -0.1803  0.0430  0.1844
    1W        W48497  13.109  23.605   0.252 -0.1514  0.1168 -0.1032
    1W        W48498  25.045  21.197   9.573  0.0236 -0.0248  0.1397
    1W        W48499  24.451  27.202   7.670  0.1950  0.1746  0.1986
    1W        W48500  26.762   8.624   1.965 -0.3214 -0.1667 -0.0358
    1W        W48501  17.630   2.044   9.091 -0.0601  0.0450 -0.1170
    1W        W48502   9.274  19.871   2.034  0.2404  0.0286  0.1327
    1W        W48503  15.588   8.596   0.096 -0.1807 -0.2605  0.1112
    1W        W48504  18.750   2.422   7.120  0.1777  0.0054 -0.1969
    1W        W48505  28.004  27.065   3.574 -0.1429 -0.1881  0.2237
    1W        W48506  29.176   2.971   0.313  0.2052  0.2117 -0.0178
    1W        W48507  12.616   6.626   9.494 -0.1165  0.3153 -0.1377
    1W        W48508   1.434  18.148   3.516 -0.1168 -0.1251 -0.2013
    1W        W48509   6.350  15.411   1.586  0.1817 -0.1481 -0.2128
    1W        W48510  21.552   6.704   7.832 -0.1564 -0.0561  0.0341
    1W        W48511  14.000  24.709   6.512  0.3453  0.5189  0.3564
    1W        W48512   5.737   5.585   0.752 -0.0589 -0.0297  0.0632
    1W        W48513   3.491  27.539   2.399  0.0995 -0.0271  0.0347
    1W        W48514   4.655  12.197   0.128  0.2537  0.0990 -0.2579
    1W        W48515  11.073  17.625   8.160  0.1271  0.0390  0.0239
    1W        W48516  16.653  13.330   0.005  0.3019 -0.2426  0.2341
    1W        W48517  18.994   4.534   0.177 -0.2391 -0.2388  0.0160
    1W        W48518  18.813  14.991   2.066 -0.0169  0.0241  0.0716
    1W        W48519  15.677  21.824   0.540 -0.1310  0.1368 -0.1774
    1W        W48520  23.116  25.042   1.753  0.2266  0.1904  0.2496
    1W        W48521   5.112  21.821   2.868  0.0600 -0.1220 -0.0552
    1W        W48522  28.329  25.816   8.056  0.1418 -0.3648  0.2009
    1W        W48523   6.931   0.788   1.277  0.0145 -0.0491 -0.0989
    1W        W48524  20.701  11.990   1.321 -0.1565  0.2536  0.3118
    1W        W48525  17.445   4.542   7.425  0.1736 -0.0434 -0.1957
    1W        W48526  29.273  23.742   7.475 -0.1479  0.2161  0.0265
    1W        W48527  27.851  27.901   2.494 -0.1549  0.1117  0.1231
    1W        W48528   5.880  23.278   8.776 -0.0975  0.1044 -0.0609
    1W        W48529  26.027   7.153   1.883  0.0090  0.0333 -0.3093
    1W        W48530   0.590  25.588   2.478  0.0870  0.1420  0.2509
    1W        W48531   4.029  23.354   2.554  0.1647 -0.1034  0.2323
    1W        W48532   4.884  29.412   2.429  0.0715 -0.1618 -0.3475
    1W        W48533  14.693   7.311   5.924  0.1809  0.0627 -0.0552
    1W        W48534   3.197  18.784   1.711  0.0948 -0.2075  0.2354
    1W        W48535   5.390  11.992   7.274 -0.2219  0.3147 -0.2788
    1W        W48536   0.984   0.537   7.265 -0.1284 -0.0390  0.2434
    1W        W48537  26.698  22.631   1.888 -0.1054  0.1651  0.1262
    1W        W48538   3.002  25.707   1.247 -0.0995 -0.5401  0.3155
    1W        W48539   2.340  13.033   8.642 -0.1514  0.0247  0.2179
    1W        W48540   7.971  13.970   1.343  0.0190  0.0336 -0.4678
    1W        W48541  14.939   5.061   2.791 -0.2317 -0.0338  0.0784
    1W        W48542  11.628  26.287   8.446 -0.1729 -0.0261  0.2092
    1W        W48543  21.576   9.050   1.198  0.3328  0.0300 -0.0051
    1W        W48544  19.569  18.206   8.734  0.1537  0.0819 -0.0903
    1W        W48545   3.712  14.962   6.547 -0.0336 -0.0893  0.2427
    1W        W48546  20.279   0.740   2.013  0.0545 -0.3758 -0.0221
    1W        W48547   4.979  27.519   1.121 -0.0187  0.0245  0.2879
    1W        W48548  26.720  21.015   3.223  0.2396 -0.0438  0.1861
    1W        W48549  23.477  12.276   2.016 -0.1923  0.3122  0.1359
    1W        W48550  18.239  21.978   2.657 -0.0273 -0.2521 -0.0592
    1W        W48551  18.186  23.088   1.898  0.0428  0.2916 -0.1861
    1W        W48552   3.673   9.558   8.721  0.1771 -0.3761  0.0608
    1W        W48553  12.979  19.758   7.709 -0.0379  0.0011  0.2572
    1W        W48554  19.791  29.526   0.697  0.0529 -0.3947 -0.1877
    1W        W48555   3.691  16.637   0.361 -0.1479 -0.4711 -0.0418
    1W        W48556   8.653  25.852   8.303 -0.0271  0.0611  0.0329
    1W        W48557  13.879  13.124   9.510 -0.0747 -0.1093 -0.0606
    1W        W48558   6.602   5.986   6.836  0.0363 -0.0036  0.0694
    1W        W48559   6.357  12.131   9.503 -0.4904  0.0094  0.0955
    1W        W48560   8.691  10.409   7.026 -0.0011  0.0981 -0.2114
    1W        W48561  10.511   2.460   0.993  0.0907 -0.2786 -0.0371
    1W        W48562  23.255  11.933   2.870  0.0477  0.3286  0.1175
    1W        W48563  11.445  21.319   7.013 -0.2332  0.0160 -0.0283
    1W        W48564   2.609  28.637   1.853  0.1560  0.1211 -0.1049
    1W        W48565   2.228  14.578   0.192  0.0665 -0.0272  0.2466
    1W        W48566   3.731  24.601   3.399 -0.2815  0.0624 -0.1745
    1W        W48567  10.920   1.325   8.616  0.2682  0.1706  0.1383
    1W        W48568  13.909  16.747   1.262  0.0365  0.0235 -0.0931
    1W        W48569  10.296  24.036   8.533 -0.4297  0.2082  0.2584
    1W        W48570   9.447  12.536   0.788 -0.1886  0.0083  0.0483
    1W        W48571   1.603  14.415   7.242 -0.1876  0.1533  0.0370
    1W        W48572  27.035  27.721   3.291  0.0580 -0.1973  0.0165
    1W        W48573  25.615   4.529   1.636 -0.0658  0.0110 -0.1239
    1W        W48574   8.428   0.654   7.132 -0.0389 -0.1163 -0.1402
    1W        W48575  11.529   4.982   6.559 -0.2000 -0.0439 -0.0052
    1W        W48576   5.854   0.137   6.982  0.3277  0.2398  0.0122
    1W        W48577  18.193  19.613   7.622 -0.0554 -0.1248  0.3022
    1W        W48578  16.461   9.993   7.369 -0.1484 -0.1634 -0.3169
    1W        W48579  14.932  20.007   9.547  0.2041 -0.0657 -0.1546
    1W        W48580   7.393  23.744   2.019 -0.0847 -0.2417 -0.0328
    1W        W48581  24.732  21.271   7.132  0.1480  0.1861 -0.0443
    1W        W48582  21.602  27.135   3.766  0.1202 -0.0167 -0.0591
    1W        W48583  14.721   8.319   7.909  0.0045 -0.3038 -0.0589
    1W        W48584   5.911  23.294   0.222 -0.1977 -0.0915 -0.0949
    1W        W48585   9.688  18.138   1.246 -0.1337 -0.2374  0.0978
    1W        W48586  21.492  12.063   1.971 -0.1921  0.2547  0.0108
    1W        W48587   5.928  22.888   0.632  0.0816  0.0288  0.1770
    1W        W48588   3.604  18.929   2.112  0.0165  0.0240  0.0495
    1W        W48589   4.792  23.049   8.987  0.1979 -0.0985 -0.0598
    1W        W48590  27.355  18.230   3.520  0.2265 -0.1028  0.0953
    1W        W48591   8.862  15.166   1.782 -0.1341  0.0011 -0.1542
    1W        W48592  20.066  14.538   1.668  0.1027  0.0456  0.1338
    1W        W48593   8.108  20.399   1.558 -0.3394  0.0235 -0.5337
    1W        W48594  17.226   4.156   0.376 -0.0163 -0.1063 -0.3758
    1W        W48595  23.988   0.536   3.012 -0.0622 -0.1269 -0.0770
    1W        W48596  28.131  12.802   0.701  0.2731 -0.2841  0.2606
    1W        W48597  13.569   5.860   0.392  0.1920 -0.0202 -0.0143
    1W        W48598  20.205   4.433   7.297  0.0706  0.0978 -0.2633
    1W        W48599  10.403  27.413   6.316  0.0864  0.0465 -0.0589
    1W        W48600  20.815  17.387   8.417  0.1861  0.1176  0.1620
    1W        W48601   2.866  20.948   8.393  0.2547  0.0251  0.2651
    1W        W48602   7.891  26.154   1.072 -0.0361 -0.0891 -0.1634
    1W        W48603  28.526  16.557   8.606 -0.0264  0.0736 -0.3124
    1W        W48604   4.267  19.070   7.641  0.2627 -0.1865  0.3115
    1W        W48605  11.731   5.277   1.519  0.1786 -0.1469  0.0791
    1W        W48606   2.399   0.422   8.980  0.1270 -0.0061 -0.1132
    1W        W48607  21.038  28.691   2.330  0.1586 -0.1171  0.1704
    1W        W48608  18.943  27.378   0.222 -0.2146 -0.0830 -0.1722
    1W        W48609  12.310  22.944   1.972  0.1063  0.0618  0.1963
    1W        W48610  18.160  15.259   9.612  0.0054 -0.2497  0.4272
    1W        W48611  17.732   7.429   1.033  0.2400  0.2283 -0.0944
    1W        W48612  27.061  15.431   8.098  0.3360  0.1324  0.0633
    1W        W48613  10.147   8.360   7.422  0.0531  0.0522  0.3264
    1W        W48614   4.162  11.949   8.936  0.1630 -0.3247  0.0332
    1W        W48615   3.977  24.509   3.812  0.1698  0.1709  0.2377
    1W        W48616  11.135  25.453   8.906 -0.4595 -0.0390  0.1157
    1W        W48617  24.004   7.410   9.147  0.2205 -0.2306 -0.0558
    1W        W48618  25.833  12.546   1.647 -0.2012 -0.0175  0.0579
    1W        W48619  27.357  19.464   9.017 -0.1016  0.1988 -0.0086
    1W        W48620  14.512   9.004   1.871 -0.0910  0.0497  0.3104
    1W        W48621  28.765  18.521   2.835 -0.0382 -0.0258  0.1054
    1W        W48622  13.910   5.659   8.278  0.0042 -0.1918  0.0092
    1W        W48623  20.378   5.310   8.832  0.1569  0.1724  0.1040
    1W        W48624  28.808  10.956   8.444  0.0843  0.1514 -0.0369
    1W        W48625  14.086  17.517   6.614  0.0605 -0.0852 -0.1151
    1W        W48626  23.171  23.351   3.363 -0.4070 -0.1981 -0.0386
    1W        W48627   6.995  27.421   2.491  0.1423 -0.1568 -0.1388
    1W        W48628  15.964   0.856   7.274  0.1370  0.1874 -0.2067
    1W        W48629   7.367  18.171   9.455 -0.0248 -0.4339 -0.2069
    1W        W48630   6.077  17.260   7.308 -0.1653 -0.3059  0.1147
    1W        W48631   9.905   3.493   0.703  0.0313 -0.0517 -0.0034
    1W        W48632   2.613   7.861   6.589  0.1899 -0.0396 -0.1127
    1W        W48633   6.519   4.817   6.186 -0.2295  0.2480  0.2268
    1W        W48634  22.695  19.305   3.250 -0.3539 -0.1578 -0.0963
    1W        W48635   6.537  21.728   0.313  0.3042 -0.1826  0.0250
    1W        W48636  20.808  24.956   0.155  0.1805  0.3149  0.0187
    1W        W48637   2.968   7.161   7.222 -0.1393 -0.2678 -0.2251
    1W        W48638  18.914  19.018   0.477 -0.1585  0.1807 -0.2367
    1W        W48639   6.736  28.775   7.715  0.0670 -0.1484 -0.1703
    1W        W48640  13.554   8.092   0.526  0.1548  0.0171  0.1129
    1W        W48641  28.321   4.275   7.941 -0.1829  0.0682 -0.0928
    1W        W48642  18.587  14.025   3.074  0.1594 -0.0434 -0.0817
    1W        W48643   9.058  22.509   1.715  0.2271  0.1000  0.1479
    1W        W48644   3.061   2.872   1.456 -0.1413 -0.0987 -0.0958
    1W        W48645  12.599  27.333   8.275  0.0665  0.3090 -0.0375
    1W        W48646  16.398   2.951   0.730  0.4449 -0.0329 -0.5116
    1W        W48647  16.091  20.843   1.012  0.2301  0.0714 -0.1442
    1W        W48648  16.619   8.727   0.105 -0.0651 -0.0714 -0.1863
    1W        W48649  28.281  20.090   0.186 -0.5995  0.2316  0.0380
    1W        W48650  13.738   3.498   1.072 -0.0645 -0.3537 -0.0705
    1W        W48651  28.989   7.862   7.331 -0.3092 -0.0242 -0.0593
    1W        W48652   7.999  21.384   6.548 -0.2166 -0.0443 -0.0799
    1W        W48653  13.729  12.577   8.658 -0.1425  0.0484  0.0397
    1W        W48654  17.497   4.601   8.811 -0.0637  0.0305  0.0597
    1W        W48655  26.154  24.772   0.245  0.0119  0.0975 -0.3218
    1W        W48656  20.201  27.955   3.256 -0.1592 -0.0271 -0.3775
    1W        W48657   9.877  15.886   8.184 -0.1983  0.1624 -0.0152
    1W        W48658   4.095  23.090   7.927  0.1024 -0.0229  0.0581
    1W        W48659   0.909  16.740   7.041  0.1583  0.0677  0.4412
    1W        W48660   0.054   2.927   7.333 -0.4143 -0.1863  0.1159
    1W        W48661   7.556   3.799   0.411 -0.1530  0.0859  0.2182
    1W        W48662   2.816  13.671   8.857  0.1051  0.0285 -0.1343
    1W        W48663  21.213  29.006   3.106 -0.1824  0.0316  0.1147
    1W        W48664  10.580   4.852   0.202  0.0038 -0.0321  0.0179
    1W        W48665   3.524  16.029   8.938  0.1491 -0.0501  0.1074
    1W        W48666  10.510   2.457   7.278 -0.0029  0.1683 -0.0768
    1W        W48667  25.797  27.532   8.828 -0.3879 -0.0524  0.0187
    1W        W48668  24.079   9.122   0.080  0.0293 -0.3932 -0.0844
    1W        W48669  19.050  20.083   7.862  0.2121 -0.1690  0.0843
    1W        W48670  17.462   7.441   1.536 -0.1247  0.2870 -0.2544
    1W        W48671  11.670  11.153   2.304  0.1184  0.4723  0.0948
    1W        W48672  27.421   9.932   0.562 -0.1004 -0.2085 -0.1286
    1W        W48673   9.030  26.368   8.390 -0.1149 -0.0155 -0.2019
    1W        W48674  24.957   1.297   0.471 -0.0224 -0.0093  0.1628
    1W        W48675  19.739  28.942   0.939  0.0860  0.1930 -0.0005
    1W        W48676   9.049  13.573   7.396 -0.1325 -0.4459 -0.0517
    1W        W48677   4.254   1.650   9.338  0.1387  0.4126 -0.0567
    1W        W48678   9.007  24.173   0.871 -0.1319  0.1664  0.1144
    1W        W48679   3.203  14.703   0.906  0.0402 -0.1107  0.2328
    1W        W48680   9.368   6.873   6.168 -0.0194  0.1851  0.0226
    1W        W48681  17.897   2.447   0.332  0.1496 -0.0966  0.0272
    1W        W48682  13.195  12.844   7.125  0.1545 -0.3250  0.3284
    1W        W48683  13.122  11.117   8.681  0.1881  0.2948  0.1060
    1W        W48684  13.847   7.484   1.459  0.1378  0.0295  0.0264
    1W        W48685  16.100  23.301   8.897 -0.1744  0.1691 -0.2681
    1W        W48686  11.568   2.011   2.074  0.2031 -0.2018  0.0239
    1W        W48687  20.751   3.400   2.776  0.1690 -0.1598 -0.3223
    1W        W48688   5.402  18.011   8.325  0.0142  0.3495  0.2556
    1W        W48689   0.565   2.818   7.805  0.0033  0.0041 -0.0857
    1W        W48690  29.470  27.258   9.647 -0.0094  0.0726  0.2140
    1W        W48691  16.188   7.759   2.094 -0.1694  0.0504 -0.0677
    1W        W48692  28.543  16.318   0.694  0.1393  0.1962  0.2308
    1W        W48693  29.561  26.412   2.710  0.1209  0.1022 -0.2341
    1W        W48694  25.291   5.423   0.288  0.0027  0.3555 -0.4138
    1W        W48695  18.183  28.712   1.768  0.0627 -0.4065  0.1388
    1W        W48696  22.252   5.727   9.625 -0.0911 -0.0491 -0.0294
    1W        W48697  25.439   2.024   8.267  0.2676  0.2313  0.2235
    1W        W48698  17.400   3.925   2.283  0.1383  0.2161 -0.2372
    1W        W48699  21.056  12.710   1.502  0.0551  0.0735  0.0864
    1W        W48700   8.049  15.590   6.957 -0.2514 -0.0809  0.1819
    1W        W48701  15.493  19.587   8.201  0.1770  0.2131  0.2106
    1W        W48702   3.140   2.955   2.910  0.2049  0.0485  0.3867
    1W        W48703   8.347  16.931   9.055  0.0821  0.0070  0.0013
    1W        W48704  21.183  16.878   1.435 -0.2110  0.0663  0.0196
    1W        W48705  13.632   5.447   1.753 -0.2866 -0.0987  0.1645
    1W        W48706  28.373  25.284   7.688 -0.0698  0.0941 -0.2408
    1W        W48707   1.034  21.995   9.104 -0.1033  0.0365  0.1489
    1W        W48708  14.799  20.213   9.051 -0.2142  0.2095 -0.0086
    1W        W48709  19.898  11.056   9.233  0.1081  0.0028 -0.0937
    1W        W48710  26.002  27.050   1.943 -0.1779 -0.0810 -0.0950
    1W        W48711  29.519  22.898   7.844  0.2629 -0.1395 -0.1726
    1W        W48712  26.718  11.951   0.956  0.1160  0.1784 -0.0193
    1W        W48713  23.670   3.877   8.504  0.4057 -0.3990  0.4072
    1W        W48714   9.132  25.693   6.549 -0.1218 -0.0014 -0.2690
    1W        W48715   5.534  28.783   0.677  0.2761 -0.2452  0.0778
    1W        W48716  15.047  24.679   8.406 -0.0116 -0.0078  0.1640
    1W        W48717  12.740  21.136   7.956  0.1113  0.1305  0.2079
    1W        W48718  13.830  19.130   7.707 -0.1480  0.1548  0.5221
    1W        W48719   1.761  12.805   2.408 -0.1698  0.2256 -0.1501
    1W        W48720   6.129   6.044   9.143  0.2432 -0.1093 -0.3390
    1W        W48721  28.941  28.375   0.492 -0.3197 -0.0632  0.0536
    1W        W48722   4.040   7.667   0.760 -0.4567  0.1983  0.2900
    1W        W48723   8.511   4.516   6.367  0.0394 -0.0257 -0.1181
    1W        W48724   1.329  13.388   9.481 -0.1022 -0.0615 -0.1295
    1W        W48725  28.969  18.267   3.759  0.1703  0.0722 -0.2902
    1W        W48726   4.895  26.002   2.194  0.3693 -0.2099 -0.0665
    1W        W48727   5.002   5.576   7.266 -0.2035 -0.0397  0.1517
    1W        W48728  22.841   6.061   2.616  0.0315 -0.3509  0.1183
    1W        W48729   1.018  15.142   9.641  0.1392 -0.0792 -0.2050
    1W        W48730  17.976  18.269   2.291 -0.1115  0.1773  0.0087
    1W        W48731   3.343  22.277   2.265 -0.2358  0.1228 -0.2927
    1W        W48732   5.098   6.491   8.464  0.0352 -0.2864 -0.1145
    1W        W48733  16.940  23.958   7.734  0.0616  0.1542 -0.0451
    1W        W48734   8.342  15.621   6.506 -0.1023  0.0016 -0.3436
    1W        W48735   2.706  14.586   0.234 -0.0564 -0.1343  0.2136
    1W        W48736  15.084  26.968   8.694 -0.2959  0.1240 -0.0577
    1W        W48737  25.545  17.680   2.218  0.0395  0.1608 -0.1029
    1W        W48738  23.590  23.512   7.513 -0.4392 -0.0087 -0.0245
    1W        W48739   5.943  11.838   8.539 -0.0243 -0.3135 -0.0019
    1W        W48740  11.195  17.336   1.909  0.0518  0.1553 -0.1492
    1W        W48741  21.672  21.935   1.694  0.0358 -0.2181 -0.0072
    1W        W48742  26.364  19.599   9.074 -0.1288  0.1320 -0.0549
    1W        W48743   2.649  20.815   7.934 -0.3445  0.2786  0.0113
    1W        W48744  27.788   6.979   6.095 -0.1483 -0.1345 -0.2353
    1W        W48745  25.203  12.311   8.794  0.0792  0.3124 -0.2121
    1W        W48746  15.240  10.699   7.542 -0.0690 -0.0344  0.1538
    1W        W48747  22.902  11.664   7.772 -0.1115 -0.2818  0.0873
    1W        W48748  26.960   4.286   1.919  0.0900  0.1967  0.0826
    1W        W48749  27.588  22.544   8.005 -0.1837  0.0628 -0.0309
    1W        W48750  19.383  23.267   1.234 -0.2700 -0.2875  0.2917
    1W        W48751  17.943  19.372   8.051 -0.1935 -0.2286  0.1831
    1W        W48752  13.339   4.405   8.437 -0.0277 -0.1863 -0.2333
    1W        W48753  17.742  24.763   9.083 -0.1949 -0.3005  0.0049
    1W        W48754  24.733   6.023   7.095 -0.2582 -0.0257 -0.0202
    1W        W48755  29.393  28.579   1.282 -0.2059 -0.2010  0.0108
    1W        W48756   4.977  12.941   6.089 -0.6260  0.3770  0.0563
    1W        W48757   0.961  18.782   8.733 -0.1413 -0.1465 -0.1871
    1W        W48758   8.606  20.907   8.724  0.0144  0.4761  0.0662
    1W        W48759  13.326  16.549   8.177  0.3112  0.2551  0.0527
    1W        W48760  19.642  11.696   2.107  0.1076 -0.2170  0.1087
    1W        W48761  28.132   8.134   2.140 -0.3538  0.0687 -0.1331
    1W        W48762   2.973   6.691   0.782 -0.1444  0.2603  0.0649
    1W        W48763   9.960  29.069   8.447  0.0972 -0.0532  0.0902
    1W        W48764  26.151   0.865   1.564  0.0536  0.2740  0.1507
    1W        W48765  17.020   7.068   2.131 -0.4264  0.2587 -0.2734
    1W        W48766  29.572   5.735   8.856  0.2942 -0.0133  0.0405
    1W        W48767  19.339  19.614   2.235  0.1638  0.1530 -0.0477
    1W        W48768   7.901  24.933   7.109  0.1259 -0.0290 -0.2763
    1W        W48769   8.056  11.601   1.496  0.2831  0.1191  0.0080
    1W        W48770  28.246  28.900   2.489  0.0247  0.0865  0.0868
    1W        W48771  27.386  14.425   7.989 -0.1725 -0.2260  0.1205
    1W        W48772  29.435  15.704   0.806 -0.1224 -0.1335 -0.0963
    1W        W48773   9.795   5.421   9.082 -0.2886 -0.3488 -0.0290
    1W        W48774   3.561   4.420   9.619  0.1640 -0.0858 -0.0412
    1W        W48775   9.175  25.696   7.558 -0.0571 -0.0350 -0.2473
    1W        W48776  24.297   1.823   8.502  0.0551  0.0698 -0.0738
    1W        W48777   5.687  18.166   0.623 -0.2661  0.0057 -0.1248
    1W        W48778  11.873  27.165   9.390 -0.0248  0.2289  0.0298
    1W        W48779   1.811  24.935   2.590  0.0311  0.1604  0.3371
    1W        W48780  28.069  16.442   1.764  0.1252  0.1209 -0.2469
    1W        W48781  14.557  22.075   8.955 -0.4232  0.2189 -0.0390
    1W        W48782  18.569   0.432   1.074 -0.0299  0.0002 -0.0597
    1W        W48783  19.256  13.131   0.924 -0.4535 -0.0526 -0.1990
    1W        W48784   0.021  12.925   6.753 -0.4757  0.0894 -0.1137
    1W        W48785   1.955  13.796   0.540 -0.0680  0.0728  0.1526
    1W        W48786   9.238  23.785   0.724  0.1594  0.4832 -0.0717
    1W        W48787  17.155  11.230   7.602 -0.0312  0.0446  0.0392
    1W        W48788  18.665  11.451   8.347 -0.0051 -0.3905  0.1067
    1W        W48789   2.166  21.983   8.857 -0.3595 -0.2966 -0.0232
    1W        W48790  17.809   1.504   8.331 -0.0933 -0.2003 -0.2845
    1W        W48791   3.509  19.902   1.790 -0.0290  0.2713  0.2410
    1W        W48792  22.185  23.054   8.985  0.0470 -0.1657 -0.0814
    1W        W48793   7.455  21.621   7.469 -0.1623 -0.0409 -0.2074
    1W        W48794  17.378  17.877   0.519  0.2101 -0.0350 -0.2402
    1W        W48795   6.541   8.009   8.963  0.0239 -0.0633 -0.1017
    1W        W48796  14.299   9.731   2.335  0.0666 -0.0567  0.0245
    1W        W48797   2.891   6.066   9.118  0.1092 -0.1053  0.0009
    1W        W48798  25.525  27.485   6.976  0.2675  0.1829 -0.2384
    1W        W48799  15.346   9.015   9.447  0.1020 -0.1713 -0.3695
    1W        W48800  12.156  17.677   1.050  0.4116  0.4563 -0.1218
    1W        W48801   9.632  22.716   7.845 -0.0161 -0.0567  0.0362
    1W        W48802  11.388  10.232   0.749  0.1559  0.2053  0.0735
    1W        W48803  14.850  19.032   0.651 -0.2624 -0.1889  0.1269
    1W        W48804  11.436  16.125   7.265  0.1211  0.0165 -0.2012
    1W        W48805  17.712  25.480   0.497 -0.3561  0.1872 -0.0571
    1W        W48806  17.300   0.763   8.310 -0.1278  0.2080  0.0381
    1W        W48807  21.135   0.823   0.018 -0.0062 -0.0702 -0.4023
    1W        W48808  23.080   8.594   6.640  0.1008 -0.0115  0.0856
    1W        W48809   6.036  20.771   8.437  0.1221  0.0564 -0.1430
    1W        W48810   0.970   1.199   2.743 -0.1222 -0.0056  0.0422
    1W        W48811  16.989  28.958   0.073 -0.0171 -0.1252 -0.2039
    1W        W48812   0.599  20.807   1.270 -0.0286  0.1508  0.1663
    1W        W48813   4.630  25.423   1.413  0.0852 -0.0815  0.1060
    1W        W48814  16.749  23.508   9.273  0.1936  0.0773 -0.0791
    1W        W48815  13.632  15.736   7.973  0.1117  0.0539  0.1611
    1W        W48816  21.396  24.991   3.272 -0.1466 -0.1119 -0.1607
    1W        W48817  22.175  26.623   2.374 -0.1687  0.3440 -0.4077
    1W        W48818   7.395  20.589   2.589 -0.0242 -0.1539  0.0659
    1W        W48819  13.553  12.320   1.226 -0.2153  0.1638  0.0308
    1W        W48820  28.998  18.655   2.145 -0.0805 -0.3341  0.1915
    1W        W48821  15.454   1.232   6.101 -0.2982  0.0258 -0.2173
    1W        W48822  24.757   4.917   7.505 -0.1133 -0.1777  0.0312
    1W        W48823  29.437  19.887   2.134  0.1549 -0.0280  0.1690
    1W        W48824  26.189   9.947   8.085  0.0484  0.2508 -0.0654
    1W        W48825   3.698  24.669   1.737 -0.0156 -0.4197 -0.0963
    1W        W48826   9.055   6.803   7.155  0.1376 -0.2931 -0.0326
    1W        W48827   5.551   1.240   9.333 -0.3596 -0.3037  0.0727
    1W        W48828  17.879  27.669   9.392  0.2314 -0.0485 -0.0564
    1W        W48829  16.357   0.506   2.331 -0.0582  0.0651 -0.3226
    1W        W48830  26.142  25.108   9.573  0.1321  0.0062 -0.0785
    1W        W48831  16.373  19.866   1.591  0.0423  0.0446  0.0912
    1W        W48832  15.725  26.404   8.795 -0.0737  0.0425  0.5954
    1W        W48833  22.729  20.754   2.847 -0.1442 -0.2051  0.1198
    1W        W48834  10.263  19.180   0.230 -0.1262 -0.3147  0.0258
    1W        W48835  23.773  11.087   8.224  0.1486 -0.0933  0.1683
    1W        W48836  15.435  12.685   8.731  0.2281 -0.2412  0.3512
    1W        W48837   5.975  19.702   2.964  0.0461  0.0331 -0.3429
    1W        W48838  19.918  28.474   8.330 -0.0372 -0.1531 -0.0124
    1W        W48839   0.446   7.086   8.408  0.1703 -0.2892 -0.1284
    1W        W48840   7.933  21.711   1.905  0.3512 -0.3401 -0.0788
    1W        W48841  22.553   6.454   0.757  0.0214 -0.0839 -0.3856
    1W        W48842   4.234  20.411   7.563 -0.0031 -0.0082 -0.0681
    1W        W48843   6.157   2.260   2.375 -0.1235 -0.0027  0.3638
    1W        W48844  16.078   9.647   9.019 -0.3024 -0.0411 -0.2033
    1W        W48845   4.473  23.509   1.482  0.0119 -0.1464  0.1428
    1W        W48846  28.952  21.955   0.645  0.1640  0.0519 -0.1725
    1W        W48847   8.700   5.263   9.505 -0.3128 -0.1446 -0.0700
    1W        W48848  17.940  10.105   7.566 -0.0058  0.0417 -0.4777
    1W        W48849   5.240  14.935   5.769 -0.1630  0.2259 -0.0623
    1W        W48850  19.963  25.910   8.739 -0.4146  0.3969  0.0495
    1W        W48851   6.613  12.536   0.005 -0.2147  0.0460  0.1862
    1W        W48852  26.315  28.703   0.479 -0.1288  0.1188  0.5670
    1W        W48853  12.821  26.273   1.841 -0.2232 -0.0761  0.2306
    1W        W48854  27.212  24.960   2.512  0.0737  0.0609 -0.2380
    1W        W48855  12.197  14.131   9.146  0.1898 -0.0492 -0.2607
    1W        W48856  18.850   1.389   3.259  0.5366 -0.0912  0.1271
    1W        W48857   8.865   9.330   9.599  0.2020  0.0780  0.0632
    1W        W48858  28.652  19.798   9.158  0.1240 -0.1458  0.3389
    1W        W48859   7.399  20.190   0.383 -0.0859 -0.0687 -0.1000
    1W        W48860   0.376   4.412   7.305 -0.0397 -0.0728 -0.1129
    1W        W48861   8.837  25.679   1.144  0.3153 -0.2364 -0.0120
    1W        W48862  19.641  17.785   7.404  0.3412  0.1422  0.1792
    1W        W48863  10.310  26.431   0.875  0.1640 -0.1323 -0.0077
    1W        W48864   8.390  15.077   7.565  0.0773 -0.3161  0.1225
    1W        W48865  21.830  17.562   0.500  0.1309 -0.0820 -0.1902
    1W        W48866  17.303  27.372   0.083  0.3015 -0.0658  0.0904
    1W        W48867   1.956   1.256   0.213 -0.0082 -0.0891 -0.0449
    1W        W48868   2.615  16.683   8.584 -0.1478 -0.0722 -0.2059
    1W        W48869   5.385   8.308   1.295 -0.1745 -0.0070  0.1388
    1W        W48870  27.152  17.974   1.416  0.0457  0.2552 -0.3368
    1W        W48871  10.090  20.483   7.394  0.0833  0.0222 -0.1202
    1W        W48872   3.937  23.388   8.798  0.2160  0.4179  0.0461
    1W        W48873  27.722  17.596   2.433 -0.1031  0.2340 -0.0478
    1W        W48874   9.142   1.944   6.434  0.2900 -0.0097  0.1192
    1W        W48875  22.724  12.969   1.323  0.0263  0.0583  0.0528
    1W        W48876  21.332  17.581   0.638 -0.3151 -0.2470 -0.1172
    1W        W48877  10.450   8.073   7.744 -0.0387  0.1749  0.1188
    1W        W48878   8.094   6.961   1.259  0.2343 -0.2128 -0.3494
    1W        W48879  11.850  22.305   8.697  0.0297 -0.1536 -0.1718
    1W        W48880   8.510  22.884   1.769 -0.2866 -0.0288 -0.0433
    1W        W48881  23.456  27.392   9.028  0.2721 -0.0946  0.1301
    1W        W48882  14.356   4.791   7.908  0.0151 -0.0726 -0.0652
    1W        W48883  23.573   7.634   8.679 -0.2998  0.0190  0.0746
    1W        W48884   5.095   8.212   0.372  0.2579  0.1719 -0.2004
    1W        W48885   5.512  20.068   7.955  0.1084 -0.1551  0.1097
    1W        W48886  16.938   7.917   7.732  0.2157  0.3509  0.0810
    1W        W48887  23.872  26.266   8.751 -0.3818  0.2237 -0.0599
    1W        W48888  26.720  12.806   0.726 -0.0596 -0.0043 -0.2043
    1W        W48889  27.417  16.434   0.471  0.0950 -0.2354 -0.2081
    1W        W48890   7.471   0.845   0.434 -0.1246  0.1992  0.0487
    1W        W48891  21.902  10.059   0.358  0.0120  0.1387 -0.1824
    1W        W48892   1.682  11.604   0.053 -0.2089  0.1394  0.1285
    1W        W48893   2.023  24.648   9.388 -0.2172  0.0624 -0.1282
    1W        W48894   5.510  19.664   0.325  0.0548 -0.2214  0.0997
    1W        W48895  23.254  15.198   1.582  0.1180 -0.2349 -0.0193
    1W        W48896  28.207  24.848   7.404  0.2314 -0.1340  0.0846
    1W        W48897   5.093  20.387   0.479  0.0735  0.0529  0.4650
    1W        W48898  10.518  17.586   7.149 -0.1524  0.2734  0.1041
    1W        W48899   6.692  18.207   8.504  0.0087 -0.1236  0.0046
    1W        W48900  20.862  13.741   1.568  0.1827 -0.1392  0.2687
    1W        W48901   8.762  16.036   2.842  0.4122 -0.2213 -0.3396
    1W        W48902  11.640   9.386   1.056  0.0546 -0.1523  0.0647
    1W        W48903   0.561   4.589   8.307  0.2364 -0.2651  0.2027
    1W        W48904  28.114   3.713   7.272 -0.0894  0.1313  0.2571
    1W        W48905  27.233  27.965   2.811  0.1651  0.1603 -0.0027
    1W        W48906  23.061  13.680   9.108  0.0526 -0.2583  0.0366
    1W        W48907  17.199  23.765   8.844  0.1552 -0.1146  0.3526
    1W        W48908  20.123  23.895   2.460  0.0995  0.1175  0.1319
    1W        W48909  26.314  20.596   2.508  0.1856  0.1375  0.0243
    1W        W48910  27.253   7.949   9.343  0.1314 -0.0470 -0.0304
    1W        W48911   0.651   2.150   2.334  0.1648 -0.0124 -0.0195
    1W        W48912  29.040  20.761   1.634 -0.3330  0.1743  0.0185
    1W        W48913   8.508  28.963   7.817 -0.0387  0.0252 -0.1712
    1W        W48914  12.552  29.452   1.074 -0.0942  0.0356 -0.0632
    1W        W48915   3.468  14.698   9.359 -0.0425 -0.1148 -0.0839
    1W        W48916   8.477  19.480   8.484  0.0742  0.0010  0.4937
    1W        W48917  13.377  21.039   7.423 -0.1619 -0.2613  0.0817
    1W        W48918   1.438  16.140   2.655  0.1594  0.2756  0.0534
    1W        W48919   3.119  16.861   8.627  0.1105  0.1648  0.3227
    1W        W48920  23.904   0.958   8.684 -0.1009 -0.0235 -0.0748
    1W        W48921  13.212   7.679   7.257  0.3332 -0.0573 -0.4463
    1W        W48922   9.853  10.359   5.754 -0.2161  0.0897  0.1414
    1W        W48923  11.434   5.451   6.530  0.1105  0.0962 -0.0269
    1W        W48924   1.262   9.174   5.722  0.2328  0.2146  0.0223
    1W        W48925  24.519  12.295   1.213 -0.3685  0.3842 -0.3452
    1W        W48926  17.103   6.615   7.196  0.3903 -0.2415 -0.0143
    1W        W48927  21.495  18.802   8.235  0.0642 -0.0223  0.2373
    1W        W48928   0.996  23.425   9.495  0.1800  0.0101 -0.4161
    1W        W48929  23.954  11.808   2.311 -0.0339 -0.2569  0.3857
    1W        W48930  14.305  21.529   0.295  0.0028  0.3120 -0.0442
    1W        W48931  12.743  29.180   2.044  0.0576  0.0757 -0.1039
    1W        W48932  18.506   7.511   8.511  0.1118  0.1550  0.1580
    1W        W48933  16.032  10.577   8.904 -0.0976  0.1742  0.2675
    1W        W48934   9.686   0.854   5.871  0.3355 -0.4017  0.1041
    1W        W48935  23.224   5.041   1.565 -0.1354 -0.0157 -0.0293
    1W        W48936   7.996  17.204   8.986  0.0722 -0.1344  0.0137
    1W        W48937  20.183  25.577   0.657 -0.0547 -0.1482 -0.1961
    1W        W48938  24.136  17.251   7.991  0.0603  0.0046  0.0740
    1W        W48939  13.554   4.695   0.804  0.2113  0.1104 -0.2378
    1W        W48940   8.697  29.325   2.451  0.1638 -0.0095 -0.2611
    1W        W48941  10.349  17.047   8.328 -0.0050 -0.0135  0.0900
    1W        W48942  16.088  26.832   1.643  0.2244 -0.1526 -0.0389
    1W        W48943  26.202  13.473   0.233  0.0452  0.0249 -0.1942
    1W        W48944  19.095   3.552   9.114  0.0483  0.2203  0.0842
    1W        W48945   0.708  21.750   3.430 -0.1985 -0.1655 -0.0680
    1W        W48946   7.147   7.633   6.171 -0.1737  0.2203  0.2938
    1W        W48947   6.100  17.171   2.636  0.1092  0.3231 -0.1284
    1W        W48948   4.091  12.577   7.308  0.1881 -0.0729  0.0958
    1W        W48949   2.166   2.750   0.841  0.1520 -0.1832  0.0371
    1W        W48950  10.319  10.967   1.960 -0.0752  0.0596 -0.2535
    1W        W48951  29.528   8.295   1.919 -0.2266 -0.5362  0.2895
    1W        W48952   8.417  27.782   1.790 -0.1128  0.1295  0.0871
    1W        W48953  14.226  13.943   8.366  0.1166  0.0873 -0.2094
    1W        W48954  12.572   2.176   8.936 -0.1369  0.0042 -0.0218
    1W        W48955  11.325  13.893   0.706 -0.0635 -0.1415  0.0772
    1W        W48956  18.966  20.717   8.597  0.3306 -0.0893  0.1164
    1W        W48957  27.967   0.147   9.406  0.2569 -0.1583 -0.3574
    1W        W48958  22.570   7.526   1.205 -0.0442  0.0524 -0.2683
    1W        W48959  11.657  24.374   0.844 -0.1671 -0.0638  0.0500
    1W        W48960  29.301   0.397   1.650  0.2466  0.0935 -0.0067
    1W        W48961   1.115  27.723   6.924 -0.3203  0.0747 -0.1526
    1W        W48962   5.953  21.997   8.710  0.2566 -0.0691  0.1523
    1W        W48963  23.192   1.078   8.275 -0.1502  0.0718 -0.0150
    1W        W48964   1.043   3.117   8.539  0.0757 -0.1261 -0.2204
    1W        W48965  19.757  23.958   9.473  0.0477 -0.1067  0.0434
    1W        W48966   6.511  20.986   7.216 -0.0459 -0.0691  0.1653
    1W        W48967  11.219  16.626   6.378 -0.3298  0.0734  0.0079
    1W        W48968   4.857  13.185   7.234  0.1748  0.0169 -0.0673
    1W        W48969  10.983   4.098   8.771 -0.0119  0.0870 -0.0765
    1W        W48970  23.833  13.363   7.741  0.0772  0.2442  0.0535
    1W        W48971   2.187   1.860   1.126  0.1226  0.1006  0.0873
    1W        W48972  20.333   0.738   9.204  0.0036  0.0389  0.0011
    1W        W48973   5.581  29.408   8.846  0.0684  0.0054  0.0719
    1W        W48974  12.401  29.461   0.538  0.2627 -0.1318  0.1381
    1W        W48975  21.851  26.057   1.018  0.1993  0.0122 -0.0608
    1W        W48976  28.491  15.455   1.980  0.1430  0.1089 -0.0078
    1W        W48977  28.233   8.945   0.252  0.1329 -0.0391  0.3031
    1W        W48978  23.019   5.558   9.638  0.1127 -0.4747 -0.0021
    1W        W48979  13.959  27.800   6.859  0.0697  0.0190  0.2356
    1W        W48980  11.288  12.570   2.411 -0.1008  0.1464 -0.1975
    1W        W48981  20.243   4.208   0.222  0.1843  0.1562  0.1826
    1W        W48982  25.375   8.101   1.496  0.0100 -0.2728  0.0141
    1W        W48983  26.707  21.687   8.486  0.0760 -0.1688  0.2648
    1W        W48984  13.198  24.064   6.672  0.1377  0.0274 -0.1324
    1W        W48985  23.911  28.297   7.963  0.0362  0.1635 -0.2598
    1W        W48986  16.739  25.018   1.791  0.0725 -0.2126 -0.1534
    1W        W48987   9.499  18.444   9.128 -0.1934  0.2419  0.2122
    1W        W48988  29.489  25.796   7.570  0.0819  0.1532 -0.1729
    1W        W48989  23.890   0.828   0.801  0.0074 -0.3338 -0.0667
    1W        W48990  13.817  15.976   9.639  0.2228  0.1156 -0.1042
    1W        W48991  22.818  13.653   8.023  0.2435 -0.0853 -0.0895
    1W        W48992  24.308   5.222   1.790  0.0238 -0.1289 -0.1603
    1W        W48993  10.439   4.016   9.614  0.0592  0.0844 -0.5267
    1W        W48994  21.928  15.142   3.012  0.0689 -0.2914 -0.2926
    1W        W48995  24.176  22.575   1.577 -0.1210 -0.2608  0.0747
    1W        W48996   3.552   8.337   0.544 -0.0673  0.2161 -0.1838
    1W        W48997   4.457  26.391   6.713 -0.0697  0.1063  0.1472
    1W        W48998   6.349  27.270   0.974  0.0859 -0.1678 -0.0498
    1W        W48999   9.647  19.512   7.620  0.1875  0.3030 -0.1508
    1W        W49000  17.125   8.754   0.301 -0.0669 -0.1358 -0.0208
    1W        W49001  10.689  18.969   9.315 -0.1593  0.2242 -0.0931
    1W        W49002  17.145   4.906   2.050  0.0931  0.1907  0.1791
    1W        W49003  18.614  15.218   7.944  0.1867  0.0564  0.0810
    1W        W49004  14.313  20.783   2.303 -0.0349 -0.0609  0.2734
    1W        W49005  20.622   2.057   7.373 -0.0909 -0.1763 -0.1169
    1W        W49006  17.649  14.800   0.134  0.2182  0.3326  0.2932
    1W        W49007   6.549  15.233   2.164  0.3196  0.1283  0.2808
    1W        W49008  29.255  28.666   0.799 -0.0035  0.1183  0.3850
    1W        W49009  13.617  21.346   1.070  0.1874 -0.1529  0.0187
    1W        W49010  21.161   8.319   2.220  0.1331 -0.0440  0.2121
    1W        W49011  12.599  14.728   2.508 -0.0071  0.2023  0.0027
    1W        W49012  17.801   8.565   9.285 -0.0438 -0.4421 -0.0407
    1W        W49013   1.392  14.778   1.969  0.2989 -0.2894  0.0772
    1W        W49014   0.210  19.703   1.804  0.2004  0.2124  0.0822
    1W        W49015  10.392   3.723   6.350 -0.0453 -0.1660  0.1614
    1W        W49016   0.433  27.954   0.186  0.4013  0.2042  0.1830
    1W        W49017   4.489  25.180   8.342 -0.2560 -0.2496 -0.1156
    1W        W49018  26.313  29.449   8.399 -0.0007  0.0711  0.0018
    1W        W49019  28.600  25.363   2.590  0.3022  0.0325  0.1617
    1W        W49020   8.429   4.427   8.740  0.0479 -0.1945  0.1878
    1W        W49021  12.217  24.283   8.713 -0.0909  0.1565  0.1192
    1W        W49022  14.300   0.110   9.308  0.0529 -0.3721 -0.0031
    1W        W49023   8.479  11.017   6.924  0.2200 -0.1115  0.0633
    1W        W49024   4.458   2.330   1.058  0.1149  0.1969 -0.2607
    1W        W49025   7.151   4.721   8.162 -0.3023 -0.0642  0.1324
    1W        W49026  16.719  12.382   7.239 -0.0510  0.1684  0.1111
    1W        W49027  14.455  10.416   8.567 -0.0435  0.0539  0.0364
    1W        W49028   2.959  28.655   0.938 -0.0057 -0.0991 -0.0184
    1W        W49029   3.527   3.522   6.453  0.0537 -0.2265 -0.0611
    1W        W49030  27.306  18.394   7.342  0.2375  0.0947  0.0709
    1W        W49031  17.669  13.494   1.539  0.0403 -0.1684 -0.0143
    1W        W49032   3.135   3.278   1.823  0.0054 -0.1232  0.0119
    1W        W49033   6.644   9.526   5.534 -0.2925  0.1624 -0.2934
    1W        W49034  23.307   7.956   2.304  0.0234  0.1095  0.2122
    1W        W49035  20.811   2.510   0.268 -0.1412  0.1330  0.2416
    1W        W49036   6.507  12.451   5.333  0.0787 -0.1218  0.0328
    1W        W49037   0.088  28.514   6.559 -0.0369  0.1744 -0.1977
    1W        W49038  10.236  28.238   0.781 -0.0393 -0.1041  0.1216
    1W        W49039  24.412  27.356   1.427 -0.0179 -0.1080 -0.1847
    1W        W49040  28.683  24.834   7.624 -0.2326  0.1532 -0.2068
    1W        W49041   7.970   0.592   8.628  0.0833 -0.0703 -0.2907
    1W        W49042   3.531  22.970   0.189  0.4031  0.2422 -0.2432
    1W        W49043   7.421  19.367   8.161  0.0287  0.0105  0.1358
    1W        W49044  28.149  20.454   7.885 -0.2370  0.0253  0.0615
    1W        W49045  16.798  28.427   6.981  0.3000  0.3481  0.0845
    1W        W49046  14.344  20.444   6.671  0.1140 -0.1879 -0.0843
    1W        W49047  20.226  22.508   3.048 -0.0872 -0.4565 -0.0756
    1W        W49048  28.908  27.037   3.907 -0.2275  0.0933 -0.1097
    1W        W49049  21.949   6.169   2.424  0.0100  0.1436  0.1469
    1W        W49050  29.179   6.509   6.423  0.2612  0.2998  0.2469
    1W        W49051   0.791   0.042   1.019 -0.3919  0.1355  0.0322
    1W        W49052  11.113   5.168   6.821 -0.0247  0.3208  0.2646
    1W        W49053  12.626  13.231   0.874  0.1532 -0.0878  0.2614
    1W        W49054   9.942  14.449   1.058  0.1051  0.0839 -0.1115
    1W        W49055  26.983   0.981   2.786 -0.2484 -0.0434  0.0903
    1W        W49056   3.217   3.414   6.858  0.2147 -0.3244 -0.0177
    1W        W49057  27.209  12.656   0.713 -0.1146  0.2220  0.3852
    1W        W49058  15.685  11.315   1.614  0.0891 -0.1703 -0.0023
    1W        W49059   5.404   2.769   2.571  0.0035  0.2822 -0.1434
    1W        W49060   2.642   6.918   1.094  0.0930 -0.2967 -0.1371
    1W        W49061   0.249  11.420   9.156 -0.0466 -0.0755 -0.1885
    1W        W49062  24.558  14.920   2.780 -0.2912 -0.1205 -0.0130
    1W        W49063  19.775  15.581   1.341 -0.1725 -0.2041  0.2962
    1W        W49064  18.987  25.604   0.530 -0.0913  0.0873 -0.0377
    1W        W49065   0.232  20.584   3.422  0.0328  0.0580  0.4336
    1W        W49066  19.337  15.847   2.850  0.1158 -0.1727 -0.0405
    1W        W49067  18.223   1.759   6.558 -0.0621  0.3071  0.1057
    1W        W49068  24.339  28.888   0.189 -0.0240  0.1097 -0.2385
    1W        W49069  10.039   0.199   6.952  0.0304 -0.5271  0.0029
    1W        W49070  18.245  29.536   2.183 -0.2692 -0.2412 -0.3125
    1W        W49071  23.163  16.275   1.144  0.1013 -0.2097  0.2103
    1W        W49072  11.089  26.573   7.616 -0.4814 -0.0693  0.0156
    1W        W49073  25.402   7.841   8.634  0.0480 -0.2517  0.3766
    1W        W49074   3.471  21.781   9.520  0.4198 -0.4384 -0.3039
    1W        W49075  22.236  22.240   8.751  0.3250  0.1388  0.0279
    1W        W49076   4.235  15.050   7.585 -0.0715  0.0559 -0.0833
    1W        W49077  26.036   0.782   8.227 -0.2563 -0.4108 -0.0825
    1W        W49078  23.556  25.017   1.521  0.1176  0.0442 -0.1188
    1W        W49079  13.993   2.587   7.798 -0.3481  0.0577 -0.0143
    1W        W49080  25.358  27.676   7.643 -0.3951  0.0844 -0.0406
    1W        W49081  19.068  29.387   1.936  0.0284  0.1569  0.2097
    1W        W49082  20.545  24.909   4.180  0.1595  0.2653  0.2650
    1W        W49083  28.365  13.231   0.055 -0.1651 -0.0569  0.1620
    1W        W49084  20.497  14.928   0.406 -0.3063 -0.0670 -0.1330
    1W        W49085  11.215  17.294   8.523 -0.1379  0.0925  0.0812
    1W        W49086  20.334  19.629   3.055  0.3859  0.1124 -0.3525
    1W        W49087  19.658   0.209   1.580 -0.2940 -0.1338  0.1143
    1W        W49088  28.993  18.416   3.290 -0.0514 -0.2287  0.0816
    1W        W49089   5.335   1.786   2.567 -0.1047  0.3748  0.1711
    1W        W49090  23.822   2.141   9.412  0.3797 -0.0247 -0.1903
    1W        W49091  17.462  23.822   7.771 -0.1564 -0.1712  0.1452
    1W        W49092   5.165   9.334   8.403  0.0708  0.3686  0.2198
    1W        W49093  25.510  25.537   2.551 -0.0746  0.0557 -0.0655
    1W        W49094  19.835  10.239   8.136 -0.1075  0.2900  0.1108
    1W        W49095  19.130  24.098   1.388  0.0932  0.1631  0.0805
    1W        W49096  22.738  21.598   9.254  0.2854 -0.0102  0.1343
    1W        W49097  12.245  18.794   5.505 -0.1861 -0.3735 -0.1646
    1W        W49098  13.453  20.072   6.214 -0.4135  0.1380 -0.0378
    1W        W49099  18.858  19.428   2.522 -0.0863 -0.5217  0.1952
    1W        W49100  20.157   0.046   8.437 -0.1459 -0.0643 -0.0238
    1W        W49101   4.455  18.170   1.409 -0.1165  0.2094  0.1822
    1W        W49102  28.559  10.865   0.908 -0.1290 -0.2051 -0.1908
    1W        W49103  15.496  14.459   7.590  0.2441  0.0551 -0.1204
    1W        W49104   7.082  12.730   7.420 -0.0308  0.1026 -0.0607
    1W        W49105  13.271  28.063   1.832  0.1680  0.1756 -0.1485
    1W        W49106  21.887  19.721   1.842  0.0213 -0.2168  0.1077
    1W        W49107   4.456  29.306   1.266  0.0524  0.1536  0.1428
    1W        W49108  25.630  20.716   7.742 -0.0395 -0.2021 -0.2036
    1W        W49109  15.162  22.408   2.444 -0.1069  0.0067  0.3074
    1W        W49110   4.221  24.941   3.077  0.1986 -0.1360 -0.1240
    1W        W49111  22.491  27.622   2.215  0.0699 -0.2487  0.0883
    1W        W49112   0.077  23.446   0.496 -0.0614 -0.0385  0.2010
    1W        W49113   4.522  14.438   6.930  0.0029  0.1054 -0.1134
    1W        W49114   9.267  16.384   1.300  0.0892  0.0689  0.2694
    1W        W49115  16.309  23.322   8.082  0.0758 -0.1831 -0.1507
    1W        W49116  27.364   1.835   3.067  0.1084 -0.0195  0.3038
    1W        W49117  29.238   1.362   1.781 -0.0935  0.0053 -0.0384
    1W        W49118  15.944  26.012   1.588 -0.3144  0.1349  0.0230
    1W        W49119   4.553  27.417   0.330 -0.0068  0.1498  0.1117
    1W        W49120   4.139  14.392   7.697  0.2410 -0.0467 -0.0550
    1W        W49121  10.020  27.894   7.916 -0.1782  0.1477 -0.1042
    1W        W49122  15.539  18.546   9.228  0.4091  0.0958 -0.0863
    1W        W49123   4.253   4.103   1.086 -0.4231 -0.0840  0.1400
    1W        W49124  21.674   2.032   7.208 -0.1402 -0.1063 -0.0274
    1W        W49125   9.868  20.414   2.030 -0.0700  0.1562 -0.0912
    1W        W49126   3.614   7.319   1.908 -0.1376  0.0591  0.0436
    1W        W49127  15.144  16.940   7.264 -0.3842 -0.0054 -0.1743
    1W        W49128  20.260  24.752   2.076 -0.1073  0.0954  0.2096
    1W        W49129   1.459   2.142   0.009  0.1727 -0.0509  0.3364
    1W        W49130  27.053   8.419   8.428  0.2554 -0.2734  0.0496
    1W        W49131  27.553  29.254   2.895 -0.1937 -0.2824  0.0222
    1W        W49132  28.404  13.085   9.170 -0.1414 -0.0008  0.1314
    1W        W49133   4.955  20.261   8.119  0.0614  0.2121 -0.2017
    1W        W49134   1.516   9.022   9.382 -0.0949  0.0775 -0.0925
    1W        W49135   9.996   7.745   8.536  0.2336 -0.2205  0.0868
    1W        W49136  27.972  23.449   8.561 -0.1034 -0.0676 -0.2588
    1W        W49137   1.112  28.694   2.227  0.0052 -0.2296  0.1254
    1W        W49138   8.517  18.897   8.392 -0.0598 -0.0205 -0.2054
    1W        W49139  10.011   6.220   8.537  0.1041 -0.4125  0.0388
    1W        W49140  25.356   1.629   7.062  0.1203  0.0265 -0.2941
    1W        W49141  20.937   4.464   1.797 -0.2863 -0.3789 -0.1583
    1W        W49142   2.914  22.962   7.179 -0.2769 -0.0288 -0.0251
    1W        W49143  27.072  14.819   0.720 -0.0756 -0.0493  0.1155
    1W        W49144   7.183  22.719   3.057 -0.1183  0.0350  0.0948
    1W        W49145   0.607   3.117   3.439 -0.2794 -0.1438  0.0202
    1W        W49146  15.847  16.692   1.785  0.2164  0.0632 -0.1604
    1W        W49147   5.434  29.018   8.087  0.2117  0.5258  0.1279
    1W        W49148  10.854  11.319   5.958  0.0565 -0.1000  0.2023
    1W        W49149   4.030  19.428   8.644 -0.2886 -0.2285  0.3368
    1W        W49150  22.147  15.504   1.867 -0.2716  0.1062 -0.1068
    1W        W49151  24.270  20.675   0.253 -0.0295  0.2362  0.2171
    1W        W49152   7.765  10.546   7.098 -0.1999 -0.3471 -0.1462
    1W        W49153  26.438  27.667   1.239  0.2260 -0.0217 -0.0871
    1W        W49154  29.438   2.156   6.291 -0.0458  0.4092 -0.0017
    1W        W49155   2.118  19.939   8.142  0.3709  0.2560  0.1665
    1W        W49156   6.236  18.506   8.405  0.0634 -0.0803  0.0223
    1W        W49157  13.227  15.606   7.000 -0.0384 -0.0705 -0.1808
    1W        W49158   6.850  13.430   8.238 -0.2877 -0.1085  0.0564
    1W        W49159  11.588  23.160   7.214  0.0438 -0.1320  0.1939
    1W        W49160  10.272  24.856   1.910 -0.0309 -0.0472  0.0657
    1W        W49161   8.080  24.698   8.937  0.0357  0.2612 -0.0567
    1W        W49162  15.184   5.163   2.333 -0.0152 -0.1383  0.2187
    1W        W49163   6.521  16.394   7.279 -0.2189  0.1337 -0.0469
    1W        W49164  25.403   2.432   6.941  0.0164  0.1844  0.1898
    1W        W49165   2.896  17.212   8.883  0.1825  0.0068 -0.1831
    1W        W49166  18.535  14.823   9.647 -0.0085 -0.0083 -0.0222
    1W        W49167  10.174   5.458   1.511 -0.1041  0.0274 -0.0067
    1W        W49168   2.995   2.083   9.057  0.1154 -0.2295 -0.0324
    1W        W49169   6.782   8.819   7.701  0.2777  0.2227  0.0390
    1W        W49170  12.039  17.614   9.541  0.0853 -0.0735  0.3414
    1W        W49171  14.113  21.340   7.265 -0.2509  0.1445  0.0653
    1W        W49172  24.300   1.786   7.498 -0.2421  0.0123  0.1176
    1W        W49173   9.142  14.114   6.939 -0.0713  0.3027  0.0765
    1W        W49174  11.241  22.795   9.373  0.2212 -0.1947 -0.1996
    1W        W49175   3.552   9.666   0.313  0.1984  0.0115  0.0948
    1W        W49176  21.502  28.296   8.748 -0.2314  0.2274 -0.1124
    1W        W49177   0.530  18.800   2.298  0.4144 -0.4437  0.1706
    1W        W49178  13.937   6.045   7.264  0.0156  0.1850  0.1875
    1W        W49179   9.004   7.785   7.141  0.0460 -0.2586  0.1341
    1W        W49180   4.533  19.725   0.514  0.3321  0.1054  0.1099
    1W        W49181  19.065   7.742   8.527  0.0473 -0.2988 -0.3126
    1W        W49182  12.260  25.368   2.842  0.2216  0.5472 -0.0235
    1W        W49183   5.147  15.004   9.260  0.0586 -0.1278 -0.3010
    1W        W49184   3.024  10.384   6.951  0.1195  0.1953 -0.2294
    1W        W49185   5.858  16.215   1.866 -0.1571 -0.0712  0.0529
    1W        W49186   6.508   2.271   9.635 -0.2572 -0.4330  0.1358
    1W        W49187  10.844   3.546   8.936 -0.0215  0.1487  0.1921
    1W        W49188   3.739   2.114   0.549 -0.2472  0.0057 -0.0082
    1W        W49189  12.996  19.322   0.027  0.1512  0.1014  0.4106
    1W        W49190  20.847   3.904   2.558 -0.0239 -0.0161  0.0593
    1W        W49191   7.478   6.800   6.269 -0.1999 -0.0197  0.0110
    1W        W49192   1.200  11.777   1.398  0.2610 -0.0015  0.0279
    1W        W49193  25.782  24.381   3.144  0.3164 -0.2828  0.0026
    1W        W49194   1.109  19.168   9.003  0.0721 -0.0788  0.2318
    1W        W49195   2.468   3.564   0.772 -0.0238 -0.1142  0.0943
    1W        W49196  11.766   4.394   8.468 -0.0334  0.1499  0.0230
    1W        W49197   6.998  18.130   7.852  0.1584 -0.2888  0.2122
    1W        W49198  22.361   5.215   8.981 -0.0276  0.1825  0.0729
    1W        W49199  21.640  13.955   1.887  0.1640 -0.0639  0.1405
    1W        W49200  11.823   4.185   7.042 -0.1193  0.0856  0.0700
    1W        W49201   1.479   5.349   8.391 -0.2001  0.1470 -0.0337
    1W        W49202  22.554  10.584   8.218  0.1144 -0.1083  0.0738
    1W        W49203   5.475  11.560   1.447 -0.0176  0.1281 -0.0298
    1W        W49204  14.456  11.126   8.456  0.0129 -0.1461  0.1647
    1W        W49205  14.887   0.107   9.283  0.0399 -0.0944 -0.2183
    1W        W49206  28.486  21.320   9.140 -0.0472  0.0569  0.3073
    1W        W49207  19.170  18.420   1.625 -0.0425  0.1308  0.0841
    1W        W49208  21.782  20.260   9.108 -0.2727 -0.3399  0.3132
    1W        W49209   8.648   1.080   0.010  0.2532 -0.0650  0.0589
    1W        W49210   1.009   9.449   9.640  0.0826  0.1044  0.0737
    1W        W49211   2.381  11.063   0.948  0.0104 -0.0216 -0.2785
    1W        W49212   2.778  10.730   0.661 -0.0793  0.0644  0.0363
    1W        W49213  20.038   1.049   9.496 -0.1512  0.3312 -0.3706
    1W        W49214  15.765   8.929   0.643 -0.0594 -0.0174 -0.1506
    1W        W49215  14.932   9.730   0.360 -0.3923  0.3741  0.4000
    1W        W49216  19.270  27.938   3.003  0.1591 -0.0438 -0.0278
    1W        W49217   2.159  14.690   2.811 -0.1786 -0.3143  0.4333
    1W        W49218   0.337  14.819   9.504  0.0528  0.0225  0.1387
    1W        W49219  10.611  19.857   0.259 -0.1402  0.1013 -0.0554
    1W        W49220  14.759  23.502   9.322 -0.2894  0.2470  0.4321
    1W        W49221  22.177  10.301   7.990  0.0566 -0.0154  0.1558
    1W        W49222  22.567  13.682   9.021 -0.0269 -0.1325  0.2086
    1W        W49223  26.258  24.496   3.327 -0.0330  0.0376  0.1276
    1W        W49224  27.174  17.043   1.221 -0.0334 -0.0964  0.1678
    1W        W49225   7.407   7.408   2.481  0.0498  0.1846 -0.1304
    1W        W49226   8.017  26.460   2.068  0.5119 -0.0124 -0.1058
    1W        W49227  27.576  15.481   8.217 -0.0862  0.1315 -0.0925
    1W        W49228   7.392   7.015   7.965  0.0737  0.1424  0.1095
    1W        W49229   9.272  28.373   0.819 -0.0018  0.0138  0.0311
    1W        W49230  19.068  16.599   7.934  0.0336  0.2428  0.0629
    1W        W49231  15.563   3.013   2.146  0.1005  0.1758  0.1724
    1W        W49232  14.380   8.058   7.603 -0.0816  0.0303  0.0152
    1W        W49233  12.905  21.398   2.450  0.1531  0.2327  0.0442
    1W        W49234   0.682  28.569   9.568 -0.0021  0.3098  0.0944
    1W        W49235  24.793  17.102   2.356  0.0168  0.0475  0.2453
    1W        W49236   3.426   7.191   6.977 -0.0870  0.0550 -0.0284
    1W        W49237  13.038  28.036   0.687 -0.2615  0.0468  0.1230
    1W        W49238  17.136   7.381   9.571  0.0862 -0.2628  0.4600
    1W        W49239  13.779  27.271   1.477  0.0211  0.1489  0.0440
    1W        W49240  28.025  24.617   2.149 -0.2413  0.2136  0.0830
    1W        W49241  12.179   6.910   6.106  0.0596  0.0581 -0.0561
    1W        W49242  23.230  11.787   2.039 -0.0470 -0.1992 -0.7012
    1W        W49243  15.370  23.051   7.447 -0.0087  0.1773  0.0284
    1W        W49244   7.326   5.348   7.071  0.3406  0.1182 -0.0619
    1W        W49245  13.790  16.752   0.734  0.3325  0.1529 -0.3313
    1W        W49246  25.461   4.018   1.563  0.0503  0.1389  0.1872
    1W        W49247  22.572  29.053   7.403 -0.0472 -0.1608  0.1897
    1W        W49248  10.935  14.315   7.820 -0.1080  0.1136  0.0892
    1W        W49249  15.361   9.088   7.811 -0.0994  0.1220  0.3116
    1W        W49250  23.986  17.764   1.654 -0.1305  0.2807  0.1477
    1W        W49251  12.434  28.742   7.665 -0.1700  0.0314 -0.4694
    1W        W49252   1.659  27.655   2.828  0.0518 -0.1879 -0.0854
    1W        W49253   8.069  15.311   0.000 -0.1541  0.0841  0.1433
    1W        W49254  13.748  19.150   5.955 -0.1112 -0.2482 -0.1169
    1W        W49255  12.333  18.306   8.288  0.0666 -0.1490  0.0625
    1W        W49256  21.683   0.381   7.414 -0.1527  0.1801  0.0456
    1W        W49257  13.239   7.219   9.144 -0.0527 -0.1159 -0.1291
    1W        W49258   3.877   9.012   7.205 -0.1360 -0.0682  0.1120
    1W        W49259  27.632  22.044   8.164 -0.3311  0.0873 -0.1605
    1W        W49260  17.194   2.857   1.135  0.4305 -0.0584 -0.1083
    1W        W49261  26.026  19.297   3.038 -0.2250  0.1272  0.2065
    1W        W49262  18.428  12.674   8.966  0.1664 -0.2223  0.0394
    1W        W49263   5.382  16.077   5.858 -0.0787 -0.2621 -0.4288
    1W        W49264  21.929   7.468   7.356 -0.1521 -0.0623  0.1876
    1W        W49265  11.554   3.721   9.451 -0.0212 -0.2900 -0.0911
    1W        W49266   5.023   8.642   9.089 -0.0464  0.2728 -0.1514
    1W        W49267   9.365  12.413   1.245  0.1297 -0.0456 -0.0349
    1W        W49268   2.132   6.464   2.533 -0.1743  0.2394  0.1450
    1W        W49269  26.476   7.632   8.550  0.0026  0.0259 -0.2861
    1W        W49270   9.072  14.463   0.637 -0.1926  0.1296 -0.1955
    1W        W49271  26.595   3.625   1.092  0.1176  0.2251 -0.4013
    1W        W49272   9.684  11.799   7.708  0.0514  0.2268  0.3379
    1W        W49273  11.727  21.400   8.277  0.2251 -0.0704  0.0959
    1W        W49274   0.670   5.404   7.222 -0.1557 -0.1322  0.1962
    1W        W49275  28.716  29.175   6.823  0.0382 -0.2310  0.3272
    1W        W49276  19.682  20.807   9.231 -0.1302  0.1344 -0.1221
    1W        W49277   4.328   5.235   7.922  0.0526 -0.0079  0.1571
    1W        W49278  28.737   1.145   8.819 -0.0966 -0.0722 -0.0833
    1W        W49279  20.291   1.101   1.639 -0.0188  0.2238  0.0560
    1W        W49280  19.847  28.569   3.448 -0.1098 -0.0757 -0.1058
    1W        W49281  23.230  26.045   2.921 -0.2643  0.1886 -0.0419
    1W        W49282   0.620  19.212   8.961 -0.1929 -0.0287 -0.1012
    1W        W49283  25.025   0.106   1.306  0.1467 -0.0532  0.1723
    1W        W49284   6.334  24.477   2.724  0.1516  0.3479  0.1124
    1W        W49285   0.178   8.044   8.367  0.1214  0.1882  0.4478
    1W        W49286  10.817  21.230   1.587  0.1802  0.1426 -0.1308
    1W        W49287   1.887  14.863   6.982  0.1000 -0.2529 -0.2577
    1W        W49288   1.716  27.420   1.981  0.3073 -0.2207  0.0775
    1W        W49289  12.793   7.696   8.614 -0.0807  0.2732  0.0980
    1W        W49290  14.298  25.521   6.178  0.2928 -0.0370 -0.0542
    1W        W49291  18.817  18.298   7.156  0.2219  0.0344 -0.2195
    1W        W49292  28.863   9.418   0.083 -0.3082 -0.3622  0.2681
    1W        W49293  27.489  24.999   0.393  0.0432  0.1539  0.0131
    1W        W49294   5.327   1.209   7.916 -0.2925  0.1406 -0.1766
    1W        W49295  19.692  11.024   7.508  0.0179 -0.0160 -0.2236
    1W        W49296  17.803  22.878   8.796  0.1998  0.0323  0.0161
    1W        W49297   3.417  18.116   1.150 -0.2039  0.2425 -0.1152
    1W        W49298   4.499   0.183   2.017  0.1219 -0.0193  0.0707
    1W        W49299  14.924   0.241   2.246 -0.1482  0.0520  0.4154
    1W        W49300  27.110   8.185   8.887 -0.0724 -0.0664  0.0616
    1W        W49301  17.570  24.437   6.818 -0.3662 -0.1086 -0.3110
    1W        W49302   7.904   8.342   1.914 -0.0712 -0.0495 -0.0058
    1W        W49303  11.173   1.364   2.508  0.0024  0.1349 -0.0803
    1W        W49304   0.495  28.473   2.889  0.1048  0.2484  0.0225
    1W        W49305   0.736   0.805   1.579  0.1586  0.0349 -0.2919
    1W        W49306  26.637  23.758   7.560  0.2866 -0.0694 -0.1557
    1W        W49307  10.149  14.849   8.233  0.1493  0.2014 -0.0030
    1W        W49308  18.422  21.910   0.530  0.0628  0.1093 -0.0631
    1W        W49309  17.829  23.575   8.091 -0.0605  0.1827 -0.1032
    1W        W49310  13.497   3.348   6.438  0.2202  0.5068 -0.4603
    1W        W49311   4.459  20.210   2.135 -0.0204 -0.3378  0.1032
    1W        W49312   2.641   8.403   1.597 -0.1190  0.4443  0.2171
    1W        W49313  11.829  29.386   2.077 -0.0994  0.0998 -0.1917
    1W        W49314  11.030  27.988   1.878  0.1944  0.1354  0.0261
    1W        W49315  27.932  12.251   9.329 -0.2901  0.0359  0.2620
    1W        W49316  29.126  23.393   6.903 -0.2737 -0.0407  0.0388
    1W        W49317  21.587   0.374   3.132  0.1658 -0.1736 -0.4401
    1W        W49318  28.271   2.719   8.712 -0.1080  0.4995  0.0531
    1W        W49319  23.816  24.005   8.311 -0.1627 -0.0685 -0.0877
    1W        W49320  13.041   2.497   7.031  0.0280  0.0005 -0.2168
    1W        W49321  18.384   7.242   8.861 -0.1494 -0.2976 -0.1039
    1W        W49322  18.792  27.335   1.093 -0.0569 -0.4409  0.2331
    1W        W49323  26.638  10.337   2.413 -0.1096  0.1477 -0.1289
    1W        W49324   7.421   2.130   7.618 -0.1251  0.2116  0.1354
    1W        W49325  26.400  28.902   8.382 -0.0746  0.1989 -0.0648
    1W        W49326   3.972  11.486   0.769  0.3954  0.1954 -0.1757
    1W        W49327   2.451  20.345   8.118  0.1506  0.1830  0.2632
    1W        W49328  10.770  21.273   6.371  0.2539  0.2147  0.5737
    1W        W49329   3.620  17.111   0.968 -0.2497  0.3687  0.0642
    1W        W49330  29.067   1.173   7.889 -0.1933 -0.1096  0.0931
    1W        W49331  28.182  13.605   9.372 -0.1545  0.1008 -0.0260
    1W        W49332  10.882   8.281   7.894 -0.2929  0.0728 -0.2783
    1W        W49333   0.764   7.773   7.323  0.0817  0.1505 -0.1944
    1W        W49334  28.859  12.863   1.536  0.0081  0.1390  0.0714
    1W        W49335   2.684   1.663   8.452  0.0014  0.5416 -0.1085
    1W        W49336  10.124  29.115   0.055  0.2444 -0.0496 -0.0863
    1W        W49337  26.661  20.989   0.560  0.2815  0.1710 -0.1203
    1W        W49338  23.608  14.644   1.234 -0.1037 -0.5036 -0.2891
    1W        W49339  14.124  12.389   1.822 -0.4790 -0.0720 -0.0245
    1W        W49340  20.992   1.622   7.615  0.1451 -0.0428  0.0081
    1W        W49341   0.337  25.196   7.842 -0.0729  0.4287 -0.2744
    1W        W49342   5.467   0.291   1.803  0.1564  0.1214 -0.1230
    1W        W49343   8.302   9.117   8.203  0.2828 -0.1789  0.1321
    1W        W49344  14.294  19.879   1.024  0.1690  0.0944 -0.2293
    1W        W49345  25.035  17.418   2.748 -0.2168  0.0841 -0.1061
    1W        W49346  12.008   8.176   8.875  0.1457 -0.2250 -0.1089
    1W        W49347   0.501   3.231   8.692 -0.1395 -0.1362  0.0226
    1W        W49348  18.358  26.948   1.511 -0.0591 -0.0378  0.0494
    1W        W49349  13.120  12.598   2.856 -0.0094 -0.1163 -0.0478
    1W        W49350  28.949  16.367   7.805 -0.1522 -0.0495 -0.2388
    1W        W49351  24.333  28.631   9.434  0.0677 -0.0417  0.1988
    1W        W49352  17.394  12.293   0.416 -0.3692  0.0216 -0.3050
    1W        W49353   7.535   6.227   9.572  0.0075  0.0300  0.1187
    1W        W49354  13.295  16.748   0.877 -0.0980 -0.0545  0.2730
    1W        W49355   7.660  15.581   1.389 -0.2363  0.1525  0.1558
    1W        W49356  26.501  23.848   8.379  0.2749  0.2498 -0.2010
    1W        W49357  20.642   2.039   1.483  0.1664 -0.1888  0.0247
    1W        W49358  22.590   2.144   2.546 -0.1880 -0.0010 -0.2515
    1W        W49359  25.806   6.478   8.512 -0.1664  0.0986 -0.0093
    1W        W49360  13.334  14.893   0.563 -0.0196  0.0780  0.2626
    1W        W49361   3.111  21.164   6.478 -0.0816 -0.0118  0.0158
    1W        W49362  16.366   6.131   1.826 -0.0132  0.0646 -0.3040
    1W        W49363  26.021  23.856   8.935 -0.0301 -0.1711 -0.0016
    1W        W49364  23.037   5.876   8.713 -0.1406  0.0141 -0.1952
    1W        W49365  14.904   3.328   0.177  0.0457 -0.1651 -0.1170
    1W        W49366   7.190  29.513   9.350  0.1686 -0.0587  0.0152
    1W        W49367  19.573   0.625   7.052  0.1142 -0.3258  0.1087
    1W        W49368  11.431   2.363   2.397  0.0994 -0.2790 -0.3554
    1W        W49369  26.581   1.163   0.047  0.0798  0.1065  0.1689
    1W        W49370   9.341  18.875   8.706  0.1443  0.1484  0.2122
    1W        W49371  23.687  15.948   9.259  0.1865  0.0083 -0.1302
    1W        W49372   2.917  10.287   9.540 -0.2961 -0.1907  0.0213
    1W        W49373   4.913  25.461   0.514 -0.1588  0.0898  0.1780
    1W        W49374   9.262   0.459   7.891  0.2256 -0.3478  0.0010
    1W        W49375  23.572   3.087   9.609 -0.0755 -0.0532  0.0237
    1W        W49376  28.208  19.629   3.860 -0.2248  0.1105  0.0396
    1W        W49377  12.953   9.616   8.379 -0.1753 -0.0090 -0.1047
    1W        W49378   3.019  24.648   0.136 -0.1130 -0.1823  0.1641
    1W        W49379  19.676  19.770   3.406 -0.2425 -0.0214  0.1657
    1W        W49380  18.563  24.924   1.473 -0.1986  0.0036 -0.0581
    1W        W49381  14.129   8.290   0.841  0.0243  0.0312 -0.4282
    1W        W49382  18.914  25.799   9.389  0.2541 -0.1598  0.0156
    1W        W49383  25.417  28.110   2.716  0.1345 -0.0903 -0.2469
    1W        W49384   8.576   6.961   7.260 -0.0914 -0.0636 -0.2042
    1W        W49385  20.089   2.859   1.696 -0.1252  0.0544  0.1500
    1W        W49386  25.336   7.998   7.345 -0.0111 -0.0516  0.3103
    1W        W49387  10.028  22.221   8.592  0.0970 -0.3874 -0.3346
    1W        W49388   8.956   8.691   0.092  0.4698  0.0819  0.0905
    1W        W49389   8.973  22.878   6.728 -0.1772  0.1849 -0.1822
    1W        W49390  15.927   1.577   1.539 -0.2821  0.1987  0.1410
    1W        W49391  13.468   9.989   1.574 -0.0523 -0.2384 -0.2009
    1W        W49392  14.055   7.901   1.726 -0.0458  0.1772 -0.0197
    1W        W49393  22.078  13.465   2.568  0.1328  0.2176  0.2559
    1W        W49394  23.936   8.253   6.704 -0.1744 -0.2707 -0.0894
    1W        W49395  22.336  24.210   1.840 -0.0756 -0.0734  0.1386
    1W        W49396   9.879   1.292   8.003  0.1612  0.0221  0.2157
    1W        W49397  15.127   8.392   8.530  0.1568  0.0384 -0.0763
    1W        W49398  25.187  20.547   3.117  0.1358  0.2436  0.2071
    1W        W49399  12.899   9.027   7.530 -0.4151  0.4687 -0.0593
    1W        W49400  11.499  12.235   1.116  0.1047  0.4754 -0.0615
    1W        W49401  24.554   0.800   2.613 -0.2500 -0.1592 -0.2231
    1W        W49402   9.152  15.948   1.647  0.4656  0.2955 -0.0330
    1W        W49403  23.240   1.270   0.221  0.0912  0.1049  0.1141
    1W        W49404  19.147   8.089   8.914  0.1940  0.1294 -0.2376
    1W        W49405  25.130  19.972   2.426 -0.0721 -0.0235  0.3565
    1W        W49406  19.430  27.333   8.365  0.4905  0.1369  0.0949
    1W        W49407   2.700   0.956   2.636  0.1491 -0.0090 -0.0662
    1W        W49408  21.035  15.813   1.356  0.0111 -0.1714  0.2408
    1W        W49409  24.305  15.363   7.627 -0.0037  0.2412  0.0344
    1W        W49410  20.817  17.923   8.838 -0.0959  0.5122  0.1618
    1W        W49411   7.451  28.060   9.100  0.0738  0.0844  0.0013
    1W        W49412   8.337   9.334   1.383 -0.0164 -0.1151 -0.0014
    1W        W49413  20.125  13.209   0.375 -0.1914 -0.0202  0.1629
    1W        W49414  29.347  12.509   7.447 -0.1631  0.1294  0.1208
    1W        W49415   1.755   3.897   2.414 -0.3640  0.0133 -0.0025
    1W        W49416   4.751  24.079   8.306  0.0183  0.0809 -0.2314
    1W        W49417  10.563  27.630   5.817 -0.2424  0.0420 -0.0999
    1W        W49418  26.689   6.032   0.155 -0.0009 -0.0978 -0.0169
    1W        W49419  28.326  15.615   9.406  0.0035  0.0615 -0.3099
    1W        W49420  17.296  11.585   7.263 -0.1640 -0.2983 -0.2316
    1W        W49421   9.532  11.685   6.057 -0.0107 -0.1715 -0.2069
    1W        W49422  14.068  13.617   9.431 -0.1467  0.2716  0.2108
    1W        W49423  28.143  18.362   0.512  0.0587 -0.0060  0.0555
    1W        W49424   7.564   0.810   6.845  0.3735 -0.0976 -0.1079
    1W        W49425  26.751  24.009   3.083  0.1903  0.2251  0.0074
    1W        W49426  21.980   9.242   8.222 -0.0961  0.0604  0.2733
    1W        W49427   5.073  23.333   2.555  0.2255 -0.0189 -0.1908
    1W        W49428   2.166  10.457   7.558 -0.0384 -0.2547 -0.0728
    1W        W49429  20.094   7.185   9.532  0.0788 -0.1508  0.1112
    1W        W49430  23.520  28.564   8.228  0.1617  0.0702 -0.0464
    1W        W49431  19.531   9.411   7.993 -0.2381 -0.1665  0.3535
    1W        W49432  21.422  19.931   0.185  0.1532 -0.0271  0.3068
    1W        W49433   1.904   2.740   1.728  0.1487  0.0445 -0.0950
    1W        W49434  22.969   2.437   0.790  0.1153 -0.0593 -0.0375
    1W        W49435  13.508  14.895   1.210  0.1590 -0.2406 -0.0283
    1W        W49436   9.129   5.265   1.067  0.0016  0.1789  0.1745
    1W        W49437  13.488  15.012   7.813  0.0021 -0.0438 -0.1100
    1W        W49438  25.374   7.601   7.692  0.1368  0.2702  0.2604
    1W        W49439   7.795  25.269   8.107 -0.0933  0.2630 -0.1877
    1W        W49440   5.973   7.713   9.479  0.0561  0.1414  0.3680
    1W        W49441   1.174   8.301   8.775 -0.0732  0.2619 -0.0704
    1W        W49442  12.966  24.508   1.818  0.0217  0.1814  0.1051
    1W        W49443   5.068   1.136   9.521  0.0257 -0.0671  0.1273
    1W        W49444  22.413  10.100   2.535 -0.1421 -0.0300 -0.1252
    1W        W49445  23.531   2.477   0.489 -0.1435 -0.2865 -0.1772
    1W        W49446  21.549  12.182   2.476 -0.3265  0.0755 -0.0432
    1W        W49447   2.998  20.807   8.924 -0.4412 -0.0567  0.1494
    1W        W49448  26.002  22.171   7.692  0.0241  0.1751 -0.1261
    1W        W49449  10.797  24.627   0.942  0.0842  0.1714  0.0897
    1W        W49450   9.135   3.403   9.637 -0.1178 -0.3027  0.1490
    1W        W49451  25.655  29.087   0.413 -0.1577  0.3051  0.3185
    1W        W49452  20.199  20.848   8.507  0.1993  0.1908 -0.3376
    1W        W49453  28.777  25.405   7.913  0.1535 -0.1736  0.1516
    1W        W49454  24.844  21.040   7.593  0.1453 -0.2867 -0.1204
    1W        W49455   5.579  23.053   3.267 -0.1168  0.0734 -0.0284
    1W        W49456   7.969  15.864   8.335 -0.1829  0.0148 -0.2037
    1W        W49457  22.120   5.547   1.029 -0.0169 -0.0015 -0.2720
    1W        W49458  23.805   9.158   1.426  0.0817 -0.2305 -0.0698
    1W        W49459  24.537   1.794   2.356  0.0928  0.1245  0.0008
    1W        W49460  22.130   1.854   8.542 -0.0472 -0.3100  0.1042
    1W        W49461  11.723  14.205   7.806 -0.0814  0.2208  0.2549
    1W        W49462  17.572  11.190   1.319  0.0644 -0.3477 -0.0381
    1W        W49463  21.204  29.334   2.544  0.0144  0.2100 -0.3270
    1W        W49464  12.266  21.708   1.150  0.2105 -0.0135 -0.3088
    1W        W49465   3.105  11.266   8.272 -0.1562  0.1079  0.0506
    1W        W49466  28.746  26.394   7.664  0.0565 -0.1262 -0.1936
    1W        W49467   8.423  25.160   2.117 -0.1485  0.0040  0.0373
    1W        W49468  21.222   4.128   0.400 -0.1179  0.2467  0.1710
    1W        W49469  22.112   6.628   2.452 -0.2042  0.3114  0.1917
    1W        W49470  14.134  28.007   9.168  0.0429 -0.0567  0.1244
    1W        W49471  29.575  12.585   0.463  0.0670 -0.2380 -0.1366
    1W        W49472   1.672   0.596   6.619 -0.3226  0.1077 -0.0654
    1W        W49473  10.453   3.360   8.565 -0.1589  0.0625 -0.5324
    1W        W49474   2.191  22.488   2.830 -0.2804  0.2848  0.2778
    1W        W49475  13.330  14.906   2.495  0.1972 -0.0969 -0.1693
    1W        W49476   7.667   4.750   0.455 -0.0398 -0.0412  0.2114
    1W        W49477   3.145  18.383   7.337  0.0813  0.0518 -0.1350
    1W        W49478   7.372  14.544   0.023  0.1872  0.2859  0.2415
    1W        W49479   1.467   2.385   0.697  0.1140  0.0061 -0.0366
    1W        W49480  23.811  18.818   9.632  0.0742 -0.0181  0.3269
    1W        W49481   7.122   0.012   6.467  0.2709  0.0156  0.1182
    1W        W49482  24.667   7.317   6.919  0.1147 -0.1277  0.1605
    1W        W49483   8.895   6.882   2.594 -0.0224  0.2685 -0.0347
    1W        W49484   2.276  27.500   1.813  0.1055  0.0426  0.3460
    1W        W49485  26.269  11.434   1.596  0.1642  0.1334  0.1787
    1W        W49486  11.611  15.638   9.374 -0.0056 -0.1744 -0.3264
    1W        W49487   6.365   3.938   5.864  0.3558  0.0802 -0.1532
    1W        W49488  21.705   0.416   8.020  0.2822 -0.1539 -0.1018
    1W        W49489  22.422  29.445   1.738 -0.1526 -0.2567  0.0834
    1W        W49490   6.862   6.799   1.511  0.0949  0.0115 -0.0551
    1W        W49491  27.041  17.482   9.281  0.1269  0.1245  0.3425
    1W        W49492   4.997   0.765   2.774  0.0391  0.0181  0.1442
    1W        W49493  28.948  23.329   7.380 -0.1727 -0.0525 -0.3849
    1W        W49494   7.655   3.435   7.649 -0.1847  0.1575 -0.0338
    1W        W49495  21.768   7.027   0.442 -0.0341 -0.1505 -0.1163
    1W        W49496  14.619   6.440   2.520 -0.1230 -0.0678  0.0795
    1W        W49497   4.438   1.935   1.355 -0.4964  0.0848 -0.0349
    1W        W49498  13.927   7.947   1.226 -0.1354 -0.2809  0.3683
    1W        W49499  15.216  13.912   0.036  0.0849 -0.2965  0.0465
    1W        W49500  19.072  12.115   6.724  0.3023 -0.1099  0.2579
    1W        W49501  23.345  14.754   0.806  0.3940 -0.0407 -0.0965
    1W        W49502  20.863  15.890   0.024  0.0801 -0.1904  0.0578
    1W        W49503   2.081   7.936   6.748 -0.0542 -0.4199 -0.2131
    1W        W49504  12.938   5.271   7.994  0.1615 -0.0818  0.1079
    1W        W49505   4.374  23.810   8.581  0.1349  0.1430 -0.0852
    1W        W49506  26.295  11.957   0.119  0.1213  0.1032 -0.2774
    1W        W49507  25.184  14.869   8.949 -0.0808  0.2194 -0.4280
    1W        W49508   0.175  10.391   6.828 -0.0194  0.4163 -0.1968
    1W        W49509   0.061   9.939   0.788  0.0652  0.1905  0.1676
    1W        W49510   4.724   4.185   0.916 -0.3679  0.0207  0.0236
    1W        W49511  24.555   8.875   0.769  0.2727  0.0747 -0.1947
    1W        W49512  28.779   4.940   1.806  0.1213 -0.1824 -0.3997
    1W        W49513   3.866  19.996   2.130  0.0670 -0.1530 -0.0101
    1W        W49514  25.350  27.727   8.222 -0.0102 -0.0014 -0.2311
    1W        W49515  23.668  22.575   2.243 -0.0821  0.1578  0.2872
    1W        W49516  12.140  16.549   9.309 -0.2999  0.0039 -0.4234
    1W        W49517   8.869  28.735   9.205  0.0221 -0.0450  0.5324
    1W        W49518  27.598   3.725   0.782  0.0668  0.1548 -0.1202
    1W        W49519  14.009  28.355   8.236  0.2203 -0.1438 -0.1000
    1W        W49520   4.322   2.031   0.672 -0.2585 -0.0495  0.0857
    1W        W49521  10.792  26.720   2.017  0.1002  0.3708  0.0479
    1W        W49522  12.153  16.605   6.939 -0.0557 -0.0503  0.3132
    1W        W49523  10.423  23.504   2.077  0.0145 -0.3118  0.3541
    1W        W49524  29.144   3.089   7.253 -0.0948  0.1193  0.0298
    1W        W49525   3.098   3.308   0.160  0.1882 -0.0493  0.1506
    1W        W49526  24.932  11.780   1.485  0.1719  0.0424  0.0315
    1W        W49527  13.298   4.671   1.270  0.1385  0.1869 -0.1429
    1W        W49528  12.214  11.753   9.385 -0.1955  0.4349  0.2406
    1W        W49529  28.237  20.684   2.204  0.0386  0.2373  0.3291
    1W        W49530  24.946   5.183   1.834  0.0292  0.2243 -0.0793
    1W        W49531  13.997   9.448   7.255 -0.0557 -0.2346  0.1604
    1W        W49532  17.946  26.632   1.553  0.2266  0.1506 -0.0836
    1W        W49533  16.441   4.569   8.945  0.0162  0.1648  0.1257
    1W        W49534   2.562  17.561   8.781 -0.0272 -0.4564 -0.1979
    1W        W49535  10.971  21.761   1.480  0.2785  0.0522 -0.1944
    1W        W49536  24.243  19.146   2.521 -0.1840  0.0945 -0.1418
    1W        W49537   1.779   1.821   0.213  0.2929 -0.1412 -0.2582
    1W        W49538  27.706  16.897   1.868  0.1647 -0.3285 -0.2964
    1W        W49539  16.156   3.997   6.444 -0.0092 -0.0975 -0.4066
    1W        W49540   1.292  13.265   1.043 -0.1722  0.1377 -0.1222
    1W        W49541   6.437   8.855   8.724 -0.2009  0.2568  0.2114
    1W        W49542  18.140  28.305   2.134 -0.0221 -0.0376 -0.1535
    1W        W49543  20.223  11.406   9.284  0.2995  0.1197 -0.0116
    1W        W49544  10.656  24.321   0.498  0.1582 -0.1453  0.3147
    1W        W49545   5.467  23.655   2.404  0.0703 -0.0111 -0.2424
    1W        W49546  10.596  10.525   1.839 -0.0031 -0.2274  0.1130
    1W        W49547   9.624  29.173   2.325  0.1573  0.1674 -0.0239
    1W        W49548   6.671   2.397   2.994 -0.1088  0.1496 -0.2658
    1W        W49549   9.916  22.638   8.328  0.1317  0.1663  0.1268
    1W        W49550  19.070   3.941   8.633  0.1146  0.1409 -0.1792
    1W        W49551  21.900  18.222   8.113  0.3274 -0.1387 -0.2469
    1W        W49552  13.324  26.304   8.444  0.0576 -0.1108  0.1643
    1W        W49553  19.835  23.815   3.549  0.2215 -0.0017 -0.1831
    1W        W49554   0.699  17.744   2.196 -0.1660 -0.3128  0.2879
    1W        W49555  29.466  17.709   8.731  0.0233  0.1856  0.0453
    1W        W49556  23.021  18.729   7.106 -0.0046  0.1457 -0.0811
    1W        W49557   5.555   2.750   7.158 -0.0373 -0.1238 -0.0467
    1W        W49558   5.379  14.323   6.357  0.1081 -0.0758  0.0022
    1W        W49559   0.414  26.613   1.978 -0.0620  0.1732  0.1071
    1W        W49560   5.905  22.784   8.603  0.0669 -0.1817 -0.1426
    1W        W49561  24.577  23.969   3.925  0.1225 -0.3291  0.3221
    1W        W49562   2.226   5.609   2.044 -0.0487 -0.2155  0.0745
    1W        W49563   6.744  11.344   8.893  0.1398 -0.1453 -0.1376
    1W        W49564  21.123   7.196   1.643 -0.3402 -0.2851 -0.1661
    1W        W49565  18.628  17.979   9.370 -0.2034  0.0092  0.1658
    1W        W49566  15.041  17.775   0.687 -0.2482  0.2325  0.0111
    1W        W49567   3.055  19.856   7.733  0.0495 -0.0520  0.1387
    1W        W49568  13.625   0.462   8.510 -0.4442 -0.0587  0.0367
    1W        W49569  15.523  12.851   1.871  0.1023  0.1302 -0.2028
    1W        W49570  21.084   8.693   8.552 -0.1416  0.1964 -0.1651
    1W        W49571  25.294   7.280   2.395  0.0896  0.1598  0.2333
    1W        W49572  15.051   9.875   8.065 -0.0712  0.2223  0.1220
    1W        W49573   8.409   8.582   8.449 -0.1421 -0.1714  0.0570
    1W        W49574  26.733  11.262   8.532  0.1038 -0.0000  0.1009
    1W        W49575   8.492  12.183   1.669  0.1503 -0.1992  0.0235
    1W        W49576  15.916   2.905   6.683 -0.1430 -0.3329 -0.0172
    1W        W49577  21.903  19.167   0.700 -0.0927  0.0513  0.3147
    1W        W49578  10.539  10.522   7.177 -0.3494  0.0966  0.0777
    1W        W49579  15.489  20.995   8.875 -0.0014 -0.0771  0.0410
    1W        W49580   4.239  20.145   2.985 -0.0680  0.2469 -0.1888
    1W        W49581   1.371  23.184   1.700  0.3671 -0.1244  0.0259
    1W        W49582  21.387   3.259   3.341 -0.1002  0.1122 -0.1059
    1W        W49583   4.406  25.000   1.319  0.1455  0.2619 -0.1295
    1W        W49584  10.927  17.096   0.038 -0.2836 -0.1707 -0.0323
    1W        W49585  20.453   4.532   9.547  0.2225  0.2237  0.1897
    1W        W49586   9.115   8.234   0.198  0.0956  0.4086  0.0428
    1W        W49587  17.734  28.096   3.101 -0.0972 -0.2355 -0.1783
    1W        W49588   4.224  24.274   0.888  0.0701 -0.2559 -0.0800
    1W        W49589   9.860  26.669   1.612 -0.2199 -0.3046  0.4818
    1W        W49590   5.699  21.675   1.110 -0.0132  0.2944  0.0227
    1W        W49591  20.571  17.498   2.237 -0.1417 -0.1102 -0.0231
    1W        W49592  22.500  23.373   8.202 -0.1277 -0.0305 -0.1694
    1W        W49593   8.734  23.904   9.567  0.4580  0.3935 -0.2181
    1W        W49594   0.658  19.858   9.544  0.2093 -0.0107  0.0125
    1W        W49595  24.415  24.550   7.575 -0.4046  0.2537  0.0146
    1W        W49596   2.110  17.765   7.000  0.0283  0.0481 -0.0666
    1W        W49597  29.443   4.253   6.519  0.2409 -0.0158  0.1395
    1W        W49598  21.271  26.470   3.391  0.2602  0.0632  0.1436
    1W        W49599  15.794   9.121   8.060  0.1194 -0.3694  0.2265
    1W        W49600  28.247   5.647   8.908 -0.0656  0.0738 -0.0218
    1W        W49601  11.480  19.577   6.459  0.2076  0.0812 -0.2516
    1W        W49602  13.177  28.960   8.370 -0.0452 -0.0959 -0.3803
    1W        W49603  24.959   2.067   2.506  0.0696  0.2824  0.3407
    1W        W49604  11.063  17.749   8.695  0.1286 -0.0122  0.2283
    1W        W49605   9.140  15.151   6.399 -0.1246  0.1963 -0.0389
    1W        W49606  15.666  16.368   7.696  0.0619 -0.1847  0.0013
    1W        W49607  19.104  15.803   0.969  0.1372 -0.0088  0.0086
    1W        W49608  13.397  13.257   1.443  0.0440  0.3113  0.2575
    1W        W49609  22.255  28.877   9.540  0.0022 -0.0401  0.0519
    1W        W49610   4.771   4.306   9.596 -0.1876 -0.1929  0.1066
    1W        W49611  28.478   6.158   1.405 -0.1183 -0.0807  0.1392
    1W        W49612  24.283  26.560   2.630 -0.1249 -0.0797 -0.2563
    1W        W49613   1.935  12.065   0.297  0.0882  0.3177  0.2589
    1W        W49614  14.244  21.162   9.007 -0.0632  0.5332 -0.1322
    1W        W49615   5.651  17.164   0.337  0.0384 -0.0695 -0.1630
    1W        W49616   9.058   9.934   6.952  0.1896 -0.0334 -0.0633
    1W        W49617   9.444   8.585   9.004 -0.0979  0.0065 -0.1656
    1W        W49618  11.556  15.458   8.291  0.2026  0.2610  0.0735
    1W        W49619   0.006   7.674   1.142  0.0669 -0.0491 -0.3984
    1W        W49620   3.910  12.151   7.130  0.5535  0.0459  0.0201
    1W        W49621  11.127   3.409   0.675  0.3683 -0.1195  0.2369
    1W        W49622  29.562   3.807   7.915  0.2302  0.1755  0.0077
    1W        W49623   7.460  15.427   9.516  0.1754  0.1449 -0.0958
    1W        W49624   8.855   8.888   2.453 -0.1046  0.2876 -0.0732
    1W        W49625  15.950  19.388   0.928  0.0251 -0.0627  0.1884
    1W        W49626  17.929   0.145   6.674  0.0353 -0.1877 -0.1944
    1W        W49627  20.505  19.002   8.861  0.1336 -0.2514  0.0145
    1W        W49628  23.712   5.857   0.469 -0.0129 -0.0705  0.1056
    1W        W49629  16.080  18.153   9.167 -0.0399  0.0948 -0.1908
    1W        W49630  19.207  12.547   7.299 -0.0701  0.0682  0.0518
    1W        W49631   9.260   2.457   8.103 -0.1768  0.0298  0.1616
    1W        W49632  11.411  12.197   0.480 -0.0104 -0.0451  0.0888
    1W        W49633   6.608  22.649   3.013  0.1372 -0.3736 -0.2086
    1W        W49634  27.246   4.344   1.521 -0.1263 -0.0040  0.0473
    1W        W49635  16.895   1.599   8.017  0.1166  0.4205  0.0029
    1W        W49636   8.806  11.331   0.395 -0.1727  0.2797  0.0516
    1W        W49637  16.191   2.541   6.529  0.1284  0.5562 -0.1208
    1W        W49638   7.760   5.364   6.767 -0.0866  0.0856 -0.1004
    1W        W49639  22.270  15.632   7.232 -0.0061  0.1548 -0.0747
    1W        W49640  25.768   1.351   7.479 -0.2463  0.1337  0.1631
    1W        W49641  29.418  20.248   7.449 -0.2556 -0.1645  0.0024
    1W        W49642  24.479  11.086   0.180  0.0052 -0.0910 -0.2659
    1W        W49643  11.489  21.841   8.531  0.2118 -0.0267 -0.0103
    1W        W49644  21.174  14.903   9.298 -0.3127 -0.1243 -0.0602
    1W        W49645   0.906  23.956   7.410 -0.2495  0.0221 -0.1275
    1W        W49646   0.229   6.994   7.658  0.2216  0.0550 -0.0111
    1W        W49647  24.232  13.697   7.617 -0.2422  0.2161 -0.3366
    1W        W49648  13.503   8.363   7.986  0.2066  0.0307  0.0257
    1W        W49649   2.441   9.097   0.231  0.2674 -0.0069  0.0309
    1W        W49650  25.459   6.037   8.422  0.1342 -0.1305  0.1061
    1W        W49651  18.863  16.997   1.638 -0.0351  0.0177  0.0699
    1W        W49652  29.100  26.425   2.439 -0.0497 -0.0287 -0.1014
    1W        W49653   3.294  25.143   2.818 -0.1488  0.1731 -0.1625
    1W        W49654  27.974   4.182   8.925  0.1810  0.1180  0.0164
    1W        W49655   0.229  25.207   2.219 -0.5058  0.0520  0.0010
    1W        W49656  10.854  11.682   6.312  0.4012 -0.1050  0.3388
    1W        W49657   9.238  21.610   0.583 -0.0186 -0.0594 -0.0132
    1W        W49658  24.704  22.090   3.129 -0.3340  0.2730 -0.0044
    1W        W49659  20.254   5.941   7.809 -0.0060  0.0265 -0.1519
    1W        W49660  24.941  20.488   2.207 -0.1018  0.3729  0.0140
    1W        W49661  16.198   0.436   1.862  0.2061 -0.3234  0.0140
    1W        W49662  28.806  21.237   9.534 -0.0894 -0.0122  0.0966
    1W        W49663   2.270  19.783   3.659 -0.1886 -0.2085  0.4491
    1W        W49664  21.593  16.191   7.895 -0.2991 -0.2371  0.1896
    1W        W49665   5.977  11.009   0.350  0.0364 -0.3179  0.0451
    1W        W49666  29.322  18.673   7.992  0.0988  0.0220  0.1999
    1W        W49667   2.305  23.953   1.170 -0.1601 -0.2329 -0.2186
    1W        W49668  24.771  21.924   2.008  0.1709 -0.0721 -0.0055
    1W        W49669  21.069   3.720   9.623  0.0916 -0.2168 -0.0340
    1W        W49670  10.429  18.545   6.949  0.1986 -0.2729 -0.0814
    1W        W49671  11.984  28.256   7.479  0.0938  0.0369  0.1069
    1W        W49672  27.344  29.464   0.938 -0.2068  0.1723 -0.0026
    1W        W49673   3.553  17.977   2.149 -0.1564  0.0650  0.2019
    1W        W49674  12.573   9.870   8.531  0.2329 -0.5053 -0.0222
    1W        W49675  23.439  28.474   1.223 -0.0833  0.1221  0.2709
    1W        W49676  11.169  19.697   1.123 -0.0840 -0.1829 -0.0851
    1W        W49677   9.756  20.856   2.104  0.0784  0.3545  0.4139
    1W        W49678   5.327   5.864   0.933 -0.1445 -0.0930  0.2487
    1W        W49679   8.033   0.939   6.959  0.2837  0.0503  0.1420
    1W        W49680  25.458   4.244   9.268  0.0947 -0.0895 -0.2699
    1W        W49681  16.161  22.869   7.987 -0.3876 -0.0160 -0.0333
    1W        W49682   4.139  10.798   1.163  0.0939  0.1391 -0.0730
    1W        W49683  10.272   2.672   1.546  0.0386  0.2098  0.2728
    1W        W49684   3.422  11.525   1.723  0.0416  0.1086  0.0298
    1W        W49685   1.045  29.416   1.399 -0.1644 -0.2154 -0.0242
    1W        W49686  15.388   9.027   7.082 -0.0996 -0.0325 -0.0411
    1W        W49687   6.594   3.580   1.987 -0.2767 -0.1743 -0.0548
    1W        W49688  28.461  19.895   7.731  0.0878  0.3319  0.1397
    1W        W49689  22.697  16.322   2.423 -0.0135  0.2287  0.0407
    1W        W49690  27.936   8.106   1.390 -0.2873  0.3107  0.0282
    1W        W49691  29.408   7.943   7.143 -0.0243  0.2228  0.1034
    1W        W49692   6.512  23.170   7.289  0.1822 -0.2934  0.2243
    1W        W49693  10.715   6.063   6.670  0.3519 -0.3116  0.1205
    1W        W49694  25.287  18.469   7.380 -0.3902  0.2267 -0.0051
    1W        W49695  17.731   7.886   8.234  0.0650  0.1222 -0.2769
    1W        W49696  27.646  24.413   6.483  0.0711  0.1648 -0.0435
    1W        W49697  29.188   0.878   1.577 -0.1046  0.0759  0.4301
    1W        W49698  19.374  15.037   9.213  0.1864 -0.1215 -0.0206
    1W        W49699  23.118  19.222   2.707  0.0660 -0.2326  0.0107
    1W        W49700  17.903  23.247   7.358 -0.0899  0.1379 -0.0392
    1W        W49701  18.547  18.871   7.718 -0.3041  0.2678 -0.0175
    1W        W49702   1.185  10.311   7.119 -0.3373  0.1665 -0.0665
    1W        W49703   8.122  22.936   8.931  0.0771 -0.0350  0.2265
    1W        W49704  25.777  10.586   2.770  0.1942  0.0353 -0.0066
    1W        W49705   7.357  17.674   9.248  0.0096  0.2039  0.0407
    1W        W49706   7.327  15.655   0.379 -0.4557 -0.0050 -0.2011
    1W        W49707   5.386  17.349   7.197 -0.0107 -0.0410  0.0660
    1W        W49708   3.776  13.857   6.009  0.1128  0.1593 -0.1293
    1W        W49709   8.666   5.170   8.177 -0.1585 -0.3748  0.2183
    1W        W49710  20.806  19.296   3.867  0.1728 -0.5214  0.1020
    1W        W49711  21.117   3.546   7.914 -0.0092  0.0966 -0.1013
    1W        W49712  23.401  23.625   8.660  0.0413 -0.0320  0.2993
    1W        W49713  20.626  29.262   7.126 -0.0034  0.2643  0.2167
    1W        W49714  12.257  13.237   1.266  0.3163  0.3621  0.0996
    1W        W49715   2.612  26.794   1.379 -0.4200  0.0679  0.1920
    1W        W49716   6.126  14.743   6.964  0.1339  0.3464 -0.0415
    1W        W49717  19.225  15.340   8.809 -0.1916  0.2336 -0.0441
    1W        W49718  29.409   0.595   1.139 -0.2897  0.0930  0.1718
    1W        W49719   8.255  10.687   7.456  0.1645 -0.2371  0.4390
    1W        W49720  18.899  25.566   3.128  0.2332 -0.2335 -0.1555
    1W        W49721   2.933   8.067   8.429  0.4098  0.1088 -0.2797
    1W        W49722  15.843  14.234   1.246  0.1469  0.0512  0.5194
    1W        W49723  29.308   7.810   6.560  0.0292  0.2498  0.3772
    1W        W49724  20.070  27.459   0.841  0.1639 -0.0142  0.1027
    1W        W49725   4.185  14.783   8.945  0.1158  0.1647 -0.1799
    1W        W49726  25.396  27.139   0.183 -0.0600 -0.0693 -0.1048
    1W        W49727   2.867  26.297   9.506  0.0019  0.0422 -0.0418
    1W        W49728   9.846   5.666   1.872 -0.0174 -0.1021 -0.0805
    1W        W49729  26.831  20.193   2.288  0.3939  0.1128 -0.1025
    1W        W49730  12.720   8.402   9.601  0.0716 -0.2219 -0.1664
    1W        W49731  10.426  23.092   8.602 -0.2384  0.1227 -0.4234
    1W        W49732   2.296  26.572   3.243 -0.2554  0.1394 -0.3872
    1W        W49733  19.900  21.335   8.546  0.0527  0.1429 -0.1002
    1W        W49734  19.318  14.929   0.590 -0.0100  0.0714 -0.0677
    1W        W49735   9.999   1.657   6.525 -0.1980  0.1225 -0.1776
    1W        W49736  18.968  25.199   1.753 -0.1652  0.1771  0.0725
    1W        W49737  28.701  26.728   2.459  0.0899 -0.1060  0.2544
    1W        W49738   4.379  24.944   7.739 -0.1011 -0.1233 -0.0456
    1W        W49739   0.147   1.357   8.548 -0.4685 -0.0411 -0.0107
    1W        W49740   2.394  29.507   7.178 -0.0651 -0.2760 -0.1037
    1W        W49741  18.795  19.394   8.267 -0.0852 -0.4907 -0.0270
    1W        W49742   1.325   0.281   3.190 -0.1289  0.2270 -0.0883
    1W        W49743   3.294  28.540   8.892 -0.0748 -0.1968  0.2773
    1W        W49744  16.473   5.744   6.969  0.1659 -0.0176  0.1618
    1W        W49745   2.249  28.777   8.339  0.1537  0.0249 -0.0939
    1W        W49746  20.168   3.559   8.865  0.0726  0.0496 -0.0793
    1W        W49747   9.156  15.970   6.202  0.2212  0.1450  0.0358
    1W        W49748  17.836   5.053   0.371  0.1466 -0.1725 -0.1889
    1W        W49749  11.384  25.447   1.355 -0.0062  0.1045 -0.2218
    1W        W49750  14.716  16.567   6.871  0.3660 -0.1616 -0.0482
    1W        W49751  12.210  13.178   7.075 -0.3591  0.1055 -0.0391
    1W        W49752  27.815  14.422   0.681  0.2183 -0.1696 -0.0085
    1W        W49753  22.476  15.238   8.300  0.0404  0.0085 -0.0932
    1W        W49754  13.680  29.575   0.304 -0.0960  0.2546  0.1772
    1W        W49755  16.448  29.039   0.020  0.0735  0.1070 -0.3144
    1W        W49756   4.063   7.466   9.348  0.1901 -0.0147 -0.0324
    1W        W49757   5.144  26.903   1.842  0.5083  0.0539 -0.2206
    1W        W49758  25.351  27.714   8.734 -0.1394 -0.0602 -0.2232
    1W        W49759  28.294  25.271   8.176 -0.0938 -0.1433 -0.0576
    1W        W49760   0.843  21.009   8.839 -0.1238  0.0000  0.0234
    1W        W49761  21.733  29.620   8.669 -0.0706  0.2434 -0.1253
    1W        W49762   6.660  28.438   1.012 -0.0757  0.1189  0.1078
    1W        W49763  11.513  23.451   8.168 -0.1297 -0.0400 -0.0019
    1W        W49764  17.100  25.031   2.640 -0.3185  0.0703 -0.3905
    1W        W49765  14.204  20.059   8.082 -0.3162 -0.1001  0.2043
    1W        W49766  26.524   3.172   1.561  0.0818 -0.0772  0.0266
    1W        W49767  28.612  19.892   1.366  0.1033  0.1416 -0.0891
    1W        W49768  20.275  10.422   6.834  0.2469  0.1483  0.1849
    1W        W49769  13.163  11.659   7.317  0.0216  0.2534 -0.0003
    1W        W49770   4.518  23.987   7.512 -0.1242  0.2836  0.0526
    1W        W49771  16.611   2.171   1.483  0.1974  0.0053 -0.0408
    1W        W49772  21.524  25.056   0.951 -0.3582  0.2497  0.0454
    1W        W49773   1.701  26.471   9.129  0.0509 -0.1355 -0.4013
    1W        W49774   8.774   2.329   7.675 -0.2240 -0.0086 -0.3194
    1W        W49775  20.180  16.336   2.770  0.0949  0.0162 -0.2029
    1W        W49776   8.843  26.494   8.988 -0.0881  0.3429  0.2023
    1W        W49777   1.285  22.877   7.829 -0.1624  0.1080 -0.2863
    1W        W49778  24.350  28.497   8.170  0.1241 -0.0297  0.0742
    1W        W49779  22.788  26.402   2.919 -0.0816 -0.0837  0.0721
    1W        W49780  29.349  18.668   7.419  0.2350  0.0313 -0.0730
    1W        W49781  22.597  26.012   1.881  0.1356 -0.0731  0.3426
    1W        W49782  15.183  16.664   7.721 -0.0617  0.0666  0.1087
    1W        W49783  12.235  28.882   1.742 -0.2889 -0.0088 -0.3115
    1W        W49784   5.823  25.940   7.804  0.1164 -0.1694  0.1216
    1W        W49785  28.002  19.993   8.027  0.1081 -0.0355 -0.4317
    1W        W49786  18.624   5.822   2.344 -0.4039  0.1714  0.0379
    1W        W49787  23.481   3.536   7.032 -0.0389  0.1852 -0.0548
    1W        W49788  21.495   4.271   9.089 -0.0064  0.0207  0.0319
    1W        W49789   9.208  14.774   2.162  0.2011 -0.0495  0.0082
    1W        W49790  19.525   4.612   8.588  0.2133 -0.0495  0.0267
    1W        W49791   1.868  14.149   0.221 -0.0829  0.2750 -0.3664
    1W        W49792   6.210  12.519   1.491  0.1565 -0.1553  0.0193
    1W        W49793   7.774   3.068   2.427  0.1706 -0.2532 -0.1060
    1W        W49794  27.534  12.579   1.068 -0.1260  0.0841  0.0632
    1W        W49795   8.107  26.348   2.917 -0.0183  0.3253 -0.0761
    1W        W49796   8.666   8.085   2.525 -0.1468  0.0233 -0.1274
    1W        W49797  16.353   0.193   9.016 -0.1134  0.1436 -0.1640
    1W        W49798   6.561   0.979   2.747 -0.0748 -0.0211  0.0940
    1W        W49799  14.067  18.170   2.829 -0.2775 -0.1783 -0.0712
    1W        W49800  13.149  19.663   7.270  0.1216 -0.1404  0.0193
    1W        W49801  28.555  29.581   2.083 -0.0934 -0.2576 -0.0606
    1W        W49802   4.687  18.879   8.813 -0.0745 -0.1692  0.1056
    1W        W49803  12.080  10.203   1.477  0.0714 -0.1834  0.2352
    1W        W49804   6.869  20.226   8.252  0.1300 -0.0761 -0.2138
    1W        W49805   3.262  25.250   7.385 -0.2367 -0.3319  0.1507
    1W        W49806   4.947   8.235   8.627 -0.0697 -0.2026  0.2444
    1W        W49807   5.973  21.202   6.400 -0.0615  0.0817  0.0241
    1W        W49808  19.349  20.221   9.262 -0.1289 -0.4085  0.2338
    1W        W49809  14.643  15.514   9.451 -0.0992  0.1018  0.1108
    1W        W49810  23.306  23.550   1.050 -0.0465  0.1890 -0.0469
    1W        W49811   0.080   6.503   7.819  0.1160 -0.1267 -0.1023
    1W        W49812  11.397  12.474   9.514  0.2739 -0.3386  0.3708
    1W        W49813  18.166  10.055   0.808  0.2901 -0.1720  0.1446
    1W        W49814  24.318  29.534   0.191 -0.2376  0.1455  0.0633
    1W        W49815  22.168  10.407   8.530  0.2114 -0.1365 -0.3863
    1W        W49816  26.377  27.118   3.300 -0.0657 -0.1685 -0.2003
    1W        W49817   1.243  29.293   8.749  0.1840 -0.0566 -0.1891
    1W        W49818  22.633  13.340   0.529 -0.2579  0.1035 -0.1030
    1W        W49819  27.763  20.385   2.406 -0.0065 -0.4637  0.2290
    1W        W49820   9.774  19.208   8.643 -0.0877  0.0346  0.1801
    1W        W49821   9.454  25.859   9.328  0.2694  0.2721  0.1656
    1W        W49822  23.587  21.799   9.081 -0.0661 -0.1070  0.0247
    1W        W49823   9.043  17.716   8.834  0.0723 -0.1184 -0.4122
    1W        W49824  18.873   5.471   0.401 -0.0621  0.0076  0.1024
    1W        W49825  24.090  16.695   9.094 -0.1105 -0.2978 -0.0234
    1W        W49826  29.401   9.214   8.481 -0.0853 -0.0341 -0.1548
    1W        W49827   7.616   8.368   0.157  0.0722 -0.1536  0.0856
    1W        W49828   9.538   6.534   6.528 -0.0618  0.0818 -0.0738
    1W        W49829  13.111  10.008   8.763 -0.0750  0.2473 -0.3697
    1W        W49830  28.592  10.353   1.048 -0.3295  0.2154 -0.4343
    1W        W49831  25.520   3.420   2.581  0.0639  0.2821 -0.1393
    1W        W49832  20.417  25.194   9.240 -0.1998  0.0171 -0.0009
    1W        W49833   6.893  20.020   0.111  0.0777  0.1469 -0.2336
    1W        W49834  14.470  24.452   8.267  0.3078 -0.0481 -0.5338
    1W        W49835   1.809  20.659   2.315  0.1540 -0.1533  0.2796
    1W        W49836   7.265  13.796   8.363 -0.2469 -0.1507  0.1424
    1W        W49837   8.991  23.915   8.245  0.2255  0.0331 -0.3614
    1W        W49838  17.806  17.073   8.034  0.2250 -0.0155  0.0891
    1W        W49839  16.433  11.691   8.255 -0.1995 -0.1037 -0.2141
    1W        W49840  19.875   2.285   0.995  0.0400 -0.1850 -0.2165
    1W        W49841  27.696   2.665   0.357  0.0915  0.0422  0.2657
    1W        W49842   5.090  24.460   1.782 -0.1305  0.0196  0.1434
    1W        W49843  14.243   2.411   1.607 -0.1242 -0.2317 -0.0247
    1W        W49844  26.321   4.938   1.259 -0.1588  0.1813  0.1574
    1W        W49845  27.878   2.484   9.522 -0.5152  0.0421  0.0211
    1W        W49846  18.611  21.485   7.557 -0.1207  0.2700  0.1006
    1W        W49847  16.742  25.793   9.050 -0.1414 -0.1505 -0.2371
    1W        W49848  11.747  13.599   0.630  0.0391 -0.1474 -0.1083
    1W        W49849   8.576  23.618   2.471 -0.1520 -0.0400  0.0217
    1W        W49850  23.766   6.755   1.798  0.0413  0.1303 -0.2232
    1W        W49851  18.913  22.165   0.599 -0.3819  0.2336  0.2557
    1W        W49852  29.490  17.282   1.302 -0.1766 -0.4581  0.0016
    1W        W49853  26.022   0.482   1.930  0.1655  0.0132 -0.1251
    1W        W49854  13.517   1.593   2.257  0.1758  0.0081  0.2380
    1W        W49855  14.614   6.411   9.401 -0.0035  0.3873  0.0304
    1W        W49856   1.714  20.627   8.699 -0.0868  0.3496  0.0559
    1W        W49857  23.893  28.998   7.323 -0.2062  0.0966 -0.1403
    1W        W49858   7.863   5.088   8.577 -0.1218 -0.2979  0.0434
    1W        W49859  10.901  25.634   1.270  0.0188 -0.0319 -0.1989
    1W        W49860   9.491  27.180   9.073  0.0773 -0.1848 -0.2915
    1W        W49861  13.393  23.868   2.984 -0.0074 -0.2805  0.0159
    1W        W49862  18.305  20.063   7.432  0.3236 -0.1688 -0.0649
    1W        W49863  24.557   5.716   1.415 -0.0352 -0.0324  0.0921
    1W        W49864   6.069  23.988   9.181 -0.2878 -0.2559 -0.2672
    1W        W49865  10.088  20.180   1.617 -0.0726  0.1225 -0.1445
    1W        W49866  11.735  12.453   2.638 -0.1962 -0.1616  0.0468
    1W        W49867   7.371  10.269   8.609  0.0531  0.2032 -0.2986
    1W        W49868  24.982  19.884   8.430 -0.0931  0.3316  0.0725
    1W        W49869  11.664  28.708   6.718  0.3268  0.0838 -0.0918
    1W        W49870  19.472  17.687   7.866  0.3092  0.0128  0.4320
    1W        W49871   1.174   9.291   8.650 -0.1012 -0.0727  0.2194
    1W        W49872  15.974   7.163   9.518 -0.0118 -0.1254 -0.0685
    1W        W49873   8.898   7.251   8.385 -0.3787 -0.0168 -0.3905
    1W        W49874  21.636  15.631   8.294 -0.2264  0.0950 -0.1830
    1W        W49875  22.039  21.707   2.023 -0.1446 -0.2453  0.1018
    1W        W49876  21.835  27.579   8.127 -0.0509  0.0664  0.2593
    1W        W49877   1.996  21.033   8.568  0.3548 -0.0234 -0.1075
    1W        W49878  17.601   8.537   7.576  0.0110 -0.0327 -0.0264
    1W        W49879  13.102  20.871   8.234  0.0157 -0.0096  0.0440
    1W        W49880  11.227  23.047   1.258 -0.0006 -0.1436  0.1499
    1W        W49881  21.284  10.642   8.208 -0.1096 -0.0267  0.3745
    1W        W49882  13.062  13.168   2.607  0.1769  0.1387  0.0189
    1W        W49883   4.872  19.713   6.430 -0.0442 -0.2524  0.0083
    1W        W49884  29.352  25.192   2.012 -0.1702 -0.0446 -0.0206
    1W        W49885  22.491  19.681   1.135  0.1300 -0.1102  0.0162
    1W        W49886  17.346  21.023   2.653  0.0978 -0.0914  0.2586
    1W        W49887  28.415  26.042   6.459 -0.2099  0.0223 -0.0227
    1W        W49888  25.933  16.454   2.902  0.0786 -0.0141  0.1523
    1W        W49889  21.795  15.715   8.784 -0.4194 -0.1431 -0.0148
    1W        W49890  27.881  29.171   9.325  0.1682 -0.2154 -0.0028
    1W        W49891  26.988  27.664   7.973 -0.4936 -0.1149  0.2576
    1W        W49892   1.779  27.087   3.167  0.2463  0.1242 -0.0497
    1W        W49893  25.119   1.780   8.004  0.2763  0.1939  0.2533
    1W        W49894  17.415  12.833   2.189 -0.2796 -0.1849 -0.1031
    1W        W49895  13.819  29.616   9.353 -0.0349  0.2289 -0.1362
    1W        W49896  16.299  10.867   1.785 -0.3626 -0.0589  0.0733
    1W        W49897  25.197   5.485   9.458  0.1935 -0.3338  0.1198
    1W        W49898  11.761  20.429   6.799 -0.1343 -0.2543  0.1377
    1W        W49899  19.862   4.134   7.568 -0.1239 -0.0151 -0.2489
    1W        W49900  13.657  18.352   2.008  0.3565  0.0221 -0.2643
    1W        W49901  17.308  29.613   7.339 -0.3702  0.1400  0.1663
    1W        W49902  11.707  28.308   2.321  0.2744  0.1060  0.1195
    1W        W49903   2.947  12.645   1.684  0.0557  0.1198 -0.2645
    1W        W49904  19.157  21.138   2.684 -0.1044  0.0463  0.1559
    1W        W49905  23.187  22.592   2.915 -0.1618  0.2345 -0.0403
    1W        W49906  18.068  26.422   9.504  0.2647 -0.2092  0.0498
    1W        W49907  28.683  13.499   2.571 -0.4275 -0.4335 -0.0226
    1W        W49908  13.597   5.453   7.968  0.2291 -0.0697  0.0661
    1W        W49909   3.432  29.455   7.405 -0.0814  0.1368 -0.0999
    1W        W49910   1.026  29.047   0.334 -0.1435  0.0042  0.0352
    1W        W49911  27.472  26.334   3.474 -0.0236  0.2728 -0.0726
    1W        W49912   9.506   9.632   9.301 -0.1260 -0.0927 -0.1578
    1W        W49913   8.206  15.592   2.377  0.3507 -0.0243 -0.0476
    1W        W49914   7.654   3.993   7.276 -0.1043  0.0957 -0.0027
    1W        W49915  16.688  11.609   0.127  0.2993  0.0171  0.2963
    1W        W49916   4.002  18.587   7.434 -0.1105  0.1766 -0.1358
    1W        W49917  19.690   6.102   8.621 -0.0328 -0.0276  0.2138
    1W        W49918  21.986  10.365   1.642 -0.0699  0.4183  0.0793
    1W        W49919  28.588  29.148   7.813 -0.0953  0.0767  0.0078
    1W        W49920  10.670   3.432   1.881 -0.1796 -0.3960  0.1291
    1W        W49921  20.014  22.533   1.261 -0.0479 -0.1384 -0.0145
    1W        W49922  22.492   2.511   1.012 -0.0086 -0.1773  0.2229
    1W        W49923  15.966  11.855   7.568  0.0563  0.0556  0.4627
    1W        W49924  12.037   0.095   7.947  0.1569 -0.0867  0.3901
    1W        W49925  18.754   5.985   9.238  0.3031 -0.1053  0.1709
    1W        W49926  18.999  27.744   8.611 -0.0333 -0.0334  0.0220
    1W        W49927  13.522  19.271   8.294 -0.1378 -0.2510  0.1432
    1W        W49928  20.571   9.511   6.941  0.0800 -0.2257  0.2414
    1W        W49929   3.518  18.447   0.092  0.0552 -0.4438 -0.2622
    1W        W49930   5.435  18.188   7.029  0.0253  0.0686 -0.0340
    1W        W49931  10.030  12.053   0.371  0.0137 -0.1451 -0.1483
    1W        W49932  12.473   6.048   6.412 -0.1789  0.1038  0.3586
    1W        W49933  27.669   5.456   0.223 -0.2586 -0.2165  0.0961
    1W        W49934  13.095   9.430   7.364  0.2577 -0.2434  0.2210
    1W        W49935   9.329  16.433   6.136 -0.0009  0.1194 -0.1884
    1W        W49936  15.442  22.146   1.875 -0.0179  0.0041  0.0605
    1W        W49937  21.510  17.892   2.240 -0.1667  0.1221 -0.1681
    1W        W49938  25.557   4.717   9.173 -0.1512 -0.0051  0.3385
    1W        W49939   7.490  28.716   1.316 -0.0752 -0.1600  0.1794
    1W        W49940  12.430  23.999   9.219 -0.1228 -0.3462  0.2527
    1W        W49941  20.530  27.646   1.081 -0.2853  0.1134  0.0617
    1W        W49942  17.584  17.513   1.054  0.1751 -0.3880  0.2284
    1W        W49943  11.068   7.732   0.437 -0.0360 -0.2935  0.1368
    1W        W49944  14.254  10.671   0.713  0.3803  0.1882 -0.2869
    1W        W49945   7.123  18.751   7.308 -0.1014  0.0751 -0.3474
    1W        W49946  20.033  23.666   2.867  0.3867 -0.0998 -0.1738
    1W        W49947   9.583  11.495   9.328  0.2244 -0.1801  0.0295
    1W        W49948  11.555   2.988   1.903  0.2920 -0.0642  0.0826
    1W        W49949  22.844  14.743   0.851  0.0826 -0.0027 -0.2849
    1W        W49950  22.625   4.613   2.036 -0.2934 -0.3757  0.3949
    1W        W49951  18.587  28.270   0.948  0.1925 -0.1692  0.0405
    1W        W49952  12.136  21.186   1.037 -0.1984 -0.1717  0.0618
    1W        W49953   9.174  17.608   9.580  0.2798  0.1609 -0.0101
    1W        W49954   2.859  11.904   9.272 -0.0702 -0.0472  0.0188
    1W        W49955  27.966   5.549   9.351  0.1462 -0.0587  0.0353
    1W        W49956   8.298  27.570   8.971 -0.1171  0.0234 -0.0785
    1W        W49957  12.837   4.847   2.222 -0.0205 -0.2131 -0.0294
    1W        W49958  24.129  14.666   8.911  0.4444 -0.0951  0.2042
    1W        W49959  12.613  27.692   0.825  0.1136  0.2674  0.0289
    1W        W49960   0.272  17.727   7.776 -0.2353 -0.2426  0.3781
    1W        W49961  27.301  26.267   9.404  0.1862  0.0125 -0.0540
    1W        W49962  23.234  25.059   7.362 -0.0628 -0.0325  0.1171
    1W        W49963  18.862  10.394   1.239  0.0518 -0.0977  0.0593
    1W        W49964   8.121  24.370   7.046  0.1215 -0.0990  0.1304
    1W        W49965   6.620  27.299   1.400 -0.1362 -0.3157  0.2940
    1W        W49966   8.446  12.377   9.617  0.0151  0.0919  0.1101
    1W        W49967   2.256   0.389   8.520  0.1632 -0.0640  0.0101
    1W        W49968   9.507   8.867   0.895 -0.1690 -0.0463 -0.2583
    1W        W49969   2.952   6.744   1.520  0.0899 -0.2685 -0.0905
    1W        W49970   3.266  27.200   7.725 -0.3346 -0.0793 -0.2581
    1W        W49971  24.172  22.987   0.814 -0.1109  0.0095 -0.0031
    1W        W49972  10.587  22.773   2.716 -0.0362  0.0265  0.0033
    1W        W49973  27.524  20.403   2.980 -0.1709  0.1490 -0.1922
    1W        W49974  24.070  19.822   0.081  0.2345 -0.0180  0.0652
    1W        W49975  27.224  26.438   1.943  0.1324  0.1631 -0.3236
    1W        W49976  18.267  23.550   0.627 -0.0078  0.0386  0.3022
    1W        W49977  16.967   1.230   7.638 -0.4285  0.4522 -0.0493
    1W        W49978   4.769  21.095   1.742  0.1024  0.0147 -0.0290
    1W        W49979  14.326   7.521   7.657 -0.2523 -0.1878 -0.1052
    1W        W49980  28.015   9.499   7.956  0.0471 -0.1995 -0.0427
    1W        W49981  12.012   1.408   1.393 -0.0978 -0.1171 -0.0234
    1W        W49982   7.763   9.369   5.818  0.1616  0.4114 -0.0101
    1W        W49983  22.122   8.638   0.407 -0.1726 -0.3157 -0.0488
    1W        W49984   1.586  26.606   0.440 -0.1923 -0.1135  0.0598
    1W        W49985   5.577  26.654   2.080 -0.1955 -0.2609 -0.0405
    1W        W49986   5.179  18.585   0.977  0.1623 -0.4000 -0.1206
    1W        W49987   8.476  11.968   9.303 -0.0228  0.2977 -0.0002
    1W        W49988   5.304  16.983   6.888 -0.0130  0.0791  0.1814
    1W        W49989  18.025   9.696   7.880  0.1377 -0.2148 -0.0782
    1W        W49990   6.535  13.566   0.629 -0.2511 -0.3176  0.0765
    1W        W49991   4.188   8.911   1.447  0.0691  0.0347  0.2496
    1W        W49992  15.366   4.084   3.013  0.0970 -0.1555  0.0725
    1W        W49993   0.754  12.417   0.852  0.3460 -0.0248  0.2794
    1W        W49994  12.700  28.371   6.120  0.0208 -0.3053 -0.1199
    1W        W49995   5.880  16.907   2.208  0.2700 -0.0582  0.0674
    1W        W49996  29.126   1.705   2.698 -0.0451  0.2950  0.1752
    1W        W49997  18.554   1.583   2.427  0.2710  0.0716 -0.1159
    1W        W49998  16.458  15.017   2.607  0.3168 -0.0478 -0.0723
    1W        W49999   5.445   6.170   5.751 -0.1074  0.0180 -0.0962
    1W        W50000  19.938  12.370   0.934  0.1527 -0.1938  0.0415
    1W        W50001  21.189   3.081   8.176  0.4805  0.0963 -0.2576
    1W        W50002  28.077  12.991   2.261 -0.0922  0.0695  0.0598
    1W        W50003  16.378   1.930   7.671  0.1076  0.2067  0.1703
    1W        W50004  12.953   7.134   7.392 -0.3200  0.1580  0.1257
    1W        W50005   4.165   7.446   8.353  0.1791  0.2777  0.0144
    1W        W50006  26.665  21.223   1.170  0.2997 -0.1368  0.1040
    1W        W50007   9.158  15.391   6.854 -0.2907 -0.4412 -0.0486
    1W        W50008  13.904  29.301   1.522  0.1133  0.0364  0.0420
    1W        W50009  28.773  14.034   0.874 -0.1205 -0.4163  0.3072
    1W        W50010  10.592  22.219   6.516 -0.0329  0.1753  0.0611
    1W        W50011  23.060   3.363   9.320 -0.0132 -0.3044 -0.1977
    1W        W50012  28.132  18.188   1.395 -0.0083  0.1307  0.0310
    1W        W50013  11.921  26.996   7.749  0.0621 -0.0775  0.1526
    1W        W50014  21.783   2.279   8.469 -0.1499  0.2352  0.0253
    1W        W50015  28.256  11.481   0.660 -0.0964 -0.2363 -0.0879
    1W        W50016  27.402  21.689   8.712  0.0508  0.1597  0.2136
    1W        W50017  26.090   6.618   9.413  0.0020  0.0399 -0.0123
    1W        W50018   8.049   5.803   6.895  0.0083  0.0083 -0.0258
    1W        W50019  25.393  15.553   0.059  0.2379  0.1605 -0.3310
    1W        W50020   5.360  13.205   6.885  0.1590 -0.2146 -0.0041
    1W        W50021   3.634  14.035   1.552  0.0765 -0.1064  0.2102
    1W        W50022  11.267  11.652   6.690 -0.2116 -0.0008 -0.0930
    1W        W50023  15.393   6.997   7.004  0.2690 -0.0458 -0.1168
    1W        W50024  18.330  16.111   0.672  0.0819 -0.2348  0.1065
    1W        W50025  21.457  19.054   7.762 -0.0479  0.1226 -0.3440
    1W        W50026  16.450  16.694   1.896 -0.0199 -0.0041 -0.1194
    1W        W50027  11.226  17.483   7.641  0.1661  0.0077 -0.2481
    1W        W50028  15.528  11.478   9.361 -0.2719  0.0379  0.3362
    1W        W50029  29.287   6.234   7.649  0.0232 -0.0176 -0.0324
    1W        W50030  10.525   5.978   8.603 -0.5796 -0.1288 -0.1322
    1W        W50031  29.393   0.727   2.406 -0.3681  0.0054 -0.3099
    1W        W50032  12.023  20.703   0.977 -0.1837  0.1659  0.1168
    1W        W50033   5.163  10.094   9.603  0.1144  0.1346  0.2294
    1W        W50034  14.849   8.473   1.461  0.1803  0.0870  0.3052
    1W        W50035  17.370   5.826   0.154 -0.1812 -0.0026 -0.0691
    1W        W50036  16.078   5.873   1.107 -0.1360 -0.0089 -0.0905
    1W        W50037   2.249  24.329   0.564 -0.0078  0.1148  0.0818
    1W        W50038  20.987   6.646   2.506 -0.0154 -0.2832  0.3098
    1W        W50039  14.121   6.676   0.538 -0.1696  0.1105 -0.1149
    1W        W50040  14.385  27.947   1.887  0.1726 -0.0501  0.2518
    1W        W50041  27.483  27.563   2.890  0.1316  0.0840 -0.2894
    1W        W50042  20.378  14.493   2.079  0.2594 -0.0297  0.0126
    1W        W50043  13.824   4.926   9.020  0.0836  0.0542  0.0687
    1W        W50044   0.525   6.653   7.894 -0.3332 -0.2322  0.1388
    1W        W50045   3.808   3.527   8.674  0.2582  0.0404  0.4105
    1W        W50046   5.125  12.197   2.009 -0.0306  0.2655  0.3013
    1W        W50047  29.114   6.295   0.060 -0.2936 -0.1649  0.2135
    1W        W50048  21.757   2.633   0.211  0.0635 -0.1934  0.1143
    1W        W50049  17.938  10.662   9.589  0.1644  0.0034 -0.2867
    1W        W50050  23.664  26.173   1.158  0.1319 -0.0646 -0.0994
    1W        W50051  28.029  12.501   8.914  0.2160 -0.1260  0.1666
    1W        W50052  20.824  27.586   0.114  0.1885 -0.1429  0.0202
    1W        W50053  23.687  18.104   0.930 -0.1692 -0.1932 -0.3436
    1W        W50054  26.604  26.047   1.313 -0.2402 -0.3639  0.3292
    1W        W50055  28.809  15.101   1.201  0.0842 -0.1520  0.0237
    1W        W50056  22.421  15.963   2.189 -0.0837  0.4414  0.0721
    1W        W50057   8.593  28.122   6.713  0.0468  0.0220 -0.1682
    1W        W50058   6.320  23.540   1.122  0.2235  0.2222 -0.3269
    1W        W50059  12.869   8.876   9.456 -0.0444 -0.0494  0.0670
    1W        W50060   1.809  28.946   0.439 -0.2085 -0.1111  0.0517
    1W        W50061   1.664  17.829   7.741 -0.0473  0.0391  0.2301
    1W        W50062  25.025  17.473   0.648 -0.0177 -0.4757 -0.1170
    1W        W50063   9.817  29.312   1.051  0.2108 -0.3884  0.0278
    1W        W50064  23.652   3.976   1.308 -0.0105 -0.2702 -0.0228
    1W        W50065  24.427   4.165   0.052 -0.1816  0.0429  0.1285
    1W        W50066  20.140  24.041   3.200 -0.1443 -0.1346  0.1752
    1W        W50067   1.214   3.774   0.531  0.2235  0.0932 -0.2870
    1W        W50068  28.666  24.430   8.008 -0.1750 -0.1005  0.1613
    1W        W50069  14.947  12.047   1.956  0.1301  0.0382  0.0550
    1W        W50070  12.220  22.612   1.538 -0.0442 -0.2362 -0.2311
    1W        W50071  14.282   4.847   1.226  0.1849 -0.4042  0.3699
    1W        W50072   3.767  22.977   8.339 -0.0803  0.1016  0.1180
    1W        W50073   9.307  12.999   7.494  0.0587 -0.2373 -0.1795
    1W        W50074   0.066  13.094   2.310 -0.3228 -0.1878 -0.1712
    1W        W50075   0.162   5.532   7.601  0.2404 -0.1237  0.0328
    1W        W50076  29.093  24.175   8.743  0.0379 -0.1703  0.3316
    1W        W50077   2.923  20.425   0.460 -0.2472  0.1038 -0.3273
    1W        W50078   7.418   1.642   5.872  0.0795  0.1846 -0.3814
    1W        W50079   7.381   9.328   9.300  0.1412  0.0456  0.0098
    1W        W50080  20.118   6.130   0.700 -0.2072 -0.1572 -0.0621
    1W        W50081   3.805  13.419   0.339 -0.2526 -0.4697  0.3757
    1W        W50082  10.704   0.915   5.864  0.0321 -0.1916  0.0427
    1W        W50083   9.506  27.998   0.555 -0.1128  0.0970  0.0129
    1W        W50084   7.626  24.001   3.071  0.2802  0.0163  0.1160
    1W        W50085   0.862   6.830   0.470 -0.0916  0.2705 -0.0530
    1W        W50086  26.404  24.784   7.211  0.1453 -0.4461 -0.2717
    1W        W50087  25.219  14.251   1.526 -0.0105  0.2453 -0.2831
    1W        W50088  21.654   9.494   1.614 -0.0200 -0.1526 -0.3708
    1W        W50089   6.384  11.047   5.557 -0.0252  0.3567  0.0105
    1W        W50090  16.377  22.707   9.491  0.1831 -0.1372 -0.0963
    1W        W50091   3.971  25.091   1.543 -0.0207  0.3711  0.2431
    1W        W50092  12.791  25.175   9.379 -0.0602  0.3494 -0.1651
    1W        W50093   9.721   4.652   7.667 -0.3425 -0.1521 -0.0902
    1W        W50094  12.501   3.310   9.442  0.0026  0.1221 -0.0271
    1W        W50095  15.312  20.365   2.091  0.1667 -0.1040  0.1007
    1W        W50096  14.678  13.192   3.056  0.3519  0.2614 -0.1038
    1W        W50097  16.804   1.153   1.031 -0.1111 -0.1231  0.2492
    1W        W50098   4.584  15.415   1.617  0.0596  0.2143  0.1150
    1W        W50099  16.188  12.340   7.837  0.1978  0.0801  0.2354
    1W        W50100  26.753  25.610   0.069 -0.1550  0.1538 -0.0789
    1W        W50101   4.276  23.008   2.267  0.0195 -0.1890  0.3408
    1W        W50102   5.205   3.933   9.497  0.0636 -0.1040 -0.0722
    1W        W50103   4.713   8.128   9.245  0.2110  0.3052 -0.1268
    1W        W50104  22.169  27.004   3.206  0.0729  0.0563 -0.0624
    1W        W50105  18.294  10.200   8.822 -0.2091  0.1234  0.3250
    1W        W50106  15.399   6.227   1.541  0.0277 -0.2222 -0.1590
    1W        W50107   8.897  27.617   6.707 -0.0377 -0.5851  0.3502
    1W        W50108  11.107  19.585   0.047  0.0759  0.0119 -0.0692
    1W        W50109  23.947  27.824   8.158  0.1553 -0.4622  0.0456
    1W        W50110   1.661  11.201   1.773  0.0976  0.1378 -0.0463
    1W        W50111  29.348   6.957   8.546  0.0265 -0.2447  0.0285
    1W        W50112   2.815  11.660   6.673 -0.0825 -0.2884 -0.2628
    1W        W50113  13.745   8.593   7.194  0.1655 -0.5139  0.4224
    1W        W50114   0.097  16.603   7.492 -0.0033  0.2370  0.2036
    1W        W50115   5.086  21.241   2.636  0.3616 -0.0532  0.1209
    1W        W50116   1.541  17.261   2.011 -0.1366  0.1096 -0.1939
    1W        W50117   0.404   4.281   2.641 -0.2634  0.2563  0.1742
    1W        W50118  18.578   6.065   1.886 -0.2155 -0.0694 -0.3237
    1W        W50119  29.090   8.666   1.825 -0.1382 -0.0797 -0.0777
    1W        W50120  25.156  15.796   1.095  0.0670 -0.2026 -0.1795
    1W        W50121   3.822   3.729   9.096  0.4565 -0.2336  0.0951
    1W        W50122   4.050   2.192   9.300  0.2547  0.3683  0.2925
    1W        W50123   3.253   9.958   0.860 -0.0495 -0.1524 -0.1331
    1W        W50124  19.010  27.579   2.564  0.1124 -0.1078  0.0495
    1W        W50125   5.252  19.845   8.864  0.0818  0.4433  0.2165
    1W        W50126   3.770   5.789   8.941 -0.1292 -0.0592  0.3322
    1W        W50127  19.108  10.442   1.675  0.1611  0.1658  0.0839
    1W        W50128   6.036  22.445   8.981  0.3083  0.3967  0.4398
    1W        W50129  28.694  22.047   8.570 -0.0545  0.0207  0.1410
    1W        W50130  13.691  22.028   6.024  0.3298  0.1092 -0.0603
    1W        W50131  11.808  22.408   1.790  0.1658 -0.3059  0.0116
    1W        W50132   9.948  21.570   2.153  0.2854  0.4638 -0.2613
    1W        W50133  12.247   9.818   1.762  0.0497 -0.1354 -0.0983
    1W        W50134  21.265  28.495   0.982 -0.0129  0.0309 -0.0901
    1W        W50135   3.577   7.914   6.667 -0.0672  0.1833 -0.0899
    1W        W50136   4.823   9.793   4.906 -0.1318  0.1679  0.3209
    1W        W50137   7.419  20.035   1.670 -0.1746 -0.1224  0.0187
    1W        W50138  16.618  24.320   7.973  0.1059  0.2319  0.0051
    1W        W50139  26.972   7.508   2.421 -0.0622  0.1230 -0.1001
    1W        W50140  11.199  19.494   0.571  0.1098 -0.2865 -0.3475
    1W        W50141   5.047  26.262   8.135  0.1508  0.1433 -0.0694
    1W        W50142  13.254  22.107   0.741  0.0516 -0.0686 -0.0891
    1W        W50143  18.611  15.936   1.056  0.2278 -0.2562  0.2091
    1W        W50144   5.203  25.200   9.319 -0.0160  0.0536 -0.1086
    1W        W50145   7.056  17.886   0.780 -0.2262 -0.1519 -0.0579
    1W        W50146   2.877  22.486   2.242 -0.0822 -0.1271 -0.2523
    1W        W50147   1.061  16.897   0.901 -0.1661  0.2640 -0.1300
    1W        W50148  28.175  24.274   7.009  0.0068 -0.2970  0.0132
    1W        W50149  10.076  13.567   1.261 -0.0768 -0.1562  0.1398
    1W        W50150  20.700   4.861   2.014 -0.1394  0.1459 -0.0094
    1W        W50151  17.070   4.258   8.024 -0.0704  0.3148  0.0350
    1W        W50152  24.984  18.686   1.174 -0.1025  0.1580 -0.0034
    1W        W50153  13.855  18.513   7.683  0.0432  0.1814 -0.1745
    1W        W50154  29.616  29.191   7.814  0.2927  0.0849 -0.1460
    1W        W50155  22.470  12.904   2.190 -0.0421 -0.0553  0.0967
    1W        W50156  15.690  22.619   1.702  0.1090 -0.0583  0.0929
    1W        W50157   0.815  23.052   1.789 -0.1475 -0.1619  0.1929
    1W        W50158   1.656   4.003   1.364  0.1593  0.0644 -0.1331
    1W        W50159  27.884   4.930   0.198 -0.0071 -0.0802 -0.0817
    1W        W50160   2.167   3.693   2.180 -0.2838 -0.1826 -0.0714
    1W        W50161   3.260  13.787   0.347 -0.0645 -0.2397  0.1659
    1W        W50162   4.052  23.114   0.362  0.3149 -0.1903  0.2143
    1W        W50163  13.464  14.096   7.388  0.0662 -0.0848  0.0016
    1W        W50164   0.801  11.598   7.765 -0.3870  0.0403 -0.3820
    1W        W50165   0.024   7.538   6.808 -0.0400  0.2376  0.0463
    1W        W50166  23.681  24.913   3.551  0.0162 -0.2204  0.2249
    1W        W50167   7.382   2.509   7.956  0.2778  0.1476  0.0348
    1W        W50168  21.430   5.179   7.623 -0.1769 -0.1539  0.4332
    1W        W50169   7.281   8.372   0.531 -0.0954 -0.2267 -0.1806
    1W        W50170  25.230  26.479   9.376  0.3437 -0.3475 -0.0675
    1W        W50171  24.759   8.573   7.835  0.2869 -0.2393  0.0865
    1W        W50172  11.225  23.403   7.466  0.0026 -0.2767 -0.0899
    1W        W50173  10.421  13.453   0.412  0.0538  0.0730  0.1294
    1W        W50174  18.976  28.263   8.662  0.0733  0.3063  0.0222
    1W        W50175  29.106   8.953   1.362 -0.4068 -0.3343 -0.0007
    1W        W50176  21.353  28.369   0.309 -0.2007 -0.2898  0.1455
    1W        W50177  26.268  25.146   0.601 -0.0707 -0.1866 -0.0120
    1W        W50178  23.380  16.809   7.775  0.1713 -0.0542 -0.0925
    1W        W50179   3.283  19.094   9.136  0.0577  0.0154  0.1191
    1W        W50180  28.145  27.387   0.223  0.0255 -0.2586  0.2320
    1W        W50181  29.452  14.872   9.632  0.0138 -0.0781 -0.0722
    1W        W50182   9.587  10.737   6.003  0.0074 -0.0124  0.1803
    1W        W50183  20.460  16.482   8.017  0.0847 -0.0344 -0.1753
    1W        W50184  13.429   0.087   2.287 -0.0997 -0.2424 -0.0129
    1W        W50185  14.602  18.715   6.255  0.1459 -0.2722  0.0045
    1W        W50186  26.455  25.325   2.458  0.1911 -0.1742 -0.0863
    1W        W50187  20.883  19.483   8.764 -0.1224  0.4718  0.2438
    1W        W50188  19.371   8.188   1.794 -0.0102 -0.0008 -0.0299
    1W        W50189  21.109  29.461   1.601 -0.0004  0.3695  0.0017
    1W        W50190  23.297  22.335   2.456  0.0396 -0.3413 -0.2512
    1W        W50191   2.933   8.339   0.110 -0.0371 -0.4020  0.1916
    1W        W50192  21.670  28.297   7.388  0.2345 -0.1701 -0.0140
    1W        W50193   6.165  23.702   8.792 -0.2416  0.0032  0.0894
    1W        W50194  15.432  11.548   7.418 -0.1728  0.2871 -0.0033
    1W        W50195  25.203  29.132   2.523  0.1806 -0.0797  0.1804
    1W        W50196   7.879   2.285   6.607 -0.0384 -0.0039  0.0235
    1W        W50197  11.322   5.040   1.364 -0.0293  0.1172 -0.1751
    1W        W50198   2.348  10.595   0.876  0.0005  0.3131 -0.0209
    1W        W50199   7.373   9.244   6.989  0.0769 -0.1288 -0.2935
    1W        W50200  16.312   5.253   1.803 -0.1648 -0.3295  0.2629
    1W        W50201  24.806   9.945   8.839  0.2739  0.2528 -0.0654
    1W        W50202   6.153   7.094   9.072 -0.2416 -0.1259  0.0647
    1W        W50203  28.008  23.817   1.918  0.0931 -0.5007  0.4779
    1W        W50204  14.550  25.454   1.651  0.1357  0.2764 -0.0020
    1W        W50205   8.129  12.625   1.145 -0.1095  0.0484  0.0408
    1W        W50206  23.707  29.065   8.979 -0.0704 -0.3029 -0.0825
    1W        W50207  19.088   4.163   0.501 -0.1901  0.1645 -0.2879
    1W        W50208   5.634  15.167   0.431 -0.1709  0.0134 -0.1472
    1W        W50209   1.574  21.492   2.486 -0.2161  0.1694 -0.0930
    1W        W50210  23.932  13.821   1.643  0.0676 -0.0854  0.0457
    1W        W50211  26.398  18.807   8.877  0.0725 -0.0077  0.1410
    1W        W50212   1.381  11.127   9.642 -0.0444  0.5245  0.1318
    1W        W50213  20.866  11.681   1.865 -0.1950 -0.1290 -0.0097
    1W        W50214   3.236  20.440   7.175  0.0771 -0.3720 -0.0975
    1W        W50215  19.695  19.406   8.520 -0.1742  0.2004  0.1337
    1W        W50216  18.222  27.611   8.303 -0.3528 -0.1705  0.1557
    1W        W50217   8.764  17.851   6.212  0.1110 -0.3245 -0.0968
    1W        W50218  20.188   9.981   9.628  0.2679 -0.0281  0.0744
    1W        W50219  17.870  20.107   8.416  0.0164 -0.1421  0.1980
    1W        W50220  24.840  20.975   9.076 -0.0977 -0.3150 -0.0906
    1W        W50221  27.889  28.401   7.657  0.3717  0.1571 -0.0107
    1W        W50222   6.451  26.028   8.996 -0.2398  0.0389  0.1198
    1W        W50223  22.039  27.746   3.160 -0.1033 -0.0465 -0.1448
    1W        W50224   2.397   3.219   1.115  0.0019 -0.0515  0.1399
    1W        W50225  23.788  25.166   0.330 -0.5347 -0.0817  0.2385
    1W        W50226  25.672   4.532   9.619 -0.0340 -0.2116 -0.3869
    1W        W50227  26.664  22.667   8.765 -0.0156  0.0918  0.2494
    1W        W50228  17.248  24.763   0.612  0.1559 -0.1674  0.2465
    1W        W50229   3.314  29.212   9.337 -0.0727 -0.1628  0.2625
    1W        W50230  18.211   3.120   9.477  0.2262 -0.0106 -0.0251
    1W        W50231  22.104  25.892   1.732  0.4781 -0.2078  0.0000
    1W        W50232   8.058  13.309   2.164 -0.1333 -0.0420  0.1527
    1W        W50233   6.591  10.885   8.655 -0.2687 -0.1446 -0.2215
    1W        W50234   9.760  12.617   7.128 -0.3754 -0.0428 -0.1979
    1W        W50235  27.081  16.124   8.967  0.2203 -0.1977  0.0371
    1W        W50236  22.253  25.326   7.242  0.1179 -0.1156 -0.0252
    1W        W50237   8.762  23.812   8.685  0.0566  0.0405 -0.0645
    1W        W50238  14.701  20.543   9.444  0.0494 -0.1226  0.2506
    1W        W50239   8.390  20.779   0.250  0.1029  0.2538  0.1539
    1W        W50240  18.811  25.200   7.873 -0.0289 -0.1918 -0.0279
    1W        W50241  28.563  20.638   8.168  0.2333  0.0581 -0.3442
    1W        W50242  29.416  10.676   7.042  0.1164 -0.1629  0.1340
    1W        W50243  14.783  26.221   1.603  0.0344  0.1110  0.0476
    1W        W50244   6.241  11.327   8.613 -0.0670  0.3084 -0.0278
    1W        W50245   7.981   4.672   8.857 -0.0473  0.1303  0.1804
    1W        W50246   9.928  22.865   2.990  0.1903  0.1027  0.1396
    1W        W50247   2.633   0.780   7.883  0.2802 -0.1250  0.2615
    1W        W50248   2.181  13.354   1.785  0.0261 -0.1519 -0.1767
    1W        W50249  14.385  17.365   8.418 -0.2819  0.1494  0.1106
    1W        W50250  12.968   7.121   8.643  0.0114  0.0548  0.0698
    1W        W50251  27.362   3.225   7.276 -0.1182 -0.1131 -0.1624
    1W        W50252  24.409  13.783   8.604  0.1644 -0.2475  0.0785
    1W        W50253   1.358  27.523   2.386  0.0017  0.1079  0.2067
    1W        W50254  16.184  28.909   2.879  0.0227 -0.0610  0.1149
    1W        W50255  20.561   8.805   2.140 -0.1536  0.2638  0.4259
    1W        W50256  11.342   9.314   2.966 -0.0390  0.2412  0.0829
    1W        W50257  15.597  11.399   6.837 -0.0490  0.4150  0.1259
    1W        W50258   7.512  18.985   6.845 -0.2201 -0.0094 -0.0042
    1W        W50259  26.238   8.348   0.811  0.0491 -0.3871  0.1443
    1W        W50260  24.312   0.321   0.601 -0.2311  0.2665 -0.1389
    1W        W50261   2.161   8.163   5.798  0.0303  0.0518  0.0384
    1W        W50262  11.747   8.835   1.903 -0.2131 -0.2830  0.1797
    1W        W50263  23.780   8.976   8.511 -0.4123 -0.1415  0.2059
    1W        W50264  16.994  23.581   7.437 -0.1430  0.2797 -0.1469
    1W        W50265  16.071  14.682   8.513  0.5279 -0.0909  0.0722
    1W        W50266   1.306  27.009   8.089  0.1691  0.1259 -0.1693
    1W        W50267   4.274  12.246   6.688  0.1747  0.1795 -0.2044
    1W        W50268  12.603  19.660   1.163  0.0366  0.0178 -0.0530
    1W        W50269   3.710  10.187   1.011  0.3524 -0.1152 -0.0261
    1W        W50270  14.573  17.954   1.181  0.0169 -0.0198 -0.0905
    1W        W50271  18.050  21.410   7.285 -0.1601  0.1095  0.0445
    1W        W50272   7.510   4.460   7.204 -0.1561 -0.0088 -0.2311
    1W        W50273   9.024   4.851   2.436  0.2280 -0.4528 -0.0184
    1W        W50274   8.786  18.068   2.193  0.0256 -0.2687 -0.3219
    1W        W50275   1.829   5.221   8.102 -0.0365 -0.3915  0.1540
    1W        W50276  27.238   9.085   8.549 -0.0703  0.0029  0.2438
    1W        W50277   4.698  25.332   7.867  0.1207  0.1951 -0.3826
    1W        W50278  17.395  11.797   8.452  0.1690 -0.0497 -0.2675
    1W        W50279  15.272   5.939   7.610  0.0297 -0.2049 -0.2909
    1W        W50280  20.645   5.651   7.615 -0.0878  0.0756 -0.0016
    1W        W50281   7.036  12.486   0.314 -0.0697 -0.0289  0.2148
    1W        W50282  15.460  23.494   2.107  0.1298  0.1507 -0.1632
    1W        W50283   5.534   2.913   8.477  0.0974 -0.1807  0.0581
    1W        W50284   4.979  18.595   7.654  0.0107  0.2601 -0.0326
    1W        W50285  24.466   8.588   2.024 -0.1320 -0.4957  0.1498
    1W        W50286  22.601   8.606   0.467 -0.0370  0.1546 -0.2123
    1W        W50287  18.741   0.024   0.356  0.3110  0.2548  0.2929
    1W        W50288  27.724  24.835   2.951 -0.0810 -0.3202 -0.1533
    1W        W50289  19.139  17.730   2.857  0.2554  0.0267 -0.2527
    1W        W50290  24.166   3.841   0.266  0.0610 -0.1909 -0.0910
    1W        W50291   6.965   3.398   2.271 -0.0196 -0.2737  0.4216
    1W        W50292   1.858   9.299   6.654 -0.1769  0.0697  0.4321
    1W        W50293   7.521  19.071   6.230 -0.1804  0.2198 -0.1012
    1W        W50294  23.948  26.633   9.220  0.2658  0.1418  0.1518
    1W        W50295   1.558  28.912   2.201 -0.2414 -0.1211 -0.2240
    1W        W50296  26.688  27.429   0.179  0.0574  0.0136 -0.2039
    1W        W50297  21.286   6.479   8.206 -0.1088 -0.1493 -0.0545
    1W        W50298   8.414  12.683   9.217  0.1791  0.0733  0.0820
    1W        W50299  21.046   0.652   3.760 -0.0981  0.0724  0.0556
    1W        W50300   0.040   6.101   6.927 -0.0418  0.1550  0.1792
    1W        W50301   7.504   4.230   6.344 -0.0789  0.1778  0.0353
    1W        W50302   6.609  14.331   5.577  0.1736 -0.0096  0.0332
    1W        W50303  11.442   0.549   9.075 -0.0330  0.1679  0.2933
    1W        W50304   6.603  20.602   1.696  0.0011  0.0838  0.1529
    1W        W50305  23.059  28.713   0.556  0.0510 -0.3244 -0.0405
    1W        W50306   3.865  21.083   7.583  0.0194 -0.0238 -0.0230
    1W        W50307   3.098   2.580   9.252 -0.3368  0.0037  0.1646
    1W        W50308  25.056   1.757   2.818 -0.0340  0.0804  0.0794
    1W        W50309  10.151   9.742   7.581  0.1677 -0.1054  0.0767
    1W        W50310  12.047   9.400   7.079  0.1083 -0.1492 -0.2558
    1W        W50311  28.064  18.110   7.604 -0.0775  0.0814  0.3676
    1W        W50312  19.761  12.067   7.996  0.2441  0.1771 -0.0496
    1W        W50313  11.676  29.361   9.199 -0.2514  0.0373 -0.3741
    1W        W50314   7.694  25.661   1.334  0.1465  0.2031 -0.0509
    1W        W50315   8.511  22.818   3.273 -0.1886  0.1412  0.0849
    1W        W50316  12.416  16.673   7.403  0.1199  0.2521  0.1699
    1W        W50317  15.130   5.654   8.542 -0.0880  0.0394  0.1841
    1W        W50318  14.398   8.001   8.962 -0.0777  0.2242 -0.1861
    1W        W50319   5.845  13.039   5.613 -0.0344 -0.2138 -0.0988
    1W        W50320  20.348  26.513   8.200 -0.1593 -0.0301  0.0309
    1W        W50321  12.385   9.966   1.192  0.2212 -0.3515  0.0539
    1W        W50322  13.891   9.958   2.525 -0.0046  0.1293 -0.0174
    1W        W50323   9.547  24.209   6.545  0.0472 -0.2351  0.1101
    1W        W50324  23.236  16.894   3.066 -0.1141 -0.1814 -0.0023
    1W        W50325  20.410  21.205   8.171  0.1220 -0.0346 -0.3104
    1W        W50326   9.836  28.515   2.648 -0.0019 -0.1721 -0.0567
    1W        W50327   6.542  16.917   7.239  0.2620 -0.1401 -0.0185
    1W        W50328  20.640   0.301   8.317 -0.0258  0.0975 -0.1077
    1W        W50329  14.805   7.419   0.388  0.0218 -0.1297  0.2803
    1W        W50330  12.889  17.523   1.508 -0.5182  0.2613 -0.1632
    1W        W50331   2.058   3.532   7.556 -0.3982  0.0425 -0.0826
    1W        W50332  19.890   7.522   7.215 -0.3119 -0.4139 -0.2367
    1W        W50333  12.127  29.010   2.211 -0.4746  0.1432  0.1686
    1W        W50334  14.362  27.409   9.268  0.1473 -0.1198 -0.1971
    1W        W50335  26.300  12.810   1.600 -0.3418 -0.0162  0.2977
    1W        W50336   4.153   5.358   0.623 -0.0389 -0.2153 -0.0536
    1W        W50337   6.353  29.056   7.322  0.1371  0.1798  0.2694
    1W        W50338  24.087  28.193   6.235  0.1878 -0.1965  0.2164
    1W        W50339   2.646   6.879   6.980  0.0182 -0.1868  0.2071
    1W        W50340   6.596  14.426   0.329 -0.0871  0.3491  0.0468
    1W        W50341   2.451  16.337   0.968 -0.3343 -0.3408 -0.1741
    1W        W50342  19.656  22.223   9.168  0.2160  0.1205 -0.0776
    1W        W50343   1.149  28.066   7.825  0.2235 -0.0474  0.0801
    1W        W50344   4.204   5.971   5.947  0.1798 -0.2856 -0.0942
    1W        W50345   3.565  28.937   9.009 -0.1459  0.0272 -0.4472
    1W        W50346  18.843  20.330   1.936  0.0603  0.0615 -0.0220
    1W        W50347   6.782  26.368   1.217  0.2295  0.2075  0.2760
    1W        W50348  20.531   9.902   0.492 -0.0999  0.0037  0.0474
    1W        W50349  20.124  27.105   8.904  0.1465 -0.0632  0.2454
    1W        W50350  28.479  16.645   7.952 -0.1569  0.0891  0.2179
    1W        W50351   0.494  26.551   1.490 -0.1539  0.0298 -0.3574
    1W        W50352   3.089  20.606   2.719 -0.0239 -0.1658  0.0695
    1W        W50353  23.601   0.876   9.152 -0.0838 -0.3677  0.0567
    1W        W50354  25.493  22.298   8.361  0.1833  0.1204 -0.1506
    1W        W50355  24.933   2.644   2.605 -0.0740  0.1671 -0.1101
    1W        W50356  20.124  12.850   9.037 -0.1816  0.1454 -0.2628
    1W        W50357  15.508  14.438   8.778  0.0535  0.1619 -0.0031
    1W        W50358   0.792  20.912   1.705  0.0339 -0.2942  0.0482
    1W        W50359  12.247   8.383   0.079  0.1624 -0.0188  0.0804
    1W        W50360  16.895  16.649   8.332  0.2640 -0.0653  0.1412
    1W        W50361  12.274   4.403   8.647 -0.1354 -0.3892  0.3415
    1W        W50362  21.814  10.401   1.105  0.2138 -0.1060 -0.3653
    1W        W50363  14.080  14.745   1.404 -0.0490 -0.3985  0.0571
    1W        W50364  24.192  20.799   7.659  0.2736  0.0412 -0.1048
    1W        W50365  15.589  23.261   7.018  0.1398 -0.1584  0.1678
    1W        W50366   3.271   9.662   8.941  0.2134  0.0812  0.2378
    1W        W50367  20.134  23.373   8.304 -0.0542  0.3826  0.1703
    1W        W50368   3.776   8.246   0.972 -0.3304 -0.0922 -0.0549
    1W        W50369   1.995  17.143   1.398 -0.0754  0.1798 -0.0939
    1W        W50370  26.148   4.005   8.574 -0.0496 -0.1112  0.1899
    1W        W50371  28.596  22.146   9.065  0.0273  0.0245 -0.3785
    1W        W50372   0.673   0.703   8.903  0.1271  0.1341  0.0688
    1W        W50373  14.436  25.727   8.479 -0.0752  0.4070 -0.3094
    1W        W50374  15.258  29.295   2.787  0.0062  0.2675 -0.0620
    1W        W50375   8.180  11.688   6.157 -0.0696 -0.4491  0.0590
    1W        W50376   5.800   0.374   1.049 -0.1114  0.0134 -0.0576
    1W        W50377   4.696  18.364   8.788  0.0773 -0.1134 -0.0639
    1W        W50378   8.593  20.967   9.456  0.2032  0.0135 -0.0433
    1W        W50379   7.600   0.723   9.018 -0.1537  0.0471  0.4644
    1W        W50380  27.664  16.677   8.259  0.1093  0.3337 -0.1118
    1W        W50381   9.167  10.296   0.311 -0.1390 -0.0871  0.0621
    1W        W50382  15.802   9.118   8.880  0.0921 -0.5613 -0.0068
    1W        W50383  24.063  18.156   8.432 -0.2951  0.2402 -0.1973
    1W        W50384  21.357  24.044   3.551  0.0467  0.1897 -0.4078
    1W        W50385  24.937   8.119   0.629  0.0076  0.2238  0.1234
    1W        W50386   1.780  16.196   7.554 -0.0655 -0.2438 -0.1109
    1W        W50387  18.390   0.643   8.363 -0.0738 -0.5084  0.4234
    1W        W50388  18.743  16.463   8.722 -0.1975 -0.1881  0.0866
    1W        W50389   6.131   8.473   8.647 -0.3527 -0.2032 -0.1916
    1W        W50390  21.377  22.727   8.387  0.0932  0.0845 -0.0140
    1W        W50391  19.404  29.458   9.240 -0.2572  0.0369  0.0165
    1W        W50392  29.268  26.224   7.699 -0.1063 -0.2722 -0.3941
    1W        W50393  20.308  24.731   8.896 -0.2384 -0.0159 -0.3122
    1W        W50394  26.126   8.925   1.541  0.0868  0.0549 -0.1857
    1W        W50395  14.638   3.860   6.029  0.2555 -0.0522 -0.4185
    1W        W50396  23.809   2.545   7.922  0.3398  0.1183  0.3794
    1W        W50397  28.321   9.252   1.906  0.0484  0.3389 -0.0756
    1W        W50398  19.292  23.129   3.193 -0.5468  0.1344  0.3011
    1W        W50399  21.588   0.693   6.968  0.0504 -0.3057  0.3310
    1W        W50400   1.303   7.397   0.978 -0.2759  0.1141  0.1272
    1W        W50401   4.542   8.642   7.093 -0.0648 -0.2043 -0.0349
    1W        W50402   8.628  27.843   9.313 -0.0548  0.0712 -0.2141
    1W        W50403  23.689  13.574   8.207  0.1597  0.0321  0.5405
    1W        W50404  22.307  11.625   1.650 -0.0081 -0.2935  0.1838
    1W        W50405   4.382  19.902   6.418 -0.0543  0.0116  0.0238
    1W        W50406  22.757  13.437   1.055 -0.2473 -0.0557  0.3458
    1W        W50407  17.516   1.747   1.120  0.3392  0.0645 -0.1063
    1W        W50408  19.539   4.911   7.591 -0.0689  0.1006 -0.0367
    1W        W50409  16.008  14.480   0.243 -0.0267  0.2108  0.1060
    1W        W50410  12.090  26.613   0.068  0.0340 -0.1602  0.2990
    1W        W50411  17.667  23.491   2.263  0.1724 -0.4110  0.1214
    1W        W50412  28.802  28.153   3.815 -0.0847 -0.1428 -0.1290
    1W        W50413   2.281  13.093   7.230  0.3062 -0.3500  0.4392
    1W        W50414  27.516   4.662   7.851  0.1699  0.1998 -0.2048
    1W        W50415  22.307  25.252   8.759  0.0700  0.1242 -0.3568
    1W        W50416   2.849  15.891   6.879 -0.1087 -0.1964  0.0027
    1W        W50417   1.484  17.543   2.699 -0.0999 -0.0670  0.0338
    1W        W50418  22.518  28.668   7.109 -0.0216 -0.1575 -0.0971
    1W        W50419   4.808  11.720   0.214 -0.1876  0.2989 -0.1257
    1W        W50420  16.187  16.987   1.562  0.1472 -0.0289  0.3536
    1W        W50421  21.234   2.048   8.166  0.1810  0.2057  0.4703
    1W        W50422  10.552  12.646   6.236 -0.1547  0.2644  0.0170
    1W        W50423  17.760  14.545   7.089  0.0575  0.1070 -0.2803
    1W        W50424   5.408   2.409   8.511 -0.0121  0.2124 -0.3486
    1W        W50425  10.987  27.568   0.300  0.1110 -0.1913  0.2275
    1W        W50426   3.584  12.838   6.056 -0.0350 -0.1265  0.2518
    1W        W50427  23.034   0.007   8.320  0.1145  0.1157 -0.1120
    1W        W50428  27.254  21.802   9.250 -0.0430 -0.1267 -0.0065
    1W        W50429   3.261  25.293   1.080  0.0776 -0.0217  0.2064
    1W        W50430  28.981  18.225   9.454  0.1006  0.0763  0.0619
    1W        W50431   0.679  27.726   8.671  0.0779  0.0934 -0.1437
    1W        W50432  25.605  26.334   7.935  0.0411 -0.1298 -0.3365
    1W        W50433  16.666  18.572   1.417 -0.0277 -0.0876 -0.1422
    1W        W50434  27.717  14.212   7.658  0.1071 -0.1949  0.0092
    1W        W50435  21.181  16.433   8.833  0.0976  0.1650  0.1527
    1W        W50436   1.539   2.675   0.141  0.2811 -0.0351 -0.0784
    1W        W50437   4.291  19.658   2.085  0.1532 -0.1823 -0.1750
    1W        W50438  22.862   6.360   8.000 -0.2294  0.1721 -0.2271
    1W        W50439   1.510  25.354   1.156  0.1975  0.1557  0.0423
    1W        W50440  11.389   4.108   1.527 -0.1519  0.1477 -0.0995
    1W        W50441  15.717  26.215   2.619  0.4624  0.2128 -0.0760
    1W        W50442  21.506  19.002   2.225  0.0738 -0.0526  0.0017
    1W        W50443   8.942  10.605   8.049  0.2775 -0.1357 -0.2204
    1W        W50444   5.543  22.882   1.905  0.3536 -0.1526 -0.0174
    1W        W50445   0.554   9.128   7.325 -0.0328 -0.1651  0.1459
    1W        W50446   4.950  15.437   8.131  0.1078 -0.0065  0.0681
    1W        W50447  19.401  27.946   7.748  0.0156  0.1961 -0.1171
    1W        W50448  23.268  11.382   8.174 -0.3218 -0.1388  0.1871
    1W        W50449  13.235  17.878   6.707 -0.1781  0.1954  0.1858
    1W        W50450  17.911   8.323   7.228  0.1193  0.3177  0.2043
    1W        W50451  28.394  16.848   9.034  0.3680 -0.1770 -0.2065
    1W        W50452  17.092  10.982   2.330  0.0125 -0.1023  0.1021
    1W        W50453  18.222   5.014   7.785 -0.2278 -0.1489  0.1321
    1W        W50454  18.477   2.133   6.846  0.0540 -0.0608 -0.2220
    1W        W50455   8.643   8.384   0.366 -0.2878  0.1432  0.1304
    1W        W50456  24.703  16.864   9.369  0.0671  0.1495 -0.1039
    1W        W50457  25.566  23.654   1.043 -0.1065  0.1848 -0.1269
    1W        W50458  25.949  24.478   2.528  0.0146  0.1730  0.1808
    1W        W50459  20.310  28.138   8.118  0.2020  0.0250  0.0087
    1W        W50460   1.368   3.226   8.032 -0.0041 -0.3117 -0.1130
    1W        W50461  10.152  29.434   8.144  0.0337 -0.1176  0.0215
    1W        W50462  22.607  28.295   8.946 -0.1934 -0.0624  0.0898
    1W        W50463   7.347  18.318   3.163 -0.3282  0.2128 -0.1910
    1W        W50464  20.218   1.033   3.734  0.1061  0.1107  0.0620
    1W        W50465   1.734  24.373   2.746  0.1646  0.3398  0.0361
    1W        W50466   9.946   6.061   2.721 -0.1737  0.0272 -0.0202
    1W        W50467   3.758   8.673   8.292 -0.2356 -0.4120  0.1310
    1W        W50468  16.524  13.105   8.725  0.0861 -0.0344 -0.0832
    1W        W50469   4.788  15.110   1.213 -0.0093  0.2941 -0.2476
    1W        W50470  28.952   4.214   1.408  0.1601 -0.0239  0.0644
    1W        W50471  27.017  24.994   0.610 -0.2991  0.1218 -0.2345
    1W        W50472   6.614  17.582   9.535  0.0939  0.1064  0.2907
    1W        W50473   8.548  21.169   7.825  0.1347  0.1459  0.1062
    1W        W50474  10.431   3.974   6.790  0.0678 -0.1174 -0.0166
    1W        W50475   0.420   2.123   0.932  0.2815  0.0783 -0.2574
    1W        W50476  23.688   6.342   8.566  0.1292 -0.0913 -0.1352
    1W        W50477   5.880  19.583   2.463  0.1105  0.0899  0.0940
    1W        W50478  12.651   2.885   6.877  0.1941  0.1885 -0.2018
    1W        W50479  21.392   7.374   8.483 -0.0472  0.1025  0.0525
    1W        W50480  17.779   5.767   9.210  0.3572 -0.1412  0.0248
    1W        W50481   8.866   9.120   6.934 -0.2188  0.0322  0.2018
    1W        W50482  10.161   9.371   0.045 -0.0036 -0.1206 -0.0260
    1W        W50483  23.294   1.702   7.539  0.1628 -0.3515  0.1738
    1W        W50484  11.073  21.127   0.679 -0.2627 -0.1459 -0.2911
    1W        W50485  16.780  24.517   9.065  0.1510  0.0583 -0.1054
    1W        W50486   7.683  15.268   0.321  0.2040  0.0451 -0.0575
    1W        W50487   8.114   6.269   2.386  0.0668  0.0614 -0.5790
    1W        W50488  23.839  14.769   2.095 -0.0739 -0.0139  0.1316
    1W        W50489   6.724  19.546   7.291  0.0263  0.1328 -0.3812
    1W        W50490  16.950  27.769   8.283 -0.0481  0.1220 -0.0322
    1W        W50491  17.200  12.433   2.052  0.5736  0.2191 -0.2953
    1W        W50492  26.684  10.331   1.455  0.1055 -0.2330 -0.0160
    1W        W50493   9.268   0.937   0.353  0.2712  0.0458  0.0405
    1W        W50494  13.340  21.871   5.674 -0.0292  0.2593 -0.2529
    1W        W50495   7.997  17.196   6.518 -0.0920 -0.2491 -0.2545
    1W        W50496  28.250  28.071   7.434 -0.2940  0.2021  0.0196
    1W        W50497   3.208  15.392   7.627 -0.2462  0.0430 -0.1674
    1W        W50498  18.973   7.205   0.544 -0.3588  0.1294 -0.0847
    1W        W50499  25.091   7.717   0.841 -0.2717  0.0037 -0.3292
    1W        W50500   2.456   7.695   9.298  0.0462  0.2954  0.1039
    1W        W50501   1.475  26.658   1.389  0.2339  0.1035  0.1847
    1W        W50502  22.927  27.117   8.356  0.0938  0.0514  0.1416
    1W        W50503  16.880  20.029   7.216  0.3049 -0.0513 -0.0836
    1W        W50504  20.175  25.283   8.718  0.0492  0.1061  0.0067
    1W        W50505  28.704  11.896   1.402 -0.1270 -0.0440 -0.1055
    1W        W50506  22.880  10.181   8.541  0.0668 -0.0227  0.1195
    1W        W50507  22.003  26.870   1.735  0.0571 -0.0776  0.2463
    1W        W50508   6.590  11.011   6.185 -0.3481  0.1270  0.1034
    1W        W50509   2.028   2.134   9.548  0.1285 -0.1524  0.2232
    1W        W50510  20.800  15.428   2.015  0.0893  0.0046 -0.0657
    1W        W50511  28.971   9.232   6.961 -0.2400 -0.0301  0.1009
    1W        W50512  19.149  27.279   8.763 -0.0120  0.1682  0.1117
    1W        W50513   4.266  13.448   8.957 -0.0412  0.1866  0.0724
    1W        W50514  17.736  14.023   3.069 -0.0834 -0.1219  0.0327
    1W        W50515   8.996  18.651   1.375  0.0918 -0.2739 -0.0101
    1W        W50516   1.994   4.312   9.240  0.1113 -0.1891  0.2998
    1W        W50517   6.734  11.045   1.398  0.1316  0.0621  0.0098
    1W        W50518  22.582  18.381   2.098 -0.1714  0.2645 -0.0499
    1W        W50519  25.748  19.610   6.886 -0.0982  0.1726 -0.1210
    1W        W50520  27.696   8.210   0.897 -0.0814 -0.1172 -0.1268
    1W        W50521  10.304  27.474   2.509 -0.0071 -0.0539 -0.2541
    1W        W50522  25.385  21.669   7.608  0.1188 -0.1145  0.2019
    1W        W50523  29.187  26.828   2.735  0.1416  0.3574 -0.1195
    1W        W50524  26.166  22.634   6.993  0.0993  0.1262  0.0609
    1W        W50525  18.755  22.912   8.510 -0.0826  0.0849  0.1671
    1W        W50526  23.457  29.403   8.605  0.0865 -0.2301 -0.0551
    1W        W50527  17.938   0.714   2.348 -0.0936 -0.0404  0.0144
    1W        W50528  15.844   1.247   9.001 -0.3119  0.0119  0.5541
    1W        W50529  10.431   0.936   0.890 -0.0179 -0.1918  0.1769
    1W        W50530  17.210   1.515   8.364  0.1179  0.1487 -0.1100
    1W        W50531   6.675  15.135   1.166  0.1158 -0.2233 -0.0984
    1W        W50532  21.063   4.932   8.553 -0.0260 -0.1065  0.1167
    1W        W50533  11.310  27.377   1.464  0.2807 -0.2180  0.3747
    1W        W50534   8.204  23.923   6.789  0.1092 -0.2470  0.0494
    1W        W50535  23.159  13.324   8.311  0.0855 -0.0197 -0.2973
    1W        W50536  27.586  25.450   9.636 -0.1502  0.2445  0.2176
    1W        W50537  26.373  15.551   1.694  0.1131  0.1836 -0.2718
    1W        W50538  29.184  28.568   8.740 -0.3100  0.1952 -0.2074
    1W        W50539   2.898  15.535   0.896  0.2383 -0.1484 -0.1076
    1W        W50540   7.035  13.639   1.427  0.0151  0.1937  0.1361
    1W        W50541   9.772   9.699   8.039 -0.1746 -0.0444  0.0863
    1W        W50542   2.170   4.209   8.772 -0.3151  0.0537 -0.5718
    1W        W50543  22.032  25.013   7.950  0.0015 -0.2532 -0.2555
    1W        W50544  13.111   9.711   0.091 -0.4190  0.1336 -0.1924
    1W        W50545  20.469  12.627   0.819  0.1075 -0.0999  0.3142
    1W        W50546   4.693  21.946   0.147  0.1011  0.0185 -0.1469
    1W        W50547  24.576   6.438   2.155  0.0901  0.0728 -0.0338
    1W        W50548  21.506  25.530   8.447  0.2008  0.0032 -0.0048
    1W        W50549  14.145   0.843   1.475  0.0260  0.0339 -0.0253
    1W        W50550  26.709  18.823   9.316  0.0345  0.1449  0.0806
    1W        W50551  15.854  21.942   9.204 -0.2343 -0.0199 -0.2184
    1W        W50552   7.625  16.008   6.623 -0.1904  0.0737 -0.1202
    1W        W50553  13.933  11.586   0.664 -0.3270  0.1831  0.1247
    1W        W50554  19.692  21.129   7.364 -0.2098 -0.0001 -0.0453
    1W        W50555   3.826   0.324   9.007 -0.0713 -0.1866 -0.2026
    1W        W50556   9.975  13.138   6.895 -0.3721 -0.5470  0.4470
    1W        W50557  19.230  25.433   9.032  0.3358 -0.0564  0.0905
    1W        W50558   1.859  13.568   7.252  0.0357 -0.1703 -0.0676
    1W        W50559  24.588  24.820   8.709  0.2586  0.2102  0.2919
    1W        W50560  25.334   2.535   9.362  0.0526  0.0972 -0.0117
    1W        W50561  27.989   5.976   1.113 -0.0318 -0.0361  0.1682
    1W        W50562   6.311   2.602   1.226 -0.0038  0.0944 -0.5767
    1W        W50563  21.705   2.796   1.711  0.0639  0.0958  0.2971
    1W        W50564  23.571  23.728   0.670  0.3220 -0.0518 -0.1354
    1W        W50565  13.487  16.403   0.514  0.1147  0.0435  0.2014
    1W        W50566  27.835   9.950   2.195 -0.0624 -0.1518 -0.0318
    1W        W50567   7.987   4.691   0.916 -0.2452 -0.2902  0.3440
    1W        W50568   7.172  29.405   8.065 -0.3119  0.1195  0.3408
    1W        W50569  22.840  22.176   2.116 -0.4324  0.3002 -0.1845
    1W        W50570  20.435   1.600   0.749 -0.1487  0.0767  0.0241
    1W        W50571  10.431   3.405   5.904  0.1968 -0.0292 -0.0394
    1W        W50572   2.155   2.865   8.289  0.0300 -0.0332 -0.0502
    1W        W50573  24.991  21.797   2.857 -0.0641 -0.1348  0.0704
    1W        W50574  27.323  27.684   2.379 -0.3084 -0.1647  0.0816
    1W        W50575  14.307   6.655   0.057 -0.1465 -0.0901  0.0701
    1W        W50576  13.168  23.516   1.934  0.6069  0.1886 -0.0785
    1W        W50577  23.366   5.454   9.227  0.1750 -0.1284 -0.2274
    1W        W50578  25.977   7.736   1.826 -0.0343  0.1828  0.0580
    1W        W50579  21.201   2.147   9.136 -0.0009 -0.1419  0.0677
    1W        W50580  17.136  11.908   0.139 -0.0341 -0.2656  0.0451
    1W        W50581  13.403  15.236   6.587  0.1579 -0.4276 -0.1615
    1W        W50582  20.868   9.539   0.745 -0.1420  0.3745  0.1753
    1W        W50583  10.575  18.310   6.133 -0.1423  0.1364  0.3891
    1W        W50584   4.161  24.527   1.329 -0.1315  0.2496 -0.2518
    1W        W50585  16.437  12.317   0.110 -0.1762 -0.1620 -0.0574
    1W        W50586  13.484  27.611   0.752  0.1668 -0.0349 -0.1465
    1W        W50587  19.744  27.449   3.312 -0.2898  0.2221  0.1534
    1W        W50588   7.192  12.161   7.418  0.0019  0.0357 -0.3316
    1W        W50589   8.328  12.208   7.393  0.0031 -0.0611  0.5179
    1W        W50590  27.950  22.971   8.328  0.1598  0.3043  0.2254
    1W        W50591  13.379  12.797   1.252  0.0109 -0.2010  0.0390
    1W        W50592  18.288   6.237   1.175  0.2196 -0.3108 -0.2725
    1W        W50593  23.763  13.368   1.869 -0.0836 -0.0586 -0.1786
    1W        W50594  14.284   0.943   2.010  0.3258  0.0957 -0.0072
    1W        W50595   3.729  20.579   6.826  0.3778 -0.3093  0.0922
    1W        W50596  17.516   2.473   9.645 -0.2755  0.1418 -0.3130
    1W        W50597  26.522   4.949   8.521 -0.4366  0.0289 -0.1425
    1W        W50598   7.053   3.511   1.755  0.0111  0.0996  0.1319
    1W        W50599  17.096   7.473   1.849  0.1813 -0.1625 -0.3023
    1W        W50600  13.592  18.770   0.685 -0.3477  0.0996 -0.2758
    1W        W50601  18.036  27.593   1.680 -0.1134 -0.0232 -0.1007
    1W        W50602   4.329  27.595   6.782  0.0301 -0.0502  0.0327
    1W        W50603   5.679   4.498   6.575 -0.0524  0.1910 -0.2069
    1W        W50604  12.726  16.915   9.069 -0.0990 -0.0938 -0.0650
    1W        W50605  16.922  23.972   9.316 -0.0831  0.1719  0.0382
    1W        W50606   6.335  26.221   8.523  0.0210  0.0012 -0.1561
    1W        W50607  10.878  26.329   6.274 -0.1806 -0.0272  0.1982
    1W        W50608  20.627  12.337   9.197 -0.0702 -0.4275  0.3213
    1W        W50609  26.310  24.486   8.254 -0.0272  0.2094 -0.0174
    1W        W50610  22.581   9.811   1.657 -0.1405  0.3765  0.1085
    1W        W50611   8.559   6.217   0.188 -0.1080 -0.2878 -0.0350
    1W        W50612   7.457   0.426   9.414 -0.1481 -0.2244  0.0665
    1W        W50613   4.905  18.157   7.304  0.2782  0.1419 -0.1710
    1W        W50614  25.786  27.913   8.436  0.1012  0.4037  0.2979
    1W        W50615  12.741   1.707   2.526  0.0027  0.0186  0.1097
    1W        W50616   3.584   6.719   7.144  0.1642 -0.2786  0.6172
    1W        W50617   8.606   0.118   8.230 -0.2257 -0.0140  0.1189
    1W        W50618  24.005  25.480   7.486  0.0870 -0.0698  0.5359
    1W        W50619  21.424   4.496   2.038 -0.0052  0.0901 -0.2440
    1W        W50620  27.027  23.158   0.676 -0.1941  0.0230  0.1003
    1W        W50621   9.970   8.647   1.861  0.1238  0.1697  0.0930
    1W        W50622   5.321   4.465   1.605 -0.2768 -0.0213 -0.1259
    1W        W50623  10.396  14.893   0.158  0.0303 -0.1215  0.1203
    1W        W50624  18.137   2.191   9.145  0.2979 -0.2159  0.2774
    1W        W50625   9.803   0.949   0.470 -0.0409 -0.1359  0.0259
    1W        W50626  23.383   0.019   9.055 -0.0580 -0.2385  0.0876
    1W        W50627  24.528   1.573   1.924  0.1167 -0.0472 -0.2050
    1W        W50628  24.021   9.536   2.450 -0.2192 -0.1050 -0.2714
    1W        W50629  19.324   9.295   8.404 -0.0924 -0.1161  0.1463
    1W        W50630  13.350  20.606   0.206 -0.0397  0.0985  0.0515
    1W        W50631  22.919  19.369   1.145  0.0594  0.0439 -0.0364
    1W        W50632  28.249   1.077   0.535 -0.1680 -0.1231 -0.0180
    1W        W50633   3.529   3.798   7.294 -0.0549 -0.0798 -0.0024
    1W        W50634   2.170  22.793   0.410  0.0112  0.2639 -0.2323
    1W        W50635  27.793  18.079   2.210  0.4140  0.1828  0.0972
    1W        W50636  27.514  19.349   2.648  0.0683 -0.1971 -0.0004
    1W        W50637  13.017  19.902   1.363 -0.0636  0.0841 -0.0561
    1W        W50638   6.596  24.619   7.366 -0.0821  0.0118  0.1764
    1W        W50639  29.579   6.602   1.760 -0.1070 -0.1827 -0.2688
    1W        W50640  12.945   2.820   9.467 -0.1026  0.0987  0.4388
    1W        W50641   3.048  18.489   0.295 -0.0369  0.0609  0.3412
    1W        W50642  13.864   3.997   9.470  0.0170 -0.0121  0.2995
    1W        W50643  25.462   4.092   0.127  0.2782 -0.1659 -0.0118
    1W        W50644  21.822   3.884   8.962  0.4470  0.1996  0.1278
    1W        W50645  18.591   6.458   1.494 -0.0016  0.0253 -0.0012
    1W        W50646  23.776  22.137   7.359  0.1113  0.3892  0.1108
    1W        W50647   5.614   5.706   8.851  0.0258 -0.3151  0.0890
    1W        W50648  19.048   4.744   7.853  0.0559 -0.0293  0.0066
    1W        W50649  18.085   6.249   2.771 -0.0994 -0.1423 -0.3202
    1W        W50650  21.543  28.900   0.191  0.3205 -0.0639  0.0909
    1W        W50651  19.498  14.998   2.451  0.4110  0.0843  0.3250
    1W        W50652  17.839   2.143   1.057  0.0152 -0.1648  0.1109
    1W        W50653  28.385  24.674   0.887  0.2001 -0.1181  0.0289
    1W        W50654  15.896  12.354   0.048 -0.4041 -0.1730  0.1104
    1W        W50655  15.268  23.814   7.892  0.0350  0.1119  0.2332
    1W        W50656  22.562  25.732   2.326 -0.0696 -0.1574  0.2697
    1W        W50657   8.303  28.658   1.882  0.0429 -0.2334  0.0760
    1W        W50658  22.622  12.136   2.453  0.0898  0.2530 -0.0794
    1W        W50659   9.522   0.298   6.980  0.0795  0.0905 -0.3343
    1W        W50660  18.091   7.132   8.433  0.0384  0.1711 -0.0161
    1W        W50661  20.492  17.333   0.871  0.0534  0.1440  0.2580
    1W        W50662  20.860  13.651   7.933  0.0976 -0.2736  0.0154
    1W        W50663  13.017  19.380   9.168  0.0764  0.1301  0.0369
    1W        W50664  10.644  20.999   2.380  0.0366  0.0570  0.1640
    1W        W50665  21.286  15.953   8.161  0.3201  0.1061 -0.1246
    1W        W50666  10.893  28.714   5.960 -0.0089 -0.1852 -0.2580
    1W        W50667  25.102  13.716   1.587  0.1851 -0.1324 -0.1006
    1W        W50668  15.513   3.756   1.789 -0.0585  0.2380 -0.0806
    1W        W50669  12.305   1.910   7.387 -0.3721  0.0560 -0.1528
    1W        W50670   2.186   8.036   5.317 -0.0766  0.1241  0.0109
    1W        W50671  10.906   1.733   6.770  0.0205  0.1334  0.1428
    1W        W50672   8.254   5.384   9.162 -0.0132  0.3125  0.0138
    1W        W50673  21.254  15.523   1.764 -0.1461 -0.2084 -0.0579
    1W        W50674   7.282  16.316   7.864  0.0851  0.0195  0.4313
    1W        W50675  21.192  27.552   1.385 -0.0337  0.0569  0.2188
    1W        W50676  22.354  24.845   3.087  0.1509  0.2393 -0.0516
    1W        W50677  20.044  25.799   2.536  0.2262 -0.0598  0.1025
    1W        W50678  15.854  18.907   1.017 -0.0624  0.0444 -0.1079
    1W        W50679  10.731   3.199   7.705  0.1191  0.1923  0.0890
    1W        W50680  22.781   8.071   8.713 -0.2413 -0.1832 -0.1995
    1W        W50681  24.338  24.002   2.563  0.0552  0.1590 -0.3644
    1W        W50682  10.318  16.538   2.310  0.1102 -0.0424  0.2182
    1W        W50683  28.241   6.195   6.471 -0.2110  0.1636 -0.0272
    1W        W50684  14.085  22.501   6.557 -0.0040 -0.1331 -0.0738
    1W        W50685  10.188  16.901   1.803  0.1300 -0.0040 -0.0427
    1W        W50686   1.465  22.729   8.556 -0.0290  0.2875 -0.1433
    1W        W50687   5.642  13.421   6.533  0.0420  0.1566  0.0033
    1W        W50688   7.322  19.014   0.100  0.2323 -0.1102 -0.2276
    1W        W50689   4.416  14.742   7.938  0.1860 -0.0125 -0.1375
    1W        W50690   4.444  18.774   0.118 -0.1069 -0.0944 -0.0645
    1W        W50691  22.534   3.248   1.376  0.2468  0.0163 -0.2236
    1W        W50692   1.794   3.487   8.056 -0.0165  0.0515 -0.1681
    1W        W50693   1.777   9.065   1.272  0.0723 -0.3164 -0.1394
    1W        W50694   0.281   9.725   1.755  0.1225 -0.0489  0.1448
    1W        W50695  21.916  26.369   8.023 -0.3230 -0.1131 -0.1584
    1W        W50696  26.045  20.462   7.469 -0.0885  0.0020 -0.3428
    1W        W50697  26.640   4.164   0.882 -0.0524 -0.0589  0.2254
    1W        W50698  13.976  16.319   9.241  0.0799  0.0196  0.0023
    1W        W50699  24.894  13.122   1.120  0.2664 -0.0534  0.2877
    1W        W50700  24.395  29.372   2.685 -0.1387  0.2036  0.0646
    1W        W50701  22.413   1.580   7.607 -0.0512  0.2577 -0.0845
    1W        W50702   5.508  24.044   3.557 -0.1099 -0.1284 -0.2593
    1W        W50703   9.798  23.451   6.657  0.2735  0.0931 -0.0647
    1W        W50704  27.118  24.473   2.251 -0.1181 -0.1613 -0.2651
    1W        W50705   1.054   8.893   8.916 -0.0408  0.0690  0.0036
    1W        W50706   7.830  15.143   0.777 -0.1397 -0.0851  0.3635
    1W        W50707  24.191  28.884   4.014  0.0509 -0.4543 -0.1842
    1W        W50708  10.932   3.315   6.675 -0.2778  0.1266  0.2089
    1W        W50709   9.113  20.920   2.307 -0.1458  0.3263  0.0377
    1W        W50710  26.171   0.649   2.926  0.1835 -0.2637 -0.0349
    1W        W50711  29.602  12.305   9.321 -0.1040  0.0859 -0.3289
    1W        W50712  15.950  14.788   9.011 -0.0176 -0.1917 -0.2912
    1W        W50713   0.280  12.274   0.871 -0.2378  0.0230 -0.1255
    1W        W50714  22.986  22.110   2.825  0.0346  0.1060 -0.2325
    1W        W50715   9.417  27.744   2.121  0.0984  0.3284  0.1300
    1W        W50716   1.380  23.280   2.568 -0.1213  0.0438  0.1316
    1W        W50717  27.845  14.308   0.227  0.1245 -0.1284  0.0398
    1W        W50718   6.150   2.219   7.279 -0.0419  0.1222 -0.2681
    1W        W50719   2.781  16.939   1.942 -0.0430  0.0349 -0.0478
    1W        W50720   4.400   2.698   2.660  0.1905  0.1996  0.3168
    1W        W50721  26.207  17.932   1.569  0.3459 -0.1564  0.2328
    1W        W50722  23.378  12.943   2.553 -0.1086  0.1734  0.0377
    1W        W50723   0.690  23.205   8.081 -0.2167  0.0647  0.4094
    1W        W50724  12.092   3.200   1.931 -0.1196  0.1249 -0.0580
    1W        W50725  14.956  25.203   7.930 -0.0024 -0.1323  0.2814
    1W        W50726   4.339  21.626   0.335 -0.0865 -0.1690 -0.1521
    1W        W50727   4.004  13.944   7.955 -0.1412  0.1499 -0.0448
    1W        W50728   5.555  11.562   8.793 -0.1695 -0.0976 -0.1352
    1W        W50729  22.490  20.747   1.344 -0.0636  0.0392  0.0269
    1W        W50730  26.449  22.389   0.818 -0.0693  0.3182 -0.3183
    1W        W50731   2.342  11.842   2.121  0.2085  0.0325 -0.1784
    1W        W50732   8.900  18.184   1.728 -0.1231 -0.0009 -0.0532
    1W        W50733  23.411   6.315   0.645  0.1771  0.2954  0.4203
    1W        W50734  12.502  17.336   7.945  0.2287 -0.1998 -0.0398
    1W        W50735  26.734  15.956   8.685 -0.0062  0.2343 -0.2008
    1W        W50736  27.801  18.285   7.268  0.0645 -0.2741 -0.0594
    1W        W50737  15.635   5.016   2.103 -0.0984 -0.2576 -0.1626
    1W        W50738  13.537   8.150   0.039 -0.0710  0.0480  0.1340
    1W        W50739  11.150  15.529   0.989 -0.2512  0.1827  0.1704
    1W        W50740  23.960   2.328   0.220 -0.0475 -0.0161 -0.2349
    1W        W50741   5.624  14.546   2.079 -0.3035 -0.1305 -0.0563
    1W        W50742   4.336  16.951   8.756  0.1759 -0.0349  0.0604
    1W        W50743  29.547  28.076   1.532  0.0372  0.1891 -0.1622
    1W        W50744   2.092  24.461   1.237  0.2043  0.1765  0.5017
    1W        W50745  19.280  25.564   4.359  0.2894  0.0661  0.0435
    1W        W50746   2.056  10.603   0.000 -0.1590 -0.0150 -0.0152
    1W        W50747  23.868   6.143   0.907 -0.3490  0.2410 -0.1919
    1W        W50748  16.666  17.765   6.515  0.5113  0.0351  0.0028
    1W        W50749  15.261  19.584   9.094 -0.2329  0.1340  0.0304
    1W        W50750   2.815   6.802   2.254 -0.1809 -0.1234  0.0043
    1W        W50751  11.167  15.931   9.038  0.2391  0.1809  0.0846
    1W        W50752   5.647   5.238   8.047 -0.1031 -0.3032 -0.3247
    1W        W50753  23.835  22.445   0.647  0.1625  0.2155  0.1708
    1W        W50754   0.060  23.805   0.112  0.0615  0.0916  0.0181
    1W        W50755   9.369   5.044   7.746 -0.0064  0.2233  0.0149
    1W        W50756   5.762   8.753   6.239 -0.0224 -0.1830 -0.0721
    1W        W50757   7.535  14.802   6.543 -0.0059 -0.0339 -0.1539
    1W        W50758  16.888  21.551   2.422 -0.0089  0.0136 -0.2599
    1W        W50759  13.555  11.231   7.546 -0.1124  0.1110 -0.2171
    1W        W50760  13.053  21.121   8.751 -0.3013  0.2819 -0.0194
    1W        W50761   7.727  14.708   8.103 -0.0746 -0.2173  0.0956
    1W        W50762  23.817  16.511   7.754 -0.1790  0.0739 -0.3378
    1W        W50763  15.453   2.079   2.186  0.1142 -0.2958 -0.0926
    1W        W50764   2.445   2.823   6.754 -0.0464  0.1109  0.1975
    1W        W50765   4.857  28.221   1.515 -0.0562 -0.3204  0.0119
    1W        W50766   7.637   2.163   9.527 -0.0614 -0.0958 -0.2708
    1W        W50767  28.318  12.002   0.153  0.1880 -0.1134 -0.1680
    1W        W50768   9.759  29.142   7.929 -0.2739 -0.3528 -0.2731
    1W        W50769  24.132  27.652   1.939  0.1994  0.0307 -0.2558
    1W        W50770   8.929  15.570   2.852 -0.0804 -0.0885  0.0110
    1W        W50771  26.959   4.493   9.349 -0.2241 -0.1083 -0.1830
    1W        W50772   6.822  18.928   9.576 -0.0523  0.0133 -0.1553
    1W        W50773  19.115  24.701   1.502  0.2165  0.0683 -0.1493
    1W        W50774  22.719  28.577   1.486 -0.0549  0.1308 -0.0046
    1W        W50775  27.319  22.619   1.710 -0.1144 -0.0695 -0.3937
    1W        W50776  14.765   1.718   1.626 -0.2348  0.1986  0.1610
    1W        W50777   0.110  14.739   2.879 -0.0200 -0.0734  0.0671
    1W        W50778  27.041   3.759   8.152  0.0384  0.2573  0.2982
    1W        W50779  22.991   2.477   1.300  0.2177 -0.3438 -0.0445
    1W        W50780  11.434  28.453   9.303  0.1210  0.2432  0.0184
    1W        W50781   2.035   7.822   0.032 -0.2987 -0.2657 -0.0222
    1W        W50782   4.586  12.680   7.462 -0.0673  0.2469 -0.1079
    1W        W50783  22.078  16.860   8.109  0.1759  0.3110  0.2035
    1W        W50784   3.675  25.476   3.510 -0.0371 -0.1341  0.2824
    1W        W50785  17.815  10.771   6.990 -0.2337 -0.0505 -0.2916
    1W        W50786  13.321  21.819   8.161 -0.0824 -0.0226 -0.0067
    1W        W50787  16.940   2.954   7.617  0.0694 -0.1922  0.2096
    1W        W50788  17.980  25.221   8.735 -0.1135  0.2681 -0.4575
    1W        W50789  28.052  23.230   0.605 -0.0916  0.2378  0.2168
    1W        W50790   6.429   3.312   0.651  0.2728 -0.2483  0.0134
    1W        W50791  26.456  29.527   7.524 -0.0793 -0.2812  0.1903
    1W        W50792  14.178   1.828   8.523 -0.1557 -0.0938 -0.1142
    1W        W50793   4.220   2.932   6.721 -0.0149  0.1549  0.1271
    1W        W50794   7.123  12.233   1.606 -0.0368 -0.1487  0.0009
    1W        W50795  26.137   2.825   2.125 -0.1112  0.0617  0.0247
    1W        W50796   1.221  11.801   8.048  0.0226 -0.1717  0.0324
    1W        W50797   7.797  20.890   2.503 -0.0021  0.3359 -0.1483
    1W        W50798   8.317  21.378   6.976  0.3487 -0.1634 -0.3287
    1W        W50799  15.516   5.546   0.370 -0.1843 -0.1051  0.1672
    1W        W50800  22.121  11.375   2.489 -0.1529 -0.0156 -0.1143
    1W        W50801  19.327  11.731   9.099  0.0106  0.0982  0.1685
    1W        W50802   3.263   1.050   8.650  0.3566  0.1298 -0.0078
    1W        W50803  27.008   7.144   1.664 -0.0185 -0.0011 -0.0081
    1W        W50804  18.721  20.330   0.663  0.1768 -0.2051  0.0877
    1W        W50805  11.484   0.003   2.742  0.1669 -0.3741  0.0349
    1W        W50806   4.453  12.156   1.203  0.0571  0.1439 -0.0504
    1W        W50807   0.790   5.183   6.733 -0.0720 -0.0119  0.0159
    1W        W50808   9.947  22.855   1.834 -0.1360 -0.1474 -0.0615
    1W        W50809   7.526  23.348   8.261  0.0279  0.0539 -0.2369
    1W        W50810  23.221   1.641   8.602 -0.3253  0.0419  0.1969
    1W        W50811  10.374   8.885   7.409  0.2739  0.2755 -0.3717
    1W        W50812  13.859  21.026   8.118  0.1791 -0.1221  0.0732
    1W        W50813  10.780   0.342   6.341  0.1779  0.2678  0.1107
    1W        W50814   3.239  23.612   0.762 -0.2780  0.1110 -0.1107
    1W        W50815  26.886  18.980   8.189  0.0269  0.1706 -0.1197
    1W        W50816  17.516   5.723   6.337  0.2992 -0.0362  0.2883
    1W        W50817   8.646   6.921   1.343  0.5657 -0.0780  0.1819
    1W        W50818  22.545   9.689   2.259  0.0111  0.3440  0.1522
    1W        W50819   0.730  19.529   3.331  0.0190 -0.3508 -0.0601
    1W        W50820   3.372  15.997   8.433  0.2865  0.2884  0.0167
    1W        W50821  27.093  17.583   7.028 -0.0777  0.1902 -0.1923
    1W        W50822  27.427   7.841   8.103  0.1506 -0.0774 -0.1080
    1W        W50823  18.642   6.727   9.524 -0.0973 -0.2049  0.0711
    1W        W50824  24.213  27.054   3.479 -0.0577  0.0248 -0.1754
    1W        W50825  27.171  15.676   0.706 -0.1960  0.0357 -0.0852
    1W        W50826  28.071  26.082   6.894  0.1731 -0.0114  0.0297
    1W        W50827  26.073   3.075   0.113 -0.1052 -0.0477  0.1146
    1W        W50828  25.008   5.754   8.525 -0.0724 -0.1144  0.1842
    1W        W50829  14.691  12.720   0.403 -0.1218 -0.1625 -0.2411
    1W        W50830   9.983   3.449   6.244 -0.0245 -0.1572 -0.0477
    1W        W50831   0.049   6.689   1.249  0.1636 -0.0592  0.0429
    1W        W50832   9.928   1.973   1.899  0.1546  0.3535  0.4304
    1W        W50833  27.661   4.576   6.938 -0.4297  0.1869 -0.0374
    1W        W50834  15.511  12.089   0.055 -0.0439 -0.0462  0.1689
    1W        W50835  10.571   4.669   7.558  0.0437 -0.2019 -0.1382
    1W        W50836  22.348   7.215   9.055  0.0014 -0.0363 -0.2343
    1W        W50837  19.901  11.974   0.648  0.2629  0.3038 -0.2776
    1W        W50838   7.110   8.547   1.371  0.1752 -0.3126  0.1525
    1W        W50839  15.785   0.883   9.469  0.0325  0.0260 -0.5112
    1W        W50840   5.512  11.839   2.028  0.1475 -0.1344  0.0223
    1W        W50841  26.690  20.261   0.462  0.2045  0.2298  0.0768
    1W        W50842  10.923  18.892   7.928 -0.0595 -0.4122  0.1251
    1W        W50843  18.663  26.314   4.615 -0.1191 -0.1631 -0.0810
    1W        W50844  24.355  24.186   1.588 -0.1899  0.2063  0.0978
    1W        W50845  26.360  22.968   9.213 -0.0980 -0.1574  0.1779
    1W        W50846  15.151   8.462   0.988 -0.2005 -0.0303  0.3549
    1W        W50847   9.865   9.291   3.086 -0.1480  0.0066  0.3339
    1W        W50848  18.932  26.650   7.408 -0.1444 -0.1674  0.1548
    1W        W50849  28.901  26.646   6.808  0.0000  0.0105 -0.0985
    1W        W50850   7.709   3.766   6.494  0.0470 -0.3970  0.1909
    1W        W50851  13.109   2.978   8.972 -0.4643  0.0240  0.2544
    1W        W50852   4.480  16.103   8.760  0.3556  0.1849  0.0750
    1W        W50853  25.455   5.460   1.528  0.0147  0.0206  0.2336
    1W        W50854  28.892   0.963   7.439  0.2134 -0.0606  0.2087
    1W        W50855   5.421   2.880   0.229  0.0182  0.0972 -0.2942
    1W        W50856  11.765   9.887   9.634  0.0835  0.0714 -0.1118
    1W        W50857  11.023  17.973   6.452  0.0410  0.1755  0.0454
    1W        W50858  25.657   3.341   1.471 -0.0390 -0.0960  0.2184
    1W        W50859  20.930   0.081   7.412  0.1141  0.2152  0.0736
    1W        W50860  29.489  22.488   8.769  0.1617  0.1978  0.0044
    1W        W50861  11.441  10.688   2.451 -0.0314 -0.1800  0.1084
    1W        W50862  23.387  27.146   8.606  0.0867 -0.4939  0.2078
    1W        W50863   1.470  27.217   8.587 -0.0902 -0.1112 -0.0275
    1W        W50864   4.086  17.282   8.454  0.3020 -0.0860  0.3221
    1W        W50865   2.851   5.018   1.779 -0.3664 -0.0632  0.1868
    1W        W50866  26.576  23.226   0.494  0.0980 -0.1364  0.3908
    1W        W50867  27.584  18.905   7.353 -0.2460  0.0003  0.3067
    1W        W50868  14.355  24.174   9.347 -0.3557  0.2276 -0.0185
    1W        W50869  10.836  24.146   0.914  0.0163 -0.0924 -0.3046
    1W        W50870   4.355  22.528   2.449 -0.2095  0.2616  0.0400
    1W        W50871   9.760  15.585   8.695 -0.0299  0.0561 -0.2678
    1W        W50872  25.849  13.044   1.531 -0.0737 -0.0419  0.1529
    1W        W50873  22.212  19.439   0.009  0.1786  0.0468  0.1486
    1W        W50874  27.708   5.480   6.657 -0.3333  0.0473  0.2880
    1W        W50875   8.669  15.868   0.527  0.0162  0.1538 -0.4735
    1W        W50876  12.502   5.330   5.711  0.2992 -0.1568  0.1279
    1W        W50877   3.424  24.653   3.000 -0.2181 -0.2885 -0.0483
    1W        W50878  18.024  23.278   9.119 -0.3926 -0.1744 -0.0317
    1W        W50879   2.312   7.228   5.399 -0.0928 -0.3884  0.4128
    1W        W50880  16.037   3.503   0.605  0.1249  0.1419  0.1668
    1W        W50881   0.947   4.306   1.366 -0.1869  0.0804 -0.1192
    1W        W50882  12.740   3.955   7.541 -0.1950 -0.2240 -0.0576
    1W        W50883   4.321  13.054   8.336 -0.2452 -0.0481  0.0307
    1W        W50884   8.456  19.208   8.005  0.0772 -0.0188 -0.1105
    1W        W50885  14.440  16.735   1.218  0.0469 -0.3973 -0.0335
    1W        W50886   5.520  20.193   2.139 -0.1746  0.1824  0.2990
    1W        W50887  13.261  28.990   0.928  0.0384  0.0140  0.0501
    1W        W50888  10.826  12.165   6.131 -0.2017  0.3101 -0.1831
    1W        W50889   0.905  11.091   7.584 -0.0407  0.1714 -0.2344
    1W        W50890  28.207  10.686   1.189  0.1768 -0.0098 -0.3031
    1W        W50891  27.329   5.462   2.616  0.0107  0.2285  0.0675
    1W        W50892  24.383   4.591   9.023 -0.1661  0.1287  0.0050
    1W        W50893  24.484  23.753   1.280  0.1918 -0.0591  0.0798
    1W        W50894   7.634  23.809   2.621  0.1574 -0.1209  0.0567
    1W        W50895  22.955  16.931   1.193 -0.3164  0.0991  0.1603
    1W        W50896   2.509  28.333   8.270  0.2716  0.1339 -0.0003
    1W        W50897  15.718  16.236   8.299 -0.0613 -0.0535  0.0069
    1W        W50898   2.478  22.971   1.398  0.1331  0.2192  0.3398
    1W        W50899   2.984  17.948   6.887 -0.0016  0.0229 -0.2654
    1W        W50900  18.403   0.964   3.064  0.2751 -0.3221  0.0031
    1W        W50901   9.931  28.907   1.325 -0.2039  0.1920  0.0991
    1W        W50902  26.736   6.361   2.154 -0.2277  0.2520 -0.1385
    1W        W50903   7.446   5.571   0.435  0.0434 -0.1554  0.0885
    1W        W50904  29.134   0.493   7.058 -0.1714 -0.2846 -0.0649
    1W        W50905   4.612  26.379   2.366  0.0862  0.0253  0.2152
    1W        W50906  25.767  17.420   7.394  0.1643  0.0168 -0.1149
    1W        W50907  16.930  10.269   9.468  0.0296  0.3187  0.1433
    1W        W50908  19.033  29.243   0.483 -0.3131  0.2732 -0.0912
    1W        W50909  15.930  12.577   3.270  0.0161 -0.1783  0.2228
    1W        W50910   5.829  13.386   8.281 -0.0337  0.0875  0.0126
    1W        W50911   7.712  14.441   9.370  0.1218 -0.1617 -0.1173
    1W        W50912  20.450   4.570   0.596 -0.0278  0.3559  0.0683
    1W        W50913  19.686   2.586   7.389 -0.0287  0.1559  0.1397
    1W        W50914  23.659  15.649   1.438 -0.1676 -0.0586 -0.1601
    1W        W50915  14.701  24.145   0.575  0.0265  0.1053 -0.2287
    1W        W50916  22.685  19.894   7.795  0.2117  0.2792  0.2466
    1W        W50917  22.342  22.709   8.675  0.1812 -0.0521  0.0354
    1W        W50918  20.513  20.764   0.567 -0.1911 -0.1811 -0.1922
    1W        W50919   7.060  29.604   1.808 -0.1234 -0.0398  0.2680
    1W        W50920   3.894   8.232   8.227  0.0243  0.2261  0.0069
    1W        W50921  22.284  23.457   1.752  0.0244  0.0457 -0.1954
    1W        W50922  18.173  21.657   3.738  0.0535 -0.1093  0.0868
    1W        W50923  29.207  20.301   0.443 -0.1073 -0.2947 -0.0228
    1W        W50924   8.730   0.976   1.204 -0.0267 -0.1572 -0.2339
    1W        W50925  20.152  15.359   8.188 -0.2474  0.1476 -0.2717
    1W        W50926   9.791  21.170   6.633  0.0846 -0.1515  0.1246
    1W        W50927   4.504  24.466   9.584 -0.3067  0.0297  0.1114
    1W        W50928  11.814  12.817   7.836 -0.0002 -0.3634 -0.1409
    1W        W50929  27.833  20.891   9.526 -0.0323  0.0563  0.0226
    1W        W50930  11.283  17.540   6.425 -0.1747 -0.4155 -0.0364
    1W        W50931   9.622   5.923   1.522  0.2986 -0.0477  0.1403
    1W        W50932   4.859   6.886   1.436 -0.2872 -0.0623 -0.2208
    1W        W50933  13.224   5.452   2.773 -0.0808  0.2428  0.1777
    1W        W50934  22.916  18.857   1.055 -0.0120  0.2308  0.1365
    1W        W50935   0.508  12.208   9.374 -0.0234  0.2232  0.0553
    1W        W50936   8.333  29.524   1.314  0.3397 -0.0744  0.1683
    1W        W50937  13.276   5.353   7.046 -0.2261 -0.1900  0.1152
    1W        W50938  18.377  23.483   0.115 -0.0626  0.1805 -0.3627
    1W        W50939  28.236   8.058   7.876 -0.3856  0.0344 -0.1327
    1W        W50940  12.194  27.596   0.487 -0.0668  0.0494  0.0953
    1W        W50941   4.407  11.057   6.012  0.0783 -0.0076 -0.1724
    1W        W50942  26.881  12.853   0.216  0.2376  0.3094 -0.1710
    1W        W50943  15.071  20.705   9.118  0.0878  0.1257 -0.0285
    1W        W50944   2.513  25.857   2.581 -0.0387  0.0939  0.0824
    1W        W50945  28.486  19.294   9.259  0.1035  0.0150 -0.1038
    1W        W50946   3.732  15.138   8.353 -0.0437  0.3394 -0.2086
    1W        W50947  20.114   6.454   1.113 -0.0197  0.0899  0.3066
    1W        W50948  28.298   0.914   8.919 -0.3774  0.0706 -0.3509
    1W        W50949  22.957  19.025   0.329 -0.0280  0.1598 -0.3083
    1W        W50950  29.167   8.146   0.409  0.0678 -0.1804  0.0959
    1W        W50951   3.985  13.078   6.917  0.2323  0.1137 -0.3842
    1W        W50952   4.056  20.467   2.298  0.2459 -0.0204 -0.0053
    1W        W50953  23.325  19.173   7.677 -0.2314  0.2308  0.0777
    1W        W50954   8.019  14.065   9.197  0.1230  0.1713  0.0389
    1W        W50955   7.465  17.275   7.452 -0.1313 -0.2194 -0.1641
    1W        W50956  21.130   4.811   7.749  0.1790 -0.0015 -0.1430
    1W        W50957   2.306  10.568   8.463 -0.1323 -0.1138  0.1059
    1W        W50958  24.958  18.313   6.935 -0.0395  0.0889 -0.0691
    1W        W50959  19.333  19.657   2.736  0.0823 -0.1705  0.1479
    1W        W50960  28.935  13.125   9.119  0.4398  0.1583 -0.2503
    1W        W50961   4.336  22.497   1.532 -0.0874 -0.0724 -0.2163
    1W        W50962  22.411   1.088   9.382 -0.2920  0.1384 -0.1127
    1W        W50963  26.255   2.721   1.629 -0.4154  0.2087  0.0641
    1W        W50964  25.775  22.037   8.712  0.0231  0.0988  0.0454
    1W        W50965  27.034  28.212   6.762  0.2647  0.0131  0.1019
    1W        W50966  25.191  18.230   2.889 -0.0341 -0.3287  0.0801
    1W        W50967   6.651   5.954   9.263 -0.1992 -0.0983  0.2415
    1W        W50968   6.690  17.801   7.594 -0.1245 -0.2736 -0.1496
    1W        W50969   2.043  12.565   0.276 -0.0768 -0.1427  0.2429
    1W        W50970   3.559  17.455   2.083  0.0159 -0.1523  0.1444
    1W        W50971  20.489   2.485   2.457 -0.0745  0.1082  0.2432
    1W        W50972  29.105   0.211   2.200  0.1575 -0.0704  0.2284
    1W        W50973   7.101  11.363   1.394  0.1343  0.1024  0.0264
    1W        W50974   6.727  24.999   7.680 -0.4936  0.1130 -0.2289
    1W        W50975  15.166  20.815   7.063 -0.3719 -0.2170  0.2773
    1W        W50976  12.198  13.058   8.202  0.0807 -0.0845 -0.2496
    1W        W50977  24.813  29.216   1.557  0.0315 -0.1561 -0.2040
    1W        W50978  12.426   5.638   7.258 -0.0649 -0.1918 -0.2908
    1W        W50979  21.229   1.131   0.458  0.3344  0.0380  0.0978
    1W        W50980  26.508   7.278   2.527 -0.1440  0.1152  0.0180
    1W        W50981  23.198  13.138   8.905 -0.0530  0.0184  0.1885
    1W        W50982  17.149   3.269   9.058  0.0324  0.1951 -0.1948
    1W        W50983  28.384   2.322   7.769 -0.2491  0.1272  0.2336
    1W        W50984  26.053  10.351   7.106 -0.0400  0.1530 -0.1662
    1W        W50985  29.002  16.881   3.509  0.1387  0.2414 -0.2027
    1W        W50986   7.285  20.564   7.243 -0.1031  0.3296  0.1024
    1W        W50987  14.514  29.336   9.245 -0.0277  0.1432  0.0132
    1W        W50988   4.179  14.040   1.350  0.1860 -0.1323 -0.0500
    1W        W50989  20.427  22.053   0.595 -0.2227  0.1088 -0.1051
    1W        W50990   4.916  26.876   3.249 -0.3893 -0.0034  0.1265
    1W        W50991  11.441  23.797   2.272 -0.1206 -0.2108  0.1728
    1W        W50992   2.780   7.483   6.903 -0.1002  0.0593 -0.1168
    1W        W50993  22.828   5.143   2.102  0.2670 -0.3138  0.0079
    1W        W50994   2.783  28.635   2.385 -0.0369  0.1213 -0.1546
    1W        W50995   7.821   7.051   0.855  0.3679  0.3779  0.0908
    1W        W50996  15.366   4.210   6.461 -0.1418 -0.1495  0.0508
    1W        W50997  26.443   1.567   3.109  0.2751  0.1727  0.1445
    1W        W50998  13.684  25.080   6.725  0.0036 -0.2072 -0.1306
    1W        W50999   2.491  22.032   9.405  0.0081 -0.2136 -0.1416
    1W        W51000  11.196  15.449   5.780 -0.0854 -0.3076  0.2676
    1W        W51001  20.338  20.047   9.063 -0.0294 -0.0768  0.0810
    1W        W51002  18.754  24.365   1.591  0.1084 -0.0755 -0.0156
    1W        W51003  24.629  22.616   3.844 -0.2412 -0.0334  0.1871
    1W        W51004  20.990  17.119   0.464  0.0159 -0.2911 -0.0684
    1W        W51005  22.695  18.677   1.674  0.2574  0.0346  0.1524
    1W        W51006  23.048  21.546   1.233 -0.0474 -0.1668 -0.0588
    1W        W51007   6.279  11.143   1.229 -0.0704  0.0668  0.1705
    1W        W51008   2.994   6.710   0.205 -0.3240  0.1955 -0.1248
    1W        W51009   8.637   2.762   7.422 -0.1424 -0.0722  0.2174
    1W        W51010  24.290  20.738   2.989 -0.1811  0.0972 -0.1363
    1W        W51011   8.040  11.030   7.119  0.0976 -0.0086 -0.1009
    1W        W51012  19.440   9.251   1.931 -0.1031 -0.3009 -0.1569
    1W        W51013  18.445   9.793   1.661 -0.1515 -0.0570  0.1274
    1W        W51014   2.868  22.390   4.111  0.2720  0.2050 -0.2000
    1W        W51015   9.736  12.662   1.602  0.1009 -0.0624  0.1776
    1W        W51016   5.577  17.645   8.676 -0.2705  0.2300  0.3257
    1W        W51017   4.631  21.481   9.049 -0.1497  0.0301 -0.1006
    1W        W51018  25.024  26.123   1.620 -0.1984  0.1440  0.0774
    1W        W51019  13.699  11.696   7.183 -0.1205 -0.1116  0.0945
    1W        W51020   4.010   1.988   6.923  0.2139 -0.0108 -0.1607
    1W        W51021  24.443  11.214   0.768  0.2202 -0.2342  0.0700
    1W        W51022   0.812   6.788   8.259  0.0339  0.2649 -0.1874
    1W        W51023  10.425  28.406   2.041  0.1471  0.0332  0.1945
    1W        W51024   7.767   1.642   1.555 -0.1859  0.1048  0.0927
    1W        W51025  17.772  25.781   3.082 -0.3465  0.0364  0.0198
    1W        W51026   3.800  15.379   1.209 -0.1531  0.1731  0.0900
    1W        W51027  19.174  15.375   2.322  0.0082 -0.1331 -0.0616
    1W        W51028  17.911   5.089   1.036 -0.3805  0.1401  0.0908
    1W        W51029   3.547  17.022   9.565  0.1342 -0.1666 -0.2655
    1W        W51030  29.073   7.429   6.906 -0.1557  0.2758 -0.0822
    1W        W51031  16.334   8.783   0.514 -0.0376  0.0249 -0.0989
    1W        W51032  27.290  28.831   2.851 -0.0530  0.0449 -0.0035
    1W        W51033  14.461   4.038   2.754 -0.0024 -0.0969 -0.3496
    1W        W51034  23.900   0.521   0.404  0.0626  0.3471 -0.1913
    1W        W51035  19.564  14.364   8.848  0.2905  0.2093 -0.3058
    1W        W51036   2.182   9.824   8.380 -0.0034 -0.1655  0.0020
    1W        W51037  11.948   3.186   6.910  0.0648  0.1211  0.2488
    1W        W51038  27.368  14.941   2.325  0.1690  0.0972  0.1904
    1W        W51039  10.942   3.976   0.037 -0.5352  0.0327  0.0534
    1W        W51040  12.774   6.968   9.098  0.0079 -0.0120  0.4371
    1W        W51041   6.592  15.968   7.701 -0.2065 -0.4624 -0.1428
    1W        W51042   8.473   2.004   1.849 -0.1042 -0.1232 -0.2778
    1W        W51043   1.789   8.085   8.247  0.1209  0.1446  0.1886
    1W        W51044  17.897  17.759   7.154 -0.3748  0.2217  0.1611
    1W        W51045  20.837  20.583   2.484 -0.2566  0.1352 -0.4389
    1W        W51046  22.878   4.428   8.524 -0.2623 -0.0792 -0.0572
    1W        W51047  18.832   0.548   1.777  0.1916  0.1694 -0.0144
    1W        W51048  27.498  18.557   8.566  0.2269  0.2812  0.0355
    1W        W51049   0.480   0.119   2.864 -0.0733 -0.5371 -0.1557
    1W        W51050   9.971  20.744   9.123  0.0786  0.0350 -0.0727
    1W        W51051   1.364   9.743   0.823  0.2054  0.1281  0.2716
    1W        W51052   9.323  12.331   1.759 -0.1158 -0.1140 -0.0629
    1W        W51053   7.815  25.587   7.339 -0.0533  0.0519  0.2807
    1W        W51054  25.332  18.065   3.563  0.1516  0.1725 -0.0070
    1W        W51055  21.158  14.577   7.860  0.0139 -0.2444  0.0538
    1W        W51056  21.530  24.660   8.591  0.1924  0.1449  0.1175
    1W        W51057   9.170  12.901   1.058  0.3809 -0.1917  0.2142
    1W        W51058  22.441  15.468   2.317  0.0756  0.3593  0.1466
    1W        W51059  27.720  24.559   8.779  0.1581 -0.0895  0.0072
    1W        W51060  16.710  22.527   1.409 -0.1469 -0.3321 -0.1300
    1W        W51061   9.751  27.278   9.594 -0.1116  0.0053 -0.0237
    1W        W51062   8.189  15.959   8.824 -0.1305  0.0031  0.2175
    1W        W51063  28.964  27.532   3.146 -0.0238 -0.0681 -0.1042
    1W        W51064  16.088  12.956   0.906  0.1736  0.2234  0.1924
    1W        W51065   3.484   5.201   8.232 -0.0872  0.2159  0.0494
    1W        W51066  22.705  18.592   8.077 -0.1232  0.1228 -0.1871
    1W        W51067   0.438  26.997   1.230  0.0578  0.2109  0.2488
    1W        W51068  14.710  29.610   0.121 -0.0292  0.0899 -0.0525
    1W        W51069  17.915   5.401   2.173  0.1333  0.2810 -0.0540
    1W        W51070  10.830   5.855   8.047  0.1263 -0.1718  0.1095
    1W        W51071  24.016   3.592   7.000 -0.0249 -0.0896  0.1686
    1W        W51072   3.633   2.221   6.567  0.4293  0.2408 -0.1890
    1W        W51073  27.845  26.278   0.590 -0.1295 -0.0868 -0.0282
    1W        W51074   2.534  25.144   2.142 -0.2301 -0.1139 -0.1212
    1W        W51075  20.820  10.855   1.310  0.2956 -0.1478 -0.0888
    1W        W51076  27.622   8.184   0.049 -0.1618  0.1169  0.1920
    1W        W51077  14.774   8.140   9.335 -0.1585  0.2870  0.2257
    1W        W51078   9.495   0.555   0.589  0.2230  0.1370 -0.2362
    1W        W51079   6.236   4.472   7.117  0.3446 -0.0170  0.0705
    1W        W51080   3.018  14.358   0.571  0.1031  0.0614 -0.2043
    1W        W51081  15.420   5.707   7.200  0.3175 -0.2070  0.3583
    1W        W51082  12.767  10.345   8.478  0.2271 -0.1395 -0.3610
    1W        W51083  15.742   4.037   1.429  0.1351 -0.0329  0.0685
    1W        W51084   6.006  12.924   0.497 -0.0487 -0.2916 -0.0357
    1W        W51085  16.076   1.166   0.482 -0.1156 -0.3396 -0.0072
    1W        W51086   4.435  28.134   1.834 -0.0061  0.1266  0.0500
    1W        W51087  21.538  21.238   8.102 -0.0016 -0.0596  0.1153
    1W        W51088  12.154  18.148   7.843  0.2576  0.0901 -0.2297
    1W        W51089  24.229   0.629   9.327 -0.4291  0.0472 -0.2457
    1W        W51090   2.797   2.490   8.825 -0.1063  0.0050  0.4636
    1W        W51091   2.043  20.014   7.532 -0.1330 -0.1418 -0.0972
    1W        W51092  25.388  22.060   3.936  0.2599  0.0805  0.0574
    1W        W51093  29.142   5.270   1.977  0.0160 -0.1403  0.3967
    1W        W51094   3.961  18.266   0.509  0.1654  0.1348 -0.0804
    1W        W51095   8.246  20.679   2.740  0.1373 -0.1299 -0.3295
    1W        W51096   0.088  22.639   2.710  0.1953  0.1227  0.2012
    1W        W51097   8.850   7.491   2.402 -0.3482  0.0925  0.0379
    1W        W51098   2.347   2.686   1.960  0.1548 -0.1253 -0.2416
    1W        W51099  20.754  24.366   4.065 -0.0345 -0.0045  0.0207
    1W        W51100  27.434  28.991   9.287  0.0397  0.0355 -0.1013
    1W        W51101  29.362   3.889   0.732 -0.1764 -0.1993 -0.1041
    1W        W51102   0.666   3.059   1.891 -0.0901 -0.1314  0.2492
    1W        W51103  21.075  25.785   9.377  0.1089  0.0613 -0.0581
    1W        W51104  22.755  27.538   3.543 -0.1006 -0.1085  0.2413
    1W        W51105  20.321  16.783   7.577  0.0621  0.1158 -0.0463
    1W        W51106  10.700  24.350   1.336 -0.1216 -0.1509  0.0899
    1W        W51107   5.386  20.571   7.958 -0.1772  0.0606  0.3848
    1W        W51108  16.910   5.328   2.071  0.0580  0.1608 -0.3494
    1W        W51109  25.150  23.210   4.113  0.0238  0.1284  0.3561
    1W        W51110  22.309  15.451   8.886  0.1742  0.0819  0.1935
    1W        W51111   2.633  16.742   0.581 -0.1299 -0.3860 -0.1175
    1W        W51112  13.604  17.837   2.191  0.2970 -0.1759 -0.1826
    1W        W51113   1.353   4.736   0.747  0.2135 -0.0944  0.1321
    1W        W51114   3.956  18.437   1.346 -0.1681 -0.1499 -0.1373
    1W        W51115  29.136   9.929   0.979  0.3234  0.2482  0.2407
    1W        W51116  13.956  21.009   1.367  0.0278 -0.0992  0.1565
    1W        W51117   9.273  21.099   0.805 -0.1171  0.0103  0.1518
    1W        W51118  12.629  13.055   1.791  0.1475 -0.0372  0.2095
    1W        W51119  17.226  27.488   2.538  0.0712  0.2130  0.0655
    1W        W51120  20.689  11.202   9.293  0.0004  0.1040 -0.0097
    1W        W51121  13.621  14.450   1.379  0.2486 -0.2884  0.2469
    1W        W51122  11.016  19.409   2.215  0.0811 -0.2380  0.0422
    1W        W51123  10.763  15.268   6.463 -0.0801 -0.0078 -0.2455
    1W        W51124   8.976   6.707   8.567  0.2182 -0.0840  0.1618
    1W        W51125  20.003  19.245   3.356 -0.0047  0.2151  0.3305
    1W        W51126  15.567  24.083   8.720  0.0681  0.0360  0.1783
    1W        W51127   2.372  23.152   8.523  0.2758 -0.1007  0.4854
    1W        W51128  19.250  14.554   2.394  0.1301 -0.1047  0.0985
    1W        W51129   1.756  11.225   7.936  0.1572  0.0828  0.1112
    1W        W51130  16.790  27.713   2.421  0.2188 -0.0473 -0.1148
    1W        W51131   9.125  28.232   0.333  0.1644  0.1605  0.5204
    1W        W51132  25.795  29.284   0.002 -0.1319 -0.0441 -0.0295
    1W        W51133  11.923   7.663   9.255  0.2557 -0.0956  0.2818
    1W        W51134  11.872  27.112   0.286 -0.0292 -0.0953  0.0167
    1W        W51135   5.520  28.274   0.551  0.0888  0.1650  0.1388
    1W        W51136  21.824   6.387   8.246  0.0244  0.2320 -0.0594
    1W        W51137  25.969  16.330   7.053  0.4031  0.1972 -0.0208
    1W        W51138   0.826  27.531   3.206  0.0367  0.0383  0.0103
    1W        W51139  22.549   5.318   9.444  0.2141 -0.1870 -0.0814
    1W        W51140   7.251  25.328   3.221 -0.3267  0.0039  0.3101
    1W        W51141  16.264  18.351   1.643 -0.0369 -0.0163 -0.0237
    1W        W51142   4.568  22.152   0.742 -0.1870  0.0355  0.1460
    1W        W51143  13.395  28.694   9.038 -0.1041  0.1794 -0.0172
    1W        W51144   0.623   1.863   1.860 -0.0151 -0.0197  0.0297
    1W        W51145  12.565  27.219   7.779  0.4248 -0.1298 -0.1186
    1W        W51146   5.395   6.117   8.049  0.2941  0.2164  0.4365
    1W        W51147  18.288  10.865   2.130 -0.0920 -0.0638 -0.0226
    1W        W51148   0.918  21.239   7.849  0.3277  0.1850 -0.0107
    1W        W51149  12.586  15.779   0.789  0.1159 -0.1220  0.0411
    1W        W51150   1.276  20.844   7.951  0.0379 -0.1080 -0.0339
    1W        W51151  25.904  19.998   9.033 -0.1128  0.1433  0.1952
    1W        W51152   6.654  26.422   1.833 -0.1403  0.1517 -0.1550
    1W        W51153  21.808  18.478   1.503 -0.1194  0.2182 -0.0239
    1W        W51154  11.262   2.441   8.096 -0.1735  0.0160 -0.2425
    1W        W51155  20.184   4.498   8.424 -0.2503  0.0081 -0.1567
    1W        W51156  14.330  13.698   0.534 -0.2386  0.2485 -0.1760
    1W        W51157   4.304  26.863   8.534  0.1738  0.0973  0.4627
    1W        W51158  17.536  11.516   2.200  0.1343 -0.3289  0.0757
    1W        W51159   9.097   8.074   5.933  0.2423  0.2037  0.1202
    1W        W51160   4.150   7.398   6.587 -0.1884 -0.3204 -0.0995
    1W        W51161  16.436  14.797   0.164 -0.0896 -0.0195  0.0700
    1W        W51162   3.435  23.440   2.767 -0.1876 -0.0028 -0.0407
    1W        W51163  12.463   3.256   0.965  0.2557  0.1475 -0.2093
    1W        W51164  12.735  14.924   9.522 -0.1808  0.0640 -0.3405
    1W        W51165   0.894  13.891   7.479 -0.0595  0.4120  0.0781
    1W        W51166   1.613  10.828   6.372 -0.1206  0.3280  0.0845
    1W        W51167  23.143  23.780   3.072 -0.1149 -0.1223 -0.1854
    1W        W51168  12.014  10.281   0.869 -0.0890 -0.0264 -0.3544
    1W        W51169  27.497  28.376   2.637  0.0324  0.0310 -0.0157
    1W        W51170  13.726  11.960   9.278 -0.4607 -0.0535 -0.3722
    1W        W51171   0.571  27.016   2.297 -0.0827  0.0059 -0.4806
    1W        W51172   6.582  28.103   6.498 -0.0311  0.2384 -0.0760
    1W        W51173   6.868  14.212   6.543  0.1094  0.0526 -0.2319
    1W        W51174  24.460  23.468   1.922 -0.1208 -0.0691 -0.3571
    1W        W51175   7.812   5.744   6.338  0.2866 -0.0454 -0.2513
    1W        W51176  15.316  27.125   0.315 -0.0261  0.3180 -0.0258
    1W        W51177  27.668   9.676   2.583  0.1295 -0.2621  0.4064
    1W        W51178   6.510  12.545   5.883 -0.0717 -0.1993  0.2305
    1W        W51179  25.549   0.571   0.045  0.1919  0.1928 -0.0777
    1W        W51180  18.073  15.557   1.888 -0.1702 -0.0247  0.1235
    1W        W51181  16.521  16.037   7.716 -0.1164  0.1283 -0.0653
    1W        W51182  16.011   7.983   7.190  0.0215  0.2318  0.1891
    1W        W51183  28.800  25.315   7.389  0.1979 -0.1549 -0.1659
    1W        W51184  28.971  14.910   0.735 -0.2129 -0.0735 -0.1715
    1W        W51185   1.022  14.878   6.622 -0.3922  0.0033  0.2530
    1W        W51186  23.639  21.406   0.224 -0.0974 -0.2656  0.1462
    1W        W51187  21.547   7.171   7.562  0.0175  0.5121 -0.3217
    1W        W51188  15.548   4.150   7.763 -0.2883  0.3582  0.1317
    1W        W51189  14.060   7.478   1.021  0.2661 -0.0380 -0.1623
    1W        W51190  24.104  14.235   1.404 -0.0749 -0.3196 -0.0287
    1W        W51191   6.638   4.269   6.761  0.0192 -0.0515  0.3680
    1W        W51192  14.322  12.017   9.162 -0.0894 -0.1865  0.0977
    1W        W51193  18.956  16.802   8.357  0.0204 -0.1733 -0.1339
    1W        W51194  13.240  17.081   2.422  0.0866 -0.0032  0.0406
    1W        W51195   8.370   7.755   8.553  0.0628  0.2510  0.2157
    1W        W51196  14.365  19.630   6.574  0.2157  0.1084  0.2231
    1W        W51197  26.099   4.610   8.034 -0.0608 -0.3426 -0.0858
    1W        W51198   9.784   6.658   7.431 -0.3163 -0.1829 -0.3617
    1W        W51199   1.159   2.797   0.590  0.4042 -0.1885  0.3450
    1W        W51200  20.367   0.942   2.589  0.1093  0.0572 -0.1645
    1W        W51201   9.552  20.905   8.564  0.0004  0.0508  0.1141
    1W        W51202  29.365  10.986   8.391  0.0570 -0.1484  0.2157
    1W        W51203  18.884  23.710   2.186  0.0384 -0.1954  0.1354
    1W        W51204  23.259   8.569   1.717  0.1349 -0.0096 -0.1406
    1W        W51205   1.339   5.981   6.845 -0.0996  0.1995 -0.0258
    1W        W51206   6.076  22.861   9.643 -0.0016 -0.1125 -0.1861
    1W        W51207  12.010   7.364   2.173 -0.0678  0.1993  0.0217
    1W        W51208  25.063  11.079   9.426  0.2658  0.1477 -0.1431
    1W        W51209  11.862   7.446   0.947  0.0300  0.1871  0.2167
    1W        W51210  29.070   3.485   0.452  0.1978  0.0643 -0.0223
    1W        W51211   5.808  25.450   0.374  0.1360 -0.1233 -0.1166
    1W        W51212  26.189  12.629   7.947 -0.0075 -0.1100 -0.2056
    1W        W51213  22.778  20.849   1.740 -0.2538  0.2890 -0.0661
    1W        W51214  29.300   4.792   0.960  0.3912  0.0324  0.0995
    1W        W51215  29.584  26.985   7.497  0.2994 -0.0801 -0.0142
    1W        W51216  17.777  27.950   1.419  0.1017 -0.0664 -0.4611
    1W        W51217  14.158  15.592   2.164  0.2188 -0.0130  0.2339
    1W        W51218   3.557  21.387   3.004  0.0445  0.2995 -0.1317
    1W        W51219  16.969  10.197   1.216  0.0286  0.1794  0.3527
    1W        W51220  17.683  17.396   8.439  0.0809 -0.2943 -0.2435
    1W        W51221   2.926   7.038   6.187  0.2568  0.1577  0.2509
    1W        W51222  10.965  12.695   8.003 -0.1451  0.1183 -0.1754
    1W        W51223   5.697  14.258   8.090  0.1646 -0.0588  0.1241
    1W        W51224  27.531  21.524   8.209 -0.1062  0.0296 -0.0699
    1W        W51225  16.482  27.894   9.069  0.0222 -0.2114  0.2206
    1W        W51226  15.516  10.373   7.299 -0.1169 -0.1280 -0.0359
    1W        W51227   2.987  24.918   3.097 -0.0540  0.2369  0.0670
    1W        W51228  22.677   4.132   8.118 -0.4448 -0.0312  0.2077
    1W        W51229   7.146   0.513   7.617  0.0704 -0.0493 -0.1727
    1W        W51230  25.387   6.776   0.725  0.0808  0.0243  0.0533
    1W        W51231  17.833  11.602   1.412 -0.0626  0.0242  0.1343
    1W        W51232   9.690   8.535   7.322  0.1941  0.0930  0.1695
    1W        W51233  22.714   7.511   9.179  0.0466 -0.3360 -0.1285
    1W        W51234  21.179  22.270   8.529  0.4052 -0.2108 -0.1731
    1W        W51235   2.146   4.620   0.488 -0.2484  0.0087  0.1092
    1W        W51236   8.780  19.873   7.158 -0.1633  0.0798 -0.2577
    1W        W51237  26.222  28.818   1.779  0.2717 -0.1162  0.2162
    1W        W51238  11.206  13.687   0.200  0.2354  0.1522 -0.0082
    1W        W51239  13.317  24.788   1.278  0.0153  0.0749  0.0929
    1W        W51240  14.788   7.703   8.755  0.1889 -0.3917  0.0729
    1W        W51241  12.839  20.638   2.016 -0.0454 -0.1489  0.0181
    1W        W51242  17.930   5.334   7.494 -0.4184 -0.1564 -0.0753
    1W        W51243   2.250  23.417   8.061  0.0852 -0.3299 -0.1877
    1W        W51244   6.054  27.398   7.039  0.1991 -0.0358 -0.2577
    1W        W51245  11.854   5.665   0.978 -0.1374  0.1033  0.2461
    1W        W51246  24.655  27.233   8.157  0.0419 -0.1559  0.0538
    1W        W51247  13.037   7.127   7.897 -0.0304 -0.0203  0.1533
    1W        W51248  22.452  27.759   2.724 -0.1146  0.3247  0.0441
    1W        W51249   7.760   1.126   1.362  0.0616  0.0777 -0.1299
    1W        W51250  24.464  28.362   1.186  0.1024 -0.0650 -0.0019
    1W        W51251  25.125   1.504   1.132  0.0435  0.0398  0.2145
    1W        W51252  22.096  17.668   8.922 -0.2032  0.0792  0.1740
    1W        W51253  23.048  13.517   2.627 -0.1910 -0.4616  0.0628
    1W        W51254  22.203  15.497   0.734 -0.1008  0.0037  0.0127
    1W        W51255  10.921  16.301   8.786 -0.0279  0.2074 -0.0726
    1W        W51256  15.062  14.529   7.127  0.0631 -0.0323  0.2130
    1W        W51257  22.223  13.473   1.090  0.3005  0.0370 -0.1391
    1W        W51258  14.866  25.923   8.061  0.0329  0.0602 -0.0129
    1W        W51259   6.376  16.182   1.686 -0.0804 -0.3088 -0.1163
    1W        W51260   8.224  29.335   9.510 -0.0458  0.2001  0.2377
    1W        W51261  14.151  21.280   1.846  0.0958  0.1231  0.2655
    1W        W51262  17.387  21.448   9.602  0.1722 -0.0197  0.1314
    1W        W51263   2.285  15.149   8.813 -0.0143  0.3363  0.0131
    1W        W51264  17.186  21.131   1.619 -0.3409  0.0744 -0.0747
    1W        W51265   3.613  29.051   1.123 -0.0730  0.1634  0.1944
    1W        W51266  16.485  29.279   7.358  0.1139  0.2090 -0.2167
    1W        W51267   8.979  12.214   2.395  0.0701  0.1125  0.5658
    1W        W51268  18.079  14.344   9.175  0.0449 -0.0224  0.0241
    1W        W51269   3.342  15.148   9.616  0.0169 -0.0574  0.1203
    1W        W51270  13.070  27.738   1.063  0.0839 -0.0240 -0.2706
    1W        W51271  20.747  21.728   1.451  0.0621 -0.3403 -0.1813
    1W        W51272  23.340   9.030   0.635  0.2057  0.0199  0.0084
    1W        W51273  25.193  20.819   1.362 -0.0467  0.2458 -0.1152
    1W        W51274  25.076  22.580   8.406  0.1971 -0.4225 -0.0460
    1W        W51275   7.719  23.528   3.487  0.1209 -0.0145 -0.2135
    1W        W51276  29.339  22.284   2.346 -0.1829  0.0394  0.1075
    1W        W51277   2.555   3.817   2.467 -0.5975  0.0331  0.3010
    1W        W51278  14.628   6.827   3.001 -0.0938  0.1091  0.1199
    1W        W51279   3.063  27.848   9.597 -0.0642  0.2437  0.5478
    1W        W51280   5.647   4.173   0.684  0.0008  0.1107 -0.1008
    1W        W51281  11.395  15.073   7.937 -0.0225 -0.0553  0.0905
    1W        W51282  20.672   6.413   9.552  0.1672  0.2768  0.1899
    1W        W51283   3.754  22.425   2.502 -0.1716  0.0009 -0.0589
    1W        W51284   0.547  11.871   0.137 -0.0317 -0.1068 -0.1416
    1W        W51285  12.039   2.321   2.028  0.2247  0.1271 -0.0891
    1W        W51286  22.744  12.129   7.897 -0.0399 -0.0294 -0.1570
    1W        W51287  22.488  18.093   3.271  0.0381  0.0008 -0.1146
    1W        W51288   0.739  18.934   3.549  0.1206 -0.1525 -0.3530
    1W        W51289   1.012  21.961   4.105 -0.1560 -0.0834  0.0744
    1W        W51290  20.535  25.140   3.044 -0.1168 -0.1487  0.3299
    1W        W51291  14.668   6.779   1.494 -0.0586  0.0126 -0.2180
    1W        W51292   5.938  17.798   9.529 -0.2531  0.4229 -0.2029
    1W        W51293   1.459  26.930   9.040  0.0762 -0.1993  0.0378
    1W        W51294  11.944  17.722   2.255  0.1916 -0.2310 -0.2647
    1W        W51295   6.215  17.266   1.802 -0.2431 -0.2962  0.0323
    1W        W51296   8.215  18.143   1.377  0.2264  0.0300  0.2055
    1W        W51297  11.238  28.234   7.366 -0.2209 -0.0842  0.2329
    1W        W51298  28.882   0.299   1.364 -0.4173  0.2786 -0.4371
    1W        W51299   9.289  13.816   1.963 -0.4215 -0.2798 -0.1062
    1W        W51300   6.002   8.693   7.872  0.1363  0.0744  0.0002
    1W        W51301   5.987   7.474   2.199  0.0120 -0.1049  0.0977
    1W        W51302  25.051   8.952   0.541 -0.2474  0.1048  0.2044
    1W        W51303  26.805   6.179   7.224  0.1151  0.0568 -0.0807
    1W        W51304  27.648  19.863   2.618  0.3352 -0.2667  0.0939
    1W        W51305  23.857  27.882   7.189  0.0289  0.0436  0.1149
    1W        W51306   1.610   6.007   0.107 -0.1671 -0.1054  0.1808
    1W        W51307   8.472  22.787   2.713 -0.3376 -0.1399 -0.2537
    1W        W51308  19.464   6.108   8.077  0.1285 -0.0364  0.1619
    1W        W51309  28.011   4.966   6.698  0.1657  0.4119 -0.2187
    1W        W51310  28.502  14.278   7.652 -0.2412  0.0172 -0.2531
    1W        W51311   9.118   8.049   7.560 -0.0578 -0.1952  0.2506
    1W        W51312  11.990   8.909   1.064  0.1259 -0.0943 -0.3758
    1W        W51313   8.613  10.229   2.256  0.0942 -0.1223 -0.0448
    1W        W51314  11.669   2.330   6.500 -0.1105 -0.0856  0.1913
    1W        W51315   8.367   5.695   9.561  0.0629  0.1520  0.0138
    1W        W51316  26.858   5.627   9.401  0.1907  0.1347 -0.0654
    1W        W51317  18.648   8.686   0.158  0.1921  0.1798 -0.2262
    1W        W51318  24.937  25.912   8.928  0.1873  0.4735 -0.1091
    1W        W51319   9.706  28.137   6.682  0.0357  0.1478 -0.2421
    1W        W51320  24.329  12.291   9.516 -0.0862  0.2588  0.0739
    1W        W51321  27.193   2.008   8.804 -0.1246 -0.1247  0.1281
    1W        W51322  29.037  24.267   0.057  0.0625  0.0277  0.1463
    1W        W51323   6.778   7.569   7.439  0.0774  0.1093 -0.1086
    1W        W51324  23.522  13.543   8.860  0.2373 -0.0178 -0.0760
    1W        W51325  16.180  23.022   1.656 -0.1784 -0.2083 -0.2240
    1W        W51326  28.549  25.024   9.083  0.0590 -0.1186  0.1456
    1W        W51327   6.264  14.342   0.988  0.1271  0.2512 -0.1025
    1W        W51328   5.182  17.157   1.730 -0.0863  0.2065  0.0991
    1W        W51329  29.344  28.000   1.034 -0.0217 -0.0864 -0.1554
    1W        W51330  16.578  22.554   7.429 -0.0538  0.1523 -0.1260
    1W        W51331   7.910  27.865   9.148 -0.1064 -0.0962  0.0701
    1W        W51332  13.215  22.160   8.617 -0.0149  0.2102  0.0467
    1W        W51333  23.984  23.253   2.862  0.0028 -0.2525 -0.0213
    1W        W51334   9.336  20.820   1.766 -0.1044 -0.0780 -0.0140
    1W        W51335  13.800  22.012   1.456  0.2003 -0.2006 -0.0135
    1W        W51336   0.425   5.559   8.772 -0.2114  0.0920 -0.0432
    1W        W51337   6.286  24.990   1.960  0.1308 -0.2682  0.3244
    1W        W51338  28.405   6.608   0.391  0.0560 -0.1017  0.1088
    1W        W51339  18.242   0.048   0.263  0.0923  0.1486 -0.0675
    1W        W51340  12.881   6.425   9.075  0.1329 -0.3549  0.1741
    1W        W51341  11.069   6.935   0.814  0.2285 -0.1148 -0.1165
    1W        W51342  17.556   1.133   1.778 -0.1777 -0.0143 -0.1466
    1W        W51343  22.335  12.568   2.542 -0.0808 -0.0094  0.0229
    1W        W51344  20.866  22.052   1.080  0.0431 -0.1479  0.3633
    1W        W51345  22.502   3.741   0.681  0.0605  0.2520  0.1352
    1W        W51346  10.209   1.236   0.289 -0.0909 -0.1823  0.2945
    1W        W51347  13.971   2.660   8.857 -0.5778 -0.1187 -0.0041
    1W        W51348   8.262  22.088   7.379 -0.0578 -0.0450  0.1470
    1W        W51349  20.188  20.110   1.707  0.1699 -0.5344  0.0347
    1W        W51350  17.687   8.331   1.660 -0.0897  0.5519 -0.2591
    1W        W51351  25.476   3.975   7.547  0.1073  0.1059  0.4568
    1W        W51352  10.955  28.168   5.965 -0.1481 -0.0620  0.0828
    1W        W51353   9.348   9.252   9.061 -0.0252  0.0229  0.1016
    1W        W51354  23.044   4.536   1.764 -0.0023  0.0222  0.3481
    1W        W51355  14.950   1.210   0.235 -0.2316  0.0138  0.3652
    1W        W51356  16.832   0.346   6.824  0.0009 -0.0368  0.3274
    1W        W51357  11.235  21.989   8.164  0.0998  0.1540  0.0506
    1W        W51358  28.106   6.015   9.271 -0.0882 -0.2996 -0.0444
    1W        W51359  13.111  27.666   9.274 -0.0539 -0.0461  0.0724
    1W        W51360   2.096   9.135   6.244  0.3823  0.0840  0.1455
    1W        W51361  23.665   7.341   1.605  0.1909  0.2533 -0.0503
    1W        W51362  15.847   1.935   0.859 -0.2831 -0.0409 -0.1553
    1W        W51363  25.637   1.067   8.513  0.1120 -0.1839 -0.1491
    1W        W51364  17.776   4.046   7.469  0.0222  0.0017  0.1152
    1W        W51365  15.583  17.585   0.244  0.4388 -0.2732 -0.0019
    1W        W51366  14.737  20.915   7.764 -0.1455  0.1461  0.1425
    1W        W51367  11.481  16.970   0.924  0.3659  0.1658 -0.1560
    1W        W51368  22.911   0.254   7.027  0.2598  0.0940 -0.1000
    1W        W51369  21.855  25.262   7.538  0.0912  0.1841 -0.3698
    1W        W51370  21.965  27.129   0.852  0.0865 -0.0948 -0.0961
    1W        W51371  20.937  13.416   0.716  0.0748  0.2953 -0.1779
    1W        W51372  11.353  10.057   7.585 -0.0332 -0.1766  0.2832
    1W        W51373  28.577  25.221   9.546 -0.5131  0.4000 -0.2949
    1W        W51374   9.265  26.577   6.871  0.1646 -0.1951 -0.0184
    1W        W51375  20.744  27.330   8.459  0.2026 -0.1979 -0.0692
    1W        W51376   3.560   4.400   1.280 -0.2527  0.0173 -0.3780
    1W        W51377  25.538  11.428   2.362 -0.0203 -0.0661 -0.1772
    1W        W51378  16.748  28.812   9.248 -0.0346  0.0238  0.2004
    1W        W51379   5.012  15.448   8.780 -0.1840 -0.0738 -0.0028
    1W        W51380  25.505   5.929   9.088 -0.4638  0.1774  0.0986
    1W        W51381  24.609  21.461   9.323 -0.1010  0.1059 -0.1249
    1W        W51382  25.251  18.701   0.558 -0.2174  0.0599 -0.3393
    1W        W51383  19.523   5.792   2.335 -0.0990 -0.2059 -0.0984
    1W        W51384  19.280  10.853   9.048 -0.0397 -0.1927  0.2009
    1W        W51385  16.098  25.281   2.747 -0.0368 -0.1116 -0.0696
    1W        W51386  20.247   9.438   9.017  0.2945  0.1708 -0.0647
    1W        W51387   1.362  15.486   8.962  0.0374  0.0603  0.1653
    1W        W51388  19.706   3.497   0.244  0.0070  0.3468  0.0847
    1W        W51389  17.297  10.229   9.059 -0.0798 -0.1080  0.0123
    1W        W51390   0.322   0.738   2.325 -0.2051  0.2245 -0.1755
    1W        W51391  24.054  17.917   7.113 -0.0261  0.2111 -0.0919
    1W        W51392   4.668  24.820   2.114  0.0414  0.4116  0.0542
    1W        W51393  13.039  22.598   8.396 -0.3720  0.1739  0.0244
    1W        W51394   3.274  21.372   1.139  0.0769 -0.0104 -0.2066
    1W        W51395  11.485   6.851   0.543  0.1562 -0.1340 -0.0197
    1W        W51396  14.352   7.531   0.138 -0.3036  0.0689  0.1774
    1W        W51397  23.174   8.761   1.060 -0.1058 -0.3325 -0.1068
    1W        W51398  13.766   8.190   2.501  0.0615 -0.2112  0.2837
    1W        W51399   9.696  28.677   7.741 -0.0686 -0.3581 -0.0535
    1W        W51400  14.156  13.354   1.528  0.0796 -0.1079  0.0710
    1W        W51401  20.686  24.479   8.349 -0.1010 -0.5458 -0.0400
    1W        W51402  10.662   2.994   1.538 -0.0742 -0.1939  0.0718
    1W        W51403  29.373  17.204   8.630 -0.2258 -0.3001  0.0363
    1W        W51404  27.463  12.211   1.428  0.2816  0.1549  0.0391
    1W        W51405  23.072  19.996   0.515 -0.0192  0.1035 -0.2361
    1W        W51406  15.596  15.507   9.267 -0.0512  0.0725 -0.1783
    1W        W51407   5.488   8.730   7.116 -0.1474 -0.2210  0.0818
    1W        W51408   9.603   8.121   0.369 -0.1227 -0.0956  0.0713
    1W        W51409  24.218  21.433   8.284  0.0019  0.0908  0.1591
    1W        W51410  14.234  24.293   6.706 -0.1298  0.1461 -0.1307
    1W        W51411  21.492  13.048   7.180  0.0203  0.1229  0.4908
    1W        W51412  24.117   6.379   7.569 -0.2509  0.2127 -0.1281
    1W        W51413  14.610  24.865   7.192  0.0709  0.2778 -0.4019
    1W        W51414   6.251  14.449   1.984 -0.1758 -0.0985 -0.1071
    1W        W51415  15.401  20.130   6.994 -0.0327 -0.1415  0.1157
    1W        W51416  16.621  25.803   0.908  0.1279 -0.0052 -0.1506
    1W        W51417  29.200  15.239   7.480 -0.0983 -0.1179  0.0162
    1W        W51418  14.507  13.672   1.817  0.0240  0.1273  0.0220
    1W        W51419  10.085  25.684   8.726 -0.1404 -0.0562 -0.1027
    1W        W51420   1.186  13.454   7.406 -0.0346 -0.0063 -0.2596
    1W        W51421  27.133  29.318   9.605 -0.2303  0.1128  0.1489
    1W        W51422  23.097  17.797   2.772 -0.1530  0.1479 -0.2236
    1W        W51423  22.776  17.421   1.157 -0.2063  0.0804  0.0943
    1W        W51424   6.730   6.334   6.392 -0.0496  0.2482  0.2100
    1W        W51425  26.896  21.877   2.514 -0.2967  0.0042  0.1063
    1W        W51426  11.930  16.715   2.988 -0.3541  0.1611 -0.1243
    1W        W51427  17.004  29.014   7.788  0.2673  0.2595 -0.1589
    1W        W51428   2.656  29.497   9.061  0.1395  0.0605 -0.4308
    1W        W51429   2.820   1.590   1.857  0.2526  0.0208  0.2891
    1W        W51430   3.678  17.961   1.608 -0.1001  0.1303  0.1258
    1W        W51431   7.409  22.472   8.097 -0.1251  0.1451 -0.0244
    1W        W51432   7.423   6.549   6.721  0.1483 -0.1395  0.2510
    1W        W51433  14.526   4.460   6.512 -0.2048 -0.1268  0.2241
    1W        W51434  22.946  11.993   0.885 -0.4033 -0.3512  0.2293
    1W        W51435  13.475   4.945   6.513  0.3894 -0.0447  0.1128
    1W        W51436  29.606   4.310   7.595  0.1062 -0.0951 -0.1689
    1W        W51437  14.212  26.581   0.008 -0.0488 -0.1651  0.1650
    1W        W51438   5.918  21.402   0.338 -0.0322 -0.2155 -0.1512
    1W        W51439  20.175   2.445   8.575  0.0732 -0.2737  0.2696
    1W        W51440  15.041  25.115   2.458 -0.1648  0.0143  0.3926
    1W        W51441  17.737   5.620   1.737 -0.0830 -0.0860 -0.0561
    1W        W51442  17.620  27.678   8.136  0.3774  0.1024  0.1190
    1W        W51443  24.911  18.929   9.253  0.0239 -0.0491 -0.2586
    1W        W51444   9.435  29.166   0.673 -0.0017 -0.1105  0.2961
    1W        W51445   2.914  25.270   1.855  0.4938 -0.1819 -0.2153
    1W        W51446   2.818  21.982   7.547 -0.0311  0.1158  0.2036
    1W        W51447  27.248   3.401   9.118 -0.1613  0.0957  0.0330
    1W        W51448  27.956  22.128   2.264  0.1531  0.0081 -0.1124
    1W        W51449  29.443  11.932   7.931  0.0503  0.0631 -0.0770
    1W        W51450   0.810  11.909   7.037 -0.6823  0.3717  0.1418
    1W        W51451  19.606  25.103   8.170  0.0730 -0.1162  0.1617
    1W        W51452   5.142  13.667   1.272 -0.1182 -0.3240 -0.2881
    1W        W51453  21.367   0.527   0.492  0.1166  0.1926  0.1165
    1W        W51454  22.590   3.534   9.150  0.1433 -0.1889 -0.0223
    1W        W51455  25.861  14.099   0.767  0.0593 -0.0232 -0.1346
    1W        W51456  28.132  21.117   7.537 -0.0597  0.1093  0.3035
    1W        W51457  18.454  27.995   3.618 -0.1771 -0.0236 -0.1119
    1W        W51458  21.136  14.407   8.348  0.3750  0.3899 -0.0354
    1W        W51459   4.474  25.808   1.710  0.0746  0.1845  0.1754
    1W        W51460  26.829  23.938   9.384  0.0474 -0.0583  0.0176
    1W        W51461  20.419  25.621   3.796  0.0294  0.2539  0.2435
    1W        W51462   1.538  20.609   1.815  0.0138 -0.0683 -0.0482
    1W        W51463  21.440  19.428   8.739 -0.1793  0.0140 -0.0596
    1W        W51464  10.007  15.454   1.749  0.1003  0.1397  0.1835
    1W        W51465  14.638  23.885   0.121 -0.1399  0.2286 -0.0304
    1W        W51466  25.624  15.650   7.215 -0.1733 -0.0167 -0.1979
    1W        W51467   2.518   6.586   9.579 -0.3748 -0.0007 -0.0376
    1W        W51468  25.530  19.666   0.266  0.0148 -0.1031  0.0505
    1W        W51469  28.534  15.920   9.061  0.3019 -0.4115  0.2373
    1W        W51470  10.331  17.575   7.664 -0.2715 -0.2543 -0.0891
    1W        W51471   3.223   2.941   7.566  0.1564 -0.5341 -0.0171
    1W        W51472   1.884  13.316   2.244  0.2383  0.0296 -0.0813
    1W        W51473  14.819  26.356   7.064  0.5114 -0.1852 -0.1474
    1W        W51474   8.574  18.493   8.121 -0.1495  0.1194 -0.2128
    1W        W51475   3.785   9.603   7.193  0.0812 -0.3800  0.1822
    1W        W51476   0.942   4.174   7.483  0.4810  0.1990 -0.3815
    1W        W51477  10.850  13.889   0.996 -0.4804  0.3993 -0.0503
    1W        W51478  12.749  28.805   1.662 -0.1454 -0.1281 -0.0329
    1W        W51479   4.368   3.195   1.013  0.4900 -0.1080  0.1022
    1W        W51480  10.591  20.894   0.492  0.0518  0.0486  0.1936
    1W        W51481  21.408   1.204   9.572  0.0096  0.0405  0.2018
    1W        W51482  24.318  28.652   7.620 -0.0080 -0.2164  0.0356
    1W        W51483  15.799  12.344   1.585 -0.2738  0.0772  0.3068
    1W        W51484  28.034   6.176   7.467 -0.4010  0.2663  0.5709
    1W        W51485   5.286  18.192   8.845 -0.0862 -0.1237  0.2377
    1W        W51486   7.892  26.536   0.292 -0.3782  0.1634  0.0700
    1W        W51487   0.190   1.739   7.682 -0.2115  0.3721  0.0808
    1W        W51488  23.055  21.252   2.550  0.1629  0.0398  0.1603
    1W        W51489  27.132  14.655   9.007  0.2365 -0.0869  0.2104
    1W        W51490  20.522   9.177   0.573  0.0108  0.1726 -0.2735
    1W        W51491   7.137   2.018   2.086 -0.0531  0.2463  0.1642
    1W        W51492   4.896  10.878   9.009  0.0686 -0.2224 -0.0186
    1W        W51493   4.464  16.421   6.995  0.2073  0.0628 -0.1141
    1W        W51494   0.363  22.180   2.466 -0.3053 -0.0114  0.3036
    1W        W51495  11.273  17.108   0.443 -0.0482  0.1773  0.0767
    1W        W51496   3.507   0.183   9.379  0.3118  0.0961  0.0459
    1W        W51497   8.368  16.416   6.777 -0.1091 -0.1380 -0.2570
    1W        W51498  13.030  16.331   0.645 -0.0955  0.2628  0.1293
    1W        W51499   6.203  29.262   8.427 -0.1998  0.1659 -0.1065
    1W        W51500   4.895   7.095   0.562  0.1215  0.1258 -0.1456
    1W        W51501   9.856  16.468   0.612  0.1470  0.0294 -0.0580
    1W        W51502  28.888  22.284   1.561 -0.1718 -0.4117  0.0620
    1W        W51503   1.429   9.662   8.896  0.0538 -0.2680  0.1771
    1W        W51504   2.188  15.713   6.934 -0.3262 -0.0528  0.1633
    1W        W51505  19.605   0.219   9.479  0.0020 -0.0960 -0.2190
    1W        W51506   0.436   5.436   0.715  0.3082 -0.1021 -0.2347
    1W        W51507   9.111   2.006   7.910  0.0924  0.0194  0.2488
    1W        W51508  29.311   2.083   8.116 -0.3072  0.0512  0.3042
    1W        W51509   7.649  26.517   0.811  0.3067 -0.1375  0.1415
    1W        W51510  18.008  29.433   7.928 -0.3009 -0.0085 -0.2185
    1W        W51511   1.438   9.028   7.236 -0.1931 -0.1115 -0.0890
    1W        W51512  14.878  27.166   0.754 -0.0159  0.3866  0.1805
    1W        W51513   4.362  17.401   0.286 -0.0707  0.2703 -0.1103
    1W        W51514   1.459  15.414   8.351 -0.1679 -0.2434  0.1432
    1W        W51515  18.489  10.739   1.342 -0.1614  0.0648  0.1010
    1W        W51516  28.385  17.801   8.535 -0.1547  0.0885 -0.0579
    1W        W51517  27.238  12.960   8.571  0.1568 -0.2920 -0.0388
    1W        W51518  14.264  21.993   0.374 -0.0937 -0.1515 -0.1543
    1W        W51519   8.288   0.414   7.914 -0.1411 -0.1425  0.2374
    1W        W51520  12.991   0.706   0.164 -0.0305  0.1596  0.0709
    1W        W51521  28.887   5.880   1.508 -0.3534  0.1738  0.1952
    1W        W51522  17.658  27.774   7.599  0.0476  0.1371 -0.4616
    1W        W51523   7.805  24.232   7.448  0.2444  0.0808  0.2729
    1W        W51524  26.900  19.298   1.110  0.3109  0.1943 -0.2865
    1W        W51525  23.828  21.860   0.042  0.0105  0.0951 -0.1725
    1W        W51526  23.777  11.622   8.078 -0.0942 -0.0540  0.1660
    1W        W51527   8.480  23.344   7.445  0.0717 -0.0732 -0.1593
    1W        W51528  18.936  11.979   9.017  0.0383  0.0714  0.0620
    1W        W51529  20.618   2.933   1.704  0.0496  0.0559 -0.1165
    1W        W51530   1.067   5.944   7.744 -0.2289 -0.0673 -0.0832
    1W        W51531  24.175  22.702   2.072 -0.0373  0.1856  0.0164
    1W        W51532   6.940  26.635   6.874 -0.0320  0.1418 -0.1223
    1W        W51533   1.807  15.306   2.210 -0.1849  0.0798  0.3343
    1W        W51534  20.969  15.432   9.421  0.1838 -0.1541  0.1552
    1W        W51535  11.570   6.956   1.100 -0.0755 -0.2560  0.2018
    1W        W51536   4.851   2.954   8.407  0.1065  0.0286 -0.0132
    1W        W51537   9.723   6.034   6.622  0.1080  0.4093  0.0381
    1W        W51538  10.575  23.832   1.310  0.1593  0.0815 -0.1439
    1W        W51539  18.796   8.736   2.425  0.0780 -0.0682  0.1604
    1W        W51540  16.878  23.343   2.507 -0.2448 -0.0975 -0.1847
    1W        W51541  12.036   4.670   0.855  0.0006  0.3224 -0.2335
    1W        W51542  26.839   9.136   0.882  0.1340  0.3628 -0.2471
    1W        W51543  23.619  12.938   1.384  0.0081  0.1622  0.2048
    1W        W51544  16.968  25.226   3.074  0.2346 -0.0460 -0.1618
    1W        W51545  23.346   5.357   8.291 -0.1547 -0.0676 -0.2325
    1W        W51546  24.500   2.309   1.304  0.1742 -0.0443 -0.1332
    1W        W51547   1.086   6.590   8.614 -0.3556  0.0258 -0.1903
    1W        W51548   1.735  17.313   7.542 -0.0654 -0.0147  0.0255
    1W        W51549   0.826   5.362   2.377  0.1506 -0.2608 -0.1482
    1W        W51550   3.742  11.918   1.694 -0.0693 -0.0775  0.0940
    1W        W51551  27.325  18.453   2.266 -0.0360  0.2422 -0.1264
    1W        W51552  23.361  27.804   6.869 -0.0278  0.0395  0.2014
    1W        W51553   7.655  21.918   1.565  0.0339  0.3100 -0.0328
    1W        W51554  19.242  27.067   0.450 -0.1630 -0.0505 -0.0252
    1W        W51555  14.105  23.735   7.164 -0.1907  0.4466  0.0696
    1W        W51556  25.836  25.622   1.762  0.3344  0.0303 -0.4793
    1W        W51557  25.353   2.417   2.460  0.2892  0.2603 -0.0717
    1W        W51558  13.668  22.569   9.319 -0.2748 -0.3508 -0.0442
    1W        W51559   8.242  19.931   8.493 -0.2013 -0.2767 -0.0840
    1W        W51560  25.674   3.843   8.499  0.3536 -0.1041  0.0287
    1W        W51561  15.411   9.600   2.165 -0.3228 -0.3424  0.0214
    1W        W51562  25.913  23.127   9.333 -0.0386  0.3769 -0.1054
    1W        W51563  18.905   2.848   2.275 -0.0521 -0.0362  0.3296
    1W        W51564   2.862  26.021   0.808 -0.0900  0.0356  0.2375
    1W        W51565   9.261   1.476   1.862 -0.2536  0.1210  0.2646
    1W        W51566  15.238  28.725   2.959 -0.3664 -0.0509  0.0731
    1W        W51567  21.921   3.017   1.033  0.1274 -0.0948 -0.1860
    1W        W51568   9.444   6.958   8.373 -0.0146 -0.0484  0.1053
    1W        W51569  18.631  22.086   7.085  0.1302  0.0804 -0.0313
    1W        W51570  15.146  24.321   9.446 -0.1065 -0.0547  0.1642
    1W        W51571  28.326  25.538   6.678 -0.1383  0.0597 -0.1256
    1W        W51572  12.633  27.477   8.860  0.2714 -0.1968 -0.1691
    1W        W51573   4.094  15.249   7.120 -0.1799  0.0662  0.0905
    1W        W51574  11.369  20.025   9.587  0.3743 -0.1672  0.1138
    1W        W51575  10.619   9.956   9.361 -0.1891 -0.0556  0.1258
    1W        W51576  23.154  24.503   8.857 -0.0017  0.1875 -0.0700
    1W        W51577   9.654   9.333   1.558  0.0190 -0.3271 -0.1148
    1W        W51578   7.682  20.514   9.241  0.1206  0.2424  0.1031
    1W        W51579  19.435  21.632   1.445 -0.1921  0.2428 -0.1669
    1W        W51580  18.918  19.483   2.996  0.0776  0.2794 -0.1701
    1W        W51581  28.239   4.485   1.112 -0.2971  0.1095 -0.1204
    1W        W51582  17.347  12.079   6.813 -0.1471 -0.1008  0.1331
    1W        W51583  25.606   9.518   9.006 -0.1022 -0.0248 -0.1941
    1W        W51584  25.730   2.631   7.303 -0.0797 -0.0130 -0.1553
    1W        W51585  28.136  11.284   0.161 -0.1334  0.0287  0.1837
    1W        W51586   7.182  22.850   6.860 -0.1654  0.2812  0.2950
    1W        W51587  24.224  13.759   7.066  0.0227 -0.0457 -0.0119
    1W        W51588  27.357  28.868   2.306  0.0880  0.1605  0.0826
    1W        W51589   1.924  15.016   0.084 -0.3602  0.0100  0.0778
    1W        W51590   0.492  27.002   0.711  0.1380 -0.2096 -0.1032
    1W        W51591  26.716  10.303   9.358  0.0358 -0.0953  0.2184
    1W        W51592   1.549  10.643   6.895  0.2139 -0.2225 -0.0915
    1W        W51593   8.999  26.179   1.177  0.0194  0.0260 -0.3865
    1W        W51594  29.502   7.124   1.022  0.0381  0.0493 -0.0137
    1W        W51595  22.089  26.039   2.203  0.1363  0.0770  0.3068
    1W        W51596  20.153  17.465   2.478  0.1577  0.0598  0.0234
    1W        W51597   1.168  24.524   9.031  0.0327  0.0580  0.2944
    1W        W51598  28.141  27.556   7.524  0.1003  0.3544  0.2768
    1W        W51599   1.208  24.832   7.489 -0.0164  0.2273 -0.1493
    1W        W51600   6.844  24.087   7.015 -0.0900  0.1399  0.0433
    1W        W51601  27.116   5.474   1.371  0.2246  0.0557  0.1605
    1W        W51602  11.449  28.284   1.834 -0.1826  0.0739 -0.1766
    1W        W51603  12.275  21.130   0.592 -0.2401 -0.0035  0.1530
    1W        W51604  22.178  28.636   2.222  0.0582 -0.0036 -0.0156
    1W        W51605  15.574   7.770   9.235  0.1543  0.0621  0.0469
    1W        W51606  14.085  15.438   7.736  0.2009  0.2089  0.2731
    1W        W51607  27.111  25.238   0.156 -0.1367 -0.2663  0.0131
    1W        W51608   1.679  21.799   3.460 -0.2541  0.1798  0.1679
    1W        W51609   4.024  10.543   7.855  0.1310  0.0642 -0.1341
    1W        W51610  17.763  15.370   0.236 -0.0149  0.0341  0.1864
    1W        W51611  25.161   2.233   2.059 -0.0120 -0.0745 -0.3132
    1W        W51612  26.053   2.509   8.664  0.0079  0.0370  0.0016
    1W        W51613   1.584  10.645   8.915  0.2148 -0.0142  0.1772
    1W        W51614  20.209  20.521   7.586 -0.0667  0.2952  0.1250
    1W        W51615  28.833  20.316   2.254  0.0365  0.3759  0.0602
    1W        W51616  19.181  16.825   2.724 -0.3197  0.1812  0.3613
    1W        W51617  17.302  21.432   2.000  0.1030 -0.0859  0.1409
    1W        W51618  25.974  27.057   7.591 -0.0426 -0.3107  0.1402
    1W        W51619   9.466  24.234   5.612 -0.4066  0.1234 -0.0866
    1W        W51620   9.793  20.961   1.161  0.2796 -0.1151  0.0729
    1W        W51621   7.771  21.423   1.519  0.0429 -0.1408  0.2328
    1W        W51622  25.339   2.355   1.625  0.0295  0.1600 -0.2271
    1W        W51623   6.570  10.213   6.671 -0.2083  0.1284  0.1971
    1W        W51624  25.459   2.310   8.813  0.1640  0.1337 -0.0530
    1W        W51625   9.467   2.123   1.135  0.2695  0.1789  0.2822
    1W        W51626  26.007  29.300   2.549 -0.0568  0.1038  0.2603
    1W        W51627  27.587   2.908   8.207  0.1236 -0.0272  0.1894
    1W        W51628   2.250  27.385   9.218 -0.1725  0.1046 -0.0767
    1W        W51629   8.225  11.229   9.409 -0.1262  0.3578  0.0426
    1W        W51630   7.316  23.735   9.564  0.2491 -0.3531 -0.1447
    1W        W51631  11.733  22.384   6.327  0.3205 -0.0434  0.0656
    1W        W51632   6.627  24.840   0.434  0.0430 -0.0688 -0.2482
    1W        W51633   0.630   1.005   6.983 -0.0291 -0.1594 -0.1800
    1W        W51634  24.725  12.696   0.946 -0.0891 -0.0502 -0.2030
    1W        W51635  10.982  15.677   7.177 -0.1637  0.0544  0.3169
    1W        W51636  15.839   9.039   1.158 -0.2732 -0.4173  0.0464
    1W        W51637   0.030  22.716   1.688  0.1153 -0.1524  0.3314
    1W        W51638   5.175   0.547   3.229 -0.0739 -0.0344  0.0610
    1W        W51639   3.793   2.429   0.046  0.0548  0.0350  0.1330
    1W        W51640  25.143  12.628   0.095  0.1915  0.2319 -0.2545
    1W        W51641  26.803   6.520   0.924 -0.2989  0.3707 -0.0334
    1W        W51642   1.477  29.147   0.003 -0.1254 -0.2576  0.4395
    1W        W51643  18.453   0.488   3.196  0.0637 -0.0760  0.0644
    1W        W51644  23.701  19.817   9.375 -0.0087  0.0785  0.0795
    1W        W51645   1.880  26.973   0.790  0.0034 -0.2182 -0.0731
    1W        W51646  16.539  24.820   7.737 -0.1450  0.1453  0.2117
    1W        W51647  19.401   2.978   7.114 -0.1770 -0.2275  0.3733
    1W        W51648  15.760  21.512   1.283 -0.1738  0.6269  0.0609
    1W        W51649  14.772   7.813   0.719  0.2462 -0.2457  0.1772
    1W        W51650  12.500  28.073   5.753  0.2851 -0.2013 -0.0647
    1W        W51651  19.016  24.175   2.479 -0.2133 -0.0013  0.1385
    1W        W51652   1.287  16.805   1.966 -0.2008 -0.0237  0.2190
    1W        W51653   9.633  17.325   6.866 -0.2724  0.2703 -0.2166
    1W        W51654  11.822   1.723   7.697 -0.0876  0.0324 -0.1820
    1W        W51655  26.667  14.670   9.028  0.1202  0.1158 -0.2303
    1W        W51656   1.258   8.535   7.005  0.1450  0.0184  0.0948
    1W        W51657   5.888  27.893   6.083  0.0420  0.0399 -0.1408
    1W        W51658  15.258   7.088   2.486 -0.1792  0.0342  0.4433
    1W        W51659  25.690  21.516   8.549  0.0911 -0.2730  0.1040
    1W        W51660  29.338  20.104   7.981 -0.0352 -0.2866 -0.1043
    1W        W51661  11.822   8.071   0.048 -0.3362  0.0724  0.2870
    1W        W51662  16.022   4.816   1.801  0.0765  0.2034 -0.2701
    1W        W51663  20.713  28.391   8.220  0.1351  0.5897  0.3026
    1W        W51664  15.513  13.816   0.506 -0.0239  0.1261  0.0639
    1W        W51665  13.695   3.220   1.548 -0.0384  0.0404  0.1851
    1W        W51666  24.650  24.253   2.199 -0.0829  0.1139 -0.1128
    1W        W51667  27.684  19.075   0.902  0.0678 -0.0829  0.1096
    1W        W51668  10.798  25.376   8.177 -0.1797  0.1987  0.0629
    1W        W51669   6.508  26.195   9.479  0.0913 -0.1520 -0.3672
    1W        W51670  21.318  25.726   8.964  0.2142 -0.0441 -0.1051
    1W        W51671  12.536  29.557   9.240  0.1644 -0.0542  0.1065
    1W        W51672  25.284  18.137   9.113 -0.0830  0.0591 -0.2085
    1W        W51673  20.692  28.545   1.959 -0.1635 -0.0636 -0.1585
    1W        W51674  15.754   3.969   6.840 -0.1523 -0.0431 -0.1187
    1W        W51675  20.295  28.398   3.584 -0.0038 -0.0235  0.1154
    1W        W51676  23.609  13.564   0.708  0.0336 -0.0047 -0.0556
    1W        W51677  20.181  13.498   2.348  0.1403  0.0573 -0.1491
    1W        W51678  19.874   0.319   0.951  0.0257  0.1359  0.0514
    1W        W51679  19.359   4.302   9.041  0.1209 -0.1381 -0.1565
    1W        W51680   3.626  16.892   1.446 -0.2695 -0.2284 -0.2053
    1W        W51681  29.269   6.679   7.929  0.2966  0.1671  0.0321
    1W        W51682  14.124  21.196   6.091  0.1067  0.2885 -0.2133
    1W        W51683   5.387  25.730   0.601  0.2561  0.0004 -0.1235
    1W        W51684  15.016  17.816   9.500 -0.1978  0.1890 -0.0586
    1W        W51685  26.239   2.763   6.850 -0.0148 -0.0111 -0.0743
    1W        W51686   3.170  18.959   2.340 -0.3874 -0.0502 -0.0509
    1W        W51687   3.770   5.759   9.472  0.0808 -0.0073  0.1946
    1W        W51688   9.890  25.903   9.642  0.2594  0.2473 -0.1225
    1W        W51689  22.827  21.342   1.610 -0.1706  0.2659 -0.5069
    1W        W51690  20.853   5.912   9.489 -0.0017  0.0492  0.0051
    1W        W51691  26.738  14.912   8.605  0.0753  0.1481  0.1492
    1W        W51692  23.769  15.865   8.714 -0.2721 -0.1493 -0.1393
    1W        W51693  16.445  25.696   2.584  0.1058 -0.0643  0.0745
    1W        W51694  12.026   3.165   2.449 -0.1818  0.2013 -0.0548
    1W        W51695  12.399  12.682   7.854  0.0295 -0.2687  0.0472
    1W        W51696  12.460   1.723   3.042  0.1071  0.0012 -0.0169
    1W        W51697  10.167  25.672   9.309  0.0220 -0.3101  0.3032
    1W        W51698  17.076  22.815   8.190 -0.0930 -0.2334  0.0237
    1W        W51699   6.440   4.110   9.029  0.1626  0.1071 -0.1963
    1W        W51700  13.084   2.083   1.522 -0.3534 -0.0069 -0.0825
    1W        W51701   3.184  21.623   7.346  0.0270 -0.1242  0.0318
    1W        W51702  22.496  13.238   0.078 -0.2150 -0.0541  0.1013
    1W        W51703  15.864  12.815   9.259 -0.0828 -0.0643  0.2651
    1W        W51704  21.816  24.369   1.182 -0.1481  0.0009 -0.1756
    1W        W51705  11.648  26.925   0.697 -0.0065  0.0194 -0.2565
    1W        W51706  21.557   2.953   2.947  0.0212  0.2611 -0.1011
    1W        W51707  18.587  20.275   6.990  0.2211  0.2131 -0.3132
    1W        W51708  19.062   7.407   1.276  0.2120  0.2231 -0.0480
    1W        W51709   8.653   6.883   8.159 -0.1554  0.1220 -0.3042
    1W        W51710  17.872  19.939   0.841 -0.1297  0.0427 -0.1070
    1W        W51711  26.485   5.958   9.102 -0.3277 -0.0531  0.1398
    1W        W51712   8.749  28.875   7.269  0.2685  0.1296 -0.1314
    1W        W51713   8.554  14.016   7.084  0.2671 -0.2801 -0.0815
    1W        W51714  29.127  22.136   8.884  0.0030 -0.2988 -0.0631
    1W        W51715  13.182  28.507   0.675 -0.0443 -0.1275  0.0612
    1W        W51716  24.904  22.150   6.998  0.0698 -0.0340 -0.1642
    1W        W51717  22.041   3.078   0.516  0.2726 -0.2093 -0.1398
    1W        W51718   7.891   4.560   6.316  0.0833 -0.1274  0.3107
    1W        W51719  26.174  23.936   2.475  0.2651  0.3157 -0.0654
    1W        W51720  11.657  14.159   1.679 -0.0287  0.3219 -0.1788
    1W        W51721   7.320  25.979   2.476  0.1667 -0.2930  0.0495
    1W        W51722  24.659   1.171   7.663  0.2093  0.0293 -0.1968
    1W        W51723   9.949  25.540   1.226 -0.4799  0.0198  0.0857
    1W        W51724  25.127  28.247   3.087 -0.1947 -0.2511 -0.0140
    1W        W51725  17.851  28.589   0.699  0.0976 -0.0804  0.1270
    1W        W51726   5.853   6.256   6.074  0.0074  0.2980 -0.1927
    1W        W51727  23.140  12.312   1.237 -0.0743 -0.0708  0.0418
    1W        W51728  14.137  28.242   1.396  0.2218 -0.0583  0.3418
    1W        W51729  11.088   4.501   9.198  0.1008  0.1404  0.3857
    1W        W51730  25.313  25.174   9.063 -0.1149  0.1393  0.0639
    1W        W51731  25.505  20.465   8.195 -0.1405 -0.1519  0.0670
    1W        W51732   0.497  12.345   0.446  0.1684  0.0541  0.0322
    1W        W51733  23.386  28.949   0.159 -0.3009  0.0529  0.1922
    1W        W51734  13.988  13.705   1.902 -0.2245 -0.1484 -0.1438
    1W        W51735  15.500   5.236   8.597 -0.2254 -0.0296  0.0312
    1W        W51736  22.875  14.261   0.151  0.0530  0.3526  0.1692
    1W        W51737   3.175  28.003   8.749  0.0858 -0.0230  0.2064
    1W        W51738   6.009  18.247   6.922  0.1040  0.1326 -0.0789
    1W        W51739  12.663   8.598   7.686  0.1060  0.0727 -0.0889
    1W        W51740  17.997  18.637   9.279 -0.1472 -0.0580  0.1077
    1W        W51741  21.169   1.100   3.352  0.2533 -0.2403 -0.2050
    1W        W51742   1.816  16.873   1.828 -0.0394 -0.1419  0.1763
    1W        W51743   0.104   5.068   0.805  0.2845  0.0292  0.0783
    1W        W51744   3.229  27.912   2.565 -0.2494  0.0615  0.1655
    1W        W51745   5.760  15.979   2.288  0.3089  0.1659  0.0365
    1W        W51746   4.422  23.566   6.650  0.2787  0.2070  0.0746
    1W        W51747   6.133  11.627   7.196 -0.0872  0.0214  0.1564
    1W        W51748  22.009  17.964   8.516 -0.0549 -0.1677 -0.3322
    1W        W51749  18.377   1.960   2.785 -0.2978  0.0775  0.0117
    1W        W51750   0.473  20.492   9.509 -0.1796 -0.0043 -0.2981
    1W        W51751  20.603  17.800   1.825 -0.3162 -0.1487  0.1359
    1W        W51752  18.244   2.473   9.537 -0.0846 -0.1949  0.1642
    1W        W51753  10.790  14.270   1.944  0.1281 -0.0635  0.0443
    1W        W51754  23.170  10.487   9.645 -0.1481 -0.2397 -0.2393
    1W        W51755  24.352  15.941   8.425  0.0071  0.0485  0.0725
    1W        W51756  13.984  19.396   0.214  0.0026  0.0480 -0.0093
    1W        W51757  15.101   4.586   0.307  0.0638 -0.0979  0.0068
    1W        W51758   7.843   3.774   9.028  0.1756 -0.0391 -0.1057
    1W        W51759   2.740  20.507   3.588  0.1264 -0.3388  0.0923
    1W        W51760   1.904  21.670   1.101  0.2607 -0.1298 -0.2426
    1W        W51761  10.671  19.385   0.464  0.1050  0.4003  0.2080
    1W        W51762  26.165   1.739   7.687  0.0340  0.1555  0.0536
    1W        W51763  15.022  23.433   8.924  0.2470  0.0485 -0.0515
    1W        W51764   9.327  15.335   8.777  0.0280 -0.2023  0.2606
    1W        W51765  26.225   9.156   0.802 -0.0829 -0.2474 -0.2120
    1W        W51766  24.660  25.320   2.187  0.2601 -0.0988  0.5390
    1W        W51767   6.161  12.683   9.423  0.0772 -0.1132  0.1211
    1W        W51768  22.475   8.702   7.472 -0.1255 -0.3974 -0.4909
    1W        W51769  15.570  27.887   7.830 -0.2420 -0.2242  0.0955
    1W        W51770  25.393  18.311   1.549  0.2960 -0.0964  0.2792
    1W        W51771  10.320  11.388   6.821 -0.2066 -0.0171 -0.1330
    1W        W51772   6.149   8.670   1.549 -0.0325 -0.1899  0.0395
    1W        W51773  11.283  27.687   7.414  0.0774 -0.4249 -0.5100
    1W        W51774   3.539  18.768   0.458 -0.1969  0.0765  0.0405
    1W        W51775  22.719  23.129   1.893 -0.0663  0.1994  0.1775
    1W        W51776  14.202  24.917   8.689  0.2838 -0.2096 -0.2660
    1W        W51777  26.540   4.315   1.693 -0.1379 -0.2403  0.0124
    1W        W51778  17.591   4.692   0.012 -0.1031  0.0418  0.0696
    1W        W51779  10.303  12.459   6.778  0.1976 -0.0607  0.0764
    1W        W51780  11.701  18.684   6.693 -0.0884  0.4982  0.4983
    1W        W51781  22.664  18.165   9.277 -0.1561 -0.2771 -0.1585
    1W        W51782  22.713   0.255   9.131 -0.1264 -0.3972  0.0333
    1W        W51783  19.525  15.742   3.340  0.1316  0.1032  0.0480
    1W        W51784   3.791  25.817   0.246 -0.1995 -0.2150 -0.0847
    1W        W51785  23.171  18.622   0.572  0.0631  0.2409  0.3609
    1W        W51786   9.480  14.347   1.737  0.1576  0.3871 -0.1199
    1W        W51787  23.876  15.131   9.450 -0.2192 -0.1356  0.1443
    1W        W51788   7.412   0.217   8.155 -0.2169  0.0518 -0.1034
    1W        W51789  18.935  20.771   0.752 -0.2304  0.2051  0.4404
    1W        W51790  24.464  21.138   7.947  0.1154  0.0568  0.1107
    1W        W51791   8.733  17.450   0.189  0.0631  0.0419  0.2820
    1W        W51792  12.155  27.133   8.602  0.2755  0.2797 -0.3150
    1W        W51793   6.533  17.441   8.939  0.0195 -0.2795 -0.1800
    1W        W51794  13.170  16.483   6.865 -0.2262  0.0486  0.1632
    1W        W51795  11.226   8.228   2.253 -0.2914  0.0713  0.0274
    1W        W51796   4.881   0.608   1.671  0.3044 -0.0104  0.1440
    1W        W51797  15.700   6.134   7.913  0.1899  0.4186 -0.0985
    1W        W51798  23.343   0.612   7.818  0.2420 -0.0752 -0.2665
    1W        W51799  26.525  24.607   9.583 -0.1291 -0.1618  0.0754
    1W        W51800  16.118  14.181   8.495 -0.0476  0.0517  0.2831
    1W        W51801  22.322  11.527   0.168  0.0763 -0.0117 -0.0027
    1W        W51802   0.815  25.214   0.131 -0.2042 -0.1720 -0.1400
    1W        W51803  24.074  14.349   7.781 -0.1013  0.1117  0.4849
    1W        W51804   4.240  11.643   0.115 -0.5186  0.2110 -0.3235
    1W        W51805  13.259  19.883   8.107  0.0732  0.0357 -0.1751
    1W        W51806  24.184  28.111   8.447 -0.0400 -0.1784  0.4639
    1W        W51807  12.728  16.739   0.724  0.0792  0.2626 -0.1208
    1W        W51808  29.050  20.487   8.292 -0.1611 -0.0463 -0.0304
    1W        W51809   0.789   1.446   7.778 -0.0137  0.0649 -0.0593
    1W        W51810  24.555  11.737   8.488 -0.0980 -0.0413  0.0241
    1W        W51811  19.660  19.908   7.869  0.0316 -0.1440 -0.1564
    1W        W51812  27.448  24.992   3.374 -0.2458 -0.1098 -0.2671
    1W        W51813  27.359   2.868   8.974  0.2428  0.1620 -0.2082
    1W        W51814  17.126   6.333   1.111 -0.1939  0.4682  0.2641
    1W        W51815   6.702   1.720   1.785  0.0490 -0.0622 -0.2612
    1W        W51816   1.860   8.247   0.274  0.3100 -0.1620  0.2171
    1W        W51817   2.541  24.458   7.787 -0.0475  0.1608 -0.0431
    1W        W51818   3.841   9.174   1.101 -0.0794  0.1626  0.0046
    1W        W51819   4.612   5.129   8.988  0.0356  0.1077 -0.0080
    1W        W51820  19.297  28.977   1.759  0.2353  0.2996  0.1717
    1W        W51821   3.448  17.617   0.295 -0.0141  0.4654 -0.0475
    1W        W51822  12.751  16.364   1.840  0.0442  0.0027 -0.0630
    1W        W51823  25.742   2.445   8.281 -0.2095  0.0165 -0.3428
    1W        W51824  14.866  25.300   6.920  0.3071  0.2302 -0.1279
    1W        W51825  19.405   0.041   0.419 -0.1907  0.1899  0.0932
    1W        W51826  10.992   3.965   7.922 -0.0409  0.0976  0.3682
    1W        W51827  28.596  19.131   0.685 -0.3754 -0.3468 -0.1220
    1W        W51828   3.848  27.349   2.144 -0.0144  0.0408 -0.1808
    1W        W51829   3.867  21.060   8.631  0.0135  0.2760  0.0378
    1W        W51830   5.726   5.671   7.253  0.2132 -0.3938 -0.1381
    1W        W51831   5.867   3.005   9.019 -0.0305  0.1826  0.0813
    1W        W51832  23.606   0.202   7.668 -0.2213  0.1216 -0.2975
    1W        W51833  14.698  13.450   0.783  0.1843  0.2255  0.2450
    1W        W51834   7.163   3.374   0.697 -0.0770 -0.0315 -0.1258
    1W        W51835  25.963  23.363   1.086 -0.1051  0.0673 -0.0237
    1W        W51836  28.247  15.563   0.230  0.0135  0.3082  0.0174
    1W        W51837   6.517  10.518   9.065 -0.0817 -0.2256  0.1470
    1W        W51838   7.692   2.156   8.175  0.1816  0.0542  0.1400
    1W        W51839   8.756  22.373   2.516  0.2121  0.1172  0.0087
    1W        W51840  14.992  15.714   2.081  0.5530 -0.1420 -0.1674
    1W        W51841  26.729   7.181   9.173  0.1479  0.0170 -0.1626
    1W        W51842   7.210  15.992   0.719 -0.1801  0.0067 -0.2540
    1W        W51843  29.521  28.364   8.344  0.1595  0.1501 -0.0665
    1W        W51844   5.183  10.410   9.163  0.0878  0.0826 -0.0534
    1W        W51845  26.386  13.641   1.164  0.1433  0.0249 -0.2694
    1W        W51846  14.737  10.024   6.409 -0.1253 -0.1678  0.1837
    1W        W51847  18.868  21.083   8.176  0.0029 -0.1748  0.4148
    1W        W51848   0.823  16.506   0.697  0.0678  0.0670 -0.0605
    1W        W51849  26.771   3.638   1.666  0.0459  0.0774  0.0337
    1W        W51850   4.353  19.169   9.408  0.0948  0.1900 -0.0926
    1W        W51851  15.427  28.781   2.108  0.1348 -0.1979  0.2111
    1W        W51852   5.275   9.670   6.808  0.3546  0.0342 -0.2684
    1W        W51853  14.007  12.534   1.249 -0.0412  0.3565 -0.0736
    1W        W51854  19.498   3.725   2.100  0.0636 -0.1362  0.2611
    1W        W51855  24.503   7.144   7.929 -0.1402 -0.2338 -0.0291
    1W        W51856  21.231  17.157   2.393 -0.0173  0.2917  0.1852
    1W        W51857   1.955  20.538   2.750 -0.1765 -0.0723  0.1230
    1W        W51858  14.174   8.161   2.174  0.2650 -0.0674  0.1563
    1W        W51859  11.837   9.097   0.616  0.0829 -0.1104  0.1287
    1W        W51860  27.264   6.826   0.139 -0.2399 -0.1776 -0.2086
    1W        W51861  28.170   3.609   1.643 -0.1708  0.0603 -0.1652
    1W        W51862  18.265  26.247   3.215  0.1009  0.0697  0.2435
    1W        W51863   1.496   0.884   2.083  0.1161 -0.2225  0.0222
    1W        W51864  19.787  22.108   2.687  0.1551 -0.0505  0.0020
    1W        W51865  25.435   1.357   0.160  0.1562  0.2056  0.2387
    1W        W51866  27.880  17.269   7.467  0.2100  0.2179  0.1615
    1W        W51867  12.771  26.269   6.958  0.2216  0.0996 -0.0137
    1W        W51868   3.974  19.545   9.493  0.0847  0.1370  0.1557
    1W        W51869   6.761  20.059   9.214 -0.0982  0.0894 -0.3048
    1W        W51870   6.340  23.077   0.870  0.1732 -0.1931  0.3095
    1W        W51871  27.668  26.975   8.557  0.1196  0.0768  0.0297
    1W        W51872   4.098  21.689   8.990 -0.2421 -0.0257 -0.1431
    1W        W51873   9.267  29.199   6.331  0.1074  0.0479 -0.0285
    1W        W51874  28.107  29.361   2.272 -0.0627 -0.0490 -0.5395
    1W        W51875  19.796   7.051   6.542  0.0121 -0.0658  0.3361
    1W        W51876  17.363   3.202   7.532 -0.0943  0.1459  0.0899
    1W        W51877   2.924   1.452   6.382 -0.0931 -0.0113 -0.0477
    1W        W51878  15.481  12.364   3.103 -0.0425 -0.3252 -0.0242
    1W        W51879  26.007   3.201   1.788 -0.0573 -0.0304  0.1065
    1W        W51880   4.775   2.782   2.255 -0.1876  0.1888  0.1647
    1W        W51881   7.406   1.530   7.383 -0.1781 -0.0088 -0.1083
    1W        W51882  12.662  26.262   8.436 -0.1673 -0.1964 -0.2426
    1W        W51883  29.480  10.903   0.801  0.3547 -0.0690  0.1133
    1W        W51884  17.243  25.304   0.448  0.2998  0.1573 -0.0185
    1W        W51885  24.575  12.065   1.709 -0.0965  0.2002 -0.0596
    1W        W51886  22.961   2.358   2.117  0.0277 -0.0009 -0.0767
    1W        W51887  20.567  24.611   0.638 -0.0160 -0.3687  0.1857
    1W        W51888  17.350  14.670   7.315  0.2543  0.2962  0.3110
    1W        W51889   0.899  20.630   3.145  0.1078  0.1003 -0.3194
    1W        W51890  22.987  11.003   0.186 -0.1255 -0.0978 -0.3571
    1W        W51891   6.351  21.219   2.828 -0.2020 -0.0279 -0.1861
    1W        W51892  10.938  10.328   8.834 -0.1296 -0.0689 -0.0964
    1W        W51893  14.253   5.814   0.744  0.1520 -0.2667 -0.0023
    1W        W51894   7.105  17.278   8.245 -0.1440 -0.1900 -0.2731
    1W        W51895   7.123   7.043   8.365  0.3793 -0.0867  0.1972
    1W        W51896   2.533  10.747   8.940  0.1331  0.1134  0.0643
    1W        W51897  26.704   8.456   1.537 -0.2449  0.1465  0.2502
    1W        W51898   5.723  19.453   8.488 -0.1175 -0.2246 -0.1029
    1W        W51899  16.165   2.112   0.421  0.4127 -0.0820  0.0370
    1W        W51900   9.639  22.175   0.299 -0.1971  0.2720  0.2088
    1W        W51901  26.905  15.096   9.078 -0.3129 -0.0702  0.1887
    1W        W51902  13.810  25.181   8.112  0.2436  0.0439  0.1951
    1W        W51903  27.138  22.120   6.931  0.2509  0.1823 -0.3568
    1W        W51904   7.818  25.136   7.619  0.0469  0.0833 -0.2783
    1W        W51905  20.185  19.280   8.456 -0.0418 -0.2630  0.4313
    1W        W51906   6.439  26.935   9.409 -0.1024 -0.0360  0.0125
    1W        W51907   2.213  26.487   7.251  0.1053 -0.1595  0.1115
    1W        W51908   0.243  22.514   7.858  0.0651  0.2231 -0.0398
    1W        W51909  13.326  16.988   6.516 -0.0434 -0.1930  0.1198
    1W        W51910  12.707  27.970   9.301 -0.2300  0.0482 -0.1274
    1W        W51911  23.863  10.276   7.243 -0.1719 -0.1160 -0.1372
    1W        W51912  21.487   7.725   0.841 -0.0206  0.0280  0.1477
    1W        W51913  28.169  14.403   9.040  0.1730  0.1411 -0.0768
    1W        W51914   1.634  24.595   1.253  0.6310 -0.5048 -0.1981
    1W        W51915  16.971  21.959   8.694 -0.1281  0.1742  0.0254
    1W        W51916  22.011   2.820   2.147 -0.1553  0.1471  0.2639
    1W        W51917  19.552  26.497   8.130  0.1088  0.3974 -0.1122
    1W        W51918   8.980  23.127   7.905  0.1447  0.0789 -0.2038
    1W        W51919  16.618  28.279   6.515 -0.1256 -0.2190  0.1582
    1W        W51920  18.477  11.900   7.635  0.0068 -0.1068  0.0693
    1W        W51921  14.061  18.072   2.142  0.1325 -0.0703  0.0999
    1W        W51922   6.947  20.122   1.436 -0.1514  0.2544  0.1087
    1W        W51923  25.013  17.932   7.338 -0.0302 -0.2469 -0.2620
    1W        W51924   0.238  26.303   9.335  0.1799  0.0939  0.0356
    1W        W51925  15.541   0.154   0.396  0.2238 -0.1046 -0.0461
    1W        W51926   8.487   4.335   0.156 -0.0144  0.0892  0.4392
    1W        W51927  22.167   6.243   9.483 -0.1125 -0.1433  0.2260
    1W        W51928  10.649  11.653   0.921 -0.0390 -0.1322  0.2771
    1W        W51929  24.120   2.010   9.062  0.0473 -0.0499 -0.2403
    1W        W51930  10.219   6.053   1.513  0.1029 -0.2603  0.1385
    1W        W51931  19.553   1.458   0.667 -0.2865 -0.0348  0.2625
    1W        W51932  25.745  14.219   2.071  0.0483  0.0916 -0.1781
    1W        W51933  26.882   6.698   1.437 -0.0842  0.0567  0.1442
    1W        W51934   1.759  25.640   8.694  0.2995 -0.0390 -0.0952
    1W        W51935  10.955  21.381   9.256  0.2184  0.0264 -0.1438
    1W        W51936   8.226  14.624   0.069 -0.0208 -0.1106 -0.0745
    1W        W51937  13.939   7.833   0.637  0.0680 -0.2014  0.2899
    1W        W51938   1.292   6.793   8.159  0.1123  0.0421 -0.0040
    1W        W51939  14.180   3.381   0.457 -0.0690  0.0665  0.0461
    1W        W51940  23.700  18.141   1.928  0.2057 -0.0461  0.1621
    1W        W51941   8.607   1.903   7.902 -0.1904 -0.0849 -0.0607
    1W        W51942   3.291  20.028   8.190 -0.0412 -0.1899  0.2054
    1W        W51943  28.610  29.062   9.409 -0.0539  0.0165  0.1652
    1W        W51944   6.498   9.314   6.694  0.0104  0.2074  0.1860
    1W        W51945  27.198   9.023   0.557  0.0910  0.1077  0.0271
    1W        W51946   5.499   6.832   9.579 -0.0004 -0.0189 -0.5658
    1W        W51947  15.177  24.868   1.107  0.3188 -0.1809 -0.1889
    1W        W51948   1.950  23.136   1.230 -0.0385  0.0347 -0.1853
    1W        W51949   5.347   1.181   1.056  0.1105 -0.2998 -0.1460
    1W        W51950  20.433   2.516   1.808 -0.4145  0.0509 -0.1258
    1W        W51951  27.312  22.220   1.132  0.0893  0.2940  0.1716
    1W        W51952  21.415  19.139   0.683  0.1120 -0.0601  0.4285
    1W        W51953  29.041  18.999   3.056  0.0812 -0.1412 -0.1817
    1W        W51954   7.435  28.039   7.317 -0.2214  0.1802  0.2424
    1W        W51955  14.503   9.713   2.756 -0.0538  0.0016  0.0109
    1W        W51956  18.172  22.035   1.335  0.0800  0.1611 -0.1349
    1W        W51957  20.715   1.606   1.164  0.0949 -0.2123 -0.2593
    1W        W51958   8.421  19.793   8.027 -0.0620 -0.1571 -0.0582
    1W        W51959  16.057   5.723   5.985 -0.4414 -0.0980  0.0248
    1W        W51960  20.707  16.464   9.010 -0.1272 -0.1187  0.1384
    1W        W51961  23.635  18.461   9.206  0.0328  0.0247  0.2478
    1W        W51962   4.448   2.302   8.996  0.2764 -0.0540 -0.0641
    1W        W51963   6.983  20.534   7.894 -0.0033 -0.0218 -0.2053
    1W        W51964   3.887   7.850   1.705 -0.3771  0.1410 -0.2582
    1W        W51965   5.485   4.369   3.040 -0.0241  0.0901 -0.1397
    1W        W51966  29.243   6.051   8.629 -0.0030  0.0365 -0.1789
    1W        W51967  22.581   5.355   1.204 -0.4709 -0.3470  0.2293
    1W        W51968  21.901  24.115   3.164  0.4282 -0.0156 -0.1709
    1W        W51969   6.668   2.021   6.387  0.2890 -0.0185  0.3268
    1W        W51970  26.517   8.754   1.199 -0.4582  0.2951 -0.1655
    1W        W51971   8.178   6.184   8.965 -0.0739 -0.0026 -0.1589
    1W        W51972  13.707  24.783   8.481  0.2429 -0.2454 -0.1290
    1W        W51973   4.666   0.366   0.598  0.1200  0.1736  0.1299
    1W        W51974  24.129  28.401   0.794  0.1354 -0.0060  0.2600
    1W        W51975  22.878  15.043   3.090 -0.2815 -0.2931  0.0510
    1W        W51976  12.057   0.032   7.314 -0.0790 -0.2678  0.0998
    1W        W51977  27.407   8.015   8.579  0.1582  0.0880 -0.0025
    1W        W51978  17.833   2.793   9.390  0.1353 -0.0659 -0.0077
    1W        W51979  26.448  24.540   7.731  0.3364  0.0552  0.2166
    1W        W51980  22.694  16.212   7.636  0.0697 -0.1863  0.1976
    1W        W51981   5.312  24.289   7.392  0.0115  0.0026  0.1838
    1W        W51982  25.728  19.522   9.315  0.1241  0.0874  0.0043
    1W        W51983   1.054  18.428   8.083  0.0637  0.1843  0.0958
    1W        W51984   6.014   9.416   0.079  0.0602  0.2083  0.1498
    1W        W51985  15.161  27.598   8.094  0.4159  0.3170  0.1735
    1W        W51986  29.065   4.894   9.646 -0.1860  0.1319  0.3400
    1W        W51987  14.148   2.160   1.137 -0.3127  0.0415  0.1702
    1W        W51988  16.024  10.157   6.493  0.0675  0.4517 -0.1074
    1W        W51989  11.233  14.062   8.493 -0.3548 -0.1775 -0.0720
    1W        W51990  29.090  25.492   2.572 -0.1664  0.0988 -0.0079
    1W        W51991  26.743  19.484   8.183  0.0174 -0.2354  0.1393
    1W        W51992  16.717  20.343   0.328  0.2424  0.1348  0.0787
    1W        W51993  17.256   6.537   9.346  0.1178 -0.0368 -0.1061
    1W        W51994   4.084   9.424   0.683  0.0127  0.2125 -0.1211
    1W        W51995  18.469  26.055   3.628 -0.4135 -0.2079  0.1990
    1W        W51996   7.367   9.637   6.099  0.2478 -0.2121  0.3813
    1W        W51997  12.013  18.795   0.641 -0.0243 -0.0073  0.1299
    1W        W51998   9.980  22.513   0.385 -0.0025  0.1634  0.1573
    1W        W51999   2.181  28.672   7.141 -0.0752  0.0313 -0.2746
    1W        W52000   7.281  11.483   8.260 -0.3623 -0.0914 -0.1821
    1W        W52001  16.555  13.801   0.003  0.1342 -0.3052 -0.1234
    1W        W52002  14.077   5.276   2.341 -0.1294  0.0046  0.1917
    1W        W52003   1.992  26.561   8.378  0.2929  0.2639 -0.1374
    1W        W52004  14.899  21.906   6.960  0.0624  0.1347 -0.0482
    1W        W52005  24.882  20.259   2.729 -0.0791 -0.0729  0.1644
    1W        W52006  23.262  18.608   7.966 -0.0352  0.1192 -0.1486
    1W        W52007  13.332  10.179   0.323  0.2841 -0.1502  0.2170
    1W        W52008  24.555  25.478   8.618  0.0945  0.0585  0.1715
    1W        W52009  22.706  25.603   7.503  0.3388  0.2826  0.0439
    1W        W52010   3.365  22.545   0.386  0.2663  0.3188  0.0400
    1W        W52011  10.117  16.497   2.854  0.0391  0.1188  0.2495
    1W        W52012  22.621  22.950   9.533  0.2908  0.0770  0.1323
    1W        W52013   1.819   3.852   0.239 -0.0296  0.2611  0.0346
    1W        W52014   7.806   5.867   7.320 -0.0839  0.0793  0.1959
    1W        W52015   9.404   4.171   1.403  0.0594  0.1191  0.1734
    1W        W52016  29.336   0.003   2.642 -0.0345 -0.0868 -0.2115
    1W        W52017  19.929  10.640   7.274  0.2479 -0.0540 -0.1458
    1W        W52018  16.379   1.676   0.638  0.0736 -0.0604  0.0725
    1W        W52019   2.787   5.832   6.100  0.0967 -0.1852  0.0128
    1W        W52020   8.006   7.405   6.444 -0.2441 -0.2027  0.0949
    1W        W52021   1.470  14.163   1.821  0.2322 -0.0133 -0.2330
    1W        W52022  24.515  23.014   9.034  0.0745 -0.0475 -0.0323
    1W        W52023  28.691  21.732   7.973  0.1301 -0.0352  0.2232
    1W        W52024  19.727  20.369   2.544  0.1673  0.1575 -0.0297
    1W        W52025  14.893   5.640   2.196  0.1502 -0.0216  0.0642
    1W        W52026  13.403  18.085   8.093  0.0625 -0.3830 -0.2675
    1W        W52027  22.422  12.779   8.464 -0.0171 -0.0797  0.0767
    1W        W52028   2.100  11.472   7.004  0.1346  0.1235 -0.1384
    1W        W52029  23.068  17.248   0.789  0.0673  0.0049  0.0734
    1W        W52030   6.713  10.598   5.881 -0.1342  0.1181 -0.0862
    1W        W52031  24.312   7.504   8.775  0.1700 -0.1969  0.0709
    1W        W52032  28.938   0.384   6.194  0.1423  0.0383 -0.2696
    1W        W52033  29.137  21.927   0.177 -0.0131 -0.2660  0.1438
    1W        W52034   2.127  16.719   2.213 -0.1459 -0.1021 -0.4000
    1W        W52035   8.344  21.038   0.766  0.1414  0.0854 -0.3170
    1W        W52036  13.784   3.142   0.297  0.1161  0.0182 -0.0917
    1W        W52037   6.692  12.180   7.848  0.1877  0.0849 -0.3265
    1W        W52038   7.963   4.117   8.647  0.0554 -0.4506 -0.0536
    1W        W52039   8.387   6.170   6.883 -0.2023  0.1465 -0.0267
    1W        W52040  10.113   7.889   2.319 -0.1847  0.1696  0.2523
    1W        W52041   7.242  10.669   7.932  0.0849  0.1388  0.0357
    1W        W52042   9.275  17.844   6.917 -0.0145  0.0898 -0.2160
    1W        W52043  14.473  14.214   8.785  0.0048 -0.0157 -0.0072
    1W        W52044  15.699  10.562   9.325  0.0960  0.0940  0.0284
    1W        W52045   3.319  18.362   8.215 -0.0649  0.0579 -0.2505
    1W        W52046  26.409  15.200   8.814  0.0970 -0.0613  0.0939
    1W        W52047  19.206  19.051   2.927 -0.1653  0.0249 -0.2603
    1W        W52048  10.278  23.627   7.714  0.0781  0.1492 -0.0946
    1W        W52049  24.381   9.722   0.785  0.2213 -0.1999  0.0612
    1W        W52050  21.558   4.545   7.800 -0.1085  0.1362 -0.1751
    1W        W52051  24.235  10.721   8.000 -0.0501  0.1191  0.1324
    1W        W52052  22.187   3.903   8.005  0.2061 -0.3235 -0.1910
    1W        W52053   0.524  18.516   2.704 -0.2650 -0.0002 -0.2748
    1W        W52054   5.910  11.999   8.086  0.2347 -0.2452 -0.1447
    1W        W52055  20.663  23.479   9.186 -0.4757 -0.2462 -0.2144
    1W        W52056   4.021  10.932   8.178  0.0514 -0.2345  0.0066
    1W        W52057  13.031  16.120   7.099 -0.1930  0.2814 -0.3903
    1W        W52058  20.261  13.281   9.117 -0.2135 -0.0926  0.1898
    1W        W52059   8.595   3.670   7.866  0.0578  0.2309 -0.1041
    1W        W52060   7.517  15.529   2.117  0.0163  0.0558 -0.1142
    1W        W52061   4.886  13.839   8.277  0.4398  0.0090  0.0398
    1W        W52062  22.897  17.957   6.332  0.0149 -0.1964  0.0013
    1W        W52063  20.305  26.205   5.328  0.0587  0.0605  0.2373
    1W        W52064  19.351   7.938   0.038  0.1835 -0.1863 -0.0442
    1W        W52065  26.705  29.012   3.405 -0.2158  0.1310 -0.2554
    1W        W52066  18.443   1.698   0.778 -0.2544 -0.2262 -0.0917
    1W        W52067  19.649  10.200   1.901 -0.4064  0.3626 -0.1310
    1W        W52068   9.289   9.557   0.187 -0.0437  0.0566  0.0650
    1W        W52069  16.148  10.391   1.470 -0.0065 -0.0561 -0.0543
    1W        W52070  20.039   4.344   1.957  0.0276  0.1541 -0.2954
    1W        W52071  17.031  26.080   9.451 -0.0618 -0.0299  0.2001
    1W        W52072  11.985  17.161   1.090 -0.0862  0.0262  0.0878
    1W        W52073  13.604  24.332   8.356 -0.2491  0.2732 -0.0634
    1W        W52074   0.273  28.782   1.414  0.3347 -0.2011  0.2932
    1W        W52075   3.539  28.568   7.344  0.3501  0.0756 -0.0536
    1W        W52076  18.209  21.787   9.063  0.0205 -0.2659  0.1008
    1W        W52077  14.533  18.537   7.664  0.2531 -0.1594  0.0464
    1W        W52078  16.492   7.962   7.921  0.0727 -0.0099 -0.0001
    1W        W52079  22.853   9.198   8.571  0.1026 -0.2069 -0.0540
    1W        W52080  18.705   0.307   8.124 -0.1483  0.0079  0.0357
    1W        W52081  16.299   6.087   0.349  0.0760  0.0409  0.0727
    1W        W52082  25.137  20.957   1.882 -0.0742  0.1404  0.0186
    1W        W52083  12.186  17.002   9.063 -0.0631 -0.3624  0.0502
    1W        W52084  10.721  10.073   2.412 -0.0501 -0.0348  0.0513
    1W        W52085   6.480   9.428   6.181  0.0029  0.4320  0.3179
    1W        W52086  10.660   9.105   1.878  0.1630  0.1111  0.0912
    1W        W52087   9.836  14.751   2.659 -0.1015 -0.0263 -0.0341
    1W        W52088  16.143   0.438   9.381  0.0847  0.1417 -0.1307
    1W        W52089  12.251   4.133   0.442  0.4088 -0.0431  0.1240
    1W        W52090  24.512   6.383   0.338  0.2616  0.0527 -0.1656
    1W        W52091   4.057  15.590   1.633 -0.0750 -0.2152 -0.2744
    1W        W52092  15.554  24.118   0.043 -0.0077 -0.0744  0.2434
    1W        W52093  25.550   0.902   2.728  0.0658 -0.1732  0.1921
    1W        W52094   6.667  26.413   0.715  0.0864 -0.1286 -0.0935
    1W        W52095  26.164  21.403   2.404 -0.1379  0.1375  0.1193
    1W        W52096   0.503  27.469   0.559  0.1797 -0.0602 -0.1081
    1W        W52097  13.442  27.180   6.696 -0.1673 -0.0569  0.0410
    1W        W52098  20.613  16.387   2.460  0.0991  0.1434  0.0723
    1W        W52099   4.434  25.876   2.302 -0.5253 -0.2579 -0.0225
    1W        W52100  26.681  26.264   8.005  0.0373  0.0529  0.1471
    1W        W52101  24.974  11.117   0.761 -0.1602 -0.4391 -0.2545
    1W        W52102  23.916  21.768   8.637  0.2472  0.2180  0.1728
    1W        W52103  27.244   4.323   7.085  0.1770 -0.0455 -0.0229
    1W        W52104   6.668   2.455   0.478 -0.1646  0.3361  0.4327
    1W        W52105   9.256  13.274   8.704 -0.1518  0.2313 -0.1410
    1W        W52106  13.809  25.201   7.234  0.0863  0.0901  0.2977
    1W        W52107  24.693   9.843   0.437 -0.0004  0.3807 -0.0496
    1W        W52108  24.778  23.963   8.479  0.2047  0.1310  0.0346
    1W        W52109   7.064  12.450   6.963 -0.2145  0.2673 -0.0732
    1W        W52110  16.660  28.397   1.303  0.2487 -0.1920  0.0054
    1W        W52111   1.969  11.630   7.506 -0.0276  0.1135  0.2228
    1W        W52112  24.903   1.060   8.926 -0.1530 -0.1610 -0.2833
    1W        W52113   9.639   9.291   9.589 -0.0389  0.3521  0.1599
    1W        W52114  17.473   0.807   3.202  0.1719  0.2842 -0.4713
    1W        W52115  15.105   2.365   2.662  0.1376 -0.1132 -0.0685
    1W        W52116  22.153  24.143   3.834 -0.2140 -0.0732  0.2803
    1W        W52117   0.314  27.746   1.648 -0.3315 -0.0074 -0.0485
    1W        W52118  24.636  18.694   8.365  0.1684  0.0841  0.0637
    1W        W52119  10.655  17.777   0.881  0.0708 -0.0841 -0.1647
    1W        W52120   0.719  16.375   2.252 -0.0843  0.1444  0.0355
    1W        W52121  16.309  18.180   7.373 -0.0411 -0.0480 -0.1874
    1W        W52122   9.889   0.657   0.849  0.5509 -0.3606 -0.1237
    1W        W52123  27.642   8.698   7.753  0.1587 -0.2676 -0.0313
    1W        W52124  25.201   9.171   0.095 -0.1088 -0.0432  0.0174
    1W        W52125  10.817  13.000   6.458  0.0052  0.2722  0.1905
    1W        W52126  14.781   9.562   9.567 -0.2533 -0.2442  0.1457
    1W        W52127   2.078  20.931   8.027 -0.0793  0.0634  0.0828
    1W        W52128   0.904  28.847   7.700  0.2377  0.4804 -0.0730
    1W        W52129   4.572  10.088   0.898 -0.1207  0.0705 -0.2792
    1W        W52130  11.519  20.998   8.655  0.0414 -0.3673  0.0036
    1W        W52131   0.351   6.029   9.078 -0.0876  0.2540  0.1935
    1W        W52132  21.413   2.066   2.624 -0.1012 -0.2459  0.4667
    1W        W52133  14.915  16.482   7.295  0.0748  0.5265  0.2683
    1W        W52134  23.211   2.834   9.315 -0.4183 -0.1278 -0.0261
    1W        W52135  17.925   2.042   9.585 -0.1792 -0.3187  0.0631
    1W        W52136  28.485   4.475   1.639  0.3360  0.1145  0.1751
    1W        W52137   3.074  21.148   7.322  0.1390 -0.0762  0.2479
    1W        W52138  10.775   6.440   2.115  0.1347 -0.0715 -0.0059
    1W        W52139  13.197   3.837   2.404 -0.1625 -0.1242 -0.0733
    1W        W52140   8.350  25.060   1.656 -0.0119  0.0485  0.1479
    1W        W52141   2.374  12.744   9.122  0.0739  0.3094 -0.2244
    1W        W52142   3.706  25.061   3.118 -0.3655  0.2153  0.0951
    1W        W52143  17.069  21.482   8.198 -0.0442  0.0220 -0.1048
    1W        W52144  19.248  11.968   0.578  0.1230  0.2247 -0.3026
    1W        W52145   9.051  28.833   8.734  0.1662 -0.1901 -0.0457
    1W        W52146   0.782  14.085   1.159  0.0137 -0.3097 -0.0494
    1W        W52147   5.695   9.999   0.785 -0.1782  0.1187  0.1046
    1W        W52148   5.184   0.095   8.801  0.1300 -0.0438  0.3403
    1W        W52149  18.610  23.933   0.360  0.0282 -0.1307 -0.1992
    1W        W52150  15.408  25.373   3.042 -0.1988  0.2251 -0.1526
    1W        W52151  15.788   1.999   1.752 -0.1247  0.0776  0.2208
    1W        W52152  14.670  26.584   2.847  0.0554  0.1024 -0.0084
    1W        W52153  26.078  28.249   8.102  0.1119  0.1956 -0.3353
    1W        W52154  26.947   3.801   9.140 -0.2128  0.2755  0.0483
    1W        W52155  28.814   9.095   7.436 -0.2898  0.1437  0.1674
    1W        W52156   9.967  17.906   9.487 -0.1877 -0.1216  0.1427
    1W        W52157  14.827  26.205   8.480  0.0612  0.1743 -0.1095
    1W        W52158  13.531  17.435   8.882 -0.3641 -0.1496 -0.1642
    1W        W52159   5.992  26.783   0.974 -0.0971  0.0816  0.0050
    1W        W52160  12.920  16.208   6.507  0.0697  0.1343 -0.0471
    1W        W52161  17.207   7.750   8.162 -0.1264  0.0586 -0.2989
    1W        W52162  28.283  14.289   3.151 -0.0518  0.2522 -0.0880
    1W        W52163  15.038  29.204   1.630 -0.1583 -0.0707 -0.3434
    1W        W52164  29.218   1.210   2.256  0.0749  0.0796 -0.1744
    1W        W52165  15.113  18.154   8.903 -0.0856 -0.5328  0.1479
    1W        W52166   7.640  23.010   3.136  0.1541  0.0183 -0.0771
    1W        W52167  14.763   4.265   8.515  0.1804 -0.2560 -0.1629
    1W        W52168  12.021   5.694   7.736 -0.0524 -0.1733 -0.2063
    1W        W52169  29.243   5.375   8.776 -0.0660 -0.0230  0.0062
    1W        W52170  26.128   9.119   2.144 -0.0725  0.2951  0.1814
    1W        W52171  28.363   8.260   8.865  0.2887  0.1340  0.1372
    1W        W52172  16.892  29.260   8.232  0.0878 -0.1048 -0.1155
    1W        W52173   6.399  12.070   8.217 -0.0019  0.1096  0.5700
    1W        W52174   1.741  15.190   8.791  0.0012  0.2342 -0.2362
    1W        W52175  21.146   6.027   1.740  0.0140 -0.1118  0.2679
    1W        W52176  19.895   1.733   2.505 -0.0175 -0.1404 -0.2227
    1W        W52177  16.985   8.183   0.112  0.2187 -0.0878  0.1257
    1W        W52178  15.310  18.624   0.091 -0.1560  0.0853  0.1724
    1W        W52179  23.065  13.785   8.562 -0.1875 -0.3542  0.0648
    1W        W52180  19.366  17.116   7.939  0.1016 -0.0732  0.3094
    1W        W52181  20.291   6.960   2.916  0.2272 -0.0604  0.1240
    1W        W52182   7.731   2.956   6.864  0.1287 -0.0020 -0.0980
    1W        W52183  21.613  22.380   8.649  0.0302  0.0539 -0.3971
    1W        W52184  11.549  17.699   9.349 -0.2500 -0.3960 -0.1405
    1W        W52185  27.496   9.446   1.592  0.2867 -0.1459  0.1118
    1W        W52186  25.824  23.495   0.110 -0.0973 -0.2441  0.2637
    1W        W52187   7.929  20.405   0.183  0.1465 -0.1459 -0.1444
    1W        W52188  10.277  22.967   0.025 -0.2079  0.0417  0.2343
    1W        W52189   0.490  21.972   2.911  0.1118 -0.3953  0.1151
    1W        W52190  13.365  17.847   5.713 -0.0919  0.4381  0.0911
    1W        W52191   2.676  26.711   9.213  0.1642 -0.3386  0.0686
    1W        W52192  10.585  12.383   1.441 -0.1388  0.0405  0.1368
    1W        W52193   3.116   0.415   2.390 -0.1717 -0.3098  0.3703
    1W        W52194  18.830  22.181   3.303  0.2366  0.1270 -0.2043
    1W        W52195   6.691  23.202   8.166  0.3889  0.1893  0.1169
    1W        W52196  23.486  22.978   3.064  0.0868 -0.2475  0.1797
    1W        W52197  26.776  10.139   0.549 -0.1385  0.0867 -0.2228
    1W        W52198  27.626  22.254   1.811 -0.1853 -0.1173  0.2139
    1W        W52199  26.961   1.530   8.026  0.1880  0.0350 -0.1504
    1W        W52200  22.277  18.380   7.827  0.1300  0.0720  0.0632
    1W        W52201   4.243  24.086   8.966  0.1873 -0.0974  0.1764
    1W        W52202  22.280  26.722   7.921 -0.0372 -0.4338 -0.1044
    1W        W52203  18.978   4.466   8.739 -0.0430 -0.4357 -0.0850
    1W        W52204   6.199   7.587   8.234  0.2417 -0.2052  0.1577
    1W        W52205   0.989  21.747   7.721  0.1910 -0.0642  0.0453
    1W        W52206  13.747  18.315   0.023  0.0655 -0.2055  0.0212
    1W        W52207  26.018  17.849   3.421 -0.0614 -0.1633  0.0032
    1W        W52208  26.597  21.659   4.167  0.3090 -0.3487 -0.2660
    1W        W52209  10.682  18.917   2.422 -0.1180  0.2205  0.0296
    1W        W52210  10.689   3.471   0.274 -0.1980  0.1440 -0.0641
    1W        W52211  20.739  24.454   8.863 -0.0478 -0.0801 -0.2830
    1W        W52212  29.060  17.940   1.702  0.2437 -0.0980  0.1976
    1W        W52213   4.088  26.056   0.519 -0.0329 -0.2094 -0.0980
    1W        W52214  29.480   5.050   5.659 -0.1513 -0.0713  0.2512
    1W        W52215  17.876   4.848   9.062 -0.2400 -0.1854 -0.0568
    1W        W52216  26.167  13.457   7.598 -0.1826  0.1174  0.1297
    1W        W52217   1.239  19.515   2.284 -0.2175 -0.1026 -0.1548
    1W        W52218   4.127   1.268   7.549  0.0887 -0.1878 -0.2108
    1W        W52219  11.360  23.725   9.062  0.0289 -0.3420 -0.0751
    1W        W52220  14.465  24.199   8.794  0.2791 -0.0914 -0.0114
    1W        W52221   2.701  27.244   2.632  0.1569 -0.0899 -0.1159
    1W        W52222  19.932   2.386   7.807 -0.1217  0.1422 -0.0661
    1W        W52223  11.845  18.403   0.924 -0.0823 -0.0325  0.0595
    1W        W52224  14.278   9.707   7.801  0.1635  0.0700 -0.1000
    1W        W52225  17.927   7.677   9.273 -0.2392  0.0805 -0.1992
    1W        W52226   4.042   7.221   0.967  0.0424  0.0763 -0.0603
    1W        W52227  21.554  17.944   7.332 -0.3075 -0.2288  0.1856
    1W        W52228  22.650   7.427   7.877  0.1437  0.1702  0.1849
    1W        W52229  27.455   6.049   1.765 -0.0418 -0.1110  0.1001
    1W        W52230  21.452  17.228   0.292  0.1947 -0.4858 -0.1742
    1W        W52231  13.422  29.391   1.382  0.0144  0.0619  0.2303
    1W        W52232  24.612  10.841   1.097 -0.0788 -0.1791 -0.0920
    1W        W52233  23.317   2.448   8.022 -0.0866 -0.0709 -0.0565
    1W        W52234   3.434  26.018   9.596 -0.2475  0.0481 -0.3056
    1W        W52235   9.990  26.572   9.501  0.0537  0.0049 -0.1444
    1W        W52236   4.670   2.765   1.123 -0.3079  0.1848 -0.1278
    1W        W52237  10.909  18.567   8.283  0.1914  0.0276 -0.0801
    1W        W52238   0.743   5.381   1.173 -0.0525 -0.0015 -0.0782
    1W        W52239   6.224  18.890   7.681  0.1439  0.1425 -0.0512
    1W        W52240  25.692   5.587   1.094 -0.0184  0.0130 -0.1092
    1W        W52241  11.537  12.159   1.646 -0.1123 -0.0371 -0.0429
    1W        W52242   2.314   8.326   1.183  0.0691  0.1325  0.1134
    1W        W52243   9.951   1.055   1.633 -0.1864  0.1116 -0.2405
    1W        W52244  13.969  12.373   9.071 -0.1421  0.1076 -0.2945
    1W        W52245   0.189  27.640   2.347 -0.2822 -0.0084  0.0706
    1W        W52246  12.530   9.262   9.513 -0.1747  0.3155 -0.2320
    1W        W52247  14.606   4.114   6.899 -0.1126 -0.0152 -0.0248
    1W        W52248  18.993   2.692   2.841  0.2098 -0.0450  0.0252
    1W        W52249  20.004  11.423   1.803 -0.0063  0.0480 -0.2027
    1W        W52250  28.903  14.014   8.620 -0.0088 -0.0086  0.2232
    1W        W52251  10.857   3.944   6.111 -0.0476  0.2489 -0.0451
    1W        W52252  10.749  22.815   0.190  0.3579 -0.1585  0.2407
    1W        W52253   0.978  10.095   0.741 -0.0756 -0.2138  0.2106
    1W        W52254  23.369  17.439   8.376 -0.0404  0.1770  0.0960
    1W        W52255  22.641   2.368   8.838  0.0555  0.0923 -0.1147
    1W        W52256  13.851   1.436   2.704  0.0729  0.2072 -0.0365
    1W        W52257  20.959   8.826   8.066  0.1346  0.1226  0.1005
    1W        W52258   7.597  28.682   0.389 -0.1113  0.1058 -0.1378
    1W        W52259   2.988   5.420   6.433  0.2265 -0.0049  0.0833
    1W        W52260   0.961   7.707   8.463 -0.0966 -0.0025  0.2286
    1W        W52261  21.359   8.457   8.996  0.2045 -0.2319  0.0987
    1W        W52262   1.226  26.256   8.112  0.1404  0.1658 -0.0675
    1W        W52263  27.817   2.502   6.677 -0.1766  0.2552 -0.0397
    1W        W52264  25.383  25.114   0.184 -0.1330 -0.1557  0.2621
    1W        W52265  25.656  27.637   2.645  0.1426  0.0469 -0.1952
    1W        W52266  28.858  16.328   8.319 -0.2515  0.0746 -0.0751
    1W        W52267   9.310  12.218   7.911  0.1798  0.1175  0.0058
    1W        W52268  12.272   4.066   7.275  0.3507 -0.2242  0.0649
    1W        W52269  10.757   5.606   8.929  0.3217  0.2492  0.2362
    1W        W52270  11.415  13.735   1.542  0.1243 -0.0621 -0.1049
    1W        W52271   8.466   5.750   1.696 -0.1095 -0.0449  0.0401
    1W        W52272  14.130  18.397   1.774  0.0112 -0.1063 -0.0854
    1W        W52273  29.087   0.147   8.543  0.0064 -0.1933  0.0095
    1W        W52274  16.255  13.845   7.494 -0.2151 -0.1394  0.0065
    1W        W52275   5.153  26.412   2.209  0.0739 -0.1832 -0.4060
    1W        W52276   1.353   7.841   0.772  0.4283 -0.1308  0.0455
    1W        W52277   2.784   1.795   0.263  0.1430 -0.0634 -0.4645
    1W        W52278  16.278  11.285   0.925 -0.0704  0.0983  0.2947
    1W        W52279  27.576   3.224   8.640 -0.0510  0.0426  0.2627
    1W        W52280  12.370   2.548   7.740  0.2712  0.1435 -0.0563
    1W        W52281  24.223  19.346   6.536 -0.2321  0.0673 -0.1054
    1W        W52282  26.050  21.472   3.492  0.0596  0.0366  0.0710
    1W        W52283  15.094  12.508   1.999  0.3791 -0.1128  0.1045
    1W        W52284  21.320  25.095   8.859 -0.0734  0.2871 -0.1987
    1W        W52285  25.663  10.262   9.413 -0.0977  0.1271 -0.0015
    1W        W52286  11.369  25.359   1.984  0.1092 -0.1954 -0.1094
    1W        W52287   2.665  14.294   9.453 -0.4819 -0.3006 -0.3813
    1W        W52288   1.999  28.459   0.586  0.1707  0.0202  0.0537
    1W        W52289  15.073  20.370   6.214 -0.1454  0.1673 -0.0798
    1W        W52290  26.693   8.934   6.633  0.0029  0.1606  0.1241
    1W        W52291   6.530  18.026   8.022  0.0102 -0.0389 -0.0705
    1W        W52292  13.062   3.952   1.927  0.2359 -0.1681  0.1839
    1W        W52293   3.546   5.803   5.659 -0.3950  0.1360 -0.0131
    1W        W52294  11.895  14.702   0.951 -0.3462  0.2549  0.0604
    1W        W52295  28.787  25.966   2.695 -0.1372 -0.0331 -0.0403
    1W        W52296  27.963  25.886   2.582 -0.0302 -0.3008 -0.0769
    1W        W52297  25.250   9.795   2.264 -0.1596  0.0243  0.0566
    1W        W52298  24.844  20.453   7.380 -0.2891 -0.0772  0.0298
    1W        W52299  15.066   6.503   2.307 -0.1727 -0.0016  0.0324
    1W        W52300   1.648   7.883   6.480  0.0388 -0.3119  0.0535
    1W        W52301   4.442  14.239   6.398  0.0717 -0.4147 -0.3024
    1W        W52302  19.193  25.426   8.494 -0.0551 -0.1415  0.1051
    1W        W52303  10.012  10.716   0.131 -0.4210 -0.2169 -0.5878
    1W        W52304  19.804  26.586   2.142 -0.1005  0.2447  0.4404
    1W        W52305  21.210  18.671   1.219  0.1843 -0.1088 -0.1607
    1W        W52306  15.898   6.159   9.514  0.0324  0.0571 -0.1172
    1W        W52307   5.400  27.997   0.977 -0.1060  0.0696  0.2304
    1W        W52308   3.929  14.821   8.030 -0.1465 -0.0344  0.3577
    1W        W52309   7.586  26.577   7.260 -0.2848  0.0375 -0.2206
    1W        W52310   7.611  24.891   1.573 -0.1094 -0.1948 -0.0833
    1W        W52311  19.118  24.140   7.706  0.2163  0.0125 -0.0454
    1W        W52312  24.261   1.897   1.204  0.0375  0.3231 -0.0348
    1W        W52313   5.223  16.611   7.347 -0.0805 -0.3257  0.0033
    1W        W52314  21.429  17.198   7.025  0.2743 -0.0879  0.3400
    1W        W52315   8.767   9.060   8.380  0.0399 -0.0352 -0.1511
    1W        W52316  28.555   0.828   8.391  0.2245 -0.1351 -0.4004
    1W        W52317   1.537  28.847   8.666  0.1974  0.2368  0.1122
    1W        W52318  15.920  28.076   8.178  0.0940  0.0421 -0.2253
    1W        W52319   4.554   4.492   1.982 -0.0758 -0.1004 -0.0878
    1W        W52320  22.066   8.236   0.078 -0.0377  0.3075  0.0388
    1W        W52321  27.270  15.421   8.591 -0.0198 -0.1017  0.0604
    1W        W52322  29.283  16.108   8.546  0.1467 -0.1478 -0.2410
    1W        W52323   8.059   0.844   8.192  0.0875 -0.6057  0.1048
    1W        W52324  17.724  24.140   2.996 -0.1842  0.0711  0.1477
    1W        W52325  22.838  27.844   0.125 -0.0749  0.1421  0.0516
    1W        W52326  21.256  24.627   8.175  0.1033 -0.0382 -0.0017
    1W        W52327  22.040  27.257   1.358  0.1246  0.1356 -0.1397
    1W        W52328  16.983  24.551   7.036 -0.5624 -0.0261  0.3324
    1W        W52329  25.008  20.491   1.680  0.0336  0.2727  0.0544
    1W        W52330   2.438   4.779   6.036  0.1455  0.5144  0.0958
    1W        W52331   7.766  28.974   6.421 -0.1637  0.1728 -0.3041
    1W        W52332   4.121  27.637   8.099  0.2353  0.1152  0.0886
    1W        W52333   8.894  15.506   0.149  0.2527 -0.2274 -0.0528
    1W        W52334  21.354  24.557   0.865 -0.2077  0.0055  0.2815
    1W        W52335  12.626   9.561   6.428 -0.1716 -0.0144  0.1674
    1W        W52336  11.880   2.281   6.011 -0.2740  0.1600 -0.1911
    1W        W52337  24.452  26.028   1.730 -0.1162 -0.1609 -0.1912
    1W        W52338  13.765  16.736   8.233  0.2079  0.0346 -0.1986
    1W        W52339  29.384   4.181   7.123 -0.1933  0.0947 -0.1258
    1W        W52340  21.278  23.948   0.229 -0.1646  0.0144 -0.2187
    1W        W52341  19.640   1.792   2.960 -0.0804 -0.2284  0.0309
    1W        W52342  17.019   1.086   8.637  0.0157  0.4374 -0.1308
    1W        W52343   7.674   1.061   8.631  0.1869 -0.1944  0.2111
    1W        W52344   6.678  26.460   8.164  0.0651 -0.1280 -0.2557
    1W        W52345   3.377   9.479   6.363  0.0990  0.0289 -0.0725
    1W        W52346  10.536  29.521   8.457  0.0857  0.3495 -0.2296
    1W        W52347  12.920  20.748   1.237  0.1483 -0.0201 -0.2459
    1W        W52348  19.504  14.071   2.457 -0.2919 -0.0074 -0.0222
    1W        W52349   4.493  16.646   0.212 -0.0526 -0.0972  0.2879
    1W        W52350   1.606   3.699   7.690  0.0320 -0.0162 -0.0193
    1W        W52351  11.539  13.308   0.944 -0.2607 -0.0601  0.1017
    1W        W52352  26.676   0.866   1.398  0.1803 -0.1566 -0.1826
    1W        W52353   4.302   8.583   6.553 -0.0485  0.2178  0.3194
    1W        W52354  17.761   7.053   8.021  0.4083  0.0261 -0.0210
    1W        W52355  18.859  24.207   0.904  0.2566  0.0273 -0.0862
    1W        W52356  11.714  25.401   8.975 -0.3459  0.1595  0.2273
    1W        W52357  28.737  10.035   0.642 -0.1677  0.1343  0.1306
    1W        W52358  14.377  13.047   1.160 -0.2948 -0.0312 -0.4398
    1W        W52359   7.101  15.841   9.597 -0.0778  0.0311 -0.2017
    1W        W52360  21.592  21.421   1.428 -0.1079 -0.2118 -0.1879
    1W        W52361  28.831   0.922   6.880  0.0729  0.2227  0.0457
    1W        W52362  12.664  21.359   6.122  0.4753  0.0251 -0.0141
    1W        W52363  14.005   1.814   9.120  0.0004 -0.2043 -0.1706
    1W        W52364   8.188  17.582   9.194  0.2492  0.1447 -0.1627
    1W        W52365  22.101  18.224   2.286  0.0324 -0.2851 -0.1062
    1W        W52366  19.687  21.328   0.411 -0.0142 -0.0227  0.2900
    1W        W52367  11.351   5.610   9.059 -0.2729 -0.0512  0.4165
    1W        W52368  24.954   7.679   0.341 -0.1899  0.4139 -0.0568
    1W        W52369   4.689  14.226   7.512  0.0280 -0.0715  0.0804
    1W        W52370   1.793  13.193   2.758 -0.0445  0.1883  0.2814
    1W        W52371   0.248  12.315   2.004 -0.2277 -0.2114  0.5687
    1W        W52372   1.831  29.546   7.015  0.2291  0.3869 -0.0454
    1W        W52373  21.199   1.802   2.242 -0.0022 -0.1222 -0.0700
    1W        W52374  12.008   7.542   2.638 -0.2681 -0.2614 -0.3321
    1W        W52375   6.891  12.937   0.207 -0.0062 -0.1167 -0.1275
    1W        W52376  28.509  18.563   2.386 -0.0502  0.1592  0.1694
    1W        W52377   6.749  14.487   8.068 -0.1257 -0.0664  0.1972
    1W        W52378  28.356  22.948   2.215  0.0386 -0.0944  0.1141
    1W        W52379  10.994  10.626   1.559 -0.1113  0.2658  0.0159
    1W        W52380  25.592   2.798   0.648  0.2696  0.2137 -0.1318
    1W        W52381   9.611   3.926   7.953 -0.0145  0.4960  0.2345
    1W        W52382   8.931  18.140   7.918  0.3523 -0.0730  0.3127
    1W        W52383  25.225  20.657   9.245  0.0195 -0.0931  0.3796
    1W        W52384  16.105   3.562   9.599  0.5882  0.0482 -0.1153
    1W        W52385   8.757  25.069   0.411  0.0653  0.2195  0.4484
    1W        W52386   9.987   1.010   2.535  0.0308 -0.1314  0.0956
    1W        W52387   0.872  16.346   7.443  0.2240  0.1493  0.3168
    1W        W52388  22.960  20.316   1.629  0.1164  0.1202  0.1327
    1W        W52389  27.886  28.057   8.162  0.0280 -0.4111 -0.2825
    1W        W52390  18.012  22.281   9.364  0.0496 -0.0661 -0.0961
    1W        W52391   4.843   1.287   7.867 -0.0274 -0.2496 -0.1158
    1W        W52392   8.073   4.380   1.802 -0.0644 -0.0063  0.1545
    1W        W52393  10.753  15.535   0.223 -0.1906 -0.1308  0.0494
    1W        W52394  16.860  12.192   9.441 -0.0664 -0.0870  0.2701
    1W        W52395   7.805  21.126   8.239  0.1684  0.1713  0.1805
    1W        W52396  29.008  15.409   2.203 -0.3351  0.0880 -0.2513
    1W        W52397  22.404   7.159   8.229  0.0335  0.0011  0.1154
    1W        W52398   5.144  29.381   9.629 -0.0517  0.2138  0.0893
    1W        W52399  12.721  11.853   7.262  0.1504  0.1220  0.0630
    1W        W52400  19.099   5.359   6.876  0.1647  0.1201  0.0377
    1W        W52401  29.587  14.467   9.354 -0.0989  0.0671 -0.3342
    1W        W52402  25.368  24.126   1.227 -0.1310  0.2191  0.0360
    1W        W52403   5.657   0.479   6.610 -0.0461  0.1600 -0.2087
    1W        W52404  17.207   3.509   8.040  0.0136 -0.2570 -0.4351
    1W        W52405   8.132  10.266   9.121 -0.0423  0.1916 -0.1517
    1W        W52406   9.389  25.241   7.448 -0.4801 -0.2198 -0.1198
    1W        W52407  26.765  24.413   1.842 -0.0594  0.3150  0.1431
    1W        W52408   7.351  18.729   0.529  0.4183 -0.0597  0.2521
    1W        W52409   1.190  20.060   1.705 -0.0640 -0.2542 -0.0571
    1W        W52410   4.340  10.502   6.068  0.2988  0.2254 -0.1141
    1W        W52411  24.168  20.214   2.197 -0.1352 -0.1517  0.2453
    1W        W52412   6.669  15.144   0.602 -0.1062  0.2590 -0.0491
    1W        W52413  10.828  15.714   7.720 -0.1615  0.1438  0.2032
    1W        W52414   1.312  10.741   7.745 -0.0787 -0.0541 -0.1109
    1W        W52415  28.907   9.274   8.418 -0.1148  0.0188 -0.1715
    1W        W52416  18.530  22.796   1.649 -0.0851 -0.1342  0.3293
    1W        W52417  27.819   4.269   7.989 -0.1769 -0.1314 -0.2725
    1W        W52418   9.752   3.084   8.542  0.1764 -0.3131 -0.0825
    1W        W52419   3.476   5.460   6.474  0.2226  0.0872 -0.2048
    1W        W52420  15.494  12.481   0.354 -0.1541 -0.1584  0.0516
    1W        W52421  25.493  28.460   7.640  0.0197  0.0626  0.0540
    1W        W52422   4.444  14.751   8.542  0.1463  0.0976  0.0387
    1W        W52423  16.268   5.565   8.414 -0.2349 -0.1356  0.0036
    1W        W52424  20.031  14.433   8.716 -0.0591  0.0063 -0.0293
    1W        W52425  26.489  16.392   1.710  0.1088  0.1385  0.2778
    1W        W52426  20.064   0.507   9.542 -0.0111  0.1095  0.3400
    1W        W52427  13.907  28.142   0.113  0.1066 -0.3268 -0.1225
    1W        W52428  16.578   3.518   2.187  0.0686 -0.0508  0.0303
    1W        W52429  19.044  28.426   7.631  0.2811  0.0400 -0.0307
    1W        W52430   6.145  21.681   0.735  0.1911 -0.3616  0.1798
    1W        W52431   4.880  24.698   3.495 -0.2137  0.0684 -0.0861
    1W        W52432   7.738  28.016   9.617  0.0792 -0.0777 -0.1896
    1W        W52433   6.151  16.248   7.641  0.2413 -0.1180 -0.0995
    1W        W52434   0.911  15.386   8.694  0.0915  0.0168 -0.2148
    1W        W52435  21.583   1.461   7.494  0.0247 -0.2737 -0.0726
    1W        W52436  18.184   3.635   0.616 -0.1565  0.2174 -0.3192
    1W        W52437  24.606   8.396   9.565 -0.1319 -0.3096 -0.2085
    1W        W52438  12.672  17.651   1.060 -0.2032 -0.0884  0.1950
    1W        W52439  29.001   9.319   1.746 -0.0239 -0.0806  0.0319
    1W        W52440   3.245   7.136   0.440 -0.2816 -0.0486 -0.1524
    1W        W52441   9.808  12.217   7.927 -0.0476 -0.3102 -0.0283
    1W        W52442  12.758  25.943   0.239  0.2067  0.2348  0.0901
    1W        W52443   1.211   2.043   1.082  0.0531 -0.0970 -0.1425
    1W        W52444   3.166   7.880   6.947 -0.0026 -0.0014 -0.1761
    1W        W52445   2.445  20.558   0.216  0.0075 -0.2730 -0.1357
    1W        W52446   9.912  16.540   9.301 -0.1520  0.0378  0.0027
    1W        W52447  29.556   2.799   0.003 -0.1761 -0.1712 -0.1630
    1W        W52448  13.757   0.444   2.560  0.1163  0.0111  0.1079
    1W        W52449   0.495  22.778   1.510 -0.1316 -0.0182  0.0650
    1W        W52450  10.092  11.103   1.515  0.1404  0.0896  0.1413
    1W        W52451  20.038  27.145   9.367 -0.3056  0.1210  0.1280
    1W        W52452   7.235  16.760   0.761  0.1909 -0.0140 -0.1086
    1W        W52453   7.312   3.296   6.764 -0.0667 -0.1406 -0.1364
    1W        W52454   2.191   1.262   7.204 -0.2814  0.1260  0.2306
    1W        W52455  14.322  20.024   6.161 -0.4270 -0.2507  0.0105
    1W        W52456  15.139  23.955   1.357  0.1659  0.0275  0.2192
    1W        W52457   1.358   0.092   1.669 -0.0415 -0.1619  0.0697
    1W        W52458   1.562  13.811   8.969  0.1312  0.0487  0.0173
    1W        W52459  25.393  19.589   1.057 -0.2913 -0.0117 -0.2203
    1W        W52460  18.420   0.854   1.884  0.3839  0.0148 -0.0348
    1W        W52461   3.452  20.406   2.947 -0.2118 -0.1311 -0.0149
    1W        W52462  20.671  11.648   7.944  0.4701  0.2748  0.2242
    1W        W52463   9.665   2.445   0.758 -0.0601  0.0088 -0.1023
    1W        W52464   5.474  20.968   2.689 -0.0141  0.0170 -0.2365
    1W        W52465  10.790  27.400   7.360 -0.0585 -0.0045  0.0832
    1W        W52466   6.680  25.881   8.135  0.4196  0.2056  0.1668
    1W        W52467   4.701   3.256   0.573  0.0862  0.5029 -0.0580
    1W        W52468   2.147   4.215   1.474  0.1737  0.0216 -0.1066
    1W        W52469  11.011  22.852   5.954 -0.2200 -0.1693 -0.0259
    1W        W52470   3.041  20.285   6.792  0.2197  0.0175 -0.0191
    1W        W52471  15.705   6.442   8.876 -0.0988  0.0655  0.0005
    1W        W52472  23.622  25.305   7.795  0.0132 -0.2011  0.0653
    1W        W52473  16.374  18.605   6.498  0.2935 -0.2391  0.2890
    1W        W52474  17.440  18.058   2.275 -0.0060  0.1855  0.3997
    1W        W52475  29.424   5.745   8.336 -0.1322 -0.2933  0.0131
    1W        W52476   8.181   4.969   9.454  0.4841 -0.0863 -0.1116
    1W        W52477   6.911  16.639   7.893 -0.0655  0.0560 -0.1637
    1W        W52478  25.067  26.423   2.062 -0.2621 -0.3208 -0.1130
    1W        W52479   3.403  21.304   7.007 -0.0140  0.3542 -0.3178
    1W        W52480   7.251  19.331   6.592  0.2366  0.1124  0.0390
    1W        W52481  22.995  26.020   7.945  0.0012  0.1276 -0.0598
    1W        W52482  12.463   6.714   5.523  0.0995 -0.1127 -0.1161
    1W        W52483   5.898   8.560   6.730 -0.0836 -0.1083  0.3413
    1W        W52484   1.083  18.301   7.565  0.4092 -0.2953  0.0165
    1W        W52485  27.291  22.780   3.720  0.2664  0.0024  0.3337
    1W        W52486   0.369  28.349   8.306  0.0306  0.1071  0.0462
    1W        W52487   9.683  21.158   1.593  0.1595  0.1077 -0.1801
    1W        W52488  25.370   2.718   1.989 -0.0527  0.0881 -0.1163
    1W        W52489  15.797   8.286   9.117 -0.1648  0.0809 -0.2493
    1W        W52490  15.979  19.229   1.427  0.2347  0.0311  0.1488
    1W        W52491   3.314   6.246   8.291  0.1853 -0.2555 -0.0626
    1W        W52492   8.309   3.147   8.766 -0.0586 -0.0999  0.0286
    1W        W52493  20.770  29.254   7.708  0.1658 -0.1597 -0.0405
    1W        W52494   5.254  12.000   7.733 -0.0812  0.0072 -0.3185
    1W        W52495  10.546  14.560   8.030  0.0715  0.1591  0.0686
    1W        W52496   1.621  21.507   3.025  0.0102  0.2463 -0.0495
    1W        W52497  15.268  28.135   7.539  0.0336  0.3777 -0.2706
    1W        W52498  17.385  27.763   2.881  0.2128 -0.1851  0.3144
    1W        W52499  21.896  22.594   8.963  0.0041 -0.1968 -0.0882
    1W        W52500  12.310  15.931   6.297  0.2654 -0.0439  0.0978
    1W        W52501  18.999   1.096   8.983  0.1693 -0.5286  0.1793
    1W        W52502   1.645   7.584   6.867  0.1016  0.1531 -0.4450
    1W        W52503   3.546  10.481   5.988 -0.0002  0.0148 -0.1296
    1W        W52504  27.509  17.744   0.470  0.1420 -0.0665  0.0946
    1W        W52505  28.507  13.876   8.928  0.2750  0.0650 -0.0025
    1W        W52506  12.673  19.675   1.716  0.1169 -0.0737 -0.1924
    1W        W52507  12.371  14.111   7.103  0.1331 -0.0018 -0.1408
    1W        W52508   8.224  11.864   7.987 -0.0107 -0.2251 -0.1997
    1W        W52509   8.512   7.844   6.664  0.2236 -0.2167  0.0244
    1W        W52510  21.965   1.822   0.377  0.1645  0.3799  0.1556
    1W        W52511  20.528  24.819   7.448 -0.0753 -0.3764 -0.1657
    1W        W52512  18.984  17.972   0.767 -0.4119 -0.0399 -0.0545
    1W        W52513  10.593   4.323   7.925 -0.1857 -0.1385 -0.1913
    1W        W52514   3.655  23.879   9.310  0.0663 -0.1964  0.0656
    1W        W52515  25.150  17.247   1.100 -0.0820 -0.1801 -0.2117
    1W        W52516  15.492  26.641   7.183  0.1546  0.1593  0.1264
    1W        W52517  15.643  29.023   8.250  0.4190 -0.4875  0.0995
    1W        W52518  29.143   5.096   6.472 -0.2352  0.0844  0.1383
    1W        W52519  24.298  28.392   2.809  0.0045  0.1467  0.2221
    1W        W52520  27.582  14.282   1.895 -0.0416  0.1768 -0.1624
    1W        W52521   4.763  10.125   0.466  0.1601  0.2221  0.2898
    1W        W52522  28.429   4.994   6.371 -0.1507  0.2786 -0.1056
    1W        W52523  27.423  16.172   1.519  0.1591  0.1846 -0.0438
    1W        W52524   9.864   8.993   0.318  0.0412 -0.0769  0.0379
    1W        W52525  16.403  23.572   1.776  0.0222 -0.0464  0.1801
    1W        W52526  11.425  21.183   0.326 -0.0301  0.1342  0.0104
    1W        W52527  27.224   3.850   1.601  0.0128 -0.1435  0.1814
    1W        W52528  25.566  29.384   0.821 -0.1008 -0.1555  0.1600
    1W        W52529  24.752  13.632   7.772 -0.0281  0.1560 -0.1150
    1W        W52530   3.184  22.933   6.740 -0.1030 -0.0972 -0.2030
    1W        W52531  26.300  13.418   8.382 -0.3253 -0.0489  0.0122
    1W        W52532   1.932  19.527   7.327  0.1241  0.0587 -0.4174
    1W        W52533  15.141  28.807   0.454 -0.2083 -0.1154  0.1655
    1W        W52534   2.763  27.726   7.874  0.1490  0.2382  0.1131
    1W        W52535  19.426  11.801   8.272 -0.0558  0.2619 -0.1347
    1W        W52536  27.949  25.542   7.854  0.2668  0.3138 -0.2349
    1W        W52537   8.491  15.444   9.343  0.0523  0.3832  0.1266
    1W        W52538  23.353   1.480   0.665  0.3439 -0.1814 -0.0764
    1W        W52539   6.628  16.471   2.172 -0.4117  0.2090 -0.0182
    1W        W52540  18.646  21.744   8.861 -0.0707 -0.3938  0.1441
    1W        W52541   4.958  25.012   0.761 -0.1208  0.3099 -0.1581
    1W        W52542   9.241  25.019   8.867  0.3013 -0.1467 -0.0909
    1W        W52543  12.558  13.738   0.731  0.4546  0.0806 -0.1496
    1W        W52544   2.232   3.474   0.272 -0.0906  0.1132 -0.3392
    1W        W52545  26.164  24.926   2.329  0.0177 -0.0984  0.4266
    1W        W52546  25.588  16.297   1.718 -0.0228 -0.0800 -0.0591
    1W        W52547  16.390  12.565   2.286 -0.0023 -0.0403 -0.2446
    1W        W52548  10.331  28.864   6.575  0.0646  0.1399 -0.0044
    1W        W52549  18.761  23.596   0.786 -0.0437  0.1677 -0.0236
    1W        W52550  12.670  21.052   9.013  0.1933  0.0993 -0.1184
    1W        W52551   5.080   4.609   6.664  0.3215  0.1302 -0.1020
    1W        W52552   8.436  29.500   0.278 -0.0522  0.0099  0.1555
    1W        W52553  27.471  22.383   0.717 -0.2320  0.0140  0.1404
    1W        W52554   6.085   7.608   5.230  0.1048  0.2025 -0.1886
    1W        W52555   9.112   0.544   7.356 -0.1416 -0.2722 -0.1976
    1W        W52556  21.132   4.517   8.178 -0.0650  0.0088 -0.0540
    1W        W52557  13.423  14.445   8.860  0.0642  0.1277 -0.0248
    1W        W52558  20.917  10.375   1.213  0.1203 -0.1970  0.1405
    1W        W52559  14.358   1.149   1.119  0.3780 -0.0663 -0.0397
    1W        W52560   8.779   0.393   6.952 -0.0383  0.0337  0.2717
    1W        W52561  22.231   7.602   8.351 -0.2303  0.0010 -0.3111
    1W        W52562  18.440  18.422   2.067 -0.0866  0.2278 -0.0914
    1W        W52563  25.805  21.903   8.192  0.0851  0.4440 -0.3883
    1W        W52564  11.138  10.628   8.429 -0.3011 -0.1184  0.0011
    1W        W52565   3.794   7.534   6.940  0.0349 -0.0735 -0.0338
    1W        W52566  25.614  19.329   3.364 -0.3343  0.1769  0.1754
    1W        W52567  24.351   0.035   8.494 -0.1295  0.3212 -0.1395
    1W        W52568   0.855   2.203   0.599 -0.1773  0.0798 -0.1185
    1W        W52569  12.011  15.512   1.414  0.0284 -0.0716 -0.0340
    1W        W52570   9.985  27.131   8.044 -0.0674  0.1852 -0.0181
    1W        W52571  16.574  23.080   9.086  0.4285  0.0467 -0.0446
    1W        W52572   2.583  28.375   7.298 -0.4370  0.1703 -0.1069
    1W        W52573  18.449  22.245   0.168  0.3365  0.3981 -0.0277
    1W        W52574  11.988   1.811   1.826 -0.0224 -0.0774  0.2915
    1W        W52575  15.362   7.370   1.941 -0.2081  0.1622  0.1246
    1W        W52576  12.731  18.656   8.241 -0.0635 -0.2056  0.2348
    1W        W52577  28.158  11.639   7.499 -0.1729 -0.1697  0.0148
    1W        W52578  18.496   8.464   7.905  0.0740  0.0774 -0.0805
    1W        W52579  19.452  11.312   9.352 -0.0853  0.0403  0.0033
    1W        W52580  22.832  24.289   0.979 -0.1202 -0.0487  0.2100
    1W        W52581  26.428   0.931   9.225  0.3900  0.0501 -0.1063
    1W        W52582  20.041  29.435   3.252  0.0150  0.1386 -0.0397
    1W        W52583  11.091   5.098   6.344 -0.2903 -0.0747 -0.1393
    1W        W52584  23.815  12.336   0.052 -0.0734  0.0870  0.1210
    1W        W52585  25.427  22.828   1.885 -0.4286  0.1500  0.1809
    1W        W52586  11.384   4.462   1.851  0.1714 -0.0465 -0.2423
    1W        W52587  22.832   8.491   7.142 -0.0490 -0.0075  0.1971
    1W        W52588   2.847  10.750   0.134 -0.1897 -0.1810 -0.1303
    1W        W52589  14.528  20.434   7.641  0.2569  0.0238 -0.3016
    1W        W52590   1.181  25.491   6.985  0.1739 -0.1275 -0.0766
    1W        W52591   6.428  20.217   8.878  0.1472  0.1446 -0.1241
    1W        W52592  27.199  25.002   2.000 -0.0569  0.1824 -0.0091
    1W        W52593   2.769  20.583   1.491  0.1964 -0.0796  0.1783
    1W        W52594   5.492  21.687   8.658  0.1492  0.3367  0.2314
    1W        W52595  28.505  27.750   6.442 -0.2540  0.2955 -0.1032
    1W        W52596  26.967   2.082   0.541 -0.1595 -0.0491  0.0468
    1W        W52597   6.602  23.187   1.285 -0.2608 -0.0028  0.3171
    1W        W52598   6.138  25.570   9.197  0.0989 -0.3384 -0.2117
    1W        W52599   1.993  22.617   2.099  0.0968  0.4302  0.3010
    1W        W52600  15.546   8.205   7.695  0.0935 -0.0992 -0.1199
    1W        W52601  13.807  25.284   9.380  0.3115  0.1392  0.0871
    1W        W52602   5.955   3.131   1.837 -0.1984 -0.2054  0.0160
    1W        W52603  24.186  16.682   0.549 -0.2956  0.3031  0.1958
    1W        W52604  26.254  27.511   0.460 -0.2173 -0.1862  0.1226
    1W        W52605   1.688  13.172   7.513 -0.0316 -0.1671 -0.1967
    1W        W52606  12.932   5.723   7.266  0.3146  0.2154  0.0093
    1W        W52607  10.107   1.517   7.547  0.1972 -0.1820  0.0685
    1W        W52608  10.645  10.723   0.052 -0.2481 -0.0934  0.3671
    1W        W52609   5.562   5.180   0.475 -0.0925 -0.4788 -0.1810
    1W        W52610   9.412  11.268   6.797  0.1696  0.0577 -0.0691
    1W        W52611  13.719  15.066   1.651  0.1520  0.0800 -0.0044
    1W        W52612  28.101  16.541   6.683 -0.2017  0.0913  0.0202
    1W        W52613  11.620  12.552   9.019  0.0550 -0.1130  0.1138
    1W        W52614  29.418  19.659   8.154 -0.2088  0.0494 -0.0674
    1W        W52615   5.689  16.597   9.336 -0.0126 -0.0266  0.0043
    1W        W52616  26.514  13.231   8.845 -0.0155  0.0407 -0.3056
    1W        W52617  13.546   7.322   7.148  0.1830 -0.1747  0.1036
    1W        W52618  26.336  20.783   1.643 -0.1515 -0.3861  0.0300
    1W        W52619  18.673   6.875   9.007 -0.0388  0.1421 -0.0732
    1W        W52620  17.376  27.886   8.546  0.2406  0.1445  0.1971
    1W        W52621  29.367   3.427   1.024  0.0664  0.0108 -0.2035
    1W        W52622   9.544  17.491   7.448 -0.1337  0.0730 -0.0395
    1W        W52623  29.513  13.538   8.932 -0.0089  0.1306  0.2286
    1W        W52624   4.626  25.269   6.610  0.1093 -0.1324 -0.1207
    1W        W52625   4.527  11.485   1.570 -0.0280  0.0401 -0.3808
    1W        W52626  24.042  11.156   7.281  0.2554 -0.0642  0.2277
    1W        W52627  17.596  24.448   8.096  0.0102 -0.0079  0.3015
    1W        W52628   1.605  20.175   1.970  0.2126  0.0833  0.0200
    1W        W52629   7.108  10.981   5.910  0.0044  0.1572  0.1690
    1W        W52630   2.212  18.524   0.488 -0.1921  0.0194 -0.0078
    1W        W52631  18.363   6.965   7.967  0.0278 -0.0306  0.0480
    1W        W52632  25.023  12.126   7.466 -0.1059  0.2426  0.0806
    1W        W52633  14.543  24.074   7.113  0.0623  0.3216 -0.0008
    1W        W52634  14.537  21.889   7.419  0.0135  0.1579 -0.1973
    1W        W52635   6.708  19.367   7.898 -0.3963 -0.0530  0.1381
    1W        W52636   0.933  12.866   0.812  0.3040 -0.0636 -0.1729
    1W        W52637  22.582  25.759   3.973 -0.1675  0.3601 -0.3002
    1W        W52638   8.793  25.291   6.261  0.2454 -0.1999 -0.0577
    1W        W52639   9.277  29.297   7.993 -0.1822  0.3531 -0.3061
    1W        W52640  27.931   3.623   8.810  0.0022  0.1241  0.2620
    1W        W52641   6.889   3.588   6.003 -0.0483 -0.1786  0.0056
    1W        W52642   0.265  28.416   9.248 -0.1124 -0.0005 -0.0214
    1W        W52643  10.320   4.248   2.305 -0.1826 -0.1791  0.0597
    1W        W52644   7.806  12.850   0.254 -0.2701 -0.1509  0.1056
    1W        W52645   0.413  22.693   9.184  0.0024 -0.1667  0.1672
    1W        W52646  15.422  21.691   8.967 -0.1198  0.0836  0.0936
    1W        W52647  19.091   0.275   8.473  0.1399 -0.1270 -0.1558
    1W        W52648  22.182   9.559   1.949  0.0849 -0.0627  0.0286
    1W        W52649  24.938  22.153   8.010  0.1105  0.0205 -0.2646
    1W        W52650   5.200  23.091   7.220 -0.0997  0.0616  0.2058
    1W        W52651   7.701  27.364   6.840  0.0365  0.1650  0.2347
    1W        W52652   2.967  24.116   1.156  0.1426  0.2316  0.0646
    1W        W52653   3.149   9.879   6.604 -0.2046  0.2049 -0.1363
    1W        W52654   4.276  14.246   2.314 -0.0738 -0.1370 -0.0193
    1W        W52655   2.280  17.077   1.820  0.1042 -0.0479  0.0580
    1W        W52656  23.637   2.939   9.073  0.0235  0.3517  0.1826
    1W        W52657  20.877  18.359   3.293  0.2069  0.1797  0.1716
    1W        W52658   0.950  23.645   2.650 -0.2451  0.3381  0.3391
    1W        W52659   5.253   1.622   8.217 -0.3266 -0.0409 -0.1324
    1W        W52660  15.488   1.046   8.077  0.2948  0.0810  0.1604
    1W        W52661  25.144  14.462   0.387 -0.3852 -0.0665 -0.1351
    1W        W52662  16.746   7.557   2.174 -0.1604  0.1730  0.0606
    1W        W52663  12.566   7.491   6.729  0.4418  0.1300  0.1371
    1W        W52664  17.773  12.244   1.216  0.4188 -0.1516  0.2375
    1W        W52665   9.396   0.839   1.667  0.1201 -0.0972  0.0312
    1W        W52666   5.542  25.037   0.147 -0.0156  0.1308  0.1717
    1W        W52667   2.420  12.473   8.690  0.0400 -0.0037  0.0746
    1W        W52668   7.140  23.438   8.595  0.1525  0.2096  0.0211
    1W        W52669  22.523  25.925   9.549 -0.0721 -0.0425  0.1919
    1W        W52670  11.583  17.535   8.304  0.0984  0.0514  0.0833
    1W        W52671  23.780   4.498   8.804 -0.2592 -0.0189  0.0042
    1W        W52672   8.876  27.453   9.054  0.1874  0.2599  0.1786
    1W        W52673  12.116   0.853   1.785  0.2917  0.4496 -0.0863
    1W        W52674  18.184   9.598   0.954  0.0763 -0.3730  0.1919
    1W        W52675  29.147  22.246   8.386 -0.1324  0.0337  0.4502
    1W        W52676  22.612  10.347   1.670  0.0039 -0.3673  0.1101
    1W        W52677  28.983  21.256   2.518  0.1577 -0.0729  0.1872
    1W        W52678  14.509   1.146   6.543 -0.0364 -0.2169  0.1038
    1W        W52679  15.811  19.490   2.170  0.1439  0.0601 -0.1562
    1W        W52680  11.067   4.448   7.837  0.0910 -0.0431  0.1269
    1W        W52681  23.568  16.609   2.447 -0.1390  0.2000  0.2365
    1W        W52682  19.950   2.081   0.112  0.0464 -0.0073  0.0221
    1W        W52683  28.960  16.465   0.894  0.0815  0.1212 -0.1461
    1W        W52684  15.285   8.718   1.443 -0.0599  0.0995  0.0195
    1W        W52685   8.249   6.040   7.895 -0.2570 -0.0767  0.0327
    1W        W52686  15.203  21.609   0.322 -0.0595 -0.3100  0.1194
    1W        W52687  22.644  23.380   9.134  0.1083  0.1849  0.2476
    1W        W52688  20.215  29.005   1.208 -0.1221 -0.0868  0.1383
    1W        W52689  15.294  23.212   7.991  0.1300  0.0440 -0.2059
    1W        W52690  10.737  29.095   8.195  0.0694 -0.3252 -0.1628
    1W        W52691  11.155   0.391   7.110  0.2609 -0.3543 -0.0574
    1W        W52692  20.580  22.127   2.940  0.2622 -0.2543 -0.2718
    1W        W52693   4.312  25.622   0.330  0.2190 -0.1262  0.1079
    1W        W52694   2.138   0.599   7.904 -0.3453 -0.0875 -0.0609
    1W        W52695  19.323  13.120   9.049 -0.3469 -0.0224  0.0524
    1W        W52696   3.829  21.627   1.197  0.0578 -0.0708  0.0199
    1W        W52697  10.330  12.902   7.196 -0.2608 -0.1587  0.1125
    1W        W52698   8.158   0.397   1.870 -0.0592  0.1888  0.1285
    1W        W52699  14.602   6.811   7.223 -0.2964  0.1096  0.0458
    1W        W52700  13.957  29.213   0.535  0.0131  0.4665 -0.0171
    1W        W52701   0.263  16.218   0.201  0.1559  0.1667 -0.0052
    1W        W52702   2.901   6.004   8.602  0.1534  0.0278  0.0100
    1W        W52703  22.459  22.975   1.087  0.5063 -0.3237  0.0142
    1W        W52704   7.417  22.667   9.397  0.2282 -0.0249 -0.2582
    1W        W52705  13.447   8.358   7.476  0.3493 -0.0059  0.3263
    1W        W52706  28.272  24.248   8.272  0.2450 -0.1856  0.0031
    1W        W52707  12.171   9.663   9.466  0.1707  0.2560  0.0591
    1W        W52708  20.550   0.638   1.644 -0.1261 -0.1340 -0.0019
    1W        W52709  20.933  18.483   8.953  0.0600 -0.0802  0.3714
    1W        W52710   9.029  16.680   8.094 -0.0357 -0.2290  0.1821
    1W        W52711   0.526  22.265   9.451 -0.3195 -0.2785 -0.1193
    1W        W52712  27.644  11.426   1.906  0.0183 -0.2933  0.0582
    1W        W52713  27.977  10.660   9.280 -0.4622  0.0787 -0.0132
    1W        W52714  17.546  15.802   0.358  0.0544 -0.0118  0.1968
    1W        W52715   0.914   2.165   6.343 -0.0134 -0.0248  0.1388
    1W        W52716  24.418  11.792   2.110 -0.0379 -0.0123  0.0475
    1W        W52717  22.005  24.927   1.248  0.0374 -0.0486 -0.1978
    1W        W52718  14.363  22.757   7.865 -0.1075 -0.0364 -0.0687
    1W        W52719   0.564  26.558   0.488 -0.3127 -0.1577 -0.0354
    1W        W52720   5.225  24.213   9.037  0.2955  0.1171  0.2152
    1W        W52721   2.932  14.765   9.226  0.0158  0.0050  0.0697
    1W        W52722  11.201  18.282   7.932 -0.5159 -0.0189 -0.1692
    1W        W52723  26.202   0.756   7.146  0.1290 -0.0212  0.0236
    1W        W52724  28.409  20.363   0.622 -0.3679 -0.1711 -0.2529
    1W        W52725  18.909  23.626   0.157 -0.2852  0.4327 -0.0597
    1W        W52726  23.753  16.615   3.098 -0.1125  0.1681  0.0906
    1W        W52727   8.008   3.181   7.400 -0.3784 -0.0598 -0.0724
    1W        W52728   4.242   0.016   8.858 -0.0748  0.3981  0.2758
    1W        W52729   3.211  12.523   8.416  0.2073 -0.0638  0.0105
    1W        W52730  10.356  19.129   8.888  0.0009 -0.1469 -0.3694
    1W        W52731  13.474  10.567   6.735 -0.0120 -0.1156  0.3004
    1W        W52732   2.310  19.831   0.207 -0.1651  0.2463 -0.0557
    1W        W52733  28.603  25.123   6.529  0.0278  0.0381  0.0052
    1W        W52734  21.074  22.014   8.053  0.1053 -0.1335  0.0907
    1W        W52735   8.522  17.020   8.186  0.3945  0.2381 -0.0637
    1W        W52736   5.672   9.169   9.214 -0.2275 -0.1962 -0.0585
    1W        W52737  15.501  12.891   0.718  0.2113 -0.1220  0.0637
    1W        W52738  10.163   0.292   8.324  0.0433  0.1124 -0.2986
    1W        W52739  28.714  18.864   8.928 -0.0808  0.0513  0.1171
    1W        W52740  18.557   5.542   8.744  0.2515 -0.0606  0.2315
    1W        W52741   6.218  20.600   6.173 -0.3348 -0.0663 -0.0008
    1W        W52742   9.441  26.296   0.876 -0.1762 -0.3125  0.0373
    1W        W52743  26.831  27.958   0.925 -0.1536 -0.5255  0.0629
    1W        W52744  12.515   2.906   0.107 -0.1793  0.3070  0.2291
    1W        W52745  27.196  29.578   0.414 -0.2976  0.1656  0.0370
    1W        W52746  11.553   8.704   0.896  0.2879 -0.0313 -0.0896
    1W        W52747   3.462   5.300   9.571 -0.2620  0.2863  0.3848
    1W        W52748  12.755  18.475   2.250  0.1611  0.3460 -0.2271
    1W        W52749  11.395  22.844   8.391  0.1235 -0.0359  0.0794
    1W        W52750  28.605  22.599   1.767  0.2694 -0.1445 -0.2491
    1W        W52751   4.990   8.297   1.663 -0.2378  0.0279 -0.2129
    1W        W52752  16.090  22.794   2.056 -0.0116  0.1134  0.0036
    1W        W52753  13.691  26.415   1.160 -0.0366  0.0302 -0.0281
    1W        W52754  11.007  15.440   1.506  0.0295 -0.0203  0.2476
    1W        W52755   6.508   5.260   6.852  0.2042  0.0105 -0.1834
    1W        W52756  12.714   1.658   1.843  0.0767 -0.0180  0.0513
    1W        W52757  21.119  11.067   7.985 -0.0179 -0.1047 -0.2189
    1W        W52758  20.251   5.798   9.069 -0.2839  0.4743 -0.0446
    1W        W52759  29.112  18.725   9.404  0.1414  0.0856 -0.1731
    1W        W52760  10.778  26.489   1.589 -0.0212  0.2633  0.3980
    1W        W52761  22.329  10.482   7.156 -0.3192 -0.1136  0.0022
    1W        W52762  16.049   1.319   7.086  0.1586  0.1255 -0.1900
    1W        W52763  13.821  26.003   6.800  0.1843 -0.0639  0.0645
    1W        W52764  18.395  25.263   1.866 -0.1024 -0.3177 -0.1890
    1W        W52765  20.647  23.279   3.558  0.4619 -0.4667 -0.1599
    1W        W52766  13.480  11.562   8.571 -0.1580 -0.0392  0.0082
    1W        W52767   9.504  13.570   7.571  0.1327  0.0007 -0.1643
    1W        W52768  25.171  23.863   0.688  0.1369  0.1258  0.1365
    1W        W52769  19.304   7.244   7.881 -0.2731  0.0660  0.2367
    1W        W52770  22.256  19.188   8.406  0.1754  0.2653 -0.1299
    1W        W52771  18.353   0.269   9.183 -0.1331  0.0856  0.0316
    1W        W52772  11.042   7.013   7.099 -0.1460  0.0715  0.1252
    1W        W52773  29.040  25.074   9.191  0.1945 -0.2956 -0.1507
    1W        W52774   5.427  21.104   8.613  0.0884 -0.1257 -0.0062
    1W        W52775   1.393   8.362   0.840  0.0593 -0.3161  0.0900
    1W        W52776  28.378  18.071   9.141 -0.1987  0.2794  0.1108
    1W        W52777   5.193   0.408   6.315 -0.1215 -0.4080 -0.0278
    1W        W52778  23.389  14.663   1.795 -0.0809 -0.1426 -0.0195
    1W        W52779  15.838  26.393   8.272 -0.1369 -0.1622  0.3268
    1W        W52780  17.966   3.787   7.095  0.0694  0.0746  0.1381
    1W        W52781  21.694  10.409   8.880  0.1101  0.0189 -0.0035
    1W        W52782  15.952  16.827   9.260  0.3216 -0.2140 -0.1879
    1W        W52783   7.695   7.843   1.748  0.0836 -0.0989  0.1696
    1W        W52784   6.824  19.008   1.016 -0.1054 -0.2234 -0.1757
    1W        W52785  24.334  21.324   1.445  0.0087  0.4511  0.1148
    1W        W52786   2.775  15.122   7.318  0.1126 -0.0908 -0.1144
    1W        W52787  27.621  15.450   2.803  0.0024  0.0301 -0.1101
    1W        W52788  28.225  12.653   9.466  0.2300 -0.3184 -0.0057
    1W        W52789   6.006  23.221   6.452  0.0202  0.1920 -0.0409
    1W        W52790  21.903  23.972   1.707  0.0547  0.0628 -0.1233
    1W        W52791  21.981  13.275   7.879 -0.0828 -0.0379  0.1100
    1W        W52792  17.370  13.496   8.894 -0.0576 -0.0211 -0.1911
    1W        W52793  20.258   2.518   1.345 -0.1315  0.1557  0.2621
    1W        W52794  22.407  28.903   1.721  0.0278 -0.1729 -0.3688
    1W        W52795  21.231   4.216   9.501 -0.0184  0.2203  0.0929
    1W        W52796  14.738   7.872   0.115 -0.0113  0.0667  0.0805
    1W        W52797  17.124  29.323   1.030 -0.1409 -0.1982 -0.1723
    1W        W52798   0.226  23.203   8.182  0.0855 -0.0142  0.2705
    1W        W52799   7.210  27.535   8.446  0.1944  0.0279 -0.2079
    1W        W52800  11.936   1.822   8.244  0.2804 -0.0371 -0.1225
    1W        W52801  27.518  18.950   2.307 -0.0430  0.1975 -0.3533
    1W        W52802   6.280  25.607   3.212 -0.3368  0.0683 -0.2591
    1W        W52803  26.517  16.168   2.714  0.0353 -0.0792  0.0197
    1W        W52804  10.263  14.046   2.149 -0.0125  0.1622 -0.1485
    1W        W52805   4.278  22.111   1.144 -0.1080 -0.3225 -0.1617
    1W        W52806  12.268   6.158   7.537 -0.1774  0.2523  0.0718
    1W        W52807  15.573   1.164   7.071  0.2750  0.0664 -0.1257
    1W        W52808   6.184  26.811   6.377 -0.0309 -0.0437 -0.2226
    1W        W52809  22.575  14.331   2.714  0.0438 -0.3258  0.0807
    1W        W52810   7.706  10.320   0.036 -0.0445 -0.1463 -0.0792
    1W        W52811  12.991   3.999   7.111  0.1453 -0.0508  0.1390
    1W        W52812   1.407   5.657   0.922  0.3426 -0.2164 -0.3441
    1W        W52813  26.191  25.292   2.999  0.3000 -0.2448  0.0502
    1W        W52814  26.402  27.694   8.902  0.0579 -0.0844  0.2439
    1W        W52815  12.478  15.360   9.471 -0.0529 -0.3638 -0.3386
    1W        W52816  18.854   3.598   9.561  0.1903 -0.0001 -0.1461
    1W        W52817   8.518  24.868   8.684 -0.2420 -0.1618 -0.0321
    1W        W52818   3.671   0.933   8.310  0.0762 -0.1144 -0.0204
    1W        W52819  17.833  12.092   0.516  0.1742  0.1062  0.0931
    1W        W52820  27.753  23.665   8.980  0.0664 -0.1699 -0.0019
    1W        W52821  24.737   0.670   1.523  0.2381  0.1565  0.1492
    1W        W52822  21.750   0.988   2.566 -0.1342 -0.2688 -0.0675
    1W        W52823  17.340  24.210   9.096 -0.1637  0.2167 -0.0035
    1W        W52824  26.290  11.092   8.315  0.1021  0.0691 -0.2034
    1W        W52825   5.526  26.157   7.201 -0.2604  0.0567 -0.1571
    1W        W52826   4.956   5.164   2.106 -0.1360  0.1576  0.2108
    1W        W52827  18.940   6.428   7.764  0.0180  0.0402 -0.1062
    1W        W52828  25.498   8.159   7.801  0.0417  0.1508 -0.2284
    1W        W52829  12.216   2.596   9.006 -0.0186 -0.3003 -0.1443
    1W        W52830  19.140  17.294   8.953 -0.1237  0.3991  0.1521
    1W        W52831  27.903  10.283   0.406  0.0100 -0.1962 -0.4007
    1W        W52832  10.697   3.612   9.404 -0.1738 -0.0322 -0.1610
    1W        W52833  18.784  28.810   1.669 -0.0661  0.0050  0.3180
    1W        W52834   1.189  25.942   1.968  0.5621 -0.0081 -0.0419
    1W        W52835   5.926  19.013   7.319 -0.0562  0.2463  0.0815
    1W        W52836  16.937  10.537   8.778 -0.0415 -0.0485  0.0362
    1W        W52837  17.951  16.098   0.302 -0.1718  0.3874  0.0619
    1W        W52838  26.252  20.127   2.314 -0.0569  0.0281 -0.0026
    1W        W52839  22.774   8.509   0.931  0.1907  0.1762 -0.0651
    1W        W52840  11.435   7.397   7.079  0.4592 -0.3651 -0.0940
    1W        W52841  21.939  16.094   1.329 -0.1563  0.2049  0.2630
    1W        W52842  20.320  17.490   1.477  0.4548 -0.1584 -0.0765
    1W        W52843  10.847  20.941   1.119  0.3312  0.0966 -0.3206
    1W        W52844   5.178   8.614   5.285 -0.1112 -0.1988  0.0067
    1W        W52845  19.008   2.811   6.906  0.1150  0.2678  0.0767
    1W        W52846  21.463   8.123   1.080  0.0806  0.0331 -0.1119
    1W        W52847   7.793  29.209   1.383  0.4171 -0.0537 -0.2063
    1W        W52848  28.162  12.534   2.637 -0.0158  0.0815 -0.1254
    1W        W52849   7.737  22.061   0.273 -0.1230 -0.0356  0.4640
    1W        W52850   9.350   9.269   1.138  0.3238  0.0338  0.0405
    1W        W52851  16.345  19.615   2.288 -0.2100  0.0744 -0.1314
    1W        W52852   9.305  13.445   1.349 -0.3782 -0.3674 -0.3666
    1W        W52853   2.740  11.353   9.228  0.1379  0.0078 -0.0333
    1W        W52854   5.824  16.930   6.941 -0.2430 -0.1089  0.0996
    1W        W52855  25.623  21.393   2.610 -0.1959 -0.3562 -0.0637
    1W        W52856  12.536  25.802   7.016  0.0549  0.0508  0.2987
    1W        W52857  14.356   9.792   7.279  0.1149  0.2042  0.1685
    1W        W52858  21.517  22.898   7.152 -0.1123 -0.0453 -0.2220
    1W        W52859  28.695  14.586   0.986 -0.1272 -0.1891  0.0456
    1W        W52860   5.245  11.808   9.086 -0.2067  0.2049 -0.0372
    1W        W52861   2.404   0.480   0.214  0.1385 -0.3555  0.0436
    1W        W52862   2.588  18.203   8.123  0.0115  0.0302 -0.1389
    1W        W52863  16.808   0.136   7.283  0.0908 -0.1489 -0.3250
    1W        W52864  19.846  13.391   8.857 -0.2453 -0.3555  0.2944
    1W        W52865   8.496   8.517   2.235  0.1358  0.0220 -0.1389
    1W        W52866   3.551  22.156   8.124 -0.0108  0.2353 -0.1472
    1W        W52867  23.933  25.045   1.198  0.2364  0.2100 -0.2691
    1W        W52868  28.089  19.937   3.449  0.3865 -0.0229 -0.0163
    1W        W52869  25.434  22.928   8.414 -0.1186  0.1059 -0.0829
    1W        W52870  10.742  18.373   6.557  0.0603 -0.2178 -0.0654
    1W        W52871  24.993  17.461   0.112 -0.1877 -0.0695  0.0556
    1W        W52872  20.619   1.118   8.879  0.0029 -0.1347 -0.0225
    1W        W52873  19.824  20.546   8.376  0.0483  0.2059 -0.0200
    1W        W52874  16.322  24.863   2.044 -0.1334 -0.2187  0.0016
    1W        W52875  18.280  22.844   9.211  0.2166  0.1564  0.1039
    1W        W52876  10.979   3.243   2.438  0.0147 -0.0686 -0.1824
    1W        W52877   6.305  13.759   7.031  0.0415 -0.0429 -0.1670
    1W        W52878   6.194  11.609   6.689  0.1323  0.0192 -0.0174
    1W        W52879  27.528  29.315   6.691 -0.0781  0.1296 -0.1109
    1W        W52880  14.780  12.589   8.715  0.3208 -0.1101  0.0798
    1W        W52881  18.580  23.906   7.599 -0.2135 -0.0110  0.0700
    1W        W52882  13.402   3.262   7.308  0.0821 -0.2891 -0.1279
    1W        W52883   6.767   6.391   0.366 -0.0656 -0.1518 -0.1880
    1W        W52884  29.604  21.849   4.092 -0.2973  0.1433 -0.0008
    1W        W52885  10.648  10.752   7.668 -0.0554  0.0755  0.0254
    1W        W52886   7.625  23.071   0.231  0.0780  0.0550 -0.1100
    1W        W52887  20.333  23.413   1.682 -0.1631  0.0624 -0.0541
    1W        W52888   5.692  12.767   1.540 -0.0830 -0.2733 -0.0314
    1W        W52889   7.246  26.738   1.955  0.2153 -0.2259 -0.2414
    1W        W52890   0.463  27.432   1.972 -0.1375 -0.2860  0.1197
    1W        W52891  12.838  28.155   7.972 -0.1630  0.1554  0.1707
    1W        W52892   9.996   0.424   0.411 -0.1616  0.1209  0.0383
    1W        W52893   2.824  23.375   0.255 -0.0545  0.0670 -0.3899
    1W        W52894  12.553  18.828   0.660 -0.0211  0.4002 -0.0164
    1W        W52895  21.979  11.206   8.661 -0.4454  0.0228 -0.0035
    1W        W52896   4.221   6.033   8.272 -0.2652 -0.0571  0.3455
    1W        W52897  25.799   7.953   7.202 -0.1001  0.1187  0.0914
    1W        W52898  24.603   9.801   1.865 -0.0911 -0.0836 -0.3002
    1W        W52899  27.497   9.425   0.669  0.1923  0.2128 -0.0281
    1W        W52900  25.858  11.215   0.989 -0.0602 -0.0534  0.2407
    1W        W52901  19.368  29.340   0.842  0.3313  0.0227 -0.0422
    1W        W52902  10.009  16.743   7.662 -0.0037  0.0512  0.0610
    1W        W52903  21.702  20.602   2.173 -0.1767 -0.1505  0.2012
    1W        W52904  11.740  14.509   8.354  0.1932 -0.0621 -0.2080
    1W        W52905  22.994  24.764   1.324 -0.0789 -0.0816 -0.1701
    1W        W52906  20.205  16.597   0.862  0.2024  0.1753  0.1343
    1W        W52907   7.234  26.623   8.206 -0.2096 -0.0516 -0.0715
    1W        W52908   7.968  24.266   1.856  0.1643  0.1492  0.2948
    1W        W52909  15.156  25.407   0.847 -0.0339  0.0333  0.0853
    1W        W52910  10.847  18.573   0.015  0.3115  0.0882  0.2748
    1W        W52911   0.966  27.012   6.181 -0.1503  0.3107 -0.0911
    1W        W52912  19.944   2.737   0.725  0.4254  0.1812  0.1937
    1W        W52913   5.715   0.125   0.557  0.0208  0.0663 -0.1070
    1W        W52914  23.373  24.847   2.201 -0.1853 -0.0628  0.1873
    1W        W52915   7.594   5.209   2.047 -0.1427 -0.0524  0.0014
    1W        W52916  10.609  19.681   7.068  0.0670  0.3655  0.1603
    1W        W52917   2.957  19.813   0.389  0.1670  0.2311  0.0766
    1W        W52918  11.700   1.398   6.759  0.0730 -0.1245 -0.2017
    1W        W52919   1.669   6.093   6.386  0.1868  0.3854 -0.0961
    1W        W52920  17.130   4.725   2.560  0.2756 -0.1292 -0.0707
    1W        W52921   8.782   8.763   0.944 -0.0719  0.2849  0.3504
    1W        W52922   8.339  13.285   0.788  0.0615  0.2926  0.2518
    1W        W52923  23.116  14.737   1.286 -0.1556  0.0210 -0.1581
    1W        W52924  22.632   9.300   9.069 -0.2496  0.0078  0.1554
    1W        W52925  26.510  15.165   0.160  0.0962 -0.1859 -0.0320
    1W        W52926  10.691   4.744   6.307  0.0115  0.0925  0.0402
    1W        W52927  23.570  22.299   0.269 -0.0066 -0.0113  0.1066
    1W        W52928   9.756  10.286   5.227 -0.3451  0.2624 -0.2245
    1W        W52929   1.003  10.584   0.774 -0.0554  0.0253 -0.3323
    1W        W52930  20.079   8.575   2.282 -0.0421 -0.1315  0.0440
    1W        W52931   9.923  12.182   6.950 -0.1422 -0.1776  0.1696
    1W        W52932  18.395  27.658   0.232  0.2107 -0.2588  0.0897
    1W        W52933   5.371   5.328   9.590  0.3174  0.0591  0.2218
    1W        W52934   3.397   1.420   9.468  0.3538 -0.1418  0.0895
    1W        W52935  23.818  24.874   4.357  0.0486 -0.1527  0.2996
    1W        W52936  10.631  11.518   8.791  0.0025 -0.0001 -0.1670
    1W        W52937  29.513  18.666   8.595 -0.0984  0.1804  0.1542
    1W        W52938   2.387   7.159   7.385  0.1084 -0.2316  0.1025
    1W        W52939  10.477  19.967   9.436 -0.2173  0.0239 -0.4899
    1W        W52940   6.107  10.479   8.138 -0.0636 -0.0039 -0.1823
    1W        W52941   1.441  26.669   8.475 -0.1102  0.0483  0.0316
    1W        W52942  13.450  28.424   2.704  0.1349 -0.1883  0.1432
    1W        W52943  10.624  12.887   1.542 -0.1697  0.3579  0.3691
    1W        W52944  23.746   3.045   0.529  0.2381  0.0776 -0.2583
    1W        W52945   3.909  12.563   6.891  0.0386 -0.2994 -0.0765
    1W        W52946  25.353  27.954   2.216 -0.1634 -0.2914 -0.2780
    1W        W52947  14.669  14.563   0.350  0.1890  0.0630 -0.0832
    1W        W52948   8.968  27.265   5.945  0.1097 -0.1929 -0.3129
    1W        W52949  29.311  22.489   1.264  0.4945  0.1179  0.0035
    1W        W52950   0.324  27.469   6.757 -0.1044 -0.0781 -0.1498
    1W        W52951   9.543  15.858   0.846  0.3226 -0.0088 -0.0227
    1W        W52952   8.129   6.152   9.469  0.0975 -0.2463 -0.1429
    1W        W52953  19.886  22.595   2.610 -0.4043  0.1052  0.2396
    1W        W52954  22.120  19.614   8.549 -0.2742 -0.3579 -0.0420
    1W        W52955  22.441   9.024   0.772  0.1253 -0.0993  0.2080
    1W        W52956  26.437  25.851   7.974 -0.0259  0.1282  0.0206
    1W        W52957  17.097  14.643   8.501 -0.3011 -0.1349  0.1643
    1W        W52958   1.092  15.327   7.565  0.1146  0.0945  0.2831
    1W        W52959  22.895   3.301   3.234 -0.1406 -0.1237 -0.1445
    1W        W52960   8.157  20.612   9.386 -0.0776  0.0666 -0.1639
    1W        W52961   4.762  27.692   6.970 -0.1643  0.1669  0.1685
    1W        W52962  11.997   3.485   7.447  0.0044  0.3016 -0.0127
    1W        W52963  29.310   5.726   1.210  0.1196  0.1014  0.3764
    1W        W52964  13.240  24.059   9.525  0.1054  0.0985 -0.2306
    1W        W52965   4.528  28.332   6.966 -0.1768 -0.1002  0.0086
    1W        W52966   8.795  12.076   6.556 -0.1688  0.1515 -0.0035
    1W        W52967  16.975  27.938   6.767  0.1484  0.2070 -0.1423
    1W        W52968   6.376  14.184   6.020  0.2041  0.0042  0.0437
    1W        W52969  20.867  16.863   2.244 -0.2761 -0.2503  0.6349
    1W        W52970   5.653   0.969   1.728  0.0312 -0.0247  0.1371
    1W        W52971   6.772  24.543   6.464  0.1102 -0.2484 -0.2308
    1W        W52972  27.464   4.771   8.949 -0.2248  0.0032  0.2172
    1W        W52973   2.495   0.235   1.553 -0.1240 -0.1135  0.0072
    1W        W52974  11.621   5.670   1.809 -0.0070 -0.2004 -0.0420
    1W        W52975  19.132  25.271   0.037  0.3803  0.3274  0.0795
    1W        W52976   3.198   7.223   1.536  0.0532  0.1878  0.1148
    1W        W52977  20.339  19.108   3.022  0.1383 -0.0534  0.2585
    1W        W52978  18.825  27.861   9.618  0.6238  0.1612  0.2523
    1W        W52979   1.442   3.086   8.926  0.1041 -0.0723 -0.0022
    1W        W52980   0.859  24.491   0.700  0.3396  0.1839  0.1068
    1W        W52981  17.921   4.217   8.939  0.0570 -0.1018 -0.0476
    1W        W52982  18.492  19.423   2.137 -0.1077 -0.3931 -0.1146
    1W        W52983   1.725  28.297   8.373  0.0865  0.1313  0.2624
    1W        W52984  21.224  29.470   9.079  0.0655 -0.0335  0.0144
    1W        W52985   8.662  21.875   9.582 -0.1149 -0.2516  0.0176
    1W        W52986  21.703  18.914   1.151  0.3590 -0.3078  0.0986
    1W        W52987  17.036   0.077   8.388  0.1657 -0.1884 -0.1224
    1W        W52988  13.735  25.596   7.759  0.0195 -0.1063 -0.1552
    1W        W52989  15.860  12.912   7.508  0.0502  0.1555 -0.0026
    1W        W52990   2.316  15.483   2.073  0.1222 -0.0200 -0.1153
    1W        W52991  27.443  27.126   0.639 -0.1308 -0.1229  0.2640
    1W        W52992  22.782  24.198   8.921 -0.1978  0.3918 -0.0895
    1W        W52993  23.135  20.599   2.531  0.4919  0.4209  0.1762
    1W        W52994   8.291   9.533   6.382 -0.0513 -0.2568  0.1838
    1W        W52995  27.419   4.123   2.632  0.0745  0.3292 -0.0178
    1W        W52996  21.740   8.369   9.353  0.0497  0.1298  0.1087
    1W        W52997  28.744  25.013   1.751 -0.0705  0.2172 -0.2088
    1W        W52998   2.960   0.236   6.587 -0.0821 -0.1340  0.0147
    1W        W52999  14.629   1.405   0.784  0.1078 -0.1244 -0.1379
    1W        W53000  12.334  21.974   9.469  0.1268 -0.0603  0.1582
    1W        W53001  11.470  26.867   7.462 -0.1383 -0.2440  0.0075
    1W        W53002  15.643  25.723   1.823  0.1028 -0.1439 -0.1024
    1W        W53003   2.507  29.331   3.148 -0.0597 -0.0046 -0.2004
    1W        W53004  27.757  21.024   8.818 -0.0359  0.2111  0.1780
    1W        W53005  14.006   4.497   0.807  0.4433 -0.0019 -0.1716
    1W        W53006  22.244   1.949   7.244  0.1073 -0.2871 -0.3874
    1W        W53007  23.846  17.499   2.339 -0.1743  0.2444  0.1052
    1W        W53008  12.171  18.117   0.081 -0.6280 -0.0711 -0.0084
    1W        W53009  24.350  28.560   3.555 -0.0306  0.1757 -0.3428
    1W        W53010   1.423  14.963   0.217  0.0669  0.1416  0.1059
    1W        W53011  20.889   5.730   2.140 -0.0864  0.0873 -0.0386
    1W        W53012   8.964   2.528   7.147  0.1692 -0.0821  0.1377
    1W        W53013   7.130  16.583   2.064 -0.1340 -0.0903 -0.2090
    1W        W53014  28.336   9.030   7.157 -0.0721 -0.2539  0.2479
    1W        W53015  29.504  10.001   9.274  0.0132 -0.2597 -0.0686
    1W        W53016  11.258  15.928   2.930 -0.1162 -0.1241  0.0262
    1W        W53017  18.863  12.398   8.790  0.1159  0.0116 -0.2136
    1W        W53018  17.889  13.425   8.916 -0.1955  0.0610 -0.5147
    1W        W53019   7.702  24.685   7.902  0.2222  0.0969  0.1787
    1W        W53020  10.373  13.148   8.635  0.1926 -0.2473  0.0830
    1W        W53021   8.384  24.328   8.787  0.1287 -0.1359 -0.1077
    1W        W53022   6.262  12.282   4.940  0.4668  0.1612 -0.0476
    1W        W53023  27.304  24.655   9.071  0.2235 -0.2190  0.0132
    1W        W53024   9.061  27.651   7.263 -0.0701  0.2814  0.0353
    1W        W53025   2.403  12.555   7.716 -0.2179 -0.3625  0.0757
    1W        W53026   9.655   5.453   8.042 -0.2499 -0.0365  0.2141
    1W        W53027   7.445  17.651   5.653  0.1331  0.1258  0.2587
    1W        W53028  18.905  26.277   3.643  0.4150  0.3563  0.2704
    1W        W53029   6.724  11.366   0.989 -0.0223  0.3001  0.1015
    1W        W53030  28.270  22.335   0.119  0.0652 -0.2647 -0.2133
    1W        W53031  28.592  16.388   0.080  0.0364  0.3498 -0.0822
    1W        W53032  12.140   9.667   8.422  0.1488  0.1112 -0.1427
    1W        W53033  26.505  14.234   8.954 -0.3874  0.1067 -0.0989
    1W        W53034  20.525   7.093   0.345  0.1454 -0.0085  0.2331
    1W        W53035  17.733  12.283   2.675  0.3847  0.3985  0.0715
    1W        W53036   8.734  22.879   7.562  0.1340 -0.1285  0.1620
    1W        W53037  12.976  23.659   3.100  0.1999  0.1042 -0.1578
    1W        W53038  17.552  12.144   8.838  0.0530  0.1015 -0.3046
    1W        W53039  20.261  29.138   7.516 -0.2303 -0.1089  0.4705
    1W        W53040   6.459   6.169   8.763 -0.1371 -0.1932  0.0230
    1W        W53041   9.453   5.578   9.392 -0.1074  0.2357  0.2378
    1W        W53042  17.445   7.768   8.683  0.2067 -0.1534  0.3473
    1W        W53043  15.300   2.712   8.387  0.1102  0.1214 -0.1138
    1W        W53044  27.888  27.894   7.708  0.1995  0.0410  0.2828
    1W        W53045   0.240  12.823   8.411  0.0421  0.3546  0.0687
    1W        W53046   8.945  19.564   2.944  0.4310  0.1306  0.2578
    1W        W53047   0.690  20.189   9.144 -0.1398 -0.1222 -0.3344
    1W        W53048   6.723   7.893   6.299 -0.1323 -0.0579 -0.0797
    1W        W53049   4.543  22.709   8.684 -0.1422  0.1495  0.0620
    1W        W53050  26.997   4.454   7.536  0.2844  0.0372 -0.1205
    1W        W53051  14.181  20.032   6.881 -0.0461  0.2654  0.1811
    1W        W53052  10.455  25.016   0.185 -0.1093 -0.2254  0.2093
    1W        W53053  26.365  14.037   0.900 -0.2555 -0.0339  0.0630
    1W        W53054  11.828  20.765   8.939 -0.0181 -0.0376 -0.1468
    1W        W53055  22.071  22.995   2.003 -0.1305  0.0111  0.0494
    1W        W53056  21.106  17.577   2.087  0.1719 -0.2780  0.0570
    1W        W53057   0.871  25.671   8.826  0.2244 -0.2166  0.0724
    1W        W53058  25.071   2.866   7.851  0.2539  0.1247 -0.0897
    1W        W53059  16.567  29.031   1.883 -0.0634  0.0500 -0.2036
    1W        W53060   9.624  19.677   6.530  0.1116  0.0332 -0.0970
    1W        W53061   5.876   1.777   7.095  0.3170 -0.3273  0.0451
    1W        W53062  10.027   9.400   0.566  0.2900 -0.3199 -0.0587
    1W        W53063  19.368   4.546   9.452  0.0465  0.0374  0.0760
    1W        W53064  12.234  19.614   6.114 -0.2001 -0.1112  0.0626
    1W        W53065  14.365  19.704   7.229  0.0714  0.0939  0.0040
    1W        W53066  12.138  13.639   1.025 -0.1479 -0.1088 -0.2072
    1W        W53067   4.492  11.065   8.137  0.3393 -0.1141 -0.2209
    1W        W53068  11.049   1.226   7.246 -0.5867 -0.1810 -0.2983
    1W        W53069  14.131  27.097   8.411 -0.1649 -0.1564 -0.0407
    1W        W53070  15.184   3.306   7.146  0.1900  0.4253 -0.2482
    1W        W53071   2.700  15.283   8.468  0.1151 -0.3114 -0.1985
    1W        W53072  24.019  18.218   8.921  0.2533  0.1064 -0.0780
    1W        W53073  17.149  13.677   1.300 -0.0541 -0.0676 -0.0893
    1W        W53074   0.068  18.246   8.767  0.0905 -0.2711 -0.0264
    1W        W53075  18.847   7.310   8.126  0.2013  0.1784 -0.1915
    1W        W53076  23.793  13.780   2.268 -0.0725 -0.0684  0.2144
    1W        W53077  14.644  13.888   2.268  0.2655 -0.0109  0.1398
    1W        W53078   1.129   0.455   1.292  0.0538  0.3177 -0.0296
    1W        W53079   8.076   9.799   5.985 -0.0229 -0.1109 -0.0276
    1W        W53080   4.997   1.784   9.175  0.0728 -0.0098 -0.0876
    1W        W53081  27.575  23.220   9.044  0.3896  0.0544 -0.0133
    1W        W53082   1.925  26.822   8.799  0.0830  0.3325 -0.0493
    1W        W53083   4.348   4.453   0.705  0.1502  0.1056  0.0960
    1W        W53084   1.711   1.843   8.695  0.3055 -0.0195  0.0080
    1W        W53085   3.110  17.933   2.747 -0.1255  0.1518  0.0097
    1W        W53086  15.869  27.171   9.438  0.0331 -0.1164 -0.1775
    1W        W53087  23.481  18.875   8.756 -0.0654 -0.1414 -0.1983
    1W        W53088   0.992  25.260   8.417 -0.1541  0.0510  0.1707
    1W        W53089   0.855  24.395   0.218  0.4005  0.0574 -0.0649
    1W        W53090  14.482  28.633   1.211 -0.0767  0.1381 -0.1709
    1W        W53091   5.261   3.358   0.442  0.2755  0.3119 -0.0855
    1W        W53092  28.794  20.088   8.269  0.0158 -0.1683  0.1569
    1W        W53093  18.646  11.977   0.041 -0.1598  0.2919 -0.1394
    1W        W53094   2.711  11.552   6.203  0.0083 -0.1883 -0.1152
    1W        W53095  10.702  17.103   7.051 -0.0284  0.0528  0.1772
    1W        W53096  15.373   4.533   8.897 -0.1360 -0.2238 -0.1106
    1W        W53097  28.653  14.810   0.338  0.2476  0.0305  0.1090
    1W        W53098   9.948  23.361   5.769 -0.2286  0.1888 -0.0131
    1W        W53099  13.809   2.786   6.952  0.1585  0.3561  0.2755
    1W        W53100  26.170  27.590   8.424  0.0369 -0.0697 -0.0257
    1W        W53101  26.796  23.539   2.270  0.0269  0.1875  0.4016
    1W        W53102   9.385  28.066   8.520  0.0238 -0.2009 -0.1453
    1W        W53103   7.662  19.547   6.359 -0.1038  0.5516  0.0785
    1W        W53104  26.004  27.516   0.980  0.0331 -0.0354 -0.0822
    1W        W53105  18.168   7.222   0.789 -0.3296  0.0544  0.1139
    1W        W53106  27.626  29.285   1.409 -0.0416  0.1566  0.0158
    1W        W53107  16.929   3.934   2.154 -0.2198  0.3770 -0.0681
    1W        W53108  17.675  18.040   1.798  0.0104 -0.0533 -0.0763
    1W        W53109  26.706  22.029   0.577  0.0888 -0.2058 -0.2048
    1W        W53110  22.184  25.614   0.755 -0.0322  0.2162 -0.1630
    1W        W53111   4.508  19.326   8.625  0.0151 -0.0147 -0.3377
    1W        W53112  14.275  16.349   2.278 -0.0446  0.2186  0.0249
    1W        W53113   3.357   5.469   1.056 -0.1485 -0.1329  0.0455
    1W        W53114  20.666   7.090   2.497  0.0883  0.3200  0.1882
    1W        W53115  12.594   0.489   0.336  0.0317 -0.0158  0.3173
    1W        W53116   7.888  12.193   7.016  0.0108  0.2483 -0.2666
    1W        W53117  29.277   2.572   8.008  0.5102  0.2321 -0.2861
    1W        W53118  26.481  22.302   1.498 -0.1337  0.0522  0.0162
    1W        W53119  12.682  10.959   2.510 -0.0746  0.0776 -0.0754
    1W        W53120  24.362  18.594   2.703 -0.2701 -0.0115  0.1341
    1W        W53121  26.249  19.818   3.092  0.1389  0.0328 -0.0613
    1W        W53122  21.896   8.492   1.790  0.3950 -0.1734  0.0830
    1W        W53123   1.880  11.147   0.057 -0.0697 -0.0005 -0.1683
    1W        W53124   6.010  26.245   0.104  0.0453 -0.3376 -0.0156
    1W        W53125   7.800   9.240   0.206 -0.0907 -0.0379  0.1272
    1W        W53126  18.512  26.608   0.158 -0.0725 -0.1081  0.3081
    1W        W53127  16.650  18.317   2.828 -0.2285 -0.2784 -0.0566
    1W        W53128  20.837   3.011   9.155 -0.1041 -0.0119 -0.0228
    1W        W53129  14.636  26.870   6.913 -0.0037 -0.3311  0.4139
    1W        W53130   2.683  21.876   3.557  0.0497 -0.1097 -0.0721
    1W        W53131  26.078  26.784   9.080 -0.1775 -0.4382 -0.1472
    1W        W53132   4.363  20.276   3.548  0.0143  0.0406  0.0658
    1W        W53133  26.702   2.083   0.956  0.1780 -0.0885  0.2013
    1W        W53134  20.942  23.152   8.887 -0.3419  0.1370  0.0472
    1W        W53135  21.122  20.095   3.723 -0.2166  0.4292  0.3934
    1W        W53136  14.752  23.764   8.764  0.2060  0.0045  0.1406
    1W        W53137  19.744  24.092   2.021 -0.2710 -0.2111 -0.5211
    1W        W53138   3.791  11.102   7.705 -0.4643  0.1883  0.0565
    1W        W53139  28.810   7.673   1.384  0.0724 -0.2434  0.1550
    1W        W53140  19.827  22.092   9.580 -0.1498  0.1569 -0.1472
    1W        W53141  28.849  23.474   8.705  0.3561 -0.3434 -0.2199
    1W        W53142  10.804  23.649   7.601  0.1394  0.0301  0.0468
    1W        W53143  17.805  23.449   0.445  0.0238 -0.2588  0.1810
    1W        W53144  13.235   8.672   0.944  0.2618 -0.2000  0.1066
    1W        W53145  19.808  12.754   0.176 -0.3800 -0.2857 -0.0579
    1W        W53146   5.108  12.819   7.048  0.0584  0.0543 -0.3074
    1W        W53147  14.483  23.269   8.926 -0.0479 -0.4840 -0.0685
    1W        W53148  24.193  27.444   3.047  0.2254  0.2345 -0.2880
    1W        W53149  29.224  13.080   2.287 -0.0744 -0.0148  0.1025
    1W        W53150   7.807  16.518   7.548  0.0884 -0.0185  0.2897
    1W        W53151  18.162   3.203   8.961 -0.0870 -0.0438  0.1786
    1W        W53152   1.271  18.789   9.351 -0.2767 -0.0848 -0.0196
    1W        W53153  23.641   3.945   8.980  0.2949 -0.0959 -0.3717
    1W        W53154  27.266   9.188   9.050  0.0846  0.3727  0.0165
    1W        W53155   7.923  20.664   1.185  0.2369  0.1111 -0.0982
    1W        W53156  28.122  17.815   1.833 -0.3627 -0.0988 -0.0975
    1W        W53157   0.355  29.450   9.026  0.3301  0.3621 -0.3752
    1W        W53158  26.047  20.520   6.870 -0.2046  0.0607 -0.3373
    1W        W53159  10.451  20.009   6.738  0.0059 -0.0698 -0.2575
    1W        W53160  24.666  27.399   6.735  0.0570 -0.2230 -0.0791
    1W        W53161   7.171  13.712   6.388 -0.0865  0.0420  0.0866
    1W        W53162  10.429  23.912   7.322 -0.0054  0.4833 -0.0329
    1W        W53163  14.648   9.434   8.605  0.0386 -0.2707  0.2730
    1W        W53164  17.345   9.743   1.132  0.1419  0.4203 -0.3060
    1W        W53165   9.200  14.802   8.956 -0.1491  0.0198  0.1853
    1W        W53166  26.840  27.501   7.131 -0.0537 -0.2224  0.1965
    1W        W53167  12.845  13.944   8.129  0.0998  0.0323 -0.0071
    1W        W53168   9.471  23.188   7.615 -0.1539  0.2251 -0.0145
    1W        W53169   3.193  23.762   3.126  0.0981 -0.1131 -0.0793
    1W        W53170  23.114  28.315   2.375 -0.0485 -0.1678 -0.0153
    1W        W53171   4.013  15.816   7.299  0.0848  0.1330 -0.0662
    1W        W53172   0.730   4.176   8.042 -0.0959 -0.0742  0.2458
    1W        W53173   5.003   8.973   0.897  0.1619  0.0683 -0.1237
    1W        W53174  18.732   4.973   8.876 -0.0783 -0.1812  0.3373
    1W        W53175  14.791  15.633   0.315 -0.3747 -0.0455 -0.1337
    1W        W53176  28.805  25.045   1.190  0.0635  0.2974  0.1106
    1W        W53177   2.368   9.135   7.066  0.3549 -0.1122  0.0622
    1W        W53178  19.168   3.740   0.276 -0.1761 -0.0510  0.0516
    1W        W53179  14.556  16.870   0.712 -0.6648  0.1093 -0.3989
    1W        W53180  25.906  15.638   9.524  0.2653 -0.0650 -0.1407
    1W        W53181  16.889  27.984   8.742 -0.2987 -0.0767  0.4131
    1W        W53182   5.766  11.807   6.899 -0.2710  0.1660 -0.1214
    1W        W53183  26.494  24.064   0.606 -0.0324 -0.0193  0.1122
    1W        W53184   9.073  23.284   0.682  0.1073 -0.1283  0.1563
    1W        W53185   0.031   6.551   9.520  0.1976 -0.0037  0.0486
    1W        W53186  13.082   3.765   1.477 -0.0426 -0.2148  0.3489
    1W        W53187  12.882  27.768   7.028 -0.1698  0.0609 -0.0374
    1W        W53188  26.067   7.481   0.385  0.1968  0.3157  0.2818
    1W        W53189  15.551  16.992   7.575 -0.1467  0.2890 -0.0325
    1W        W53190  13.826   4.643   2.079 -0.0173 -0.0391  0.3736
    1W        W53191  26.049   2.351   7.688  0.2532 -0.0064  0.5089
    1W        W53192  17.099  29.283   1.787 -0.1607  0.0704  0.0887
    1W        W53193   7.386  13.368   1.129 -0.0568  0.0481  0.1020
    1W        W53194   0.874  12.479   7.648  0.0467 -0.2359 -0.1654
    1W        W53195  21.227  27.196   2.418  0.0373  0.2410  0.1803
    1W        W53196  23.588   9.328   7.965 -0.1109 -0.1026  0.0070
    1W        W53197  22.054  25.659   9.642 -0.0586 -0.0744 -0.2634
    1W        W53198   2.949  24.986   7.876  0.0713 -0.2180  0.1565
    1W        W53199  22.260  29.272   0.783  0.0625 -0.2172 -0.1098
    1W        W53200   4.298   9.662   7.428  0.3078 -0.0612  0.3103
    1W        W53201  10.409   5.990   1.059 -0.0362  0.0742 -0.1367
    1W        W53202   6.032  23.662   1.641  0.0956 -0.1199 -0.1665
    1W        W53203  21.722  29.223   2.471 -0.1100  0.3077  0.0073
    1W        W53204   0.426  22.444   8.672 -0.3963  0.0839  0.2305
    1W        W53205  23.101  16.159   1.883  0.2822  0.1745  0.1865
    1W        W53206  17.254   5.411   6.550  0.0359  0.0059 -0.3647
    1W        W53207  14.670  22.831   0.195  0.4330  0.0173 -0.1984
    1W        W53208   3.525   5.719   0.246  0.1385 -0.1047 -0.0339
    1W        W53209  13.119  25.747   0.842 -0.0926  0.0571 -0.0404
    1W        W53210   0.540  13.619   6.593  0.0301  0.1730  0.2768
    1W        W53211   7.774  28.417   0.941 -0.2306  0.1938 -0.0181
    1W        W53212  15.939  20.596   6.459  0.2095 -0.0312  0.0014
    1W        W53213  28.596  23.185   7.820  0.0045 -0.0648 -0.2921
    1W        W53214  10.223  14.748   8.768  0.0001  0.1746 -0.1696
    1W        W53215   9.347  17.454   2.843  0.1009 -0.0675  0.0378
    1W        W53216   0.552  12.291   7.345 -0.3844  0.3517  0.2203
    1W        W53217   9.660   5.089   6.733 -0.0011  0.4882 -0.1890
    1W        W53218   3.606   0.765   7.771  0.2050  0.1604  0.2681
    1W        W53219   4.398  13.578   8.172  0.1487  0.1521  0.0316
    1W        W53220  10.837  18.908   8.847  0.1474 -0.0805  0.1592
    1W        W53221   0.173  22.438   1.058  0.2918 -0.0924  0.0809
    1W        W53222  26.729  15.030   8.117 -0.1209 -0.0745  0.3579
    1W        W53223  22.748  22.640   0.328  0.2352 -0.0943 -0.0880
    1W        W53224  24.273   6.599   1.593 -0.0815  0.2402 -0.0029
    1W        W53225  13.041  16.588   7.669 -0.0482  0.0260 -0.3890
    1W        W53226   6.327   8.686   2.007 -0.0183  0.2494 -0.3376
    1W        W53227  26.141  14.842   0.279  0.1246  0.0596 -0.2971
    1W        W53228   3.078   0.967   6.498 -0.1402 -0.0767 -0.0301
    1W        W53229  15.037  13.557   1.792  0.1905 -0.3728  0.1495
    1W        W53230  14.021   7.553   7.259 -0.1705  0.0608  0.1357
    1W        W53231  12.023  12.357   7.038 -0.1139  0.1155  0.1103
    1W        W53232  18.794  27.898   0.510  0.0356  0.0810 -0.1537
    1W        W53233  18.351  16.606   0.823  0.2878  0.0127 -0.0992
    1W        W53234  26.758  12.739   8.508  0.1413  0.0696  0.0469
    1W        W53235  19.839  18.502   0.618 -0.0377 -0.0730 -0.1302
    1W        W53236  18.798  10.215   0.049  0.3277 -0.1499  0.2087
    1W        W53237  24.205   9.208   0.558 -0.0153  0.3006 -0.1761
    1W        W53238   2.791  23.598   8.041 -0.0408 -0.0590  0.3296
    1W        W53239  23.604  23.930   3.960  0.0103  0.0046  0.2197
    1W        W53240  28.497  13.839   8.336 -0.1133 -0.3487  0.1167
    1W        W53241   4.933   5.533   1.186 -0.1619 -0.0619  0.2328
    1W        W53242   4.611  20.342   0.610 -0.0077  0.0760  0.0059
    1W        W53243  20.721  22.016   7.744  0.0374  0.1216  0.1855
    1W        W53244  16.457   4.658   1.425 -0.1023 -0.0310  0.0849
    1W        W53245  11.223  18.243   2.340 -0.1010  0.1005 -0.5151
    1W        W53246   6.524   1.945   0.647  0.0047  0.0181 -0.0948
    1W        W53247  23.999  27.379   0.085  0.0277  0.2722  0.0730
    1W        W53248   4.657   4.576   2.882  0.1442  0.0071  0.1289
    1W        W53249  21.705   4.944   1.635  0.0365  0.2540 -0.2485
    1W        W53250  10.389  21.813   6.386  0.1445  0.1107  0.2806
    1W        W53251   1.217   6.870   7.284  0.1724  0.1112 -0.2087
    1W        W53252  15.233  13.833   2.181  0.2431 -0.3889  0.0211
    1W        W53253   7.044   7.708   2.627  0.3610  0.0345 -0.3989
    1W        W53254   3.358  20.300   7.710 -0.1066 -0.0129 -0.1416
    1W        W53255  11.730  19.323   1.322 -0.0607 -0.1286  0.0600
    1W        W53256  12.348  22.132   1.305  0.0193 -0.0290  0.0188
    1W        W53257   6.596   3.974   0.341  0.2114  0.0497 -0.0145
    1W        W53258  14.543  22.484   9.273 -0.1132 -0.1415  0.3632
    1W        W53259  27.942   5.191   0.620 -0.0645  0.1341 -0.1778
    1W        W53260  13.025   1.416   2.214  0.0348 -0.1069  0.1983
    1W        W53261  21.963   0.628   3.539  0.0165  0.0027  0.1296
    1W        W53262  15.011  28.183   8.772 -0.0864 -0.1734  0.1734
    1W        W53263  23.378  27.543   3.065 -0.0152  0.1607 -0.0624
    1W        W53264  28.775  17.172   9.227  0.2227  0.2072  0.1234
    1W        W53265  20.316  10.015   8.318 -0.3037  0.3194  0.2414
    1W        W53266   1.492  25.143   8.456 -0.0203  0.0186 -0.1316
    1W        W53267  21.167   9.931   7.433  0.0803  0.1247 -0.1021
    1W        W53268   3.495  21.488   8.617 -0.4603 -0.0370 -0.4635
    1W        W53269  13.850   9.051   1.661  0.0752  0.1709 -0.0164
    1W        W53270   8.474   4.899   9.018 -0.0515  0.1093  0.1240
    1W        W53271   3.536  21.310   0.025 -0.4675  0.0701 -0.1974
    1W        W53272   4.529  20.618   8.005 -0.4265  0.1298  0.3023
    1W        W53273  20.363   8.009   0.370  0.2838 -0.0621  0.0542
    1W        W53274  25.787  21.626   1.607  0.1010  0.0465  0.0982
    1W        W53275   3.245   8.484   9.162 -0.1837  0.1168  0.1741
    1W        W53276   5.235   6.077   1.923 -0.3394 -0.0299  0.1815
    1W        W53277  18.246  29.505   8.875  0.1886  0.1297 -0.3949
    1W        W53278   5.293  14.606   1.640  0.1918 -0.2329  0.1744
    1W        W53279  16.035   5.660   7.210 -0.0825 -0.0152 -0.2407
    1W        W53280   8.077   3.671   7.486  0.0237  0.3977  0.2196
    1W        W53281   9.781   2.471   6.538 -0.1841 -0.1962  0.0246
    1W        W53282  23.796  22.380   1.244 -0.2686  0.1933  0.3719
    1W        W53283   3.480  20.777   8.956 -0.0423  0.2746  0.2973
    1W        W53284  12.570  28.527   6.636 -0.2194  0.0206 -0.5963
    1W        W53285  28.695  22.231   9.560 -0.3684 -0.3577 -0.0251
    1W        W53286  21.557  20.065   7.219  0.1858  0.2113  0.1518
    1W        W53287  11.597  10.348   1.206  0.0868  0.1235  0.1491
    1W        W53288   1.178   3.080   0.112 -0.0389  0.1460 -0.1653
    1W        W53289  19.793  18.903   0.313 -0.2686  0.1037 -0.0873
    1W        W53290  15.645  14.192   0.069 -0.1428 -0.1080  0.1401
    1W        W53291  19.725  16.590   2.829  0.2324 -0.1280 -0.0092
    1W        W53292  19.324   5.632   1.873 -0.2353  0.1372 -0.1457
    1W        W53293  27.107   8.816   8.033 -0.1581 -0.1967 -0.2280
    1W        W53294  17.681   0.146   2.349 -0.1965 -0.0740  0.0908
    1W        W53295  11.768  24.747   9.442 -0.2558 -0.1751 -0.1670
    1W        W53296  10.822   4.182   1.095 -0.0700  0.3521 -0.0202
    1W        W53297  29.073  29.275   7.913 -0.2041 -0.0117  0.2944
    1W        W53298  25.996  17.268   8.348  0.2405  0.1371  0.3191
    1W        W53299  10.407  16.656   0.608  0.1554  0.2456  0.1288
    1W        W53300  26.445   2.418   1.288  0.1819  0.3650  0.2941
    1W        W53301   9.612  16.246   1.671  0.0481 -0.1096  0.2415
    1W        W53302  24.337  22.963   7.583  0.1713  0.5752 -0.2358
    1W        W53303  18.421   0.509   3.763  0.1658  0.2847 -0.3061
    1W        W53304  18.993   1.952   7.787 -0.0590 -0.1769 -0.0630
    1W        W53305  21.987   6.451   7.665 -0.2440 -0.1854  0.0968
    1W        W53306   1.104   8.118   7.312 -0.1325 -0.2916 -0.2547
    1W        W53307  16.074  29.045   1.884  0.1730  0.2567  0.1392
    1W        W53308  29.265  25.677   8.086 -0.3768 -0.1107  0.1074
    1W        W53309   8.738   7.765   8.123 -0.1338  0.0717  0.3435
    1W        W53310  13.835  13.692   8.625  0.1004 -0.1068 -0.0183
    1W        W53311  25.994   7.754   9.046  0.0519  0.1498  0.1204
    1W        W53312  19.320   1.856   2.542  0.1319  0.2716 -0.1968
    1W        W53313  25.231  10.849   7.250  0.2196  0.0970  0.1247
    1W        W53314  17.292  21.914   1.675  0.0393  0.1670 -0.2564
    1W        W53315   7.694   6.871   8.396  0.1676  0.1401 -0.1406
    1W        W53316   6.532   8.405   0.112 -0.1560  0.3634  0.1813
    1W        W53317  16.026   4.965   8.859 -0.1382 -0.1172 -0.0526
    1W        W53318  13.653  24.438   8.835 -0.1607  0.1640  0.3860
    1W        W53319   5.131  29.352   0.490 -0.1407 -0.2813  0.2398
    1W        W53320  26.599  17.493   7.171  0.0983  0.0276  0.0457
    1W        W53321  17.029  13.275   8.267  0.3327  0.0425 -0.1246
    1W        W53322  20.946  15.175   1.649  0.1566  0.0566 -0.2048
    1W        W53323  15.194   2.020   0.055  0.2161 -0.1609  0.0010
    1W        W53324  12.524  23.896   1.931  0.1746  0.3719  0.1439
    1W        W53325  22.125  24.316   0.377  0.1204 -0.1328 -0.1206
    1W        W53326  22.572  18.620   0.642  0.0934  0.1986 -0.1498
    1W        W53327  29.613  23.318   2.925 -0.1045  0.3146 -0.1590
    1W        W53328  25.648  23.119   2.790 -0.1761 -0.2884 -0.2144
    1W        W53329  19.241   6.444   8.478 -0.0425  0.0840  0.1007
    1W        W53330  22.352  18.728   1.132  0.0065 -0.1618 -0.1395
    1W        W53331  12.086  28.744   8.112  0.1312 -0.1388  0.0063
    1W        W53332   2.754  12.162   7.582  0.0502 -0.2656  0.0022
    1W        W53333   4.534  10.800   4.826  0.1237 -0.0669 -0.1279
    1W        W53334  14.654   3.144   7.067 -0.0887 -0.4242  0.0531
    1W        W53335  26.967  23.504   7.309  0.0753  0.1155 -0.0339
    1W        W53336  15.003  22.415   8.864  0.0477  0.0306  0.4407
    1W        W53337  28.866   2.048   8.347  0.2326  0.3203  0.0954
    1W        W53338  26.901  28.836   2.316 -0.0216  0.2807 -0.0151
    1W        W53339  21.860   3.507   0.960  0.1611  0.1771 -0.1204
    1W        W53340   5.941   6.521   9.611 -0.1865  0.1534  0.1891
    1W        W53341  16.654  20.985   0.940 -0.2105 -0.2241  0.1552
    1W        W53342   3.174  12.185   8.791 -0.0239  0.0631 -0.2667
    1W        W53343   3.061   2.076   0.774  0.1687  0.2176 -0.2385
    1W        W53344   1.689  27.069   2.513  0.2861  0.1238 -0.3621
    1W        W53345  10.874   2.250   8.541 -0.1188 -0.2435  0.2208
    1W        W53346  23.235  19.341   8.571 -0.0923 -0.1756  0.3950
    1W        W53347  17.227   1.248   0.600  0.0174 -0.0178  0.1670
    1W        W53348  15.050   9.913   1.441 -0.0812  0.1504  0.1573
    1W        W53349  10.180  28.762   9.244 -0.1411  0.1079  0.1192
    1W        W53350  15.735   0.685   6.803  0.2158 -0.3809  0.1273
    1W        W53351  16.943  23.014   8.605  0.2428  0.3017  0.3029
    1W        W53352  16.888  11.507   8.057 -0.1637  0.2442 -0.0235
    1W        W53353  19.359   3.462   9.511 -0.1601  0.1957  0.0128
    1W        W53354   7.471   9.016   6.538  0.0176  0.0394  0.0039
    1W        W53355  17.107   1.638   0.265 -0.0306 -0.4257  0.0529
    1W        W53356  17.710   3.583   2.485  0.0454  0.0453 -0.2779
    1W        W53357  13.269  23.162   8.234  0.0233 -0.0400  0.2131
    1W        W53358   5.949  24.020   6.765  0.0870 -0.1243 -0.0063
    1W        W53359   7.622   8.920   7.578  0.4632  0.0555 -0.0180
    1W        W53360   4.717   5.005   7.636  0.0503  0.1819  0.1259
    1W        W53361   1.607  19.079   8.128 -0.0711  0.0356  0.2776
    1W        W53362  19.212  24.663   0.613 -0.1930 -0.0135 -0.6388
    1W        W53363   2.561   6.236   0.357 -0.5130 -0.3291 -0.1194
    1W        W53364  23.780  11.300   1.633 -0.1732  0.2560 -0.0016
    1W        W53365  13.670   3.655   0.608  0.0440 -0.1673  0.3441
    1W        W53366   0.960   9.029   6.941  0.2098 -0.0856 -0.0220
    1W        W53367  25.438  15.705   9.260 -0.2152  0.0134 -0.0676
    1W        W53368   8.826  22.900   8.814 -0.1538 -0.1546 -0.0803
    1W        W53369  26.684   8.830   7.646  0.1132 -0.4253 -0.1444
    1W        W53370  11.987  23.797   7.981  0.4312  0.3319 -0.2966
    1W        W53371  20.947  22.734   9.164  0.1268  0.0382  0.0986
    1W        W53372  22.473   3.697   8.418 -0.0058 -0.3032 -0.1285
    1W        W53373   6.253  22.602   0.469 -0.1558  0.2095  0.1666
    1W        W53374  17.827   7.820   1.516 -0.0450 -0.3734 -0.1088
    1W        W53375  28.598  15.144   9.543 -0.0852  0.1438  0.2115
    1W        W53376  23.202  17.534   0.322 -0.0675 -0.2474  0.1366
    1W        W53377   3.101  22.513   8.286  0.0544  0.0934 -0.0616
    1W        W53378  13.660  12.609   1.576  0.1226  0.0642  0.2336
    1W        W53379   3.798  20.422   9.229 -0.0094 -0.1252  0.0246
    1W        W53380   0.831   8.980   5.929  0.0189  0.1143 -0.2536
    1W        W53381  25.479   5.006   9.567 -0.0926 -0.1992  0.4337
    1W        W53382  22.962  14.665   6.887 -0.1938  0.1134 -0.0689
    1W        W53383   1.791  24.192   7.626  0.1158 -0.4043 -0.1963
    1W        W53384   5.674  16.434   0.665 -0.3881 -0.2597  0.2269
    1W        W53385  10.969  22.606   6.429  0.2454 -0.0164  0.4409
    1W        W53386  16.097  10.251   0.804  0.0033 -0.2845 -0.1496
    1W        W53387   0.668  28.648   9.055 -0.2355  0.0571  0.2055
    1W        W53388   6.919   2.385   7.718  0.0601  0.1117  0.2028
    1W        W53389  12.137   7.439   9.616  0.0743  0.0223 -0.1468
    1W        W53390   9.081  16.126   0.204 -0.0246  0.0637  0.0350
    1W        W53391   3.488  23.507   8.652  0.0201 -0.1944 -0.0867
    1W        W53392  21.320   9.126   1.807 -0.0246 -0.0712  0.0464
    1W        W53393   9.602  27.742   3.261 -0.0411 -0.1503  0.3265
    1W        W53394  10.422   6.516   1.274 -0.2555  0.0197  0.2279
    1W        W53395  20.440  14.956   1.786  0.1839 -0.5056  0.1303
    1W        W53396  17.388  15.656   7.812 -0.1164  0.0200  0.0168
    1W        W53397   5.480  22.324   0.953  0.0297 -0.1333 -0.1541
    1W        W53398   7.049   7.072   7.408  0.2105 -0.2709  0.1839
    1W        W53399   5.579  28.911   8.931 -0.1008 -0.1364  0.0627
    1W        W53400   0.300   4.920   5.925 -0.3199  0.0073  0.0160
    1W        W53401  19.622  22.189   1.292 -0.0178 -0.0725 -0.0711
    1W        W53402  18.482   3.691   7.125  0.1051 -0.1979 -0.1783
    1W        W53403   7.304  25.543   2.182  0.2820 -0.0086  0.1222
    1W        W53404  12.638  28.194   1.048  0.0695  0.1284 -0.0905
    1W        W53405   5.399   5.033   1.887  0.2084 -0.1979  0.0085
    1W        W53406  15.057  13.035   8.733 -0.2423 -0.4137  0.1193
    1W        W53407  11.961  26.612   8.783 -0.2917 -0.2310  0.3238
    1W        W53408  28.107  29.283   7.580 -0.0917  0.0128 -0.0180
    1W        W53409   8.684   8.936   7.413 -0.0239 -0.3137  0.0733
    1W        W53410   7.880   9.892   8.316  0.2112  0.1894  0.1790
    1W        W53411  26.241  22.504   3.629 -0.1247 -0.1998  0.0312
    1W        W53412  28.210  20.821   3.604  0.1075 -0.0172 -0.1845
    1W        W53413   3.919  20.494   2.859 -0.0698 -0.0305 -0.0213
    1W        W53414  14.653   5.532   0.542  0.0223  0.0830  0.0134
    1W        W53415   7.978  20.421   7.252  0.2000  0.0939 -0.2169
    1W        W53416  14.053   9.742   3.045  0.0015  0.2395 -0.1245
    1W        W53417  12.844  14.129   0.660 -0.1217  0.0862 -0.0735
    1W        W53418  24.581  10.211   2.580 -0.1014 -0.0046  0.0309
    1W        W53419  11.566   6.969   9.079  0.0803 -0.0681  0.1029
    1W        W53420   9.023   5.232   8.608 -0.1602  0.2444  0.2599
    1W        W53421  21.551  29.121   1.669  0.1547  0.0836  0.1250
    1W        W53422   4.687   0.308   8.986 -0.1837 -0.2127 -0.0297
    1W        W53423  25.401   1.230   0.658  0.1299 -0.1577 -0.3394
    1W        W53424  26.871  29.570   0.892 -0.2879 -0.3053  0.1906
    1W        W53425   1.323   5.487   6.601 -0.0201  0.0881 -0.1338
    1W        W53426  24.264  16.955   6.660 -0.0509 -0.3342 -0.1411
    1W        W53427   8.482  13.838   8.416 -0.0260  0.0114  0.2187
    1W        W53428  18.085   8.053   1.137 -0.0399  0.0601  0.1793
    1W        W53429  12.375  24.333   9.592  0.0310  0.0808 -0.0284
    1W        W53430   7.307  15.893   6.132 -0.1476 -0.1431  0.1176
    1W        W53431   0.937   2.544   0.979 -0.2855  0.1231  0.2779
    1W        W53432   4.313  26.740   9.537 -0.1252 -0.1516 -0.0987
    1W        W53433   3.776   4.150   0.904  0.0930  0.3507  0.0447
    1W        W53434  10.355  16.299   6.522 -0.0779  0.1306  0.0062
    1W        W53435  23.929  28.603   9.038 -0.0114 -0.1809 -0.2754
    1W        W53436  10.743  16.874   1.499  0.4432  0.1576  0.0781
    1W        W53437  21.846   3.805   2.540  0.0013  0.0744 -0.3341
    1W        W53438   3.923  26.778   2.843  0.3051 -0.0647 -0.0406
    1W        W53439  14.553  16.525   0.252 -0.1885  0.0456 -0.0307
    1W        W53440  27.101  18.609   9.561 -0.0549  0.1140 -0.0512
    1W        W53441  19.282  16.633   0.992  0.2003  0.1764  0.1122
    1W        W53442   3.321   9.197   0.185 -0.0139  0.2662 -0.0754
    1W        W53443   5.524  12.044   6.038 -0.4282  0.1798  0.2483
    1W        W53444  29.438   3.384   0.057  0.0517 -0.4339  0.1712
    1W        W53445  12.853  18.088   1.336  0.1591 -0.1932  0.2143
    1W        W53446   9.186  28.999   1.131  0.0891 -0.0858 -0.2985
    1W        W53447  19.569   9.849   7.155  0.0310  0.0425 -0.0789
    1W        W53448   8.064  27.253   5.865 -0.1388  0.1925  0.2848
    1W        W53449   3.131   1.318   2.718 -0.1125  0.0422 -0.1429
    1W        W53450   8.196  23.597   0.961 -0.0833 -0.1304 -0.0847
    1W        W53451  25.973  15.575   2.091  0.1434  0.3728  0.1638
    1W        W53452   9.215   0.877   5.651 -0.1208  0.0514 -0.1205
    1W        W53453  21.885  21.267   7.662 -0.1386 -0.0187  0.0434
    1W        W53454   9.997  23.154   6.958  0.1624 -0.0225 -0.1046
    1W        W53455  28.841   2.610   7.503 -0.0111 -0.2305 -0.0419
    1W        W53456  15.457  24.050   7.243  0.0712 -0.0521  0.1604
    1W        W53457   4.106   2.688   9.069  0.0482 -0.2469  0.0549
    1W        W53458  14.637   9.489   2.083  0.0902  0.0469 -0.2358
    1W        W53459  27.321  29.582   1.674  0.1060  0.0003 -0.0130
    1W        W53460  17.018   2.531   9.460  0.0014  0.1498 -0.0313
    1W        W53461   1.900   4.064   1.914 -0.1600 -0.1955  0.3038
    1W        W53462  20.082   1.497   8.484 -0.1497 -0.2445  0.2259
    1W        W53463   4.110  28.902   0.894 -0.3170 -0.0446 -0.0927
    1W        W53464  18.178   9.547   7.436 -0.0254 -0.0450  0.1320
    1W        W53465  29.438  27.811   9.199 -0.1546 -0.3466 -0.1780
    1W        W53466   1.088   4.930   9.118  0.0885 -0.1106 -0.0497
    1W        W53467   1.428  11.941   0.605 -0.0423  0.2105 -0.0436
    1W        W53468  11.782   8.626   8.151  0.1663 -0.0579 -0.0763
    1W        W53469   8.870  13.092   1.447  0.0766 -0.0484 -0.2214
    1W        W53470  12.583  25.758   8.568  0.0665 -0.0699 -0.0222
    1W        W53471  10.511   5.761   7.435 -0.2679 -0.2017 -0.1845
    1W        W53472   0.268   5.699   8.065 -0.2217 -0.1157 -0.1310
    1W        W53473  18.085   7.705   0.776 -0.2900  0.0524  0.0852
    1W        W53474  25.845  16.581   7.529 -0.0845 -0.1995 -0.0928
    1W        W53475  11.771  23.334   2.082 -0.0380  0.0514  0.2089
    1W        W53476  20.052  12.082   1.363 -0.0475  0.0361 -0.2997
    1W        W53477   1.700  24.684   7.259 -0.0201 -0.0142 -0.1031
    1W        W53478  12.843   3.468   2.253  0.3502 -0.0522  0.2840
    1W        W53479  12.269   1.349   1.829 -0.0949  0.1315 -0.0286
    1W        W53480  10.359  16.920   6.593  0.2675 -0.1534  0.0352
    1W        W53481   0.658  27.774   7.155  0.0123 -0.0227 -0.1000
    1W        W53482   3.455  13.105   8.820 -0.1389  0.0021 -0.0067
    1W        W53483   8.092  29.461   8.246 -0.1523 -0.0466 -0.1003
    1W        W53484  28.195   1.688   9.480  0.1365 -0.0941 -0.0307
    1W        W53485   6.866   0.151   8.121  0.1547  0.2120 -0.1058
    1W        W53486  23.127   8.943   7.798  0.0446 -0.1540 -0.2122
    1W        W53487  11.351   8.687   9.130  0.1226  0.0759  0.3092
    1W        W53488  24.948  15.527   2.237 -0.0264  0.0578  0.0658
    1W        W53489  21.412  10.113   2.836 -0.1501  0.1487 -0.1795
    1W        W53490  13.765  27.251   2.039  0.1818 -0.0165 -0.0745
    1W        W53491   5.047  24.436   8.646 -0.1386  0.0501  0.3100
    1W        W53492  18.618   9.382   1.813  0.1050 -0.0449  0.1312
    1W        W53493  27.995  16.065   7.809 -0.0416 -0.0175  0.1707
    1W        W53494   1.280  21.895   2.512 -0.0158 -0.1644 -0.0613
    1W        W53495   9.167   7.176   7.979 -0.1616  0.2949  0.3155
    1W        W53496  20.975  25.357   0.506 -0.0037 -0.1615  0.0064
    1W        W53497   7.231   7.435   7.093  0.0160  0.0226  0.3190
    1W        W53498  16.846   4.887   8.036 -0.1608  0.2626 -0.0640
    1W        W53499  13.055  13.376   9.356  0.0775  0.1994 -0.1106
    1W        W53500  11.971   6.042   9.149 -0.1206  0.1107 -0.0836
    1W        W53501   7.621  19.642   7.749  0.0554  0.0822 -0.0153
    1W        W53502  23.213  11.792   1.225  0.0425 -0.1520  0.1806
    1W        W53503   5.551  11.492   2.372  0.0965 -0.0938 -0.0399
    1W        W53504  13.441  26.439   0.297 -0.0976  0.1166 -0.2534
    1W        W53505   2.027  24.402   3.183 -0.4882 -0.0428 -0.1260
    1W        W53506  20.184   2.052   2.275  0.3132 -0.3787  0.2671
    1W        W53507  12.841   8.155   2.906 -0.3795 -0.3020  0.1429
    1W        W53508  22.462  28.280   7.716  0.1773 -0.1833  0.2825
    1W        W53509   3.099  14.488   9.601  0.0208 -0.0270 -0.3231
    1W        W53510   8.129  24.460   9.402  0.1047 -0.2760  0.1986
    1W        W53511  27.821  23.903   8.019  0.1328 -0.1603 -0.1454
    1W        W53512   3.560  25.132   1.990 -0.1417 -0.0088  0.1697
    1W        W53513  24.894   5.819   7.691  0.3423 -0.1177 -0.1881
    1W        W53514  22.296  24.172   9.109  0.0384 -0.2622  0.0619
    1W        W53515  29.521  17.408   9.108  0.1288 -0.0554 -0.2636
    1W        W53516   7.416   5.158   0.703  0.0602  0.3045  0.1303
    1W        W53517  29.421  21.174   1.591 -0.1019 -0.0076  0.3336
    1W        W53518   2.577  14.509   8.516  0.2231  0.1269  0.2636
    1W        W53519  24.288  29.353   8.121  0.2198  0.2184 -0.0155
    1W        W53520  15.616  29.216   6.421  0.0808 -0.0183 -0.1951
    1W        W53521   4.703  27.720   1.442  0.0639  0.0936  0.0566
    1W        W53522   8.854  25.278   1.625  0.4041 -0.2448 -0.0860
    1W        W53523  16.514  10.617   9.093  0.2082  0.0482  0.2806
    1W        W53524  12.792  17.911   1.920 -0.0672  0.0651  0.1075
    1W        W53525  22.557  25.838   8.412 -0.3239 -0.0662 -0.0282
    1W        W53526   2.444  27.826   9.134  0.0480 -0.0219  0.0247
    1W        W53527  23.549  21.294   2.708  0.2352 -0.0335  0.0632
    1W        W53528  25.063  24.868   0.527 -0.1717 -0.0815 -0.1359
    1W        W53529  28.544   3.572   8.986  0.1784 -0.0785 -0.1135
    1W        W53530  24.667  26.771   7.817  0.1291 -0.3041  0.0308
    1W        W53531  10.985  20.478   8.756 -0.0132  0.1965  0.1092
    1W        W53532  23.592   4.321   7.304  0.2698 -0.0075 -0.0041
    1W        W53533  27.127  24.679   0.988  0.0476 -0.0290  0.0989
    1W        W53534   3.344  20.910   0.292  0.1819  0.1032  0.1867
    1W        W53535  11.217  10.809   6.965  0.2732 -0.0330 -0.1914
    1W        W53536  24.354  26.462   6.771 -0.2947  0.3712  0.3501
    1W        W53537  22.874  17.233   2.781  0.0867 -0.0464 -0.0752
    1W        W53538   3.735  22.470   8.592  0.0072  0.0191 -0.1368
    1W        W53539  13.257  19.135   7.262 -0.0788 -0.0899  0.4353
    1W        W53540   9.789   6.914   7.988 -0.1699  0.0093 -0.0437
    1W        W53541  13.815  28.870   2.484  0.0556  0.0108  0.3415
    1W        W53542   1.776   3.390   2.333  0.1428 -0.2502 -0.0047
    1W        W53543  29.412   0.030   1.122  0.1818 -0.0062 -0.0756
    1W        W53544   9.859   0.845   9.223 -0.1223  0.0061  0.1247
    1W        W53545  15.808  23.367   0.460  0.0594  0.0783  0.1814
    1W        W53546  26.914  20.919   2.395  0.3395 -0.2990  0.1584
    1W        W53547   6.438  22.731   1.407  0.3422 -0.0167  0.5288
    1W        W53548   7.311  12.036   1.147 -0.3196 -0.0417 -0.0529
    1W        W53549  15.857   1.910   7.624 -0.1737 -0.0790 -0.1427
    1W        W53550   0.832  28.942   1.369 -0.1912 -0.0350  0.0461
    1W        W53551   9.791  16.481   8.846 -0.1339 -0.2441  0.0039
    1W        W53552  11.900  29.179   1.545  0.3087  0.1524 -0.1575
    1W        W53553  16.813  27.263   6.650  0.0613  0.2626  0.0532
    1W        W53554   4.756  24.923   3.034 -0.0029 -0.0491 -0.2500
    1W        W53555   8.040  12.654   7.406 -0.0047 -0.3946 -0.1239
    1W        W53556  17.757  19.268   0.150  0.1112  0.1507 -0.1666
    1W        W53557  21.775   7.686   8.589 -0.1071  0.2300 -0.0575
    1W        W53558  11.257   9.196   7.889 -0.2975  0.1224  0.2284
    1W        W53559   5.616  10.413   7.962  0.2684 -0.1590  0.0993
    1W        W53560   0.052  21.343   3.181  0.1736 -0.0344 -0.1804
    1W        W53561  12.550   7.784   2.718  0.0243  0.0505 -0.0848
    1W        W53562   9.623  13.694   1.049  0.0230 -0.1566  0.1660
    1W        W53563  28.348  20.159   8.386 -0.2758  0.1304 -0.0451
    1W        W53564   5.029  12.224   9.343 -0.3042  0.3747  0.0411
    1W        W53565  17.035  17.488   0.690 -0.2478 -0.2551 -0.0060
    1W        W53566  15.572  10.764   0.294  0.1458 -0.0671  0.2257
    1W        W53567  23.652   0.723   8.287  0.0328  0.0060 -0.2674
    1W        W53568  20.460  12.726   8.589 -0.0583  0.2826  0.0152
    1W        W53569   6.247  18.351   3.195 -0.2684  0.1742 -0.1006
    1W        W53570  22.776  20.884   2.307 -0.0061 -0.1386  0.2918
    1W        W53571  20.981  16.417   2.167  0.0946  0.3490  0.1479
    1W        W53572  23.289  24.310   3.839 -0.0714 -0.2480  0.1020
    1W        W53573   1.779   5.019   8.554 -0.2278 -0.1778  0.1382
    1W        W53574   2.031   0.921   1.237  0.0442  0.1503 -0.0996
    1W        W53575  23.978   1.101   8.014 -0.2721  0.2952  0.1394
    1W        W53576  25.915  26.192   8.390 -0.1138  0.0770 -0.0289
    1W        W53577  13.538  19.683   2.323 -0.0798 -0.0787  0.1849
    1W        W53578  10.230  11.107   7.851  0.1695 -0.0613 -0.0699
    1W        W53579  16.447  27.494   1.661 -0.0815  0.0350  0.4181
    1W        W53580  28.098  27.262   9.344  0.0396 -0.0212 -0.2781
    1W        W53581   8.302   0.909   6.522 -0.0809  0.1258 -0.3001
    1W        W53582  23.181  14.350   8.811 -0.2948  0.2257  0.0268
    1W        W53583  20.410   0.737   8.030 -0.1412  0.2826  0.0059
    1W        W53584   6.283  18.219   8.843  0.0782  0.0671  0.2186
    1W        W53585   4.496  26.241   0.760  0.0687 -0.2873 -0.1110
    1W        W53586  13.730   1.021   6.886 -0.0707  0.0328 -0.2713
    1W        W53587   1.633  25.504   0.691  0.2490 -0.1067  0.0800
    1W        W53588   0.997   7.316   8.128  0.0119  0.1826  0.0435
    1W        W53589  20.257  25.963   1.007  0.0928 -0.6164  0.2473
    1W        W53590  16.974  16.042   2.277 -0.1423  0.3045  0.2220
    1W        W53591  26.193  16.335   7.813  0.2905 -0.1142 -0.1815
    1W        W53592   0.139  21.223   8.149 -0.0041 -0.2258  0.0057
    1W        W53593  20.797  18.342   1.734 -0.0933  0.2547 -0.1972
    1W        W53594  10.395  21.754   0.853 -0.0571  0.0028  0.0458
    1W        W53595   4.566  16.024   2.314  0.1338  0.0440 -0.2235
    1W        W53596  23.739   0.084   3.177 -0.0674 -0.0943 -0.1719
    1W        W53597   0.552   7.551   8.241  0.0116  0.2278  0.1598
    1W        W53598   0.882  27.556   8.084  0.2552  0.0659 -0.0948
    1W        W53599   7.173  18.734   2.390  0.0514  0.0925 -0.0240
    1W        W53600  11.683  13.129   8.361  0.1784  0.3678 -0.3782
    1W        W53601  24.741  19.715   7.606 -0.0966  0.0976  0.0602
    1W        W53602  12.422  25.183   0.686 -0.2034  0.2666  0.1605
    1W        W53603  17.864   1.757   2.870  0.0440  0.0335 -0.0781
    1W        W53604  15.366  24.947   0.569 -0.2293  0.4001  0.0898
    1W        W53605  14.137  25.000   6.929  0.5540  0.0295  0.2974
    1W        W53606  26.814   1.217   0.491  0.0937  0.0285  0.2167
    1W        W53607  16.392  23.247   2.411 -0.1322 -0.1147 -0.1212
    1W        W53608  15.952  13.646   8.246 -0.2336  0.0717  0.1856
    1W        W53609  15.051  17.492   2.003 -0.3095 -0.0276 -0.0412
    1W        W53610   9.248  22.281   0.677  0.1179 -0.2793 -0.2523
    1W        W53611  28.904  18.087   8.159 -0.2480  0.2832 -0.0113
    1W        W53612  22.257   1.503   1.215  0.1414  0.0085 -0.0825
    1W        W53613  24.357   7.029   8.947  0.0123  0.1021  0.1488
    1W        W53614  17.239  17.118   1.201  0.1787  0.1382  0.1466
    1W        W53615   3.979  11.175   6.308  0.2368  0.0099 -0.5373
    1W        W53616   1.236  27.765   6.433  0.0466 -0.0948  0.2122
    1W        W53617   9.395  12.445   6.816  0.0152  0.0547  0.1448
    1W        W53618  15.443   8.182   2.300 -0.2257  0.1195  0.1041
    1W        W53619   7.180   6.167   9.124  0.1535 -0.0244  0.0017
    1W        W53620   6.382   0.107   7.022  0.1813  0.1894 -0.0136
    1W        W53621  15.479  11.686   0.795  0.1641  0.3701 -0.1615
    1W        W53622  23.536   6.641   1.020  0.0413 -0.1208 -0.2343
    1W        W53623   4.172  25.453   2.376 -0.0827 -0.1378  0.0384
    1W        W53624  21.200  17.229   2.893  0.2278  0.4398  0.0660
    1W        W53625   7.162  29.087   7.656 -0.1092 -0.1239  0.1419
    1W        W53626   0.707  24.073   7.894  0.0520  0.1545  0.0755
    1W        W53627  28.048  15.805   9.048 -0.1784 -0.1355  0.2521
    1W        W53628  23.432  26.286   7.834  0.1333 -0.0599 -0.0616
    1W        W53629   0.642  14.201   8.707  0.1218 -0.2257  0.1430
    1W        W53630  13.098   6.884   9.535 -0.0704 -0.1521 -0.2192
    1W        W53631  11.262  24.678   8.348  0.1596 -0.1936 -0.0390
    1W        W53632   2.393   6.734   6.576 -0.0174  0.1386  0.2257
    1W        W53633  25.760  18.173   7.356 -0.0821 -0.1696  0.3299
    1W        W53634  17.213  20.696   0.931  0.1841  0.0082  0.1141
    1W        W53635   5.155   8.997   9.466 -0.1412 -0.4093  0.3289
    1W        W53636  10.727  28.157   6.617  0.0330 -0.1577  0.0770
    1W        W53637   7.622  11.141   5.806 -0.0485  0.0255  0.0320
    1W        W53638  15.845  28.592   8.114 -0.0362  0.2867  0.1254
    1W        W53639  14.091   0.850   7.577 -0.0627  0.2597  0.1962
    1W        W53640   5.603   9.303   6.565 -0.1065 -0.1974 -0.3521
    1W        W53641   3.276  10.942   0.598  0.1159 -0.1154  0.2456
    1W        W53642  13.523  23.688   0.741 -0.1790 -0.1344 -0.3280
    1W        W53643  11.146   0.677   7.548 -0.0575 -0.1516  0.0581
    1W        W53644  20.918   8.601   1.819 -0.0945 -0.1999  0.0712
    1W        W53645  21.804   5.930   0.076 -0.0851  0.1137  0.2100
    1W        W53646   3.158   8.894   7.542  0.3205 -0.2824  0.0643
    1W        W53647  19.073   9.558   2.150 -0.1944  0.0947 -0.1060
    1W        W53648  19.903   5.291   2.275  0.2153  0.0415 -0.3256
    1W        W53649  27.389  25.001   9.474 -0.3473  0.2590 -0.3652
    1W        W53650  26.694  22.471   0.003  0.1503 -0.0310  0.4896
    1W        W53651  23.706  23.513   2.009  0.2254 -0.0272 -0.1649
    1W        W53652  19.464  15.450   0.775 -0.0044 -0.2084 -0.0955
    1W        W53653  29.228   2.253   1.401  0.2472 -0.1934 -0.0802
    1W        W53654   7.748  29.536   9.513  0.0787 -0.1436 -0.1802
    1W        W53655  29.212  20.365   3.125  0.0296  0.2835 -0.0041
    1W        W53656   9.143   5.685   6.226  0.3137 -0.1817 -0.0551
    1W        W53657  12.215   8.618   8.874 -0.0131  0.0461 -0.2290
    1W        W53658  22.573  28.529   0.986  0.0346 -0.1614  0.3411
    1W        W53659   9.605   8.804   1.521 -0.1163  0.0204 -0.2222
    1W        W53660   3.820   1.373   1.577 -0.2025 -0.2273 -0.0545
    1W        W53661  10.903   5.583   6.561 -0.1331 -0.2241 -0.0484
    1W        W53662   7.733   9.096   2.076  0.1013 -0.4868  0.0801
    1W        W53663   8.901   7.066   6.247  0.0300  0.0682 -0.2111
    1W        W53664   7.792  18.518   0.598  0.1231  0.0006  0.1323
    1W        W53665   6.914  13.431   1.905  0.0138  0.1023 -0.2764
    1W        W53666  13.309  14.704   7.438 -0.1016 -0.2347  0.0634
    1W        W53667   7.086   0.612   8.214  0.0072  0.3542 -0.3208
    1W        W53668  15.019   9.294   8.285 -0.0465 -0.1876 -0.1240
    1W        W53669  10.716   9.722   7.568 -0.1136 -0.3469  0.0613
    1W        W53670   9.689   9.311   8.663  0.0259  0.1351  0.0965
    1W        W53671  27.221  16.842   3.150  0.2776  0.2025 -0.1113
    1W        W53672  18.084  14.799   9.394  0.0455  0.1409  0.0407
    1W        W53673  27.805  29.484   1.896 -0.2588  0.0745  0.1473
    1W        W53674  14.074  12.510   6.810 -0.0539  0.3334  0.0179
    1W        W53675   6.476  28.560   2.234 -0.0561 -0.0492 -0.0397
    1W        W53676   9.374   3.084   9.348  0.0071 -0.0419 -0.1859
    1W        W53677  16.055  29.106   0.291 -0.0827  0.0025  0.0243
    1W        W53678  13.996  18.326   0.464 -0.1758  0.2898 -0.2242
    1W        W53679  11.453   8.010   2.661 -0.2449 -0.0364  0.1160
    1W        W53680  12.852   2.071   2.057  0.2128 -0.0431 -0.1098
    1W        W53681  24.959  10.804   8.413  0.0825 -0.2314 -0.0534
    1W        W53682   2.572  15.569   7.244  0.3210 -0.0862 -0.0945
    1W        W53683  18.178   3.268   7.809 -0.1576  0.1369 -0.2085
    1W        W53684   5.889  17.743   0.376  0.2076 -0.1346 -0.0880
    1W        W53685   5.339   7.346   6.853 -0.1799  0.0231  0.0444
    1W        W53686  21.710  28.384   3.543 -0.2452  0.0559  0.2185
    1W        W53687  20.942  29.138   9.313  0.2282 -0.1077  0.2657
    1W        W53688   1.717  15.710   7.988 -0.3126  0.0331  0.3520
    1W        W53689  19.936  27.347   8.448 -0.0775 -0.0873 -0.0317
    1W        W53690   5.514   6.210   8.629 -0.0404 -0.0978  0.0203
    1W        W53691   0.071  16.789   8.775  0.1132 -0.0805  0.1581
    1W        W53692   1.154  29.281   7.644 -0.0696 -0.0620  0.2804
    1W        W53693  17.113   4.143   1.758  0.0680  0.2234  0.1512
    1W        W53694  24.892   1.979   1.550 -0.0639  0.0223  0.0418
    1W        W53695  27.038  25.419   7.437 -0.1278  0.1536  0.0830
    1W        W53696  14.127   8.398   2.718 -0.0217 -0.3920 -0.2087
    1W        W53697  22.506  12.593   8.967 -0.1671 -0.0564 -0.0424
    1W        W53698  25.168   8.607   1.394  0.2080  0.0393  0.0777
    1W        W53699   1.350  19.824   2.705 -0.2577 -0.0699  0.0539
    1W        W53700  11.697  22.799   2.095  0.2102  0.0549  0.0169
    1W        W53701  13.092   4.761   8.675  0.0972  0.1494 -0.1236
    1W        W53702  12.412  29.102   1.355 -0.1772  0.0768 -0.2916
    1W        W53703  23.689  17.008   6.845 -0.1262 -0.0307  0.1105
    1W        W53704  11.720  25.704   8.422 -0.2157  0.1745  0.2376
    1W        W53705  22.883   5.750   1.353  0.0766  0.2525  0.0470
    1W        W53706   3.384   6.774   6.686  0.1212 -0.3360  0.2070
    1W        W53707  24.514   5.512   2.680  0.1342 -0.1321 -0.0701
    1W        W53708  19.388  13.997   0.407 -0.1235  0.1351 -0.1806
    1W        W53709  23.121   6.778   8.751 -0.2949  0.4169 -0.1314
    1W        W53710   3.797  10.055   0.524  0.1944  0.2401 -0.2952
    1W        W53711   2.500   2.691   7.945 -0.1366 -0.0795 -0.1342
    1W        W53712   7.175  26.302   7.439  0.1013  0.0909  0.0378
    1W        W53713  25.196   9.259   7.431 -0.0996  0.3237 -0.0061
    1W        W53714  13.122   2.990   2.175 -0.0106  0.0401 -0.2078
    1W        W53715  14.045  16.477   0.289  0.0312  0.2123 -0.0916
    1W        W53716  23.442  18.679   7.480  0.1342  0.2850  0.0413
    1W        W53717   2.864  12.498   9.133 -0.0005  0.0922 -0.4761
    1W        W53718  10.538   4.073   1.886 -0.0662  0.4694  0.2322
    1W        W53719  23.813  20.391   7.408 -0.0156  0.1001 -0.0405
    1W        W53720  21.572  13.725   8.542  0.3288 -0.0773 -0.0709
    1W        W53721   3.183  29.005   7.350  0.3041  0.2046 -0.1066
    1W        W53722   5.584  13.373   8.787 -0.3558 -0.0535 -0.3539
    1W        W53723   4.254   0.585   8.966  0.0748 -0.1262 -0.0312
    1W        W53724   6.989   5.468   7.527  0.2604  0.0629  0.4635
    1W        W53725  17.023   0.360   1.474  0.0586 -0.0142  0.2076
    1W        W53726  25.612  27.190   1.020 -0.1036  0.1416 -0.0161
    1W        W53727  22.575   2.193   8.389  0.0315  0.0936  0.2080
    1W        W53728  11.051  10.073   8.372 -0.1936  0.0083 -0.1164
    1W        W53729   7.405  22.665   1.941  0.0077  0.1442  0.6508
    1W        W53730  17.835   6.264   6.961  0.2920  0.0230  0.4252
    1W        W53731  27.909   3.854   6.640  0.0214 -0.0567 -0.1304
    1W        W53732   6.250   7.303   5.871  0.0343  0.0358  0.0455
    1W        W53733   0.036  18.630   1.842 -0.1543 -0.1458 -0.0225
    1W        W53734  29.118  12.254   9.479  0.1855 -0.0215  0.0962
    1W        W53735   7.378  12.871   9.106 -0.1823 -0.1761 -0.1956
    1W        W53736  17.210  17.887   0.963 -0.1364  0.1038 -0.3348
    1W        W53737   2.885  16.311   2.780  0.0110  0.0248 -0.0270
    1W        W53738  16.251   8.372   1.760 -0.2250 -0.4003  0.2289
    1W        W53739   5.010  27.406   0.040  0.0356 -0.0994 -0.1611
    1W        W53740   9.005   7.250   7.253  0.2176 -0.1973  0.1123
    1W        W53741  13.294   5.204   7.542 -0.2752 -0.0362  0.0890
    1W        W53742  24.257  22.065   0.762  0.0572  0.2443 -0.0423
    1W        W53743   7.599  19.009   9.005  0.1278  0.3402 -0.1248
    1W        W53744  10.888   6.236   0.942 -0.1952  0.3852  0.1393
    1W        W53745  22.925   5.000   1.123 -0.0847  0.3175  0.0246
    1W        W53746   1.345   0.929   7.028  0.0144  0.0121  0.1141
    1W        W53747  25.372   3.613   0.034  0.0882  0.0435 -0.2603
    1W        W53748  26.261  17.365   7.570 -0.1513 -0.0397 -0.4363
    1W        W53749  27.349  29.103   7.998 -0.1728 -0.2282  0.0335
    1W        W53750  21.116  27.883   8.836 -0.0434  0.2939 -0.0169
    1W        W53751   0.342  20.236   8.749  0.0476  0.1365  0.0594
    1W        W53752  25.846   1.123   2.352 -0.1835  0.1748  0.0885
    1W        W53753   3.227   5.538   6.001  0.1935  0.2406 -0.0907
    1W        W53754  24.909   7.469   2.086  0.2207  0.1117 -0.0267
    1W        W53755  12.131  19.205   8.098  0.2559 -0.1820  0.0743
    1W        W53756   8.838  14.600   2.939  0.1907  0.0719  0.0138
    1W        W53757   8.020  19.493   3.461  0.0679  0.0647 -0.1539
    1W        W53758   5.860   6.472   1.163  0.0173 -0.2534 -0.1404
    1W        W53759   9.576  16.868   1.097 -0.0222  0.0696 -0.0299
    1W        W53760   6.990   5.120   8.639  0.0226 -0.1450  0.0047
    1W        W53761   2.651  29.006   7.156 -0.2335  0.0337  0.0845
    1W        W53762  15.856   4.524   8.714  0.1264  0.2099 -0.1773
    1W        W53763  25.544  15.423   0.792 -0.2058  0.1275 -0.1457
    1W        W53764   0.918   9.536   0.600  0.1157  0.0867 -0.1199
    1W        W53765  25.865  20.989   1.758  0.1762  0.2596  0.1863
    1W        W53766   1.351   8.059   6.886 -0.6068 -0.2003  0.0993
    1W        W53767  28.692   2.572   1.310 -0.0881 -0.1605  0.3038
    1W        W53768   3.538   6.247   6.739 -0.0309 -0.1716 -0.1045
    1W        W53769  10.785  17.301   7.501 -0.0754 -0.2670 -0.0808
    1W        W53770   4.610  23.757   2.784 -0.1098  0.0804 -0.0267
    1W        W53771  29.063  29.507   1.805 -0.0175  0.1529  0.0150
    1W        W53772  24.792  16.929   1.100 -0.0018  0.1087 -0.0689
    1W        W53773   3.623  18.455   1.718  0.1425  0.0346  0.5272
    1W        W53774   1.680  17.506   7.107 -0.0209 -0.1094  0.0418
    1W        W53775   4.297  17.892   0.670  0.1369 -0.0755  0.2015
    1W        W53776   0.172  19.088   2.621 -0.1321 -0.0609 -0.3683
    1W        W53777  15.117  29.168   2.177 -0.2742  0.4100  0.1464
    1W        W53778  11.674   0.391   8.245  0.1126 -0.0765 -0.5412
    1W        W53779  17.934  17.625   1.680  0.3045 -0.0788  0.0278
    1W        W53780   4.019   3.760   6.518  0.0749  0.1941  0.0144
    1W        W53781  15.729  18.212   7.070 -0.1401  0.2250  0.2056
    1W        W53782   6.039  20.524   1.457  0.3138 -0.3114 -0.0828
    1W        W53783   3.506  20.551   9.622  0.0647 -0.2285  0.4255
    1W        W53784  13.899  19.818   6.458 -0.3651  0.0538  0.0657
    1W        W53785  15.742   5.170   0.740  0.3299  0.6670  0.0104
    1W        W53786  29.152  26.648   1.614 -0.0750 -0.0633  0.1457
    1W        W53787  26.250  16.738   0.851 -0.2161  0.2128 -0.0763
    1W        W53788   8.577  20.284   8.063  0.0638 -0.0556 -0.1292
    1W        W53789   1.735  22.645   0.377  0.2690 -0.0492 -0.2849
    1W        W53790  28.740  15.026   7.431 -0.0447 -0.0990 -0.0656
    1W        W53791  23.381   6.624   9.235 -0.0125  0.0365  0.0068
    1W        W53792  12.419  22.866   0.357  0.0948  0.2668 -0.0903
    1W        W53793   2.834  14.079   0.231  0.4473 -0.0266  0.0127
    1W        W53794  17.726   9.737   0.732  0.2364  0.1773 -0.0263
    1W        W53795   7.971  26.143   6.167  0.0356 -0.2243 -0.1349
    1W        W53796  23.933  22.868   1.296 -0.0186 -0.0231 -0.2075
    1W        W53797  15.150  10.992   0.683  0.1873  0.1158  0.0571
    1W        W53798  27.900   7.055   7.333  0.0370 -0.0280 -0.1518
    1W        W53799   2.684  14.664   1.851 -0.0715 -0.1728  0.0716
    1W        W53800   5.361  26.757   8.876  0.2704  0.1127  0.0451
    1W        W53801  21.290  11.966   0.338  0.0067 -0.1406 -0.0908
    1W        W53802  20.436  18.185   2.113  0.1372 -0.0695 -0.1736
    1W        W53803  15.253  17.320   1.580  0.0002  0.0363 -0.0212
    1W        W53804   9.546   3.710   9.606  0.4509 -0.1902 -0.2306
    1W        W53805   5.160  27.150   8.231  0.4156 -0.0829 -0.0794
    1W        W53806  22.920   6.159   0.858 -0.2019  0.1376  0.0141
    1W        W53807   1.986  13.892   9.269  0.1960 -0.1007 -0.3149
    1W        W53808  24.776  24.602   1.495 -0.0947 -0.0132 -0.0152
    1W        W53809   2.070  11.985   0.780 -0.0907  0.1040  0.1188
    1W        W53810  24.979   3.334   0.182  0.1655 -0.2795 -0.1829
    1W        W53811   2.700   3.380   9.511  0.3205  0.0067 -0.1406
    1W        W53812  26.947  19.856   8.850  0.2746  0.0226 -0.0146
    1W        W53813  28.502  22.878   8.591 -0.3194  0.0806  0.0227
    1W        W53814   8.109  10.504   8.024 -0.3686 -0.1400  0.1141
    1W        W53815   9.276  15.559   1.255  0.0778  0.0953  0.1683
    1W        W53816  13.898   2.428   6.463 -0.1262  0.1863  0.1596
    1W        W53817  26.103   3.888   7.549  0.0458  0.0218 -0.0089
    1W        W53818   9.544   9.762   6.979  0.4261 -0.1397 -0.2036
    1W        W53819  10.572   1.431   1.102 -0.0983  0.2476  0.1587
    1W        W53820  17.204   9.599   7.655  0.1644  0.0724 -0.2375
    1W        W53821   9.185  16.464   1.791  0.1646  0.0509  0.2991
    1W        W53822  11.634   3.926   8.493  0.2805  0.1265 -0.0048
    1W        W53823   0.995   5.305   8.525 -0.3671 -0.0376 -0.1696
    1W        W53824   6.770  27.812   1.636  0.1395 -0.0422 -0.1010
    1W        W53825  20.417  29.580   3.581  0.0683 -0.0009  0.2260
    1W        W53826  14.866   5.928   9.385 -0.3103  0.2359 -0.2979
    1W        W53827   0.283   8.774   7.142 -0.0609 -0.0451  0.1001
    1W        W53828  25.144   9.440   1.882 -0.1506  0.1946 -0.2115
    1W        W53829   3.243   4.825   9.357 -0.2069 -0.2236 -0.2567
    1W        W53830  14.404  13.218   9.523  0.0027  0.0247  0.2514
    1W        W53831  22.325  26.505   0.498 -0.1722 -0.2821 -0.1346
    1W        W53832   1.222  29.114   1.852 -0.0533 -0.2938 -0.0592
    1W        W53833  15.941  14.900   0.510 -0.1476 -0.1754 -0.0621
    1W        W53834   8.951  11.175   6.534 -0.1612  0.0255 -0.2484
    1W        W53835  19.522  26.140   1.307 -0.1368  0.0175  0.2253
    1W        W53836  23.914   5.058   2.117 -0.2395  0.2867  0.0589
    1W        W53837  23.275  20.829   7.499  0.3262  0.0188  0.2380
    1W        W53838   3.966  16.730   2.664 -0.1300 -0.0450  0.0725
    1W        W53839  21.754  22.758   8.036 -0.1378  0.1735 -0.0906
    1W        W53840   4.657   8.886   2.407 -0.0750  0.1412  0.1519
    1W        W53841  29.458  20.510   8.751 -0.2246 -0.2101  0.0873
    1W        W53842   1.198   2.463   1.417 -0.1503  0.0699 -0.1190
    1W        W53843  20.460  22.529   8.743  0.0990  0.0129 -0.2015
    1W        W53844   8.681   6.594   2.197 -0.0178 -0.3074 -0.1144
    1W        W53845   1.107   1.033   5.723  0.0883  0.2069 -0.0146
    1W        W53846   6.960  27.505   8.880  0.0197  0.0718  0.0210
    1W        W53847  23.348   2.519   2.475 -0.1001  0.0737  0.1844
    1W        W53848   0.753  15.530   0.809 -0.3071  0.2781  0.1255
    1W        W53849  11.917  22.361   7.319  0.0950  0.0117 -0.0865
    1W        W53850   9.498  27.798   7.295 -0.1067  0.0731  0.0393
    1W        W53851  28.720  26.197   0.264 -0.2230 -0.4218  0.0243
    1W        W53852   5.464  23.805   0.791 -0.0656 -0.0070  0.2020
    1W        W53853  11.253  14.009   7.990 -0.2336  0.0354  0.0124
    1W        W53854  28.484   1.529   7.580 -0.2860 -0.2100  0.0093
    1W        W53855   4.615   9.005   9.395 -0.1294 -0.0635 -0.1647
    1W        W53856  17.739   1.050   6.960 -0.0948  0.0507  0.0379
    1W        W53857  19.880  10.611   2.722  0.2516 -0.1870 -0.0743
    1W        W53858  25.589   8.377   8.873 -0.2011 -0.2527 -0.4583
    1W        W53859   5.880  25.019   3.390  0.1632 -0.1677 -0.0591
    1W        W53860  17.815  26.515   0.280  0.0774  0.0366  0.3459
    1W        W53861   0.646  28.069   9.224 -0.3264  0.0914 -0.1612
    1W        W53862   3.420   8.769   0.833 -0.1655 -0.0740 -0.1003
    1W        W53863  16.049  17.371   7.715 -0.0823  0.1738 -0.2154
    1W        W53864  18.033  10.928   1.285  0.2725 -0.0201 -0.1356
    1W        W53865  28.845  19.477   0.947  0.0185 -0.2092  0.0251
    1W        W53866  25.312  28.959   0.836  0.1571  0.0957 -0.0373
    1W        W53867   7.098  25.458   0.723 -0.1072  0.0602 -0.1774
    1W        W53868  17.698  28.559   9.158  0.3214  0.1246 -0.2626
    1W        W53869   2.780  16.950   1.448 -0.0176  0.2050  0.0132
    1W        W53870  18.763  13.442   7.716 -0.1207  0.2672  0.3227
    1W        W53871  15.129  21.750   8.323 -0.0698 -0.1195  0.2197
    1W        W53872  26.182  14.165   1.700 -0.0246  0.3146 -0.1277
    1W        W53873  19.192  26.100   7.968  0.0032  0.3049  0.0171
    1W        W53874   9.778   8.094   9.587 -0.0161 -0.0413  0.3452
    1W        W53875  15.327   6.441   7.759  0.2586  0.1797  0.3001
    1W        W53876  19.514   6.488   8.982  0.1001  0.3558 -0.1096
    1W        W53877   0.974  11.452   7.228  0.1113 -0.1422 -0.2148
    1W        W53878   0.639  12.833   0.342  0.1039  0.0129  0.2689
    1W        W53879  25.314  13.144   1.561 -0.0070  0.1626  0.1213
    1W        W53880  26.236  11.391   7.867  0.3294  0.1922 -0.1040
    1W        W53881  25.687   5.156   2.404 -0.1169 -0.1626 -0.0438
    1W        W53882  19.923  21.554   8.118 -0.1846  0.0472 -0.2617
    1W        W53883  14.126  22.292   8.149  0.0802  0.0391  0.3177
    1W        W53884  20.762  29.400   3.864 -0.0919  0.0685 -0.1678
    1W        W53885  19.439   3.804   0.740  0.1575 -0.1708 -0.0419
    1W        W53886  21.616  24.625   2.230 -0.0029 -0.1894  0.1003
    1W        W53887  26.435  22.183   8.673 -0.2473 -0.0297  0.1170
    1W        W53888  13.265  11.118   5.806 -0.1746 -0.3385 -0.2377
    1W        W53889   5.829  28.031   0.300 -0.0530 -0.2062 -0.3645
    1W        W53890  15.938   2.728   8.286  0.0108 -0.0191 -0.0098
    1W        W53891   0.931   8.969   9.438 -0.3557 -0.1162 -0.0088
    1W        W53892  10.794   3.714   2.309 -0.0400  0.1355  0.0217
    1W        W53893  12.205   3.122   7.848 -0.1255  0.1278 -0.2102
    1W        W53894  25.896  27.386   1.439  0.1156  0.1134  0.2183
    1W        W53895  21.831   3.843   2.025 -0.4602 -0.1248 -0.0945
    1W        W53896  13.502  22.581   2.805 -0.1126  0.2647  0.3643
    1W        W53897  17.528  22.261   0.891  0.1693  0.3613 -0.0981
    1W        W53898  16.409   4.287   0.373 -0.2055  0.1552 -0.0766
    1W        W53899   1.672  11.629   8.800  0.0591 -0.0601 -0.0135
    1W        W53900   8.363   6.634   8.766 -0.1729  0.2829  0.0116
    1W        W53901  24.162   5.991   0.464 -0.0063  0.0254 -0.3262
    1W        W53902  11.408  11.324   1.931  0.0026  0.0084  0.1060
    1W        W53903   7.298  21.285   0.154  0.2026 -0.2896 -0.0756
    1W        W53904  25.318  28.652   8.962 -0.2749  0.1214  0.0813
    1W        W53905  11.227  13.372   8.936  0.0151  0.1398  0.0611
    1W        W53906  24.921  20.289   9.461  0.0370 -0.0971  0.0704
    1W        W53907   4.379  14.019   8.406  0.1047  0.2347 -0.1008
    1W        W53908  20.488  11.772   2.213 -0.0304  0.1295  0.0544
    1W        W53909  23.302  28.264   0.438 -0.1669  0.2286  0.2170
    1W        W53910  11.823   8.534   1.312 -0.0684  0.2212  0.0733
    1W        W53911  29.533   0.331   8.380 -0.1106  0.3286 -0.0415
    1W        W53912  25.399  20.374   9.606  0.2052 -0.2295 -0.0198
    1W        W53913   5.404   2.343   1.727 -0.0848  0.1462  0.1839
    1W        W53914  22.423   8.378   1.998 -0.1975 -0.2663  0.0448
    1W        W53915  15.006   9.569   2.436  0.3493  0.0208 -0.3363
    1W        W53916   4.290  23.139   8.386  0.0966  0.1353 -0.4252
    1W        W53917  20.341  19.679   9.497  0.1025 -0.0269 -0.2629
    1W        W53918  13.251   9.153   2.050  0.0909 -0.0910  0.1214
    1W        W53919   5.241   4.047   8.390  0.1695 -0.1296 -0.0338
    1W        W53920  11.507   8.965   8.334  0.2467  0.0102  0.1508
    1W        W53921   0.818  28.342   7.181  0.0266 -0.1737 -0.1849
    1W        W53922  13.349  18.026   0.174  0.1344  0.1223  0.4451
    1W        W53923  14.570  24.565   0.831 -0.0880  0.1345 -0.2544
    1W        W53924  26.075   2.238   1.750  0.3492 -0.2027 -0.5236
    1W        W53925  17.764   4.275   8.357  0.4011  0.1531  0.1516
    1W        W53926  23.596  27.445   6.533 -0.1249 -0.0299  0.1055
    1W        W53927  17.120   5.926   8.637 -0.0404 -0.1811  0.2560
    1W        W53928  20.372  15.947   0.190  0.1883  0.0846 -0.3200
    1W        W53929   0.108  12.143   0.166 -0.1581 -0.0526 -0.1910
    1W        W53930  22.558   1.634   2.333  0.1442  0.1347 -0.1515
    1W        W53931  27.113  16.551   1.072  0.1256  0.0962  0.0777
    1W        W53932   1.807  17.712   0.373  0.1948  0.0730 -0.1393
    1W        W53933  14.946  23.884   6.339 -0.0182  0.0467  0.0537
    1W        W53934   2.694  16.635   3.146  0.0127 -0.1416  0.0305
    1W        W53935  20.947  21.246   8.151  0.0193  0.1087  0.3507
    1W        W53936  24.912   1.042   1.294 -0.1134  0.2967 -0.1609
    1W        W53937  23.792   4.007   2.199  0.0237  0.3496  0.0517
    1W        W53938  25.524  11.627   8.755  0.2539 -0.1434 -0.0156
    1W        W53939  14.677  20.683   7.082 -0.0857 -0.1769  0.1315
    1W        W53940  14.579  20.923   5.742  0.0734  0.2564 -0.2501
    1W        W53941  18.682  14.658   2.430 -0.0132 -0.0628 -0.0529
    1W        W53942   7.694  23.777   1.256 -0.2334  0.0718 -0.0195
    1W        W53943   2.578   7.866   1.343 -0.2732  0.1597  0.3371
    1W        W53944  22.207  28.347   8.115 -0.0827  0.1427  0.0463
    1W        W53945  16.969  28.301   8.254  0.2993 -0.2451  0.1069
    1W        W53946  11.393  14.664   1.238  0.0670 -0.3496  0.2614
    1W        W53947  19.067  26.139   8.948  0.0409 -0.2251 -0.2367
    1W        W53948  12.781  14.201   2.026 -0.1777  0.3152  0.0758
    1W        W53949  16.068  27.714   9.325 -0.0683 -0.2125  0.2875
    1W        W53950   5.583  15.713   1.734  0.2271 -0.2716  0.6527
    1W        W53951   5.014  27.136   0.512 -0.2222 -0.0279 -0.0962
    1W        W53952   5.549   3.118   6.508 -0.0510 -0.0078 -0.1257
    1W        W53953   3.628  20.582   8.345 -0.0249  0.3275 -0.0212
    1W        W53954  16.910   0.680   7.538 -0.0541  0.1546  0.0714
    1W        W53955  12.937  21.802   1.605 -0.0586  0.0886 -0.1013
    1W        W53956  24.891  25.972   2.091 -0.2625  0.1451 -0.0344
    1W        W53957  15.020  28.505   1.228  0.0473 -0.1127 -0.0473
    1W        W53958  19.485   7.386   9.357  0.0198  0.1819  0.0984
    1W        W53959  16.846  22.398   8.417  0.0526 -0.0860 -0.1180
    1W        W53960   1.282  15.812   3.044 -0.1185 -0.1524  0.2462
    1W        W53961  15.062   6.952   2.042  0.1113 -0.3100  0.2606
    1W        W53962   8.525  27.920   7.201  0.0727 -0.0877 -0.1312
    1W        W53963  11.399   5.090   1.837 -0.0879  0.0714  0.1790
    1W        W53964  26.741   3.788   7.757  0.0815 -0.1339  0.1490
    1W        W53965   9.803  16.257   1.141 -0.0507  0.0791  0.0534
    1W        W53966  18.565  28.408   3.339  0.2225  0.1574  0.1388
    1W        W53967  11.510  27.696   6.815  0.1709 -0.0157 -0.1777
    1W        W53968   9.191   9.136   6.179 -0.1658  0.0451  0.0213
    1W        W53969   7.039  16.087   7.384  0.0074  0.3776  0.1181
    1W        W53970  11.450   9.856   1.256 -0.0991 -0.1260  0.0725
    1W        W53971  12.514  10.539   2.242 -0.0212 -0.1444 -0.0900
    1W        W53972  20.979  16.852   8.727 -0.2568 -0.0976 -0.3919
    1W        W53973  27.437   6.812   6.998 -0.0171  0.0297  0.0140
    1W        W53974   5.862  20.995   8.878 -0.1344  0.0099  0.1160
    1W        W53975  24.900   2.626   2.131 -0.5100 -0.0174 -0.2677
    1W        W53976  27.109   6.922   8.860 -0.0055 -0.2035  0.1630
    1W        W53977  22.065  20.115   8.452 -0.2113 -0.0298  0.0643
    1W        W53978   9.408  28.405   7.039 -0.2031  0.4272 -0.0455
    1W        W53979   7.474  21.494   1.909 -0.1788  0.2586 -0.2804
    1W        W53980  16.962  23.383   3.017  0.2335  0.0035  0.1584
    1W        W53981  12.934   7.728   6.477  0.0618  0.0863 -0.2620
    1W        W53982  16.516  23.942   9.614  0.0814 -0.2235  0.0829
    1W        W53983   6.822   1.716   1.287  0.2285 -0.2533 -0.1447
    1W        W53984  11.441  18.512   0.654  0.0634  0.0631  0.0611
    1W        W53985  24.149  18.566   8.196 -0.1377  0.0210  0.2700
    1W        W53986  11.759  12.325   0.207 -0.0645  0.0421  0.3274
    1W        W53987  25.960  13.855   1.273  0.0966  0.0309 -0.2479
    1W        W53988  25.904  13.220   8.612 -0.0446 -0.0200  0.2190
    1W        W53989   2.071   0.453   9.458 -0.1092  0.1160  0.0089
    1W        W53990  12.887  25.041   1.302  0.0710  0.0608  0.2677
    1W        W53991  27.668  18.746   9.318 -0.0049  0.0396 -0.0333
    1W        W53992  11.539  26.387   7.224  0.0697 -0.1864  0.0128
    1W        W53993  15.993  17.677   8.935  0.1037  0.1904  0.1030
    1W        W53994   5.058  15.223   2.342 -0.0068 -0.0376 -0.2430
    1W        W53995  14.479  19.210   6.053 -0.1274 -0.0527 -0.3328
    1W        W53996   6.035  29.364   0.179 -0.2551  0.1756 -0.1621
    1W        W53997  24.610   6.162   8.587 -0.3353  0.0929 -0.0319
    1W        W53998  17.600  10.750   0.329 -0.0457 -0.3493 -0.1134
    1W        W53999   1.453   9.238   0.222 -0.0996 -0.2069  0.1760
    1W        W54000   6.338   1.619   0.203  0.2700 -0.0699 -0.1018
    1W        W54001   4.525   8.262   7.950  0.0605  0.1833 -0.0581
    1W        W54002   7.126  17.544   7.286 -0.0646  0.2625 -0.1662
    1W        W54003  20.625  20.223   7.691  0.2201 -0.0092 -0.0415
    1W        W54004  11.593  22.841   0.920 -0.1941  0.2368  0.2769
    1W        W54005  15.697  22.515   0.962  0.1938 -0.1499  0.4762
    1W        W54006   1.362  27.970   8.341  0.1678  0.2449  0.1736
    1W        W54007   3.997   1.661   0.577 -0.1741 -0.0202  0.0724
    1W        W54008   2.005   7.515   9.273  0.1774 -0.1816  0.3562
    1W        W54009  18.558   0.625   7.787 -0.0767 -0.0983 -0.3195
    1W        W54010   8.670  24.163   7.819  0.0515  0.0190 -0.0195
    1W        W54011  23.970  20.942   9.528  0.1365 -0.1543  0.1824
    1W        W54012   5.825   6.828   0.383  0.2506  0.0237  0.0676
    1W        W54013  17.069  27.843   0.135  0.0836 -0.0779  0.1172
    1W        W54014   8.701  19.066   7.534 -0.0739  0.2014 -0.1643
    1W        W54015  20.625   5.296   0.541 -0.2467 -0.0864 -0.0068
    1W        W54016   7.200  13.296   8.588  0.2644  0.0855 -0.2262
    1W        W54017  26.593  16.865   9.134  0.0048 -0.5545 -0.0437
    1W        W54018  22.383  23.475   9.600  0.3875 -0.0896  0.1081
    1W        W54019  21.168   0.854   7.293 -0.4225 -0.0593  0.1356
    1W        W54020  21.018   6.380   9.177  0.1104 -0.1504  0.0258
    1W        W54021  13.539  23.510   0.097 -0.2327  0.0350  0.3081
    1W        W54022  24.806  21.020   2.284 -0.3223  0.2414  0.2422
    1W        W54023  17.717  19.144   9.337  0.0255 -0.0579  0.1477
    1W        W54024  16.614  27.968   1.610  0.2929 -0.2868 -0.1054
    1W        W54025  24.971  11.138   7.547 -0.0572  0.0309  0.0522
    1W        W54026  28.833  11.459   1.689 -0.2404  0.0327 -0.0255
    1W        W54027  20.417  14.702   1.378  0.2973  0.1725  0.3015
    1W        W54028   1.864   4.768   0.922 -0.1635 -0.1350 -0.1096
    1W        W54029   5.883  11.526   1.969  0.1764 -0.0019 -0.1090
    1W        W54030  17.954  21.740   0.344  0.2151 -0.0344 -0.1309
    1W        W54031   5.978   4.057   9.290 -0.0695 -0.1483  0.1892
    1W        W54032  21.096  19.957   1.793  0.3271  0.0499  0.0168
    1W        W54033  24.791  10.823   7.886  0.5616 -0.0731  0.2101
    1W        W54034   0.252   2.131   1.582 -0.1703  0.0929 -0.0319
    1W        W54035  23.310  27.731   0.391  0.0726 -0.1676  0.2306
    1W        W54036   0.131  27.062   8.455  0.0202  0.0765 -0.0451
    1W        W54037   7.009   3.069   8.619  0.1236 -0.0020  0.5585
    1W        W54038  27.670  25.286   6.400  0.0990 -0.2238  0.1120
    1W        W54039  13.855   3.629   0.152  0.0131  0.2787 -0.2244
    1W        W54040  23.694  27.073   9.395  0.0448 -0.1383 -0.3428
    1W        W54041  10.044  22.287   9.100  0.5177 -0.1134  0.0438
    1W        W54042  25.464  22.420   1.430  0.0024 -0.0472 -0.1593
    1W        W54043   2.989   4.517   1.925 -0.1855  0.1933  0.0582
    1W        W54044   6.355  20.634   2.156 -0.0669 -0.0640  0.1724
    1W        W54045  14.280  15.734   0.247  0.1104 -0.1070 -0.1853
    1W        W54046  22.638   9.494   0.239  0.1389 -0.5380  0.2974
    1W        W54047  16.008  22.639   8.423  0.3027 -0.0293 -0.0631
    1W        W54048  14.149  26.356   0.875  0.2522 -0.3424 -0.0589
    1W        W54049  27.737  23.456   6.662  0.1402  0.0101 -0.1912
    1W        W54050  23.623  23.786   1.552  0.0652 -0.1569 -0.0333
    1W        W54051  29.153  21.797   2.397 -0.0203 -0.0824 -0.0546
    1W        W54052   7.737   6.712   7.058 -0.2364  0.1461  0.0263
    1W        W54053  28.437   9.336   7.704  0.0198  0.1904  0.0886
    1W        W54054   5.447   9.967   9.195 -0.0109  0.1985  0.1630
    1W        W54055  17.347   1.940   2.393 -0.0356  0.0341 -0.1611
    1W        W54056  12.955  10.796   1.123 -0.2027  0.1077  0.2858
    1W        W54057  14.748  27.359   8.967 -0.0583  0.1207  0.1195
    1W        W54058  25.555  11.377   7.972  0.1173 -0.0797 -0.2651
    1W        W54059  26.968  15.984   9.480 -0.4430  0.1548 -0.3131
    1W        W54060  21.426   1.914   7.653 -0.1003 -0.0186  0.2555
    1W        W54061  23.330  22.108   0.679  0.1193 -0.2490  0.2076
    1W        W54062  24.125  15.146   9.027  0.0125 -0.0093 -0.0399
    1W        W54063   5.351   6.462   6.157  0.3682  0.1298 -0.3437
    1W        W54064  18.518  11.439   0.145  0.0859 -0.1374 -0.2584
    1W        W54065  13.322   2.302   9.590  0.0661 -0.2571 -0.0444
    1W        W54066   8.153  25.925   7.124 -0.1439 -0.0475  0.1973
    1W        W54067  14.028  20.146   1.825 -0.0978  0.0477  0.0862
    1W        W54068  29.591  11.117   7.416  0.0087  0.0175  0.0037
    1W        W54069  25.635  13.071   8.193 -0.2163  0.0202 -0.2250
    1W        W54070  16.669   8.598   1.006 -0.1898  0.3306 -0.1634
    1W        W54071  22.907  16.090   0.752  0.1013 -0.0193  0.2315
    1W        W54072  11.778  11.764   1.880 -0.2387 -0.3081  0.0094
    1W        W54073  24.570   6.184   1.704 -0.0891  0.1390  0.3745
    1W        W54074  24.817   9.555   2.223 -0.2693 -0.0022  0.0670
    1W        W54075  18.853   5.652   1.903  0.0598 -0.5320 -0.0228
    1W        W54076  23.651  26.724   8.831 -0.0481 -0.3900 -0.0104
    1W        W54077  28.559  11.755   9.040 -0.1240  0.0792  0.0499
    1W        W54078  14.270   2.328   9.111 -0.0079 -0.2209  0.2076
    1W        W54079  18.997   9.165   1.488  0.2714  0.1196  0.1442
    1W        W54080  21.862   8.993   0.815  0.0084 -0.0339  0.4698
    1W        W54081   4.228   1.084   0.892 -0.2436  0.5255 -0.1098
    1W        W54082  16.997   1.591   9.364  0.4105  0.1258 -0.0798
    1W        W54083   2.864  23.341   8.534  0.0766 -0.2970 -0.2113
    1W        W54084   6.962   7.469   7.994  0.1953 -0.0023  0.0460
    1W        W54085  19.989  26.310   1.278  0.0419 -0.0014 -0.0485
    1W        W54086  28.427  13.567   1.680 -0.0044 -0.1941 -0.2870
    1W        W54087   7.472  18.826   8.084  0.0607 -0.3115 -0.0727
    1W        W54088  23.780  16.130   6.824  0.0767  0.0004  0.2113
    1W        W54089   0.546  28.266   6.304  0.0783  0.0380 -0.0896
    1W        W54090  21.365  16.109   9.578 -0.1087  0.1527  0.0542
    1W        W54091  28.730   7.938   8.105 -0.1324 -0.0434  0.0777
    1W        W54092   7.473  11.101   6.289 -0.0887 -0.2525 -0.0452
    1W        W54093   9.029  17.604   7.706 -0.0816 -0.0978 -0.0349
    1W        W54094  11.273  12.819   7.040  0.1228 -0.0094  0.1417
    1W        W54095   4.460  15.792   0.493  0.1742 -0.0537  0.1448
    1W        W54096  22.222   2.846   0.023 -0.0874 -0.0574  0.0235
    1W        W54097   9.291  28.708   7.965  0.2033 -0.1854  0.2023
    1W        W54098  10.067  13.656   6.808  0.0210 -0.1447 -0.0178
    1W        W54099  11.208  25.546   8.404 -0.0125  0.0155 -0.1710
    1W        W54100  22.873   9.109   0.524 -0.2235  0.2213  0.3623
    1W        W54101   0.604   3.919   7.194 -0.2323 -0.0264 -0.2289
    1W        W54102   2.552  20.833   1.137 -0.2396 -0.0300  0.0110
    1W        W54103  27.510  17.859   1.745 -0.3907 -0.1864  0.1933
    1W        W54104   8.963  18.860   0.906  0.2533  0.0752  0.0960
    1W        W54105  13.373   9.412   1.604  0.3209  0.1609  0.0045
    1W        W54106  18.848   2.152   0.036  0.1844  0.1200 -0.0087
    1W        W54107  21.815  28.623   2.734  0.0521  0.0917 -0.3369
    1W        W54108  23.163   7.570   7.766  0.0047  0.0121  0.1214
    1W        W54109   5.591  18.271   1.088  0.4443 -0.1690 -0.3842
    1W        W54110   6.367  18.936   1.624  0.1369  0.0846  0.0800
    1W        W54111  15.179  18.945   6.971  0.3325 -0.0688  0.3245
    1W        W54112  18.558   9.442   1.302  0.1451 -0.2785  0.4293
    1W        W54113   1.757   4.469   0.087  0.0730  0.0613  0.3276
    1W        W54114   2.923   5.905   7.530  0.0029  0.3635  0.2170
    1W        W54115   2.111  15.048   2.504  0.1705 -0.0134 -0.3118
    1W        W54116  22.448  26.349   9.304 -0.1021  0.0422  0.0348
    1W        W54117   8.263  17.213   9.506  0.0941  0.1119  0.0704
    1W        W54118   2.320   1.317   1.051 -0.0582  0.0111 -0.0765
    1W        W54119  15.476   3.511   3.009 -0.1932 -0.2821  0.0552
    1W        W54120  28.802  26.714   7.323  0.1511  0.0054  0.0469
    1W        W54121  24.011   4.117   7.718 -0.3036  0.2287  0.2201
    1W        W54122  18.477   1.946   9.461  0.1051  0.0444 -0.0176
    1W        W54123   1.692  19.452   2.700 -0.1265 -0.2333 -0.0165
    1W        W54124  10.107  14.110   6.616  0.1677 -0.1308 -0.1512
    1W        W54125  23.001  12.093   9.312 -0.0098  0.1469  0.2469
    1W        W54126  25.373  18.703   9.208  0.0063 -0.0723  0.2395
    1W        W54127  20.025  23.139   2.905 -0.0443 -0.1950 -0.0826
    1W        W54128  12.086  15.743   9.531 -0.1785  0.3403 -0.0627
    1W        W54129  20.815  22.491   8.118  0.2858 -0.3311  0.3089
    1W        W54130   7.872  15.584   9.137  0.1729  0.0307 -0.1777
    1W        W54131  28.436  22.053   0.690 -0.0476 -0.2782  0.0825
    1W        W54132   8.748   2.438   8.227 -0.2072  0.0465 -0.0293
    1W        W54133   0.506   6.931   1.209  0.0038 -0.0484 -0.1556
    1W        W54134   2.444  20.249   1.679 -0.1096  0.2500  0.2556
    1W        W54135  12.101   4.046   8.219 -0.1536 -0.0279 -0.0011
    1W        W54136  17.874  16.261   8.089  0.1393 -0.1471 -0.1649
    1W        W54137  16.984  22.805   7.727  0.2005 -0.1364 -0.0511
    1W        W54138  19.692   7.343   0.177  0.1196 -0.1358 -0.2956
    1W        W54139  26.309  15.043   7.883 -0.0227  0.1150 -0.1107
    1W        W54140   2.500  24.975   9.560  0.1145  0.1051  0.0160
    1W        W54141  26.361  24.193   7.367 -0.0850 -0.0292 -0.4142
    1W        W54142  13.375  15.215   2.008 -0.1051  0.2569  0.3878
    1W        W54143   1.753   9.441   0.640 -0.1410  0.0391 -0.1334
    1W        W54144  10.432  13.781   7.063 -0.2068 -0.4136  0.3179
    1W        W54145   5.376   9.095   8.825 -0.0517  0.3184 -0.0201
    1W        W54146  24.333  26.819   7.317 -0.0717  0.0517 -0.2132
    1W        W54147  23.374  20.497   7.844 -0.0752 -0.1619  0.0133
    1W        W54148   6.501  11.573   1.451  0.1159 -0.2455  0.1198
    1W        W54149  24.131   7.135   1.721  0.1677 -0.2473  0.0784
    1W        W54150  26.924  14.347   8.696 -0.0291 -0.1133 -0.1492
    1W        W54151   2.869   6.061   1.610 -0.0874  0.0079 -0.1889
    1W        W54152  26.065  20.495   1.966 -0.0964 -0.1176 -0.2267
    1W        W54153   7.518   5.596   7.597 -0.0678 -0.0093  0.0469
    1W        W54154  26.659  17.770   9.389 -0.2466 -0.0274 -0.2215
    1W        W54155  27.596   7.742   9.037  0.1327  0.2160  0.0595
    1W        W54156   7.508  12.428   6.735 -0.3250 -0.2434 -0.1268
    1W        W54157  22.093   6.642   0.210 -0.0500  0.0167 -0.0706
    1W        W54158  25.886   1.746   1.476  0.0841 -0.1223  0.0299
    1W        W54159  10.450   2.315   0.324 -0.1986  0.1381  0.0539
    1W        W54160  24.743  23.473   8.805 -0.2718 -0.3222 -0.1844
    1W        W54161  27.119   0.360   9.087 -0.0794 -0.0263  0.3516
    1W        W54162  28.753   6.648   9.553 -0.1702 -0.1578  0.0390
    1W        W54163  16.005   6.498   8.153 -0.1085  0.1651 -0.0110
    1W        W54164  25.798   4.403   6.729 -0.1571 -0.3949  0.0154
    1W        W54165   4.703  11.114   1.847 -0.0760 -0.2807  0.2119
    1W        W54166   2.154   2.271   8.022  0.0690 -0.0092  0.0130
    1W        W54167   1.291  21.766   8.665  0.2483 -0.2242  0.1764
    1W        W54168   4.417  16.387   1.972 -0.0754 -0.1842  0.0105
    1W        W54169  11.130  21.495   7.464 -0.0894 -0.2117 -0.0626
    1W        W54170   7.251  27.990   2.610  0.2215  0.1010  0.2788
    1W        W54171  14.842  11.177   1.926 -0.3916 -0.1468 -0.1060
    1W        W54172   8.635  26.846   8.517  0.0365 -0.0030 -0.2675
    1W        W54173  29.584  25.209   2.642  0.2731  0.1114  0.0956
    1W        W54174  25.920  17.934   0.403  0.0026  0.1101  0.1561
    1W        W54175  23.772  22.433   3.268 -0.0790 -0.1090  0.0760
    1W        W54176   7.289  24.215   7.214 -0.1405  0.0749 -0.2288
    1W        W54177  15.262  15.959   0.371 -0.1664 -0.0391 -0.0198
    1W        W54178   3.046  12.941   1.100 -0.3146  0.1365 -0.3084
    1W        W54179  25.264  24.414   0.414  0.1336 -0.0673 -0.1995
    1W        W54180  29.495  19.019   9.483  0.0192 -0.1187  0.0910
    1W        W54181  22.672  16.832   9.396 -0.1205 -0.0950  0.0373
    1W        W54182   6.290   6.627   7.473  0.1073 -0.0546  0.3452
    1W        W54183  24.801  18.968   0.141  0.1066  0.0159  0.2301
    1W        W54184   9.994   9.951   9.447 -0.0281  0.0925  0.1344
    1W        W54185  15.514   6.743   1.167 -0.1256  0.3145 -0.1026
    1W        W54186  19.446  25.590   8.057  0.0673 -0.1000  0.3870
    1W        W54187  10.981   7.987   1.249 -0.2011  0.1809 -0.1131
    1W        W54188   0.911  20.456   0.917 -0.0984 -0.0226  0.0461
    1W        W54189  19.339  28.630   9.484 -0.1160  0.0506 -0.1162
    1W        W54190  16.053  15.241   9.192 -0.3048  0.0092 -0.0504
    1W        W54191  20.599  29.054   0.516 -0.2444 -0.2566  0.2489
    1W        W54192   6.314  11.048   9.043  0.0503 -0.0556  0.0736
    1W        W54193  25.127  27.745   9.578  0.3514  0.1826 -0.1903
    1W        W54194  16.866  11.013   8.746  0.0164  0.3832  0.0172
    1W        W54195  12.795   9.621   8.902  0.0930 -0.0397 -0.0843
    1W        W54196  25.747   7.856   8.142 -0.3536 -0.1024 -0.2768
    1W        W54197  15.083   1.113   1.692  0.1049 -0.0373  0.0146
    1W        W54198  24.857   2.521   9.094  0.0816 -0.0648 -0.0032
    1W        W54199   0.613   1.447   7.307  0.1080  0.1559  0.3117
    1W        W54200   3.245  28.273   0.161 -0.0396 -0.0871 -0.0928
    1W        W54201  10.327  19.134   0.797  0.1387 -0.1371  0.1402
    1W        W54202  26.663  27.719   7.531  0.2207 -0.3706  0.4369
    1W        W54203   8.875  25.490   8.631  0.2651 -0.4228  0.1627
    1W        W54204  20.677  22.325   7.287  0.3312  0.0405 -0.1761
    1W        W54205  14.492  14.840   9.260 -0.0014  0.2705  0.1030
    1W        W54206  22.724  12.698   1.766  0.1803  0.1058  0.2818
    1W        W54207  11.993  25.973   1.509 -0.0952  0.3524 -0.0120
    1W        W54208  29.082  24.501   8.406  0.1775  0.0687  0.1552
    1W        W54209   7.157   5.812   7.158 -0.2987 -0.0277  0.3008
    1W        W54210  11.310  26.616   1.724 -0.0498 -0.0609 -0.1424
    1W        W54211   3.566  28.238   0.581  0.1692 -0.0709 -0.0093
    1W        W54212  16.298  25.833   0.458  0.2609  0.0741 -0.3184
    1W        W54213  10.035  24.849   2.320 -0.1819 -0.2054 -0.2782
    1W        W54214   7.350   2.214   5.878  0.3016  0.0941  0.0597
    1W        W54215  16.219  28.714   9.268 -0.4339 -0.1590 -0.1176
    1W        W54216   9.909  28.199   7.110  0.1428  0.2298  0.0467
    1W        W54217   5.929  25.566   1.742 -0.1610 -0.2013 -0.2245
    1W        W54218   8.438  28.891   5.717 -0.0209 -0.1431  0.1030
    1W        W54219  18.103   2.778   2.902  0.0806  0.2218 -0.1079
    1W        W54220  26.485   0.524   8.064 -0.3531  0.1584 -0.1302
    1W        W54221  16.753   2.852   0.264  0.1361 -0.3052  0.0408
    1W        W54222  15.307   9.387   1.266 -0.1939 -0.0440  0.1949
    1W        W54223  10.426   4.577   1.373 -0.2934 -0.2313  0.0086
    1W        W54224   0.895   3.868   6.241  0.0254  0.3634  0.0719
    1W        W54225  16.255   2.807   5.944  0.1825 -0.3733 -0.0890
    1W        W54226  25.517  14.689   2.350  0.1066 -0.2619 -0.1731
    1W        W54227  12.109   1.860   6.005  0.2729 -0.0526 -0.0824
    1W        W54228   3.272  12.996   1.701 -0.0533 -0.1516 -0.0910
    1W        W54229  24.738   6.727   7.837  0.3589 -0.1500 -0.0910
    1W        W54230  11.339  20.472   2.016  0.1896  0.1083 -0.0865
    1W        W54231  28.208  18.564   7.437 -0.0992 -0.1891 -0.2480
    1W        W54232  23.437  16.489   8.139 -0.0080  0.2402  0.1954
    1W        W54233   9.834  21.471   7.111  0.2893 -0.3658 -0.1765
    1W        W54234   8.488  17.766   7.682  0.0963 -0.3203  0.1774
    1W        W54235  23.596  24.534   9.327 -0.1296 -0.0769  0.0604
    1W        W54236  11.773  19.655   8.976 -0.0317 -0.2524 -0.1289
    1W        W54237  28.253  23.062   2.737  0.0351  0.1238  0.0916
    1W        W54238   8.369   0.359   0.463  0.2565  0.2137 -0.0737
    1W        W54239  14.112  20.475   6.007 -0.0431  0.1512  0.1183
    1W        W54240   2.326   7.164   6.231  0.0539  0.0412 -0.4071
    1W        W54241  28.560   6.991   0.692 -0.0961  0.0707 -0.1317
    1W        W54242  14.126  22.853   9.648  0.5464  0.1846  0.3650
    1W        W54243   4.124  11.900   7.461 -0.0113 -0.1152  0.0862
    1W        W54244  18.875  27.460   3.077  0.0194  0.2798  0.1159
    1W        W54245   4.418   4.162   9.208 -0.1479  0.1693 -0.1533
    1W        W54246   1.480   4.511   1.186  0.4284  0.0192  0.0534
    1W        W54247   3.882   9.460   6.353 -0.2111  0.3276  0.0102
    1W        W54248  26.548   5.564   8.244  0.0454  0.0436  0.1593
    1W        W54249  12.042   2.041   0.691  0.0355  0.3125 -0.1231
    1W        W54250  19.481   0.962   2.264 -0.0188 -0.0187 -0.0711
    1W        W54251   3.283  24.291   0.014  0.0503  0.7056 -0.0752
    1W        W54252  29.552  25.943   8.996 -0.0836  0.1386 -0.1716
    1W        W54253  17.872   6.922   0.434 -0.2721 -0.1125 -0.1602
    1W        W54254  14.432   0.931   0.148 -0.1870  0.1491 -0.2793
    1W        W54255   5.505  23.420   0.455 -0.0864  0.0453  0.2196
    1W        W54256  17.021  20.540   9.600 -0.0143 -0.2906  0.1112
    1W        W54257  13.798  25.293   0.993  0.1517  0.2494  0.1493
    1W        W54258  21.076  27.290   1.817  0.3181 -0.0423 -0.1787
    1W        W54259   1.001  24.760   9.527 -0.2522  0.4953 -0.0280
    1W        W54260  25.293  23.111   3.241 -0.0543  0.1394 -0.0868
    1W        W54261  18.383  25.368   2.942 -0.0793  0.1656 -0.2897
    1W        W54262   8.506  16.048   9.235  0.0593 -0.0804  0.2265
    1W        W54263  26.427   5.018   6.515 -0.3165 -0.1796 -0.0353
    1W        W54264   7.192  14.552   6.887 -0.2904  0.2248 -0.0262
    1W        W54265  14.040  12.290   8.074 -0.0067  0.0686  0.1360
    1W        W54266  28.325  15.933   1.878  0.1673  0.0294  0.2319
    1W        W54267   4.950  16.228   2.096 -0.0835  0.0026 -0.0065
    1W        W54268   9.710  28.140   7.609  0.0001 -0.0619 -0.0688
    1W        W54269  22.576  12.357   9.407  0.1223  0.2547  0.0979
    1W        W54270  16.996  16.931   7.878  0.0047 -0.1047 -0.1538
    1W        W54271  21.306  21.944   0.825  0.0893  0.0418 -0.0278
    1W        W54272  12.241  28.511   0.340 -0.0570 -0.2118  0.2322
    1W        W54273  15.860  29.309   0.737 -0.1175 -0.0768 -0.2649
    1W        W54274  12.651  11.530   9.361 -0.1147  0.1024  0.2926
    1W        W54275  22.889   0.784   1.537 -0.1495  0.2206 -0.3153
    1W        W54276  16.952  26.735   7.975  0.3498  0.1049  0.0670
    1W        W54277   8.221  23.862   7.860 -0.3100  0.0767 -0.0704
    1W        W54278  24.483  15.337   2.307 -0.2607  0.2223 -0.0010
    1W        W54279  20.577   4.632   7.534  0.1924 -0.2644 -0.0158
    1W        W54280  11.201  21.348   8.277 -0.0639  0.0135 -0.3277
    1W        W54281  17.036  20.530   7.053  0.0824 -0.0284 -0.0454
    1W        W54282  26.608  10.008   0.083 -0.0029  0.1165 -0.1563
    1W        W54283  29.330  19.213   2.751 -0.2135  0.1094  0.0061
    1W        W54284  10.836  19.286   6.730  0.0637  0.0471  0.2050
    1W        W54285  28.827  19.043   8.468  0.1210 -0.0648  0.1933
    1W        W54286  17.013  23.090   1.239 -0.0210  0.1257 -0.3376
    1W        W54287  15.998  20.261   7.695  0.1107 -0.0661  0.2026
    1W        W54288  14.210  21.315   7.964  0.1791  0.0184 -0.0659
    1W        W54289  20.966  23.859   8.780  0.1365 -0.1359 -0.1047
    1W        W54290  24.145  23.258   3.778  0.1619 -0.0514 -0.0596
    1W        W54291   7.249  28.624   0.833 -0.1240 -0.0806  0.0115
    1W        W54292   5.166  13.567   7.382  0.2716  0.0770  0.0561
    1W        W54293  12.135   8.852   6.303 -0.0556 -0.0268  0.1733
    1W        W54294   1.134  23.505   2.114  0.0055  0.2568 -0.4398
    1W        W54295   0.369  12.830   1.979  0.1591 -0.2260 -0.0346
    1W        W54296  13.768  18.030   7.734  0.1115  0.1118 -0.1330
    1W        W54297  14.739  18.124   7.955  0.1524 -0.1687 -0.1650
    1W        W54298  15.697  11.953   9.232 -0.2415 -0.2502  0.1463
    1W        W54299  22.652  24.453   1.459  0.0794  0.1739  0.2231
    1W        W54300  13.008  10.761   2.136  0.0369  0.1785 -0.0716
    1W        W54301  21.471  12.453   2.943 -0.2002 -0.0117  0.0223
    1W        W54302  10.532  28.107   9.322  0.3879 -0.3218 -0.0817
    1W        W54303  23.743  12.863   9.595 -0.3298 -0.0319  0.0460
    1W        W54304  24.888  26.824   9.102 -0.0693 -0.1064  0.0986
    1W        W54305  28.732  12.926   9.543 -0.2504 -0.3976 -0.0802
    1W        W54306  28.711  12.164   8.338 -0.1284  0.1847 -0.1583
    1W        W54307  19.500   1.467   1.201  0.0630 -0.1638 -0.3036
    1W        W54308   6.899   0.325   1.022 -0.0379 -0.1402 -0.0676
    1W        W54309  15.498  14.541   1.030 -0.1288 -0.0849 -0.0757
    1W        W54310  10.710  10.409   2.811 -0.0861  0.4167  0.0103
    1W        W54311   3.438  26.167   2.028 -0.0574 -0.2129 -0.1687
    1W        W54312   0.239  27.830   2.913  0.1274  0.1389  0.0947
    1W        W54313   1.809  22.842   2.656  0.0274  0.2856  0.2233
    1W        W54314  11.465   4.406   7.551  0.3941 -0.0341  0.0791
    1W        W54315   7.644  18.499   9.208 -0.0497  0.0500  0.0889
    1W        W54316  28.767  25.735   1.389  0.2543 -0.1552 -0.1208
    1W        W54317   7.651   8.706   1.480  0.1493 -0.0616  0.2094
    1W        W54318  17.457  25.113   8.877  0.4412 -0.0994  0.1673
    1W        W54319   4.011   7.012   7.115  0.0915  0.0194 -0.0871
    1W        W54320  18.592   2.797   8.754  0.0306 -0.2965  0.0634
    1W        W54321   1.593  14.691   2.428  0.2245 -0.2171 -0.0730
    1W        W54322  14.532  25.097   2.234  0.1845 -0.0418 -0.1735
    1W        W54323   0.453  27.474   1.106  0.0833  0.2737  0.1436
    1W        W54324  15.108  27.365   1.531 -0.2997  0.1658  0.1151
    1W        W54325  13.552  25.021   0.612 -0.0310  0.0264 -0.1946
    1W        W54326   4.002   7.117   6.211  0.0503  0.0546  0.1529
    1W        W54327  28.876  29.598   2.766  0.0948  0.0926  0.5258
    1W        W54328  16.029  27.953   0.770  0.0713  0.3131 -0.2901
    1W        W54329  27.489   4.039   1.182 -0.1598  0.2354  0.0466
    1W        W54330   3.344   6.316   0.977 -0.0823  0.2777 -0.0270
    1W        W54331  20.607  23.966   8.453  0.0817 -0.0162 -0.2632
    1W        W54332   8.628  23.791   7.459 -0.1544 -0.0186 -0.1080
    1W        W54333  11.338  20.674   1.388  0.0349  0.0873 -0.0858
    1W        W54334   4.240  22.147   0.359  0.1877 -0.0850  0.1736
    1W        W54335   7.244   3.519   7.310  0.5436  0.0966  0.2327
    1W        W54336  26.729  11.117   8.065 -0.1200  0.0728 -0.1770
    1W        W54337  17.670  15.051   7.970  0.0573 -0.1988 -0.0624
    1W        W54338  17.949   8.896   1.527  0.4167  0.2882  0.2061
    1W        W54339  17.339  15.176   0.275  0.0942 -0.1494 -0.1646
    1W        W54340  22.738   4.139   1.734  0.1322 -0.0887  0.1741
    1W        W54341  21.888   2.839   7.569 -0.1607  0.0737  0.0344
    1W        W54342   3.309   4.940   0.989  0.4077 -0.0496  0.4633
    1W        W54343  18.160   0.265   2.560 -0.0112  0.0831  0.1484
    1W        W54344  25.975   2.017   9.598 -0.0687  0.1498 -0.3087
    1W        W54345  14.582  19.516   1.216  0.0029 -0.0023 -0.3579
    1W        W54346   9.257  18.585   8.321  0.0759 -0.1107  0.1449
    1W        W54347  23.540  13.208   0.253 -0.1343 -0.1744 -0.2126
    1W        W54348  17.612  13.097   8.627  0.2611 -0.0880  0.0518
    1W        W54349  17.269  24.675   8.435  0.0831 -0.0604 -0.2225
    1W        W54350   2.342  20.032   2.648  0.3910 -0.1733 -0.1870
    1W        W54351  19.505  28.048   1.383 -0.0962  0.1504 -0.1711
    1W        W54352   8.218  20.908   8.151  0.0687 -0.0129  0.0743
    1W        W54353   0.763  22.145   7.544  0.3026 -0.1955 -0.0940
    1W        W54354  14.565  17.626   0.708 -0.1217  0.3388  0.1163
    1W        W54355  12.003   2.532   0.676  0.0465  0.0345  0.3141
    1W        W54356  19.219  17.089   1.239  0.1152 -0.0088 -0.1260
    1W        W54357  14.096  12.740   8.327  0.1362 -0.2373  0.0015
    1W        W54358  24.854  15.759   1.544  0.1700  0.0445 -0.0742
    1W        W54359   5.873   5.345   0.099  0.2794  0.1978  0.1097
    1W        W54360  14.695  12.477   7.537  0.2056  0.1078 -0.1292
    1W        W54361   1.969  24.309   2.298  0.1587  0.1484  0.1700
    1W        W54362   1.119  28.250   6.330 -0.1677  0.1334  0.1478
    1W        W54363   0.970  11.304   9.405 -0.4287 -0.1286 -0.1350
    1W        W54364  13.651   5.891   8.612  0.0619  0.0924 -0.1012
    1W        W54365  17.408  22.807   1.477  0.2704  0.1539  0.1657
    1W        W54366  22.179   0.837   8.598 -0.1018 -0.2652  0.0422
    1W        W54367  26.641  25.276   1.860 -0.0990  0.1876  0.1373
    1W        W54368  10.959  22.503   0.679  0.1075  0.0476  0.0570
    1W        W54369  13.020   0.275   6.275  0.3498 -0.1565 -0.1666
    1W        W54370  16.282  12.920   1.465  0.0273 -0.0573  0.0731
    1W        W54371   9.193   8.795   7.200  0.0215 -0.0143 -0.1376
    1W        W54372  11.256   5.847   6.900  0.2319  0.1163 -0.1402
    1W        W54373   4.631  12.879   1.793 -0.2586  0.0919  0.1810
    1W        W54374   9.905  10.141   0.969 -0.1234 -0.2324  0.0833
    1W        W54375  14.537  15.662   8.886 -0.2353  0.4360 -0.5008
    1W        W54376  11.524  21.387   9.467 -0.3008 -0.1209 -0.0787
    1W        W54377  26.580  27.892   0.418  0.1634  0.1017  0.2222
    1W        W54378  20.569  18.997   2.477 -0.1931 -0.0435  0.4836
    1W        W54379   7.433   7.230   2.923  0.0366  0.0079 -0.0586
    1W        W54380  22.652   6.056   9.419  0.0335 -0.1053  0.1907
    1W        W54381   3.718   0.160   0.586 -0.1022  0.1717 -0.0887
    1W        W54382   3.185  18.923   0.055 -0.0322 -0.0686 -0.0910
    1W        W54383   0.682   5.980   1.549  0.1929  0.0625 -0.0761
    1W        W54384  12.749  28.768   8.504 -0.1651  0.1764  0.0008
    1W        W54385  23.847  27.366   7.046  0.1554  0.0327 -0.2220
    1W        W54386   5.702  27.032   1.817 -0.1710 -0.3176  0.0724
    1W        W54387   6.778  29.054   1.075  0.1904 -0.1471 -0.0769
    1W        W54388   1.202   5.298   7.034  0.0190 -0.0503 -0.2407
    1W        W54389  26.143  12.259   2.406 -0.0987  0.0168  0.2836
    1W        W54390  20.683  13.594   2.060 -0.1040  0.0422  0.2298
    1W        W54391   2.055   6.183   1.039  0.1218 -0.1293  0.2169
    1W        W54392  21.946  24.608   3.278 -0.0090 -0.4017 -0.0817
    1W        W54393   3.590  25.864   7.112  0.2263 -0.0954 -0.3820
    1W        W54394  11.290  15.584   1.952 -0.3363  0.1811 -0.2295
    1W        W54395  14.093   3.974   5.938  0.1408 -0.2520 -0.0336
    1W        W54396  22.735  24.524   3.208  0.2099 -0.1361 -0.0687
    1W        W54397  11.540  14.070   0.304 -0.2075  0.3119 -0.1920
    1W        W54398  20.759   9.621   7.402  0.1263  0.2611 -0.1109
    1W        W54399  15.010  18.556   7.870  0.1326 -0.1047 -0.1772
    1W        W54400  14.556  18.000   6.129 -0.1578 -0.0007 -0.0202
    1W        W54401  18.316  16.824   8.662  0.1420  0.2008  0.4092
    1W        W54402  28.668  12.376   1.737 -0.0999  0.0981  0.3077
    1W        W54403  17.049  20.155   0.662  0.0097 -0.2239 -0.0281
    1W        W54404  11.027  27.798   7.860 -0.0972 -0.3082  0.0038
    1W        W54405   3.484   8.677   6.147 -0.1339  0.0034 -0.0794
    1W        W54406  21.285  20.566   7.094  0.0346  0.0660 -0.3025
    1W        W54407  23.349  14.814   8.633 -0.0106  0.0659 -0.2718
    1W        W54408   6.361  24.082   8.487  0.0360 -0.0533 -0.0105
    1W        W54409   6.066  18.618   1.900  0.0926 -0.1449  0.1953
    1W        W54410   4.076   5.682   1.073 -0.1936 -0.0635 -0.0671
    1W        W54411  19.581  17.603   2.542  0.1996  0.1075  0.0745
    1W        W54412  20.607  26.990   8.821  0.2241  0.2124  0.0090
    1W        W54413  13.678   9.151   8.511  0.0272  0.1287 -0.0154
    1W        W54414  20.863  22.249   8.952  0.2750 -0.2436  0.2501
    1W        W54415  23.318   3.876   8.120  0.0538  0.0450  0.1958
    1W        W54416  29.551  16.138   7.327 -0.0055 -0.3755  0.1070
    1W        W54417  10.341   1.076   7.164 -0.1108 -0.1411 -0.5289
    1W        W54418  11.973   7.022   9.368  0.3518 -0.0112  0.0776
    1W        W54419   5.141  16.294   1.359  0.0044 -0.1685  0.0799
    1W        W54420   1.486  24.809   9.335  0.2371  0.2691  0.1403
    1W        W54421  24.401  20.177   1.019 -0.0520  0.0669 -0.3527
    1W        W54422  12.204  23.856   1.541 -0.1940  0.2451 -0.0475
    1W        W54423  27.241  22.483   2.630 -0.0967  0.1537 -0.0417
    1W        W54424  21.712   5.693   7.500  0.1134 -0.2361  0.1506
    1W        W54425   9.936   1.447   8.984 -0.4482  0.2715 -0.2553
    1W        W54426  22.073  15.910   0.434 -0.2661  0.0699  0.1531
    1W        W54427   8.099  10.988   8.220 -0.0770  0.0810  0.1290
    1W        W54428  16.833  29.459   0.167  0.0169 -0.0255  0.0020
    1W        W54429  20.099  16.286   0.494 -0.1865  0.2370  0.0780
    1W        W54430  28.768   6.304   6.780 -0.3665  0.2329  0.1449
    1W        W54431  22.880   3.478   1.088  0.0506 -0.0324  0.1056
    1W        W54432  14.314  26.054   0.174  0.4767 -0.2164  0.2380
    1W        W54433   4.929  27.211   7.805  0.0247  0.1400 -0.0700
    1W        W54434   6.974  21.075   7.945 -0.0368  0.0776 -0.0239
    1W        W54435  16.565   3.223   6.146 -0.1703 -0.0572  0.0576
    1W        W54436   2.482  12.716   1.886 -0.0773  0.1810  0.4110
    1W        W54437   5.859  16.846   8.421  0.0061 -0.0417 -0.1955
    1W        W54438   0.884  16.938   2.780 -0.4656 -0.2893 -0.1530
    1W        W54439   0.644   2.626   9.294 -0.1222 -0.0439 -0.1168
    1W        W54440  13.128  27.129   8.883 -0.2616  0.0241 -0.3106
    1W        W54441  12.703  13.859   2.387 -0.1650 -0.1999  0.2807
    1W        W54442  21.993  12.603   2.872 -0.0025 -0.1064 -0.0671
    1W        W54443  14.274   7.464   8.840  0.0007  0.5066  0.0164
    1W        W54444  18.027   6.688   7.025 -0.3216  0.1900 -0.0962
    1W        W54445  25.436   8.025   0.555  0.0418 -0.0634  0.2102
    1W        W54446  18.049   8.767   0.704  0.0633 -0.0784 -0.2093
    1W        W54447   8.537   5.731   6.688 -0.0495  0.1539 -0.3004
    1W        W54448  18.222   0.413   7.515  0.0124 -0.3036 -0.0109
    1W        W54449  19.123  25.305   2.561 -0.0702 -0.1464  0.1897
    1W        W54450  14.945  19.532   0.052  0.1081  0.0681  0.0941
    1W        W54451   2.154  10.198   6.582 -0.2259  0.1038 -0.0142
    1W        W54452  14.080   8.980   7.088  0.2971  0.0815  0.0357
    1W        W54453  11.245  16.528   7.435  0.1841  0.1028  0.0552
    1W        W54454  19.163   6.866   8.858 -0.1537 -0.0503  0.0867
    1W        W54455  20.118  25.987   9.486  0.0712 -0.1044  0.2332
    1W        W54456  23.729  29.466   7.363 -0.1856 -0.0972 -0.1208
    1W        W54457  24.301  19.697   2.695  0.2126 -0.2006 -0.0473
    1W        W54458  15.639   6.270   8.380  0.0937  0.3063  0.0791
    1W        W54459  18.163   7.446   1.277  0.2360  0.0485  0.1047
    1W        W54460   0.624   5.657   9.291  0.0994  0.0368  0.0579
    1W        W54461  18.758  26.922   0.457  0.0721 -0.0415  0.2566
    1W        W54462  26.436  26.215   1.845 -0.0607 -0.1541 -0.0417
    1W        W54463  17.096   2.086   8.221  0.2274  0.0036  0.0771
    1W        W54464  26.361   1.747   1.759 -0.0206  0.3185 -0.2950
    1W        W54465  26.392  18.874   1.936  0.4563  0.1007  0.1260
    1W        W54466  16.793   7.181   8.626  0.3967 -0.0153  0.3674
    1W        W54467  12.245  27.637   8.514  0.1494  0.1718 -0.5293
    1W        W54468  13.899   1.737   6.302 -0.1345 -0.1311 -0.1084
    1W        W54469   4.407  22.872   2.818 -0.1371  0.0388  0.1059
    1W        W54470   8.584   6.043   1.269 -0.4836 -0.1692  0.1072
    1W        W54471  23.528  23.883   3.451  0.0258 -0.1864  0.0133
    1W        W54472  21.639  15.418   0.676 -0.0262 -0.1691 -0.0847
    1W        W54473  12.822  28.426   2.614  0.0615  0.1220 -0.0458
    1W        W54474  23.874  28.715   6.926 -0.2663 -0.3374 -0.5189
    1W        W54475   3.461   5.985   7.770  0.1808 -0.0111 -0.2287
    1W        W54476  21.900  16.359   8.214  0.2285 -0.0341 -0.1004
    1W        W54477  21.473  11.778   9.534 -0.0703 -0.0078 -0.1704
    1W        W54478   7.309   0.277   6.891 -0.1812 -0.4211 -0.2379
    1W        W54479  19.434  24.898   3.596 -0.2145 -0.0265 -0.3285
    1W        W54480   5.325  19.821   1.812  0.0778 -0.0215 -0.0508
    1W        W54481  18.592   1.230   0.951  0.2117 -0.0263  0.0868
    1W        W54482  16.877  27.518   9.392  0.1436  0.0035  0.2720
    1W        W54483  10.704  11.392   2.837 -0.0571  0.1969 -0.1810
    1W        W54484  13.940   5.122   8.232  0.3406 -0.3138  0.2261
    1W        W54485  29.604  18.170   0.469 -0.1585  0.1534  0.1795
    1W        W54486  27.074  25.929   7.472  0.1143 -0.0120  0.2145
    1W        W54487  14.240  14.488   2.339  0.1458 -0.3597 -0.1621
    1W        W54488  23.383  14.126   2.143 -0.2875  0.0807  0.1907
    1W        W54489  11.210  24.491   0.645  0.2298  0.1325  0.1991
    1W        W54490  13.149  17.062   7.913  0.6263  0.3249  0.0744
    1W        W54491  27.447  23.276   2.847 -0.1934 -0.0421  0.1050
    1W        W54492  11.401   7.746   8.343  0.2570 -0.2140  0.2699
    1W        W54493   3.383  27.283   6.424 -0.2815 -0.1400  0.0959
    1W        W54494   0.911  29.454   2.063 -0.0142 -0.1818  0.2952
    1W        W54495   2.787   5.838   6.613  0.1876 -0.1424 -0.1233
    1W        W54496  12.106  27.796   6.529 -0.2035 -0.3841 -0.1620
    1W        W54497  12.536   0.798   2.046 -0.3217 -0.0907  0.1746
    1W        W54498   2.479  23.584   7.642 -0.2398  0.2267 -0.0501
    1W        W54499  25.207   0.089   2.284  0.2455  0.0125 -0.2659
    1W        W54500   6.982   6.293   7.157 -0.1450 -0.0501 -0.0974
    1W        W54501  27.461  27.527   9.327  0.0722 -0.3614 -0.3769
    1W        W54502  17.123  18.905   0.915 -0.4098 -0.3531  0.3766
    1W        W54503  19.432  28.557   8.477  0.1163  0.0288  0.2655
    1W        W54504   3.529   4.716   2.493 -0.1001  0.0661 -0.2163
    1W        W54505  10.441  24.975   9.323 -0.1431  0.3423  0.1571
    1W        W54506  15.273   6.101   8.648  0.2294  0.1285 -0.2921
    1W        W54507  16.005  12.773   8.032  0.1169 -0.1336  0.1353
    1W        W54508   6.240  23.852   7.119 -0.1809 -0.1271  0.0337
    1W        W54509  29.458  23.326   0.110 -0.1225  0.0838  0.0760
    1W        W54510  27.104  28.047   0.516 -0.2871  0.1008 -0.1271
    1W        W54511  17.079   8.715   7.720 -0.1224 -0.0439  0.0827
    1W        W54512  10.372  18.251   9.532  0.0114  0.2348  0.0319
    1W        W54513  15.351  29.290   0.465  0.2394 -0.0223  0.0415
    1W        W54514  22.333   0.689   8.076 -0.2461  0.0441  0.0151
    1W        W54515  20.832  21.559   0.825  0.0362 -0.0901  0.4096
    1W        W54516  29.465  23.878   6.742 -0.0555  0.2371 -0.1113
    1W        W54517   5.912  26.424   1.765  0.1135  0.1527  0.2057
    1W        W54518  19.869   1.416   7.572 -0.0309  0.1549 -0.0352
    1W        W54519  20.703  24.685   2.812 -0.0612  0.1722 -0.2485
    1W        W54520  19.525  14.620   1.890  0.3778 -0.2097  0.1640
    1W        W54521   4.625  28.023   6.599  0.2385 -0.0615  0.1973
    1W        W54522   0.605  22.645   7.438  0.1806 -0.2954  0.0986
    1W        W54523   6.828   6.014   7.608 -0.1098 -0.3125 -0.2527
    1W        W54524  22.867  29.245   3.368 -0.1320 -0.1626  0.0253
    1W        W54525   0.424  15.646   9.016 -0.0846 -0.0273 -0.4247
    1W        W54526   8.766  24.477   5.956  0.0210 -0.0281 -0.1716
    1W        W54527  11.937  15.098   0.625 -0.0693 -0.1940 -0.1915
    1W        W54528  13.676  17.756   7.025  0.0254  0.0058 -0.2729
    1W        W54529   4.370  23.987   3.136 -0.0998  0.0717  0.3477
    1W        W54530   2.071  26.851   0.159  0.2366 -0.0919  0.0740
    1W        W54531  27.291  10.948   1.354  0.0263 -0.1526  0.0376
    1W        W54532   8.465  14.650   8.003  0.1732  0.0453 -0.0562
    1W        W54533   5.084  23.309   0.724 -0.0217  0.3442  0.4327
    1W        W54534   8.840  11.766   0.888  0.1135 -0.1706 -0.3221
    1W        W54535   3.701  12.383   7.614  0.0224 -0.1593  0.0636
    1W        W54536  12.829   1.918   3.412  0.0479  0.0866 -0.1428
    1W        W54537  22.928  24.538   1.955 -0.1356  0.1089 -0.2446
    1W        W54538  11.768   5.570   5.332 -0.0287  0.0447  0.0375
    1W        W54539   4.864   1.138   2.379 -0.0569  0.0886  0.2289
    1W        W54540  20.767  11.299   8.346  0.0195 -0.3294 -0.2508
    1W        W54541  23.743   8.908   0.420 -0.0492  0.1571  0.5708
    1W        W54542  23.427   3.307   0.838 -0.0628  0.1367 -0.0350
    1W        W54543  14.547  21.558   6.954  0.0019  0.3736  0.1983
    1W        W54544  13.393   8.978   9.505 -0.0219 -0.0811  0.5430
    1W        W54545   2.198  28.873   1.914 -0.0072  0.0462  0.0061
    1W        W54546  24.921  24.043   0.240 -0.0983 -0.2100 -0.2997
    1W        W54547   0.948  23.067   2.304 -0.1002 -0.1309 -0.0030
    1W        W54548   6.373   4.295   0.651  0.2185 -0.0014 -0.0418
    1W        W54549  20.322  15.889   0.760  0.0267  0.1403  0.0337
    1W        W54550  10.887   7.423   9.138  0.0315  0.1630  0.2266
    1W        W54551   9.707  20.454   7.674  0.3355  0.1229  0.0852
    1W        W54552  19.778  19.375   7.898  0.1360  0.0080  0.0519
    1W        W54553  23.898  26.976   7.392  0.0604 -0.1933 -0.4703
    1W        W54554  17.249   6.422   8.594 -0.1421  0.1014 -0.2441
    1W        W54555   4.643  20.660   3.248 -0.1588  0.0189  0.3516
    1W        W54556   2.642   4.721   6.831 -0.1612  0.3764 -0.2016
    1W        W54557  17.706   6.642   0.011 -0.2183 -0.2951 -0.3637
    1W        W54558   0.727  14.643   7.270 -0.1415  0.0008 -0.0051
    1W        W54559  26.913  25.316   2.292 -0.1704 -0.1410 -0.1179
    1W        W54560  24.129   7.202   7.577  0.2298 -0.0781 -0.1922
    1W        W54561  22.934   7.169   8.202 -0.1055 -0.1505 -0.2671
    1W        W54562  22.295  26.975   2.705  0.1856  0.2813 -0.4448
    1W        W54563  21.252   1.413   1.383  0.0998  0.2236 -0.2969
    1W        W54564  28.649  22.797   2.562  0.1239  0.1973 -0.0011
    1W        W54565  17.318  19.865   1.010  0.1486 -0.1398  0.1822
    1W        W54566  15.094  23.481   6.608  0.3034  0.3142 -0.0565
    1W        W54567  12.513  19.477   8.255  0.3487 -0.0576  0.0386
    1W        W54568  10.336  18.339   8.270 -0.0646  0.0400 -0.1107
    1W        W54569  18.286  14.921   1.111 -0.1027 -0.1436  0.2238
    1W        W54570   5.916  19.441   0.481  0.3237  0.2498  0.0500
    1W        W54571  15.148   6.969   7.931 -0.0810 -0.1952  0.0045
    1W        W54572  18.927  28.374   3.025 -0.1217  0.3508 -0.0179
    1W        W54573  28.991  28.036   9.109 -0.0003  0.1396  0.2083
    1W        W54574  15.108   5.453   7.502 -0.1041  0.0502  0.1306
    1W        W54575   6.271   1.785   2.114 -0.3156  0.2961  0.2768
    1W        W54576  20.724   7.779   8.645  0.3269  0.1442 -0.1215
    1W        W54577  20.022  12.560   1.480 -0.0403  0.0854 -0.2520
    1W        W54578   7.373  21.905   7.970  0.3752 -0.0358  0.0914
    1W        W54579  27.463  15.702   7.283  0.7363 -0.1187 -0.3770
    1W        W54580  11.321  13.052   8.012 -0.1240 -0.1140 -0.0819
    1W        W54581  28.619  16.852   9.593  0.2093  0.0035 -0.1411
    1W        W54582  11.665  21.735   6.817 -0.1820  0.0249 -0.0671
    1W        W54583  20.844  14.011   8.581 -0.0041  0.0413 -0.0121
    1W        W54584   0.907   0.363   2.786 -0.1894 -0.1052 -0.0491
    1W        W54585  12.192  16.828   0.778 -0.3441  0.5303 -0.1016
    1W        W54586  25.130  24.764   9.557  0.3061  0.0377 -0.1300
    1W        W54587  12.185   0.758   1.213 -0.1330 -0.0275  0.2463
    1W        W54588   3.401   6.113   9.379  0.1283 -0.0483  0.1093
    1W        W54589  20.762  21.474   9.021 -0.1030  0.0676  0.1034
    1W        W54590   7.700  12.426   8.160 -0.0011  0.1716 -0.1599
    1W        W54591  12.586  27.274   1.632 -0.0587 -0.1559  0.1842
    1W        W54592  19.090   8.505   7.073  0.1495  0.1676 -0.0391
    1W        W54593  22.105  26.388   7.558 -0.0065  0.1349 -0.0860
    1W        W54594  18.277  10.060   9.503 -0.0522  0.0949  0.0596
    1W        W54595  20.316  27.026   2.824 -0.1464  0.2762  0.1118
    1W        W54596  24.566   9.002   0.122 -0.0774  0.0237  0.2088
    1W        W54597   6.319  20.178   8.370  0.0811 -0.2153 -0.2041
    1W        W54598  15.328  18.045   1.966 -0.3382 -0.0910  0.0950
    1W        W54599  21.584  10.857   9.070 -0.0005  0.1806 -0.0239
    1W        W54600   2.371  10.106   9.278  0.2675 -0.0381  0.0205
    1W        W54601  10.625   9.646   1.098  0.0140  0.2087  0.3426
    1W        W54602  26.835  21.630   9.602  0.0461 -0.1218  0.0325
    1W        W54603   2.666   1.137   7.038 -0.1254  0.2445  0.4072
    1W        W54604  21.726  11.281   1.468 -0.0866 -0.0527  0.1075
    1W        W54605  14.557  24.482   2.059 -0.0609  0.1078  0.1706
    1W        W54606  22.197  22.551   1.134 -0.2630  0.1209  0.1503
    1W        W54607   5.091  29.100   7.399  0.0915 -0.1966 -0.1104
    1W        W54608  17.573  21.198   0.987 -0.1841 -0.0223  0.1687
    1W        W54609  28.229  26.908   0.952  0.1106  0.0857 -0.1567
    1W        W54610   0.988  15.211   8.158 -0.0687  0.3195  0.0525
    1W        W54611   5.395   3.209   0.947  0.1204  0.0067 -0.1503
    1W        W54612   7.347  12.877   6.903 -0.0477 -0.0199 -0.1346
    1W        W54613   8.436   8.448   7.483  0.2675 -0.1646 -0.1376
    1W        W54614  12.658  20.596   8.147  0.1946 -0.1413 -0.0129
    1W        W54615  16.507  23.474   7.264  0.0375  0.2073  0.1491
    1W        W54616  28.461  23.927   7.865 -0.0076  0.1585 -0.1448
    1W        W54617  16.151  28.809   7.324 -0.0864  0.0132 -0.0622
    1W        W54618  25.726   5.885   6.590 -0.2746  0.2017 -0.2592
    1W        W54619   7.295  13.386   9.145 -0.3324 -0.0045  0.0385
    1W        W54620  27.274  15.911   8.574 -0.3681  0.3367 -0.0828
    1W        W54621   8.384   7.337   6.777 -0.1808  0.1580 -0.1588
    1W        W54622   8.243   7.576   9.572 -0.3554 -0.1167  0.1757
    1W        W54623  11.069  26.397   7.096  0.2426 -0.0415 -0.0132
    1W        W54624   4.770  16.202   0.548  0.2691 -0.2256  0.0863
    1W        W54625  12.969   5.225   8.507 -0.2964 -0.0067 -0.5565
    1W        W54626  18.559   6.155   0.010 -0.3869  0.0697 -0.1064
    1W        W54627   3.582  16.823   8.224  0.4437  0.0969 -0.0718
    1W        W54628   3.597  18.729   2.606 -0.3160 -0.0471 -0.1156
    1W        W54629   7.713  16.619   8.837 -0.1487  0.0924 -0.1181
    1W        W54630   3.367  18.592   1.287  0.1235 -0.1948  0.1984
    1W        W54631  11.367  29.307   2.256  0.0295  0.1568 -0.0479
    1W        W54632  25.938   3.739   1.567 -0.2612  0.1757 -0.0819
    1W        W54633  24.404   7.098   8.450  0.0100 -0.0629  0.1973
    1W        W54634  25.729  11.834   8.093  0.0684 -0.0090  0.2784
    1W        W54635   9.524   1.889   8.210 -0.2008  0.2208  0.2455
    1W        W54636   5.005   7.254   9.556  0.1761 -0.1333 -0.2921
    1W        W54637  15.553  20.216   8.430 -0.1441 -0.0177  0.1047
    1W        W54638   8.009  16.341   7.098  0.4029 -0.0379 -0.0590
    1W        W54639  29.436  10.831   0.175 -0.0222  0.0398 -0.1356
    1W        W54640  12.299  15.373   6.737  0.1680  0.1312  0.3185
    1W        W54641   6.493  13.851   5.649 -0.0632 -0.1927  0.0685
    1W        W54642  25.309  10.191   0.658 -0.2380 -0.1849  0.0054
    1W        W54643  26.113   6.663   7.591  0.2377 -0.0257  0.0426
    1W        W54644   0.227  15.713   6.916 -0.1889 -0.0152 -0.1100
    1W        W54645  20.349  22.578   8.253  0.3346  0.1027 -0.2085
    1W        W54646  14.297  14.048   9.449 -0.0483  0.1004 -0.1747
    1W        W54647   5.091  15.462   1.578 -0.0355 -0.1246  0.0253
    1W        W54648  21.933  20.463   1.675 -0.1138 -0.0779 -0.0881
    1W        W54649  17.782  13.680   8.412  0.0970  0.2149 -0.0216
    1W        W54650  27.195   2.472   7.676 -0.1454 -0.1296 -0.0942
    1W        W54651  12.872   7.933   0.101  0.1841 -0.1356 -0.0343
    1W        W54652   6.259   4.401   8.226  0.1622 -0.0242  0.0421
    1W        W54653  11.417  22.662   6.700  0.1188  0.3216  0.3173
    1W        W54654  23.918  14.123   8.192 -0.0350 -0.0413 -0.0052
    1W        W54655  11.912  20.840   7.425  0.1488 -0.0971 -0.1652
    1W        W54656  15.816  21.398   9.045 -0.2171  0.0988  0.1364
    1W        W54657  18.651   0.133   2.598 -0.2493  0.0011  0.4676
    1W        W54658  16.773  18.080   8.826 -0.1294  0.3251  0.1941
    1W        W54659   5.145  27.394   7.096 -0.0735 -0.0937 -0.1198
    1W        W54660  20.543  27.130   0.078  0.2887 -0.1895  0.1171
    1W        W54661  26.820  12.876   1.475 -0.0575  0.1683 -0.1543
    1W        W54662  15.590  19.795   6.608  0.0007 -0.1777 -0.1243
    1W        W54663   7.712  14.621   7.167 -0.0659  0.1588 -0.0436
    1W        W54664  20.928  18.334   3.828  0.1166  0.0662 -0.0060
    1W        W54665  21.867  29.223   9.616  0.1676 -0.3273 -0.1935
    1W        W54666   0.156  18.455   3.008  0.1512  0.0289 -0.1795
    1W        W54667   2.336  21.008   8.988  0.1065  0.3589  0.4531
    1W        W54668  26.866  14.983   1.165 -0.0166  0.1215 -0.0740
    1W        W54669  12.605  12.853   0.458 -0.2076  0.1611  0.0634
    1W        W54670   8.400  13.240   8.997 -0.0456  0.1264  0.3707
    1W        W54671  15.185  13.524   0.777 -0.2984  0.2656  0.0007
    1W        W54672  13.087  12.068   8.243 -0.0874  0.0941  0.0665
    1W        W54673  22.533  27.356   3.086  0.1262  0.2037 -0.2692
    1W        W54674  14.626  12.880   2.064  0.0159 -0.0046  0.0142
    1W        W54675  19.825  19.608   2.940 -0.1541 -0.1046 -0.0131
    1W        W54676   6.261   5.661   8.897  0.0408  0.0317 -0.3154
    1W        W54677  15.071  26.423   1.914  0.2781 -0.0847 -0.3076
    1W        W54678  27.295  24.000   2.482  0.0094 -0.0610 -0.0804
    1W        W54679  19.796   6.200   7.739 -0.0405  0.5238 -0.0670
    1W        W54680  28.270  20.930   8.988  0.1198  0.0955 -0.1884
    1W        W54681   1.147   3.303   0.573 -0.0611 -0.3550 -0.1372
    1W        W54682   4.944  23.224   9.436 -0.1357  0.0055  0.1589
    1W        W54683   7.569  16.043   8.912  0.1404  0.0787 -0.0302
    1W        W54684  17.811  13.745   2.527  0.0088  0.0067  0.2140
    1W        W54685  25.561  16.743   1.856  0.0709  0.1349 -0.0226
    1W        W54686  23.049  16.467   8.451  0.0671  0.1899  0.2796
    1W        W54687  17.102  24.920   1.195  0.0324 -0.0791 -0.0244
    1W        W54688  13.991  15.927   6.891 -0.2226 -0.0134 -0.2367
    1W        W54689  16.310  15.961   9.241 -0.1229  0.1662  0.0693
    1W        W54690   8.440  11.151   7.474 -0.0502 -0.0294 -0.0052
    1W        W54691  15.725  28.065   9.574 -0.1462  0.0788 -0.0531
    1W        W54692  26.880  14.320   7.851  0.1085 -0.1078 -0.1559
    1W        W54693  10.731  11.355   2.303  0.0050 -0.2469 -0.2362
    1W        W54694  19.628  17.401   2.102  0.1247 -0.0055 -0.1316
    1W        W54695   9.342   2.898   0.801  0.2726  0.2675 -0.1560
    1W        W54696  19.283  19.998   1.965 -0.1318  0.2619  0.3872
    1W        W54697  13.461  26.371   6.617  0.1846  0.1412 -0.1061
    1W        W54698  16.366  21.802   0.284  0.1094  0.1722  0.1422
    1W        W54699  18.499  15.866   3.345  0.2205  0.3542 -0.0138
    1W        W54700  22.747  19.130   1.827 -0.1237 -0.2547 -0.1570
    1W        W54701  22.231  24.139   7.836 -0.0730  0.1547  0.1688
    1W        W54702   6.256   8.709   1.043 -0.1184  0.2197 -0.0232
    1W        W54703  18.997  26.870   0.908  0.0899  0.1552 -0.0845
    1W        W54704  21.960   9.491   7.184  0.1120 -0.0812 -0.1765
    1W        W54705   9.553   8.048   7.257 -0.0145  0.1757  0.3683
    1W        W54706   1.995   6.719   1.217  0.1577 -0.1177  0.3596
    1W        W54707  18.609  17.499   9.552  0.1729 -0.3067 -0.2768
    1W        W54708  11.838  26.674   2.207 -0.1980  0.2299 -0.1157
    1W        W54709  14.783  28.602   8.752  0.0448 -0.0179  0.0028
    1W        W54710  26.787  10.769   0.621  0.0504  0.0124  0.2844
    1W        W54711   2.779  25.066   2.658 -0.0952 -0.1968  0.1333
    1W        W54712   1.519  16.844   6.709  0.1078  0.2240 -0.1838
    1W        W54713  26.509   6.367   9.400 -0.0738  0.0443 -0.0430
    1W        W54714  20.078   1.529   9.569  0.2160  0.1217 -0.0605
    1W        W54715  13.714  16.162   8.253  0.1308 -0.1333  0.1290
    1W        W54716  10.313  12.409   7.244  0.0804 -0.1322 -0.1092
    1W        W54717  25.652   1.586   1.055  0.0165 -0.0211 -0.0939
    1W        W54718  18.489  27.212   0.139  0.2353 -0.0408  0.1486
    1W        W54719  24.289   8.346   1.584  0.0476  0.2825 -0.0867
    1W        W54720  17.462  18.262   0.234  0.0335 -0.2345 -0.3662
    1W        W54721   6.589   0.130   0.614 -0.2212  0.2973  0.1544
    1W        W54722  15.349   3.575   8.425 -0.1288 -0.2755 -0.2054
    1W        W54723  19.689   9.895   1.491  0.2543 -0.0627  0.0931
    1W        W54724  14.642   6.280   1.334 -0.0908 -0.3390 -0.1356
    1W        W54725  16.165  14.213   0.871 -0.5764  0.1138  0.1401
    1W        W54726   5.843  25.950   0.690 -0.0105 -0.2481 -0.0186
    1W        W54727  21.483   8.709   1.548  0.0917  0.1873  0.1009
    1W        W54728  25.684  29.232   1.269  0.4415  0.1335  0.0634
    1W        W54729  23.615  20.259   2.239 -0.2610 -0.1589 -0.2762
    1W        W54730  10.564  16.543   1.870 -0.2057 -0.0508 -0.0099
    1W        W54731  11.874  18.592   5.778  0.1745  0.1212  0.1215
    1W        W54732  14.100  22.931   9.172  0.0454 -0.0835 -0.1404
    1W        W54733   5.219  24.001   1.971 -0.0892 -0.1559  0.3782
    1W        W54734  27.729  13.203   7.544 -0.1150 -0.2097 -0.2856
    1W        W54735  20.743  21.682   2.906  0.1012  0.1511 -0.1986
    1W        W54736   3.743  18.009   0.128 -0.1292  0.1521  0.0793
    1W        W54737   0.432  26.918   7.619 -0.2086 -0.1510 -0.0874
    1W        W54738  16.193   0.892   2.040  0.3420  0.0129 -0.0387
    1W        W54739   5.195  17.255   6.381  0.0693  0.1805 -0.1453
    1W        W54740  10.434  19.042   6.889  0.1241 -0.2170  0.1889
    1W        W54741   3.291  25.411   1.564  0.0122  0.2358  0.1729
    1W        W54742  23.102   1.764   0.204 -0.2716  0.1640  0.0472
    1W        W54743  21.008  23.205   3.210 -0.0404 -0.1856  0.1743
    1W        W54744   4.000  26.962   0.844  0.0927  0.0571 -0.1163
    1W        W54745   7.839  17.453   2.372  0.0198 -0.0940 -0.0440
    1W        W54746  27.893   2.957   0.013 -0.1113 -0.2832 -0.0379
    1W        W54747   0.258  10.792   7.152 -0.0510  0.1442  0.5838
    1W        W54748   8.218   8.278   5.953 -0.0637  0.2543 -0.0712
    1W        W54749  14.784   2.448   9.005 -0.1163  0.1534  0.0494
    1W        W54750  24.395   9.609   8.960  0.0885  0.0859  0.0366
    1W        W54751  22.387  22.874   1.592  0.0603  0.2808 -0.1898
    1W        W54752  15.866  21.236   0.829  0.1975 -0.0348  0.0179
    1W        W54753   9.039   7.557   5.981 -0.0631  0.2953  0.1090
    1W        W54754   3.639  11.840   0.937 -0.0350  0.0236 -0.3867
    1W        W54755  28.635   4.085   1.962  0.2946  0.1124  0.0215
    1W        W54756  25.983  26.582   7.375  0.3448  0.0386 -0.0129
    1W        W54757  26.485  27.728   9.498 -0.0018  0.3435 -0.1627
    1W        W54758   9.122  21.078   1.372  0.0352 -0.1485 -0.3719
    1W        W54759   7.945   3.374   6.667  0.2287  0.0431 -0.0536
    1W        W54760   0.537  19.368   1.602 -0.1587  0.1538  0.0424
    1W        W54761   3.238  21.640   2.467  0.0164 -0.1519 -0.1245
    1W        W54762  17.207  24.652   8.916 -0.1911  0.0826 -0.3228
    1W        W54763  11.484  17.822   2.621 -0.0793  0.1568 -0.2691
    1W        W54764   6.592   3.330   8.803  0.1630  0.2568 -0.2611
    1W        W54765  16.078  17.077   0.955  0.2396  0.0622 -0.3706
    1W        W54766  26.556   3.091   7.499  0.1089 -0.1354  0.1687
    1W        W54767   7.064   4.592   8.605 -0.0513 -0.2205  0.0177
    1W        W54768  10.151  25.237   0.587 -0.1311 -0.0362  0.0576
    1W        W54769  11.456  20.540   6.260 -0.2539 -0.0556  0.1275
    1W        W54770   2.112  27.706   1.095  0.0032  0.3472  0.0706
    1W        W54771  12.200  14.402   8.112 -0.0234  0.0128  0.2316
    1W        W54772  11.836  27.911   2.009  0.0939 -0.2487  0.0159
    1W        W54773  18.661   9.260   2.287  0.0724 -0.0138 -0.1585
    1W        W54774  20.601   0.282   2.035 -0.2306 -0.0939  0.3908
    1W        W54775  26.345  20.763   7.670 -0.0534 -0.0545 -0.3467
    1W        W54776  16.288  14.370   8.945 -0.2235 -0.0801 -0.2888
    1W        W54777  19.926  19.155   9.002 -0.2005 -0.1529 -0.1549
    1W        W54778  10.861  29.623   8.871  0.0694 -0.1598 -0.0029
    1W        W54779   2.306  14.793   7.389 -0.1102  0.0069 -0.1691
    1W        W54780  10.881  13.240   2.967 -0.0178  0.0642  0.2494
    1W        W54781  14.582  26.298   1.120 -0.0128 -0.0578 -0.1233
    1W        W54782   5.489  18.048   1.536 -0.2312  0.3230  0.0285
    1W        W54783   7.998   8.287   6.436 -0.2052  0.1051  0.0174
    1W        W54784   1.028  29.165   0.926  0.4684  0.0321  0.1475
    1W        W54785  21.982  21.330   2.624  0.0539 -0.0889 -0.0938
    1W        W54786  10.434  18.748   6.452  0.0674  0.1385  0.0899
    1W        W54787  25.159  27.281   0.724 -0.0214  0.0211 -0.1935
    1W        W54788  15.961   1.637   0.278 -0.2584  0.1609 -0.0398
    1W        W54789  19.319   7.584   0.421 -0.4174 -0.0273 -0.1531
    1W        W54790  14.232  13.259   1.997 -0.3543  0.1023  0.0091
    1W        W54791   8.715   6.970   6.687  0.2826  0.0742 -0.0532
    1W        W54792  21.106  23.002   0.223 -0.0304 -0.0928 -0.0959
    1W        W54793  27.968  12.882   1.164 -0.4020 -0.1585  0.1281
    1W        W54794   5.161   9.384   1.099 -0.3114  0.2160  0.1054
    1W        W54795   7.900   6.860   6.557 -0.1612 -0.1303  0.3449
    1W        W54796  15.602  24.155   9.227  0.0151  0.0009 -0.0347
    1W        W54797  27.631  19.841   1.459 -0.1508 -0.0893  0.0214
    1W        W54798  17.956   2.138   6.874  0.1563  0.1038  0.0429
    1W        W54799   1.987  24.331   1.714  0.2500 -0.1067 -0.0626
    1W        W54800  26.193   4.431   7.447 -0.0408  0.0339 -0.0437
    1W        W54801  20.675  13.691   1.001  0.3009  0.2795  0.0334
    1W        W54802  20.478   4.171   1.029 -0.1276 -0.0843 -0.0898
    1W        W54803  16.973   6.137   9.471 -0.3423  0.3011  0.3345
    1W        W54804   0.037  12.341   8.143  0.0814 -0.0089 -0.2249
    1W        W54805  15.965  29.318   7.199 -0.3769  0.1668  0.1463
    1W        W54806  13.134  22.776   7.895  0.5717 -0.2110  0.1325
    1W        W54807   2.328  14.030   0.039 -0.0076  0.2303 -0.0105
    1W        W54808   8.323  13.583   9.431 -0.1525  0.0783  0.1901
    1W        W54809   8.733  10.024   7.384  0.0531  0.0454 -0.2264
    1W        W54810   1.790  23.650   7.606 -0.0396 -0.3146 -0.0206
    1W        W54811  24.269  22.325   2.415 -0.2353 -0.0675  0.2283
    1W        W54812  18.009  10.473   9.142 -0.0547 -0.2239  0.0008
    1W        W54813   5.304  23.361   2.000 -0.0335  0.0907 -0.0811
    1W        W54814  23.798   6.399   1.444 -0.0171  0.0888 -0.0157
    1W        W54815   8.166   1.105   8.708 -0.1456 -0.1193  0.2073
    1W        W54816  28.399  19.828   3.079  0.0021  0.0096 -0.1516
    1W        W54817  27.142  13.122   0.558  0.2265  0.0073  0.0691
    1W        W54818  13.850   0.850   8.301  0.0917  0.1328 -0.1210
    1W        W54819  29.322   1.974   6.743 -0.0638  0.2305 -0.3226
    1W        W54820  18.908   7.570   0.069 -0.0795  0.1334  0.3311
    1W        W54821  11.625  21.784   7.284 -0.1302  0.0111 -0.1565
    1W        W54822  13.446  15.047   9.356  0.2498  0.0915  0.3356
    1W        W54823  16.163  12.559   7.344 -0.3217  0.2077 -0.4677
    1W        W54824   2.119  28.456   1.598  0.1602 -0.0382 -0.1568
    1W        W54825  13.716  24.181   6.700 -0.0268  0.0759 -0.0376
    1W        W54826  14.370  14.081   7.078 -0.2197 -0.1333 -0.0960
    1W        W54827   2.462  22.091   2.299 -0.1876 -0.2637 -0.2284
    1W        W54828  10.382   6.137   8.141 -0.0529  0.2333 -0.2695
    1W        W54829  26.431   0.404   1.508 -0.0324  0.0448 -0.1094
    1W        W54830   3.426  24.544   0.404 -0.0899  0.0044  0.0728
    1W        W54831  18.862   6.550   1.918  0.2588 -0.2464  0.1028
    1W        W54832   5.100  13.299   7.872 -0.0005 -0.0231 -0.3319
    1W        W54833  20.091   1.674   0.380 -0.3025  0.0195  0.3802
    1W        W54834   4.069  25.861   1.274 -0.0314 -0.0108  0.2527
    1W        W54835   7.999  25.836   6.578  0.3578  0.0762  0.1489
    1W        W54836  13.821   5.481   9.198 -0.1448  0.2900 -0.1551
    1W        W54837   9.947  11.349   1.080 -0.1876 -0.1661  0.1898
    1W        W54838   6.861  15.542   7.581  0.2306  0.1831 -0.2288
    1W        W54839  16.652  15.309   0.837 -0.0961 -0.0093  0.0130
    1W        W54840  16.744  13.919   1.207  0.0202 -0.2578 -0.0726
    1W        W54841  18.665  18.266   8.838 -0.0847  0.1466 -0.0765
    1W        W54842  18.559  27.931   1.420  0.2805  0.0420  0.0828
    1W        W54843   8.205  23.292   2.575  0.1749  0.0478 -0.0197
    1W        W54844  26.554  12.592   2.281  0.0794  0.0312  0.0015
    1W        W54845   5.335  27.445   6.459 -0.0278  0.0501  0.2249
    1W        W54846  16.622  14.190   9.288 -0.2292 -0.0480 -0.1773
    1W        W54847   0.673  11.973   6.557 -0.1930 -0.4352  0.1411
    1W        W54848  27.146  29.123   1.354  0.3323 -0.0053  0.0572
    1W        W54849  27.167   1.954   1.098 -0.2671 -0.1201  0.1139
    1W        W54850  28.424  29.577   1.027  0.0808  0.3180 -0.2441
    1W        W54851  10.581  22.632   6.059  0.2602 -0.2458  0.0038
    1W        W54852   9.775  13.739   2.955 -0.0516 -0.1980 -0.2001
    1W        W54853  13.293  11.104   8.162 -0.2039 -0.0128  0.1061
    1W        W54854  26.329  14.549   8.028 -0.0901 -0.0786  0.0906
    1W        W54855   2.045  20.439   1.884 -0.4729 -0.2040 -0.1563
    1W        W54856   0.139   4.621   0.208  0.0834  0.1670  0.0424
    1W        W54857  27.848   3.215   1.152 -0.0481 -0.0012  0.0154
    1W        W54858  17.580  13.534   1.024  0.2764  0.2491 -0.2819
    1W        W54859   3.027  24.493   9.061 -0.0626  0.1545 -0.0842
    1W        W54860   8.246  23.810   8.735 -0.4990  0.1598 -0.1881
    1W        W54861  14.556  18.313   1.581 -0.2420 -0.0851  0.2784
    1W        W54862  21.862  15.104   0.343  0.0551 -0.2027 -0.2924
    1W        W54863  11.434   5.083   7.199  0.2950 -0.0165  0.0757
    1W        W54864  16.593  26.758   6.848  0.0319 -0.0868 -0.1269
    1W        W54865   2.188  17.985   9.613 -0.1987 -0.2618  0.1401
    1W        W54866  23.663  10.199   8.108  0.0002 -0.2428  0.0855
    1W        W54867   4.145  16.075   6.947 -0.1108  0.0339  0.2233
    1W        W54868   8.323   4.434   6.920 -0.2885 -0.0701 -0.0360
    1W        W54869  14.778   1.271   8.588 -0.2846 -0.1919 -0.0062
    1W        W54870  15.359   2.922   0.706 -0.0144  0.2758 -0.2217
    1W        W54871  22.655  23.495   0.429 -0.4210 -0.0062  0.1190
    1W        W54872   1.035  19.952   3.152  0.0398  0.2284  0.0590
    1W        W54873  27.667  12.639   8.512  0.1302 -0.0792  0.0668
    1W        W54874   2.754  19.868   6.852 -0.2280  0.0574 -0.1416
    1W        W54875  14.003   2.833   6.126 -0.2605  0.1171  0.0205
    1W        W54876  14.098  23.773   7.906 -0.1844  0.2735 -0.1320
    1W        W54877  18.712   0.829   1.332  0.0093 -0.1806  0.0102
    1W        W54878  26.126  20.825   2.940  0.3838 -0.2782 -0.2447
    1W        W54879  18.248  13.520   8.505 -0.1985  0.2363  0.1791
    1W        W54880   2.803   4.132   2.189 -0.0960 -0.1459  0.2993
    1W        W54881   4.521   9.668   1.763 -0.6853  0.0295  0.2705
    1W        W54882  22.142  21.807   1.496  0.0225 -0.1465  0.0600
    1W        W54883  15.430   0.735   7.317  0.0887  0.1808  0.1766
    1W        W54884   4.119   9.790   0.998  0.2659  0.1224  0.0848
    1W        W54885  24.735  20.025   1.499 -0.1995 -0.0370 -0.0996
    1W        W54886  11.774  27.826   7.358  0.2059  0.3261 -0.2022
    1W        W54887  10.412   1.226   8.969  0.2521 -0.0117  0.1496
    1W        W54888   4.707   6.035   0.310  0.0116 -0.1771 -0.2773
    1W        W54889  10.688  21.723   7.459  0.3524 -0.1915 -0.1472
    1W        W54890  12.692  24.886   8.208  0.0866 -0.0254  0.1298
    1W        W54891   8.183   2.260   9.581 -0.0957  0.1049  0.0520
    1W        W54892  28.860  11.519   9.354  0.2496  0.2185 -0.4780
    1W        W54893   5.753   4.606   7.317  0.0015  0.0713  0.0507
    1W        W54894  18.163   9.600   9.319  0.1349 -0.0447  0.2474
    1W        W54895  13.296   5.314   9.365  0.1075  0.2242 -0.1573
    1W        W54896  17.002  12.890   0.881 -0.1341  0.0870 -0.2125
    1W        W54897  14.412  29.618   2.360 -0.1711  0.0237  0.2022
    1W        W54898  25.335  13.460   8.228  0.3607 -0.2665 -0.3039
    1W        W54899  15.321  16.508   8.643  0.0139  0.3733 -0.2431
    1W        W54900   7.565  24.692   7.453 -0.1699  0.0980  0.0179
    1W        W54901  25.983  21.535   0.264  0.1326  0.2397 -0.2252
    1W        W54902   3.573   5.204   9.061 -0.0751 -0.0382  0.3996
    1W        W54903  11.261   0.166   1.812 -0.0525  0.1470  0.1594
    1W        W54904  18.357  11.650   1.078  0.1937 -0.0363 -0.1062
    1W        W54905  27.569  22.325   3.179 -0.0244 -0.1838 -0.4175
    1W        W54906  10.263   0.606   7.327 -0.1424  0.2884 -0.3033
    1W        W54907  16.808   0.776   7.054 -0.2490  0.3350 -0.0264
    1W        W54908  28.976  10.748   1.268 -0.1268  0.0653 -0.0802
    1W        W54909  28.528   5.931   0.850  0.2052 -0.1405  0.2703
    1W        W54910   3.038  16.395   0.563 -0.1127 -0.2202 -0.0026
    1W        W54911  15.050  10.868   7.083  0.0838  0.2484 -0.0097
    1W        W54912  24.666  17.182   7.084  0.3670 -0.1601  0.1089
    1W        W54913   9.913   7.705   2.727 -0.3448 -0.0004  0.1701
    1W        W54914  17.338  19.809   7.269  0.1441  0.1723  0.2645
    1W        W54915  26.222  19.188   2.311  0.0646  0.2304  0.0821
    1W        W54916   5.803  28.317   2.553 -0.0446  0.0283  0.1816
    1W        W54917  26.171   0.493   8.867  0.0186 -0.1623 -0.1519
    1W        W54918  25.722  17.705   1.557 -0.0915 -0.2942  0.1729
    1W        W54919   3.504  14.225   0.131  0.1576 -0.2907 -0.3047
    1W        W54920  20.539  22.825   3.719 -0.0480 -0.2762 -0.0778
    1W        W54921  18.933  20.875   3.023  0.1378 -0.0024 -0.1031
    1W        W54922  23.172   0.825   0.026 -0.2303 -0.2017  0.0860
    1W        W54923  29.582   1.991   1.172 -0.0242 -0.1388  0.0630
    1W        W54924  20.096  20.102   2.200  0.3692 -0.1799  0.0111
    1W        W54925  21.653  15.599   0.176 -0.1161 -0.0421 -0.2167
    1W        W54926  11.776  12.682   8.551 -0.3741  0.4074  0.0211
    1W        W54927  14.549  28.437   1.772  0.1313  0.0893 -0.3052
    1W        W54928   8.677  16.942   0.147 -0.2318  0.0515  0.1771
    1W        W54929  19.757  14.062   0.884  0.1138 -0.0750  0.0440
    1W        W54930  19.568   4.245   2.143  0.2503 -0.2098 -0.0306
    1W        W54931   2.399  17.591   2.160 -0.2850  0.0821  0.0744
    1W        W54932  17.435   0.787   9.311  0.1516  0.0530 -0.6016
    1W        W54933   5.693  21.297   7.489  0.2929 -0.0050 -0.2901
    1W        W54934   9.936  15.848   1.966  0.4259 -0.1519  0.2727
    1W        W54935  23.344   3.402   7.909 -0.2629  0.1637 -0.2080
    1W        W54936   0.502  16.630   1.610 -0.1310 -0.2255 -0.0779
    1W        W54937  19.627   2.429   8.211 -0.1005  0.1841 -0.3190
    1W        W54938  13.826   6.259   6.447  0.1970 -0.1339 -0.0809
    1W        W54939  10.903  11.841   8.067  0.0893  0.1213 -0.0086
    1W        W54940   6.768  25.105   1.693  0.1227 -0.0148 -0.3436
    1W        W54941   9.939  15.307   9.118 -0.0543 -0.5004 -0.0393
    1W        W54942  20.836   4.625   9.172 -0.3302  0.1519 -0.2293
    1W        W54943  23.192  10.032   9.005  0.1341  0.4093 -0.0746
    1W        W54944   3.441   9.232   7.883  0.2063  0.1210 -0.2670
    1W        W54945  19.621  27.326   9.145 -0.3271 -0.0408  0.2589
    1W        W54946  21.780  23.549   9.363 -0.1009 -0.1260 -0.0652
    1W        W54947  27.172   5.681   8.903 -0.1962  0.1514 -0.0770
    1W        W54948  16.699   4.104   9.167 -0.2772 -0.2520  0.0388
    1W        W54949   2.526  23.799   8.491 -0.1253  0.2043 -0.4425
    1W        W54950  26.583  16.530   1.208  0.4620  0.1622  0.2850
    1W        W54951   9.640  28.140   1.887  0.0748  0.0794 -0.2118
    1W        W54952   4.466  12.837   7.035 -0.0547  0.0212 -0.1110
    1W        W54953   3.786   5.846   6.594 -0.1768  0.3307 -0.3376
    1W        W54954  13.247   5.315   0.963  0.2165 -0.1806 -0.2842
    1W        W54955  14.839   1.443   2.723  0.0482 -0.0566 -0.2558
    1W        W54956   5.293  28.829   9.371 -0.1122  0.2744  0.1941
    1W        W54957  12.291  11.760   2.038 -0.4898  0.2945  0.1813
    1W        W54958  19.955   8.367   1.829  0.2625  0.5677  0.0613
    1W        W54959  22.965  17.334   8.911 -0.2075 -0.1843 -0.0249
    1W        W54960   8.811  28.001   7.683  0.0052 -0.0871  0.1368
    1W        W54961  10.437  20.691   2.653  0.1926  0.1299 -0.6012
    1W        W54962  19.195  23.208   8.479 -0.0478  0.1456  0.2192
    1W        W54963  18.578  18.062   7.562 -0.0221  0.0965 -0.0056
    1W        W54964   4.052  15.500   9.009 -0.1452  0.1111 -0.2036
    1W        W54965  18.308  10.245   2.066  0.1169  0.0745 -0.0146
    1W        W54966  21.050   3.461   9.110  0.3063 -0.0721  0.0884
    1W        W54967   8.389   0.007   2.130  0.0315 -0.1102 -0.0186
    1W        W54968   4.024  20.321   0.074  0.0415  0.1850  0.1226
    1W        W54969  14.351  25.117   0.796 -0.0085 -0.1336  0.0540
    1W        W54970   5.771  25.360   0.862  0.0957  0.3386 -0.0972
    1W        W54971  20.472  24.928   8.482  0.0819 -0.1926 -0.0259
    1W        W54972  28.142  26.139   2.098  0.2415  0.0333 -0.1089
    1W        W54973  15.665  29.038   3.028  0.1092  0.1323  0.2092
    1W        W54974  17.318  17.138   8.951 -0.0504 -0.2040 -0.0553
    1W        W54975  12.263  22.915   8.022  0.4565 -0.1217 -0.1832
    1W        W54976  25.756  26.039   1.477 -0.1310 -0.1521 -0.2317
    1W        W54977  27.567  12.425   1.863  0.1375 -0.1676 -0.0550
    1W        W54978  13.854  27.446   0.994  0.1865  0.2266 -0.1533
    1W        W54979   0.092   3.652   9.055  0.2125 -0.1974 -0.0402
    1W        W54980  24.182  13.815   9.552 -0.2801  0.1587 -0.0634
    1W        W54981   1.753  28.007   0.717 -0.2268 -0.2458 -0.1526
    1W        W54982   1.913  16.326   0.974 -0.0944  0.2509  0.3014
    1W        W54983  17.049  11.334   1.929  0.2239 -0.1252 -0.1164
    1W        W54984  19.511  10.355   2.506  0.1951 -0.1810  0.2434
    1W        W54985  17.860   2.620   6.941 -0.3329 -0.0081 -0.3590
    1W        W54986  16.407   6.052   0.794  0.0093 -0.0135  0.0908
    1W        W54987   8.561   1.782   9.067  0.2776 -0.0675  0.1859
    1W        W54988  27.032  27.947   3.771 -0.1359  0.2407 -0.0076
    1W        W54989   5.368  13.808   8.060  0.0289  0.1656  0.3757
    1W        W54990   9.846  18.297   0.796 -0.2090  0.2816 -0.0627
    1W        W54991  15.610  14.287   2.340  0.1244 -0.1912  0.1693
    1W        W54992  26.071   4.633   1.694  0.1865 -0.1466  0.1858
    1W        W54993   7.051  13.228   7.473 -0.1921  0.4128  0.1118
    1W        W54994  14.951  24.399   8.801 -0.1037 -0.2687  0.0139
    1W        W54995   9.712   6.859   0.460 -0.1013 -0.0079 -0.0124
    1W        W54996   9.839  18.883   9.072  0.3343 -0.1567 -0.0586
    1W        W54997  28.649   2.422   6.596  0.2314 -0.1488 -0.1083
    1W        W54998   1.895   9.823   6.343 -0.1499 -0.4187 -0.1420
    1W        W54999   1.023  11.341   8.100 -0.1688 -0.4103 -0.2571
    1W        W55000  10.937   7.524   0.862 -0.1491 -0.2130  0.1918
    1W        W55001  28.516  15.006   1.626  0.0777 -0.0601 -0.0914
    1W        W55002  14.137  22.475   7.118  0.0986  0.1432  0.1886
    1W        W55003  25.591  19.387   0.654 -0.0208 -0.2012 -0.0295
    1W        W55004  23.032   7.651   8.801 -0.1492 -0.1254 -0.2099
    1W        W55005   7.114  11.735   8.744  0.0278  0.0889 -0.0649
    1W        W55006   3.084  14.049   8.591  0.4000  0.2819  0.1937
    1W        W55007  22.813  11.362   8.245  0.3499 -0.1359  0.2705
    1W        W55008  28.643  21.565   0.703 -0.0825 -0.1991  0.1778
    1W        W55009  22.903  15.872   2.285 -0.1844 -0.2937  0.2779
    1W        W55010  20.218  14.823   9.073 -0.1617  0.0094  0.0808
    1W        W55011  22.511  13.054   7.645  0.0890 -0.2295 -0.0595
    1W        W55012  22.077  17.725   2.078 -0.1006  0.1227  0.3925
    1W        W55013  16.097  26.393   1.875 -0.4164 -0.3442  0.1561
    1W        W55014   7.359  10.780   8.813 -0.0832  0.0840 -0.1221
    1W        W55015   6.074   1.762   7.581 -0.2622 -0.1792 -0.2116
    1W        W55016  23.305   8.737   9.287 -0.1310 -0.4129 -0.0854
    1W        W55017  21.446  15.068   1.608  0.2356  0.1417 -0.3321
    1W        W55018  19.717  14.652   8.410  0.0949  0.0777  0.2045
    1W        W55019  16.627   3.034   7.219 -0.3992 -0.2882 -0.1112
    1W        W55020  27.014   3.021   1.810  0.1375  0.0078 -0.1400
    1W        W55021  11.048  16.421   1.835 -0.1760 -0.0803 -0.0418
    1W        W55022  20.089   7.596   6.735  0.1776 -0.0422 -0.4621
    1W        W55023  16.298   5.263   6.991 -0.3698 -0.0055  0.2825
    1W        W55024  29.338  14.008   0.606  0.3736  0.2515 -0.0131
    1W        W55025  26.259  22.307   0.219 -0.1256  0.2182  0.3866
    1W        W55026  25.595  24.963   9.427  0.1677  0.1091 -0.3688
    1W        W55027  16.298  22.482   1.110 -0.0750  0.0315  0.0063
    1W        W55028  18.959  26.204   1.311 -0.0544 -0.0177 -0.1992
    1W        W55029  21.133  14.549   0.945  0.4496 -0.2605 -0.0491
    1W        W55030   4.901  17.999   2.286 -0.1256 -0.0509 -0.0795
    1W        W55031   8.633   7.576   0.864  0.0658 -0.0466 -0.2225
    1W        W55032  15.009  12.451   6.374  0.1221  0.0425 -0.2428
    1W        W55033   0.643   1.875   6.017 -0.0100  0.1328  0.0715
    1W        W55034  24.470  23.624   3.591 -0.0863  0.1072 -0.2480
    1W        W55035  23.927   4.964   0.944 -0.2201  0.2279 -0.1753
    1W        W55036  25.692   1.956   7.458 -0.0211 -0.4265 -0.2309
    1W        W55037  25.256   9.222   0.908  0.0894  0.0454 -0.2494
    1W        W55038   8.899  20.256   1.191 -0.2160 -0.0147 -0.0517
    1W        W55039   8.809   3.520   6.856 -0.1200 -0.2010 -0.1832
    1W        W55040  22.921   1.205   8.701 -0.0857  0.1158  0.0786
    1W        W55041  29.150  22.285   2.894  0.1475  0.2409  0.1083
    1W        W55042   7.421  10.733   9.369  0.0908  0.1558  0.1537
    1W        W55043  13.796  26.905   1.130 -0.2365 -0.2737  0.4814
    1W        W55044   5.162  23.307   3.137  0.2452 -0.0249  0.1221
    1W        W55045  17.178  27.172   0.530  0.1012 -0.2354 -0.0778
    1W        W55046  11.517   2.505   1.932  0.1690  0.1630  0.0736
    1W        W55047   1.346  17.659   1.779  0.1204 -0.0626 -0.3664
    1W        W55048   5.071  16.025   7.518 -0.1957  0.1025 -0.0724
    1W        W55049  19.601   2.002   0.448 -0.0854 -0.2179 -0.1367
    1W        W55050  16.653   0.663   1.109 -0.0648  0.0671 -0.0932
    1W        W55051  20.373  11.703   1.562 -0.0605  0.0063  0.0002
    1W        W55052  26.043   0.610   0.282 -0.0602  0.4504  0.0246
    1W        W55053   4.191   7.775   5.572 -0.0475 -0.3384 -0.2047
    1W        W55054  14.832   9.228   2.897  0.0070  0.1223 -0.0656
    1W        W55055  25.583  18.505   3.072 -0.0878 -0.0538 -0.0602
    1W        W55056   9.585  25.248   0.202 -0.0404 -0.1108 -0.1594
    1W        W55057   6.446  14.948   6.214  0.1441  0.0943  0.0100
    1W        W55058  15.054   7.294   1.494  0.0932  0.0653  0.1066
    1W        W55059   8.308  11.452   2.699 -0.1498  0.0062 -0.1315
    1W        W55060  23.408   0.548   0.995  0.0724 -0.1595 -0.3204
    1W        W55061   1.788   0.625   0.816  0.2752  0.1401  0.0037
    1W        W55062   2.501  18.237   1.550  0.1138 -0.0288  0.0412
    1W        W55063  24.440  15.113   8.589  0.3685 -0.1198  0.1365
    1W        W55064  13.980  25.972   1.152 -0.1554 -0.1543 -0.4044
    1W        W55065  17.123  18.077   1.392  0.6407  0.1924  0.0018
    1W        W55066   5.813   6.906   0.865 -0.2186  0.1720  0.1636
    1W        W55067  24.960   8.498   2.109 -0.0794 -0.2823 -0.0728
    1W        W55068   9.805   2.456   6.009  0.0141  0.2710 -0.3856
    1W        W55069  14.081   5.160   0.858 -0.2218 -0.0714 -0.0238
    1W        W55070   6.306  20.158   7.847  0.0490  0.1228 -0.2975
    1W        W55071  21.330  22.570   9.563  0.2198 -0.0462  0.0586
    1W        W55072  10.020   8.804   0.774 -0.0489  0.0802 -0.3154
    1W        W55073  27.145  21.310   8.041  0.3337 -0.1509  0.0424
    1W        W55074  21.530  18.884   1.580  0.1225  0.0129 -0.2568
    1W        W55075   7.601   1.547   1.079  0.0744  0.1925 -0.2895
    1W        W55076   9.347  15.712   0.097 -0.1584 -0.0360 -0.1833
    1W        W55077  22.395   0.355   6.855 -0.4595  0.3137 -0.0798
    1W        W55078   0.529   0.524   6.848 -0.0182  0.0813 -0.0359
    1W        W55079  23.724  23.573   9.103  0.0324 -0.1122  0.1238
    1W        W55080  17.906  13.378   0.595  0.1375 -0.1133  0.0753
    1W        W55081  19.076  24.215   0.391  0.0639  0.1639  0.0827
    1W        W55082  27.160  19.330   8.507  0.0848 -0.2627  0.2403
    1W        W55083  27.982  17.890   0.366  0.1214  0.1354 -0.1090
    1W        W55084   8.140  27.139   2.282 -0.2493  0.0396  0.0025
    1W        W55085  17.015  13.077   2.059  0.0550  0.1573 -0.0631
    1W        W55086   2.095   6.388   0.068  0.1670 -0.1970  0.0862
    1W        W55087  25.423   1.380   1.975  0.2860 -0.0756  0.0043
    1W        W55088   6.167   8.228   0.552 -0.1961 -0.1875  0.1618
    1W        W55089  21.777  15.625   1.552  0.2816 -0.1822 -0.2172
    1W        W55090  26.212   7.668   7.373 -0.0830  0.2014  0.1311
    1W        W55091  14.622   3.496   1.169 -0.1472 -0.2043  0.0674
    1W        W55092  12.925  10.078   1.047  0.2145  0.1962 -0.1319
    1W        W55093   5.760   3.557   6.571 -0.1372 -0.0380  0.0639
    1W        W55094   0.468   7.061   6.231  0.3598  0.2059  0.1047
    1W        W55095   1.667  14.300   1.255 -0.3221  0.3532 -0.2035
    1W        W55096   3.214  28.654   0.498  0.0497 -0.2249  0.2200
    1W        W55097   7.328  28.667   8.965 -0.1550  0.0178 -0.6293
    1W        W55098  26.522   9.557   0.394 -0.2586  0.2350 -0.3892
    1W        W55099  11.041   0.083   2.356 -0.0483 -0.1583 -0.0212
    1W        W55100  29.435  26.902   8.759  0.1339  0.1039  0.1943
    1W        W55101  21.835  28.558   7.817 -0.0157 -0.1348  0.2861
    1W        W55102  18.943   6.744   0.323 -0.2859  0.0165  0.4163
    1W        W55103   5.067  19.543   1.493 -0.1354 -0.0000 -0.2648
    1W        W55104  14.928   2.888   0.476  0.1408  0.2075  0.1858
    1W        W55105   3.528  27.800   0.954  0.2243  0.0276  0.2886
    1W        W55106  20.763   9.475   7.985 -0.1080 -0.0676  0.0481
    1W        W55107  27.550   2.826   1.877 -0.2656  0.0888  0.0326
    1W        W55108  22.996  11.154   7.778  0.3002 -0.1420 -0.0471
    1W        W55109   5.652  23.219   0.916 -0.0497  0.0962  0.1577
    1W        W55110  16.322  29.171   6.906  0.1951  0.0510 -0.3220
    1W        W55111  27.739  26.357   1.976 -0.0298 -0.0336 -0.1087
    1W        W55112  15.589   7.653   0.076 -0.0868  0.3049 -0.1186
    1W        W55113  12.675  10.206   8.988 -0.2728  0.0034  0.3084
    1W        W55114  17.396  28.773   2.513 -0.2186  0.1406 -0.0487
    1W        W55115  21.697  17.767   9.199  0.1810  0.0126  0.0387
    1W        W55116  10.519  28.589   1.538 -0.0229  0.0803 -0.0053
    1W        W55117  17.646  13.953   7.983 -0.1840  0.0043  0.2421
    1W        W55118  18.320  17.003   9.646  0.0163  0.0636 -0.1011
    1W        W55119  10.327   0.086   1.242 -0.1197  0.1227  0.1571
    1W        W55120  22.962  16.660   7.459  0.0740  0.1360 -0.0354
    1W        W55121   4.166  21.153   6.529  0.0129 -0.1337 -0.3219
    1W        W55122  12.634   4.217   1.581  0.0408 -0.0735  0.2294
    1W        W55123  22.759  29.040   0.771  0.2931  0.0980 -0.0588
    1W        W55124  23.580  25.670   2.954 -0.1398  0.3328 -0.1356
    1W        W55125   3.354   2.092   8.011  0.3827  0.1309  0.0260
    1W        W55126  13.689  28.513   0.958 -0.1684 -0.2403  0.0673
    1W        W55127  21.615  26.976   8.678 -0.1496 -0.0770  0.1624
    1W        W55128   0.143  11.625   0.455  0.0239 -0.0641  0.0336
    1W        W55129  28.533  29.227   3.033  0.0254  0.3573 -0.0048
    1W        W55130  18.919  29.293   3.382  0.1260  0.0363 -0.4388
    1W        W55131  10.225   7.724   8.069  0.0284 -0.0912 -0.1245
    1W        W55132   2.773   7.913   0.880  0.2396  0.2013 -0.0428
    1W        W55133  18.353  27.042   8.155  0.1068  0.2313  0.0115
    1W        W55134  27.154  23.002   2.532 -0.0822 -0.2056 -0.0365
    1W        W55135  13.502  16.043   1.766  0.2828 -0.0452  0.3075
    1W        W55136   4.461   6.397   5.925  0.4557  0.1618  0.0847
    1W        W55137  21.782   8.705   2.553 -0.1266 -0.1550  0.3338
    1W        W55138  24.111  19.353   7.793 -0.2019 -0.3135  0.0405
    1W        W55139  16.101  11.073   6.510  0.0307  0.0849 -0.1524
    1W        W55140  22.835   6.326   8.609 -0.2676 -0.0103 -0.1799
    1W        W55141   5.339  15.554   0.496 -0.3237 -0.0690 -0.1639
    1W        W55142  29.577  12.912   7.288  0.1998 -0.0191 -0.0282
    1W        W55143   1.741  27.914   2.449 -0.1321 -0.2151  0.1852
    1W        W55144  29.264  16.503   7.478  0.0057  0.1735  0.0394
    1W        W55145  12.548  22.452   2.130 -0.1132 -0.0169  0.2459
    1W        W55146  14.739  21.116   9.269  0.2086 -0.0865 -0.0184
    1W        W55147   1.977  20.035   7.081  0.0076 -0.0652  0.4419
    1W        W55148   3.898  24.927   2.668  0.0991  0.1541 -0.3689
    1W        W55149  18.183  20.168   2.524 -0.0575  0.0419  0.3754
    1W        W55150  28.397  10.756   6.859  0.0244 -0.0834 -0.0733
    1W        W55151  15.611  20.435   7.345 -0.0091 -0.0647 -0.1021
    1W        W55152  25.391  24.959   2.326  0.3497 -0.0218 -0.1522
    1W        W55153  11.366   5.996   0.945 -0.0201  0.0970  0.3257
    1W        W55154  29.473   9.058   0.647  0.5181  0.0333 -0.1346
    1W        W55155   8.648  12.511   1.972 -0.2457 -0.2283  0.2880
    1W        W55156   1.138  27.562   8.543  0.1219 -0.0603  0.2734
    1W        W55157  13.058  15.853   9.045 -0.0818  0.3435 -0.0537
    1W        W55158  26.364  22.253   7.264  0.0066 -0.3685  0.1432
    1W        W55159  12.982   4.220   6.603  0.2731 -0.0969  0.2333
    1W        W55160  19.688   4.216   1.583  0.2352  0.0828  0.1810
    1W        W55161   6.990   0.628   0.083  0.1805 -0.0938  0.0499
    1W        W55162  22.779  14.546   3.132  0.0474  0.2954  0.0413
    1W        W55163   3.807   6.824   7.753 -0.0929  0.3832  0.2957
    1W        W55164   9.733  22.373   7.360 -0.3039  0.1324  0.0426
    1W        W55165  23.103  26.741   0.232  0.1313  0.1451 -0.2526
    1W        W55166  22.455  13.723   1.468  0.2049 -0.3560  0.0844
    1W        W55167  23.357  13.781   7.917  0.1412  0.1165 -0.0325
    1W        W55168  21.308  18.090   0.769 -0.0731  0.0786  0.0572
    1W        W55169   8.611  26.358   0.924 -0.3038 -0.4281  0.3613
    1W        W55170  10.247  19.703   1.571  0.1240  0.1108  0.1403
    1W        W55171   1.442   9.775   7.967 -0.1881  0.0514  0.2135
    1W        W55172   3.607  12.673   1.901 -0.2326  0.0957 -0.3183
    1W        W55173   2.324  12.532   7.192 -0.0584 -0.0877  0.0240
    1W        W55174  15.267  25.431   8.862 -0.0151 -0.1291  0.1440
    1W        W55175   2.906   0.290   9.167 -0.1974  0.1054 -0.1529
    1W        W55176  11.860  16.129   9.340  0.0289 -0.1779 -0.0149
    1W        W55177  14.509  15.690   1.756  0.0501  0.3265  0.1345
    1W        W55178  28.878   9.156   0.935  0.3085  0.1776 -0.0397
    1W        W55179  27.305  24.273   8.118 -0.1403 -0.1991 -0.0297
    1W        W55180  28.754  23.829   9.553 -0.0764 -0.0714  0.2003
    1W        W55181  16.181  21.043   6.246  0.0126  0.3455  0.0943
    1W        W55182  28.574  11.503   0.153  0.1494 -0.0023 -0.2288
    1W        W55183  18.710  23.028   7.374  0.3263 -0.2068 -0.0701
    1W        W55184   2.651   8.771   6.763 -0.2180  0.4807  0.1704
    1W        W55185   7.035  18.516   0.134  0.1006  0.2762  0.0472
    1W        W55186  10.942  27.112   3.138  0.0524 -0.1761 -0.3098
    1W        W55187  10.609  24.783   1.541 -0.1310 -0.1055 -0.0822
    1W        W55188   7.979   3.135   8.300  0.1403  0.3054  0.1643
    1W        W55189  11.107  12.784   0.344 -0.0664 -0.0042 -0.0095
    1W        W55190  23.459  26.584   1.434 -0.1424  0.0765 -0.1563
    1W        W55191   6.001  28.884   9.642 -0.0756  0.0070  0.2698
    1W        W55192  27.962  15.764   7.316 -0.1696 -0.1007  0.2922
    1W        W55193   2.064  11.063   1.508  0.3237 -0.1416  0.0592
    1W        W55194  16.109  10.901   7.789  0.0205  0.3098  0.1835
    1W        W55195  19.139  16.626   1.976  0.0108  0.0556  0.1608
    1W        W55196  13.113   9.175   1.062  0.1370 -0.2577 -0.0503
    1W        W55197   4.447   9.308   6.212 -0.0054 -0.0348 -0.0526
    1W        W55198  18.902  17.504   0.919 -0.0673  0.1106  0.1035
    1W        W55199   8.312  16.291   2.900 -0.0829  0.0823  0.1584
    1W        W55200  28.506  27.127   0.030  0.1168 -0.0372  0.1212
    1W        W55201  24.349  25.196   8.909 -0.1911  0.2699 -0.1970
    1W        W55202  16.036   4.322   1.153 -0.1595 -0.1917 -0.2733
    1W        W55203  28.809  18.964   1.673  0.3023 -0.1189  0.0043
    1W        W55204  25.293  18.930   7.617 -0.1683  0.1005  0.0594
    1W        W55205  23.880  14.922   8.547  0.1150 -0.0355 -0.1040
    1W        W55206  19.670  26.175   7.817  0.3580 -0.1460 -0.2099
    1W        W55207  17.875  22.510   0.594  0.1553 -0.1937 -0.1502
    1W        W55208  14.007  17.621   7.433  0.0435 -0.2478 -0.1945
    1W        W55209  15.988  13.994   0.423 -0.0869  0.0286 -0.0699
    1W        W55210  11.544  18.021   0.769 -0.1702  0.1398 -0.1399
    1W        W55211  23.965  18.936   1.034  0.2650 -0.0437 -0.2246
    1W        W55212  13.686  18.805   2.278  0.3466  0.3178 -0.4911
    1W        W55213  14.234  17.976   0.793  0.1103 -0.2163 -0.1342
    1W        W55214  15.060   3.082   6.661  0.0162  0.3222 -0.2243
    1W        W55215  25.859   8.055   8.629 -0.1386 -0.0305 -0.0593
    1W        W55216   5.248   1.988   0.754  0.2070  0.2597  0.0835
    1W        W55217  12.651  25.802   2.048 -0.0493 -0.3942  0.3044
    1W        W55218  19.874   6.115   9.107 -0.1488  0.0527  0.0496
    1W        W55219  21.228   5.473   1.787 -0.1229 -0.0187 -0.0788
    1W        W55220   9.857  26.666   2.138 -0.1935 -0.1616  0.0626
    1W        W55221  15.714   8.933   7.477  0.0954  0.0648  0.1030
    1W        W55222  15.665  28.402   7.526 -0.2865 -0.2989  0.1605
    1W        W55223  27.984  14.213   1.580 -0.2572  0.0832 -0.0672
    1W        W55224  12.812   6.899   2.605 -0.0204 -0.1494  0.0580
    1W        W55225   4.653  16.109   8.212 -0.0254  0.0328 -0.2452
    1W        W55226  15.031  15.167   0.787  0.1431  0.2737 -0.0040
    1W        W55227  22.328  10.591   1.344 -0.0455  0.0699  0.1996
    1W        W55228   6.036  28.097   9.086 -0.1688  0.0741  0.2568
    1W        W55229  20.940  22.593   3.971 -0.1663  0.3318  0.2630
    1W        W55230  11.038   5.157   9.096  0.3577 -0.2299 -0.2057
    1W        W55231  11.421  19.279   0.961 -0.2316  0.0763  0.2348
    1W        W55232  10.929  22.197   1.064  0.0684  0.0114 -0.0884
    1W        W55233   0.106   7.997   0.459 -0.0330  0.1459  0.1462
    1W        W55234  15.967  27.206   7.171  0.3025  0.0403  0.0354
    1W        W55235  16.689   3.056   1.226  0.0116  0.1303  0.0275
    1W        W55236   0.393  28.772   7.958 -0.0441  0.1153  0.1896
    1W        W55237  28.254  19.733   9.485 -0.0576 -0.3015 -0.2078
    1W        W55238  13.896  16.354   7.200  0.1989 -0.1882  0.1946
    1W        W55239  27.845   3.219   1.733  0.0797  0.3051  0.0313
    1W        W55240  29.004  17.130   3.025  0.0893 -0.1173  0.0120
    1W        W55241  24.894  28.843   1.206 -0.2654 -0.0917  0.0526
    1W        W55242  29.438   1.906   1.828 -0.1124  0.0168 -0.1330
    1W        W55243   9.039   8.160   8.072  0.0746  0.1242  0.0889
    1W        W55244  21.261  13.902   8.200  0.0592  0.1774  0.1920
    1W        W55245   7.004  24.004   7.947 -0.0476  0.0329  0.1745
    1W        W55246   0.967  26.805   8.724  0.1977  0.0033  0.0859
    1W        W55247   9.273  11.642   0.650  0.0801 -0.1707 -0.1211
    1W        W55248  18.934  19.807   6.662  0.0209 -0.0265  0.0050
    1W        W55249  17.605   8.300   2.132 -0.1356 -0.2237  0.3610
    1W        W55250  23.704  13.076   9.028  0.1208  0.1329  0.1879
    1W        W55251  16.114   2.379   1.853 -0.1760 -0.0439  0.0725
    1W        W55252  15.595  15.711   0.062  0.0229  0.2179 -0.1363
    1W        W55253  12.802   2.988   1.354  0.1702  0.2164  0.0767
    1W        W55254   7.044  19.398   0.197  0.0252 -0.1262  0.0873
    1W        W55255   5.016  12.806   7.707 -0.1888 -0.0902 -0.0526
    1W        W55256  24.635  28.652   8.584 -0.0255  0.3909  0.2074
    1W        W55257  15.611   8.598   0.975 -0.0759  0.2672  0.2194
    1W        W55258  11.679  13.602   0.054 -0.2267 -0.0240 -0.0106
    1W        W55259  21.875  19.237   2.070 -0.1100  0.0801  0.1020
    1W        W55260  23.258  20.938   1.534 -0.1963  0.0394  0.0712
    1W        W55261  21.527  17.992   1.383 -0.0435 -0.3998 -0.0486
    1W        W55262  15.144  21.707   9.402  0.2183  0.0912  0.0346
    1W        W55263  14.981  11.783   0.791  0.1566 -0.5804  0.2286
    1W        W55264  26.462  28.468   3.003  0.1272 -0.1570 -0.1305
    1W        W55265  12.470  10.505   1.060 -0.0607  0.0756  0.1598
    1W        W55266  11.302  19.918   6.144  0.0109 -0.1770 -0.0298
    1W        W55267  11.628   8.182   8.372 -0.0600  0.1572  0.0873
    1W        W55268  17.509  24.117   0.701 -0.1503 -0.0397  0.1090
    1W        W55269  20.465  15.135   2.732 -0.2446 -0.1144 -0.0253
    1W        W55270   6.438  28.362   8.222  0.4159  0.1585 -0.0304
    1W        W55271   3.554  12.556   8.860  0.1913  0.0890  0.1928
    1W        W55272  26.258  22.289   2.060  0.3698 -0.1719  0.4805
    1W        W55273  22.150  25.771   1.220 -0.0748 -0.0980  0.0644
    1W        W55274  10.412  27.231   7.658  0.3220 -0.0602 -0.2055
    1W        W55275  23.540  18.626   6.900 -0.3603 -0.3309 -0.0033
    1W        W55276   0.431   2.719   8.788  0.3454 -0.0004  0.0845
    1W        W55277   5.610  28.151   1.385 -0.2093  0.1674 -0.0315
    1W        W55278  13.541  29.071   8.717 -0.1371  0.2741 -0.5204
    1W        W55279  15.092   7.436   0.790  0.1737 -0.2277  0.0055
    1W        W55280  29.452  23.571   0.942 -0.0192  0.0400  0.2132
    1W        W55281   1.043  26.819   6.597  0.0827 -0.3335 -0.3532
    1W        W55282   6.487  17.377   2.385  0.0072 -0.0395  0.0366
    1W        W55283  16.778  17.624   1.663  0.0185 -0.1435  0.0008
    1W        W55284  21.969  13.184   8.371  0.0817 -0.1945 -0.0500
    1W        W55285  27.739   9.756   7.587 -0.1401  0.0217  0.1484
    1W        W55286   2.034   4.856   2.247 -0.0077  0.0469  0.0667
    1W        W55287   0.161  27.040   0.320 -0.2869 -0.0790  0.0989
    1W        W55288   2.798  10.583   1.165  0.2812  0.1408 -0.1003
    1W        W55289  26.013  28.519   7.629 -0.1405  0.2053  0.1296
    1W        W55290  19.310   5.974   9.360 -0.0757 -0.3495  0.0627
    1W        W55291  26.752   6.668   0.364 -0.0671  0.0354  0.1360
    1W        W55292   4.321  24.103   3.890 -0.0138 -0.0142  0.1192
    1W        W55293   9.609   5.416   1.258  0.2964  0.3752 -0.2980
    1W        W55294   0.849  17.260   8.872  0.0100 -0.1114  0.0425
    1W        W55295  19.860  14.238   2.006 -0.1676  0.1542  0.2635
    1W        W55296  10.280  28.930   0.961 -0.0675 -0.1366  0.1694
    1W        W55297   1.817   8.143   0.879 -0.2188  0.2095 -0.3665
    1W        W55298  21.697  23.065   9.115  0.1551 -0.1123  0.1358
    1W        W55299  16.507   3.106   2.439  0.2372 -0.1748  0.0121
    1W        W55300  27.144  12.021   9.040 -0.0762  0.1910 -0.0375
    1W        W55301  22.966   8.574   8.547  0.0820 -0.0653  0.1717
    1W        W55302  18.961  13.484   8.987  0.0098 -0.0726 -0.0414
    1W        W55303  22.443  25.981   7.675  0.0678  0.0129  0.0418
    1W        W55304   8.254  20.961   6.517 -0.2831  0.1720  0.1619
    1W        W55305   1.193  16.473   2.323  0.0362  0.2333  0.2844
    1W        W55306   1.617  25.906   2.792  0.1588 -0.0263  0.2422
    1W        W55307   6.294   7.806   0.293 -0.2655 -0.1086 -0.1575
    1W        W55308  17.011  16.628   1.292 -0.3221  0.1806  0.0155
    1W        W55309  19.148   4.817   9.056 -0.1510 -0.0030  0.1057
    1W        W55310   6.867  10.715   5.009  0.0346  0.0748 -0.1906
    1W        W55311   0.599   1.287   0.931 -0.0325 -0.0319 -0.2445
    1W        W55312   6.554  17.269   1.214 -0.0766 -0.1847 -0.2879
    1W        W55313   4.774  15.676   7.679  0.2949  0.1144 -0.1267
    1W        W55314  12.047   4.470   1.775 -0.0851 -0.2867  0.1006
    1W        W55315  11.879  11.758   8.972  0.1249  0.1439 -0.0711
    1W        W55316   9.872  19.395   0.877 -0.1372  0.4432 -0.0333
    1W        W55317  25.855   4.653   1.221 -0.1931  0.0682  0.0469
    1W        W55318   8.962   0.069   7.797 -0.1337 -0.0922  0.0486
    1W        W55319  17.532  12.474   9.196  0.0630  0.0142  0.1160
    1W        W55320  15.225  10.692   9.152  0.3910 -0.1409  0.1351
    1W        W55321   9.286  25.001   1.757  0.2198 -0.0583 -0.0553
    1W        W55322   0.895   2.561   0.219 -0.1661 -0.0079  0.1189
    1W        W55323   3.269   5.684   9.264 -0.0084  0.0253  0.2197
    1W        W55324  26.010  15.972   9.159 -0.0945  0.3052 -0.0764
    1W        W55325   5.928  11.934   6.442  0.4795  0.0460 -0.1585
    1W        W55326  18.465  20.039   6.429 -0.0658 -0.2253 -0.2294
    1W        W55327  12.640   7.263   8.201  0.1175  0.2146  0.2962
    1W        W55328  26.314  18.062   3.068  0.1330  0.1602 -0.3062
    1W        W55329   2.365   1.796   8.003  0.1621  0.0512 -0.0640
    1W        W55330   4.182  11.817   7.994 -0.1478 -0.1979  0.2565
    1W        W55331  25.786  27.161   9.317 -0.2532  0.0355  0.1392
    1W        W55332   3.447   3.470   1.508  0.2885 -0.0030 -0.3167
    1W        W55333  16.334   2.714   8.559 -0.1168 -0.2901 -0.2860
    1W        W55334   1.759   3.683   8.630 -0.2492 -0.1499  0.0439
    1W        W55335  15.295  15.435   0.440 -0.1402  0.3168  0.1990
    1W        W55336  10.567  13.996   8.521  0.0339  0.0869  0.1148
    1W        W55337   7.190   7.733   1.716  0.1323 -0.1379 -0.0947
    1W        W55338   4.721  22.607   7.403 -0.0024  0.1019  0.2017
    1W        W55339  14.948   1.763   8.597 -0.1416 -0.0191  0.0079
    1W        W55340   5.294   1.775   7.140  0.1042  0.1397 -0.2526
    1W        W55341  15.081  11.731   2.536 -0.0006  0.0815 -0.0131
    1W        W55342  11.614  15.998   8.909 -0.1600 -0.2607  0.0621
    1W        W55343  11.016  18.322   8.738  0.0527  0.2452  0.1604
    1W        W55344  13.553   8.075   1.631 -0.0443  0.3352 -0.0114
    1W        W55345  18.452   0.916   0.506 -0.1203  0.0901  0.0734
    1W        W55346  13.991  23.604   1.422 -0.2428 -0.1366  0.3580
    1W        W55347  23.925   3.024   1.385 -0.0603 -0.1072 -0.1937
    1W        W55348  13.931  16.416   2.641 -0.1714  0.0173  0.3442
    1W        W55349  21.210   4.602   0.216  0.3466  0.3760  0.1682
    1W        W55350  22.575  21.717   1.851  0.2509  0.0653  0.2194
    1W        W55351  10.149  17.461   8.126 -0.0649 -0.0048  0.0473
    1W        W55352  18.961  25.876   8.437  0.0934  0.4246 -0.1154
    1W        W55353   3.723  20.146   0.879 -0.3307  0.0173  0.0124
    1W        W55354  15.734  21.735   8.562  0.1729 -0.0335 -0.1235
    1W        W55355  19.949   1.683   0.869 -0.4353  0.2742 -0.1152
    1W        W55356  13.975  27.974   7.334 -0.2043 -0.1820  0.0510
    1W        W55357  14.914   7.400   2.207  0.3621 -0.1501  0.0309
    1W        W55358   0.162  12.639   1.102  0.1120  0.0520 -0.2671
    1W        W55359  20.503  24.406   3.187  0.0262  0.0283 -0.1545
    1W        W55360  23.750  22.000   0.927 -0.0235 -0.1069 -0.3753
    1W        W55361   3.818  18.401   2.214  0.1263 -0.1840 -0.1904
    1W        W55362  19.970  12.797   2.972  0.1269 -0.1503  0.0792
    1W        W55363   6.853  18.321   6.753  0.0483  0.2119  0.1004
    1W        W55364  13.468   4.585   8.928 -0.0274 -0.1117 -0.1241
    1W        W55365  10.571  18.504   8.694 -0.2102  0.1193 -0.2475
    1W        W55366  22.707  25.365   8.445  0.0437  0.0345  0.2434
    1W        W55367  20.686   7.640   0.348  0.0989 -0.0587 -0.0555
    1W        W55368  15.630  20.647   9.211  0.0084 -0.1179  0.0139
    1W        W55369  23.754  10.928   9.201 -0.1920 -0.0175 -0.0716
    1W        W55370  12.426   2.479   8.560  0.1809 -0.0581  0.0224
    1W        W55371  26.917  10.751   1.636 -0.3008 -0.2254 -0.3134
    1W        W55372   9.758  11.662   7.187  0.1983 -0.1075 -0.0159
    1W        W55373  28.512  28.462   2.452 -0.0017  0.0998 -0.2039
    1W        W55374   2.736  28.952   0.545  0.0268 -0.0430 -0.2651
    1W        W55375  12.775  28.765   7.059  0.0036  0.1031  0.0275
    1W        W55376  23.016  27.467   8.802 -0.0120 -0.1243  0.2389
    1W        W55377  17.245   4.899   9.210  0.1800 -0.0977  0.5453
    1W        W55378   7.813  29.397   9.037 -0.0586 -0.0310  0.0472
    1W        W55379  14.648  11.573   2.206  0.0691 -0.1555 -0.2163
    1W        W55380  23.461   7.636   1.946  0.0158 -0.0428 -0.2225
    1W        W55381  20.646  12.875   1.234  0.1983  0.1737  0.1878
    1W        W55382   5.177  19.129   1.927  0.0775 -0.1904  0.2543
    1W        W55383   4.910   1.941   3.055  0.1431  0.0577 -0.3433
    1W        W55384  19.002  10.491   2.551 -0.4019  0.0652 -0.1640
    1W        W55385   8.637  19.561   9.487  0.1822 -0.0533  0.1510
    1W        W55386  26.142  17.437   1.372 -0.2807  0.2264 -0.1355
    1W        W55387   8.276  14.233   1.725  0.0310  0.1141 -0.0686
    1W        W55388  16.268  11.305   9.620 -0.1804 -0.2527 -0.1114
    1W        W55389  12.765   2.060   0.426 -0.1284 -0.1887  0.2901
    1W        W55390   7.403  24.026   9.136 -0.0666 -0.3166  0.4723
    1W        W55391  27.576   4.415   7.446 -0.2533 -0.2636  0.0381
    1W        W55392  24.595  15.907   9.397  0.2531  0.1018  0.1116
    1W        W55393   6.761  19.047   7.561  0.0610  0.0464 -0.1128
    1W        W55394  26.476  15.726   9.606 -0.0683 -0.2214 -0.2669
    1W        W55395  19.240  24.191   8.221 -0.0737 -0.0209  0.1170
    1W        W55396  28.929   5.129   0.552 -0.1008  0.2144  0.1496
    1W        W55397  27.576  23.753   2.904 -0.0119  0.2826 -0.0726
    1W        W55398  13.609   9.972   0.694 -0.1545 -0.0887 -0.1041
    1W        W55399   8.300   7.838   5.636 -0.1033  0.1100  0.0375
    1W        W55400   3.822  11.018   9.028  0.4311 -0.2020 -0.1011
    1W        W55401   1.505   4.941   7.248  0.0131  0.1991 -0.0824
    1W        W55402  14.714  23.638   0.609 -0.0518  0.3946  0.1591
    1W        W55403  16.416  25.413   1.218 -0.0113  0.1685 -0.1872
    1W        W55404  23.950  10.362   1.366  0.3586  0.2456  0.1224
    1W        W55405  18.675   7.466   1.575 -0.0471  0.0923  0.0054
    1W        W55406  19.186  18.597   7.197 -0.2044 -0.2418  0.0356
    1W        W55407  18.303   5.390   2.463  0.0926 -0.0539  0.0009
    1W        W55408  10.603  15.086   8.117  0.0062  0.2514  0.5249
    1W        W55409   9.260  18.285   2.112 -0.0896 -0.1904 -0.0602
    1W        W55410   3.135  11.848   0.952 -0.0478 -0.3658  0.1436
    1W        W55411   7.208  19.773   9.465  0.1786 -0.0282 -0.1671
    1W        W55412   0.331  16.763   3.071 -0.0078  0.1610  0.0186
    1W        W55413  19.874  25.806   0.271 -0.0492  0.0019  0.1757
    1W        W55414  20.982  29.581   2.124  0.2525 -0.0623 -0.1475
    1W        W55415  12.447  17.807   8.174  0.1437  0.0027 -0.1508
    1W        W55416   0.851  12.863   6.996 -0.1520  0.0840  0.0800
    1W        W55417   2.558   7.401   5.840 -0.2612 -0.2428  0.0602
    1W        W55418   3.018  17.917   0.454 -0.1028 -0.0413 -0.2195
    1W        W55419  16.232   9.342   2.866  0.3304 -0.0544 -0.0839
    1W        W55420   6.709  23.569   9.389  0.3595  0.1860 -0.1591
    1W        W55421  24.041  21.923   1.437 -0.1290  0.3882  0.0151
    1W        W55422  19.904  12.173   9.522  0.3071 -0.2668  0.0330
    1W        W55423  13.044   5.210   6.556 -0.2179  0.0598  0.1483
    1W        W55424  17.207  23.537   9.416 -0.3290 -0.0566 -0.4447
    1W        W55425  22.291   0.216   9.426  0.3140  0.4601  0.0433
    1W        W55426   4.803  15.674   2.124 -0.1512 -0.0873  0.3044
    1W        W55427  12.452   3.915   8.587 -0.0140  0.3652  0.0803
    1W        W55428   6.714   8.914   9.646  0.0395 -0.2301 -0.1631
    1W        W55429   1.527  14.740   8.921  0.0641  0.0533  0.1861
    1W        W55430   2.343   9.841   1.022  0.0496  0.0039  0.2418
    1W        W55431  14.182   2.549   0.752  0.2097  0.1802  0.0477
    1W        W55432  15.369  22.076   0.137  0.2764  0.1928  0.0519
    1W        W55433  24.725  20.950   1.500  0.1493 -0.0218 -0.1816
    1W        W55434   0.165   7.267   1.448  0.0696  0.1182 -0.2121
    1W        W55435   0.219  27.583   9.477  0.1468 -0.1964  0.1384
    1W        W55436  17.479  23.716   8.378  0.2395  0.0215 -0.0023
    1W        W55437   6.902  11.777   1.682 -0.2386  0.2127  0.2626
    1W        W55438  23.594   8.708   1.309 -0.1829  0.2323  0.0216
    1W        W55439  10.481   1.487   6.546  0.3977  0.0565  0.0278
    1W        W55440  11.772  27.482   2.250 -0.0937 -0.0671  0.0366
    1W        W55441   5.395  27.329   7.752  0.0691  0.3008 -0.1031
    1W        W55442  24.298   2.891   2.794  0.0141 -0.1040  0.1051
    1W        W55443   3.681  27.423   7.956  0.1331 -0.0625  0.2517
    1W        W55444   6.845  15.052   1.773  0.1301 -0.0100  0.0101
    1W        W55445  25.619  24.033   0.208  0.4158 -0.0179  0.0494
    1W        W55446  15.340  20.737   1.630 -0.2051 -0.1674 -0.0420
    1W        W55447  22.686  13.753   9.562  0.1043  0.2264 -0.0054
    1W        W55448   4.766  21.822   2.176  0.0285 -0.1032 -0.1011
    1W        W55449  11.210   2.278   8.950  0.1762  0.0429  0.1276
    1W        W55450  26.926  27.016   0.449  0.3359 -0.0311  0.0295
    1W        W55451   7.719  16.169   0.580  0.0605  0.0572 -0.1345
    1W        W55452  26.408   0.528   9.624  0.0165  0.0226  0.0304
    1W        W55453  13.014  26.681   9.332 -0.0218 -0.0135 -0.0972
    1W        W55454   5.736  17.611   9.124 -0.0116  0.0233 -0.1014
    1W        W55455   1.021   1.122   6.595  0.1139  0.1705  0.1493
    1W        W55456   7.179  21.204   7.416 -0.0521 -0.1224 -0.0053
    1W        W55457  18.458  27.938   8.614  0.1097  0.1148 -0.0167
    1W        W55458  12.460   2.726   3.142  0.2460  0.1949 -0.2948
    1W        W55459  12.898  13.464   1.655  0.1930  0.0230  0.1640
    1W        W55460  16.279  26.308   6.890 -0.0760 -0.2438  0.1319
    1W        W55461   1.951   5.765   5.394 -0.2581 -0.2008  0.0120
    1W        W55462  15.236  14.288   0.409  0.4544 -0.1825 -0.0605
    1W        W55463   6.828  10.571   6.392 -0.0589 -0.1733  0.3927
    1W        W55464   3.770  16.882   3.134 -0.0356 -0.0344  0.0787
    1W        W55465  24.044   7.223   8.082  0.3097 -0.0650 -0.0899
    1W        W55466  10.178  25.991   1.204  0.0655 -0.0761  0.2287
    1W        W55467  26.139  21.328   2.900 -0.0022  0.0999 -0.4568
    1W        W55468   4.997  10.869   2.191 -0.0620 -0.1931 -0.0106
    1W        W55469  17.745  23.959   2.161  0.4105 -0.0979  0.3082
    1W        W55470  10.077   2.616   0.018  0.0460  0.0468  0.1133
    1W        W55471   2.408  11.222   6.024 -0.1757 -0.3238  0.0335
    1W        W55472  23.724  20.291   9.224  0.2497 -0.1940  0.1379
    1W        W55473   4.688  28.391   0.258 -0.1310 -0.2094  0.0822
    1W        W55474  23.495   1.189   7.842  0.1577 -0.3149 -0.1303
    1W        W55475  12.701  22.336   1.632 -0.3502  0.0923  0.1437
    1W        W55476  21.326  18.342   1.673 -0.2201 -0.4183  0.5376
    1W        W55477   3.140   9.019   7.052  0.0589 -0.0007  0.0708
    1W        W55478   9.911  12.237   0.810 -0.3756 -0.0648  0.0307
    1W        W55479  22.775   2.949   1.049 -0.0527 -0.0212  0.4692
    1W        W55480   3.301  13.725   6.886  0.0373  0.0425 -0.1291
    1W        W55481   2.801  24.040   3.569  0.2671  0.0301  0.2434
    1W        W55482   8.261   7.930   8.113 -0.4118 -0.2634 -0.1943
    1W        W55483  14.243  27.767   1.061  0.2940  0.2578  0.0923
    1W        W55484  15.846  26.226   7.066  0.3821 -0.1456 -0.2728
    1W        W55485   3.315  20.997   8.513  0.4002 -0.0470 -0.1008
    1W        W55486   8.669  29.117   9.490  0.0725 -0.1040  0.2460
    1W        W55487  22.564  23.317   1.395 -0.3380  0.2278 -0.0476
    1W        W55488   5.347  13.799   6.950 -0.0964 -0.1885 -0.2053
    1W        W55489  11.378  18.100   9.024  0.0147 -0.0634  0.2554
    1W        W55490  15.536  27.946   0.884  0.2349  0.3807 -0.1170
    1W        W55491  25.803   7.033   8.462  0.1465 -0.1168  0.0122
    1W        W55492   0.954  17.506   8.011 -0.0692  0.1486 -0.4796
    1W        W55493  22.923  19.468   0.630 -0.0216  0.2001  0.0542
    1W        W55494   8.868   7.673   8.880 -0.0005  0.1216  0.0928
    1W        W55495  26.966  23.186   3.534 -0.2455 -0.0135  0.0800
    1W        W55496   2.224  20.047   8.625  0.0524  0.0381  0.0118
    1W        W55497   4.159   0.567   0.549 -0.0891 -0.1751  0.0029
    1W        W55498   0.210  14.507   0.251  0.0098  0.2433  0.0503
    1W        W55499   7.616  20.884   0.320  0.1243 -0.1267  0.1955
    1W        W55500  28.266  14.820   8.167  0.1065 -0.1707 -0.1013
    1W        W55501   9.829  24.506   6.828  0.0475 -0.1045 -0.1682
    1W        W55502  16.347  13.601   8.678 -0.0745  0.3115 -0.0856
    1W        W55503   7.939  24.029   6.204  0.0735  0.0313 -0.0408
    1W        W55504  27.224  26.185   6.771  0.2500  0.2152  0.3132
    1W        W55505  10.944  11.804   9.020  0.1159 -0.1939  0.2546
    1W        W55506  15.027  16.353   0.143 -0.1111 -0.2071 -0.1495
    1W        W55507  26.969  11.564   8.180 -0.1119  0.0314  0.0175
    1W        W55508  23.057  13.389   0.113 -0.3397 -0.0176  0.0637
    1W        W55509  27.213  17.695   0.037 -0.2385 -0.0412 -0.1086
    1W        W55510   3.019  13.271   6.735  0.0958 -0.0872 -0.2379
    1W        W55511   0.505  11.012   0.983  0.0563 -0.2968  0.0321
    1W        W55512   7.113  25.177   2.459  0.1286  0.1384 -0.0608
    1W        W55513   5.050   4.428   8.646  0.2015 -0.3297 -0.1578
    1W        W55514  21.697   1.758   8.107  0.1215 -0.2537 -0.1113
    1W        W55515   4.804  14.082   1.159  0.0783 -0.0486  0.0735
    1W        W55516  20.458   1.225   0.332 -0.1995 -0.0779 -0.1429
    1W        W55517   9.166  10.061   0.972  0.0117 -0.4709 -0.0517
    1W        W55518  14.592   4.656   7.028  0.0102  0.1132  0.4353
    1W        W55519  17.438  29.041   9.167 -0.1674  0.3186  0.1995
    1W        W55520  19.538   8.436   0.179 -0.2016 -0.1406 -0.1787
    1W        W55521   9.576   7.249   9.252 -0.1767  0.2741 -0.0332
    1W        W55522   5.899  25.312   2.946  0.1390  0.3034 -0.0855
    1W        W55523  10.753  14.209   9.542  0.1426 -0.0978  0.2772
    1W        W55524  15.707   4.854   7.039  0.0510  0.0651 -0.1305
    1W        W55525  15.026  11.092   8.832 -0.0299 -0.1480  0.1822
    1W        W55526   0.589  26.115   7.253  0.0516 -0.1643  0.1320
    1W        W55527   3.584   1.138   2.631 -0.3770  0.2121 -0.3472
    1W        W55528  27.592  19.632   8.200 -0.3645  0.1855  0.1111
    1W        W55529  24.519  22.834   1.306  0.0937  0.5498 -0.0754
    1W        W55530   6.799  23.052   2.633  0.2754 -0.3879 -0.0881
    1W        W55531  21.744  14.149   9.058 -0.4220 -0.1439 -0.1301
    1W        W55532  11.344  22.529   6.064 -0.0179 -0.1330  0.0155
    1W        W55533  17.308  26.995   2.505 -0.1159 -0.1577 -0.0562
    1W        W55534  25.470   5.291   7.365  0.1066 -0.0961  0.0989
    1W        W55535   9.721  28.431   8.688 -0.0032 -0.0936 -0.2895
    1W        W55536  22.388  14.675   2.421  0.2104  0.3495  0.0245
    1W        W55537   4.146   7.198   5.416 -0.2111 -0.0163 -0.2822
    1W        W55538  17.523   0.389   2.842 -0.2115  0.3200 -0.1865
    1W        W55539   2.067   6.448   8.589 -0.2657  0.2561 -0.1233
    1W        W55540   4.192  19.521   7.258  0.1230  0.0026 -0.0649
    1W        W55541  19.982  26.187   8.208  0.2011  0.1632 -0.0573
    1W        W55542   9.316   9.468   6.613 -0.2263 -0.1977 -0.0651
    1W        W55543   5.185  21.949   7.344  0.3036 -0.1101 -0.0586
    1W        W55544   2.757   0.732   7.430 -0.1804 -0.1257 -0.0624
    1W        W55545  29.104  24.691   1.914  0.1303  0.3165 -0.0077
    1W        W55546  11.146  28.540   8.890  0.0598 -0.0860  0.0021
    1W        W55547   0.845  13.321   0.155 -0.0221 -0.0300 -0.0443
    1W        W55548  13.438  22.258   0.044  0.1082  0.4274  0.0631
    1W        W55549  18.229  27.929   7.841 -0.1406 -0.1523  0.0862
    1W        W55550   6.195  23.133   2.304 -0.0083 -0.1045 -0.0888
    1W        W55551  29.545   3.407   0.571  0.0855 -0.4592 -0.0035
    1W        W55552   5.019  19.753   0.172 -0.0435  0.0406 -0.1473
    1W        W55553   3.540  21.848   7.715  0.1278 -0.0495  0.1138
    1W        W55554   9.830  27.278   1.215 -0.2153 -0.1683 -0.2762
    1W        W55555  11.464  20.096   6.572  0.1012 -0.0217  0.2156
    1W        W55556  25.793  17.415   2.544  0.0268 -0.1138 -0.0534
    1W        W55557  22.152  28.374   0.657  0.1397  0.1062  0.0453
    1W        W55558  17.642   0.534   1.941  0.0080  0.0503  0.1922
    1W        W55559  13.378  11.125   2.370 -0.3033  0.3676  0.0729
    1W        W55560  26.462   0.288   7.182 -0.2444  0.0511  0.0237
    1W        W55561  23.314  21.938   9.542 -0.1315 -0.1176 -0.0006
    1W        W55562  11.449  23.286   9.591  0.2013  0.5282 -0.0637
    1W        W55563  10.240  28.294   6.648  0.2403 -0.1380 -0.1434
    1W        W55564  11.806  15.722   2.006 -0.0628  0.0193  0.1033
    1W        W55565   8.981  12.456   0.944  0.1310 -0.0895  0.2954
    1W        W55566  21.476   0.701   3.502 -0.1020 -0.1647  0.0462
    1W        W55567   3.051  23.240   7.839  0.2509 -0.0945  0.2198
    1W        W55568  12.746  12.705   8.200  0.0150  0.0841 -0.1171
    1W        W55569   6.662   9.167   7.218  0.3416  0.1259  0.3025
    1W        W55570  11.492  15.402   6.259 -0.0613 -0.2174  0.0487
    1W        W55571  26.359   7.903   0.616 -0.0231 -0.0271  0.1188
    1W        W55572   2.511   9.625   7.166 -0.2356  0.1294  0.0703
    1W        W55573  29.503   3.992   0.209  0.5602 -0.4008  0.0722
    1W        W55574  13.113  12.295   1.455 -0.2408 -0.0147 -0.0380
    1W        W55575   2.891  18.501   8.361  0.1016  0.1009 -0.0322
    1W        W55576  19.601  21.799   1.930 -0.3475 -0.0822 -0.0941
    1W        W55577  11.622  11.063   7.214  0.0644 -0.0137  0.1664
    1W        W55578  10.089   9.753   7.012  0.2828  0.2835 -0.0649
    1W        W55579  21.016  17.650   2.641  0.1500 -0.1799 -0.1604
    1W        W55580  12.473  28.959   0.291 -0.1091 -0.0280 -0.1793
    1W        W55581  23.449  27.218   7.369 -0.0728 -0.2514  0.2538
    1W        W55582   0.033  26.731   1.652  0.0460  0.0256  0.4070
    1W        W55583  18.455   3.512   2.956 -0.1413  0.5770  0.0136
    1W        W55584   9.791   1.594   2.339 -0.0526  0.3542 -0.2700
    1W        W55585   7.534  22.225   8.577  0.0278  0.3298  0.2148
    1W        W55586  28.798   0.724   7.974 -0.2108 -0.0571  0.0215
    1W        W55587  11.386  12.655   8.278  0.1134 -0.1179 -0.3100
    1W        W55588   9.390  25.746   1.684  0.1519 -0.1312  0.1150
    1W        W55589   6.469  18.215   2.184 -0.2195 -0.0945  0.0251
    1W        W55590   1.729   4.897   1.834 -0.2296  0.0383 -0.1300
    1W        W55591  28.555   3.698   0.478 -0.0522 -0.1140  0.0732
    1W        W55592  18.922   9.353   9.462 -0.1153 -0.1446 -0.0092
    1W        W55593  12.320  26.578   7.030  0.0480  0.4008  0.0737
    1W        W55594  18.402  25.796   7.833  0.2579  0.1342  0.0056
    1W        W55595  18.484   8.754   1.962  0.0061 -0.2680 -0.3245
    1W        W55596   3.924   3.611   1.818  0.0445  0.0709 -0.0479
    1W        W55597   6.229  18.600   7.271  0.4477  0.0886 -0.4035
    1W        W55598  22.399  15.816   8.434  0.2739 -0.0176 -0.1437
    1W        W55599   7.918  29.601   0.392  0.2249  0.1133 -0.1004
    1W        W55600  21.466  20.674   1.628 -0.1830  0.3828 -0.1134
    1W        W55601   9.947  14.432   1.839 -0.2045  0.0262 -0.3002
    1W        W55602  11.234   6.846   6.630  0.0393  0.2519 -0.0324
    1W        W55603   5.390  18.635   1.503 -0.0764 -0.3140  0.1475
    1W        W55604   9.560  24.948   9.444 -0.1370 -0.3263 -0.0274
    1W        W55605  10.769  28.369   7.152 -0.0019  0.2303 -0.1651
    1W        W55606  12.702  27.483   9.445  0.2036 -0.0143  0.1771
    1W        W55607   0.638  15.072   0.671  0.0166 -0.2876  0.0322
    1W        W55608  14.852  29.470   2.533 -0.0830  0.2867 -0.1622
    1W        W55609  10.153  12.317   9.164 -0.0060 -0.0862  0.1843
    1W        W55610  12.975  11.101   1.624 -0.0090 -0.0503  0.0039
    1W        W55611  11.345   2.738   7.626 -0.1018 -0.0174  0.1455
    1W        W55612  18.705  11.716   0.508 -0.1794 -0.1578 -0.2117
    1W        W55613  20.186  24.279   8.713 -0.0308 -0.1671  0.3247
    1W        W55614  18.240  24.349   0.629 -0.1495 -0.1099 -0.0379
    1W        W55615   9.655   5.516   0.768 -0.0308  0.0506 -0.2696
    1W        W55616  12.426  10.197   9.452 -0.0529 -0.0347 -0.2084
    1W        W55617  14.649   3.301   0.607  0.1087 -0.1089 -0.2821
    1W        W55618   0.963  20.418   1.429 -0.1805  0.1093 -0.1312
    1W        W55619   7.382  26.953   7.697  0.2542  0.0510 -0.0174
    1W        W55620   8.466   8.277   1.770  0.0715 -0.1521  0.0408
    1W        W55621  28.782   0.085   6.911  0.1019 -0.0637 -0.0397
    1W        W55622  14.939  19.148   2.182  0.1049 -0.0088  0.0963
    1W        W55623   0.873  28.107   8.406 -0.0402 -0.0200  0.1848
    1W        W55624  18.752  15.097   8.405  0.0542 -0.0874  0.1128
    1W        W55625  17.925   4.438   7.248 -0.1009 -0.1666  0.1216
    1W        W55626  25.638  24.813   8.860  0.1822  0.1961 -0.0187
    1W        W55627   8.034  24.655   1.564 -0.2241 -0.0388  0.1327
    1W        W55628  25.464  10.746   9.480  0.0113 -0.1176 -0.2062
    1W        W55629  23.850  26.511   7.063  0.0112  0.0739  0.3640
    1W        W55630  14.757  13.988   0.506 -0.1673  0.0532  0.0644
    1W        W55631  12.133  12.846   1.645  0.0450 -0.0446  0.5698
    1W        W55632  11.188  20.516   6.767  0.0944  0.2893  0.0623
    1W        W55633  14.440   3.924   1.107  0.0645  0.0775  0.3099
    1W        W55634   1.662   2.269   7.878 -0.0860 -0.0304 -0.2625
    1W        W55635  10.609  24.140   8.029 -0.1519 -0.2298 -0.2380
    1W        W55636   5.286   4.142   0.335 -0.1614  0.1585 -0.4964
    1W        W55637   2.890   4.507   8.022 -0.1278 -0.1067  0.1126
    1W        W55638   8.555  28.414   7.221  0.0983 -0.1036  0.0862
    1W        W55639  24.409  20.704   8.321 -0.1760 -0.0235 -0.1407
    1W        W55640  24.482  16.399   9.276  0.0500 -0.2502  0.0355
    1W        W55641   9.571  12.938   1.949  0.0387 -0.0197  0.0755
    1W        W55642  21.104   9.962   9.261  0.1347 -0.0776 -0.0840
    1W        W55643   2.548  23.769   2.864 -0.1375 -0.1893 -0.2388
    1W        W55644   5.597  12.942   8.535 -0.0212 -0.2889 -0.0628
    1W        W55645  24.206  18.311   1.831 -0.0475 -0.2559  0.1947
    1W        W55646  29.577   9.052   1.202  0.1878  0.1694 -0.0482
    1W        W55647  14.387  18.820   1.548 -0.1236 -0.1174 -0.1876
    1W        W55648  15.164  13.662   1.313  0.3634  0.0583 -0.0983
    1W        W55649  23.279   4.228   0.968  0.2635  0.0247  0.3055
    1W        W55650   6.958  22.219   0.919  0.1214  0.4581  0.1074
    1W        W55651  29.012  26.796   8.510  0.3953 -0.0182  0.4448
    1W        W55652  22.118  12.107   9.606 -0.0503 -0.2908  0.0709
    1W        W55653  27.583  26.230   8.876 -0.2262  0.1381 -0.2574
    1W        W55654  13.861  29.522   8.535 -0.0180 -0.1794 -0.1830
    1W        W55655  17.624   4.113   1.891  0.0424  0.3401  0.1968
    1W        W55656   8.840  14.306   9.567 -0.0512  0.0645 -0.0909
    1W        W55657  20.661   3.322   7.801  0.0448  0.0942  0.0517
    1W        W55658  17.770  10.265   7.087  0.2901  0.0938  0.0771
    1W        W55659  13.994  19.824   5.442 -0.0572 -0.1070 -0.1042
    1W        W55660   1.435  14.724   0.968  0.1408 -0.0470  0.1611
    1W        W55661  15.794  17.396   8.553 -0.0639  0.0859 -0.2614
    1W        W55662   8.461   6.539   7.625 -0.1520  0.1228  0.1283
    1W        W55663  21.342   7.527   7.274 -0.3026 -0.0196  0.4385
    1W        W55664  22.590  24.136   2.402  0.1636  0.1471 -0.1905
    1W        W55665   9.393   6.636   2.026  0.0247  0.2902  0.5003
    1W        W55666   6.552   0.662   2.385 -0.0567 -0.1701  0.0173
    1W        W55667   9.414  23.803   6.772 -0.2919  0.4002  0.2244
    1W        W55668   3.844  18.147   3.137  0.2479 -0.1553  0.0635
    1W        W55669  17.463   2.706   0.413  0.2065  0.0745 -0.0605
    1W        W55670  25.797   7.071   0.685 -0.0130 -0.0232 -0.0049
    1W        W55671   1.504   7.437   9.075  0.3540  0.1763  0.1782
    1W        W55672  18.462  19.808   9.466 -0.2516 -0.1348  0.0748
    1W        W55673   6.705  23.641   7.207  0.1328 -0.2373  0.1262
    1W        W55674   7.123  11.989   0.420  0.2137 -0.0668  0.1534
    1W        W55675   2.623  18.226   0.077  0.1537 -0.1071  0.4812
    1W        W55676  24.587   1.911   7.094 -0.1777 -0.1197  0.0407
    1W        W55677  24.191  26.607   3.776  0.2817 -0.0012  0.1443
    1W        W55678  29.063  11.975   1.753 -0.1266  0.1664  0.0293
    1W        W55679  28.960  19.814   1.736 -0.3780  0.0799  0.0095
    1W        W55680   3.237   6.748   2.538  0.0487 -0.0019  0.1708
    1W        W55681  22.218   8.356   9.262  0.3812  0.1428  0.3026
    1W        W55682  20.940  21.790   8.582  0.1210 -0.1929 -0.0725
    1W        W55683  13.458  22.876   6.858 -0.4360 -0.1315  0.2773
    1W        W55684  28.566  27.914   2.244  0.0261 -0.0348 -0.0651
    1W        W55685   7.296  25.289   1.448 -0.2346 -0.1149  0.3365
    1W        W55686  26.180  23.614   1.992  0.0103  0.0646  0.0648
    1W        W55687  28.507  29.491   7.286 -0.1071 -0.2443 -0.2445
    1W        W55688  16.815  16.118   8.500  0.0745 -0.0483 -0.1446
    1W        W55689  26.415  10.938   0.354 -0.1831 -0.2627  0.0174
    1W        W55690  14.667  22.393   3.091 -0.0322 -0.1418  0.0394
    1W        W55691  14.552  23.689   7.487 -0.0088 -0.0826  0.0354
    1W        W55692  18.705  21.373   2.434  0.0675 -0.1345  0.1733
    1W        W55693  18.085  18.967   0.971 -0.3442  0.0635  0.4132
    1W        W55694  15.802   1.191   2.391 -0.2284  0.0910  0.0506
    1W        W55695   8.120  21.720   2.705  0.0325  0.1732  0.1503
    1W        W55696  14.971  11.809   0.290 -0.3178  0.0590 -0.1327
    1W        W55697  14.108  21.574   2.748  0.3044 -0.1708  0.2230
    1W        W55698   1.280  23.807   0.037  0.0273 -0.0395  0.0652
    1W        W55699  13.324  26.991   0.227 -0.0830  0.0543 -0.2041
    1W        W55700   3.946  26.740   1.367 -0.0192 -0.0254 -0.0890
    1W        W55701  11.717   0.778   8.544 -0.1362 -0.2571 -0.1541
    1W        W55702  23.176  24.101   4.503 -0.3624  0.0172  0.1484
    1W        W55703  14.940  12.964   7.242  0.1122 -0.1735  0.0691
    1W        W55704  24.282  16.741   0.018  0.0321  0.1931 -0.2091
    1W        W55705  21.707  18.384   1.031 -0.1180 -0.0118 -0.2088
    1W        W55706   1.455  10.143   8.766 -0.1219  0.1646  0.0815
    1W        W55707   5.505  27.251   0.376 -0.0929  0.0607 -0.2557
    1W        W55708   5.098   2.210   8.947  0.3560 -0.0221 -0.1309
    1W        W55709  22.245  28.449   8.627 -0.3275  0.2496  0.0356
    1W        W55710   1.730  14.636   0.518  0.0071  0.1484 -0.3202
    1W        W55711  28.121  17.220   2.288 -0.4145  0.0470 -0.1569
    1W        W55712  27.761  20.778   2.043  0.2055 -0.0623  0.3292
    1W        W55713   3.425  20.799   1.721  0.1217  0.2456  0.4610
    1W        W55714  11.813  20.465   9.463 -0.1685 -0.1811  0.3262
    1W        W55715  18.853  21.704   0.763 -0.1016 -0.1985 -0.3272
    1W        W55716  15.688  25.276   0.777 -0.0146  0.2334  0.0386
    1W        W55717   4.442   8.953   1.008 -0.1426 -0.4487  0.0032
    1W        W55718  18.770  10.375   8.240  0.0978  0.0338 -0.1552
    1W        W55719  10.824  17.007   8.424 -0.1273  0.1215 -0.2302
    1W        W55720  12.256  20.831   0.184 -0.1349  0.0426 -0.0691
    1W        W55721  12.026  27.844   7.784 -0.0767  0.1743 -0.1025
    1W        W55722  26.716  22.219   2.796 -0.0324 -0.0755  0.1571
    1W        W55723  19.306  10.124   9.576 -0.0884 -0.1230 -0.1469
    1W        W55724   9.438  18.826   7.800 -0.0525 -0.0774 -0.0242
    1W        W55725  18.372   2.167   0.244  0.0078 -0.1205  0.1475
    1W        W55726   8.723   9.173   6.404  0.1336 -0.1902 -0.0882
    1W        W55727  25.824   3.326   8.495 -0.0312  0.2384  0.1242
    1W        W55728  26.988  22.976   1.691  0.2258 -0.0407 -0.2248
    1W        W55729   2.734  14.733   8.008  0.0180 -0.0383  0.1733
    1W        W55730   1.561  18.891   2.981 -0.1892 -0.2987 -0.2502
    1W        W55731   1.610  12.426   1.263  0.0405  0.2654 -0.3134
    1W        W55732  12.271  14.902   7.648 -0.0364  0.0041  0.1661
    1W        W55733   0.272   4.780   2.481  0.0503 -0.1853  0.3875
    1W        W55734   3.687  11.417   9.561 -0.1522 -0.2306  0.1704
    1W        W55735  15.510  23.306   2.911 -0.0032 -0.0480 -0.1337
    1W        W55736  19.854   0.370   7.543  0.4149 -0.0112  0.0973
    1W        W55737  29.558  22.712   8.290  0.1183 -0.1056  0.1461
    1W        W55738  11.253  27.991   6.419 -0.3963  0.2729  0.0147
    1W        W55739  12.811  12.476   7.751  0.2882 -0.1642  0.0709
    1W        W55740  25.159  29.304   1.134 -0.2176 -0.1324 -0.0232
    1W        W55741   7.432  29.404   6.157 -0.0485 -0.0356 -0.1351
    1W        W55742  16.791   9.808   7.840  0.1185  0.1531 -0.2940
    1W        W55743  29.496  26.741   3.095  0.2719 -0.0512 -0.0051
    1W        W55744  28.236  23.482   2.281  0.0162  0.0032  0.2881
    1W        W55745   0.473   7.682   0.294  0.2372  0.2861 -0.3641
    1W        W55746  28.785   5.761   8.494 -0.0732 -0.1631  0.3681
    1W        W55747  14.665  22.826   0.757  0.2103 -0.0023  0.0704
    1W        W55748  11.823   4.275   1.315  0.3261 -0.1035  0.3126
    1W        W55749  24.027  16.138   3.197  0.1611  0.3193 -0.0697
    1W        W55750  22.387  22.647   7.434  0.0280  0.4071 -0.1486
    1W        W55751   5.494  26.103   8.612  0.0680  0.1851  0.3494
    1W        W55752   3.792   1.534   7.087  0.2767  0.1183 -0.0950
    1W        W55753   9.226  25.449   2.029  0.2873  0.0598  0.0922
    1W        W55754   7.570  23.030   0.775  0.2947  0.1530 -0.1852
    1W        W55755  11.961  21.435   7.121  0.0593  0.0881 -0.1603
    1W        W55756  11.186   3.367   7.973  0.2229 -0.1168  0.5285
    1W        W55757   2.362  23.701   3.636  0.2246  0.2606 -0.1935
    1W        W55758   3.773  24.911   0.520  0.1599  0.0258 -0.0215
    1W        W55759   8.546  18.670   0.240  0.2891  0.2090  0.3605
    1W        W55760   6.524  22.771   7.641  0.0671  0.0051 -0.1739
    1W        W55761   5.727   2.078   0.119 -0.3128 -0.3228  0.2888
    1W        W55762   1.645   5.721   9.252 -0.3097  0.0914 -0.0075
    1W        W55763  18.202   8.473   1.580 -0.2241  0.0496 -0.0331
    1W        W55764  16.978  24.968   0.125 -0.2646 -0.2218 -0.0062
    1W        W55765  23.575  26.721   0.512  0.0993  0.2445  0.2119
    1W        W55766   0.815   0.168   1.663  0.0660  0.4980  0.0042
    1W        W55767  10.813  10.447   8.086 -0.2476 -0.2110 -0.1079
    1W        W55768  22.846  24.696   7.642  0.3991  0.2523 -0.0247
    1W        W55769  11.164  18.955   2.002 -0.1765  0.2200  0.0147
    1W        W55770   6.406  28.374   0.356  0.0502  0.0147  0.1324
    1W        W55771  18.329  14.079   0.854  0.1571  0.1438 -0.0046
    1W        W55772  12.579  20.849   0.889  0.2192  0.2172  0.1648
    1W        W55773  13.234  12.626   2.334  0.1684  0.3246 -0.0397
    1W        W55774  14.117  13.106   3.406  0.5218  0.0930  0.0898
    1W        W55775  27.091   7.197   6.774  0.0242 -0.1432  0.1179
    1W        W55776  26.006  12.592   1.200 -0.0057 -0.0043  0.0559
    1W        W55777   4.579  11.144   7.475  0.0151 -0.0258 -0.0739
    1W        W55778   4.967   0.782   1.080 -0.1667 -0.1804  0.2847
    1W        W55779   0.678  27.005   0.192 -0.5632 -0.2051  0.0056
    1W        W55780  18.496   5.304   7.497 -0.0631 -0.1961  0.0534
    1W        W55781   5.622  23.831   9.111  0.0273  0.2819  0.0127
    1W        W55782  11.574  26.572   9.173 -0.1969 -0.1151  0.2004
    1W        W55783  19.262  27.908   2.165  0.0262  0.2783  0.0432
    1W        W55784   9.287  17.817   6.387  0.0486  0.0495 -0.0419
    1W        W55785  19.162  28.719   8.044  0.2380 -0.3603  0.1050
    1W        W55786  26.180  16.546   0.267 -0.3197  0.0532  0.0754
    1W        W55787   8.671  23.222   2.751  0.2571  0.5939 -0.2146
    1W        W55788  17.397  12.010   2.342 -0.1293 -0.2548 -0.0396
    1W        W55789  27.897  24.482   7.353 -0.1978  0.1260 -0.1497
    1W        W55790   3.599  11.541   6.341  0.2182 -0.0855  0.0640
    1W        W55791  18.543  21.507   8.065  0.2970 -0.0316  0.1241
    1W        W55792  15.105   5.021   1.866  0.1870 -0.1869 -0.0685
    1W        W55793  10.399  14.977   6.288 -0.0876 -0.1422  0.2259
    1W        W55794  26.689   0.018   9.559  0.0699  0.0648 -0.0919
    1W        W55795   5.605  13.979   9.406 -0.3518  0.3982  0.3296
    1W        W55796  21.449  27.038   0.674  0.0444  0.0779  0.3327
    1W        W55797  16.805   8.421   6.965  0.2454 -0.0846 -0.1006
    1W        W55798  14.479   9.898   0.273  0.2145  0.1184  0.2400
    1W        W55799   8.891  14.075   7.486  0.2976 -0.1035  0.1185
    1W        W55800   6.130  13.326   0.823 -0.0094 -0.1417 -0.0391
    1W        W55801   0.762  19.307   2.354  0.1570 -0.4085  0.1940
    1W        W55802  25.553   5.295   9.205 -0.4007 -0.2645  0.0783
    1W        W55803  22.976  18.755   7.620 -0.1924  0.3788 -0.3224
    1W        W55804  16.148   0.541   8.711 -0.0291  0.0794 -0.1820
    1W        W55805  13.959  28.377   0.542  0.1862 -0.0761 -0.1524
    1W        W55806   5.344   1.469   3.206 -0.1017  0.0320 -0.1337
    1W        W55807  16.551  27.692   6.693 -0.0417 -0.1101 -0.2745
    1W        W55808   7.533  28.853   2.235 -0.0747 -0.0781 -0.2402
    1W        W55809  20.630   4.146   7.300  0.1510 -0.3340  0.2436
    1W        W55810  18.060  22.811   1.405  0.1641  0.2973  0.1504
    1W        W55811  27.976   6.352   8.858 -0.0825  0.0540 -0.1967
    1W        W55812   8.889  14.509   7.129 -0.0922  0.1954  0.2073
    1W        W55813   9.470  23.319   7.055  0.0464  0.1770 -0.0163
    1W        W55814  18.122  26.723   3.184  0.1562 -0.2281  0.0808
    1W        W55815   8.352  14.945   9.253 -0.0383 -0.1872 -0.0070
    1W        W55816   8.488  28.725   8.821  0.3000 -0.3716 -0.3543
    1W        W55817  25.644  28.428   9.246  0.0684  0.1382 -0.0917
    1W        W55818  11.753  23.540   1.608  0.1753 -0.3348 -0.4803
    1W        W55819   0.729  23.838   0.095  0.0247 -0.2152 -0.0670
    1W        W55820  24.860  26.293   2.498  0.3487  0.1447 -0.2905
    1W        W55821  23.903  17.225   8.536  0.0315  0.2280 -0.0657
    1W        W55822  23.863  20.678   8.453  0.2038  0.0799 -0.1497
    1W        W55823   0.884  27.171   8.378  0.2692  0.1736 -0.3121
    1W        W55824  11.393   7.429   7.606 -0.2203 -0.1579  0.1915
    1W        W55825   3.519   1.047   0.185 -0.3291 -0.1020 -0.0843
    1W        W55826  26.356  24.237   9.244  0.1207 -0.1570 -0.1099
    1W        W55827   6.569  25.442   0.390  0.2244 -0.1641  0.1893
    1W        W55828  28.116  23.906   2.787  0.0719  0.0962  0.0719
    1W        W55829  17.673  17.900   1.351 -0.2157 -0.0624  0.2642
    1W        W55830  26.570   6.374   7.677 -0.2951  0.1628 -0.1078
    1W        W55831   5.689  23.863   2.797 -0.0682 -0.1101 -0.2224
    1W        W55832  13.416  10.216   1.108  0.1916  0.0624 -0.2959
    1W        W55833  10.766  27.341   9.541 -0.0494 -0.1141  0.1110
    1W        W55834   9.423   7.440   6.998  0.1304 -0.2629  0.0396
    1W        W55835  27.615  15.808   1.106 -0.1953  0.0665  0.1463
    1W        W55836   0.202  29.558   2.539  0.1491  0.3630 -0.4204
    1W        W55837  13.733   1.318   8.733  0.2410  0.2063 -0.1258
    1W        W55838  24.324  20.545   9.387 -0.3199  0.3407  0.1029
    1W        W55839   0.367   9.159   0.960  0.3906  0.0544  0.0400
    1W        W55840  26.545   0.282   3.176  0.0915  0.2292 -0.1581
    1W        W55841   2.727   0.294   7.130 -0.4726 -0.0129  0.1672
    1W        W55842  23.543   3.469   9.239 -0.0290  0.1436 -0.0534
    1W        W55843  26.699   8.209   1.059 -0.0600  0.0623  0.1075
    1W        W55844   3.729  28.785   6.494  0.2766 -0.0101 -0.1388
    1W        W55845   3.502  16.538   8.864  0.1299 -0.0787  0.2482
    1W        W55846  27.894   9.065   1.774 -0.4244  0.1187  0.1777
    1W        W55847   8.885  27.136   6.495 -0.4343 -0.0063  0.3483
    1W        W55848  22.170  29.023   2.637  0.2919  0.2307 -0.1416
    1W        W55849  14.463  10.140   8.044 -0.2670 -0.2302  0.1135
    1W        W55850  18.389  28.747   0.944  0.2588 -0.1076 -0.0752
    1W        W55851   3.541   7.105   7.416  0.1115 -0.3072 -0.0194
    1W        W55852  17.429  13.201   1.878 -0.0584  0.3268  0.1727
    1W        W55853   1.639   4.067   9.429  0.1207 -0.1395  0.1756
    1W        W55854  24.513  12.352   8.269  0.2521 -0.2267 -0.1631
    1W        W55855   0.328  15.843   0.947  0.2814  0.1630  0.1228
    1W        W55856   6.529  24.549   1.741  0.3384 -0.0894 -0.3435
    1W        W55857   6.737   8.886   1.003 -0.0521  0.0604 -0.0505
    1W        W55858  22.941  20.276   8.658 -0.0720 -0.2164  0.2122
    1W        W55859  23.301   0.066   3.014 -0.1956 -0.1495 -0.4681
    1W        W55860  19.127  14.579   8.192  0.1174  0.0641 -0.0490
    1W        W55861  23.301  13.901   2.548  0.1017 -0.1051 -0.1748
    1W        W55862   9.023  22.693   9.222  0.0360  0.0604  0.0201
    1W        W55863  29.008  14.755   1.563  0.0818  0.1378  0.1231
    1W        W55864  14.880  17.922   1.776  0.0007 -0.1728 -0.1065
    1W        W55865  22.031  25.910   8.008 -0.4318 -0.1322  0.1754
    1W        W55866  12.215  10.864   0.881  0.1822 -0.0767 -0.0087
    1W        W55867  26.860  16.213   1.449 -0.1074 -0.2743  0.2601
    1W        W55868  11.148  24.524   7.399  0.1660  0.1287 -0.1078
    1W        W55869  21.148  28.534   3.608 -0.0536 -0.1173 -0.1433
    1W        W55870  23.444   9.444   9.408  0.3795 -0.2236 -0.0670
    1W        W55871  26.778   5.337   8.764 -0.1626 -0.0459 -0.2152
    1W        W55872  14.234  19.124   2.050 -0.4618 -0.1203  0.2494
    1W        W55873  15.963  19.594   6.965 -0.1747  0.0215 -0.1342
    1W        W55874  28.592  27.004   2.844 -0.2791  0.1967  0.1223
    1W        W55875   1.123   2.799   2.734 -0.2887 -0.0995  0.2292
    1W        W55876  11.956  24.855   7.951 -0.1311 -0.2132  0.3709
    1W        W55877  26.742   6.351   8.870  0.3089 -0.1074 -0.2358
    1W        W55878   8.235   3.167   1.488  0.2096 -0.2373  0.0008
    1W        W55879   9.850  18.350   0.233 -0.3061  0.3150  0.3290
    1W        W55880  22.685  16.148   8.133 -0.1959 -0.4617 -0.0829
    1W        W55881  27.201  10.465   1.408 -0.2205  0.2902 -0.1463
    1W        W55882   8.136  28.638   0.633  0.2439  0.0734  0.1603
    1W        W55883  13.358  19.341   7.778 -0.2595  0.0654  0.1642
    1W        W55884   5.700   4.764   2.779  0.0284  0.2080  0.4128
    1W        W55885   9.387  14.828   8.505 -0.0024 -0.0973  0.1130
    1W        W55886  16.040  14.367   7.676  0.0288  0.2519 -0.2203
    1W        W55887  23.607   9.660   1.243 -0.2555  0.0796 -0.1339
    1W        W55888  24.004  24.310   9.494 -0.0658  0.2843 -0.0409
    1W        W55889   9.908  17.299   7.688 -0.2301  0.3227  0.2261
    1W        W55890  24.158  22.639   8.012 -0.1155  0.1849  0.0280
    1W        W55891  28.853  26.062   6.073  0.0128 -0.0706  0.1637
    1W        W55892  13.250  21.595   8.741  0.0640 -0.2008 -0.3793
    1W        W55893   7.601  29.513   0.969  0.0946  0.5722  0.2657
    1W        W55894   0.864  19.618   8.640 -0.2827  0.3321  0.0755
    1W        W55895  28.508  17.097   8.003  0.1718  0.0788 -0.2490
    1W        W55896   8.660  21.273   8.365 -0.1257 -0.2206  0.1424
    1W        W55897  20.217   0.882   3.233 -0.3170  0.5454 -0.1061
    1W        W55898  23.765  16.412   9.478 -0.0082 -0.2220 -0.1369
    1W        W55899  14.229  13.278   9.041  0.2373 -0.0132 -0.3038
    1W        W55900  10.745  26.832   7.231  0.0130  0.2674  0.1837
    1W        W55901   9.526   6.925   7.121 -0.0730 -0.0813 -0.1507
    1W        W55902   5.379  24.852   1.645 -0.0079  0.1495  0.0720
    1W        W55903  17.408  10.381   7.570 -0.0265  0.1908  0.2148
    1W        W55904  28.075   4.190   1.827 -0.0725  0.2557  0.1077
    1W        W55905   3.053  20.895   2.040 -0.0313 -0.2703 -0.0217
    1W        W55906   1.581   6.666   8.811 -0.0333  0.1321  0.2617
    1W        W55907  18.084   5.370   9.620  0.0687 -0.4432 -0.2547
    1W        W55908  10.108   9.120   1.798  0.2167 -0.0148 -0.0418
    1W        W55909  18.744   1.181   2.733  0.1096 -0.0829  0.1361
    1W        W55910  13.595  23.408   6.092 -0.2365 -0.0220 -0.3155
    1W        W55911  14.395  15.179   7.455 -0.1282 -0.3146 -0.2855
    1W        W55912   7.347  15.130   1.765 -0.3085  0.1575 -0.0679
    1W        W55913  10.917  14.744   7.233 -0.1052  0.1031 -0.4973
    1W        W55914   2.945  26.964   7.342  0.3110  0.4025  0.1787
    1W        W55915   3.935   7.773   0.265 -0.1284  0.3454  0.0157
    1W        W55916  15.023   4.490   2.101 -0.0517 -0.2212  0.1354
    1W        W55917   1.928  11.996   7.045 -0.3903 -0.0608 -0.2733
    1W        W55918  27.833  26.654   1.349  0.2798 -0.0689 -0.1014
    1W        W55919  17.485  22.341   9.363 -0.0038  0.0446 -0.2408
    1W        W55920   8.601   5.363   5.808  0.0712  0.5002 -0.0044
    1W        W55921  11.378  23.205   1.742  0.1985  0.1727  0.2745
    1W        W55922   2.438  25.474   9.390  0.2239 -0.1647 -0.1151
    1W        W55923   9.524   9.621   1.982 -0.1878  0.2034 -0.1832
    1W        W55924  27.598  29.245   0.075  0.2979 -0.1178 -0.1984
    1W        W55925  27.255  28.801   0.044 -0.1619 -0.2334  0.0416
    1W        W55926  15.387  28.248   2.059 -0.3958  0.1633 -0.0268
    1W        W55927  25.370   0.433   2.636  0.1295 -0.2587  0.2218
    1W        W55928  10.950  27.738   1.382 -0.3377  0.1074 -0.0211
    1W        W55929  15.773  13.235   7.893  0.0444 -0.0531 -0.1768
    1W        W55930  28.638   7.475   8.968  0.1457  0.2077 -0.3006
    1W        W55931  14.516   8.391   1.871  0.0025  0.0375  0.2971
    1W        W55932  24.428   2.966   9.061  0.1173  0.0201 -0.0260
    1W        W55933  18.256  23.073   7.021 -0.3705 -0.1755 -0.2487
    1W        W55934  18.241   0.895   1.298  0.1434  0.0165 -0.4087
    1W        W55935   1.399  27.509   8.073 -0.0803  0.1469 -0.0419
    1W        W55936  10.395  20.414   1.897 -0.3597  0.1876  0.0332
    1W        W55937  11.941  23.667   1.169  0.0795  0.0310  0.1711
    1W        W55938   0.023   7.485   0.674  0.1899  0.0711  0.2735
    1W        W55939   6.514  25.629   8.637  0.3738 -0.3415  0.0126
    1W        W55940   7.905   0.313   8.246  0.0016  0.1530 -0.2609
    1W        W55941   5.312   7.212   0.337 -0.0151  0.1378 -0.2653
    1W        W55942  11.838   0.489   1.447 -0.0075  0.0089 -0.0340
    1W        W55943  21.691  10.414   0.064 -0.3274 -0.1671 -0.2067
    1W        W55944   8.931  28.570   6.914 -0.0215 -0.1610  0.1824
    1W        W55945  10.499  25.622   2.208  0.1090  0.3889 -0.1856
    1W        W55946   8.714  21.537   0.574 -0.0308 -0.2272  0.1238
    1W        W55947  26.039  15.605   1.149  0.0861 -0.1256 -0.1776
    1W        W55948   8.267  18.279   7.044 -0.2651  0.0135  0.1139
    1W        W55949   6.879   9.068   9.195 -0.2906 -0.0468  0.0928
    1W        W55950   4.068  11.343   6.835 -0.1103  0.0814  0.2546
    1W        W55951  26.036   4.596   8.509 -0.1927  0.0862 -0.2222
    1W        W55952  20.722  26.997   7.616 -0.1905  0.0805 -0.1883
    1W        W55953   8.733   1.468   2.103  0.0429  0.2926  0.1302
    1W        W55954  28.620  13.429   8.803 -0.1784  0.0428 -0.0393
    1W        W55955  21.878  24.912   8.860 -0.0117 -0.0507 -0.1431
    1W        W55956   6.843  16.031   1.520  0.1722 -0.1259  0.3635
    1W        W55957  24.875  21.351   8.786  0.1484  0.0042  0.1847
    1W        W55958   7.596  17.188   6.870  0.1249 -0.0050 -0.1558
    1W        W55959   1.677  21.935   2.165  0.0178 -0.0528  0.2022
    1W        W55960  25.992  19.663   1.060  0.1947  0.2518  0.0158
    1W        W55961  25.614   3.201   0.311 -0.2981  0.1765 -0.0355
    1W        W55962   4.434   2.033   2.330  0.0635  0.0894  0.1977
    1W        W55963  11.046  19.388   8.119 -0.1133  0.3313  0.1848
    1W        W55964  23.094  21.247   8.299  0.0435 -0.0522  0.3319
    1W        W55965   8.437  24.268   0.441  0.1867  0.1441 -0.1107
    1W        W55966  22.867  15.308   3.512  0.2776 -0.0174  0.2155
    1W        W55967  22.726  24.829   3.632  0.2439  0.0535 -0.1450
    1W        W55968   4.789  19.031   7.884  0.1791 -0.0008  0.0079
    1W        W55969  28.346  19.493   1.150 -0.0062 -0.1496  0.1933
    1W        W55970  19.138   7.722   1.723  0.0631 -0.2425 -0.1301
    1W        W55971  25.420  26.025   1.941  0.1517 -0.0280  0.0984
    1W        W55972  19.536  12.406   7.653 -0.1223 -0.0702 -0.1508
    1W        W55973  17.262  29.364   8.650  0.3230 -0.0018  0.1447
    1W        W55974   5.499  16.221   9.023 -0.2387 -0.0072  0.0833
    1W        W55975   4.494  27.044   0.659 -0.1227  0.0654 -0.2236
    1W        W55976   4.938  16.924   8.739  0.0492 -0.5591 -0.0884
    1W        W55977  24.620   5.251   6.791 -0.0709 -0.1128  0.3207
    1W        W55978   5.919  24.538   0.230  0.2101 -0.1522 -0.3662
    1W        W55979   6.152  14.047   8.518 -0.1261 -0.2647  0.2709
    1W        W55980  15.445  25.903   8.681  0.2033 -0.0852 -0.2078
    1W        W55981  11.948  18.881   1.429 -0.3318 -0.1206  0.0626
    1W        W55982  25.760  21.818   3.176 -0.3170  0.3794 -0.1129
    1W        W55983  22.200   2.296   0.257 -0.0230  0.0995  0.1037
    1W        W55984  26.008   3.763   8.042  0.1952 -0.2177 -0.0631
    1W        W55985  19.531  29.127   7.949 -0.2765 -0.1042 -0.0581
    1W        W55986   3.276   1.475   1.645  0.2231  0.2375  0.1727
    1W        W55987   9.802  19.336   0.219 -0.1508  0.1094 -0.0353
    1W        W55988   8.150  16.891   2.855  0.0727  0.1567 -0.0543
    1W        W55989  19.444  13.551   2.602 -0.1375 -0.4107 -0.0289
    1W        W55990  27.156   8.795   2.258  0.0207 -0.1974 -0.1922
    1W        W55991  10.904  21.786   8.808  0.1264  0.0601 -0.0798
    1W        W55992   3.767  22.392   7.606  0.0778 -0.0862 -0.0627
    1W        W55993   3.272   8.074   0.978 -0.2156 -0.1806  0.0370
    1W        W55994  25.846  11.534   1.960  0.0780 -0.2420 -0.0003
    1W        W55995  27.196  15.459   2.285  0.0895  0.3425  0.2129
    1W        W55996  16.656  19.614   8.000 -0.1903  0.0490  0.0979
    1W        W55997  10.952  12.641   9.548 -0.1699  0.1047  0.3372
    1W        W55998  12.268  12.184   6.031  0.0958 -0.0776  0.1129
    1W        W55999  28.244   3.314   0.822 -0.3626  0.2723  0.2644
    1W        W56000  11.960   8.236   6.907  0.4579  0.2300 -0.4879
    1W        W56001  16.132  10.025   7.788  0.0002  0.0268  0.4080
    1W        W56002  28.814   5.576   1.031 -0.0862 -0.1619  0.1953
    1W        W56003  23.184  18.664   8.446 -0.2506  0.2930 -0.0322
    1W        W56004   2.882   4.484   9.254 -0.1037 -0.1432  0.1786
    1W        W56005   4.767  26.424   3.004  0.1473 -0.2005 -0.2818
    1W        W56006  12.984   9.347   9.284 -0.0800 -0.2476 -0.1728
    1W        W56007   1.625  15.924   0.861  0.3087 -0.1925  0.1482
    1W        W56008  16.554   1.544   2.696  0.0659 -0.1463  0.2694
    1W        W56009  12.924  22.967   0.582  0.1500  0.0804  0.2128
    1W        W56010   0.813  22.912   7.026  0.0542 -0.0460 -0.0161
    1W        W56011   8.319  16.827   6.423 -0.1177 -0.1420  0.2784
    1W        W56012  19.224   5.814   8.436 -0.3687 -0.1714  0.1764
    1W        W56013  22.488  15.062   0.091 -0.0709  0.2842  0.0015
    1W        W56014  15.104  12.601   0.685 -0.1197 -0.0361  0.0501
    1W        W56015  12.736  19.395   2.550 -0.0800 -0.3848  0.0233
    1W        W56016  11.516  20.826   7.108  0.1047  0.3952 -0.2191
    1W        W56017  17.713  23.194   1.850 -0.2402  0.2038 -0.0634
    1W        W56018  12.087   3.706   6.987 -0.2823 -0.0026 -0.2842
    1W        W56019  10.180  13.028   0.299  0.1312 -0.0345 -0.1192
    1W        W56020   1.626  13.183   8.047 -0.4312 -0.0969 -0.0283
    1W        W56021   2.429  17.978   9.130  0.1544 -0.0478  0.3379
    1W        W56022  22.290  24.586   8.793  0.0089  0.1359 -0.0495
    1W        W56023  22.236  18.662   8.248  0.0642 -0.2050 -0.2766
    1W        W56024   6.917  10.016   7.007  0.1018  0.1245  0.0078
    1W        W56025  14.657   6.250   7.985  0.0487  0.0285 -0.2071
    1W        W56026   1.353   9.456   7.010 -0.0969  0.1426 -0.2233
    1W        W56027   8.229  22.972   7.612  0.1678 -0.1496  0.5056
    1W        W56028  14.472  20.297   3.023  0.2016  0.0758 -0.1450
    1W        W56029   9.688  17.709   0.399 -0.1933 -0.1568  0.3117
    1W        W56030   4.348  27.604   2.480 -0.0167  0.0945  0.2264
    1W        W56031  10.723   9.613   1.614  0.2118 -0.2019  0.0664
    1W        W56032   3.009  14.514   8.357  0.1442  0.1003 -0.1936
    1W        W56033  22.183  26.859   8.715 -0.0639  0.0867 -0.0086
    1W        W56034  11.573   9.589   0.374 -0.2745  0.0296  0.2150
    1W        W56035  15.064  11.283   1.439 -0.1743 -0.4128  0.1688
    1W        W56036   9.595  19.516   7.054 -0.0125 -0.1467  0.0653
    1W        W56037  13.732  10.198   2.068  0.1548 -0.2086  0.1207
    1W        W56038  22.104   9.811   8.137 -0.1569 -0.0442  0.2656
    1W        W56039  17.355  25.373   2.309  0.1651  0.0622  0.0417
    1W        W56040  16.712   6.473   8.540  0.0756  0.2630  0.0700
    1W        W56041  17.488  15.656   0.908  0.3500  0.1563 -0.2804
    1W        W56042   4.806  12.471   5.967  0.0942  0.1528 -0.1799
    1W        W56043   0.908  10.651   1.640 -0.2109  0.0875 -0.1992
    1W        W56044   8.401  20.226   1.150  0.0214 -0.1702 -0.2823
    1W        W56045  28.408  18.883   9.494  0.0954  0.1992 -0.0768
    1W        W56046   3.462   7.053   6.237  0.0061 -0.0023 -0.2085
    1W        W56047   1.316  22.808   2.584  0.0897  0.0249 -0.0246
    1W        W56048   6.855  13.538   6.041 -0.0614 -0.2134 -0.0903
    1W        W56049  16.336  11.900   1.686  0.1972  0.0615  0.4495
    1W        W56050  20.849  16.723   1.741  0.1902  0.1149  0.3716
    1W        W56051  18.947  17.000   0.822 -0.2440 -0.2096  0.0958
    1W        W56052   7.039  17.621   1.712  0.0205 -0.1177 -0.0975
    1W        W56053  18.750   1.959   0.484  0.0254 -0.1097 -0.0369
    1W        W56054   6.751  16.391   8.766 -0.1140 -0.0039  0.1168
    1W        W56055   8.764   8.109   8.496  0.2473  0.1684 -0.3178
    1W        W56056  22.106  21.265   8.171  0.0458  0.2640 -0.0926
    1W        W56057   2.293  24.333   8.437  0.1340  0.0152 -0.1040
    1W        W56058   6.221   0.174   1.986  0.2451  0.1912  0.2049
    1W        W56059  18.696  16.517   1.635  0.2003  0.3567 -0.0175
    1W        W56060   4.041  19.447   1.247  0.0891 -0.0334 -0.0536
    1W        W56061  25.328   8.811   9.203 -0.0173 -0.0749  0.0698
    1W        W56062   4.079  20.710   7.877  0.1822  0.1127  0.1201
    1W        W56063   8.179   6.917   8.337  0.3095  0.0812 -0.0588
    1W        W56064   6.370  17.871   9.174  0.1629  0.0724 -0.1842
    1W        W56065  21.771  19.299   1.542 -0.2208  0.0124  0.0061
    1W        W56066  23.383  24.595   7.558  0.1987 -0.1004  0.0998
    1W        W56067  27.960  24.020   8.640  0.0164  0.0594  0.2164
    1W        W56068   0.905   1.014   7.489  0.0306  0.0557 -0.3748
    1W        W56069  16.442  19.679   9.190 -0.0868 -0.1174  0.2645
    1W        W56070  23.826  20.666   6.632 -0.3400  0.1154  0.0361
    1W        W56071   5.305  26.801   7.783 -0.0417 -0.0281 -0.1436
    1W        W56072   4.572  11.905   8.522 -0.3209  0.0732 -0.4043
    1W        W56073  26.963  17.454   7.480  0.1231  0.0656  0.0706
    1W        W56074  25.829  12.602   9.638  0.0589 -0.1187  0.1271
    1W        W56075  15.461  11.606   0.210 -0.1579 -0.0055 -0.0210
    1W        W56076   7.256   0.931   9.426  0.1024  0.1496  0.2264
    1W        W56077   0.042  28.353   1.006  0.1453 -0.0956  0.1559
    1W        W56078  13.488  15.825   8.750 -0.3666  0.0556 -0.0094
    1W        W56079  25.099  10.636   0.827  0.0639 -0.0428 -0.1522
    1W        W56080  26.844   4.660   8.198  0.2531 -0.2764 -0.3143
    1W        W56081   1.454  27.496   9.435 -0.0889  0.0637 -0.1324
    1W        W56082  20.366  20.486   2.088 -0.0761  0.0221 -0.1062
    1W        W56083   1.628   2.944   0.650 -0.1514 -0.1783 -0.0898
    1W        W56084  19.520  26.981   7.982  0.0168  0.0810 -0.1685
    1W        W56085   3.257  11.712   8.872 -0.3836  0.2331  0.2425
    1W        W56086  22.012  27.626   2.298 -0.0236  0.1810 -0.0558
    1W        W56087  25.451  16.699   0.437 -0.1532 -0.1562 -0.2732
    1W        W56088   1.514   0.204   8.448 -0.1589  0.0557 -0.2293
    1W        W56089   1.076   5.874   6.375 -0.0489 -0.3071  0.1060
    1W        W56090  16.573  22.360   3.250 -0.1682  0.0100  0.0551
    1W        W56091  11.076  27.056   7.632  0.1076 -0.0656  0.0625
    1W        W56092  20.884  19.065   1.522 -0.1609 -0.0176  0.0290
    1W        W56093   7.833  14.262   0.138  0.1170  0.0976 -0.0585
    1W        W56094   5.193  20.414   3.520 -0.1372 -0.0433  0.0587
    1W        W56095   1.402  21.351   8.278  0.0859 -0.1897 -0.0437
    1W        W56096  18.020  23.627   1.928 -0.0099 -0.2794 -0.0646
    1W        W56097  17.315   9.001   2.801 -0.2385 -0.3416 -0.0383
    1W        W56098  27.211   1.101   2.363  0.3160 -0.2435  0.3148
    1W        W56099  14.740  24.981   1.424  0.0736  0.1313 -0.3262
    1W        W56100  17.455  27.237   0.930 -0.1583 -0.2332  0.2279
    1W        W56101   8.155   4.811   6.651  0.1515 -0.0681  0.0184
    1W        W56102  24.643   4.228   0.781 -0.1709 -0.1193 -0.0945
    1W        W56103  15.784  20.710   8.566 -0.1234  0.1350  0.0496
    1W        W56104  14.542  13.158   7.054 -0.0829  0.0622 -0.0873
    1W        W56105   1.604  12.753   7.761  0.2436 -0.0464 -0.0924
    1W        W56106  13.970   9.139   0.776  0.3272  0.0809  0.1378
    1W        W56107  11.636   1.150   6.376  0.0084 -0.0440 -0.3308
    1W        W56108   3.142  16.112   9.294  0.1604 -0.2386  0.0705
    1W        W56109  24.257   1.578   9.352  0.1427  0.0887  0.1678
    1W        W56110  15.723  26.967   6.856 -0.3930  0.0262 -0.0652
    1W        W56111  22.829   0.676   8.839 -0.1753  0.0149 -0.1654
    1W        W56112  25.244   1.428   2.443 -0.0330  0.0776  0.0831
    1W        W56113  20.002  22.071   0.951  0.2806 -0.1069  0.0191
    1W        W56114  22.783  24.297   3.750  0.1510 -0.1436  0.1588
    1W        W56115  28.255  25.642   1.893  0.0525 -0.1827  0.0784
    1W        W56116   3.527   4.582   1.754 -0.1888  0.0843  0.1597
    1W        W56117  15.166   6.091   8.112 -0.0039 -0.1771 -0.1761
    1W        W56118   1.013  15.804   7.465  0.1308  0.1884  0.2051
    1W        W56119  29.387  27.198   3.981  0.1325  0.2029  0.0437
    1W        W56120   6.462  25.637   1.231  0.2095 -0.2932  0.2816
    1W        W56121  19.918   7.665   9.547  0.2805 -0.1222  0.1477
    1W        W56122  23.822   5.758   9.245 -0.0920  0.1361 -0.2977
    1W        W56123   3.000   6.518   8.767 -0.1239  0.2917  0.0421
    1W        W56124   3.270  24.071   7.938 -0.0837  0.0111 -0.3370
    1W        W56125  27.882  16.773   1.450 -0.0521  0.0661  0.0421
    1W        W56126   0.371  29.550   2.092 -0.4492  0.0801 -0.0512
    1W        W56127  16.948  10.072   7.487  0.0063  0.2969  0.2971
    1W        W56128  25.467  17.955   8.179 -0.0772  0.2000 -0.4775
    1W        W56129  17.419   6.998   0.264  0.0433  0.1211  0.0362
    1W        W56130   3.107  12.762   8.792  0.1905  0.1406 -0.2591
    1W        W56131  23.141   8.001   1.799  0.2197 -0.1888 -0.0617
    1W        W56132  28.995  14.754   7.051 -0.0632 -0.0773  0.0695
    1W        W56133  12.254   6.736   9.001  0.1693 -0.2346  0.0365
    1W        W56134  10.392  12.597   8.081 -0.1102 -0.0706 -0.0732
    1W        W56135  16.986  21.056   0.091 -0.0902  0.3205 -0.1421
    1W        W56136  19.150  22.533   8.605  0.1760 -0.0046 -0.0217
    1W        W56137  26.118  17.704   7.164 -0.2690  0.2743 -0.0153
    1W        W56138   9.097  11.736   9.354  0.2071  0.0130  0.0656
    1W        W56139  17.226  24.900   1.747  0.1561  0.3690 -0.3207
    1W        W56140  15.535  26.731   3.237 -0.3515  0.0184  0.2804
    1W        W56141  27.177  27.335   3.692 -0.0865  0.0284  0.1735
    1W        W56142  17.602  18.176   7.739 -0.1307 -0.2990  0.3380
    1W        W56143   4.064  19.743   0.279 -0.4481 -0.1063 -0.1166
    1W        W56144   4.025   3.181   7.157 -0.0583  0.0553 -0.0700
    1W        W56145  21.532   5.960   8.285  0.2824 -0.2535 -0.5557
    1W        W56146  16.825   4.588   9.335 -0.3144 -0.1781  0.0323
    1W        W56147   6.200  23.745   2.873 -0.0208 -0.1904  0.1058
    1W        W56148   0.197   8.939   8.722  0.2022 -0.0592 -0.1824
    1W        W56149  25.151   3.170   1.144 -0.2581 -0.1582  0.0029
    1W        W56150   0.209  25.949   2.669 -0.0131 -0.2418 -0.1291
    1W        W56151  23.370  10.435   0.434 -0.1700  0.2799 -0.3114
    1W        W56152  24.842  20.778   2.766  0.3012  0.0030  0.4540
    1W        W56153   3.175  20.364   1.668  0.1846 -0.0047 -0.1793
    1W        W56154  25.272   9.079   6.967 -0.1473  0.1333  0.4353
    1W        W56155   4.895  18.030   9.135  0.0995 -0.0522  0.1398
    1W        W56156  24.165  25.978   0.476  0.0350 -0.0692  0.2963
    1W        W56157  27.536  24.585   7.787 -0.1902 -0.2544  0.1870
    1W        W56158  13.142  23.877   7.232  0.1681 -0.1648  0.3957
    1W        W56159  28.305   5.049   8.493 -0.0783 -0.0003  0.2291
    1W        W56160  26.591  27.405   8.137  0.1750  0.0397  0.4461
    1W        W56161  10.685  16.490   8.340 -0.2610 -0.1004 -0.0347
    1W        W56162  14.331   3.143   7.749 -0.0006  0.0459 -0.2098
    1W        W56163  18.164   0.016   8.393 -0.3110  0.0974  0.2224
    1W        W56164  17.390  21.539   8.647 -0.2879 -0.0051 -0.4539
    1W        W56165  12.298   8.698   2.563 -0.1005 -0.1420  0.0769
    1W        W56166  24.455  19.404   0.797  0.0407  0.0770 -0.0899
    1W        W56167   8.294   2.285   7.621 -0.0453 -0.2646  0.0759
    1W        W56168  29.231  25.716   1.245 -0.1435 -0.2525 -0.1838
    1W        W56169   0.948  12.894   1.680 -0.0123  0.2565 -0.2199
    1W        W56170  10.246   3.465   9.603 -0.0453  0.0415  0.1076
    1W        W56171  28.095   9.434   7.337 -0.0217 -0.3995 -0.0860
    1W        W56172   4.140   3.879   7.018 -0.2126 -0.2016  0.0192
    1W        W56173  18.424   2.120   1.056 -0.3794  0.1991  0.0907
    1W        W56174  21.296  26.225   8.399  0.2825  0.0807 -0.0682
    1W        W56175  13.335  23.126   0.311  0.3160  0.0660 -0.0047
    1W        W56176  18.593  28.957   9.099  0.0341 -0.1798 -0.3227
    1W        W56177   6.760  25.091   7.058  0.0049  0.0169 -0.0127
    1W        W56178  18.842  29.197   0.921 -0.0602 -0.1832 -0.1217
    1W        W56179   4.778   2.529   8.746  0.1694  0.1242  0.2971
    1W        W56180  23.916  11.077   0.772 -0.1445  0.0524 -0.1970
    1W        W56181  19.265  10.482   7.954  0.1839 -0.0858 -0.1081
    1W        W56182  15.521  18.015   8.534  0.3830  0.2303  0.0873
    1W        W56183  10.887  22.862   7.615 -0.1575  0.0496 -0.0390
    1W        W56184  13.332   8.939   1.519  0.0681  0.5652  0.3378
    1W        W56185   7.910  22.308   7.090  0.1133 -0.0559 -0.0417
    1W        W56186  26.903  14.566   8.257  0.1681  0.3265 -0.2095
    1W        W56187   8.813   1.077   7.426 -0.0150  0.1299  0.1030
    1W        W56188  23.481   1.033   0.864  0.1551 -0.3844 -0.1007
    1W        W56189  14.418  21.660   2.091  0.2649  0.0179  0.4438
    1W        W56190   4.460  21.332   1.385 -0.0234 -0.0934 -0.0936
    1W        W56191  26.291  14.156   2.627 -0.3007 -0.0632  0.0809
    1W        W56192  21.762  10.483   0.620  0.1892  0.1741  0.0996
    1W        W56193   3.672  24.168   2.073 -0.0148 -0.1565  0.2188
    1W        W56194  21.091   6.517   7.627 -0.1800  0.1101  0.0408
    1W        W56195  25.957   7.930   1.376 -0.2143 -0.0969  0.1989
    1W        W56196  10.346   9.258   0.968  0.0780  0.0870  0.1383
    1W        W56197   5.958   9.359   8.784  0.0564  0.0602 -0.1538
    1W        W56198  13.071  20.323   1.048 -0.2512  0.0508  0.1703
    1W        W56199   5.498   7.259   6.344  0.1521 -0.3321 -0.0211
    1W        W56200  20.185  24.029   0.125  0.3335 -0.1611 -0.2911
    1W        W56201   5.981   4.552   2.049  0.1020 -0.0319  0.1623
    1W        W56202  26.161   1.371   1.300 -0.1567  0.2506 -0.0456
    1W        W56203  21.606  20.560   2.990  0.2006  0.1731 -0.0141
    1W        W56204  15.584   8.740   6.614  0.0800 -0.2110  0.0884
    1W        W56205  27.069  14.099   8.235  0.0980  0.1601  0.2049
    1W        W56206  13.471  24.617   1.729 -0.0958 -0.1722  0.0202
    1W        W56207  18.787  23.734   9.062 -0.2135  0.3666  0.2596
    1W        W56208   3.762   2.522   8.150 -0.0667  0.0645 -0.1104
    1W        W56209  20.312   8.252   7.610  0.1026  0.0140 -0.0867
    1W        W56210   2.258   6.453   2.055  0.0789 -0.2657 -0.2242
    1W        W56211  15.913  27.649   0.170  0.2369  0.0227  0.1376
    1W        W56212  16.307  12.992   7.343  0.3174  0.0358 -0.3900
    1W        W56213  25.783  29.569   8.184  0.3381 -0.3007 -0.2744
    1W        W56214  15.701   2.448   0.702  0.0633  0.2066 -0.3155
    1W        W56215  17.852  21.000   2.812 -0.0029  0.1068  0.1236
    1W        W56216  20.787  19.824   9.121  0.1199 -0.1800 -0.0546
    1W        W56217   7.613   4.829   6.748  0.1848  0.1589 -0.0864
    1W        W56218  15.563   6.981   2.089  0.1368 -0.1474 -0.2142
    1W        W56219   4.551   2.267   2.858  0.0948 -0.2884 -0.0171
    1W        W56220  19.738  21.070   8.167  0.1107  0.1017 -0.2234
    1W        W56221  20.440  27.621   1.984  0.0214  0.5721 -0.1727
    1W        W56222  11.474  25.208   6.846  0.1710  0.0139 -0.2916
    1W        W56223  13.644   3.151   2.106  0.0294  0.2109 -0.0269
    1W        W56224   5.728   4.345   7.803 -0.2440  0.2213  0.0342
    1W        W56225  22.124  20.179   2.115 -0.1501  0.4129  0.2629
    1W        W56226   7.184  29.195   2.567  0.2897  0.0529  0.3586
    1W        W56227  24.719  21.546   2.382 -0.2637  0.2514 -0.0254
    1W        W56228  23.457  12.046   1.560  0.1704 -0.1137  0.2348
    1W        W56229   4.927  13.526   6.892  0.0366 -0.3144 -0.1327
    1W        W56230  27.256  17.137   1.700  0.2443 -0.0823 -0.0849
    1W        W56231  12.354  14.963   9.235 -0.1222  0.2949  0.2887
    1W        W56232  12.870  13.915   7.537  0.0617  0.1072 -0.1757
    1W        W56233  18.120  26.363   2.633  0.0038 -0.2172 -0.2376
    1W        W56234  29.108  25.232   8.340 -0.1166 -0.0159  0.0508
    1W        W56235   8.710  19.042   2.126 -0.1841  0.0649 -0.0193
    1W        W56236  20.036   4.792   8.014  0.2859 -0.2165 -0.0924
    1W        W56237  20.749   3.334   9.575 -0.2215 -0.1268 -0.0719
    1W        W56238  13.165  22.008   7.624 -0.1735 -0.4723  0.2171
    1W        W56239  22.902  13.007   0.799 -0.2516 -0.0445 -0.0760
    1W        W56240  22.717   9.637   8.335 -0.2250 -0.1602  0.1367
    1W        W56241  29.088   4.611   6.393 -0.1815  0.2090  0.0293
    1W        W56242  22.239  17.793   0.650  0.0094 -0.1126 -0.1995
    1W        W56243  15.069   6.522   1.253 -0.2589 -0.2211 -0.1997
    1W        W56244  24.072  18.691   6.917  0.2991 -0.2026 -0.2543
    1W        W56245   9.461  13.668   6.973 -0.0541 -0.0759  0.1834
    1W        W56246   6.162  23.623   8.306  0.1173  0.1331  0.1293
    1W        W56247  28.559  20.950   1.657 -0.1638 -0.2111  0.0189
    1W        W56248  19.312  22.262   3.453 -0.1248  0.2423  0.1697
    1W        W56249   6.029  22.391   2.766  0.1949 -0.4405 -0.4089
    1W        W56250  28.425  10.137   8.539  0.2546  0.1776 -0.0303
    1W        W56251  22.771   4.442   1.281  0.1727 -0.2178  0.0049
    1W        W56252  28.212   9.922   7.404 -0.0234  0.2240  0.0565
    1W        W56253  10.006  12.774   9.089  0.0855 -0.2533  0.2311
    1W        W56254  10.286  14.352   8.415  0.0123  0.1693  0.0880
    1W        W56255   7.964  25.465   2.170 -0.1460 -0.2032  0.2023
    1W        W56256  24.990   1.731   2.061  0.4542  0.0905  0.0015
    1W        W56257   0.972  21.750   8.251 -0.1336  0.4773  0.0716
    1W        W56258  10.676   7.890   9.098  0.2184 -0.1706 -0.0175
    1W        W56259   1.688  21.024   2.640  0.0438 -0.2193 -0.0776
    1W        W56260  19.269   7.221   8.452  0.0299  0.0843 -0.1203
    1W        W56261  21.513  25.855   8.084  0.1714 -0.3147 -0.1019
    1W        W56262  25.816  25.035   0.857  0.1895 -0.1051  0.1077
    1W        W56263  22.273  26.462   2.898 -0.1391 -0.1293  0.0459
    1W        W56264  23.597  13.154   8.492  0.1141  0.3814  0.0752
    1W        W56265  13.266  26.766   6.803 -0.1727  0.1631 -0.0247
    1W        W56266   1.618  10.755   0.305  0.2368  0.0949 -0.0810
    1W        W56267  23.529  10.663   8.355 -0.2197 -0.0880 -0.0035
    1W        W56268   2.431  13.373   9.121  0.0005 -0.0406 -0.0286
    1W        W56269  17.018   4.535   8.863  0.3353  0.1782 -0.2082
    1W        W56270  16.987  19.440   2.953  0.0811 -0.0813 -0.2188
    1W        W56271  22.373   4.759   8.615  0.0690  0.0977 -0.2261
    1W        W56272  17.390  13.634   2.260  0.2930 -0.1664 -0.0023
    1W        W56273  18.579   7.572   0.493 -0.0239 -0.0520 -0.2076
    1W        W56274   3.758  16.379   8.470  0.1119 -0.3506  0.1125
    1W        W56275  18.792  15.929   2.844  0.4420  0.0691 -0.0402
    1W        W56276  28.216  11.261   7.803 -0.0448  0.2821 -0.2532
    1W        W56277   9.383   0.396   9.400  0.1860  0.2451 -0.0393
    1W        W56278   0.893   5.739   8.752  0.0675  0.4297  0.2178
    1W        W56279   7.448   2.802   8.410  0.1867  0.0308 -0.4384
    1W        W56280  28.882   5.621   0.531  0.0886  0.0435 -0.2046
    1W        W56281  26.323   9.177   7.633  0.3655  0.2328  0.0387
    1W        W56282  24.727   0.060   0.563 -0.1788  0.0945 -0.0982
    1W        W56283  18.378  14.133   1.738  0.3143  0.3131  0.0794
    1W        W56284  26.994   7.640   7.975  0.1280  0.1903 -0.0090
    1W        W56285   0.801  22.389   9.052  0.0855  0.1128 -0.3638
    1W        W56286   6.386  11.626   5.651 -0.1014  0.5009  0.0286
    1W        W56287  21.041   2.605   8.964  0.4695 -0.0786 -0.2851
    1W        W56288  12.778  22.806   2.878  0.1835  0.0192  0.0373
    1W        W56289  12.571   7.053   7.731  0.0140 -0.0010  0.2000
    1W        W56290  25.493  29.625   7.321  0.1637  0.0444 -0.0154
    1W        W56291  11.717  15.131   6.684  0.0556 -0.4440 -0.0993
    1W        W56292  18.800  24.084   8.151 -0.1867  0.1250  0.0004
    1W        W56293   0.136   6.044   7.683 -0.3080  0.0926 -0.0024
    1W        W56294  12.524   3.644   7.163 -0.1029  0.1043 -0.1152
    1W        W56295   8.475  22.544   8.703  0.0438  0.1979 -0.3026
    1W        W56296  21.503  23.627   2.436  0.0804 -0.3649 -0.0854
    1W        W56297  18.921  25.533   7.079 -0.1200  0.0201 -0.2127
    1W        W56298   1.579  20.944   1.186  0.1296  0.1378  0.0538
    1W        W56299  14.256  23.290   7.268  0.0607  0.1836  0.2631
    1W        W56300  11.567   2.149   7.682 -0.0192 -0.0369  0.0994
    1W        W56301   8.238  10.539   6.947  0.0943  0.1311 -0.0857
    1W        W56302   1.696  22.010   6.658  0.1917  0.3198 -0.0929
    1W        W56303  22.243   1.517   9.616  0.0634  0.3338  0.3540
    1W        W56304  11.286  16.439   6.852 -0.3555  0.1717  0.1286
    1W        W56305   3.708  19.018   1.136  0.1950  0.2142  0.2314
    1W        W56306  14.053  12.499   7.539 -0.2474  0.1014 -0.0425
    1W        W56307  10.192  21.348   7.477 -0.5709 -0.2304  0.0621
    1W        W56308  20.058   8.030   0.756  0.1785  0.1884 -0.2065
    1W        W56309   1.999   1.090   2.792  0.0069  0.6436 -0.2700
    1W        W56310  19.706  27.980   9.189  0.0867 -0.2056 -0.1724
    1W        W56311  20.286   1.326   1.185  0.0965 -0.4442  0.1521
    1W        W56312  28.996  14.748   9.586 -0.2195  0.1415 -0.3458
    1W        W56313   0.730  24.801   1.357  0.3551 -0.2077  0.0384
    1W        W56314  26.779  25.883   9.239 -0.4457  0.0645  0.2841
    1W        W56315  11.502  20.936   6.573  0.1579  0.2258  0.0078
    1W        W56316  13.233  23.576   9.330 -0.0909  0.1251  0.1656
    1W        W56317  10.530  26.021   1.633 -0.0204  0.4353  0.0976
    1W        W56318  20.309  14.057   0.392 -0.0216  0.2009  0.1932
    1W        W56319  12.514  27.718   1.391 -0.0304 -0.1148 -0.1122
    1W        W56320  12.660   4.645   8.923 -0.0476 -0.0457  0.1533
    1W        W56321   9.051  25.014   2.271 -0.3138  0.0323 -0.1986
    1W        W56322  11.257   9.176   0.815  0.3130  0.1540 -0.2732
    1W        W56323   2.749   8.387   9.290 -0.1098  0.0543  0.3099
    1W        W56324  14.070  10.438   2.392 -0.0609 -0.0523 -0.0865
    1W        W56325   9.518  16.816   6.424  0.0300 -0.2010 -0.1783
    1W        W56326   2.014   0.163   2.671 -0.0139  0.1301  0.1481
    1W        W56327  14.066   3.883   0.790  0.3114  0.0038  0.0539
    1W        W56328  19.275  18.127   1.977 -0.1267  0.1761 -0.0025
    1W        W56329  23.459   2.096   2.186 -0.2143 -0.1852 -0.1082
    1W        W56330   1.513   7.269   7.410  0.3156  0.0415  0.1077
    1W        W56331   7.926   5.152   1.205 -0.1330  0.0818 -0.2700
    1W        W56332  28.763   1.597   8.634 -0.0503 -0.2042 -0.0207
    1W        W56333   4.738  18.031   8.378  0.2469  0.1631 -0.1586
    1W        W56334  18.172  22.371   1.746  0.2669  0.2406 -0.0229
    1W        W56335  20.384  29.387   9.396 -0.0116 -0.1001  0.0043
    1W        W56336  18.680  11.815   2.160 -0.1214  0.0431 -0.2777
    1W        W56337  25.725  14.272   1.484 -0.1493  0.1000  0.0157
    1W        W56338   6.448   1.051   6.159  0.1765  0.1698  0.2255
    1W        W56339  21.887  26.883   0.384 -0.3384 -0.0251 -0.1011
    1W        W56340   1.901  10.465   0.595 -0.1101  0.1679 -0.0512
    1W        W56341   8.001  22.480   9.062  0.2438 -0.1696  0.2303
    1W        W56342  14.143  25.293   7.751  0.0589  0.1722 -0.0122
    1W        W56343  18.244  11.073   9.556 -0.2216  0.1333  0.0255
    1W        W56344   5.795  17.734   7.013 -0.0233  0.1388  0.0799
    1W        W56345  25.451  11.136   0.660 -0.2427  0.0040 -0.1925
    1W        W56346  19.062  14.500   8.690  0.0017 -0.2320  0.1135
    1W        W56347   4.220   4.879   7.585  0.2911 -0.1417  0.2397
    1W        W56348  11.145  13.544   8.455 -0.1627  0.1310  0.0054
    1W        W56349  10.340   7.379   2.654 -0.2648 -0.0058 -0.2506
    1W        W56350  23.305  18.952   2.298 -0.2239  0.0826  0.1867
    1W        W56351   7.723  13.142   9.455 -0.0990 -0.0422 -0.0850
    1W        W56352   2.826  24.946   0.924  0.0055 -0.1988  0.2982
    1W        W56353  23.455  19.260   9.411  0.1192 -0.0419 -0.0238
    1W        W56354  20.259  11.034   8.377 -0.2930 -0.0926 -0.0620
    1W        W56355  13.908  28.672   9.410 -0.1597  0.2127 -0.4918
    1W        W56356  26.818  13.176   9.507  0.1362 -0.3866 -0.0146
    1W        W56357  20.611   5.739   8.131  0.2492  0.0618 -0.1508
    1W        W56358   3.084   0.207   7.478  0.1730 -0.0158 -0.0679
    1W        W56359   5.390   8.306   6.885  0.0301  0.0260 -0.0255
    1W        W56360  10.674  20.135   8.960  0.1651 -0.2142 -0.2481
    1W        W56361  14.926   7.957   2.168 -0.1493 -0.2065 -0.0818
    1W        W56362   1.404   8.857   4.900 -0.5966  0.0914 -0.2712
    1W        W56363  17.280  21.989   8.322 -0.1014  0.3394  0.0236
    1W        W56364   4.248  11.065   1.591 -0.0774  0.1141  0.0822
    1W        W56365   3.203  11.399   2.290 -0.0084  0.0378 -0.1878
    1W        W56366  22.306  20.982   7.757 -0.0259 -0.3813 -0.2206
    1W        W56367   5.023   2.991   1.338  0.0063 -0.0921  0.0145
    1W        W56368  11.094  11.336   8.967 -0.1825  0.0934 -0.0609
    1W        W56369  25.567  15.486   6.539  0.0367 -0.1056 -0.2242
    1W        W56370  18.687  26.146   8.115  0.0299 -0.3048  0.0452
    1W        W56371  25.029  11.751   8.697  0.4013 -0.1107  0.0292
    1W        W56372   6.742   2.816   1.004 -0.0712  0.1747 -0.0358
    1W        W56373  29.258   3.668   8.596 -0.0206  0.0277 -0.2669
    1W        W56374  22.931   8.099   9.286 -0.0340 -0.0207  0.1141
    1W        W56375   0.679  14.852   0.237  0.2705  0.0229 -0.0509
    1W        W56376   1.698  25.832   1.440  0.0547 -0.1152  0.0800
    1W        W56377  26.664  23.888   7.076 -0.1032 -0.0037 -0.1266
    1W        W56378  19.767  25.719   3.000 -0.3890 -0.2281 -0.0866
    1W        W56379  10.060  28.020   2.663 -0.1596 -0.2056 -0.1892
    1W        W56380  18.992  16.215   0.277 -0.0763 -0.0616  0.3417
    1W        W56381  23.417  10.193   8.537 -0.1785  0.0714  0.4309
    1W        W56382  11.810  25.482   1.086  0.3325  0.1481 -0.1910
    1W        W56383  15.099  17.276   7.820  0.1080  0.4061  0.2654
    1W        W56384   5.343  16.181   1.776 -0.1410  0.3420 -0.1987
    1W        W56385  13.105  11.354   7.711 -0.4336 -0.2875 -0.0464
    1W        W56386  13.651   0.112   1.741  0.0931 -0.2021  0.0527
    1W        W56387  19.698   2.171   2.389  0.1828  0.0120 -0.1357
    1W        W56388  28.412   1.209   7.252  0.1437 -0.1016  0.1581
    1W        W56389  20.611  18.927   0.482 -0.0450  0.2435 -0.2077
    1W        W56390  29.056  28.332   6.882 -0.0048 -0.0806  0.0576
    1W        W56391  21.978   9.119   8.708  0.0055  0.0002  0.0178
    1W        W56392  10.824   9.849   2.855  0.1852  0.1867 -0.0922
    1W        W56393   1.245  29.503   7.114  0.0105 -0.1685 -0.0369
    1W        W56394  16.622  25.396   7.350  0.1107 -0.0185 -0.0452
    1W        W56395   2.640  18.238   7.573 -0.3136  0.2719 -0.0489
    1W        W56396   2.113   9.096   9.181  0.3093 -0.1172 -0.0777
    1W        W56397  16.312   6.536   0.666  0.1876 -0.0302  0.2567
    1W        W56398  29.429  13.827   0.157  0.0390  0.1728 -0.1243
    1W        W56399   7.347  13.330   7.106  0.0559 -0.0273 -0.1148
    1W        W56400  28.729  22.138   1.118 -0.0332 -0.0205  0.4831
    1W        W56401  28.036  19.414   3.450 -0.2312 -0.1719  0.1005
    1W        W56402  26.585  26.887   1.764 -0.2174 -0.2121  0.3090
    1W        W56403   9.527  10.730   8.255  0.2588 -0.0252  0.0947
    1W        W56404   9.472   2.214   0.312  0.2109 -0.2074 -0.3199
    1W        W56405   0.336  20.813   8.581 -0.0958 -0.2925 -0.1055
    1W        W56406  16.428  24.052   8.381  0.0290 -0.1356 -0.0873
    1W        W56407   7.673  10.866   0.904  0.3067  0.0166  0.0035
    1W        W56408   7.757   7.165   5.986  0.1108  0.2312  0.0144
    1W        W56409  25.671  20.898   0.772 -0.1432 -0.0567  0.2904
    1W        W56410  28.368  23.440   9.649 -0.0025 -0.3298 -0.0118
    1W        W56411   9.323  11.208   0.375  0.0859 -0.0684 -0.0632
    1W        W56412   6.618  15.828   9.012 -0.0010 -0.1718 -0.0819
    1W        W56413  21.915  10.553   9.322 -0.2549  0.0060  0.0269
    1W        W56414  27.251  13.185   2.307 -0.0511 -0.0764 -0.3550
    1W        W56415   6.467   9.445   1.897 -0.0797 -0.0203 -0.1407
    1W        W56416  26.215  23.645   7.278 -0.2558  0.1130 -0.0077
    1W        W56417  26.182  10.338   1.542  0.0906  0.0618  0.0718
    1W        W56418   3.404  12.002   1.354 -0.0230 -0.1526 -0.0316
    1W        W56419  14.924   7.190   7.174 -0.1313 -0.1845  0.1033
    1W        W56420  13.834  19.536   7.452  0.1853  0.1775  0.1402
    1W        W56421   4.418  22.354   9.619 -0.0807 -0.0648 -0.1493
    1W        W56422  28.230   0.616   3.378 -0.1923  0.0070  0.0897
    1W        W56423  24.674   6.281   9.111  0.0977 -0.2352 -0.1871
    1W        W56424  29.251  15.197   1.368  0.0612  0.1519  0.3402
    1W        W56425  21.279  24.094   2.419 -0.0265 -0.2815  0.3349
    1W        W56426  23.705  25.803   0.083 -0.1914 -0.0650  0.1489
    1W        W56427  17.892   1.489   6.765 -0.0859  0.2190 -0.2816
    1W        W56428  26.301  19.397   0.740 -0.2424 -0.2946 -0.1236
    1W        W56429   2.568  18.783   1.535 -0.0254 -0.1105 -0.2297
    1W        W56430   2.050   3.089   7.779 -0.1826  0.0853 -0.0170
    1W        W56431  16.174  28.954   8.333  0.0385  0.0253 -0.1573
    1W        W56432  19.988  14.984   2.567 -0.1623  0.2322 -0.1518
    1W        W56433  10.271   2.188   1.535 -0.1370 -0.0543 -0.2121
    1W        W56434   3.775  13.184   1.751  0.1706  0.1477 -0.1851
    1W        W56435   1.546   6.948   9.307  0.2017  0.1004  0.0833
    1W        W56436  13.775  10.397   7.536  0.1765  0.0541 -0.0823
    1W        W56437   7.676  20.316   0.762 -0.0430  0.2429  0.2234
    1W        W56438  17.519   8.932   0.042 -0.1527  0.1429 -0.0465
    1W        W56439  26.894   7.746   0.971  0.0909  0.1099 -0.0116
    1W        W56440  23.510  15.118   0.333 -0.0818 -0.1571 -0.1309
    1W        W56441  12.311  16.084   9.108  0.1203  0.0361  0.0610
    1W        W56442   9.769  15.811   7.707  0.3429  0.0487  0.3079
    1W        W56443  17.318  19.061   2.136  0.0510  0.0251 -0.1439
    1W        W56444  20.366  21.583   7.803  0.2767  0.0554 -0.1168
    1W        W56445  18.400  16.608   0.323  0.1195  0.2016 -0.1431
    1W        W56446   7.960  28.184   6.464 -0.2815 -0.0852 -0.2751
    1W        W56447  13.649  19.298   0.676  0.2575  0.0383 -0.1586
    1W        W56448  27.658  13.638   9.280 -0.0458  0.0980 -0.0687
    1W        W56449   3.465  19.700   8.558 -0.1440  0.1289  0.0164
    1W        W56450  14.014   1.382   8.332  0.2711  0.1223  0.0247
    1W        W56451  27.081  21.164   7.037  0.1549 -0.2669  0.1646
    1W        W56452  26.846  22.151   2.096 -0.1142 -0.1677 -0.4528
    1W        W56453  14.188   0.035   3.287  0.4153  0.0063  0.0349
    1W        W56454  18.095  11.307   8.864  0.0592 -0.3051  0.0644
    1W        W56455  20.556  23.789   2.664 -0.0597 -0.0128 -0.1663
    1W        W56456  10.777  12.319   7.022  0.0998 -0.0480 -0.1400
    1W        W56457   8.511  29.608   0.811  0.3561 -0.2443 -0.0274
    1W        W56458  25.300   8.239   0.973 -0.0225  0.0654 -0.4351
    1W        W56459  22.407  11.281   2.041  0.0132 -0.2370  0.0752
    1W        W56460  26.702  22.422   7.728  0.1023  0.0669 -0.1387
    1W        W56461  13.958  22.901   6.874 -0.1231 -0.0909  0.0252
    1W        W56462  12.867  17.596   7.175 -0.3215  0.0144 -0.0608
    1W        W56463  23.042  11.258   1.905 -0.1101  0.2431 -0.1087
    1W        W56464  14.603  20.286   1.183 -0.1190  0.4966 -0.4858
    1W        W56465   3.689  22.929   0.696 -0.4406 -0.2503  0.2184
    1W        W56466  21.244   0.431   1.131  0.0014  0.0423 -0.0983
    1W        W56467   1.216  16.210   0.892 -0.1126 -0.1893  0.3335
    1W        W56468  13.913   9.850   6.999  0.1447 -0.1779  0.1485
    1W        W56469  18.689  13.294   8.562 -0.1801 -0.1291  0.1070
    1W        W56470   6.370  16.673   6.436  0.1470  0.1642 -0.0756
    1W        W56471  14.265  27.245   1.037 -0.0274 -0.1164 -0.1990
    1W        W56472  15.529  21.289   1.679  0.0159  0.0087 -0.0905
    1W        W56473  26.526  23.126   8.661 -0.0945  0.0606  0.1751
    1W        W56474  18.979   9.775   9.221  0.0942 -0.1849  0.1859
    1W        W56475   6.634   8.430   8.562  0.0672 -0.0724  0.0831
    1W        W56476  10.778  16.689   6.709 -0.1498 -0.1562  0.0342
    1W        W56477  17.530  26.018   8.136  0.0929  0.0654 -0.1432
    1W        W56478  23.690  26.969   1.639 -0.0587  0.1325 -0.1878
    1W        W56479   3.060   0.808   1.299 -0.1453  0.0287  0.0312
    1W        W56480  20.278   9.797   7.573 -0.0624  0.0972  0.1756
    1W        W56481  11.575   0.939   7.684 -0.0061  0.0933 -0.2123
    1W        W56482  27.902  20.384   3.316 -0.1235  0.1774  0.0718
    1W        W56483   7.084  19.305   8.603  0.2127 -0.1163 -0.3971
    1W        W56484  22.332  21.539   8.604 -0.0448 -0.2044  0.3710
    1W        W56485   6.075  18.975   8.447 -0.0889 -0.0261  0.0273
    1W        W56486   5.939   0.345   1.536  0.2126  0.0360 -0.0307
    1W        W56487  26.491   1.708   8.111  0.0542  0.1453  0.4367
    1W        W56488  13.750  12.207   0.075  0.2808  0.0176 -0.0837
    1W        W56489   4.134  23.590   9.254  0.2066 -0.0721  0.1975
    1W        W56490   1.266   4.639   0.259  0.1652  0.3226 -0.1925
    1W        W56491   8.945  19.398   1.057 -0.0798 -0.0455  0.3697
    1W        W56492  27.922   1.931   6.920  0.2354  0.0212 -0.0701
    1W        W56493  20.534   8.582   8.072 -0.0803 -0.0537  0.0917
    1W        W56494  11.807  11.107   0.758  0.2583 -0.4538  0.0386
    1W        W56495  12.254   4.519   9.211 -0.0982  0.1087  0.0570
    1W        W56496  20.526   7.816   0.804 -0.0612  0.0049  0.0256
    1W        W56497  25.133   8.837   1.810 -0.0687 -0.1800  0.1537
    1W        W56498  16.027  23.661   8.456  0.1430  0.0361  0.3486
    1W        W56499  14.652  15.163   6.877 -0.2394  0.0061 -0.2349
    1W        W56500  18.314  15.992   8.082  0.0320  0.1008 -0.0054
    1W        W56501   1.863  25.608   7.772  0.0724  0.3006  0.1325
    1W        W56502  21.247  29.233   7.785 -0.2415 -0.1431  0.0439
    1W        W56503  11.661  10.363   9.567  0.1698  0.0053  0.0453
    1W        W56504  22.294  21.017   0.976  0.0963  0.1373 -0.0822
    1W        W56505  29.181   4.585   6.976  0.0999 -0.0826  0.1869
    1W        W56506   9.224   4.646   6.956 -0.0721 -0.1401 -0.4216
    1W        W56507  21.733  25.693   9.287  0.5592 -0.0334  0.1703
    1W        W56508   1.902  19.469   3.552  0.0304  0.0620  0.1241
    1W        W56509  10.783   6.143   7.605  0.2297  0.2840  0.1136
    1W        W56510   7.202   2.503   8.827 -0.3672  0.2484 -0.0229
    1W        W56511   3.885   0.749   9.348 -0.3110  0.0863 -0.0488
    1W        W56512  21.745   3.922   1.286 -0.2676  0.0614 -0.1573
    1W        W56513  18.436  11.185   2.632 -0.1763 -0.1122 -0.1058
    1W        W56514  16.106   4.345   1.633 -0.1831  0.0184  0.2676
    1W        W56515   2.744  18.901   2.064  0.0120  0.0829  0.3636
    1W        W56516  18.796   3.726   3.607 -0.2506 -0.1260  0.0278
    1W        W56517   4.346   6.156   1.117 -0.1669 -0.0546 -0.0679
    1W        W56518  12.599   0.565   2.450  0.0397  0.0822 -0.1920
    1W        W56519   7.495   7.656   8.822  0.1592  0.0669  0.1735
    1W        W56520  15.457  21.008   8.342  0.5089 -0.1303  0.0243
    1W        W56521  15.204   0.801   7.748  0.0206 -0.2964 -0.1165
    1W        W56522  13.829  10.719   2.739  0.0633 -0.0072 -0.0770
    1W        W56523  25.373   1.721   8.758  0.4331 -0.1336 -0.2493
    1W        W56524   3.358  18.882   7.290  0.2985 -0.2257 -0.2621
    1W        W56525   4.080  17.764   9.383 -0.1523 -0.0889 -0.0128
    1W        W56526  12.676  19.357   7.349 -0.0288  0.2512 -0.0518
    1W        W56527  13.489  20.136   1.513  0.1087  0.1963 -0.3732
    1W        W56528   2.370   3.629   7.945  0.0666 -0.0164  0.1604
    1W        W56529   1.867  11.296   8.438 -0.2650  0.0238  0.1019
    1W        W56530  25.622  23.966   2.583 -0.2249 -0.2520 -0.1434
    1W        W56531  21.149  21.653   9.570 -0.0069 -0.1848  0.0157
    1W        W56532  18.600  21.802   1.347 -0.1715  0.0437  0.0769
    1W        W56533  20.620  16.288   9.479  0.0674 -0.0240 -0.0972
    1W        W56534  10.077  16.747   1.040  0.0008 -0.1715  0.1402
    1W        W56535  26.434   5.413   9.173  0.1094 -0.0625 -0.2612
    1W        W56536  15.714   3.346   7.075 -0.1830 -0.1349 -0.0076
    1W        W56537  20.551  27.154   2.305  0.0124 -0.2701 -0.0005
    1W        W56538   7.589  17.331   7.984 -0.3162  0.0983  0.3909
    1W        W56539  27.036   9.521   0.640 -0.4142  0.2137  0.0688
    1W        W56540   5.318  14.305   6.934  0.2657 -0.1750 -0.2807
    1W        W56541   1.054  19.724   9.211 -0.0454 -0.0176  0.1777
    1W        W56542  13.316  18.687   1.669  0.0788  0.0448 -0.2324
    1W        W56543  24.422  21.009   1.094 -0.1017 -0.1494 -0.2732
    1W        W56544  15.124  21.907   2.519  0.1267  0.2956 -0.0693
    1W        W56545  29.614  23.020   6.723  0.1183  0.0675  0.0643
    1W        W56546   8.316   9.297   7.098  0.0481 -0.0192 -0.2872
    1W        W56547   9.487  12.545   6.302 -0.0869  0.0532 -0.1085
    1W        W56548   0.929   2.065   0.135 -0.0235  0.1984 -0.1675
    1W        W56549  22.612   9.158   2.075 -0.0154  0.1317  0.0773
    1W        W56550   3.818  18.378   8.209  0.0148  0.0353  0.0006
    1W        W56551  11.316   5.450   0.969 -0.3003  0.0099  0.2071
    1W        W56552  17.765  21.070   8.630 -0.0059 -0.0239  0.0666
    1W        W56553  23.170  21.103   3.019 -0.0426 -0.0702 -0.0844
    1W        W56554  14.169   4.477   1.677 -0.1664  0.2148 -0.0232
    1W        W56555  12.294   0.500   7.185  0.0286  0.0880 -0.1616
    1W        W56556   4.987  22.347   0.901  0.0482 -0.0922  0.0702
    1W        W56557  22.438  17.245   3.059 -0.0269  0.1292 -0.1308
    1W        W56558   5.711   9.558   7.007  0.0415  0.1000 -0.0263
    1W        W56559  10.667  23.541   6.558  0.2202  0.0976 -0.2147
    1W        W56560   0.384   0.907   1.208 -0.2916  0.1401 -0.0864
    1W        W56561  23.253   9.049   8.345 -0.2654  0.0262 -0.4636
    1W        W56562  27.915  13.942   0.781 -0.1052  0.0946 -0.0707
    1W        W56563  27.118  20.344   3.631  0.4339 -0.0461  0.0460
    1W        W56564  23.783  22.319   7.816  0.2630 -0.1208 -0.1150
    1W        W56565  12.302  23.749   9.618  0.0485 -0.0399  0.0234
    1W        W56566   4.530   2.622   1.622  0.0685  0.1386 -0.1519
    1W        W56567   8.975  13.953   8.311 -0.0728 -0.2479  0.0895
    1W        W56568  23.423  14.127   8.349  0.0267 -0.2118  0.0094
    1W        W56569   8.669   7.654   2.884  0.0264 -0.1137 -0.5237
    1W        W56570  11.896   5.588   5.870  0.1569  0.0911 -0.1198
    1W        W56571  21.988  15.916   2.432 -0.1555  0.0763 -0.0536
    1W        W56572  10.585   4.516   9.020  0.1182  0.0086  0.0982
    1W        W56573   0.043  23.907   7.214  0.0924 -0.1347 -0.0156
    1W        W56574  16.916   1.375   1.503 -0.0048 -0.2274 -0.0461
    1W        W56575   8.156  15.015   8.033  0.0569 -0.1466  0.0802
    1W        W56576   4.441  12.258   8.135  0.0276 -0.1028  0.0711
    1W        W56577   8.870  18.168   8.441 -0.1938 -0.1736 -0.1923
    1W        W56578  14.235  16.869   8.419 -0.1289  0.0485 -0.1776
    1W        W56579  24.212  13.517   2.097 -0.1685 -0.1408 -0.0865
    1W        W56580   6.555  11.035   2.219  0.3102  0.1821 -0.1315
    1W        W56581  14.899   1.353   6.833  0.3588 -0.2846 -0.1067
    1W        W56582  21.808  15.273   1.206 -0.3434  0.1484 -0.1285
    1W        W56583  13.355  15.477   2.500 -0.0483  0.0354 -0.1470
    1W        W56584   2.781  28.063   2.333 -0.0963 -0.3171  0.0330
    1W        W56585   2.530   7.255   8.853  0.0653 -0.1920  0.2704
    1W        W56586  14.426  26.607   7.301  0.0253 -0.2211 -0.0698
    1W        W56587  18.802  16.947   8.773 -0.0603 -0.3698 -0.0697
    1W        W56588   7.420  23.020   7.819 -0.2978  0.2436 -0.1771
    1W        W56589  24.078  11.401   1.157  0.1251 -0.0400  0.0309
    1W        W56590  26.092  21.224   8.567 -0.1584  0.2724 -0.1989
    1W        W56591   2.837  23.385   9.390  0.2683 -0.0429  0.4368
    1W        W56592   2.852   7.632   8.986  0.1383  0.0001 -0.0601
    1W        W56593  14.662   9.389   7.537 -0.0092 -0.0094  0.2392
    1W        W56594  24.627   4.783   1.836  0.1020  0.1174  0.2558
    1W        W56595  22.970  23.281   2.291 -0.0453 -0.0690 -0.0931
    1W        W56596   1.756  13.320   1.440  0.0462  0.0474  0.0982
    1W        W56597   1.319  23.208   8.717  0.0558  0.0297 -0.0916
    1W        W56598   2.613  25.915   7.461  0.0807 -0.2861 -0.0552
    1W        W56599  23.367  26.846   8.213 -0.0962  0.0776 -0.0328
    1W        W56600  10.228  20.492   7.965  0.2921 -0.0645 -0.1801
    1W        W56601  27.181  16.208   7.568 -0.0873  0.0971  0.0828
    1W        W56602  20.112  17.475   1.931 -0.1163  0.1478 -0.1218
    1W        W56603  13.004  20.706   6.743 -0.0163 -0.2235 -0.0826
    1W        W56604   0.736   5.755   2.069  0.1999 -0.0625 -0.0920
    1W        W56605  24.294  29.281   0.618 -0.0846 -0.0360 -0.1000
    1W        W56606   1.395  12.514   6.361 -0.0802 -0.0789 -0.1604
    1W        W56607   8.311  18.362   2.263 -0.0680 -0.0067  0.0020
    1W        W56608  17.569   1.063   2.272 -0.0851  0.0845  0.1967
    1W        W56609   4.002  26.251   0.980  0.2553  0.1536 -0.1030
    1W        W56610  25.501   0.042   7.816 -0.1045  0.3511  0.2391
    1W        W56611  17.783  26.081   9.106  0.0463 -0.0027  0.1467
    1W        W56612  17.632  19.674   8.275 -0.0577 -0.0897  0.0662
    1W        W56613  16.277   9.070   6.746  0.0164 -0.2700  0.0825
    1W        W56614  11.905   9.277   0.100 -0.1555 -0.0295  0.0823
    1W        W56615  29.334   0.742   7.991  0.1339 -0.2464  0.2695
    1W        W56616  14.368  20.159   8.667  0.2190  0.0234 -0.3030
    1W        W56617  12.593  11.322   0.374  0.1145  0.1585  0.0682
    1W        W56618  20.676  10.633   8.706  0.0311  0.0262  0.0396
    1W        W56619   7.678  23.068   6.489  0.2292 -0.1688 -0.1331
    1W        W56620  16.587   5.806   6.486 -0.1385 -0.0803 -0.0206
    1W        W56621  27.892  21.317   1.228  0.1267 -0.2523 -0.0260
    1W        W56622  28.920  19.353   2.496  0.1673  0.2531 -0.0358
    1W        W56623   7.894  26.045   9.534 -0.0587  0.0659 -0.0423
    1W        W56624  25.762  16.496   0.915  0.2570 -0.1087  0.0143
    1W        W56625  11.292  18.779   8.832  0.2409 -0.0133  0.0005
    1W        W56626  22.346   8.914   7.940 -0.0192 -0.1689  0.0400
    1W        W56627  12.795  16.250   0.146 -0.2258 -0.0572  0.0922
    1W        W56628  11.098  26.903   1.299 -0.0784 -0.0339 -0.0117
    1W        W56629  14.277   6.094   6.648  0.0353  0.0102 -0.2792
    1W        W56630  21.060  26.227   2.911  0.2083 -0.3162 -0.1820
    1W        W56631  19.929  16.100   7.590 -0.1645  0.0139 -0.2510
    1W        W56632   1.269  10.597   1.227 -0.1284 -0.3085  0.1638
    1W        W56633  27.284  21.547   2.461  0.1645 -0.0235  0.3705
    1W        W56634   2.584   8.906   9.268  0.3336 -0.1270 -0.4238
    1W        W56635  29.196  13.845   1.073  0.1359  0.1460 -0.0585
    1W        W56636  12.346   8.826   8.064 -0.0992  0.1920  0.1360
    1W        W56637  18.819  14.726   7.823  0.0726  0.0420 -0.2528
    1W        W56638  24.585  27.907   2.163 -0.1247 -0.1783  0.2309
    1W        W56639  29.558  24.878   1.692 -0.2081 -0.4173  0.2083
    1W        W56640  21.772  16.711   8.537 -0.0231  0.0234  0.0357
    1W        W56641  13.786  10.883   7.809  0.1727 -0.3899 -0.0744
    1W        W56642   6.794  17.008   5.966  0.0998  0.2687  0.0452
    1W        W56643  17.455  28.282   2.699 -0.1089 -0.1342  0.0387
    1W        W56644  17.234  19.035   2.756 -0.0245 -0.1728  0.2268
    1W        W56645   2.449  25.159   0.444 -0.0047  0.0447  0.1288
    1W        W56646  17.885  23.067   8.244 -0.0036  0.0362 -0.0407
    1W        W56647  22.982  29.493   9.300  0.1208 -0.2551  0.2843
    1W        W56648  15.047  28.840   7.628  0.1781 -0.0583  0.3390
    1W        W56649   1.640   3.454   0.478  0.1920 -0.0338  0.1030
    1W        W56650  16.171   6.095   6.762 -0.2836  0.0631 -0.1056
    1W        W56651  17.951  12.307   8.009  0.0186  0.0790 -0.3474
    1W        W56652  18.642  27.435   1.553  0.3742 -0.1044  0.1863
    1W        W56653   9.777   8.858   9.349  0.3512 -0.3679 -0.2547
    1W        W56654   9.609  14.730   0.752 -0.4582  0.1090  0.1165
    1W        W56655  12.607  16.764   1.605  0.3378  0.1387 -0.1384
    1W        W56656  11.600   4.919   5.614  0.2504 -0.1095  0.0957
    1W        W56657  25.814  17.018   2.184  0.2347  0.0254 -0.1215
    1W        W56658   2.595  26.345   1.115 -0.1456 -0.4064  0.4600
    1W        W56659   7.200  11.197   9.438 -0.0882  0.2473  0.1494
    1W        W56660   8.435  13.387   6.617  0.0148 -0.0729  0.0263
    1W        W56661  18.501  29.509   0.782  0.2721 -0.0460  0.1111
    1W        W56662  14.493   7.768   1.999  0.1610 -0.0252  0.0179
    1W        W56663  26.894  28.317   0.098  0.0422 -0.1076 -0.1443
    1W        W56664   3.778   7.073   6.688 -0.2916 -0.1548  0.0688
    1W        W56665  26.097  22.352   3.186  0.0984  0.3065 -0.2270
    1W        W56666   5.777   8.203   1.603  0.0129  0.1468 -0.1296
    1W        W56667   8.161  28.718   6.106  0.5083 -0.1264  0.1706
    1W        W56668   4.003  19.957   7.499  0.1890 -0.1116  0.1876
    1W        W56669   9.264  11.485   5.661 -0.2168  0.3325  0.0578
    1W        W56670  10.890  10.577   0.490 -0.0710  0.3356  0.2675
    1W        W56671  29.317  20.123   0.900 -0.4773  0.1577  0.1476
    1W        W56672   4.927   6.365   7.465 -0.1284  0.4029  0.2649
    1W        W56673   2.516  27.536   8.285 -0.0824  0.0320 -0.2554
    1W        W56674  20.686  27.433   0.544  0.0280 -0.0434 -0.1014
    1W        W56675  12.212  29.565   1.421  0.3239  0.1889  0.0667
    1W        W56676  15.672   7.675   1.080  0.0201 -0.0948 -0.0501
    1W        W56677  28.101  28.254   1.258  0.3941  0.1875  0.0254
    1W        W56678  11.890  19.058   1.932 -0.0372  0.0900 -0.5728
    1W        W56679   1.997  19.397   0.040 -0.2433  0.2016 -0.0058
    1W        W56680  25.897   1.450   9.458  0.0919  0.1551  0.0261
    1W        W56681  24.905   8.289   1.641  0.0164 -0.1359 -0.0925
    1W        W56682  14.264   4.905   5.790 -0.2951 -0.2078  0.0360
    1W        W56683   6.723  11.059   7.018 -0.0161 -0.0930  0.2069
    1W        W56684   7.033  25.698   7.878  0.0289 -0.1420 -0.0635
    1W        W56685  13.009   0.751   9.210 -0.1122  0.0010  0.5034
    1W        W56686  26.152  20.473   9.056 -0.1488  0.2821  0.0883
    1W        W56687  26.444   9.847   9.175  0.3086  0.0636 -0.2208
    1W        W56688  25.902   0.172   2.351 -0.1594  0.2497 -0.0459
    1W        W56689   5.207   3.814   7.432  0.0184  0.2489 -0.0943
    1W        W56690   5.591  24.693   7.165 -0.3163  0.0291  0.4112
    1W        W56691  28.820   7.373   7.366  0.0641  0.0976  0.1606
    1W        W56692   5.074  12.966   1.625 -0.2727 -0.0273 -0.0650
    1W        W56693  14.606   2.612   7.633  0.2826 -0.0638  0.1846
    1W        W56694  17.966  18.910   0.482  0.1230 -0.3387 -0.1439
    1W        W56695   3.305  17.516   9.348  0.1043  0.2290  0.0176
    1W        W56696  12.371   4.504   8.159 -0.1269 -0.0341 -0.0100
    1W        W56697  11.413  12.464   7.796  0.0873  0.2127  0.2619
    1W        W56698   7.725  21.417   2.424 -0.0899  0.2933 -0.0321
    1W        W56699  12.305   9.222   0.353  0.1161 -0.1423 -0.0655
    1W        W56700   4.320  13.230   1.481  0.0442  0.1811  0.2347
    1W        W56701   0.708   3.182   9.493  0.0660  0.3116  0.1023
    1W        W56702  18.860  21.591   7.082  0.0220  0.1849  0.1110
    1W        W56703  22.107  25.982   3.549  0.0867  0.4197  0.0827
    1W        W56704  20.840  14.542   9.336  0.0024 -0.0011 -0.1552
    1W        W56705  17.472  15.534   9.068  0.2245 -0.2074 -0.2586
    1W        W56706  21.504   3.019   0.332 -0.1645 -0.0559  0.1425
    1W        W56707  21.726  28.169   0.561 -0.3595 -0.1616  0.1048
    1W        W56708   9.771  22.690   2.363  0.4269  0.0563  0.1248
    1W        W56709  26.093   0.285   3.268  0.1579  0.0142 -0.0166
    1W        W56710  20.826   0.744   9.072  0.0076 -0.2333 -0.1141
    1W        W56711   0.416  23.382   3.256  0.0687  0.0829 -0.3025
    1W        W56712  10.457  29.079   0.418  0.0054  0.2116  0.0231
    1W        W56713  16.001  14.646   1.613  0.1794 -0.0430  0.3959
    1W        W56714  24.430   1.434   8.878  0.0709 -0.0804 -0.1156
    1W        W56715   2.697  20.817   3.093  0.0191 -0.1469  0.0324
    1W        W56716  25.505   2.837   1.130  0.0289 -0.0436  0.0482
    1W        W56717  17.514  26.299   3.820  0.0811 -0.0978 -0.3244
    1W        W56718   9.118   1.348   9.599 -0.2872 -0.0654  0.0173
    1W        W56719  23.383  14.554   9.550 -0.1530  0.0974  0.1113
    1W        W56720  22.572  23.016   7.908  0.2237  0.1806  0.0360
    1W        W56721  18.327  14.719   7.762  0.1802 -0.1051 -0.2007
    1W        W56722  24.479  24.298   8.737 -0.1772  0.0283 -0.1132
    1W        W56723  12.579  11.048   9.583  0.0979  0.0704 -0.0800
    1W        W56724  13.503   9.268   9.081 -0.2191  0.4100 -0.0387
    1W        W56725  11.671   0.115   8.842  0.1195 -0.1845  0.0023
    1W        W56726  22.337  13.609   7.891  0.1303 -0.4219  0.0034
    1W        W56727   8.193   4.200   1.332 -0.1481  0.0313 -0.2326
    1W        W56728  21.125  18.778   3.771 -0.0427  0.0897  0.0798
    1W        W56729  16.121  18.889   0.561  0.0041 -0.0210  0.2866
    1W        W56730  23.815  18.953   9.131 -0.0837  0.4378 -0.0012
    1W        W56731   7.534   2.930   1.551  0.0858  0.0939  0.0029
    1W        W56732  28.156  27.795   8.558 -0.2731  0.1605  0.1440
    1W        W56733  11.590  17.114   1.426  0.2459 -0.1519  0.1381
    1W        W56734  15.413  11.234   1.106  0.2374 -0.0421  0.3366
    1W        W56735  16.405   4.584   0.977  0.1257 -0.1234  0.2227
    1W        W56736  11.308  26.632   8.103  0.0544  0.2540  0.0717
    1W        W56737  24.486  20.807   7.245 -0.0425 -0.0483 -0.1316
    1W        W56738  18.811  19.661   7.581  0.0243 -0.1281 -0.1052
    1W        W56739  12.645  11.663   8.101  0.1146 -0.0992  0.2017
    1W        W56740  20.399   4.524   1.716 -0.0747  0.2107  0.3576
    1W        W56741  20.824   4.352   7.860  0.0168 -0.1893 -0.2767
    1W        W56742   2.078  20.180   9.511  0.1644  0.0223  0.0021
    1W        W56743  10.401   5.654   7.977  0.2430 -0.0970 -0.3360
    1W        W56744   2.860   7.601   7.458  0.1927  0.2346 -0.2288
    1W        W56745  15.994  27.553   7.567 -0.1369 -0.3911 -0.3111
    1W        W56746  13.657   9.460   0.519 -0.4468 -0.0519  0.3357
    1W        W56747  15.933  25.514   1.365  0.1540  0.0500  0.4511
    1W        W56748  19.380  20.301   0.957  0.1832  0.0290  0.1289
    1W        W56749  24.986  16.993   7.982  0.0095  0.2164  0.1890
    1W        W56750  25.474  23.536   7.983 -0.0499 -0.1196 -0.0172
    1W        W56751  24.956  19.181   2.649  0.1544 -0.1109  0.0260
    1W        W56752  14.382   1.472   0.292 -0.2014 -0.0611  0.2816
    1W        W56753   5.116  10.148   7.180  0.0454  0.2479 -0.0433
    1W        W56754   6.029   4.146   2.275  0.2251  0.2080  0.1650
    1W        W56755   0.667  23.326   1.201 -0.0558  0.1063  0.0455
    1W        W56756  28.075  17.965   0.934  0.2820  0.1271 -0.0730
    1W        W56757   7.530  12.490   7.209  0.0586  0.0863  0.0131
    1W        W56758   9.655   2.694   9.312  0.0298  0.1874  0.1179
    1W        W56759  20.888  12.443   8.758 -0.0208 -0.1396  0.3284
    1W        W56760   2.979  14.983   7.714  0.1385 -0.1766  0.3254
    1W        W56761   3.934  23.485   6.830  0.0493 -0.1136  0.1527
    1W        W56762  10.379  28.039   7.021  0.0402  0.1343 -0.2280
    1W        W56763   5.191  20.368   3.026 -0.2359  0.0732 -0.2224
    1W        W56764  14.191  11.604   7.186  0.0828  0.0768  0.1036
    1W        W56765   0.865  24.455   7.593 -0.0174  0.1601 -0.0611
    1W        W56766  19.909   2.863   8.303  0.0806 -0.0705 -0.1458
    1W        W56767  14.907  26.564   0.887 -0.0336 -0.1091 -0.2197
    1W        W56768  23.352  22.161   7.731  0.2675  0.1940 -0.1016
    1W        W56769  15.312  13.653   7.912 -0.0705  0.1171  0.3412
    1W        W56770   3.003  24.364   0.636 -0.2040 -0.3419 -0.0290
    1W        W56771   7.735  28.476   7.159 -0.2265  0.2719  0.3396
    1W        W56772   2.576  18.964   8.190 -0.0989 -0.2382  0.0489
    1W        W56773   8.162  28.236   8.868  0.2614  0.1639 -0.2967
    1W        W56774  22.880  29.420   8.756  0.0399 -0.4108  0.1400
    1W        W56775   0.071  14.709   8.266  0.1128  0.1994  0.1321
    1W        W56776  26.244  20.986   0.921 -0.0632 -0.3476  0.2808
    1W        W56777  19.645  12.683   9.211  0.2667  0.1332  0.0338
    1W        W56778  16.913  25.881   1.628 -0.2572 -0.0396  0.2034
    1W        W56779   5.241  17.119   9.158  0.0193 -0.0317 -0.0574
    1W        W56780  28.949   1.667   2.145  0.1133  0.0364  0.2082
    1W        W56781  25.108   2.477   1.180 -0.1049 -0.1483  0.1238
    1W        W56782  19.482   2.737   9.315 -0.0834  0.3997 -0.0229
    1W        W56783  17.499   6.882   8.471  0.2686  0.1459 -0.2221
    1W        W56784  21.646   2.279   7.960  0.0398  0.0063  0.1745
    1W        W56785  27.584   5.075   6.891  0.0915 -0.2378  0.3503
    1W        W56786  29.184  25.820   8.614 -0.2573 -0.2262  0.1128
    1W        W56787   2.237   3.653   8.932 -0.3685 -0.0223 -0.1562
    1W        W56788  28.717   3.743   1.601  0.1053  0.0138  0.2090
    1W        W56789  11.598   5.234   6.101  0.0439  0.1044  0.0334
    1W        W56790  18.165  22.769   7.415 -0.0372 -0.0836  0.2586
    1W        W56791   0.086   0.814   6.814  0.2848 -0.0165 -0.0874
    1W        W56792  21.363  18.364   2.199 -0.0014  0.0562 -0.0021
    1W        W56793  17.380   2.895   1.648 -0.1129 -0.2676 -0.0103
    1W        W56794  16.003  11.918   8.124  0.2473 -0.1206 -0.0694
    1W        W56795   4.824  17.849   1.635 -0.1244 -0.0175 -0.0769
    1W        W56796   3.366   4.384   7.999  0.1867 -0.1843  0.2048
    1W        W56797  24.451  25.992   7.894  0.0849 -0.2518 -0.0456
    1W        W56798  28.570   3.025   8.494  0.3115 -0.1299  0.4351
    1W        W56799  10.742   0.220   7.330  0.3321 -0.1737  0.1106
    1W        W56800   0.481  16.270   3.236  0.1036 -0.3106  0.0614
    1W        W56801   3.003  19.253   0.452 -0.2101  0.2996 -0.2254
    1W        W56802   0.405   6.008   6.625  0.1287  0.1647  0.1433
    1W        W56803  26.531  18.427   2.137 -0.0243 -0.0398 -0.1980
    1W        W56804  16.096  25.002   1.539  0.2369  0.1467 -0.1158
    1W        W56805   2.128  21.721   2.358  0.1158  0.1091  0.1871
    1W        W56806  24.669   2.662   7.563 -0.2392 -0.1077  0.1585
    1W        W56807  18.773  27.969   9.131 -0.2337 -0.1312 -0.0797
    1W        W56808  18.903  20.344   1.167  0.1496  0.1385  0.0016
    1W        W56809   8.009  21.855   9.355  0.0676  0.1026  0.2516
    1W        W56810  12.948   6.744   6.469 -0.0724 -0.2514  0.0253
    1W        W56811   7.324  25.133   7.413 -0.1168 -0.0069  0.1394
    1W        W56812  16.621  14.385   0.912  0.1510 -0.0309 -0.0404
    1W        W56813  22.918  26.107   2.536  0.3198  0.0047  0.0193
    1W        W56814  20.246  16.061   8.013  0.2702 -0.3686  0.1486
    1W        W56815  26.866  25.759   1.699 -0.0873  0.0937  0.1483
    1W        W56816   0.930  18.899   0.909  0.2187  0.1514  0.1311
    1W        W56817  23.534  29.186   0.625  0.2847  0.0569  0.0006
    1W        W56818  21.126  17.382   1.532 -0.3274  0.0786 -0.2834
    1W        W56819   4.737   9.542   8.125  0.0522  0.1612 -0.1395
    1W        W56820  16.847  24.043   2.507 -0.2316 -0.2580  0.2214
    1W        W56821  14.769   1.094   7.656 -0.0778  0.2775 -0.0189
    1W        W56822   7.669   9.643   0.631  0.1226  0.1959  0.1295
    1W        W56823  14.419  19.852   1.511 -0.1620 -0.0963  0.1312
    1W        W56824  10.122  20.097   0.707  0.1971  0.1021 -0.1299
    1W        W56825   7.694  27.597   8.296  0.0939  0.1348 -0.0343
    1W        W56826  13.123   7.772   1.545  0.1992  0.3121 -0.1006
    1W        W56827   9.391  10.852   7.705  0.1224  0.2676  0.2047
    1W        W56828  11.447  29.296   1.747 -0.1755 -0.1033 -0.5684
    1W        W56829   8.304  12.796   6.199 -0.4618  0.0872 -0.0547
    1W        W56830  15.474   2.870   6.917  0.2147  0.1256 -0.2254
    1W        W56831  16.534   5.560   7.451 -0.0487  0.1790 -0.0591
    1W        W56832   3.701  13.457   7.576 -0.2329  0.3482 -0.3383
    1W        W56833  19.458  29.385   1.647  0.0593 -0.2217 -0.2575
    1W        W56834   6.052  15.131   9.619 -0.3785 -0.1636  0.2175
    1W        W56835   1.959  18.330   3.269 -0.1163  0.2542 -0.1085
    1W        W56836  13.762   8.635   9.615  0.2233  0.3025 -0.0955
    1W        W56837   5.879  13.806   7.991 -0.2335  0.1200  0.0846
    1W        W56838  13.647   0.570   2.061 -0.1185 -0.2639  0.1252
    1W        W56839   6.506  10.103   8.299  0.1226 -0.0793  0.1414
    1W        W56840   1.282   5.709   2.026 -0.1135  0.1740 -0.0154
    1W        W56841   2.983   5.969   8.009  0.2862  0.1797  0.2219
    1W        W56842  28.141   2.913   0.550 -0.0719 -0.3058  0.0632
    1W        W56843  20.748  28.075   3.468 -0.0801 -0.1111 -0.0741
    1W        W56844  18.496  22.168   2.097  0.3830 -0.1081 -0.0063
    1W        W56845  24.125   0.616   2.587 -0.1445  0.1710  0.2114
    1W        W56846   0.765  13.221   7.427  0.0802 -0.0786 -0.1888
    1W        W56847   6.338  22.508   9.401 -0.1450  0.0374  0.0351
    1W        W56848  28.854   9.699   8.765 -0.1694  0.1390 -0.3048
    1W        W56849   1.584  13.230   8.960  0.0970  0.0611  0.1873
    1W        W56850  19.356  27.214   1.004  0.0433 -0.0527  0.2101
    1W        W56851  20.787  10.339   9.254 -0.0282  0.1237  0.1410
    1W        W56852   4.096  15.315   0.780 -0.0620 -0.0323 -0.3167
    1W        W56853   0.577  11.689   8.226 -0.0281  0.0337 -0.0155
    1W        W56854  11.400  23.590   7.047 -0.1424 -0.3409  0.3680
    1W        W56855   7.450  17.450   2.003  0.0393  0.2592 -0.0445
    1W        W56856  28.337   6.967   7.580 -0.1385 -0.1499 -0.1229
    1W        W56857   2.827   2.678   2.524 -0.1110  0.3138  0.1540
    1W        W56858   2.936  16.056   8.145  0.3114 -0.1813  0.2080
    1W        W56859   5.374  28.467   2.302 -0.0326  0.3253  0.2006
    1W        W56860  16.596  23.910   8.914 -0.3503  0.5466  0.0610
    1W        W56861  26.433   9.941   1.238  0.0138  0.0929 -0.1907
    1W        W56862  29.562  15.020   7.948 -0.2405  0.0806  0.2301
    1W        W56863  11.746  28.137   6.374  0.2652  0.0991  0.2262
    1W        W56864  23.643   6.146   1.859  0.1544 -0.0748  0.1038
    1W        W56865   7.805   1.974   6.209  0.2939 -0.2042 -0.0615
    1W        W56866  26.186   6.073   0.096 -0.0881 -0.0145  0.1448
    1W        W56867   5.887  11.021   9.456  0.2678  0.2913  0.0992
    1W        W56868  11.391   6.475   5.729  0.0590 -0.0943  0.0113
    1W        W56869  23.901  17.711   8.695  0.0712 -0.1565 -0.1571
    1W        W56870  10.603  17.504   8.357  0.0484 -0.2828 -0.0068
    1W        W56871   6.888   5.539   6.831  0.0681 -0.1552  0.0829
    1W        W56872  14.265  14.543   9.586 -0.0520 -0.0988  0.0982
    1W        W56873  20.857   6.872   9.615  0.0267  0.0502  0.2442
    1W        W56874  27.746  23.263   3.969  0.1809 -0.0023  0.0257
    1W        W56875  14.066   2.788   2.310  0.2230 -0.2540  0.2064
    1W        W56876  17.469  21.310   7.424  0.3388 -0.2223 -0.2415
    1W        W56877  18.026   1.964   8.587  0.1281 -0.0976  0.0065
    1W        W56878   9.983  11.031   0.647  0.0232 -0.0520  0.1288
    1W        W56879   4.778  10.037   8.491 -0.3490  0.1192  0.1253
    1W        W56880   3.866   8.365   6.450  0.3607  0.2769  0.0177
    1W        W56881   4.951  19.419   0.520  0.2257 -0.5028  0.0597
    1W        W56882  17.529   0.612   1.432  0.0935  0.2550 -0.1968
    1W        W56883  19.087  15.494   7.914  0.2787 -0.1556 -0.0740
    1W        W56884   6.117  15.744   6.273  0.1829 -0.0521 -0.0440
    1W        W56885  10.529   9.019   9.575 -0.1792 -0.2018  0.0317
    1W        W56886  26.272   9.970   0.717  0.2307 -0.2329 -0.2745
    1W        W56887  22.378   0.827   1.672  0.0488 -0.4546  0.0938
    1W        W56888  24.781   6.763   0.035  0.0181 -0.1054 -0.0422
    1W        W56889  16.680  26.360   7.725  0.0417 -0.2607 -0.0627
    1W        W56890  16.478  10.607   7.164 -0.0856 -0.1856  0.1052
    1W        W56891   6.788  18.688   2.012  0.0771 -0.0532  0.2083
    1W        W56892  20.876  12.406   1.069  0.2060 -0.2305 -0.1637
    1W        W56893   2.591   4.095   8.089  0.1017 -0.0963  0.1881
    1W        W56894  23.498  16.909   1.963 -0.0766  0.0033 -0.0133
    1W        W56895  26.841  10.345   1.929  0.0969 -0.3670 -0.0113
    1W        W56896   2.651  22.997   7.600  0.1654 -0.1059 -0.1590
    1W        W56897   9.742  23.174   2.714  0.1680  0.0340 -0.1982
    1W        W56898  14.204  24.738   2.345  0.1921  0.0329 -0.0697
    1W        W56899  26.843   3.290   0.744 -0.2944 -0.0761 -0.1325
    1W        W56900  28.421  26.077   9.050  0.1605 -0.4972  0.0173
    1W        W56901  28.997  28.343   9.641 -0.0846 -0.1636 -0.0047
    1W        W56902  22.394  25.313   1.167  0.3603  0.1791  0.2340
    1W        W56903  22.978   7.041   0.352  0.0414  0.1989  0.1490
    1W        W56904  26.217  12.131   1.049 -0.1236  0.0425  0.0302
    1W        W56905  15.413  28.351   7.993 -0.1670  0.1575 -0.0614
    1W        W56906   9.269  11.097   9.115 -0.1138 -0.0074 -0.2293
    1W        W56907  11.807   3.884   0.250  0.4759 -0.3305  0.2224
    1W        W56908  16.419  26.050   6.240 -0.0424 -0.4726  0.0232
    1W        W56909  14.775  28.703   0.084  0.0163 -0.3074  0.2091
    1W        W56910  19.744  15.015   2.976  0.2177  0.1298 -0.0681
    1W        W56911  22.515  25.623   1.554 -0.1437 -0.1203  0.2412
    1W        W56912  19.997  20.077   0.168  0.0482 -0.2722 -0.3513
    1W        W56913   0.540   3.921   2.211  0.0527  0.0621 -0.1575
    1W        W56914   7.573  15.196   2.901  0.0356  0.3174 -0.1814
    1W        W56915  14.215  18.786   7.974  0.0890 -0.2113  0.0077
    1W        W56916  29.400  16.167   2.230  0.1323 -0.0031  0.0132
    1W        W56917  15.833  23.040   2.429  0.0127 -0.4880  0.0354
    1W        W56918   0.077   1.743   6.060  0.0396  0.1242 -0.0356
    1W        W56919   9.920  14.918   0.281  0.1728  0.0741 -0.0042
    1W        W56920  26.955   2.382   1.296 -0.0056 -0.1203  0.0171
    1W        W56921  28.546  17.275   8.601  0.0872 -0.0001  0.1557
    1W        W56922  25.557   1.032   9.455 -0.2122 -0.0035  0.0917
    1W        W56923  12.156   5.178   6.046  0.1946 -0.0166 -0.0108
    1W        W56924  27.694  27.097   3.020  0.0318  0.1244 -0.0786
    1W        W56925  15.501   9.400   7.430  0.1383 -0.0296  0.0171
    1W        W56926  17.781  14.916   8.872 -0.1681 -0.2223  0.2166
    1W        W56927   1.232  15.623   7.909 -0.1088 -0.1832  0.1542
    1W        W56928   6.666   3.801   7.444 -0.0410 -0.1005  0.2321
    1W        W56929  18.576  17.893   1.067  0.1579  0.1902 -0.3053
    1W        W56930  17.348  13.069   1.278 -0.0431  0.3291 -0.0824
    1W        W56931  11.353  13.951   1.983  0.1494  0.1192 -0.0727
    1W        W56932  19.384   0.506   0.666  0.2534 -0.1045  0.0647
    1W        W56933  18.010   4.643   8.602  0.1336 -0.3357 -0.2095
    1W        W56934  23.050  26.581   9.333 -0.1440 -0.0875 -0.0232
    1W        W56935   5.810  26.325   8.914 -0.3120 -0.0883 -0.0591
    1W        W56936  11.097  17.404   0.880 -0.0879  0.1254 -0.1269
    1W        W56937   0.358  23.064   7.674  0.2300 -0.3777  0.1126
    1W        W56938   2.945   8.352   7.940 -0.2528 -0.0088  0.1528
    1W        W56939  20.538   4.081   0.551 -0.0553 -0.2414 -0.2098
    1W        W56940  26.376  17.400   8.639 -0.2551  0.1614  0.0268
    1W        W56941   7.277  24.251   3.369  0.1678 -0.2947 -0.0256
    1W        W56942   6.359  11.823   7.701  0.0064 -0.1654 -0.0832
    1W        W56943  13.055  26.958   7.727  0.0297 -0.1915  0.1973
    1W        W56944  27.321  21.197   8.595 -0.1541 -0.0663  0.2530
    1W        W56945   5.915   3.819   8.870 -0.3822  0.0138  0.1125
    1W        W56946   6.351  18.814   2.226  0.1391 -0.1003 -0.0344
    1W        W56947   5.988  22.308   0.116 -0.2389 -0.2013 -0.0801
    1W        W56948  24.403  27.906   1.370 -0.4856  0.1089  0.1529
    1W        W56949  23.697  16.728   8.543  0.1122  0.3472  0.2039
    1W        W56950   5.537   8.979   0.869  0.0926 -0.0904  0.0644
    1W        W56951   3.822   7.098   9.446 -0.0154 -0.0328  0.2900
    1W        W56952  16.042  13.043   6.883 -0.1348 -0.2093 -0.2366
    1W        W56953  20.600  17.108   0.147 -0.0663  0.1405  0.0707
    1W        W56954   4.571  22.850   1.881 -0.2053 -0.0198  0.3225
    1W        W56955   1.844  21.038   1.917 -0.1264 -0.0368  0.3146
    1W        W56956  19.729  20.911   8.752  0.0074  0.0385 -0.1149
    1W        W56957   2.601  17.279   7.477  0.0097 -0.1280 -0.5056
    1W        W56958   6.127  15.296   7.988  0.2944  0.4056 -0.1595
    1W        W56959  19.175   1.563   9.355 -0.3281 -0.0400 -0.2183
    1W        W56960   6.805   6.209   1.403 -0.1731  0.1704 -0.0009
    1W        W56961  15.665   7.663   0.598 -0.1267 -0.4611  0.1967
    1W        W56962  28.433  22.390   2.275  0.0453  0.1834  0.0741
    1W        W56963  14.864   7.660   7.455  0.0503 -0.2049  0.2691
    1W        W56964  23.745  20.878   7.738 -0.1388  0.2638 -0.0890
    1W        W56965   2.763  25.247   1.387 -0.1976  0.1157  0.0230
    1W        W56966  12.911  16.963   1.187  0.0563 -0.2561 -0.2231
    1W        W56967   3.323   5.602   1.668 -0.1630  0.1093 -0.1541
    1W        W56968   9.291   1.371   7.069  0.0220 -0.2585  0.1534
    1W        W56969  14.951   8.254   0.425  0.0382  0.2745 -0.3141
    1W        W56970   5.411  23.110   9.536 -0.2242  0.1328  0.1838
    1W        W56971  22.736   3.295   8.234  0.1290 -0.1221  0.1212
    1W        W56972   6.736   1.357   8.167  0.2924  0.0258  0.1330
    1W        W56973   2.192  24.734   2.184 -0.1211  0.0390  0.1025
    1W        W56974  22.585   1.960   1.130  0.1944 -0.1217  0.1027
    1W        W56975  29.019  15.174   7.972  0.1126 -0.3139  0.1310
    1W        W56976  22.404   0.288   2.856  0.1697  0.2557  0.2887
    1W        W56977   3.602  12.241   8.387 -0.0850  0.3589  0.0177
    1W        W56978   9.255  29.589   0.527 -0.0460  0.0778 -0.3179
    1W        W56979  27.367  22.770   3.029  0.2368 -0.0416  0.2522
    1W        W56980   2.016  12.857   1.983 -0.0481 -0.0857 -0.1856
    1W        W56981   3.349  10.793   6.986 -0.0827 -0.1282 -0.2559
    1W        W56982   3.099   4.122   7.249  0.1381 -0.3147  0.1641
    1W        W56983  14.268  25.028   1.764  0.2473 -0.0529 -0.3139
    1W        W56984   0.097  13.791   1.817 -0.2900 -0.0564  0.0740
    1W        W56985  16.256   6.290   7.766 -0.0594  0.2937 -0.2314
    1W        W56986   9.863  27.348   7.219  0.0587 -0.0266  0.0138
    1W        W56987   8.833  18.553   2.272 -0.0099  0.0276  0.0573
    1W        W56988  24.995  12.810   8.500 -0.3315 -0.0779 -0.1190
    1W        W56989   5.341  17.494   2.228  0.0297 -0.0510  0.3161
    1W        W56990  16.405  11.198   9.136 -0.0482  0.2744 -0.1478
    1W        W56991   2.330   4.390   6.412 -0.0138 -0.3498  0.1796
    1W        W56992   6.900   8.998   8.681 -0.2640 -0.0556  0.2096
    1W        W56993  24.066   3.539   0.670  0.1343 -0.1698 -0.2023
    1W        W56994  17.248  25.105   8.191  0.4072  0.2751  0.1682
    1W        W56995  14.061   1.917   0.262 -0.0539  0.2094  0.0578
    1W        W56996  12.853  15.528   2.437 -0.0505 -0.1107  0.2281
    1W        W56997  23.083  27.625   8.276 -0.0526  0.0866 -0.0336
    1W        W56998  11.602  11.328   9.082  0.0702  0.0435 -0.0303
    1W        W56999  27.515  14.934   8.734 -0.0770  0.0211 -0.0805
    1W        W57000  11.083  26.212   8.432 -0.1373  0.2068  0.2379
    1W        W57001  10.978  13.499   6.542 -0.0253 -0.0724  0.2544
    1W        W57002   7.390  14.916   9.360  0.2089  0.2691 -0.3616
    1W        W57003   4.935   7.573   0.482  0.3165  0.1733  0.1176
    1W        W57004   8.323   2.215   9.075  0.0728  0.0565 -0.1378
    1W        W57005  21.271   7.826   8.748  0.0670 -0.0781 -0.1704
    1W        W57006   8.149   7.857   1.915 -0.6591 -0.1201  0.0407
    1W        W57007  14.622  20.486   2.609 -0.0290 -0.5581 -0.1114
    1W        W57008   5.848   9.027   6.908 -0.1303 -0.3689  0.1407
    1W        W57009  28.862  18.217   2.078 -0.1189 -0.0548  0.2203
    1W        W57010   9.166   9.056   1.670  0.1734 -0.2617 -0.1100
    1W        W57011   2.407  23.711   9.332 -0.0989 -0.2239 -0.1391
    1W        W57012   6.559  22.268   1.230 -0.0720  0.0046  0.1853
    1W        W57013  28.755  24.931   8.165 -0.2526  0.0256 -0.1171
    1W        W57014  14.525  20.320   0.685 -0.1684  0.2741 -0.0294
    1W        W57015  26.546  11.355   7.075 -0.0352  0.0027 -0.1453
    1W        W57016  10.543  21.577   6.777 -0.2108 -0.0867  0.0009
    1W        W57017  21.569   6.482   2.417  0.1011 -0.3545 -0.1300
    1W        W57018   0.455  12.285   8.481  0.0138  0.0168 -0.0803
    1W        W57019   2.921   9.299   7.802 -0.1959  0.3226 -0.6741
    1W        W57020  28.550   0.703   2.112 -0.0590  0.0146 -0.4849
    1W        W57021  23.806   2.455   9.066 -0.1372 -0.1549  0.2345
    1W        W57022  22.582   1.128   0.849  0.0489  0.1769  0.1779
    1W        W57023   1.071  22.796   8.900 -0.3152 -0.2377 -0.0628
    1W        W57024  19.737  23.128   8.914 -0.1678 -0.0656  0.0383
    1W        W57025   1.965  10.888   8.691  0.0554 -0.1562 -0.1231
    1W        W57026   9.098   0.751   0.740  0.3725  0.2995 -0.1017
    1W        W57027  24.157   4.152   0.948  0.1012  0.3342  0.0824
    1W        W57028   8.897  12.094   0.094 -0.2577  0.0821  0.2169
    1W        W57029  10.364   6.554   1.784  0.0277  0.1729  0.0459
    1W        W57030   0.362   0.375   0.126 -0.0431 -0.1463  0.0744
    1W        W57031  21.436  14.302   2.205 -0.1720  0.0351  0.2356
    1W        W57032   4.159   7.954   1.207 -0.0737  0.3668 -0.0644
    1W        W57033  26.375  19.744   3.878  0.1904  0.1844  0.0924
    1W        W57034  29.136  23.885   3.229  0.3579  0.1299 -0.1906
    1W        W57035  15.442  17.828   6.913 -0.3113  0.2034  0.0735
    1W        W57036   4.699   3.342   6.386  0.0212  0.2750 -0.1335
    1W        W57037  11.623  18.391   7.707 -0.0230 -0.1292 -0.0814
    1W        W57038   9.360  28.720   0.377  0.0147 -0.0244  0.2779
    1W        W57039  27.784  22.765   3.999 -0.0235 -0.2735 -0.0473
    1W        W57040  23.709  26.533   8.363 -0.2118  0.1081  0.0590
    1W        W57041   6.441  22.109   7.003  0.2561  0.0891 -0.0601
    1W        W57042  23.327  17.992   0.058 -0.0934 -0.0124 -0.2571
    1W        W57043   9.013  15.200   2.277  0.0558 -0.0757  0.0185
    1W        W57044  13.788  11.913   2.505 -0.4014  0.0006  0.1019
    1W        W57045   0.545   2.532   6.362  0.1889  0.2788 -0.0162
    1W        W57046  20.852  25.038   8.183 -0.1072  0.2687  0.0484
    1W        W57047   9.735  18.632   2.088 -0.1339 -0.0352 -0.1864
    1W        W57048   1.639  14.339   9.112  0.1377 -0.1340 -0.2904
    1W        W57049  17.330  20.004   2.000 -0.0234 -0.1530 -0.0459
    1W        W57050  18.751  20.246   8.685  0.0574  0.1144 -0.0835
    1W        W57051  12.330  16.182   9.639  0.0116 -0.0021  0.1487
    1W        W57052  10.390   9.273   7.803 -0.0155 -0.3215 -0.1128
    1W        W57053  19.018  21.233   8.662  0.3362  0.1535  0.0210
    1W        W57054  26.735  19.827   7.779 -0.3985  0.0150 -0.0695
    1W        W57055  16.689   8.953   7.002  0.0868  0.0246 -0.3940
    1W        W57056   8.524   0.525   0.952 -0.3908 -0.1800 -0.1019
    1W        W57057   9.243  26.977   2.183  0.0746  0.1932 -0.0870
    1W        W57058  11.425  16.373   9.097 -0.3787 -0.1812 -0.0788
    1W        W57059  25.581  25.097   1.358 -0.1453 -0.1599 -0.1130
    1W        W57060  13.624  11.954   8.190 -0.1636  0.1096  0.0273
    1W        W57061   9.418   4.129   0.906  0.0714  0.0652  0.0905
    1W        W57062   6.034   1.494   7.966  0.1830  0.1206 -0.3223
    1W        W57063  11.035   5.755   0.670  0.0041 -0.0430 -0.0786
    1W        W57064  10.814  20.601   9.188 -0.0309  0.0182  0.0196
    1W        W57065  10.787  14.895   1.567 -0.0925 -0.1040  0.0544
    1W        W57066  21.371  23.132   2.755  0.1071 -0.3106  0.0117
    1W        W57067  17.330  24.531   9.503  0.2842 -0.0565  0.1113
    1W        W57068   2.022  19.825   1.891 -0.1185 -0.0572 -0.0490
    1W        W57069  13.304   5.834   0.902 -0.2157  0.0025 -0.2425
    1W        W57070   6.858   5.221   0.714  0.1793  0.0037 -0.1072
    1W        W57071  18.393   4.593   9.089  0.0436  0.0991 -0.1499
    1W        W57072   7.871  25.441   9.252 -0.0968  0.1162  0.2260
    1W        W57073   6.095  21.763   1.560  0.0588 -0.1377  0.1343
    1W        W57074   5.984  17.189   1.361  0.0348  0.1107 -0.0795
    1W        W57075  24.525   3.369   0.465  0.0392  0.1716  0.0640
    1W        W57076   2.645  17.771   0.051 -0.0207  0.0374 -0.1003
    1W        W57077  21.590   4.735   8.884 -0.0905  0.0341 -0.0536
    1W        W57078   5.819   1.421   1.896 -0.3481  0.3032  0.1201
    1W        W57079   6.484   9.728   6.983 -0.0453 -0.1419 -0.0429
    1W        W57080  25.682  26.960   3.909  0.2367  0.1243 -0.2594
    1W        W57081   0.568   8.774   1.195  0.1212  0.0741 -0.0816
    1W        W57082  23.845  16.717   1.680  0.1186  0.2118  0.3630
    1W        W57083  18.654   3.222   3.520  0.1654 -0.0902  0.0646
    1W        W57084  29.615  27.516   8.654  0.0049 -0.2531 -0.0944
    1W        W57085  19.053  17.960   9.079  0.0957 -0.1437  0.0942
    1W        W57086  19.994  24.872   9.246  0.0208 -0.1707 -0.0965
    1W        W57087  19.165   6.113   1.093  0.3019 -0.1346 -0.0715
    1W        W57088  26.849  22.625   1.380  0.0853 -0.0933 -0.0143
    1W        W57089  27.157  23.970   2.008 -0.1852  0.0698 -0.2540
    1W        W57090   8.287  25.692   0.904 -0.1125  0.2171 -0.2761
    1W        W57091   7.034   9.351   8.313 -0.0685 -0.2106 -0.0694
    1W        W57092  20.764   0.745   2.189  0.1176  0.1608  0.1167
    1W        W57093  26.448  11.170   9.502  0.0106  0.1962 -0.2978
    1W        W57094  20.887  10.673   0.741  0.2939  0.1640 -0.1085
    1W        W57095   7.694  27.137   8.682  0.0673 -0.2929 -0.2113
    1W        W57096  27.212   1.493   2.705  0.0921 -0.1529 -0.0862
    1W        W57097  19.943  13.467   1.033 -0.0899 -0.0959  0.1068
    1W        W57098  11.509  18.218   6.631  0.1951  0.0388  0.1829
    1W        W57099  22.121   4.235   9.219 -0.1565 -0.2064  0.0541
    1W        W57100   9.776   1.923   0.718  0.2919 -0.0371 -0.1001
    1W        W57101   9.994  18.732   7.113 -0.1553  0.2553  0.2567
    1W        W57102  26.970  24.219   8.788 -0.4951  0.3576 -0.0888
    1W        W57103  20.192  25.015   0.033 -0.2665 -0.4125 -0.0936
    1W        W57104   9.588  24.320   1.907 -0.0346  0.0835 -0.0613
    1W        W57105  16.423   0.052   2.545  0.2954  0.3969  0.1450
    1W        W57106   9.409   5.715   7.040 -0.1181 -0.1546 -0.1898
    1W        W57107  13.329  25.493   2.489  0.0078  0.0387  0.1124
    1W        W57108   6.981  26.454   2.383 -0.4276  0.0102  0.1949
    1W        W57109  17.292   4.710   7.960 -0.3129  0.0446  0.2256
    1W        W57110  26.252  27.791   7.952  0.1364 -0.0503  0.0544
    1W        W57111  22.379   4.586   1.554  0.0097 -0.1148  0.3737
    1W        W57112  10.441  21.460   9.014 -0.4382  0.1236  0.1081
    1W        W57113   7.222   5.385   6.467  0.2834  0.2993 -0.2956
    1W        W57114  29.066  23.518   3.579  0.2522  0.2957  0.3508
    1W        W57115  11.700   7.292   1.504  0.0064 -0.3743 -0.0414
    1W        W57116   4.577  13.107   8.790  0.0438  0.1575 -0.4005
    1W        W57117   1.687  12.996   0.205  0.4414 -0.1840  0.2534
    1W        W57118  25.223  26.749   7.949 -0.1115  0.2691 -0.0048
    1W        W57119   7.887  22.154   2.884 -0.1522  0.4152 -0.2456
    1W        W57120  28.623   3.638   7.174  0.3056 -0.0341  0.2340
    1W        W57121  11.188  28.733   7.215 -0.1642 -0.0643 -0.0949
    1W        W57122  15.156   9.314   0.553  0.2252  0.2469 -0.0481
    1W        W57123  26.614  25.702   3.363 -0.0911 -0.0041 -0.0696
    1W        W57124  14.716  23.342   0.149 -0.0815 -0.0123  0.0246
    1W        W57125  22.718  11.722   2.156 -0.0096 -0.0906  0.2829
    1W        W57126  19.073  18.414   2.670 -0.1732  0.2056 -0.0749
    1W        W57127  15.018  12.813   7.761 -0.2398 -0.4830 -0.2505
    1W        W57128   0.373   9.185   6.798 -0.1223 -0.1080 -0.3840
    1W        W57129  27.364  14.516   8.454 -0.4013  0.0182  0.1279
    1W        W57130  26.802  29.010   7.987 -0.1882  0.2644  0.0070
    1W        W57131   6.352  10.859   9.516  0.0523  0.0714  0.0374
    1W        W57132  24.342  23.709   9.104 -0.0680 -0.0074  0.2678
    1W        W57133  27.892  15.436   7.796  0.2355 -0.3086  0.0712
    1W        W57134  11.134  27.052   1.848  0.2197  0.1317  0.0708
    1W        W57135  11.814  21.537   2.463  0.1239  0.0400  0.1956
    1W        W57136   6.797  26.187   2.777  0.4207  0.0823  0.1759
    1W        W57137  27.123   2.521   1.766  0.2429  0.1804 -0.0508
    1W        W57138   2.533  24.323   1.468 -0.1215 -0.2017  0.2433
    1W        W57139  11.662  21.459   8.998 -0.1392 -0.0636 -0.0836
    1W        W57140  11.600  13.963   6.895  0.1615 -0.0022 -0.1372
    1W        W57141  17.573  27.219   2.868  0.1836 -0.0670  0.2991
    1W        W57142   7.693   7.370   0.391  0.0600  0.0605  0.2383
    1W        W57143   4.972  27.902   8.751  0.1154  0.1053  0.2590
    1W        W57144   9.953   2.195   0.355  0.0666 -0.2093  0.0787
    1W        W57145  14.464   5.225   6.931  0.0106 -0.0165 -0.1587
    1W        W57146  20.406  18.458   8.921 -0.1895  0.3664  0.1003
    1W        W57147  18.188  15.585   2.383  0.1604  0.1051 -0.2886
    1W        W57148   1.833   1.126   1.769 -0.1959 -0.0994  0.5065
    1W        W57149  24.040  19.149   0.585  0.0824 -0.3183 -0.1894
    1W        W57150  13.861   9.446   1.995  0.1744 -0.4361 -0.1443
    1W        W57151  12.237   2.117   7.922 -0.1447  0.2664  0.2044
    1W        W57152  17.792   3.995   0.780 -0.4550  0.1026 -0.0248
    1W        W57153  12.627  21.072   8.445 -0.2691  0.0782 -0.0746
    1W        W57154   2.225  15.918   0.869  0.2307  0.1080 -0.2077
    1W        W57155  13.909  14.049   2.316 -0.1975  0.1375  0.1662
    1W        W57156  13.362   1.086   2.083 -0.1242 -0.1804 -0.2298
    1W        W57157   9.696  26.525   9.058  0.1887 -0.1828  0.5783
    1W        W57158   0.361   6.349   1.228  0.0965 -0.0736 -0.0326
    1W        W57159  22.091  24.592   9.281  0.3100 -0.0709  0.4233
    1W        W57160  12.809  29.415   6.190  0.0345  0.1597  0.1049
    1W        W57161  10.218  22.261   0.943 -0.0547  0.1241 -0.0228
    1W        W57162   1.371  24.372   7.421  0.1595 -0.2636 -0.1960
    1W        W57163  25.569  12.023   8.485 -0.2457  0.4025 -0.1415
    1W        W57164  22.504  10.307   7.622  0.0344 -0.3429  0.2901
    1W        W57165   4.186  27.962   8.500  0.1166  0.4606  0.0095
    1W        W57166  24.522  10.405   1.258  0.0095 -0.1387  0.0810
    1W        W57167  19.966   1.190   2.412 -0.2100 -0.0839  0.6633
    1W        W57168   3.674   3.863   7.814 -0.1033 -0.1544  0.0046
    1W        W57169  14.959  22.701   9.418  0.0204  0.3994  0.0935
    1W        W57170  17.245   9.693   8.313 -0.1971 -0.1070  0.0456
    1W        W57171   1.071  27.200   9.534 -0.1614  0.1241 -0.1904
    1W        W57172  20.792  23.270   1.987 -0.0869 -0.0871 -0.3769
    1W        W57173  10.867   8.047   7.441  0.0557  0.0234  0.0928
    1W        W57174  15.521   7.984   7.218 -0.0249 -0.2485 -0.0954
    1W        W57175  16.452   5.205   0.090 -0.0268 -0.1108 -0.2008
    1W        W57176  22.457  26.769   2.056  0.1445 -0.0687  0.6104
    1W        W57177   3.234   4.507   6.752 -0.0132 -0.0799  0.0162
    1W        W57178  27.266  20.414   2.493 -0.0019 -0.1995 -0.0007
    1W        W57179  26.518   6.616   7.243 -0.1232 -0.1024  0.0682
    1W        W57180   8.345  11.707   8.598  0.2132  0.1899  0.1963
    1W        W57181   2.877  12.418   0.472 -0.0785  0.0413  0.2948
    1W        W57182  22.740  22.990   0.691  0.0948  0.0588 -0.1596
    1W        W57183  25.501  27.233   7.819  0.0882 -0.1093  0.0818
    1W        W57184   3.408   9.754   1.314 -0.2464 -0.0382  0.1541
    1W        W57185   4.116   5.915   1.503  0.1367  0.1273  0.2350
    1W        W57186  14.035  15.798   3.056 -0.1907  0.1284 -0.1419
    1W        W57187   3.693  28.154   0.083  0.0841  0.0256 -0.1595
    1W        W57188  14.981  16.853   0.389  0.1241 -0.0797 -0.1492
    1W        W57189  21.240  15.061   2.127 -0.1349 -0.2478 -0.1307
    1W        W57190   0.181  26.606   0.043 -0.2988 -0.0314  0.0101
    1W        W57191  21.540  22.167   0.157 -0.2305 -0.0763 -0.2813
    1W        W57192  28.719   5.316   0.080  0.3416 -0.0600  0.1278
    1W        W57193  28.516  23.323   0.890 -0.1099  0.1137  0.2147
    1W        W57194  17.015  13.326   1.630 -0.2958 -0.0640 -0.0573
    1W        W57195  17.649  10.416   2.781 -0.4276  0.1740 -0.3089
    1W        W57196   7.053  28.103   6.658  0.2911 -0.1737  0.3004
    1W        W57197  25.827   5.846   1.475 -0.1448  0.1093 -0.1983
    1W        W57198  25.190  11.499   0.432 -0.0080  0.0367  0.1395
    1W        W57199  28.860  23.512   8.208 -0.0249 -0.1220 -0.0422
    1W        W57200  11.357  27.385   3.004  0.1352  0.0174 -0.0275
    1W        W57201   6.985  10.975   8.297  0.0282  0.2192  0.0992
    1W        W57202   2.550  18.790   8.667 -0.1713 -0.1221 -0.3395
    1W        W57203   0.872  22.052   8.649  0.1047 -0.0307 -0.2723
    1W        W57204   8.693  14.546   8.886  0.0383 -0.0788  0.0404
    1W        W57205  28.133   3.197   8.888  0.0885  0.1334 -0.0795
    1W        W57206   7.892   3.421   0.128  0.1086  0.1612  0.3143
    1W        W57207   0.505  23.213   9.213  0.0518  0.1614 -0.2009
    1W        W57208  15.491  11.090   9.083 -0.0370  0.2518 -0.1726
    1W        W57209  20.756  17.598   1.284 -0.0959 -0.1155  0.0242
    1W        W57210   4.116   4.923   5.855  0.1387  0.0619  0.1609
    1W        W57211   6.788  11.171   0.553 -0.3567 -0.1727 -0.2379
    1W        W57212  24.327  21.933   2.710  0.0147  0.3556  0.0863
    1W        W57213  15.017   6.319   0.162  0.2597 -0.1226  0.2805
    1W        W57214  24.237  18.752   0.354 -0.1285  0.1219  0.1314
    1W        W57215   2.250  23.990   7.439  0.3712  0.1758 -0.2774
    1W        W57216  17.192   1.172   0.005  0.3761 -0.3203 -0.2760
    1W        W57217   2.941  26.452   6.665  0.0636 -0.1084  0.0304
    1W        W57218  12.345   3.687   0.185 -0.2475 -0.1319  0.0986
    1W        W57219   8.502  24.025   8.290 -0.0914 -0.0960 -0.3257
    1W        W57220   6.707   8.600   7.224 -0.0970 -0.3217 -0.3541
    1W        W57221  18.926   1.623   2.812  0.0355 -0.0908  0.1527
    1W        W57222  17.180  19.415   0.948  0.1175  0.0550 -0.1327
    1W        W57223  25.409  27.910   3.995 -0.2095  0.3477 -0.1120
    1W        W57224  11.211  26.349   0.464  0.2482 -0.4999  0.1879
    1W        W57225  23.035  13.421   7.147  0.0458  0.0555 -0.1214
    1W        W57226   8.882  20.100   6.687  0.2461 -0.0652  0.1155
    1W        W57227   9.378  18.505   0.020 -0.0049  0.1152 -0.0469
    1W        W57228  14.059   1.468   0.889  0.0355  0.0372 -0.0055
    1W        W57229  25.880   1.501   8.856 -0.0584  0.0207  0.0984
    1W        W57230  10.643   9.412   8.517  0.2805  0.3336 -0.2490
    1W        W57231   5.443  16.043   0.401  0.0971  0.4705 -0.2008
    1W        W57232  13.519  21.162   0.137 -0.1441  0.3803 -0.0807
    1W        W57233  21.401   1.400   2.577  0.0762 -0.0025  0.0905
    1W        W57234   1.723  13.605   1.874  0.0313 -0.0924 -0.1487
    1W        W57235  23.479   4.325   2.392 -0.0536  0.0607 -0.0574
    1W        W57236  25.291   2.822   0.168 -0.0777  0.0338  0.1008
    1W        W57237  13.213  26.483   6.080  0.0087  0.0967  0.5244
    1W        W57238   6.294  18.664   6.790  0.1056 -0.0178 -0.0780
    1W        W57239   8.159  14.934   6.299  0.0401 -0.0808  0.1084
    1W        W57240  21.697   8.382   7.738 -0.1738 -0.2956 -0.1955
    1W        W57241  29.561  23.788   2.614  0.0961  0.0325  0.0721
    1W        W57242   2.946  20.225   3.078 -0.2118  0.4139 -0.1710
    1W        W57243  15.736  26.928   7.537  0.4918 -0.1411 -0.0634
    1W        W57244  21.256  12.990   1.876 -0.0646 -0.2523  0.2383
    1W        W57245  15.354  14.050   1.026  0.0644 -0.1756 -0.4839
    1W        W57246  15.917  19.013   1.883 -0.1345 -0.1201 -0.1051
    1W        W57247  24.166  21.181   9.111 -0.0585  0.1513  0.0801
    1W        W57248  20.171  14.463   0.635 -0.0563  0.0858 -0.1295
    1W        W57249   8.496  17.310   6.277  0.0923 -0.2610  0.4170
    1W        W57250  24.721  20.796   9.518  0.1685  0.5187 -0.1309
    1W        W57251   2.549   6.323   6.721  0.1817 -0.2314  0.1599
    1W        W57252  16.806  29.338   8.842  0.0648  0.0605 -0.4158
    1W        W57253  14.140  20.569   1.007  0.1816  0.0461 -0.1630
    1W        W57254   9.810  10.885   2.485  0.2621  0.1412  0.0918
    1W        W57255  23.617  19.458   7.955  0.1781  0.0105 -0.2151
    1W        W57256  23.270  12.440   8.900  0.4025  0.4720 -0.1716
    1W        W57257  15.165  24.946   8.864  0.0745  0.1585  0.0331
    1W        W57258   5.324   4.724   1.015  0.1928  0.3588  0.0515
    1W        W57259   8.747   2.420   1.155  0.2432  0.0180  0.0842
    1W        W57260  24.562  19.214   3.476  0.0187  0.0681 -0.0410
    1W        W57261  10.541  14.853   6.842 -0.0716 -0.3382 -0.0672
    1W        W57262  12.723  27.909   8.409  0.0402  0.0073 -0.2046
    1W        W57263  18.050  21.307   9.062  0.0048 -0.1286  0.0609
    1W        W57264  23.592   2.665   1.539 -0.4100  0.0832  0.1451
    1W        W57265  26.037  23.038   0.228 -0.2921  0.1391 -0.2178
    1W        W57266  24.032  20.937   8.099  0.2044 -0.0993  0.0511
    1W        W57267   8.348  10.794   9.245  0.0013 -0.5080  0.2983
    1W        W57268  23.157  27.438   0.838 -0.0426  0.2830 -0.2180
    1W        W57269   7.248  14.575   8.008  0.0912  0.0515 -0.0071
    1W        W57270  24.656  22.413   2.045  0.1046  0.3050 -0.1402
    1W        W57271   2.332  27.446   7.509  0.0530 -0.0771 -0.1694
    1W        W57272  21.308  17.585   1.118 -0.0253 -0.2323 -0.1053
    1W        W57273  28.510  23.086   0.392 -0.2359 -0.0752  0.0218
    1W        W57274   2.806  25.204   9.205  0.3246  0.1777 -0.0457
    1W        W57275  26.348  13.039   2.412  0.2127  0.3306 -0.0525
    1W        W57276   8.278   6.482   6.465 -0.0242  0.1043  0.0608
    1W        W57277   2.222  13.591   1.353 -0.1232  0.0339 -0.0884
    1W        W57278   6.957  13.015   8.925  0.1403 -0.1618 -0.0241
    1W        W57279   9.528  19.542   1.737  0.0947  0.2032 -0.2626
    1W        W57280  25.818  11.739   0.947  0.2407  0.1784  0.2930
    1W        W57281   3.572   8.117   1.418  0.0553  0.1361 -0.1062
    1W        W57282  23.670  24.772   2.761  0.3412 -0.1825  0.0310
    1W        W57283  11.210  19.126   2.553  0.0635 -0.0426 -0.2705
    1W        W57284  22.075  17.970   1.445  0.0129 -0.1817  0.1377
    1W        W57285  22.021  14.426   3.037  0.2235  0.2180 -0.2310
    1W        W57286   1.126  13.882   8.566 -0.0111 -0.1146 -0.1985
    1W        W57287  29.162  27.671   1.632  0.1479  0.1713  0.0316
    1W        W57288  10.207  13.004   7.768 -0.0789 -0.0237  0.1040
    1W        W57289  18.710  25.075   0.281 -0.0821  0.1010  0.1428
    1W        W57290  23.754  12.677   7.883  0.3456 -0.2477 -0.3339
    1W        W57291  25.967  23.370   0.603 -0.0168 -0.0565  0.0145
    1W        W57292  27.885  15.840   9.613 -0.3360  0.0638  0.1806
    1W        W57293  21.260  26.538   2.108 -0.1098  0.1970  0.0732
    1W        W57294   6.771  24.091   6.319  0.1836 -0.0398 -0.2014
    1W        W57295  18.716   7.773   8.928 -0.0553  0.1744  0.3306
    1W        W57296  25.399  16.630   3.148 -0.0052 -0.1460 -0.4488
    1W        W57297  10.671  17.619   1.350 -0.1211  0.1452  0.0739
    1W        W57298  19.371  25.372   2.993  0.0515 -0.5355  0.2263
    1W        W57299  14.782  28.870   1.971 -0.2871 -0.1475 -0.3111
    1W        W57300  10.319  10.503   8.111  0.1184 -0.1966  0.2719
    1W        W57301   0.664  10.563   8.328  0.0561 -0.0036 -0.0228
    1W        W57302   8.658  17.606   9.342 -0.2334  0.2782 -0.1113
    1W        W57303   5.607   3.349   8.816  0.0828  0.0106 -0.0430
    1W        W57304  26.311  22.798   1.582  0.0227 -0.1591  0.0981
    1W        W57305   8.959  10.103   8.801  0.1113 -0.4354 -0.0921
    1W        W57306  13.341  29.500   6.313 -0.1325  0.0798  0.2268
    1W        W57307  25.611   4.147   0.581  0.0425  0.2817 -0.0111
    1W        W57308   4.021  18.509   2.740  0.0261  0.0142  0.1859
    1W        W57309  23.783   0.765   1.282 -0.0562  0.2140  0.2188
    1W        W57310  14.088  19.480   9.367  0.3671  0.1679 -0.2549
    1W        W57311  20.882  18.590   0.759  0.0986  0.3442 -0.0365
    1W        W57312  19.091  11.580   8.593 -0.2166 -0.1530  0.1897
    1W        W57313   3.760   2.766   6.404 -0.1486 -0.0269 -0.0345
    1W        W57314  18.066  20.445   1.600  0.2536  0.0587 -0.0747
    1W        W57315   3.886   4.319   2.179  0.2751 -0.0324  0.1348
    1W        W57316  13.798  25.239   1.834  0.1185 -0.2114 -0.2559
    1W        W57317  12.268   8.299   2.972 -0.2291  0.0493 -0.2129
    1W        W57318   2.877   3.918   1.021 -0.0088  0.0356  0.0654
    1W        W57319  20.060   4.390   1.271  0.0716 -0.0606 -0.2121
    1W        W57320  15.106  18.479   6.961 -0.1183 -0.0251  0.1908
    1W        W57321  23.069  26.687   8.626 -0.4306 -0.1130 -0.0697
    1W        W57322  19.692   3.736   1.670  0.1913  0.0193 -0.2204
    1W        W57323  18.599   6.566   6.850  0.0262 -0.1537 -0.1527
    1W        W57324   9.864  23.693   2.163 -0.0286  0.0994  0.0913
    1W        W57325  27.888  15.127   8.389 -0.0891  0.0251 -0.0722
    1W        W57326  21.283   5.747   0.223 -0.1338  0.1447 -0.0306
    1W        W57327   5.550  27.383   5.939  0.0850 -0.2491 -0.0310
    1W        W57328  21.309  12.304   0.746 -0.0851  0.0656  0.0240
    1W        W57329  18.652  11.618   8.857  0.0228  0.0696  0.2172
    1W        W57330  18.546   9.681   8.985 -0.3418 -0.3210  0.0846
    1W        W57331  26.682  14.632   7.040 -0.1677 -0.1677  0.2010
    1W        W57332  27.627  19.669   3.506  0.2138  0.3323 -0.3067
    1W        W57333  13.009  27.002   1.390 -0.0673  0.0256 -0.0956
    1W        W57334  10.411  27.677   9.548  0.0737 -0.1225 -0.0043
    1W        W57335  28.593   3.970   9.305 -0.2258 -0.2417  0.2061
    1W        W57336  18.275  25.206   9.545 -0.1793  0.1520 -0.2153
    1W        W57337  27.032  23.136   3.051  0.0862 -0.2952 -0.1872
    1W        W57338  16.726  21.917   7.327  0.4244 -0.2097  0.2116
    1W        W57339   1.581  20.270   2.585  0.2887  0.1526 -0.0080
    1W        W57340  13.795  16.206   8.775  0.0587  0.2031  0.0893
    1W        W57341  18.904  19.438   9.456  0.2670 -0.0634  0.1453
    1W        W57342  11.404  16.062   2.139  0.1003 -0.2200 -0.0438
    1W        W57343  22.021   1.388   7.952 -0.0132 -0.0868 -0.3068
    1W        W57344  21.470  25.282   1.868 -0.0426  0.1244 -0.4726
    1W        W57345   1.238   6.809   6.694  0.1866  0.1158 -0.1654
    1W        W57346   2.271  23.564   0.131  0.0993  0.3357 -0.0564
    1W        W57347  13.523  13.512   9.429  0.0954  0.0827 -0.5288
    1W        W57348   8.588  20.591   0.657 -0.1950 -0.4740 -0.0224
    1W        W57349   3.239  14.430   8.930 -0.1263 -0.1046 -0.0778
    1W        W57350   8.148  25.263   6.450  0.1784 -0.1417 -0.2495
    1W        W57351   5.726  22.605   3.152  0.2066  0.1233  0.5504
    1W        W57352  26.297   3.766   6.812 -0.1641 -0.2872  0.0927
    1W        W57353  11.909  16.194   6.446 -0.3013 -0.2781  0.1446
    1W        W57354  16.985  23.136   9.492  0.1580 -0.1785  0.0846
    1W        W57355  11.574  23.351   0.822  0.0180  0.1770 -0.3732
    1W        W57356   7.344  12.844   9.634  0.4316  0.2944 -0.1861
    1W        W57357  20.931  10.392   7.339  0.4598  0.1129  0.2770
    1W        W57358   2.228  27.991   1.534  0.1899  0.0503  0.2755
    1W        W57359  26.412  13.395   2.061  0.3150 -0.2444  0.0995
    1W        W57360  10.394  22.704   1.711 -0.4413  0.0431 -0.1265
    1W        W57361  19.103  28.765   8.857 -0.2125 -0.0224  0.0354
    1W        W57362   1.235  24.228   3.440  0.0800  0.5090  0.1600
    1W        W57363  26.590  13.245   2.844 -0.1071 -0.1038 -0.1435
    1W        W57364  24.515  21.561   3.020  0.0817  0.1300 -0.3281
    1W        W57365  14.893  28.767   6.678 -0.0089  0.0116  0.1877
    1W        W57366  16.752  20.500   0.916  0.3596 -0.0515 -0.0180
    1W        W57367   1.364   7.824   8.741 -0.1670  0.1021  0.0979
    1W        W57368  17.998   5.556   0.681 -0.3125  0.2502 -0.0574
    1W        W57369   0.471  16.444   8.647  0.2424  0.0072  0.2692
    1W        W57370  25.966   6.343   1.483 -0.2270 -0.1113 -0.0747
    1W        W57371   7.637  25.459   6.385  0.2907 -0.0731  0.0226
    1W        W57372  23.432  13.694   0.238  0.4339  0.0137 -0.2509
    1W        W57373   6.150   8.266   1.229 -0.1858 -0.0389 -0.0957
    1W        W57374   6.998  26.053   2.085 -0.2331  0.0691 -0.0926
    1W        W57375   7.145  29.461   1.322 -0.3134 -0.2585  0.1796
    1W        W57376   0.422  25.715   7.634  0.1159 -0.1491  0.0920
    1W        W57377   2.708  24.145   8.131 -0.0685 -0.2311 -0.3644
    1W        W57378  29.134   3.836   6.285  0.0435  0.0732  0.2429
    1W        W57379   9.742   4.353   8.206 -0.3168  0.0428  0.1410
    1W        W57380  13.422  11.954   0.495 -0.1081 -0.4199 -0.0728
    1W        W57381  18.566  16.853   8.112  0.2526  0.3031 -0.0171
    1W        W57382  23.125  25.359   8.164  0.0914  0.2105  0.0664
    1W        W57383  13.278  15.169   8.370 -0.0118 -0.2957  0.1543
    1W        W57384   5.922  20.447   6.874  0.1076 -0.0258 -0.2323
    1W        W57385   4.536   6.279   7.941 -0.1636  0.0163  0.0536
    1W        W57386  11.462  19.149   5.513 -0.1305 -0.2920  0.2040
    1W        W57387  13.576  29.023   6.928 -0.0226 -0.0701  0.0857
    1W        W57388  10.716  18.353   7.867 -0.1989 -0.1092  0.0645
    1W        W57389  17.046  24.877   7.464  0.1473 -0.4360 -0.1755
    1W        W57390  23.669  21.482   8.155 -0.1313  0.1636  0.2050
    1W        W57391  20.989  19.252   7.472 -0.0606  0.0386 -0.0839
    1W        W57392  28.318  22.917   1.508  0.0128 -0.0531  0.0422
    1W        W57393   5.546   3.253   7.056  0.0100 -0.1178  0.1915
    1W        W57394   6.750  28.733   0.678  0.0286  0.2508 -0.1199
    1W        W57395  26.603  10.422   0.930  0.1008  0.1487  0.2347
    1W        W57396   8.391  20.709   1.138  0.0475  0.0421 -0.1027
    1W        W57397  12.750  26.211   6.033 -0.3009  0.0267  0.0230
    1W        W57398  23.561  28.644   0.767 -0.0945  0.1284 -0.0600
    1W        W57399   7.482   8.636   2.051  0.0041  0.2120 -0.1862
    1W        W57400   6.259  25.215   7.146  0.2518 -0.1548 -0.1979
    1W        W57401  21.153  25.429   8.033 -0.1616 -0.2880 -0.1552
    1W        W57402  12.923  22.916   5.865 -0.0047  0.1139 -0.0724
    1W        W57403  14.985   5.198   8.382  0.2602  0.1105 -0.0476
    1W        W57404  22.588   8.481   8.948 -0.0591  0.1694 -0.3120
    1W        W57405   4.309  15.151   8.159  0.1439 -0.1946 -0.1517
    1W        W57406  16.172   0.729   3.133 -0.0441 -0.0542 -0.1282
    1W        W57407  27.114  26.786   1.635  0.0896  0.1126 -0.0527
    1W        W57408   2.440  21.634   0.999  0.0733 -0.1285 -0.1345
    1W        W57409  12.749  10.625   9.445 -0.0866 -0.1218  0.2198
    1W        W57410  18.038  24.227   2.502  0.0855 -0.0103  0.1781
    1W        W57411  11.363  17.395   8.966 -0.0860 -0.0384  0.0387
    1W        W57412  15.378  22.606   9.172  0.1473  0.2166  0.0908
    1W        W57413   1.517   6.218   5.604  0.0631  0.0995  0.1030
    1W        W57414  11.990   5.205   7.413  0.1103  0.4100  0.0075
    1W        W57415   5.668  19.010   8.712 -0.2524  0.0045  0.3697
    1W        W57416  11.631   0.578   7.309  0.2279 -0.2495 -0.2703
    1W        W57417   9.254   4.747   9.638 -0.0429 -0.1638  0.0683
    1W        W57418   6.538  21.030   2.388 -0.1871  0.1147 -0.1820
    1W        W57419  25.412  11.990   0.739  0.1856 -0.1839 -0.0375
    1W        W57420   6.747  27.066   8.507 -0.0937  0.2625 -0.0548
    1W        W57421   9.256  18.936   9.214 -0.0648 -0.0194  0.2576
    1W        W57422  19.271  20.749   1.132  0.1014  0.0410  0.0833
    1W        W57423  29.428  29.469   2.141 -0.0750 -0.1741  0.0274
    1W        W57424  24.675  14.678   1.027 -0.3964  0.0606  0.0782
    1W        W57425   3.071   3.593   7.357 -0.2091 -0.1996  0.4334
    1W        W57426  11.875  25.073   7.315 -0.2626 -0.0188 -0.4225
    1W        W57427  26.036  21.157   9.595 -0.1524 -0.2441 -0.3089
    1W        W57428   7.446   2.463   6.746  0.0235 -0.0392  0.0047
    1W        W57429  16.449  15.214   2.134  0.0122 -0.0696 -0.0782
    1W        W57430  11.094   8.971   1.233 -0.0055 -0.1308 -0.0067
    1W        W57431  22.953   6.604   2.659 -0.1631 -0.1190 -0.5044
    1W        W57432  27.459  14.424   9.523 -0.1086 -0.3482 -0.0175
    1W        W57433   1.259   5.000   6.593 -0.1056 -0.0068 -0.0453
    1W        W57434  10.160   2.376   7.946 -0.0438 -0.2046 -0.0583
    1W        W57435  21.954  14.195   1.522 -0.0252  0.0306 -0.3827
    1W        W57436  24.752  10.349   1.710  0.0871  0.1828 -0.1496
    1W        W57437  12.679  24.450   8.377  0.0989  0.1028 -0.2846
    1W        W57438   8.558  25.048   7.588  0.1867  0.0469  0.1811
    1W        W57439  29.356  22.327   7.922  0.1829  0.0528 -0.0010
    1W        W57440  26.592  16.723   9.639 -0.1260 -0.1496  0.1925
    1W        W57441  10.781  20.283   6.982 -0.2041  0.4226  0.0324
    1W        W57442  25.885  15.165   7.610 -0.1563 -0.0360 -0.0420
    1W        W57443  20.574   8.330   8.612  0.2573 -0.0530 -0.4431
    1W        W57444  20.787  23.293   2.580  0.1070  0.1702 -0.1018
    1W        W57445  27.907  19.349   1.348 -0.0546 -0.1165 -0.0509
    1W        W57446   0.748   1.997   8.427  0.1214 -0.0154 -0.1586
    1W        W57447  13.032   7.963   6.896 -0.1157 -0.0239  0.0742
    1W        W57448   9.177  19.828   0.795  0.0389 -0.2277  0.0227
    1W        W57449   9.747   3.837   1.505 -0.3971  0.3459 -0.1337
    1W        W57450  14.348   5.538   1.133 -0.0513 -0.0797 -0.0946
    1W        W57451  15.575   8.613   7.921 -0.1511 -0.2466  0.0654
    1W        W57452  11.637  21.230   7.480 -0.0209  0.2771 -0.0213
    1W        W57453  27.812   1.144   9.292  0.1007  0.0509  0.2038
    1W        W57454  21.024   9.417   1.458  0.0759  0.0840  0.1573
    1W        W57455   7.530  16.077   8.322  0.2131  0.0495  0.0772
    1W        W57456  24.449   2.532   0.334  0.0410  0.0414  0.6142
    1W        W57457  20.783   3.377   1.848 -0.0741 -0.1163  0.0530
    1W        W57458  11.067   7.853   8.791 -0.0016 -0.2634 -0.0862
    1W        W57459  19.937  17.842   8.236  0.1003 -0.3870  0.0030
    1W        W57460  20.012  10.633   9.447  0.1293  0.2284 -0.0180
    1W        W57461  21.877  11.344   6.927  0.1347 -0.1075  0.0446
    1W        W57462  12.415  12.550   8.822 -0.1965  0.1848  0.1149
    1W        W57463  24.862  14.014   0.213 -0.0346 -0.1951 -0.2590
    1W        W57464  13.893  13.977   7.080  0.0881  0.0315 -0.1292
    1W        W57465   5.688   4.902   0.055 -0.3246 -0.0895  0.0561
    1W        W57466   0.651   5.691   7.691  0.3473  0.2461  0.2361
    1W        W57467  27.507  21.485   6.943 -0.2322 -0.0341 -0.1480
    1W        W57468  18.530  23.268   2.346  0.3487  0.0780 -0.0492
    1W        W57469   6.273  14.510   8.356  0.2336 -0.3651 -0.0864
    1W        W57470   4.341  26.207   0.109  0.0034  0.3425  0.2289
    1W        W57471  18.264  13.196   0.893 -0.0244  0.2414  0.0535
    1W        W57472   4.278   1.182   1.899  0.1813 -0.0571 -0.0796
    1W        W57473  28.704  25.838   8.712  0.0795  0.0136 -0.0508
    1W        W57474   8.193  21.635   0.274  0.0636 -0.0716 -0.0569
    1W        W57475  11.837  18.488   8.189 -0.0023  0.2238 -0.1452
    1W        W57476   6.289  10.426   6.341 -0.0775 -0.1531  0.2408
    1W        W57477  12.108  19.683   1.021 -0.2899 -0.0833  0.0861
    1W        W57478   2.233   0.004   0.149 -0.2280 -0.1925 -0.2065
    1W        W57479   3.196  26.036   9.151 -0.1044  0.1686 -0.1463
    1W        W57480  10.328  27.526   7.226  0.1593 -0.1341 -0.1756
    1W        W57481   4.033   1.937   8.864 -0.0145  0.1385 -0.0597
    1W        W57482  18.987  26.462   9.405 -0.1377 -0.0980  0.1491
    1W        W57483   8.308   7.399   1.165 -0.0564  0.3589 -0.0133
    1W        W57484  25.802  20.474   2.488 -0.0662 -0.1791 -0.3784
    1W        W57485  21.813  19.218   2.663 -0.0463 -0.0077  0.2166
    1W        W57486  11.685  19.147   6.913 -0.0443  0.1825  0.0931
    1W        W57487  18.056  19.033   7.539 -0.0333  0.0185  0.2324
    1W        W57488  13.464  26.447   8.910  0.1907  0.0396  0.0893
    1W        W57489  20.235   3.237   0.471 -0.2001  0.2019  0.0270
    1W        W57490   0.529   2.835   7.305  0.2538  0.0548  0.0193
    1W        W57491   9.207  13.292   7.867 -0.0751 -0.2496 -0.3486
    1W        W57492  19.858  17.857   2.202  0.2190  0.6094 -0.0568
    1W        W57493   6.057  28.840   1.614 -0.0731 -0.3209 -0.0465
    1W        W57494  11.741  11.606   6.467  0.3089 -0.0743  0.0653
    1W        W57495  19.884   0.659   7.927  0.1397 -0.2441 -0.3230
    1W        W57496   0.786  24.728   2.702  0.0677  0.2022 -0.0428
    1W        W57497  26.514   6.783   8.052 -0.1041 -0.1233 -0.1435
    1W        W57498  24.554  14.194   8.885  0.0538  0.0285 -0.0607
    1W        W57499  22.872  29.624   2.478  0.0566  0.3021 -0.1249
    1W        W57500   8.548  21.301   0.160  0.2081  0.0151 -0.0846
    1W        W57501  18.000  24.630   7.789  0.1071 -0.4098 -0.2251
    1W        W57502   6.147   9.889   8.550  0.2834  0.1578 -0.1942
    1W        W57503  23.877  23.598   8.664 -0.1557 -0.1106  0.2404
    1W        W57504   7.587  12.942   7.464 -0.0746  0.0627  0.1810
    1W        W57505  29.325  15.914   6.909 -0.1698 -0.2488  0.2076
    1W        W57506  21.340  20.946   7.636 -0.1952 -0.2988 -0.0020
    1W        W57507   6.361  21.702   6.732  0.1046  0.1264  0.0825
    1W        W57508  17.510  27.353   2.127  0.0061 -0.0223  0.0116
    1W        W57509  10.377   8.886   6.178 -0.3185 -0.0532  0.0407
    1W        W57510   4.218  17.945   8.224  0.2433 -0.2320  0.1140
    1W        W57511  17.835   9.852   8.354 -0.1904  0.3425  0.4837
    1W        W57512   3.045   9.599   5.217 -0.1051 -0.0290 -0.1469
    1W        W57513  17.796  10.291   8.750 -0.1572  0.0397 -0.0669
    1W        W57514  25.522  17.297   1.821 -0.0950 -0.0559 -0.0666
    1W        W57515   4.198  17.432   8.914  0.3397 -0.0040  0.2830
    1W        W57516  10.495  28.431   2.555  0.0854  0.1661 -0.1633
    1W        W57517  18.187   8.499   8.306 -0.0133 -0.1536 -0.2301
    1W        W57518  24.396   5.250   0.056  0.0652  0.2339  0.0639
    1W        W57519  20.431  24.123   0.807 -0.0865  0.2098 -0.1028
    1W        W57520   2.185  23.849   1.611 -0.0224 -0.1672 -0.1264
    1W        W57521   1.205  22.707   0.961 -0.1636  0.0058  0.1560
    1W        W57522  24.342  28.391   8.993  0.0353 -0.0467 -0.2520
    1W        W57523  27.684  11.247   1.398  0.0460  0.1542  0.2430
    1W        W57524   0.143  21.419   1.847 -0.1385 -0.0574 -0.3144
    1W        W57525   2.245  18.463   8.340 -0.2990  0.0458  0.0639
    1W        W57526  26.786  27.156   3.028 -0.2345  0.1030 -0.1780
    1W        W57527  20.605  23.479   8.544  0.1022 -0.1747 -0.1427
    1W        W57528  22.772  28.687   6.699 -0.1356  0.1176 -0.0657
    1W        W57529  28.204  14.782   0.674 -0.0214  0.1711 -0.0257
    1W        W57530  14.532  25.811   9.001  0.1809  0.1056 -0.1600
    1W        W57531  14.972  17.932   7.009  0.2795  0.0948  0.1688
    1W        W57532   9.397  26.102   6.850  0.1768  0.1530  0.0549
    1W        W57533  28.990  13.872   1.735 -0.0344 -0.1630  0.0771
    1W        W57534   0.208   3.596   8.584  0.3589 -0.0654  0.2008
    1W        W57535  18.540  29.123   1.959  0.1270 -0.0633 -0.0875
    1W        W57536   5.479  13.209   1.401 -0.0606 -0.3662 -0.0581
    1W        W57537  15.916   7.776   1.507  0.0267 -0.0670 -0.2928
    1W        W57538  25.055  10.612   1.377 -0.2274 -0.0285  0.0759
    1W        W57539  11.540  29.115   7.987  0.1003 -0.1036 -0.0233
    1W        W57540  13.481  13.662   1.763 -0.1059 -0.4096 -0.0180
    1W        W57541  12.683  26.170   7.964  0.1589  0.0226  0.0122
    1W        W57542   5.464   5.223   8.723  0.0589  0.3046 -0.1029
    1W        W57543   3.098   9.866   0.044 -0.1494 -0.0025 -0.3558
    1W        W57544   0.479  23.293   2.726  0.0222  0.0105 -0.0691
    1W        W57545  20.042  26.575   2.757 -0.2646  0.2056 -0.1305
    1W        W57546  22.595  17.607   9.168 -0.1125 -0.0552 -0.2346
    1W        W57547  27.139  11.042   8.857 -0.0795 -0.0392 -0.2266
    1W        W57548  28.041   5.828   6.793  0.3473  0.0746  0.0091
    1W        W57549  23.122  24.363   0.558 -0.0412 -0.2261 -0.2551
    1W        W57550  27.931  27.109   0.587 -0.0134 -0.0973 -0.0916
    1W        W57551  14.300   8.355   1.332  0.0927 -0.1323  0.0105
    1W        W57552   7.153  23.317   9.432  0.0962 -0.2555  0.2156
    1W        W57553   8.594  27.388   9.434 -0.1193 -0.0463 -0.1124
    1W        W57554   8.459  22.036   2.902 -0.0694 -0.0309 -0.0090
    1W        W57555  13.329   4.377   9.457  0.3519 -0.3362  0.0066
    1W        W57556  29.595  28.782   9.594  0.3996 -0.0994 -0.0698
    1W        W57557   1.028   9.053   0.344 -0.1612 -0.0064 -0.2541
    1W        W57558   8.685  19.007   6.878 -0.2708  0.1458  0.2642
    1W        W57559  22.844  10.173   0.503 -0.0020  0.0433  0.0123
    1W        W57560  23.355   2.861   2.905 -0.3227  0.1177  0.0282
    1W        W57561  19.355   0.903   3.280  0.0210 -0.1232  0.0445
    1W        W57562  24.740   3.374   1.423  0.2003 -0.1159 -0.1644
    1W        W57563   2.372  15.001   1.773 -0.1946  0.0858  0.1213
    1W        W57564   7.211  21.456   8.853 -0.0376 -0.1198  0.0406
    1W        W57565  22.430  24.989   0.048  0.0998 -0.1775 -0.1496
    1W        W57566  12.280  14.607   7.167  0.2910 -0.2834 -0.0880
    1W        W57567  22.696  22.740   3.719 -0.2783  0.0224 -0.1089
    1W        W57568  29.206  26.749   7.720  0.0100  0.2528 -0.0041
    1W        W57569  15.566  19.355   1.235 -0.0107  0.0382 -0.1206
    1W        W57570  24.185   3.338   8.399 -0.1790 -0.1567 -0.4205
    1W        W57571  28.002   7.500   5.939  0.0548 -0.0294 -0.5571
    1W        W57572  28.389   5.602   7.006  0.0651  0.1648 -0.0201
    1W        W57573  18.203   2.378   2.605 -0.0603 -0.0104 -0.0667
    1W        W57574  28.584   1.688   1.697  0.1146 -0.1280  0.0922
    1W        W57575  26.885   2.803   8.798 -0.0962 -0.1986  0.0052
    1W        W57576  17.110   8.577   9.420  0.1563 -0.3035 -0.2649
    1W        W57577   1.531  11.542   7.187  0.0186 -0.1223 -0.0043
    1W        W57578  22.753   4.577   0.775  0.3363  0.4252 -0.0441
    1W        W57579   1.140  28.354   9.355  0.0141 -0.1996  0.1382
    1W        W57580   2.521   4.631   1.622 -0.1905 -0.1962  0.0821
    1W        W57581   2.837  29.047   9.275 -0.0646 -0.1487  0.1009
    1W        W57582   7.656  15.499   8.654 -0.2286 -0.1982  0.0091
    1W        W57583   6.706  11.912   1.149 -0.2586 -0.1971  0.0782
    1W        W57584  23.151  10.580   2.464 -0.0523  0.3076 -0.0217
    1W        W57585  10.022  12.207   1.376 -0.1305 -0.0162  0.1826
    1W        W57586  18.787   2.698   8.278  0.0399 -0.2551 -0.0731
    1W        W57587  22.425   3.062   8.652  0.0754  0.1037 -0.3038
    1W        W57588  26.050  22.593   1.177 -0.1827  0.0126  0.1415
    1W        W57589  13.588  10.223   7.100  0.2386  0.0554  0.0182
    1W        W57590  27.466  15.214   0.603  0.1223  0.1153  0.0494
    1W        W57591  15.133   9.470   7.780  0.0292 -0.0982  0.0349
    1W        W57592  29.327   5.220   1.278 -0.2428  0.2090 -0.0893
    1W        W57593   5.140  14.217   2.065 -0.3429 -0.1913  0.0337
    1W        W57594   0.613  28.433   0.411  0.0454  0.1418 -0.1690
    1W        W57595   6.732  19.381   9.004 -0.0935  0.0625  0.1301
    1W        W57596   5.989   1.445   2.399  0.3029 -0.0538 -0.3797
    1W        W57597  17.264  20.609   0.413  0.2493 -0.0310 -0.0989
    1W        W57598  17.324   2.921   9.383 -0.3529  0.0078 -0.2468
    1W        W57599  21.742  26.544   2.121 -0.1171 -0.0741  0.0330
    1W        W57600  23.355  24.085   0.983  0.3639  0.0573 -0.1118
    1W        W57601   0.893  26.487   2.425  0.0868 -0.0708  0.4642
    1W        W57602  27.740  12.498   0.652  0.0447 -0.2579 -0.1134
    1W        W57603   4.519   7.193   6.310 -0.0659  0.1537 -0.0826
    1W        W57604  19.027   2.783   9.008  0.0181  0.0083  0.0141
    1W        W57605  16.060  22.687   7.494  0.2778  0.0359 -0.2540
    1W        W57606   2.460  29.555   1.164 -0.0047 -0.1959 -0.2402
    1W        W57607   2.732   6.891   5.626 -0.1348 -0.0434  0.1405
    1W        W57608   1.663  11.113   1.203  0.1961  0.2473  0.1839
    1W        W57609   3.362   2.456   1.831 -0.0442  0.0703 -0.1071
    1W        W57610   2.547   1.525   9.020 -0.1434 -0.3564 -0.2347
    1W        W57611   4.547  12.907   2.253  0.0051  0.0747 -0.4194
    1W        W57612  18.326  22.270   3.150  0.1774  0.1602 -0.1355
    1W        W57613  28.078  24.284   7.795 -0.0069  0.1353  0.0037
    1W        W57614   3.128  27.901   1.714  0.0471  0.1182 -0.6313
    1W        W57615   9.686  19.777   0.551 -0.1812 -0.0963 -0.3815
    1W        W57616   1.801   7.669   0.951 -0.1134 -0.2618  0.0920
    1W        W57617   3.331  25.927   1.625 -0.1790 -0.1175 -0.1083
    1W        W57618  14.938   2.788   7.295  0.0230 -0.2866  0.2288
    1W        W57619   1.793   1.166   7.548  0.1044  0.0768 -0.1187
    1W        W57620  10.115  17.527   9.163  0.1154  0.0711 -0.0750
    1W        W57621  17.826  24.294   9.193  0.0536  0.4005  0.2029
    1W        W57622   2.360  19.425   2.755 -0.5016  0.0028 -0.1261
    1W        W57623  25.486  11.733   1.528  0.0987  0.1213 -0.0725
    1W        W57624  25.376   6.266   9.448  0.0640 -0.1258  0.0155
    1W        W57625   2.762   1.047   0.868  0.0307 -0.1578 -0.0010
    1W        W57626   6.822  16.374   0.695 -0.2941  0.0316 -0.0201
    1W        W57627  26.201   8.387   1.340 -0.0765 -0.1197  0.2563
    1W        W57628  23.968   6.931   9.404  0.4038  0.0906  0.0951
    1W        W57629  20.585  10.927   1.820 -0.1830  0.3132  0.0267
    1W        W57630   1.477  23.192   0.475  0.2604  0.2382  0.3690
    1W        W57631  13.913  23.395   7.631  0.0331 -0.1148  0.0830
    1W        W57632  16.988   0.057   6.454 -0.0278 -0.2449  0.2941
    1W        W57633  27.243  19.952   1.837  0.1750 -0.0940  0.0809
    1W        W57634  14.965  23.258   2.021 -0.2753 -0.0650 -0.0357
    1W        W57635   4.992   6.357   1.510 -0.2711 -0.2587 -0.0482
    1W        W57636   3.754  26.441   1.787  0.1656  0.1842 -0.0102
    1W        W57637  15.303  22.072   8.645  0.0055  0.2286  0.0406
    1W        W57638  11.951  25.916   0.870 -0.0775 -0.0351 -0.2242
    1W        W57639  14.983  26.686   8.286  0.3915  0.0348 -0.1851
    1W        W57640  26.386  10.441   0.471 -0.0072 -0.2065  0.4127
    1W        W57641  11.852  26.520   6.442 -0.1437  0.1604  0.1189
    1W        W57642  24.893  22.340   1.599  0.0516  0.0938 -0.0682
    1W        W57643  26.239  28.140   1.275 -0.5249 -0.5191  0.0629
    1W        W57644  12.469  10.057   2.758  0.0086  0.1278  0.1340
    1W        W57645  21.466   0.289   8.946 -0.0312 -0.0575 -0.0673
    1W        W57646  14.314  13.068   0.638 -0.0066 -0.2631 -0.0806
    1W        W57647  28.647  19.892   7.232 -0.0967 -0.0033 -0.1708
    1W        W57648  11.850  26.724   8.269 -0.0080  0.0178 -0.0547
    1W        W57649   3.010  26.681   7.848  0.0346  0.0204  0.1144
    1W        W57650   2.679  17.681   8.311  0.1166  0.2235  0.0922
    1W        W57651   3.309   5.628   8.711 -0.2184 -0.0693  0.2455
    1W        W57652  18.352  20.221   2.063  0.0419  0.1423  0.0894
    1W        W57653   5.359  25.213   0.568 -0.0593 -0.4035 -0.1353
    1W        W57654   0.225   0.790   8.322  0.1500  0.0464  0.1339
    1W        W57655  21.533  19.709   1.427 -0.1050  0.0474 -0.0286
    1W        W57656   6.839  13.900   7.493 -0.0708 -0.1029  0.1138
    1W        W57657  23.802   3.870   7.336  0.0811 -0.1932  0.2300
    1W        W57658   9.898  13.592   7.246 -0.2034 -0.1647  0.2222
    1W        W57659   6.459   4.591   1.116  0.2735 -0.1347 -0.2707
    1W        W57660  23.954  20.452   2.590  0.2738  0.0954  0.1933
    1W        W57661   9.104  22.106   2.127 -0.0528 -0.1828  0.4193
    1W        W57662  16.816  16.277   0.865  0.1656  0.1151 -0.1268
    1W        W57663   9.049  21.498   1.088  0.3360  0.2671  0.3441
    1W        W57664  19.548  26.813   2.577 -0.5339 -0.0492  0.0466
    1W        W57665   8.884  12.987   6.388 -0.1553  0.1036 -0.0286
    1W        W57666   6.375   7.464   9.602  0.0014  0.3737 -0.0176
    1W        W57667  13.253  26.312   7.086 -0.0461 -0.0278 -0.0290
    1W        W57668  25.862  11.611   7.547 -0.1943 -0.2029 -0.3546
    1W        W57669   3.546  20.743   7.761  0.0642 -0.0540  0.1837
    1W        W57670  18.395  18.499   7.467 -0.1516  0.2573  0.1905
    1W        W57671  14.090   7.560   9.318 -0.2376 -0.1644  0.2931
    1W        W57672  20.900  13.042   8.672 -0.1817  0.0979 -0.1089
    1W        W57673  27.371   0.813   9.394  0.1647 -0.0180 -0.0726
    1W        W57674  22.679   2.005   3.002  0.1227 -0.1655 -0.0994
    1W        W57675  16.084   4.157   7.841  0.1961  0.0072 -0.4479
    1W        W57676  21.301  15.916   7.648  0.1296 -0.0722 -0.0502
    1W        W57677  22.224   5.683   1.520  0.3691 -0.0159  0.0555
    1W        W57678  15.278  22.155   0.738 -0.0213  0.1305 -0.4592
    1W        W57679   6.371   1.340   1.920  0.2809 -0.0904 -0.0132
    1W        W57680   9.565  29.306   0.194 -0.0647  0.0405  0.1492
    1W        W57681   6.396  27.721   9.108  0.0385 -0.0006 -0.3473
    1W        W57682  14.112  27.187   2.444  0.0967 -0.1962 -0.0097
    1W        W57683  23.906   9.416   9.274 -0.0831 -0.2146 -0.0876
    1W        W57684  11.709  13.308   7.005 -0.0405 -0.0556  0.3135
    1W        W57685  12.409  26.238   7.428  0.0892  0.0394 -0.1650
    1W        W57686   6.480  22.876   9.001  0.3806  0.1118  0.0920
    1W        W57687  14.527  23.448   2.110  0.1004 -0.2337  0.1746
    1W        W57688   1.801   3.188   8.475  0.0644  0.6679 -0.0388
    1W        W57689   9.253   3.411   7.014  0.2176  0.2996 -0.0764
    1W        W57690   4.031  27.738   7.615  0.1374 -0.1198  0.2777
    1W        W57691  25.300  14.559   9.538 -0.0681  0.3206 -0.1627
    1W        W57692  23.272   6.061   8.265 -0.0098 -0.1917  0.0715
    1W        W57693  27.261  28.267   9.430  0.0151  0.4745  0.1815
    1W        W57694  28.886  14.352   1.856  0.1228  0.0618 -0.0654
    1W        W57695   1.123   7.420   1.872  0.0738  0.0627  0.1362
    1W        W57696  24.286  16.171   2.691  0.0915  0.0861 -0.1498
    1W        W57697  27.961  25.797   9.606 -0.2486 -0.1220 -0.1214
    1W        W57698   9.245   3.679   6.610  0.1696  0.3394 -0.1220
    1W        W57699   2.916  20.286   7.981  0.1195  0.0486 -0.0611
    1W        W57700   2.887   1.248   1.366  0.0221 -0.1859  0.1952
    1W        W57701   6.339  19.267   2.413 -0.0790  0.0656 -0.2239
    1W        W57702   8.351  22.134   1.060  0.2204  0.0883 -0.2408
    1W        W57703   9.098  10.224   7.721  0.4182 -0.2576 -0.1045
    1W        W57704  20.927   8.116   1.776 -0.0279  0.0816  0.0844
    1W        W57705   8.424  19.851   0.258  0.0680  0.0920 -0.1601
    1W        W57706  25.502  15.796   1.771 -0.0827 -0.1260  0.1532
    1W        W57707  13.457   2.589   8.738  0.0490  0.1703 -0.1622
    1W        W57708   6.505  28.847   8.235 -0.2953 -0.4124 -0.0430
    1W        W57709   4.229  16.627   9.377  0.0397 -0.5039  0.0745
    1W        W57710   5.332  17.687   7.951 -0.1129  0.1528  0.4234
    1W        W57711  21.876   3.283   0.045 -0.0328  0.2738  0.1637
    1W        W57712   5.905   9.588   6.188  0.0819  0.1056  0.0473
    1W        W57713  14.374   5.961   3.202  0.0694 -0.0090 -0.0838
    1W        W57714   5.726  22.712   1.089  0.1158 -0.0173  0.1981
    1W        W57715   4.820  28.104   7.321  0.1026  0.1309  0.0588
    1W        W57716   6.327  26.053   0.923  0.2127 -0.0307 -0.1444
    1W        W57717  21.002  23.503   9.587  0.2815  0.3044  0.0953
    1W        W57718   3.584   2.085   8.442  0.3224 -0.2068  0.1692
    1W        W57719  23.666  11.584   0.809  0.2035 -0.0102 -0.1124
    1W        W57720  12.086  17.651   7.571 -0.0265 -0.0978 -0.1619
    1W        W57721   3.816   9.242   0.039  0.3419 -0.0410  0.2310
    1W        W57722  21.841  27.841   7.156 -0.0792  0.1956 -0.3415
    1W        W57723  11.580  20.298   1.600  0.3223  0.0105  0.2487
    1W        W57724   0.560   0.308   2.392 -0.0354 -0.0114  0.0842
    1W        W57725  25.203  18.177   7.808 -0.1125  0.2745 -0.1085
    1W        W57726   4.764  17.049   0.154 -0.1687 -0.3358 -0.1229
    1W        W57727  23.386  22.640   7.542 -0.3183 -0.3443 -0.2789
    1W        W57728  27.974   5.300   7.038  0.3720  0.3296 -0.1253
    1W        W57729  24.805  13.939   6.392  0.1046 -0.0092 -0.0426
    1W        W57730  26.126  18.400   0.503  0.0020  0.1831 -0.1657
    1W        W57731  11.728  19.055   6.396  0.1754 -0.0372 -0.0796
    1W        W57732   1.168   0.189   7.570 -0.1379 -0.0810 -0.2566
    1W        W57733  29.224   4.389   7.983  0.1043 -0.3314 -0.1905
    1W        W57734  15.200  22.662   0.693  0.4774  0.1085 -0.0574
    1W        W57735  23.676   1.387   3.457  0.1709 -0.2802  0.0658
    1W        W57736  24.351  15.808   1.357 -0.0749  0.0344 -0.1901
    1W        W57737   3.709  28.721   0.707  0.0530  0.0866 -0.1082
    1W        W57738   6.093  18.126   1.894 -0.0309  0.1554 -0.0124
    1W        W57739  21.258  20.488   3.402  0.3395 -0.1417  0.3089
    1W        W57740  26.404  28.195   7.638 -0.0216  0.0607 -0.0662
    1W        W57741   3.050   4.929   6.623  0.1975 -0.1173  0.1841
    1W        W57742   6.271  21.185   8.747 -0.1131 -0.0481 -0.0747
    1W        W57743  29.142  24.273   0.588  0.2394 -0.3058 -0.1064
    1W        W57744   3.642  23.093   1.435 -0.1424 -0.0676  0.0177
    1W        W57745  29.389  19.509   1.675  0.3160 -0.2901  0.0015
    1W        W57746  25.634  27.926   1.445  0.1507  0.0958  0.0925
    1W        W57747   7.878  22.222   8.042  0.1442  0.1200  0.0608
    1W        W57748   4.237  22.267   8.713 -0.0226  0.1476  0.1408
    1W        W57749   8.252  25.773   5.743  0.1509  0.1074 -0.1830
    1W        W57750  21.547  23.161   0.500  0.0213  0.2639 -0.0041
    1W        W57751  14.476   7.378   7.231 -0.5612  0.0612 -0.1007
    1W        W57752   7.510   7.424   8.251 -0.1255  0.0672  0.1391
    1W        W57753  23.580  29.003   1.363  0.4426 -0.2351  0.0130
    1W        W57754  22.377   2.780   9.082  0.2852  0.0960  0.2921
    1W        W57755  18.656  26.188   2.672  0.0157  0.0143 -0.1251
    1W        W57756  25.255  24.050   9.426 -0.1273 -0.1368 -0.0675
    1W        W57757  28.021  23.844   1.381 -0.2418 -0.1104 -0.1658
    1W        W57758   9.491  17.840   0.843  0.1376  0.0345 -0.2336
    1W        W57759  16.780   4.178   0.710  0.2788 -0.1578 -0.1797
    1W        W57760  29.023  10.914   8.003  0.4645 -0.0121 -0.2355
    1W        W57761   8.839  17.169   7.797 -0.2695  0.1197 -0.1490
    1W        W57762  28.285  26.614   2.187 -0.0173  0.0866 -0.0596
    1W        W57763   9.459  25.191   8.095  0.1321  0.1341  0.3365
    1W        W57764  26.275   6.595   0.241 -0.0773  0.1531  0.0523
    1W        W57765  11.157  21.022   7.324 -0.0216 -0.0537  0.0753
    1W        W57766  21.503  17.618   1.763  0.1200 -0.0587  0.0359
    1W        W57767   7.194  13.912   8.982  0.1287  0.2287  0.1778
    1W        W57768   3.743  13.572   6.666  0.0672  0.2952 -0.0410
    1W        W57769   0.457  21.985   1.122 -0.1696  0.3027 -0.3072
    1W        W57770  11.913   7.022   0.703 -0.1498  0.0427  0.1050
    1W        W57771  21.101  27.976   2.982  0.0081 -0.1203 -0.0350
    1W        W57772   2.718  16.708   8.038 -0.1455  0.0823 -0.3901
    1W        W57773   5.984  16.191   7.025 -0.0244 -0.1998 -0.0180
    1W        W57774  26.795  18.767   2.955  0.2191 -0.0894 -0.1954
    1W        W57775  26.244  14.305   0.078 -0.0908 -0.0360 -0.1214
    1W        W57776  26.343  17.012   0.352 -0.1439  0.0133  0.4552
    1W        W57777   2.423  10.232   8.803  0.1300  0.0082 -0.1514
    1W        W57778   3.124  17.227   2.241  0.3137  0.0597 -0.2525
    1W        W57779  24.499  19.642   1.233 -0.0051  0.0078  0.1262
    1W        W57780  19.765  16.235   8.615 -0.2275 -0.0667  0.0249
    1W        W57781   0.673   9.249   9.016  0.1369 -0.0926 -0.0007
    1W        W57782  26.651  14.482   0.962  0.0602 -0.2217 -0.0716
    1W        W57783   1.417   5.976   7.370 -0.0853 -0.0705 -0.2701
    1W        W57784  24.073  12.694   1.309  0.1051  0.0394  0.4690
    1W        W57785  18.231  28.567   7.076 -0.3198 -0.1564 -0.1623
    1W        W57786   6.951   9.527   6.977 -0.0355  0.0906 -0.2649
    1W        W57787   6.397  26.057   2.509  0.0991  0.1676  0.1873
    1W        W57788   1.233  14.647   2.778 -0.0231  0.0358  0.1313
    1W        W57789  29.425  19.287   2.228  0.1444 -0.0606  0.1536
    1W        W57790  24.984  18.484   9.375  0.1580  0.1898 -0.5044
    1W        W57791   8.167  13.806   2.115 -0.1077  0.0504 -0.2251
    1W        W57792  15.845   9.975   9.362  0.3689  0.2954 -0.3925
    1W        W57793  29.574   3.322   7.096 -0.1415 -0.2393  0.0321
    1W        W57794   9.201   9.104   0.315 -0.0815  0.1960  0.2504
    1W        W57795  11.997  17.293   5.851  0.1242 -0.1043 -0.0354
    1W        W57796   8.928  12.541   6.743 -0.0859  0.1521  0.1538
    1W        W57797  23.996   2.374   1.248  0.1438 -0.3544 -0.1419
    1W        W57798   5.695  13.882   6.623 -0.1133 -0.1776  0.3267
    1W        W57799   3.546  17.268   2.939  0.2309  0.1259 -0.0291
    1W        W57800  17.625  11.573   6.892 -0.0766  0.2397 -0.1728
    1W        W57801  18.224  21.685   1.666 -0.0219  0.1536  0.1433
    1W        W57802  23.060  28.558   8.938  0.0765 -0.1522 -0.0901
    1W        W57803  14.454   9.528   9.205  0.2170 -0.1515 -0.1198
    1W        W57804  25.143  20.635   7.712 -0.0186 -0.0355 -0.3632
    1W        W57805   1.279  29.084   8.092 -0.0330  0.0768 -0.2703
    1W        W57806  27.718  19.947   3.135 -0.1759  0.1259  0.1089
    1W        W57807   6.140  20.910   0.416  0.0481 -0.0146  0.1157
    1W        W57808  19.099   2.687   7.860  0.1887 -0.2848  0.0516
    1W        W57809  23.504   1.279   8.856 -0.0484  0.1344  0.0384
    1W        W57810   0.865   2.123   7.082  0.1369 -0.0166 -0.0412
    1W        W57811   8.412  27.545   6.618 -0.0485  0.1551  0.1051
    1W        W57812  27.736  21.005   8.333  0.4230  0.1883 -0.3523
    1W        W57813  22.289   7.595   9.452  0.0102  0.0369  0.1163
    1W        W57814  19.770  18.873   0.928 -0.1821  0.0919 -0.1246
    1W        W57815  20.097  29.046   0.152 -0.0474 -0.0039  0.0336
    1W        W57816   7.596  20.527   1.704  0.0505  0.1155  0.0517
    1W        W57817  16.292   1.890   1.761  0.0746  0.2826  0.1177
    1W        W57818  11.803  27.696   8.262 -0.3656  0.0041 -0.0598
    1W        W57819   9.155  29.317   8.604 -0.0328  0.2927 -0.2927
    1W        W57820   7.753  10.418   7.718  0.0889 -0.6294 -0.1976
    1W        W57821  24.289  12.061   0.302 -0.0886 -0.1425  0.0243
    1W        W57822   2.122  14.003   2.599 -0.0852 -0.4094 -0.1640
    1W        W57823   6.302   0.336   0.976 -0.1973 -0.0328 -0.2527
    1W        W57824  27.122  26.343   8.841  0.3674 -0.1518 -0.1339
    1W        W57825  18.532   8.780   0.606 -0.3840  0.0935  0.1934
    1W        W57826  10.802  27.562   3.264  0.2671  0.1784  0.2499
    1W        W57827  23.985  29.008   9.339  0.2762 -0.0972  0.0061
    1W        W57828   8.823   9.716   7.772  0.1227 -0.4045 -0.0552
    1W        W57829  29.330   8.512   1.415 -0.2804 -0.1245 -0.1092
    1W        W57830  13.463   1.086   0.376 -0.0888 -0.0841 -0.1577
    1W        W57831   5.881   1.831   0.573 -0.0999 -0.3205  0.1754
    1W        W57832  25.568   1.411   2.795 -0.2527 -0.2652 -0.0294
    1W        W57833  16.092   5.819   7.695 -0.0451  0.0502  0.4082
    1W        W57834  22.815  25.527   1.925 -0.1088 -0.0729  0.2762
    1W        W57835  21.915  25.937   0.518 -0.0838  0.1002 -0.1681
    1W        W57836   5.196  15.791   6.681  0.1386 -0.3027 -0.2306
    1W        W57837   8.205  11.817   0.920 -0.2292 -0.0720  0.2247
    1W        W57838   2.096  11.446   1.140  0.0175 -0.0287  0.1478
    1W        W57839  13.127   8.655   7.799  0.1247  0.1762  0.0114
    1W        W57840  10.004  11.908   2.295 -0.1697 -0.0199  0.0316
    1W        W57841  19.229   1.107   0.573  0.3150  0.0773  0.0651
    1W        W57842  15.556  26.215   0.065 -0.0357 -0.0311  0.0413
    1W        W57843   4.450  28.025   8.914 -0.3445 -0.2214  0.1380
    1W        W57844  18.353   0.500   0.049 -0.0789 -0.1664 -0.1808
    1W        W57845  16.706  19.675   2.636 -0.1432 -0.1333 -0.2983
    1W        W57846  25.106  22.797   9.364 -0.2128  0.1054  0.3680
    1W        W57847  13.931  11.939   1.986 -0.0570 -0.2036  0.2014
    1W        W57848   3.983  17.084   7.946  0.1577  0.1079  0.0902
    1W        W57849  28.468  15.726   0.706  0.1228 -0.0346 -0.0838
    1W        W57850  24.363   6.255   0.829  0.1832 -0.0288 -0.0503
    1W        W57851  10.843   4.169   2.579  0.1336  0.1459 -0.3620
    1W        W57852   0.515  13.879   1.613  0.0294  0.1161 -0.1159
    1W        W57853   2.190   2.027   8.471 -0.1243 -0.0163  0.1113
    1W        W57854  19.430  19.034   8.767 -0.1591 -0.1245 -0.1589
    1W        W57855   2.756   8.135   7.220 -0.0749 -0.2150  0.2481
    1W        W57856  28.381  13.759   0.842 -0.1242  0.1257  0.0205
    1W        W57857  21.945  29.511   1.760 -0.2326 -0.1665 -0.2471
    1W        W57858  11.050   3.911   1.910  0.2186  0.2128 -0.0275
    1W        W57859  13.630   0.313   1.283 -0.0515  0.3450  0.1816
    1W        W57860   5.558  22.816   8.222 -0.0622 -0.0318 -0.1997
    1W        W57861  11.628   6.440   0.260 -0.0328 -0.1256  0.0882
    1W        W57862  19.153  12.696   1.221  0.1626 -0.0448 -0.1610
    1W        W57863  21.095  27.029   8.682  0.0686 -0.0677  0.0856
    1W        W57864  10.899   0.929   8.287  0.0096 -0.4170  0.3458
    1W        W57865  28.071  16.117   8.573 -0.2274 -0.4071  0.1603
    1W        W57866   2.030  26.407   0.378  0.0988 -0.0670 -0.1909
    1W        W57867  21.779   1.220   0.382  0.1206  0.1201 -0.1678
    1W        W57868   1.698   8.828   6.310  0.1064 -0.0474 -0.1454
    1W        W57869  20.791   6.314   1.924  0.3480  0.2508  0.0484
    1W        W57870  16.343   6.876   8.564  0.2348  0.2850  0.1060
    1W        W57871  27.450   8.849   7.048 -0.2232  0.0593 -0.1060
    1W        W57872   8.943  25.988   9.104  0.2086  0.0008 -0.2448
    1W        W57873   3.735   5.428   8.564 -0.1195  0.1965 -0.2256
    1W        W57874  27.320  16.649   1.599 -0.2010 -0.1478  0.0156
    1W        W57875   7.397  10.077   8.070 -0.3442 -0.3309 -0.0288
    1W        W57876   9.490  18.488   7.395  0.2302 -0.0092 -0.0170
    1W        W57877  26.434  22.428   9.167 -0.3706  0.2802 -0.3586
    1W        W57878  25.551  14.151   8.673  0.1911 -0.0416 -0.1209
    1W        W57879  14.255  24.776   0.492 -0.1067 -0.1650  0.3878
    1W        W57880   7.575  15.595   0.834  0.3984  0.0407  0.4395
    1W        W57881   3.559  27.182   2.858  0.1079 -0.2437  0.2075
    1W        W57882   2.417  15.092   0.242  0.2931 -0.0695 -0.1974
    1W        W57883  25.802  16.062   7.508 -0.0389  0.0629 -0.2299
    1W        W57884   1.340   6.957   0.691 -0.0402  0.2477 -0.2390
    1W        W57885  22.914  17.364   8.420  0.0947 -0.0828  0.2664
    1W        W57886  11.862  13.389   9.077  0.2074  0.1720 -0.1228
    1W        W57887  20.114  15.600   7.233 -0.3245 -0.2802 -0.1257
    1W        W57888  19.868  24.775   7.889  0.0646 -0.3065  0.1384
    1W        W57889   5.798  19.715   7.682 -0.0907 -0.0147  0.1509
    1W        W57890   6.778   5.714   2.267 -0.0762  0.0908  0.1641
    1W        W57891  26.695  21.390   2.324  0.1122  0.0218 -0.1209
    1W        W57892   0.070  27.781   7.103 -0.0278 -0.1224  0.2835
    1W        W57893  29.114  20.314   1.408  0.1376  0.1135 -0.0084
    1W        W57894  11.151  10.892   7.998 -0.1731 -0.3125  0.0054
    1W        W57895   3.505  13.398   2.533  0.0855  0.0424 -0.1192
    1W        W57896   3.251  10.695   8.843 -0.4544 -0.1121 -0.1614
    1W        W57897   2.846  15.050   1.137 -0.0136 -0.2436 -0.0218
    1W        W57898  14.106  23.332   1.853  0.0482  0.1654 -0.0152
    1W        W57899  27.709  28.570   8.193 -0.0653 -0.1580 -0.0634
    1W        W57900  19.037  11.733   2.851 -0.1792  0.2320  0.0072
    1W        W57901  19.538  10.679   1.668  0.0034 -0.1674 -0.1413
    1W        W57902  10.459  10.284   0.509  0.2837 -0.0538  0.2078
    1W        W57903  14.273   1.327   1.605  0.2291  0.2098  0.0949
    1W        W57904  16.477  10.513   6.515  0.0346 -0.1087  0.1775
    1W        W57905   6.377  24.483   2.236  0.0102  0.0562  0.0967
    1W        W57906  11.953  25.128   0.735 -0.0501 -0.0595  0.2489
    1W        W57907  19.979   5.597   8.587  0.1215  0.0925  0.0390
    1W        W57908  29.388  18.508   0.059 -0.1927  0.0275 -0.0282
    1W        W57909  27.318   1.312   9.333  0.2271  0.3527  0.1864
    1W        W57910  11.646  16.903   2.545 -0.2250 -0.1876  0.0260
    1W        W57911   0.815  25.763   0.994  0.1049 -0.0792 -0.1499
    1W        W57912  15.121   3.291   8.146  0.0239  0.2612  0.2052
    1W        W57913  29.016   5.271   7.795  0.1591  0.1389 -0.1740
    1W        W57914   8.906  17.047   5.718  0.0656  0.0939 -0.0307
    1W        W57915   8.313  12.810   0.745 -0.2362 -0.0548  0.1879
    1W        W57916  16.326   9.580   1.503  0.0161 -0.1785  0.1990
    1W        W57917   9.926   6.739   8.598 -0.3121  0.0118  0.0403
    1W        W57918   8.195  21.050   7.448  0.2421  0.0648 -0.0912
    1W        W57919  25.171   5.095   2.288 -0.1679 -0.2278 -0.0912
    1W        W57920  15.637  19.779   7.356  0.0314 -0.3095  0.2425
    1W        W57921  17.265  21.874   1.115 -0.1363  0.1014  0.1582
    1W        W57922  28.495   4.931   1.366  0.1377  0.3128 -0.1945
    1W        W57923  11.587  24.061   7.898  0.1103 -0.1237 -0.1237
    1W        W57924  19.867  21.750   2.390 -0.1137  0.1580  0.4377
    1W        W57925   4.247   6.109   1.974 -0.1598  0.2576  0.2621
    1W        W57926   0.884  22.567   8.501 -0.3573  0.2314  0.0010
    1W        W57927  17.853  26.901   8.026  0.1982 -0.3533 -0.1385
    1W        W57928  16.919  10.810   7.364  0.1430  0.1844  0.0265
    1W        W57929  22.111  26.181   0.046  0.1281 -0.1479 -0.1674
    1W        W57930  27.349   0.190   9.625  0.1651  0.0482 -0.0820
    1W        W57931  27.660  28.784   7.420  0.2222  0.0319 -0.0445
    1W        W57932   5.546  18.299   7.927  0.0916 -0.0302 -0.1179
    1W        W57933  28.746  21.704   8.882  0.0244  0.0554 -0.1002
    1W        W57934   5.116  27.689   7.569  0.0283 -0.0825 -0.0129
    1W        W57935   8.115  17.242   7.079  0.0464 -0.0599  0.1873
    1W        W57936  12.577   4.949   9.383 -0.0743 -0.4040 -0.0764
    1W        W57937   4.787  16.429   1.682  0.0146  0.3815  0.0157
    1W        W57938   5.398   3.347   7.614 -0.1900 -0.0272 -0.0011
    1W        W57939  28.282  24.781   8.088  0.1944 -0.2238  0.3100
    1W        W57940  24.216  12.771   9.349 -0.0777  0.1445 -0.2688
    1W        W57941  29.209  11.981   8.432 -0.0870 -0.0903 -0.1803
    1W        W57942   2.192  15.959   8.486  0.0837 -0.1032 -0.1303
    1W        W57943  17.741  22.398   1.407  0.3838  0.0069 -0.4072
    1W        W57944  18.814  17.315   2.122  0.1745  0.0841  0.0584
    1W        W57945  12.399   6.748   0.665 -0.2807 -0.3018 -0.0668
    1W        W57946   9.790  28.636   8.242 -0.2219 -0.0090  0.2194
    1W        W57947  25.477  13.168   2.276  0.0012 -0.0667 -0.0406
    1W        W57948  26.995   0.374   7.165  0.2004  0.1273  0.0594
    1W        W57949  15.260   6.452   6.753  0.1915  0.0410 -0.4464
    1W        W57950  13.199  18.192   2.179  0.0496  0.2314  0.0626
    1W        W57951  15.646  20.577   1.272 -0.1395  0.2554 -0.0253
    1W        W57952   2.596   1.375   8.067  0.0862 -0.0336  0.0571
    1W        W57953  19.592  13.359   7.265 -0.0754 -0.0110  0.0365
    1W        W57954  11.271  15.904   6.870  0.2727 -0.2086  0.1044
    1W        W57955  26.147   8.125   2.187  0.0569 -0.1686  0.0820
    1W        W57956   6.435  19.021   8.141 -0.1283 -0.1767  0.0934
    1W        W57957   5.866  14.733   0.330 -0.2476  0.1814  0.2461
    1W        W57958  12.019  27.572   6.945  0.0807 -0.0300 -0.0081
    1W        W57959  29.579  25.611   2.389 -0.5319 -0.3799 -0.0789
    1W        W57960   5.928  26.460   7.510  0.1187 -0.1406 -0.1120
    1W        W57961  24.671   1.640   1.316 -0.0369 -0.1234  0.0304
    1W        W57962  20.400   7.785   9.570 -0.0093  0.2012 -0.0278
    1W        W57963  14.442   2.738   2.032 -0.0059  0.2072 -0.3806
    1W        W57964   3.715  26.418   2.549 -0.0252 -0.0153 -0.1525
    1W        W57965  27.816  12.220   0.155  0.1366  0.2701 -0.2160
    1W        W57966  25.554  25.928   2.929 -0.1619  0.0100 -0.0218
    1W        W57967  19.789   1.137   3.357  0.0645  0.0552  0.2707
    1W        W57968  15.789  19.215   8.132  0.0977  0.0464  0.1052
    1W        W57969  21.349  23.880   9.392 -0.0031 -0.1849  0.4185
    1W        W57970  17.580  20.045   8.867  0.0683  0.0933  0.0062
    1W        W57971  15.286   9.477   0.043 -0.1227 -0.1605 -0.0085
    1W        W57972  15.596   4.025   8.640  0.0310 -0.2968 -0.2734
    1W        W57973  10.197  21.738   9.344  0.1132 -0.1652 -0.2055
    1W        W57974  24.936  20.004   8.976 -0.2506  0.1581 -0.1647
    1W        W57975   4.085   4.622   1.839  0.0483  0.2362 -0.0434
    1W        W57976  17.727   3.315   9.225  0.0462  0.1865 -0.0318
    1W        W57977  28.481  25.335   1.524  0.0603 -0.3455  0.1891
    1W        W57978  12.679   2.043   7.084  0.0888  0.0774  0.0625
    1W        W57979   2.343   1.397   6.660  0.3691  0.1206 -0.0338
    1W        W57980  14.821  27.239   7.177 -0.1944 -0.1831  0.0311
    1W        W57981  23.717   3.885   0.842  0.1916  0.2656  0.3760
    1W        W57982   0.352  10.235   1.201 -0.0637 -0.0750  0.0898
    1W        W57983  21.254  15.064   0.885  0.1057  0.0278 -0.0325
    1W        W57984   9.826  10.034   1.889  0.2661  0.0903  0.2287
    1W        W57985   9.517  12.099   0.437  0.1676 -0.0065  0.2884
    1W        W57986   7.023   7.511   1.290 -0.2162 -0.3592  0.2353
    1W        W57987   3.657   2.898   9.241 -0.3472  0.0179  0.2169
    1W        W57988  24.367   0.713   0.965 -0.1464  0.2064 -0.0940
    1W        W57989  18.354   4.617   1.857  0.2084 -0.0223  0.2581
    1W        W57990  27.492  28.124   7.853 -0.1044 -0.2635 -0.4124
    1W        W57991  28.567   3.727   7.684  0.2784 -0.2908  0.1489
    1W        W57992  23.750  21.369   9.349 -0.1575  0.0232  0.2313
    1W        W57993  13.832   3.238   9.475 -0.1383  0.0545  0.4057
    1W        W57994   3.210  26.473   2.356  0.0049  0.2861 -0.1761
    1W        W57995   0.476   0.676   3.636 -0.2338  0.2265 -0.0600
    1W        W57996  20.232  24.425   7.673  0.2882  0.1789  0.0251
    1W        W57997   4.989  11.306   1.400  0.2629  0.0568  0.1153
    1W        W57998   6.798   7.228   0.035 -0.0328 -0.1334 -0.1791
    1W        W57999  27.755  21.262   7.814  0.1561  0.3306 -0.1922
    1W        W58000  14.452  16.175   0.569 -0.1516  0.2247  0.4373
    1W        W58001  19.448   0.016   2.198 -0.0736 -0.0576 -0.3132
    1W        W58002   4.347  26.626   1.015 -0.0820  0.2623 -0.2498
    1W        W58003  20.938   4.614   1.292 -0.2702 -0.1175  0.2323
    1W        W58004  24.158   7.282   0.354  0.2818  0.1822  0.1005
    1W        W58005  25.879  28.067   1.018  0.1766 -0.2610  0.1272
    1W        W58006   1.160   1.438   0.866  0.3646  0.0442 -0.0189
    1W        W58007  23.575  27.564   9.529  0.0757 -0.1062  0.0214
    1W        W58008  13.188   6.219   7.542 -0.1727 -0.3203 -0.1063
    1W        W58009  12.001  15.676   9.010  0.0401  0.2591 -0.1081
    1W        W58010  13.128   1.574   9.368  0.3111  0.0570 -0.2927
    1W        W58011  20.194   3.616   0.095  0.3477 -0.0086 -0.0841
    1W        W58012   0.198   5.431   1.185 -0.1680 -0.0570 -0.0133
    1W        W58013  23.833   8.351   0.369  0.3982  0.3690  0.0215
    1W        W58014  16.218  24.633   8.233  0.2346  0.3633 -0.2149
    1W        W58015  18.744  20.129   9.194 -0.0486  0.2949 -0.3133
    1W        W58016   4.713   5.282   1.671 -0.4031 -0.1846 -0.1235
    1W        W58017  17.577  23.732   1.712 -0.0608 -0.0541 -0.2443
    1W        W58018  11.669  10.470   9.093  0.2237 -0.1947 -0.0827
    1W        W58019   9.723   0.671   0.086  0.0734 -0.1578 -0.2569
    1W        W58020  26.557  15.455   7.944 -0.0207  0.2643  0.1205
    1W        W58021  17.231   3.220   8.506  0.0232  0.3455  0.4784
    1W        W58022   9.376   7.591   7.474  0.0637  0.2643 -0.0809
    1W        W58023  15.760   7.651   6.285  0.1665  0.1482 -0.2349
    1W        W58024  26.841   0.750   2.377  0.1519  0.0979 -0.1485
    1W        W58025  11.116   8.681   8.640 -0.1454 -0.0524 -0.2496
    1W        W58026  24.987  19.119   1.928 -0.0671  0.0144  0.0088
    1W        W58027  27.975   6.570   7.740 -0.0478 -0.4404  0.0427
    1W        W58028   1.463   0.265   2.633  0.0174 -0.1717 -0.1115
    1W        W58029  28.161  23.351   1.271 -0.1399  0.2092  0.3112
    1W        W58030   8.861   7.497   6.726  0.1104  0.0962  0.1616
    1W        W58031  12.671  23.776   7.410  0.0831 -0.1353 -0.4766
    1W        W58032  13.204  25.382   1.599  0.1265 -0.0578  0.2287
    1W        W58033  12.243   3.663   6.521 -0.0261  0.0920  0.0533
    1W        W58034   0.666  17.108   3.239  0.1971  0.1111 -0.2911
    1W        W58035  28.879  24.403   1.128 -0.1254  0.0495 -0.0635
    1W        W58036   1.677  10.731   1.557 -0.1295 -0.0495  0.0407
    1W        W58037   2.887   4.277   1.490 -0.2074  0.0411  0.1747
    1W        W58038  18.652   8.044   7.642 -0.0292  0.3917 -0.0043
    1W        W58039  24.228   0.754   1.505 -0.0526 -0.0430 -0.3122
    1W        W58040  18.158  25.240   0.378 -0.1874  0.2379 -0.3855
    1W        W58041  14.258   5.914   7.884  0.1840 -0.1562 -0.1962
    1W        W58042  14.796  14.864   2.052 -0.0932  0.0106  0.0217
    1W        W58043  21.384   7.718   1.677  0.3019 -0.1145 -0.0605
    1W        W58044  20.584  29.021   0.005 -0.0684 -0.2678 -0.3899
    1W        W58045  11.296  15.398   6.772  0.0681  0.1204  0.2206
    1W        W58046  23.969  26.854   0.143  0.2515 -0.0568 -0.0859
    1W        W58047  10.993  10.937   7.394 -0.0059  0.2227 -0.3482
    1W        W58048  14.022  27.031   9.249 -0.0002 -0.3413 -0.1933
    1W        W58049  11.809   9.899   6.968 -0.1902 -0.2627  0.3323
    1W        W58050  29.433  12.633   8.570 -0.0064 -0.0991 -0.0497
    1W        W58051  12.490   4.618   0.548  0.1485  0.0570  0.2755
    1W        W58052  24.071  25.155   2.941 -0.0374 -0.1465 -0.2264
    1W        W58053  11.333   6.530   0.903 -0.3053  0.0860  0.0462
    1W        W58054  18.492  28.444   8.790 -0.2299 -0.1197  0.2756
    1W        W58055   2.905   7.883   9.463  0.0725  0.0668  0.0950
    1W        W58056  17.874  28.823   9.552 -0.4126 -0.1726 -0.0831
    1W        W58057   3.364   6.117   8.833  0.0982 -0.0965  0.4270
    1W        W58058   0.800  13.199   1.199 -0.1113 -0.0750 -0.1776
    1W        W58059   7.830  10.324   6.609 -0.0297  0.1608  0.0198
    1W        W58060  10.028  24.765   0.069 -0.1553 -0.0741  0.1373
    1W        W58061  23.083   5.331   8.779  0.0527  0.1527  0.0788
    1W        W58062  17.996  19.712   2.570 -0.1161  0.0880  0.3336
    1W        W58063  25.689  24.509   9.629  0.1783  0.2575 -0.0400
    1W        W58064  12.373   3.198   7.233  0.2491 -0.1360  0.2183
    1W        W58065  24.344  13.633   9.096  0.0653 -0.1433  0.2895
    1W        W58066  27.745  17.418   1.726 -0.2737 -0.2304 -0.0314
    1W        W58067  22.069   1.345   1.656 -0.3719 -0.0274  0.0100
    1W        W58068  27.874   4.082   6.174  0.1513 -0.0142 -0.0942
    1W        W58069  16.553  11.488   6.681  0.2012 -0.1968  0.2728
    1W        W58070  22.670   1.036   7.535 -0.3937  0.2584  0.5220
    1W        W58071  12.369  27.916   8.979  0.0732 -0.0982 -0.0560
    1W        W58072  13.644  26.275   2.318  0.1402 -0.1048 -0.4894
    1W        W58073  17.550  14.001   9.249 -0.2338 -0.0172  0.0121
    1W        W58074  16.484  22.714   8.684  0.0016  0.0510 -0.3617
    1W        W58075  16.805   9.179   7.461 -0.0291 -0.2506  0.0339
    1W        W58076   0.930   3.794   1.917 -0.0567 -0.0980  0.1558
    1W        W58077   0.223   3.218   8.219  0.2777  0.2543  0.1298
    1W        W58078  19.248   3.529   1.609 -0.0585  0.1087  0.0750
    1W        W58079  11.837  12.806   6.903  0.3203  0.0101 -0.0439
    1W        W58080  11.018  14.480   0.897  0.0990  0.1083 -0.0240
    1W        W58081   6.662  14.094   0.697  0.1968 -0.1231 -0.2918
    1W        W58082   9.324  17.814   2.439 -0.3228 -0.3050 -0.3509
    1W        W58083  27.406  28.514   6.976  0.1652 -0.2036 -0.0904
    1W        W58084  26.275   1.473   2.226  0.0450  0.2066  0.0774
    1W        W58085  14.614  26.875   7.786  0.1905 -0.0710 -0.0683
    1W        W58086  23.686  29.020   3.853 -0.0277 -0.1674  0.0789
    1W        W58087  29.304  12.985   0.693  0.2270 -0.1129 -0.2771
    1W        W58088  17.073  24.414   2.181 -0.2959  0.3492 -0.0833
    1W        W58089   6.481  29.314   9.627 -0.3477 -0.0242 -0.0922
    1W        W58090  15.648   1.165   0.206  0.1784  0.0574  0.0025
    1W        W58091  16.374  12.580   2.861 -0.0135 -0.0274  0.0550
    1W        W58092  20.204  17.397   0.190 -0.1971  0.1293 -0.0124
    1W        W58093  23.149  14.654   0.347  0.0270  0.2922  0.3047
    1W        W58094   7.918   2.616   8.336  0.3239 -0.2165 -0.0701
    1W        W58095  13.505  16.950   1.514  0.0669  0.1467  0.0809
    1W        W58096  16.506  16.755   7.914  0.0954  0.3645  0.1815
    1W        W58097  25.997  29.513   1.047 -0.0717  0.2831 -0.0633
    1W        W58098   7.177  21.564   1.474  0.1219  0.1727  0.0951
    1W        W58099  29.542   5.003   9.580  0.1772  0.1268  0.2626
    1W        W58100  23.578   2.341   8.420 -0.2170 -0.0537 -0.1146
    1W        W58101   1.088  28.573   1.025 -0.0104  0.1332  0.1224
    1W        W58102  23.410   8.247   9.373 -0.1571  0.2016 -0.2357
    1W        W58103  12.405   1.020   7.878  0.0664 -0.1748 -0.0580
    1W        W58104  26.429  28.274   0.193  0.1893  0.1177 -0.1744
    1W        W58105  12.145  24.487   9.178  0.3035  0.2091 -0.2578
    1W        W58106   1.665   8.339   6.138 -0.2096  0.1701 -0.3802
    1W        W58107  14.375   6.283   0.776 -0.1862  0.2870  0.0295
    1W        W58108   5.458  16.755   8.772 -0.2136 -0.0438 -0.1373
    1W        W58109  10.502  11.645   7.742  0.1370 -0.1509 -0.0602
    1W        W58110   1.221   6.419   7.474 -0.1039  0.0639  0.0594
    1W        W58111   9.941  24.951   8.202  0.0467 -0.0863 -0.0078
    1W        W58112   5.940  19.969   0.216 -0.0629  0.0659 -0.1971
    1W        W58113  24.741  25.089   0.187  0.2115  0.1370 -0.0937
    1W        W58114  12.715  23.334   1.950  0.1057  0.1486 -0.2267
    1W        W58115  22.585  26.690   8.369  0.0477 -0.2094  0.2224
    1W        W58116  22.079  27.404   2.796 -0.1221  0.1542  0.0265
    1W        W58117  23.703   3.398   8.750  0.1401  0.0674 -0.1524
    1W        W58118   2.540   6.301   8.760  0.2547 -0.1241 -0.0434
    1W        W58119  27.209  13.576   9.506  0.2370 -0.1203  0.1707
    1W        W58120  23.330   5.611   2.072 -0.1046 -0.0795 -0.4413
    1W        W58121  12.918  11.067   6.214 -0.0751 -0.1194 -0.0209
    1W        W58122   5.068   7.709   6.414 -0.1172 -0.0367  0.1257
    1W        W58123  18.321   1.479   2.884 -0.1179 -0.0811  0.1192
    1W        W58124  18.309  25.044   9.064  0.0559  0.2532  0.0164
    1W        W58125   3.815  14.182   2.538  0.0953 -0.0410  0.0440
    1W        W58126  28.262  29.372   0.004 -0.2987 -0.0270  0.2250
    1W        W58127  17.137   2.012   9.084  0.2959 -0.1547 -0.1054
    1W        W58128   7.383  12.297   0.711  0.0960  0.1846  0.2269
    1W        W58129   3.482   4.772   7.104  0.3563  0.0614 -0.0084
    1W        W58130  27.996  15.252   8.883  0.0500 -0.2170 -0.0512
    1W        W58131  18.502   4.523   9.621  0.0994 -0.0399  0.2833
    1W        W58132  16.376   1.246   9.294 -0.2098 -0.0903 -0.2280
    1W        W58133  15.127  23.178   6.989 -0.0555  0.3620  0.1568
    1W        W58134  18.650   4.598   7.508  0.0074  0.1439 -0.0305
    1W        W58135  11.586   8.281   1.916  0.1766  0.3102 -0.2504
    1W        W58136  19.849  20.200   7.554  0.0862 -0.0685 -0.1756
    1W        W58137  26.428  21.883   2.264 -0.3171 -0.2835 -0.1128
    1W        W58138  27.910  25.027   0.107 -0.0775  0.1920 -0.2288
    1W        W58139  18.321  11.981   0.604 -0.0568 -0.2522  0.3167
    1W        W58140  22.367  27.123   8.363  0.1618  0.0100 -0.1404
    1W        W58141   8.320  15.012   0.447 -0.1143 -0.2430  0.0360
    1W        W58142  16.095   0.939   7.842  0.0144  0.3936 -0.3025
    1W        W58143  10.653   3.847   8.553  0.2798 -0.0748  0.1555
    1W        W58144   0.301  13.984   9.128 -0.3701 -0.0255 -0.0123
    1W        W58145  16.047  23.519   7.658  0.1462  0.0484  0.0381
    1W        W58146   4.559  14.864   1.605  0.1033  0.1333  0.2192
    1W        W58147  15.766   8.801   9.330  0.1499 -0.2372 -0.2585
    1W        W58148  19.068  22.354   7.337  0.2972 -0.4605 -0.1549
    1W        W58149   1.571   0.555   9.457 -0.1246 -0.1981  0.3539
    1W        W58150  17.767  21.230   1.652 -0.0911 -0.1538 -0.2841
    1W        W58151   5.848  16.774   1.014 -0.1382 -0.4076 -0.1812
    1W        W58152  10.236   0.572   1.285 -0.0779 -0.1109  0.1055
    1W        W58153  25.049  17.457   1.780 -0.0086 -0.3303 -0.1400
    1W        W58154   6.129  29.591   1.332  0.1595 -0.0083  0.2514
    1W        W58155   8.187   1.293   2.130  0.2648 -0.2538 -0.2480
    1W        W58156  11.680  12.116   6.670  0.3153 -0.1094  0.1177
    1W        W58157   4.543  18.695   2.738 -0.1686  0.1898 -0.0881
    1W        W58158  12.146   7.787   6.694 -0.0584  0.0258  0.0072
    1W        W58159  27.892   3.505   8.278 -0.0099 -0.1986 -0.1093
    1W        W58160  20.149  24.738   0.438 -0.0252 -0.1519 -0.3532
    1W        W58161   3.126  27.444   2.779 -0.1649  0.1570  0.2403
    1W        W58162   1.061  28.588   6.868 -0.2699  0.0892 -0.1611
    1W        W58163   0.412   7.336   0.935  0.0846 -0.0867 -0.0807
    1W        W58164  12.954  15.963   1.653  0.1800 -0.2545  0.2012
    1W        W58165  11.627  23.179   0.410 -0.3119  0.2164 -0.1609
    1W        W58166  27.850  24.317   2.557  0.0378 -0.0831  0.3478
    1W        W58167  21.403  28.968   2.179 -0.0860  0.1285  0.2631
    1W        W58168  27.375  15.567   0.093 -0.0191 -0.0210 -0.2550
    1W        W58169  12.114   1.078   7.146 -0.1472 -0.0221 -0.2212
    1W        W58170   8.961   0.681   9.094  0.1405  0.1333 -0.2711
    1W        W58171  14.635   5.506   7.332  0.1023  0.0198  0.0883
    1W        W58172   2.193  21.459   9.214  0.1544  0.2194  0.0589
    1W        W58173  27.179   6.177   7.688 -0.1559  0.1636 -0.2640
    1W        W58174  28.287  12.132   1.511 -0.0207 -0.0079  0.1341
    1W        W58175   9.817  24.116   3.002 -0.0485  0.2029  0.1989
    1W        W58176  28.080   2.612   7.562 -0.1580 -0.0219 -0.1044
    1W        W58177  13.820  20.531   1.514  0.0829  0.1091 -0.0808
    1W        W58178  23.098   2.154   8.805 -0.2523  0.0742 -0.2752
    1W        W58179  14.241  11.195   0.434 -0.1205  0.1647 -0.1888
    1W        W58180  24.018  20.960   2.576 -0.1488  0.0680  0.2745
    1W        W58181  12.156  10.988   2.411  0.1261 -0.0516 -0.0570
    1W        W58182  17.912  29.231   0.347  0.0330  0.0165 -0.0602
    1W        W58183  12.510   2.409   2.249 -0.0452 -0.1264 -0.0293
    1W        W58184  23.862   4.278   8.214  0.0040  0.2020  0.0140
    1W        W58185  27.082  18.805   0.912  0.0242 -0.0855  0.0248
    1W        W58186  10.305  21.061   7.924  0.4164 -0.0651  0.1316
    1W        W58187   7.670  14.805   6.040 -0.1899  0.4340 -0.0657
    1W        W58188  16.724   2.309   6.761 -0.2604 -0.2234 -0.0793
    1W        W58189   0.052  22.013   8.649 -0.1961  0.0462 -0.4125
    1W        W58190  16.031   5.935   8.204 -0.2462 -0.0441 -0.0063
    1W        W58191  12.087   9.668   2.203 -0.1065 -0.0650 -0.0635
    1W        W58192  29.491   8.818   0.163  0.4425 -0.1030 -0.3185
    1W        W58193  10.633  19.839   0.820 -0.1362  0.1615  0.0114
    1W        W58194   2.302  28.184   0.125  0.2773 -0.1967 -0.0268
    1W        W58195   9.303   6.096   5.791 -0.0518  0.1213 -0.1701
    1W        W58196  10.545  21.413   0.456 -0.0053 -0.0530 -0.3801
    1W        W58197  25.960  17.498   2.002 -0.3532  0.0963  0.4586
    1W        W58198  28.220   7.428   7.412  0.3173  0.0015  0.0351
    1W        W58199  25.205  26.740   2.418  0.1091 -0.3161  0.0729
    1W        W58200   5.617  12.617   0.831  0.0184 -0.0276  0.0251
    1W        W58201   4.540  12.698   7.969 -0.0854 -0.3397  0.1739
    1W        W58202  21.442  26.314   7.892 -0.3332 -0.2981 -0.4045
    1W        W58203  20.463  23.618   0.066  0.1184  0.0271  0.0032
    1W        W58204   0.492   5.854   1.015  0.0796 -0.1432 -0.2198
    1W        W58205  29.054  22.801   1.547 -0.0857  0.0913 -0.2131
    1W        W58206  26.443  16.161   8.225 -0.1287 -0.0198  0.0674
    1W        W58207  22.414  20.497   2.566 -0.0435  0.3959  0.0029
    1W        W58208  29.453  27.689   2.692  0.0173  0.2706 -0.1801
    1W        W58209   3.478  25.348   8.634  0.1266  0.3023 -0.3322
    1W        W58210  11.907  21.642   7.713  0.0110  0.0099  0.1254
    1W        W58211  18.774  25.532   2.228  0.1603  0.1670  0.3521
    1W        W58212  27.757  15.214   7.365 -0.1092  0.1099 -0.2358
    1W        W58213  21.988  16.588   7.707  0.2618 -0.1293  0.0414
    1W        W58214  23.018  25.422   2.959  0.0197 -0.1602 -0.1307
    1W        W58215  11.316   2.077   1.616  0.1045 -0.4217 -0.0280
    1W        W58216   0.634  12.527   8.952  0.2527  0.0594  0.0525
    1W        W58217  15.556  18.509   1.906 -0.2004 -0.1617 -0.1475
    1W        W58218   5.471  23.855   7.604 -0.3768  0.1330 -0.0990
    1W        W58219  16.835   2.614   8.467 -0.0096  0.1382  0.1967
    1W        W58220   7.360   7.371   0.790  0.0725  0.0509  0.1027
    1W        W58221  28.331  17.460   0.519 -0.2483  0.0802 -0.0040
    1W        W58222   0.095  26.659   7.855  0.1216  0.1211 -0.0961
    1W        W58223   5.674   6.621   5.706  0.0960 -0.1090  0.3685
    1W        W58224  29.080  19.086   7.260  0.0288  0.2415 -0.0566
    1W        W58225   5.038   7.789   0.058 -0.1218  0.1104 -0.0021
    1W        W58226   4.240  16.374   7.449  0.2261  0.0413  0.1203
    1W        W58227   1.577  24.654   7.759 -0.0620 -0.0913  0.3752
    1W        W58228  26.098  13.618   0.776 -0.2634  0.2510 -0.1394
    1W        W58229   0.546  13.004   8.828 -0.2696 -0.1188 -0.2966
    1W        W58230   6.375  14.990   8.368  0.0870  0.2109  0.1585
    1W        W58231  18.642   6.569   3.159  0.1495 -0.3555 -0.1017
    1W        W58232  15.406  21.751   7.725 -0.1720  0.2172 -0.3101
    1W        W58233   8.042  21.839   6.990  0.2484  0.1996 -0.2556
    1W        W58234  26.717   4.572   6.868  0.0415 -0.5350 -0.1055
    1W        W58235  24.792  14.483   7.394 -0.0230 -0.1877  0.2267
    1W        W58236  11.792  23.221   6.293  0.1029 -0.0744 -0.1526
    1W        W58237   9.689  17.532   9.559  0.0540  0.0315  0.0114
    1W        W58238  14.670   8.017   1.544 -0.0264  0.3031 -0.0818
    1W        W58239   4.426  29.420   7.823  0.2616 -0.0866 -0.1546
    1W        W58240  12.756  17.367   8.425  0.2176  0.0887  0.1496
    1W        W58241  23.370  14.819   7.710 -0.2381 -0.1075  0.0154
    1W        W58242  29.158  27.066   7.227 -0.1280 -0.1217  0.1573
    1W        W58243   2.240   1.089   6.175  0.3139  0.0054 -0.1054
    1W        W58244   5.214   0.908   2.042 -0.0792  0.0046 -0.0803
    1W        W58245   1.326  22.459   9.228  0.1020  0.0448 -0.0513
    1W        W58246   3.981  16.103   1.769 -0.2843 -0.0582  0.2033
    1W        W58247  19.081  12.554   8.355 -0.2426 -0.0739  0.1139
    1W        W58248   8.812  24.534   7.539 -0.1107 -0.0653  0.4188
    1W        W58249  10.444  13.292   1.661 -0.1460  0.0004  0.3022
    1W        W58250  22.079   8.795   2.106 -0.1786  0.1279 -0.0437
    1W        W58251  21.662  13.444   1.990  0.2350 -0.1550  0.0739
    1W        W58252  21.113  24.015   3.995 -0.4256  0.0125  0.1304
    1W        W58253  25.675   1.879   9.191 -0.0409  0.2112 -0.1442
    1W        W58254   0.491   7.209   0.501  0.1878  0.2854  0.0767
    1W        W58255  11.783   5.568   9.302 -0.2981 -0.0322 -0.0852
    1W        W58256  21.721  27.554   7.532 -0.1782  0.1773 -0.0602
    1W        W58257  13.815  26.022   8.496 -0.1796 -0.1530 -0.0354
    1W        W58258  20.848  22.816   7.539 -0.0402 -0.3173  0.0797
    1W        W58259   4.217  13.556   7.683 -0.0957  0.0626 -0.2261
    1W        W58260  18.254  13.713   1.489 -0.0121 -0.0314 -0.6400
    1W        W58261  23.488  20.463   0.005  0.0029  0.0829 -0.1297
    1W        W58262   7.624  10.490   8.249  0.0494  0.1599  0.1767
    1W        W58263  22.717  12.150   1.306  0.3633  0.0163 -0.0744
    1W        W58264  23.956  14.751   1.562 -0.1552  0.5245  0.2342
    1W        W58265  27.270  21.876   2.836 -0.0729 -0.4166  0.2558
    1W        W58266   3.161  16.223   7.037 -0.0439 -0.0343 -0.0653
    1W        W58267  23.778  24.084   1.948 -0.2216  0.1921 -0.0040
    1W        W58268  11.436  10.668   7.479 -0.1672  0.0192 -0.1299
    1W        W58269   2.211  15.452   8.065  0.0423 -0.0383  0.0515
    1W        W58270  19.642  29.580   8.761  0.0550  0.0447  0.3935
    1W        W58271   5.247  21.129   9.446 -0.1838 -0.0926  0.0062
    1W        W58272   9.079  24.755   6.200 -0.1651  0.2103  0.0877
    1W        W58273   4.465  13.918   9.107 -0.0396 -0.1842 -0.1381
    1W        W58274  26.649   3.719   8.735  0.1355 -0.0659 -0.1365
    1W        W58275  22.225  17.867   8.068 -0.0350 -0.2280  0.1531
    1W        W58276   6.610  24.870   2.564  0.1625 -0.3055 -0.0698
    1W        W58277  10.527   4.799   5.811 -0.1791  0.2769  0.0294
    1W        W58278   6.952  10.850   2.556  0.0846  0.0069 -0.5373
    1W        W58279  23.905  19.944   1.913 -0.1372  0.3108 -0.0704
    1W        W58280   3.307  10.155   9.038  0.0277 -0.2005  0.0688
    1W        W58281  24.300  12.128   6.854 -0.0028 -0.1610 -0.1300
    1W        W58282  15.783  26.171   0.602  0.0476  0.3684  0.1260
    1W        W58283  10.839   1.889   6.285 -0.0748 -0.1337 -0.1627
    1W        W58284  22.327  13.922   7.440  0.0176 -0.1268  0.0550
    1W        W58285  19.215  12.210   7.964  0.1408  0.1462 -0.1609
    1W        W58286   8.732   9.653   9.223 -0.0030 -0.1310  0.0898
    1W        W58287  12.527  28.402   1.516  0.1621 -0.1108  0.0487
    1W        W58288   3.280  19.332   7.589  0.0099 -0.2644 -0.2017
    1W        W58289   8.397  19.554   7.270 -0.1018 -0.1828  0.2606
    1W        W58290   1.945   4.661   1.416  0.1400  0.1430  0.2552
    1W        W58291  14.545   1.519   8.269  0.0523  0.2163  0.3681
    1W        W58292   1.054  26.509   0.674  0.1892 -0.0362 -0.1757
    1W        W58293   2.239   1.477   2.034 -0.1261  0.2891 -0.1629
    1W        W58294   6.180   1.738   1.594 -0.3346 -0.0793  0.2978
    1W        W58295  19.159   2.770   0.968  0.2037 -0.0967 -0.1550
    1W        W58296  25.190  23.585   0.175 -0.0305  0.1312 -0.1137
    1W        W58297  16.320  21.705   6.954 -0.4662 -0.0732  0.0811
    1W        W58298  26.254  29.146   0.227  0.1801 -0.1079 -0.0373
    1W        W58299   0.813  19.147   0.448 -0.0818 -0.2435  0.3007
    1W        W58300   9.272  21.499   2.844  0.0977 -0.4657  0.0676
    1W        W58301  10.443  15.620   6.421  0.0713  0.0035  0.0648
    1W        W58302  10.100  19.560   7.896  0.2010  0.1319  0.0746
    1W        W58303  28.429  26.573   0.032  0.2643 -0.0853 -0.1487
    1W        W58304  14.266  21.480   5.648  0.1277 -0.1408 -0.2038
    1W        W58305  18.887  14.174   1.676 -0.3219  0.1360  0.0011
    1W        W58306  16.984  13.450   0.919  0.0092 -0.0021  0.0752
    1W        W58307  24.846   7.957   7.263  0.1184 -0.0326  0.3307
    1W        W58308  26.361   6.769   8.559  0.2694 -0.2068 -0.0091
    1W        W58309   2.447  12.249   0.205 -0.3225  0.1215 -0.0590
    1W        W58310   9.941  20.903   7.562 -0.2476 -0.1241 -0.0254
    1W        W58311  24.646  26.601   1.754  0.2175 -0.2437  0.1202
    1W        W58312  11.928  18.003   1.685  0.1032 -0.0874 -0.2442
    1W        W58313  19.460   0.809   8.767  0.0413  0.1996 -0.2924
    1W        W58314   7.127   3.933   0.673 -0.0657 -0.1685  0.0373
    1W        W58315   2.047   8.676   9.555 -0.3084 -0.1201 -0.0485
    1W        W58316  17.115  21.170   1.106 -0.1150 -0.0963  0.1341
    1W        W58317   4.307  24.243   8.031 -0.3147  0.0915 -0.0910
    1W        W58318  12.917  13.384   8.873  0.1430 -0.1473 -0.0628
    1W        W58319  16.261  22.678   3.078 -0.0781 -0.0458 -0.1987
    1W        W58320  13.878  23.137   1.277  0.5073  0.0729 -0.1430
    1W        W58321  21.723  13.168   8.856 -0.2512  0.1229  0.0775
    1W        W58322  18.282   2.397   8.698 -0.1589  0.0996 -0.2330
    1W        W58323   5.226  14.155   8.438  0.0649 -0.3014  0.1943
    1W        W58324  25.122  28.152   7.940 -0.0275  0.2101 -0.0104
    1W        W58325  25.952   0.664   9.379 -0.0019  0.0265 -0.1271
    1W        W58326   8.646   7.921   7.637  0.1031  0.3814 -0.3748
    1W        W58327  10.240  14.309   6.015  0.3541  0.2294  0.0348
    1W        W58328  26.339  22.739   8.413  0.1067  0.2195  0.2927
    1W        W58329  13.348   2.746   7.329 -0.0919  0.0398  0.0631
    1W        W58330  21.399  22.407   8.019  0.0275 -0.2251  0.0660
    1W        W58331  18.490  18.320   7.953  0.2215 -0.0459 -0.2360
    1W        W58332  27.828  22.769   0.664 -0.0533  0.1144 -0.1067
    1W        W58333   7.390  21.341   7.983 -0.1192  0.2213  0.3447
    1W        W58334  13.557  29.509   7.662  0.1178  0.1257  0.2696
    1W        W58335   0.301   3.457   2.522  0.5692 -0.4075 -0.5973
    1W        W58336  12.372   8.265   9.235  0.1237  0.0475  0.2628
    1W        W58337  26.390  13.001   0.044  0.2726  0.1383 -0.1464
    1W        W58338   0.255   5.934   8.519  0.0479  0.1714 -0.0330
    1W        W58339  21.438  22.700   0.514 -0.0969  0.1481  0.0137
    1W        W58340  20.258  14.886   8.092 -0.1351  0.1864  0.1586
    1W        W58341  28.631   1.165   0.228  0.3205 -0.4539 -0.2320
    1W        W58342  21.887  22.736   1.448 -0.1929  0.1380 -0.1737
    1W        W58343   9.334  16.488   8.558 -0.1375 -0.2505  0.0681
    1W        W58344  17.000   0.265   2.604 -0.1914 -0.2581  0.0636
    1W        W58345   3.063  21.926   8.372 -0.2339  0.1886 -0.1027
    1W        W58346  21.273  13.005   9.047 -0.1665  0.1336  0.2769
    1W        W58347  27.344   9.248   7.933  0.3164 -0.2017  0.4159
    1W        W58348  21.699  11.505   8.311  0.0227  0.1421  0.0701
    1W        W58349   9.145   0.072   8.263  0.2385  0.0835 -0.2114
    1W        W58350  10.389   8.989   8.374  0.0616  0.1239  0.0923
    1W        W58351  21.190  17.020   7.808 -0.2076  0.3200  0.0937
    1W        W58352   4.107   8.215   7.751  0.0761  0.0691  0.3844
    1W        W58353  26.757  13.813   7.804 -0.0668 -0.1618 -0.3098
    1W        W58354  12.055  17.966   0.625 -0.0966  0.0497 -0.0049
    1W        W58355  14.081   3.437   1.877 -0.2250 -0.1505  0.1104
    1W        W58356   9.549   1.718   6.725  0.1777  0.0559  0.0505
    1W        W58357  15.628  27.932   8.966  0.1820  0.1527  0.0133
    1W        W58358  25.608   8.663   7.805  0.2850  0.2656  0.1092
    1W        W58359   5.541  10.806   8.261 -0.1138  0.1786  0.1738
    1W        W58360   4.372   4.612   1.177  0.0772  0.0225  0.0636
    1W        W58361  12.112  22.409   6.820  0.2016  0.0186  0.0422
    1W        W58362  26.660  12.987   1.974  0.1716  0.1060  0.0235
    1W        W58363  27.593  27.579   0.413  0.1239 -0.0812 -0.0727
    1W        W58364  23.659   0.973   2.988  0.1869  0.0326  0.2664
    1W        W58365  27.919  28.593   0.953  0.1212 -0.0939  0.2603
    1W        W58366  19.915  15.679   7.845 -0.1225  0.0763  0.0385
    1W        W58367  17.392   0.334   7.701 -0.3957 -0.2225 -0.2681
    1W        W58368   1.474  25.263   7.790  0.2059  0.0171  0.0017
    1W        W58369   9.993   5.407   6.602  0.0756 -0.2645  0.0939
    1W        W58370  19.795  14.208   0.316  0.1310 -0.1194  0.0819
    1W        W58371   5.739  15.995   7.729 -0.1309 -0.0290  0.3931
    1W        W58372  24.604  18.351   1.024  0.0121 -0.1554  0.2953
    1W        W58373   9.869   4.339   0.818  0.0006  0.0719  0.1145
    1W        W58374  18.462  24.922   0.756 -0.3876 -0.0082  0.3461
    1W        W58375  23.363  10.224   2.108 -0.1907  0.2515  0.2445
    1W        W58376  17.312  14.558   7.920  0.0296  0.2398 -0.2177
    1W        W58377  15.759  23.049   7.761 -0.1444  0.2839 -0.4821
    1W        W58378   9.689  20.762   8.120  0.1668  0.0511 -0.0246
    1W        W58379  20.868  19.708   7.055 -0.3038 -0.0866  0.1952
    1W        W58380  10.402  20.930   7.371 -0.1791  0.0766  0.1663
    1W        W58381  19.666  21.955   7.330  0.2033  0.0197 -0.1246
    1W        W58382   5.157   7.763   2.519  0.0676  0.0141  0.1265
    1W        W58383  21.881   0.796   1.759 -0.1507  0.1064 -0.0276
    1W        W58384  28.206  23.507   8.015 -0.0423  0.3321  0.1424
    1W        W58385  23.006   3.998   7.713 -0.0459 -0.0739 -0.2959
    1W        W58386  18.032   0.042   0.667  0.1375 -0.1002  0.1690
    1W        W58387   6.644   2.743   7.909  0.1923 -0.0301 -0.1914
    1W        W58388  16.225  10.127   8.960  0.0628 -0.3765  0.4489
    1W        W58389  26.043  17.887   7.677  0.1384 -0.0276  0.1348
    1W        W58390  22.489  12.879   9.414  0.0882  0.1851  0.0941
    1W        W58391  18.312  20.684   7.775 -0.2606  0.0103 -0.0577
    1W        W58392  15.602  20.582   8.031 -0.1310  0.4073  0.2219
    1W        W58393   4.950  15.700   0.679  0.0181  0.1641 -0.1985
    1W        W58394  14.715  19.850   2.743 -0.1116  0.0379 -0.0749
    1W        W58395  24.082  12.155   1.992  0.0188  0.1588 -0.0348
    1W        W58396  12.601  18.301   7.710 -0.2633  0.0949 -0.1154
    1W        W58397  21.152  26.195   3.815 -0.1472 -0.1463  0.0888
    1W        W58398   2.387  13.151   2.179  0.0833  0.3205 -0.0268
    1W        W58399  10.828   2.080   1.644  0.1538 -0.2325 -0.0636
    1W        W58400   4.820   3.780   1.564  0.0568  0.1943  0.0093
    1W        W58401  14.150  16.428   0.881  0.1076 -0.3632 -0.1155
    1W        W58402  28.083   1.296   0.955  0.2313  0.0941  0.1176
    1W        W58403   6.957  10.839   9.112 -0.1864  0.4071 -0.2326
    1W        W58404   4.182  11.401   9.260 -0.0645 -0.0370  0.0438
    1W        W58405  12.590  16.394   5.610 -0.0542 -0.1183  0.0081
    1W        W58406  10.932  15.845   8.159 -0.0743  0.0117  0.0869
    1W        W58407  28.926   7.313   0.615  0.1158  0.2513  0.0159
    1W        W58408  26.907  25.030   1.495  0.1028  0.0544  0.3726
    1W        W58409   8.410   8.474   6.710 -0.1857  0.2558  0.3464
    1W        W58410  14.220   5.274   8.995 -0.3403  0.0681 -0.2333
    1W        W58411  16.081  13.722   1.838  0.2461 -0.0163 -0.1095
    1W        W58412  19.258  16.019   8.054  0.0049  0.0232  0.1849
    1W        W58413   0.638  12.030   8.912  0.3830  0.0470  0.0830
    1W        W58414  11.278  11.326   6.248  0.1159 -0.2470  0.2347
    1W        W58415   1.420  28.977   2.879 -0.0062  0.3679  0.0007
    1W        W58416  23.232  25.944   2.065 -0.0621 -0.2548  0.2105
    1W        W58417  29.151  11.194   8.769  0.0097 -0.1713  0.0095
    1W        W58418  16.486  29.289   9.202 -0.1852  0.0672 -0.2667
    1W        W58419  14.306   7.604   6.553 -0.1253  0.0387  0.1744
    1W        W58420   7.884  21.987   2.365  0.1002  0.1015 -0.1066
    1W        W58421   8.905   1.958   7.388 -0.2679 -0.0029  0.2958
    1W        W58422  21.906   7.623   0.195  0.5580 -0.2608 -0.3834
    1W        W58423  16.843  23.972   7.168  0.0564 -0.1114  0.1094
    1W        W58424  27.271  19.966   3.376  0.1534 -0.1983  0.2084
    1W        W58425  16.808  27.162   8.170  0.0598 -0.1661  0.0548
    1W        W58426  27.010  22.028   0.174 -0.1273  0.1980 -0.0690
    1W        W58427  11.081  15.779   0.525 -0.1650 -0.2481  0.0595
    1W        W58428  17.679  25.660   8.863 -0.1265  0.1610  0.3517
    1W        W58429  12.442  14.372   0.621 -0.0539  0.0309 -0.0136
    1W        W58430  24.650  14.221   8.354  0.1301 -0.1382 -0.4054
    1W        W58431  15.185   6.004   2.017 -0.0660  0.0046 -0.1141
    1W        W58432  18.534  11.188   1.142 -0.0837 -0.1939  0.2538
    1W        W58433   1.098   5.497   9.151  0.1851  0.0401 -0.1166
    1W        W58434   3.520  12.394   0.159 -0.0854 -0.0287 -0.1657
    1W        W58435  16.886  29.523   1.397  0.1943 -0.2206  0.0754
    1W        W58436  26.167  17.905   8.603  0.2066 -0.3679  0.0159
    1W        W58437  15.879   0.149   2.422 -0.2161  0.1239  0.2138
    1W        W58438  28.347   6.591   6.789 -0.1308 -0.3352 -0.4624
    1W        W58439  27.626  26.770   0.346  0.1727  0.0897 -0.0876
    1W        W58440  15.710  14.017   7.799 -0.1919  0.0827 -0.0075
    1W        W58441  12.561  19.353   6.406  0.3797  0.0379 -0.1729
    1W        W58442   1.001  28.186   0.734  0.1335  0.2062  0.0650
    1W        W58443  22.012   8.045   0.962  0.1587  0.2001  0.1705
    1W        W58444  11.754   0.948   1.115  0.3630  0.1479 -0.0883
    1W        W58445  16.068  19.092   7.014  0.3148  0.0249  0.0508
    1W        W58446   4.225  16.253   8.353  0.1471 -0.1341 -0.2232
    1W        W58447  28.236   2.485   0.269  0.2723 -0.0210  0.4114
    1W        W58448  14.641   0.776   1.500 -0.1579  0.0667  0.1654
    1W        W58449  22.454  16.646   7.903 -0.1629 -0.0503 -0.0417
    1W        W58450   9.563  11.264   0.774 -0.1145 -0.0231  0.1821
    1W        W58451  18.062  16.238   9.387  0.2091  0.2406  0.0274
    1W        W58452  10.619  15.658   0.720 -0.1800 -0.1534  0.1086
    1W        W58453  14.765  10.443   3.112  0.0389  0.3472 -0.3366
    1W        W58454  14.186   6.516   7.196 -0.1248  0.1306  0.0578
    1W        W58455  10.424  15.421   6.860 -0.3978  0.0700 -0.3268
    1W        W58456   8.382  29.556   7.727  0.2346  0.3071  0.2470
    1W        W58457  10.005  28.001   9.308 -0.0899 -0.0661 -0.1843
    1W        W58458   0.583   7.815   6.671  0.1450  0.0365  0.2327
    1W        W58459  15.566  23.519   7.607 -0.1638 -0.1236  0.3113
    1W        W58460  12.079  24.012   0.271 -0.1523  0.1499  0.2227
    1W        W58461   6.662   7.122   1.162 -0.0366  0.4831 -0.0554
    1W        W58462  24.910  10.260   0.399 -0.0750 -0.1659  0.0228
    1W        W58463   8.527  22.754   9.298  0.1717  0.0461  0.1749
    1W        W58464  21.131  11.149   0.169 -0.3576 -0.2091 -0.1481
    1W        W58465  27.841   2.858   9.172  0.1506 -0.0086 -0.1382
    1W        W58466  25.748  28.318   6.820 -0.1158 -0.0922 -0.0701
    1W        W58467  18.744  20.494   8.204  0.0282  0.2619 -0.2418
    1W        W58468  22.890  20.329   8.102 -0.0272  0.1722  0.0853
    1W        W58469  25.843  22.648   9.183  0.0804 -0.1917 -0.0223
    1W        W58470  16.473   1.793   8.580 -0.2253  0.0110 -0.0533
    1W        W58471  12.949   6.076   1.788  0.0167 -0.0164  0.3113
    1W        W58472  24.805  28.602   2.927  0.1348  0.0809  0.0507
    1W        W58473   4.448   3.160   1.548  0.0360 -0.0563  0.1575
    1W        W58474  29.602  10.406   0.540 -0.0530  0.1907 -0.1656
    1W        W58475  14.903  16.379   0.655 -0.1822 -0.1071  0.2100
    1W        W58476  27.205   4.284   0.759  0.0630  0.1924 -0.3003
    1W        W58477  18.416   5.259   0.711  0.0072  0.1468  0.0828
    1W        W58478  24.282   4.945   1.383  0.5146  0.3273  0.0331
    1W        W58479  21.207  27.494   6.988  0.0891 -0.3853 -0.2145
    1W        W58480   6.751  26.532   9.148  0.1369 -0.0172 -0.0587
    1W        W58481  29.527  28.544   1.760 -0.0215  0.2058 -0.2795
    1W        W58482   9.578  26.344   0.097 -0.2210  0.0394  0.3557
    1W        W58483   1.764  13.534   0.092  0.2396 -0.1133 -0.1436
    1W        W58484  11.287  16.751   1.582 -0.0679  0.1641 -0.1478
    1W        W58485   1.674   8.364   8.684  0.2675 -0.1538 -0.0132
    1W        W58486   6.074  13.118   8.649  0.0867 -0.2317  0.0963
    1W        W58487   7.602  22.424   7.524 -0.2185  0.1734  0.2964
    1W        W58488   7.172   5.305   1.246  0.2484 -0.1117 -0.0111
    1W        W58489   1.144  24.075   0.436  0.1369  0.2879 -0.0438
    1W        W58490   4.972  14.534   7.171 -0.0043  0.1921 -0.0338
    1W        W58491   0.474  19.590   0.356  0.0408 -0.0471 -0.0468
    1W        W58492  23.669   7.637   7.975  0.2500  0.2498  0.0629
    1W        W58493  20.236  20.683   1.637 -0.0109 -0.0384 -0.0135
    1W        W58494  20.181   1.471   3.422 -0.0026  0.1839 -0.0063
    1W        W58495  27.264  20.108   9.131  0.3299  0.2988  0.1499
    1W        W58496  15.308  14.210   9.235 -0.0933 -0.1786 -0.2219
    1W        W58497  17.545   9.435   6.527 -0.2664 -0.1979 -0.1862
    1W        W58498   7.836   6.585   5.950  0.2164 -0.2818 -0.0845
    1W        W58499  14.822   8.807   1.091  0.2976 -0.0374  0.0230
    1W        W58500  18.772   7.030   7.676 -0.2079  0.0617  0.1823
    1W        W58501   5.378   7.108   7.282 -0.1935  0.0893 -0.1983
    1W        W58502   9.046  24.316   2.861 -0.2055 -0.1930  0.1665
    1W        W58503   6.834   8.582   9.041  0.2124 -0.0791  0.3908
    1W        W58504   0.451  24.107   7.459 -0.2232  0.0062 -0.1217
    1W        W58505  23.165  11.046   0.843 -0.0342 -0.1315 -0.0522
    1W        W58506   2.130   0.354   7.142  0.4336 -0.1062  0.2188
    1W        W58507  10.004  26.889   6.936  0.0804  0.1567 -0.1207
    1W        W58508  16.492   3.368   7.667 -0.0830 -0.1955 -0.1408
    1W        W58509  21.363  28.710   8.576 -0.1575 -0.2356 -0.2384
    1W        W58510  12.715   5.389   6.898  0.1478 -0.0469 -0.2859
    1W        W58511   2.341  28.290   2.128  0.0060  0.2015 -0.0425
    1W        W58512   6.087   0.255   0.147  0.0152 -0.1215 -0.3301
    1W        W58513   7.295   8.337   9.191 -0.3777  0.0584 -0.1985
    1W        W58514   6.179  15.545   2.206 -0.2765 -0.1758 -0.2260
    1W        W58515  10.217  13.178   9.368 -0.0072  0.0560 -0.0962
    1W        W58516  21.175   0.717   1.900  0.0887  0.2503  0.1225
    1W        W58517   0.753  16.100   0.937  0.1341 -0.1284  0.0866
    1W        W58518   0.280  10.108   0.298 -0.0023  0.2439  0.1784
    1W        W58519  15.827  15.951   9.293 -0.0113  0.3882  0.3191
    1W        W58520  23.630   3.447   2.213  0.1133  0.2120  0.1202
    1W        W58521  29.160  27.255   3.470  0.2674 -0.0566 -0.3211
    1W        W58522   2.053   6.442   0.612  0.1761  0.0924 -0.0386
    1W        W58523   8.177  25.605   8.277  0.0830 -0.3142 -0.0302
    1W        W58524  20.175  22.832   1.614 -0.1545  0.0985  0.0461
    1W        W58525  29.441  27.256   2.965  0.1854 -0.1019 -0.5083
    1W        W58526   3.187   4.731   8.362  0.3930 -0.2965 -0.3964
    1W        W58527   5.734   0.416   8.034  0.1314 -0.2517  0.0405
    1W        W58528  20.537  11.164   8.809 -0.6220 -0.0157  0.0489
    1W        W58529  19.558   3.942   3.076 -0.1183  0.1878  0.0701
    1W        W58530   7.656  12.981   6.349 -0.1784 -0.0132 -0.1810
    1W        W58531  16.910   2.545   7.952 -0.0428 -0.0416  0.2805
    1W        W58532   8.541  22.659   6.782 -0.0829 -0.2350  0.1488
    1W        W58533  12.452  10.685   7.088 -0.0991 -0.1464  0.0337
    1W        W58534  10.730  25.525   8.726  0.4258 -0.0483 -0.0186
    1W        W58535  22.055  10.758   8.189  0.1187 -0.1315 -0.0121
    1W        W58536  26.953  28.091   7.715  0.1882 -0.2896  0.0105
    1W        W58537  28.203  29.445   0.574  0.3703 -0.0585 -0.2079
    1W        W58538   1.947   0.695   2.065  0.0390  0.0751  0.4735
    1W        W58539   9.069   8.878   8.848 -0.0999 -0.0630 -0.0678
    1W        W58540  16.503   0.268   1.398 -0.0192  0.0700  0.3295
    1W        W58541  12.540  28.044   6.423 -0.0702 -0.2795 -0.1591
    1W        W58542   8.999  15.050   2.779  0.1347  0.6950  0.0325
    1W        W58543   5.218  18.130   1.941 -0.0587 -0.1316 -0.1824
    1W        W58544  28.283  22.647   7.562  0.1474 -0.1007  0.1820
    1W        W58545  10.535  23.303   0.404 -0.0371 -0.1364 -0.4274
    1W        W58546  21.394   3.582   1.239 -0.1452 -0.0016  0.0501
    1W        W58547  25.660  29.387   2.174  0.0200  0.2580 -0.0339
    1W        W58548  28.311  14.293   0.484  0.2559  0.3646 -0.0010
    1W        W58549   6.022  23.434   0.692 -0.4541 -0.2228 -0.0821
    1W        W58550  29.131  11.090   1.602 -0.3247 -0.1096  0.2402
    1W        W58551  10.174   0.782   9.631  0.2730  0.1304  0.0460
    1W        W58552  21.093  13.203   7.972 -0.1130  0.0981 -0.1050
    1W        W58553  13.841   3.019   7.456  0.3056 -0.0581  0.2126
    1W        W58554  17.945  15.754   9.563 -0.4020 -0.0036 -0.2494
    1W        W58555  23.957   6.657   2.639 -0.2818 -0.0551 -0.0394
    1W        W58556   1.950  21.389   8.157  0.3133  0.3229 -0.3022
    1W        W58557  14.309  15.245   1.490  0.1488 -0.1405  0.1188
    1W        W58558  20.913   1.436   8.499 -0.3187  0.0858  0.0921
    1W        W58559   9.923  26.063   9.173 -0.3168 -0.1210  0.0835
    1W        W58560  15.985   1.355   9.525  0.0352 -0.4524 -0.2921
    1W        W58561   3.358  21.278   2.123  0.0564 -0.0869 -0.3125
    1W        W58562   0.829   7.848   0.665  0.1134  0.0260 -0.1332
    1W        W58563   0.983   4.821   8.328  0.1831 -0.4130  0.1891
    1W        W58564  13.882   4.479   9.188  0.1374 -0.1231  0.0214
    1W        W58565  24.494  24.804   2.411  0.0396 -0.0335  0.0571
    1W        W58566   2.799  15.745   6.356 -0.2672  0.2188 -0.0159
    1W        W58567  25.420   7.384   8.416 -0.0186  0.2451  0.0027
    1W        W58568  26.804  17.211   1.450  0.0949  0.0645  0.1229
    1W        W58569  20.726  10.020   0.001  0.2932  0.0584  0.0368
    1W        W58570  25.711   2.387   2.075 -0.0710 -0.0529  0.4850
    1W        W58571  14.512  22.136   2.065 -0.4788 -0.2453 -0.1943
    1W        W58572  28.105   1.754   2.464  0.0831 -0.0943  0.1496
    1W        W58573  16.079  17.498   0.229  0.0780  0.0167 -0.1215
    1W        W58574  12.331  16.757   6.403 -0.1908 -0.2181 -0.0907
    1W        W58575  17.095  26.117   2.944 -0.0261  0.1915 -0.1501
    1W        W58576  13.817   6.533   0.948 -0.2188 -0.1669  0.1710
    1W        W58577  13.935  10.087   8.059 -0.0507 -0.0770  0.0418
    1W        W58578  19.902  23.815   8.920 -0.1849  0.0500  0.2855
    1W        W58579  22.336  28.742   7.747  0.0209 -0.2602 -0.0769
    1W        W58580   1.280   0.504   0.160 -0.0799  0.3502 -0.1931
    1W        W58581  21.807  21.011   3.057 -0.2438 -0.2157 -0.2307
    1W        W58582   2.997  21.461   8.383  0.0030 -0.2782  0.1762
    1W        W58583   3.142   4.379   0.971 -0.0665 -0.1348  0.1750
    1W        W58584  18.642  15.390   2.438 -0.1026  0.0210 -0.0237
    1W        W58585  11.413   6.918   1.600  0.1626  0.1425 -0.0286
    1W        W58586  21.328  25.605   7.590  0.2803  0.1171 -0.0962
    1W        W58587  25.310  24.663   1.394 -0.1076 -0.3201 -0.1084
    1W        W58588  27.895  27.128   1.478 -0.0844  0.1466 -0.0450
    1W        W58589   2.208  17.475   0.258  0.0979  0.0085  0.1189
    1W        W58590  11.506   3.316   6.708  0.2605  0.0380  0.1775
    1W        W58591   4.629   5.514   6.714  0.0900  0.0503 -0.1310
    1W        W58592  11.468  20.109   5.661 -0.1605 -0.1655  0.2508
    1W        W58593  24.917  18.337   2.512 -0.0018  0.0695 -0.1621
    1W        W58594  12.324  15.645   7.162  0.0967 -0.0726 -0.1256
    1W        W58595  16.033  14.745   2.997 -0.0268  0.1675 -0.1437
    1W        W58596   3.538  27.972   7.475 -0.1467  0.0990 -0.1917
    1W        W58597   0.859   0.846   2.119 -0.0261  0.0028 -0.0431
    1W        W58598   8.971  22.356   6.737 -0.2637 -0.1042 -0.2960
    1W        W58599  26.126  11.572   9.457  0.1002 -0.0819  0.0635
    1W        W58600  21.481  24.747   1.384  0.2750  0.1263 -0.1030
    1W        W58601  11.542  17.952   6.228 -0.1341  0.0106  0.0799
    1W        W58602   2.409  14.389   7.882  0.0062  0.0270  0.2427
    1W        W58603  14.953   5.314   6.941  0.0870 -0.0544  0.2059
    1W        W58604  20.421  23.659   8.091  0.0758 -0.2567  0.0571
    1W        W58605  12.276  11.861   2.713 -0.1099  0.0046  0.3857
    1W        W58606  16.510  10.159   8.114  0.0085 -0.1242  0.2052
    1W        W58607  11.796  17.075   0.580  0.0619  0.0793  0.0916
    1W        W58608  11.477  26.599   1.278  0.1158 -0.2658 -0.0767
    1W        W58609  17.445  23.299   2.707 -0.3706 -0.1653 -0.2165
    1W        W58610   3.994  16.390   7.898 -0.0066 -0.1599 -0.1444
    1W        W58611  15.846  28.902   6.801 -0.2214  0.0506  0.3407
    1W        W58612  11.586  12.560   7.314  0.0867 -0.3916  0.3357
    1W        W58613  26.114   8.580   7.146 -0.1088  0.3952  0.0969
    1W        W58614  23.260  23.515   9.280 -0.0932  0.0577 -0.1068
    1W        W58615  12.371  18.361   0.535  0.2456  0.1853  0.0771
    1W        W58616  29.130  20.997   3.713  0.3324 -0.0291 -0.0956
    1W        W58617  22.096  25.141   0.797  0.3336 -0.0664  0.0458
    1W        W58618  17.348  13.846   1.736 -0.1360 -0.0379  0.1928
    1W        W58619   7.620   4.873   8.108 -0.1932 -0.1338 -0.4346
    1W        W58620   3.895  27.875   2.158  0.0663  0.0996 -0.2100
    1W        W58621  19.204   0.960   2.768  0.2173 -0.1688 -0.0676
    1W        W58622  26.515  15.043   9.350  0.0218 -0.0184  0.0843
    1W        W58623   2.171   9.440   1.310  0.1077 -0.2116  0.1656
    1W        W58624   4.073  17.754   7.580  0.2969 -0.1470  0.1374
    1W        W58625   4.410  19.448   1.641  0.1377 -0.0935  0.0392
    1W        W58626   7.399   0.000   7.665  0.2206 -0.0326 -0.2832
    1W        W58627  19.136  27.542   0.689  0.2345  0.0247  0.0144
    1W        W58628  20.131  10.855   8.888 -0.1525  0.0199 -0.2541
    1W        W58629  16.272  25.848   6.745  0.2577  0.3838  0.0085
    1W        W58630  12.620  15.941   2.114  0.0856  0.1237  0.1003
    1W        W58631  29.207  20.574   7.760 -0.2316 -0.2159  0.1072
    1W        W58632  14.869   1.238   1.235 -0.2322 -0.2097 -0.2608
    1W        W58633  26.370   3.505   7.753  0.0735  0.0431 -0.4006
    1W        W58634  24.574  15.462   9.005 -0.1408 -0.0050  0.1060
    1W        W58635   3.240  25.932   2.451  0.1464 -0.0201 -0.1617
    1W        W58636   8.122  10.842   2.216 -0.1047  0.2271  0.0826
    1W        W58637  18.586   1.626   1.247 -0.0453 -0.0005  0.0947
    1W        W58638  27.890  24.955   7.853  0.0680  0.1832  0.2343
    1W        W58639  19.233  18.040   9.559  0.3546 -0.0554 -0.0173
    1W        W58640  19.139  14.522   9.151 -0.0246 -0.1271  0.2088
    1W        W58641   0.221   4.771   1.779  0.0315  0.2570 -0.1616
    1W        W58642   3.888  22.915   9.480  0.1718  0.2304 -0.3062
    1W        W58643  20.767  28.306   0.868  0.2018 -0.0127 -0.2269
    1W        W58644  16.767   4.563   2.902 -0.0856 -0.3233 -0.0934
    1W        W58645  21.049   0.310   9.233 -0.0733  0.1431 -0.2965
    1W        W58646  22.568   6.008   8.365  0.3872 -0.0213 -0.3512
    1W        W58647  12.915  27.608   6.523 -0.0413  0.0165  0.1316
    1W        W58648  20.521   8.987   7.255 -0.2957 -0.0635 -0.0390
    1W        W58649   2.912  18.104   9.316 -0.0443  0.1401  0.1170
    1W        W58650   7.543  19.603   6.869  0.1422 -0.1075  0.1017
    1W        W58651  16.997  15.601   8.891 -0.0372  0.0446 -0.2602
    1W        W58652  27.262   0.553   2.607 -0.0223  0.0511 -0.1974
    1W        W58653   3.211  16.978   6.949  0.1394  0.1180 -0.0562
    1W        W58654  24.565  16.979   2.839 -0.2641  0.0486 -0.0741
    1W        W58655  12.367  26.671   2.067  0.0350 -0.0404 -0.0201
    1W        W58656   1.404   4.700   7.629 -0.0429 -0.1434  0.1831
    1W        W58657  16.581  24.121   1.060 -0.1186  0.1522  0.3037
    1W        W58658  10.527  17.060   0.321  0.2099 -0.1359  0.2879
    1W        W58659  25.904  24.889   1.858  0.0503  0.3749  0.0782
    1W        W58660   2.398  15.233   7.680  0.1103  0.3165 -0.1632
    1W        W58661   0.040  28.668   2.724  0.2410 -0.2068 -0.2031
    1W        W58662  23.996  22.757   9.064 -0.1214  0.1858  0.1941
    1W        W58663  25.807   7.387   7.547  0.3113  0.0467 -0.0086
    1W        W58664   5.743   6.700   5.234  0.0366  0.0165  0.1329
    1W        W58665   4.271  14.020   0.800  0.0073 -0.2098 -0.1255
    1W        W58666   0.440  22.748   8.275 -0.0308  0.0465  0.2486
    1W        W58667   2.334   5.279   8.581 -0.1432  0.0104 -0.0986
    1W        W58668  19.438   5.708   1.051  0.0667 -0.3121 -0.1831
    1W        W58669   6.365  26.472   2.783 -0.2740 -0.0178 -0.0788
    1W        W58670   2.448  25.167   3.106 -0.1524 -0.1326 -0.0842
    1W        W58671   3.043  17.872   7.418 -0.3250  0.0709 -0.2856
    1W        W58672   3.743  14.536   8.989  0.1970  0.0405 -0.2003
    1W        W58673  23.376  17.353   2.175 -0.2730 -0.2894  0.1847
    1W        W58674   0.734  21.595   9.369 -0.2050  0.2599 -0.1216
    1W        W58675  17.529  13.664   0.547 -0.1418 -0.1391  0.2556
    1W        W58676  12.155  22.265   9.088 -0.2881 -0.3027  0.3504
    1W        W58677  23.278   1.563   8.097  0.1388 -0.2552 -0.1039
    1W        W58678  11.298  11.593   9.339  0.1348  0.1538  0.1099
    1W        W58679  15.758   6.791   1.626 -0.0344 -0.0495 -0.0476
    1W        W58680   6.170   5.009   1.402 -0.2019 -0.1624 -0.1652
    1W        W58681  22.719   0.555   2.531 -0.0015  0.0991 -0.0066
    1W        W58682  14.085   4.099   0.288 -0.1530  0.0795 -0.3676
    1W        W58683  27.501  25.807   9.297 -0.0666  0.0709  0.2623
    1W        W58684  18.183  21.771   3.257 -0.3340 -0.0591 -0.3219
    1W        W58685   2.127  26.881   6.935  0.5571  0.2618  0.4101
    1W        W58686   2.071  14.273   8.918  0.0492 -0.2253  0.0703
    1W        W58687   9.317  15.294   1.790 -0.1066  0.0842 -0.0747
    1W        W58688   9.433  29.528   9.320  0.0606  0.2544  0.2669
    1W        W58689   9.168   7.053   6.690  0.1841 -0.2940 -0.0233
    1W        W58690  13.077  18.717   0.681 -0.0089  0.3968  0.0735
    1W        W58691  12.229  23.468   1.838 -0.4021 -0.0090 -0.0876
    1W        W58692   5.044   0.126   2.007 -0.1041 -0.0638 -0.1548
    1W        W58693   0.331   4.382   2.167 -0.2012  0.0288 -0.1835
    1W        W58694   1.843  16.628   3.102  0.3726  0.4494 -0.3223
    1W        W58695  15.388   0.086   2.403 -0.0404 -0.0400 -0.0200
    1W        W58696  17.737   0.999   6.452 -0.1071 -0.0863 -0.1172
    1W        W58697   1.317   3.625   0.032  0.1239  0.3377  0.2624
    1W        W58698  27.719   2.024   8.776 -0.1472  0.0000 -0.0507
    1W        W58699   1.745   2.324   8.405  0.1043 -0.1277 -0.1318
    1W        W58700  14.615  13.162   1.664 -0.0795  0.1611  0.3327
    1W        W58701  28.984   1.976   9.544 -0.1057  0.0178  0.2584
    1W        W58702  13.386  28.124   8.908 -0.1539  0.1314  0.1052
    1W        W58703   2.477  14.656   8.966  0.0507  0.2509  0.4519
    1W        W58704  13.369   6.775   8.126  0.0557 -0.0330 -0.3480
    1W        W58705   8.583  21.998   0.606  0.0872  0.3165  0.2174
    1W        W58706   8.063  23.459   1.539 -0.0935  0.0241 -0.0963
    1W        W58707   7.793  10.833   6.655  0.2555  0.2782  0.2308
    1W        W58708   4.132  12.785   1.840 -0.1050  0.0817 -0.3258
    1W        W58709   5.707  19.992   8.635  0.1718  0.2642  0.2535
    1W        W58710  21.448  26.630   3.812 -0.1614  0.0397 -0.1979
    1W        W58711  16.413  26.313   2.231 -0.0377 -0.0264 -0.4107
    1W        W58712  21.371   4.860   3.001 -0.1138  0.0751  0.0246
    1W        W58713   0.760   4.256   1.835  0.1786 -0.1528 -0.1857
    1W        W58714  24.145  25.240   0.762  0.0693 -0.1325  0.1706
    1W        W58715  21.747  21.452   8.510  0.0660 -0.1533  0.1013
    1W        W58716  19.685  24.837   0.133 -0.2389  0.1728  0.1758
    1W        W58717  13.375  29.473   8.490  0.0474 -0.0253  0.1916
    1W        W58718   3.879  15.033   1.564  0.1127  0.4794 -0.0345
    1W        W58719   8.968   9.754   8.426 -0.2232  0.1264  0.3920
    1W        W58720  28.277  12.356   1.041 -0.2807 -0.0857  0.1578
    1W        W58721   5.223  27.615   9.225 -0.1455 -0.1238 -0.0275
    1W        W58722   4.495   7.244   9.152 -0.1027  0.1010  0.1323
    1W        W58723  27.775  21.970   0.977  0.1088 -0.1049  0.0252
    1W        W58724  12.472  13.545   8.922  0.1191 -0.3134 -0.4208
    1W        W58725  17.440   0.294   8.576  0.2170 -0.0410 -0.1910
    1W        W58726  11.687   2.335   1.015 -0.0731 -0.0551  0.2511
    1W        W58727  13.535  25.555   6.902  0.3370 -0.0143 -0.0665
    1W        W58728  15.939   2.603   7.769  0.1623 -0.1822  0.3076
    1W        W58729   0.935  22.013   9.593  0.1376 -0.3121 -0.0347
    1W        W58730  20.992   5.180   2.719 -0.0567  0.0869 -0.2700
    1W        W58731  11.540  18.767   2.307 -0.0629 -0.1229 -0.0910
    1W        W58732  26.421   5.432   7.705 -0.1327  0.2815 -0.2490
    1W        W58733  12.741  21.443   1.866 -0.0718  0.2037  0.0574
    1W        W58734  25.726   0.957   0.407 -0.1489 -0.0411  0.1181
    1W        W58735  29.058   9.837   7.275  0.1345  0.1428 -0.1276
    1W        W58736  17.251   1.169   9.118  0.2548 -0.2241  0.2769
    1W        W58737   0.598   6.191   7.652 -0.0665  0.0233  0.2172
    1W        W58738  13.858  23.293   0.838  0.2326 -0.6310 -0.1319
    1W        W58739  13.704   8.396   5.673 -0.1029 -0.2095 -0.0448
    1W        W58740   5.697  19.549   9.517 -0.1401  0.2815  0.1264
    1W        W58741  12.777  12.546   9.544 -0.2426  0.0308  0.0176
    1W        W58742  21.392  21.758   3.135 -0.1883 -0.1210  0.0741
    1W        W58743   0.453   0.354   5.995 -0.1326 -0.4371  0.0386
    1W        W58744   3.746  13.838   2.179  0.2002  0.1144  0.1330
    1W        W58745  13.833   7.788   2.161  0.1877  0.0227  0.1037
    1W        W58746  24.925  22.914   2.896 -0.4790 -0.1819 -0.0818
    1W        W58747  27.404   5.320   8.088 -0.0376  0.2529  0.0706
    1W        W58748   7.827   0.300   6.055 -0.0474 -0.1890  0.2639
    1W        W58749   1.809  18.473   2.691  0.1152 -0.2514  0.0015
    1W        W58750   1.899  27.246   9.538 -0.0099 -0.2183  0.2481
    1W        W58751  10.187   4.686   7.900 -0.0007  0.1608  0.1152
    1W        W58752  29.606  15.469   8.746  0.0321 -0.1938  0.2777
    1W        W58753  19.656  11.132   2.013  0.0636 -0.0412 -0.3018
    1W        W58754   1.806  28.941   6.053 -0.1302 -0.2357  0.0639
    1W        W58755  15.229  12.151   2.320 -0.1520 -0.0195  0.1118
    1W        W58756  11.432  24.854   7.196  0.1795 -0.1363  0.0217
    1W        W58757   2.497  21.645   2.015 -0.0872 -0.1046  0.1915
    1W        W58758  22.960  22.264   3.818  0.1838  0.1883 -0.0835
    1W        W58759  14.648  11.476   6.545 -0.2274 -0.0476 -0.0506
    1W        W58760  13.344  13.895   7.901  0.0107 -0.0120  0.1268
    1W        W58761  23.890  16.152   7.393  0.1251  0.0209  0.0225
    1W        W58762  10.120  10.899   5.851  0.2091 -0.2305 -0.1278
    1W        W58763  20.566  22.946   7.998 -0.1087 -0.1425  0.0337
    1W        W58764   5.201  22.822   7.801  0.1008 -0.2151  0.0880
    1W        W58765   6.261   8.310   8.155  0.1919  0.0003  0.0170
    1W        W58766  25.944  10.176   8.944 -0.0342  0.0476  0.2049
    1W        W58767   1.826  24.823   1.658  0.2896 -0.0806  0.1475
    1W        W58768  25.032  19.038   7.141 -0.1540 -0.0996  0.0169
    1W        W58769  26.891  19.664   3.155 -0.0476  0.1139 -0.1256
    1W        W58770  25.779  29.084   1.736  0.0116 -0.0096  0.1906
    1W        W58771  24.479   8.065   8.538 -0.2628 -0.0772 -0.1033
    1W        W58772   7.992  19.907   1.674 -0.2055 -0.0828  0.3290
    1W        W58773  26.771  26.791   0.879  0.0222  0.2675 -0.3046
    1W        W58774   5.597  19.687   1.352  0.0388 -0.1849 -0.0051
    1W        W58775  22.879  21.318   7.755 -0.0950  0.0132 -0.3210
    1W        W58776  27.100   1.518   7.547  0.3525  0.3383 -0.3279
    1W        W58777   5.477  12.072   8.561  0.1589  0.2053 -0.0146
    1W        W58778  29.432  21.742   9.089  0.3788  0.3664 -0.0825
    1W        W58779  19.884   9.766   7.953 -0.0625 -0.3465  0.3325
    1W        W58780  14.732  29.438   2.010 -0.2794  0.0529 -0.0115
    1W        W58781  13.241   3.453   1.954 -0.2032  0.0727 -0.2318
    1W        W58782  10.900  21.598   0.136  0.1898  0.0481 -0.2721
    1W        W58783   6.255  22.390   7.943  0.2984  0.2547 -0.0994
    1W        W58784   4.354   4.885   7.029 -0.3962  0.0521 -0.0326
    1W        W58785  26.735   5.854   8.657  0.1034 -0.1737 -0.3124
    1W        W58786   9.773  10.232   0.214 -0.0548  0.0187 -0.1505
    1W        W58787  20.233   7.662   7.738 -0.2980  0.1888  0.0071
    1W        W58788  14.056  21.099   0.190  0.0950 -0.1376  0.3586
    1W        W58789  23.339  21.246   7.837  0.1268 -0.2412  0.2949
    1W        W58790  12.373   4.159   2.002  0.2360 -0.0348  0.1815
    1W        W58791  14.723   6.938   2.447 -0.3669  0.2970  0.1265
    1W        W58792  27.631  22.881   2.579  0.2528 -0.0385 -0.0637
    1W        W58793  13.565  16.037   9.221 -0.0135  0.1237  0.2627
    1W        W58794   2.993  21.547   1.801 -0.1093 -0.0748 -0.0699
    1W        W58795  10.156   1.591   7.050  0.0682 -0.0049  0.1059
    1W        W58796  19.385  28.277   1.791  0.0320 -0.1841  0.1143
    1W        W58797  24.224  13.351   0.540  0.1207  0.1781  0.0045
    1W        W58798  10.987   4.867   1.689  0.0170 -0.2979  0.1028
    1W        W58799  19.496  28.652   3.760  0.0806 -0.1280 -0.1295
    1W        W58800  26.976   9.826   9.231  0.1167  0.4565 -0.1350
    1W        W58801  21.863   0.514   9.398  0.2298  0.0657  0.0087
    1W        W58802  10.651  14.465   0.274  0.0107  0.3220 -0.1756
    1W        W58803  27.853   9.558   1.897  0.2599 -0.1663  0.1847
    1W        W58804   9.524   3.353   8.132  0.2406 -0.0298 -0.1671
    1W        W58805   4.951  20.033   7.284  0.3904 -0.2388  0.0014
    1W        W58806  15.599  27.576   7.268 -0.1093  0.2109  0.2446
    1W        W58807  11.659  25.043   1.663 -0.1328  0.5089  0.1100
    1W        W58808  17.460  25.302   1.416 -0.2242 -0.2481  0.4782
    1W        W58809  17.538   4.008   2.779 -0.0008 -0.2710  0.1908
    1W        W58810  16.160   9.908   8.462  0.2009 -0.0829  0.0302
    1W        W58811   5.429  21.591   7.091  0.0281 -0.0778  0.3864
    1W        W58812   3.592  15.464   9.195  0.0560 -0.1043  0.0540
    1W        W58813  15.891  20.874   2.816  0.2251  0.2323 -0.2305
    1W        W58814   2.257   8.237   7.511 -0.0759  0.2370  0.1257
    1W        W58815  23.929  10.116   2.495  0.1472 -0.3157  0.0572
    1W        W58816  29.183  29.306   6.924 -0.0704 -0.1449  0.0069
    1W        W58817  26.859  24.232   7.421 -0.1576  0.2358 -0.0325
    1W        W58818   3.902   7.232   0.504 -0.1067 -0.1861  0.0313
    1W        W58819  29.114   4.437   7.464 -0.0286 -0.1871 -0.2843
    1W        W58820   6.254   3.545   7.372  0.2900  0.0013 -0.1258
    1W        W58821  10.204  17.248   6.913  0.0327 -0.1735 -0.0399
    1W        W58822   1.293  10.209   6.650  0.1198  0.1276  0.0253
    1W        W58823  15.227   4.268   3.427  0.1443 -0.3083 -0.0377
    1W        W58824  27.502  17.270   2.137  0.0817 -0.1611  0.2689
    1W        W58825  21.582   1.278   8.254 -0.3786 -0.1374  0.0858
    1W        W58826   5.210   4.985   2.461 -0.1973  0.1962 -0.3629
    1W        W58827  18.445  10.640   8.524  0.1945  0.1329  0.1585
    1W        W58828   6.268  12.124   6.761 -0.1571 -0.1502  0.2226
    1W        W58829   6.408   2.920   6.144  0.1353  0.0321  0.0715
    1W        W58830  20.320   3.266   7.371  0.2691 -0.0824 -0.3003
    1W        W58831  15.012  17.759   7.697  0.0350 -0.0130 -0.0323
    1W        W58832   0.503  21.986   8.959  0.0755  0.0085 -0.2049
    1W        W58833   9.443  17.431   7.938  0.1007 -0.0381  0.0776
    1W        W58834  16.595   5.915   8.664  0.3419  0.1817 -0.1357
    1W        W58835  12.385  20.697   8.756  0.0147 -0.2112  0.4506
    1W        W58836   5.002  18.925   1.260 -0.2366  0.2987  0.2015
    1W        W58837   5.044  16.813   6.512  0.1104  0.0561  0.0497
    1W        W58838  20.274   9.566   8.081  0.0222  0.0192 -0.0594
    1W        W58839   5.977   4.124   6.814 -0.1343 -0.1144  0.3044
    1W        W58840  17.832   9.936   1.170  0.0491  0.0733  0.0452
    1W        W58841   1.490  16.525   8.108 -0.3291  0.1614  0.0999
    1W        W58842  14.058   5.368   0.441 -0.0759 -0.0636  0.3250
    1W        W58843  27.768  18.688   8.143  0.0711 -0.1599  0.0536
    1W        W58844  17.998  21.975   0.785  0.0465  0.1594 -0.0486
    1W        W58845  21.997  29.050   1.472  0.2655  0.0370  0.1434
    1W        W58846  22.846   0.733   7.932  0.2807  0.1797 -0.4970
    1W        W58847   4.567  20.367   8.528 -0.0067 -0.2664 -0.5390
    1W        W58848  22.737  19.382   7.718  0.3443  0.2879 -0.0391
    1W        W58849  20.820   1.302   0.686  0.2515 -0.2554  0.1045
    1W        W58850  15.547  17.567   7.722  0.3100 -0.1479  0.0975
    1W        W58851   7.601  20.901   2.990  0.1285  0.2393  0.1270
    1W        W58852   5.658  27.585   7.417  0.1954 -0.0990 -0.0305
    1W        W58853  22.857  23.018   3.218 -0.0558 -0.2849 -0.0307
    1W        W58854  25.331  25.171   0.790 -0.0577 -0.0268 -0.0270
    1W        W58855   9.050  15.933   0.905 -0.3162  0.0663 -0.0087
    1W        W58856  24.076  27.954   1.017 -0.1893  0.1404 -0.0576
    1W        W58857   2.674  14.715   0.780  0.0985  0.0390  0.2169
    1W        W58858  24.874   4.719   2.372  0.2104  0.2031 -0.0397
    1W        W58859   5.405  13.791   0.370  0.5775  0.1782 -0.0705
    1W        W58860  20.893  25.708   1.959 -0.0223 -0.0572 -0.1352
    1W        W58861  17.853  21.752   2.452 -0.0792  0.0094  0.1660
    1W        W58862   1.385  21.459   7.771 -0.1885  0.0815 -0.1029
    1W        W58863   5.242  28.473   2.891  0.0356  0.2795  0.1910
    1W        W58864  11.578  29.176   5.978  0.0687  0.0785  0.2924
    1W        W58865   9.613   9.043   7.337 -0.2383  0.0015 -0.1827
    1W        W58866  19.987  23.534   0.173 -0.1618 -0.0775  0.0770
    1W        W58867   3.282  25.748   7.556  0.0453 -0.3670  0.0748
    1W        W58868   6.343  19.543   1.647  0.1100 -0.0463  0.0903
    1W        W58869  14.618   7.633   9.308  0.0893  0.1447  0.1650
    1W        W58870   4.109   3.596   2.285  0.3312 -0.0653 -0.0787
    1W        W58871   6.844  22.977   8.606  0.1402  0.1843  0.0940
    1W        W58872   5.808   0.154   8.981 -0.2258 -0.1569 -0.1100
    1W        W58873   4.232  14.969   1.138 -0.0191 -0.0818  0.0519
    1W        W58874  10.688  28.776   2.215  0.2093 -0.0197 -0.3742
    1W        W58875  19.426  15.686   8.507 -0.0743 -0.3924 -0.0984
    1W        W58876  15.704  20.107   1.200  0.1778 -0.3078  0.0869
    1W        W58877  18.112   1.198   0.767 -0.0557  0.0523 -0.1066
    1W        W58878   0.897   4.061   0.143  0.2584 -0.2705 -0.1916
    1W        W58879  13.437  11.711   7.778 -0.1842 -0.1338 -0.0449
    1W        W58880  22.871   5.826   7.855  0.1977 -0.1795  0.1151
    1W        W58881  15.475  27.819   2.321  0.0790  0.1874 -0.1504
    1W        W58882  11.942   7.528   0.459 -0.0294 -0.0291 -0.1198
    1W        W58883  27.729  15.518   1.525 -0.0678 -0.1631  0.0043
    1W        W58884  15.838  17.875   7.522  0.1267 -0.1932 -0.0143
    1W        W58885  19.771  26.740   9.160 -0.0638 -0.1019  0.1279
    1W        W58886   4.884   6.132   1.042 -0.1283  0.3933  0.0561
    1W        W58887  24.371  24.068   0.089 -0.1250  0.2021 -0.2371
    1W        W58888   0.259  11.343   1.411  0.1005  0.1720 -0.0837
    1W        W58889  14.558  25.513   8.038 -0.0215 -0.2458  0.1163
    1W        W58890  14.423  21.579   8.629 -0.0660 -0.0043  0.1114
    1W        W58891   2.883   1.187   9.042  0.1317 -0.0115  0.0245
    1W        W58892   8.580  24.618   3.144  0.1612 -0.1976 -0.1209
    1W        W58893  16.436   0.513   7.330  0.2031 -0.0323  0.0052
    1W        W58894  11.087  11.983   8.531 -0.1176  0.1795 -0.1709
    1W        W58895   5.241   4.476   7.476 -0.1084 -0.1855  0.3197
    1W        W58896  16.024  26.692   7.174 -0.0738 -0.2016 -0.1743
    1W        W58897   3.443  28.003   2.089  0.0020  0.1062  0.2249
    1W        W58898  17.575  16.137   9.552 -0.2670 -0.0372  0.3701
    1W        W58899  16.891  19.074   1.713  0.1017 -0.1305  0.2666
    1W        W58900  20.794  10.325   0.409  0.0270 -0.1095 -0.2202
    1W        W58901  21.043  25.824   0.218  0.0782  0.2345 -0.1297
    1W        W58902  27.896  24.647   6.904  0.0351 -0.0493  0.2848
    1W        W58903  24.771  22.859   8.017  0.0154 -0.3192  0.1266
    1W        W58904   4.162  14.644   6.506 -0.1127  0.1113 -0.0536
    1W        W58905   9.083  19.116   3.077 -0.2696 -0.0574 -0.1361
    1W        W58906  18.498  27.728   0.894  0.0048  0.0235  0.0698
    1W        W58907   5.939  21.332   2.621 -0.2717  0.1339 -0.0621
    1W        W58908  27.433  21.665   1.158  0.0792  0.3290 -0.3319
    1W        W58909  12.958  12.682   8.666  0.1883 -0.1517 -0.1187
    1W        W58910   0.391   6.518   6.675 -0.1076  0.0450 -0.1814
    1W        W58911   0.697  20.032   8.442 -0.1068 -0.0570  0.1655
    1W        W58912  22.526  19.800   0.656 -0.1987 -0.0258  0.3924
    1W        W58913  24.641   2.123   1.975 -0.0467  0.0420 -0.1760
    1W        W58914   1.937  23.233   0.662  0.0399  0.1213 -0.0987
    1W        W58915   3.310   4.152   0.418  0.1425  0.0979 -0.1300
    1W        W58916  25.804  28.102   1.968 -0.1504  0.2901 -0.3382
    1W        W58917  29.446  10.101   7.092  0.4664  0.2594  0.0436
    1W        W58918   9.512  19.413   1.222  0.1540 -0.1634 -0.1032
    1W        W58919  18.583   3.309   7.469 -0.0540  0.0480 -0.0068
    1W        W58920  25.813   4.291   7.724  0.0929  0.1800 -0.0248
    1W        W58921   2.510   9.553   2.150  0.1620 -0.0702  0.1271
    1W        W58922   5.065  28.008   2.346  0.0227 -0.0196 -0.1069
    1W        W58923  10.053  13.270   8.211 -0.1518 -0.0624 -0.0004
    1W        W58924  10.268  26.902   1.851 -0.0628  0.0140 -0.1225
    1W        W58925  24.173  25.868   9.647  0.1868 -0.4562  0.0600
    1W        W58926  22.512  19.029   9.566 -0.1246 -0.2342 -0.0162
    1W        W58927   9.861  23.544   7.261  0.1293 -0.0939 -0.1373
    1W        W58928   6.271  16.050   2.181 -0.0298 -0.0744  0.0345
    1W        W58929  16.892   7.904   1.797 -0.0206 -0.1489  0.0388
    1W        W58930  18.855  18.087   0.237  0.0904  0.0543  0.0674
    1W        W58931  22.612  25.178   0.722  0.0273 -0.2925 -0.0543
    1W        W58932   6.846  22.928   0.552  0.2458 -0.0275  0.1004
    1W        W58933  16.552  12.247   8.230 -0.2092  0.1071 -0.2202
    1W        W58934   1.428  18.129   0.999 -0.2347 -0.2079 -0.1936
    1W        W58935  18.834   5.354   0.980 -0.2161 -0.1895 -0.0276
    1W        W58936   1.707  29.136   7.789 -0.0876  0.0343 -0.4656
    1W        W58937  28.923   8.693   7.710 -0.0745  0.2396  0.3309
    1W        W58938  24.178  11.639   1.680  0.0622  0.0389  0.2129
    1W        W58939  17.992  14.480   2.080  0.0985 -0.0210  0.2719
    1W        W58940   4.047   3.991   2.525  0.4488  0.4781  0.1062
    1W        W58941   7.437  17.137   9.126  0.1956 -0.1857  0.1633
    1W        W58942  15.549   9.644   0.412  0.0675 -0.0768  0.1441
    1W        W58943  19.146   5.045   0.274  0.0860  0.1989  0.1521
    1W        W58944  22.760  24.234   7.865  0.1460  0.2452 -0.1470
    1W        W58945   8.863   9.957   2.604  0.3216  0.0892  0.0899
    1W        W58946  25.452  23.218   0.350 -0.2651  0.0327 -0.2449
    1W        W58947  19.498   1.804   9.096  0.1694  0.0707 -0.0400
    1W        W58948   3.463   8.413   6.761 -0.4252  0.2325  0.0412
    1W        W58949  23.423   8.694   8.748 -0.0649  0.1272  0.3261
    1W        W58950  28.011  12.806   1.823 -0.0765  0.2453  0.3714
    1W        W58951   5.767  25.425   9.533 -0.0866  0.0164 -0.3184
    1W        W58952   3.329  22.631   7.327  0.1986 -0.2917 -0.2166
    1W        W58953   9.218   5.198   6.533 -0.3299  0.1480 -0.1518
    1W        W58954  16.544  21.308   0.309  0.2872  0.0349 -0.1704
    1W        W58955  24.143   1.296   7.595 -0.1523  0.0029 -0.1759
    1W        W58956  23.190   0.352   2.359  0.0091  0.0434 -0.0769
    1W        W58957   3.630   9.667   5.936  0.1096  0.0822 -0.0721
    1W        W58958  16.186  28.246   9.337  0.1935  0.0289  0.0697
    1W        W58959  27.075  14.794   7.840 -0.0237  0.0220  0.1512
    1W        W58960  16.782  24.612   8.369 -0.0876  0.1645 -0.2709
    1W        W58961  26.845  17.290   8.815 -0.1488  0.0365 -0.1761
    1W        W58962  13.828  20.500   6.817 -0.0444  0.2466 -0.2400
    1W        W58963  21.563  19.528   2.343 -0.2213 -0.2685 -0.2350
    1W        W58964  27.841   8.117   8.244  0.0498 -0.1421 -0.1068
    1W        W58965  14.713  11.647   7.075  0.0575 -0.0537  0.2623
    1W        W58966  24.577  19.020   3.001  0.1304 -0.1449 -0.0900
    1W        W58967   5.143   0.353   8.253 -0.1232 -0.1721  0.1369
    1W        W58968  18.018  10.837   8.660  0.2747  0.0245  0.0389
    1W        W58969  28.259   5.687   8.402 -0.0607  0.0989 -0.0232
    1W        W58970   8.672  28.266   9.125  0.2407 -0.1006  0.0185
    1W        W58971  12.168   1.155   0.424  0.2011 -0.0219  0.3003
    1W        W58972   5.750   6.781   9.099  0.0433 -0.2009  0.0010
    1W        W58973  21.515   5.351   0.458 -0.1475 -0.0549  0.0561
    1W        W58974  24.178   5.827   1.796  0.2441 -0.3193 -0.0189
    1W        W58975  13.140  14.754   8.132 -0.0219 -0.2475 -0.0014
    1W        W58976   1.730  16.093   1.401  0.0485  0.2515  0.1402
    1W        W58977  16.627  23.742   2.830 -0.0208  0.1178  0.0275
    1W        W58978  17.598  20.596   8.531 -0.0601 -0.1561  0.1576
    1W        W58979  20.836  26.591   9.086 -0.1015  0.0785 -0.0567
    1W        W58980   0.201  20.036   9.363 -0.0750 -0.4673  0.0527
    1W        W58981  15.953  11.485   8.407  0.1650 -0.1765 -0.0969
    1W        W58982   5.356  15.860   8.741  0.1545 -0.1197  0.1055
    1W        W58983  22.064  23.770   8.208  0.0307 -0.1237 -0.0412
    1W        W58984  28.751  29.469   8.255 -0.0411 -0.1114  0.0745
    1W        W58985  11.266  12.165   7.416  0.1831  0.2094 -0.1067
    1W        W58986   1.653  19.162   7.633 -0.0007 -0.1245 -0.0637
    1W        W58987  29.615  20.962   8.951 -0.0705  0.3066  0.0814
    1W        W58988  23.786  23.881   2.372  0.0895  0.0253 -0.1393
    1W        W58989   7.634  20.199   7.416  0.0923  0.2146 -0.0307
    1W        W58990  27.017  25.179   7.961 -0.0737  0.1216  0.1837
    1W        W58991  18.357   9.232   0.657  0.0522  0.1562 -0.2938
    1W        W58992   1.087  20.271   2.647  0.1663 -0.1627  0.2413
    1W        W58993   1.354  18.471   2.508 -0.2518  0.0727 -0.1681
    1W        W58994  12.686  11.522   1.739  0.0855 -0.2764 -0.1998
    1W        W58995  20.473   0.459   2.484  0.1562 -0.3612 -0.0020
    1W        W58996   8.210   9.065   6.193 -0.1746  0.3285  0.0079
    1W        W58997   3.637  20.263   2.511 -0.1800 -0.4367  0.1157
    1W        W58998  25.682  25.557   0.751  0.1225  0.1778 -0.1340
    1W        W58999  12.072  13.524   8.299 -0.0394 -0.0675 -0.1284
    1W        W59000  25.208  26.164   1.103  0.0927 -0.2339 -0.2468
    1W        W59001  10.792   5.757   7.025  0.1895 -0.0576  0.3468
    1W        W59002  21.534   5.860   2.075 -0.3631 -0.3424  0.1307
    1W        W59003  11.742   6.877   1.986 -0.0161  0.0506 -0.2647
    1W        W59004  18.025  22.444   2.206  0.0594 -0.3420 -0.3377
    1W        W59005   5.861   0.102   8.459  0.0772  0.1849  0.0331
    1W        W59006  12.211  27.238   1.310 -0.1808 -0.2028 -0.1888
    1W        W59007  16.186   5.680   0.007 -0.2473  0.2035 -0.0066
    1W        W59008  26.600  19.741   0.674 -0.0339 -0.0300 -0.1578
    1W        W59009  17.944   1.650   1.753  0.1004 -0.2779 -0.0112
    1W        W59010  14.515   2.757   1.425  0.0563  0.0740  0.0563
    1W        W59011   6.664  17.418   1.889 -0.0973  0.0102  0.0172
    1W        W59012   1.528  15.022   9.369  0.0179 -0.0791  0.3329
    1W        W59013   3.568  12.001   7.980  0.0148 -0.0525 -0.2491
    1W        W59014   8.537  18.670   7.265  0.0602 -0.0948 -0.0646
    1W        W59015   0.986  16.790   0.306  0.1047  0.4141 -0.3018
    1W        W59016  28.764  27.414   0.884 -0.1034  0.0418 -0.1984
    1W        W59017  14.299   8.704   7.997  0.1235  0.2031 -0.0216
    1W        W59018  21.802  23.930   2.670 -0.2903  0.0898 -0.3864
    1W        W59019  12.066  23.167   0.725 -0.0089 -0.0656  0.1533
    1W        W59020  22.212  19.536   1.551 -0.0813 -0.0586  0.0342
    1W        W59021  26.737  13.702   8.312 -0.0738  0.1077  0.1564
    1W        W59022  18.433   0.662   2.651 -0.2184 -0.4050 -0.2440
    1W        W59023   9.681   7.893   8.158 -0.0593 -0.1862 -0.2182
    1W        W59024   1.679  29.168   9.123  0.0784  0.1388 -0.0756
    1W        W59025   5.952  29.080   0.580  0.2221  0.0279 -0.0842
    1W        W59026  20.816  17.394   8.959 -0.0946  0.1922  0.2698
    1W        W59027  25.879   6.134   6.978 -0.0003  0.0444  0.0360
    1W        W59028  23.281   0.817   8.699  0.1706 -0.1517 -0.1049
    1W        W59029  19.479  18.248   0.497 -0.0979  0.2154 -0.1068
    1W        W59030   9.096  28.197   1.930 -0.1306  0.2322 -0.0910
    1W        W59031   6.231  19.414   7.717 -0.3871  0.3160  0.5589
    1W        W59032  25.184  26.219   0.538 -0.1532  0.0592  0.1063
    1W        W59033  24.871  28.847   7.008  0.0576 -0.2426 -0.1050
    1W        W59034  17.060  19.408   8.265 -0.1561  0.3055 -0.3496
    1W        W59035   4.391   0.965   2.375  0.1539  0.2809 -0.0458
    1W        W59036  18.393  17.094   2.380 -0.0303  0.0449  0.0366
    1W        W59037  11.348   9.769   0.781  0.1580  0.1729  0.0419
    1W        W59038   7.320  15.783   7.718 -0.3136 -0.0602 -0.4968
    1W        W59039  12.491   8.747   0.263 -0.1635 -0.0409  0.1797
    1W        W59040   3.852  21.901   8.540  0.0772  0.1216  0.3251
    1W        W59041  18.031  23.368   1.396 -0.1139  0.0664  0.2983
    1W        W59042  24.264   8.839   7.289  0.2183 -0.0486  0.0715
    1W        W59043   1.699   2.245   7.328 -0.1896  0.3448  0.1072
    1W        W59044  24.218  16.958   7.155  0.0114  0.0094  0.2745
    1W        W59045  25.425   5.962   1.742  0.0697  0.1432 -0.2597
    1W        W59046   8.452  10.890   7.886  0.0608 -0.1493  0.2229
    1W        W59047  19.210  20.951   3.617  0.4547 -0.1045 -0.0052
    1W        W59048  13.370  27.861   6.598 -0.0198 -0.2379 -0.0679
    1W        W59049  17.817  23.126   3.047 -0.0799 -0.3821 -0.0274
    1W        W59050  14.977   1.009   8.961 -0.1308  0.0413 -0.1195
    1W        W59051   2.072  12.419   1.097  0.1745  0.2341  0.1695
    1W        W59052   3.020  27.878   8.249  0.0914  0.2639  0.0058
    1W        W59053  26.422   0.021   8.864  0.0404 -0.2797 -0.0977
    1W        W59054  17.441  18.417   8.153 -0.2508 -0.0760 -0.1933
    1W        W59055  22.033   1.509   7.221 -0.3546 -0.1378  0.1453
    1W        W59056   9.905   7.744   0.289  0.1546 -0.1166 -0.1136
    1W        W59057  11.817   5.269   2.115 -0.1281  0.0097  0.2512
    1W        W59058  17.020   0.425   8.064  0.0979  0.0492 -0.1455
    1W        W59059   9.643  22.594   8.862 -0.4163 -0.0510  0.2866
    1W        W59060  20.884   3.746   1.088 -0.0396 -0.0202 -0.0379
    1W        W59061   4.441   8.392   2.474 -0.1061  0.0424  0.0236
    1W        W59062  16.237  15.441   8.494  0.1273 -0.0955 -0.0979
    1W        W59063  21.524  23.121   4.178  0.0213  0.0041 -0.1165
    1W        W59064  23.053   7.405   1.605 -0.0866 -0.1297 -0.0358
    1W        W59065   0.111  20.911   9.513  0.1030  0.1579  0.1057
    1W        W59066   7.497  23.473   7.683  0.0889 -0.2569  0.2555
    1W        W59067  18.854   2.053   2.414 -0.0304  0.0723  0.0993
    1W        W59068   8.896   8.480   7.566 -0.1827 -0.1875  0.0405
    1W        W59069   6.825   7.177   6.845 -0.1949 -0.1552  0.2088
    1W        W59070  28.486   6.414   9.085  0.1720  0.0974 -0.0405
    1W        W59071  10.691   7.252   0.499  0.0586  0.1083 -0.1573
    1W        W59072   6.221  25.815   6.639 -0.0942 -0.2244 -0.2574
    1W        W59073  27.905   5.731   7.932 -0.1150  0.1440 -0.0472
    1W        W59074  20.277  11.882   9.378  0.2514  0.3093 -0.0362
    1W        W59075  28.453   4.786   8.020 -0.1608 -0.2481  0.1489
    1W        W59076   1.819  25.377   1.539 -0.0246 -0.3714  0.2568
    1W        W59077   0.981  16.574   7.999 -0.0805  0.0811  0.2720
    1W        W59078  28.004  15.369   1.948  0.1556  0.1575 -0.1902
    1W        W59079   3.881   8.680   6.857 -0.1255 -0.2779 -0.1850
    1W        W59080  10.513  24.104   8.999  0.0553 -0.2705  0.0541
    1W        W59081  14.406   9.339   6.977  0.2699  0.2718 -0.0770
    1W        W59082   9.451  14.472   1.164  0.0189 -0.0025 -0.2460
    1W        W59083  22.887  21.087   9.361  0.1175  0.0503 -0.3304
    1W        W59084  23.610   5.898   2.667  0.1178 -0.1385 -0.2735
    1W        W59085  10.117   3.048   5.945 -0.2915 -0.1072  0.1506
    1W        W59086   4.655   6.665   8.237 -0.1832 -0.2296 -0.1555
    1W        W59087  28.705   0.852   1.569 -0.0348  0.0541 -0.1362
    1W        W59088  28.169   8.082   0.331 -0.2157  0.0061 -0.0792
    1W        W59089   8.501  11.353   7.968  0.0558 -0.0171 -0.2402
    1W        W59090  22.617   3.708   7.882  0.1521  0.2836 -0.0085
    1W        W59091   3.351   0.014   2.552  0.4556  0.1847  0.3119
    1W        W59092   2.760  15.192   2.107 -0.3444 -0.1930  0.3906
    1W        W59093  20.850  20.401   2.968 -0.0168  0.2202  0.0053
    1W        W59094   9.828  21.707   9.002  0.0076  0.0228  0.1014
    1W        W59095   8.681   8.992   1.476  0.1691  0.1284 -0.1680
    1W        W59096   3.217  11.919   8.391  0.1262 -0.1115 -0.1349
    1W        W59097  17.427  26.767   7.854  0.0113  0.1278  0.1291
    1W        W59098  12.271  25.382   9.147 -0.0490  0.3242 -0.0393
    1W        W59099  12.787  22.649   0.130  0.2250  0.0921  0.2097
    1W        W59100  15.412   5.240   7.183 -0.0552 -0.1346 -0.0264
    1W        W59101  11.167  14.916   6.634  0.2512 -0.3136  0.2494
    1W        W59102  14.915   6.412   1.770 -0.0232 -0.1255  0.1938
    1W        W59103   9.033   3.734   9.266 -0.0495  0.0903  0.0130
    1W        W59104   9.336  22.319   7.821  0.3224 -0.4810 -0.1919
    1W        W59105  20.073  13.074   9.546 -0.0840  0.1803 -0.0221
    1W        W59106  25.910  14.770   7.967 -0.1912  0.3536 -0.5481
    1W        W59107  15.694  26.893   8.967  0.0821  0.0213  0.5373
    1W        W59108  24.923  18.348   1.947 -0.2785  0.1051  0.1034
    1W        W59109   6.867   4.245   8.266  0.1394 -0.0646 -0.0588
    1W        W59110  20.485  22.493   7.749  0.0266  0.0312 -0.2656
    1W        W59111  24.074  23.232   9.300 -0.3834 -0.2642  0.0921
    1W        W59112  21.636  20.390   8.609 -0.0052  0.1924 -0.2096
    1W        W59113  15.028  14.585   7.611 -0.0791  0.2554  0.3016
    1W        W59114   6.229  23.932   0.761  0.0860  0.0857  0.0324
    1W        W59115  13.761   5.632   2.206 -0.0100 -0.1642 -0.0359
    1W        W59116  16.450  11.436   0.492  0.1635 -0.0154 -0.1415
    1W        W59117  17.091  25.816   2.124  0.3152  0.1155 -0.0482
    1W        W59118  19.311   2.040   9.552 -0.2056 -0.0055 -0.0443
    1W        W59119  20.184  29.214   1.615  0.2629 -0.3310 -0.3400
    1W        W59120   5.477  27.898   6.607 -0.0855 -0.2632 -0.0532
    1W        W59121  14.421  12.617   0.838 -0.1649 -0.3444  0.1568
    1W        W59122  22.835   1.744   7.845  0.2763  0.1678 -0.3192
    1W        W59123  19.325  21.249   3.224  0.2806  0.0095 -0.0478
    1W        W59124   3.874   9.351   7.614  0.1742 -0.1295  0.2268
    1W        W59125  14.183   8.845   8.543 -0.1492 -0.2384  0.0789
    1W        W59126  21.092   4.391   7.478  0.1183  0.2524 -0.1547
    1W        W59127   0.130  21.776   8.096  0.1864  0.0656 -0.2283
    1W        W59128  17.024  24.625   7.940 -0.0728 -0.0308  0.0248
    1W        W59129   7.684   9.968   8.907 -0.1146  0.1536  0.1571
    1W        W59130   4.545  11.093   9.276 -0.4039 -0.1227  0.1394
    1W        W59131   4.938  11.882   0.699  0.1339 -0.0941  0.0129
    1W        W59132   6.797   1.368   7.324 -0.0487  0.0024 -0.4459
    1W        W59133  24.202   1.270   8.444  0.4386 -0.1001 -0.0881
    1W        W59134  21.634  24.010   4.125  0.0366  0.1124  0.2932
    1W        W59135  15.069   2.414   2.168 -0.2562  0.0760  0.0267
    1W        W59136  19.025  13.620   8.523 -0.0872  0.1784  0.0224
    1W        W59137  25.415  23.230   9.481 -0.3504  0.3378  0.0776
    1W        W59138  25.039  10.360   9.096  0.1064  0.2242  0.2353
    1W        W59139  29.396  15.184   8.384  0.0516  0.3259  0.1135
    1W        W59140  29.259   0.502   9.296 -0.2090 -0.2815 -0.1747
    1W        W59141  19.607  11.362   2.468 -0.0264  0.1298  0.1257
    1W        W59142  25.327  10.949   1.685 -0.0642 -0.0956  0.1216
    1W        W59143  20.237  10.208   1.883 -0.3208  0.0242 -0.0785
    1W        W59144   6.018  26.821   1.503 -0.0844 -0.1187  0.0503
    1W        W59145  14.820  12.479   2.431 -0.1110 -0.0949 -0.0033
    1W        W59146  24.541  21.667   0.444  0.0164  0.0148 -0.0610
    1W        W59147  20.022   1.722   7.204  0.0446 -0.2836  0.4361
    1W        W59148   0.198  26.326   8.830  0.1384  0.4254  0.3071
    1W        W59149  16.662  11.445   7.638 -0.0850 -0.0897 -0.0123
    1W        W59150   3.531   9.579   9.461  0.2357  0.1896  0.1971
    1W        W59151  24.998   6.585   9.267  0.0420  0.0873 -0.1736
    1W        W59152  23.228  15.712   1.037  0.1128  0.0225 -0.1804
    1W        W59153  10.331  28.868   8.749  0.1654  0.0352  0.0977
    1W        W59154  18.196  19.542   0.874 -0.0823 -0.2155 -0.1691
    1W        W59155   5.495  22.247   8.485  0.0165  0.3387  0.1716
    1W        W59156  23.321  13.378   7.553  0.0034  0.0373 -0.0894
    1W        W59157   5.311  11.752   0.430 -0.1653  0.0310  0.2370
    1W        W59158  22.806  20.972   7.425 -0.0426 -0.6330 -0.3597
    1W        W59159  10.844  29.214   0.748 -0.1503  0.0150 -0.2555
    1W        W59160  24.282   0.393   8.910  0.0875 -0.0457 -0.1397
    1W        W59161  28.174  19.002   1.085 -0.0027 -0.3233 -0.1435
    1W        W59162   1.006  24.793   8.597  0.0364  0.1491  0.0765
    1W        W59163  24.366  26.680   9.480 -0.2389 -0.0676 -0.0454
    1W        W59164   1.835  25.052   7.550  0.1360 -0.1326 -0.1191
    1W        W59165  12.802   5.924   6.058 -0.2076 -0.1967 -0.0490
    1W        W59166  18.002   8.022   2.503 -0.0440 -0.1473 -0.1592
    1W        W59167   9.479  18.528   2.534  0.1942  0.2338 -0.4117
    1W        W59168  29.356  16.721   0.681 -0.2382 -0.0301  0.0120
    1W        W59169  19.892  25.217   0.419 -0.5388 -0.0900 -0.0138
    1W        W59170   8.418  18.022   0.937 -0.2758  0.0730  0.0866
    1W        W59171  14.525  24.021   2.071 -0.0911  0.0666  0.2704
    1W        W59172   7.892   9.083   1.159  0.0314 -0.0824  0.1141
    1W        W59173  16.492  18.789   0.216  0.0051  0.2115  0.0954
    1W        W59174  19.708  16.872   0.937 -0.1076 -0.0370 -0.2035
    1W        W59175  25.605  16.518   7.987  0.1695 -0.0544 -0.0152
    1W        W59176   0.374  18.350   2.187  0.3715  0.1253 -0.0520
    1W        W59177  12.341   9.811   8.998  0.2538 -0.1059 -0.1646
    1W        W59178   0.404   4.115   0.136  0.0636  0.1938 -0.0109
    1W        W59179   5.636  13.041   7.908 -0.2461  0.0040 -0.3369
    1W        W59180   3.173  14.809   1.929 -0.0875 -0.3780 -0.1939
    1W        W59181   7.377  15.092   8.342 -0.0656 -0.0439 -0.1563
    1W        W59182   9.869  26.462   0.499 -0.1098 -0.0832 -0.1600
    1W        W59183  15.102  15.903   8.344  0.2397 -0.2157 -0.1574
    1W        W59184   4.833  13.049   6.711 -0.1969  0.4251  0.3474
    1W        W59185   0.228  17.966   2.973 -0.2252 -0.4234 -0.0370
    1W        W59186   9.007  20.517   3.344 -0.0976 -0.4246 -0.0177
    1W        W59187  21.439   3.931   7.226  0.2894  0.3380  0.2551
    1W        W59188  21.191   6.114   2.259 -0.1721 -0.2704  0.0779
    1W        W59189  11.008   4.655   7.352  0.0757 -0.1660 -0.1345
    1W        W59190  19.880  26.232   9.121  0.1579  0.1563 -0.0715
    1W        W59191   3.885  27.742   2.661  0.1480 -0.1883 -0.1512
    1W        W59192   3.541  16.328   8.027 -0.0872 -0.3491 -0.1802
    1W        W59193  27.210  18.666   0.432  0.4194  0.1010 -0.1936
    1W        W59194   8.437   4.143   8.317  0.2268 -0.1228 -0.0492
    1W        W59195  10.309  25.508   7.886  0.0627 -0.2183 -0.1077
    1W        W59196   5.157   6.746   7.601 -0.2301 -0.1922  0.5077
    1W        W59197   2.317   5.937   7.155 -0.0407 -0.0460  0.3873
    1W        W59198  23.188  15.243   8.832 -0.0144 -0.0882 -0.0030
    1W        W59199  10.189   7.332   7.779 -0.0274  0.1921 -0.0756
    1W        W59200  23.834  25.468   1.650  0.0238  0.0757 -0.1175
    1W        W59201  25.702  13.301   9.104 -0.0487  0.2606  0.0039
    1W        W59202   0.182   3.686   9.526  0.0989  0.0603 -0.2000
    1W        W59203   5.696  23.243   1.563 -0.2236 -0.0427 -0.0249
    1W        W59204  21.668  17.021   1.569  0.0680  0.0629  0.0050
    1W        W59205  15.106  16.439   9.197 -0.3511 -0.3107 -0.1310
    1W        W59206  25.287  15.055   0.135 -0.0712 -0.2789  0.1762
    1W        W59207  19.920   4.715   1.691  0.4610  0.2156 -0.0598
    1W        W59208   6.364   3.949   7.025  0.1512  0.2510 -0.0561
    1W        W59209   1.388  27.516   3.241  0.2125  0.1757 -0.0817
    1W        W59210  16.607  25.287   2.692  0.0231 -0.2477 -0.1600
    1W        W59211   1.614  28.310   7.845 -0.0156  0.0054  0.1422
    1W        W59212  17.353   0.596   2.416 -0.1133 -0.3473  0.0076
    1W        W59213  17.861   6.381   2.325 -0.2298 -0.2825  0.2908
    1W        W59214   1.282  21.145   1.655  0.2977 -0.0953  0.2058
    1W        W59215  15.501  21.548   6.306  0.1075  0.2593  0.2218
    1W        W59216   8.550  20.133   8.795  0.2123 -0.0579 -0.4992
    1W        W59217  25.471  15.046   7.936  0.0059  0.0546  0.3284
    1W        W59218  19.159   0.048   3.545  0.3232 -0.5003  0.2567
    1W        W59219  20.088  28.684   3.959  0.0278 -0.0445 -0.1642
    1W        W59220  26.021   6.251   0.555 -0.1192  0.1533  0.2480
    1W        W59221   7.153  28.406   7.061 -0.0628 -0.1031 -0.1133
    1W        W59222   8.881   8.619   1.843 -0.1252  0.3790  0.3814
    1W        W59223  22.801   4.869   8.879  0.3004  0.0987 -0.0318
    1W        W59224  25.824  13.235   0.562  0.1613 -0.3440 -0.3759
    1W        W59225  12.175  27.641   1.014  0.2138 -0.0818 -0.0447
    1W        W59226  10.289  26.430   1.424 -0.1391 -0.0894 -0.1743
    1W        W59227  22.999  27.275   3.232 -0.0102 -0.0447  0.3444
    1W        W59228   0.225  21.733   3.486 -0.0017 -0.5519  0.1209
    1W        W59229   4.661  16.565   9.000  0.1385  0.0067 -0.1140
    1W        W59230  20.284   8.810   9.233 -0.0556  0.2080 -0.0650
    1W        W59231  11.014   5.259   0.505 -0.2461  0.0383  0.1231
    1W        W59232   9.160   1.055   2.177  0.0366 -0.0576  0.0998
    1W        W59233  25.226   8.496   0.421  0.1473  0.1177  0.3001
    1W        W59234  14.888  16.436   6.436  0.1845 -0.0132  0.2806
    1W        W59235   0.409  17.066   2.630 -0.0900 -0.0549  0.3070
    1W        W59236  16.771  24.939   0.612  0.1694  0.2527 -0.0886
    1W        W59237  11.203  28.106   0.944  0.3271 -0.1460  0.1242
    1W        W59238   2.479   8.253   8.510  0.0109 -0.0090 -0.2634
    1W        W59239   6.609  10.869   0.927  0.1264 -0.0939 -0.1174
    1W        W59240  24.227  21.780   7.602 -0.0358 -0.0861 -0.2727
    1W        W59241  27.838  19.004   1.894 -0.0011  0.1444 -0.3270
    1W        W59242  21.430  12.835   2.344  0.0911 -0.2843 -0.2606
    1W        W59243   9.531  21.975   8.695  0.0535 -0.1806  0.1431
    1W        W59244   4.301  18.722   9.246  0.0524  0.4560  0.2192
    1W        W59245  13.228   1.973   2.427  0.0154 -0.0179 -0.0877
    1W        W59246   5.264  10.779   6.473 -0.1216  0.1318 -0.1951
    1W        W59247  20.781  19.081   0.030 -0.0555 -0.0427 -0.2517
    1W        W59248  19.356   3.964   7.938 -0.1694  0.3206 -0.0129
    1W        W59249  20.441  21.886   8.865  0.1261  0.0190 -0.2143
    1W        W59250  15.914   7.271   7.666 -0.1472 -0.1624  0.1493
    1W        W59251   9.796   6.673   1.656 -0.0502 -0.1219 -0.0054
    1W        W59252  22.297   3.954   2.782 -0.2538 -0.0612 -0.0600
    1W        W59253  25.775   3.697   0.344 -0.3600 -0.3482 -0.0531
    1W        W59254   6.490  17.208   7.710  0.0268 -0.2190  0.2141
    1W        W59255  24.182  20.233   0.511 -0.2178  0.2318  0.0293
    1W        W59256   9.339   0.055   6.500  0.0790 -0.0050  0.0441
    1W        W59257   4.510  16.148   0.095 -0.0910  0.2144 -0.1736
    1W        W59258   8.542  29.238   9.014 -0.2840  0.2108 -0.3404
    1W        W59259   4.625   3.744   6.096 -0.1624  0.3486  0.2399
    1W        W59260  17.604  28.645   7.102 -0.2314  0.5142 -0.0617
    1W        W59261  24.232  29.568   7.247 -0.1368 -0.0149  0.0200
    1W        W59262  18.066  14.878   8.357  0.0029 -0.1051  0.1149
    1W        W59263   1.164  12.467   1.896 -0.0607 -0.1736  0.0271
    1W        W59264  10.028   6.933   0.912  0.0710 -0.0298 -0.1776
    1W        W59265  15.093  20.392   7.276  0.1776  0.0775 -0.4812
    1W        W59266   2.483   6.015   7.857 -0.0635  0.1972 -0.1480
    1W        W59267  25.454  29.117   9.229  0.0755 -0.0735  0.2158
    1W        W59268  19.534  26.208   1.879 -0.2923  0.2493 -0.3676
    1W        W59269  10.210   6.854   7.558 -0.0432 -0.1863 -0.0106
    1W        W59270   9.089  14.360   9.124  0.1247  0.0126 -0.2478
    1W        W59271   3.478  13.927   8.888 -0.1677  0.0544  0.1543
    1W        W59272   1.469  15.463   0.060  0.1214 -0.0345 -0.0918
    1W        W59273  22.401   9.396   8.544 -0.1519  0.2900 -0.0158
    1W        W59274   7.386   0.426   1.171 -0.4214 -0.1435  0.0694
    1W        W59275  12.936  12.347   7.173  0.1037 -0.0378 -0.2958
    1W        W59276   9.321   8.259   0.833  0.0273  0.2886 -0.1376
    1W        W59277  18.093  13.912   0.364 -0.2707  0.1030 -0.1272
    1W        W59278  17.712  21.080   2.285 -0.1156 -0.1435 -0.0178
    1W        W59279  17.168  10.812   7.881 -0.1735 -0.2042 -0.0103
    1W        W59280   8.308  21.919   7.831  0.0154 -0.1432  0.1545
    1W        W59281  13.628  23.698   2.031 -0.1796 -0.3164 -0.6696
    1W        W59282  14.043   4.046   1.941  0.0522 -0.0149  0.1969
    1W        W59283  11.904  13.493   1.441  0.0086  0.2142  0.0538
    1W        W59284  15.835  26.963   2.098  0.4830  0.1309  0.1519
    1W        W59285   2.700  27.157   8.495  0.0492  0.1016 -0.0595
    1W        W59286  21.324  21.215   0.665  0.2188  0.1756  0.0920
    1W        W59287  18.165   0.719   0.819  0.0714 -0.0899  0.1167
    1W        W59288  16.761  22.978   0.821 -0.0713  0.1124  0.0004
    1W        W59289   1.443  11.538   8.401 -0.1571 -0.0363  0.0447
    1W        W59290   5.426   8.833   6.608  0.1022  0.2659 -0.1844
    1W        W59291  18.605  18.784   9.040  0.0238  0.2704  0.1154
    1W        W59292  12.867  26.827   1.824  0.0989  0.0119  0.1359
    1W        W59293   0.427  16.752   2.043  0.2555 -0.1655 -0.2668
    1W        W59294  25.573  24.164   0.741  0.0327  0.0273  0.3266
    1W        W59295   4.922   1.953   6.656 -0.6103 -0.0519  0.3174
    1W        W59296  28.752  17.713   1.392 -0.3208 -0.0366  0.2852
    1W        W59297  20.150   0.898   8.757  0.0873  0.1029 -0.0579
    1W        W59298   7.145   7.895   7.424 -0.0809  0.2047  0.0305
    1W        W59299  20.948  28.477   7.226 -0.0344 -0.1611  0.0071
    1W        W59300  20.389  13.745   2.787 -0.2958  0.0558  0.1719
    1W        W59301   8.071   4.686   1.412  0.2225 -0.4871  0.0396
    1W        W59302  24.036   3.062   9.374 -0.2025  0.0867 -0.1980
    1W        W59303  29.091   9.432   1.228 -0.0832 -0.1764 -0.3601
    1W        W59304  23.942  29.207   0.999 -0.1360  0.3139  0.0934
    1W        W59305   2.475  19.239   0.289  0.0231 -0.1237 -0.1656
    1W        W59306   7.501  12.442   9.336 -0.1425 -0.1544  0.1125
    1W        W59307  22.914  14.210   8.394 -0.1397  0.1270  0.0791
    1W        W59308  15.846   4.425   0.063 -0.2553  0.3816 -0.1991
    1W        W59309  10.455  10.806   0.485  0.0493  0.1192 -0.1223
    1W        W59310   4.290  25.516   6.977 -0.1999 -0.3207  0.0941
    1W        W59311  20.589  19.091   1.971 -0.0535 -0.0664  0.1160
    1W        W59312   7.238   3.626   6.344 -0.0257  0.2595  0.2890
    1W        W59313   9.132   1.409   1.343 -0.0762  0.2340 -0.0699
    1W        W59314  14.756  10.133   8.959  0.1409  0.5542 -0.1214
    1W        W59315  10.957   0.536   8.971  0.2012  0.1284  0.1174
    1W        W59316  22.053  18.685   0.720  0.1243  0.1013 -0.0267
    1W        W59317  21.142   5.515   8.362  0.0125  0.1059 -0.3459
    1W        W59318   8.261  27.568   7.468 -0.2275  0.0176  0.0397
    1W        W59319  12.611  24.164   1.534 -0.2127 -0.2089  0.0300
    1W        W59320  23.253  18.789   9.399  0.1452 -0.1310 -0.2951
    1W        W59321   5.397  17.539   0.557  0.2804  0.3212  0.0563
    1W        W59322  27.932   1.568   1.423 -0.1131 -0.2464 -0.2450
    1W        W59323  17.613  20.285   1.597 -0.1517 -0.0960  0.1451
    1W        W59324  19.816  21.917   7.827 -0.1293  0.0087  0.0150
    1W        W59325  19.922  10.343   1.391  0.0578  0.3076 -0.3354
    1W        W59326   2.818  12.441   7.126 -0.0140 -0.1733 -0.0559
    1W        W59327  13.869  29.155   7.295 -0.3259 -0.0236 -0.1826
    1W        W59328  29.393  26.635   7.163  0.0518  0.0560  0.3590
    1W        W59329  25.912   7.562   8.555 -0.2039  0.0574 -0.0233
    1W        W59330  19.398   0.172   1.057 -0.0519  0.3017  0.3065
    1W        W59331  12.640   7.266   1.951 -0.2939  0.0119  0.1645
    1W        W59332  12.565  21.087   2.307 -0.0652 -0.1386 -0.0945
    1W        W59333  15.019  26.716   7.306 -0.0916  0.2835  0.2657
    1W        W59334   8.811   7.913   2.080  0.1658  0.0915 -0.1276
    1W        W59335  16.002  29.053   1.157  0.1580  0.2823 -0.3162
    1W        W59336   8.989  21.532   0.094  0.2587  0.1648  0.0805
    1W        W59337  15.614  26.969   8.086  0.0063  0.0378 -0.0158
    1W        W59338  22.906  11.031   6.897 -0.2670 -0.0572 -0.1631
    1W        W59339  26.230  19.135   9.217  0.0047 -0.1141  0.1742
    1W        W59340  24.074  15.203   0.271 -0.0984  0.3504  0.2509
    1W        W59341  20.361  17.834   9.490 -0.0527 -0.0150 -0.0600
    1W        W59342  10.218   4.045   0.450  0.1418 -0.0057 -0.4493
    1W        W59343   8.276   9.135   0.307  0.2074  0.1410  0.1057
    1W        W59344  13.676  25.589   1.404  0.1414 -0.1007 -0.4499
    1W        W59345   7.848  12.629   5.600  0.2821  0.0948 -0.0763
    1W        W59346  12.313   6.978   0.153 -0.1619 -0.0377  0.1208
    1W        W59347   3.091  26.233   7.571  0.4586 -0.1619  0.2779
    1W        W59348  25.231  16.686   2.249 -0.0424  0.2434 -0.0120
    1W        W59349  25.599  20.140   0.353  0.1179 -0.1463 -0.1334
    1W        W59350  28.103  28.399   2.804 -0.2775 -0.2397  0.1701
    1W        W59351  17.712  15.572   2.352  0.0765  0.0737 -0.0388
    1W        W59352   4.004   8.353   1.663  0.4033 -0.1193  0.1479
    1W        W59353   3.013  11.852   1.936 -0.0537  0.0639  0.1293
    1W        W59354   4.361  15.620   9.484  0.0578  0.1626  0.1232
    1W        W59355  27.208   5.737   0.176  0.0621 -0.2254  0.0581
    1W        W59356  21.203   1.700   0.907  0.2583 -0.0511 -0.0035
    1W        W59357   0.863   0.029   8.921  0.0963  0.0664 -0.0488
    1W        W59358  12.053  27.934   2.529 -0.1513 -0.1170  0.1235
    1W        W59359  11.058  27.857   6.874  0.4129 -0.2453 -0.2173
    1W        W59360  18.217  26.100   8.155 -0.1197  0.0748  0.0546
    1W        W59361  15.974  17.915   0.536 -0.2940 -0.0459  0.1087
    1W        W59362  17.653   6.925   1.017 -0.0849 -0.0864 -0.0159
    1W        W59363  19.833  24.689   0.837  0.0699  0.0580  0.0671
    1W        W59364  21.056  25.230   2.170 -0.0172  0.0296  0.1367
    1W        W59365   3.765  18.349   6.653  0.0991  0.0474  0.1709
    1W        W59366   2.099  10.496   1.439 -0.1546  0.1241 -0.3436
    1W        W59367  28.370  12.646   1.448  0.1680  0.1533  0.0922
    1W        W59368  13.338  11.625   6.799 -0.1221 -0.4095  0.3949
    1W        W59369  20.505   9.060   7.984 -0.2373 -0.1266  0.2006
    1W        W59370  13.290  28.610   7.107  0.0277  0.0577 -0.1282
    1W        W59371  15.670  15.832   6.671 -0.1045 -0.1751  0.0093
    1W        W59372   4.521  15.964   7.253 -0.2130 -0.1669 -0.2244
    1W        W59373   9.504  11.252   7.352 -0.1791 -0.1348  0.1178
    1W        W59374  26.558  19.798   0.077 -0.2223  0.0548  0.0825
    1W        W59375   4.290   3.621   1.392 -0.0732  0.1670  0.3078
    1W        W59376  24.264  10.115   1.612 -0.2505  0.1409  0.0432
    1W        W59377   6.162   0.611   6.913 -0.0050  0.2049 -0.3185
    1W        W59378   0.924  21.260   8.345 -0.2012 -0.1509  0.0759
    1W        W59379   3.047   2.343   7.678 -0.1778 -0.1582 -0.1359
    1W        W59380   7.155  23.410   2.483 -0.0961 -0.3730  0.2224
    1W        W59381  11.028   9.910   7.917  0.0247  0.0411 -0.2170
    1W        W59382  20.667  13.341   2.561 -0.2306  0.0240 -0.2281
    1W        W59383   1.562  18.040   2.580  0.0097  0.3858 -0.0534
    1W        W59384  16.080  19.788   7.644 -0.2298 -0.0434 -0.1859
    1W        W59385  20.381   0.081   7.588 -0.0803  0.2569  0.0685
    1W        W59386  23.300  22.511   3.454  0.1896 -0.3369  0.1486
    1W        W59387   8.112   1.069   6.067  0.2219  0.0579  0.0001
    1W        W59388   9.245  17.374   2.251  0.1174  0.2255 -0.1881
    1W        W59389  20.141  17.053   0.662 -0.0250 -0.0178 -0.2154
    1W        W59390   8.489  13.331   0.249  0.1060 -0.0175  0.0160
    1W        W59391  24.990  29.292   9.345  0.0732  0.2429  0.2626
    1W        W59392   3.282  11.326   7.771  0.1663  0.0830  0.1041
    1W        W59393   8.321   4.087   0.876  0.1378  0.0143  0.2106
    1W        W59394  21.401   7.337   2.020 -0.0645  0.0506 -0.3114
    1W        W59395   5.470  12.398   1.757  0.0494 -0.0848  0.2741
    1W        W59396   2.438  22.750   3.185  0.1812 -0.2389 -0.2789
    1W        W59397  10.616  26.408   7.540 -0.1400 -0.0213  0.0348
    1W        W59398   5.682   0.834   0.809  0.1949  0.3182 -0.0132
    1W        W59399  12.090  24.012   0.843  0.1005 -0.1497 -0.2739
    1W        W59400  11.323  12.985   6.548 -0.1049  0.1545  0.0832
    1W        W59401   1.396  19.671   8.458 -0.1554  0.0536 -0.1137
    1W        W59402   5.827   3.683   7.082 -0.0304  0.3757  0.0777
    1W        W59403   1.765   3.079   1.109 -0.1510 -0.1835 -0.0088
    1W        W59404  23.259   0.945   7.451  0.2527  0.0393  0.2407
    1W        W59405  27.787   5.213   7.712 -0.0904 -0.1231  0.1928
    1W        W59406   1.842  26.552   6.450  0.0195  0.1335  0.1396
    1W        W59407   2.736  23.972   7.689  0.1747 -0.2529 -0.0111
    1W        W59408  10.968  15.562   9.301 -0.2847 -0.2719 -0.2907
    1W        W59409  28.453  20.431   2.556 -0.1499 -0.0706  0.0756
    1W        W59410  11.090  28.247   1.446 -0.2174  0.3012 -0.0210
    1W        W59411  12.320  28.190   9.499 -0.2136  0.2325  0.3292
    1W        W59412  16.964   4.605   7.602 -0.1380 -0.0916 -0.2937
    1W        W59413   8.594  28.236   1.975  0.0887  0.0813  0.2342
    1W        W59414   0.309  18.690   3.474  0.4526 -0.1735  0.0322
    1W        W59415   2.986  11.250   7.009  0.1523 -0.1844 -0.0591
    1W        W59416  11.765   5.378   6.848  0.1035  0.2840 -0.3872
    1W        W59417   0.985  20.440   8.239  0.0403 -0.1742  0.0458
    1W        W59418  27.847   0.058   8.357 -0.4282  0.1086  0.0598
    1W        W59419   2.436   6.837   8.574 -0.0622  0.1979 -0.0997
    1W        W59420   3.377  14.852   8.649 -0.1015 -0.1742  0.0936
    1W        W59421  22.428   8.400   8.326  0.0503 -0.2708  0.0403
    1W        W59422  14.515  28.926   8.248 -0.2584  0.0538 -0.1725
    1W        W59423   9.834   8.824   8.269 -0.1823  0.2140  0.0496
    1W        W59424  20.066  15.383   1.692  0.1838 -0.4379 -0.0541
    1W        W59425  26.640  13.403   7.441 -0.0234  0.4506 -0.1220
    1W        W59426  17.767   2.970   7.334 -0.2902 -0.0090  0.1999
    1W        W59427   9.338  22.044   6.560 -0.1977 -0.0488  0.2406
    1W        W59428   5.225   5.039   7.644 -0.1987  0.1579 -0.0657
    1W        W59429  21.156  19.739   2.318 -0.0702 -0.4582  0.1760
    1W        W59430  17.135   9.811   1.586 -0.2234  0.2257  0.1931
    1W        W59431  21.240  25.244   0.129 -0.0980 -0.0964  0.1403
    1W        W59432  22.271  23.503   0.729  0.1986  0.0029 -0.0905
    1W        W59433  14.731  26.606   8.741 -0.0363 -0.1341 -0.4164
    1W        W59434   7.408  11.625   7.556  0.3363 -0.0075  0.0627
    1W        W59435  14.164  20.727   1.840 -0.0732 -0.0391  0.0787
    1W        W59436  23.511  26.523   3.101  0.0027 -0.1679 -0.0882
    1W        W59437   4.626  23.067   0.379 -0.4205  0.0907 -0.0942
    1W        W59438  15.164   1.221   7.361  0.2256  0.2588 -0.2296
    1W        W59439   7.877  28.557   8.542 -0.0290  0.2361 -0.1803
    1W        W59440  28.624   1.877   9.215  0.0163  0.0505 -0.0051
    1W        W59441  21.856  22.947   8.592  0.0555 -0.2747 -0.1325
    1W        W59442  14.739   4.814   2.358  0.0203  0.0739 -0.0025
    1W        W59443  28.009  26.295   6.426  0.3010 -0.1749  0.0655
    1W        W59444  11.921  23.110   1.694  0.0017 -0.0212  0.2281
    1W        W59445  24.689   5.436   9.326  0.2631  0.0757  0.1511
    1W        W59446   9.096   1.848   6.952  0.1769  0.1062  0.1669
    1W        W59447  27.380  16.416   9.226 -0.1004  0.1567  0.1074
    1W        W59448  11.611  13.812   9.109 -0.2251 -0.1459  0.0535
    1W        W59449   5.525  27.849   7.833 -0.0309  0.1656 -0.0158
    1W        W59450   5.671   3.652   2.474 -0.0492  0.2813  0.1841
    1W        W59451   9.851   5.158   7.676 -0.0470 -0.2054  0.0729
    1W        W59452  16.975  24.199   8.692 -0.0448  0.1150  0.1412
    1W        W59453   3.756  11.551   9.001 -0.1268  0.0162 -0.0110
    1W        W59454  10.169  19.979   8.199  0.1459 -0.1275 -0.1146
    1W        W59455  16.366   9.881   9.389 -0.1473  0.0110 -0.0183
    1W        W59456   8.360   9.605   7.491  0.0479 -0.0494  0.1784
    1W        W59457  15.789  10.764   1.666  0.2214 -0.2846  0.0585
    1W        W59458  14.705  18.625   0.372 -0.1052 -0.3692 -0.1001
    1W        W59459   0.063   0.425   2.704 -0.1956  0.1220 -0.1910
    1W        W59460   6.462  20.503   3.229  0.0507  0.0892 -0.0427
    1W        W59461   7.418  28.693   8.052 -0.2003 -0.1141  0.0019
    1W        W59462   6.421  21.133   0.744 -0.0425  0.0586 -0.0382
    1W        W59463   9.153  25.674   7.053 -0.2808  0.0349 -0.2869
    1W        W59464   1.405  12.442   7.498 -0.0160  0.1155  0.0612
    1W        W59465  22.458  14.187   1.653 -0.1001  0.1717 -0.1299
    1W        W59466   0.056  18.264   2.559 -0.0229 -0.0304 -0.0737
    1W        W59467   6.252  28.682   0.923 -0.0136  0.0781  0.2208
    1W        W59468  16.596   0.601   9.256  0.2407 -0.2639 -0.3994
    1W        W59469   0.363  15.462   3.333 -0.2413 -0.1167 -0.0529
    1W        W59470   2.158  23.531   8.805  0.2194 -0.2466 -0.3100
    1W        W59471   6.629  23.596   8.576  0.0739 -0.1366  0.3538
    1W        W59472  10.076   0.762   6.214  0.2100  0.0427  0.2037
    1W        W59473   2.948  14.656   1.452  0.1094 -0.2214 -0.0122
    1W        W59474  22.572  21.460   1.180 -0.2517  0.1320 -0.0133
    1W        W59475  24.421  11.806   1.200  0.2729 -0.2860  0.0466
    1W        W59476   2.144   9.491   0.328  0.0597  0.1505 -0.2026
    1W        W59477   1.074  25.319   7.462  0.0601  0.0456 -0.2660
    1W        W59478   9.517   0.925   8.057  0.2202 -0.2130 -0.1513
    1W        W59479  21.312   0.701   7.825  0.0837 -0.0750 -0.2229
    1W        W59480  24.957  18.614   7.914 -0.1639  0.2310  0.4178
    1W        W59481  10.019  16.868   0.342 -0.0864  0.5714 -0.0173
    1W        W59482  18.898  24.005   7.226 -0.1978  0.0670 -0.0946
    1W        W59483   3.895  19.111   7.217  0.0786  0.4281  0.0006
    1W        W59484  25.856   0.187   0.039  0.0027 -0.1195 -0.2167
    1W        W59485  28.147   1.116   0.047  0.0109  0.0421 -0.2898
    1W        W59486  12.284  14.545   1.232  0.1529 -0.1148  0.0062
    1W        W59487   6.011  11.323   5.811 -0.1529  0.0884 -0.1690
    1W        W59488   8.202  21.549   7.502 -0.0520 -0.0930  0.1486
    1W        W59489  10.053   4.152   6.449  0.3635  0.0499  0.2060
    1W        W59490  26.776  24.689   8.774  0.2370  0.0036 -0.2079
    1W        W59491   7.034  16.161   9.076 -0.1046  0.0883 -0.3913
    1W        W59492  29.347  11.489   8.228 -0.0288  0.0368 -0.0969
    1W        W59493  27.543   8.468   8.681  0.1108 -0.0324  0.2795
    1W        W59494   9.193  21.978   8.197 -0.0988  0.1145 -0.0139
    1W        W59495  29.279  14.473   2.744 -0.1495  0.2780 -0.3533
    1W        W59496  20.626   3.312   8.753  0.1155 -0.0873  0.2743
    1W        W59497  18.673  17.661   0.510  0.0454 -0.2174  0.2642
    1W        W59498  12.761   9.364   0.347 -0.2644  0.3703  0.1048
    1W        W59499   2.499   6.117   1.268 -0.2625 -0.1237  0.0525
    1W        W59500  21.361  23.284   8.635  0.2095 -0.1309 -0.1347
    1W        W59501   3.961  13.847   9.106 -0.1246  0.0492  0.2302
    1W        W59502   2.554  19.935   7.785  0.0476  0.0890  0.2448
    1W        W59503  26.478  17.450   2.794 -0.0201  0.2362  0.3298
    1W        W59504  26.648   6.911   7.617  0.0103  0.2129  0.1540
    1W        W59505  26.846  14.228   1.717  0.2568  0.0784  0.0945
    1W        W59506  23.427   7.059   8.464 -0.1515  0.1499  0.1612
    1W        W59507  24.875  26.495   0.854 -0.3598  0.0093  0.0263
    1W        W59508   9.030  23.033   1.964 -0.0469 -0.0799  0.1287
    1W        W59509  19.238  10.511   0.904  0.1633 -0.0292  0.3502
    1W        W59510   4.065  19.778   0.859 -0.1773  0.0404 -0.2483
    1W        W59511   9.541   5.996   0.001 -0.2955 -0.0491 -0.1995
    1W        W59512  20.522  27.470   4.065 -0.1169 -0.0438 -0.2171
    1W        W59513  20.101  11.891   1.928 -0.2334 -0.4739  0.1966
    1W        W59514  27.404  15.137   7.690 -0.0219  0.1334  0.4083
    1W        W59515  17.288  13.701   8.443 -0.0433 -0.4212 -0.1954
    1W        W59516   5.366   5.948   6.199 -0.0477  0.1996 -0.0484
    1W        W59517   3.745  27.948   8.002  0.0907  0.1995 -0.1116
    1W        W59518  23.646  22.489   2.767 -0.1029 -0.1218  0.0422
    1W        W59519   7.405  22.114   2.002  0.2188  0.0069 -0.1430
    1W        W59520   1.596  28.013   9.337  0.1430 -0.3677 -0.0113
    1W        W59521   3.676  18.987   1.623  0.1842 -0.0729  0.2760
    1W        W59522  25.842  25.778   0.223 -0.0260 -0.2892  0.0711
    1W        W59523   0.291  22.265   7.373 -0.2937 -0.3764 -0.1399
    1W        W59524  26.717  11.259   9.051  0.0512  0.1121 -0.0083
    1W        W59525  23.549  21.427   2.244 -0.2052 -0.1065 -0.1431
    1W        W59526   0.519  11.601   8.715  0.0902  0.2734 -0.2500
    1W        W59527  27.754   4.932   8.325 -0.1782 -0.0742 -0.0979
    1W        W59528   5.793   1.565   0.065 -0.1201 -0.1166 -0.1591
    1W        W59529   1.443  18.854   8.851  0.2905 -0.1179 -0.0919
    1W        W59530  18.293   1.570   8.693  0.1432  0.0576 -0.0574
    1W        W59531  18.507  11.307   9.212  0.0131 -0.1856  0.0150
    1W        W59532  22.115  20.756   0.398 -0.2357 -0.3022  0.0722
    1W        W59533  26.757   2.787   1.420  0.4288  0.0645 -0.2354
    1W        W59534  20.815  15.842   0.552  0.0859 -0.0221 -0.0631
    1W        W59535   3.182   0.862   2.875  0.2422  0.2848 -0.1236
    1W        W59536   7.073  26.827   7.296 -0.2799 -0.0413 -0.4529
    1W        W59537  10.550   0.247   6.892  0.1001  0.3978  0.1859
    1W        W59538  10.096  17.647   6.175  0.1397 -0.0807 -0.0022
    1W        W59539  10.440   6.253   5.995 -0.0735 -0.1809 -0.1099
    1W        W59540   5.580  13.631   1.030  0.1361  0.0120 -0.2684
    1W        W59541  26.106   7.921   9.502  0.0390 -0.1787  0.1162
    1W        W59542  28.704  28.804   8.208  0.0036 -0.2715  0.0380
    1W        W59543  16.895  10.006   8.575 -0.3068 -0.2564  0.1927
    1W        W59544  13.318  21.797   1.230  0.0919 -0.0640  0.0119
    1W        W59545  10.663   1.535   7.162  0.0947  0.0593 -0.0490
    1W        W59546   2.131  26.840   9.275  0.1020 -0.0932 -0.0928
    1W        W59547  22.135  12.806   1.752 -0.0999 -0.0175  0.0216
    1W        W59548  24.585   2.933   2.385 -0.2178  0.1300  0.0491
    1W        W59549   2.215  21.813   8.257  0.1037  0.0531 -0.2076
    1W        W59550  13.964  12.041   1.496 -0.0605 -0.1217  0.0457
    1W        W59551  18.883  25.682   3.611  0.0886 -0.1917 -0.1416
    1W        W59552   5.100  13.118   9.429  0.2563 -0.1059 -0.2559
    1W        W59553  26.238  12.754   7.048 -0.0141 -0.0476 -0.0454
    1W        W59554   9.987   4.829   1.507 -0.0315  0.0027 -0.1750
    1W        W59555  27.344  18.962   8.884  0.1555  0.2424  0.1440
    1W        W59556   9.147  18.219   8.857  0.1368  0.0406  0.0934
    1W        W59557  14.176   3.191   1.364 -0.4441 -0.1343  0.1732
    1W        W59558   7.702  25.903   2.149 -0.0437  0.5277  0.0834
    1W        W59559  12.049  11.513   0.524 -0.0366  0.0304  0.1105
    1W        W59560   6.340   3.546   0.200  0.0535 -0.0101 -0.3799
    1W        W59561  20.953  26.494   2.497 -0.1704  0.0426  0.0104
    1W        W59562   5.828  15.795   7.278  0.2811 -0.2128  0.2517
    1W        W59563   4.978   7.015   6.988  0.0305  0.0552  0.0253
    1W        W59564   6.380  29.122   5.330 -0.1321  0.1380  0.1626
    1W        W59565  18.075   2.070   1.489 -0.0934 -0.0756 -0.2365
    1W        W59566  22.021  11.138   7.939 -0.0212 -0.1422  0.1406
    1W        W59567  22.371   4.277   1.078  0.0950 -0.2319  0.0901
    1W        W59568  11.146   3.451   9.303  0.0972 -0.0453 -0.2626
    1W        W59569   1.439  10.872   0.802 -0.1118 -0.0445 -0.0739
    1W        W59570  28.241  28.739   6.649 -0.0731 -0.1348 -0.1202
    1W        W59571  10.809  16.826   7.441  0.0623 -0.1997  0.0675
    1W        W59572  29.034   0.770   0.072 -0.2561 -0.2808 -0.0020
    1W        W59573  19.873  21.287   9.179  0.0990 -0.0325 -0.0269
    1W        W59574  13.073  20.235   7.848  0.1548 -0.1116 -0.0302
    1W        W59575  26.703  15.413   8.460  0.1186  0.0441  0.1405
    1W        W59576   7.464  29.338   1.731 -0.1166  0.0617  0.0522
    1W        W59577  12.398  14.863   0.805  0.1385  0.1528  0.0138
    1W        W59578   4.341  17.922   0.113 -0.0264 -0.0905  0.2083
    1W        W59579   4.200  24.421   7.105  0.0641  0.1202 -0.3840
    1W        W59580   9.590  16.708   1.962 -0.0480  0.1570  0.0536
    1W        W59581  12.513   7.802   0.751  0.0776 -0.1143 -0.3291
    1W        W59582   6.196   2.262   0.334  0.3544  0.1459  0.0442
    1W        W59583   4.066  23.327   0.793 -0.0585  0.1377 -0.1970
    1W        W59584  13.415   0.458   8.940  0.1236 -0.4099 -0.0686
    1W        W59585  22.538   6.807   8.847 -0.0791 -0.1399 -0.1748
    1W        W59586   1.657  21.934   8.971 -0.1257 -0.5487  0.1430
    1W        W59587  14.238  26.908   2.880  0.3017  0.0158 -0.0436
    1W        W59588  21.004  16.299   0.341 -0.3319  0.0007 -0.2703
    1W        W59589  21.466   3.048   1.291 -0.3002  0.1289  0.3206
    1W        W59590   7.575  17.806   7.664  0.3020 -0.0016  0.0189
    1W        W59591   9.127  13.505   8.297  0.0575 -0.0429  0.3277
    1W        W59592  21.756  20.825   7.937  0.1711  0.2662  0.1531
    1W        W59593  10.960   6.508   2.591 -0.1454 -0.1435  0.3326
    1W        W59594  25.150   5.921   0.681  0.0320 -0.0737  0.1169
    1W        W59595  16.752   7.605   7.283  0.0597 -0.0298  0.0052
    1W        W59596   9.180  17.617   0.494 -0.0862 -0.2812  0.1918
    1W        W59597  27.724   3.426   7.627 -0.1327  0.1950  0.3298
    1W        W59598   5.765   6.035   9.581 -0.0052  0.0603  0.1267
    1W        W59599  14.730  23.619   7.056 -0.1808 -0.0552  0.0476
    1W        W59600  12.599  25.685   8.046 -0.0848 -0.1032 -0.1898
    1W        W59601  17.376   8.198   7.885  0.2973  0.2247  0.0484
    1W        W59602  22.280  28.998   8.152 -0.0650  0.1042  0.1368
    1W        W59603  24.211  27.136   9.353 -0.1767 -0.3554  0.0252
    1W        W59604  28.097   7.255   1.411  0.0610 -0.2435 -0.1734
    1W        W59605  25.870  11.365   8.475 -0.0230 -0.0422  0.2796
    1W        W59606   5.791  10.056   8.316 -0.1458 -0.2006  0.0992
    1W        W59607  27.534  18.315   8.990 -0.3198 -0.2223  0.0465
    1W        W59608   1.486  21.732   3.936  0.2255  0.0793  0.0130
    1W        W59609  15.956  11.009   8.682  0.1277 -0.1147  0.2021
    1W        W59610   3.740  11.625   7.601  0.1324 -0.0845 -0.2810
    1W        W59611  15.524  13.557   1.863  0.0505 -0.1605 -0.1055
    1W        W59612  11.755  15.745   0.243  0.1220 -0.1823 -0.6292
    1W        W59613  15.399   9.963   0.026  0.1176  0.2943 -0.1963
    1W        W59614   7.878  29.572   7.805  0.0116  0.1093 -0.0144
    1W        W59615  26.231  14.945   8.371 -0.0624  0.3926 -0.0208
    1W        W59616  10.099  19.604   7.219 -0.0191  0.0377 -0.0406
    1W        W59617  12.760   4.397   7.887  0.1471  0.2249  0.1278
    1W        W59618  25.792  18.908   3.761  0.1514 -0.1459  0.1176
    1W        W59619  24.182  10.130   8.078  0.0372 -0.3033 -0.0303
    1W        W59620   5.045  20.578   7.247  0.1553 -0.2010  0.0114
    1W        W59621  10.818  27.891   7.324  0.4548 -0.1940  0.0043
    1W        W59622   3.530   2.370   9.260 -0.1080 -0.2021 -0.0733
    1W        W59623   6.063  26.939   6.832 -0.1967  0.0593 -0.1218
    1W        W59624  27.272  14.407   0.337 -0.3631  0.2167  0.3520
    1W        W59625  21.251   7.138   9.568 -0.1323  0.1277 -0.0468
    1W        W59626   8.691  10.467   1.547 -0.3538 -0.1310 -0.2707
    1W        W59627   7.971   9.249   6.727 -0.0028  0.0770  0.0121
    1W        W59628   6.549  19.369   8.471  0.0324 -0.1796 -0.0158
    1W        W59629  19.890  18.452   8.128 -0.1487 -0.1427  0.2724
    1W        W59630  12.437  15.155   2.275 -0.1344 -0.4391  0.0588
    1W        W59631   6.299   3.520   6.640 -0.3011  0.1148 -0.0359
    1W        W59632   7.443  27.651   9.471 -0.0733 -0.0793  0.2051
    1W        W59633   6.735  14.053   7.004  0.0221  0.2731  0.0841
    1W        W59634  19.041  16.092   1.857 -0.0031  0.2087  0.0081
    1W        W59635  19.516  16.612   8.138 -0.1003 -0.1406 -0.3415
    1W        W59636  14.905  26.454   7.875 -0.0144 -0.1434  0.0183
    1W        W59637   1.631  23.425   2.053 -0.0750  0.1491 -0.3418
    1W        W59638  26.044   1.339   0.807  0.0766  0.4003  0.0493
    1W        W59639  27.520   5.163   2.268 -0.1769  0.1406 -0.2345
    1W        W59640  14.149  17.435   0.107  0.2789 -0.2522 -0.1195
    1W        W59641  18.294   4.102   9.302 -0.1063  0.0053 -0.0207
    1W        W59642  12.977  25.378   2.102 -0.1261 -0.1130 -0.2744
    1W        W59643  17.376   8.600   8.984  0.1599 -0.0077  0.1667
    1W        W59644  20.201  20.959   7.243 -0.0599  0.0835 -0.0701
    1W        W59645  16.465  22.216   8.796  0.2574  0.0569 -0.0843
    1W        W59646   8.391  22.226   6.928 -0.0682  0.0956  0.0847
    1W        W59647   6.932  13.749   5.538  0.1157  0.0802 -0.1626
    1W        W59648  19.723  23.139   0.008 -0.4458  0.3334 -0.2939
    1W        W59649   9.580  25.611   6.803 -0.2113  0.2577  0.0352
    1W        W59650  14.035   7.855   8.599 -0.0670  0.2150 -0.2058
    1W        W59651  15.703  21.928   6.846  0.1979 -0.2146 -0.2886
    1W        W59652  15.077  12.381   7.249  0.1539  0.2058 -0.2219
    1W        W59653  22.694   4.435   7.647  0.0836 -0.0078 -0.2681
    1W        W59654  16.615  28.416   8.648 -0.1587 -0.1787 -0.1105
    1W        W59655  15.825  21.380   7.534  0.1068 -0.0461 -0.0408
    1W        W59656  28.585  20.586   0.202 -0.0424 -0.0807  0.2308
    1W        W59657  18.330  10.320   0.302  0.1384 -0.3478  0.0167
    1W        W59658  26.611  29.394   2.938 -0.2390 -0.1265 -0.3254
    1W        W59659  12.461  22.847   6.790 -0.2072  0.4265  0.0489
    1W        W59660  16.458   0.153   8.500  0.1679 -0.2228  0.0790
    1W        W59661   0.902  10.888   8.053 -0.0142  0.2147  0.3753
    1W        W59662   9.524   3.824   9.057 -0.0269 -0.0135  0.1430
    1W        W59663  25.509   6.233   1.352 -0.0924 -0.0936  0.0481
    1W        W59664   1.074  27.339   0.458 -0.2239 -0.1880  0.1653
    1W        W59665   9.374  12.032   6.438 -0.1226 -0.0451  0.1674
    1W        W59666  24.259  24.996   0.227  0.0006  0.0894  0.0775
    1W        W59667  16.868  25.320   1.337 -0.1029  0.1811 -0.1586
    1W        W59668   8.534  26.131   2.955  0.3037 -0.2123  0.1144
    1W        W59669  27.933  14.769   9.550  0.0973  0.0678  0.2742
    1W        W59670  18.219  28.586   9.209  0.1649 -0.1991 -0.2234
    1W        W59671   6.391   6.844   7.916 -0.1302  0.0762  0.0503
    1W        W59672   2.157  24.107   2.798  0.0631  0.0848 -0.1168
    1W        W59673  10.491  20.798   8.319  0.0421  0.0677 -0.1138
    1W        W59674  25.550   1.310   8.059  0.2069 -0.3465  0.0447
    1W        W59675  17.323  27.138   8.155  0.0239 -0.1037  0.0654
    1W        W59676  14.871   4.922   6.648  0.1571 -0.0343  0.4252
    1W        W59677  12.966  17.279   9.310 -0.1562  0.1033 -0.1735
    1W        W59678  14.607  23.228   1.658 -0.3590  0.2394 -0.0229
    1W        W59679   5.321   6.815   0.669 -0.3923 -0.0040 -0.0117
    1W        W59680  15.578   2.020   7.166  0.0174  0.2234  0.1724
    1W        W59681  24.315   5.525   0.528 -0.0614 -0.0684  0.2309
    1W        W59682   1.247  15.945   9.105 -0.1388  0.0293 -0.3212
    1W        W59683  16.272  28.894   0.775 -0.1413 -0.2517 -0.1485
    1W        W59684   9.549  24.699   0.297  0.2296 -0.3212 -0.0389
    1W        W59685  16.449  18.430   8.962 -0.3554  0.5831  0.1232
    1W        W59686   0.649   5.165   9.105 -0.1417 -0.0220 -0.2571
    1W        W59687  23.605  13.567   1.289  0.2787 -0.0378 -0.1256
    1W        W59688  10.743  23.162   2.404 -0.1236 -0.0457 -0.2690
    1W        W59689  13.479  10.317   2.516  0.0183  0.0677 -0.1825
    1W        W59690  23.557  23.519   2.985  0.1808  0.2857  0.1920
    1W        W59691  27.837   3.008   7.400 -0.0135 -0.1265  0.0099
    1W        W59692  23.530  15.170   6.949  0.1021  0.1909 -0.1339
    1W        W59693  14.925  21.124   1.446 -0.1964 -0.0779  0.1003
    1W        W59694   7.130   0.926   7.324  0.1189 -0.0071  0.0608
    1W        W59695  15.682   5.214   9.079  0.1410 -0.0424 -0.1408
    1W        W59696   8.996  23.363   2.347  0.0850 -0.0066  0.0843
    1W        W59697   0.689   9.031   8.554  0.0652  0.0503 -0.1096
    1W        W59698  21.507  27.540   2.044 -0.0836  0.0596 -0.0517
    1W        W59699  12.504  19.637   2.208  0.1304  0.4276 -0.0780
    1W        W59700  22.529  24.638   4.094  0.1703  0.0083 -0.0865
    1W        W59701  16.041   2.165   7.966 -0.2319  0.2208  0.0745
    1W        W59702  13.961  11.327   8.586  0.1825 -0.1221 -0.0307
    1W        W59703  13.868   6.628   6.808  0.4034  0.0146 -0.1763
    1W        W59704  14.333   7.087   0.833 -0.0187 -0.2208 -0.2382
    1W        W59705  28.330  26.826   7.489 -0.1549  0.2382  0.0112
    1W        W59706  12.888  24.245   7.523 -0.0439  0.0126 -0.4395
    1W        W59707  12.049  17.553   8.082  0.0873  0.1000 -0.2408
    1W        W59708  28.043  18.447   9.146  0.0522 -0.0413 -0.3494
    1W        W59709  24.047  18.873   1.700  0.2930 -0.0834 -0.0118
    1W        W59710  23.796  13.825   7.718  0.2662  0.1668  0.1081
    1W        W59711  23.849  10.838   1.774  0.0069  0.1678  0.3389
    1W        W59712  28.311  14.994   1.127 -0.1341  0.0350  0.0212
    1W        W59713  16.299   1.358   1.807  0.2048 -0.0491  0.2138
    1W        W59714  26.615  12.458   1.147  0.1689  0.1110  0.1514
    1W        W59715  17.503  13.426   2.832  0.2293  0.3065  0.3294
    1W        W59716   8.846  15.542   8.968 -0.2313 -0.1865 -0.0825
    1W        W59717  28.284   2.694   9.312  0.0500 -0.2020  0.3072
    1W        W59718  15.582  22.825   8.177  0.0687  0.0321  0.2345
    1W        W59719  14.809   1.870   0.952 -0.2706  0.2569 -0.0482
    1W        W59720  22.507  28.966   1.239  0.0118  0.3459 -0.1293
    1W        W59721  22.964  19.837   1.002  0.0248 -0.1375 -0.3024
    1W        W59722   8.279  13.718   7.938 -0.2750  0.1997  0.2165
    1W        W59723   6.713   8.436   6.108 -0.0595 -0.1472 -0.2460
    1W        W59724   6.381  20.258   7.148  0.1298  0.2288  0.0673
    1W        W59725  24.914  14.211   1.088  0.1662 -0.0197 -0.1315
    1W        W59726  12.306  12.436   9.306 -0.0953  0.1629 -0.1876
    1W        W59727  28.077  16.021   0.988 -0.1903  0.1616 -0.0496
    1W        W59728  12.979   1.132   8.298 -0.0784 -0.0674  0.0060
    1W        W59729  12.764  12.170   0.365 -0.2136  0.4380  0.2133
    1W        W59730  19.860  18.126   7.756 -0.2596  0.3586 -0.0430
    1W        W59731  18.649  20.662   7.335  0.3679  0.1365 -0.2118
    1W        W59732  10.407   0.656   2.720 -0.1752  0.1696  0.0044
    1W        W59733   2.493  26.382   2.306  0.1465  0.0707 -0.4548
    1W        W59734   5.643  27.735   0.627  0.0966 -0.0478 -0.0139
    1W        W59735  21.635   6.843   8.538  0.2557  0.0453 -0.0351
    1W        W59736  19.962   2.034   8.227  0.1161  0.0919 -0.2018
    1W        W59737  26.066  22.590   0.603  0.1459 -0.1734  0.0866
    1W        W59738   4.556   2.053   9.427  0.0151 -0.0409  0.2463
    1W        W59739   6.032   0.512   0.606 -0.2516  0.1734 -0.0025
    1W        W59740  19.576   1.586   8.488  0.0208  0.2643 -0.0614
    1W        W59741   8.390  12.727   1.560  0.0680  0.2906  0.1584
    1W        W59742   7.377  10.559   6.478  0.0020  0.1549  0.0060
    1W        W59743  25.097  14.092   8.265  0.1709  0.1192  0.1935
    1W        W59744  27.840  20.333   1.020 -0.1232  0.5293  0.1213
    1W        W59745   3.926   9.513   5.338  0.1341 -0.0459  0.5525
    1W        W59746   6.035   9.107   1.810 -0.2479 -0.2739  0.2446
    1W        W59747   9.512   1.029   0.855 -0.2234 -0.0293 -0.0389
    1W        W59748  19.842   5.560   1.877  0.0071  0.0729  0.1603
    1W        W59749   3.844   4.150   8.224  0.1442 -0.0816 -0.2682
    1W        W59750  28.727  14.285   8.121  0.2971 -0.2986 -0.1666
    1W        W59751  28.325  19.021   2.189 -0.0107 -0.1924 -0.0772
    1W        W59752  20.738  27.605   1.540 -0.0305 -0.0837 -0.3422
    1W        W59753  15.361  21.250   9.267  0.1173 -0.1904  0.1830
    1W        W59754  17.169  25.614   8.110 -0.3054 -0.0638  0.1335
    1W        W59755  24.333  15.624   8.065 -0.1629 -0.0879 -0.1174
    1W        W59756  12.807   8.521   9.054  0.1975 -0.0271 -0.0472
    1W        W59757   6.813   1.854   8.384 -0.2031 -0.1051 -0.0140
    1W        W59758  16.571  23.916   0.474 -0.0313 -0.0145 -0.3398
    1W        W59759  17.714   0.176   8.111 -0.1872 -0.3130 -0.0015
    1W        W59760  23.426  15.985   8.422 -0.3271 -0.3276  0.0538
    1W        W59761  19.716   2.787   7.841  0.0220 -0.1304 -0.0651
    1W        W59762  10.486  27.266   9.159  0.0079 -0.1257 -0.2834
    1W        W59763  22.252  17.401   0.355 -0.1873  0.2723 -0.1219
    1W        W59764  13.098   7.453   8.267  0.0838 -0.1928 -0.3889
    1W        W59765  24.789   7.275   8.855  0.3056  0.1458  0.0042
    1W        W59766   0.857  28.105   0.026  0.0567  0.0988 -0.2757
    1W        W59767   2.088  22.026   1.931  0.2224  0.3648 -0.2827
    1W        W59768  13.624   3.554   2.900 -0.2250  0.2316  0.0121
    1W        W59769  24.197  24.733   1.563  0.2766  0.1265 -0.0839
    1W        W59770  20.060  29.483   7.219  0.0140 -0.0458 -0.2891
    1W        W59771   7.468  17.760   6.205 -0.3736  0.2318 -0.2226
    1W        W59772  13.898  20.610   7.571  0.2422  0.0704  0.1841
    1W        W59773  10.413   1.823   0.218  0.0694  0.1068 -0.2891
    1W        W59774  20.845  28.277   3.911  0.2691  0.3853  0.0603
    1W        W59775  17.149  24.973   9.272 -0.3498 -0.0045 -0.1575
    1W        W59776   5.712  16.705   1.796 -0.0891  0.1778  0.2804
    1W        W59777   3.026  20.824   0.843 -0.3881 -0.1714 -0.1492
    1W        W59778   2.078  16.454   8.012  0.0595 -0.1315  0.1384
    1W        W59779  28.516  13.405   7.964 -0.0538  0.1950  0.0966
    1W        W59780  13.672   2.714   0.558  0.0444 -0.1904  0.1363
    1W        W59781  14.308  22.388   0.030 -0.0647  0.1704 -0.3208
    1W        W59782  14.590  18.313   8.762  0.2742 -0.2120 -0.0011
    1W        W59783  10.920   5.212   0.002  0.1661 -0.3049  0.0857
    1W        W59784   0.764  14.628   2.954 -0.0397 -0.0892  0.0202
    1W        W59785  14.053  26.837   8.000  0.1206 -0.5629  0.0078
    1W        W59786   9.012  26.268   0.652  0.1456  0.2204  0.3276
    1W        W59787   2.526   0.416   6.723 -0.3004 -0.2049  0.1234
    1W        W59788   6.936   3.569   0.322 -0.2836 -0.1530  0.0537
    1W        W59789  20.301   3.923   7.667 -0.1750 -0.1026  0.0713
    1W        W59790  15.871  26.547   2.338 -0.0521  0.1618 -0.4797
    1W        W59791  24.463   9.193   1.266 -0.1761 -0.3236  0.1586
    1W        W59792  22.696   6.729   8.340  0.0757 -0.0608 -0.2554
    1W        W59793   2.313  21.998   2.777  0.0580  0.0196  0.0465
    1W        W59794  25.010   5.672   1.624 -0.1549 -0.0410  0.1579
    1W        W59795   7.207  28.376   1.614 -0.0188 -0.2768  0.1013
    1W        W59796   0.263  25.453   8.898  0.1263  0.2144 -0.1681
    1W        W59797  21.575   7.648   8.133 -0.1541  0.0996 -0.1737
    1W        W59798  13.971  24.609   1.926 -0.2738  0.2367 -0.1596
    1W        W59799   6.081  19.392   8.146  0.1707  0.2425 -0.1818
    1W        W59800   8.550   2.126   2.375  0.2804 -0.2087 -0.2051
    1W        W59801  19.238  28.094   9.494 -0.3230 -0.0372 -0.1916
    1W        W59802  28.427   2.916   0.062 -0.1030 -0.0056 -0.0855
    1W        W59803  18.676  13.696   8.188 -0.2313  0.2051 -0.0070
    1W        W59804  16.752   3.306   6.668 -0.3327  0.3824  0.1560
    1W        W59805   0.528  26.858   6.831  0.0565 -0.1407 -0.0526
    1W        W59806  28.387  23.801   1.076 -0.2337 -0.2491  0.1940
    1W        W59807  10.944  12.373   9.154 -0.0040 -0.0877 -0.1904
    1W        W59808  25.713   3.883   2.875  0.4027  0.1288  0.1315
    1W        W59809   6.460   5.237   8.146  0.0966  0.1631  0.2788
    1W        W59810  16.382  15.811   8.182  0.0117 -0.0920  0.2126
    1W        W59811  16.794   8.437   0.522  0.0745 -0.0027  0.2739
    1W        W59812   0.050   0.208   9.353 -0.2699 -0.2029  0.1317
    1W        W59813   9.043  12.380   6.184  0.2964  0.2614  0.1673
    1W        W59814  12.367  18.691   1.890 -0.3290 -0.3786 -0.0065
    1W        W59815  27.069  22.153   7.477 -0.0052  0.2164 -0.1530
    1W        W59816  15.927  18.704   1.510 -0.2590 -0.0391  0.0532
    1W        W59817  20.394  28.109   1.869 -0.1834 -0.1988 -0.1207
    1W        W59818  11.756   8.377   7.393  0.2471 -0.0088 -0.0001
    1W        W59819   8.016  14.608   8.947 -0.1072 -0.0799 -0.2667
    1W        W59820  18.207  27.993   9.160 -0.1057 -0.1127  0.2610
    1W        W59821  28.811  13.394   8.372 -0.3201  0.2101 -0.0643
    1W        W59822   7.136   6.734   7.073 -0.4787  0.2128  0.1293
    1W        W59823   6.828   3.840   7.940  0.0100  0.0498 -0.1826
    1W        W59824   8.583  14.092   2.085 -0.1522  0.1709 -0.0459
    1W        W59825   9.161  29.243   7.136 -0.0457 -0.2242 -0.0413
    1W        W59826   6.248   2.827   0.186 -0.0826 -0.1144 -0.0083
    1W        W59827  25.357  16.097   0.679 -0.0240  0.1790 -0.0480
    1W        W59828  20.385  15.598   2.972 -0.2714  0.4190 -0.1758
    1W        W59829   8.748   3.321   9.150  0.2291  0.0783  0.0312
    1W        W59830  24.594  29.490   7.689 -0.5272 -0.0964 -0.1312
    1W        W59831   9.021  16.187   8.295 -0.0306 -0.1182 -0.0843
    1W        W59832   6.994  16.615   7.366  0.3398  0.0003  0.0771
    1W        W59833  25.134  20.313   8.643  0.1332 -0.0580 -0.2141
    1W        W59834  25.532  13.881   9.133  0.1929  0.3738  0.1438
    1W        W59835  12.920  29.080   1.275 -0.3397 -0.0270 -0.5049
    1W        W59836  19.385  10.019   8.121  0.2038 -0.0487  0.2713
    1W        W59837   5.433   5.749   6.861 -0.0130  0.1314  0.0541
    1W        W59838   4.634  13.738   6.439 -0.1002 -0.0566 -0.1990
    1W        W59839  26.836  22.732   2.804  0.1451  0.2563 -0.0019
    1W        W59840  19.607   3.794   8.988 -0.2131  0.0721  0.0094
    1W        W59841  26.415  15.716   2.335 -0.1914 -0.2447 -0.0601
    1W        W59842  25.483  16.215   1.177  0.2020 -0.5152  0.1024
    1W        W59843  21.930   6.615   7.098 -0.2239  0.0332 -0.0076
    1W        W59844   6.286   6.470   1.521  0.1170 -0.2723 -0.1613
    1W        W59845   3.904   2.735   0.451  0.0896 -0.0071 -0.0221
    1W        W59846   5.653  29.213   9.387 -0.0275  0.2359  0.0619
    1W        W59847  22.559  10.959   7.943  0.2110  0.1161 -0.1299
    1W        W59848  13.949  13.418   0.275 -0.1948  0.1070  0.0834
    1W        W59849   8.787  10.633   6.601 -0.2999  0.0251  0.3306
    1W        W59850  23.580  11.467   8.599  0.0152 -0.0845  0.1078
    1W        W59851  13.269  26.019   0.466 -0.0055  0.1530 -0.0074
    1W        W59852  24.889  15.300   7.316 -0.1525  0.5102 -0.1195
    1W        W59853  15.093   0.855   2.948 -0.1126 -0.1133  0.2745
    1W        W59854   3.643   5.131   6.757 -0.0106  0.0208  0.2065
    1W        W59855  14.823   5.181   7.824  0.0448 -0.1880 -0.0973
    1W        W59856  21.409  28.280   2.720  0.1455 -0.0054  0.0922
    1W        W59857   4.566   3.340   0.032 -0.0406 -0.3868  0.1428
    1W        W59858  18.067   6.651   0.882 -0.0376 -0.0905 -0.0074
    1W        W59859   2.826  10.524   8.508  0.1577 -0.1102 -0.4923
    1W        W59860  18.950  19.203   2.033 -0.0880 -0.1169 -0.4895
    1W        W59861   9.214  16.014   9.016  0.1363  0.1219 -0.2330
    1W        W59862  28.141  26.162   7.729 -0.4033 -0.2890 -0.0395
    1W        W59863  29.363  24.176   8.140  0.0774  0.0733 -0.3252
    1W        W59864  10.033  25.223   9.488  0.1412 -0.3625 -0.1801
    1W        W59865   5.993  10.854   8.509 -0.2188  0.1379  0.1625
    1W        W59866   3.277  23.012   8.389  0.0181 -0.1505  0.0021
    1W        W59867  23.091   6.299   9.537  0.1600  0.1252 -0.2057
    1W        W59868  13.635  20.347   1.044 -0.2396 -0.0319 -0.1270
    1W        W59869   0.434  23.786   2.894 -0.0500  0.4284  0.2479
    1W        W59870  21.664  21.616   0.657  0.2865  0.1152 -0.0466
    1W        W59871  11.703  10.902   8.810  0.1465  0.2185  0.0325
    1W        W59872   8.821  15.381   8.473 -0.0137  0.1794  0.1064
    1W        W59873  24.861  15.486   9.593 -0.0031 -0.1623  0.0658
    1W        W59874   3.683  15.488   2.159  0.0655 -0.1027  0.1809
    1W        W59875  28.116  12.173   7.749  0.0447 -0.0762  0.2679
    1W        W59876   6.759   7.262   1.632 -0.1101  0.0568 -0.1256
    1W        W59877   5.746  26.881   8.051  0.0247  0.0972 -0.1717
    1W        W59878   9.915  17.259   8.595 -0.0802 -0.4829  0.1521
    1W        W59879  24.573  24.620   3.353  0.1853  0.2540  0.0313
    1W        W59880   9.802  11.758   1.878 -0.0643  0.1739  0.0939
    1W        W59881  19.904   8.601   7.869  0.0041  0.2294  0.1441
    1W        W59882  22.402  21.440   9.555 -0.1835 -0.0815 -0.2480
    1W        W59883  19.123   8.664   0.110  0.0203 -0.0195 -0.1254
    1W        W59884   0.119   5.214   7.119  0.2786  0.1817  0.1300
    1W        W59885  18.094   3.208   3.221 -0.0948  0.4729  0.1388
    1W        W59886   7.560   0.384   0.649  0.5918  0.0637 -0.2901
    1W        W59887  11.270  29.395   8.725  0.0999 -0.0250  0.0745
    1W        W59888   0.103  20.043   8.377  0.1113 -0.0054  0.2149
    1W        W59889   9.198  19.562   8.474 -0.3316  0.0149 -0.0378
    1W        W59890   5.053  27.381   6.088  0.1019 -0.3181 -0.0271
    1W        W59891  18.390   5.409   8.017  0.0398 -0.2389 -0.0659
    1W        W59892   7.177  15.166   6.787  0.4749 -0.0570  0.2622
    1W        W59893   3.965  23.965   1.292  0.2167  0.5331 -0.1154
    1W        W59894  28.277  10.938   7.335  0.0779 -0.0903  0.2163
    1W        W59895  13.711   8.296   2.029  0.1573 -0.3532 -0.3078
    1W        W59896  11.055  18.613   7.480  0.3115  0.2448  0.1849
    1W        W59897  25.030  16.543   9.170  0.0743  0.0383 -0.1257
    1W        W59898  21.868  16.020   9.605  0.1459  0.3102  0.1919
    1W        W59899   1.126   9.794   8.460 -0.0764  0.1205 -0.0311
    1W        W59900  15.133  24.369   0.780  0.0669 -0.2201 -0.0141
    1W        W59901   2.096   5.352   6.597  0.3584 -0.1082 -0.0337
    1W        W59902   8.179  21.222   8.504  0.1953 -0.4453 -0.0916
    1W        W59903  15.929  21.945   7.980  0.0148 -0.1294 -0.4455
    1W        W59904  10.266  15.633   8.825  0.0118  0.1937  0.1020
    1W        W59905  16.053  17.722   7.119 -0.1086 -0.1427  0.0467
    1W        W59906  20.026  25.853   1.538 -0.1670 -0.1769  0.1076
    1W        W59907  10.021   1.809   7.960  0.2000 -0.0531  0.0672
    1W        W59908  24.243  13.098   2.939 -0.0752  0.1280 -0.0259
    1W        W59909  24.255  12.977   0.932 -0.0849  0.0252  0.0229
    1W        W59910   1.640  11.571   1.391 -0.0448  0.0293 -0.2952
    1W        W59911  10.566  19.471   2.004 -0.0125  0.0195  0.4647
    1W        W59912   6.185   9.350   7.111 -0.0513 -0.0292 -0.0414
    1W        W59913  12.903   1.730   7.376  0.0901 -0.3164 -0.0996
    1W        W59914   5.175  27.333   8.753  0.0224 -0.2655 -0.0488
    1W        W59915  18.752  21.239   0.780 -0.2263 -0.3725 -0.5099
    1W        W59916  16.700  13.851   8.359 -0.2179  0.2668 -0.2105
    1W        W59917   6.290  15.936   0.137  0.0050  0.1306  0.1783
    1W        W59918  17.784  22.751   9.268  0.0088 -0.1492 -0.0015
    1W        W59919   3.485  16.637   0.978  0.1090  0.0394 -0.0655
    1W        W59920  15.371  19.774   1.374  0.2649 -0.0109  0.3977
    1W        W59921  17.638   0.633   8.913 -0.2084 -0.1212  0.0013
    1W        W59922   4.793  26.140   7.589  0.0041 -0.2939  0.0482
    1W        W59923  14.263  16.668   1.777 -0.0642  0.0757  0.2538
    1W        W59924   7.167  10.363   9.120 -0.2427  0.2048 -0.0970
    1W        W59925  19.979  15.458   0.890 -0.2089  0.0317 -0.2132
    1W        W59926  16.085  16.323   9.018 -0.0511 -0.0820 -0.1355
    1W        W59927   7.060   9.337   0.078  0.3860 -0.0781 -0.2064
    1W        W59928   0.832  24.290   8.792  0.1116  0.3956  0.0261
    1W        W59929  17.867  15.961   2.656 -0.0564  0.0946  0.1646
    1W        W59930   2.496  24.055   8.927  0.0286 -0.0290  0.2485
    1W        W59931   9.399  16.393   0.830  0.2684  0.3643 -0.0890
    1W        W59932  20.985  28.146   9.600  0.0891  0.0326 -0.0580
    1W        W59933  13.631   1.884   9.527  0.1285 -0.0633  0.1622
    1W        W59934   9.347  24.656   6.656 -0.0012 -0.7197  0.2041
    1W        W59935  13.401   6.862   6.978  0.2179  0.1425 -0.0920
    1W        W59936  27.626  19.672   0.537  0.0069 -0.3484 -0.0360
    1W        W59937  12.185  25.733   1.881 -0.1577 -0.1102  0.2667
    1W        W59938   4.376  21.081   3.192  0.0929  0.0061 -0.0326
    1W        W59939   1.630  17.400   8.043 -0.1723  0.1585 -0.1508
    1W        W59940  19.568  29.503   7.176 -0.1602 -0.0841 -0.1421
    1W        W59941  11.935   9.302   3.024 -0.0464 -0.1553  0.0512
    1W        W59942  23.597  15.515   9.602  0.3056 -0.0144  0.2547
    1W        W59943  21.361   0.338   9.571 -0.0034  0.1441  0.3836
    1W        W59944   5.583   0.463   8.701  0.0047  0.0186 -0.0126
    1W        W59945  10.590   1.406   9.646 -0.2164 -0.0043 -0.0227
    1W        W59946  14.073   3.425   2.535  0.2798  0.1594 -0.1060
    1W        W59947  17.695  22.621   0.102  0.0669 -0.0422 -0.0781
    1W        W59948  27.129   5.745   7.420  0.2768  0.0380 -0.0173
    1W        W59949  17.788  23.736   2.649 -0.1082  0.0630  0.0457
    1W        W59950   6.080   9.108   6.498 -0.1006  0.2782  0.1090
    1W        W59951  16.633   9.205   1.505  0.1948 -0.2111  0.0154
    1W        W59952  27.988  12.883   0.239 -0.2080 -0.3064 -0.0434
    1W        W59953   6.033  23.492   7.474  0.0799 -0.0301 -0.1635
    1W        W59954  16.750  17.106   0.766  0.2839 -0.2157  0.0393
    1W        W59955   7.644  22.829   8.334 -0.2170 -0.0476 -0.0663
    1W        W59956  15.909  14.907   6.742 -0.0462  0.0803 -0.0265
    1W        W59957   9.262  15.292   3.148 -0.1459  0.2428  0.1014
    1W        W59958   0.099  12.493   7.077 -0.1853  0.0398 -0.0598
    1W        W59959   2.113  21.312   7.294 -0.2501 -0.1171  0.1902
    1W        W59960  26.340  20.575   0.621  0.0249 -0.0996 -0.1847
    1W        W59961   3.604   5.892   1.314  0.0011  0.1477  0.1953
    1W        W59962   6.906  11.361   6.345 -0.3972 -0.2129 -0.0080
    1W        W59963  10.133   4.392   1.792 -0.0884  0.3892  0.2418
    1W        W59964  15.844   9.172   6.570  0.0164 -0.1281  0.3081
    1W        W59965   4.332   9.879   0.540 -0.1724 -0.1537  0.2734
    1W        W59966  16.020  12.434   1.060 -0.1346  0.0357  0.2542
    1W        W59967  25.450  21.288   1.329  0.2491  0.1094  0.2148
    1W        W59968  28.861   0.646   3.452  0.0295 -0.2126  0.0619
    1W        W59969   8.459  28.398   7.879  0.3179 -0.2634 -0.0439
    1W        W59970  16.184  19.499   8.042  0.1967 -0.0448 -0.1034
    1W        W59971   6.786   5.775   0.638 -0.2977 -0.0875  0.1197
    1W        W59972  23.837  11.764   8.907 -0.0746  0.0184 -0.0188
    1W        W59973   8.584   7.278   5.805 -0.1624 -0.4075 -0.1252
    1W        W59974   0.801   2.324   1.795 -0.0539 -0.2328 -0.3202
    1W        W59975  10.459   7.385   2.155 -0.3482 -0.0359 -0.0800
    1W        W59976  11.964  10.851   6.120  0.1523  0.0482  0.0957
    1W        W59977  19.729   9.105   1.053  0.0747  0.0654  0.2548
    1W        W59978   8.228  17.933   6.208 -0.1774  0.2485  0.0164
    1W        W59979  27.670  11.842   9.310  0.4835  0.0347 -0.0423
    1W        W59980  20.237  28.581   0.056 -0.0160 -0.1149 -0.3446
    1W        W59981   8.227  28.207   9.381 -0.2071  0.1478  0.2138
    1W        W59982  15.991  15.099   8.205 -0.3363 -0.1679  0.3969
    1W        W59983  22.723  15.653   9.088 -0.1726 -0.0304  0.1047
    1W        W59984  22.180   1.611   2.047  0.0519 -0.0037  0.1100
    1W        W59985  23.064  14.440   7.422 -0.0886  0.0250  0.2700
    1W        W59986  16.805  16.447   7.524 -0.0750  0.3051 -0.0996
    1W        W59987   1.886  23.061   0.066  0.0993  0.1004 -0.1155
    1W        W59988  12.232   7.002   1.895  0.1812 -0.0190  0.3877
    1W        W59989   9.946  27.496   7.706 -0.1128  0.2050 -0.0056
    1W        W59990  18.235   9.661   2.097 -0.1312  0.4685  0.3320
    1W        W59991  28.179   0.997   2.022 -0.1147 -0.0175  0.3586
    1W        W59992  17.082  11.077   2.957  0.1189 -0.2151  0.1688
    1W        W59993  11.076  10.476   1.070  0.0075  0.3087  0.0110
    1W        W59994  18.126  26.732   1.122  0.1623  0.0278 -0.0178
    1W        W59995  15.888  24.226   1.650 -0.1383 -0.1323  0.2007
    1W        W59996   2.669  13.101   1.589  0.0057  0.1339  0.0406
    1W        W59997  22.820  25.510   9.415  0.3001 -0.2427 -0.1711
    1W        W59998  25.675   9.623   1.979 -0.1468 -0.0807 -0.0786
    1W        W59999  12.045  18.552   2.778  0.0615  0.0389 -0.0164
    1W        W60000  10.726   6.474   9.020 -0.0890 -0.0800  0.0703
    1W        W60001  12.947   8.184   6.289  0.0247  0.1661  0.0499
    1W        W60002  23.931  12.867   0.491  0.0031  0.1335 -0.1515
    1W        W60003  21.952  15.341   2.464  0.0078 -0.0508 -0.1908
    1W        W60004  20.205  23.339   8.865  0.0381 -0.4218 -0.0171
    1W        W60005  16.434   7.296   7.782 -0.0189 -0.2312 -0.1501
    1W        W60006   4.820   6.845   9.292 -0.1313 -0.0222 -0.2498
    1W        W60007  19.762  24.539   8.913 -0.0285  0.0062 -0.0151
    1W        W60008  26.943  28.249   3.299  0.0635  0.0084 -0.0068
    1W        W60009   5.517  23.688   1.677  0.2971  0.1091  0.0355
    1W        W60010  10.072   5.053   0.213  0.2405 -0.0783  0.1240
    1W        W60011   7.157   8.571   5.266 -0.2073 -0.2706 -0.0613
    1W        W60012  26.427  12.901   1.061  0.0892  0.0539 -0.2395
    1W        W60013  15.205  19.091   0.242  0.0568  0.1136  0.2900
    1W        W60014  16.180   2.069   6.739  0.0167  0.3773 -0.1939
    1W        W60015   2.438  23.073   9.615 -0.1024  0.1418  0.1274
    1W        W60016   4.610  13.604   8.619 -0.0594  0.1880 -0.0630
    1W        W60017   6.669   0.813   1.866  0.0064 -0.1412 -0.0042
    1W        W60018  18.379  16.399   8.379  0.1782  0.0073 -0.0130
    1W        W60019  20.993  11.214   1.571  0.1373  0.1452  0.1449
    1W        W60020  29.242  29.092   1.451  0.3284  0.0593 -0.4380
    1W        W60021  18.951   2.203   0.872  0.2509 -0.0238 -0.1252
    1W        W60022  26.216   7.124   7.795 -0.2036  0.3427  0.1528
    1W        W60023  20.952  23.689   8.248 -0.3992 -0.2446  0.1392
    1W        W60024  27.021  28.478   3.764  0.1044  0.0830  0.0861
    1W        W60025   2.293  16.366   0.507  0.1376 -0.2374  0.0490
    1W        W60026   4.754   4.669   0.827  0.1876 -0.2752 -0.2038
    1W        W60027   1.459   0.129   6.690  0.0253 -0.1610  0.1456
    1W        W60028  16.838  24.590   0.940  0.3438  0.0902  0.1968
    1W        W60029  19.877  28.299   8.799  0.1639  0.0984  0.1932
    1W        W60030  19.323  23.738   3.548  0.1378 -0.1382  0.1406
    1W        W60031  25.660  13.347   1.840  0.0893 -0.0551 -0.4396
    1W        W60032  15.627  25.120   1.412 -0.1837  0.1688 -0.2164
    1W        W60033  10.700  27.844   0.630  0.2296  0.1248 -0.0545
    1W        W60034   6.511  22.406   6.579 -0.0135 -0.2199 -0.0804
    1W        W60035  13.124   6.056   2.236  0.1329 -0.0837 -0.1606
    1W        W60036  22.575  27.123   8.913 -0.3263 -0.2477 -0.3711
    1W        W60037  27.313  11.417   8.474  0.1399  0.0041  0.1012
    1W        W60038  23.663   4.870   8.386 -0.0841 -0.0437 -0.3157
    1W        W60039  22.584  15.545   0.319  0.0829  0.1712  0.0556
    1W        W60040   2.238  14.831   0.627  0.2461 -0.0540  0.0708
    1W        W60041  25.158  19.137   1.406 -0.2725  0.2350 -0.5091
    1W        W60042   0.071  29.364   9.473  0.0582 -0.0263 -0.0375
    1W        W60043  15.419   4.139   0.235  0.0719 -0.4648 -0.0205
    1W        W60044  22.377   0.687   9.052  0.0674 -0.2160  0.4480
    1W        W60045  20.193  16.556   3.253 -0.2279 -0.0627  0.1637
    1W        W60046  16.420   1.195   2.363 -0.2542 -0.4018 -0.0983
    1W        W60047  16.638  22.967   8.092 -0.1794  0.1133  0.0123
    1W        W60048   4.254  25.634   7.855 -0.1024  0.1144  0.0032
    1W        W60049   7.442  11.909   9.573  0.1621 -0.1410 -0.0149
    1W        W60050  28.282  26.216   8.475  0.2897  0.0606 -0.0153
    1W        W60051  22.763  25.737   3.476 -0.0939 -0.1763  0.1624
    1W        W60052   6.683  14.811   8.688  0.3302 -0.0908 -0.1795
    1W        W60053  25.006  25.090   8.708  0.1606  0.1996 -0.1017
    1W        W60054  25.617   6.384   8.988  0.3128 -0.3771  0.2136
    1W        W60055   3.221  20.384   9.187 -0.0320  0.2179  0.3386
    1W        W60056  23.074   4.835   9.642 -0.3703  0.0944 -0.0973
    1W        W60057   2.107  19.099   8.401 -0.1450 -0.0700  0.1010
    1W        W60058  13.617  12.822   2.092 -0.1163 -0.1148  0.0099
    1W        W60059  16.201   7.668   7.522  0.1135 -0.3670 -0.1452
    1W        W60060  20.199  12.180   7.663  0.0577 -0.0348 -0.2024
    1W        W60061  11.957   3.467   8.614  0.0622  0.1418 -0.1569
    1W        W60062  24.615  24.409   2.661 -0.0193 -0.2244 -0.1722
    1W        W60063  10.254   5.675   8.996 -0.0420 -0.0356  0.0490
    1W        W60064  12.359  10.589   2.688  0.2170  0.0721  0.0614
    1W        W60065  18.520   5.200   7.025 -0.0742 -0.2441  0.2019
    1W        W60066  24.382   3.231   7.549 -0.1451  0.2437  0.0254
    1W        W60067  19.739   0.261   2.951  0.3571 -0.1885 -0.1329
    1W        W60068   4.171  22.423   0.777  0.3135  0.0260 -0.1183
    1W        W60069  21.486  22.717   3.200  0.1495 -0.3072 -0.1511
    1W        W60070  18.592  26.293   9.161  0.4652 -0.2744  0.1655
    1W        W60071  11.154  19.124   9.267 -0.1847 -0.1775  0.6325
    1W        W60072  24.205   1.568   2.659  0.0585 -0.0213  0.1965
    1W        W60073   1.839  23.793   9.503 -0.0644 -0.0965 -0.0127
    1W        W60074   9.912  27.739   6.909  0.1555 -0.4774  0.2151
    1W        W60075   6.983  28.957   8.115  0.1501  0.5214 -0.2586
    1W        W60076  12.462   6.530   6.256 -0.2637  0.0054  0.1301
    1W        W60077  18.025  20.560   8.132 -0.1187  0.2523  0.0873
    1W        W60078   4.762  16.908   7.772 -0.3337  0.0344 -0.1937
    1W        W60079  14.593   1.711   2.207 -0.0421  0.0341  0.2257
    1W        W60080   2.057  12.838   7.580  0.0728 -0.1125  0.1233
    1W        W60081   5.278  23.276   8.487 -0.0987 -0.2502 -0.0736
    1W        W60082  23.920  23.984   0.280  0.0169  0.2848  0.0037
    1W        W60083   1.350  10.493   8.394  0.1066 -0.0771  0.1570
    1W        W60084   7.779  12.759   0.801 -0.0324  0.2311 -0.0608
    1W        W60085  28.506  17.413   1.744  0.0376  0.0101 -0.1983
    1W        W60086  18.815   8.233   2.593 -0.3222 -0.3827  0.0132
    1W        W60087   2.924  27.246   6.948 -0.0844  0.0868 -0.0128
    1W        W60088   0.872  26.159   9.366  0.2570 -0.2739  0.0106
    1W        W60089  19.356  24.916   3.080 -0.2042  0.0918 -0.0358
    1W        W60090  20.615  27.773   3.041 -0.3350  0.2789  0.1172
    1W        W60091  10.736  26.498   8.804 -0.0340  0.1319 -0.1530
    1W        W60092  26.633   1.367   8.821 -0.3403  0.0518  0.2353
    1W        W60093   1.344  16.120   7.317 -0.1099  0.2489  0.1348
    1W        W60094  15.053   7.006   1.069 -0.2909  0.1111  0.3413
    1W        W60095   7.884   4.779   7.183  0.0415  0.2526 -0.0392
    1W        W60096  21.296   3.004   9.058 -0.3992 -0.3493 -0.0690
    1W        W60097  15.485  24.475   3.114  0.1064  0.2379  0.1531
    1W        W60098  22.521  17.702   8.525  0.4951 -0.0397  0.4629
    1W        W60099   2.653  15.745   8.942 -0.0477  0.0925 -0.2284
    1W        W60100  15.703  16.226   1.514 -0.0887  0.0959  0.2312
    1W        W60101  24.666  22.473   2.833 -0.1232 -0.0114  0.0460
    1W        W60102  29.325   2.699   7.552  0.3388 -0.5285 -0.2871
    1W        W60103   4.273  22.994   9.215 -0.0868 -0.0084 -0.0693
    1W        W60104  29.332  21.249   7.354  0.0818 -0.3182 -0.0921
    1W        W60105  17.060  17.726   6.808  0.1870 -0.2405  0.3897
    1W        W60106  13.551   4.019   2.672  0.0522 -0.2129  0.2555
    1W        W60107  14.546  24.803   6.676 -0.4642  0.0137 -0.0004
    1W        W60108  13.911  23.798   5.913 -0.1318 -0.0172  0.4040
    1W        W60109   3.984   0.014   1.475 -0.1853  0.0608 -0.1097
    1W        W60110  15.785   5.359   6.862  0.3983  0.0797 -0.0871
    1W        W60111  28.562  28.662   0.066 -0.0514 -0.0129  0.0057
    1W        W60112  12.702  21.496   8.725 -0.2519  0.2445  0.0642
    1W        W60113   6.472   0.501   8.330 -0.0176  0.0471 -0.0061
    1W        W60114  14.702  21.824   7.904  0.1597 -0.0451 -0.3743
    1W        W60115   0.079  10.251   1.640 -0.0630  0.0602 -0.0944
    1W        W60116  29.267   5.046   6.953 -0.0407 -0.2470  0.1512
    1W        W60117   7.485  14.775   0.777 -0.0680 -0.3151  0.1300
    1W        W60118   0.170   1.462   1.969  0.1892 -0.0559 -0.3776
    1W        W60119   0.384  21.371   0.054 -0.3370 -0.0006 -0.0478
    1W        W60120  13.734  19.253   2.118  0.0033  0.2062 -0.1655
    1W        W60121   4.904  13.616   6.053  0.3955 -0.1723  0.0081
    1W        W60122   0.671  18.866   0.004 -0.2089 -0.1966  0.2497
    1W        W60123  26.866  22.444   3.744 -0.0941  0.3185 -0.1358
    1W        W60124  28.152  19.380   8.017  0.1748 -0.1817 -0.1287
    1W        W60125  17.385   3.692   7.226  0.1919  0.0777 -0.1540
    1W        W60126  28.998  29.353   2.318  0.1647  0.1926 -0.0142
    1W        W60127  21.372  10.834   9.545  0.0432  0.2238 -0.1109
    1W        W60128  24.422  22.116   7.906 -0.1515 -0.2488 -0.4899
    1W        W60129  13.628  24.161   1.681  0.3976  0.0588  0.1581
    1W        W60130   1.292  21.265   8.749  0.0767 -0.1629  0.0532
    1W        W60131  22.568  28.175   2.327  0.2298  0.3172 -0.0249
    1W        W60132  13.566  10.482   8.007  0.4662 -0.0182 -0.1058
    1W        W60133  29.206  25.416   6.497 -0.1182  0.1462 -0.0568
    1W        W60134  28.139   3.680   9.281 -0.0629  0.0656  0.3000
    1W        W60135  13.329  27.087   1.757  0.3224  0.1577 -0.0286
    1W        W60136   5.533  23.631   0.005 -0.2051  0.0047  0.1599
    1W        W60137  16.674   1.475   8.950 -0.0344  0.0591 -0.0954
    1W        W60138   4.949  28.941   0.689 -0.3464 -0.0655 -0.1166
    1W        W60139  28.844  15.275   0.301 -0.1612 -0.1148 -0.1260
    1W        W60140  12.951   3.180   0.726 -0.1845  0.1703 -0.1217
    1W        W60141  15.622  29.356   7.579  0.0563 -0.1650 -0.2734
    1W        W60142   7.751  18.184   7.119 -0.0783  0.1269 -0.4041
    1W        W60143  10.293  26.911   0.719  0.0105  0.2652 -0.4760
    1W        W60144  27.320  20.915   4.427  0.2090 -0.1454  0.0534
    1W        W60145  14.515   0.530   7.541  0.0164  0.0580 -0.1475
    1W        W60146   4.205  28.306   0.140 -0.0227 -0.0263 -0.0175
    1W        W60147   0.413   9.865   6.644  0.1316  0.0132  0.0952
    1W        W60148   9.153  23.485   8.679  0.0103 -0.2237 -0.0478
    1W        W60149  14.358   5.422   5.936  0.1026  0.0992  0.2369
    1W        W60150  16.517  17.298   1.955 -0.0742  0.3196 -0.0336
    1W        W60151   3.970  24.537   7.575 -0.1037 -0.2368  0.0441
    1W        W60152  10.445   0.334   7.806  0.2407  0.0582  0.1852
    1W        W60153  25.991  14.242   8.906  0.0354  0.2306  0.3201
    1W        W60154  19.451   0.512   2.598 -0.0838 -0.0792 -0.1153
    1W        W60155   3.062   7.215   1.069 -0.2535  0.2509  0.0023
    1W        W60156  26.000   2.605   0.391 -0.1289  0.3933 -0.2203
    1W        W60157  19.176  11.378   8.106  0.0323  0.1384  0.0430
    1W        W60158  28.848  24.255   1.942  0.2951  0.0192 -0.0907
    1W        W60159  10.930  11.038   9.380 -0.0567 -0.0676  0.3155
    1W        W60160  18.167  19.190   7.064  0.1074 -0.0408 -0.3324
    1W        W60161   9.696  29.460   5.579 -0.0299 -0.2563 -0.2074
    1W        W60162  25.240  27.235   8.911  0.2314 -0.2329 -0.0239
    1W        W60163  13.641   5.121   2.177 -0.1363  0.0659  0.0569
    1W        W60164   0.059   7.438   0.174  0.1297  0.2194 -0.0726
    1W        W60165   2.919  23.292   2.744  0.1938  0.0341 -0.2704
    1W        W60166   2.457  19.574   0.723 -0.1322 -0.0028  0.0866
    1W        W60167  11.889  22.269   9.503 -0.1037 -0.3149  0.0004
    1W        W60168  20.736   4.256   8.405 -0.1587 -0.3432  0.0215
    1W        W60169  13.390   9.718   1.153 -0.2712 -0.0017 -0.1371
    1W        W60170  23.784  11.702   0.341 -0.0872 -0.0698  0.1328
    1W        W60171  22.247   2.557   1.784 -0.2389 -0.1124 -0.0457
    1W        W60172  22.790   4.659   7.213  0.0852  0.1600  0.2544
    1W        W60173   4.320   5.256   1.322  0.0568 -0.0829 -0.2255
    1W        W60174  24.126  10.856   9.568  0.0683  0.0523 -0.1516
    1W        W60175  27.606  23.338   0.531  0.1585 -0.2699  0.0061
    1W        W60176   0.608   7.391   6.966  0.2692 -0.1520 -0.1912
    1W        W60177  22.958   3.167   2.768  0.1188  0.0123  0.1914
    1W        W60178  20.889  20.439   1.734  0.1157 -0.0769 -0.1819
    1W        W60179  27.780  25.077   2.526 -0.0864  0.2496  0.1426
    1W        W60180  24.529  18.205   9.188  0.0419 -0.0586 -0.0351
    1W        W60181  15.946  26.906   1.004  0.0426  0.3236  0.0874
    1W        W60182  17.001  19.240   6.749 -0.0837 -0.0518 -0.0227
    1W        W60183  15.982  23.141   7.305  0.0984  0.0077 -0.0793
    1W        W60184   6.029  10.242   7.671 -0.2740  0.1560 -0.0035
    1W        W60185   5.169  12.190   0.231 -0.0455  0.1252 -0.1322
    1W        W60186  26.337  18.534   8.320  0.2942 -0.1516 -0.2334
    1W        W60187   3.588   6.416   7.574 -0.0744 -0.1854 -0.0568
    1W        W60188  12.915   6.608   5.190  0.0074  0.2952  0.2501
    1W        W60189   4.463   9.060   8.245 -0.0017  0.2099 -0.1053
    1W        W60190  20.222  24.782   2.635  0.1616  0.1632  0.4003
    1W        W60191  25.807  22.634   2.736 -0.4239 -0.2277  0.0985
    1W        W60192   9.819   3.453   1.791 -0.1240  0.0084  0.0672
    1W        W60193  10.119  11.461   7.419 -0.1066 -0.0136  0.0256
    1W        W60194  27.628   1.032   0.281 -0.2423 -0.0485 -0.1151
    1W        W60195  21.239   3.324   2.822 -0.1484  0.0713  0.4279
    1W        W60196  21.544  27.219   1.538 -0.4261  0.0531  0.0302
    1W        W60197   4.277  25.327   9.335  0.2169 -0.2092  0.2654
    1W        W60198   6.572  19.801   1.315  0.0136 -0.2073  0.4139
    1W        W60199  19.562  27.398   2.371  0.1192  0.1147 -0.2136
    1W        W60200  12.567  28.947   8.976  0.1318 -0.0471 -0.2525
    1W        W60201  17.891   8.899   7.369  0.1940 -0.0848  0.2948
    1W        W60202  24.190  18.396   7.270  0.0238 -0.1044 -0.1241
    1W        W60203  28.934  24.954   3.331 -0.1569  0.0230 -0.2255
    1W        W60204   1.726  15.574   7.039  0.0373  0.0422 -0.2028
    1W        W60205  29.546  17.525   2.164  0.2089 -0.1020  0.1194
    1W        W60206  14.339  20.409   9.087  0.0728  0.0357  0.2088
    1W        W60207   9.990   3.956   2.561 -0.1562 -0.0453 -0.1332
    1W        W60208   5.916   7.733   1.219  0.1620  0.1576  0.1671
    1W        W60209  15.547   8.484   7.228 -0.0085  0.2237  0.2264
    1W        W60210  20.808  14.913   0.012  0.0674 -0.0003 -0.2075
    1W        W60211   5.862  18.988   2.466  0.1232  0.1943 -0.3068
    1W        W60212   1.192  15.564   2.646 -0.0583 -0.1049 -0.0380
    1W        W60213  11.582  27.103   2.010  0.2574 -0.1434  0.0509
    1W        W60214  19.611  11.532   7.869  0.2858 -0.0259 -0.2597
    1W        W60215  29.043  10.219   1.366 -0.1574  0.0862  0.0775
    1W        W60216  26.167   3.566   0.020  0.0316 -0.0789 -0.0685
    1W        W60217  14.639   3.987   8.983  0.0573 -0.0663  0.0403
    1W        W60218  10.359   9.004   0.451  0.0758 -0.3343 -0.3680
    1W        W60219   2.082  15.259   6.685  0.0770 -0.0328 -0.1365
    1W        W60220   2.316  20.676   3.344 -0.2818  0.1522  0.1399
    1W        W60221  22.727   2.705   1.623  0.1191  0.0017  0.0725
    1W        W60222  18.986  18.646   3.102  0.0751  0.2440  0.0846
    1W        W60223   6.411  18.708   1.156  0.2702 -0.1081 -0.0793
    1W        W60224  27.061  17.560   0.552  0.0471  0.1102  0.3715
    1W        W60225  21.116  25.354   1.118  0.3055 -0.3952 -0.2580
    1W        W60226  16.113  15.183   1.553  0.0631 -0.1758 -0.0671
    1W        W60227   6.678  24.214   1.044 -0.0838 -0.1078  0.2311
    1W        W60228   3.909   3.375   9.477 -0.1934 -0.3497 -0.0686
    1W        W60229  17.425   8.858   1.463  0.0461 -0.0487 -0.0507
    1W        W60230   6.354  24.084   0.290 -0.1217  0.0306 -0.4659
    1W        W60231  10.299  19.642   8.518  0.1211  0.1022  0.1535
    1W        W60232  24.144  25.138   1.837  0.2330 -0.0073 -0.3506
    1W        W60233   4.136   4.494   8.935  0.0342 -0.1921 -0.2007
    1W        W60234   4.412  10.973   7.038  0.0549  0.1149 -0.2713
    1W        W60235   5.858  16.485   6.646 -0.0575  0.1195  0.1263
    1W        W60236  13.750  16.842   2.350  0.2118  0.0241  0.2428
    1W        W60237   3.256   3.967   6.770 -0.1640 -0.3016  0.1367
    1W        W60238   8.376   9.133   0.933 -0.0790 -0.0040  0.1921
    1W        W60239   7.759  17.070   1.186  0.1800  0.1493  0.0467
    1W        W60240  16.246   1.701   8.110  0.0656 -0.2631  0.0918
    1W        W60241  11.032  24.124   9.195 -0.0678  0.1893  0.1539
    1W        W60242  18.976   3.429   3.092  0.1016 -0.0690  0.1368
    1W        W60243  14.614  14.824   1.408  0.3560  0.2333 -0.1941
    1W        W60244  22.149   1.151   7.541 -0.1512 -0.0666  0.0214
    1W        W60245  24.072   3.328   0.174 -0.0137 -0.1905 -0.0964
    1W        W60246  13.680  18.312   2.499  0.2128 -0.0688 -0.1225
    1W        W60247  12.646  14.436   7.921 -0.0456 -0.1674  0.2175
    1W        W60248   8.252   2.967   6.918 -0.0655  0.0340  0.3714
    1W        W60249  27.065  28.542   0.504  0.1194 -0.0337 -0.1700
    1W        W60250  19.122  13.786   2.281 -0.2064  0.2138  0.2897
    1W        W60251  10.320  25.312   7.397  0.0223 -0.3207 -0.0765
    1W        W60252  20.578   6.283   0.818  0.1727  0.2628  0.1625
    1W        W60253   0.064   7.515   8.371 -0.1274  0.1164 -0.0818
    1W        W60254  25.424  21.232   8.913  0.0543  0.3025 -0.1400
    1W        W60255  13.581  28.845   0.567 -0.1606  0.1113  0.3369
    1W        W60256   7.865   0.618   1.540  0.1348  0.0378  0.0378
    1W        W60257  23.390   5.516   1.490  0.0673 -0.0356  0.2823
    1W        W60258  28.597  16.439   1.771  0.0462 -0.0380  0.0504
    1W        W60259  16.603  27.905   9.568 -0.2213  0.0391 -0.1401
    1W        W60260   4.038   6.810   9.035  0.1878 -0.3984 -0.0059
    1W        W60261  17.578  12.814   9.528 -0.1104  0.3803  0.1449
    1W        W60262  11.750   9.448   2.580 -0.0795  0.0862  0.5220
    1W        W60263  20.698  17.926   7.822 -0.0041  0.0682 -0.1371
    1W        W60264   6.684  28.167   1.974  0.2339 -0.1553 -0.0999
    1W        W60265  26.174  14.914   7.034  0.2371 -0.0490 -0.0047
    1W        W60266   8.610  16.949   2.342  0.2789 -0.1664 -0.2765
    1W        W60267  16.619  17.588   9.556  0.1706 -0.2409  0.2084
    1W        W60268   2.020   7.956   1.410 -0.0079 -0.0908 -0.0440
    1W        W60269  25.168  10.292   8.605 -0.1480  0.1495  0.0117
    1W        W60270   2.090  18.180   7.685 -0.1617 -0.0701 -0.3743
    1W        W60271   3.955   4.103   7.419 -0.2535 -0.0069  0.1519
    1W        W60272   8.742  29.325   8.058  0.1329  0.1517 -0.0624
    1W        W60273  26.433   6.512   1.765 -0.0411  0.2176  0.1429
    1W        W60274  25.877   5.410   1.866 -0.1066  0.1380  0.0683
    1W        W60275  17.501  29.353   3.239  0.3712 -0.4288 -0.0144
    1W        W60276  25.354  21.584   0.016  0.0721 -0.0058 -0.0717
    1W        W60277  24.166  10.344   9.450 -0.2156  0.0375 -0.2484
    1W        W60278   4.783  10.201   1.535 -0.3247 -0.1579  0.2190
    1W        W60279  16.780  15.565   8.365  0.0934  0.0418 -0.0398
    1W        W60280   6.918   6.716   6.620 -0.1123 -0.0576 -0.0712
    1W        W60281  20.944  23.735   2.333 -0.1035 -0.2250 -0.0653
    1W        W60282  12.811   3.507   7.952 -0.1068 -0.1136 -0.0484
    1W        W60283  27.134  19.066   9.302 -0.2111  0.0894  0.0193
    1W        W60284  26.866  24.953   9.324  0.3451  0.1788 -0.1177
    1W        W60285   6.887  17.677   0.292 -0.0390 -0.1932 -0.2113
    1W        W60286   5.540  13.063   9.175 -0.0023 -0.0162 -0.2309
    1W        W60287   0.636  27.479   0.026 -0.1241  0.0629 -0.4153
    1W        W60288  12.949   9.290   8.022  0.1414  0.0648  0.1486
    1W        W60289  24.028  28.874   0.655  0.2158  0.1591  0.1309
    1W        W60290  11.789  11.384   8.604 -0.1062  0.0192  0.0697
    1W        W60291  10.522  18.375   1.748 -0.1675 -0.1782  0.1880
    1W        W60292  11.345   9.892   8.788  0.2328 -0.0279 -0.5311
    1W        W60293  12.849  26.109   1.266 -0.1637 -0.2137  0.1557
    1W        W60294  27.566  10.977   2.105  0.1387  0.2316  0.0677
    1W        W60295  18.884  18.552   7.600 -0.0271 -0.0479  0.0508
    1W        W60296  29.417   3.637   2.450  0.1070 -0.1574  0.0247
    1W        W60297  22.976   3.828   8.517  0.2632 -0.5457 -0.2369
    1W        W60298  13.425  10.554   3.015  0.0698 -0.1530 -0.1292
    1W        W60299  13.131  10.287   9.256  0.1049 -0.2688  0.2644
    1W        W60300  13.233  19.601   0.442 -0.2090 -0.3183 -0.2105
    1W        W60301  13.455   9.907   7.892 -0.0138  0.0462  0.0394
    1W        W60302  17.010   5.503   0.297 -0.2776  0.1431  0.1379
    1W        W60303  18.494  25.607   0.686 -0.3737  0.1235 -0.1308
    1W        W60304   3.334   3.052   6.521 -0.4714  0.1649  0.0479
    1W        W60305  15.297   3.781   2.583  0.1733  0.3579 -0.0332
    1W        W60306   2.438  12.248   9.324 -0.0162  0.1008 -0.0288
    1W        W60307   4.280   8.217   6.183  0.4426  0.0767 -0.2081
    1W        W60308  24.696  13.894   0.774  0.0953 -0.1473  0.1861
    1W        W60309  14.850   4.807   8.144  0.0316  0.4242 -0.1237
    1W        W60310  17.504  27.720   1.781  0.0978 -0.3917 -0.0298
    1W        W60311  19.767  11.135   1.497  0.1844 -0.3012  0.0970
    1W        W60312   5.595  22.303   1.931 -0.0966  0.0287 -0.0324
    1W        W60313  14.888  19.782   1.547 -0.1704  0.1223  0.2455
    1W        W60314  20.986  26.144   8.792  0.1088  0.1802 -0.1617
    1W        W60315  14.836  14.760   9.585  0.0089  0.0809 -0.0948
    1W        W60316   8.207  28.743   7.393  0.2166 -0.0401  0.0054
    1W        W60317  13.320   2.105   8.625 -0.1695 -0.0368  0.0822
    1W        W60318  29.148   3.525   1.482  0.0742 -0.0534  0.1247
    1W        W60319   0.351   5.059   0.320 -0.2508 -0.2235 -0.0097
    1W        W60320   4.917   0.832   8.126  0.2311 -0.0539  0.1565
    1W        W60321  25.940  11.881   8.885 -0.0446 -0.1042 -0.1255
    1W        W60322   9.804  24.064   7.489 -0.1119 -0.2335 -0.3305
    1W        W60323  22.483  28.163   1.380 -0.0201 -0.2487 -0.2159
    1W        W60324   2.032  24.397   6.505 -0.0574 -0.4111  0.1318
    1W        W60325  25.515  12.894   9.376 -0.2486 -0.0203 -0.1554
    1W        W60326  28.044   6.782   0.773  0.0394  0.1369  0.1175
    1W        W60327  27.468  13.140   9.331  0.0530  0.0441 -0.0084
    1W        W60328  23.657  24.043   7.420 -0.0069  0.1864  0.2007
    1W        W60329  13.359   1.264   1.588  0.1624 -0.0737 -0.0476
    1W        W60330  13.937   3.215   3.088  0.2168 -0.0435  0.0430
    1W        W60331  18.566  13.727   1.993 -0.0355  0.0152  0.1836
    1W        W60332  10.576  18.033   6.903  0.1151 -0.2554 -0.0191
    1W        W60333   7.524  10.216   0.514  0.1026 -0.4182 -0.0202
    1W        W60334  18.654   1.933   7.257  0.2000 -0.2041 -0.0495
    1W        W60335  12.049  10.288   2.002 -0.1456  0.2038 -0.0082
    1W        W60336   0.506  17.586   8.193 -0.3338 -0.1048  0.0743
    1W        W60337  28.336  19.911   0.875 -0.1506 -0.2306  0.1601
    1W        W60338  10.893  15.360   2.283 -0.0071 -0.2393 -0.0473
    1W        W60339  13.882   9.635   0.982 -0.2195 -0.0145  0.0543
    1W        W60340   2.949   4.088   7.742 -0.3041 -0.0033  0.2726
    1W        W60341  24.693  15.580   1.027 -0.1869  0.4831 -0.1336
    1W        W60342  21.364  10.358   7.485 -0.2445  0.0276  0.2237
    1W        W60343  20.017   7.421   8.095  0.1009 -0.0654  0.2214
    1W        W60344   4.782   4.983   1.255 -0.1571 -0.2042 -0.1792
    1W        W60345  10.134  29.547   0.323 -0.0596 -0.0403 -0.1802
    1W        W60346   4.690   8.121   0.101  0.2344  0.1623  0.0555
    1W        W60347  28.174  11.394   8.938 -0.0258 -0.0823  0.0198
    1W        W60348   3.097  11.788   7.675  0.3138  0.3485  0.2228
    1W        W60349   3.382   7.605   7.334  0.5154 -0.0103 -0.0423
    1W        W60350   5.233  27.460   2.000  0.2598 -0.0093  0.0213
    1W        W60351   9.027  15.643   1.993 -0.0860 -0.0181 -0.1286
    1W        W60352  11.141   1.839   8.697  0.1708  0.3180 -0.1379
    1W        W60353  10.430  22.420   0.217 -0.2109  0.0148 -0.0904
    1W        W60354  24.222  22.478   0.995  0.1813  0.3158  0.2346
    1W        W60355  25.919  12.789   2.371  0.0831 -0.3349  0.0351
    1W        W60356  28.380   1.234   1.590  0.2450  0.0102 -0.0320
    1W        W60357  24.733   8.984   7.463 -0.1083 -0.1301  0.4182
    1W        W60358   8.784  13.402   1.094 -0.1343  0.0068 -0.0635
    1W        W60359  10.684   2.966   2.036 -0.2734 -0.0693 -0.1785
    1W        W60360   4.168  13.037   2.604 -0.2228  0.1311 -0.0388
    1W        W60361   7.604  19.512   8.718 -0.2845  0.0098  0.0121
    1W        W60362   3.670  18.498   0.910  0.0800  0.2026  0.0428
    1W        W60363  25.147  25.575   8.558  0.0182  0.2544  0.2223
    1W        W60364   0.685  11.033   1.492  0.1614  0.1415  0.1210
    1W        W60365  15.137  15.216   2.276 -0.0303 -0.0775  0.2262
    1W        W60366  24.072  29.267   2.307 -0.0572 -0.3338 -0.0811
    1W        W60367  29.175  23.824   0.340 -0.1594  0.4354  0.1935
    1W        W60368   3.919   0.739   0.966  0.2607  0.2818 -0.0481
    1W        W60369  11.474  11.657   7.189 -0.1777  0.0863 -0.1258
    1W        W60370  21.693  14.761   2.123 -0.0879 -0.0774  0.0095
    1W        W60371   4.079  18.722   0.527 -0.3824 -0.2153  0.0316
    1W        W60372  25.102   7.699   8.130 -0.3016  0.4106 -0.2071
    1W        W60373   2.109  19.029   7.477 -0.1411  0.1228  0.0132
    1W        W60374  28.758   6.742   8.217  0.1732  0.0105  0.0920
    1W        W60375   4.094   5.151   8.933  0.0774 -0.0325  0.1150
    1W        W60376  28.339   4.115   6.899  0.1409  0.1189  0.1025
    1W        W60377   4.578   1.823   8.946  0.0172 -0.0916 -0.2957
    1W        W60378   2.117  12.084   6.461 -0.1120  0.1729  0.2787
    1W        W60379  16.147  27.388   0.729 -0.3494  0.0531 -0.0623
    1W        W60380  24.749   5.280   0.512  0.2280  0.0661  0.0600
    1W        W60381  11.703  27.472   0.577  0.2238  0.0671  0.2406
    1W        W60382  22.038  21.980   8.365 -0.3661  0.0366  0.1429
    1W        W60383  18.078  22.300   7.477 -0.1659  0.2056  0.3081
    1W        W60384  19.902   9.144   9.251 -0.1996 -0.0567 -0.0920
    1W        W60385   5.591   1.997   7.493  0.0526  0.0766 -0.1672
    1W        W60386  19.850   3.499   9.316  0.2503  0.3466 -0.0765
    1W        W60387  24.055  11.171   6.797  0.0533 -0.1449  0.0604
    1W        W60388  13.341  17.609   9.486 -0.2142 -0.0510  0.4346
    1W        W60389  11.776  24.569   2.404  0.0498  0.1902  0.0007
    1W        W60390   4.723   0.497   6.308  0.0667  0.5076 -0.1492
    1W        W60391  19.114  24.944   8.258  0.3607 -0.1940  0.0228
    1W        W60392  11.507  22.249   7.044 -0.1266 -0.0950  0.0998
    1W        W60393   1.402  23.795   3.614  0.2937 -0.2043 -0.1952
    1W        W60394  22.894  15.121   0.425  0.1547  0.1711 -0.1513
    1W        W60395  13.733  19.224   2.806 -0.3818  0.1362  0.0319
    1W        W60396   1.213   9.309   9.180 -0.0904 -0.1998 -0.1433
    1W        W60397  29.130  17.810   2.205 -0.1629 -0.0774  0.3836
    1W        W60398  17.460  21.487   1.328  0.0829 -0.0245  0.0184
    1W        W60399  10.985  19.938   9.303  0.2652 -0.3780  0.0241
    1W        W60400   7.788  21.973   7.590  0.1945 -0.1362 -0.0679
    1W        W60401   3.758   1.737   9.238  0.1529  0.2213  0.1098
    1W        W60402  25.992  29.375   9.171 -0.1455 -0.3450 -0.1519
    1W        W60403   8.608   2.717   6.687 -0.0165  0.2683  0.0288
    1W        W60404  16.599   1.517   7.535  0.0669  0.1510 -0.2872
    1W        W60405  14.771   0.662   7.932 -0.3317 -0.1126 -0.0154
    1W        W60406   5.710  13.565   7.164  0.2041  0.0903 -0.0072
    1W        W60407  14.641  17.602   8.045  0.2267 -0.0332  0.1196
    1W        W60408  12.195  20.514   0.530  0.1145 -0.2939 -0.1144
    1W        W60409  15.673  28.025   0.418  0.0827  0.2128  0.2019
    1W        W60410  12.748  22.513   0.610  0.0388  0.1564 -0.3760
    1W        W60411  17.513   5.034   0.784  0.0540  0.1634  0.0258
    1W        W60412  23.652  21.005   1.883  0.1701  0.2085 -0.0362
    1W        W60413  23.105  19.551   8.121 -0.1166 -0.0535  0.2673
    1W        W60414   3.809  16.308   9.256 -0.0696 -0.1429 -0.0195
    1W        W60415   9.982  20.471   1.076  0.1266 -0.1643 -0.1175
    1W        W60416  11.207   5.492   7.218  0.0694 -0.0065  0.1366
    1W        W60417  26.056  19.359   7.183  0.0835 -0.0325 -0.3570
    1W        W60418   1.441   5.269   8.936 -0.2289 -0.1194 -0.0031
    1W        W60419  22.522  19.163   0.768 -0.0981 -0.0680  0.3278
    1W        W60420  22.943   4.218   2.173 -0.0965 -0.1029 -0.1125
    1W        W60421   7.364   1.256   9.036  0.0214 -0.2368 -0.1275
    1W        W60422  16.236  27.344   1.226  0.2899  0.1694 -0.0045
    1W        W60423   1.154  24.688   1.069  0.0702 -0.3667  0.2956
    1W        W60424  21.502  16.073   1.665 -0.0417  0.3040  0.1628
    1W        W60425  15.712  25.491   8.579 -0.0723  0.1849 -0.2798
    1W        W60426  15.164   4.595   2.975  0.0701 -0.2396  0.2536
    1W        W60427   0.907   1.547   5.678  0.2673  0.1224  0.5465
    1W        W60428  11.672  23.146   8.691  0.1651 -0.2844  0.0482
    1W        W60429  20.418   2.006   7.825 -0.1073 -0.0230  0.3102
    1W        W60430  18.594  19.093   8.592 -0.0625 -0.0437 -0.1592
    1W        W60431   6.187  12.380   7.820 -0.1595  0.0906 -0.0956
    1W        W60432   3.015  20.671   9.644  0.0926  0.1647  0.1489
    1W        W60433  16.932   6.774   1.037 -0.1910  0.0828 -0.0098
    1W        W60434  13.671   2.204   0.325 -0.1531  0.0613 -0.0556
    1W        W60435  28.313  14.347   9.616 -0.0635  0.0663 -0.0397
    1W        W60436  22.671  26.413   0.059 -0.2326 -0.1587  0.2275
    1W        W60437   9.130  24.954   0.135  0.1842  0.1685  0.2216
    1W        W60438  23.433  17.495   9.040 -0.1716  0.0796 -0.1172
    1W        W60439  11.851  22.531   7.867 -0.1914 -0.1365 -0.1242
    1W        W60440  13.882  12.010   7.640  0.0639  0.0051  0.0174
    1W        W60441  16.001  16.883   7.754 -0.1978 -0.2441  0.1634
    1W        W60442   0.455   2.694   6.801 -0.0035  0.4930  0.2470
    1W        W60443  11.656   4.709   1.574  0.1470 -0.1661  0.2976
    1W        W60444  26.517  11.843   1.437 -0.4029 -0.0256 -0.0808
    1W        W60445  14.991   7.680   1.798 -0.0598  0.3348  0.1735
    1W        W60446  12.362   7.233   9.198 -0.0912 -0.0556 -0.1422
    1W        W60447   4.417  24.932   2.620 -0.2478 -0.0961  0.0068
    1W        W60448  15.856  24.974   2.404 -0.1058  0.4445  0.2310
    1W        W60449  25.248  17.466   7.306 -0.1291  0.0620  0.0401
    1W        W60450  11.617  19.832   0.842 -0.0442  0.1204 -0.0594
    1W        W60451   3.392  11.722   9.376  0.0618 -0.5046 -0.2639
    1W        W60452  20.288   8.698   1.721  0.1351 -0.0163  0.0691
    1W        W60453  21.773   5.274   7.240 -0.0444  0.1002 -0.2356
    1W        W60454  24.405   1.180   1.154  0.0574 -0.0219 -0.0805
    1W        W60455   5.406   6.648   8.034  0.0542  0.0541 -0.0414
    1W        W60456  22.356   5.128   8.087  0.1207  0.0846  0.3167
    1W        W60457  23.438  22.533   0.960 -0.1004  0.0328 -0.3107
    1W        W60458  20.287  21.478   0.296 -0.1538  0.3833  0.2474
    1W        W60459   3.692  26.171   1.407 -0.0131 -0.1796 -0.1176
    1W        W60460   3.728   5.725   0.663 -0.2042  0.1672  0.0428
    1W        W60461  27.454  22.971   7.314 -0.2484  0.2414  0.2062
    1W        W60462  19.624   6.994   9.061 -0.0016  0.1967  0.1529
    1W        W60463  24.579  19.391   9.348  0.1285  0.1697  0.2741
    1W        W60464  18.723  26.452   0.900 -0.2336  0.1483 -0.1760
    1W        W60465  16.488  24.022   7.525  0.1318 -0.1664  0.0897
    1W        W60466  23.241  23.732   2.586  0.2576 -0.2891 -0.0357
    1W        W60467  13.551  16.435   0.003 -0.3322  0.0513  0.2677
    1W        W60468  25.281  21.879   8.180  0.1062  0.1469 -0.1698
    1W        W60469   1.449  28.434   2.516  0.2888  0.1751 -0.5169
    1W        W60470   8.646  14.718   0.866  0.2726 -0.2348 -0.4237
    1W        W60471  15.854   3.862   0.993 -0.1172  0.1928  0.2527
    1W        W60472   6.010  22.603   2.126 -0.1336 -0.4621  0.4121
    1W        W60473  27.031   7.790   6.963 -0.1250 -0.1691  0.1177
    1W        W60474  14.405  16.490   9.398  0.0899 -0.0701  0.0374
    1W        W60475  24.821  27.921   6.807  0.0858  0.1450 -0.0652
    1W        W60476  12.915   8.609   1.470 -0.0687 -0.1643  0.3392
    1W        W60477  23.697  17.007   8.059 -0.2979  0.0511 -0.0164
    1W        W60478  16.032  20.392   8.232 -0.0718 -0.1089 -0.0379
    1W        W60479  25.050  17.060   8.463 -0.1618 -0.1886  0.1324
    1W        W60480  22.670  19.857   3.420  0.0999 -0.0193  0.1849
    1W        W60481   0.143  11.890   8.976  0.2301  0.0645 -0.0124
    1W        W60482  28.796  19.473   7.505 -0.1387  0.0310  0.4453
    1W        W60483  21.033   1.707   9.505 -0.3581 -0.3128  0.0960
    1W        W60484  17.984  10.504   0.600  0.0430  0.0097  0.1672
    1W        W60485   4.879  27.224   3.691  0.0246  0.1683 -0.1145
    1W        W60486   0.274  25.326   7.368  0.2780  0.0753 -0.2969
    1W        W60487  16.250  20.361   1.051  0.1899  0.0757 -0.2850
    1W        W60488   9.579   5.920   7.736  0.2295  0.0883  0.2779
    1W        W60489   0.637  12.671   1.262  0.0798 -0.0169  0.2658
    1W        W60490   1.500   0.299   0.611  0.0320  0.2698 -0.2502
    1W        W60491   4.261  21.637   0.834 -0.2447 -0.0556  0.0309
    1W        W60492   7.862  16.420   6.350  0.2577 -0.0383  0.1527
    1W        W60493  22.794  22.442   2.533  0.0052 -0.1172  0.1101
    1W        W60494  19.961  29.168   3.750 -0.0118  0.0893  0.0924
    1W        W60495   9.713  18.848   8.277 -0.0484  0.0355 -0.1941
    1W        W60496  15.324  13.201   7.576  0.1449 -0.2530  0.0597
    1W        W60497  12.305  22.162   7.831 -0.0125 -0.3224  0.0037
    1W        W60498  19.081  17.844   2.362  0.1122  0.1317 -0.3363
    1W        W60499  20.443  15.110   2.246  0.0239 -0.1731  0.0516
    1W        W60500   9.699   2.917   6.265 -0.0374  0.2553  0.0695
    1W        W60501  20.406   2.265   0.091 -0.0352 -0.3539  0.1794
    1W        W60502  14.963  10.162   2.302 -0.0231 -0.2330 -0.1729
    1W        W60503   3.876   7.746   8.045 -0.2128 -0.1232 -0.0511
    1W        W60504   8.869   7.434   7.681  0.2983  0.0168  0.0580
    1W        W60505   7.846  11.273   8.609  0.2942  0.0952  0.2555
    1W        W60506  11.756  14.290   2.580 -0.0152 -0.0378 -0.3271
    1W        W60507   6.182  12.882   7.629  0.0684 -0.1810 -0.1118
    1W        W60508   3.630  25.105   9.168 -0.0345  0.1348 -0.1833
    1W        W60509   9.110  15.771   8.572  0.0096  0.0630 -0.0205
    1W        W60510   9.949  23.171   2.225 -0.0184 -0.2417  0.1000
    1W        W60511   7.707  19.213   0.310 -0.0042  0.5859 -0.1725
    1W        W60512  28.913  25.381   8.794 -0.1239  0.0774  0.1584
    1W        W60513  16.375  29.137   2.438 -0.0558 -0.0225 -0.2338
    1W        W60514  28.027   2.360   9.008  0.3391 -0.0055 -0.0554
    1W        W60515  24.130  13.569   8.176  0.1515 -0.2179 -0.0453
    1W        W60516   0.559   6.044   0.038 -0.3721 -0.2006  0.1779
    1W        W60517   8.520   4.821   2.690  0.1708  0.1536  0.1807
    1W        W60518   8.634   6.264   8.653 -0.1597  0.2170  0.0681
    1W        W60519  17.479  16.292   2.735 -0.2544 -0.1708  0.0387
    1W        W60520   2.686  27.804   0.425  0.3624 -0.2264  0.1537
    1W        W60521  14.130  21.965   2.408 -0.2768 -0.1567  0.1110
    1W        W60522   5.615  25.370   9.088  0.0824  0.1339 -0.0903
    1W        W60523  21.672  16.653   3.049 -0.0164 -0.0913 -0.0671
    1W        W60524  15.878  18.073   1.894 -0.0347  0.1735  0.1358
    1W        W60525  29.191  28.836   6.881 -0.1563 -0.0539 -0.0138
    1W        W60526   4.999   5.769   6.485 -0.0064 -0.1809 -0.0143
    1W        W60527  21.099  25.787   8.401  0.2071 -0.1602 -0.2507
    1W        W60528  23.145  18.759   1.871 -0.0649  0.0045 -0.0485
    1W        W60529   0.475  12.770   7.288 -0.1271  0.2625  0.0688
    1W        W60530  22.744  20.313   0.818  0.0020  0.1413 -0.3047
    1W        W60531   0.651  18.415   1.190 -0.0700 -0.0077 -0.2156
    1W        W60532   1.331   0.779   8.329  0.1721  0.1292  0.0719
    1W        W60533  11.823   7.365   7.400 -0.0553 -0.0316  0.1881
    1W        W60534   2.061   0.225   6.573  0.2532 -0.1232 -0.3212
    1W        W60535   2.735  23.566   3.335  0.0757  0.0598 -0.2215
    1W        W60536  19.354  24.985   8.713  0.3920  0.1574 -0.0703
    1W        W60537   4.569  23.345   2.485 -0.4640 -0.1016 -0.1785
    1W        W60538  25.985   5.102   0.969 -0.1004  0.2345  0.0548
    1W        W60539  18.114   2.888   1.544  0.1616 -0.0556  0.1283
    1W        W60540  27.862   2.466   2.781 -0.2619 -0.0425  0.0730
    1W        W60541  29.617   5.268   6.595 -0.1502 -0.0766 -0.0272
    1W        W60542  10.239  19.633   0.555 -0.4035 -0.1171 -0.0157
    1W        W60543   0.059  27.508   3.703  0.0949 -0.0259  0.1358
    1W        W60544  29.082   4.867   5.952 -0.2208 -0.0351 -0.1304
    1W        W60545  13.103   2.188   5.924  0.0184  0.0107  0.2261
    1W        W60546  18.742  26.810   1.910  0.2581  0.0264 -0.0310
    1W        W60547  10.159  24.585   1.420  0.4290 -0.2021  0.3716
    1W        W60548  22.745  23.539   3.217  0.0493  0.1334  0.1589
    1W        W60549  12.719  23.551   9.429 -0.0325 -0.2290  0.2037
    1W        W60550   4.075  11.082   0.029 -0.1958  0.2821  0.2235
    1W        W60551  19.533  28.536   6.902  0.2261 -0.0135  0.1910
    1W        W60552   1.900   9.829   8.772 -0.0083  0.3055  0.1873
    1W        W60553  22.244  28.267   2.864 -0.0045  0.2431  0.1383
    1W        W60554  13.209  18.694   2.198  0.1013  0.3779  0.0440
    1W        W60555  23.048  29.243   0.372  0.2967  0.1608  0.1128
    1W        W60556  13.135   4.906   6.885  0.1322 -0.1805  0.2105
    1W        W60557   6.460  10.718   6.675  0.2316 -0.1053  0.2256
    1W        W60558   4.088  21.546   3.076 -0.1017  0.1894  0.1952
    1W        W60559  18.690   2.549   0.361 -0.0646  0.0330 -0.0048
    1W        W60560  24.773   7.514   7.776 -0.0724 -0.2164  0.0227
    1W        W60561  22.189  22.941   8.231  0.1801  0.0641  0.2988
    1W        W60562   6.702  21.267   7.599  0.1446  0.2109 -0.0056
    1W        W60563  23.582   2.984   8.120 -0.1246  0.0152  0.1233
    1W        W60564  26.501  13.732   8.834  0.0544  0.1178  0.2163
    1W        W60565  18.740   4.308   8.233  0.4467 -0.0268  0.0516
    1W        W60566   0.433  24.468   8.488  0.1382  0.1290 -0.1994
    1W        W60567  25.810   6.943   7.288 -0.0288 -0.7411  0.0946
    1W        W60568  21.781   2.526   1.151  0.0782 -0.1008 -0.0111
    1W        W60569  11.323  20.073   8.945  0.2108 -0.2861  0.2816
    1W        W60570  16.450  24.423   8.705  0.0598  0.3257 -0.1047
    1W        W60571   5.187   1.780   7.672 -0.0106  0.0046  0.0342
    1W        W60572   7.521   0.238   1.778 -0.2167 -0.0776  0.1147
    1W        W60573  19.449  25.127   0.405  0.0769  0.0922  0.4898
    1W        W60574  25.089   2.714   0.736 -0.3676  0.1971  0.1231
    1W        W60575   9.615  17.202   0.239 -0.3638 -0.2085  0.0449
    1W        W60576  12.706   5.165   1.789  0.1938 -0.1489  0.3602
    1W        W60577  16.410  28.360   7.323 -0.1840 -0.0785 -0.0769
    1W        W60578  24.941  28.611   1.653 -0.1136  0.2080  0.1416
    1W        W60579   0.723  22.292   6.990 -0.0623  0.0815 -0.2398
    1W        W60580   4.813   4.107   2.826  0.0841 -0.2518  0.0836
    1W        W60581   0.996  26.535   1.529 -0.1029 -0.0284 -0.3114
    1W        W60582  11.842   2.152   0.250  0.3034  0.0700 -0.3066
    1W        W60583  18.228   8.793   9.037 -0.1023 -0.0747  0.0720
    1W        W60584  23.677  25.753   2.136 -0.3891 -0.2104  0.0059
    1W        W60585  24.290   7.039   7.094 -0.4261  0.0596  0.0290
    1W        W60586   4.039  12.069   0.828 -0.0326 -0.0664  0.0402
    1W        W60587   3.530   6.839   1.643  0.0511 -0.2113  0.3054
    1W        W60588  16.598  16.021   7.058  0.2833 -0.3544 -0.0022
    1W        W60589  17.221  19.768   7.973  0.0234 -0.1701 -0.0725
    1W        W60590  21.425  16.059   1.102 -0.2289 -0.1808 -0.2648
    1W        W60591  26.981  22.221   9.302 -0.1838  0.1892  0.1073
    1W        W60592  27.326  27.162   2.117  0.1149 -0.1437 -0.1755
    1W        W60593   1.789  22.426   8.843 -0.1340  0.1223  0.0937
    1W        W60594   1.502   7.644   7.678  0.2244 -0.0537 -0.1751
    1W        W60595  19.860   5.965   1.093  0.2789 -0.3924  0.1255
    1W        W60596   0.507  26.397   8.281 -0.0352 -0.0278  0.1114
    1W        W60597  13.036  22.104   7.096 -0.0880  0.1928 -0.3592
    1W        W60598  26.616  17.682   1.497  0.2731  0.3180  0.0462
    1W        W60599  26.663  24.160   0.113 -0.0410 -0.0554 -0.0277
    1W        W60600   9.150  24.469   2.390  0.2062 -0.1236 -0.1842
    1W        W60601  11.032  22.481   8.327  0.0131 -0.0754  0.0304
    1W        W60602  24.170  17.398   1.311  0.3299 -0.0340  0.0291
    1W        W60603  19.927  19.586   9.265  0.0684  0.0529  0.2450
    1W        W60604  19.426   2.824   0.562  0.2588  0.2556  0.1206
    1W        W60605  23.336  27.965   2.783  0.2483 -0.0144  0.0522
    1W        W60606  19.227  17.081   2.058  0.0944 -0.0639  0.0329
    1W        W60607  27.624   8.235   9.152 -0.0158  0.2714 -0.1396
    1W        W60608   1.672  26.085   2.023  0.1422 -0.0186  0.0430
    1W        W60609  21.288  17.063   1.881  0.1172 -0.1989  0.0832
    1W        W60610   6.112  21.590   3.074  0.2384  0.1326 -0.0829
    1W        W60611   5.624  12.395   6.375  0.0298  0.2734 -0.1447
    1W        W60612   0.324   6.554   8.364 -0.1019  0.0786  0.3319
    1W        W60613   5.012   7.196   6.419 -0.2509  0.2602 -0.1945
    1W        W60614   6.596  10.159   1.409  0.0691 -0.0574  0.1445
    1W        W60615   6.795   2.689   0.010  0.0493 -0.0209 -0.0200
    1W        W60616   2.427  22.743   7.224 -0.1155 -0.3280 -0.0962
    1W        W60617   7.568  22.684   8.805 -0.0521  0.2874 -0.2857
    1W        W60618   2.387  19.821   7.212  0.0473  0.1401 -0.0652
    1W        W60619   9.458  15.868   7.043  0.0678 -0.1860  0.1068
    1W        W60620  22.438  11.726   2.673 -0.0692 -0.0675 -0.0144
    1W        W60621  20.815   1.126   1.196  0.0016  0.1142  0.0889
    1W        W60622   1.067  19.838   7.715 -0.1007 -0.0571 -0.1190
    1W        W60623  22.008  25.974   3.030 -0.0326  0.1577 -0.0175
    1W        W60624  11.828   9.285   2.086  0.1913 -0.0204  0.2543
    1W        W60625   2.027   3.310   0.718  0.0877 -0.0870  0.1999
    1W        W60626  16.097  25.856   7.223 -0.0645 -0.1600  0.1480
    1W        W60627   6.701   6.987   5.755  0.0872  0.0804  0.1037
    1W        W60628  27.671  19.117   7.855 -0.1204  0.2184 -0.0918
    1W        W60629  24.709  28.085   2.734 -0.3035  0.2276  0.2425
    1W        W60630   7.905   1.400   7.591  0.2247 -0.2506  0.5468
    1W        W60631  23.469   2.406   0.990 -0.0637  0.1462 -0.2440
    1W        W60632   8.448   9.633   0.958 -0.0063  0.0704  0.1493
    1W        W60633   4.698   2.724   7.942 -0.1561 -0.0206  0.1660
    1W        W60634   4.807  11.358   6.084 -0.2265 -0.2086 -0.2799
    1W        W60635  13.682  24.223   2.158  0.0430  0.4524  0.2684
    1W        W60636   2.715  17.932   1.960 -0.0039  0.1969 -0.0057
    1W        W60637  10.884  24.726   2.647 -0.0106  0.2674  0.2475
    1W        W60638  20.358   9.326   7.587 -0.1920 -0.1982  0.1503
    1W        W60639  28.955   4.695   1.357 -0.0528 -0.1573  0.0472
    1W        W60640  11.202  20.005   1.593  0.1873  0.0536 -0.0358
    1W        W60641   3.655  14.788   1.053 -0.3644  0.0530 -0.1819
    1W        W60642   2.630  21.698   8.596 -0.1955  0.0201  0.3392
    1W        W60643   7.858   0.074   1.369  0.2115  0.0311 -0.1101
    1W        W60644  16.639   3.478   0.074  0.0057 -0.3510  0.0475
    1W        W60645   8.990  28.820   0.682  0.0008  0.3090  0.1649
    1W        W60646  19.550  21.511   7.647 -0.0915 -0.1585  0.2759
    1W        W60647  13.825   6.793   7.980  0.0969 -0.2226 -0.0646
    1W        W60648   7.492  13.386   1.617  0.2325  0.0441 -0.0848
    1W        W60649  12.837  10.488   7.817  0.1366  0.2972  0.1299
    1W        W60650  11.922  10.555   0.391  0.0760  0.0754  0.1091
    1W        W60651   8.367   2.266   6.701 -0.1176 -0.0205  0.3352
    1W        W60652  10.282  19.553   1.055  0.1989  0.1470 -0.0807
    1W        W60653  13.552   7.164   6.572 -0.4644  0.1102 -0.0505
    1W        W60654  17.895   6.871   7.576  0.3054  0.2112 -0.1184
    1W        W60655  17.959   4.473   9.387  0.0904 -0.1587 -0.2419
    1W        W60656  28.208  22.921   0.957 -0.1449  0.0845  0.1331
    1W        W60657   3.514  28.890   2.311 -0.1658  0.0353 -0.1412
    1W        W60658  14.031  24.243   8.060 -0.0054  0.0398  0.0214
    1W        W60659  25.475   6.282   0.555  0.0933 -0.0148 -0.0049
    1W        W60660  25.307  29.420   1.795  0.1076 -0.0634 -0.2777
    1W        W60661  22.218  25.677   9.069 -0.0104  0.1271 -0.0409
    1W        W60662  23.229   9.827   8.238 -0.1161  0.2323 -0.1643
    1W        W60663  13.151  16.161   8.452  0.4522 -0.1121  0.2358
    1W        W60664  15.805  29.515   0.016 -0.1385 -0.2877 -0.3426
    1W        W60665  13.001   2.755   2.954 -0.1159  0.2179 -0.2941
    1W        W60666  16.548  16.951   2.312 -0.0031  0.3457  0.1699
    1W        W60667  29.062   4.180   8.482 -0.1008  0.0623  0.4148
    1W        W60668  18.232   4.399   8.212 -0.0475  0.1389  0.2129
    1W        W60669  12.757   6.202   7.310  0.0099 -0.1003 -0.2077
    1W        W60670   1.389   7.833   1.889  0.1084 -0.0295 -0.0735
    1W        W60671   0.237   1.654   0.825  0.1831 -0.0400  0.2143
    1W        W60672   3.331  20.060   1.256 -0.0646  0.0529 -0.0749
    1W        W60673  13.927  27.348   6.683  0.1530  0.1583 -0.2320
    1W        W60674  23.922  16.964   7.563  0.0730 -0.2944  0.3091
    1W        W60675  13.073  13.146   8.324 -0.0342  0.1120  0.1290
    1W        W60676   0.363   7.073   5.745 -0.1256  0.1196 -0.0817
    1W        W60677  28.814   3.436   8.150  0.2122 -0.0009 -0.1518
    1W        W60678  24.961  28.348   8.931  0.2411 -0.0315  0.0944
    1W        W60679  12.969  28.543   1.157 -0.1116  0.1052  0.3332
    1W        W60680   9.649  14.131   6.853 -0.1187  0.1111  0.2946
    1W        W60681  13.209   5.196   1.925  0.3232  0.1427 -0.3778
    1W        W60682  24.512  14.545   7.875  0.0395  0.0656 -0.1109
    1W        W60683   3.418   0.105   1.846  0.5541 -0.0549  0.0039
    1W        W60684   9.229  28.503   5.870 -0.1824  0.0189  0.0499
    1W        W60685  11.726  20.391   7.297 -0.3621 -0.0588 -0.1376
    1W        W60686   0.780  11.044   7.005 -0.0725 -0.0234 -0.0658
    1W        W60687  12.727  15.952   9.396  0.3943 -0.1092  0.1482
    1W        W60688  21.432  22.624   7.549  0.1395 -0.2348  0.0131
    1W        W60689  23.436  15.775   7.474 -0.0887 -0.0815  0.0317
    1W        W60690  17.667  26.546   9.161 -0.0035  0.0071 -0.0652
    1W        W60691   3.932  23.490   8.286  0.0721  0.2098  0.1219
    1W        W60692  11.996  21.679   0.686 -0.1644 -0.1382 -0.2767
    1W        W60693   7.897   7.185   7.957 -0.3444  0.1916 -0.0942
    1W        W60694   1.408  13.415   0.426  0.2153 -0.0736  0.0128
    1W        W60695   8.823   3.040   7.033 -0.1644  0.2233  0.0550
    1W        W60696   5.454  11.760   8.139 -0.1363 -0.2614 -0.1046
    1W        W60697  23.547  25.532   7.246 -0.2500 -0.0509 -0.0419
    1W        W60698  14.780  24.397   7.442 -0.0396 -0.2827  0.0615
    1W        W60699   5.464  25.603   8.569  0.3992 -0.2871  0.2187
    1W        W60700   2.609   1.798   0.746  0.0945  0.0886  0.0637
    1W        W60701  12.516   1.977   0.882 -0.1850  0.1773  0.0665
    1W        W60702   1.056  28.423   2.946 -0.2162  0.2204 -0.0725
    1W        W60703  12.427  26.071   2.736  0.0522  0.1365 -0.0320
    1W        W60704  28.440  25.192   0.793  0.0838  0.0222  0.0514
    1W        W60705   9.152  24.597   5.709  0.1293 -0.1283  0.2415
    1W        W60706  28.741  26.752   0.418  0.0584  0.1361  0.1761
    1W        W60707  15.516  14.065   2.818 -0.0271 -0.1472  0.0179
    1W        W60708   9.727  28.794   0.849  0.0066 -0.0653 -0.2086
    1W        W60709  15.860   9.396   7.100 -0.0076 -0.1937  0.1693
    1W        W60710  19.258   8.166   0.523 -0.2557  0.1416  0.0414
    1W        W60711  16.246  23.163   3.313  0.0809  0.1804 -0.1244
    1W        W60712   1.285  13.228   1.593  0.2674  0.0870 -0.1270
    1W        W60713   3.428  17.731   3.098 -0.1814 -0.0732 -0.2594
    1W        W60714  16.091   0.535   8.204  0.0615 -0.0513  0.2141
    1W        W60715  20.173  21.783   1.976  0.2694 -0.0452 -0.0037
    1W        W60716   2.289  27.013   1.664  0.0036 -0.0900  0.0100
    1W        W60717  17.741   7.493   1.981 -0.1729 -0.0219 -0.0154
    1W        W60718  10.085   5.207   8.147  0.0708 -0.0249  0.3426
    1W        W60719  11.748   3.447   0.523  0.0009  0.0854  0.0072
    1W        W60720  18.252   4.011   0.142 -0.1154  0.0148 -0.1858
    1W        W60721   8.374  26.751   2.002  0.2770  0.0967 -0.5557
    1W        W60722  10.197   6.896   1.439 -0.1556 -0.0609  0.3574
    1W        W60723  17.953  18.282   8.846  0.0097 -0.1479  0.2607
    1W        W60724  15.197  15.005   2.780  0.1774 -0.1426 -0.1509
    1W        W60725   4.331  15.121   9.268 -0.0567  0.1395 -0.1568
    1W        W60726  11.770   2.868   6.535 -0.1396 -0.1734 -0.0203
    1W        W60727   7.900  12.993   5.951 -0.3001  0.0681  0.1052
    1W        W60728  14.777   9.867   7.648 -0.1057  0.0086 -0.3085
    1W        W60729  26.941  24.288   0.638  0.1398 -0.2114 -0.0954
    1W        W60730  16.941   7.079   7.294  0.3578  0.2558  0.1942
    1W        W60731   4.622  11.262   0.102 -0.1956 -0.3171 -0.0677
    1W        W60732  28.020   2.310   8.472 -0.4846  0.2312  0.0116
    1W        W60733   6.091  28.478   1.304 -0.1808  0.2207 -0.1173
    1W        W60734   7.255  21.664   2.314 -0.3973 -0.3300 -0.3356
    1W        W60735  24.062  12.104   0.990  0.0053 -0.1442  0.2129
    1W        W60736   1.257  23.890   7.789 -0.1031  0.1241  0.2149
    1W        W60737  21.572  28.760   1.320 -0.1165  0.0593 -0.3368
    1W        W60738  13.626   8.306   0.981 -0.0744  0.2874  0.4017
    1W        W60739  28.590   9.568   7.281 -0.2248  0.1788  0.0919
    1W        W60740  24.443  26.032   8.715  0.0256  0.2049 -0.2123
    1W        W60741  25.184  12.461   7.989 -0.0473 -0.1088  0.0391
    1W        W60742  11.694  22.593   2.934  0.2753 -0.1398  0.0372
    1W        W60743  18.733  27.855   2.877  0.0872 -0.0604  0.0308
    1W        W60744   7.813  14.885   9.596  0.0151  0.0738  0.2111
    1W        W60745  27.307  16.136   0.881 -0.1470  0.0101  0.1613
    1W        W60746   0.750   3.648   8.966 -0.1202  0.0779 -0.0258
    1W        W60747  12.035   5.964   2.173 -0.0079  0.0755 -0.0381
    1W        W60748  22.768   8.636   1.767  0.1983 -0.0502  0.2098
    1W        W60749  28.882   2.871   6.523 -0.2217  0.2036 -0.3559
    1W        W60750  25.588  12.531   0.403 -0.1189 -0.0841 -0.1000
    1W        W60751  10.299  16.295   0.913 -0.4372  0.0548 -0.2704
    1W        W60752  15.121  23.825   0.883  0.1383 -0.0174  0.3255
    1W        W60753  26.394  10.770   7.883 -0.1461 -0.1694  0.1742
    1W        W60754  26.899  26.467   7.535 -0.2599  0.3661  0.0808
    1W        W60755   1.965   8.884   8.099  0.0604  0.2150 -0.1013
    1W        W60756   4.650  16.164   2.794 -0.3870  0.0684  0.0798
    1W        W60757  17.786  12.777   2.541 -0.1264  0.2842  0.3273
    1W        W60758   0.146  25.636   8.010 -0.1336  0.2291 -0.0952
    1W        W60759  12.573  24.555   7.309  0.0548 -0.0807  0.2516
    1W        W60760   0.751  27.824   2.247 -0.0813 -0.0685  0.1708
    1W        W60761  21.981   9.963   9.016 -0.2194  0.3339 -0.0098
    1W        W60762  18.100  20.951   1.901  0.3661 -0.0222 -0.4627
    1W        W60763   8.831  19.888   8.420  0.0382 -0.2461 -0.1488
    1W        W60764  15.644   7.822   2.006  0.2304  0.3259 -0.1321
    1W        W60765  18.825  18.419   9.483 -0.0193 -0.1299  0.0192
    1W        W60766  20.525  10.339   0.860 -0.0635  0.0376 -0.0075
    1W        W60767  15.624  22.393   0.457 -0.3118  0.1023  0.1254
    1W        W60768   2.494   0.564   0.744  0.1496  0.2520  0.1108
    1W        W60769  18.472  12.148   8.882  0.2105 -0.0532 -0.0324
    1W        W60770  16.264   9.972   1.842 -0.1582 -0.1055 -0.2371
    1W        W60771  29.360   5.667   1.741  0.0068 -0.5275  0.2133
    1W        W60772  10.321  14.096   1.176  0.6644  0.3350  0.2271
    1W        W60773  16.823  12.235   7.732 -0.1345  0.1928 -0.2542
    1W        W60774   1.691   1.888   9.309  0.2326 -0.0563 -0.3453
    1W        W60775  19.852  14.565   7.904 -0.0178  0.1339 -0.0571
    1W        W60776   8.172  24.985   7.949  0.0364 -0.0428  0.2923
    1W        W60777  11.516   5.737   1.347  0.0161  0.0339 -0.1601
    1W        W60778  25.768  17.587   8.010  0.0196  0.1249  0.2432
    1W        W60779   4.491  19.985   7.460  0.1763  0.0113  0.0883
    1W        W60780  10.106  16.152   7.660 -0.0396 -0.0455  0.2897
    1W        W60781   3.783   5.546   7.484  0.1592 -0.0305  0.0708
    1W        W60782  15.978  14.216   2.659 -0.2845 -0.0075 -0.1371
    1W        W60783  21.754  29.537   7.720  0.0713 -0.0883  0.1284
    1W        W60784  11.001  25.347   6.621 -0.3430 -0.1733  0.1924
    1W        W60785  22.401   8.378   1.361  0.4395  0.2816  0.1280
    1W        W60786  29.281  19.339   3.269 -0.1433 -0.0431 -0.0126
    1W        W60787   0.418  27.457   8.340 -0.0971  0.0925  0.0486
    1W        W60788  22.288  18.226   0.835  0.1000 -0.0386 -0.0343
    1W        W60789  24.285   0.788   8.321 -0.1896  0.0549  0.0694
    1W        W60790   4.870  28.736   3.063  0.1260  0.3065  0.0166
    1W        W60791  18.686  27.122   3.915  0.0710 -0.0960  0.0617
    1W        W60792  26.344   4.421   1.247 -0.2525  0.2720 -0.1839
    1W        W60793   3.730  15.663   8.640 -0.1952  0.0809 -0.1023
    1W        W60794   7.754  18.119   2.972  0.0795 -0.0759 -0.1090
    1W        W60795  21.782  12.967   2.069  0.2178  0.3224  0.0660
    1W        W60796  23.833  28.065   1.945 -0.2885 -0.1558 -0.0613
    1W        W60797  27.774  21.789   2.544  0.1591  0.0778  0.1552
    1W        W60798  12.472  17.230   0.859  0.1026 -0.3140 -0.1168
    1W        W60799   9.194  13.988   1.430 -0.1720  0.1619  0.1300
    1W        W60800  25.459  16.923   0.937 -0.0778 -0.1622  0.0566
    1W        W60801   8.553  28.637   6.526 -0.0261  0.1575  0.3676
    1W        W60802   2.091   4.002   8.221 -0.0545 -0.2125  0.1574
    1W        W60803  11.240  14.597   8.605  0.0073 -0.0743 -0.1898
    1W        W60804   5.831  27.960   7.049 -0.1576  0.2387 -0.2566
    1W        W60805  16.832   2.563   7.206  0.0697 -0.1505  0.2018
    1W        W60806   6.602  28.513   7.292 -0.0537 -0.1567  0.2073
    1W        W60807  26.028  18.610   2.332  0.1891 -0.0405  0.1814
    1W        W60808  18.156  23.779   9.290  0.0591  0.1321  0.0136
    1W        W60809   3.004  27.553   2.204 -0.0291 -0.2742 -0.1345
    1W        W60810  13.825  22.956   6.311  0.1069  0.0547  0.2321
    1W        W60811  17.553  11.417   0.708  0.0314  0.1445 -0.5038
    1W        W60812  14.003   4.483   5.962 -0.0762  0.3304 -0.0016
    1W        W60813  19.938  14.754   2.112  0.0194  0.1232  0.2291
    1W        W60814   7.642  16.652   0.381 -0.1207 -0.1958  0.2322
    1W        W60815  12.226  27.504   2.025  0.5667  0.3038  0.1936
    1W        W60816  20.281  23.671   3.695 -0.0350 -0.2219  0.0540
    1W        W60817  11.697  25.121   0.249 -0.0893 -0.1801 -0.0207
    1W        W60818  16.515  16.287   8.191 -0.0084  0.2863  0.3111
    1W        W60819  14.777  12.279   0.894  0.2348 -0.0992 -0.3937
    1W        W60820  23.921   1.587   8.827 -0.0222  0.2194  0.0997
    1W        W60821  17.191  27.217   8.615  0.3718 -0.1358 -0.3072
    1W        W60822  13.647   6.127   6.868  0.1400 -0.0784  0.0084
    1W        W60823  12.728  13.191   6.940 -0.2679  0.1858 -0.0045
    1W        W60824   7.438   8.019   2.117  0.3103 -0.1779 -0.0085
    1W        W60825   7.707   6.055   9.090  0.1475 -0.0498  0.4183
    1W        W60826  13.134  15.648   7.788 -0.3482  0.0394  0.3282
    1W        W60827  27.236  10.265   9.431  0.2529  0.2651  0.2044
    1W        W60828  26.843  13.182   8.397 -0.0395  0.1687  0.2032
    1W        W60829   4.020  29.387   0.914  0.1268 -0.1851 -0.1553
    1W        W60830  15.815   1.761   6.802 -0.2009  0.4864 -0.0850
    1W        W60831  19.253   4.909   6.614 -0.0640  0.0131 -0.0329
    1W        W60832  22.629   7.990   1.729 -0.1795  0.2094 -0.1879
    1W        W60833  14.352  14.151   0.296 -0.1950  0.3594 -0.0132
    1W        W60834   1.819  29.183   8.339 -0.1664 -0.1493 -0.2009
    1W        W60835  22.847   0.466   0.727  0.3496  0.0328 -0.0373
    1W        W60836   0.799  28.773   0.672  0.4737 -0.1076  0.0093
    1W        W60837  27.945  23.322   7.237 -0.2846  0.4213  0.1921
    1W        W60838   3.232  16.571   1.452 -0.5446 -0.0700  0.1369
    1W        W60839  25.193   2.028   7.246 -0.1739 -0.2493  0.0820
    1W        W60840   0.645  18.726   9.160 -0.2466 -0.0764  0.1004
    1W        W60841  17.878  11.867   2.347 -0.3086 -0.0960 -0.0162
    1W        W60842  19.648   6.813   8.590 -0.0278  0.0506 -0.0040
    1W        W60843  10.992   8.022   1.777 -0.2380  0.0938  0.2068
    1W        W60844  20.929   7.600   1.891 -0.1116 -0.2812  0.0424
    1W        W60845  28.463  24.403   7.455 -0.0035  0.0678 -0.0861
    1W        W60846  25.164   0.947   1.764  0.3322  0.1668 -0.4690
    1W        W60847  10.302  26.551   2.407  0.1391 -0.1914 -0.0734
    1W        W60848  24.203  14.292   8.571 -0.1149  0.2807  0.0134
    1W        W60849  25.720   3.545   7.644 -0.0586 -0.0823  0.1713
    1W        W60850  24.307  19.358   0.186  0.0929  0.3225 -0.0021
    1W        W60851   9.159  24.451   0.029  0.0918  0.3301 -0.0379
    1W        W60852  16.284  15.645   1.827 -0.0210  0.0529 -0.1012
    1W        W60853  16.210   1.622   8.957  0.3111 -0.1090 -0.1600
    1W        W60854  25.116  14.098   9.360  0.0464 -0.1342 -0.2024
    1W        W60855   9.753  24.504   7.948  0.3618 -0.1149 -0.0265
    1W        W60856  29.389  29.217   7.398  0.3100  0.1179  0.2926
    1W        W60857  26.747   1.221   2.185 -0.2830 -0.1024  0.1394
    1W        W60858   5.569  21.871   1.630  0.1384  0.0425 -0.0999
    1W        W60859   7.797   3.404   1.597 -0.2423 -0.0512 -0.1180
    1W        W60860  15.297  23.791   9.144  0.1811  0.2014 -0.2978
    1W        W60861   4.007  26.667   2.300 -0.1403  0.0558  0.2514
    1W        W60862  14.990   4.298   7.251 -0.2704  0.2908 -0.0501
    1W        W60863  24.878  13.255   8.124  0.1008  0.5115  0.0005
    1W        W60864  26.485   1.212   1.771 -0.1645 -0.2504 -0.0111
    1W        W60865   2.066  24.422   7.018 -0.0579 -0.0805 -0.1528
    1W        W60866  29.358  17.830   2.635  0.0672 -0.4061 -0.0247
    1W        W60867   3.979  27.203   7.588 -0.0645 -0.0478 -0.0748
    1W        W60868  12.128   5.591   1.812  0.1867 -0.0088 -0.2116
    1W        W60869   4.394   2.085   7.244  0.2992  0.2078  0.0064
    1W        W60870   5.649  12.810   6.992 -0.1633  0.2742 -0.2275
    1W        W60871   2.896   8.950   0.435 -0.0415 -0.1117  0.1238
    1W        W60872   5.331  22.617   2.288  0.0574  0.0921 -0.1526
    1W        W60873  19.069   1.721   1.272 -0.2530 -0.1539 -0.1781
    1W        W60874  25.816   8.786   9.119 -0.1013 -0.0701 -0.0672
    1W        W60875   4.007  16.000   2.248 -0.2858  0.0328  0.3561
    1W        W60876  29.511  17.124   2.853 -0.0687 -0.1329  0.1355
    1W        W60877   1.052   2.775   1.868  0.3096  0.3170 -0.1790
    1W        W60878  22.127  23.943   9.535  0.2661  0.1536 -0.1006
    1W        W60879  17.992  25.872   7.137 -0.3301 -0.1829  0.3446
    1W        W60880  11.755  29.270   8.708 -0.0270  0.1333  0.0761
    1W        W60881  13.730  19.686   7.949  0.0138 -0.2931 -0.2061
    1W        W60882  29.223   0.700   6.482  0.0867 -0.0990  0.0897
    1W        W60883  26.820  19.209   8.920  0.1163 -0.3831 -0.1537
    1W        W60884  17.111   9.694   9.074 -0.1544  0.4133  0.1170
    1W        W60885  20.557   8.816   8.502  0.2062  0.2621  0.3710
    1W        W60886  12.766   5.699   0.250  0.1397 -0.1268 -0.1404
    1W        W60887   1.756  28.354   8.982  0.3365  0.0337  0.0023
    1W        W60888   5.565  25.428   1.442 -0.0198 -0.2241  0.0712
    1W        W60889  10.079  16.350   1.919  0.1727 -0.0586 -0.1509
    1W        W60890   0.699  10.538   7.175  0.1535 -0.0915  0.0013
    1W        W60891   8.799   9.426   8.739  0.3228  0.1248  0.0949
    1W        W60892  13.996   8.203   0.315 -0.1412  0.2379 -0.0860
    1W        W60893  15.438  10.243   2.564  0.0258 -0.1972 -0.0313
    1W        W60894   3.665  25.617   1.270 -0.4577 -0.2066  0.1595
    1W        W60895  27.849   6.519   8.242  0.0075  0.3547 -0.3198
    1W        W60896   7.926  24.163   8.966 -0.0669  0.0032 -0.0491
    1W        W60897  15.536   4.285   1.083 -0.1423 -0.3696 -0.0048
    1W        W60898   4.367  25.410   2.940 -0.0502  0.3923 -0.0667
    1W        W60899  29.262   7.170   7.669  0.0268  0.1143  0.1462
    1W        W60900  14.018   9.297   8.902 -0.1720  0.4189  0.1142
    1W        W60901  18.115  11.492   7.866  0.1139  0.0626  0.0835
    1W        W60902  19.970  12.325   2.793 -0.1895  0.1935 -0.0636
    1W        W60903  18.832  28.624   8.402 -0.2725 -0.0307  0.2157
    1W        W60904   1.284  17.103   0.528 -0.0992  0.3059  0.0738
    1W        W60905  16.676   6.774   1.917  0.1228  0.2097  0.1710
    1W        W60906   6.445   8.802   8.090  0.1126 -0.0599  0.0095
    1W        W60907   3.048  18.059   7.929  0.1710 -0.1765  0.0889
    1W        W60908   2.948  24.615   1.337 -0.0027  0.1018 -0.0376
    1W        W60909   6.892  13.206   9.403  0.0961  0.1975 -0.0838
    1W        W60910  23.399   4.435   8.414  0.0786 -0.2866 -0.0062
    1W        W60911  15.653  20.522   6.859 -0.1899  0.0856 -0.0300
    1W        W60912  15.379  21.825   7.266  0.0790 -0.1911  0.4351
    1W        W60913  19.221  10.588   0.255  0.0052  0.2914 -0.3854
    1W        W60914   6.011  25.865   8.747  0.0121 -0.1125  0.3778
    1W        W60915   3.304   6.186   7.239  0.2932  0.0083  0.1983
    1W        W60916  17.787  17.263   3.010 -0.1091 -0.1453  0.0171
    1W        W60917   3.068   8.701   6.498 -0.1375 -0.0634  0.1431
    1W        W60918   0.252  11.076   8.690  0.0978  0.1254  0.3867
    1W        W60919   9.282  28.857   7.427  0.0906 -0.0066 -0.4860
    1W        W60920   6.459   2.161   6.803 -0.0081 -0.0993 -0.2271
    1W        W60921  11.857  26.819   6.942  0.1562 -0.1142 -0.0127
    1W        W60922  14.565  20.781   8.861 -0.0474  0.0868 -0.1667
    1W        W60923  10.867   0.087   0.791 -0.0581 -0.0526 -0.0788
    1W        W60924  11.439  25.536   9.383 -0.0108 -0.0747  0.0558
    1W        W60925   9.691   7.506   1.842 -0.0211  0.1033 -0.0006
    1W        W60926   0.521  24.903   7.354 -0.2230  0.2588  0.2362
    1W        W60927  22.047  15.054   8.988 -0.0498  0.2157 -0.0860
    1W        W60928   5.873  18.523   7.607 -0.1929 -0.0319  0.1482
    1W        W60929  24.771  24.873   9.225  0.1167 -0.2838  0.0391
    1W        W60930   3.689  20.355   0.387 -0.0471  0.0775 -0.3156
    1W        W60931  20.222   3.311   1.851  0.0832  0.0509 -0.0256
    1W        W60932   1.362   1.152   9.133  0.1004 -0.1178  0.0392
    1W        W60933  10.265  14.569   6.507 -0.2015 -0.0246  0.0807
    1W        W60934  13.680   0.822   2.839 -0.2287 -0.1196  0.0786
    1W        W60935   9.596  23.240   1.827 -0.2290  0.0871 -0.1072
    1W        W60936   7.484   7.468   2.011 -0.0477 -0.0465  0.0378
    1W        W60937  16.569  18.636   0.723  0.0478  0.0156 -0.2187
    1W        W60938   2.436   1.026   0.251  0.1347  0.0160  0.0352
    1W        W60939   8.005  17.668   7.991  0.0443  0.2122  0.3696
    1W        W60940  26.559   8.264   8.661 -0.3014  0.1091 -0.0830
    1W        W60941  11.964   0.786   0.707 -0.0861 -0.1269 -0.2422
    1W        W60942  12.303  23.190   2.784 -0.0334  0.1204  0.2239
    1W        W60943  22.072  25.354   1.587  0.0927 -0.1709  0.0970
    1W        W60944   1.888  28.194   7.014 -0.0980 -0.3683  0.1807
    1W        W60945   2.335  19.187   2.267 -0.0936  0.1208 -0.0095
    1W        W60946   2.688  13.796   1.443  0.1034 -0.3154 -0.1096
    1W        W60947  22.945  28.201   9.359 -0.2975  0.0314 -0.1142
    1W        W60948  17.609  12.766   0.405  0.2083 -0.0538 -0.1297
    1W        W60949  12.698  17.600   6.438 -0.1472 -0.1697 -0.0862
    1W        W60950  10.356  22.905   7.207  0.2881 -0.0100 -0.1029
    1W        W60951  16.324   2.650   7.007  0.1207  0.0400  0.0068
    1W        W60952  20.058  19.213   0.664  0.3134 -0.0369 -0.0944
    1W        W60953  22.331  24.499   3.558  0.0585  0.1658  0.1069
    1W        W60954  26.879  25.977   3.024  0.0566  0.0020 -0.3799
    1W        W60955  18.610  27.390   0.576 -0.1726 -0.0958 -0.1658
    1W        W60956  18.472  27.590   9.375  0.0559 -0.1388  0.0262
    1W        W60957  15.443  28.116   7.068 -0.2135 -0.0626  0.0491
    1W        W60958   6.016   8.071   7.313 -0.4489  0.1477  0.0794
    1W        W60959  27.941  20.676   7.327  0.1064 -0.1296 -0.3290
    1W        W60960  26.599   1.248   8.260  0.0864  0.3106  0.3780
    1W        W60961  16.063  10.952   1.326  0.1721 -0.0486 -0.1165
    1W        W60962   9.625  15.491   2.159 -0.1005 -0.0626 -0.1498
    1W        W60963  28.696  22.141   2.666  0.1847 -0.0772  0.0989
    1W        W60964  14.803  25.419   9.222  0.3393  0.0998  0.0631
    1W        W60965  13.373  20.634   8.824  0.0737 -0.0395  0.0184
    1W        W60966  12.667   9.588   0.809  0.0054  0.0624  0.1792
    1W        W60967  26.819  24.446   9.236 -0.3189  0.0970  0.2607
    1W        W60968  28.352  21.615   7.582 -0.0413 -0.0704 -0.1798
    1W        W60969  27.557  29.010   0.968  0.1572  0.2406  0.1152
    1W        W60970  16.619  10.035   1.506 -0.1562 -0.2183  0.2573
    1W        W60971  10.107  23.699   9.221  0.1643 -0.1510 -0.0654
    1W        W60972  23.402   5.171   1.111  0.1082 -0.1913  0.0489
    1W        W60973  27.375  27.225   8.895  0.1082  0.0887 -0.0028
    1W        W60974  13.905  20.296   6.392  0.2543  0.0118  0.1564
    1W        W60975  17.536   9.929   2.570 -0.2152  0.0280 -0.0059
    1W        W60976  16.969   6.876   0.043  0.1078 -0.2238  0.0245
    1W        W60977  10.297  18.672   9.136  0.1953  0.3709  0.2088
    1W        W60978  12.672  28.479   0.624 -0.0979  0.0393 -0.0189
    1W        W60979  19.521  26.970   3.374 -0.1427  0.2160 -0.2244
    1W        W60980  15.233   6.848   1.617  0.2820  0.1865  0.0179
    1W        W60981  19.296  25.757   0.161  0.0959 -0.1242  0.0692
    1W        W60982  13.001  25.471   7.856 -0.1046 -0.0519 -0.2057
    1W        W60983   4.156   2.790   1.277 -0.0440 -0.0348 -0.1977
    1W        W60984  10.852  10.891   2.026  0.0072 -0.2984 -0.1587
    1W        W60985  21.969  28.673   0.235 -0.0696 -0.1863  0.2701
    1W        W60986   4.505  18.894   2.130 -0.1888  0.2589  0.1331
    1W        W60987   2.525   5.018   6.461 -0.0693 -0.0453  0.2774
    1W        W60988  17.282  20.290   7.577  0.2041  0.0009  0.1045
    1W        W60989   2.914  26.154   2.705 -0.0569 -0.0847 -0.1178
    1W        W60990  27.449  25.773   2.724  0.2677  0.0046  0.2528
    1W        W60991  22.228  21.074   8.643 -0.0441  0.0105  0.0224
    1W        W60992  11.925   2.752   1.615  0.3226  0.1173  0.2524
    1W        W60993  14.291   7.033   8.494  0.0929 -0.1726  0.0435
    1W        W60994  21.113  19.973   9.481 -0.2377 -0.2190  0.3038
    1W        W60995   3.082  21.752   8.872 -0.2822  0.3316  0.0822
    1W        W60996  27.278  14.997   8.275 -0.0951 -0.0296  0.0417
    1W        W60997  28.574  11.070   1.477  0.1656  0.3117  0.1553
    1W        W60998   4.636  20.413   1.734 -0.0281  0.0956  0.2228
    1W        W60999  10.217  26.696   2.983  0.1693  0.0825 -0.2395
    1W        W61000  14.448  11.604   8.760 -0.1953 -0.2804  0.0795
    1W        W61001   4.859   3.385   1.065  0.0023 -0.3045 -0.0891
    1W        W61002  23.856  10.326   2.074 -0.0484  0.0244  0.1269
    1W        W61003   3.784   8.707   9.088  0.2270 -0.1493  0.0443
    1W        W61004  13.136  16.449   8.973  0.1485  0.1051  0.0203
    1W        W61005   3.151  13.907   1.296 -0.2848 -0.1052  0.1200
    1W        W61006  15.103   6.814   0.164  0.3757  0.1686 -0.0579
    1W        W61007  10.985  20.872   8.488  0.0147 -0.0927  0.3502
    1W        W61008   1.973  15.498   8.515 -0.0400 -0.1493  0.1013
    1W        W61009  16.599  19.659   7.482 -0.3986  0.1495 -0.1113
    1W        W61010  12.129  19.122   0.969 -0.1921 -0.2263 -0.0028
    1W        W61011   3.997  28.390   1.963 -0.1396  0.5357  0.2078
    1W        W61012  27.931  17.457   0.843 -0.1413 -0.3017 -0.0695
    1W        W61013   6.218   6.881   1.154 -0.1478 -0.0573 -0.2072
    1W        W61014   0.396  10.690   1.698 -0.0479  0.1557 -0.2288
    1W        W61015   9.401  19.671   0.084 -0.3137  0.0423  0.1084
    1W        W61016  20.394   1.586   7.529  0.2785  0.3240 -0.2621
    1W        W61017  29.242  24.725   0.308 -0.1000 -0.0176  0.4218
    1W        W61018  15.217  26.362   6.370 -0.2441  0.2696 -0.2764
    1W        W61019   5.938  18.563   8.824  0.0326  0.3666 -0.0018
    1W        W61020   4.386   4.335   7.587  0.0348  0.2662 -0.1195
    1W        W61021  29.506   4.019   8.406 -0.1133 -0.1133 -0.2407
    1W        W61022   4.594  27.575   0.773 -0.0798  0.1942  0.0853
    1W        W61023  27.091  29.247   2.577  0.2266 -0.2464 -0.2839
    1W        W61024  18.268   5.026   8.740 -0.0039 -0.1911 -0.1769
    1W        W61025  28.696  20.752   9.286  0.0691 -0.4483 -0.0007
    1W        W61026  19.664  27.711   0.282  0.1625 -0.0507  0.3975
    1W        W61027   3.976   8.860   6.342 -0.2376 -0.4641  0.1179
    1W        W61028   4.000  16.239   0.123  0.1743 -0.2721 -0.0477
    1W        W61029  23.198  22.377   1.402 -0.2800  0.1032 -0.0946
    1W        W61030  24.375   7.003   1.195 -0.0908 -0.1715  0.0821
    1W        W61031   3.603  29.240   0.379  0.0048  0.1084  0.0246
    1W        W61032   6.932   6.081   6.025  0.0789 -0.0714 -0.1915
    1W        W61033   5.243  11.692   9.571  0.5532 -0.0803  0.1138
    1W        W61034  22.500  20.096   7.409  0.3402 -0.1095 -0.0707
    1W        W61035  24.723   2.842   1.276  0.3563  0.1031  0.2195
    1W        W61036  27.271  19.200   0.623  0.3253 -0.2659 -0.0244
    1W        W61037  24.962  17.589   3.699 -0.1209 -0.0750  0.0827
    1W        W61038  26.980   5.726   1.791  0.1843  0.1769  0.0363
    1W        W61039   9.122  23.841   9.090 -0.1810  0.3364  0.2666
    1W        W61040  13.475  14.950   8.800  0.0336  0.2843 -0.1903
    1W        W61041  16.503  19.933   9.612 -0.0499  0.0412 -0.0656
    1W        W61042  10.762  25.636   6.937 -0.0432 -0.0322 -0.2674
    1W        W61043  21.490  23.478   0.144  0.1557 -0.2526 -0.3782
    1W        W61044   0.783   3.572   8.483  0.1428  0.1661  0.0769
    1W        W61045   0.983  19.631   1.605  0.0650 -0.0153 -0.1631
    1W        W61046   2.682  24.708   0.462  0.1886 -0.2500  0.2348
    1W        W61047  15.497  10.090   2.105  0.2961 -0.0361 -0.2237
    1W        W61048  18.691  12.340   2.075 -0.0808  0.0488  0.2573
    1W        W61049  27.099  16.584   7.872  0.0163 -0.2870  0.2221
    1W        W61050   6.393  19.020   0.190  0.0690  0.0176  0.3319
    1W        W61051  20.743   3.856   7.949  0.3878 -0.0901 -0.2565
    1W        W61052  20.983   1.665   9.021 -0.0406 -0.2933  0.2687
    1W        W61053  27.556  13.242   7.004  0.2195  0.3256 -0.1027
    1W        W61054  24.380  13.973   7.978  0.3266 -0.0400 -0.0445
    1W        W61055  16.404   7.361   0.147 -0.1103 -0.1669 -0.0198
    1W        W61056  18.364  21.637   2.256 -0.3770 -0.3137  0.0583
    1W        W61057  15.795  12.889   1.327  0.0415  0.0536  0.1939
    1W        W61058  16.738  17.729   2.170 -0.1018 -0.2321 -0.2849
    1W        W61059  28.818   4.191   6.522 -0.1143 -0.0849  0.0983
    1W        W61060  14.281  22.480   2.332 -0.0300 -0.1828  0.1124
    1W        W61061  21.970   9.693   8.636 -0.2981  0.0859  0.0287
    1W        W61062  20.339  24.317   2.724  0.1404  0.1792 -0.2703
    1W        W61063   1.614   7.389   0.565 -0.2469 -0.0859 -0.2482
    1W        W61064  24.326   7.999   7.250 -0.0501  0.2702  0.1180
    1W        W61065   0.891  26.781   2.022  0.0614  0.1008  0.0593
    1W        W61066  20.245  23.269   9.402  0.3509  0.0925 -0.0111
    1W        W61067  25.119  15.947   0.233  0.0583  0.1938  0.0861
    1W        W61068  25.676   5.726   7.305 -0.0198 -0.0880  0.0497
    1W        W61069   7.882  12.214   0.788 -0.1403 -0.3217  0.0285
    1W        W61070  14.040   4.738   6.951  0.0298  0.2147 -0.1594
    1W        W61071  26.953  26.850   2.115  0.1739 -0.1642 -0.1729
    1W        W61072  20.446  26.142   2.648 -0.0310  0.3223 -0.0790
    1W        W61073   6.517  29.271   5.775  0.0021 -0.3027  0.0649
    1W        W61074  16.253   8.213   8.924  0.2668 -0.3444 -0.1026
    1W        W61075  14.307   8.993   6.065  0.0827 -0.1883 -0.0936
    1W        W61076   6.668   0.515   7.847  0.1916 -0.1767  0.1138
    1W        W61077   9.482   5.588   6.526 -0.1516 -0.2871  0.3239
    1W        W61078   2.173  15.601   8.952  0.0273 -0.2058 -0.1575
    1W        W61079   3.764  21.809   2.851 -0.3099 -0.0914 -0.0363
    1W        W61080  24.328  12.538   1.783 -0.2231  0.1453  0.1768
    1W        W61081   1.975  26.016   9.100 -0.0951 -0.1360  0.1306
    1W        W61082  10.639   2.425   2.000  0.1095  0.1093  0.2226
    1W        W61083   1.740   3.161   1.877 -0.2038  0.0341 -0.2318
    1W        W61084  12.870   2.224   8.544 -0.1872 -0.1411 -0.3075
    1W        W61085  21.292   2.535   1.190  0.0941 -0.2153 -0.0773
    1W        W61086   2.785  21.933   3.045 -0.0035  0.0136  0.1315
    1W        W61087   5.048   3.318   8.625 -0.3974 -0.1449  0.0705
    1W        W61088   1.415  26.996   2.050 -0.2243 -0.1729 -0.0866
    1W        W61089  16.193   3.075   1.214 -0.2474  0.2263 -0.1175
    1W        W61090  17.365   2.780   7.089  0.0313 -0.0816  0.1675
    1W        W61091  14.581   9.076   9.403  0.0082  0.1562 -0.0784
    1W        W61092   1.598   5.901   8.264  0.0496  0.0092 -0.0771
    1W        W61093  29.317   9.132   6.608  0.0641 -0.2093 -0.1723
    1W        W61094  16.915   8.899   1.264 -0.1163  0.0158  0.2653
    1W        W61095   8.268   9.730   0.497 -0.0827  0.0037 -0.3107
    1W        W61096  24.086  11.570   8.487  0.1658  0.1742 -0.1421
    1W        W61097  14.692  18.754   6.880 -0.1843  0.0264  0.0677
    1W        W61098  13.360  22.104   6.559 -0.1099  0.0129  0.0133
    1W        W61099  12.783  11.696   2.515 -0.1979  0.2730  0.0638
    1W        W61100   9.546  13.477   2.596  0.0556 -0.2526  0.3586
    1W        W61101  23.707  19.490   0.287 -0.1154  0.2378 -0.3623
    1W        W61102   6.863  25.428   7.412 -0.0221  0.0602 -0.2658
    1W        W61103  13.050  16.473   5.734 -0.0070 -0.1459 -0.1022
    1W        W61104  14.460   3.216   8.321 -0.1262 -0.2810 -0.0081
    1W        W61105  27.250   7.364   9.173 -0.0174 -0.2011 -0.0956
    1W        W61106  24.011  20.186   8.620 -0.0589 -0.1745  0.1005
    1W        W61107  11.852  29.329   7.655  0.0653  0.1284 -0.0904
    1W        W61108  13.366   7.974   6.087 -0.0050  0.0043  0.0062
    1W        W61109  23.901  14.624   9.416 -0.1269  0.0285 -0.0920
    1W        W61110   4.186  13.579   6.372  0.3487 -0.0489  0.0094
    1W        W61111  17.198  28.526   7.922 -0.4079  0.2886 -0.1796
    1W        W61112   2.542   5.789   8.308  0.1653  0.1534  0.0018
    1W        W61113  23.397   9.286   0.222 -0.2882 -0.4083 -0.2242
    1W        W61114   0.569  17.203   1.674  0.1378 -0.2605 -0.3093
    1W        W61115  25.935   0.666   2.445 -0.0608 -0.0586  0.1739
    1W        W61116  14.983   6.842   6.793  0.0440 -0.2018  0.1500
    1W        W61117  12.635  25.748   0.741  0.0095  0.2287 -0.1937
    1W        W61118  28.226   5.422   0.227  0.3025  0.3395 -0.1786
    1W        W61119   6.767  28.409   0.021  0.2400 -0.0647  0.1156
    1W        W61120  21.468  22.272   2.740 -0.0365 -0.1282  0.0053
    1W        W61121   8.910  28.713   0.152  0.4445 -0.0281 -0.1630
    1W        W61122   9.480  23.491   2.421 -0.0421 -0.0806  0.0498
    1W        W61123   7.040   8.140   2.378  0.0358 -0.2881  0.1523
    1W        W61124  25.031  12.484   1.294 -0.1718 -0.4115  0.0495
    1W        W61125   4.578  15.395   7.308 -0.1593 -0.2409  0.3493
    1W        W61126  11.270  24.610   3.012  0.0006  0.1539  0.1225
    1W        W61127   0.181  15.950   8.683  0.3863  0.2347 -0.2004
    1W        W61128  15.482  10.619   2.096  0.0756 -0.1474 -0.0087
    1W        W61129  23.931  24.592   7.650 -0.1801  0.1070  0.4435
    1W        W61130   6.909  27.010   9.006  0.0300  0.3999 -0.0471
    1W        W61131   2.867   6.192   0.760  0.3267  0.2283 -0.0013
    1W        W61132  28.732  24.042   1.465  0.0948 -0.2863  0.0195
    1W        W61133  11.868  22.748   8.436 -0.1842 -0.0919 -0.1805
    1W        W61134  14.186  24.251   2.328  0.2757  0.1718  0.0578
    1W        W61135  16.400  14.832   0.699  0.2099  0.0557  0.3413
    1W        W61136  26.563  19.347   2.869 -0.1244 -0.0066  0.1928
    1W        W61137  11.878  26.542   1.701 -0.2845  0.1956  0.3287
    1W        W61138   4.083   4.326   6.701 -0.0724 -0.2678 -0.0152
    1W        W61139  11.775  11.617   9.446  0.0221  0.1718 -0.1404
    1W        W61140   4.732  23.618   3.251  0.0743  0.0541 -0.1274
    1W        W61141   5.291  12.367   6.791  0.1532  0.1213 -0.2468
    1W        W61142  26.071   9.171   8.903 -0.2342 -0.0502 -0.0173
    1W        W61143  20.113  14.985   8.620 -0.0571 -0.3190  0.2842
    1W        W61144   1.938  19.382   0.541  0.0633 -0.0371 -0.1131
    1W        W61145  16.967  15.269   2.246  0.0659  0.0854 -0.1681
    1W        W61146   8.892  15.819   7.119 -0.0364  0.0137  0.0159
    1W        W61147  25.486  19.215   8.052  0.5187 -0.1402  0.2351
    1W        W61148   5.513   5.456   1.257  0.1603 -0.2253  0.0484
    1W        W61149  22.544  27.875   3.198 -0.0619  0.3196 -0.1283
    1W        W61150   4.705   3.549   8.996  0.1514  0.1779  0.1164
    1W        W61151  14.311   1.909   0.733  0.0512  0.1184 -0.0915
    1W        W61152   6.643  24.536   9.220  0.0765 -0.1553  0.0751
    1W        W61153   3.124  13.291   7.217  0.1065  0.0350  0.0031
    1W        W61154  20.667  14.937   8.526  0.0978  0.2407  0.0135
    1W        W61155  11.301  23.121   6.804 -0.0589 -0.2705  0.2429
    1W        W61156   8.229  11.136   8.901 -0.1989 -0.0055 -0.0373
    1W        W61157  23.519  15.061   8.112 -0.1842  0.0516  0.0645
    1W        W61158  28.854  20.036   3.268 -0.0270  0.1701 -0.2249
    1W        W61159   0.562  11.248   8.009  0.1483  0.2382  0.1175
    1W        W61160   2.009  12.284   9.022  0.0257 -0.3080 -0.0127
    1W        W61161   4.823  17.585   7.274 -0.2019  0.0474  0.1561
    1W        W61162  21.300  17.107   9.058  0.4103 -0.2306  0.2304
    1W        W61163   6.456   6.211   7.290  0.2338 -0.2597 -0.0908
    1W        W61164  11.696  16.115   0.650  0.0914 -0.1055 -0.1600
    1W        W61165   4.876  21.360   7.941  0.0089  0.1982 -0.3470
    1W        W61166  27.931   9.698   0.442 -0.2569  0.0284 -0.5690
    1W        W61167   0.011  20.517   9.202 -0.1622  0.1222  0.0490
    1W        W61168  22.791  22.315   8.821 -0.1236  0.1910  0.0300
    1W        W61169   3.497   6.709   8.213 -0.4523 -0.0376  0.1931
    1W        W61170  11.576  18.822   1.029 -0.5669  0.0483  0.1071
    1W        W61171   4.797   2.194   2.010 -0.2420 -0.2241  0.3550
    1W        W61172  11.305  12.243   5.915  0.0697 -0.1206  0.0421
    1W        W61173  27.630  26.352   7.885  0.5240 -0.0718 -0.0792
    1W        W61174   4.316  22.912   0.824  0.0835  0.0808  0.0544
    1W        W61175  19.193   6.100   8.837 -0.0605 -0.1428 -0.2783
    1W        W61176  12.534  25.899   1.542 -0.1453 -0.1077 -0.1612
    1W        W61177  17.719   3.115   1.171  0.2338  0.0280 -0.2380
    1W        W61178  28.307   4.473   9.233 -0.2067 -0.1383  0.0363
    1W        W61179  10.869   0.526   7.943  0.0143  0.2899 -0.0168
    1W        W61180   6.792   7.717   6.907  0.2282  0.0960  0.0054
    1W        W61181   9.535   1.568   6.200 -0.0257 -0.1456  0.0843
    1W        W61182   8.415   3.427   8.263  0.2760 -0.2964  0.2619
    1W        W61183  24.142  12.293   9.085  0.0096 -0.0945  0.0502
    1W        W61184  23.477  13.782   1.777  0.1464 -0.0144 -0.2697
    1W        W61185   4.572   1.667   1.795  0.1400  0.1463 -0.1026
    1W        W61186  11.257  23.780   1.789 -0.2422  0.1956  0.1713
    1W        W61187  11.455  21.837   1.666 -0.1014  0.1418 -0.0425
    1W        W61188  18.860   9.635   7.554  0.2704  0.6000 -0.2717
    1W        W61189   6.024  12.380   1.011  0.1043  0.1357  0.1851
    1W        W61190  22.937  25.494   0.349 -0.0368  0.3106 -0.2277
    1W        W61191   6.882  27.970   7.113  0.3709 -0.1735 -0.1446
    1W        W61192  27.645  10.491   0.053  0.0229  0.2179  0.1500
    1W        W61193   3.328  24.737   0.917 -0.0564 -0.1965  0.0025
    1W        W61194  25.930   4.184   1.411  0.2198  0.1061 -0.2488
    1W        W61195  18.602  29.091   7.021 -0.0140  0.1046  0.2350
    1W        W61196  16.953  10.538   8.285  0.2447 -0.0412  0.0315
    1W        W61197  10.991   5.634   7.634  0.0528 -0.1516 -0.2915
    1W        W61198  26.903  10.101   7.520 -0.0479  0.0574 -0.1340
    1W        W61199   8.172  21.954   1.514 -0.0451  0.0662  0.1530
    1W        W61200  10.582  13.713   1.404 -0.0685  0.1138 -0.2667
    1W        W61201   4.950  21.264   0.639 -0.0086 -0.0383 -0.2412
    1W        W61202  19.011  13.598   1.204  0.2476 -0.1375 -0.1742
    1W        W61203  15.009   8.610   7.180 -0.0108  0.1709 -0.2635
    1W        W61204   1.572   4.088   6.846 -0.0886  0.0819 -0.1421
    1W        W61205  11.596   0.431   7.800 -0.0074 -0.1203  0.2154
    1W        W61206  17.773  18.986   1.910  0.0422 -0.1160  0.1835
    1W        W61207   4.567  13.608   7.255  0.0874  0.2597 -0.1073
    1W        W61208  22.059   0.276   1.430 -0.0583  0.0245 -0.0633
    1W        W61209  28.591  16.754   2.275 -0.0426 -0.2147  0.3448
    1W        W61210  29.061  10.865   0.483  0.1461  0.2754 -0.1984
    1W        W61211  21.224   5.103   0.040 -0.1536 -0.0749 -0.2639
    1W        W61212  23.219  21.594   7.412  0.0670 -0.1231 -0.3446
    1W        W61213  18.722   1.164   9.422  0.0283  0.1517 -0.2034
    1W        W61214   8.517  25.494   7.895  0.0488 -0.0479  0.1520
    1W        W61215   1.149  20.145   3.998 -0.0210 -0.0150 -0.0054
    1W        W61216  24.109  28.575   8.566 -0.2386 -0.2810 -0.1392
    1W        W61217  13.222   7.662   8.913 -0.1016 -0.2310  0.0158
    1W        W61218  23.789  14.599   8.099  0.2159  0.1700 -0.1209
    1W        W61219  24.398   5.179   0.918  0.0055 -0.1776  0.0415
    1W        W61220   3.493  24.437   1.359 -0.2900 -0.0213  0.2013
    1W        W61221   2.994  19.617   1.319  0.2266  0.1640  0.0511
    1W        W61222  21.529  22.444   1.616  0.0623 -0.5315  0.3123
    1W        W61223  28.281   6.818   8.055  0.1741  0.3496  0.1670
    1W        W61224  26.935   5.191   0.571 -0.1438 -0.3014  0.2037
    1W        W61225  11.182   8.166   0.156 -0.0223  0.1201 -0.1183
    1W        W61226  13.695  15.628   6.666 -0.0968 -0.1063 -0.0902
    1W        W61227  11.491  29.181   0.304 -0.0677 -0.0510  0.2573
    1W        W61228   5.389   8.025   7.956  0.0995  0.2577  0.1663
    1W        W61229  12.247  26.080   2.264 -0.2511  0.0534  0.0960
    1W        W61230  21.631  24.407   2.652  0.1350  0.3050  0.0012
    1W        W61231  21.250  19.211   1.267 -0.0551 -0.0316 -0.1322
    1W        W61232  24.397  24.805   2.904 -0.0806 -0.0513 -0.2307
    1W        W61233  27.786   9.815   0.945 -0.0259  0.1434  0.1483
    1W        W61234  16.229   0.500   6.783  0.0774  0.0747 -0.1594
    1W        W61235   2.809   3.809   6.945  0.1096 -0.0901  0.2761
    1W        W61236  28.699   5.463   8.831 -0.1668  0.0950 -0.2722
    1W        W61237  23.697  18.210   7.978  0.1588  0.2468  0.2496
    1W        W61238   5.270   1.658   0.340 -0.0016 -0.1616 -0.2002
    1W        W61239  19.317  22.779   2.200 -0.1472 -0.1163  0.1113
    1W        W61240  28.506  15.399   8.990 -0.2051 -0.3096  0.2115
    1W        W61241  25.593  21.478   8.022 -0.1995  0.0738  0.2328
    1W        W61242   1.235   0.711   2.588  0.0115 -0.1322  0.2778
    1W        W61243  13.073  15.750   1.145 -0.2446  0.0953  0.1128
    1W        W61244   2.984   1.181   9.605 -0.0638 -0.0926 -0.0296
    1W        W61245   1.044   7.373   7.594 -0.1419  0.2002  0.1723
    1W        W61246   3.473  25.136   0.125 -0.2351  0.0696 -0.1222
    1W        W61247  11.273   6.501   9.146  0.0310 -0.2549 -0.2526
    1W        W61248   2.508   4.893   2.562  0.0332 -0.0799 -0.1782
    1W        W61249  12.929  25.376   8.379 -0.1273  0.1972 -0.0208
    1W        W61250   0.756  24.495   7.018 -0.2749  0.3642 -0.1945
    1W        W61251  18.517  15.373   1.934 -0.0979 -0.0557  0.0286
    1W        W61252   3.794   6.188   8.529  0.1445 -0.1275 -0.0385
    1W        W61253  26.129  21.066   0.438  0.1461 -0.3119 -0.2096
    1W        W61254   8.511   1.103   8.267  0.1943 -0.1744 -0.1424
    1W        W61255   3.911   2.183   2.342  0.0070  0.1406  0.0961
    1W        W61256  25.719  14.762   9.180  0.0450  0.1749  0.0421
    1W        W61257   1.828   1.511   2.568 -0.3906  0.0938  0.4104
    1W        W61258   8.397  22.397   1.705  0.2047  0.2398  0.0275
    1W        W61259  18.169   9.164   1.989  0.2935  0.1104 -0.2029
    1W        W61260   3.075  21.520   2.969  0.0158  0.1119  0.1860
    1W        W61261   0.761  28.406   8.033 -0.1209 -0.1748 -0.0132
    1W        W61262  14.057  18.452   9.225 -0.4176 -0.0043  0.1649
    1W        W61263  21.010  27.111   0.237  0.0519 -0.0879  0.1670
    1W        W61264  26.046  12.407   8.367  0.1771 -0.2572  0.1762
    1W        W61265   0.402  17.358   9.175  0.2606 -0.3400  0.2392
    1W        W61266  23.395   8.076   0.556 -0.1249 -0.2267  0.1816
    1W        W61267  14.268   2.269   7.440 -0.0149  0.2611 -0.0969
    1W        W61268  15.881  17.676   8.051  0.2701  0.1009  0.3303
    1W        W61269  22.994   0.233   1.143 -0.0961  0.1975 -0.2731
    1W        W61270   3.920   3.087   2.056 -0.2256 -0.1536 -0.2546
    1W        W61271  25.016  14.497   2.115  0.1461  0.0673  0.1386
    1W        W61272  12.656   7.523   1.515 -0.0413 -0.0889  0.0376
    1W        W61273  14.532  18.234   7.065  0.1498 -0.1978  0.0011
    1W        W61274   0.771  19.367   9.532  0.1431  0.0653  0.1623
    1W        W61275  13.936  17.405   9.308 -0.0137  0.1278  0.2447
    1W        W61276  13.081  21.228   0.361 -0.1196 -0.0227  0.1483
    1W        W61277  11.162  24.342   7.962 -0.1000 -0.0929 -0.0992
    1W        W61278  16.579   2.032   0.958 -0.1817  0.1921 -0.1026
    1W        W61279   9.603  29.304   8.871  0.1775 -0.0281 -0.0566
    1W        W61280   6.352   8.882   6.843  0.0813 -0.0114 -0.0506
    1W        W61281  15.970  18.461   7.611 -0.0705  0.1709 -0.2619
    1W        W61282   0.015  13.471   9.524 -0.2180  0.0014 -0.0044
    1W        W61283  20.437   2.866   9.461  0.0549 -0.0137  0.0710
    1W        W61284  28.860  27.810   2.684  0.0846  0.3594  0.1033
    1W        W61285  20.847  16.892   9.215 -0.1691  0.2049  0.1016
    1W        W61286   6.311  24.006   1.395 -0.0506 -0.4158 -0.3411
    1W        W61287  15.255   6.607   8.614 -0.3088 -0.0616 -0.1042
    1W        W61288   5.674   3.815   7.683  0.1453 -0.0331  0.1663
    1W        W61289   9.742  17.169   1.738 -0.1661 -0.0677  0.2172
    1W        W61290  25.114   4.253   0.677 -0.1503  0.0961 -0.1320
    1W        W61291  14.939  17.592   1.213 -0.3457 -0.1659 -0.0272
    1W        W61292  15.264  24.303   7.695 -0.2745 -0.1363  0.3071
    1W        W61293  24.977   0.928   0.809  0.0802  0.2264 -0.2772
    1W        W61294  14.087   3.189   7.052 -0.4195 -0.0246 -0.2514
    1W        W61295  25.338  21.592   1.845 -0.2011 -0.0828  0.0824
    1W        W61296   3.178  23.782   9.340 -0.1932 -0.1629  0.1107
    1W        W61297   6.767   5.834   0.113 -0.0011  0.1446  0.2098
    1W        W61298   1.782   6.637   2.054 -0.0722 -0.3977  0.0668
    1W        W61299  17.683   9.604   2.227  0.0719 -0.2124  0.1236
    1W        W61300  13.784   6.720   3.008 -0.1939 -0.0740  0.0516
    1W        W61301  20.804  14.800   2.102  0.1296  0.0258  0.2108
    1W        W61302   9.313  18.381   7.868 -0.4057  0.0013 -0.1686
    1W        W61303   4.290  15.552   7.653  0.2292 -0.1185  0.1236
    1W        W61304  18.309  21.067   8.062 -0.2706 -0.1636  0.1315
    1W        W61305  12.702   0.961   0.500  0.2701  0.1188  0.0623
    1W        W61306  11.260   9.647   2.629  0.2440 -0.0504 -0.0529
    1W        W61307  21.024   4.266   2.248 -0.1444  0.0349  0.2930
    1W        W61308  27.931   7.241   6.521  0.0891 -0.0040  0.2768
    1W        W61309   3.776  14.012   7.555  0.1000 -0.1064 -0.0716
    1W        W61310  14.552   8.510   0.659  0.1682  0.5000  0.2867
    1W        W61311  10.948   4.206   6.965 -0.0032 -0.0623  0.1605
    1W        W61312  24.768   7.098   7.479  0.0740  0.0628  0.0485
    1W        W61313  14.611   2.130   1.432 -0.1095 -0.1163 -0.2046
    1W        W61314   3.923  17.697   1.927  0.0407 -0.2785  0.2042
    1W        W61315  24.371  27.101   2.571  0.0738 -0.1522  0.1344
    1W        W61316   1.910   1.635   6.758 -0.0698 -0.1232 -0.3988
    1W        W61317   9.808   0.446   6.472  0.1428 -0.1027 -0.0890
    1W        W61318  15.951   3.442   1.455  0.2557  0.1261  0.1945
    1W        W61319   1.141   3.920   9.288 -0.0380  0.1705 -0.0603
    1W        W61320   3.313   9.349   1.023 -0.0223 -0.0938 -0.1050
    1W        W61321   0.711   9.699   8.739 -0.1591  0.0205 -0.0917
    1W        W61322  10.200  22.579   2.550  0.1703  0.0361  0.2336
    1W        W61323  18.808  18.341   1.176 -0.5574  0.0389  0.4716
    1W        W61324   4.522   8.249   7.419  0.0102  0.1723  0.0955
    1W        W61325  27.715   7.982   0.496 -0.3718  0.2534  0.2829
    1W        W61326  25.997  22.344   8.376  0.2136 -0.1559 -0.3213
    1W        W61327   3.523  18.163   2.630  0.2649  0.1082 -0.2057
    1W        W61328  10.361  10.489   5.820  0.0702 -0.0012  0.3387
    1W        W61329   3.788  22.203   6.657  0.0209  0.0104  0.0667
    1W        W61330  10.011   5.446   9.546  0.2010 -0.0447  0.3564
    1W        W61331  19.657  20.818   0.252 -0.0511  0.2584  0.2652
    1W        W61332   3.634  12.090   6.698  0.1095 -0.0028 -0.0853
    1W        W61333  11.064  27.063   8.291  0.0544 -0.0815  0.0827
    1W        W61334  13.022   6.622   7.199  0.1521 -0.1506  0.0506
    1W        W61335  25.724  10.609   1.799 -0.3209 -0.0630 -0.1717
    1W        W61336   0.575  17.225   6.864  0.3804 -0.2422  0.2138
    1W        W61337  19.664   0.492   2.035 -0.0614 -0.3074  0.1090
    1W        W61338  14.311  24.377   0.146  0.0858 -0.1732  0.1135
    1W        W61339   6.160   9.870   0.131 -0.1352 -0.1063 -0.2546
    1W        W61340  27.742   7.191   9.035  0.0105 -0.2670  0.1971
    1W        W61341  22.375   0.222   1.036 -0.1085  0.1172 -0.1042
    1W        W61342  28.736   6.147   9.407 -0.0798  0.3684 -0.3331
    1W        W61343  21.739  22.686   4.018 -0.2881 -0.2957 -0.0560
    1W        W61344  25.072  21.475   7.937  0.0941  0.1726  0.0584
    1W        W61345  10.513   6.434   6.439  0.0018 -0.1584 -0.0710
    1W        W61346   1.153   6.286   9.539  0.0599 -0.0593 -0.1931
    1W        W61347  26.228  13.772   8.003 -0.0318 -0.3805 -0.1711
    1W        W61348   5.534   9.606   8.833  0.0145  0.1635  0.0233
    1W        W61349  28.260  28.541   8.115 -0.1013  0.0991 -0.2590
    1W        W61350  27.383   6.793   1.745  0.2285  0.1046  0.0183
    1W        W61351  25.132  10.342   9.601 -0.0716  0.2589 -0.0902
    1W        W61352   3.103  21.711   7.902  0.0765 -0.1553  0.2009
    1W        W61353  17.627  28.065   8.967  0.1018  0.0354 -0.1122
    1W        W61354   7.549  28.971   9.285  0.1989  0.3730 -0.0822
    1W        W61355   0.817  17.186   7.309 -0.0117 -0.0272 -0.0279
    1W        W61356  14.532   0.358   8.274  0.2464 -0.0545 -0.1424
    1W        W61357  20.043  11.335   8.722  0.1170  0.1239  0.3033
    1W        W61358  19.282  25.190   3.994  0.0413 -0.0437  0.1280
    1W        W61359  14.059  24.067   1.862 -0.0795  0.1934 -0.1631
    1W        W61360   9.804  13.019   9.530  0.1459 -0.0864 -0.2150
    1W        W61361  28.445  27.113   0.552  0.1483  0.0291  0.0543
    1W        W61362   8.719  28.727   1.096 -0.0569 -0.0662 -0.0583
    1W        W61363  28.064  14.611   7.754 -0.3067  0.0746  0.1552
    1W        W61364  11.854   0.915   8.100 -0.1535  0.1402  0.0158
    1W        W61365  12.771   0.217   0.760  0.0422  0.0650 -0.2063
    1W        W61366   4.779  19.365   9.108  0.2063 -0.3193  0.0236
    1W        W61367  24.723  10.677   9.282  0.1229  0.1404 -0.0125
    1W        W61368  25.583  16.001   0.021  0.0494 -0.1846  0.0843
    1W        W61369  27.728   3.756   1.539  0.0522  0.0274 -0.1326
    1W        W61370   4.211  26.548   0.465 -0.0170 -0.1669  0.1837
    1W        W61371  14.001   1.687   1.302  0.2982 -0.1295  0.1750
    1W        W61372  11.032  11.087   6.584  0.2138 -0.0355 -0.1685
    1W        W61373  29.322   8.862   7.471  0.2663 -0.0369  0.3627
    1W        W61374   2.024   5.928   9.525  0.1284  0.0864 -0.2722
    1W        W61375  22.687  26.887   3.007 -0.1149  0.1086  0.3417
    1W        W61376  25.834   7.909   0.821 -0.1480  0.1250 -0.3778
    1W        W61377  27.931   4.025   8.473 -0.0178  0.1153 -0.0381
    1W        W61378   8.136  20.640   3.252  0.1194 -0.1873 -0.0177
    1W        W61379   5.100   5.347   9.087  0.0460  0.0071  0.0132
    1W        W61380   0.531  19.646   9.131  0.0817  0.1063 -0.0117
    1W        W61381  29.372   3.414   7.628 -0.0771  0.1974  0.0439
    1W        W61382  22.123   6.821   0.691 -0.2726 -0.0396 -0.2570
    1W        W61383  14.620   0.195   1.517  0.0206  0.1773  0.2761
    1W        W61384  21.868  14.328   2.509  0.2319  0.1420 -0.3497
    1W        W61385  12.071  29.454   6.837  0.1272 -0.1397  0.0109
    1W        W61386  18.858  17.019   9.290  0.0771 -0.1630  0.3821
    1W        W61387   2.174   8.701   6.414 -0.0251 -0.1253  0.0492
    1W        W61388  20.834   8.186   7.430 -0.0391 -0.2738 -0.1995
    1W        W61389  23.153  19.717   2.514 -0.1299 -0.1516 -0.0457
    1W        W61390  12.056   0.238   1.078 -0.0537  0.1408  0.0451
    1W        W61391  23.545  27.407   8.194  0.0812 -0.3990  0.1248
    1W        W61392  19.203  21.766   8.854 -0.1730 -0.0898  0.1757
    1W        W61393  19.425  24.241   0.761  0.3176  0.0461 -0.0032
    1W        W61394   6.673  11.806   6.575  0.0444  0.3131  0.0835
    1W        W61395   8.870  16.090   2.173  0.0394  0.1636  0.1263
    1W        W61396   5.370  15.279   6.460  0.2144 -0.0037  0.0808
    1W        W61397  19.348   8.922   9.222  0.0802  0.1132  0.0179
    1W        W61398  29.225  21.516   9.493  0.0014  0.4811  0.1560
    1W        W61399  22.470  17.341   9.539 -0.3947  0.1314 -0.1514
    1W        W61400   4.538  13.220   7.826  0.2601 -0.1303 -0.0994
    1W        W61401  10.156   2.603   0.647 -0.0840  0.2603  0.2631
    1W        W61402  27.137   1.557   8.916 -0.1561 -0.1589  0.1543
    1W        W61403  21.794  23.502   2.068  0.1268 -0.0760  0.0535
    1W        W61404  26.162   4.898   7.612  0.0402 -0.0218  0.2478
    1W        W61405   5.559  10.120   7.012  0.0594 -0.0556  0.1728
    1W        W61406   8.207  24.563   8.420  0.0339  0.1763 -0.3397
    1W        W61407  23.074  14.619   2.337 -0.1235  0.1055  0.1244
    1W        W61408  25.564  13.961   8.140  0.2515 -0.1750 -0.2070
    1W        W61409   3.103   3.860   2.429 -0.0275 -0.0163 -0.0110
    1W        W61410  12.944   0.916   2.316 -0.0586 -0.0606 -0.2672
    1W        W61411   9.528  21.595   6.644  0.0254 -0.0401 -0.0104
    1W        W61412  21.463   6.764   9.034  0.0283 -0.0179  0.0371
    1W        W61413  16.496  11.752   2.616  0.0641 -0.1982 -0.0890
    1W        W61414   3.541   2.172   1.024  0.1624  0.1276 -0.1124
    1W        W61415   0.610  29.339   7.751  0.0031 -0.2441  0.0634
    1W        W61416  11.759  26.233   9.544  0.0809 -0.1603  0.1089
    1W        W61417   7.453  11.374   2.145  0.1348  0.1603  0.0171
    1W        W61418  11.851  21.427   1.543  0.3666  0.1312  0.0909
    1W        W61419  10.857  26.427   2.509  0.1871  0.1209 -0.0736
    1W        W61420  10.571  13.301   2.555  0.3609 -0.3117  0.1768
    1W        W61421   9.410  28.880   6.766 -0.0246  0.0620  0.3222
    1W        W61422   7.602  27.672   6.429 -0.0944 -0.0247 -0.1045
    1W        W61423   7.518  11.857   9.043  0.0819 -0.0644  0.0625
    1W        W61424  28.971  23.561   1.021 -0.1191 -0.2374  0.0657
    1W        W61425  11.751  15.042   7.519  0.1321  0.2246 -0.1340
    1W        W61426  18.000  18.326   0.104  0.2705  0.4787 -0.1397
    1W        W61427  12.183  26.054   0.021  0.1535 -0.1272  0.1293
    1W        W61428  28.267  10.345   7.147 -0.1660  0.1804  0.0238
    1W        W61429  18.379  16.755   1.967  0.0736 -0.0046  0.0704
    1W        W61430  22.228   5.434   8.449 -0.3548 -0.3078 -0.0648
    1W        W61431  16.373  11.104   7.415 -0.0808  0.1393  0.1544
    1W        W61432  28.906  27.759   1.252 -0.5173 -0.0126  0.1208
    1W        W61433  14.349   2.814   6.769  0.3408 -0.0911  0.1726
    1W        W61434   9.135  22.314   2.895 -0.2525  0.2929 -0.2106
    1W        W61435  28.668  22.677   1.248  0.0904 -0.0027 -0.2936
    1W        W61436   0.720   0.671   9.572 -0.2743 -0.3451 -0.3651
    1W        W61437   6.808  21.456   0.007  0.0190 -0.0717  0.1153
    1W        W61438  10.480  23.513   9.526  0.0095 -0.1089  0.0211
    1W        W61439  19.424   2.435   6.922  0.2066  0.0600 -0.0807
    1W        W61440  12.158  13.169   7.728 -0.3540 -0.2017 -0.2437
    1W        W61441   2.148   0.811   7.478  0.1759  0.2854  0.1096
    1W        W61442   2.785  15.957   1.143  0.0920 -0.1621  0.1603
    1W        W61443  27.439   3.483   1.292  0.0773 -0.0019 -0.1837
    1W        W61444  11.131  13.501   1.980  0.1195  0.1165  0.0123
    1W        W61445  20.691   8.604   7.603 -0.1401  0.1057 -0.0274
    1W        W61446   6.246  27.457   8.195 -0.1219 -0.0766  0.0311
    1W        W61447  18.482   3.332   2.244  0.3757  0.0942 -0.0624
    1W        W61448  17.675  19.056   2.541  0.1311  0.0729  0.0610
    1W        W61449  19.001   7.768   0.829 -0.1355 -0.1839 -0.0523
    1W        W61450  25.435   2.999   8.230  0.1193  0.1216 -0.1689
    1W        W61451   5.356  22.913   1.356 -0.1216  0.2544  0.0147
    1W        W61452  19.997  21.761   0.511 -0.1107 -0.1400 -0.0304
    1W        W61453  11.063  24.402   6.560 -0.2411 -0.3255  0.3165
    1W        W61454   1.924  20.909   3.620 -0.0082  0.1065 -0.2996
    1W        W61455  26.181  14.524   9.285 -0.2427 -0.3108  0.1639
    1W        W61456  24.112   3.829   8.144  0.0732 -0.3980  0.1904
    1W        W61457  14.060  16.062   1.906  0.1157 -0.2742 -0.2373
    1W        W61458  24.455   5.032   9.229  0.2761  0.1150 -0.1629
    1W        W61459   0.596  14.221   2.060 -0.2998 -0.0519  0.2224
    1W        W61460  17.880  27.878   8.577 -0.1028  0.1515 -0.2657
    1W        W61461   6.587  27.569   8.542 -0.0861  0.0196 -0.1802
    1W        W61462  15.760   7.378   9.041  0.1743  0.3414  0.0295
    1W        W61463  12.990  11.297   0.992  0.2029  0.1158 -0.0424
    1W        W61464  10.355  22.896   2.190  0.2474  0.1834  0.1575
    1W        W61465   4.727  23.549   8.371 -0.1328 -0.0480 -0.3089
    1W        W61466  14.599  17.263   0.386  0.1062  0.2130  0.0765
    1W        W61467  15.896   2.911   0.659 -0.0192 -0.0725  0.0999
    1W        W61468  24.033  13.298   9.327  0.2511  0.0819  0.1597
    1W        W61469   6.419   1.381   7.673  0.0186 -0.1576  0.0854
    1W        W61470  15.521  19.731   0.892 -0.4540 -0.0992  0.0959
    1W        W61471  15.089   6.746   9.257  0.3126  0.1538 -0.1956
    1W        W61472  14.845  20.635   0.303  0.0898 -0.2172 -0.2678
    1W        W61473  18.529  23.733   3.178  0.1744  0.2349 -0.0785
    1W        W61474  26.177   5.172   0.370 -0.2885 -0.0018  0.0915
    1W        W61475   2.564  17.182   2.329  0.1741 -0.1447 -0.5537
    1W        W61476  21.759  29.137   1.051  0.0352  0.3132 -0.0974
    1W        W61477   9.676   0.707   1.306 -0.1599  0.2447 -0.1455
    1W        W61478   3.716  20.273   8.760 -0.0507 -0.0365 -0.1241
    1W        W61479  14.204  12.336   9.567  0.0340  0.0793 -0.6607
    1W        W61480  10.682   7.118   1.294  0.2350  0.3628  0.0073
    1W        W61481   7.869  22.457   0.555  0.1586 -0.2765  0.0093
    1W        W61482  23.173  13.383   0.598  0.1695  0.1965  0.0545
    1W        W61483   1.432   7.205   7.949  0.2606  0.1511  0.0613
    1W        W61484  19.633  11.729   8.729 -0.0113 -0.2176 -0.0840
    1W        W61485  28.958   5.679   8.002 -0.0402 -0.0711 -0.2780
    1W        W61486   3.443  14.738   8.156 -0.3272 -0.0486  0.0325
    1W        W61487   0.696  11.190   9.031 -0.0479 -0.4014  0.0219
    1W        W61488  16.397  14.332   0.434 -0.2840 -0.3310  0.0077
    1W        W61489   9.598  16.366   2.783 -0.2927 -0.2085  0.1051
    1W        W61490  28.343  19.068   3.549 -0.1129  0.0387  0.2314
    1W        W61491  11.880  20.733   8.394 -0.0147 -0.1527 -0.0361
    1W        W61492  14.618  16.006   8.533  0.0175  0.1134  0.1479
    1W        W61493   7.454  27.091   1.472 -0.0292  0.1716  0.0827
    1W        W61494  15.230  28.297   6.630 -0.1467  0.2906 -0.0021
    1W        W61495  22.100  23.951   0.863  0.2199 -0.0662 -0.0429
    1W        W61496  11.455  22.337   0.825 -0.1078  0.1247 -0.0152
    1W        W61497  24.228   5.038   0.504  0.0549 -0.0651 -0.0529
    1W        W61498  15.780   2.664   6.244 -0.0150  0.2057  0.1717
    1W        W61499  28.207  13.415   7.509  0.1969  0.0288  0.0171
    1W        W61500  15.701  25.913   8.222 -0.1485 -0.0825  0.2030
    1W        W61501  10.736   0.196   1.938 -0.1967  0.0858  0.2971
    1W        W61502   4.202   8.110   5.211  0.3272  0.1571 -0.0255
    1W        W61503  25.440  17.326   7.734 -0.0144 -0.2730  0.1392
    1W        W61504  26.709  12.054   7.489  0.1929 -0.1629  0.0638
    1W        W61505  25.691   9.101   0.609  0.0754 -0.1683  0.0476
    1W        W61506   7.802   7.795   8.422  0.0303  0.3456  0.1548
    1W        W61507   3.732   3.566   6.916 -0.1592  0.1246 -0.2550
    1W        W61508   4.791  10.261   7.495  0.0239  0.1605  0.2579
    1W        W61509  16.792  20.783   8.084 -0.1536 -0.1417 -0.2211
    1W        W61510   5.981  29.355   6.622  0.0004  0.0802 -0.0535
    1W        W61511   8.938   1.578   6.180  0.1250 -0.1762 -0.0317
    1W        W61512   5.115  14.617   0.881  0.1978  0.0691 -0.2905
    1W        W61513  12.063   8.571   0.658  0.0130 -0.4613 -0.1201
    1W        W61514   3.014  28.491   8.457 -0.1707 -0.0009 -0.0126
    1W        W61515  29.075  13.221   1.215  0.2468 -0.0573  0.1237
    1W        W61516  21.944  17.712   0.051  0.2349  0.0102  0.1224
    1W        W61517  17.150  27.957   3.251  0.0499 -0.0805  0.0628
    1W        W61518   8.971  21.908   3.121 -0.0409 -0.5598 -0.1947
    1W        W61519  12.148   2.909   9.428 -0.0025 -0.2391 -0.0528
    1W        W61520  24.409   6.763   7.470  0.2813 -0.0571  0.0184
    1W        W61521  12.938  14.914   7.127  0.2396  0.0776  0.2282
    1W        W61522  22.521  15.285   7.767  0.0609  0.0316 -0.2709
    1W        W61523   4.914   0.870   7.601  0.2556 -0.0590 -0.0972
    1W        W61524   8.270   0.394   1.360 -0.1018 -0.4464  0.1804
    1W        W61525   7.574  25.871   8.849 -0.1629 -0.1502 -0.2091
    1W        W61526  29.001  19.382   1.988 -0.0686  0.1483  0.5222
    1W        W61527  12.604   8.684   8.627 -0.1466  0.2721  0.0012
    1W        W61528  15.284   0.559   0.414 -0.2069  0.3109 -0.0429
    1W        W61529   3.566  13.314   7.082  0.3129 -0.1979  0.1804
    1W        W61530   8.505  12.712   7.850  0.0656  0.3592  0.0551
    1W        W61531  24.275  23.262   1.286 -0.1402  0.5190  0.1324
    1W        W61532  22.010   2.792   2.814  0.0042 -0.1463  0.2111
    1W        W61533   4.769  19.489   1.988 -0.0789 -0.1683  0.0453
    1W        W61534  19.455  28.145   3.483  0.3624 -0.0779 -0.1628
    1W        W61535  19.491  18.106   8.205  0.0886 -0.1057  0.0107
    1W        W61536  16.346   3.512   1.006  0.1699 -0.1176 -0.2243
    1W        W61537  15.395  13.237   1.507 -0.0516 -0.0021  0.1060
    1W        W61538   9.397  21.677   6.190  0.3973 -0.2924 -0.1694
    1W        W61539   8.681   5.367   8.962 -0.2487  0.1863  0.2896
    1W        W61540  22.794  22.950   2.612  0.0302 -0.1833  0.2231
    1W        W61541  25.113  23.494   9.135 -0.0781  0.1957 -0.0838
    1W        W61542  27.342  22.243   3.644  0.1278 -0.2724 -0.1166
    1W        W61543  26.960   1.495   6.628 -0.0163  0.2479  0.0586
    1W        W61544  23.558  17.268   0.122  0.2596 -0.1204  0.3758
    1W        W61545  28.937  19.881   0.642 -0.3840  0.2742  0.1514
    1W        W61546   9.801  13.995   0.269 -0.0073 -0.2386  0.0178
    1W        W61547  25.896  21.957   2.199 -0.1283  0.1673 -0.2837
    1W        W61548   1.839  25.947   0.701 -0.1427  0.1578 -0.0811
    1W        W61549  24.917  10.943   8.936 -0.2396 -0.1573 -0.1494
    1W        W61550   8.823  26.681   1.445 -0.0781  0.2864  0.1437
    1W        W61551  29.406   1.188   6.669  0.0386 -0.0596  0.0100
    1W        W61552  14.701  29.611   7.935  0.1235  0.1705  0.2355
    1W        W61553   1.582   9.822   1.826  0.2208 -0.1044 -0.3470
    1W        W61554  21.959  15.025   1.626  0.1060  0.2067 -0.3549
    1W        W61555  19.383  17.608   1.248 -0.0707  0.1472 -0.2619
    1W        W61556   4.639   6.799   7.733 -0.2398  0.3013  0.1862
    1W        W61557  10.419  17.377   6.431 -0.0733  0.0327 -0.0308
    1W        W61558  24.153   8.285   2.940  0.2257 -0.0566  0.0222
    1W        W61559  25.274  14.927   8.446 -0.0199  0.2584 -0.1852
    1W        W61560  24.766  25.962   0.668  0.0810 -0.0616  0.1962
    1W        W61561   8.977  28.115   7.047  0.1291  0.0231  0.0222
    1W        W61562   8.614  21.623   2.696 -0.1580 -0.0320 -0.2074
    1W        W61563  14.326   6.624   8.056  0.1039  0.0900  0.1659
    1W        W61564  17.941   3.777   9.448 -0.2611 -0.1083 -0.0720
    1W        W61565  16.602  25.290   9.023 -0.1567 -0.1309 -0.1896
    1W        W61566   3.387   2.176   2.332 -0.6281 -0.1095 -0.3319
    1W        W61567  11.010  28.156   9.231 -0.1905 -0.1672  0.0205
    1W        W61568   4.358  22.837   0.059 -0.2175  0.1409  0.0880
    1W        W61569  23.826   5.852   1.466 -0.0467  0.1967 -0.0591
    1W        W61570  12.700  27.935   2.773  0.0325  0.0538 -0.1353
    1W        W61571   2.005  12.434   6.824  0.0567  0.2514  0.0588
    1W        W61572  25.376  14.095   0.110  0.0725 -0.1577  0.0283
    1W        W61573  24.048   2.111   8.157 -0.0689  0.2554 -0.0356
    1W        W61574  12.007  12.279   8.896  0.1971 -0.2647 -0.2507
    1W        W61575  15.728  25.070   8.855  0.2225 -0.1568 -0.1322
    1W        W61576   2.466  14.241   7.338 -0.1029  0.1439  0.1126
    1W        W61577  20.123  16.100   2.320 -0.1036  0.2443 -0.0493
    1W        W61578  10.614  25.099   7.009  0.0564 -0.4233 -0.2716
    1W        W61579  24.882  17.855   2.889  0.1421  0.0182  0.0519
    1W        W61580  21.599  15.149   8.202  0.1524 -0.1521 -0.3969
    1W        W61581  24.835   3.313   8.978  0.3124 -0.1663 -0.1716
    1W        W61582  27.968   3.703   1.161 -0.0156  0.1794 -0.0064
    1W        W61583  18.693   9.921   2.072  0.0988  0.2072  0.2415
    1W        W61584  12.296   2.770   1.970 -0.0968  0.3301 -0.0184
    1W        W61585  22.898  23.536   7.866  0.1374  0.0197 -0.0785
    1W        W61586  26.229  27.035   1.473  0.2951 -0.0317  0.1010
    1W        W61587  14.896  22.100   9.397  0.1566 -0.0246  0.0107
    1W        W61588   4.994   6.438   7.973  0.1130 -0.0393 -0.0355
    1W        W61589  11.167   9.567   8.429 -0.0581 -0.1287 -0.2936
    1W        W61590  22.224  16.360   9.636 -0.2706  0.0367  0.0430
    1W        W61591   5.682   7.447   8.961 -0.4122  0.0407 -0.2327
    1W        W61592  10.017  24.149   8.960  0.2189 -0.3678  0.0849
    1W        W61593   8.622   0.057   1.697  0.0062  0.1692 -0.0243
    1W        W61594  12.717   9.351   6.881  0.0870 -0.2166 -0.0215
    1W        W61595  20.063  22.861   8.681  0.1227  0.1413  0.2070
    1W        W61596  20.420  25.007   1.489 -0.1377  0.2811  0.3099
    1W        W61597  19.294   5.100   2.202 -0.2050 -0.1787  0.1642
    1W        W61598  21.072  21.518   7.074 -0.1011 -0.0670  0.1865
    1W        W61599  21.640  24.029   7.845  0.1889 -0.1047  0.0401
    1W        W61600  27.030  17.632   1.765 -0.1762  0.0533 -0.0247
    1W        W61601  12.096  12.210   1.789 -0.0657 -0.2458 -0.0878
    1W        W61602   3.080   9.078   6.086  0.2238 -0.1452  0.2324
    1W        W61603  15.448  25.727   9.640  0.1203  0.0308  0.2650
    1W        W61604  10.121   1.959   8.832  0.0129 -0.1327 -0.1726
    1W        W61605  13.293   7.930   2.081  0.0837  0.1905  0.2688
    1W        W61606  15.406  17.146   8.489 -0.0075  0.2763 -0.3198
    1W        W61607  25.791  24.114   9.319 -0.0104 -0.1170  0.5575
    1W        W61608  17.863  17.103   8.764 -0.3524 -0.1148 -0.2695
    1W        W61609   4.964   5.938   7.805 -0.1139 -0.0472 -0.1792
    1W        W61610  20.343  16.515   2.054 -0.0143 -0.0788  0.4177
    1W        W61611   6.865  24.267   7.573  0.0480 -0.1201  0.0266
    1W        W61612   3.626  25.339   2.449  0.0136 -0.2341  0.0009
    1W        W61613  28.840  29.003   1.756 -0.4450 -0.1106 -0.2316
    1W        W61614   8.016  15.037   5.769 -0.1075 -0.3440  0.1294
    1W        W61615  26.436   7.619   9.201  0.1568  0.2085 -0.3129
    1W        W61616  10.631   2.499   8.105  0.0179 -0.1888 -0.1260
    1W        W61617  14.988  29.022   8.596 -0.0849 -0.0949  0.1186
    1W        W61618  26.667   7.414   7.106  0.1557  0.0810  0.0827
    1W        W61619  24.329  20.356   7.469 -0.1018  0.2092  0.1896
    1W        W61620  14.309   4.278   7.856  0.1026  0.0021 -0.0774
    1W        W61621   4.091   2.153   8.368  0.1153  0.4599 -0.0449
    1W        W61622  18.973  18.957   9.510 -0.1463 -0.2561 -0.0792
    1W        W61623  27.410  12.737   8.974 -0.1957  0.2565 -0.2803
    1W        W61624  19.107  12.666   9.293 -0.2417 -0.1573 -0.0488
    1W        W61625   5.718  24.895   8.838  0.5288 -0.2618  0.2333
    1W        W61626   3.854  25.496   2.903 -0.1086 -0.0826 -0.3376
    1W        W61627  14.476  26.454   0.475  0.0911  0.0045 -0.0305
    1W        W61628   8.736  24.604   6.562  0.2501  0.2756 -0.0073
    1W        W61629   7.735  19.027   8.534 -0.0387 -0.2435  0.1733
    1W        W61630  12.191  20.248   2.394  0.2669  0.1114  0.3450
    1W        W61631   2.706  22.529   2.696  0.0071 -0.1132 -0.1345
    1W        W61632  22.846   1.483   3.097 -0.1333 -0.0114 -0.2166
    1W        W61633  29.088   9.242   8.845 -0.1740 -0.1085  0.0291
    1W        W61634  21.138  13.516   8.746  0.0405 -0.0768 -0.2013
    1W        W61635   0.386   0.986   0.096 -0.1594 -0.0848  0.2594
    1W        W61636   7.020   3.035   1.648 -0.1780  0.1023 -0.1938
    1W        W61637   2.114  17.696   7.559 -0.0668  0.3742 -0.0317
    1W        W61638  12.453  18.960   6.745  0.1895 -0.3451 -0.0471
    1W        W61639   8.708  25.917   5.682  0.1619 -0.2674 -0.0733
    1W        W61640  16.812   1.059   9.343  0.0669  0.1231 -0.2316
    1W        W61641  12.800  13.638   6.675 -0.1358 -0.1412 -0.1951
    1W        W61642  19.265  26.841   8.403  0.2037  0.1772  0.1593
    1W        W61643  17.693  17.815   9.581 -0.0398  0.0034  0.2641
    1W        W61644  27.728  29.426   7.917  0.0307  0.3670 -0.2295
    1W        W61645   7.461   8.229   1.601 -0.0613  0.1982 -0.1637
    1W        W61646   2.831   9.717   9.303 -0.2767 -0.0966 -0.0599
    1W        W61647   7.777  27.868   1.768  0.3259 -0.0804 -0.0069
    1W        W61648  18.050  12.712   9.490  0.0869  0.0900 -0.1035
    1W        W61649   5.860  22.240   1.428 -0.0274  0.3619  0.1560
    1W        W61650  13.462  24.112   7.890  0.0212  0.0981  0.0483
    1W        W61651   0.203   6.940   9.194  0.2028 -0.0112  0.1075
    1W        W61652  11.552   1.713   8.548 -0.2256  0.1986 -0.1861
    1W        W61653  21.625  28.866   3.516  0.1618 -0.0257  0.1205
    1W        W61654   2.868  10.861   7.684  0.1831  0.1026 -0.1872
    1W        W61655   4.125  14.653   1.831 -0.3294 -0.0388  0.2585
    1W        W61656  13.835   9.339   6.774  0.3417  0.1659  0.0113
    1W        W61657   4.435   2.386   7.619 -0.0104  0.2514  0.3741
    1W        W61658  27.700  10.516   2.286  0.1189  0.3734  0.1437
    1W        W61659  14.384  12.861   7.690 -0.0861 -0.2799 -0.0119
    1W        W61660   7.755  17.387   9.432 -0.0394  0.0321 -0.1083
    1W        W61661   8.494  11.652   7.562 -0.3567 -0.2352  0.0085
    1W        W61662  11.498  12.874   6.062  0.0893 -0.4972 -0.3000
    1W        W61663  29.600   9.880   1.326  0.1632  0.1640  0.0301
    1W        W61664   4.783   1.728   7.049  0.0135 -0.1173 -0.0725
    1W        W61665  24.307  23.076   8.153  0.2401  0.0338 -0.1287
    1W        W61666  28.134  11.016   0.671 -0.0744  0.0282  0.1042
    1W        W61667  27.930  25.316   7.401  0.2993 -0.2094  0.1678
    1W        W61668  22.479  19.931   6.876  0.1624  0.1453  0.0386
    1W        W61669   6.751  21.332   1.168 -0.1875  0.0899  0.0192
    1W        W61670  20.790  21.861   3.423  0.0443  0.1696  0.0483
    1W        W61671  29.524  29.237   8.998 -0.2728  0.0215  0.0141
    1W        W61672  12.277  10.488   7.617  0.2243  0.0452 -0.0934
    1W        W61673  12.819  21.649   5.784 -0.1536  0.1817 -0.0758
    1W        W61674  14.776  23.215   7.343 -0.1102 -0.0974  0.3475
    1W        W61675   8.499  10.979   0.087 -0.1453  0.1259  0.4960
    1W        W61676  10.604   9.133   1.387 -0.1466 -0.3387  0.1373
    1W        W61677  16.022   8.397   0.338  0.2066  0.1188  0.3335
    1W        W61678  27.975   2.956   7.921  0.0844  0.0640 -0.0234
    1W        W61679  23.024  15.233   7.887  0.0776  0.0672  0.2253
    1W        W61680   8.755  21.741   8.072  0.0201 -0.2451 -0.3294
    1W        W61681  24.488  10.457   8.324  0.1489 -0.4888 -0.0974
    1W        W61682  11.181   9.203   7.098 -0.1486  0.1118  0.0430
    1W        W61683  17.262  13.107   7.763  0.0655 -0.0985 -0.0535
    1W        W61684   6.313  29.134   7.823  0.0962  0.2542 -0.1488
    1W        W61685   0.178  27.272   1.541  0.0283  0.1464 -0.1529
    1W        W61686  28.310   8.012   8.440 -0.1668 -0.0795 -0.1088
    1W        W61687  16.711  12.772   9.629  0.2461 -0.2150  0.2130
    1W        W61688  22.418  16.258   1.405 -0.1171  0.0861 -0.2211
    1W        W61689   8.157  24.917   1.157 -0.4812  0.0891  0.0287
    1W        W61690  28.331   3.663   6.701 -0.0520 -0.0139 -0.0951
    1W        W61691  11.901   7.348   8.792 -0.3116  0.2624 -0.1750
    1W        W61692   6.078  24.756   7.315  0.4755  0.1576  0.2951
    1W        W61693   4.295  23.275   1.847 -0.0794  0.3568 -0.0480
    1W        W61694  10.414  28.976   6.080  0.0914 -0.0472  0.2541
    1W        W61695  17.576  18.554   2.117  0.2458 -0.1950 -0.1398
    1W        W61696  10.283  22.678   9.303  0.3023 -0.1621  0.1141
    1W        W61697   5.006  10.574   7.798  0.0731  0.2979  0.2220
    1W        W61698   5.070  23.348   0.229  0.1050  0.1744  0.0855
    1W        W61699   7.127  20.828   0.346 -0.0778  0.1212 -0.1465
    1W        W61700   5.613  27.524   6.904 -0.1267 -0.3383 -0.2254
    1W        W61701  24.764  11.581   0.838 -0.1412 -0.0324  0.1002
    1W        W61702  11.531   6.744   9.518  0.3428 -0.1088  0.1795
    1W        W61703  24.396  17.931   3.103 -0.1908  0.0948 -0.0528
    1W        W61704  20.029  19.804   8.707 -0.1735 -0.2062  0.1732
    1W        W61705  25.545  29.505   2.853 -0.1220 -0.1620  0.0707
    1W        W61706  13.117  15.729   6.522 -0.0257  0.1200  0.0643
    1W        W61707  16.253  26.138   7.937  0.2112 -0.0156 -0.0240
    1W        W61708  13.232  15.537   3.330 -0.1340 -0.2207 -0.0267
    1W        W61709  18.673  28.713   0.029  0.2360  0.1759  0.2392
    1W        W61710   1.972  25.405   8.251 -0.0043  0.0144 -0.0967
    1W        W61711  12.847   6.668   7.701 -0.0705  0.0228 -0.0316
    1W        W61712   2.579  19.782   1.751 -0.2057 -0.2270 -0.0100
    1W        W61713  13.468   9.043   0.727 -0.2205  0.0554 -0.0837
    1W        W61714   1.559  23.783   0.704 -0.2478  0.0552 -0.0696
    1W        W61715  23.108  22.695   2.153 -0.0557  0.3636  0.2848
    1W        W61716  23.886  17.419   9.313 -0.0106 -0.3072  0.2227
    1W        W61717   3.078  22.299   1.230 -0.0570  0.4885  0.0264
    1W        W61718  13.400  27.555   1.855 -0.1367 -0.2082  0.0730
    1W        W61719   7.962   1.902   7.771 -0.2022  0.1184 -0.0926
    1W        W61720   6.226  13.416   0.310 -0.0853  0.4895 -0.0890
    1W        W61721  29.151   1.208   0.348 -0.2705 -0.3134  0.0999
    1W        W61722  28.723  10.685   1.721  0.1601  0.2572 -0.2689
    1W        W61723  24.875   7.060   1.020 -0.3721 -0.0199  0.0968
    1W        W61724  27.077  15.994   0.354  0.0534 -0.2252 -0.1427
    1W        W61725  11.312  26.381   8.835  0.2073 -0.4968 -0.0560
    1W        W61726  26.248   1.770   2.668  0.0105  0.0225 -0.2329
    1W        W61727   1.348  29.282   0.576 -0.0124 -0.2428 -0.0411
    1W        W61728  23.906   6.989   0.847  0.0385  0.4255 -0.1174
    1W        W61729  18.491  29.188   0.425  0.2590 -0.2914  0.1547
    1W        W61730  11.613  19.648   0.220  0.1482 -0.1186 -0.0787
    1W        W61731  25.195   3.507   2.231  0.3478  0.1488  0.1446
    1W        W61732  20.175  20.326   9.423  0.1787  0.1562  0.4359
    1W        W61733  20.619  13.622   8.815  0.4556  0.3599 -0.1422
    1W        W61734  15.475  16.744   0.647 -0.1353 -0.0759  0.0511
    1W        W61735  29.522  18.142   0.993 -0.0352  0.2331  0.0279
    1W        W61736  26.720  23.420   9.220 -0.0672 -0.0445 -0.1961
    1W        W61737   6.457  18.633   0.594  0.0907 -0.0048  0.1079
    1W        W61738  27.401   4.333   9.132 -0.4850  0.4136 -0.2491
    1W        W61739  17.716   3.442   8.067  0.2921  0.0673  0.1333
    1W        W61740  21.033  10.149   2.560  0.0151  0.2853 -0.0108
    1W        W61741   8.026  12.223   9.242 -0.2460 -0.0138 -0.1277
    1W        W61742  26.288  13.949   9.364  0.1737  0.3538  0.0682
    1W        W61743  21.002  24.697   1.412  0.2196 -0.0015 -0.2368
    1W        W61744   1.439   0.846   1.178  0.3474  0.0179  0.2983
    1W        W61745  25.331  14.229   2.403 -0.1737 -0.0637  0.1516
    1W        W61746  29.250  13.472   0.450  0.0040  0.1552  0.2201
    1W        W61747   8.149   5.404   2.190  0.0727  0.0645 -0.0109
    1W        W61748  11.453  11.342   1.068  0.1764 -0.1176  0.0032
    1W        W61749  16.060  11.110   0.474  0.0197 -0.1356  0.1201
    1W        W61750  15.996  21.554   6.565  0.0677 -0.3635  0.0477
    1W        W61751  28.344  29.146   1.873 -0.2639  0.0925 -0.0554
    1W        W61752   6.519   9.389   0.086  0.0927 -0.0003  0.0308
    1W        W61753  10.673  13.163   2.120 -0.0117  0.1619  0.1849
    1W        W61754  16.460  16.372   8.744 -0.0747 -0.4011 -0.0362
    1W        W61755  26.470  17.110   3.595  0.1481 -0.0382  0.1552
    1W        W61756  17.457  25.805   1.473 -0.0871  0.1369  0.3131
    1W        W61757  12.324   5.674   6.705  0.0159  0.1898  0.0071
    1W        W61758   8.659  14.621   1.967  0.0836 -0.0964 -0.1271
    1W        W61759  20.051  16.536   8.331  0.1031 -0.1274  0.0511
    1W        W61760   3.232  23.143   0.545  0.0699 -0.0112  0.3847
    1W        W61761  26.529   9.845   6.924  0.1644  0.0722  0.0997
    1W        W61762  25.791  20.596   0.389 -0.0154 -0.1371  0.4443
    1W        W61763   2.140  18.501   0.002  0.1213  0.1035 -0.0147
    1W        W61764  18.452   2.250   3.474  0.2505  0.0023 -0.2335
    1W        W61765  24.143  19.174   3.153 -0.1089  0.3790  0.1299
    1W        W61766   3.274  20.119   0.625 -0.0683 -0.0263  0.0580
    1W        W61767   0.274  15.845   8.073 -0.1419 -0.0456 -0.4335
    1W        W61768  18.662  19.872   2.247  0.4451 -0.0586  0.3510
    1W        W61769   1.805   3.351   7.141 -0.1340 -0.0201 -0.2113
    1W        W61770   2.396  19.035   1.110  0.3343 -0.0892 -0.0408
    1W        W61771  21.070  22.270   3.222 -0.2578  0.2428  0.1592
    1W        W61772  18.795  15.846   2.336  0.2514 -0.0842 -0.3918
    1W        W61773   6.197  17.197   8.616  0.0420 -0.1570  0.0116
    1W        W61774  16.277   0.683   0.533 -0.2478  0.1052 -0.0988
    1W        W61775  13.796  12.899   9.039 -0.2910  0.4212 -0.2111
    1W        W61776  25.750   5.408   0.135  0.0150  0.1883  0.0984
    1W        W61777  21.932  19.249   7.313  0.0480  0.0754 -0.1977
    1W        W61778  14.997  23.470   7.656 -0.3675  0.3125 -0.2908
    1W        W61779  20.051  22.236   0.308 -0.0679 -0.2156 -0.0033
    1W        W61780  18.074  21.284   3.262  0.1732 -0.0730  0.1634
    1W        W61781   0.339   8.500   8.396 -0.4545 -0.0883  0.1707
    1W        W61782  20.062   0.590   2.797  0.0457  0.0308 -0.1010
    1W        W61783   8.819  16.502   6.442 -0.2635  0.1616  0.0303
    1W        W61784  17.937  27.224   3.349 -0.1344  0.1861 -0.1050
    1W        W61785  22.909   2.782   8.914  0.1001 -0.1734  0.3098
    1W        W61786  25.826   2.404   9.205 -0.1726  0.1774 -0.0474
    1W        W61787   2.719  20.148   0.070  0.2079  0.0909 -0.0076
    1W        W61788   8.379   2.859   8.290 -0.1083 -0.1621 -0.0142
    1W        W61789  13.309  22.118   1.580 -0.3361  0.0059  0.0816
    1W        W61790   3.873  13.894   0.039  0.0264 -0.0551  0.0132
    1W        W61791  20.119  23.123   3.737  0.1232  0.0374  0.1187
    1W        W61792  12.789  11.180   7.328 -0.0319 -0.1218  0.0620
    1W        W61793  23.013  28.842   7.201  0.2065 -0.0487 -0.0200
    1W        W61794   6.112  17.698   8.786  0.3142  0.2981 -0.1844
    1W        W61795  17.523  18.224   2.964  0.2577 -0.1905  0.1281
    1W        W61796  12.578  26.586   0.337  0.0129  0.0487  0.1259
    1W        W61797  24.684  13.865   9.391  0.0129  0.1404  0.2897
    1W        W61798   7.004  17.118   7.607 -0.3290  0.0630  0.1814
    1W        W61799   4.471   2.189   8.041 -0.3173 -0.1253 -0.2011
    1W        W61800  16.822   0.554   8.457 -0.1064  0.0924  0.1781
    1W        W61801  10.636  17.870   1.780  0.1108 -0.0670 -0.1333
    1W        W61802  14.374  29.522   8.390  0.0148  0.1303 -0.0717
    1W        W61803  19.165  19.517   8.617 -0.0421 -0.0344 -0.1983
    1W        W61804  16.779  20.816   0.470 -0.0192 -0.1038 -0.2544
    1W        W61805  20.202  14.977   0.837  0.3486 -0.2020 -0.0485
    1W        W61806  12.061   2.803   7.338 -0.2589  0.1016 -0.1802
    1W        W61807   3.623  26.966   2.351  0.0933  0.2818 -0.2656
    1W        W61808   8.829  18.672   8.727 -0.2660  0.0335 -0.0526
    1W        W61809  27.854  22.409   9.420 -0.2390 -0.1025  0.1679
    1W        W61810  24.890  27.249   3.117  0.0262 -0.2334 -0.3173
    1W        W61811   5.774  12.301   6.940 -0.3777 -0.3186  0.0990
    1W        W61812  21.539  17.510   3.203  0.0380 -0.0859  0.2619
    1W        W61813  29.475   2.473   8.431 -0.1483  0.0255 -0.0905
    1W        W61814  27.486  21.781   3.863 -0.1080  0.0218  0.0860
    1W        W61815   3.557  10.010   8.628 -0.3691 -0.1280  0.1057
    1W        W61816   6.675  28.097   7.694  0.0272 -0.0432 -0.0096
    1W        W61817  15.345  22.329   7.142  0.0189  0.0685  0.3843
    1W        W61818  27.851  26.953   2.586 -0.1226  0.1209 -0.0169
    1W        W61819   4.897   4.098   6.931 -0.7045  0.0836 -0.1095
    1W        W61820  22.645   5.156   8.451 -0.1938  0.1068 -0.1817
    1W        W61821  11.753  27.238   8.349  0.1366  0.2828  0.3787
    1W        W61822  23.379   8.449   2.258  0.3208 -0.0692  0.1092
    1W        W61823  15.493   6.397   0.839  0.1386 -0.3451 -0.0153
    1W        W61824  23.370   4.129   1.906  0.0809 -0.1831  0.3480
    1W        W61825  23.030   1.623   2.608 -0.0611  0.1281  0.0574
    1W        W61826  13.002  25.216   6.299  0.0763 -0.1466  0.1073
    1W        W61827  12.946   1.067   6.768  0.0676 -0.1307 -0.2046
    1W        W61828  21.855   6.477   2.003  0.3343 -0.0513 -0.0521
    1W        W61829  11.100  24.365   3.500  0.0424  0.0554  0.0794
    1W        W61830  20.872  10.698   0.033  0.0909  0.2122 -0.0956
    1W        W61831  10.919  16.578   9.219  0.1998 -0.0130  0.3344
    1W        W61832  11.804  16.659   1.701 -0.1812 -0.2819  0.2210
    1W        W61833   3.612  20.378   1.974 -0.4111 -0.0449 -0.1258
    1W        W61834  29.104  29.311   3.141  0.1213  0.0765  0.2320
    1W        W61835  12.191   0.339   1.771  0.0430  0.1561  0.2426
    1W        W61836  24.973  24.495   8.844  0.1954  0.3110  0.2367
    1W        W61837  18.832  19.706   1.250  0.0285 -0.0367 -0.0268
    1W        W61838  22.182  27.610   9.242  0.0637  0.0701 -0.1542
    1W        W61839   4.740  22.179   1.407 -0.3762 -0.0019 -0.0299
    1W        W61840   3.618  11.693   8.472 -0.0592  0.2295  0.0526
    1W        W61841  24.113  14.712   1.106 -0.1325  0.1055 -0.1501
    1W        W61842  19.236  19.990   8.741 -0.1077  0.3800 -0.2007
    1W        W61843   8.398  21.135   2.787 -0.1342 -0.2497  0.0869
    1W        W61844  11.369   9.164   0.363  0.2062  0.1899  0.0433
    1W        W61845   2.643  21.653   8.060  0.2629  0.1373 -0.3433
    1W        W61846  25.275  19.409   9.467  0.3049 -0.1073  0.2952
    1W        W61847  14.822  27.043   2.123  0.2513  0.0274  0.1228
    1W        W61848   8.513   2.878   1.788  0.2584 -0.0282  0.0793
    1W        W61849   6.994  28.429   8.007  0.0355 -0.2779 -0.1199
    1W        W61850  12.022   9.161   9.273 -0.0468 -0.2766 -0.2029
    1W        W61851   2.021   3.433   6.276 -0.4426  0.0186 -0.1057
    1W        W61852  23.865  19.122   2.147 -0.1930  0.3083  0.0995
    1W        W61853  15.866  11.271   7.480 -0.0691  0.0425  0.4031
    1W        W61854  29.295  23.781   9.516 -0.1164 -0.1267  0.1701
    1W        W61855  29.096  17.366   1.641  0.3683  0.0330 -0.0143
    1W        W61856  11.791  10.361   7.634 -0.0526  0.0672  0.0130
    1W        W61857  15.742  23.069   1.916 -0.1691 -0.0725  0.2467
    1W        W61858  21.436  28.544   3.134  0.2739  0.0537 -0.1229
    1W        W61859  17.065  28.174   1.676  0.2329  0.0495  0.1223
    1W        W61860   5.329   8.534   0.717 -0.0838  0.2107 -0.3313
    1W        W61861  19.641  13.285   0.163 -0.0565 -0.0870  0.0893
    1W        W61862  19.986  24.408   2.339  0.2786 -0.0032 -0.2594
    1W        W61863   7.148  22.976   8.220 -0.0538 -0.0253 -0.2906
    1W        W61864   3.933   2.466   0.845  0.0720  0.4743 -0.1984
    1W        W61865  28.034  14.624   1.142  0.1128 -0.0890 -0.2613
    1W        W61866   0.734  24.614   1.838  0.0955 -0.2274 -0.0682
    1W        W61867  12.559   4.134   9.028  0.2384  0.2872 -0.0649
    1W        W61868   4.133  22.115   7.044  0.0424  0.2986  0.0167
    1W        W61869  25.571  28.298   8.172 -0.1263  0.1261  0.2227
    1W        W61870  26.984  24.509   1.414  0.1030 -0.0852 -0.1922
    1W        W61871   6.816   5.391   2.674 -0.1598  0.0382  0.1599
    1W        W61872   8.245  29.586   9.052  0.1107 -0.0335 -0.0604
    1W        W61873   0.164  27.035   2.018 -0.0048 -0.0968  0.1613
    1W        W61874   0.376  18.090   0.901 -0.1001 -0.0344 -0.0064
    1W        W61875  24.049   1.173   9.115 -0.2509 -0.0473 -0.0903
    1W        W61876   9.231  10.925   2.065  0.2180  0.4819 -0.0332
    1W        W61877   2.372   2.922   2.445 -0.1741  0.3091 -0.3298
    1W        W61878  10.021   7.113   1.886  0.1459 -0.1878  0.0018
    1W        W61879  29.185  19.235   3.838 -0.4351 -0.0493  0.1382
    1W        W61880   4.533  20.889   7.385  0.2774  0.2151  0.2056
    1W        W61881  13.504  27.779   7.515 -0.0467 -0.0893 -0.1919
    1W        W61882  13.789   1.011   0.829 -0.2491  0.1154  0.1800
    1W        W61883  26.914  10.776   2.127 -0.0259 -0.0531 -0.0581
    1W        W61884   9.558   3.212   0.452  0.0517 -0.0092  0.0109
    1W        W61885   1.023   6.716   0.046  0.2251 -0.0790  0.1220
    1W        W61886  12.073  27.034   1.910  0.2236 -0.2264  0.0658
    1W        W61887  16.705  28.521   7.806 -0.0352 -0.2352  0.0835
    1W        W61888  12.114  26.616   0.592 -0.1844  0.0483  0.0808
    1W        W61889   3.677  28.994   7.650 -0.1161  0.0451 -0.0727
    1W        W61890  25.994   4.212   0.095 -0.0404  0.0314  0.1909
    1W        W61891  25.890   9.804   9.281  0.0130  0.2645 -0.0509
    1W        W61892   7.199   6.139   0.330 -0.2827  0.0893 -0.1570
    1W        W61893  10.195  24.125   2.696  0.0238  0.0007 -0.0303
    1W        W61894  27.055  23.109   8.866 -0.2368  0.4802 -0.1328
    1W        W61895  25.016   3.107   1.882  0.0025  0.2737 -0.1630
    1W        W61896   8.586   3.313   7.494  0.1725  0.0958 -0.2257
    1W        W61897   7.032  23.074   6.439 -0.0094 -0.4667  0.2158
    1W        W61898  17.589   4.899   2.266 -0.2069 -0.0572  0.0827
    1W        W61899  15.760  24.374   7.985  0.2382 -0.5000 -0.1245
    1W        W61900  10.969  24.141   2.179 -0.0354 -0.2437  0.1742
    1W        W61901  19.316  22.577   9.156  0.1599  0.2839 -0.0060
    1W        W61902  11.248  11.803   0.954  0.2134 -0.1832 -0.2336
    1W        W61903   9.039  18.713   2.798  0.2492  0.0081  0.1264
    1W        W61904  25.925   9.880   1.592  0.0059 -0.0340  0.2536
    1W        W61905  18.368  18.106   8.470 -0.0574  0.1339  0.0113
    1W        W61906  19.175  29.008   7.610 -0.2052 -0.0932 -0.0543
    1W        W61907   6.269  10.295   5.794 -0.2559  0.1655  0.0383
    1W        W61908   0.114   2.876   0.495  0.1059 -0.0557 -0.1664
    1W        W61909  12.958   8.783   1.956  0.1216 -0.1059 -0.1827
    1W        W61910   0.298  23.870   3.402  0.0393 -0.1560 -0.1437
    1W        W61911   1.249  14.766   7.054 -0.0223 -0.0737 -0.0836
    1W        W61912   5.477   9.383   6.072  0.1458  0.0940  0.3092
    1W        W61913  26.222  20.652   8.570 -0.1999  0.1311 -0.0008
    1W        W61914  18.252  15.605   7.698  0.1511  0.1177 -0.0553
    1W        W61915   8.760  15.192   0.672  0.0408  0.4012 -0.1813
    1W        W61916   6.602  13.089   8.550 -0.0058 -0.0685  0.0610
    1W        W61917  13.799   0.579   7.854  0.0461 -0.0762 -0.2717
    1W        W61918  21.672  10.767   8.510  0.2225 -0.0728 -0.0059
    1W        W61919  26.006  13.687   9.052  0.0905 -0.2096 -0.0588
    1W        W61920   6.900  24.623   6.959  0.1714  0.1986 -0.2396
    1W        W61921   2.771   1.135   8.552  0.2562 -0.2239 -0.0136
    1W        W61922  20.880   9.559   8.884 -0.2035 -0.2854  0.0818
    1W        W61923   6.887   9.229   5.949  0.3170 -0.0838 -0.1004
    1W        W61924  20.253  16.942   8.086  0.1254 -0.1549  0.0256
    1W        W61925   9.103   0.906   6.655  0.2179 -0.0146  0.1440
    1W        W61926   1.641   4.164   6.367  0.2482  0.0440  0.1682
    1W        W61927  13.493  22.915   1.846 -0.2335 -0.1020  0.2104
    1W        W61928  24.462   3.002   7.953  0.5465  0.1613 -0.2934
    1W        W61929  25.975  29.005   2.152 -0.2277  0.1529 -0.0179
    1W        W61930   8.299  13.262   6.112 -0.1108 -0.1546  0.0659
    1W        W61931  21.334  14.362   9.239  0.3680 -0.1905  0.0281
    1W        W61932  29.567   8.248   0.982  0.0374  0.0024  0.0385
    1W        W61933   1.337  13.026   2.101  0.0829  0.0217 -0.1091
    1W        W61934  16.377  24.462   1.713 -0.0713  0.3212 -0.1205
    1W        W61935  20.895   7.275   8.726  0.0423 -0.1836 -0.2998
    1W        W61936  26.557  23.151   0.002 -0.1807 -0.2893  0.1261
    1W        W61937   8.154   1.854   6.601  0.0410  0.2066 -0.0176
    1W        W61938  20.546  15.218   1.337  0.2294 -0.2144  0.1480
    1W        W61939   5.300   5.037   1.406 -0.3450  0.0145 -0.1369
    1W        W61940   1.833   6.025   5.911  0.2432 -0.0617  0.1598
    1W        W61941  26.336   0.061   0.244  0.0480  0.2815  0.1061
    1W        W61942   4.285  19.629   7.757 -0.1447 -0.0590 -0.6359
    1W        W61943   7.209  19.702   8.993 -0.1305  0.2168  0.0947
    1W        W61944   5.242  27.882   7.075 -0.2309 -0.1075 -0.0343
    1W        W61945   0.434   9.574   7.907 -0.0882 -0.1405 -0.0195
    1W        W61946  21.120  20.562   1.238  0.1274  0.5235  0.1631
    1W        W61947   8.839  18.276   1.121  0.1739  0.2118 -0.1737
    1W        W61948  19.740  12.188   8.562  0.2365  0.3171  0.2789
    1W        W61949   5.903   6.711   7.818  0.0868  0.0083  0.0146
    1W        W61950  25.710   6.049   0.923  0.3764 -0.2467  0.0621
    1W        W61951   2.644  26.510   7.481 -0.0178 -0.0115  0.0682
    1W        W61952  27.369   4.023   2.066  0.0126 -0.0588  0.0044
    1W        W61953  12.892  15.195   2.798  0.0176  0.0800 -0.2396
    1W        W61954  21.037   8.941   2.147  0.0340 -0.1695  0.3225
    1W        W61955  23.587  26.056   2.568 -0.1012  0.2219  0.0881
    1W        W61956  14.464  29.085   2.251  0.0569 -0.0129 -0.1913
    1W        W61957  16.629  10.298   0.888 -0.0036 -0.0513 -0.1556
    1W        W61958  13.132  28.218   8.397  0.0536 -0.3603  0.1015
    1W        W61959  20.684   1.256   7.917  0.0825  0.0990  0.2413
    1W        W61960  17.740  10.110   2.017 -0.0714  0.2851  0.0860
    1W        W61961  29.046   8.950   0.349  0.1014 -0.1578  0.3803
    1W        W61962  13.785   6.885   6.221 -0.0941  0.3902 -0.0101
    1W        W61963  22.180   1.891   2.576 -0.3854 -0.3112 -0.2521
    1W        W61964  16.201  23.911   7.973  0.0754  0.2653 -0.1109
    1W        W61965  26.624  16.647   8.099  0.0711 -0.2636 -0.2457
    1W        W61966  13.971  28.710   5.928  0.2819  0.0831  0.0159
    1W        W61967   0.538  21.096   9.255  0.0198  0.1767  0.2661
    1W        W61968  23.356   7.086   1.932 -0.2747 -0.0780 -0.0992
    1W        W61969   8.161   5.060   8.178  0.0663  0.0048  0.2064
    1W        W61970  21.301   5.298   7.106  0.0871  0.0097  0.2179
    1W        W61971   7.930  14.379   8.512  0.0980  0.3418 -0.2357
    1W        W61972  20.011  19.066   7.402 -0.0210  0.1691 -0.0896
    1W        W61973   0.605  20.119   0.297  0.2295 -0.2792  0.4755
    1W        W61974  13.620  25.293   0.199 -0.0423 -0.1159 -0.1270
    1W        W61975  21.839  20.841   2.592  0.3897 -0.0625  0.0193
    1W        W61976   3.513  15.031   7.787  0.3351  0.0436 -0.2277
    1W        W61977  16.386  12.304   0.705  0.2430 -0.1501 -0.0805
    1W        W61978   4.153  23.326   4.114 -0.0883 -0.1413 -0.0235
    1W        W61979   2.820   2.553   3.012  0.3192 -0.0158 -0.2069
    1W        W61980  23.640  10.553   2.459 -0.1057 -0.1992 -0.1759
    1W        W61981  11.937  17.966   8.324  0.1498 -0.0781  0.0351
    1W        W61982  26.023  11.007   1.998  0.0438  0.0497  0.1623
    1W        W61983  22.814   3.742   2.115 -0.3192 -0.0367  0.0297
    1W        W61984  29.474   2.600   1.844  0.2403  0.2928 -0.1214
    1W        W61985  28.716   4.423   1.017 -0.3054 -0.0267 -0.1239
    1W        W61986  23.649  14.903   9.051  0.0867  0.2949  0.1629
    1W        W61987  25.118  16.074   9.375  0.4527  0.3398  0.1779
    1W        W61988   0.749   0.936   8.333 -0.2129 -0.0026 -0.0757
    1W        W61989  24.081  22.169   0.347  0.2128 -0.0662 -0.1101
    1W        W61990  20.755  18.548   7.209 -0.1218  0.2379 -0.0752
    1W        W61991  22.988  23.947   0.180  0.0303  0.0331  0.3472
    1W        W61992  18.870  26.698   1.414  0.2088 -0.0744  0.2455
    1W        W61993   4.732  23.416   2.008  0.0785  0.2674 -0.0252
    1W        W61994  26.416  28.845   2.463 -0.0213  0.0644  0.0238
    1W        W61995   7.553  11.482   1.546 -0.0141 -0.3275  0.0056
    1W        W61996  20.306   6.945   1.900  0.0789  0.1197 -0.2031
    1W        W61997  11.744  10.059   0.471  0.0233 -0.1142 -0.0450
    1W        W61998  20.027  16.774   0.251 -0.1509  0.0018 -0.1158
    1W        W61999  26.364  12.980   7.599  0.0490  0.0284 -0.0049
    1W        W62000   8.615  20.038   9.269  0.0532 -0.0359 -0.1099
    1W        W62001   5.280  25.166   7.879  0.1703 -0.3280 -0.0637
    1W        W62002  15.207   8.058   0.004 -0.0300 -0.2738 -0.2338
    1W        W62003   1.136  10.754   7.277 -0.3321 -0.0904  0.0803
    1W        W62004   6.723  12.949   1.981  0.0076  0.1087  0.3631
    1W        W62005   5.065  10.328   1.942 -0.1280  0.0726 -0.1541
    1W        W62006   2.890  10.392   9.075  0.1127 -0.2247 -0.2599
    1W        W62007  17.082  20.987   7.279 -0.0267  0.3145  0.0762
    1W        W62008   9.415   8.566   9.611 -0.2503  0.0228  0.2834
    1W        W62009  18.158   7.323   7.624  0.0621  0.0869 -0.1053
    1W        W62010  28.675  24.567   1.572  0.0523  0.2969 -0.3564
    1W        W62011  26.034   6.678   8.143  0.0780 -0.1034 -0.0680
    1W        W62012  15.671  24.523   7.497  0.4360 -0.0302  0.1340
    1W        W62013  15.047  13.504   2.857  0.0565  0.2178 -0.0379
    1W        W62014  17.939   6.379   9.100  0.1146 -0.1710 -0.0118
    1W        W62015   0.592  19.329   2.830  0.0006  0.1084  0.0995
    1W        W62016  13.407  20.509   6.475 -0.1096  0.1330  0.0912
    1W        W62017   9.881  23.061   8.608 -0.2350  0.1068 -0.0195
    1W        W62018  19.769   1.149   8.563  0.1469  0.1250  0.1059
    1W        W62019   1.427   0.953   0.001 -0.0286  0.1459  0.0476
    1W        W62020   4.631   1.411   8.378  0.0581  0.0252 -0.1144
    1W        W62021  14.389  11.096   8.941  0.1800  0.0097 -0.1624
    1W        W62022  21.886  29.110   7.838 -0.2157  0.1087  0.2679
    1W        W62023  20.552  13.464   0.377  0.1620 -0.0703 -0.1492
    1W        W62024   5.879  28.658   2.994  0.1619  0.0211  0.2006
    1W        W62025  11.232  11.383   8.086 -0.3740  0.2663 -0.2939
    1W        W62026  18.076   1.261   2.088  0.1132 -0.1218 -0.2190
    1W        W62027  26.830  29.061   7.355  0.0400  0.0663  0.1377
    1W        W62028  25.061   0.065   3.539  0.3122 -0.0599  0.4685
    1W        W62029  17.407  11.343   8.052 -0.1555  0.0359  0.1022
    1W        W62030  27.442  29.074   1.823 -0.3300  0.1104  0.1768
    1W        W62031   2.056  27.267   2.847 -0.0483  0.0507 -0.1259
    1W        W62032  18.887   4.401   9.255 -0.1311  0.2124 -0.1386
    1W        W62033  14.386   7.881   1.140  0.2785  0.1226  0.0304
    1W        W62034   2.537   7.787   5.547 -0.0873 -0.2008 -0.1160
    1W        W62035   9.383   0.391   1.040 -0.0441  0.1661  0.0091
    1W        W62036  19.076  14.906   0.041  0.1166 -0.1094 -0.0645
    1W        W62037  15.405  29.587   8.619  0.3417  0.0510  0.0033
    1W        W62038   5.387  27.068   2.906 -0.1871  0.2441  0.0831
    1W        W62039  20.696  16.070   8.710  0.1032  0.1114 -0.0146
    1W        W62040   0.917   1.372   9.124  0.1729 -0.3119 -0.3112
    1W        W62041  17.995  19.299   2.264 -0.0936  0.1708  0.1040
    1W        W62042   7.106   2.218   0.487  0.0520 -0.1826 -0.1434
    1W        W62043  18.754  17.816   8.624 -0.0908  0.0679  0.3428
    1W        W62044  23.254  14.611   8.165  0.2170  0.3274  0.0217
    1W        W62045  16.837   6.905   7.735  0.2214 -0.1767 -0.0931
    1W        W62046  23.370  28.101   9.617  0.0416 -0.1574  0.1616
    1W        W62047  11.644   1.427   8.045 -0.0291 -0.1340 -0.1091
    1W        W62048   6.294   4.494   6.503 -0.4180  0.0432 -0.0694
    1W        W62049  29.569  27.545   1.930 -0.0946  0.1472 -0.0998
    1W        W62050  26.469   4.899   0.739 -0.1979  0.1853 -0.1959
    1W        W62051   4.938  27.854   1.838 -0.3811 -0.0547 -0.0949
    1W        W62052   7.377   7.484   7.776  0.1405  0.1301 -0.0187
    1W        W62053   9.008  18.813   7.290 -0.0347 -0.0992  0.0944
    1W        W62054  14.733   6.715   7.748 -0.0591 -0.3146 -0.2509
    1W        W62055  29.058  13.002   8.638  0.0308  0.2150 -0.0942
    1W        W62056   7.997  27.759   7.035  0.2271 -0.0735  0.2090
    1W        W62057   5.088  22.684   9.099 -0.3463  0.2259  0.0338
    1W        W62058  13.399  12.453   9.065 -0.5059 -0.0387 -0.0981
    1W        W62059  18.116  15.224   8.014  0.1785 -0.0397  0.0643
    1W        W62060  23.742  29.242   3.286 -0.2736 -0.2514  0.2475
    1W        W62061   7.923  13.470   9.168  0.2198 -0.0138  0.0611
    1W        W62062  22.378  20.372   9.238 -0.2468  0.1793 -0.0061
    1W        W62063  28.039   1.748   8.414 -0.0021  0.0951 -0.2190
    1W        W62064  17.538  27.410   1.423  0.1049 -0.0018 -0.3918
    1W        W62065  27.388  16.449   8.647  0.1039  0.2417 -0.0605
    1W        W62066  16.371   6.820   2.669  0.3082  0.0520  0.0202
    1W        W62067   7.201  16.844   8.773  0.0238  0.0760 -0.0866
    1W        W62068  20.243   9.839   1.498  0.2814  0.2095  0.0144
    1W        W62069   5.480   0.601   1.372 -0.0625 -0.3444  0.0049
    1W        W62070  12.832   8.706   8.156 -0.2023 -0.0349 -0.3166
    1W        W62071  17.580   4.292   7.858 -0.0836 -0.0509 -0.1520
    1W        W62072   0.252  10.218   2.088 -0.2183 -0.1007  0.1424
    1W        W62073   1.333  27.760   0.656  0.0241 -0.1661  0.0733
    1W        W62074  21.349   2.508   3.010  0.1200  0.0947 -0.2206
    1W        W62075  17.980   4.775   3.019  0.3529  0.0196 -0.1359
    1W        W62076   2.934  27.784   9.124  0.0400  0.0900  0.4182
    1W        W62077  14.211   3.670   6.914 -0.1572  0.3412 -0.0094
    1W        W62078  21.771  18.113   1.863  0.1435  0.0758 -0.1641
    1W        W62079   9.835  21.725   0.808  0.2105  0.0124 -0.2722
    1W        W62080  22.364  21.449   7.763 -0.1949 -0.1482  0.3158
    1W        W62081  12.618  13.354   7.500 -0.0934  0.1210 -0.1605
    1W        W62082  20.591   1.819   2.185  0.3408  0.0305  0.2882
    1W        W62083   0.667  17.266   0.090 -0.0361 -0.0512  0.0940
    1W        W62084  15.590  25.022   7.532  0.2216  0.4054 -0.0609
    1W        W62085  21.337  21.462   8.820  0.0675 -0.0996 -0.1615
    1W        W62086  28.113   8.395   7.453  0.0773 -0.2698 -0.2273
    1W        W62087  12.506   1.365   1.376 -0.1080  0.0440  0.2250
    1W        W62088   5.361   0.572   2.346 -0.1507 -0.2053  0.0515
    1W        W62089  25.388   0.953   2.219  0.0448 -0.2304 -0.4015
    1W        W62090  29.402  29.184   0.193  0.0775 -0.5253 -0.0106
    1W        W62091   6.724   0.881   8.278 -0.2068 -0.0339 -0.1125
    1W        W62092   8.043   0.678   0.635 -0.0256  0.2727  0.1408
    1W        W62093  26.850   0.288   0.286 -0.1069 -0.2310 -0.0087
    1W        W62094  12.751  20.288   6.941  0.1188 -0.1867 -0.1717
    1W        W62095  16.843  23.853   6.345 -0.0979 -0.2101 -0.3091
    1W        W62096   1.664  14.569   9.613  0.0840  0.0052 -0.0473
    1W        W62097   0.752  20.551   8.659 -0.0259 -0.0634 -0.0712
    1W        W62098  15.628  20.622   2.409 -0.1004  0.1413 -0.3254
    1W        W62099  18.924  25.693   8.001 -0.2621  0.0492 -0.0461
    1W        W62100   1.260   6.388   6.489 -0.1518 -0.0666  0.0946
    1W        W62101   6.440  25.510   1.766 -0.0557 -0.1925  0.0964
    1W        W62102  17.937  23.910   0.762 -0.2830 -0.2760 -0.1415
    1W        W62103   4.919  23.248   1.231 -0.0446 -0.0657 -0.1451
    1W        W62104   5.802   0.742   9.086  0.0478 -0.0345 -0.3077
    1W        W62105  12.919   4.030   1.113  0.0960 -0.2314  0.0396
    1W        W62106  12.993   9.840   7.704  0.0981  0.0249 -0.1591
    1W        W62107   1.369  27.977   1.125 -0.1769 -0.0848  0.0904
    1W        W62108   9.964  15.677   6.677  0.3047  0.0551 -0.0404
    1W        W62109  29.366  25.222   3.233  0.3871 -0.1652 -0.2064
    1W        W62110  14.184   9.127   2.207 -0.1199 -0.0520 -0.2519
    1W        W62111  26.843   6.732   8.478 -0.2145  0.0925  0.2638
    1W        W62112  12.177  28.052   8.271 -0.0048 -0.0010  0.2823
    1W        W62113  21.400   5.928   1.298  0.0359 -0.2752 -0.3999
    1W        W62114  29.538   1.425   7.399 -0.4108 -0.2140 -0.1027
    1W        W62115  18.296   8.481   7.455 -0.1367 -0.1030 -0.0914
    1W        W62116  24.203  10.040   1.095  0.3690  0.5359 -0.1245
    1W        W62117   8.785  25.125   9.072 -0.1608 -0.4040 -0.1988
    1W        W62118  19.516  12.570   2.842 -0.2735 -0.2232  0.0572
    1W        W62119  24.804  23.250   3.264 -0.3113 -0.2537  0.0254
    1W        W62120  19.350  15.926   9.592  0.0104 -0.0670 -0.1660
    1W        W62121  13.225  18.309   6.440  0.0085 -0.0098 -0.0133
    1W        W62122   9.789  17.731   8.346  0.2244 -0.1525 -0.1306
    1W        W62123  19.523  12.157   9.028  0.1658 -0.0745 -0.0027
    1W        W62124   4.276  10.422   0.658 -0.0934  0.0152 -0.1873
    1W        W62125   5.733   8.205   0.961 -0.3359  0.0256  0.0720
    1W        W62126  20.575   2.481   7.669 -0.2747 -0.3577 -0.0784
    1W        W62127  11.439   4.892   9.094 -0.0053 -0.1131  0.1527
    1W        W62128  14.121   7.139   9.547 -0.2316  0.0945  0.0582
    1W        W62129  13.365  22.606   8.767 -0.1242  0.0552  0.0850
    1W        W62130  16.640  10.545   1.420 -0.0344  0.2793  0.1270
    1W        W62131  22.906  12.710   8.717 -0.0373  0.0626 -0.1531
    1W        W62132   9.578  25.447   6.228 -0.1385  0.2458  0.0931
    1W        W62133  27.085  28.727   1.830  0.0143 -0.0742 -0.1641
    1W        W62134   3.352   6.792   1.145  0.1646 -0.2237 -0.0794
    1W        W62135  21.639  18.817   0.318 -0.0158  0.2215  0.0062
    1W        W62136   2.066  24.087   9.169 -0.1047  0.1359  0.0303
    1W        W62137  21.699   8.599   0.161 -0.0623 -0.0506  0.1980
    1W        W62138   8.155   9.413   2.601 -0.0571 -0.0826 -0.4500
    1W        W62139  20.446  19.013   1.365 -0.1053 -0.3236  0.1696
    1W        W62140  25.545  10.548   9.016 -0.2265  0.1460 -0.1006
    1W        W62141  24.081  23.668   1.643  0.2042 -0.3020 -0.2107
    1W        W62142  12.541  21.051   9.491 -0.0508  0.1813  0.2328
    1W        W62143  17.820   2.612   0.863  0.0519 -0.2952 -0.3557
    1W        W62144  23.768   5.552   1.035 -0.1769  0.1708 -0.1122
    1W        W62145  23.272  28.503   2.818 -0.2890  0.3046 -0.1391
    1W        W62146  17.211   7.241   8.260 -0.0984  0.0231  0.2473
    1W        W62147  18.758  18.479   8.319  0.0125 -0.1170  0.1999
    1W        W62148   1.271   2.248   7.582 -0.0939 -0.1110 -0.2181
    1W        W62149  20.815  17.022   3.140 -0.1289  0.0883 -0.0919
    1W        W62150  11.426   1.083   0.728  0.0124  0.0028  0.1747
    1W        W62151  19.792  20.928   1.542 -0.0913 -0.0431 -0.1586
    1W        W62152  14.035  28.788   0.260 -0.0904 -0.7034 -0.1143
    1W        W62153   0.150  26.305   7.475 -0.0243 -0.1118 -0.1185
    1W        W62154   4.739  17.415   8.832  0.1132  0.0012  0.0806
    1W        W62155   9.360   2.851   1.642 -0.0055  0.1289 -0.1199
    1W        W62156  27.687   4.140   0.455  0.0430 -0.0380 -0.0850
    1W        W62157   8.946  29.338   0.812  0.1763 -0.0486  0.0061
    1W        W62158   0.207  14.020   0.039  0.2172  0.1288 -0.3087
    1W        W62159   6.136  18.326   7.965 -0.0990  0.0974 -0.2240
    1W        W62160   1.336   9.742   9.371 -0.2291  0.0826 -0.1315
    1W        W62161  25.408  19.222   9.007  0.0620 -0.0313 -0.2572
    1W        W62162  26.579  13.636   0.675  0.1192  0.0118  0.1613
    1W        W62163   9.010  14.023   0.378 -0.1007  0.2518  0.1572
    1W        W62164   7.265  26.222   8.654 -0.1811 -0.1672  0.4441
    1W        W62165  13.777  24.485   1.309  0.1118 -0.0048 -0.1421
    1W        W62166  18.730  22.691   3.245  0.4077 -0.0437 -0.0926
    1W        W62167  24.696  11.398   2.320 -0.1466 -0.1419  0.1308
    1W        W62168   6.656  19.660   0.399 -0.0200 -0.2131  0.0998
    1W        W62169  19.393  28.598   1.234 -0.1865 -0.0418 -0.0063
    1W        W62170  22.188  13.962   8.816  0.2067  0.0693 -0.0430
    1W        W62171   1.225   3.564   8.807 -0.3529  0.0469  0.1518
    1W        W62172   3.630   7.236   1.278 -0.2130 -0.0133  0.0773
    1W        W62173  24.556  12.849   1.440  0.1597 -0.2407  0.2923
    1W        W62174  10.576  23.254   7.766  0.2552 -0.2340  0.1105
    1W        W62175  15.960   2.309   2.758  0.0366 -0.3101  0.1930
    1W        W62176   6.483  12.068   5.712 -0.0823 -0.1899  0.0708
    1W        W62177  11.473   8.236   7.885 -0.1011 -0.0145 -0.1102
    1W        W62178  21.382   6.991   2.456  0.2576  0.2044  0.3661
    1W        W62179  27.856  19.309   8.945 -0.0805 -0.0279  0.5974
    1W        W62180   0.624  15.425   1.944  0.1578  0.4711  0.2856
    1W        W62181   3.830  16.895   9.244 -0.1847 -0.0889 -0.0065
    1W        W62182  19.217  16.330   8.437 -0.2910  0.0736  0.0403
    1W        W62183  28.084  23.691   0.349 -0.2050  0.3368 -0.0205
    1W        W62184  18.281   6.222   7.166 -0.3568  0.0521  0.3170
    1W        W62185   4.397  20.655   0.261 -0.0695 -0.0097 -0.0080
    1W        W62186  27.915  27.286   8.868 -0.0382 -0.0644  0.1037
    1W        W62187   9.742  21.997   6.984 -0.0061  0.0753 -0.1265
    1W        W62188   1.103  19.263   8.376  0.0183 -0.0349 -0.2282
    1W        W62189   1.337   1.934   0.547 -0.0522 -0.0642 -0.1363
    1W        W62190   2.111  21.491   2.851 -0.0428 -0.1148 -0.1308
    1W        W62191  14.419  13.103   2.517 -0.0118  0.2859 -0.0874
    1W        W62192   8.596  10.093   9.304  0.5374 -0.2298  0.3074
    1W        W62193  27.649  27.742   8.798  0.2605 -0.0781 -0.1276
    1W        W62194  17.702  17.723   7.610 -0.0777  0.0289 -0.2936
    1W        W62195   5.611  18.483   8.429  0.1205 -0.1411  0.2204
    1W        W62196   7.798  15.343   8.154  0.1843 -0.0254  0.0325
    1W        W62197   6.003  11.804   5.966 -0.1218 -0.0269  0.0391
    1W        W62198   4.442  21.040   8.769 -0.1406 -0.0477 -0.0425
    1W        W62199  26.871  15.279   0.753 -0.0258 -0.0578 -0.1310
    1W        W62200  12.238  28.089   0.755 -0.0244  0.0647 -0.2477
    1W        W62201  21.403   8.118   8.032 -0.0783 -0.3692 -0.1051
    1W        W62202  24.269  24.423   0.379  0.1771 -0.1342 -0.2910
    1W        W62203  26.830  15.175   7.619 -0.4166  0.1413 -0.1912
    1W        W62204   1.858  17.007   9.610  0.1993 -0.1311  0.1620
    1W        W62205   8.626  21.237   2.099 -0.0307  0.1143 -0.0845
    1W        W62206   5.289  20.288   7.582  0.1728 -0.0500 -0.2139
    1W        W62207   2.359  23.285   3.144  0.0860 -0.1180  0.1063
    1W        W62208  24.334  21.514   8.777  0.1474  0.1569  0.0210
    1W        W62209   9.395   0.393   5.847  0.3691 -0.1052 -0.2583
    1W        W62210  28.108   7.243   0.841 -0.3516 -0.0199 -0.0083
    1W        W62211  25.173  12.420   0.829 -0.2054 -0.2310  0.2537
    1W        W62212  13.418   1.713   7.408 -0.1990 -0.0396  0.0873
    1W        W62213   6.829  18.953   0.414 -0.6017 -0.0812 -0.0065
    1W        W62214  15.506   4.883   1.093 -0.2646  0.2840 -0.3533
    1W        W62215  28.517  29.113   0.822  0.1624 -0.0403 -0.2796
    1W        W62216  15.458  24.521   8.937 -0.1064  0.2688 -0.1003
    1W        W62217  20.438   6.222   0.327 -0.1956  0.0047 -0.2880
    1W        W62218   9.561  23.380   0.585  0.0210 -0.0907 -0.1595
    1W        W62219  18.106   9.392   1.562  0.0387  0.0414  0.1067
    1W        W62220  20.410  10.416   7.352  0.1494  0.0529  0.1099
    1W        W62221   5.467  24.575   3.379 -0.2568  0.2250  0.0692
    1W        W62222  13.136   5.534   8.857 -0.0553 -0.0035 -0.2629
    1W        W62223   1.257  12.750   1.212  0.0195 -0.3155 -0.2244
    1W        W62224  29.353  25.219   1.119 -0.0140  0.0691 -0.0886
    1W        W62225  14.348  28.748   2.660 -0.1257 -0.1862 -0.1632
    1W        W62226   0.345  11.419   2.424 -0.2847  0.1744  0.1398
    1W        W62227   9.214  27.961   2.987 -0.0970 -0.2219 -0.1380
    1W        W62228   2.503   3.168   6.322  0.1146 -0.1038 -0.0620
    1W        W62229  13.232  13.310   2.057  0.0338 -0.1208 -0.2568
    1W        W62230   4.977  14.144   7.862 -0.0143  0.1517 -0.0056
    1W        W62231  27.798  10.441   1.358  0.0960 -0.0642  0.2040
    1W        W62232  11.149   9.457   1.185  0.3225 -0.2967 -0.2511
    1W        W62233   9.077  22.044   0.243  0.0688  0.0460  0.1781
    1W        W62234   7.976  21.725   1.130  0.1682  0.1525  0.1420
    1W        W62235  25.280  10.636   7.696  0.2852 -0.0146 -0.1062
    1W        W62236  24.287  19.683   3.206  0.2379 -0.1417 -0.0813
    1W        W62237  10.407  23.150   6.776 -0.2239  0.3539  0.1764
    1W        W62238  12.825  23.711   2.276  0.1557  0.0644  0.1814
    1W        W62239   5.379   8.332   6.315  0.2811  0.1740 -0.0001
    1W        W62240  17.651   9.217   1.733 -0.4397 -0.0140 -0.1928
    1W        W62241  11.043   5.412   1.580  0.0506  0.3235  0.0641
    1W        W62242  11.907  20.188   1.155 -0.1385  0.1566  0.0259
    1W        W62243  11.558  28.830   1.624  0.0761  0.0563  0.2719
    1W        W62244  20.177  13.525   0.013 -0.3317 -0.3679 -0.1687
    1W        W62245  10.091  21.394   1.066 -0.1272  0.0037  0.2900
    1W        W62246   6.884   0.324   8.643 -0.0518  0.0910  0.3558
    1W        W62247  19.728   3.256   1.893 -0.2652 -0.1093  0.5053
    1W        W62248  21.324  20.181   2.700 -0.2356 -0.1729  0.1436
    1W        W62249  28.301   0.570   8.032 -0.2314  0.2105 -0.1823
    1W        W62250  19.220  18.302   3.400  0.3253 -0.0378 -0.0229
    1W        W62251  17.178   4.943   8.512  0.2213  0.0463 -0.0065
    1W        W62252  15.962  11.553   0.652 -0.1110  0.2892 -0.0857
    1W        W62253   7.530  27.114   7.221  0.0392 -0.0246 -0.2550
    1W        W62254  11.372  16.132   6.386  0.0425  0.2099  0.2977
    1W        W62255   4.531  18.712   1.269 -0.0320  0.2645  0.0531
    1W        W62256   4.216   6.498   8.514  0.1198  0.1458  0.0612
    1W        W62257   4.154  10.257   0.107  0.1926  0.0143 -0.1405
    1W        W62258  15.896   4.714   0.814 -0.0574  0.0680  0.0395
    1W        W62259  27.732  15.949   2.955  0.0915 -0.2782  0.1487
    1W        W62260  17.162   6.194   2.258 -0.1134  0.5422 -0.2046
    1W        W62261  18.745   8.715   8.326  0.0215 -0.0100 -0.1044
    1W        W62262  24.001  24.879   9.435  0.1778  0.1461 -0.0875
    1W        W62263  25.118  28.107   8.470 -0.2787 -0.1315 -0.1192
    1W        W62264   5.531   7.173   5.394 -0.0569  0.2169  0.0287
    1W        W62265  29.174  13.359   9.561 -0.0526 -0.3054  0.0983
    1W        W62266  18.768  15.916   0.558 -0.0615 -0.1903  0.0449
    1W        W62267  11.112   0.570   2.075 -0.0319 -0.1237  0.1687
    1W        W62268  21.485   0.591   2.690 -0.1135  0.0066 -0.3284
    1W        W62269   5.683  14.223   1.726 -0.0952 -0.0617 -0.1128
    1W        W62270   8.815  25.190   0.945  0.0236  0.1740  0.0343
    1W        W62271  17.007   2.785   8.945 -0.1059 -0.0405 -0.2046
    1W        W62272   4.302   7.937   8.257 -0.2263 -0.0319  0.3337
    1W        W62273  23.211  24.925   2.647  0.1801 -0.1127  0.1872
    1W        W62274  19.682  16.153   2.592 -0.0371 -0.0946 -0.2720
    1W        W62275  16.744  14.803   2.202 -0.1010 -0.2835 -0.0304
    1W        W62276  10.358   9.875   0.159 -0.1321  0.2012  0.2145
    1W        W62277  15.555  25.856   7.156 -0.0677 -0.1007 -0.4005
    1W        W62278   1.128  22.371   2.740  0.2215 -0.1060  0.0695
    1W        W62279   1.206  27.962   7.315  0.0547  0.1884 -0.2113
    1W        W62280  10.563  28.320   0.409 -0.2026  0.0722  0.2661
    1W        W62281  19.905   1.891   7.739  0.0198 -0.0000  0.3341
    1W        W62282   8.043  20.571   8.912 -0.0643 -0.0602  0.1843
    1W        W62283  22.728  26.766   2.520 -0.1942 -0.2290 -0.0041
    1W        W62284  27.820   4.115   7.037  0.0582  0.3162  0.1683
    1W        W62285  17.735   9.442   1.217  0.0415  0.1902  0.0215
    1W        W62286   1.632  24.310   6.847  0.0921  0.2661  0.0400
    1W        W62287  10.670   6.050   2.403  0.1570  0.0232 -0.0554
    1W        W62288  17.779   0.598   7.764 -0.0719  0.2243 -0.0222
    1W        W62289  27.593  25.739   7.571 -0.0003 -0.0159 -0.0399
    1W        W62290  23.646   0.983   0.335 -0.0317  0.1374 -0.2068
    1W        W62291  14.864   3.742   8.479  0.0811  0.0282 -0.0361
    1W        W62292  17.468  17.728   8.120 -0.0914 -0.0048  0.2700
    1W        W62293   0.111  15.273   9.181  0.1203 -0.2683  0.1220
    1W        W62294   6.228  27.914   8.610 -0.1967  0.2303 -0.3465
    1W        W62295   1.242  15.027   8.584 -0.1444 -0.1460 -0.0960
    1W        W62296   0.832   3.576   6.806 -0.2918 -0.2009 -0.1854
    1W        W62297   3.874  12.375   9.258 -0.1534  0.3501 -0.1856
    1W        W62298  23.568  12.261   6.989  0.1296 -0.1666 -0.0761
    1W        W62299  12.994   1.587   1.367  0.1562  0.2510  0.1279
    1W        W62300  15.440   9.179   8.531  0.3126 -0.2094 -0.1588
    1W        W62301   3.694   7.488   6.464  0.2779 -0.0663 -0.0943
    1W        W62302  20.212  18.871   0.080  0.4941  0.2294 -0.1280
    1W        W62303  17.603  25.708   1.984  0.3507  0.0156 -0.1398
    1W        W62304   0.684   8.607   6.823 -0.1538 -0.2688  0.0270
    1W        W62305   8.753  19.602   7.671  0.0473  0.0690 -0.0328
    1W        W62306  22.695  28.232   7.095 -0.2984  0.1599  0.2567
    1W        W62307  17.117   7.006   6.828  0.2449  0.0228  0.1205
    1W        W62308  12.669  16.471   6.119  0.1823  0.1506  0.5028
    1W        W62309  19.077   2.191   2.832  0.1412  0.2143 -0.1136
    1W        W62310  23.324  21.457   1.705  0.0601 -0.1313  0.1243
    1W        W62311  24.288  17.210   9.534  0.0280 -0.1074 -0.1090
    1W        W62312  17.333  10.246   8.488 -0.0796 -0.2615  0.1644
    1W        W62313  10.514  25.902   6.500 -0.0180  0.2078 -0.1024
    1W        W62314  21.159  14.653   2.405 -0.0365  0.1716  0.1976
    1W        W62315   9.951  16.634   6.675 -0.0670  0.0793 -0.2603
    1W        W62316  11.765  13.318   7.935 -0.0238 -0.1839 -0.1356
    1W        W62317  26.238  20.259   0.250  0.2800 -0.2787  0.0515
    1W        W62318   6.702  11.236   9.344  0.1239 -0.0116  0.2415
    1W        W62319  12.688  15.179   8.944  0.2697 -0.1125 -0.0176
    1W        W62320   2.645   2.220   1.182 -0.2038 -0.0603 -0.1093
    1W        W62321   5.017  18.823   2.888  0.2124  0.0095 -0.1103
    1W        W62322  18.557  26.102   0.064  0.0452 -0.0196 -0.1530
    1W        W62323  26.119  26.402   1.357  0.4130  0.3891 -0.1345
    1W        W62324  20.100   5.604   6.987  0.1889  0.0716 -0.1119
    1W        W62325  26.033   8.788   8.091 -0.0335 -0.1391 -0.1328
    1W        W62326  14.329  12.138   1.182  0.0850  0.0789 -0.0600
    1W        W62327  21.158  15.384   1.236 -0.0641 -0.0377 -0.0561
    1W        W62328   2.074  29.122   8.781 -0.1505  0.1881 -0.1509
    1W        W62329   2.763  18.392   7.052  0.2541 -0.0992  0.1125
    1W        W62330  25.701   7.471   2.128  0.1520  0.3411  0.0019
    1W        W62331  24.752  19.841   9.549 -0.2800  0.2223  0.0901
    1W        W62332   6.245  18.576   2.720  0.1184  0.0348 -0.1939
    1W        W62333  14.015   9.486   3.547 -0.0844 -0.1585  0.0745
    1W        W62334   5.577  24.145   0.389 -0.0347  0.1715 -0.2350
    1W        W62335  26.155  11.339   0.626 -0.3880  0.0538 -0.2166
    1W        W62336  25.538   0.083   1.235 -0.0623 -0.0348  0.3920
    1W        W62337  11.836   8.863   2.403 -0.0371 -0.1543  0.0915
    1W        W62338  11.964  22.808   2.546 -0.1611 -0.0781 -0.1636
    1W        W62339  23.844   4.618   7.649  0.0621 -0.4644 -0.1189
    1W        W62340  25.137   4.732   1.958 -0.0160  0.2688 -0.0411
    1W        W62341  23.015   0.255   8.745 -0.1615  0.1449  0.3141
    1W        W62342   4.119  25.912   8.929 -0.0875 -0.0226  0.4315
    1W        W62343  28.628  17.768   2.069 -0.1252 -0.1473 -0.0069
    1W        W62344   4.622  24.673   1.009  0.3096  0.3434  0.1636
    1W        W62345  26.188  23.380   3.317 -0.4168 -0.2379  0.3001
    1W        W62346  11.481   7.152   8.569  0.2547 -0.1282  0.0147
    1W        W62347  23.302  16.662   1.622  0.1298  0.2493 -0.2534
    1W        W62348   4.999  22.555   1.879  0.3420  0.0330  0.0652
    1W        W62349  11.281  12.095   8.115 -0.1260 -0.1998  0.3599
    1W        W62350  21.556  23.693   8.352 -0.0576 -0.1541  0.1335
    1W        W62351  29.221   1.461   9.560 -0.0931  0.2208 -0.1816
    1W        W62352  11.772  17.306   7.717  0.0360  0.6330 -0.0090
    1W        W62353  13.383  11.655   0.955  0.4020 -0.0898 -0.0811
    1W        W62354   9.108   2.404   0.782 -0.1834  0.0375  0.0218
    1W        W62355   7.811  14.991   8.581  0.0773  0.3067 -0.2747
    1W        W62356   7.907  17.553   7.463 -0.1894  0.2438 -0.1576
    1W        W62357  25.328  10.983   1.102  0.1580  0.2151  0.2680
    1W        W62358   4.066   9.302   5.833 -0.1829 -0.2414 -0.0693
    1W        W62359  19.506  26.551   3.588  0.0244  0.0884  0.1094
    1W        W62360  27.228  26.234   2.779 -0.1228  0.0159 -0.0537
    1W        W62361  17.915   1.418   7.784 -0.1587 -0.1399 -0.1544
    1W        W62362   1.393   1.682   9.014 -0.1113 -0.0432  0.1066
    1W        W62363  19.462   6.566   7.907  0.1289 -0.1651 -0.1582
    1W        W62364  23.226  13.722   3.191 -0.0482 -0.1084 -0.1038
    1W        W62365   6.315  21.359   0.042 -0.1489 -0.3424  0.1666
    1W        W62366  15.340   0.127   9.191 -0.0141  0.0019 -0.2003
    1W        W62367   7.271  27.058   6.801  0.0532  0.1271 -0.0216
    1W        W62368  25.051  16.990   8.969 -0.0515 -0.0045  0.3248
    1W        W62369  19.985  17.580   9.351 -0.0974  0.2669 -0.1369
    1W        W62370   6.693  17.483   8.042  0.0130  0.4990 -0.2224
    1W        W62371   3.243  20.943   9.352 -0.1152  0.1261  0.1106
    1W        W62372   0.020  18.672   9.087 -0.3826 -0.1477  0.3151
    1W        W62373  28.914  19.480   2.979 -0.0690 -0.0783  0.0279
    1W        W62374  28.797   1.931   7.757  0.0162 -0.1928 -0.0023
    1W        W62375   0.314  15.764   1.572 -0.1317 -0.0656 -0.0605
    1W        W62376  15.196  27.455   1.075  0.2236 -0.4116 -0.0894
    1W        W62377   5.367   4.093   2.559  0.0176  0.1163 -0.3818
    1W        W62378  27.291  22.890   1.302 -0.2232 -0.3245  0.0656
    1W        W62379  28.775   4.262   7.806  0.0612 -0.0241 -0.0004
    1W        W62380   1.080  22.663   7.432 -0.0042  0.2006  0.0804
    1W        W62381  19.373  18.356   0.962  0.3340 -0.1669  0.0249
    1W        W62382  26.966   7.025   7.259  0.0856  0.1823  0.1115
    1W        W62383  17.227  17.460   0.252 -0.1059  0.1686  0.0061
    1W        W62384  19.825  17.015   8.305  0.1203  0.0623  0.0885
    1W        W62385  14.977  27.465   8.537  0.1638 -0.2294 -0.3904
    1W        W62386   9.036  24.925   7.344 -0.0602  0.1386 -0.1768
    1W        W62387  10.970  21.643   7.966 -0.2667  0.0560 -0.1580
    1W        W62388  29.171  17.226   8.127 -0.0512 -0.1448  0.0046
    1W        W62389  22.382  22.642   0.667  0.0483  0.2808  0.0603
    1W        W62390   0.290  20.995   7.667  0.3381 -0.1198 -0.2022
    1W        W62391  10.963  13.936   1.608  0.0390 -0.1668 -0.1394
    1W        W62392   2.298   3.410   2.588  0.0833  0.1979 -0.2050
    1W        W62393   8.677  23.656   0.797  0.0717 -0.2174 -0.1699
    1W        W62394  11.470   5.472   7.639 -0.0610  0.2941 -0.0617
    1W        W62395  22.427   9.427   7.983 -0.1775  0.0468 -0.2690
    1W        W62396   4.328  11.819   7.037 -0.2196 -0.0198  0.2715
    1W        W62397   8.622  28.436   0.483  0.0183  0.3223 -0.1683
    1W        W62398  12.510   3.350   6.787 -0.2002  0.2092 -0.1800
    1W        W62399   7.173  17.061   7.146 -0.2619  0.1207 -0.1116
    1W        W62400  16.097  26.234   2.925  0.1882 -0.1759  0.0775
    1W        W62401  27.822   8.906   8.685  0.0931 -0.2159 -0.3899
    1W        W62402  17.897  20.906   7.625  0.2107 -0.0499 -0.0790
    1W        W62403  29.298  27.885   0.511  0.0354  0.1129  0.0914
    1W        W62404  11.487  20.496   8.653 -0.0297  0.0511 -0.0342
    1W        W62405  25.451  16.828   9.285 -0.0330  0.0906  0.1834
    1W        W62406   5.592  12.563   5.572 -0.1336 -0.1562 -0.0969
    1W        W62407  13.706  26.048   0.138  0.3018  0.1199 -0.1563
    1W        W62408   9.167  19.314   2.099  0.2530 -0.2916  0.3147
    1W        W62409   6.792  20.573   6.485  0.1094  0.2333  0.0307
    1W        W62410  24.945   3.972   7.757 -0.1265  0.1988  0.4249
    1W        W62411  20.776  27.188   1.262  0.2528  0.1902  0.0472
    1W        W62412   3.139  19.444   2.580 -0.2130 -0.0975  0.1725
    1W        W62413  24.556  29.047   3.725 -0.1574 -0.1151 -0.2677
    1W        W62414   2.157  17.175   7.838  0.5825 -0.1586  0.2628
    1W        W62415  24.428  22.933   2.919 -0.0409 -0.0673  0.1826
    1W        W62416   8.480  14.820   5.880 -0.4142 -0.0583 -0.1484
    1W        W62417  16.662  11.854   0.795  0.0240 -0.2775  0.0666
    1W        W62418  12.514  12.257   6.871  0.0673 -0.0277  0.1257
    1W        W62419   7.557   9.580   8.115  0.0885  0.0782 -0.0990
    1W        W62420  19.066  13.706   1.726  0.0693 -0.1051 -0.0439
    1W        W62421  11.691  18.901   8.407  0.0608 -0.2638 -0.2358
    1W        W62422  25.194  15.154   2.604 -0.1596  0.0692 -0.1631
    1W        W62423  23.214  13.278   1.170  0.3134 -0.0561 -0.0983
    1W        W62424  26.528  17.023   7.259 -0.0582 -0.0152 -0.2514
    1W        W62425   4.733   3.154   6.900  0.2394  0.0328  0.0914
    1W        W62426  29.620  24.254   8.721 -0.1626  0.4457  0.0818
    1W        W62427  24.135  14.194   9.193 -0.0108 -0.1181  0.1320
    1W        W62428   4.853   7.364   5.993  0.1525  0.4781  0.2965
    1W        W62429  20.939  15.593   7.817 -0.0698 -0.0514  0.1676
    1W        W62430  25.856   2.448   6.663 -0.0012 -0.1016 -0.0197
    1W        W62431  14.155  22.277   7.617  0.0218 -0.0565  0.0196
    1W        W62432   7.065  25.753   8.961  0.0967 -0.0210  0.3154
    1W        W62433  24.628  17.041   0.262  0.1579  0.0441  0.3627
    1W        W62434  20.984   2.969   1.045  0.0649 -0.0767 -0.2002
    1W        W62435  18.156   0.858   7.870  0.1008  0.0295  0.2544
    1W        W62436   3.608  27.477   7.429  0.1888  0.2013 -0.2343
    1W        W62437  17.078  22.627   1.011  0.1909  0.2410 -0.3918
    1W        W62438  14.154   8.624   7.536  0.1747 -0.2097 -0.2199
    1W        W62439   3.823  19.974   8.350 -0.2994  0.1115 -0.0510
    1W        W62440   0.158  17.022   9.453  0.0725 -0.2598  0.0842
    1W        W62441  10.582  24.025   9.524 -0.1380  0.3639 -0.2716
    1W        W62442  27.406   9.703   2.115 -0.4854  0.0270  0.0561
    1W        W62443  14.637  18.606   8.223 -0.2415  0.1516 -0.1593
    1W        W62444   9.930  18.892   0.495 -0.1656 -0.0118 -0.1461
    1W        W62445  15.718   6.856   0.219  0.1213 -0.2743 -0.0206
    1W        W62446  23.338   0.015   0.738 -0.2153 -0.0576  0.0907
    1W        W62447  28.749  21.047   2.943  0.0608  0.0030 -0.0652
    1W        W62448  24.101  25.137   3.450 -0.0835  0.0986  0.2055
    1W        W62449  26.743  12.315   0.646 -0.1789  0.1431  0.2925
    1W        W62450   9.550  22.248   8.308 -0.2148 -0.1439 -0.2014
    1W        W62451  23.970  27.494   1.423 -0.0051 -0.1274 -0.1793
    1W        W62452  24.667   1.196   8.471  0.1932  0.1574 -0.2539
    1W        W62453  13.506  10.924   1.116 -0.0134 -0.1167 -0.0609
    1W        W62454  10.903  28.198   2.347  0.0118 -0.0189  0.2027
    1W        W62455   6.588  12.423   1.130  0.1028 -0.2300  0.0310
    1W        W62456  26.833  23.976   1.481  0.0837  0.1713  0.1139
    1W        W62457  28.552   9.413   8.165  0.1800 -0.0601 -0.0595
    1W        W62458  24.390  27.717   7.936 -0.0263  0.0310  0.0552
    1W        W62459  28.277  18.175   2.157  0.2245 -0.0343 -0.0961
    1W        W62460  23.348  20.974   9.551  0.0250 -0.3285  0.1214
    1W        W62461  10.476  21.898   0.178 -0.1971  0.3179 -0.1676
    1W        W62462   3.997  13.651   1.745 -0.1358  0.0554 -0.0834
    1W        W62463   0.415  15.116   2.917  0.0669  0.0944  0.0568
    1W        W62464   9.089   9.060   0.770 -0.0811 -0.2057 -0.2249
    1W        W62465   4.452  26.949   7.481  0.2189  0.0144  0.2188
    1W        W62466  21.320  29.277   1.187  0.0340 -0.0393  0.0241
    1W        W62467  15.846   3.651   8.743  0.2482  0.0207 -0.1614
    1W        W62468   2.132   1.107   7.942 -0.0825  0.1268  0.2437
    1W        W62469  18.024  10.077   1.589  0.0296  0.4404 -0.3629
    1W        W62470  15.721  19.911   9.138  0.1228  0.0747 -0.4039
    1W        W62471   2.359   5.326   8.072 -0.1588 -0.4857 -0.0587
    1W        W62472   7.586  11.851   2.044 -0.0805 -0.0840  0.0004
    1W        W62473  21.851  20.756   3.534 -0.1095 -0.0780  0.0337
    1W        W62474  14.053   5.826   0.257  0.0207  0.0236  0.0695
    1W        W62475   5.411   1.882   8.800  0.0698  0.1153  0.0250
    1W        W62476   4.489  14.081   7.910 -0.3252 -0.2645 -0.2446
    1W        W62477   3.978  21.311   1.558 -0.0530  0.1470  0.0876
    1W        W62478  28.725  19.653   9.633  0.0548  0.1168 -0.0044
    1W        W62479  10.523  17.872   6.400 -0.0909  0.0913 -0.0126
    1W        W62480  27.740   0.529   0.085 -0.2177 -0.0244 -0.3067
    1W        W62481  12.313  21.326   6.723 -0.1558  0.3917  0.0990
    1W        W62482  19.835   1.113   1.387 -0.0885  0.2596  0.2654
    1W        W62483   5.032  20.967   0.222  0.0379  0.0283  0.0095
    1W        W62484   3.694  12.879   7.268  0.0183  0.1759 -0.3358
    1W        W62485  21.122  18.897   0.372  0.0614  0.0385 -0.1067
    1W        W62486  13.496  26.937   8.598 -0.0136 -0.0615  0.0320
    1W        W62487  24.293   3.273   2.210 -0.0139  0.0901  0.1189
    1W        W62488   5.361   4.014   2.048 -0.0911 -0.1307 -0.0920
    1W        W62489  26.687  16.453   7.596  0.0745 -0.0675 -0.2185
    1W        W62490  14.854   7.584   6.799 -0.0665 -0.2123  0.1207
    1W        W62491   5.750  11.887   1.160 -0.0761 -0.0566 -0.0452
    1W        W62492   6.678   5.008   0.199 -0.1479 -0.1552 -0.0467
    1W        W62493  19.919  28.438   1.250  0.0137  0.1450  0.1958
    1W        W62494   4.151  10.416   5.143  0.0454 -0.0548  0.2807
    1W        W62495  24.805  25.260   0.706 -0.2116  0.0856 -0.2890
    1W        W62496  12.569   8.031   6.579 -0.0220  0.0211  0.2622
    1W        W62497  22.606   5.566   8.735 -0.0904  0.0826 -0.0084
    1W        W62498  12.976   3.244   6.563 -0.0733 -0.2829 -0.0528
    1W        W62499  12.063  29.244   1.044  0.2051 -0.1456  0.0056
    1W        W62500  28.653  26.464   8.233  0.0431 -0.0322  0.2148
    1W        W62501  19.077  27.706   8.104 -0.0515 -0.2208 -0.3659
    1W        W62502  22.454  28.988   3.187  0.0844  0.1125  0.0587
    1W        W62503  27.758  28.842   6.889  0.0962  0.0594 -0.0043
    1W        W62504   5.369   2.125   1.304 -0.1342  0.0492 -0.1262
    1W        W62505   5.538   4.950   6.707 -0.0635  0.0646 -0.1571
    1W        W62506  11.785  24.996   1.190 -0.1289  0.1079  0.1840
    1W        W62507  23.666   1.891   8.395 -0.1775  0.4816 -0.4301
    1W        W62508   0.801  23.889   1.878 -0.0735  0.1738  0.0609
    1W        W62509  13.115   8.584   2.960  0.1798 -0.2248  0.2119
    1W        W62510  21.577  13.302   7.571  0.0834  0.2245 -0.0189
    1W        W62511   7.476  27.682   0.287 -0.1992 -0.1173 -0.2287
    1W        W62512  20.079  10.529   0.879  0.2676  0.2352 -0.1663
    1W        W62513  10.404   4.072   1.392  0.1387  0.2219 -0.0514
    1W        W62514   6.291   8.844   7.418 -0.0840 -0.0961 -0.0140
    1W        W62515  24.468  29.209   9.466  0.0544  0.1821 -0.0279
    1W        W62516  13.537  25.556   0.660 -0.2602  0.1911 -0.0707
    1W        W62517   3.417  10.787   7.888 -0.0298  0.0807  0.1555
    1W        W62518  25.231  25.940   8.057  0.2166  0.1868  0.1447
    1W        W62519  19.256  27.707   9.097  0.1665  0.1723 -0.1134
    1W        W62520   8.178  23.225   2.009 -0.2120 -0.1797  0.0366
    1W        W62521  25.581   5.014   1.960  0.1219 -0.0443  0.1691
    1W        W62522   9.943   2.311   9.125 -0.0077  0.0339 -0.1997
    1W        W62523   0.287  24.578   1.454 -0.1736  0.0933 -0.0708
    1W        W62524  16.867   6.121   7.220  0.3936  0.0572  0.0095
    1W        W62525   1.560   0.697   8.904 -0.1210  0.2700  0.1356
    1W        W62526  15.289   7.388   7.553  0.0193  0.2307  0.1447
    1W        W62527  18.759   8.053   0.462 -0.0316 -0.1834 -0.1661
    1W        W62528  17.378  25.780   9.299  0.0470  0.1754 -0.0106
    1W        W62529  16.613  18.670   1.901 -0.0893  0.3242 -0.0271
    1W        W62530   1.462   0.891   0.594 -0.0017  0.2182  0.0867
    1W        W62531  14.436  26.151   8.214  0.3094  0.2180  0.0997
    1W        W62532  10.720  21.318   7.725  0.1007 -0.0043  0.0347
    1W        W62533   4.195  27.328   7.215 -0.2579 -0.1675  0.2148
    1W        W62534  20.399  19.837   2.515 -0.4485  0.3057 -0.0471
    1W        W62535  11.486  17.533   0.547 -0.1314 -0.2353  0.1797
    1W        W62536   6.678   0.998   7.028 -0.1717 -0.3449 -0.1789
    1W        W62537  27.171  27.292   0.120  0.0160 -0.5270 -0.0793
    1W        W62538   1.804  14.749   1.592 -0.1253 -0.1692  0.1310
    1W        W62539  25.768   9.540   0.021  0.0598  0.0596  0.0152
    1W        W62540   7.592  26.539   6.298  0.0856 -0.1380 -0.0119
    1W        W62541  14.630  10.760   1.782 -0.1571 -0.5193 -0.0488
    1W        W62542  11.452   3.753   7.739  0.3137 -0.0684  0.0629
    1W        W62543  15.431   6.946   8.948 -0.0502  0.2183 -0.2197
    1W        W62544   6.192  12.496   6.361  0.0820  0.3895  0.3894
    1W        W62545   4.891  28.902   0.175 -0.1734  0.1149  0.0080
    1W        W62546  17.434  14.280   8.402 -0.3139  0.0810 -0.0129
    1W        W62547   4.235  26.302   1.483  0.0367  0.1746 -0.4061
    1W        W62548  25.434   1.883   2.291  0.1407 -0.2513 -0.1472
    1W        W62549   0.189  28.081   2.005 -0.0985 -0.0551  0.2458
    1W        W62550  12.304  26.245   8.731 -0.1890  0.0770 -0.0115
    1W        W62551   5.474  19.585   8.050 -0.2983  0.2402 -0.1927
    1W        W62552  22.558  11.582   8.651  0.0506 -0.1005 -0.0142
    1W        W62553  16.024  21.775   7.344  0.0073  0.1825  0.1771
    1W        W62554  17.926   5.040   1.819  0.0543 -0.0536 -0.1859
    1W        W62555  24.847   6.272   0.022 -0.1793 -0.2872  0.0756
    1W        W62556  14.935  12.012   1.438 -0.1992  0.0712  0.1529
    1W        W62557  25.959  26.116   1.969  0.1795 -0.0964 -0.3265
    1W        W62558  17.190  21.005   9.314  0.1225 -0.2524  0.1495
    1W        W62559  10.804  29.134   6.345 -0.2952  0.0329 -0.4004
    1W        W62560  27.644   5.283   9.076 -0.1765  0.0002 -0.3915
    1W        W62561  27.784  25.324   0.765 -0.1193 -0.1361  0.1185
    1W        W62562  13.541  16.870   0.336  0.2171 -0.1490  0.0247
    1W        W62563  27.169   5.533   6.955 -0.2588 -0.2524  0.1425
    1W        W62564  22.879  21.911   8.496 -0.0775 -0.0140  0.0548
    1W        W62565  19.274  20.711   9.566 -0.1503 -0.0020  0.0071
    1W        W62566  21.412   0.279   1.893  0.1980 -0.2185  0.3094
    1W        W62567  21.792  17.809   0.922 -0.0176 -0.1172  0.2165
    1W        W62568  24.796  25.646   8.151 -0.0019  0.0838 -0.0285
    1W        W62569  10.296  21.241   6.999  0.1595 -0.1504  0.1945
    1W        W62570  23.464  13.119   7.951  0.0172  0.1633 -0.3251
    1W        W62571   1.859  17.011   9.100  0.1396 -0.0053  0.0930
    1W        W62572   1.059  26.277   1.104 -0.2673  0.1748 -0.1539
    1W        W62573  16.649  27.574   8.611 -0.1768 -0.0787  0.2238
    1W        W62574   1.579   4.076   8.791 -0.0117  0.1090 -0.0847
    1W        W62575  12.253  28.605   7.195 -0.3114  0.2834 -0.1354
    1W        W62576  13.698  29.161   0.070  0.1034 -0.0739  0.0685
    1W        W62577   2.649   6.812   9.083  0.0908  0.1416  0.1480
    1W        W62578  10.002   5.861   0.134 -0.2149 -0.1227 -0.1468
    1W        W62579   1.977  28.251   1.146 -0.0204  0.1214 -0.2008
    1W        W62580   0.422  11.270   7.286 -0.0952 -0.2541 -0.0272
    1W        W62581   5.771   3.003   9.548  0.1082 -0.0816  0.0680
    1W        W62582  27.500  13.955   0.029 -0.2055 -0.2191 -0.1140
    1W        W62583   9.288   4.506   7.964  0.1848 -0.1341 -0.2325
    1W        W62584  27.968   8.543   0.436 -0.1338  0.2175  0.1381
    1W        W62585  18.450   0.404   0.541  0.1310  0.0419  0.1028
    1W        W62586   4.110  29.110   0.454  0.1231  0.0335  0.3279
    1W        W62587   1.704  20.909   3.150  0.0327 -0.1243  0.0096
    1W        W62588  29.361  24.631   9.440 -0.2499 -0.3481 -0.0299
    1W        W62589   3.444  16.464   1.957  0.1481  0.1224  0.0486
    1W        W62590   2.701  13.345   1.126  0.1944  0.2184  0.1075
    1W        W62591  10.836   7.570   1.491  0.3326  0.2662  0.1839
    1W        W62592  11.527  18.865   1.650  0.1596  0.1264 -0.2740
    1W        W62593   3.578  25.774   8.864 -0.1909  0.0731 -0.0847
    1W        W62594  10.337   0.729   6.815  0.4585  0.0089  0.1617
    1W        W62595  24.848  18.985   0.691 -0.1359 -0.2551  0.3641
    1W        W62596  20.082  26.505   9.511 -0.2484 -0.0160  0.0667
    1W        W62597   3.774  17.151   2.493 -0.0177 -0.1757  0.0571
    1W        W62598  11.658  21.590   1.158  0.1540 -0.0914  0.0950
    1W        W62599   4.061  12.018   8.398  0.0370  0.1029  0.1372
    1W        W62600  23.035  12.225   1.790  0.0014 -0.1037  0.2122
    1W        W62601  11.026  25.832   6.365 -0.1219  0.1610 -0.1428
    1W        W62602  18.080  20.036   8.000 -0.1304  0.1126 -0.0009
    1W        W62603  20.621   9.678   9.278  0.2633 -0.1498  0.0416
    1W        W62604  21.089   3.710   2.142 -0.0548  0.2512 -0.0305
    1W        W62605  20.269  21.376   8.879 -0.4840  0.1957 -0.0298
    1W        W62606  13.557   9.183   7.275  0.3180 -0.2635  0.2182
    1W        W62607  11.526  26.466   0.785 -0.0170  0.1007 -0.2461
    1W        W62608  14.277   2.849   7.370 -0.2196 -0.1042  0.1572
    1W        W62609  24.482   9.045   7.908  0.1055 -0.1707 -0.1405
    1W        W62610   5.725  25.105   2.116  0.2300  0.0650 -0.1735
    1W        W62611   9.570   5.879   2.469  0.2594  0.0030 -0.1483
    1W        W62612  26.511   3.547   2.426 -0.1195 -0.1737  0.0664
    1W        W62613  25.840  25.167   0.363  0.0163  0.3497  0.0828
    1W        W62614   4.647  21.939   8.795  0.0039  0.0251  0.0610
    1W        W62615  22.300  21.936   7.944  0.3255 -0.0615 -0.0067
    1W        W62616  27.126  25.413   3.279 -0.1402  0.3204 -0.0485
    1W        W62617   3.034  27.687   0.823  0.2645  0.5191  0.0733
    1W        W62618  10.037  28.627   1.714 -0.0823  0.2210 -0.0744
    1W        W62619  15.242   4.467   9.460  0.0202 -0.2869 -0.0807
    1W        W62620  16.595   4.840   0.545 -0.0082  0.0281  0.2480
    1W        W62621  24.587  15.687   1.947 -0.3663  0.1453 -0.2013
    1W        W62622  26.575  20.702   9.264  0.4344  0.2876  0.1658
    1W        W62623  21.874  25.161   8.411  0.0143 -0.1388 -0.1096
    1W        W62624  28.951  27.927   7.818  0.4728  0.0919 -0.0233
    1W        W62625  24.424  25.433   7.827 -0.1373 -0.1624 -0.0296
    1W        W62626  25.638   8.504   0.691  0.0999  0.1980  0.1860
    1W        W62627   1.723   5.244   6.296 -0.1832 -0.2070  0.1755
    1W        W62628   8.907  11.493   1.382 -0.3091 -0.2488  0.0309
    1W        W62629   0.171   1.172   1.585 -0.1714 -0.3095 -0.2437
    1W        W62630  23.358   8.614   0.130  0.1413 -0.1958  0.4892
    1W        W62631  26.902  13.456   0.290  0.1320  0.0944  0.0526
    1W        W62632  20.832  19.543   8.257  0.0938  0.1100 -0.3075
    1W        W62633   5.528   0.824   6.095 -0.0365 -0.1724  0.2344
    1W        W62634  10.997   3.647   7.545  0.1367  0.0924 -0.1444
    1W        W62635  11.004   2.728   1.761  0.3516 -0.1628  0.2029
    1W        W62636  14.185  20.110   7.555  0.1002 -0.0167  0.1316
    1W        W62637  18.276  29.147   9.544  0.0013 -0.0673  0.0374
    1W        W62638   5.292   9.466   9.277  0.0579 -0.1467 -0.0693
    1W        W62639   4.469   0.094   0.977 -0.1939  0.0480 -0.2339
    1W        W62640   8.405   3.590   6.548 -0.1402  0.1891  0.2880
    1W        W62641   6.669   9.868   0.051 -0.2028 -0.4872 -0.2178
    1W        W62642   2.677   3.235   0.423 -0.2796  0.0114 -0.0370
    1W        W62643  12.430  15.403   2.700  0.0740  0.0172  0.0136
    1W        W62644   1.421   4.190   7.672 -0.2680  0.4495  0.2602
    1W        W62645   0.483  14.670   8.562  0.3322 -0.0307  0.0474
    1W        W62646  11.703   8.431   0.337 -0.0500 -0.0595 -0.0454
    1W        W62647   8.489   2.644   0.630  0.0492 -0.1532 -0.1160
    1W        W62648  12.773  24.235   2.363 -0.3805 -0.1673  0.0386
    1W        W62649   0.478  10.022   8.441  0.2137  0.0793 -0.0974
    1W        W62650  19.117   8.305   8.438  0.1492 -0.0196  0.1662
    1W        W62651   5.266  22.423   1.474 -0.0276  0.0995  0.0845
    1W        W62652  25.350  21.533   3.049 -0.2390  0.0119  0.1811
    1W        W62653  10.456   4.313   7.171  0.1762 -0.1603  0.1229
    1W        W62654  17.973  21.442   0.695  0.0157  0.1115 -0.3774
    1W        W62655   1.231   9.834   0.274 -0.1305  0.0132 -0.0666
    1W        W62656  14.380   4.487   8.886 -0.1362 -0.3027  0.2098
    1W        W62657  16.566   8.744   9.234  0.0222  0.0234  0.2809
    1W        W62658  28.312  16.060   0.317 -0.0364  0.0140 -0.1344
    1W        W62659  26.164  27.288   0.013 -0.3142  0.2816  0.1600
    1W        W62660  18.466   4.980   2.723 -0.1157  0.0027 -0.4020
    1W        W62661  13.144  16.614   0.214  0.0116  0.1026 -0.1871
    1W        W62662   5.303   6.596   8.997 -0.1684  0.0086 -0.4678
    1W        W62663   1.035  16.975   7.697 -0.0638 -0.1205 -0.1470
    1W        W62664  27.970  20.039   0.573  0.0098  0.0851 -0.2653
    1W        W62665  20.099  17.955   3.283 -0.1367  0.0143  0.0550
    1W        W62666   2.175  22.618   1.579  0.0273  0.1453 -0.2976
    1W        W62667  28.448   1.144   7.995 -0.0861  0.0874 -0.2766
    1W        W62668  17.142  10.641   1.421  0.4589  0.1559 -0.0448
    1W        W62669   7.941   6.952   8.835 -0.1428  0.0160 -0.0154
    1W        W62670  16.426  23.167   8.557 -0.1364 -0.1425 -0.1055
    1W        W62671   8.458   6.052   5.566 -0.0940 -0.0032 -0.0797
    1W        W62672  13.263  11.197   7.135  0.2824 -0.1776 -0.2520
    1W        W62673   1.998  10.209   1.009  0.0596 -0.0413 -0.1538
    1W        W62674  16.584  20.136   2.477  0.0612 -0.1395 -0.2946
    1W        W62675  22.673  11.627   1.193  0.2331 -0.2435 -0.1179
    1W        W62676  10.825  21.893   9.395 -0.1198  0.3307 -0.0908
    1W        W62677  14.958   4.170   2.487  0.0436 -0.0643 -0.2375
    1W        W62678  24.727  21.646   7.521  0.0390  0.0517  0.1040
    1W        W62679  14.860  14.271   0.013 -0.1113 -0.0416  0.0659
    1W        W62680  12.852  25.499   1.172 -0.0727 -0.2900  0.0494
    1W        W62681  18.152   6.389   9.520  0.1249 -0.2293 -0.0531
    1W        W62682  12.782  24.009   8.625  0.0318 -0.2151 -0.2305
    1W        W62683  20.308   6.445   1.646  0.1836  0.0181  0.0955
    1W        W62684  19.680  23.089   8.397  0.3331  0.0675 -0.0923
    1W        W62685  12.283  19.751   8.784  0.0977  0.0877  0.2091
    1W        W62686  22.840  26.246   8.519 -0.1298  0.0984  0.1385
    1W        W62687  16.958   3.486   7.498  0.1164  0.2477  0.0703
    1W        W62688  16.667  15.853   0.701  0.1016  0.2404  0.0317
    1W        W62689  17.386  19.767   0.542  0.3479  0.0029 -0.1904
    1W        W62690  22.100  20.453   0.036  0.1107  0.0597  0.0634
    1W        W62691  28.897  24.463   3.074  0.0451  0.1007  0.0040
    1W        W62692  28.088   7.363   9.491  0.3074  0.0842 -0.1458
    1W        W62693  10.871  24.872   9.569 -0.3695 -0.0016  0.1496
    1W        W62694  13.494  24.014   9.070  0.3068  0.1915  0.2906
    1W        W62695  15.435  15.891   1.262 -0.2720 -0.0951  0.0835
    1W        W62696  10.891   2.463   7.672  0.0338 -0.1761 -0.1334
    1W        W62697   6.155  14.025   1.387  0.0442  0.1533  0.1285
    1W        W62698   2.789  12.280   8.398 -0.1042  0.3295  0.0139
    1W        W62699   8.154   0.882   9.225  0.0348 -0.2163 -0.0672
    1W        W62700   2.117  27.086   8.448 -0.2741 -0.0648  0.2980
    1W        W62701  25.539  19.625   7.751 -0.0759  0.1566 -0.2703
    1W        W62702   5.197  10.040   7.848 -0.1937  0.3542 -0.3669
    1W        W62703   3.206  19.986   2.731 -0.0470  0.1647  0.0569
    1W        W62704  27.475  25.428   7.217  0.2433 -0.1054  0.0040
    1W        W62705  11.713  24.444   8.219 -0.0053  0.0788 -0.0606
    1W        W62706  19.190   8.779   8.470  0.0025 -0.0305 -0.0639
    1W        W62707   7.631  24.013   0.850  0.1217 -0.0406  0.0690
    1W        W62708  27.788  15.868   1.919 -0.0186  0.1873 -0.1816
    1W        W62709  13.913   2.095   8.208 -0.3346 -0.3407  0.2031
    1W        W62710   6.570   3.599   1.447  0.0132  0.1243  0.1512
    1W        W62711   2.238   4.095   0.080  0.1424 -0.1548  0.0216
    1W        W62712  11.597   4.707   1.038  0.2445  0.1712  0.1954
    1W        W62713  12.577   1.519   8.515  0.0215 -0.0041 -0.3460
    1W        W62714   5.836  19.282   0.978  0.0735  0.2501  0.0366
    1W        W62715  29.166  12.084   7.551 -0.1304  0.3187  0.0298
    1W        W62716  15.054  18.317   8.390 -0.2656 -0.1652 -0.3519
    1W        W62717  11.308  17.827   6.864  0.0550  0.3758  0.1325
    1W        W62718   2.886   5.310   7.507  0.1145  0.1674  0.0404
    1W        W62719  25.141  22.810   8.855  0.0975 -0.1136  0.1004
    1W        W62720  24.584  16.678   6.889 -0.1211 -0.1454  0.1559
    1W        W62721  25.875   1.029   9.030  0.1020  0.2782 -0.2152
    1W        W62722  19.292  28.671   2.161 -0.2641 -0.2904 -0.1961
    1W        W62723   0.625  23.417   8.497 -0.0183 -0.4291 -0.0658
    1W        W62724  10.454  17.866   8.088  0.0823  0.0799  0.1967
    1W        W62725  10.243  11.984   1.794 -0.1522  0.1647  0.0268
    1W        W62726   1.716   4.306   8.071  0.1709  0.3182  0.2207
    1W        W62727  13.354  14.103   0.650  0.2323 -0.0632 -0.1820
    1W        W62728  12.705   9.829   9.351 -0.1721  0.2038 -0.0630
    1W        W62729  14.499  18.881   9.028 -0.2112  0.1407  0.0515
    1W        W62730  17.870   4.518   2.077 -0.1441 -0.0373 -0.0319
    1W        W62731  19.727  25.740   2.095 -0.0663  0.0019  0.2647
    1W        W62732   2.337   0.830   7.018  0.0853  0.1202  0.4328
    1W        W62733   8.861  26.752   1.970  0.0282  0.0477 -0.0752
    1W        W62734  26.268  17.522   9.163  0.0247 -0.1458 -0.1929
    1W        W62735   6.897  12.243   0.805 -0.0933  0.2106 -0.3011
    1W        W62736   8.822  15.156   1.173 -0.0754  0.2461 -0.0342
    1W        W62737  18.715  15.814   7.832  0.1451  0.0081 -0.0114
    1W        W62738  17.273  28.769   7.479 -0.1876 -0.1672 -0.0007
    1W        W62739   5.514  29.281   0.741 -0.2324 -0.0578  0.1916
    1W        W62740  15.310  14.350   1.941  0.2447  0.2225 -0.2295
    1W        W62741  10.867  17.213   8.879 -0.2153  0.1259  0.1593
    1W        W62742  19.717   1.554   8.029 -0.0856  0.1026 -0.0866
    1W        W62743   2.927   8.902   9.609  0.1423 -0.2365  0.0473
    1W        W62744  24.632   1.667   0.749  0.1572  0.1373 -0.3408
    1W        W62745  14.537   8.036   8.463 -0.0772  0.1394  0.2050
    1W        W62746  26.932   6.546   6.914  0.0098  0.2100 -0.0477
    1W        W62747  13.286  19.882   9.245  0.0754  0.0563  0.1734
    1W        W62748  13.975  11.449   7.655 -0.1860  0.3031  0.1305
    1W        W62749  15.977   9.912   0.248 -0.2950  0.0006 -0.0116
    1W        W62750  20.535  24.723   9.394 -0.1170  0.1392 -0.0004
    1W        W62751   6.478  28.966   1.917 -0.0179  0.2754 -0.1084
    1W        W62752  15.486  14.820   9.141 -0.1193  0.1576 -0.1721
    1W        W62753  11.804  18.394   0.397  0.0861  0.1249 -0.1982
    1W        W62754  25.385  24.423   3.826  0.0448  0.4597  0.2076
    1W        W62755  25.209   1.348   8.453  0.0041 -0.0573  0.3739
    1W        W62756  10.421  22.876   3.161  0.1916  0.0389 -0.0254
    1W        W62757  23.740   3.428   8.268 -0.0218 -0.0896  0.1651
    1W        W62758   4.814   5.135   7.148  0.1262  0.1946 -0.0352
    1W        W62759   5.056  29.136   8.499 -0.0408  0.0392  0.0115
    1W        W62760  18.284  18.851   8.145 -0.0631 -0.0428  0.1234
    1W        W62761   1.485  18.339   3.042  0.0716  0.0408  0.1011
    1W        W62762  13.471  27.724   1.351 -0.2826  0.1306  0.2529
    1W        W62763  10.255  24.754   6.610 -0.2137 -0.1010  0.0133
    1W        W62764   7.645  11.239   7.312 -0.1022  0.0885 -0.1572
    1W        W62765  13.084   0.001   1.107  0.1504  0.1347 -0.3235
    1W        W62766  20.137   1.567   2.064  0.0464  0.1942  0.4666
    1W        W62767   2.949  24.295   1.826  0.2738 -0.2011 -0.0228
    1W        W62768  18.524  26.798   9.402 -0.0047 -0.0128 -0.0063
    1W        W62769  10.720  25.154   1.263  0.0205 -0.0305  0.1545
    1W        W62770  20.269  24.228   3.640  0.1724  0.1043 -0.2241
    1W        W62771   4.369   9.183   7.238  0.0366 -0.3501  0.2362
    1W        W62772   0.559  16.182   1.372  0.0011  0.2199  0.0503
    1W        W62773   1.993   6.426   6.575 -0.3198  0.1300 -0.0305
    1W        W62774  23.732   9.925   1.679  0.2932 -0.0076 -0.0306
    1W        W62775  14.469  14.014   7.849  0.2179  0.0855  0.1767
    1W        W62776  27.466  18.974   0.098  0.0098  0.1078 -0.1995
    1W        W62777  16.103   3.789   1.874  0.4069 -0.0645  0.1499
    1W        W62778   7.093   9.978   1.332  0.1186  0.1405 -0.0142
    1W        W62779   8.888  12.580   1.475 -0.1721 -0.0049 -0.2417
    1W        W62780  24.748   3.866   2.256  0.0300 -0.0183 -0.4792
    1W        W62781  13.934  26.676   2.538 -0.1109 -0.3910  0.2066
    1W        W62782   6.849   0.333   6.770  0.0359  0.3033  0.0385
    1W        W62783   1.583   4.723   6.248  0.0565  0.0598 -0.0160
    1W        W62784  16.817  15.698   9.397 -0.0748  0.1407  0.0120
    1W        W62785  27.946  24.533   3.403 -0.3234  0.1939  0.1043
    1W        W62786  24.937  21.867   0.710  0.1993 -0.1828  0.1993
    1W        W62787  11.203   3.208   7.477 -0.2905 -0.1010  0.0604
    1W        W62788  18.279  26.537   0.529 -0.2392 -0.0374  0.0009
    1W        W62789  11.986  26.258   6.842 -0.0625  0.0704  0.0783
    1W        W62790  15.527  19.268   7.214  0.1260  0.1447 -0.1082
    1W        W62791  11.040   8.121   0.741 -0.1445 -0.0503  0.1095
    1W        W62792  16.618   0.997   8.902  0.0512 -0.1055  0.0509
    1W        W62793   8.410   9.426   1.891  0.0201 -0.2214  0.1195
    1W        W62794   4.358  10.258   5.617 -0.0348  0.1596  0.0323
    1W        W62795  11.209  20.469   7.323  0.2369  0.1008  0.0396
    1W        W62796  26.819  13.403   2.437 -0.0711  0.3787  0.1512
    1W        W62797  20.033  12.753   0.619 -0.1102 -0.0872 -0.1032
    1W        W62798   5.451   1.780   9.433 -0.2014  0.1326  0.0480
    1W        W62799  15.378  18.743   8.336  0.0133  0.2828 -0.1205
    1W        W62800  26.841   4.105   1.387  0.0850 -0.0506  0.0165
    1W        W62801   1.617  16.792   8.679 -0.3568  0.0754  0.0446
    1W        W62802  16.243  17.410   6.740  0.1245  0.1248 -0.0890
    1W        W62803  20.567  25.310   0.899  0.0694 -0.0360  0.0757
    1W        W62804  18.961  23.346   9.342  0.0951  0.1169  0.0587
    1W        W62805  23.086  11.694   8.533  0.0793  0.3198  0.1022
    1W        W62806   1.519   9.881   7.299  0.0066  0.0004 -0.2902
    1W        W62807  26.996  19.022   0.194 -0.0267 -0.0534 -0.3211
    1W        W62808  10.349  21.933   1.339  0.2208 -0.2333  0.3066
    1W        W62809  21.738  16.355   2.104  0.0761 -0.2638  0.2045
    1W        W62810  17.177  12.720   1.676  0.0520 -0.0842 -0.1507
    1W        W62811  13.058  13.768   2.017 -0.2821  0.0120  0.3532
    1W        W62812  17.998  22.491   2.749 -0.1750 -0.1437 -0.0456
    1W        W62813  22.077   4.665   8.193  0.0610  0.0525  0.1175
    1W        W62814   0.881  22.568   2.344  0.1291  0.0390  0.1792
    1W        W62815   9.067  27.391   0.016 -0.1955 -0.2050  0.0304
    1W        W62816   5.116  21.737   0.346  0.0909  0.2091  0.3393
    1W        W62817  27.422   5.749   9.295 -0.1456  0.2640  0.2264
    1W        W62818   8.873  19.205   8.612  0.2417 -0.2998 -0.0888
    1W        W62819  10.468  29.165   1.401 -0.0104 -0.0547 -0.0725
    1W        W62820  12.044  24.770   2.003  0.0332 -0.0537  0.2753
    1W        W62821  25.936   1.500   0.307  0.0822  0.3262  0.2017
    1W        W62822  26.786  27.285   8.760  0.1026  0.0841  0.0699
    1W        W62823   4.577   9.846   0.073  0.0360 -0.0786 -0.0590
    1W        W62824  17.959   2.259   2.166 -0.1303  0.5090  0.1419
    1W        W62825   1.307   7.710   7.199  0.0393 -0.0984  0.0525
    1W        W62826  19.413   2.254   7.762  0.2439  0.0991 -0.0351
    1W        W62827   9.226   5.998   6.591 -0.2350  0.1277 -0.0180
    1W        W62828  28.142  15.717   8.165  0.0148  0.0222  0.0643
    1W        W62829  24.278   2.757   1.067  0.1950  0.4670 -0.3229
    1W        W62830  28.824  27.115   8.820 -0.2101 -0.2607  0.0057
    1W        W62831   8.372  14.404   9.270 -0.2323  0.2320  0.0416
    1W        W62832  18.917   4.641   1.784  0.0265  0.0763 -0.1821
    1W        W62833   7.230   1.673   1.683 -0.1253 -0.1024 -0.2610
    1W        W62834  11.892   1.354   0.834 -0.0025  0.3817 -0.2022
    1W        W62835  20.962  24.271   3.307  0.1723 -0.4858 -0.4364
    1W        W62836   4.366  12.538   0.381  0.1769  0.2348  0.2836
    1W        W62837  16.584  27.005   8.670  0.1870 -0.2920 -0.0099
    1W        W62838  18.207  14.344   3.067  0.4436 -0.0053  0.2175
    1W        W62839   8.477  11.759   1.276 -0.1825  0.0408  0.0234
    1W        W62840  10.971  18.668   1.607 -0.1320 -0.1290  0.0528
    1W        W62841   2.379   8.328   6.784 -0.0755 -0.4156  0.1319
    1W        W62842  17.667   4.561   2.658 -0.2834  0.1303 -0.0651
    1W        W62843  15.582  22.564   2.193  0.1590 -0.0505 -0.3063
    1W        W62844  16.012  16.567   1.242 -0.2846  0.1330 -0.3284
    1W        W62845  11.955  11.825   0.161 -0.1557  0.1238  0.1490
    1W        W62846   4.949  17.896   2.865 -0.2290 -0.2325 -0.1046
    1W        W62847  16.725  26.445   9.578  0.0357  0.0630  0.1327
    1W        W62848   0.720  22.487   1.094  0.1377  0.0299 -0.3533
    1W        W62849   2.943   4.781   1.315  0.1773  0.4037 -0.1619
    1W        W62850  20.488  22.977   8.993  0.1403 -0.1570  0.0021
    1W        W62851  12.742  23.375   2.719 -0.1708 -0.0968  0.3137
    1W        W62852   0.934  26.668   8.207  0.3092  0.0910 -0.0825
    1W        W62853   6.352  26.932   2.869  0.0074  0.0836  0.0299
    1W        W62854   7.144  29.580   8.500 -0.2692 -0.1660  0.1356
    1W        W62855   5.647   2.347   2.245  0.2098  0.1833  0.0081
    1W        W62856  14.028  28.387   1.883  0.0164  0.2177 -0.0305
    1W        W62857   2.695  12.547   6.117 -0.2549  0.1433  0.2512
    1W        W62858   8.511  11.539   9.072  0.0802 -0.1781  0.2432
    1W        W62859  16.826   6.607   2.405 -0.1256 -0.0914 -0.1100
    1W        W62860   0.567  23.678   9.232  0.3722  0.0407  0.0125
    1W        W62861  28.231   0.210   7.044 -0.3831 -0.0398 -0.2339
    1W        W62862   7.226   1.254   0.263 -0.1487  0.0140  0.0714
    1W        W62863   5.305  28.574   0.237  0.3196 -0.0233  0.1060
    1W        W62864  17.131  10.679   0.149  0.2051 -0.0579 -0.1071
    1W        W62865  11.057   9.333   8.887 -0.1258 -0.0822 -0.0300
    1W        W62866  12.066  19.843   1.813 -0.2121 -0.3565 -0.0837
    1W        W62867   4.933  21.086   7.144  0.0753  0.5128  0.1814
    1W        W62868  11.739  18.838   9.239 -0.1013 -0.3556 -0.0016
    1W        W62869  26.469  22.726   0.391  0.1665 -0.0478  0.2004
    1W        W62870   0.834   8.732   7.341  0.0833  0.2550  0.1037
    1W        W62871   2.708  17.174   8.402  0.0212  0.1153 -0.3671
    1W        W62872  18.502  29.122   3.208  0.1865  0.1496 -0.1628
    1W        W62873  13.083   6.598   8.614  0.1700  0.0071 -0.2111
    1W        W62874  20.433  12.079   8.158  0.1526 -0.0114  0.0672
    1W        W62875  12.151   7.419   1.675  0.2888 -0.3519 -0.1088
    1W        W62876   7.890  22.349   9.555 -0.2119 -0.1679 -0.0747
    1W        W62877   4.043  13.652   7.069 -0.2278  0.3037  0.2531
    1W        W62878  12.117   7.792   7.198  0.1427  0.0501  0.2184
    1W        W62879  17.918  16.593   8.447  0.0639 -0.1190  0.0375
    1W        W62880  18.756  27.522   3.616 -0.2566  0.0263  0.1237
    1W        W62881   3.014   4.968   7.114  0.1777 -0.0016 -0.1554
    1W        W62882  20.449  28.911   7.980  0.2252  0.1549  0.2814
    1W        W62883  21.095  17.883   1.730  0.1539 -0.0587 -0.1146
    1W        W62884   6.378  23.110   0.365  0.1425 -0.0325 -0.0973
    1W        W62885   7.806  29.011   6.917 -0.1462 -0.2375 -0.2015
    1W        W62886  16.917  13.588   2.085  0.0727 -0.0380 -0.3895
    1W        W62887  14.041  19.012   9.072  0.1010 -0.1056 -0.0984
    1W        W62888  17.175  27.573   7.650 -0.0178  0.0029  0.3490
    1W        W62889  10.123   2.800   8.352  0.0586  0.3590 -0.0817
    1W        W62890   8.388  22.626   0.142  0.0900 -0.0232 -0.1848
    1W        W62891  21.821   3.727   6.948  0.0654  0.2113  0.0023
    1W        W62892   4.813  15.336   9.344  0.2630  0.2128  0.0059
    1W        W62893  22.526  26.297   2.327  0.0164 -0.0117  0.2693
    1W        W62894  26.716  25.019   2.707 -0.0717 -0.0610  0.3216
    1W        W62895  19.743  27.480   1.251 -0.2932  0.0011  0.1502
    1W        W62896  22.431  28.376   1.880  0.0276  0.1131  0.2162
    1W        W62897   4.646  10.975   1.282 -0.1628  0.0178  0.2516
    1W        W62898   1.299  20.507   2.237  0.2882 -0.2881  0.1149
    1W        W62899   5.424  19.039   3.101  0.4700  0.2842 -0.3435
    1W        W62900   4.802  10.910   6.725  0.1066  0.0560 -0.3261
    1W        W62901  19.189  10.933   0.645  0.2787 -0.0623 -0.1967
    1W        W62902  13.152  29.028   5.931 -0.0585  0.1187  0.0473
    1W        W62903  20.953   0.373   8.738 -0.2112  0.1680  0.1122
    1W        W62904  11.078  11.654   7.569  0.0114  0.1282  0.2653
    1W        W62905   5.709  13.463   0.525  0.3682  0.0902 -0.0861
    1W        W62906  28.627  27.594   7.694 -0.0153  0.3475  0.1340
    1W        W62907  28.159  26.423   0.991 -0.0042  0.2270  0.1144
    1W        W62908   3.781  21.320   2.493 -0.1770 -0.1310  0.2072
    1W        W62909  10.127   2.403   2.018  0.1417  0.2102 -0.2737
    1W        W62910  13.783  15.039   7.381 -0.1164 -0.2355 -0.0866
    1W        W62911   2.482  16.792   7.615  0.0532 -0.2693 -0.0634
    1W        W62912  10.173  28.380   8.840  0.5332 -0.1977 -0.1168
    1W        W62913  14.756   5.815   7.733  0.0840  0.1828  0.1750
    1W        W62914  16.064   2.560   2.320  0.5106  0.1324 -0.3321
    1W        W62915   9.734  14.715   8.969  0.0087 -0.0863 -0.1069
    1W        W62916   4.767  16.674   0.722 -0.0428  0.1429  0.0968
    1W        W62917  21.505  25.820   2.877 -0.1316  0.0360  0.2911
    1W        W62918  16.889  16.865   1.694  0.3265 -0.0683  0.1119
    1W        W62919  12.064  17.048   2.251 -0.1347 -0.0098  0.0590
    1W        W62920   5.402  24.148   3.093 -0.1082 -0.2116 -0.1400
    1W        W62921  27.869   6.347   6.912  0.4155  0.1529 -0.2922
    1W        W62922  10.016  15.933   1.514 -0.2863  0.0139  0.0715
    1W        W62923  27.619   1.830   7.288  0.2586  0.0706 -0.1925
    1W        W62924  15.596   3.184   8.278  0.0790  0.0599 -0.0539
    1W        W62925   8.321   6.284   5.988 -0.2671 -0.2570  0.0091
    1W        W62926  12.290  26.265   1.794  0.1883  0.1230  0.1558
    1W        W62927   8.123   2.372   0.500 -0.1334 -0.1871 -0.0330
    1W        W62928   6.852  25.969   6.228 -0.2923  0.1432  0.0584
    1W        W62929   0.228  24.867   8.817  0.0153  0.2576  0.2908
    1W        W62930  18.913  10.315   0.575 -0.0465 -0.0751  0.0628
    1W        W62931  10.721  24.522   9.192 -0.2103 -0.0985 -0.3772
    1W        W62932  27.606  16.383   1.995 -0.1132  0.3174 -0.0101
    1W        W62933   1.332  17.003   7.193  0.0972 -0.2005 -0.0355
    1W        W62934  28.537   7.154   9.331 -0.4053 -0.0275 -0.3838
    1W        W62935  18.262  22.726   8.505 -0.1322  0.1133  0.1341
    1W        W62936   7.078  23.483   8.033 -0.0204 -0.1831  0.2352
    1W        W62937   4.616  20.402   7.143 -0.0213 -0.0359  0.1264
    1W        W62938   1.552  28.399   0.958  0.0697 -0.2879 -0.0171
    1W        W62939  27.818  21.834   9.066 -0.2451 -0.1414 -0.1300
    1W        W62940   0.891  11.464   1.742  0.1291  0.5689 -0.1418
    1W        W62941  18.534  20.231   7.842 -0.2620  0.0960 -0.1950
    1W        W62942  24.902   3.134   7.507  0.0748  0.1203  0.0325
    1W        W62943  23.551  22.463   8.275  0.0553  0.0791 -0.1048
    1W        W62944   6.379  21.969   8.990 -0.0847  0.2926  0.1020
    1W        W62945  23.768  13.736   9.259 -0.3155 -0.0045 -0.1260
    1W        W62946   1.413  25.064   7.154  0.0425 -0.0535  0.1404
    1W        W62947  17.110   8.142   2.208  0.1435 -0.0981  0.1942
    1W        W62948  19.167  21.576   2.836  0.1511 -0.0621 -0.0268
    1W        W62949  12.598   3.980   8.072  0.0328  0.3911  0.0502
    1W        W62950   2.739  19.202   1.413 -0.2266 -0.1565  0.2176
    1W        W62951   5.890  19.733   1.785  0.0523  0.0685 -0.0680
    1W        W62952   0.057  21.691   1.202  0.4470  0.0951  0.1905
    1W        W62953   1.877   1.997   0.646  0.2071  0.0955  0.0676
    1W        W62954  29.431  27.096   1.204  0.2369 -0.4649 -0.0899
    1W        W62955   8.635   8.807   7.883 -0.1012  0.0574 -0.1445
    1W        W62956  15.145  27.784   6.924  0.1526 -0.1847 -0.2812
    1W        W62957  23.583  19.961   0.188  0.1659 -0.1373  0.1839
    1W        W62958  15.956  24.384   2.304 -0.1341  0.0870  0.2896
    1W        W62959  11.643   8.042   6.472 -0.0111 -0.0449 -0.1179
    1W        W62960  11.799  21.319   6.506  0.4658  0.1291 -0.2198
    1W        W62961  10.226  11.428   9.082 -0.3345  0.3595  0.2008
    1W        W62962  27.313   6.669   1.197  0.0551  0.1246  0.1544
    1W        W62963   2.942  11.859   7.210  0.0710  0.1298  0.2345
    1W        W62964  15.910  16.354   9.590  0.0461 -0.1518  0.0500
    1W        W62965  11.714   7.870   2.281 -0.1905  0.2308  0.0447
    1W        W62966  22.482  21.842   7.408  0.0286  0.0269 -0.1512
    1W        W62967   3.461  21.341   1.640  0.1785 -0.0033 -0.3436
    1W        W62968  25.216   8.507   8.073 -0.0699  0.3192 -0.0527
    1W        W62969  10.451   9.470   9.176 -0.0763  0.0863  0.0509
    1W        W62970  21.303  12.227   7.597 -0.0717 -0.0411 -0.0732
    1W        W62971  21.361   0.722   9.273 -0.2987 -0.0319 -0.0368
    1W        W62972  13.508   1.999   6.504 -0.0360 -0.1547  0.2831
    1W        W62973   4.734   8.759   1.476  0.0953  0.1162 -0.4825
    1W        W62974  23.652  21.675   3.058 -0.0368 -0.0715 -0.3054
    1W        W62975  11.043  14.492   9.254 -0.0089 -0.0552  0.1963
    1W        W62976  10.506   5.348   9.374 -0.0267  0.2188  0.2113
    1W        W62977  11.287  13.542   9.388  0.2662 -0.2426  0.1627
    1W        W62978  23.499   0.301   8.622  0.1609 -0.1922 -0.0098
    1W        W62979   3.451  12.019   7.341  0.0051  0.3042 -0.3176
    1W        W62980   5.917   1.866   8.726 -0.0452  0.1724 -0.4985
    1W        W62981   9.168   5.576   8.919  0.0556 -0.1350  0.2873
    1W        W62982  17.714  17.093   9.242  0.0561 -0.1511 -0.1594
    1W        W62983  13.740  25.843   3.101 -0.0048  0.0852  0.1115
    1W        W62984   9.392  20.608   9.607  0.1567  0.0029  0.0669
    1W        W62985  26.086  14.629   7.530  0.0977  0.2865  0.0682
    1W        W62986   7.787  28.473   9.156  0.0276  0.0511  0.0858
    1W        W62987  16.465   6.131   9.543  0.0318 -0.0653 -0.1879
    1W        W62988   6.973  22.839   1.700  0.4179  0.1442  0.1410
    1W        W62989   5.363  10.848   9.207 -0.0727 -0.0451 -0.1330
    1W        W62990  27.808  25.697   2.082  0.0180 -0.4601  0.2865
    1W        W62991  23.984  19.341   9.462  0.3090  0.4164 -0.0995
    1W        W62992  27.360  23.030   2.026 -0.0665  0.2121  0.1714
    1W        W62993   3.870   1.272   9.347  0.0415 -0.0001 -0.0818
    1W        W62994   6.953  21.509   8.272 -0.1490  0.2156  0.0829
    1W        W62995  10.308   7.897   7.311 -0.3776  0.0551 -0.0772
    1W        W62996   2.497   3.176   8.079 -0.2770 -0.1435  0.3936
    1W        W62997  17.899  21.634   8.700  0.1107  0.0423 -0.1507
    1W        W62998   1.413  15.107   7.879  0.0269  0.0244 -0.1486
    1W        W62999  18.925  29.232   2.854  0.0024 -0.0960 -0.2195
    1W        W63000  14.484   9.110   8.226 -0.0996 -0.0854  0.3110
    1W        W63001  10.430   6.466   8.569 -0.1916 -0.1627  0.2558
    1W        W63002  27.032  13.928   0.356  0.1608  0.1304  0.1527
    1W        W63003   7.314  28.845   7.129  0.2285  0.2068  0.2510
    1W        W63004  15.530  27.615   1.448  0.1027  0.1356  0.1030
    1W        W63005  14.288  17.146   7.962 -0.1245 -0.1959 -0.1101
    1W        W63006  25.769   6.301   7.458  0.0506 -0.2778 -0.1301
    1W        W63007  13.550   5.399   6.650 -0.1643  0.2273 -0.0782
    1W        W63008   4.321  10.317   7.458 -0.3098  0.1919 -0.1241
    1W        W63009   9.437  20.884   7.416 -0.1746 -0.1299 -0.0888
    1W        W63010  27.904   2.964   2.691 -0.0556 -0.0044 -0.0814
    1W        W63011  10.678  28.860   7.334 -0.4325  0.2084  0.0648
    1W        W63012  10.333  19.120   7.820  0.3636 -0.0081  0.0528
    1W        W63013   1.780  21.876   2.692  0.3507 -0.2431 -0.0587
    1W        W63014  18.833  28.722   1.165  0.1286  0.0628 -0.4687
    1W        W63015   2.989  11.713   1.453 -0.1218  0.1831  0.1443
    1W        W63016  24.545  14.907   7.501 -0.0085 -0.0165  0.0698
    1W        W63017  12.096  15.387   7.524 -0.3757  0.1331  0.1869
    1W        W63018  14.577  10.686   7.289  0.0513 -0.0254 -0.0819
    1W        W63019  12.701   5.320   2.863 -0.0406 -0.1438 -0.1626
    1W        W63020   8.057  21.520   8.947  0.1531 -0.0612 -0.1890
    1W        W63021  11.670  14.964   8.391 -0.1360 -0.2638 -0.2766
    1W        W63022  16.281  21.301   1.144  0.0032 -0.1006 -0.1716
    1W        W63023  27.308  23.930   0.683 -0.2430 -0.4708  0.1182
    1W        W63024  20.999   1.669   1.749  0.1650 -0.0652 -0.1763
    1W        W63025   3.549   3.085   1.243 -0.1497  0.0272 -0.1225
    1W        W63026  22.537  10.481   2.133 -0.0459  0.1637 -0.3174
    1W        W63027  20.953  23.086   3.909 -0.0236 -0.2333 -0.0861
    1W        W63028  21.472   7.214   0.795 -0.0863  0.1594 -0.0831
    1W        W63029  19.500  24.623   9.369 -0.2276 -0.0319  0.2469
    1W        W63030  23.414  24.318   8.453 -0.1808 -0.2784  0.2627
    1W        W63031  19.096  18.163   8.525 -0.0625  0.1691  0.0387
    1W        W63032  29.312   3.777   9.440 -0.2446 -0.2675 -0.1945
    1W        W63033  13.974  24.128   9.001  0.0220  0.1874 -0.0166
    1W        W63034  10.800  13.950   0.317  0.0021  0.1206  0.2911
    1W        W63035  14.879  10.455   7.742  0.0052  0.0649 -0.2178
    1W        W63036  23.002   4.549   9.180  0.0314 -0.0062  0.0955
    1W        W63037   3.186  17.391   0.685 -0.2992 -0.1187 -0.3162
    1W        W63038   2.051  24.524   8.041  0.0350  0.3391 -0.0681
    1W        W63039  29.496  27.482   7.458  0.2014 -0.2391  0.2324
    1W        W63040  14.796  15.327   1.251  0.1872 -0.0970 -0.1795
    1W        W63041   4.462   1.474   2.272  0.0044 -0.0269  0.4573
    1W        W63042   7.673  19.594   1.403  0.0248 -0.3576 -0.2202
    1W        W63043  15.434  13.347   0.300 -0.1033  0.0882 -0.0188
    1W        W63044   7.151  15.463   5.912  0.2359 -0.0795 -0.0493
    1W        W63045  29.055   7.618   7.789  0.0307 -0.4413 -0.2370
    1W        W63046  13.803   2.140   8.710 -0.0649  0.1942 -0.0777
    1W        W63047   0.272  11.148   0.381 -0.2906  0.1240  0.0745
    1W        W63048  19.947  11.334   2.806 -0.1111 -0.1488  0.1811
    1W        W63049   8.103  14.954   7.146 -0.0199 -0.0663 -0.1699
    1W        W63050  26.219   5.724   7.278  0.1449  0.3205 -0.0128
    1W        W63051   3.796  10.404   9.025 -0.0290  0.0361  0.1331
    1W        W63052   9.171  10.318   7.248 -0.0614 -0.0865  0.5007
    1W        W63053  27.766   3.312   9.199  0.0386 -0.1395  0.2490
    1W        W63054  14.135   5.547   7.269 -0.2344 -0.0428 -0.1057
    1W        W63055   4.872   4.173   2.309 -0.1152 -0.0484 -0.0158
    1W        W63056  23.762  16.779   0.236 -0.1778 -0.2155 -0.0089
    1W        W63057  28.077   1.728   8.933 -0.0987  0.0011 -0.0488
    1W        W63058  22.061  24.424   4.217 -0.2226  0.0225 -0.0444
    1W        W63059  29.076  18.982   0.869  0.0068  0.0514  0.0013
    1W        W63060  24.811   2.876   0.361 -0.0720  0.0631 -0.0921
    1W        W63061   9.153  27.402   1.907 -0.0971 -0.0228  0.3082
    1W        W63062  11.012   2.879   7.973  0.0784 -0.2630 -0.1113
    1W        W63063   4.561   2.877   0.182  0.0663 -0.4813  0.1400
    1W        W63064  23.456   9.201   7.479  0.1056  0.2407 -0.3457
    1W        W63065  13.715  26.811   0.004 -0.1082  0.0008 -0.1969
    1W        W63066  14.534  10.231   7.013  0.0717 -0.0008 -0.0947
    1W        W63067  12.854  22.731   1.930  0.0366  0.0431  0.1524
    1W        W63068  20.934  12.836   0.796  0.2754  0.1333 -0.0493
    1W        W63069  22.429  29.159   3.649 -0.1422  0.0303  0.2900
    1W        W63070  21.448   8.638   8.139 -0.0841 -0.0624 -0.2647
    1W        W63071  13.814  21.558   0.494  0.2254 -0.2756 -0.1298
    1W        W63072  20.805  24.810   1.899  0.0903 -0.0910 -0.2459
    1W        W63073   8.193  12.553   8.388  0.3117 -0.3398  0.0793
    1W        W63074  18.506  24.295   2.410 -0.1517  0.2338 -0.1832
    1W        W63075  13.937  16.062   0.542  0.3576  0.3532 -0.0008
    1W        W63076  24.224  23.977   2.055 -0.2970 -0.0101  0.2657
    1W        W63077  20.056  23.190   1.310 -0.1750 -0.1281 -0.2498
    1W        W63078  28.679   0.352   8.279  0.2673  0.1976  0.0227
    1W        W63079  24.267  20.544   8.810  0.0592 -0.0058 -0.2351
    1W        W63080  10.022  28.173   8.380  0.2408  0.0440  0.0061
    1W        W63081  15.569  21.048   1.185  0.0394  0.3048 -0.1470
    1W        W63082  25.551  21.217   9.366 -0.1231 -0.2513  0.1099
    1W        W63083  24.471  18.528   7.799 -0.3506 -0.0492 -0.3153
    1W        W63084  11.001   9.516   0.463  0.2290  0.1138 -0.2507
    1W        W63085   1.026  12.417   7.211 -0.1215  0.0972  0.1761
    1W        W63086   8.815   2.858   0.890 -0.1264  0.0568  0.1241
    1W        W63087  20.647   6.516   1.271 -0.1075  0.2793 -0.1885
    1W        W63088  21.662   7.926   7.418  0.2939 -0.0714 -0.3174
    1W        W63089   7.066  22.545   7.626  0.2290  0.0798  0.1187
    1W        W63090   3.408  18.625   6.390 -0.0319  0.2543 -0.0263
    1W        W63091  22.154  26.409   1.885  0.1963  0.2624 -0.0988
    1W        W63092   2.661   1.943   6.546 -0.1013 -0.0739 -0.1739
    1W        W63093   5.763  20.083   1.473 -0.1071 -0.0862 -0.0829
    1W        W63094  15.952  17.136   2.560 -0.1504 -0.0984 -0.0672
    1W        W63095  19.370   3.924   1.267  0.0475 -0.2758 -0.0231
    1W        W63096  13.014   4.786   1.653  0.0149  0.0802 -0.1297
    1W        W63097  29.425   0.092   7.659  0.1772  0.1404 -0.4275
    1W        W63098   5.174  10.604   6.914 -0.1048  0.2825  0.1490
    1W        W63099   7.345   9.132   7.947  0.0231  0.0598 -0.0168
    1W        W63100   1.546  10.370   7.947  0.1528  0.1636 -0.0910
    1W        W63101  23.146   5.553   7.461 -0.0386  0.1928 -0.1080
    1W        W63102  11.322   5.932   7.852 -0.1416 -0.2520  0.2436
    1W        W63103   4.420   9.932   1.340  0.0585 -0.0763  0.1387
    1W        W63104   1.658   6.437   9.328 -0.0907 -0.2689  0.2068
    1W        W63105   4.756   4.255   0.436 -0.3578  0.0295 -0.0588
    1W        W63106   6.309   6.592   9.228 -0.1477  0.0065  0.0756
    1W        W63107  13.636  26.738   1.590  0.2769 -0.2203 -0.2126
    1W        W63108  10.873   6.171   0.352  0.1330 -0.0664 -0.2142
    1W        W63109  22.436  15.918   9.470 -0.0592  0.0791  0.1252
    1W        W63110  24.071  14.391   2.302  0.3382 -0.1758 -0.1657
    1W        W63111  16.626   2.121   8.093  0.0503  0.1073  0.0732
    1W        W63112   7.934   0.467   6.979 -0.1168 -0.0952 -0.3236
    1W        W63113  13.492  21.807   6.919 -0.1746 -0.0943  0.1331
    1W        W63114   4.209  29.019   6.253  0.0694 -0.1423 -0.0880
    1W        W63115   7.972  16.735   5.987 -0.2336 -0.2756  0.1444
    1W        W63116  11.102  13.010   8.519 -0.0285 -0.2240 -0.0356
    1W        W63117  22.089  16.501   1.767  0.3882  0.0218  0.1148
    1W        W63118  29.592  18.926   1.079  0.1079 -0.0124 -0.0234
    1W        W63119   3.242  14.789   0.378 -0.1326  0.1297 -0.3411
    1W        W63120  27.077  25.449   9.291  0.2178  0.0370 -0.0971
    1W        W63121   0.052   5.238   1.641 -0.0256 -0.3201 -0.0223
    1W        W63122   3.096  22.287   0.742 -0.0867  0.0169 -0.0659
    1W        W63123  10.776  14.348   1.308 -0.1365 -0.2676 -0.0295
    1W        W63124  27.738  23.679   2.279 -0.1799  0.1265  0.3570
    1W        W63125  24.564  27.584   3.323  0.1313 -0.1163 -0.3209
    1W        W63126  29.211  22.902   8.700 -0.2527  0.1509 -0.0264
    1W        W63127  13.667  23.938   1.174 -0.1259 -0.0769  0.1169
    1W        W63128   1.392  15.842   1.732  0.1092  0.2236 -0.0248
    1W        W63129   1.286  29.614   0.190  0.2919 -0.1455  0.1389
    1W        W63130  21.221  21.045   8.559  0.0499  0.0553 -0.3093
    1W        W63131  17.289  17.078   0.589  0.3063 -0.0238  0.0009
    1W        W63132   1.699  14.835   7.572 -0.0322  0.0728 -0.0114
    1W        W63133  18.234  26.607   7.929  0.0272  0.1608  0.2200
    1W        W63134  17.212  15.663   2.065 -0.2598 -0.0692 -0.0685
    1W        W63135  12.045  18.250   5.453 -0.2673  0.0403 -0.1577
    1W        W63136  22.944  13.158   2.284 -0.1598  0.1403  0.2590
    1W        W63137  13.352   3.489   8.904 -0.0585 -0.2527 -0.0337
    1W        W63138   5.150  13.067   8.802  0.2518  0.0616  0.2124
    1W        W63139  22.040   7.623   9.012  0.1766  0.1492  0.0871
    1W        W63140   1.380   2.191   6.109 -0.1475 -0.1830  0.0893
    1W        W63141  25.102   9.684   0.178 -0.0725 -0.3901  0.3096
    1W        W63142   4.240  21.781   2.054  0.2440 -0.4383  0.1457
    1W        W63143   4.317  29.439   8.407  0.0062  0.0489  0.0080
    1W        W63144  18.558  14.494   1.413 -0.1392  0.2555  0.2421
    1W        W63145   3.245  25.530   9.375  0.3364 -0.1499 -0.1400
    1W        W63146  23.664  21.756   7.695 -0.0601  0.2989 -0.2884
    1W        W63147  24.028  26.019   1.992  0.3946  0.0967  0.0543
    1W        W63148   4.736  24.860   7.388  0.1425  0.1833 -0.0530
    1W        W63149   5.025  17.784   8.677 -0.5611 -0.2178  0.2044
    1W        W63150   0.696  12.458   1.748 -0.1045  0.0431  0.0350
    1W        W63151   9.872   1.756   9.467  0.2409  0.1167  0.0544
    1W        W63152  14.458  22.882   1.244  0.0022  0.0978  0.0436
    1W        W63153  10.649  19.200   8.324 -0.1048  0.0798  0.1436
    1W        W63154  18.675   0.119   7.651 -0.1783  0.5641  0.0653
    1W        W63155   7.389   9.962   9.365  0.0188 -0.2789 -0.0136
    1W        W63156  26.498  23.813   8.998 -0.4131 -0.1075 -0.3083
    1W        W63157  11.375   4.177   0.316  0.0325 -0.2771 -0.4506
    1W        W63158  11.114   8.097   3.091 -0.1153  0.1080 -0.2277
    1W        W63159  25.154   7.154   7.906 -0.0393 -0.0505  0.1547
    1W        W63160  19.981   4.445   2.493 -0.0675  0.1016  0.1203
    1W        W63161  10.182  19.722   2.887  0.0961 -0.1033 -0.2533
    1W        W63162  26.841  24.522   2.710  0.2771 -0.3753 -0.1049
    1W        W63163  18.096   7.520   8.100  0.0819 -0.0276  0.3695
    1W        W63164  29.316  17.786   1.305 -0.3663  0.0689 -0.4313
    1W        W63165   3.605  15.072   0.619  0.1859  0.1039 -0.0261
    1W        W63166  17.014   6.830   8.970 -0.1622 -0.1722 -0.0174
    1W        W63167  22.986  22.598   7.868 -0.1600 -0.0270 -0.1093
    1W        W63168  15.843   5.310   1.764  0.4083 -0.2102  0.0933
    1W        W63169  12.941  22.229   1.235 -0.0733  0.1318 -0.0249
    1W        W63170   0.459   2.621   2.166  0.4816  0.1060 -0.2823
    1W        W63171  18.398  10.523   9.460  0.0171  0.0501  0.1178
    1W        W63172   0.759  14.400   0.495 -0.0989  0.0042  0.1073
    1W        W63173  26.086   1.415   8.052 -0.0296  0.0680 -0.1234
    1W        W63174   5.578   4.353   6.080  0.1585 -0.2313 -0.0080
    1W        W63175  23.182  21.782   2.503 -0.0078 -0.0133  0.2649
    1W        W63176   3.279  12.474   1.310  0.1929  0.0416  0.0763
    1W        W63177   4.245  25.891   6.645  0.0295  0.2708  0.0186
    1W        W63178  28.002   6.774   1.705 -0.0806 -0.0268 -0.0168
    1W        W63179   8.214  21.377   9.439  0.1717  0.2966  0.3904
    1W        W63180   3.176  11.416   0.736  0.0994 -0.0042 -0.1122
    1W        W63181  16.693  28.401   9.615 -0.2290 -0.2256 -0.3398
    1W        W63182  12.472   5.897   1.057 -0.0709 -0.1527  0.3707
    1W        W63183   9.314   1.062   7.557  0.0376 -0.2238 -0.3605
    1W        W63184   6.177  19.805   8.635 -0.0498 -0.1817 -0.1253
    1W        W63185  15.683  13.253   7.196  0.1171 -0.1131 -0.1183
    1W        W63186  29.501   1.622   1.464 -0.2845  0.0402  0.1273
    1W        W63187  16.767   6.574   9.391 -0.4661 -0.1216  0.0721
    1W        W63188  13.664  15.754   2.134  0.5603  0.1242 -0.1234
    1W        W63189   5.051   8.410   9.509  0.0851  0.1327 -0.1795
    1W        W63190  16.981  28.680   6.537  0.1194  0.2306 -0.1492
    1W        W63191  24.724  28.289   9.350  0.1349 -0.3104  0.2722
    1W        W63192   2.712   8.520   7.544 -0.0943 -0.1625  0.0550
    1W        W63193  19.907  28.201   1.751 -0.1333 -0.1267 -0.0476
    1W        W63194   5.952  28.303   6.670 -0.1247  0.1271 -0.2794
    1W        W63195   8.937  24.286   8.691  0.4933 -0.2679  0.2150
    1W        W63196   4.485  18.317   0.405  0.0611 -0.0272  0.1704
    1W        W63197   3.230  21.176   2.583  0.1395 -0.0259 -0.1753
    1W        W63198  27.924   8.663   9.569 -0.2046 -0.0517 -0.0497
    1W        W63199  12.224  21.173   6.089  0.0071 -0.2445  0.1987
    1W        W63200  15.302   4.563   7.928  0.0411 -0.1839  0.0197
    1W        W63201   2.657  11.575   0.972  0.2401 -0.0777 -0.0041
    1W        W63202  26.425  21.449   0.679 -0.1159  0.1219  0.0273
    1W        W63203  21.455  27.801   8.508  0.0207  0.0143 -0.0310
    1W        W63204  27.025  14.666   1.585  0.1384  0.2861 -0.0695
    1W        W63205  22.546  24.582   2.656 -0.1167 -0.0453 -0.1814
    1W        W63206  15.916   3.456   6.581 -0.0826 -0.1185 -0.2030
    1W        W63207   7.760  27.117   1.912  0.0877  0.0611 -0.2248
    1W        W63208  11.777  21.905   8.134  0.0672 -0.1474  0.0591
    1W        W63209  18.015  23.982   1.626  0.0202  0.2871 -0.2846
    1W        W63210  21.228   0.968   2.896 -0.0316 -0.1509 -0.2730
    1W        W63211  16.279  10.635   2.386  0.0369  0.0766  0.1493
    1W        W63212  21.960  26.496   0.843  0.2618  0.1933  0.0066
    1W        W63213  15.242  14.718   2.301 -0.1742  0.0889  0.1769
    1W        W63214   9.844  15.489   1.241  0.0925 -0.2594  0.3541
    1W        W63215  20.651   2.919   2.680 -0.1426 -0.0884 -0.4900
    1W        W63216  15.318  20.686   9.601  0.0072 -0.2475  0.1337
    1W        W63217   7.496  14.174   7.205  0.1545  0.3324  0.0126
    1W        W63218  22.760  13.884   1.909  0.0204  0.0266  0.1010
    1W        W63219  26.519  21.190   0.160  0.0257  0.0610 -0.1387
    1W        W63220  11.723  13.064   1.335 -0.3047  0.0638  0.1348
    1W        W63221  18.710  16.731   1.208 -0.1212  0.0298  0.1313
    1W        W63222  23.886   9.840   0.734 -0.3555 -0.1050 -0.0040
    1W        W63223  19.046  14.025   8.207 -0.0240 -0.0697 -0.1704
    1W        W63224  11.486  28.427   1.262  0.4282  0.1355 -0.1283
    1W        W63225  28.417  13.638   7.063  0.1169 -0.1109  0.0463
    1W        W63226  23.616  21.221   7.387  0.2873 -0.1243 -0.1448
    1W        W63227  20.488   9.657   1.997  0.1053 -0.4763  0.0343
    1W        W63228  14.244  13.770   8.923 -0.1586 -0.0716 -0.2066
    1W        W63229  26.669  14.998   2.867 -0.1384  0.0427  0.2597
    1W        W63230   7.920  28.784   9.572 -0.0926  0.5669 -0.5576
    1W        W63231  14.062   4.042   7.530 -0.0151 -0.1260 -0.0152
    1W        W63232  21.447   3.575   2.438  0.0568  0.2593  0.0100
    1W        W63233   5.311  25.530   2.007  0.1484  0.0705  0.1191
    1W        W63234  11.276  24.444   2.484 -0.0802  0.4390  0.0950
    1W        W63235  20.184  28.494   2.148  0.1220 -0.0492  0.0359
    1W        W63236  19.939  11.170   7.062 -0.3710  0.0506  0.0036
    1W        W63237  15.180   0.408   0.934  0.1959  0.0066  0.1457
    1W        W63238  14.459   6.153   8.996 -0.0802 -0.1664  0.5929
    1W        W63239   4.799  19.020   7.379  0.0469 -0.3777 -0.1522
    1W        W63240  28.220  13.810   7.891  0.1176  0.2055 -0.2454
    1W        W63241  26.240   5.586   8.737  0.1582 -0.3380 -0.1402
    1W        W63242  19.485  26.710   9.622 -0.1364  0.1015 -0.0515
    1W        W63243  21.167   0.951   2.379 -0.2088 -0.1189 -0.0028
    1W        W63244  13.323  17.287   8.399 -0.3458 -0.1160  0.1727
    1W        W63245  14.450  27.541   2.356  0.2695 -0.3031  0.4386
    1W        W63246  16.812   1.248   7.085 -0.2637 -0.2979  0.1889
    1W        W63247  17.026  18.030   2.529  0.0809  0.0224 -0.1897
    1W        W63248  27.410   3.210   0.880 -0.1118  0.0330  0.0235
    1W        W63249   9.763  19.523   8.266  0.0048  0.2834  0.0255
    1W        W63250   8.720  11.623   6.336 -0.0204  0.2848  0.2564
    1W        W63251  22.937  22.700   1.712  0.0076  0.2290 -0.1709
    1W        W63252   4.148   8.667   8.064 -0.1503 -0.1640  0.0614
    1W        W63253   8.720  28.580   6.018 -0.0631 -0.1576  0.0363
    1W        W63254  20.078  20.997   0.459 -0.5216 -0.1651  0.0311
    1W        W63255   1.853  12.415   7.303 -0.1651  0.2940  0.0331
    1W        W63256   4.482  26.858   9.042 -0.0167 -0.1284 -0.1283
    1W        W63257  23.971   8.271   1.180 -0.2376 -0.2928  0.0938
    1W        W63258   5.144   7.865   6.909  0.0942  0.4557  0.2585
    1W        W63259   8.034   8.240   0.505 -0.0200  0.2250  0.2087
    1W        W63260   5.272   4.225   6.433 -0.0920  0.2398 -0.1858
    1W        W63261  24.135  24.463   4.464  0.1251  0.0012 -0.0662
    1W        W63262  27.133  13.039   1.819  0.0983 -0.0829 -0.0128
    1W        W63263   7.702  15.148   6.906  0.3282  0.4165 -0.0097
    1W        W63264   5.646  17.260   1.910 -0.2960 -0.1471  0.1893
    1W        W63265  21.569  12.612   1.820 -0.1377 -0.3391  0.6078
    1W        W63266  22.765  24.882   4.506 -0.1556 -0.1602  0.0129
    1W        W63267   0.243   3.716   0.404 -0.1029  0.1678 -0.1076
    1W        W63268  14.552  14.403   6.547 -0.0190 -0.0854  0.2050
    1W        W63269  21.680  27.858   8.940  0.0059 -0.1779  0.2014
    1W        W63270  19.659  21.305   1.859 -0.0782 -0.2089  0.1694
    1W        W63271  23.330  18.386   2.225 -0.1201 -0.1288  0.2941
    1W        W63272  29.156   9.552   8.125  0.1022  0.0130 -0.2290
    1W        W63273  17.662  15.818   1.864 -0.2065  0.0386  0.0814
    1W        W63274  22.201  13.793   1.923 -0.2914 -0.0805 -0.1884
    1W        W63275   8.981  27.583   1.075  0.1665  0.0562  0.0442
    1W        W63276  25.503  17.529   8.487 -0.0301  0.3604 -0.0016
    1W        W63277  28.885  27.235   9.328  0.0868 -0.2147 -0.2756
    1W        W63278  24.799  24.548   7.846  0.0683 -0.0755 -0.2815
    1W        W63279  12.775  25.576   2.504  0.2055  0.2028 -0.0897
    1W        W63280  18.581   9.699   9.600 -0.1508  0.3799  0.2137
    1W        W63281   1.697  22.866   0.864 -0.2799  0.0776  0.0837
    1W        W63282  20.092   0.575   8.370  0.3584 -0.1749 -0.0595
    1W        W63283  29.380  18.254   1.480  0.0125  0.1067  0.1926
    1W        W63284  17.262  21.954   9.128  0.2160 -0.1786  0.0660
    1W        W63285  26.096  15.623   7.373 -0.1647  0.1490  0.1011
    1W        W63286  26.024  20.617   3.429  0.1705  0.2379 -0.1054
    1W        W63287  19.791   4.218   8.081  0.1898  0.0944 -0.1559
    1W        W63288  21.334   1.631   3.472 -0.1853  0.1388  0.0004
    1W        W63289  28.156  16.244   7.316  0.1506 -0.0671  0.1150
    1W        W63290  13.461  23.526   7.900 -0.1040 -0.0504 -0.2517
    1W        W63291   5.134  21.803   0.838  0.1607  0.2662 -0.0067
    1W        W63292  23.495  13.410   2.410 -0.1863  0.1003  0.2507
    1W        W63293  28.309  24.635   6.638 -0.1822 -0.1095 -0.0252
    1W        W63294   4.950   3.443   9.392 -0.3356 -0.2436 -0.0636
    1W        W63295  23.146  24.599   9.649  0.0691 -0.2621 -0.3881
    1W        W63296  27.362   4.854   9.400  0.0508 -0.0904  0.1259
    1W        W63297  24.655   8.640   1.333  0.0689  0.1798 -0.2534
    1W        W63298   8.273  11.163   1.809  0.2473  0.1095 -0.4323
    1W        W63299  23.988  12.937   1.777  0.1357  0.1136 -0.0439
    1W        W63300   0.773  13.544   7.829 -0.0604 -0.0922 -0.3294
    1W        W63301  22.437  17.845   1.142 -0.0820 -0.3398  0.0004
    1W        W63302  13.998  25.856   0.528  0.3055 -0.2152  0.0302
    1W        W63303  18.839  13.272   0.683 -0.1614 -0.2228  0.1528
    1W        W63304  15.441  17.104   0.210 -0.1246  0.1151 -0.0995
    1W        W63305  16.147   1.788   7.193 -0.1088  0.0150 -0.2556
    1W        W63306  26.506  21.460   3.246 -0.1729  0.2833 -0.1713
    1W        W63307  21.713  20.330   3.416 -0.0342  0.0119 -0.0028
    1W        W63308  26.200  28.546   0.930  0.0207  0.0394  0.0138
    1W        W63309  19.250   7.173   0.111  0.1473 -0.3540  0.0558
    1W        W63310  21.183  17.928   7.702 -0.2321 -0.0059 -0.1200
    1W        W63311   7.926   9.232   0.673  0.3386  0.0546 -0.1075
    1W        W63312   0.916   5.913   7.289 -0.1334  0.1310  0.2032
    1W        W63313  15.687  17.188   1.929 -0.1093 -0.2062  0.0407
    1W        W63314   7.618  12.446   1.192  0.0512 -0.0178 -0.3059
    1W        W63315  27.522  23.475   9.455  0.0083  0.1352  0.0647
    1W        W63316  20.067  23.088   4.275  0.0126  0.1786 -0.1019
    1W        W63317  28.818   2.406   7.977  0.3515 -0.0200 -0.0638
    1W        W63318   9.583  22.420   1.566 -0.2084 -0.0629 -0.1155
    1W        W63319  11.366   1.186   8.370 -0.0071 -0.0665  0.1105
    1W        W63320   3.207  18.288   8.827 -0.0299 -0.0566  0.0959
    1W        W63321  24.792  17.891   0.522  0.2319  0.0200 -0.0227
    1W        W63322  27.126  20.155   9.646  0.1954 -0.0229 -0.0345
    1W        W63323   2.846  22.640   1.495 -0.0000  0.1666  0.0659
    1W        W63324  19.090  26.570   7.944 -0.1262  0.1318 -0.3978
    1W        W63325  28.400   4.342   0.524  0.0127  0.2007 -0.0437
    1W        W63326   8.890  14.624   6.222  0.2173 -0.0534 -0.0360
    1W        W63327   0.672   1.304   8.684 -0.0127 -0.2045  0.2340
    1W        W63328  11.611   3.196   9.494 -0.1792  0.2475 -0.2175
    1W        W63329  19.631  22.646   8.733 -0.0015 -0.1702  0.2132
    1W        W63330   3.667   8.859   7.664  0.1623  0.0709  0.1894
    1W        W63331  27.389  27.226   1.485  0.1573  0.0397 -0.1933
    1W        W63332  17.607   1.974   1.955  0.0891  0.0642  0.0017
    1W        W63333  28.358  24.280   1.323  0.1428  0.2041 -0.1297
    1W        W63334  27.438   8.481   8.167 -0.2634  0.3221  0.0522
    1W        W63335  16.514  24.924   7.192 -0.1865  0.1455  0.2938
    1W        W63336  18.987   2.022   9.140 -0.3273 -0.2044 -0.1682
    1W        W63337   8.475   4.665   8.133  0.1437 -0.2878  0.0792
    1W        W63338  28.524   1.902   2.163 -0.1880 -0.0078 -0.1436
    1W        W63339   4.458   3.378   7.247  0.0528  0.1773 -0.0997
    1W        W63340  11.740  17.722   8.748  0.1705  0.3527 -0.0924
    1W        W63341  23.421  24.816   3.962 -0.0974 -0.0658 -0.1755
    1W        W63342  12.413  16.909   2.728  0.0438 -0.3102 -0.3242
    1W        W63343   3.264   6.591   1.973  0.2273  0.2206 -0.4628
    1W        W63344  13.589  16.861   6.063 -0.0471  0.1270  0.2693
    1W        W63345  20.698  19.510   2.219  0.2738  0.0201 -0.1705
    1W        W63346   3.317  29.612   0.210  0.1145 -0.0169 -0.0439
    1W        W63347   2.714  10.936   8.212  0.1081 -0.0876  0.1035
    1W        W63348  22.351  22.509   0.054 -0.0564 -0.3019  0.1713
    1W        W63349  23.688  28.854   2.863  0.2502 -0.4080  0.1586
    1W        W63350   8.020  26.484   6.547 -0.1606 -0.0083  0.0417
    1W        W63351  26.162  26.806   9.639  0.2303  0.2700 -0.1461
    1W        W63352  12.746  18.966   9.394 -0.0130  0.1361  0.2383
    1W        W63353  13.067  18.162   8.929  0.1342  0.0891  0.2016
    1W        W63354   9.193   1.954   0.654 -0.0746  0.2580 -0.0019
    1W        W63355  19.781  20.398   0.572 -0.0539 -0.1116  0.1884
    1W        W63356   2.009  15.866   0.378 -0.1001 -0.0336 -0.4299
    1W        W63357  16.369   7.892   8.491 -0.0459 -0.1548 -0.0124
    1W        W63358  18.406  18.388   9.259 -0.0352 -0.0278  0.0176
    1W        W63359   4.634  25.307   0.882 -0.0899  0.1548 -0.0186
    1W        W63360  17.856  10.627   7.491  0.2273  0.1718 -0.0193
    1W        W63361   7.632  14.340   6.753 -0.3070 -0.2774  0.0924
    1W        W63362   9.573  12.186   7.418  0.1417  0.0681 -0.0139
    1W        W63363   9.348  12.797   8.073 -0.0019  0.1823  0.3703
    1W        W63364  24.185   4.434   1.343 -0.0199 -0.0873  0.3773
    1W        W63365   2.409   2.804   0.299 -0.1277 -0.1199 -0.1141
    1W        W63366  13.729  20.293   0.160 -0.0688  0.0474 -0.0035
    1W        W63367  15.842   7.489   7.159  0.0285  0.0970  0.0455
    1W        W63368  20.088  25.405   1.205 -0.0962  0.1927  0.1338
    1W        W63369  11.865  15.927   7.224 -0.2409  0.2736  0.1383
    1W        W63370  16.947   7.705   8.652 -0.1590 -0.1855 -0.0431
    1W        W63371   0.971  17.283   1.928  0.0670 -0.2235 -0.0394
    1W        W63372  15.887   5.850   6.425  0.5793 -0.0731 -0.0449
    1W        W63373  20.343  17.657   2.950  0.0256  0.0736  0.3331
    1W        W63374  17.987   1.382   7.323 -0.0207  0.0855 -0.1625
    1W        W63375   9.195  21.804   6.984 -0.1718 -0.0323 -0.0128
    1W        W63376  11.324  19.568   9.293  0.0211 -0.0254 -0.1055
    1W        W63377   0.332  27.310   2.722  0.1294  0.2204 -0.1323
    1W        W63378  12.254  12.687   6.106 -0.1022  0.0859  0.1179
    1W        W63379   5.615  16.947   7.381 -0.0493  0.1798 -0.0414
    1W        W63380  26.685  24.949   7.586 -0.0010  0.2118  0.1714
    1W        W63381  23.023  22.378   8.304  0.2727  0.0489  0.3640
    1W        W63382  10.088  13.321   5.877 -0.1998 -0.0983 -0.0553
    1W        W63383  26.816   4.987   9.418 -0.0068  0.0096 -0.3305
    1W        W63384  13.901  22.035   6.519 -0.3606  0.1330  0.1044
    1W        W63385   9.706  25.456   9.162  0.1994 -0.0971  0.0765
    1W        W63386   8.328  12.895   0.244  0.3302  0.1288  0.0233
    1W        W63387   5.297   7.080   9.160 -0.0216  0.0751 -0.1863
    1W        W63388   3.404  24.790   7.843  0.0286 -0.0374  0.1423
    1W        W63389   1.663   7.322   9.598 -0.0088 -0.2039 -0.0176
    1W        W63390  26.543  14.681   2.461 -0.0873  0.3705 -0.1693
    1W        W63391  15.499  19.195   0.740  0.0906  0.0469  0.1649
    1W        W63392   6.752   1.484   6.223 -0.1189  0.0021  0.0497
    1W        W63393  19.420  10.289   1.318 -0.1298 -0.0489  0.3316
    1W        W63394  19.516   1.373   2.583 -0.0501  0.1288  0.1092
    1W        W63395  19.940  12.606   7.894 -0.1382 -0.0104 -0.0803
    1W        W63396  24.000   9.154   7.616 -0.1156  0.0604 -0.1572
    1W        W63397  22.985  14.105   7.869  0.0274 -0.1873 -0.1873
    1W        W63398  26.738  15.175   1.575 -0.3713 -0.1606 -0.3582
    1W        W63399   1.620  23.124   7.621 -0.0803  0.0785 -0.0068
    1W        W63400  17.163  20.282   1.317  0.1546  0.3244  0.1920
    1W        W63401  25.907  17.473   8.821 -0.1040 -0.0675  0.4321
    1W        W63402   1.965  25.550   1.058  0.0114  0.1122 -0.2124
    1W        W63403  19.615  23.513   3.107  0.1584  0.1530  0.0147
    1W        W63404   7.011   5.004   6.807  0.2158 -0.2858 -0.1946
    1W        W63405   6.497  16.838   1.556 -0.3551 -0.2444 -0.1109
    1W        W63406  12.039   3.838   5.999 -0.0404 -0.2932  0.0876
    1W        W63407  23.364  12.611   6.723  0.0871  0.3682 -0.1009
    1W        W63408  17.711   2.263   2.774 -0.1153  0.0550  0.1400
    1W        W63409   8.114   1.418   1.256  0.0269 -0.2323 -0.1346
    1W        W63410   2.777  15.391   2.604 -0.2989  0.0224  0.0254
    1W        W63411  10.352  11.114   1.007 -0.1678  0.2267  0.1581
    1W        W63412   0.135   8.514   8.914 -0.1534  0.0927 -0.0528
    1W        W63413   0.481  25.984   8.105 -0.2177  0.1861 -0.1833
    1W        W63414  12.717  24.158   7.050 -0.3399  0.1566 -0.0638
    1W        W63415   7.537  17.122   0.643 -0.0233 -0.2264  0.0080
    1W        W63416  28.210  20.796   1.212  0.0150  0.3044 -0.2756
    1W        W63417  15.837  21.240   8.582 -0.1659  0.2019 -0.0594
    1W        W63418  27.958  25.117   2.024 -0.0759 -0.3295  0.0532
    1W        W63419  11.911   5.975   0.089  0.0486  0.2867  0.1050
    1W        W63420  16.752  28.167   0.415  0.1087 -0.2677 -0.0121
    1W        W63421  19.107  19.353   6.619 -0.2653  0.1725 -0.3206
    1W        W63422  11.588   6.174   9.433  0.3673 -0.0860  0.3088
    1W        W63423  21.896  26.907   8.196 -0.2298  0.3945 -0.1179
    1W        W63424  18.304   2.878   7.383  0.0254  0.2020  0.1060
    1W        W63425   8.249   4.243   2.376  0.0032 -0.0121  0.1418
    1W        W63426  17.596  27.270   7.754 -0.2698  0.0463  0.0566
    1W        W63427  27.295  11.940   8.527 -0.0739  0.2881  0.0249
    1W        W63428   0.192  20.164   1.984  0.0154 -0.3832 -0.0739
    1W        W63429  20.058  20.079   3.954  0.0686  0.0510 -0.2681
    1W        W63430  15.040  14.996   0.284  0.0340  0.1147  0.2035
    1W        W63431  13.415   0.800   1.123  0.0591  0.3241  0.2028
    1W        W63432  28.138  21.427   8.153  0.0557 -0.1063  0.0555
    1W        W63433  16.293  11.906   0.425 -0.0410 -0.0173 -0.0458
    1W        W63434  19.250   4.035   1.775 -0.0825 -0.2043  0.2081
    1W        W63435   7.426  21.766   0.608 -0.1195  0.0544  0.3494
    1W        W63436   3.076   1.445   0.887 -0.2081  0.0979  0.3607
    1W        W63437  19.071  18.791   1.073 -0.2528 -0.0793  0.3093
    1W        W63438   5.541  26.449   8.047  0.0271 -0.3638 -0.0305
    1W        W63439  15.954  27.649   2.512  0.0406  0.0212 -0.1764
    1W        W63440  26.000  29.043   0.829  0.4183  0.0341  0.0130
    1W        W63441  12.802   4.772   0.166 -0.0359 -0.0192 -0.0663
    1W        W63442  25.189   3.454   1.612  0.2228 -0.0791  0.0776
    1W        W63443   4.626   8.589   8.334 -0.0410 -0.0991  0.0312
    1W        W63444   5.424  20.276   9.028  0.1465 -0.2080  0.2964
    1W        W63445  10.235   6.347   8.966 -0.2434 -0.0219  0.1010
    1W        W63446  23.565  25.314   2.528 -0.3442  0.0901 -0.2780
    1W        W63447  11.760   7.807   1.350 -0.3072 -0.2759 -0.1482
    1W        W63448   0.034   2.427   0.797 -0.0829  0.1960 -0.2984
    1W        W63449   4.505   3.806   2.407 -0.1849 -0.4032 -0.1804
    1W        W63450  22.725  10.081   9.554  0.0053  0.0313  0.2175
    1W        W63451  13.415   0.891   8.760  0.0162 -0.1375 -0.0897
    1W        W63452  22.473  10.984   0.208 -0.1341 -0.0543 -0.0182
    1W        W63453  10.719  26.411   0.626 -0.2072  0.0863  0.0037
    1W        W63454  21.339   5.123   8.112  0.0713  0.0126  0.2779
    1W        W63455  12.467  27.548   2.479  0.1736  0.1239 -0.0936
    1W        W63456   1.027  18.668   0.356 -0.0990  0.0560 -0.2198
    1W        W63457   5.222  22.210   0.466 -0.0308  0.2630  0.2410
    1W        W63458  17.043   4.059   6.994  0.1890 -0.1579  0.1974
    1W        W63459   2.224   6.422   9.203 -0.1174  0.0065 -0.1264
    1W        W63460   7.704  10.484   9.039 -0.0778 -0.0584  0.0633
    1W        W63461   7.315  12.900   1.067 -0.5003  0.1199  0.2819
    1W        W63462   6.707  10.084   9.277  0.0236 -0.0128  0.2186
    1W        W63463   1.774  29.002   6.590 -0.2770 -0.2695 -0.1571
    1W        W63464  14.605  21.526   1.098  0.1634  0.0575  0.0000
    1W        W63465  20.013  27.637   8.961  0.0746 -0.1764 -0.1891
    1W        W63466   3.154   5.119   8.681  0.1240  0.0704 -0.0033
    1W        W63467  15.355  22.134   9.189 -0.0374 -0.0890 -0.1198
    1W        W63468  22.364  28.820   0.535  0.2329 -0.2205 -0.2273
    1W        W63469   7.026   3.887   2.274 -0.1965 -0.3982 -0.1556
    1W        W63470   6.054   3.974   7.998  0.0137  0.5819 -0.1465
    1W        W63471  24.100  12.221   7.713  0.2087  0.0616 -0.0670
    1W        W63472  25.972   2.598   2.556  0.1522 -0.0338  0.2651
    1W        W63473   8.272  18.818   6.851  0.2585  0.0442  0.1598
    1W        W63474   6.136  24.536   9.402  0.1459 -0.2442 -0.1225
    1W        W63475  15.794  11.762   7.114 -0.1611  0.2142  0.0463
    1W        W63476  20.692  19.607   1.766 -0.1090  0.0514  0.0568
    1W        W63477  29.162   1.608   8.268  0.0936  0.3195  0.1043
    1W        W63478  14.650  24.072   2.526 -0.2042  0.2174  0.0978
    1W        W63479  18.494  28.211   2.540 -0.1464  0.0721 -0.0762
    1W        W63480  22.083  18.850   7.003 -0.2356 -0.3233 -0.0859
    1W        W63481  17.541  23.285   9.064 -0.1605  0.1551 -0.2053
    1W        W63482   6.187   5.776   7.482 -0.1924  0.0641 -0.0125
    1W        W63483   0.399  26.671   6.271  0.0520 -0.0223 -0.1088
    1W        W63484   7.206  19.761   1.234  0.0644 -0.0691  0.2150
    1W        W63485   6.155  28.855   8.727  0.3666  0.0146 -0.2127
    1W        W63486   4.992  16.530   2.496  0.2776  0.1400 -0.1652
    1W        W63487  12.815   7.240   0.835  0.2000 -0.3056 -0.1159
    1W        W63488  10.748   5.103   7.266 -0.0931  0.0826  0.0553
    1W        W63489   9.193  23.525   1.904  0.0355 -0.1047 -0.1198
    1W        W63490  11.592  16.451   6.121  0.0359 -0.1357 -0.2583
    1W        W63491  13.199   3.080   7.734  0.3382 -0.0699  0.2601
    1W        W63492  20.778   5.479   0.098 -0.0222  0.2185 -0.0562
    1W        W63493  28.444   4.506   6.608  0.1044  0.0867 -0.2388
    1W        W63494   8.140  22.771   7.102 -0.4189 -0.2726 -0.0432
    1W        W63495  20.711  14.410   1.756  0.2698 -0.0083  0.0541
    1W        W63496  13.530   2.672   2.217 -0.3654  0.2954 -0.2332
    1W        W63497  28.829  11.318   0.590  0.0241  0.1376  0.0004
    1W        W63498  20.929  26.879   2.159  0.2233  0.0289  0.2151
    1W        W63499  11.402   2.870   9.168 -0.0213  0.3343 -0.2489
    1W        W63500  23.502   2.948   2.339 -0.1056  0.0374 -0.0005
    1W        W63501  26.511   5.041   8.012 -0.1522 -0.0477  0.0816
    1W        W63502  13.088   7.330   6.911 -0.0661 -0.0454 -0.0283
    1W        W63503  22.274   8.538   0.911 -0.2422 -0.0914 -0.3246
    1W        W63504   7.545   5.088   1.562 -0.0102 -0.0319  0.0323
    1W        W63505  20.502  25.268   0.389  0.3561 -0.2636 -0.1664
    1W        W63506   9.994   6.180   1.905  0.0752 -0.0349 -0.1220
    1W        W63507  25.571   4.645   8.196  0.1102 -0.0727 -0.2235
    1W        W63508   5.278   9.878   1.090  0.2385  0.2464  0.4910
    1W        W63509   5.750  29.043   8.491  0.3493  0.0086  0.1445
    1W        W63510  25.724  21.011   8.132  0.4157  0.2833  0.0915
    1W        W63511  13.523  20.679   7.934 -0.1957  0.2301  0.1881
    1W        W63512   2.456  18.484   1.088 -0.1421  0.0450 -0.1309
    1W        W63513  22.471  15.740   7.661 -0.3005 -0.1511  0.3169
    1W        W63514   0.641   6.094   8.160  0.0116 -0.0599  0.2927
    1W        W63515   4.769   3.046   8.983  0.0111  0.3261  0.1702
    1W        W63516  13.694  23.204   2.185  0.2425  0.1309 -0.2214
    1W        W63517  11.269  14.123   1.257  0.0393 -0.0916  0.0116
    1W        W63518  15.352  15.971   1.824 -0.0347  0.0778  0.2857
    1W        W63519   3.122  14.315   1.727 -0.0275  0.2842  0.1800
    1W        W63520   1.263  28.329   8.690  0.0350 -0.1313 -0.0926
    1W        W63521  18.358  25.352   2.399  0.2671 -0.3176  0.1637
    1W        W63522   6.980  22.465   0.429  0.0321  0.0617  0.1143
    1W        W63523  11.093  24.055   0.444  0.1014  0.0780  0.1329
    1W        W63524   6.194   6.407   2.014 -0.2148 -0.2152  0.2323
    1W        W63525  13.100  18.226   5.380 -0.1099  0.2319  0.1923
    1W        W63526   1.011  12.383   9.254  0.1703 -0.0977  0.0937
    1W        W63527  26.847   1.436   9.402 -0.2804  0.1079  0.1641
    1W        W63528  13.856   6.353   1.517 -0.2966  0.1612  0.3458
    1W        W63529   0.120  18.444   8.223  0.3495 -0.1543  0.1900
    1W        W63530   4.057  13.524   0.756 -0.0529  0.2871 -0.0344
    1W        W63531   4.600   7.886   7.074  0.0788 -0.0367 -0.0120
    1W        W63532  17.593  17.379   1.996  0.1571  0.1826  0.0663
    1W        W63533   7.113  19.502   7.663 -0.0011 -0.2147  0.0261
    1W        W63534  18.087   9.038   0.208  0.1322  0.0324  0.0103
    1W        W63535  13.702   5.464   7.422 -0.2421  0.1671  0.1192
    1W        W63536   2.534  10.316   7.201  0.2400  0.0788  0.1591
    1W        W63537  16.302  25.886   1.268 -0.1978 -0.0353  0.0620
    1W        W63538   3.165   2.391   1.306  0.5624 -0.1880 -0.0705
    1W        W63539   1.740  25.465   2.608 -0.2359 -0.1103  0.0369
    1W        W63540   6.333  28.446   1.777 -0.0325  0.2437 -0.0983
    1W        W63541  13.079  23.173   6.730 -0.0616  0.0059 -0.1521
    1W        W63542   8.268  16.435   0.745 -0.0339 -0.1543 -0.2589
    1W        W63543   0.542  16.319   8.174  0.1079 -0.2436 -0.0720
    1W        W63544  10.289  17.169   1.340 -0.0071  0.2395  0.2398
    1W        W63545  28.040  20.532   0.229  0.2598  0.1046  0.0953
    1W        W63546   7.981  19.190   2.974 -0.0285 -0.0701 -0.3041
    1W        W63547   1.244   7.692   0.255  0.3063 -0.0189  0.1686
    1W        W63548   9.082  19.196   1.551  0.0119  0.1455  0.0813
    1W        W63549  21.694  25.794   1.477  0.1036  0.0917 -0.1304
    1W        W63550   8.804  14.718   9.339 -0.0945 -0.2345 -0.2718
    1W        W63551   3.632   4.896   0.156  0.1107  0.0593 -0.0578
    1W        W63552   8.718   7.280   0.013 -0.2327  0.0778  0.1204
    1W        W63553  19.799  23.586   7.478  0.0069  0.2393 -0.0629
    1W        W63554  26.689  11.589   7.783 -0.1568  0.3263 -0.1400
    1W        W63555   0.354  17.406   1.242  0.0125  0.0560  0.0664
    1W        W63556  28.315   2.195   9.440  0.0771  0.4538  0.3985
    1W        W63557   7.425  21.216   1.164 -0.1527 -0.1021  0.2700
    1W        W63558  22.310   8.885   1.635  0.1266 -0.2503 -0.0345
    1W        W63559  18.785  17.316   8.020  0.1792 -0.1749 -0.2731
    1W        W63560  25.297  23.748   1.538  0.1764  0.2752  0.2448
    1W        W63561  16.409  27.425   2.623  0.0604  0.1877  0.0956
    1W        W63562  24.409  18.825   0.827 -0.2341  0.1763 -0.0567
    1W        W63563  17.887  11.808   0.963 -0.3118  0.1469  0.1643
    1W        W63564  28.187   6.580   7.286  0.0767 -0.2001 -0.2908
    1W        W63565  13.534   8.600   2.689  0.2989  0.0476  0.0687
    1W        W63566  23.678  22.942   0.808 -0.1446  0.3886 -0.0241
    1W        W63567   7.842  23.540   2.195  0.0236 -0.1889 -0.1084
    1W        W63568  15.317  26.326   8.476  0.4557 -0.2455 -0.0078
    1W        W63569   8.641  29.266   8.533 -0.0477 -0.1075  0.0257
    1W        W63570   7.237  11.054   1.768  0.0646  0.3157  0.0980
    1W        W63571  14.615  13.211   0.300 -0.3132  0.0794  0.0769
    1W        W63572   1.090  19.193   1.859  0.4399  0.1857 -0.0654
    1W        W63573  26.647  22.396   8.216  0.1435  0.1201 -0.1925
    1W        W63574  22.556  23.344   2.814  0.0587 -0.4046 -0.2619
    1W        W63575  16.092  10.834   0.043  0.1304 -0.0256 -0.1727
    1W        W63576  10.629   5.158   6.616  0.0618  0.3624 -0.0440
    1W        W63577   5.625  18.659   0.607  0.1456  0.0695  0.2239
    1W        W63578  28.967  27.242   2.627  0.0329 -0.2718 -0.3177
    1W        W63579   6.109  16.876   9.513  0.1405  0.3264 -0.0100
    1W        W63580   6.315  23.311   9.085 -0.0049 -0.3962 -0.3653
    1W        W63581   3.142  19.880   9.414  0.1087 -0.1890  0.0754
    1W        W63582   2.847  21.395   2.231  0.1794  0.0586  0.3716
    1W        W63583  23.479  19.219   1.851  0.0467 -0.2402 -0.2991
    1W        W63584  13.800   9.514   7.721 -0.1720 -0.1862  0.1243
    1W        W63585   1.298  20.368   7.746  0.2251  0.0322  0.0753
    1W        W63586  23.453  21.621   0.808  0.0951 -0.2373 -0.1597
    1W        W63587  16.624  17.064   1.280  0.1233 -0.1449 -0.2365
    1W        W63588  29.371  14.064   2.020  0.1679 -0.2669 -0.0094
    1W        W63589  12.088   4.150   6.554  0.3442 -0.1576 -0.2068
    1W        W63590   4.026   1.787   7.455  0.1473  0.0368  0.0417
    1W        W63591  23.057  21.890   8.966  0.1120 -0.0808 -0.2805
    1W        W63592  11.156  12.480   8.737  0.2062 -0.1095 -0.0083
    1W        W63593   3.501  10.343   8.159  0.0083 -0.0997 -0.3926
    1W        W63594  20.087   2.297   0.545 -0.1564  0.0971  0.1104
    1W        W63595  21.526  29.450   2.026  0.2507 -0.0505 -0.1145
    1W        W63596  11.636   9.182   7.420  0.2201 -0.1735  0.0418
    1W        W63597  21.977  23.347   0.282  0.0536 -0.4942 -0.1056
    1W        W63598   8.548   4.468   0.650 -0.1923 -0.0366 -0.2864
    1W        W63599   4.489  23.967   7.003  0.0169 -0.1927 -0.0669
    1W        W63600   3.538   4.055   1.712 -0.4076  0.0385  0.1667
    1W        W63601  18.685  18.820   1.377  0.3740  0.2165  0.1451
    1W        W63602  27.653  16.118   8.872  0.4300  0.0614 -0.3134
    1W        W63603  25.357  21.973   7.140  0.1399  0.0958 -0.3435
    1W        W63604  25.722   0.538   8.580  0.2815  0.0920 -0.1680
    1W        W63605  29.473  24.813   2.318  0.0128  0.1778 -0.0587
    1W        W63606  18.696  22.939   3.672  0.1505 -0.0448  0.1664
    1W        W63607   0.194  19.363   7.904  0.0223  0.0575  0.3045
    1W        W63608  15.744  11.520   7.914 -0.2647  0.1898  0.2340
    1W        W63609  13.811  10.239   6.613  0.0072 -0.2673 -0.2240
    1W        W63610  29.582  27.025   3.533  0.3085 -0.1004  0.1684
    1W        W63611   5.949   4.599   0.996  0.0863 -0.2541  0.1081
    1W        W63612   5.759  10.391   5.788 -0.3907  0.2343  0.2039
    1W        W63613  24.810   9.025   2.188 -0.0448 -0.1530  0.2015
    1W        W63614   4.133   3.875   9.601 -0.0229  0.1305  0.1034
    1W        W63615   0.735  10.646   1.194  0.0639  0.2910 -0.1277
    1W        W63616  13.398   8.861   8.166  0.0988 -0.1926  0.1797
    1W        W63617  25.773  11.348   1.456 -0.2180  0.0978 -0.1809
    1W        W63618  10.446  26.254   2.777 -0.0403  0.0291 -0.0492
    1W        W63619  14.483  19.678   0.097  0.1225  0.1111 -0.4036
    1W        W63620   5.524  26.718   1.374  0.1541 -0.1133 -0.0477
    1W        W63621  15.420  24.409   1.992 -0.0452  0.1272 -0.0758
    1W        W63622  20.561   9.451   1.506  0.2167 -0.0702 -0.2839
    1W        W63623  24.950  14.482   9.094 -0.0655 -0.1409  0.0190
    1W        W63624  15.511   2.355   7.626 -0.2863  0.1292 -0.2053
    1W        W63625  14.980  16.228   2.125  0.3153 -0.2119  0.0970
    1W        W63626  17.738   3.107   0.085 -0.1533 -0.2360 -0.0285
    1W        W63627  10.343  25.352   8.407 -0.0119 -0.0424 -0.1743
    1W        W63628  10.360  28.987   1.934  0.1417 -0.0478 -0.2662
    1W        W63629   8.113  16.046   6.546 -0.1806  0.1497 -0.1544
    1W        W63630   7.982   9.779   1.555 -0.2226 -0.0785 -0.0811
    1W        W63631  21.306  22.341   9.096 -0.1155  0.1298 -0.1258
    1W        W63632   9.668  18.504   8.643 -0.2309 -0.3475  0.1741
    1W        W63633  18.262  12.186   1.087 -0.0893 -0.1919 -0.1151
    1W        W63634  21.891  24.634   8.250 -0.4325 -0.2385  0.2258
    1W        W63635  22.121   1.120   9.004  0.1063 -0.0633  0.2451
    1W        W63636  12.878   4.393   2.010 -0.3282 -0.1470 -0.2573
    1W        W63637  28.723  15.746   0.258  0.3221  0.2344 -0.1483
    1W        W63638  12.358  24.893   9.376  0.0114 -0.0868 -0.2806
    1W        W63639   9.611  23.724   9.445  0.1327  0.0132  0.1143
    1W        W63640  24.911   6.329   0.590 -0.0161  0.0470  0.0814
    1W        W63641  17.806   2.591   1.864  0.0107 -0.1465  0.1654
    1W        W63642  26.404   7.520   1.858 -0.0343  0.1566 -0.1419
    1W        W63643  22.095  20.056   1.513  0.3550 -0.1999 -0.2133
    1W        W63644   2.023  26.942   7.438  0.0839 -0.0328 -0.0557
    1W        W63645  18.714  17.510   2.719  0.0856 -0.0454  0.2031
    1W        W63646  15.567   9.954   1.206 -0.2653 -0.1373 -0.1566
    1W        W63647  13.578  15.482   7.379  0.0502  0.1749 -0.2143
    1W        W63648  26.792   4.508   0.485  0.2538 -0.0856  0.0611
    1W        W63649  29.230  12.417   0.782  0.1060  0.1264  0.0531
    1W        W63650  23.322  16.173   2.390 -0.0406  0.0675 -0.2352
    1W        W63651  26.687  16.644   2.175 -0.1378 -0.0010 -0.1821
    1W        W63652   5.915  29.337   8.058  0.2089  0.1090  0.1599
    1W        W63653  21.757   5.441   0.018 -0.2872  0.1315 -0.0609
    1W        W63654   9.411  11.443   2.124  0.1110  0.1905  0.2722
    1W        W63655   8.088  23.489   5.914  0.1081  0.0035  0.1217
    1W        W63656   6.628  17.136   2.776 -0.0169 -0.0937  0.0672
    1W        W63657   2.387  28.729   7.651  0.1298  0.3103 -0.2234
    1W        W63658  24.315   4.601   0.858  0.1322 -0.0090  0.2092
    1W        W63659  25.559  27.667   1.877  0.2375  0.0840  0.2399
    1W        W63660   2.652   2.781   9.449 -0.0268 -0.2057 -0.0669
    1W        W63661  25.062   0.488   8.011  0.2438  0.0236 -0.0913
    1W        W63662  13.730   2.356   9.149 -0.0157  0.0509  0.3778
    1W        W63663  12.986  23.395   7.890  0.1504 -0.2081  0.2740
    1W        W63664  28.015  18.276   8.528  0.1447  0.2064  0.2968
    1W        W63665  29.326  13.662   7.160  0.1046  0.0863 -0.1550
    1W        W63666  17.704   4.896   7.735  0.2809  0.1851  0.2114
    1W        W63667   7.934  10.726   8.657  0.3257  0.0769  0.3121
    1W        W63668  16.649   5.273   8.240 -0.1289  0.0410 -0.1283
    1W        W63669   2.663  29.096   7.663 -0.2247  0.0494  0.1604
    1W        W63670  22.679  10.065   8.040  0.0769  0.0512 -0.0681
    1W        W63671  13.554  16.715   7.713  0.3563  0.0294 -0.1362
    1W        W63672  13.719  11.029   9.444 -0.2753 -0.1752 -0.0109
    1W        W63673   6.714   2.258   8.680  0.0424  0.0754 -0.0249
    1W        W63674   9.952  21.318   9.270 -0.1019 -0.0354 -0.0993
    1W        W63675  23.504  28.292   9.124 -0.3709  0.0317  0.0614
    1W        W63676   6.159   7.798   1.652  0.1976 -0.1470  0.0205
    1W        W63677  12.105  21.692   6.306  0.2779 -0.1501  0.0703
    1W        W63678  14.398  26.790   2.392 -0.1007  0.2992 -0.1221
    1W        W63679   1.940  11.064   0.746  0.0777 -0.1036  0.0065
    1W        W63680  16.008  26.394   9.305  0.0978 -0.1128  0.0378
    1W        W63681  21.084  26.856   1.640  0.0261 -0.0064 -0.3448
    1W        W63682  12.211  10.020   7.728 -0.0842 -0.0583  0.0337
    1W        W63683  16.429   0.853   8.422 -0.0032  0.0674  0.3568
    1W        W63684   3.200  25.035   8.336  0.0810 -0.0542 -0.1593
    1W        W63685  17.291   0.969   7.234  0.0335  0.1998 -0.1948
    1W        W63686   3.896   1.332   1.126  0.0061 -0.0938  0.0840
    1W        W63687   1.289  11.556   0.978  0.0508  0.0905 -0.0889
    1W        W63688  26.530  21.655   2.750 -0.0219  0.4261 -0.1938
    1W        W63689  27.225  25.762   0.035 -0.2692  0.2027 -0.1564
    1W        W63690  24.671  23.106   3.726 -0.2141 -0.3762  0.2716
    1W        W63691  16.070  29.179   7.661 -0.5524 -0.0881  0.1767
    1W        W63692  15.145  16.190   7.604  0.2472  0.1847 -0.0923
    1W        W63693   0.712   0.076   7.369 -0.3566  0.0376  0.0838
    1W        W63694  10.414   1.904   6.750 -0.0968 -0.0655  0.1001
    1W        W63695  10.258   6.753   0.467 -0.2574 -0.0989  0.0926
    1W        W63696   0.520  28.261   8.765  0.0329  0.0324  0.0331
    1W        W63697  14.447   6.045   7.300  0.1445  0.0199  0.1208
    1W        W63698   4.921   9.309   6.114 -0.1226  0.0605  0.0399
    1W        W63699   2.460  18.647   7.381  0.0029 -0.3981  0.0685
    1W        W63700   8.452  15.924   6.960  0.2179 -0.1923 -0.0559
    1W        W63701   1.914  18.869   0.271  0.2424  0.1769  0.0793
    1W        W63702  25.199  20.054   7.836  0.3569  0.0693 -0.1086
    1W        W63703  17.852  20.946   7.126  0.2152  0.1816  0.0182
    1W        W63704  21.093  28.952   1.446 -0.0281  0.1255  0.1933
    1W        W63705   5.557  19.546   6.917  0.0789  0.1298 -0.0257
    1W        W63706   9.426  19.971   8.421  0.3353  0.1851  0.0682
    1W        W63707  14.142   7.005   7.074  0.1597  0.1431 -0.0715
    1W        W63708  15.088   6.017   6.187  0.0956 -0.3869 -0.2038
    1W        W63709  14.028   6.556   8.590 -0.2813 -0.2048  0.0355
    1W        W63710  27.085  12.752   8.088  0.0320  0.1116 -0.0673
    1W        W63711  28.735  17.585   8.001  0.3994 -0.0512  0.0446
    1W        W63712   6.540  24.309   8.051  0.0161 -0.0308  0.0171
    1W        W63713  12.969  18.323   0.302 -0.2915 -0.1082 -0.0247
    1W        W63714  19.855  19.642   6.900  0.3400  0.1997  0.0011
    1W        W63715  23.234   5.958   9.271 -0.0607  0.2078 -0.2341
    1W        W63716   9.614  25.824   7.227 -0.0735 -0.3390 -0.1479
    1W        W63717  25.006  24.399   1.884  0.0605 -0.1595 -0.1021
    1W        W63718  22.072  26.426   1.352 -0.3668  0.1673 -0.2062
    1W        W63719   9.550   4.227   8.662  0.0155  0.2843 -0.0291
    1W        W63720   1.585  20.981   9.416 -0.0671 -0.2379  0.0618
    1W        W63721   3.421   3.834   8.651 -0.1351  0.3723  0.1892
    1W        W63722  13.914   6.348   0.169 -0.1361 -0.4060  0.1413
    1W        W63723  14.342  20.310   2.195  0.0165 -0.0653 -0.1931
    1W        W63724  20.954  23.846   1.228 -0.2202 -0.0047  0.2387
    1W        W63725  10.687   0.734   2.193 -0.0900 -0.0356 -0.1297
    1W        W63726   1.505   8.838   8.564  0.1691  0.3270 -0.0004
    1W        W63727  17.700   3.434   2.980  0.2697 -0.1257 -0.1449
    1W        W63728  20.822  11.938   8.464 -0.0053  0.0984  0.3141
    1W        W63729  15.617  16.931   7.007  0.1657 -0.1806 -0.0590
    1W        W63730   7.019   5.787   1.129  0.3401 -0.0126  0.2547
    1W        W63731  28.347  22.784   8.042  0.3918  0.0985  0.0905
    1W        W63732  17.177  12.521   9.615 -0.2676 -0.2490  0.3048
    1W        W63733   6.675  12.355   6.585  0.1785  0.3095 -0.0501
    1W        W63734   3.050  18.772   8.833  0.2032  0.2184  0.2534
    1W        W63735  17.348  26.717   3.025  0.1945  0.2471 -0.0061
    1W        W63736  12.796  11.112   9.158  0.0757 -0.0853  0.0808
    1W        W63737  27.613  24.201   6.992 -0.3971 -0.2430  0.2237
    1W        W63738  13.891   1.047   2.377  0.0150 -0.1761  0.0649
    1W        W63739  20.179   0.736   1.146  0.2040  0.3116 -0.0531
    1W        W63740  17.927  21.462   2.051  0.0135  0.0872 -0.3538
    1W        W63741   9.359  15.874   8.147 -0.1526  0.1989  0.0540
    1W        W63742  19.222   4.298   8.286  0.3857  0.4044 -0.0249
    1W        W63743  10.321  10.010   2.122 -0.1124 -0.0059 -0.1612
    1W        W63744  27.159   2.107   2.107 -0.3076  0.0619 -0.2484
    1W        W63745  12.416  26.152   1.022 -0.1626 -0.0228  0.0249
    1W        W63746  19.511  20.083   2.935 -0.2903  0.0893 -0.3554
    1W        W63747   9.973  20.023   7.729  0.2469 -0.0303 -0.1586
    1W        W63748  24.705  18.323   3.021  0.1127 -0.1432  0.0543
    1W        W63749   5.279  11.556   7.040  0.1456  0.1302 -0.0544
    1W        W63750   9.036   2.063   8.429 -0.1480  0.1510  0.2575
    1W        W63751  22.266   6.457   8.543 -0.0559 -0.0273 -0.1050
    1W        W63752   3.439   1.138   1.338 -0.0069 -0.2440 -0.0883
    1W        W63753  22.973   1.688   1.492  0.0060  0.1720 -0.0071
    1W        W63754  17.110  12.533   1.239  0.1621 -0.3256  0.0686
    1W        W63755   1.175  26.571   9.294 -0.0797 -0.4073  0.1284
    1W        W63756  11.334  10.350   6.100 -0.0352  0.1915  0.2063
    1W        W63757  17.270  14.897   9.040  0.2547  0.2164  0.0504
    1W        W63758  25.036  19.548   8.088 -0.0475 -0.0055  0.0390
    1W        W63759  11.310  23.937   7.426 -0.0778  0.2054  0.1107
    1W        W63760   8.985   3.158   1.862  0.0671  0.1543  0.2159
    1W        W63761  22.580  23.859   8.199 -0.1242  0.3208 -0.0362
    1W        W63762  21.266  21.540   3.591 -0.3821  0.3071  0.0815
    1W        W63763   7.938  16.343   8.517 -0.1765 -0.0545 -0.1352
    1W        W63764  25.039  12.681   7.428  0.1756  0.1948  0.1185
    1W        W63765  12.338   0.976   2.681  0.4615 -0.2686  0.2255
    1W        W63766   9.836  24.084   8.499  0.0928  0.1747 -0.2138
    1W        W63767  26.132  15.903   6.851  0.0522 -0.2638 -0.3315
    1W        W63768  18.890  10.036   7.789  0.1405 -0.0579  0.0250
    1W        W63769  24.462  24.639   9.574 -0.1082  0.0636  0.1072
    1W        W63770   0.704  11.161   8.506 -0.0790  0.0352  0.1132
    1W        W63771  20.704   4.158   1.484  0.0561 -0.2209 -0.2114
    1W        W63772   1.483  18.112   9.624  0.2150  0.5679  0.0482
    1W        W63773  24.403  22.956   4.152 -0.0517  0.3264 -0.1025
    1W        W63774  20.253   8.774   7.604 -0.4356 -0.1194 -0.1723
    1W        W63775  19.242  16.067   2.356  0.0870 -0.4954 -0.2475
    1W        W63776  19.551   2.264   2.857 -0.2618 -0.2423 -0.0615
    1W        W63777  15.651   7.823   8.337 -0.0461 -0.3004  0.1622
    1W        W63778   4.850  16.484   9.540  0.0538 -0.0530 -0.1508
    1W        W63779  24.032  15.180   1.332 -0.4916  0.0515  0.0302
    1W        W63780  22.863  19.056   8.063  0.0686  0.1631  0.1752
    1W        W63781  20.591  22.783   1.872  0.2437 -0.2027 -0.0867
    1W        W63782  24.144   3.682   2.503 -0.1028  0.0454  0.0226
    1W        W63783  16.286  17.025   0.007  0.1838  0.0221 -0.0426
    1W        W63784  10.814   6.475   5.842 -0.1344  0.2699 -0.0565
    1W        W63785  26.111  13.569   1.760  0.2180  0.1551  0.1569
    1W        W63786   6.428   3.597   7.874 -0.0334  0.0535  0.0094
    1W        W63787  23.216  27.863   1.118  0.0317 -0.1106  0.2658
    1W        W63788  23.824  12.590   2.252  0.1180 -0.1787 -0.0606
    1W        W63789  17.303   4.459   8.358  0.1710 -0.1638 -0.4274
    1W        W63790   6.986  12.157   9.538 -0.1515 -0.1662  0.0512
    1W        W63791  22.463  11.807   7.540 -0.1043 -0.1062  0.0389
    1W        W63792  15.404  26.271   0.900 -0.2741 -0.0906 -0.1801
    1W        W63793   7.852  26.088   7.496 -0.0026  0.0277  0.1993
    1W        W63794   7.846   5.617   5.591 -0.2455 -0.2531 -0.0471
    1W        W63795  15.671   3.670   3.925  0.1059 -0.2792 -0.3129
    1W        W63796   7.179  11.205   5.449  0.3409 -0.1749 -0.1061
    1W        W63797  19.022   1.484   2.350 -0.2010 -0.1523 -0.1295
    1W        W63798   7.024  13.386   6.719  0.1705  0.2189 -0.0613
    1W        W63799  13.103  27.119   8.381  0.1643  0.0977  0.1334
    1W        W63800  25.644  10.671   0.842 -0.0132 -0.2568  0.0763
    1W        W63801  24.954   8.159   0.134  0.0059  0.0512  0.2809
    1W        W63802   2.880  18.435   1.859  0.0838  0.2567  0.1709
    1W        W63803   0.517   0.518   1.917 -0.2135 -0.0720 -0.1945
    1W        W63804  17.731   2.402   8.689 -0.0079 -0.4943  0.0058
    1W        W63805  11.664   4.903   7.598  0.0064  0.0592 -0.1655
    1W        W63806   1.996  14.694   1.081  0.0002  0.4190 -0.0370
    1W        W63807  28.121  23.358   1.777  0.0633 -0.0816  0.1922
    1W        W63808  11.346   0.739   6.846  0.0953 -0.2274  0.0585
    1W        W63809   4.735   5.162   2.539 -0.1006 -0.3031  0.0750
    1W        W63810   0.492  14.871   1.438  0.0755 -0.0805  0.0296
    1W        W63811   7.925  14.690   1.123  0.0018  0.1049 -0.1856
    1W        W63812  26.895  15.482   9.420  0.2918  0.1076 -0.0597
    1W        W63813  21.365  28.829   2.669  0.0304 -0.0485 -0.0070
    1W        W63814   2.753  22.854   1.005  0.0784 -0.1811  0.2681
    1W        W63815  11.726  11.291   6.078  0.1471 -0.1168  0.0689
    1W        W63816   2.865  13.596   8.304  0.2071 -0.1641  0.1110
    1W        W63817  29.568  12.052   0.629 -0.1778 -0.0860  0.0831
    1W        W63818  13.580   4.894   8.526  0.3887  0.0341  0.1298
    1W        W63819  22.314   6.983   1.242  0.1453  0.1041 -0.2072
    1W        W63820  21.390   5.488   2.428  0.2745 -0.3182  0.3791
    1W        W63821   4.303  19.112   8.199 -0.0327  0.0707  0.0201
    1W        W63822   4.042  22.804   8.778 -0.1724  0.2109  0.1648
    1W        W63823  25.429   8.788   1.029 -0.3858 -0.2461  0.2010
    1W        W63824   2.151  17.972   1.807 -0.1547  0.0122  0.2464
    1W        W63825  18.529   4.651   8.539 -0.1185  0.2705  0.2271
    1W        W63826  13.418  18.581   0.226  0.0755 -0.0452 -0.0379
    1W        W63827  24.088   2.514   0.663  0.1415  0.0113  0.0127
    1W        W63828  28.721  21.732   9.414  0.0708 -0.2176 -0.2246
    1W        W63829  10.453  22.468   6.915 -0.1376  0.0953 -0.2058
    1W        W63830  26.592   4.726   7.337  0.1487 -0.0177 -0.0346
    1W        W63831  24.304  10.630   1.668 -0.0593 -0.0344 -0.0162
    1W        W63832   4.711   6.556   0.526  0.3226 -0.1074 -0.1211
    1W        W63833   3.624   4.730   8.215 -0.3024 -0.0483  0.0178
    1W        W63834  12.957   2.468   9.079 -0.0056  0.1007  0.2770
    1W        W63835  26.048  12.287   0.373  0.1360 -0.0265  0.2774
    1W        W63836  16.791  27.414   0.257 -0.2275  0.2492 -0.2900
    1W        W63837  26.610   3.360   9.400  0.1524 -0.2714  0.0522
    1W        W63838   0.938   9.430   7.330 -0.3103  0.0723  0.0600
    1W        W63839   5.907  19.324   1.509  0.1532 -0.1321  0.0748
    1W        W63840   1.135  22.197   2.078  0.2281  0.0979 -0.0749
    1W        W63841   2.699  23.080   8.130 -0.0288  0.1518 -0.2272
    1W        W63842   4.326  22.640   6.991 -0.3567 -0.1619 -0.2991
    1W        W63843   3.801  14.928   7.377 -0.0426  0.0481 -0.1300
    1W        W63844   0.380   5.075   8.688  0.0638  0.2127 -0.1672
    1W        W63845   4.277   3.419   6.117  0.1588 -0.1283 -0.0593
    1W        W63846  10.177  23.130   9.084  0.2933 -0.2214  0.1353
    1W        W63847  16.965  12.384   8.482  0.0933 -0.0629  0.2313
    1W        W63848   7.055  11.276   7.863 -0.0798 -0.0544  0.2517
    1W        W63849  16.870  25.374   2.230 -0.1453 -0.1304  0.0747
    1W        W63850  26.595  11.139   1.850  0.0032  0.2132  0.0222
    1W        W63851  18.276  15.830   8.904 -0.0494 -0.0323  0.0880
    1W        W63852   0.571  15.015   8.963  0.0517 -0.4417  0.0352
    1W        W63853  25.728  23.502   2.462 -0.0016  0.3680 -0.3744
    1W        W63854   6.619  11.653   8.504 -0.2859  0.0506 -0.3770
    1W        W63855   0.669   6.204   8.670  0.1166 -0.2273  0.0113
    1W        W63856   9.034  14.847   6.784  0.0400 -0.1752 -0.0788
    1W        W63857   1.663  27.858   7.483 -0.0793 -0.1399  0.0386
    1W        W63858  11.380   4.131   6.683  0.1292 -0.1463 -0.1839
    1W        W63859  29.446  26.267   1.472 -0.1326 -0.1391  0.0415
    1W        W63860  25.877  20.454   9.468 -0.2753 -0.3040 -0.0659
    1W        W63861  13.040  24.372   8.048  0.3263  0.0837 -0.0575
    1W        W63862  16.792  26.705   2.376 -0.0570  0.0961  0.0907
    1W        W63863  21.760   4.203   8.104 -0.0400  0.1686 -0.1153
    1W        W63864  18.244   2.361   0.687  0.0486 -0.0131 -0.2421
    1W        W63865   6.443  13.157   8.047 -0.0783  0.1922 -0.3085
    1W        W63866  23.466  16.177   1.561  0.1355  0.2739  0.0434
    1W        W63867  28.338  21.205   2.084 -0.1832  0.0191 -0.0518
    1W        W63868  12.245   7.892   0.287 -0.3086  0.0092 -0.2330
    1W        W63869  11.953   0.187   2.722 -0.4384  0.1030 -0.1382
    1W        W63870   6.663   2.344   7.265 -0.2674  0.0075  0.2111
    1W        W63871  26.616   6.248   1.331  0.0010  0.3683 -0.2157
    1W        W63872  15.224  19.026   7.529  0.0709  0.1577  0.2021
    1W        W63873   6.387   8.262   1.771  0.2765 -0.0440 -0.0092
    1W        W63874   7.996  23.394   7.771 -0.1113 -0.0790  0.3500
    1W        W63875   1.771  16.122   8.258  0.0743  0.1611  0.2665
    1W        W63876  15.540  26.762   8.511  0.1384  0.4133  0.0508
    1W        W63877  26.848  16.367   8.456 -0.0221 -0.0519 -0.1576
    1W        W63878   1.197  22.692   1.904 -0.0128  0.2866  0.1450
    1W        W63879   7.088   7.578   8.470 -0.0912 -0.1862  0.0705
    1W        W63880  21.399   1.257   0.913  0.1306 -0.0312  0.0334
    1W        W63881   9.005  12.155   8.422 -0.0517  0.1873 -0.0364
    1W        W63882   1.293   0.052   0.968  0.0686  0.0597  0.0689
    1W        W63883   9.884   2.687   1.237 -0.0342  0.1288 -0.0897
    1W        W63884  25.913  21.101   7.661  0.2134 -0.0225 -0.1288
    1W        W63885  13.188  14.846   0.065  0.1785 -0.1881  0.1475
    1W        W63886   8.846  27.646   1.539 -0.1836  0.1796 -0.0362
    1W        W63887  25.745  15.268   0.270  0.0158  0.1062 -0.0870
    1W        W63888   0.373  27.086   9.451 -0.1387 -0.2198 -0.0943
    1W        W63889   4.548  19.876   6.975  0.0255 -0.3295  0.0402
    1W        W63890  10.092  28.376   9.613 -0.0758 -0.1632  0.0643
    1W        W63891  11.997   5.999   6.204  0.2044  0.0304  0.0914
    1W        W63892   1.102   5.557   8.038  0.3465  0.2855  0.1254
    1W        W63893   1.935  14.748   8.642 -0.1525 -0.1155 -0.2456
    1W        W63894   1.824  29.109   7.267 -0.0663  0.0316  0.0344
    1W        W63895  10.744  15.837   1.190 -0.0845 -0.1689 -0.0995
    1W        W63896  14.712  21.464   8.253  0.2588 -0.1780 -0.1033
    1W        W63897   5.565   6.381   7.608 -0.1571  0.2107  0.0211
    1W        W63898  25.964  22.266   1.598 -0.3202  0.2033 -0.1428
    1W        W63899   3.799  13.524   8.732  0.1807  0.2868 -0.1144
    1W        W63900  27.967   1.886   1.838 -0.1385  0.0299  0.0616
    1W        W63901  13.662  14.541   7.740  0.2404  0.0963 -0.1124
    1W        W63902  14.958  26.081   2.270  0.0570  0.0144  0.0316
    1W        W63903  17.886  11.076   9.262  0.1602 -0.0719  0.1008
    1W        W63904   5.255  20.312   2.524 -0.0724  0.1821 -0.4321
    1W        W63905  22.061  29.036   6.966  0.3922 -0.0088 -0.0585
    1W        W63906   7.139  18.951   1.797 -0.0650 -0.0172 -0.0713
    1W        W63907   5.861  20.857   7.731  0.2488  0.0579  0.2224
    1W        W63908   6.732  12.864   7.790 -0.0910 -0.2214  0.0931
    1W        W63909   2.727  18.994   9.127  0.1674  0.1254 -0.3065
    1W        W63910  21.933   1.124   9.549  0.1546 -0.1213  0.0094
    1W        W63911  23.015  24.433   4.786  0.0094  0.0902 -0.0917
    1W        W63912  24.234  12.501   0.739  0.2095 -0.1398  0.0571
    1W        W63913   1.456   8.856   0.934  0.1594 -0.2120  0.0409
    1W        W63914   6.920  20.277   8.737 -0.0948 -0.0469 -0.5583
    1W        W63915  12.255  24.207   2.330 -0.0987 -0.2441 -0.0478
    1W        W63916   4.213   9.415   1.331  0.2580 -0.1256  0.2770
    1W        W63917  17.169  11.373   9.648  0.0490  0.1682  0.0594
    1W        W63918   3.433  20.583   0.750 -0.1807 -0.0593  0.1466
    1W        W63919  19.432   2.915   3.628 -0.0645 -0.1528 -0.1753
    1W        W63920   9.412  25.498   2.478  0.0208 -0.0607 -0.1042
    1W        W63921   1.394  18.119   0.505 -0.0574 -0.0398  0.1636
    1W        W63922   0.828  20.479   4.326 -0.2465 -0.1479 -0.1534
    1W        W63923  16.861   6.501   1.492 -0.0465 -0.2278  0.1052
    1W        W63924  15.775  14.312   3.131 -0.2160  0.0238  0.2158
    1W        W63925   7.628  18.431   2.400  0.0992  0.0448 -0.0139
    1W        W63926  20.981   1.228   9.247  0.2591 -0.0188 -0.2993
    1W        W63927  13.815   5.318   8.668 -0.1049 -0.0756  0.1642
    1W        W63928  18.814  21.867   2.396  0.0028 -0.0326 -0.2175
    1W        W63929  22.650  28.699   9.317  0.0630 -0.2252 -0.2008
    1W        W63930  27.614  25.835   0.860  0.0468 -0.2052  0.0443
    1W        W63931  21.832  18.851   3.053 -0.1933 -0.2787  0.1743
    1W        W63932   5.924   2.145   7.845 -0.1706  0.1176  0.1716
    1W        W63933  16.798  15.875   1.213 -0.2265 -0.1030 -0.2232
    1W        W63934   0.902  11.324   2.384  0.0746  0.0746  0.3209
    1W        W63935   7.235  13.735   7.296  0.2294 -0.2293 -0.1064
    1W        W63936  20.578   3.728   8.448 -0.0576  0.2541  0.0751
    1W        W63937   4.377  21.681   7.911  0.1077 -0.0522 -0.0320
    1W        W63938   7.528  20.735   2.108  0.1984  0.0024 -0.1169
    1W        W63939  27.770   5.662   1.630 -0.0081 -0.2411 -0.0335
    1W        W63940  19.297   6.108   7.554  0.0434  0.3433 -0.1615
    1W        W63941  26.555   1.069   0.903 -0.1743  0.0386  0.1410
    1W        W63942  29.388  26.987   8.102  0.3706 -0.2665 -0.2109
    1W        W63943  23.451  22.754   9.124  0.1322  0.1397  0.2305
    1W        W63944  10.689  15.367   1.155 -0.2667 -0.2773  0.2847
    1W        W63945  17.208  19.480   6.287  0.0394 -0.0629  0.1529
    1W        W63946  26.754  20.985   7.871  0.0568 -0.0138  0.0214
    1W        W63947  26.133  25.677   1.284  0.2187  0.0178 -0.0433
    1W        W63948  11.455  22.822   2.527  0.2392  0.1975 -0.1845
    1W        W63949  29.319  14.749   0.421 -0.1380  0.2296 -0.0342
    1W        W63950  17.624  26.573   0.747  0.1662  0.1667  0.0460
    1W        W63951  16.329   9.072   2.437 -0.2491  0.0864 -0.0306
    1W        W63952   3.081  24.310   2.325 -0.1504  0.0009 -0.3109
    1W        W63953  21.510   1.556   3.915  0.2115  0.1153  0.0097
    1W        W63954   7.389   5.243   8.420 -0.3632  0.0855  0.1726
    1W        W63955  17.740  26.298   2.959 -0.1131  0.0510 -0.1132
    1W        W63956   3.452  18.052   7.007 -0.1608 -0.1093 -0.0214
    1W        W63957  26.112   8.360   8.370 -0.4524 -0.2393 -0.1293
    1W        W63958   9.151  27.270   6.893  0.1793 -0.0003  0.2890
    1W        W63959  22.590  18.579   2.571 -0.0224 -0.0415  0.2548
    1W        W63960   4.385   5.038   0.916  0.0332  0.1295  0.0074
    1W        W63961  26.697  24.964   0.970  0.5211 -0.1784 -0.1669
    1W        W63962  21.868  22.198   1.343 -0.3585  0.1692  0.0098
    1W        W63963  12.459  14.910   2.927  0.0122  0.0703  0.0081
    1W        W63964   4.003  23.474   1.243 -0.0192 -0.1901 -0.3065
    1W        W63965   0.507   1.021   6.497 -0.4926  0.2806 -0.0769
    1W        W63966   2.338  24.027   6.797  0.3561 -0.2749 -0.0846
    1W        W63967  15.012  18.497   9.224 -0.0998 -0.1127  0.0540
    1W        W63968  28.788  17.499   2.732 -0.1524  0.0253  0.1839
    1W        W63969   2.565  19.101   7.719 -0.2776 -0.0396 -0.0700
    1W        W63970  25.727  19.741   2.458  0.1668  0.1634  0.2736
    1W        W63971   7.806   3.181   9.323 -0.4433 -0.0937  0.1666
    1W        W63972   7.620   2.227   0.389 -0.1999  0.2282 -0.0829
    1W        W63973   0.445  25.847   9.084 -0.1379  0.1971  0.0669
    1W        W63974  23.404   1.868   3.247 -0.1973  0.4292  0.3520
    1W        W63975   0.284  12.618   9.642  0.2408  0.2340  0.0944
    1W        W63976   4.988  23.215   8.053  0.0733 -0.1957  0.1531
    1W        W63977  14.455  28.697   7.815  0.1185 -0.0770 -0.1276
    1W        W63978   9.360  26.484   1.369 -0.0370 -0.0072  0.0760
    1W        W63979  23.606   8.812   7.780  0.0534 -0.4119  0.1225
    1W        W63980   3.728   1.308   6.253  0.0546  0.0937  0.1469
    1W        W63981  25.706  23.263   2.039  0.0740 -0.1258  0.0399
    1W        W63982  26.131   5.727   0.904  0.1428  0.2002  0.3684
    1W        W63983   7.601  25.064   1.109  0.1753  0.0738  0.1133
    1W        W63984  22.978  22.820   7.329 -0.1696 -0.1763 -0.1594
    1W        W63985  17.683  24.953   8.063 -0.1120 -0.3664  0.2326
    1W        W63986   9.110  15.899   6.676  0.0031 -0.0229  0.0318
    1W        W63987   5.647   9.880   6.551 -0.0073 -0.0099  0.1366
    1W        W63988  10.652  21.997   7.016  0.3272 -0.1380  0.1356
    1W        W63989  18.076  16.081   8.548  0.0674  0.2354  0.3077
    1W        W63990   3.266  15.891   7.854 -0.1006  0.0019 -0.2592
    1W        W63991   3.125  12.770   0.238  0.0713 -0.2556  0.1697
    1W        W63992  22.692   2.215   1.647  0.0471 -0.1404  0.1074
    1W        W63993  27.006  19.532   2.702 -0.0689 -0.3732 -0.3760
    1W        W63994  15.048  20.896   8.611 -0.0791  0.2078 -0.1798
    1W        W63995  23.273   2.053   0.633 -0.1679 -0.1143  0.0352
    1W        W63996   5.057  10.328   0.976  0.1918 -0.1652  0.1451
    1W        W63997  23.489  24.298   0.163  0.1974 -0.0778 -0.0704
    1W        W63998  27.712  26.840   8.040  0.2829 -0.1264 -0.1514
    1W        W63999  15.343   0.978   8.569 -0.0092  0.2584 -0.0274
    1W        W64000  14.000  22.796   2.591 -0.0273 -0.0806  0.1272
    1W        W64001   0.624  22.079   2.042  0.0311 -0.2336 -0.1929
    1W        W64002  27.278  16.808   2.184 -0.2101 -0.1421  0.1596
    1W        W64003  17.408  22.304   2.986  0.2433  0.1013 -0.2982
    1W        W64004   4.661  15.147   7.793  0.3513  0.3344 -0.2472
    1W        W64005  14.315  14.111   1.983 -0.3379  0.2303 -0.0693
    1W        W64006   9.226   9.051   9.465 -0.0239  0.3752 -0.1179
    1W        W64007  18.587   1.630   3.594  0.2020  0.1360 -0.2216
    1W        W64008  24.250  25.438   1.357  0.3313 -0.0238  0.1200
    1W        W64009   2.153   5.920   6.647  0.0833 -0.0005  0.3213
    1W        W64010  28.930  20.547   3.538 -0.1527  0.1069 -0.0972
    1W        W64011  10.232  26.002   2.362 -0.0158 -0.2719 -0.2363
    1W        W64012   9.495  14.077   8.337 -0.5054 -0.0888  0.1113
    1W        W64013  28.942   1.670   0.323 -0.2793  0.0250  0.2755
    1W        W64014   0.404  21.041   3.379  0.2302 -0.0658  0.3835
    1W        W64015   0.813  14.317   6.918 -0.0728 -0.0867 -0.0072
    1W        W64016  24.868   2.553   9.611 -0.0552  0.0552  0.0839
    1W        W64017   3.998  21.288   0.585 -0.1155  0.2570 -0.2911
    1W        W64018   1.639   6.588   0.908  0.3266 -0.0150  0.1918
    1W        W64019  26.928  28.421   2.770 -0.3569  0.2987  0.1218
    1W        W64020   9.411  26.904   6.556 -0.2515  0.2771  0.3786
    1W        W64021  28.665   4.422   8.303  0.3010  0.2740  0.1706
    1W        W64022  26.471  13.239   1.569 -0.3127  0.3096  0.1096
    1W        W64023   9.696   2.792   8.035  0.0778  0.1828 -0.1397
    1W        W64024   5.849   4.764   9.023  0.0182  0.0292  0.0477
    1W        W64025   1.495   6.082   1.231 -0.2715 -0.2469  0.0637
    1W        W64026  22.785   0.339   2.062  0.2887  0.2129  0.4572
    1W        W64027  22.607  24.176   0.535 -0.1487 -0.1977 -0.1631
    1W        W64028  17.847   5.334   8.024  0.1066 -0.1365 -0.1770
    1W        W64029   5.472  22.729   7.368 -0.1692  0.1407 -0.3111
    1W        W64030  18.353  14.395   9.584  0.2150 -0.2782  0.2685
    1W        W64031   6.948  14.677   1.448 -0.1814  0.1966  0.0392
    1W        W64032   0.905  10.442   7.695 -0.3386  0.4241 -0.2101
    1W        W64033   7.148   6.539   1.177  0.2322 -0.1008  0.1549
    1W        W64034  19.205   6.889   7.560 -0.0139  0.0687 -0.1277
    1W        W64035  19.884   0.234   2.454 -0.4513 -0.0244  0.1766
    1W        W64036  24.079  27.314   8.052  0.4751 -0.1540 -0.1502
    1W        W64037  20.465  15.436   8.718 -0.1180 -0.0390  0.0249
    1W        W64038  21.089   3.311   0.260 -0.1394  0.1049  0.0530
    1W        W64039  27.277  11.026   0.847 -0.1990  0.0319 -0.3924
    1W        W64040  27.563   5.638   8.439 -0.2181 -0.1747 -0.2460
    1W        W64041   9.662  24.461   1.422 -0.2791  0.1437 -0.1149
    1W        W64042  25.219  26.646   0.306 -0.0298  0.1436 -0.2571
    1W        W64043  20.889   1.102   1.729 -0.0737 -0.1034  0.0804
    1W        W64044  19.348  21.327   8.235 -0.0788 -0.1859 -0.3726
    1W        W64045  17.918   9.052   9.366  0.0468  0.1632  0.0413
    1W        W64046  26.791   2.544   0.713 -0.1154  0.3291  0.1436
    1W        W64047   8.611  16.349   7.219 -0.0150  0.1289 -0.1255
    1W        W64048   8.754   9.544   7.222 -0.0306  0.3189 -0.0100
    1W        W64049  13.542   6.413   7.809  0.0185 -0.2010  0.2078
    1W        W64050   4.748  24.004   8.820 -0.0982 -0.0000 -0.0155
    1W        W64051   7.602  24.494   6.973  0.0882 -0.0135  0.1148
    1W        W64052   4.058  25.307   0.660  0.1010  0.1253  0.0969
    1W        W64053  21.394   7.343   9.099 -0.3303 -0.1539  0.0323
    1W        W64054  16.885   3.816   7.847 -0.2015  0.0856  0.2144
    1W        W64055  28.000  19.205   7.312 -0.0587  0.1752 -0.1757
    1W        W64056   6.468   1.835   7.279 -0.2512  0.0360  0.2404
    1W        W64057  22.338  22.617   9.180  0.0157  0.1710  0.1770
    1W        W64058  21.471   4.140   2.359 -0.0334  0.0902  0.0923
    1W        W64059  14.335   4.571   0.119  0.0475 -0.1802 -0.2806
    1W        W64060   6.576  16.318   6.743 -0.2307 -0.0662  0.1976
    1W        W64061   1.666  19.769   2.325  0.0356  0.0449  0.0155
    1W        W64062   8.961   1.452   0.825 -0.0896 -0.1451 -0.2292
    1W        W64063  26.200  25.253   1.697  0.0461  0.2287  0.1711
    1W        W64064   5.906  26.157   8.297  0.0435  0.2271  0.1612
    1W        W64065   5.747  17.995   7.472 -0.1898  0.1241 -0.1335
    1W        W64066   9.100  20.982   9.449 -0.1609 -0.4741  0.1280
    1W        W64067  21.887   5.072   8.571 -0.0055  0.0124 -0.2549
    1W        W64068  20.242  17.001   1.176  0.0026  0.1861 -0.0989
    1W        W64069  12.657   4.267   0.188 -0.2913 -0.2204 -0.3799
    1W        W64070  11.608  12.813   1.815  0.0248  0.0873 -0.2089
    1W        W64071  24.297   8.595   7.730 -0.0119  0.2107  0.2687
    1W        W64072   0.010  27.205   0.780 -0.3209  0.0828 -0.5986
    1W        W64073  12.623   4.441   7.432  0.0015 -0.0956 -0.0462
    1W        W64074  26.398   7.823   1.157  0.1566 -0.0480 -0.0908
    1W        W64075  11.224  26.110   2.522  0.4425 -0.2006 -0.4471
    1W        W64076  22.033  13.665   8.313 -0.3058  0.2457  0.0521
    1W        W64077  24.928   9.135   8.082 -0.0594 -0.1517 -0.0298
    1W        W64078  15.475   3.309   1.593 -0.1981  0.0031 -0.1204
    1W        W64079  22.483   0.487   3.442  0.0636 -0.2705  0.0213
    1W        W64080   8.702  17.606   1.968 -0.1562  0.1014 -0.3260
    1W        W64081   7.590  11.271   7.813  0.3169  0.2925  0.1257
    1W        W64082  28.360   3.304   8.081 -0.0921  0.2915 -0.0563
    1W        W64083  18.999  13.138   1.924 -0.0857  0.1372 -0.0779
    1W        W64084  18.549  20.517   6.374 -0.2676  0.0100  0.1210
    1W        W64085  23.792  27.460   0.534  0.2508  0.1956  0.1452
    1W        W64086   3.381  11.481   1.224 -0.1492 -0.2641  0.2419
    1W        W64087   6.366   9.853   6.388  0.3092  0.1563  0.1712
    1W        W64088  23.901   6.431   8.057  0.2050  0.0894  0.1786
    1W        W64089   4.443  24.933   9.626 -0.5064  0.1495  0.2534
    1W        W64090  17.378   6.126   7.095 -0.1936  0.3347  0.1173
    1W        W64091   2.742  14.231   8.944 -0.0559 -0.2540 -0.1485
    1W        W64092  26.123  11.913   8.443 -0.2597  0.4684  0.0542
    1W        W64093   5.434  19.227   1.393 -0.3517 -0.0821 -0.3393
    1W        W64094  28.677   0.387   1.792 -0.1992 -0.0876 -0.1237
    1W        W64095  20.910  17.854   8.259 -0.3618  0.3242 -0.0940
    1W        W64096  17.583  29.463   1.855  0.0530 -0.1812  0.2731
    1W        W64097  12.980  18.078   7.294  0.0288 -0.0285  0.3357
    1W        W64098   1.276  13.104   8.603  0.0635  0.0236 -0.2334
    1W        W64099  22.094  13.045   3.016 -0.1107  0.2409 -0.4148
    1W        W64100  14.662   6.661   1.000 -0.5119 -0.2047  0.2980
    1W        W64101  18.763  10.446   2.088  0.2354  0.0967 -0.2088
    1W        W64102  28.172   6.270   0.718  0.0031  0.1583 -0.1084
    1W        W64103  24.113  12.179   1.471 -0.3122  0.0471 -0.1187
    1W        W64104  14.427  22.143   6.783  0.2784 -0.0695 -0.2482
    1W        W64105  24.832  14.166   7.784 -0.0750  0.1653 -0.0750
    1W        W64106  28.454  18.440   8.834  0.2556  0.2834  0.2133
    1W        W64107  20.498  24.368   0.225 -0.0962  0.1920 -0.3309
    1W        W64108  17.305  18.638   7.209 -0.2489  0.1968 -0.1108
    1W        W64109  18.377   5.645   1.045  0.2705  0.1580 -0.3307
    1W        W64110  24.057  27.038   1.328  0.2005  0.0852 -0.0264
    1W        W64111  25.316  28.568   8.478  0.0648  0.4492 -0.1429
    1W        W64112  22.004   1.227   2.947  0.0826  0.2442 -0.0582
    1W        W64113   4.309  11.303   1.026  0.4487  0.0217  0.1334
    1W        W64114  11.926  19.856   9.500  0.0682  0.0096 -0.0307
    1W        W64115  10.850  26.156   6.757 -0.1842  0.1918 -0.0167
    1W        W64116  25.674  18.303   7.850 -0.0207  0.1596 -0.2399
    1W        W64117   4.697   3.296   2.319  0.0727 -0.1064 -0.0260
    1W        W64118  23.197   3.673   8.901 -0.1709 -0.3483  0.0932
    1W        W64119  20.301  16.801   9.484  0.2123 -0.1376  0.1302
    1W        W64120  25.883  10.933   0.445 -0.1108 -0.4103  0.2143
    1W        W64121   0.526  29.239   1.063  0.3639  0.0690  0.1549
    1W        W64122   6.365   9.993   5.413 -0.0815 -0.1710  0.0495
    1W        W64123   9.906  12.745   8.097 -0.0504 -0.0444 -0.2760
    1W        W64124  28.705  23.616   3.186 -0.2627  0.0562 -0.2726
    1W        W64125  12.273   4.749   7.750 -0.2556 -0.3473  0.1258
    1W        W64126  26.123   8.717   7.614  0.0832 -0.0945 -0.0797
    1W        W64127   7.940  22.173   6.583  0.0557  0.0464  0.4199
    1W        W64128  10.835   5.683   2.031  0.0686 -0.1084  0.1216
    1W        W64129  18.704  19.182   6.794  0.1496 -0.2034  0.1686
    1W        W64130  15.100  27.721   8.984 -0.0280  0.1010 -0.2392
    1W        W64131  26.559  12.533   7.468 -0.0696 -0.3951 -0.0460
    1W        W64132   2.606   5.130   8.969  0.1766 -0.0227  0.0753
    1W        W64133  23.655  21.773   3.570 -0.0944  0.2380 -0.2452
    1W        W64134   8.627   5.845   9.016  0.0524 -0.1364  0.1092
    1W        W64135  15.081   7.817   9.172 -0.0559  0.3257  0.0239
    1W        W64136  12.527  17.837   7.627  0.1782 -0.1166  0.0685
    1W        W64137  15.355   5.629   2.412  0.1000 -0.3447 -0.1135
    1W        W64138  29.149  27.264   8.450 -0.0287  0.2313  0.0786
    1W        W64139   5.930  23.824   0.361  0.0613 -0.3310  0.1479
    1W        W64140   3.254  23.900   2.138  0.1334 -0.0207  0.1087
    1W        W64141  12.625   4.884   8.510 -0.2743  0.2689 -0.0846
    1W        W64142   3.523   6.596   8.736  0.2018  0.1240  0.0203
    1W        W64143  10.554  19.260   1.509 -0.0390  0.0686  0.1567
    1W        W64144   6.188   5.163   2.689 -0.1940 -0.1560  0.4033
    1W        W64145  25.637  18.652   2.579  0.0283 -0.0763  0.2111
    1W        W64146  26.988   9.954   7.992 -0.3679  0.0320  0.1356
    1W        W64147   4.902   9.782   0.734 -0.1126  0.0592 -0.1551
    1W        W64148  14.779  21.262   8.812  0.1344  0.0163 -0.2673
    1W        W64149  18.496   5.732   2.826 -0.0056 -0.3276 -0.2103
    1W        W64150   7.811   7.181   6.920  0.0168  0.0375  0.2186
    1W        W64151   7.565  15.908   9.376 -0.5876 -0.0736  0.1426
    1W        W64152   5.222   5.555   5.959 -0.1209 -0.0951  0.1249
    1W        W64153  19.133  22.963   8.910 -0.0334 -0.1959  0.1815
    1W        W64154   8.661  12.190   7.867 -0.1897 -0.1891 -0.2305
    1W        W64155  15.248   1.268   9.404 -0.0630 -0.0913 -0.0543
    1W        W64156  19.287  20.449   0.523 -0.0424 -0.2543 -0.0227
    1W        W64157   1.957  12.851   8.940  0.0362 -0.1354  0.2480
    1W        W64158  22.391  26.928   3.959  0.0231  0.2770  0.1418
    1W        W64159   5.571   8.231   0.464 -0.0713 -0.2238 -0.1630
    1W        W64160  25.140  26.299   7.093 -0.3228 -0.1591  0.0927
    1W        W64161  12.215  25.496   7.205 -0.0414 -0.1813  0.2270
    1W        W64162   6.425  19.686   2.108  0.0550 -0.0004 -0.2902
    1W        W64163   0.453  17.579   7.248 -0.0560 -0.0764  0.0416
    1W        W64164  27.882   5.325   1.957  0.0910  0.2760  0.4698
    1W        W64165   7.560  25.148   2.285 -0.2974  0.2273  0.0917
    1W        W64166  13.391  20.604   7.006  0.0383 -0.2923  0.2479
    1W        W64167  15.115   2.242   8.516  0.0671 -0.2191 -0.0483
    1W        W64168   7.717  16.696   0.903 -0.1512 -0.0861 -0.1390
    1W        W64169  19.733   1.904   1.281 -0.0161  0.0821 -0.1478
    1W        W64170  20.625  21.172   8.603 -0.1763  0.0108 -0.1236
    1W        W64171  28.783  29.447   0.084 -0.2405  0.0915 -0.0822
    1W        W64172   5.383  15.390   9.100 -0.0241  0.0372  0.2519
    1W        W64173  11.159  25.478   7.632 -0.1008  0.3642 -0.3231
    1W        W64174  29.180   3.931   7.501  0.1447  0.1403 -0.0585
    1W        W64175   6.390  21.496   2.374 -0.0836  0.1745  0.4317
    1W        W64176   5.228  16.632   0.909  0.1282  0.0989  0.0596
    1W        W64177   9.022  16.351   6.870  0.2689  0.1835  0.3475
    1W        W64178  23.764  16.234   2.743  0.1506 -0.0416 -0.2293
    1W        W64179  20.619  19.978   2.966  0.0892  0.0869 -0.0597
    1W        W64180  28.619  24.237   6.403  0.0483 -0.1821  0.1920
    1W        W64181  16.474  17.701   8.995 -0.0384  0.3531 -0.2341
    1W        W64182   1.004   7.392   0.590  0.1494  0.0613 -0.1314
    1W        W64183  20.126  19.348   1.126 -0.2351  0.2408 -0.1061
    1W        W64184  28.087  15.220   9.433 -0.1921 -0.1189  0.0154
    1W        W64185   1.948   0.207   1.628 -0.2166 -0.1678 -0.1613
    1W        W64186  14.046   1.529   9.526 -0.3141 -0.1333 -0.1629
    1W        W64187  18.120   6.127   8.113  0.0118 -0.3571  0.0960
    1W        W64188   5.839  17.870   7.973  0.1418 -0.1098 -0.2145
    1W        W64189   2.236  17.321   8.524  0.1370 -0.0395 -0.2984
    1W        W64190  12.297  24.918   7.072 -0.2984 -0.4250 -0.1895
    1W        W64191  18.605   5.022   1.774  0.0208 -0.2464 -0.3771
    1W        W64192  13.466   7.514   1.834 -0.1763 -0.1690  0.0152
    1W        W64193   7.725  11.053   9.058 -0.2103  0.2587 -0.1084
    1W        W64194  15.026  20.363   6.758  0.1308  0.1569 -0.0044
    1W        W64195  27.869  10.269   7.511 -0.2438 -0.3159 -0.1835
    1W        W64196  18.739   6.528   8.664  0.1922  0.1818  0.1546
    1W        W64197  17.963  20.867   9.493  0.4038  0.2345  0.0482
    1W        W64198   2.669   9.009   7.488  0.0991 -0.0161 -0.3042
    1W        W64199  14.165   0.788   6.687 -0.1669 -0.1153  0.0180
    1W        W64200   2.264   2.305   1.648  0.0941  0.1816  0.0601
    1W        W64201  13.848   3.544   7.438 -0.1358 -0.0106 -0.1807
    1W        W64202   6.212  18.236   0.490  0.0650  0.0919  0.0533
    1W        W64203   0.272  29.252   7.431 -0.0148 -0.1809  0.0114
    1W        W64204   2.615  16.383   2.271  0.2416 -0.3925 -0.0359
    1W        W64205   6.514   6.348   7.873  0.1978  0.0514  0.1664
    1W        W64206  23.272  18.186   7.660 -0.1834  0.1601 -0.1955
    1W        W64207  10.488   8.137   8.289 -0.0226  0.1499 -0.0167
    1W        W64208  12.643   3.229   1.798  0.0361 -0.0843 -0.1423
    1W        W64209   8.320  17.298   2.128 -0.1869  0.0302 -0.0312
    1W        W64210  22.028   3.576   0.501  0.0029 -0.0495  0.1588
    1W        W64211   0.030  11.260   6.959 -0.4346 -0.2268  0.0313
    1W        W64212  15.123  16.820   8.231  0.0262  0.2133 -0.1211
    1W        W64213   2.393  18.425   2.027  0.1205  0.2062 -0.0932
    1W        W64214  12.300   5.453   1.239  0.0280  0.2060  0.3571
    1W        W64215  17.976   3.968   7.991 -0.0618 -0.0058 -0.2628
    1W        W64216   8.455   3.797   2.197 -0.1498 -0.2939 -0.0111
    1W        W64217  28.038   4.433   0.152 -0.4479 -0.0477  0.0463
    1W        W64218   9.917  27.649   2.314 -0.3578  0.2248  0.0559
    1W        W64219  22.202   2.173   8.961 -0.0624 -0.1065 -0.0298
    1W        W64220  19.177  23.737   0.567  0.4501 -0.0388 -0.0414
    1W        W64221   7.259   2.257   0.967  0.1095 -0.1518  0.1478
    1W        W64222   8.803  26.764   8.033  0.0496 -0.0266  0.1977
    1W        W64223  20.237   2.446   9.247 -0.3059  0.2822  0.1510
    1W        W64224   3.587  19.226   2.515  0.0284 -0.0680 -0.0191
    1W        W64225  25.860   0.959   3.703  0.0098  0.0321  0.3238
    1W        W64226   0.879   7.800   6.210  0.1274 -0.2805  0.0064
    1W        W64227   9.113  18.228   2.639  0.1491  0.0429  0.0046
    1W        W64228   0.525  15.962   0.519  0.1069  0.1637 -0.2291
    1W        W64229  12.106  15.441   0.327 -0.3926  0.2951 -0.0837
    1W        W64230  22.895   9.171   1.001  0.1508 -0.2721  0.0687
    1W        W64231   4.818   4.625   7.216  0.0014  0.1563 -0.0872
    1W        W64232  18.615  29.310   2.454  0.2554  0.0656  0.1544
    1W        W64233  20.675  25.036   2.441  0.2729  0.2083  0.1458
    1W        W64234  13.827  13.059   1.308 -0.0068 -0.2694 -0.0918
    1W        W64235   9.526  26.939   7.084 -0.0058  0.1734 -0.1344
    1W        W64236   5.329   7.522   2.086 -0.0694  0.1664 -0.3489
    1W        W64237  15.113  24.236   0.294  0.0354  0.1059  0.2672
    1W        W64238  24.574   3.901   2.883 -0.0351  0.1134  0.1260
    1W        W64239   0.806  28.797   3.249  0.3158 -0.2433 -0.2835
    1W        W64240  10.842  23.682   7.051  0.1216 -0.2853  0.1268
    1W        W64241  10.901  13.212   9.364 -0.0186 -0.1582 -0.2870
    1W        W64242  21.025  14.765   0.451  0.1394 -0.1779  0.0003
    1W        W64243  21.050   6.874   8.492 -0.1508 -0.0694 -0.0680
    1W        W64244   5.483   2.908   7.796 -0.2428  0.3384  0.1937
    1W        W64245  17.751   4.088   0.256 -0.0619  0.3465 -0.3112
    1W        W64246  20.334  15.194   9.409 -0.0291  0.4594  0.2147
    1W        W64247  29.215  25.915   0.455  0.2009  0.0369  0.0785
    1W        W64248  11.082   0.887   2.471 -0.2209 -0.2029 -0.2088
    1W        W64249  12.845  26.828   7.260  0.0061  0.0829 -0.0570
    1W        W64250  15.533  18.987   1.585 -0.1843  0.3481 -0.1648
    1W        W64251   6.559  17.427   7.280  0.0266 -0.1214 -0.0643
    1W        W64252   7.788   0.650   1.052  0.2247 -0.1153  0.1766
    1W        W64253   1.093   9.067   7.628 -0.0878 -0.0381 -0.1194
    1W        W64254   2.748   9.711   8.388 -0.1600 -0.0147 -0.1614
    1W        W64255   0.990  18.754   3.133 -0.0588 -0.0461 -0.0030
    1W        W64256   7.422  17.560   0.891  0.0127  0.1241  0.0870
    1W        W64257  21.047  15.984   1.843 -0.0667  0.1121 -0.3395
    1W        W64258   1.607  24.328   9.254  0.1591 -0.1386  0.0945
    1W        W64259  18.746  15.275   0.076  0.1009  0.1894 -0.2516
    1W        W64260  16.493  29.515   1.759  0.0399  0.0677  0.1171
    1W        W64261  14.906  28.093   2.080  0.2051 -0.2502  0.1174
    1W        W64262   9.861   0.204   1.158  0.1765  0.2006  0.2947
    1W        W64263  24.279  27.122   8.476 -0.3461  0.0584 -0.3078
    1W        W64264  17.341   3.111   6.553 -0.0015 -0.1759  0.4627
    1W        W64265   3.164  12.849   7.020 -0.3070 -0.2316 -0.0091
    1W        W64266  12.879   9.818   6.829 -0.0732  0.1913 -0.0036
    1W        W64267  26.783   9.308   8.011  0.0203 -0.3306  0.0643
    1W        W64268   5.413  16.503   6.836  0.1420  0.0013 -0.2210
    1W        W64269   9.671  19.976   7.234 -0.1052  0.0515  0.0379
    1W        W64270  28.888  24.776   9.593 -0.0454  0.3890  0.2084
    1W        W64271  28.179  21.436   9.550  0.0004  0.0286  0.0609
    1W        W64272   7.638   7.020   7.430 -0.0738 -0.3273  0.0249
    1W        W64273  27.468  25.305   2.837 -0.0662  0.1479 -0.4935
    1W        W64274   9.099  23.942   7.709 -0.1736  0.1307 -0.1756
    1W        W64275   1.651  12.016   7.520  0.1414  0.1150  0.0391
    1W        W64276   7.671  18.370   8.269  0.0252 -0.0660 -0.2395
    1W        W64277   3.651   8.414   7.815  0.2653  0.0519 -0.0417
    1W        W64278  19.276  16.292   0.680  0.1091  0.2825 -0.1305
    1W        W64279  19.352  25.388   2.129 -0.0569  0.1317 -0.3209
    1W        W64280   8.275  26.416   7.197  0.1003 -0.1081  0.0012
    1W        W64281  18.162  15.869   1.035  0.0785  0.0266  0.0449
    1W        W64282  19.545  20.346   0.100 -0.1113 -0.1022  0.1856
    1W        W64283   9.375   9.562   6.084  0.0997 -0.2430 -0.1059
    1W        W64284  26.437  11.499   0.256 -0.0812  0.1527  0.0770
    1W        W64285  20.009  15.093   1.281  0.0067  0.2179 -0.1134
    1W        W64286   9.537  21.011   2.638  0.0061  0.0180 -0.0718
    1W        W64287  16.527  10.305   8.573 -0.3369  0.3855 -0.2849
    1W        W64288  19.482  22.346   2.058 -0.0690 -0.0897  0.0649
    1W        W64289  11.904  25.257   9.436  0.0435 -0.0506 -0.4240
    1W        W64290  13.456  24.020   0.333 -0.3347  0.1684 -0.0803
    1W        W64291   9.730   7.162   8.746  0.3273 -0.1079 -0.0952
    1W        W64292  16.566  15.373   8.997 -0.2004  0.2161 -0.0307
    1W        W64293  24.881  26.789   9.599 -0.0825 -0.1170 -0.2054
    1W        W64294   2.219  25.549   2.863 -0.3123  0.5464  0.0475
    1W        W64295  12.666  16.851   7.894 -0.1813 -0.0367  0.0292
    1W        W64296  22.658   0.118   7.577 -0.0758  0.0350  0.1990
    1W        W64297  21.116   4.903   1.701  0.4011 -0.1293 -0.0486
    1W        W64298  29.370   1.190   2.782 -0.2977  0.0318 -0.1564
    1W        W64299   1.471  21.512   1.948  0.1311 -0.1653  0.2655
    1W        W64300   1.589   1.708   1.048  0.1070 -0.0514 -0.1198
    1W        W64301  28.625   9.190   0.456  0.0336  0.2408 -0.1678
    1W        W64302  12.265   6.180   1.772 -0.0553  0.2924  0.0254
    1W        W64303  26.728   1.903   1.372  0.3626 -0.0617 -0.0573
    1W        W64304  16.542   2.433   7.597 -0.0029 -0.2386 -0.2697
    1W        W64305   3.788  29.293   8.085 -0.1173 -0.2407  0.2855
    1W        W64306   0.303   3.252   0.187 -0.0707 -0.1015 -0.0880
    1W        W64307  21.824  10.779   1.458  0.1669 -0.1121  0.1254
    1W        W64308  25.436  14.389   9.085  0.1622  0.1766  0.0076
    1W        W64309  27.201  20.017   2.818 -0.3931  0.2828 -0.0319
    1W        W64310  19.726  12.192   1.707  0.1123  0.0793 -0.3290
    1W        W64311   2.337  18.609   7.872 -0.1095 -0.0345 -0.1069
    1W        W64312   5.440  20.507   8.487  0.0217 -0.0471 -0.2376
    1W        W64313  11.187  12.884   9.145  0.0833 -0.0060 -0.0963
    1W        W64314  11.889  26.028   7.250  0.1551  0.0552 -0.0537
    1W        W64315  10.982  24.986   9.094 -0.0390 -0.2847 -0.0678
    1W        W64316  12.439   5.034   8.106  0.0355 -0.0079 -0.0898
    1W        W64317  16.720  26.423   7.138  0.1036 -0.2250 -0.0510
    1W        W64318   2.860  19.300   0.947  0.2503  0.5152  0.0132
    1W        W64319  12.273  21.682   5.797 -0.2836 -0.1509 -0.0649
    1W        W64320  10.747  22.442   2.050  0.2045 -0.2356 -0.1873
    1W        W64321   5.039   5.656   0.085  0.3790  0.0220  0.3624
    1W        W64322  21.869  18.732   2.545  0.1635  0.1916 -0.0118
    1W        W64323  26.144  19.945   7.129 -0.0467  0.0615 -0.2937
    1W        W64324  21.407  29.147   8.338 -0.1470  0.1787 -0.2134
    1W        W64325  16.976  25.335   0.849  0.1464 -0.0375 -0.0443
    1W        W64326  23.431  20.077   8.815  0.0605 -0.4861  0.0668
    1W        W64327  17.561  23.631   0.815 -0.1269  0.0079  0.0975
    1W        W64328   4.045  17.317   7.372  0.0435 -0.2731 -0.4558
    1W        W64329  16.634  24.922   9.324  0.1557 -0.0143  0.1193
    1W        W64330  12.591   9.677   7.254  0.0308  0.1900 -0.0652
    1W        W64331  19.775  11.718   9.356  0.4146 -0.0256 -0.2546
    1W        W64332  11.199  10.827   0.762 -0.0128 -0.0897 -0.1995
    1W        W64333   6.581  10.092   8.801 -0.3635  0.2977  0.0122
    1W        W64334   2.520  29.137   0.062 -0.4708 -0.0696 -0.3492
    1W        W64335  28.563   8.923   8.156  0.0144  0.2082  0.1441
    1W        W64336   5.116  11.316   8.960 -0.2203  0.3537  0.3093
    1W        W64337  10.854  26.092   0.105 -0.1430  0.1203 -0.1329
    1W        W64338   9.436  23.044   2.269  0.1565 -0.0754 -0.1825
    1W        W64339  16.061   6.407   1.059 -0.0828  0.1491  0.2950
    1W        W64340   5.006   3.775   0.612 -0.3266 -0.2622 -0.0914
    1W        W64341   7.240  28.545   7.574 -0.0056 -0.4825  0.1234
    1W        W64342  13.084  20.220   0.050  0.2539  0.3148  0.0589
    1W        W64343  14.216  20.463   7.169  0.1900 -0.1824 -0.0594
    1W        W64344   7.027  21.602   7.718 -0.1438 -0.2697 -0.2175
    1W        W64345  12.286   8.520   7.354 -0.1422 -0.0758  0.3096
    1W        W64346  25.303   3.958   2.434 -0.2590 -0.0501 -0.2701
    1W        W64347  13.450   2.637   7.825 -0.0744  0.0202  0.1746
    1W        W64348   2.672  18.776   0.688 -0.0912 -0.0754 -0.4007
    1W        W64349  16.148  25.183   7.515 -0.0376  0.1126 -0.3987
    1W        W64350  12.802  25.456   8.917 -0.0653 -0.1247  0.0712
    1W        W64351  24.048   2.835   8.245 -0.2331  0.0234  0.0892
    1W        W64352  21.623  16.764   7.953 -0.2708 -0.2172 -0.0847
    1W        W64353  26.673   3.652   6.354  0.0033 -0.0004  0.1873
    1W        W64354  25.583  23.815   2.077  0.1334  0.0353  0.1211
    1W        W64355   7.499  29.514   2.272 -0.1592  0.1791  0.0236
    1W        W64356   5.460  21.433   0.691 -0.0093  0.0138  0.0979
    1W        W64357  17.318  22.650   0.453  0.2261 -0.1081  0.0136
    1W        W64358  29.007  11.201   0.082 -0.1525 -0.0632  0.2724
    1W        W64359  12.960  18.658   9.027  0.0943  0.1512  0.2143
    1W        W64360  14.094  20.336   9.478  0.0137 -0.0896  0.0987
    1W        W64361  27.213  19.358   7.968 -0.0087 -0.2886  0.0368
    1W        W64362  20.653   9.138   8.874 -0.0664  0.0012 -0.1242
    1W        W64363   6.140  17.405   0.071  0.0057 -0.1385  0.2485
    1W        W64364   7.898   5.156   0.709  0.1722 -0.3514  0.1398
    1W        W64365  22.591  16.046   0.317  0.0882 -0.3328 -0.2132
    1W        W64366  13.726   6.706   2.357 -0.1832 -0.3075 -0.0312
    1W        W64367   8.534  14.323   2.586  0.1184 -0.1197  0.0006
    1W        W64368   5.035  19.384   2.843  0.1403  0.0353 -0.0845
    1W        W64369   7.536  18.518   0.106  0.2343  0.2190  0.0579
    1W        W64370  14.158  22.909   0.798 -0.0301  0.2701  0.1212
    1W        W64371   4.620  14.842   0.801 -0.0430  0.2949  0.1670
    1W        W64372   8.460  12.050   2.118  0.3904 -0.1285 -0.3648
    1W        W64373  21.077   9.496   9.496  0.1122 -0.3195  0.2025
    1W        W64374  13.327  20.534   2.128 -0.1275 -0.1493 -0.2106
    1W        W64375   0.109  15.665   0.386  0.2493  0.1073  0.0875
    1W        W64376  14.168   4.290   1.206 -0.1288  0.0452  0.1189
    1W        W64377  15.003  23.958   7.484  0.2694 -0.0418  0.1320
    1W        W64378  12.515   1.338   2.249  0.0335 -0.2009  0.2647
    1W        W64379  23.058  28.158   1.486 -0.3658  0.1212  0.3052
    1W        W64380   4.293  13.178   7.347  0.0843 -0.1035 -0.2152
    1W        W64381  17.041  19.389   7.648  0.0948  0.1327 -0.0433
    1W        W64382   6.910   5.982   1.823  0.0996 -0.0519  0.0162
    1W        W64383  18.151   9.152   1.133  0.3270 -0.0605  0.0161
    1W        W64384  28.772  27.072   6.501 -0.0323 -0.1653  0.0541
    1W        W64385  15.473   2.949   7.467 -0.2949  0.1780  0.4784
    1W        W64386   4.999  17.085   0.991  0.2961  0.0809 -0.2962
    1W        W64387   0.433  29.110   2.762  0.0654  0.0323 -0.0270
    1W        W64388  21.052  12.579   7.901 -0.0520 -0.0255  0.2489
    1W        W64389   4.902   7.947   1.308 -0.0662  0.2375 -0.0848
    1W        W64390  29.245  22.020   1.063  0.1809 -0.3410 -0.0140
    1W        W64391  23.961   5.554   0.178  0.1499 -0.0896  0.3181
    1W        W64392   5.239  10.140   6.613 -0.0075  0.0922  0.0052
    1W        W64393  14.742  11.632   1.229  0.0006  0.0399 -0.0950
    1W        W64394  12.290  11.259   8.170  0.1658  0.1949  0.1186
    1W        W64395   1.965  10.299   8.714  0.3648 -0.0685 -0.0007
    1W        W64396   4.287   9.609   6.841 -0.0219 -0.0740 -0.0586
    1W        W64397  15.992   4.869   1.311  0.2450 -0.1838 -0.1050
    1W        W64398  28.343  25.760   2.862  0.1753  0.2740  0.3369
    1W        W64399   2.387  23.241   0.456  0.1739  0.0415  0.0053
    1W        W64400  16.995  12.137   8.905 -0.1900 -0.0147  0.0526
    1W        W64401   8.462   7.921   1.358 -0.2417  0.0363  0.1981
    1W        W64402  15.696   1.127   7.625  0.0105  0.0403  0.3178
    1W        W64403   2.260  18.988   9.526  0.2462 -0.0300  0.3786
    1W        W64404  26.403   7.394   0.876 -0.0374 -0.0428  0.1144
    1W        W64405  28.464  29.051   3.513 -0.1964  0.1325 -0.0857
    1W        W64406   0.429   3.810   8.175  0.1416  0.0578 -0.3823
    1W        W64407  24.782  28.153   1.767 -0.0159  0.4422  0.0973
    1W        W64408  12.274  17.980   8.694  0.0504  0.5547 -0.0610
    1W        W64409   8.175  12.359   7.911  0.1838  0.4666  0.1444
    1W        W64410  11.795  20.967   1.356  0.3735 -0.0260 -0.0770
    1W        W64411   5.488  14.480   0.583  0.1500  0.1578  0.1692
    1W        W64412   8.180  16.721   0.298  0.1552 -0.0569  0.4985
    1W        W64413  29.320  21.358   2.130  0.0137  0.1623  0.1415
    1W        W64414   8.190  21.067   9.075 -0.0324 -0.1861 -0.2140
    1W        W64415   7.160   4.449   0.559  0.0093 -0.1021  0.2657
    1W        W64416   0.099  13.932   1.288  0.0189 -0.0580 -0.1176
    1W        W64417  15.188  10.530   6.298  0.1885  0.0791  0.0138
    1W        W64418  21.473  16.295   8.480 -0.1312 -0.1520  0.1298
    1W        W64419   6.607  12.699   9.002  0.2277 -0.0858 -0.0463
    1W        W64420  24.470   1.935   7.959  0.3289 -0.3295  0.1740
    1W        W64421  20.924  23.147   8.315  0.0064 -0.2351  0.1328
    1W        W64422  20.715  21.690   8.140 -0.1098 -0.4071 -0.1391
    1W        W64423  12.509   6.309   1.326 -0.0910  0.0978 -0.1446
    1W        W64424   8.163  29.211   0.925 -0.1476 -0.5177  0.1869
    1W        W64425  29.481  18.623   0.692  0.0806 -0.1557  0.1869
    1W        W64426  10.536   3.027   8.155  0.2906 -0.0286 -0.2508
    1W        W64427  27.209  27.686   7.437  0.0697  0.2080  0.1590
    1W        W64428   8.582   8.085   7.104 -0.0761  0.2906  0.0498
    1W        W64429  15.280   7.550   7.067 -0.0965 -0.2624 -0.0425
    1W        W64430   3.366  27.540   1.320  0.2619  0.0464 -0.3934
    1W        W64431   4.890   4.477   1.348 -0.2531  0.1010  0.0389
    1W        W64432   2.300  21.793   7.361  0.0089  0.0114  0.2626
    1W        W64433   9.486  18.050   9.501  0.0076 -0.0002  0.0165
    1W        W64434  18.421  16.099   2.492 -0.1971 -0.0149 -0.1049
    1W        W64435   4.639  17.199   2.608 -0.1892  0.1806 -0.2170
    1W        W64436   8.071  11.455   7.681 -0.2151  0.2318  0.2964
    1W        W64437  19.944   3.670   7.375 -0.3331  0.2738  0.1513
    1W        W64438   8.622  23.325   8.865  0.0369 -0.2945 -0.1833
    1W        W64439  21.332  24.073   2.937  0.0186  0.0953 -0.2351
    1W        W64440  21.513  15.200   2.579 -0.1776  0.0681  0.1041
    1W        W64441  14.579  19.758   8.509  0.0751 -0.0384  0.0785
    1W        W64442  21.042  16.360   7.213 -0.2012 -0.0570  0.3020
    1W        W64443  24.373  16.066   7.488  0.0631 -0.1707 -0.0365
    1W        W64444  16.099  17.704   9.411 -0.0199 -0.0346  0.2066
    1W        W64445  10.446   3.466   6.801 -0.4015 -0.0387  0.3377
    1W        W64446   3.897  18.094   7.238 -0.0208  0.5243  0.0697
    1W        W64447   9.464   1.642   1.027  0.0606  0.0086  0.1851
    1W        W64448  27.602  12.971   8.114 -0.0843 -0.1696 -0.1860
    1W        W64449  13.526  22.788   5.912 -0.0585  0.1024  0.1904
    1W        W64450   9.347  24.349   7.512  0.0497 -0.0064  0.0203
    1W        W64451   8.500  11.697   1.763  0.2467 -0.3288  0.0191
    1W        W64452  18.492  15.018   2.867  0.1080  0.0232  0.2779
    1W        W64453  12.302  16.347   1.635  0.0456 -0.0619  0.1197
    1W        W64454  11.973  19.420   6.544 -0.0098  0.1616  0.2852
    1W        W64455   2.469  10.231   1.278 -0.1305  0.0792  0.0020
    1W        W64456   0.013  23.966   7.794 -0.1697 -0.0044  0.0209
    1W        W64457  16.541   6.521   1.057  0.0007  0.0661  0.0538
    1W        W64458   0.514  12.914   7.752 -0.1698 -0.0304 -0.0415
    1W        W64459   2.834  26.291   8.804 -0.2851 -0.0714 -0.2948
    1W        W64460   0.939   9.713   1.083  0.1068 -0.0613 -0.0876
    1W        W64461  20.340   6.143   2.101 -0.0399 -0.2847 -0.0135
    1W        W64462  11.042   6.019   8.964 -0.3826 -0.5199  0.1813
    1W        W64463   7.177   4.388   6.821  0.2268  0.0388  0.0783
    1W        W64464   4.065  26.158   2.120 -0.0274  0.3277  0.1750
    1W        W64465  16.188  10.355   9.412  0.0815 -0.1742  0.0832
    1W        W64466  10.761  17.485   0.505  0.1969 -0.0824 -0.0660
    1W        W64467  13.435  13.983   8.624  0.1230  0.0213 -0.0502
    1W        W64468  14.368  20.921   7.389  0.1802 -0.1118 -0.2090
    1W        W64469   1.781  28.027   0.236  0.2091  0.0634  0.0341
    1W        W64470  21.927   9.447   7.745  0.2170 -0.0498 -0.2609
    1W        W64471   9.493   6.875   9.566  0.1422 -0.1655 -0.0387
    1W        W64472  13.408  20.522   7.461  0.0660 -0.3037  0.1889
    1W        W64473  13.223  12.896   1.720 -0.3612 -0.0067 -0.2848
    1W        W64474  26.257  10.060   8.585  0.0441 -0.3217  0.0606
    1W        W64475  18.303   6.204   8.577 -0.1912 -0.0473  0.0011
    1W        W64476   3.241   5.681   2.284 -0.1583 -0.1156  0.0268
    1W        W64477  10.401  22.223   1.752  0.1006  0.0455 -0.0106
    1W        W64478  29.246  20.678   1.036  0.0916  0.0948 -0.0101
    1W        W64479  18.245   4.913   9.414  0.1783  0.0974  0.0225
    1W        W64480  27.095  18.551   9.027 -0.1385 -0.2985  0.0462
    1W        W64481   8.676   6.491   7.155  0.1414  0.1366  0.0620
    1W        W64482  23.307  27.512   2.431  0.0383 -0.3264 -0.1618
    1W        W64483  19.174  23.354   1.982 -0.0493 -0.1329 -0.1735
    1W        W64484  19.961  21.316   3.251  0.3406  0.0743  0.0839
    1W        W64485  29.348  14.196   1.501  0.0684 -0.3627 -0.1188
    1W        W64486  28.402  11.684   8.026 -0.0232  0.2601  0.1809
    1W        W64487  27.533  22.262   9.084  0.2796  0.0038  0.1329
    1W        W64488  17.945  26.465   7.037  0.1281  0.1655  0.3799
    1W        W64489  27.951  28.328   2.351  0.4116 -0.0850  0.1290
    1W        W64490   4.714   5.561   6.114 -0.0981 -0.1300  0.2990
    1W        W64491  20.781  13.164   1.789  0.2128 -0.1140 -0.0372
    1W        W64492  24.113  27.934   7.598 -0.0177 -0.1924  0.1128
    1W        W64493   9.118   5.293   7.162 -0.2314 -0.0606  0.2635
    1W        W64494   8.041  12.032   1.837  0.1216 -0.2627  0.0955
    1W        W64495  14.532  11.559   9.227 -0.0940  0.1337  0.0273
    1W        W64496  18.689  28.966   7.983 -0.3446  0.0542  0.0676
    1W        W64497   7.772   0.210   8.895 -0.0649 -0.6409  0.0409
    1W        W64498   2.215  18.948   9.058 -0.2939 -0.2706 -0.0358
    1W        W64499  12.299  18.707   7.979  0.2483  0.0783  0.4056
    1W        W64500   5.148  20.619   9.357  0.0475 -0.1216 -0.0765
    1W        W64501   0.922  20.603   9.323 -0.0780 -0.0795  0.2932
    1W        W64502  16.765  25.334   0.366 -0.1365 -0.3135  0.0698
    1W        W64503   4.704  16.316   1.116  0.0383 -0.1003  0.2005
    1W        W64504   9.770   7.980   1.987  0.0743  0.0983  0.2466
    1W        W64505  19.820  13.659   0.549 -0.1988 -0.3254 -0.0905
    1W        W64506  28.933  10.674   6.302 -0.1288 -0.0451  0.0943
    1W        W64507  19.494  26.023   8.344 -0.1005 -0.2604 -0.1620
    1W        W64508  17.341   3.605   1.864  0.0354  0.4024  0.0599
    1W        W64509   2.212  11.942   7.909  0.0852 -0.1588 -0.4570
    1W        W64510  28.781   7.196   7.921  0.1435 -0.0254 -0.2392
    1W        W64511  10.829  17.239   8.017  0.1359 -0.3845  0.1429
    1W        W64512  25.863  10.313   0.622 -0.0495  0.0720 -0.2804
    1W        W64513   7.810   5.113   9.068  0.0599  0.0383 -0.4391
    1W        W64514  17.809  28.146   7.910  0.0644 -0.2626  0.1147
    1W        W64515   3.259   9.642   8.380 -0.1369  0.0847 -0.2147
    1W        W64516  27.444  16.089   0.030 -0.0402 -0.0282  0.0332
    1W        W64517   9.189  27.448   2.944  0.5158 -0.0113 -0.2545
    1W        W64518  19.391  29.096   2.864 -0.2435 -0.0448 -0.1609
    1W        W64519  19.288  27.997   0.478  0.1582 -0.0198 -0.2440
    1W        W64520  17.268  15.810   1.542  0.2800  0.0920 -0.1194
    1W        W64521  24.810   5.260   8.132  0.0470 -0.1944  0.0836
    1W        W64522   8.156  24.498   2.888 -0.1734  0.1839 -0.4642
    1W        W64523   4.932  20.390   0.991  0.0418  0.0496  0.0458
    1W        W64524   6.271   0.512   7.371 -0.0509 -0.1231 -0.0221
    1W        W64525   0.834  20.545   0.338  0.4144 -0.2673  0.0545
    1W        W64526  29.510   1.027   0.082  0.3950  0.4128  0.0617
    1W        W64527  16.428  23.996   1.531 -0.0485 -0.0215 -0.1069
    1W        W64528   0.125  11.372   0.911 -0.0520  0.0160 -0.0105
    1W        W64529  16.029   3.075   2.290 -0.1402  0.2278  0.0096
    1W        W64530  12.424  19.153   7.694  0.0894  0.2183 -0.1394
    1W        W64531   9.690   7.012   1.304  0.1132 -0.0519  0.1271
    1W        W64532  17.474  20.717   1.373 -0.2599 -0.0794 -0.2703
    1W        W64533  15.225  13.360   2.269  0.1079 -0.3265  0.0113
    1W        W64534   9.737  22.328   0.785  0.0379  0.0226 -0.0745
    1W        W64535   1.115   1.742   9.461 -0.0136  0.3473  0.3336
    1W        W64536   9.925  11.224   7.001 -0.1255  0.1896  0.2779
    1W        W64537  16.812  19.086   1.208  0.1350 -0.1133 -0.2196
    1W        W64538   3.184  15.633   9.003  0.1418  0.1607  0.0923
    1W        W64539  26.952  17.670   1.051  0.0528 -0.0905 -0.1617
    1W        W64540  20.497  13.890   8.181 -0.0532  0.1717 -0.1695
    1W        W64541  14.485  17.980   8.363 -0.0159  0.1565 -0.0577
    1W        W64542  28.970  29.073   0.617  0.1427  0.2458 -0.0597
    1W        W64543   2.119   8.523   2.056 -0.2135 -0.0121 -0.0331
    1W        W64544   4.954   1.615   2.284 -0.1385  0.1458 -0.1340
    1W        W64545   1.635   5.216   0.839 -0.2028  0.3812 -0.0564
    1W        W64546  29.537  21.256   0.194 -0.1621  0.0038 -0.2860
    1W        W64547  19.919  21.589   0.010  0.3596 -0.1139 -0.0535
    1W        W64548  21.666  26.789   3.297  0.1735  0.1350  0.1488
    1W        W64549   9.395   4.188   9.410 -0.1527  0.0623 -0.2063
    1W        W64550   4.029  16.018   8.852  0.0978  0.0510 -0.0786
    1W        W64551   6.863   1.046   6.414 -0.0706 -0.0054  0.1300
    1W        W64552  25.445   3.516   9.121  0.2217 -0.2750 -0.2963
    1W        W64553  24.008  12.377   8.238 -0.0448 -0.0514  0.0220
    1W        W64554   9.217   9.805   7.441  0.1745  0.1387 -0.1669
    1W        W64555  15.008  15.769   1.529  0.2462 -0.0431 -0.0513
    1W        W64556  16.104   4.817   0.392  0.1927  0.1504 -0.0473
    1W        W64557  10.615   7.625   7.709 -0.1165 -0.2757 -0.0846
    1W        W64558  12.058  10.079   2.441  0.1786 -0.0261 -0.2049
    1W        W64559   6.388  10.727   0.374 -0.0085 -0.1150  0.2416
    1W        W64560  27.968  25.793   9.043  0.4781  0.2704  0.0163
    1W        W64561   7.526  25.515   7.744  0.2047 -0.2560  0.1209
    1W        W64562  20.954   6.970   2.087  0.3264  0.2071 -0.0873
    1W        W64563  14.885   3.949   6.463 -0.2792 -0.1571  0.1174
    1W        W64564   6.262   7.888   7.798 -0.1625 -0.4169  0.2065
    1W        W64565  20.760   5.413   1.743 -0.0462 -0.0266 -0.0860
    1W        W64566   5.890  13.787   0.083 -0.1231 -0.2191 -0.2037
    1W        W64567  26.830   5.252   1.727  0.1657 -0.1867  0.0745
    1W        W64568   2.598  20.390   7.602  0.2665  0.2873 -0.1148
    1W        W64569  11.819   5.146   0.992  0.2803 -0.4675  0.1188
    1W        W64570   0.205   2.130   2.105  0.1028  0.2761  0.0079
    1W        W64571   5.367  25.008   3.646  0.0342  0.2146  0.1511
    1W        W64572  26.362  21.284   7.604 -0.1262 -0.4866  0.0146
    1W        W64573  13.263  17.722   1.850  0.3545  0.2129 -0.0272
    1W        W64574   4.505  18.572   1.707  0.0407 -0.0640 -0.1290
    1W        W64575  27.476  24.609   1.328  0.0817  0.1442  0.4884
    1W        W64576  29.004  18.123   1.170  0.2266 -0.1456  0.0610
    1W        W64577  21.241  10.475   9.203  0.1539 -0.1698  0.2866
    1W        W64578   8.852   2.819   1.455  0.0525  0.0063  0.3324
    1W        W64579  10.213  13.236   0.904 -0.1873  0.1592  0.1221
    1W        W64580   7.538  17.675   8.383 -0.0417 -0.0634 -0.0745
    1W        W64581  15.717  17.295   9.055 -0.1219 -0.2240  0.1266
    1W        W64582   3.963  26.271   6.683  0.0129 -0.0147  0.1073
    1W        W64583  25.979  15.206   0.691 -0.2612 -0.1096 -0.2194
    1W        W64584  12.315   7.295   0.725  0.3161  0.4085 -0.2574
    1W        W64585  11.222  22.773   7.134  0.2215  0.0431  0.1534
    1W        W64586   1.260  20.013   8.121  0.0705 -0.1470  0.1856
    1W        W64587  18.440  17.739   1.509  0.1116 -0.0009  0.0522
    1W        W64588   7.792   4.400   2.200  0.0928  0.1276 -0.3021
    1W        W64589  10.826   9.384   8.024  0.1630 -0.5050  0.0439
    1W        W64590  29.362  26.362   9.586  0.0956 -0.0039  0.1196
    1W        W64591  25.107  18.695   1.691 -0.0545  0.0793  0.2672
    1W        W64592  23.594   2.928   8.566  0.0239  0.1334 -0.1382
    1W        W64593  17.895  25.593   1.541  0.0854  0.1698 -0.2845
    1W        W64594   0.464  22.638   2.002 -0.0053  0.1704 -0.1342
    1W        W64595  24.560  22.988   0.245 -0.1956 -0.2634  0.2724
    1W        W64596   9.459  27.639   0.986  0.1610 -0.0757  0.1423
    1W        W64597  15.967   9.380   0.394 -0.1597 -0.0839  0.2456
    1W        W64598   4.398  10.736   5.482 -0.0773 -0.1622 -0.1501
    1W        W64599  16.316  22.158   9.311  0.2070  0.1461 -0.1765
    1W        W64600  23.069   0.978   0.606  0.1111  0.1934 -0.0826
    1W        W64601   9.677  10.496   7.488  0.0069  0.1086  0.0165
    1W        W64602   2.018  26.425   9.521 -0.1227  0.1614  0.1597
    1W        W64603   7.339  19.746   7.303  0.0532 -0.2373 -0.0004
    1W        W64604  19.626   8.154   7.746 -0.0716  0.2215  0.0619
    1W        W64605  26.691   5.878   0.972 -0.0572 -0.2230 -0.2232
    1W        W64606   4.667  21.237   2.240  0.1743 -0.3180  0.1855
    1W        W64607  12.749  24.873   6.828 -0.1240  0.2848  0.0935
    1W        W64608  12.493  14.430   2.895  0.0783 -0.2145 -0.1321
    1W        W64609  15.120  12.360   9.496 -0.2345  0.2669  0.0339
    1W        W64610  14.736   4.298   0.013 -0.0636  0.0486  0.1052
    1W        W64611   6.057   9.032   5.462  0.2116 -0.1287 -0.2616
    1W        W64612  24.737   8.089   8.109  0.2901  0.3342 -0.2241
    1W        W64613  12.648  22.887   1.503 -0.2379  0.0742  0.0829
    1W        W64614  16.204  15.820   1.335 -0.1019  0.2710  0.0383
    1W        W64615  28.077  21.847   6.989  0.3262 -0.0209 -0.0966
    1W        W64616  21.455  28.031   3.886 -0.0321 -0.1458  0.1532
    1W        W64617  24.550   6.901   1.910  0.0986  0.1965 -0.2998
    1W        W64618  14.536  10.788   8.035  0.4169 -0.0240  0.0142
    1W        W64619  22.770   3.308   1.908 -0.0584 -0.2633  0.1769
    1W        W64620  17.006  29.552   7.723  0.0006 -0.0560  0.1019
    1W        W64621  21.797  11.800   0.292  0.0168  0.0675  0.1207
    1W        W64622  28.307  11.870   1.100 -0.0922 -0.0421 -0.0023
    1W        W64623   0.021  21.496   8.630 -0.0441  0.1169  0.1306
    1W        W64624  23.989   7.935   7.605  0.2661  0.1600  0.2569
    1W        W64625  15.287   8.969   0.973 -0.0342  0.1664  0.0211
    1W        W64626  24.301  23.238   3.254  0.5254 -0.0109 -0.1534
    1W        W64627   1.487  27.302   6.225 -0.1598 -0.4137 -0.1701
    1W        W64628  26.296   7.096   7.239  0.1681  0.2993 -0.0545
    1W        W64629   7.182   4.084   8.625  0.4384  0.2795 -0.1648
    1W        W64630  11.152   6.519   0.266 -0.2367 -0.1812 -0.1300
    1W        W64631   9.169  20.442   2.090  0.1075  0.2164  0.1341
    1W        W64632   0.175  17.844   9.105 -0.1563  0.0661  0.0462
    1W        W64633  22.186  11.461   1.147  0.1618 -0.2453 -0.2909
    1W        W64634   1.265  25.608   1.528 -0.1399 -0.0747 -0.1386
    1W        W64635   3.359  17.014   9.058  0.0451 -0.2390 -0.0051
    1W        W64636   2.182  17.499   9.122 -0.0670 -0.0295  0.2897
    1W        W64637  25.147  29.379   0.528  0.1373 -0.1622  0.0231
    1W        W64638  27.482   0.997   8.397 -0.3270  0.0456  0.0654
    1W        W64639  28.490  10.536   0.512  0.1111 -0.3447  0.0741
    1W        W64640  18.044  29.294   3.189  0.1510  0.0261  0.0951
    1W        W64641   9.624   7.671   8.918 -0.2528 -0.1835 -0.2305
    1W        W64642  12.017  24.948   8.955 -0.2062 -0.2079 -0.1736
    1W        W64643  13.671   4.940   1.670 -0.1730  0.1424 -0.0823
    1W        W64644  24.309   7.624   7.883 -0.2165  0.1417 -0.0536
    1W        W64645   4.963  19.958   0.706  0.0151 -0.0520  0.1792
    1W        W64646  10.200  10.263   9.107  0.1436  0.0256  0.1458
    1W        W64647  17.502  20.885   0.033  0.3863 -0.0699 -0.1592
    1W        W64648  15.306   1.619   7.019 -0.1603 -0.1088  0.0291
    1W        W64649  14.125  21.474   1.291 -0.0722  0.2929  0.0507
    1W        W64650  19.901   2.488   2.030 -0.4257 -0.0334 -0.0800
    1W        W64651   2.508  28.705   9.504 -0.0094 -0.0807  0.2838
    1W        W64652  17.839   5.736   0.207  0.1124  0.3246  0.2589
    1W        W64653  18.611  25.580   0.094  0.2728  0.2093 -0.1177
    1W        W64654  24.261  14.674   0.616  0.2560 -0.0598 -0.2287
    1W        W64655   1.428  22.334   0.647 -0.0242 -0.2163 -0.0160
    1W        W64656   4.911  22.970   2.257  0.2493  0.3575  0.0685
    1W        W64657   7.164   4.011   7.324 -0.0104 -0.0460  0.0290
    1W        W64658  20.072   4.274   0.747 -0.0327 -0.2483  0.3430
    1W        W64659  14.807  11.620   1.726 -0.0995  0.3187  0.2648
    1W        W64660   7.809  14.377   6.305  0.2446 -0.2139  0.0632
    1W        W64661  21.793   2.071   6.658 -0.2835  0.0105  0.1515
    1W        W64662  23.967  28.637   2.452 -0.1558 -0.1744  0.1625
    1W        W64663  26.399  10.336   8.975  0.0418 -0.2191 -0.1794
    1W        W64664  12.489  10.038   2.198  0.1755 -0.0443  0.2063
    1W        W64665  23.748  27.795   2.438  0.1937  0.4357  0.0320
    1W        W64666  12.628  10.217   7.000  0.3800  0.5139 -0.0184
    1W        W64667  28.581  20.789   7.661 -0.0169 -0.4082  0.1100
    1W        W64668  10.877  20.179   1.212 -0.2261 -0.1901  0.1333
    1W        W64669  15.376  25.081   8.445  0.0449 -0.2135 -0.3116
    1W        W64670  26.603  24.673   0.461 -0.0112 -0.0207  0.0820
    1W        W64671  12.667  14.418   1.568  0.0530 -0.0168  0.2463
    1W        W64672  24.102  26.511   3.145  0.3735 -0.4170  0.0048
    1W        W64673  29.182  22.477   0.798  0.1370 -0.2733  0.0095
    1W        W64674  20.366  23.625   1.229 -0.0884 -0.0947 -0.0410
    1W        W64675  15.773   0.584   0.345 -0.1441  0.1259  0.0904
    1W        W64676   8.674  20.602   6.537 -0.1208 -0.4071 -0.2308
    1W        W64677  21.355  18.329   3.565  0.1244 -0.4571  0.2885
    1W        W64678   6.626  11.383   7.638 -0.1500  0.0572 -0.1534
    1W        W64679   6.060  29.537   9.379  0.0720  0.3433 -0.0861
    1W        W64680   5.514  27.941   2.616 -0.0002  0.2662 -0.1288
    1W        W64681   4.542  28.241   8.396  0.0299 -0.2683  0.0094
    1W        W64682  28.439   2.843   7.324  0.0186 -0.0903 -0.3114
    1W        W64683   3.128  17.991   8.390  0.1825  0.2747  0.0086
    1W        W64684   7.497  22.581   0.243  0.2573 -0.0771  0.1223
    1W        W64685   4.488  15.628   8.095  0.3286 -0.2954 -0.2546
    1W        W64686  14.918  22.955   7.732 -0.0522  0.0120 -0.0298
    1W        W64687  28.759  24.599   9.060 -0.3141  0.0990  0.0941
    1W        W64688  27.204   8.420   9.559  0.1545 -0.2430 -0.1762
    1W        W64689  22.860  23.413   9.544  0.3053 -0.1310  0.2557
    1W        W64690  21.545  14.806   1.166  0.2722 -0.1427  0.2238
    1W        W64691  29.543  29.006   6.529 -0.0600  0.1101 -0.2203
    1W        W64692   3.510   5.736   8.214 -0.1849  0.0519 -0.1965
    1W        W64693   3.475   4.226   7.532 -0.2394 -0.1452  0.2063
    1W        W64694  12.353  11.821   1.565  0.0443  0.0061  0.2225
    1W        W64695   7.137  23.195   3.352  0.2689  0.3442  0.0038
    1W        W64696   1.467  24.523   3.135 -0.3568  0.3162  0.3077
    1W        W64697   9.800  23.779   0.852 -0.1452  0.0859 -0.3992
    1W        W64698  10.216   2.397   2.504  0.4615  0.0573 -0.3133
    1W        W64699  13.296   1.773   0.264  0.2534  0.1898  0.0808
    1W        W64700  13.243   3.369   1.216 -0.2459  0.0447  0.1864
    1W        W64701  23.957  11.171   0.268 -0.0026  0.0658 -0.0383
    1W        W64702  24.995   7.956   7.720  0.2598 -0.1652 -0.4753
    1W        W64703  21.796  24.332   9.610  0.0588 -0.1485 -0.3227
    1W        W64704   2.824  17.442   1.889  0.3319  0.0445 -0.0045
    1W        W64705   1.698   6.844   6.481  0.1063  0.0745  0.2985
    1W        W64706   1.923   1.965   6.016  0.2123  0.1809  0.0329
    1W        W64707   6.615  19.216   1.960 -0.1111  0.1633 -0.1538
    1W        W64708  24.364  28.935   1.022 -0.3925 -0.2242 -0.1060
    1W        W64709  19.398   1.662   1.665 -0.4366 -0.1652 -0.0246
    1W        W64710   6.388  20.571   0.149 -0.0490 -0.2037 -0.1644
    1W        W64711  17.716   1.034   7.572 -0.6314 -0.1728 -0.1879
    1W        W64712  10.163  28.199   1.278  0.1880  0.0771 -0.0955
    1W        W64713   7.894   1.771   5.630  0.0749 -0.2210  0.1151
    1W        W64714   2.600   3.800   7.507 -0.2113 -0.1188 -0.0401
    1W        W64715  22.774  21.408   8.714 -0.0069  0.1140 -0.2223
    1W        W64716  18.632  14.491   0.893 -0.1993  0.0273 -0.0351
    1W        W64717  27.236  24.593   8.566  0.1667  0.0273 -0.4304
    1W        W64718  10.075  11.215   8.306 -0.1590  0.1108 -0.1235
    1W        W64719  24.348   5.846   7.517  0.0148 -0.3761  0.0916
    1W        W64720   2.120   6.066   8.305  0.0319  0.1328 -0.0045
    1W        W64721  28.235   9.101   9.419 -0.1301  0.1546  0.0657
    1W        W64722  12.159   6.383   0.399 -0.1270  0.0256 -0.0144
    1W        W64723   3.938  28.179   7.265 -0.1257  0.1552 -0.1130
    1W        W64724   9.211  25.162   6.510 -0.2139  0.1829 -0.2003
    1W        W64725  16.832  15.118   0.378 -0.0871  0.1467  0.0360
    1W        W64726  20.284  22.595   2.195 -0.0708 -0.1778  0.0197
    1W        W64727   2.787  20.422   2.001 -0.0173 -0.3786  0.1007
    1W        W64728   2.432  10.549   6.778  0.0002 -0.0379 -0.1573
    1W        W64729  23.125   0.562   2.814  0.3189 -0.0439  0.0671
    1W        W64730   2.760  27.742   2.677 -0.0021  0.1008  0.0988
    1W        W64731   1.427  25.916   6.857  0.0692 -0.2806  0.2424
    1W        W64732  20.382  18.234   2.948  0.2355  0.2866 -0.0084
    1W        W64733   7.488  26.338   2.038 -0.0363 -0.0825 -0.0743
    1W        W64734  16.563  27.003   9.430 -0.0132 -0.1071  0.1154
    1W        W64735  22.813   6.550   9.151  0.1995 -0.0698  0.3047
    1W        W64736  23.640  24.308   0.653 -0.0930  0.1799 -0.0163
    1W        W64737   9.719  25.683   2.097 -0.2928 -0.2345 -0.0341
    1W        W64738   8.478   6.848   1.821 -0.2741 -0.0440 -0.0571
    1W        W64739  29.133  25.011   2.821  0.0187 -0.0019  0.2157
    1W        W64740  26.278  20.779   3.920  0.0257 -0.3045  0.1327
    1W        W64741   2.819  27.423   7.432 -0.1459  0.0257 -0.0857
    1W        W64742  18.436   0.415   1.554 -0.0098 -0.0021  0.1994
    1W        W64743  24.921   6.917   1.563  0.0231 -0.2181  0.0714
    1W        W64744  20.308   0.221   9.258 -0.0684 -0.1267  0.0366
    1W        W64745  24.671  17.207   1.567  0.2425 -0.1720 -0.1151
    1W        W64746  12.837   5.149   9.013 -0.0117  0.2166  0.0096
    1W        W64747  19.883  10.038   6.776  0.0368  0.0373 -0.1783
    1W        W64748   0.745  19.751   2.053 -0.1101 -0.2204 -0.2618
    1W        W64749   2.980  28.169   0.640 -0.1455 -0.1266  0.1205
    1W        W64750  25.577  24.029   7.979  0.2008 -0.4770  0.1792
    1W        W64751  21.714  24.137   2.159  0.1283  0.0513 -0.0337
    1W        W64752   4.686   9.323   8.622  0.3082 -0.1245  0.1266
    1W        W64753  25.238   0.721   3.098  0.1035 -0.2519  0.1610
    1W        W64754   0.182  15.851   3.100  0.2051 -0.1568 -0.0583
    1W        W64755  22.136  27.177   9.567 -0.0397  0.1089  0.1341
    1W        W64756   7.795   3.240   8.819  0.1552 -0.2714 -0.0091
    1W        W64757  27.818  11.735   0.233  0.1636 -0.0386 -0.0065
    1W        W64758   2.378   3.921   1.169 -0.5754  0.1817 -0.2498
    1W        W64759   1.038   3.013   7.639  0.0144  0.0031 -0.0592
    1W        W64760  20.959  18.539   2.777 -0.2190  0.1427 -0.1912
    1W        W64761  28.704  23.408   9.256  0.0726  0.0763  0.2641
    1W        W64762  14.240   9.435   1.717  0.0190 -0.2978 -0.2521
    1W        W64763  14.020   0.240   8.215 -0.1159  0.0574  0.1371
    1W        W64764   8.159  20.030   9.512 -0.0898  0.0207 -0.0935
    1W        W64765  19.377  12.608   8.788  0.0752  0.1262  0.1463
    1W        W64766  21.136  17.651   7.046 -0.1349  0.2159  0.0337
    1W        W64767   2.878  18.784   1.145 -0.2961 -0.0438  0.0220
    1W        W64768  16.233   6.522   3.071  0.0097  0.0048  0.0440
    1W        W64769  22.162  13.318   2.046  0.0927 -0.1334 -0.2287
    1W        W64770  27.113  19.807   8.323 -0.0315 -0.1464 -0.0920
    1W        W64771  16.370  16.830   8.998 -0.1157  0.0226  0.5068
    1W        W64772  21.839  28.262   1.063 -0.0268 -0.0533  0.1505
    1W        W64773  12.037  19.842   0.522 -0.2467  0.0446 -0.0720
    1W        W64774  18.806   5.355   2.729  0.0869  0.2919 -0.5550
    1W        W64775  15.561  15.575   2.127 -0.1262  0.0388  0.0322
    1W        W64776  12.202  26.309   9.274  0.0064 -0.1012  0.1448
    1W        W64777  25.802  15.777   0.433  0.0071 -0.1957 -0.2465
    1W        W64778  24.780  29.515   7.147 -0.2076  0.1262 -0.0963
    1W        W64779  21.386  22.788   8.884 -0.1220 -0.1783 -0.0252
    1W        W64780  23.081  11.220   1.295 -0.0953 -0.3615 -0.1501
    1W        W64781  25.141   4.358   1.630  0.0249  0.2394 -0.1240
    1W        W64782  10.665  17.331   1.815 -0.2212 -0.0567 -0.0128
    1W        W64783  15.334  14.948   8.069 -0.1581  0.2633  0.1863
    1W        W64784   4.174   5.791   6.840  0.1695  0.2127  0.1048
    1W        W64785  10.413  26.000   7.763 -0.4850  0.1323  0.3329
    1W        W64786   9.219  13.137   2.278  0.0260 -0.0165 -0.0603
    1W        W64787  29.392  28.810   9.119  0.0602 -0.1778  0.1993
    1W        W64788  16.473  20.034   2.024 -0.0019 -0.1971  0.3106
    1W        W64789  18.154   7.394   0.299 -0.0824 -0.0648  0.0122
    1W        W64790  12.253  27.627   9.497  0.0226 -0.0715  0.1614
    1W        W64791   4.508  28.247   0.850 -0.2370 -0.2449  0.0041
    1W        W64792  10.665  24.008   5.843  0.1604 -0.1532 -0.2105
    1W        W64793  12.137  25.375   1.522  0.2230  0.1276  0.2491
    1W        W64794   3.898  10.044   5.369  0.0868  0.0138 -0.1625
    1W        W64795  22.495   4.493   8.994 -0.0038 -0.2419  0.1245
    1W        W64796  14.662  20.086   6.508 -0.1309 -0.3255 -0.0961
    1W        W64797   5.630  23.977   8.088  0.1886  0.1752  0.2817
    1W        W64798  15.154   0.269   6.044  0.1366  0.2651  0.3327
    1W        W64799  27.217  27.316   8.435 -0.0762  0.1080 -0.2571
    1W        W64800  23.569  17.292   7.692 -0.1649 -0.3176 -0.0621
    1W        W64801  15.991  20.904   8.963  0.1981  0.1373  0.0251
    1W        W64802  19.530  22.163   8.697  0.3143 -0.2335  0.1015
    1W        W64803   7.329  26.786   0.452 -0.1739  0.0293  0.0654
    1W        W64804   0.617   8.781   9.096 -0.0205  0.1019 -0.2476
    1W        W64805   1.779  22.478   9.483 -0.0620 -0.0850 -0.2639
    1W        W64806  27.374  24.530   2.706  0.1956  0.2962  0.1598
    1W        W64807  20.536  18.104   1.406 -0.2426  0.2679 -0.0665
    1W        W64808  15.767  11.773   1.877 -0.0979 -0.2297 -0.0148
    1W        W64809  15.977   5.560   2.789  0.0110  0.1133 -0.2338
    1W        W64810  22.285  27.789   7.974  0.0189 -0.0753 -0.0362
    1W        W64811  20.138   8.775   0.715  0.1371 -0.1731  0.0054
    1W        W64812   1.703   4.858   0.415 -0.0052  0.1847 -0.0162
    1W        W64813  13.646   3.055   8.918  0.1602 -0.3126 -0.2705
    1W        W64814  16.272  23.838   6.575 -0.3682  0.1616  0.1132
    1W        W64815   2.678  23.859   1.530  0.2179  0.1791 -0.1513
    1W        W64816  15.159   6.541   6.268  0.2202  0.2013 -0.2000
    1W        W64817  25.060  16.556   8.146  0.3556  0.0466  0.0759
    1W        W64818  16.020  10.645   6.825 -0.4154 -0.2516  0.2192
    1W        W64819   0.094   4.888   1.305  0.1740  0.0464  0.1401
    1W        W64820  19.082   8.177   7.455  0.2623 -0.2195 -0.2478
    1W        W64821   7.380  24.333   7.726  0.0371  0.0441  0.0391
    1W        W64822   4.529   6.032   5.490 -0.0304 -0.2638  0.1266
    1W        W64823  16.452  28.503   1.769 -0.0513 -0.0754 -0.1728
    1W        W64824   6.135  22.031   1.122 -0.0612  0.0378 -0.0030
    1W        W64825  28.598  15.905   2.493 -0.0766  0.0450 -0.3084
    1W        W64826   1.870  10.052   7.700  0.3462 -0.0327 -0.0712
    1W        W64827   5.890   7.555   7.571 -0.1249  0.1347 -0.1696
    1W        W64828  24.619  11.592   0.349  0.0895  0.1603  0.0464
    1W        W64829   9.527  11.999   9.512 -0.3393 -0.3103 -0.0063
    1W        W64830  25.464  10.940   2.165 -0.0627 -0.0196 -0.1221
    1W        W64831  28.028  25.244   8.771  0.0980 -0.0605 -0.1876
    1W        W64832  14.064  24.769   8.142 -0.0908 -0.1013  0.3385
    1W        W64833  25.739   1.615   8.394 -0.0734 -0.2769  0.1685
    1W        W64834  23.132  19.149   8.991  0.0798  0.2908  0.0720
    1W        W64835  20.448   2.809   3.263 -0.2529  0.0080  0.0095
    1W        W64836  10.565   9.991   7.134 -0.1338 -0.0882 -0.1160
    1W        W64837  14.270  14.777   6.052  0.1911  0.2254  0.0025
    1W        W64838  26.780  27.871   2.473 -0.0330 -0.1753  0.1144
    1W        W64839  14.603  14.520   7.009  0.0225 -0.2609  0.0238
    1W        W64840   3.189  16.358   2.369 -0.1975 -0.1784 -0.1046
    1W        W64841  17.000  28.960   2.216 -0.2359  0.1571 -0.4162
    1W        W64842  16.675   4.776   6.863 -0.0885  0.0233 -0.0028
    1W        W64843  14.219  15.384   6.668 -0.0743  0.0936  0.0897
    1W        W64844   4.690   1.198   0.962  0.2593  0.2735  0.2759
    1W        W64845  17.559   7.849   0.780  0.0785 -0.0284  0.0109
    1W        W64846  16.436   5.598   7.920  0.1000  0.0965 -0.0206
    1W        W64847  22.354   5.330   2.333  0.3087 -0.2111  0.0930
    1W        W64848  15.185   1.420   8.316  0.2708 -0.3463  0.2055
    1W        W64849   9.989  12.549   0.431  0.3523 -0.0712  0.1322
    1W        W64850   4.009  11.710   1.225  0.0515  0.0497  0.0597
    1W        W64851   5.461   1.141   0.188  0.0687 -0.0672  0.0684
    1W        W64852  15.280   2.807   1.715 -0.3400 -0.2972 -0.2142
    1W        W64853   7.417   9.693   8.592 -0.2946  0.1437  0.0185
    1W        W64854   8.339  18.001   1.863  0.0919  0.4123  0.1831
    1W        W64855   2.017   5.957   7.574 -0.0779  0.1974  0.1763
    1W        W64856   0.414   2.701   0.075 -0.3414 -0.0950 -0.2548
    1W        W64857  26.030  12.809   0.383  0.1373  0.0582  0.4824
    1W        W64858  19.781  19.119   9.496 -0.2659 -0.1021 -0.1552
    1W        W64859  13.468  17.104   9.419 -0.3654  0.1107  0.2998
    1W        W64860  28.856  27.873   6.844  0.2024 -0.0804  0.3019
    1W        W64861   6.760  16.916   2.016 -0.0125 -0.1249  0.0358
    1W        W64862   7.064  27.786   0.529  0.0784 -0.0731 -0.1829
    1W        W64863   5.644  14.597   7.103 -0.0431 -0.4238 -0.0618
    1W        W64864  17.513  18.817   7.748  0.1002 -0.0795  0.0251
    1W        W64865   2.623  15.516   0.125  0.0638  0.1143  0.0964
    1W        W64866   9.579  27.200   2.439  0.0514 -0.1864 -0.2507
    1W        W64867  18.056   1.138   2.580 -0.0837 -0.1750 -0.1368
    1W        W64868  21.491   1.822   1.744 -0.1296  0.1347  0.1039
    1W        W64869   6.606  24.053   2.692  0.3031  0.0874 -0.1528
    1W        W64870  21.842  25.602   2.019  0.1139 -0.1111 -0.2074
    1W        W64871  14.622  15.328   2.395 -0.2838  0.0264  0.0703
    1W        W64872  22.395  14.603   9.558 -0.1166  0.0270  0.3497
    1W        W64873  28.590   2.044   7.360  0.2223  0.0555 -0.2588
    1W        W64874  17.810   7.048   1.540 -0.1665 -0.3563 -0.5099
    1W        W64875   0.575  10.125   1.698 -0.0371 -0.0950 -0.0630
    1W        W64876   2.194  24.007   8.021 -0.3633  0.0568 -0.0301
    1W        W64877   3.253  25.364   7.897 -0.0627  0.0736 -0.0905
    1W        W64878  17.281  24.171   7.345 -0.1319  0.1320  0.1041
    1W        W64879   9.213  26.496   7.946  0.1462  0.3300 -0.0744
    1W        W64880   8.352   0.041   6.153 -0.3056 -0.1204  0.0565
    1W        W64881  16.936   6.367   0.643  0.0925 -0.0298 -0.1334
    1W        W64882   6.008  23.965   7.641  0.0990 -0.0370  0.0111
    1W        W64883  12.773  29.489   1.572  0.2121  0.4078  0.2551
    1W        W64884   9.206   7.715   7.958 -0.0171  0.0325  0.1098
    1W        W64885  19.398   2.101   8.594 -0.0634 -0.3395  0.0685
    1W        W64886  21.931  16.533   2.600  0.1679 -0.1870  0.2488
    1W        W64887   9.531  29.202   1.451  0.1190 -0.1859  0.0702
    1W        W64888   0.807  16.904   2.295 -0.2375  0.1207 -0.1190
    1W        W64889  13.328  15.923   7.444 -0.2179  0.0787 -0.1602
    1W        W64890   6.692  16.340   8.219  0.0175 -0.0983 -0.0726
    1W        W64891   6.950  19.024   8.176  0.3543 -0.3079 -0.1764
    1W        W64892  18.696  16.947   2.769 -0.3002 -0.0230 -0.3731
    1W        W64893  29.027  17.478   8.879 -0.0435 -0.0399 -0.0140
    1W        W64894   4.753  14.985   8.955 -0.2697  0.4302 -0.0544
    1W        W64895  18.323  20.935   0.860 -0.0153  0.3382 -0.3570
    1W        W64896  18.090  24.596   1.449  0.1915  0.0197  0.0479
    1W        W64897  25.748  20.913   1.242 -0.2811 -0.0861  0.2013
    1W        W64898  21.393   8.442   7.310 -0.0861 -0.2521  0.1758
    1W        W64899  13.480  19.896   7.603  0.1171 -0.0045  0.1017
    1W        W64900  26.586  18.607   0.106 -0.0453  0.2471  0.0116
    1W        W64901  11.803   2.225   1.605  0.0275  0.0747  0.1074
    1W        W64902   8.728   5.574   0.849  0.1550  0.1032 -0.2501
    1W        W64903  25.445  12.403   9.327  0.1285  0.1733 -0.1942
    1W        W64904  16.707  24.168   6.738  0.0496 -0.1641 -0.2522
    1W        W64905  15.759  23.522   8.060 -0.1382 -0.0728 -0.0814
    1W        W64906   3.588  23.038   8.826  0.0542 -0.0029  0.2277
    1W        W64907   0.062  12.099   7.422 -0.3012 -0.1640  0.1131
    1W        W64908   3.474  15.692   0.948 -0.1942 -0.1993  0.1524
    1W        W64909  11.252  21.390   6.538  0.3772 -0.2734 -0.1963
    1W        W64910  19.409  17.305   0.849 -0.0546 -0.1928 -0.0290
    1W        W64911  24.245  16.584   7.534 -0.0097  0.1363 -0.2885
    1W        W64912  25.662  10.373   1.360 -0.0250 -0.1158  0.1199
    1W        W64913  25.213  10.474   1.878 -0.2209 -0.0119 -0.0298
    1W        W64914   6.418  12.982   0.079  0.1325 -0.1068  0.0534
    1W        W64915   2.480  28.430   1.202 -0.1008 -0.3129 -0.4541
    1W        W64916   2.844  19.825   0.881 -0.0097  0.1010 -0.0806
    1W        W64917  28.800  14.417   2.850 -0.0008 -0.0702 -0.3277
    1W        W64918   5.665  29.022   7.591 -0.4227  0.0754  0.2097
    1W        W64919   0.853  14.623   1.033 -0.3442  0.2536 -0.0803
    1W        W64920  11.175  16.747   8.820 -0.0888 -0.3061 -0.1455
    1W        W64921   6.848   3.405   7.668 -0.1116  0.3631 -0.1474
    1W        W64922   7.088  27.212   1.783 -0.1874  0.1415  0.2426
    1W        W64923  23.929  21.717   0.529  0.1543 -0.2063 -0.0402
    1W        W64924  14.354   4.380   2.368  0.0668 -0.0831  0.0832
    1W        W64925  17.725   2.909   7.815 -0.0719  0.1394 -0.0418
    1W        W64926  19.002  13.987   0.061  0.2507 -0.1107 -0.1038
    1W        W64927  28.147  13.411   8.332 -0.2377 -0.1142 -0.1789
    1W        W64928   1.906  18.993   1.393  0.2398 -0.4725 -0.0806
    1W        W64929  10.995  24.780   6.951  0.3364 -0.1798 -0.1099
    1W        W64930  20.123  20.744   8.023 -0.0553  0.0167  0.0635
    1W        W64931   8.560  12.022   6.039 -0.0372  0.3527 -0.2599
    1W        W64932  19.543  12.548   8.212 -0.0025  0.1650  0.1389
    1W        W64933   9.264  11.216   1.661  0.0535 -0.4178 -0.1037
    1W        W64934   3.075  29.128   2.563 -0.1469 -0.0146 -0.1147
    1W        W64935  13.876  15.197   6.277 -0.0092  0.0175  0.2513
    1W        W64936   1.557   6.408   8.301  0.0183 -0.1672 -0.1241
    1W        W64937  24.477  12.498   7.124 -0.0472  0.3057 -0.0501
    1W        W64938   8.933  29.059   6.736 -0.2077  0.3390 -0.0292
    1W        W64939  29.399  28.447   0.379 -0.2434 -0.0109  0.1056
    1W        W64940   3.134   1.971   1.851 -0.0260 -0.0835  0.1239
    1W        W64941  22.216   2.230   1.361 -0.0539 -0.0037  0.0530
    1W        W64942   1.849  18.200   0.288 -0.4125 -0.0933 -0.1493
    1W        W64943  29.557  14.845   1.486  0.1075  0.1628  0.0300
    1W        W64944   6.765  14.323   1.136 -0.0765 -0.0160  0.0939
    1W        W64945   4.329  14.487   1.024  0.1494 -0.0365  0.1214
    1W        W64946  28.644  10.322   2.061  0.2838 -0.1817  0.1359
    1W        W64947  13.911  18.870   0.321  0.0691  0.3188  0.1925
    1W        W64948  19.569  22.849   2.888 -0.1697 -0.1879  0.1628
    1W        W64949   0.832   6.236   6.628  0.2123 -0.0524 -0.1562
    1W        W64950  15.418  28.290   9.211 -0.1495  0.0533 -0.0386
    1W        W64951  16.246   4.474   9.362  0.1299  0.2383 -0.0122
    1W        W64952  25.791  20.177   7.897 -0.2981  0.3116  0.3045
    1W        W64953   6.703   8.695   1.652 -0.1464 -0.3564  0.2470
    1W        W64954   8.840  12.207   5.711 -0.2806 -0.2751 -0.4077
    1W        W64955  16.801   3.716   1.008 -0.0832  0.0270 -0.1135
    1W        W64956  18.967  20.539   9.104 -0.3517 -0.1551  0.3158
    1W        W64957   4.554   9.141   6.695  0.2100  0.2547  0.0048
    1W        W64958  16.600   2.450   0.637  0.1951 -0.1483  0.3023
    1W        W64959  14.580  22.759   1.782 -0.1427  0.1588 -0.1720
    1W        W64960  24.477  28.949   3.213 -0.2252 -0.0374 -0.1915
    1W        W64961   4.880  28.035   1.017  0.2185 -0.1821 -0.1956
    1W        W64962  10.935  12.452   6.574 -0.2515 -0.0184  0.0673
    1W        W64963   1.104  14.276   7.296  0.0271  0.0800 -0.1012
    1W        W64964  13.935   4.587   7.415  0.0446  0.3400 -0.0470
    1W        W64965   5.517  16.994   1.351  0.0513 -0.2933  0.0513
    1W        W64966  24.866  28.488   8.152 -0.1347 -0.0900 -0.3605
    1W        W64967  24.761  11.974   7.937 -0.0362  0.4032 -0.2458
    1W        W64968  22.670  29.546   6.709  0.2816 -0.2019  0.0741
    1W        W64969   1.544   1.107   2.587  0.0324 -0.2288 -0.2558
    1W        W64970   3.445  23.768   0.143 -0.4696 -0.1986  0.1838
    1W        W64971  18.691  24.570   8.977  0.1278  0.1568  0.0775
    1W        W64972  10.250   4.597   9.619  0.3776  0.0228 -0.1566
    1W        W64973  28.432   5.787   9.569  0.0133  0.3019  0.2372
    1W        W64974  17.457  21.502   2.548 -0.0350  0.2477 -0.0615
    1W        W64975  17.088   8.966   1.819  0.0762 -0.0129  0.0705
    1W        W64976   3.298  26.300   2.886 -0.2788 -0.2732  0.1149
    1W        W64977   8.405  13.860   6.433 -0.3619 -0.2005 -0.2225
    1W        W64978  28.854  19.685   8.003 -0.1137  0.0999 -0.3234
    1W        W64979  22.797  24.915   8.685  0.0906  0.0175 -0.0167
    1W        W64980   9.262  22.120   7.344  0.1171  0.0507  0.3457
    1W        W64981   5.776  15.067   6.793 -0.0856 -0.1412 -0.0095
    1W        W64982   0.995  13.389   0.670  0.3405 -0.0424  0.2235
    1W        W64983   2.171   7.427   0.654  0.0754 -0.0708 -0.0018
    1W        W64984  11.925   2.779   0.206 -0.1332  0.3482 -0.0776
    1W        W64985  26.319   9.544   9.561  0.1041 -0.5697  0.1372
    1W        W64986  16.779  11.786   7.260  0.0936  0.3041 -0.1512
    1W        W64987   9.725   4.872   8.145 -0.3959 -0.0248  0.1673
    1W        W64988  19.944  28.292   7.044  0.1986  0.1049  0.2539
    1W        W64989  23.858  13.956   8.656  0.3200 -0.1166  0.0766
    1W        W64990  15.760  26.117   7.600  0.1835  0.3347  0.1894
    1W        W64991  23.952  27.513   9.182  0.1461 -0.0209 -0.2394
    1W        W64992   0.032   8.368   7.267  0.0515  0.2360 -0.1081
    1W        W64993   0.171   5.817   9.529 -0.1019 -0.2905  0.4021
    1W        W64994   7.564  21.929   7.089 -0.0459  0.0251 -0.0748
    1W        W64995  24.448  28.884   1.506 -0.1370  0.1708 -0.1542
    1W        W64996   5.046  25.912   8.492  0.0632  0.0838 -0.3113
    1W        W64997  15.139   0.758   1.314 -0.0861 -0.1104  0.0859
    1W        W64998  24.010   0.117   2.485  0.2130 -0.0399  0.1290
    1W        W64999   1.531   1.425   9.583 -0.2561 -0.0368  0.1316
    1W        W65000  25.306  19.057   0.157 -0.0797 -0.0739 -0.0127
    1W        W65001  16.489   0.680   7.877 -0.0234  0.1473 -0.3284
    1W        W65002   3.691   0.505   0.138 -0.1038 -0.2737  0.3545
    1W        W65003  28.055  28.933   0.614 -0.2013  0.2387 -0.1236
    1W        W65004  26.235   6.366   8.852  0.1164 -0.0885  0.4395
    1W        W65005  27.911  16.325   0.160 -0.1760  0.4604  0.2759
    1W        W65006  19.326  19.714   1.298  0.2259  0.1977 -0.1294
    1W        W65007  28.604   2.410   9.072 -0.0730  0.0106  0.0406
    1W        W65008  14.332  27.497   1.512  0.0086 -0.1918 -0.2477
    1W        W65009  18.221  22.882   2.558  0.1094  0.0921 -0.1738
    1W        W65010   7.484  24.244   1.358  0.1219 -0.1818 -0.1883
    1W        W65011  27.455   6.884   6.501  0.1891 -0.0951  0.0734
    1W        W65012  23.316  22.152   8.612  0.0820 -0.3121 -0.2253
    1W        W65013  24.843  21.420   1.861  0.0264  0.3269  0.0220
    1W        W65014  13.852  21.168   7.641  0.1397  0.1575 -0.0014
    1W        W65015  12.746  17.936   6.840  0.0228  0.1028 -0.4442
    1W        W65016  13.734   8.448   6.657  0.2168 -0.4509 -0.0236
    1W        W65017  16.768  11.296   2.608  0.0524  0.0182  0.0364
    1W        W65018  27.949  26.995   1.964  0.0585 -0.2050 -0.1336
    1W        W65019   3.444  27.502   1.868  0.0977  0.1297 -0.0292
    1W        W65020  28.680   8.386   2.004 -0.1954 -0.0026  0.2782
    1W        W65021   0.875  25.935   1.457  0.0517  0.2742  0.2293
    1W        W65022  11.407  26.029   9.229 -0.2581 -0.0012 -0.0475
    1W        W65023   3.142   4.991   7.891  0.1710  0.3085 -0.0808
    1W        W65024  15.811  27.533   2.039 -0.1570 -0.0590  0.3377
    1W        W65025  16.847  12.946   1.353 -0.3195  0.0159 -0.0687
    1W        W65026  14.630   5.691   8.192  0.1939  0.0677 -0.1728
    1W        W65027  15.869   3.162   7.691  0.0130  0.2507  0.1219
    1W        W65028  26.603   8.462   7.320  0.2881  0.1430 -0.1072
    1W        W65029   7.699  25.758   8.255  0.3011 -0.1484  0.1480
    1W        W65030   9.069  20.851   2.885  0.1187 -0.2327  0.3085
    1W        W65031  20.894  18.071   2.296 -0.1756 -0.0855 -0.0216
    1W        W65032  21.135   2.754   7.704  0.0781 -0.1222 -0.0822
    1W        W65033  20.793  23.861   0.414  0.0038  0.0576  0.0050
    1W        W65034  25.884  15.409   1.596 -0.0525 -0.0985 -0.4649
    1W        W65035  16.203   7.308   2.593  0.1721  0.1538 -0.0577
    1W        W65036  18.471   6.426   9.128  0.0986  0.0834  0.1474
    1W        W65037  23.866  15.455   7.304  0.0779 -0.2485  0.2019
    1W        W65038  11.307   9.568   7.578 -0.2343 -0.1154 -0.0031
    1W        W65039  26.335   5.126   1.807 -0.0340  0.5222 -0.1511
    1W        W65040  23.063  20.120   2.254  0.1866  0.1589  0.3813
    1W        W65041  22.357  20.263   0.532  0.1601 -0.2927 -0.0789
    1W        W65042  10.442  16.051   2.147 -0.1040 -0.3288  0.0535
    1W        W65043   0.104  23.711   1.838  0.0325 -0.0014 -0.2918
    1W        W65044  15.668  12.383   8.102  0.1370  0.2125 -0.3423
    1W        W65045   9.368   0.951   9.258 -0.0543  0.2763 -0.2669
    1W        W65046  28.849   9.307   6.442 -0.1774 -0.0023  0.0624
    1W        W65047   4.472  26.931   1.782  0.0914 -0.0078 -0.1800
    1W        W65048  20.677   7.924   2.201  0.3799  0.0314 -0.0885
    1W        W65049   1.995  20.712   1.463  0.0603 -0.0220 -0.2420
    1W        W65050   4.445  18.172   9.238 -0.2190 -0.0620  0.1557
    1W        W65051  11.208   2.040   6.571  0.0332  0.0114 -0.1150
    1W        W65052  11.385  27.531   8.138 -0.2044 -0.1031  0.0304
    1W        W65053  11.395  25.909   8.740 -0.2527 -0.2989  0.1952
    1W        W65054   7.147  12.111   6.539 -0.0451 -0.0590 -0.0755
    1W        W65055  13.983   3.056   0.772  0.1686 -0.0595 -0.1183
    1W        W65056  18.418  15.876   2.029  0.4876  0.0043 -0.2768
    1W        W65057  22.020  13.164   9.245  0.0214 -0.0771 -0.0045
    1W        W65058  17.799  25.310   9.192  0.3183 -0.2513 -0.0926
    1W        W65059   2.014  16.477   8.462  0.3699 -0.2331 -0.0024
    1W        W65060  14.029   5.154   6.186 -0.0758  0.1005  0.0713
    1W        W65061  13.197  24.675   8.444 -0.2779 -0.1897 -0.2413
    1W        W65062  13.857  16.793   9.521 -0.0786  0.0065 -0.1800
    1W        W65063  11.130   3.791   1.066  0.2303 -0.3643  0.0310
    1W        W65064  13.651  26.096   0.779 -0.4958 -0.1465  0.3655
    1W        W65065  11.113  15.038   1.158  0.1214  0.0912 -0.0434
    1W        W65066   0.300  24.762   2.550  0.0266 -0.0634 -0.0233
    1W        W65067  14.616   6.697   2.020 -0.0699 -0.3357 -0.2489
    1W        W65068  20.640  28.816   1.518 -0.0957 -0.2797 -0.0690
    1W        W65069  13.878   0.440   3.133 -0.0762  0.1488  0.2231
    1W        W65070   6.116   5.507   1.745  0.2182 -0.3169  0.2797
    1W        W65071  21.704  17.346   8.917  0.1849 -0.1049  0.0088
    1W        W65072  11.389  21.004   9.140 -0.0242  0.0569  0.1048
    1W        W65073   0.496  13.739   8.192 -0.4713  0.3090  0.2117
    1W        W65074   9.446   5.971   0.494 -0.0229  0.2807  0.2995
    1W        W65075  10.555  18.745   7.492  0.1855 -0.1012  0.0736
    1W        W65076  15.428  29.604   0.881  0.2658 -0.0600 -0.0217
    1W        W65077  10.710  20.981   8.938 -0.0902  0.0965  0.1568
    1W        W65078  12.835  18.143   8.230  0.1978 -0.4142 -0.0650
    1W        W65079   6.624  25.375   8.203 -0.1403 -0.1836  0.2600
    1W        W65080  26.313  10.022   7.385 -0.0546 -0.0651 -0.1608
    1W        W65081  15.846   9.492   1.836 -0.0634 -0.1836 -0.0937
    1W        W65082   8.723  18.501   0.690  0.0301 -0.1056  0.5481
    1W        W65083   8.884   5.995   6.976 -0.1830 -0.2610 -0.1774
    1W        W65084  12.913  20.238   6.403 -0.0829 -0.3003  0.2517
    1W        W65085   9.811  14.557   6.678  0.0580  0.2503 -0.0825
    1W        W65086   7.612   4.164   9.473 -0.0235  0.0866  0.1647
    1W        W65087  13.031  17.005   1.733 -0.0158  0.2934 -0.0539
    1W        W65088   6.568   4.424   8.639  0.0751  0.4382 -0.0825
    1W        W65089  21.066  17.290   9.471  0.3488 -0.1328  0.0889
    1W        W65090  16.240  26.821   9.025  0.0652  0.1812 -0.0475
    1W        W65091   3.289   8.821   5.650 -0.0795 -0.2616  0.0736
    1W        W65092  15.187   1.364   7.801  0.0550 -0.0254  0.0207
    1W        W65093  14.833   2.139   7.502 -0.2010 -0.0617  0.0430
    1W        W65094   8.486  18.006   6.639  0.1461  0.0051  0.1695
    1W        W65095   9.453  15.341   8.300 -0.1272 -0.0583  0.0995
    1W        W65096   0.121   0.526   7.825 -0.1178 -0.0446  0.0991
    1W        W65097  22.253  21.072   3.561  0.0793 -0.2706 -0.1779
    1W        W65098  25.753  22.935   0.743  0.2618 -0.1767  0.1730
    1W        W65099  16.864  22.135   6.633  0.1348  0.2535  0.4371
    1W        W65100  20.956   0.298   0.198 -0.0249 -0.3348  0.1394
    1W        W65101   0.745   4.778   8.765 -0.3459  0.1745 -0.0646
    1W        W65102  12.165   1.674   6.791  0.1701  0.1431 -0.0999
    1W        W65103   1.142  21.978   0.398  0.2274 -0.1204 -0.1898
    1W        W65104  27.115   3.873   6.395  0.0999  0.1484  0.0252
    1W        W65105  29.549  10.007   6.596  0.0081 -0.0602 -0.0722
    1W        W65106   4.610  28.542   7.406 -0.0009  0.3718 -0.0212
    1W        W65107  17.901  26.605   7.585  0.0863 -0.5287  0.0186
    1W        W65108   3.417  22.007   1.559  0.0990 -0.2245 -0.0451
    1W        W65109   7.044  22.009   1.406  0.1026 -0.1413 -0.3921
    1W        W65110  11.141  18.920   1.136 -0.1431  0.0166  0.1069
    1W        W65111   1.796  17.588   1.658  0.1036  0.0956 -0.0817
    1W        W65112   5.516   9.949   6.054  0.2564 -0.0137  0.2400
    1W        W65113  14.923   0.950   2.479 -0.1929 -0.1504 -0.0057
    1W        W65114  14.736  26.092   2.759 -0.0306  0.0377  0.2241
    1W        W65115   3.683   9.640   0.902 -0.1891 -0.0225  0.0159
    1W        W65116   0.934   2.533   6.760 -0.2795 -0.0599  0.0203
    1W        W65117  20.891  29.051   8.279  0.0509 -0.0112 -0.1610
    1W        W65118   3.629  22.635   8.001  0.0930 -0.2237  0.4976
    1W        W65119   6.527  25.926   2.024  0.0656  0.1525 -0.0713
    1W        W65120  18.526  16.683   9.151 -0.4319 -0.1297  0.1996
    1W        W65121   2.312  27.172   7.986 -0.0382  0.0105  0.2449
    1W        W65122  16.901   5.710   8.233  0.1204 -0.1223  0.1350
    1W        W65123  18.763  17.799   1.948 -0.3253 -0.1505 -0.2012
    1W        W65124   4.400  20.685   2.741  0.0450 -0.1835  0.0323
    1W        W65125  19.415   9.501   9.381 -0.0118  0.1034 -0.0273
    1W        W65126  28.870  19.192   0.030 -0.1378 -0.0819 -0.0541
    1W        W65127   3.389  19.505   8.099 -0.1338  0.2496  0.2765
    1W        W65128  22.272  24.405   0.936  0.0638  0.3880 -0.0555
    1W        W65129   6.930   2.610   8.399  0.0787  0.2276  0.1841
    1W        W65130  10.352   9.244   2.191  0.1479 -0.2857 -0.2412
    1W        W65131   5.203  11.167   5.816  0.0748 -0.0713 -0.1035
    1W        W65132  19.068  15.339   0.463  0.2286 -0.0596 -0.1695
    1W        W65133  13.101   1.133   9.629  0.0622 -0.1219 -0.1126
    1W        W65134   2.741  18.845   2.963  0.2746 -0.0007 -0.2200
    1W        W65135   7.433  10.391   1.002 -0.0342  0.2881  0.1461
    1W        W65136  26.472  12.590   0.319  0.0570 -0.1376 -0.0637
    1W        W65137  24.661   5.206   2.268 -0.0603 -0.2019  0.1644
    1W        W65138  12.483  28.279   8.641  0.0107 -0.0972 -0.2026
    1W        W65139   2.747  28.746   8.120  0.5306 -0.0905  0.0951
    1W        W65140  22.428  11.514   7.965  0.0026  0.2186  0.2927
    1W        W65141  18.868  28.501   9.244 -0.0431 -0.0253  0.4480
    1W        W65142  19.111   1.190   0.101  0.1142 -0.1181  0.1000
    1W        W65143   4.914  26.123   3.368  0.2086 -0.1365 -0.4482
    1W        W65144  20.365  22.859   2.656  0.0787 -0.3216  0.3402
    1W        W65145  22.120   6.454   1.080  0.0837 -0.1470 -0.2284
    1W        W65146  14.173  17.044   0.936 -0.4889  0.0297  0.0627
    1W        W65147  22.167  10.450   0.209 -0.0591 -0.1317 -0.2570
    1W        W65148   2.830  15.250   9.040  0.3918  0.1498 -0.1707
    1W        W65149   0.750  27.421   2.472 -0.1136  0.0319  0.1040
    1W        W65150  22.464  21.278   9.028  0.3942  0.0526 -0.2026
    1W        W65151  29.323  11.831   9.275 -0.1285 -0.1252 -0.2911
    1W        W65152   4.901  22.268   3.177  0.1512  0.3212  0.0945
    1W        W65153   2.112   5.337   1.159 -0.0672  0.2161  0.1142
    1W        W65154  27.254  29.558   3.625 -0.1198  0.2869 -0.0301
    1W        W65155   3.483  15.502   2.778 -0.1291  0.0981  0.0314
    1W        W65156  22.391   9.953   0.322 -0.0186 -0.1667 -0.1540
    1W        W65157  13.081  26.485   7.974 -0.2845  0.0188 -0.0314
    1W        W65158  19.037  23.081   0.121  0.1236  0.0357  0.1583
    1W        W65159   9.099   3.908   0.133  0.0306  0.1754 -0.0147
    1W        W65160   2.074  23.379   9.307  0.0502 -0.0207  0.1158
    1W        W65161   1.904   7.220   7.755 -0.2355 -0.1647  0.2143
    1W        W65162  16.131  13.508   7.157 -0.0327  0.1207 -0.2405
    1W        W65163  11.115  17.653   2.267  0.1287 -0.0360  0.1287
    1W        W65164  12.763   1.228   2.676 -0.0505  0.1041  0.0443
    1W        W65165  27.888  19.728   0.989  0.1646  0.0225  0.0339
    1W        W65166   4.989  14.980   1.723 -0.0276  0.2022 -0.1148
    1W        W65167  15.049  13.036   1.879 -0.0692 -0.0678 -0.0951
    1W        W65168  22.746   0.884   0.199  0.0102 -0.1224  0.0238
    1W        W65169   2.405  26.027   1.541 -0.2222  0.2982 -0.1670
    1W        W65170  11.110   7.369   6.692 -0.1583  0.1415 -0.1529
    1W        W65171  22.445  19.855   0.188  0.1324 -0.3627  0.1077
    1W        W65172   2.870   0.740   6.940 -0.1007 -0.3249 -0.1387
    1W        W65173  22.332  17.088   7.712  0.1909  0.0126 -0.0118
    1W        W65174  26.226  14.853   0.907  0.0685  0.1874  0.2143
    1W        W65175   8.696   7.129   0.475 -0.0982 -0.0306 -0.1706
    1W        W65176  25.493  25.118   8.469 -0.2927 -0.1386 -0.1937
    1W        W65177  27.586  22.203   7.635  0.0655 -0.1051 -0.0696
    1W        W65178  24.503  14.780   6.983 -0.0960  0.0989  0.0220
    1W        W65179   7.834  15.996   1.765  0.1211  0.1659 -0.1887
    1W        W65180  12.038  14.154   0.827 -0.4844  0.0743  0.0202
    1W        W65181  16.913  19.563   7.147 -0.1609  0.2396  0.2162
    1W        W65182  22.139   7.375   7.809 -0.2551 -0.1380 -0.0304
    1W        W65183  12.904  20.768   7.244  0.0728  0.1119  0.0040
    1W        W65184  13.646   0.858   7.428  0.1598  0.3701  0.1683
    1W        W65185  20.010   9.809   1.946  0.3983 -0.2017 -0.0161
    1W        W65186  24.271  17.107   2.489  0.2445 -0.2474  0.1239
    1W        W65187  29.004  23.765   9.103 -0.0423  0.1043 -0.2760
    1W        W65188  23.420  18.560   0.148 -0.2669  0.0936  0.1311
    1W        W65189  23.576  23.362   2.484  0.0301  0.0257  0.2619
    1W        W65190  11.591  22.737   7.456 -0.0020  0.1054 -0.3267
    1W        W65191   8.604  19.813   1.427  0.1054 -0.0472 -0.0687
    1W        W65192  10.793   9.133   6.474 -0.2540 -0.0618  0.0790
    1W        W65193   1.549   9.047   7.919 -0.2436 -0.1435  0.0705
    1W        W65194  20.514  14.342   8.367 -0.0955  0.2115 -0.1083
    1W        W65195  18.684  18.801   7.134 -0.1996  0.0225 -0.3777
    1W        W65196   6.379   8.378   7.588 -0.2327 -0.1943  0.0223
    1W        W65197   4.537  24.720   6.830 -0.1750  0.0717  0.0980
    1W        W65198   6.514  23.932   7.561  0.1549  0.0593  0.0291
    1W        W65199   9.780  14.383   7.505 -0.3102 -0.0033  0.2519
    1W        W65200  24.137   1.449   3.248 -0.1149  0.1032  0.2198
    1W        W65201   2.496  26.578   0.044  0.0748 -0.0918  0.0992
    1W        W65202  21.586   0.165   2.427  0.2745  0.1675 -0.2243
    1W        W65203  24.882  27.316   9.387 -0.0945  0.1042 -0.0979
    1W        W65204   3.703   7.403   8.529 -0.0853  0.0836 -0.0679
    1W        W65205  17.556   6.506   7.375  0.1528  0.1426 -0.0919
    1W        W65206  19.208  10.104   7.365 -0.2410 -0.0928 -0.2373
    1W        W65207   0.201   0.372   1.022  0.0277  0.0034  0.0921
    1W        W65208  28.228   0.712   1.586 -0.1495 -0.0880 -0.0015
    1W        W65209   8.223   6.333   1.898 -0.1120 -0.1741  0.1171
    1W        W65210  19.425   1.861   0.889  0.0475  0.1914 -0.2048
    1W        W65211  28.734  29.515   3.358  0.2856 -0.2724 -0.1821
    1W        W65212  28.252   3.954   0.050 -0.0177 -0.1606 -0.2159
    1W        W65213  28.670  14.750   7.805  0.0709  0.1186  0.1500
    1W        W65214  26.698  15.426   2.029  0.2584  0.2033 -0.1724
    1W        W65215  23.452  17.463   2.700 -0.0870  0.1004  0.1451
    1W        W65216   3.448   9.010   1.423  0.2833 -0.1480 -0.1400
    1W        W65217  24.404   6.295   8.019  0.0796  0.1976  0.1162
    1W        W65218   6.354  23.100   8.585  0.0077 -0.0916 -0.0222
    1W        W65219   1.969  27.882   9.036 -0.0956  0.2481  0.2313
    1W        W65220  11.861  26.035   6.378 -0.0812 -0.1466  0.0634
    1W        W65221  11.070  17.738   1.616 -0.0219  0.0085 -0.2416
    1W        W65222  13.114  28.693   2.143 -0.2534  0.4531 -0.0144
    1W        W65223  12.653  27.311   1.119  0.3881  0.0719  0.0984
    1W        W65224  17.885  13.162   7.729 -0.1360  0.2512  0.0103
    1W        W65225  12.369   7.606   8.896  0.0295 -0.3594  0.0709
    1W        W65226  17.760  23.616   9.545 -0.3294 -0.0085  0.1487
    1W        W65227  27.184   8.934   7.534  0.1083 -0.1375 -0.2339
    1W        W65228  28.412   4.047   1.408 -0.0374  0.1983 -0.1998
    1W        W65229  24.409  25.492   0.356 -0.2518 -0.2739 -0.3464
    1W        W65230   5.749  26.790   0.418  0.0608  0.1098  0.5271
    1W        W65231   5.151   2.776   7.460  0.2409 -0.4140  0.2640
    1W        W65232  16.370  23.667   1.072 -0.1102 -0.0169 -0.0013
    1W        W65233  11.562   2.585   0.580 -0.0778  0.3438 -0.1074
    1W        W65234  24.845  25.415   9.041  0.3166 -0.0226  0.1620
    1W        W65235  28.968   0.015   7.452 -0.0232 -0.0966  0.1466
    1W        W65236  12.571   3.012   9.094 -0.2070 -0.0048  0.0300
    1W        W65237   6.651  24.342   0.581 -0.0263  0.3797  0.1240
    1W        W65238  26.316  20.740   0.093 -0.2515  0.0647  0.3236
    1W        W65239  18.587   1.041   8.091  0.2984  0.2942  0.1928
    1W        W65240  24.155  15.834   7.113  0.2160  0.1593  0.1638
    1W        W65241  12.606   0.874   1.506  0.1905 -0.1942 -0.0400
    1W        W65242   6.713  17.037   0.763  0.1836  0.2838 -0.0761
    1W        W65243   2.257   1.806   0.314  0.0572 -0.1936  0.1850
    1W        W65244   4.340   3.842   8.808  0.0665  0.1582  0.1582
    1W        W65245  20.751  28.668   8.653 -0.3017 -0.1725 -0.2417
    1W        W65246   6.843  23.626   2.051 -0.1561  0.3646  0.0759
    1W        W65247  10.905   8.141   2.590 -0.1146 -0.0810 -0.1758
    1W        W65248  27.036   6.005   1.395  0.2057 -0.0751 -0.1872
    1W        W65249   8.000  26.545   9.431  0.0794 -0.1479 -0.4229
    1W        W65250  16.980  11.711   9.385 -0.1104 -0.1437 -0.1409
    1W        W65251  12.723  25.882   6.501  0.0311  0.3557  0.0877
    1W        W65252  28.219  23.993   2.316  0.0371  0.0947  0.2803
    1W        W65253  27.375  15.096   1.478  0.0518 -0.2096 -0.3837
    1W        W65254  19.163  17.554   1.858  0.1332  0.1784  0.0676
    1W        W65255   3.502  16.857   7.734 -0.3097  0.0677  0.4001
    1W        W65256  11.475  24.538   6.826  0.0025  0.0554  0.2834
    1W        W65257   6.127   7.114   6.402  0.0703  0.1888  0.1794
    1W        W65258  24.888   4.460   7.546 -0.2757 -0.0271 -0.0109
    1W        W65259  26.336  22.676   2.811  0.1497 -0.1353  0.2732
    1W        W65260  25.162  28.072   0.670 -0.1802  0.2107 -0.2240
    1W        W65261  14.758   7.212   7.680  0.1223 -0.1775  0.2283
    1W        W65262  17.600  19.494   6.990 -0.0056  0.0327 -0.1718
    1W        W65263   7.813  27.911   0.890  0.0879  0.1602  0.1405
    1W        W65264  11.395  13.243   0.435  0.1834 -0.0466 -0.2913
    1W        W65265  12.118   7.370   6.915  0.1627 -0.0773  0.1926
    1W        W65266  26.458  28.523   8.052  0.0710 -0.1342  0.0011
    1W        W65267   1.469  13.951   7.358  0.2739 -0.0527  0.1790
    1W        W65268  20.974  24.371   0.456  0.0274  0.1085 -0.0153
    1W        W65269  11.772  26.993   1.413  0.2344  0.1086  0.5580
    1W        W65270  25.049  29.588   2.815  0.2523  0.1173  0.1053
    1W        W65271  11.223  17.983   7.574  0.0695  0.1922  0.2359
    1W        W65272  20.761   5.839   0.438  0.1033 -0.0135 -0.2551
    1W        W65273  21.138   2.828   1.637  0.1149 -0.3803 -0.0733
    1W        W65274  14.123  10.712   2.008  0.1026 -0.0228  0.0340
    1W        W65275  11.809  11.721   0.929 -0.2615 -0.2163 -0.1159
    1W        W65276  29.182  13.776   7.645  0.3261  0.0895  0.1955
    1W        W65277  18.403   1.209   9.026 -0.4410 -0.1006  0.5085
    1W        W65278  12.099   9.441   8.820 -0.0651  0.1062 -0.1326
    1W        W65279   3.479   6.397   0.154  0.0813 -0.0283  0.0023
    1W        W65280   9.613   7.331   0.473 -0.1539 -0.1819  0.1427
    1W        W65281  13.868  28.053   7.829 -0.1496 -0.2444 -0.0989
    1W        W65282   7.095   8.752   6.329  0.4274 -0.0520  0.0056
    1W        W65283  16.884  11.749   8.549  0.0142  0.0576  0.4095
    1W        W65284  18.044  29.213   1.772 -0.2737 -0.0311  0.0072
    1W        W65285   2.872  26.334   8.226 -0.0243  0.0141  0.0574
    1W        W65286  17.292   2.436   1.801  0.0829  0.0803 -0.0804
    1W        W65287  14.238  16.919   9.255  0.1037 -0.1819 -0.0305
    1W        W65288   8.295  16.148   1.878  0.1475  0.1295  0.0210
    1W        W65289  21.056   1.485   3.035 -0.2454 -0.0552 -0.0868
    1W        W65290  17.929   6.234   7.596 -0.1219 -0.1806 -0.3302
    1W        W65291   8.428   9.622   0.023  0.1058  0.1957  0.2651
    1W        W65292   7.727  26.640   1.753  0.1633 -0.1143 -0.3519
    1W        W65293   7.333   7.062   6.777  0.1356  0.3300 -0.0431
    1W        W65294  22.541   2.141   0.653  0.0399  0.2698 -0.1141
    1W        W65295   7.333  27.634   6.841  0.1299  0.2087  0.0744
    1W        W65296  22.525   6.846   0.337 -0.0261 -0.0178  0.3196
    1W        W65297  23.438  23.727   0.167  0.3857  0.3474 -0.1535
    1W        W65298  15.266   1.944   0.652 -0.2920 -0.0167  0.2191
    1W        W65299   5.925   8.192   0.081  0.2389  0.3690 -0.0311
    1W        W65300   2.193  10.982   8.188  0.3152  0.1370 -0.0546
    1W        W65301   8.917  28.879   8.245  0.1681 -0.1030 -0.0590
    1W        W65302  18.485  23.401   9.291  0.0107 -0.0219  0.1439
    1W        W65303   4.790  12.513   2.483  0.2413 -0.0976  0.3205
    1W        W65304  25.438   7.202   1.063  0.3348 -0.2424  0.2672
    1W        W65305  27.354  18.539   1.696 -0.0488  0.3176 -0.2976
    1W        W65306  29.013  10.335   8.442 -0.1463  0.1513  0.2316
    1W        W65307   5.880  23.555   7.893 -0.1635 -0.0147 -0.0141
    1W        W65308   0.644  22.205   0.673 -0.0427 -0.1441 -0.1968
    1W        W65309  21.349  16.678   0.986 -0.1827  0.2305 -0.1752
    1W        W65310   6.248   8.238   6.028 -0.3087 -0.2939 -0.1562
    1W        W65311  12.182   2.230   1.151  0.1229 -0.2556  0.2471
    1W        W65312  16.235   0.885   0.021 -0.1367 -0.1307 -0.1545
    1W        W65313  13.015   6.760   0.918 -0.0348 -0.0751  0.0940
    1W        W65314  12.379  25.281   2.187 -0.0132  0.0031  0.2385
    1W        W65315   1.238  11.216   1.442 -0.2402 -0.1855 -0.1726
    1W        W65316  29.093  26.217   1.025 -0.0089  0.1700  0.0382
    1W        W65317  22.247  16.083   7.946 -0.1095 -0.2432  0.1560
    1W        W65318  29.236  25.353   7.698  0.4107  0.0807 -0.2843
    1W        W65319   7.083  20.965   2.783 -0.1756 -0.0021 -0.0419
    1W        W65320  22.608   5.699   0.752  0.0714  0.5544  0.2577
    1W        W65321  19.494   4.466   7.815  0.0739  0.3485  0.0298
    1W        W65322   7.157   7.071   1.118 -0.1969 -0.2287  0.2229
    1W        W65323  21.402   8.852   0.449 -0.0604 -0.0168 -0.0094
    1W        W65324  25.644  16.697   1.387  0.1514  0.0200 -0.0165
    1W        W65325   3.940   6.951   8.433  0.0782  0.0241  0.1179
    1W        W65326  19.883   9.420   1.657  0.0549 -0.1685  0.0545
    1W        W65327  18.275  12.330   8.466  0.0129  0.0003  0.0139
    1W        W65328  29.362  27.132   1.699 -0.0645  0.0140 -0.0327
    1W        W65329  28.820  11.092   1.987  0.2436  0.3464 -0.3814
    1W        W65330  27.447   1.108   8.900  0.0854  0.1270 -0.1086
    1W        W65331  21.254  19.471   0.199  0.0942 -0.2187 -0.3757
    1W        W65332  29.345  25.094   0.620 -0.0683  0.2568  0.3785
    1W        W65333   2.550  10.730   6.309  0.3005 -0.0335  0.0942
    1W        W65334  10.692  25.609   7.496 -0.2880  0.1385 -0.4437
    1W        W65335  23.963   3.231   7.865  0.0697  0.1345 -0.2107
    1W        W65336   1.528  15.667   7.483  0.1651 -0.0865  0.1719
    1W        W65337   1.742   1.424   7.968 -0.0355  0.0434  0.0699
    1W        W65338  13.943  28.619   2.900  0.1036  0.0657  0.0188
    1W        W65339  20.754  14.983   0.933  0.3336 -0.2382  0.1799
    1W        W65340  15.034   4.411   6.780  0.2167 -0.0873  0.1053
    1W        W65341  27.746  21.598   7.345  0.2682  0.1437 -0.1881
    1W        W65342  27.850  26.449   2.569 -0.3685 -0.2907 -0.1932
    1W        W65343  20.682  17.071   1.378  0.1688  0.1128 -0.1136
    1W        W65344   4.814  11.595   9.377  0.3330  0.3016 -0.0393
    1W        W65345   5.734  23.809   7.201  0.1225 -0.2315 -0.1893
    1W        W65346  24.118  21.497   0.007 -0.2342 -0.0042  0.2494
    1W        W65347   3.406   2.861   0.007 -0.0842  0.0861  0.2625
    1W        W65348   5.246   1.672   1.190 -0.0523 -0.0377 -0.0054
    1W        W65349  21.733  11.718   2.275 -0.0415  0.1906 -0.3027
    1W        W65350  21.385  27.891   0.910 -0.3439  0.0916 -0.1023
    1W        W65351  20.466  27.585   8.810 -0.1620  0.0794  0.1626
    1W        W65352  26.328  21.801   7.488 -0.1009  0.1920 -0.0534
    1W        W65353   4.030  14.828   0.705 -0.0431 -0.0070 -0.0008
    1W        W65354  24.954  24.884   1.065 -0.0273 -0.2748 -0.0202
    1W        W65355   2.703  12.983   6.481  0.2242 -0.0397 -0.1201
    1W        W65356  17.038   4.884   6.506 -0.3479 -0.1133  0.1219
    1W        W65357   1.345  26.161   2.458 -0.0653 -0.2317  0.1386
    1W        W65358  21.728   0.040   9.323  0.5802 -0.0250  0.3339
    1W        W65359  20.369  26.363   9.096 -0.2137 -0.0780  0.1475
    1W        W65360  15.126  24.696   2.758  0.1292  0.1592  0.1104
    1W        W65361  10.174   7.958   8.971  0.1291  0.0469  0.1925
    1W        W65362  15.418   8.041   8.726  0.0535 -0.3537 -0.0585
    1W        W65363  10.950  19.727   7.724  0.1162 -0.1652 -0.3154
    1W        W65364  23.305   2.926   1.155  0.0751 -0.1294  0.3170
    1W        W65365  16.039   4.988   6.632 -0.3897  0.0240 -0.0609
    1W        W65366  25.748   9.367   2.395 -0.0284  0.1352 -0.3351
    1W        W65367  14.289  11.218   0.953  0.3163  0.0395  0.1029
    1W        W65368  15.047  17.414   0.240  0.0730  0.2523  0.3776
    1W        W65369  27.032  12.530   7.652 -0.0433 -0.0944 -0.2303
    1W        W65370  28.269   0.787   2.486  0.0334 -0.0546 -0.1977
    1W        W65371  25.212   6.572   0.192  0.2708  0.0435  0.0784
    1W        W65372   7.995   9.637   2.094  0.1619  0.0742  0.3671
    1W        W65373  27.671   0.541   8.355  0.3626 -0.0663  0.1944
    1W        W65374  27.363  10.178   7.662 -0.1860 -0.0320  0.1159
    1W        W65375  24.952  16.177   7.502 -0.1345  0.0098 -0.1752
    1W        W65376  10.265  13.775   6.049 -0.0399 -0.2087 -0.1446
    1W        W65377   4.879  10.770   7.323  0.0928 -0.2044  0.1116
    1W        W65378   8.460  12.492   7.017 -0.0560 -0.2432  0.1836
    1W        W65379  13.902  15.863   7.414  0.0417  0.2099 -0.0889
    1W        W65380  15.218   1.704   9.197 -0.0061 -0.0701  0.1013
    1W        W65381   1.305  17.085   2.496  0.3313 -0.2392  0.2085
    1W        W65382  28.116  11.216   2.812 -0.2035  0.1097  0.2826
    1W        W65383   8.302   3.450   7.078 -0.1826  0.2537  0.3085
    1W        W65384  12.693  10.948   0.748 -0.2982  0.3612 -0.0614
    1W        W65385  26.178  25.737   0.586 -0.0386 -0.6932  0.1062
    1W        W65386   5.724   9.344   0.546  0.1665  0.0480 -0.0357
    1W        W65387  19.562  29.147   0.400 -0.0337 -0.0394  0.0255
    1W        W65388   0.724  19.907   0.756  0.1415  0.0059  0.1265
    1W        W65389   3.822  24.192   0.342 -0.3475 -0.0791  0.1522
    1W        W65390  25.933  22.656   7.512 -0.1962  0.2948 -0.1678
    1W        W65391  19.113  10.041   0.935 -0.2260 -0.0637 -0.0538
    1W        W65392  23.189  21.661   2.994 -0.0645 -0.3322 -0.2870
    1W        W65393  18.205  24.579   8.826  0.1196  0.3354  0.3256
    1W        W65394  13.151  20.254   5.828  0.2593  0.0747 -0.0768
    1W        W65395  25.609  22.881   2.361  0.1331  0.0265  0.2029
    1W        W65396   1.957  26.003   3.199  0.0223  0.3294 -0.1819
    1W        W65397  12.183  13.998   1.460  0.3174  0.0997  0.3205
    1W        W65398  22.141  11.129   1.661 -0.3016 -0.0316 -0.0091
    1W        W65399  22.275  17.773   7.602  0.0208 -0.1713  0.0675
    1W        W65400  11.575   9.172   8.982  0.2305  0.1367  0.2110
    1W        W65401   7.427   4.838   6.306 -0.2593  0.0658  0.1924
    1W        W65402  17.378   1.565   1.583 -0.0381  0.1263 -0.1390
    1W        W65403  18.301  22.863   3.044 -0.3994  0.2215 -0.2074
    1W        W65404  25.471  26.569   3.585 -0.1387 -0.2386 -0.0813
    1W        W65405   2.564   4.426   9.643  0.1706 -0.1302 -0.1657
    1W        W65406  17.893  27.125   1.787 -0.0727  0.0352 -0.3826
    1W        W65407  27.676  29.367   0.584  0.2428  0.0220 -0.0170
    1W        W65408   4.193  26.380   9.227  0.2110 -0.1539 -0.2299
    1W        W65409  10.805   7.404   9.628 -0.0391  0.1055 -0.0050
    1W        W65410  14.672   6.179   2.111 -0.0867  0.1586  0.1829
    1W        W65411   3.362   8.681   0.268  0.1084  0.0286 -0.0092
    1W        W65412   0.313  10.320   7.401  0.4271  0.0319  0.1065
    1W        W65413   7.633  12.382   7.664  0.0500  0.2410 -0.2204
    1W        W65414   0.043  21.848   2.268  0.0531  0.1302 -0.0976
    1W        W65415  28.986  13.377   7.854 -0.0783 -0.0675 -0.2815
    1W        W65416  22.720  29.448   1.246  0.0802 -0.2791  0.4618
    1W        W65417  16.627   4.932   2.076  0.0047  0.2295 -0.0558
    1W        W65418   3.651  19.978   9.489  0.1672  0.1943 -0.1993
    1W        W65419   7.314  22.866   7.350 -0.0702 -0.2797  0.0475
    1W        W65420  15.898   4.305   7.298  0.3114  0.6291  0.0494
    1W        W65421  14.401   1.051   8.383 -0.1523  0.0541  0.2143
    1W        W65422   9.641  28.117   2.384 -0.1270 -0.2657  0.0221
    1W        W65423  17.506  18.092   7.235  0.1499 -0.2071 -0.0058
    1W        W65424   3.826  27.842   0.510  0.1661 -0.3714 -0.4063
    1W        W65425  16.328  27.783   2.204 -0.1857 -0.0492 -0.3494
    1W        W65426   8.172   7.458   5.974 -0.2971 -0.0215  0.3016
    1W        W65427  17.702  15.967   1.195  0.3769  0.0201 -0.1199
    1W        W65428   8.093   6.631   9.187  0.1218 -0.2002  0.2620
    1W        W65429  27.701  17.184   1.254  0.2258  0.2165 -0.3906
    1W        W65430   5.504  18.720   9.069  0.1093  0.2130 -0.1439
    1W        W65431   9.366   2.459   6.295 -0.0439  0.0680  0.1071
    1W        W65432  22.768  12.543   0.910 -0.1972 -0.0612 -0.0836
    1W        W65433  24.165  22.726   8.556 -0.1496 -0.1592 -0.1029
    1W        W65434  26.296   2.349   0.793  0.0753  0.1777 -0.0045
    1W        W65435  12.579  23.297   6.625  0.1090 -0.1048 -0.0228
    1W        W65436   5.939  27.729   6.571  0.0255  0.0566  0.2056
    1W        W65437   0.020  21.348   9.295 -0.2360  0.3395  0.1048
    1W        W65438   0.161   6.370   7.332  0.1025  0.0550  0.0647
    1W        W65439  27.768  27.709   1.493 -0.3349 -0.0689  0.4830
    1W        W65440   6.508  21.897   9.512 -0.1175  0.0808 -0.0027
    1W        W65441   3.949  22.852   2.680  0.2114 -0.2950  0.2074
    1W        W65442   2.397   9.505   9.357 -0.1045 -0.1223 -0.0374
    1W        W65443  20.838  17.763   9.387 -0.1933 -0.2070 -0.2644
    1W        W65444  25.739  28.050   7.774  0.0130  0.3405 -0.2445
    1W        W65445  18.310  21.676   6.977 -0.1056 -0.3019 -0.2687
    1W        W65446  23.611  28.999   2.262  0.1292  0.1868 -0.0400
    1W        W65447  22.321  16.534   8.384  0.1130  0.5484  0.2182
    1W        W65448   7.212  15.158   0.644 -0.0561 -0.2064 -0.2331
    1W        W65449   6.596   0.872   7.559  0.1933  0.1563  0.0499
    1W        W65450  16.293  22.151   7.593 -0.2106  0.0177  0.2075
    1W        W65451   7.257   7.084   5.854 -0.1547  0.0236  0.1014
    1W        W65452   3.268   6.047   1.894  0.0293 -0.4205  0.0728
    1W        W65453   7.107  24.660   7.460 -0.1048  0.2125 -0.0852
    1W        W65454  21.181  14.650   1.849  0.0700 -0.0848  0.1666
    1W        W65455  20.112  21.896   9.236  0.0951  0.0301  0.2057
    1W        W65456   0.620  17.323   7.740  0.0277  0.1764 -0.0552
    1W        W65457  26.214  13.944   0.424 -0.0444 -0.0465 -0.2868
    1W        W65458  21.431   1.759   8.542 -0.2463  0.0390 -0.2681
    1W        W65459   4.457   2.993   9.344  0.3501 -0.1765  0.3637
    1W        W65460   1.406  24.332   0.809 -0.1531 -0.3070 -0.0514
    1W        W65461   2.275   8.650   7.181  0.2224 -0.0571 -0.0746
    1W        W65462   9.399  27.782   6.773  0.1450 -0.0543 -0.2209
    1W        W65463  14.217   6.542   1.168 -0.1416  0.4264 -0.1390
    1W        W65464   0.045  16.381   8.339  0.0740 -0.1695 -0.1678
    1W        W65465  22.058  24.699   2.663  0.0195  0.0180  0.0590
    1W        W65466  12.510  28.466   8.207 -0.0772  0.0402 -0.1756
    1W        W65467   8.024  16.813   6.840 -0.0823 -0.1129  0.1999
    1W        W65468  13.798   9.633   1.493 -0.0922 -0.1684 -0.4386
    1W        W65469  10.289   0.322   6.436 -0.0266 -0.1052 -0.3678
    1W        W65470  21.628  10.805   0.927 -0.2107 -0.2746  0.0996
    1W        W65471  21.425   5.217   8.716 -0.0203  0.3119 -0.1777
    1W        W65472  19.042   2.901   3.347  0.1491  0.1240 -0.2629
    1W        W65473   2.597   1.644   1.340  0.2246 -0.0862  0.2603
    1W        W65474   7.634   2.092   1.782 -0.2614 -0.0913 -0.0291
    1W        W65475  24.064  23.536   8.209  0.1583 -0.0220  0.3386
    1W        W65476  23.327   6.024   1.209 -0.1100  0.1040  0.0834
    1W        W65477  18.759  23.203   3.247 -0.1919  0.1088  0.3940
    1W        W65478  13.727  18.212   7.224  0.2338  0.0070  0.0355
    1W        W65479   7.701  27.359   2.447 -0.0013  0.0706  0.0452
    1W        W65480  23.549   3.326   1.492 -0.3419  0.0497  0.1281
    1W        W65481  25.689  17.005   0.090 -0.1171  0.1319  0.0138
    1W        W65482   4.954  15.688   7.118  0.2220  0.2777 -0.1115
    1W        W65483   9.614  23.567   8.460  0.1532  0.2795 -0.0704
    1W        W65484  19.438  16.526   2.398  0.0151 -0.0025  0.1278
    1W        W65485   5.852   7.330   0.315  0.1007 -0.0537 -0.0654
    1W        W65486  22.396   6.307   9.023 -0.0905  0.1603 -0.2603
    1W        W65487  15.990  21.715   2.061  0.1271 -0.2597  0.1661
    1W        W65488  11.530  10.344   2.115 -0.3058  0.0797  0.0874
    1W        W65489  15.382  10.744   1.062  0.2037  0.1350 -0.4151
    1W        W65490   8.177   1.838   9.359  0.1880 -0.2354 -0.1474
    1W        W65491   0.456  20.663   9.021  0.0350  0.1385  0.0066
    1W        W65492  15.138  19.931   6.547  0.3258 -0.1587  0.1471
    1W        W65493  12.492  20.824   7.668 -0.0875  0.1513  0.2387
    1W        W65494   5.644  17.151   9.454  0.2485 -0.2403  0.1476
    1W        W65495   8.763  11.994   8.852  0.2027  0.2048 -0.0905
    1W        W65496  15.838  13.365   0.600 -0.1444 -0.0317 -0.1099
    1W        W65497  20.367  20.354   2.570 -0.1399  0.0864  0.0436
    1W        W65498  15.396  10.938   9.534 -0.0894  0.1462 -0.1654
    1W        W65499  12.278  10.571   5.818  0.0935  0.1600 -0.1292
    1W        W65500  28.694  28.839   2.734 -0.0871  0.2353  0.0069
    1W        W65501   8.936  17.923   0.784  0.1516  0.0254 -0.0726
    1W        W65502   5.570  11.043   1.221  0.1518 -0.1275 -0.0034
    1W        W65503  26.529  25.648   2.872 -0.0693  0.0165 -0.0384
    1W        W65504   0.817  21.984   2.516 -0.1406 -0.1423  0.0596
    1W        W65505  12.843  23.425   8.385  0.0919 -0.1896 -0.0511
    1W        W65506  18.760  27.278   2.241 -0.0891  0.0198 -0.0185
    1W        W65507   4.418   9.292   7.773 -0.1497  0.1150 -0.2855
    1W        W65508  25.513  12.991   0.264  0.2394 -0.1281 -0.1148
    1W        W65509   6.954   4.447   2.155  0.0210 -0.0498 -0.0477
    1W        W65510  28.548   7.812   7.607  0.0513 -0.0199  0.1031
    1W        W65511  28.743  20.501   2.953  0.1550 -0.1730 -0.2333
    1W        W65512   6.127   0.075   2.488 -0.0785 -0.4014  0.1637
    1W        W65513  24.249  13.090   0.125  0.2064  0.1194  0.1416
    1W        W65514   4.813   7.467   8.072  0.0731  0.2740 -0.3455
    1W        W65515  20.253  22.273   2.571  0.1054 -0.0145 -0.3194
    1W        W65516   0.440  23.584   7.434  0.1563 -0.0360  0.1821
    1W        W65517  21.878  21.081   9.044  0.0541  0.1424 -0.1614
    1W        W65518  11.179  16.530   8.302 -0.0526  0.3580  0.2044
    1W        W65519  11.800  15.847   8.474  0.1929  0.2360  0.5535
    1W        W65520  21.000  21.610   2.213 -0.2096 -0.1389 -0.2260
    1W        W65521  11.243  10.670   8.954 -0.0294 -0.2429  0.3090
    1W        W65522  24.625  10.768   0.581  0.0511 -0.0521 -0.2869
    1W        W65523   1.632  14.075   8.500 -0.1910  0.1721 -0.2417
    1W        W65524  20.614  15.673   1.594  0.3880  0.3109 -0.3203
    1W        W65525  11.765  27.606   8.736  0.0820 -0.2225 -0.0425
    1W        W65526  12.866  13.983   6.250 -0.3031 -0.0036 -0.0976
    1WF      WF65527  17.941  27.515   0.682 -0.2653 -0.2210  0.0534
    1WF      WF65528  10.247  11.282   0.097  0.0434  0.0586  0.0248
    1WF      WF65529   3.800   9.975   7.665  0.3299  0.0262 -0.1023
    1WF      WF65530  19.680   3.249   0.833 -0.0101  0.2154 -0.0402
    1WF      WF65531   3.433  19.527   0.829  0.0076  0.1051 -0.1008
    1WF      WF65532   5.313   8.882   1.444 -0.0306 -0.0546  0.0180
    1WF      WF65533  11.087  13.268   1.388  0.3408  0.0645  0.2104
    1WF      WF65534   0.311   9.414   0.364  0.2971 -0.0398 -0.1627
    1WF      WF65535  19.249  20.547   2.240 -0.1422 -0.1202  0.1802
    1WF      WF65536  15.828  19.331   0.277 -0.2056 -0.1699  0.0017
    1WF      WF65537  22.828   0.238   0.140  0.0163 -0.2361 -0.1799
    1WF      WF65538  28.584  10.494   9.333  0.0749 -0.0162  0.0239
    1WF      WF65539  16.666  26.503   0.603 -0.3418  0.1194 -0.2275
    1WF      WF65540  23.773  24.869   8.171 -0.1994  0.1074 -0.2205
    1WF      WF65541  27.166  13.550   1.413 -0.1236 -0.2485 -0.0547
    1WF      WF65542  26.305  24.283   1.431 -0.2270 -0.0225  0.0658
    1WF      WF65543  22.588  29.065   2.236  0.4238 -0.2347 -0.0630
    1WF      WF65544   5.220  21.507   2.037 -0.1131  0.1759  0.0880
    1WF      WF65545  15.809  19.882   0.409 -0.1142  0.1272  0.1164
    1WF      WF65546  20.482   2.731   0.830 -0.1619 -0.1060  0.1739
    1WF      WF65547  12.973  29.282   6.801  0.1368  0.2448 -0.0387
    1WF      WF65548   6.534  23.425   6.621 -0.4032  0.1889 -0.2582
    1WF      WF65549   7.443  18.611   1.171 -0.0425  0.2147  0.3657
    1WF      WF65550  15.846  25.493   9.222 -0.2998 -0.1591 -0.4984
    1WF      WF65551   7.350   1.582   8.004  0.4182 -0.3437 -0.1357
    1WF      WF65552   4.602  25.584   8.802 -0.2268  0.0364  0.3094
    1WF      WF65553   2.030  18.437   8.912  0.1900  0.2520  0.0115
    1WF      WF65554  11.161  27.316   2.413  0.0010  0.1424 -0.0983
    1WF      WF65555  27.425   2.106   0.140  0.3352 -0.0697 -0.1438
    1WF      WF65556  21.075   5.252   1.225 -0.1863 -0.0885  0.0213
    1WF      WF65557  13.533  12.889   6.636  0.1159  0.1365  0.0798
    1WF      WF65558  11.091   2.183   7.190 -0.1583 -0.1011  0.0630
    1WF      WF65559  21.642  20.253   1.151 -0.0003  0.1908  0.1728
    1WF      WF65560  17.127  26.440   1.453 -0.0608  0.1854 -0.1274
    1WF      WF65561   9.805  13.718   9.148 -0.2768 -0.0070  0.0517
    1WF      WF65562  13.303   2.132   8.033 -0.4295 -0.2431 -0.0665
    1WF      WF65563   1.726  28.582   9.612  0.1788 -0.1442 -0.1858
    1WF      WF65564  28.895  22.406   7.193 -0.0623 -0.1357  0.0276
    1WF      WF65565  11.908   5.170   0.193 -0.0474  0.0403  0.0796
    1WF      WF65566   4.803  19.641   8.151 -0.1731 -0.1040  0.1059
    1WF      WF65567   2.433   9.695   7.797 -0.0031 -0.1357  0.1501
    1WF      WF65568  29.159   6.981   9.137  0.1456  0.0547 -0.1989
    1WF      WF65569  22.993  21.495   6.798 -0.2086 -0.3210 -0.1115
    1WF      WF65570  23.042   7.629   0.424  0.2146  0.3157  0.1554
    1WF      WF65571  10.153   8.360   1.375 -0.0353  0.0020  0.1047
    1WF      WF65572  12.321  19.134   8.975  0.1040 -0.0570  0.0962
    1WF      WF65573  10.017  24.039   0.106  0.1441 -0.0281  0.1018
    1WF      WF65574  18.054  27.320   1.128 -0.2398 -0.1471 -0.0809
    1WF      WF65575   4.986   0.085   7.534 -0.0788  0.1354 -0.3368
    1WF      WF65576  19.582  26.166   2.604 -0.0621  0.1197 -0.0634
    1WF      WF65577  13.366  17.729   1.142 -0.0356 -0.3098  0.2103
    1WF      WF65578  27.108  10.348   8.367  0.1448 -0.0442 -0.0525
    1WF      WF65579  21.613  17.681   8.113 -0.2600  0.0313 -0.0776
    1WF      WF65580   8.958   4.180   8.857  0.1768  0.1602  0.0255
    1WF      WF65581   1.981   0.085   8.070 -0.0524  0.1159 -0.5744
    1WF      WF65582  26.784  26.340   2.329 -0.2310  0.0936 -0.0691
    1WF      WF65583  12.264  10.687   9.086  0.3790  0.2034  0.3073
    1WF      WF65584  14.293  26.405   6.734 -0.4222 -0.0459 -0.2647
    1WF      WF65585  26.711  12.168   8.094 -0.1637  0.1617  0.1000
    1WF      WF65586  10.083   8.144   0.926  0.1897 -0.0730  0.1688
    1WF      WF65587   8.318   9.855   6.897  0.1340 -0.4258 -0.1219
    1WF      WF65588  26.956  21.426   3.672  0.0231  0.3062 -0.0571
    1WF      WF65589   8.325   8.714   9.518  0.2881  0.0224 -0.2115
    1WF      WF65590  10.849  21.667   2.508  0.0321  0.1153 -0.1157
    1WF      WF65591  13.542   7.878   8.337  0.1392  0.2802 -0.1957
    1WF      WF65592  11.631   9.911   8.101 -0.3037  0.1462 -0.4088
    1WF      WF65593   9.859  18.119   6.998  0.1133  0.0432  0.1322
    1WF      WF65594  24.613  23.946   7.725  0.0420  0.0433  0.0953
    1WF      WF65595  22.648  14.665   8.009 -0.0788 -0.0750  0.1879
    1WF      WF65596  10.266   7.372   9.016  0.2536 -0.1801 -0.0202
    1WF      WF65597  28.002  22.569   6.698  0.0644  0.1855  0.0774
    1WF      WF65598   6.710   7.442   0.672 -0.0321  0.1224  0.0210
    1WF      WF65599   5.237   9.563   7.434 -0.1081 -0.1877  0.0047
    1WF      WF65600  12.681  23.197   7.214  0.0907  0.3055 -0.1211
    1WF      WF65601  26.625   9.299   8.631 -0.0282  0.4638 -0.0840
    1WF      WF65602   8.680  21.452   9.069  0.1032  0.1670 -0.2194
    1WF      WF65603  22.129  19.809   9.184  0.2141  0.0210  0.3669
    1WF      WF65604  28.546   1.320   2.440 -0.0294 -0.1252 -0.1045
    1WF      WF65605   7.184  20.971   9.305 -0.3200 -0.1147  0.0300
    1WF      WF65606  26.956  29.344   9.023  0.1546 -0.1944 -0.1350
    1WF      WF65607   9.792  20.186   2.635 -0.0840  0.0860  0.1618
    1WF      WF65608  22.698  27.457   7.492 -0.1398  0.1435 -0.2783
    1WF      WF65609  28.645  11.947   0.621 -0.1238  0.0500 -0.2642
    1WF      WF65610  27.913   4.789   1.560 -0.1701  0.0823 -0.1709
    1WF      WF65611   8.763  17.879   7.180  0.0070  0.1154  0.0844
    1WF      WF65612  27.125  14.964   9.647 -0.2605 -0.0997  0.0377
    1WF      WF65613  29.395  13.473   8.332  0.3319  0.2315 -0.1965
    1WF      WF65614  15.874   9.416   9.481 -0.0736  0.3297  0.0034
    1WF      WF65615  27.141   1.055   1.757  0.0123 -0.1052  0.0764
    1WF      WF65616  21.285  27.791   7.922  0.1610 -0.0720 -0.0527
    1WF      WF65617  20.357  21.216   0.957 -0.0483 -0.0914  0.0220
    1WF      WF65618  16.764  27.285   0.878 -0.0892 -0.1029  0.0909
    1WF      WF65619  27.272  10.850   8.272  0.0417 -0.1661 -0.2318
    1WF      WF65620   9.139   2.976   6.504  0.0060  0.2933 -0.0870
    1WF      WF65621  22.495  26.777   1.003 -0.1803 -0.1517  0.1842
    1WF      WF65622  12.384   5.566   9.173  0.3330  0.1121  0.0599
    1WF      WF65623   0.555  13.595   2.164 -0.4561  0.3299  0.2093
    1WF      WF65624  23.125  28.981   7.958  0.2506  0.1659 -0.0849
    1WF      WF65625   0.936   6.353   0.970  0.0739 -0.3208 -0.0517
    1WF      WF65626  26.340  26.724   2.788 -0.0476 -0.0853  0.0362
    1WF      WF65627  19.776   8.021   9.052  0.2651  0.2175 -0.0457
    1WF      WF65628  12.992   2.503   0.952 -0.1581 -0.0400 -0.1607
    1WF      WF65629  25.322  13.545   9.600 -0.3176 -0.0324 -0.2659
    1WF      WF65630   3.961   5.860   2.424 -0.1970 -0.0750  0.1113
    1WF      WF65631  20.686  26.296   1.999 -0.2656  0.2772  0.0923
    1WF      WF65632  19.959  18.164   9.218 -0.2179  0.0922 -0.2159
    1WF      WF65633   1.230   1.496   8.334  0.3083 -0.1361 -0.2456
    1WF      WF65634  22.294  14.090   0.268  0.3018  0.3831 -0.0100
    1WF      WF65635  26.760  18.159   8.182  0.3273  0.1308  0.0826
    1WF      WF65636  11.473  14.604   0.052 -0.0155 -0.1684  0.2545
    1WF      WF65637  25.734   0.393   0.688 -0.1028 -0.3459 -0.1102
    1WF      WF65638  29.049  12.510   7.993  0.1848  0.2653  0.2765
    1WF      WF65639  15.368   3.523   7.691 -0.5535 -0.1703 -0.1486
    1WF      WF65640  17.035   2.010   7.628 -0.2296 -0.2173  0.1648
    1WF      WF65641  10.542   3.084   0.907 -0.0180  0.0252  0.2720
    1WF      WF65642  18.967  15.111   1.009 -0.1019 -0.1837  0.1205
    1WF      WF65643   9.332  12.197   8.941 -0.3452 -0.0098 -0.0497
    1WF      WF65644  22.533  22.302   1.595 -0.2154  0.1662  0.0139
    1WF      WF65645   5.406  26.356   9.395 -0.2106 -0.2675  0.0322
    1WF      WF65646   4.844  24.030   0.912  0.1210 -0.0807  0.3095
    1WF      WF65647   6.560  12.401   7.311 -0.0604  0.3258  0.0855
    1WF      WF65648  12.755  13.891   9.350  0.1167 -0.1497  0.2573
    1WF      WF65649  24.745  15.008   0.497 -0.0521 -0.2253 -0.2319
    1WF      WF65650  21.281   9.093   8.951  0.1294 -0.0646  0.1165
    1WF      WF65651  14.891  15.753   0.857  0.1599  0.3045 -0.1056
    1WF      WF65652  23.890   0.225   1.569 -0.0482 -0.1881  0.3301
    1WF      WF65653   9.529  21.732   9.529 -0.2678 -0.2938  0.0400
    1WF      WF65654  28.097   9.508   1.332 -0.2606  0.1369  0.2452
    1WF      WF65655   3.178  10.328   7.522 -0.0962  0.0602 -0.0463
    1WF      WF65656  11.993  24.609   0.407 -0.0331 -0.0972  0.0883
    1WF      WF65657  21.966   7.177   2.394 -0.1863 -0.0809  0.1132
    1WF      WF65658  14.940   4.010   0.810 -0.0039  0.0002 -0.0585
    1WF      WF65659  25.184  18.206   0.884 -0.0576 -0.2758 -0.1724
    1WF      WF65660  24.092   2.546   1.829  0.1215  0.1504 -0.2518
    1WF      WF65661  27.733   6.419   0.303 -0.1117 -0.1730  0.1195
    1WF      WF65662  10.906  28.658   1.010 -0.2258 -0.2661  0.1020
    1WF      WF65663   8.694  17.170   1.215 -0.0791  0.3497 -0.1285
    1WF      WF65664   0.892  18.275   9.524 -0.0013 -0.1586  0.2735
    1WF      WF65665  20.666  22.130   1.995 -0.1681  0.1451 -0.0452
    1WF      WF65666  21.214  15.700   8.759  0.1101 -0.0046 -0.1517
    1WF      WF65667  27.356   2.693   7.094  0.0681 -0.1323 -0.1223
    1WF      WF65668  17.834  20.831   0.545  0.2240 -0.2044  0.1577
    1WF      WF65669  13.948  18.924   1.175  0.1439  0.0148  0.2600
    1WF      WF65670   0.012   0.936   0.665 -0.0623 -0.0490  0.0442
    1WF      WF65671  10.289  15.525   2.321 -0.1182 -0.1550 -0.1631
    1WF      WF65672   1.364  25.943   9.113 -0.0168  0.0229 -0.0181
    1WF      WF65673  10.393  24.762   8.697  0.2026  0.0337  0.0763
    1WF      WF65674   3.413   0.744   1.783 -0.0612  0.2223 -0.0276
    1WF      WF65675  10.167  24.048   1.739 -0.0531  0.1622  0.1001
    1WF      WF65676   4.045   7.202   2.343  0.0248 -0.2152  0.1366
    1WF      WF65677   7.155   1.881   8.975 -0.0640  0.2674  0.0650
    1WF      WF65678  19.319   8.694   1.178 -0.1322  0.0044 -0.2134
    1WF      WF65679   8.373  27.872   1.216  0.1248 -0.1583 -0.1097
    1WF      WF65680   0.929  17.889   1.422  0.0679  0.0594 -0.1046
    1WF      WF65681   3.051   8.010   5.955  0.1541 -0.0405 -0.0294
    1WF      WF65682   6.140  28.566   7.664 -0.0471  0.0634  0.1305
    1WF      WF65683  22.284  16.532   9.034 -0.3312 -0.0733  0.0416
    1WF      WF65684  27.568  13.541   0.437  0.0746  0.0894  0.1807
    1WF      WF65685   2.031  22.287   0.804 -0.0572  0.1433 -0.2412
    1WF      WF65686   8.827   5.026   0.496  0.1123  0.4167  0.0033
    1WF      WF65687  20.904  22.368   2.424  0.0362  0.2797 -0.2509
    1WF      WF65688  10.662  11.019   8.287  0.0481  0.2337  0.2753
    1WF      WF65689  10.045  22.202   7.953 -0.1809  0.0079  0.2074
    1WF      WF65690  25.955  28.565   8.662 -0.0680  0.0161  0.1656
    1WF      WF65691  29.541   8.297   7.908  0.1932 -0.2495 -0.3883
    1WF      WF65692   6.380  27.215   5.895  0.0257  0.0679  0.0184
    1WF      WF65693  13.312  11.496   9.267 -0.1083  0.1027 -0.3897
    1WF      WF65694  20.439  22.281   1.568 -0.1031  0.1562 -0.2159
    1WF      WF65695  24.411  22.501   9.538 -0.0005  0.1111  0.0635
    1WF      WF65696  16.427   8.515   8.351 -0.4506 -0.0833  0.2108
    1WF      WF65697   9.795   6.393   1.113 -0.1835  0.0703 -0.0688
    1WF      WF65698  11.829  19.725   7.083 -0.0040 -0.2049  0.0891
    1WF      WF65699   3.040   7.549   2.204  0.2847  0.3258  0.1120
    1WF      WF65700  14.767   0.831   7.087 -0.1909 -0.1721  0.3794
    1WF      WF65701  24.968  19.528   0.465  0.3399 -0.1919 -0.1619
    1WF      WF65702   0.099   8.588   6.059  0.0302 -0.2031  0.0842
    1WF      WF65703   0.470   8.887   0.376  0.0014 -0.1013 -0.1378
    1WF      WF65704  18.585   4.669   0.661 -0.0053 -0.0541 -0.3073
    1WF      WF65705  11.661  14.491   6.549  0.1211  0.2467 -0.1104
    1WF      WF65706   4.664   7.557   8.677 -0.0038 -0.0139  0.4929
    1WF      WF65707  10.477   7.076   8.722 -0.1930 -0.0819 -0.0677
    1WF      WF65708  19.086   5.465   9.035 -0.1233 -0.0977 -0.0026
    1WF      WF65709   5.485  10.840   0.612  0.1006 -0.1890 -0.2515
    1WF      WF65710  11.424   4.093   2.346  0.0892 -0.3266  0.1686
    1WF      WF65711  18.293   3.048   0.945 -0.1158  0.0273 -0.3262
    1WF      WF65712   3.710  11.875   0.350  0.1739 -0.2213 -0.0700
    1WF      WF65713  24.747  18.062   8.215 -0.0140 -0.2257  0.3582
    1WF      WF65714  14.301  29.241   1.058 -0.1365  0.2552  0.0151
    1WF      WF65715  12.703  16.316   1.182  0.1687 -0.2315 -0.2260
    1WF      WF65716  18.942  21.599   0.179  0.1228  0.2028  0.1520
    1WF      WF65717   6.730  13.547   8.896  0.2378 -0.0114  0.0423
    1WF      WF65718  26.487  29.175   1.299 -0.3954 -0.0866  0.0277
    1WF      WF65719  23.082  17.888   1.245  0.0307 -0.1819  0.0399
    1WF      WF65720  18.267  19.340   9.114 -0.1469 -0.0887 -0.3135
    1WF      WF65721  10.082  14.090   8.959  0.1065 -0.2346  0.3201
    1WF      WF65722  26.158  12.846   9.113  0.1628  0.1566 -0.1006
    1WF      WF65723   0.950   4.100   8.598  0.0074 -0.0468 -0.0151
    1WF      WF65724   8.141  28.255   1.471 -0.4104 -0.2354  0.1606
    1WF      WF65725  14.580   4.353   0.651 -0.0935 -0.0083 -0.3564
    1WF      WF65726   8.628   2.122   6.191  0.1243 -0.1222 -0.0138
    1WF      WF65727  23.200  25.888   0.774 -0.0910 -0.2855 -0.0973
    1WF      WF65728   8.943  10.088   6.298  0.2573 -0.0614 -0.0662
    1WF      WF65729   9.058   0.643   8.458 -0.1976 -0.1976  0.0178
    1WF      WF65730   3.356  13.425   0.853 -0.1620  0.3677 -0.0797
    1WF      WF65731  10.665  23.532   8.279  0.1475  0.1071 -0.3083
    1WF      WF65732  12.041   0.702   9.619  0.0036 -0.0231  0.0227
    1WF      WF65733  28.586   8.547   0.481 -0.0352  0.2602 -0.2342
    1WF      WF65734  16.813  20.099   8.812  0.1446  0.0679 -0.2769
    1WF      WF65735   6.053  27.110   7.590 -0.0306 -0.3351 -0.0260
    1WF      WF65736   5.786   2.340   2.935 -0.0063 -0.1761  0.0285
    1WF      WF65737  23.073  19.695   1.641  0.2984  0.2822 -0.2008
    1WF      WF65738  17.196   3.261   0.225 -0.0012 -0.3988  0.0191
    1WF      WF65739  17.199  22.893   2.192 -0.0561  0.1454 -0.2535
    1WF      WF65740  13.156   8.590   0.323 -0.1147  0.1935  0.0898
    1WF      WF65741  17.124  27.767   0.758  0.1862 -0.0415 -0.0230
    1WF      WF65742  12.670  27.951   0.231 -0.0543 -0.0336  0.0027
    1WF      WF65743   6.447   3.845   8.475  0.1404 -0.1897 -0.0175
    1WF      WF65744  19.754  19.849   0.895 -0.2919  0.2593 -0.2803
    1WF      WF65745   9.747  19.999   9.340  0.0438  0.0155 -0.2179
    1WF      WF65746   4.330  10.875   8.758 -0.0884  0.2791 -0.3078
    1WF      WF65747  20.062  16.034   1.707  0.0417  0.2281 -0.3435
    1WF      WF65748  10.561   0.164   9.385  0.0831  0.2545  0.1064
    1WF      WF65749  13.335  13.052   6.184  0.2652 -0.1652 -0.0330
    1WF      WF65750  16.315  19.855   8.649 -0.0433  0.1814 -0.1967
    1WF      WF65751  22.974  18.185   0.922 -0.1528  0.0465  0.5235
    1WF      WF65752  25.703  15.804   8.674  0.1228 -0.0422 -0.0628
    1WF      WF65753  28.719  21.604   1.840  0.1209 -0.1327 -0.0273
    1WF      WF65754   7.039  27.501   7.379  0.0750  0.2735  0.3584
    1WF      WF65755  19.124   9.680   0.302 -0.1040 -0.1424  0.0061
    1WF      WF65756  22.252  17.134   8.618 -0.1216  0.0044 -0.2712
    1WF      WF65757  10.980  25.394   0.199  0.1274  0.0656 -0.3750
    1WF      WF65758  25.744  18.991   1.954  0.2383 -0.3621  0.0488
    1WF      WF65759  29.199  24.659   7.817 -0.1768 -0.3309  0.1435
    1WF      WF65760  24.199  16.391   1.070  0.2267 -0.1641  0.2231
    1WF      WF65761   8.596  24.570   1.348 -0.1599  0.2315  0.0005
    1WF      WF65762  21.520  16.093   0.500  0.5035 -0.0811 -0.0413
    1WF      WF65763  26.210  21.897   1.113  0.3318  0.3150 -0.1826
    1WF      WF65764  25.593  23.582   8.619  0.0494  0.0672  0.0628
    1WF      WF65765   1.804   2.394   1.170 -0.2381 -0.1773  0.1680
    1WF      WF65766   9.597  10.103   8.924  0.0842 -0.0890  0.2332
    1WF      WF65767   1.286  24.400   1.749 -0.2757  0.0488 -0.1497
    1WF      WF65768  14.784   0.839   0.701  0.0509  0.1413  0.2647
    1WF      WF65769  12.228  13.379   0.339  0.1305  0.0532 -0.2018
    1WF      WF65770  18.122   2.509   8.100  0.0809 -0.0170 -0.2788
    1WF      WF65771  25.967  22.011   0.712 -0.2237 -0.0316  0.0805
    1WF      WF65772  19.200   8.778   0.673  0.0949 -0.0330  0.2901
    1WF      WF65773   6.697  18.490   9.121 -0.0422 -0.0610 -0.0903
    1WF      WF65774  26.075   4.946   9.412 -0.0498  0.1349  0.1342
    1WF      WF65775  28.067  27.951   3.438  0.4206  0.1770  0.0552
    1WF      WF65776   9.419   4.964   0.565  0.0328 -0.3589  0.1098
    1WF      WF65777   1.908   5.411   0.295  0.0660  0.0263  0.2752
    1WF      WF65778   4.475  28.855   8.245  0.0170 -0.3904  0.1332
    1WF      WF65779   7.590  13.730   5.735  0.2612 -0.0420 -0.3021
    1WF      WF65780   8.073  15.933   1.031  0.1698 -0.1234  0.2656
    1WF      WF65781   8.139   8.461   1.306 -0.1512  0.0044  0.1358
    1WF      WF65782  19.180   4.790   0.812  0.0349  0.0114 -0.0509
    1WF      WF65783  20.565  15.239   7.405  0.1425 -0.1356  0.0802
    1WF      WF65784  17.679  26.648   2.152  0.1530 -0.0533  0.1251
    1WF      WF65785  27.580  17.367   8.247 -0.0974  0.1585  0.2407
    1WF      WF65786   6.668  29.562   9.076 -0.0951  0.1219  0.0876
    1WF      WF65787   1.201   1.814   7.979  0.3444  0.1186 -0.0808
    1WF      WF65788   8.246   1.573   0.635 -0.3180 -0.1105 -0.2546
    1WF      WF65789  21.937  28.049   1.895  0.1837  0.2367 -0.0251
    1WF      WF65790   4.704  10.073   9.162 -0.1519  0.1101 -0.2580
    1WF      WF65791  11.718  28.371   0.670 -0.1006  0.4205  0.0993
    1WF      WF65792   6.226  27.865   1.341  0.2588 -0.0754 -0.1794
    1WF      WF65793  17.222  23.790   3.439 -0.0473  0.0564 -0.0362
    1WF      WF65794  21.812  10.999   0.320  0.1522  0.0466 -0.2846
    1WF      WF65795  25.020  15.399   0.566 -0.1638 -0.1598  0.1452
    1WF      WF65796   0.678  29.444   9.602 -0.2617 -0.0875 -0.3913
    1WF      WF65797   7.289   4.100   1.276 -0.1299 -0.2890  0.0708
    1WF      WF65798  28.320   2.892   1.828 -0.2131  0.1724  0.0932
    1WF      WF65799   1.283  20.194   0.506  0.2728  0.2431 -0.0284
    1WF      WF65800  13.648  11.556   0.087  0.1451  0.0219  0.0336
    1WF      WF65801   0.703  21.049   0.697  0.1509  0.2570 -0.1059
    1WF      WF65802  25.077  13.398   9.211 -0.3542 -0.1394  0.1460
    1WF      WF65803  18.198   2.956   0.459 -0.1002  0.0216  0.2211
    1WF      WF65804  23.036  23.903   1.475 -0.2666  0.2023  0.2823
    1WF      WF65805  14.464  27.448   8.027 -0.0793  0.2366  0.1930
    1WF      WF65806   2.668  23.473   0.992  0.0253  0.0276 -0.3520
    1WF      WF65807  11.911   7.850   7.787  0.4909 -0.1586  0.0483
    1WF      WF65808  17.988   6.265   0.414  0.3642  0.1472  0.1825
    1WF      WF65809  20.700  12.913   9.325  0.0005  0.0215 -0.0067
    1WF      WF65810  24.462  27.712   9.504 -0.1781 -0.1172  0.0081
    1WF      WF65811  10.577  16.163   0.305 -0.2182 -0.2711  0.4334
    1WF      WF65812  11.366  26.051   1.410  0.1406 -0.1977 -0.0066
    1WF      WF65813  10.036   2.738   7.506  0.2860  0.1837  0.0478
    1WF      WF65814  10.899  16.332   0.716 -0.1077 -0.0755  0.0116
    1WF      WF65815   8.583   2.032   0.751  0.1260  0.0971 -0.1972
    1WF      WF65816  29.384  15.766   1.764  0.0238  0.0328  0.1385
    1WF      WF65817  17.222   8.378   1.021  0.0949 -0.1295  0.0134
    1WF      WF65818   7.216  17.124   0.072  0.0186  0.0979  0.1078
    1WF      WF65819   6.510  10.453   7.284  0.0312  0.1487  0.0233
    1WF      WF65820   6.498  22.403   8.562 -0.0314  0.0893 -0.0219
    1WF      WF65821   0.292   9.693   7.329 -0.0127 -0.0191  0.1063
    1WF      WF65822  25.888  24.476   1.280  0.1757 -0.2133 -0.2349
    1WF      WF65823  10.532  14.770   0.968 -0.0126 -0.0940 -0.2617
    1WF      WF65824   1.606  29.279   1.307 -0.3788 -0.0236  0.4177
    1WF      WF65825  14.240  12.333   2.615 -0.1887  0.0694 -0.2742
    1WF      WF65826  11.042  23.344   8.565  0.0426  0.1882  0.1011
    1WF      WF65827  16.944   6.301   6.628 -0.0003  0.0681 -0.2220
    1WF      WF65828  16.941   5.295   0.818 -0.2462  0.2290 -0.0235
    1WF      WF65829  26.899  18.172   0.320  0.4519  0.0096 -0.1681
    1WF      WF65830  10.112  21.161   8.655  0.1112  0.1349 -0.1681
    1WF      WF65831  24.670   5.200   8.689  0.1760 -0.2062  0.0366
    1WF      WF65832  25.127  10.654   2.541 -0.1057  0.3111 -0.0805
    1WF      WF65833  22.146  21.209   1.654  0.1080 -0.1134  0.1632
    1WF      WF65834   9.471  10.602   8.907  0.0156  0.2475 -0.0882
    1WF      WF65835  14.857   7.070   8.691  0.0032  0.1575  0.2701
    1WF      WF65836   9.514  28.462   1.400 -0.0744  0.1555  0.1121
    1WF      WF65837  12.247   5.437   0.024 -0.0986  0.2330  0.0939
    1WF      WF65838  16.778   3.648   8.608 -0.1464  0.1588 -0.1115
    1WF      WF65839  24.215   0.135   1.906  0.0594 -0.0478 -0.0847
    1WF      WF65840  16.618   2.287   8.932  0.1726  0.2299  0.0970
    1WF      WF65841   2.236  19.635   1.268  0.1256 -0.0838  0.1125
    1WF      WF65842  23.623  25.224   8.998 -0.3712 -0.0454  0.0953
    1WF      WF65843  10.567  22.028   8.321 -0.1836 -0.0646  0.0247
    1WF      WF65844   9.073   4.634   9.010  0.1897  0.1027  0.3624
    1WF      WF65845   5.967  11.697   0.466 -0.3069  0.1985  0.0355
    1WF      WF65846  20.507   3.882   9.332 -0.1117 -0.0979 -0.0108
    1WF      WF65847   8.038  27.532   0.068 -0.3963 -0.0205  0.3923
    1WF      WF65848   6.378  27.812   0.076 -0.2564 -0.1265  0.0563
    1WF      WF65849  28.349   2.345   1.744 -0.1201 -0.1906 -0.0056
    1WF      WF65850  23.667  20.506   1.517  0.0697  0.0325 -0.0772
    1WF      WF65851  18.742  28.340   2.039  0.1984  0.1767  0.1919
    1WF      WF65852  26.127  29.437   6.921 -0.0005  0.2649 -0.1095
    1WF      WF65853  21.158  20.213   0.687 -0.1092  0.1001 -0.0750
    1WF      WF65854  21.835  16.442   0.784 -0.0806 -0.2611  0.1087
    1WF      WF65855  21.658  19.707   9.314  0.0158  0.0733 -0.1214
    1WF      WF65856  19.896  13.898   1.485 -0.0314  0.2063 -0.1213
    1WF      WF65857  24.988  20.139   0.403  0.2663 -0.0823  0.1132
    1WF      WF65858  19.933   8.382   1.221  0.1015 -0.2709 -0.1190
    1WF      WF65859  29.138  10.143   7.880 -0.1030 -0.2324  0.0684
    1WF      WF65860  12.198  11.286   7.166 -0.2819 -0.1548  0.0002
    1WF      WF65861   9.753  27.258   1.807 -0.0398  0.1394 -0.1130
    1WF      WF65862  29.208  19.514   9.274 -0.0040  0.0449  0.4365
    1WF      WF65863   9.594  16.420   7.961 -0.1112  0.1404 -0.1035
    1WF      WF65864   9.908   4.454   9.099 -0.1786 -0.1550  0.2131
    1WF      WF65865  29.576  24.116   1.177  0.1964  0.0539 -0.0641
    1WF      WF65866  17.036  22.498   1.943  0.0940 -0.2708  0.3001
    1WF      WF65867  10.107  27.873   0.367 -0.0367 -0.0062 -0.0866
    1WF      WF65868  14.589  24.726   5.930  0.1627  0.0034 -0.1427
    1WF      WF65869  23.566  15.753   2.024  0.0618 -0.1314 -0.0419
    1WF      WF65870   1.130  23.623   6.823 -0.4078 -0.0833  0.1541
    1WF      WF65871  29.268  19.884   9.576 -0.1101 -0.1298  0.1598
    1WF      WF65872  21.837  22.245   0.692  0.2091  0.2317 -0.0882
    1WF      WF65873  17.144  15.310   1.272 -0.0423  0.3250 -0.0621
    1WF      WF65874   8.699  26.880   7.057 -0.1521  0.1899  0.0827
    1WF      WF65875  27.411  28.236   1.029 -0.3138  0.2075 -0.1214
    1WF      WF65876  24.973   2.162   0.468  0.1487  0.2827 -0.0612
    1WF      WF65877  12.740  21.950   8.179  0.1055 -0.1343  0.3047
    1WF      WF65878  29.343  25.442   7.119  0.0717  0.0389  0.1971
    1WF      WF65879  22.180  12.245   8.180 -0.0813 -0.2172  0.4448
    1WF      WF65880  24.003  19.153   8.403 -0.0778 -0.1170  0.4728
    1WF      WF65881  16.686  21.921   7.967  0.1542 -0.0645 -0.0971
    1WF      WF65882   6.352  21.189   1.788 -0.1985 -0.4193 -0.1139
    1WF      WF65883  24.679  14.176   1.646 -0.0200 -0.2726 -0.1025
    1WF      WF65884   2.775  22.751   0.393  0.2065 -0.0894  0.1665
    1WF      WF65885  18.891   8.417   0.971  0.1100 -0.0879  0.1136
    1WF      WF65886   3.843  15.707   0.408 -0.0999  0.1055 -0.0728
    1WF      WF65887   3.229  18.991   8.229 -0.2213  0.2997  0.0655
    1WF      WF65888   4.992  27.776   3.412  0.0970 -0.0702 -0.2160
    1WF      WF65889  29.510  22.709   9.559  0.0449  0.0204  0.1593
    1WF      WF65890  28.975   2.947   9.403  0.1825  0.1202 -0.0789
    1WF      WF65891   4.642   5.346   8.387 -0.2366  0.0155 -0.0843
    1WF      WF65892  19.975  19.302   2.445 -0.2968  0.0470 -0.0501
    1WF      WF65893  10.347   1.631   1.641 -0.2310  0.1297 -0.4029
    1WF      WF65894  15.877  13.235   2.295 -0.1766 -0.2209 -0.2917
    1WF      WF65895  27.764  20.934   3.200  0.1301  0.1109  0.1848
    1WF      WF65896   1.936  23.452   2.725  0.0873  0.1563  0.2565
    1WF      WF65897  17.259  16.646   9.474  0.0737  0.0313 -0.1852
    1WF      WF65898  19.554   0.792   0.134 -0.3233  0.0634 -0.1046
    1WF      WF65899  26.832   2.487   7.170  0.0309  0.2514  0.0764
    1WF      WF65900  13.701  26.154   1.743  0.1253  0.1790  0.0828
    1WF      WF65901  24.329   4.241   2.439 -0.3340  0.0372  0.2875
    1WF      WF65902  21.833  11.237   9.486 -0.1689 -0.0936 -0.1429
    1WF      WF65903   3.187   3.092   0.763 -0.1963 -0.0732  0.0850
    1WF      WF65904  25.646   9.924   8.506 -0.3348  0.0503 -0.0465
    1WF      WF65905  10.655   4.875   8.194  0.0201  0.3481 -0.2579
    1WF      WF65906  16.367  17.595   0.843 -0.2187 -0.1700 -0.0326
    1WF      WF65907  13.523  27.630   0.114 -0.0462 -0.0485  0.0519
    1WF      WF65908  16.890  14.155   2.328  0.1119 -0.1221 -0.0113
    1WF      WF65909  27.150  13.343   7.930 -0.0301 -0.0450  0.0956
    1WF      WF65910   9.135  20.062   8.916  0.3751 -0.5096 -0.0598
    1WF      WF65911   0.555  14.815   2.025 -0.0793  0.3933 -0.1840
    1WF      WF65912  18.908  26.072   1.963 -0.3624 -0.1277 -0.2178
    1WF      WF65913  16.431  16.059   0.171 -0.0263  0.3218 -0.0600
    1WF      WF65914  20.399   0.492   3.928 -0.5144 -0.0434  0.0659
    1WF      WF65915  10.244  25.920   0.541  0.2051  0.0140  0.0570
    1WF      WF65916   9.669  14.969   1.387  0.2557  0.3437  0.2354
    1WF      WF65917  22.649  22.037   1.181 -0.3208 -0.1165 -0.0239
    1WF      WF65918   0.829  17.981   3.097 -0.0296 -0.0900 -0.1280
    1WF      WF65919   9.528  24.608   8.496 -0.0945 -0.2911 -0.1402
    1WF      WF65920   4.954  20.868   8.357 -0.0933 -0.0586  0.1863
    1WF      WF65921   0.150  19.065   0.361 -0.0131  0.1690 -0.2196
    1WF      WF65922  19.029   9.838   1.498  0.2323  0.3585  0.1412
    1WF      WF65923  28.647  22.857   9.502  0.2836 -0.3278  0.5477
    1WF      WF65924  14.767   5.113   1.013  0.3174 -0.1537  0.1487
    1WF      WF65925   3.790  19.285   0.528 -0.1321 -0.1269 -0.4277
    1WF      WF65926   5.420   2.457   9.423  0.1768 -0.1465  0.1822
    1WF      WF65927  29.146  14.683   8.673 -0.2105  0.1529  0.1100
    1WF      WF65928   7.859   2.499   7.193  0.0149 -0.1730  0.3620
    1WF      WF65929  24.169  13.748   1.002  0.0090 -0.2319  0.5472
    1WF      WF65930  19.714  23.741   1.468  0.0781  0.1269  0.0421
    1WF      WF65931   8.705  20.776   1.708  0.0800  0.0891 -0.0808
    1WF      WF65932  14.755   5.308   9.330  0.0825  0.1086  0.0050
    1WF      WF65933  21.654  28.460   9.433  0.0836 -0.3301 -0.0123
    1WF      WF65934  23.967  19.419   1.459  0.3305  0.0103 -0.1499
    1WF      WF65935  26.793  14.596   0.011  0.0756  0.2277  0.0122
    1WF      WF65936   9.813  21.171   0.530 -0.0091 -0.0286 -0.0856
    1WF      WF65937  12.563  23.544   0.456  0.0902 -0.0881 -0.2830
    1WF      WF65938  25.945  16.285   8.676 -0.1195 -0.3559  0.0392
    1WF      WF65939  28.505   8.945   8.775 -0.3919  0.2017  0.1271
    1WF      WF65940   7.029   3.881   9.266  0.0596 -0.1020 -0.4296
    1WF      WF65941  22.144  22.008   9.397  0.1251 -0.2078  0.1432
    1WF      WF65942   1.669   2.153   1.609 -0.0892 -0.0807 -0.1551
    1WF      WF65943  13.481  10.472   8.715  0.1269  0.4697 -0.0653
    1WF      WF65944   8.581  23.220   1.278 -0.0367  0.2097  0.0247
    1WF      WF65945  16.266  17.617   1.343 -0.0096 -0.1713 -0.4524
    1WF      WF65946  17.643  18.517   1.341  0.0576  0.0310 -0.0772
    1WF      WF65947   9.343  28.744   1.773 -0.1027  0.0964  0.2042
    1WF      WF65948  25.423   7.148   0.181  0.0064  0.1413  0.1545
    1WF      WF65949  22.164   3.274   7.966  0.1338  0.0072  0.0571
    1WF      WF65950  14.708  14.758   8.625 -0.3043 -0.0049  0.0314
    1WF      WF65951  26.898  14.181   9.408 -0.2190  0.1217  0.0732
    1WF      WF65952   4.275   2.743   8.462  0.3067 -0.0406  0.0073
    1WF      WF65953   7.618  21.205   6.994 -0.1872 -0.0139  0.0459
    1WF      WF65954  16.253  20.649   2.400  0.0000  0.2565  0.1210
    1WF      WF65955   8.473  17.748   8.735 -0.1853 -0.1926 -0.1704
    1WF      WF65956  20.528  25.750   9.058 -0.0384  0.0934 -0.1288
    1WF      WF65957  21.411  26.392   1.395 -0.0175 -0.3634 -0.0519
    1WF      WF65958  13.524  23.162   8.929  0.0729  0.1565  0.0572
    1WF      WF65959   3.156  17.500   7.966 -0.6806  0.0625 -0.4056
    1WF      WF65960  13.169  24.865   9.019 -0.0403  0.1336  0.2324
    1WF      WF65961  26.692  17.997   3.820 -0.2118  0.0444 -0.2763
    1WF      WF65962  24.396   0.611   2.039 -0.0869  0.3191  0.0305
    1WF      WF65963  28.291  18.172   3.275  0.1924 -0.2463 -0.1067
    1WF      WF65964  25.122  25.645   0.315 -0.1704 -0.0768 -0.0980
    1WF      WF65965  24.358  11.002   8.524 -0.2903  0.0196  0.1213
    1WF      WF65966  16.385  15.675   2.830  0.4459  0.0002 -0.0753
    1WF      WF65967  28.649  16.067   1.237  0.0777 -0.0562  0.0325
    1WF      WF65968   4.766  13.244   0.281  0.0395 -0.0159 -0.1081
    1WF      WF65969   9.437   8.642   2.251  0.0094  0.0061  0.1406
    1WF      WF65970  18.843  29.565   9.040  0.1273 -0.0081 -0.0202
    1WF      WF65971  26.698  19.514   2.187 -0.3886  0.1706  0.2112
    1WF      WF65972   9.715  12.145   8.504  0.0597 -0.3778 -0.0135
    1WF      WF65973   3.308  13.139   8.219 -0.0019 -0.1966 -0.1499
    1WF      WF65974   0.056  25.585   1.679  0.1159 -0.4145  0.0384
    1WF      WF65975  16.797  14.146   2.873 -0.3355  0.0570 -0.1706
    1WF      WF65976   2.293  21.133   2.285  0.2904 -0.1249 -0.0305
    1WF      WF65977  16.300  21.528   9.348 -0.0601  0.0597 -0.0759
    1WF      WF65978  24.401  19.731   8.712  0.1890 -0.4609 -0.0337
    1WF      WF65979  24.277   7.369   2.341  0.1777 -0.0037  0.0241
    1WF      WF65980  14.624   9.327   0.947 -0.2455 -0.0435 -0.0955
    1WF      WF65981   5.869  27.490   2.205 -0.2133  0.2279  0.0237
    1WF      WF65982  17.003  11.373   1.050  0.3569  0.0332 -0.2115
    1WF      WF65983  12.874   2.111   6.468  0.0253 -0.2688 -0.2591
    1WF      WF65984   9.560   4.796   9.012  0.1225  0.1627  0.0117
    1WF      WF65985   3.640  10.339   7.349 -0.0825 -0.4834  0.1878
    1WF      WF65986  19.202  10.292   8.677  0.2505  0.0052 -0.2784
    1WF      WF65987  21.368   9.885   8.684 -0.2906  0.2123  0.1623
    1WF      WF65988   4.659  18.933   0.688  0.2132 -0.0907  0.0180
    1WF      WF65989   7.224   3.092   0.057 -0.0564 -0.0081  0.0252
    1WF      WF65990  25.229   6.605   8.395  0.0824 -0.0261 -0.0746
    1WF      WF65991  15.999  18.021   1.157  0.5533 -0.1976  0.0425
    1WF      WF65992  17.545   6.400   8.051  0.3446  0.3813  0.4017
    1WF      WF65993  16.158   7.744   9.377 -0.3388  0.0071  0.0102
    1WF      WF65994  20.990  22.357   0.427  0.1146  0.1873 -0.2272
    1WF      WF65995  21.991  27.437   8.675 -0.1966 -0.1746  0.0271
    1WF      WF65996  12.686  20.071   8.383 -0.0165 -0.1494  0.0472
    1WF      WF65997  25.949  26.410   2.760 -0.1157  0.0450  0.1334
    1WF      WF65998   4.419  27.196   1.242 -0.0005 -0.0841  0.0405
    1WF      WF65999   8.579  16.168   1.287 -0.3999  0.2244  0.0100
    1WF      WF66000  11.178  20.603   0.327 -0.2450 -0.1214 -0.0756
    1WF      WF66001  13.408   7.701   1.088  0.2693  0.1157  0.2536
    1WF      WF66002  12.179  11.919   8.444  0.2909 -0.1700 -0.2824
    1WF      WF66003   4.923   7.850   7.611 -0.1127  0.2461  0.4136
    1WF      WF66004   0.346  22.854   0.103 -0.3314  0.0437 -0.1431
    1WF      WF66005  16.977   0.423   3.294 -0.1980  0.1968 -0.1563
    1WF      WF66006  29.293  23.142   1.941 -0.2201 -0.2475 -0.0679
    1WF      WF66007  21.284   6.255   6.890 -0.3216  0.0640 -0.2062
    1WF      WF66008   1.800  19.923   1.345  0.1676 -0.2332 -0.0199
    1WF      WF66009  12.431  13.097   9.497  0.0458  0.0450 -0.1624
    1WF      WF66010   7.650   6.073   8.030  0.1984  0.1735  0.0904
    1WF      WF66011  26.722  28.165   9.152  0.0138 -0.2428  0.1432
    1WF      WF66012  24.086   6.269   9.553  0.0083 -0.1496  0.0766
    1WF      WF66013  23.531  25.449   3.865 -0.0356 -0.1371 -0.0729
    1WF      WF66014  18.540  25.815   1.592  0.2072 -0.1856 -0.1216
    1WF      WF66015   2.027  17.595   1.016  0.4390  0.0214  0.2574
    1WF      WF66016   7.932   8.726   8.825  0.2909 -0.3524  0.0586
    1WF      WF66017  27.619  26.796   9.195  0.0517 -0.0946 -0.1136
    1WF      WF66018  21.041  20.623   0.265 -0.1836 -0.2180  0.1752
    1WF      WF66019  27.673   3.673   0.041 -0.0439  0.2821 -0.0278
    1WF      WF66020  25.377  29.402   8.636 -0.1252 -0.1208  0.3455
    1WF      WF66021  21.546   1.282   1.968 -0.1082  0.3246  0.0221
    1WF      WF66022  28.339  26.994   8.397 -0.1102  0.2998 -0.4282
    1WF      WF66023   3.301   4.031   9.186 -0.0002 -0.0410 -0.1682
    1WF      WF66024  26.000  23.556   8.348 -0.1360 -0.1655  0.0623
    1WF      WF66025  23.528   0.018   1.337 -0.0491  0.1757  0.0174
    1WF      WF66026   6.400  13.837   1.924  0.0384 -0.1388  0.0155
    1WF      WF66027   6.680  27.288   7.091 -0.4783  0.1872 -0.1911
    1WF      WF66028  11.808  15.935   2.633 -0.1943 -0.3379 -0.1288
    1WF      WF66029  21.278   8.900   9.490 -0.0250  0.0643 -0.1252
    1WF      WF66030   1.703  18.080   8.284 -0.2372 -0.1840 -0.2763
    1WF      WF66031  22.773  18.510   0.126 -0.3329  0.1656  0.0250
    1WF      WF66032   4.655  20.983   9.376 -0.0471 -0.1832  0.0765
    1WF      WF66033   5.113  12.717   8.310 -0.2534  0.0867  0.0460
    1WF      WF66034  24.691  27.705   7.398  0.0563 -0.1820 -0.3485
    1WF      WF66035  24.564  28.781   2.403 -0.0328  0.2755 -0.1032
    1WF      WF66036  11.266   0.537   1.089  0.1048  0.1950 -0.2090
    1WF      WF66037   1.171  19.293   3.001 -0.1645  0.0076 -0.3433
    1WF      WF66038   6.327  25.600   7.580  0.0734  0.1612  0.0053
    1WF      WF66039   1.906  16.383   9.067 -0.1968 -0.0195  0.1113
    1WF      WF66040   6.039  28.071   7.656 -0.4602  0.1735  0.0372
    1WF      WF66041  10.019   8.826   6.925 -0.0091 -0.0821 -0.0315
    1WF      WF66042  22.590  24.385   9.607  0.0982 -0.0028  0.0532
    1WF      WF66043  25.521  22.295   0.779  0.0785  0.0512 -0.1599
    1WF      WF66044   9.732  26.936   8.590  0.0835 -0.3073  0.2892
    1WF      WF66045  11.342  11.308   5.560  0.0646 -0.2156 -0.0302
    1WF      WF66046  24.239   7.740   2.011 -0.0385 -0.0778 -0.2495
    1WF      WF66047   0.036  19.584   1.145 -0.2229  0.0476  0.0495
    1WF      WF66048   7.090  13.335   0.616  0.0842 -0.0199  0.2189
    1WF      WF66049   4.055  20.868   3.684 -0.0370 -0.2081 -0.0408
    1WF      WF66050   4.180  22.495   8.153 -0.0182 -0.1975 -0.0531
    1WF      WF66051  25.217  22.558   0.495  0.2156  0.0425  0.1504
    1WF      WF66052  28.712  27.063   8.001 -0.0722  0.0254 -0.0486
    1WF      WF66053  25.727  19.789   1.575  0.1338  0.0693  0.2486
    1WF      WF66054  12.335  21.641   8.160 -0.2644  0.0161  0.1068
    1WF      WF66055   2.565  24.264   9.483  0.2446 -0.2398  0.2776
    1WF      WF66056  10.420  14.031   7.634 -0.1776  0.1042 -0.2811
    1WF      WF66057  12.614   5.678   8.736  0.1747  0.1536  0.3083
    1WF      WF66058  29.266  28.149   3.015  0.0381 -0.2075 -0.5582
    1WF      WF66059  23.531   4.344   9.465  0.2776  0.0340  0.1764
    1WF      WF66060  29.077  21.228   9.002  0.0525 -0.1626  0.0467
    1WF      WF66061  10.657   1.514   7.790 -0.1505 -0.0948  0.0083
    1WF      WF66062   9.078   2.215   1.620  0.0271 -0.1858  0.0501
    1WF      WF66063  15.548   4.953   0.128 -0.0027 -0.2194  0.2597
    1WF      WF66064   5.458  10.656   0.133 -0.0312  0.0301 -0.1938
    1WF      WF66065  16.135   0.137   7.682 -0.1535 -0.3024 -0.2817
    1WF      WF66066  11.256   7.049   2.533  0.0397  0.2354  0.2901
    1WF      WF66067  13.259  27.628   8.560 -0.0287 -0.0102 -0.2448
    1WF      WF66068  18.574  15.365   0.800 -0.1182  0.2126  0.0849
    1WF      WF66069   0.830   8.500   7.904 -0.1121 -0.0904  0.0500
    1WF      WF66070  28.429  21.589   2.657 -0.3914 -0.4138  0.1050
    1WF      WF66071  24.242  13.392   1.355 -0.3252  0.1022  0.1970
    1WF      WF66072  10.910  11.213   0.411  0.1924  0.1653  0.0129
    1WF      WF66073  16.624   7.262   9.204 -0.2527 -0.1755  0.1451
    1WF      WF66074   3.317   4.047   6.116  0.3387 -0.0806  0.1377
    1WF      WF66075  10.175   4.105   8.737 -0.1350  0.0397  0.0951
    1WF      WF66076  22.644  28.657   2.680  0.1085  0.2341  0.1070
    1WF      WF66077   5.292   9.217   7.817 -0.1017  0.1351  0.0397
    1WF      WF66078  12.245  11.729   6.734 -0.2019  0.2758  0.2402
    1WF      WF66079  15.271   2.345   1.091  0.5051  0.0973 -0.1174
    1WF      WF66080  14.660  24.651   9.293  0.2203 -0.2189  0.2746
    1WF      WF66081  11.087   8.624   1.744  0.0589  0.1092 -0.1830
    1WF      WF66082  16.718  20.887   8.913  0.1876 -0.2045  0.1346
    1WF      WF66083  24.597  17.876   8.682 -0.0779  0.2099 -0.1119
    1WF      WF66084   9.782   7.108   6.560  0.2229 -0.1242  0.0909
    1WF      WF66085   3.473  26.708   7.458  0.1020 -0.2350 -0.1991
    1WF      WF66086  10.817  12.426   0.841  0.0485  0.0946 -0.0596
    1WF      WF66087   4.288  21.490   7.319  0.1513  0.0036  0.2244
    1WF      WF66088  14.713  10.740   1.103 -0.0921  0.0258  0.1344
    1WF      WF66089  28.362  15.567   1.359 -0.0407 -0.1258 -0.0714
    1WF      WF66090   8.541  24.155   1.619 -0.0880 -0.0058 -0.3535
    1WF      WF66091  20.768  20.589   8.230 -0.0190 -0.0240  0.0080
    1WF      WF66092  20.520   8.393   9.603 -0.1241 -0.3038  0.0548
    1WF      WF66093  15.977  13.545   0.038  0.1739 -0.0436  0.1550
    1WF      WF66094  13.717  27.542   9.318  0.1501  0.1898  0.4133
    1WF      WF66095  25.825   2.332   1.163 -0.2544 -0.2928  0.0655
    1WF      WF66096  12.292   8.186   1.245  0.3542  0.2104  0.1316
    1WF      WF66097  10.866  19.235   7.403 -0.1519 -0.0556 -0.1546
    1WF      WF66098  16.668   2.730   1.922  0.0058 -0.1646 -0.2783
    1WF      WF66099  27.927  11.551   8.336 -0.1016  0.2224  0.1587
    1WF      WF66100  11.865  13.717   7.509 -0.2219  0.2703 -0.0486
    1WF      WF66101  13.235  14.148   9.351  0.0828  0.3290 -0.0152
    1WF      WF66102  13.134   8.217   8.437 -0.2407  0.0105 -0.2142
    1WF      WF66103   0.860  29.507   8.262  0.0152  0.0107 -0.1839
    1WF      WF66104  15.702  23.546   9.573 -0.1422 -0.1358  0.0594
    1WF      WF66105  10.909   2.817   6.224 -0.0954  0.0021  0.2440
    1WF      WF66106  19.502  19.835   0.464  0.1541 -0.1885 -0.0331
    1WF      WF66107  15.616  29.352   1.469 -0.1163 -0.0823  0.0837
    1WF      WF66108   7.942  27.574   1.324 -0.0742  0.0848  0.1886
    1WF      WF66109  18.789   8.623   9.145  0.2698  0.3901 -0.0488
    1WF      WF66110  11.053  27.344   0.878 -0.1063  0.1904 -0.1203
    1WF      WF66111   8.952   6.252   8.037  0.0440 -0.2715  0.3121
    1WF      WF66112  15.019  25.319   0.198  0.3427  0.2165  0.1927
    1WF      WF66113  13.123   6.987   1.659 -0.0997  0.1800  0.0611
    1WF      WF66114   1.813   5.483   7.270 -0.1931  0.0916 -0.0134
    1WF      WF66115  29.502   1.900   9.198  0.0187  0.0694  0.2714
    1WF      WF66116  18.407  21.293   0.273 -0.1620  0.2295 -0.3687
    1WF      WF66117  22.710  24.721   9.268 -0.1390  0.2443 -0.0851
    1WF      WF66118  23.261   5.493   0.642  0.2399 -0.1899 -0.3032
    1WF      WF66119  28.366   0.548   0.218 -0.2046 -0.2810 -0.2008
    1WF      WF66120  14.936  23.303   1.146  0.3537  0.2409  0.1929
    1WF      WF66121  29.468  16.269   1.649 -0.2599 -0.1897  0.1235
    1WF      WF66122  29.398  16.488   9.558 -0.0957  0.0757 -0.0684
    1WF      WF66123  21.405   2.814   7.128  0.1254  0.1133  0.0291
    1WF      WF66124  11.817   0.504   2.185 -0.0911 -0.1046 -0.1069
    1WF      WF66125  28.636   3.284   1.997  0.0677 -0.1201  0.0194
    1WF      WF66126  16.345   8.189   6.611 -0.0009 -0.0430  0.0372
    1WF      WF66127  26.328  29.413   1.803  0.0277 -0.2719 -0.1060
    1WF      WF66128   1.377  19.302   0.088 -0.1579  0.3908  0.1478
    1WF      WF66129  10.160   6.234   7.637  0.0271 -0.1383 -0.0291
    1WF      WF66130   7.065  24.587   8.139 -0.1180  0.1019  0.0673
    1WF      WF66131  20.745  20.984   2.021  0.2255  0.1243 -0.2775
    1WF      WF66132  23.816   2.509   7.269  0.0139  0.2690 -0.1342
    1WF      WF66133   4.350   5.568   7.367  0.1459  0.0677 -0.5347
    1WF      WF66134   0.881   4.786   7.303  0.0043  0.0638 -0.1932
    1WF      WF66135  14.219  11.721   8.222  0.0119  0.1822  0.0949
    1WF      WF66136  15.837  23.046   9.521  0.1701 -0.3501  0.3814
    1WF      WF66137   9.385  22.846   1.149  0.1295 -0.0755 -0.2101
    1WF      WF66138   5.522  20.567   1.110  0.1804  0.1193  0.1752
    1WF      WF66139   7.714  13.360   8.148 -0.0703  0.1582  0.1002
    1WF      WF66140  22.592  27.349   1.109 -0.1804 -0.1619  0.1130
    1WF      WF66141   4.421  10.381   8.882  0.0730  0.0008  0.1321
    1WF      WF66142  10.486   7.862   0.508 -0.3616  0.1619 -0.0523
    1WF      WF66143  19.570   5.508   7.346  0.0082 -0.0563  0.3603
    1WF      WF66144   2.464  17.891   0.978  0.4398  0.2906  0.1388
    1WF      WF66145  23.070  28.380   3.444 -0.4592  0.0657 -0.0501
    1WF      WF66146   1.180  23.890   9.102  0.0050 -0.0737  0.0973
    1WF      WF66147   9.621  26.927   6.040 -0.0395  0.1471 -0.1900
    1WF      WF66148   4.299  13.086   0.439 -0.3115  0.2374  0.0420
    1WF      WF66149  27.287  11.321   9.341  0.1736  0.0155 -0.4112
    1WF      WF66150  23.868  28.715   1.789 -0.1022 -0.1387  0.1844
    1WF      WF66151   3.586  10.201   9.617 -0.1036  0.0869  0.1751
    1WF      WF66152  21.344  26.453   0.871 -0.0823  0.1680 -0.2902
    1WF      WF66153  21.551  12.370   9.633  0.0932 -0.0359 -0.2546
    1WF      WF66154   5.951  11.030   6.403  0.2482 -0.5003  0.0035
    1WF      WF66155  17.674  15.027   2.039 -0.0143  0.1770  0.2143
    1WF      WF66156  25.459   3.737   1.076 -0.0931  0.2217  0.1715
    1WF      WF66157  17.045   5.535   7.137 -0.1404 -0.2684  0.2083
    1WF      WF66158  14.196  10.392   0.123 -0.1604 -0.1145  0.3658
    1WF      WF66159  17.321   4.258   9.429 -0.1194 -0.1772  0.0460
    1WF      WF66160  16.768   8.424   8.746  0.1052 -0.1290 -0.1290
    1WF      WF66161   5.403   7.297   8.319 -0.0774 -0.0481 -0.1269
    1WF      WF66162  13.123  24.534   0.390  0.1337 -0.1808  0.0864
    1WF      WF66163  14.228   7.462   2.455 -0.1767  0.1967 -0.5119
    1WF      WF66164  16.754  13.899   7.108  0.0084 -0.1260 -0.2553
    1WF      WF66165  26.018  19.623   8.179 -0.0768  0.1099  0.0493
    1WF      WF66166  27.389  27.733   1.034  0.1934  0.0339 -0.1204
    1WF      WF66167   1.437  20.618   0.684 -0.1935  0.3034 -0.1011
    1WF      WF66168   4.338   3.303   7.830  0.1696 -0.0515  0.0820
    1WF      WF66169  27.858   7.558   8.439  0.1020 -0.1181  0.2401
    1WF      WF66170  22.888  12.749   0.240  0.2788 -0.1058 -0.1218
    1WF      WF66171  15.131   5.109   0.628 -0.0295 -0.2208 -0.3026
    1WF      WF66172   3.435   7.532   9.121 -0.0321  0.0159  0.2200
    1WF      WF66173   2.931  26.450   1.751 -0.1319 -0.0756  0.0033
    1WF      WF66174  28.441  13.188   1.207 -0.0730  0.1025 -0.1376
    1WF      WF66175  18.671  23.202   7.972 -0.2085  0.2181  0.1026
    1WF      WF66176   9.685  25.087   0.959  0.0023 -0.2644 -0.1103
    1WF      WF66177  14.553  20.531   8.253 -0.2315 -0.1006  0.1820
    1WF      WF66178   0.937   3.622   7.869  0.0626  0.1171  0.0898
    1WF      WF66179  13.572   0.800   9.467 -0.0619 -0.0447 -0.1992
    1WF      WF66180  20.357   6.161   8.534  0.0788 -0.0902  0.0003
    1WF      WF66181  12.922  19.241   1.459 -0.1598  0.1847 -0.2046
    1WF      WF66182  18.296  27.018   8.749 -0.0541  0.1006 -0.0962
    1WF      WF66183   7.953  28.278   2.909 -0.2659  0.2536 -0.3302
    1WF      WF66184   5.678  11.231   6.704 -0.0474 -0.2026 -0.1944
    1WF      WF66185  18.429  22.990   0.914  0.2048  0.1764 -0.3647
    1WF      WF66186  27.736  21.152   3.635 -0.0766 -0.2517  0.1398
    1WF      WF66187   0.223   7.570   7.685  0.2168 -0.1054 -0.0025
    1WF      WF66188  21.247  20.546   8.054  0.3356  0.2803 -0.2179
    1WF      WF66189   3.242   9.868   7.699 -0.0503 -0.3727  0.3468
    1WF      WF66190  28.330   8.310   0.910 -0.1606  0.2663  0.1698
    1WF      WF66191   7.179   0.403   2.225  0.0530 -0.1178  0.1306
    1WF      WF66192  18.567   2.000   8.263 -0.1371  0.0446  0.2299
    1WF      WF66193  22.462  17.971   0.164  0.0969 -0.0217 -0.0127
    1WF      WF66194  13.682  28.992   8.019  0.0196 -0.1352 -0.2228
    1WF      WF66195   6.661  15.384   7.010  0.0435 -0.0327  0.1046
    1WF      WF66196  22.535   7.542   0.522 -0.1546  0.1876  0.2088
    1WF      WF66197  16.990   7.916   0.872 -0.3859  0.0807 -0.0108
    1WF      WF66198   3.827  23.924   7.781 -0.3065  0.1100  0.0225
    1WF      WF66199  12.495  20.199   1.502  0.3505 -0.0202  0.0041
    1WF      WF66200   0.191  24.564   7.772 -0.0378  0.3821 -0.2203
    1WF      WF66201  22.526  28.914   8.767  0.3740 -0.0309  0.0444
    1WF      WF66202  16.000  10.466   8.287 -0.2112 -0.1428  0.1050
    1WF      WF66203  13.205   0.761   7.803 -0.0782 -0.1582 -0.0873
    1WF      WF66204   9.924   6.073   7.230 -0.0185 -0.1396  0.1631
    1WF      WF66205   7.050  23.848   0.741  0.0310  0.2278  0.2581
    1WF      WF66206  17.237   0.410   0.374 -0.2564 -0.0131 -0.0052
    1WF      WF66207   5.926  21.143   1.444  0.1682  0.2052  0.4826
    1WF      WF66208  12.826  28.480   0.012 -0.1136 -0.3090 -0.1001
    1WF      WF66209  29.235  28.040   2.223 -0.1448  0.0604  0.0149
    1WF      WF66210   1.350  18.845   7.243  0.1338 -0.3331  0.0384
    1WF      WF66211  18.363  29.357   3.808 -0.0152 -0.0422 -0.0081
    1WF      WF66212  29.545   2.071   0.000 -0.0543  0.0015  0.1637
    1WF      WF66213  23.892  22.743   0.007  0.0710  0.3053  0.0770
    1WF      WF66214  18.543   4.475   1.214 -0.2034 -0.2380 -0.1065
    1WF      WF66215  22.234   7.026   2.001 -0.0154  0.0320 -0.2008
    1WF      WF66216   0.064  28.884   8.542 -0.0758  0.3347  0.2889
    1WF      WF66217  19.663  20.301   1.500 -0.3972  0.2004 -0.1540
    1WF      WF66218  21.875   3.273   8.426  0.1065  0.0672  0.1634
    1WF      WF66219  15.572  15.771   8.733 -0.1960 -0.0583 -0.1774
    1WF      WF66220  26.733  16.462   0.595 -0.2182  0.0189  0.1923
    1WF      WF66221  17.475   2.101   0.495 -0.1357 -0.0322 -0.1708
    1WF      WF66222  18.809   2.653   1.428  0.2244 -0.0211  0.2206
    1WF      WF66223   0.694   4.676   9.557 -0.0278 -0.1048 -0.2010
    1WF      WF66224   6.150   2.914   8.181 -0.1943 -0.2118 -0.1768
    1WF      WF66225  12.190  22.925   7.314 -0.1173  0.1502  0.3037
    1WF      WF66226   5.069   7.592   8.936  0.1462  0.0560 -0.0064
    1WF      WF66227  11.646  16.592   7.917  0.0962 -0.0679 -0.2299
    1WF      WF66228   6.199   6.391   5.519 -0.1951  0.0107  0.2661
    1WF      WF66229   0.270  13.665   7.525  0.1529 -0.0040 -0.3140
    1WF      WF66230   5.847  24.506   1.926 -0.2068  0.2299 -0.1553
    1WF      WF66231  16.469  18.697   8.412  0.1162  0.3523 -0.0436
    1WF      WF66232   0.084  14.580   2.295  0.4524 -0.3847 -0.0916
    1WF      WF66233  17.234   2.267   0.904  0.0018  0.5006  0.3947
    1WF      WF66234  20.681  26.586   0.242 -0.0286  0.1319  0.2999
    1WF      WF66235  26.040  13.689   3.006  0.1115 -0.1757  0.0926
    1WF      WF66236  24.398   4.248   1.935  0.0815 -0.1096  0.1430
    1WF      WF66237  20.920   3.968   8.951 -0.0351  0.3599  0.0986
    1WF      WF66238   7.311   6.654   0.604 -0.2403 -0.0850 -0.1281
    1WF      WF66239  12.090  22.543   0.758 -0.1165  0.2507 -0.0488
    1WF      WF66240  26.021  16.847   8.940  0.1187  0.1089  0.1195
    1WF      WF66241   8.742  26.558   6.561  0.1948 -0.0481  0.1989
    1WF      WF66242  15.346  25.232   9.390 -0.1733  0.1168  0.0678
    1WF      WF66243   3.263   0.758   9.272 -0.0358  0.0738  0.4937
    1WF      WF66244  13.197  16.399   1.354 -0.0675 -0.0004 -0.0255
    1WF      WF66245  29.241  16.804   9.218  0.1832 -0.1686 -0.2681
    1WF      WF66246  12.201  16.243   1.052 -0.0712  0.1262  0.1545
    1WF      WF66247   2.658  28.938   8.707  0.2707  0.1289  0.0199
    1WF      WF66248  27.509  19.575   9.605  0.1118 -0.0156 -0.0030
    1WF      WF66249  12.096   3.818   1.567  0.3147 -0.0082 -0.0403
    1WF      WF66250  26.097  16.645   8.371 -0.1118 -0.0547  0.1270
    1WF      WF66251  15.616  19.270   9.491  0.3659 -0.1440  0.0806
    1WF      WF66252   8.944   4.129   7.605 -0.0155  0.4315 -0.2026
    1WF      WF66253  12.291   8.028   1.695  0.2513  0.1040 -0.0860
    1WF      WF66254  27.884  17.775   8.908 -0.2229  0.0317 -0.2260
    1WF      WF66255  16.972  22.157   0.014  0.0192 -0.0792  0.0237
    1WF      WF66256   8.476   4.289   7.638  0.3910 -0.3855  0.0210
    1WF      WF66257  28.299  28.515   1.848  0.1925 -0.1619 -0.1276
    1WF      WF66258  26.881   9.470   1.751  0.2078 -0.0302 -0.2765
    1WF      WF66259  13.596  12.879   0.320  0.1324 -0.1334  0.2243
    1WF      WF66260  20.640  11.291   7.053  0.0789  0.0825  0.4073
    1WF      WF66261  14.058  14.955   0.538  0.1435  0.1860 -0.0791
    1WF      WF66262  18.354  19.047   2.821  0.0263 -0.0355  0.0338
    1WF      WF66263   5.810   8.208   9.105 -0.0353 -0.1368  0.1758
    1WF      WF66264   4.201   9.547   8.395  0.1662  0.1222 -0.1413
    1WF      WF66265  19.895  29.236   2.123  0.1430 -0.0374 -0.0538
    1WF      WF66266  27.633  17.406   9.292 -0.0945  0.0132 -0.0820
    1WF      WF66267  20.287  14.059   1.308  0.0450  0.0087 -0.1026
    1WF      WF66268   1.865   6.979   8.319  0.2587  0.1024  0.0616
    1WF      WF66269   0.369   8.103   7.789  0.0663 -0.0094 -0.0903
    1WF      WF66270  13.309  11.332   0.477 -0.1569  0.0919 -0.0808
    1WF      WF66271  22.142  21.974   0.299  0.2844  0.3688 -0.0292
    1WF      WF66272   8.480  27.853   8.105  0.1153 -0.0486 -0.3738
    1WF      WF66273  21.907   0.165   0.285  0.0289 -0.2274 -0.0228
    1WF      WF66274  23.429   0.499   1.753  0.2365 -0.0376 -0.0771
    1WF      WF66275   4.055  11.829   2.206 -0.3444  0.0326 -0.0316
    1WF      WF66276   9.570   4.127   6.855 -0.1398  0.0431 -0.1665
    1WF      WF66277  23.798  16.068   1.020  0.0983 -0.2708 -0.0439
    1WF      WF66278  24.484  17.399   8.623  0.2356 -0.3345  0.5259
    1WF      WF66279  17.806  25.094   1.913  0.2462  0.1413 -0.0852
    1WF      WF66280   5.730  26.746   9.433  0.3260 -0.1921  0.1301
    1WF      WF66281  14.728  19.113   7.794  0.2019  0.4206  0.0379
    1WF      WF66282  27.569  29.028   3.443  0.0124  0.0285  0.0255
    1WF      WF66283   7.829   9.896   7.091 -0.1458 -0.0225 -0.2557
    1WF      WF66284   5.000  28.522   8.847 -0.0025  0.1865  0.1828
    1WF      WF66285  20.020  16.659   8.959 -0.2150 -0.1378  0.1082
    1WF      WF66286   6.897  17.990   9.021  0.1732 -0.0215 -0.0165
    1WF      WF66287  16.503  26.976   0.559  0.0583  0.0471  0.1543
    1WF      WF66288  22.379   0.192   0.408  0.0705 -0.1476 -0.2819
    1WF      WF66289  15.505  28.774   1.531  0.0543 -0.2892  0.1002
    1WF      WF66290  25.556   8.295   9.492 -0.1356 -0.1050  0.0583
    1WF      WF66291  23.357  24.376   3.064 -0.2826 -0.1803  0.1052
    1WF      WF66292  12.618   1.447   0.005  0.2537 -0.2435 -0.3780
    1WF      WF66293  29.141  15.718   9.061 -0.0438  0.4452 -0.1171
    1WF      WF66294   0.437  22.792   0.612 -0.0205 -0.0499 -0.0782
    1WF      WF66295   6.260   7.993   6.721  0.2849 -0.2911  0.2634
    1WF      WF66296  18.891   8.512   1.442  0.1524 -0.1520  0.0104
    1WF      WF66297  14.744  19.151   8.373 -0.0345 -0.1181 -0.2101
    1WF      WF66298   0.426   3.340   1.312 -0.1478 -0.1013 -0.1429
    1WF      WF66299   0.640   9.419   6.247 -0.0487  0.1583 -0.0723
    1WF      WF66300   3.576  18.871   7.864  0.2090  0.1643 -0.2413
    1WF      WF66301  13.046  21.486   9.431  0.0287 -0.0499 -0.3208
    1WF      WF66302  15.359   1.717   1.270 -0.0178  0.0758  0.3797
    1WF      WF66303  29.433  24.186   2.121  0.0490 -0.3197  0.0004
    1WF      WF66304  13.913  12.320   0.669 -0.2482  0.0533  0.0849
    1WF      WF66305  19.566  10.608   8.497  0.1353  0.1965  0.1675
    1WF      WF66306   8.602   2.969   6.104 -0.0521 -0.0328  0.0285
    1WF      WF66307  20.129  20.697   1.023  0.2195 -0.1813 -0.1671
    1WF      WF66308  29.086  22.657   9.303  0.1707  0.1834 -0.1879
    1WF      WF66309  14.557   0.080   0.865 -0.0725 -0.0485 -0.0710
    1WF      WF66310   4.418  20.583   9.250 -0.1444  0.2650  0.0883
    1WF      WF66311  28.477   8.439   9.566 -0.0306 -0.0451  0.0095
    1WF      WF66312  23.405   7.269   9.146 -0.3552  0.2609 -0.0281
    1WF      WF66313   1.113  21.961   1.063 -0.0081  0.0250  0.0182
    1WF      WF66314  26.553  17.981   0.685 -0.2589 -0.1512  0.1361
    1WF      WF66315  16.559   1.954   9.334  0.1244 -0.5343  0.0495
    1WF      WF66316   8.932  26.268   7.372 -0.1554 -0.1843  0.3258
    1WF      WF66317  20.403  22.489   9.376 -0.1142 -0.0289  0.1065
    1WF      WF66318  14.258  16.017   7.893  0.2540 -0.0768 -0.1467
    1WF      WF66319  24.552  11.644   7.462 -0.1682 -0.3280 -0.1787
    1WF      WF66320   9.961  24.269   0.515  0.1449  0.1713  0.1572
    1WF      WF66321  13.338  28.605   0.054 -0.2397 -0.3527 -0.0179
    1WF      WF66322   1.132  26.225   8.738  0.0604  0.0059 -0.0135
    1WF      WF66323  17.703  10.520   8.120 -0.0131 -0.1862  0.1003
    1WF      WF66324  24.722  26.684   8.439 -0.2555  0.2932 -0.2955
    1WF      WF66325  29.598  25.018   6.979 -0.0421 -0.0697 -0.0775
    1WF      WF66326   4.591  24.093   1.827  0.0780 -0.5311  0.2174
    1WF      WF66327   4.003   8.637   0.135 -0.0870 -0.1778 -0.0225
    1WF      WF66328   4.557  12.473   9.058  0.1616  0.1243  0.1834
    1WF      WF66329  25.658  28.475   0.594 -0.1201  0.1025 -0.1137
    1WF      WF66330  13.362  28.939   7.558 -0.3435 -0.0274  0.0541
    1WF      WF66331  19.698  18.457   9.521  0.3649  0.0469  0.0033
    1WF      WF66332  23.915   0.539   2.038  0.0969 -0.3287 -0.2323
    1WF      WF66333   8.186   8.830   1.785 -0.1223 -0.0573 -0.0362
    1WF      WF66334   2.997   3.360   1.110  0.4117  0.0927 -0.2017
    1WF      WF66335  16.217  24.349   9.256  0.0618 -0.0655 -0.3829
    1WF      WF66336  11.471   2.540   7.029 -0.0285  0.1391  0.0256
    1WF      WF66337  25.840   2.048   0.668  0.1281  0.1088  0.0679
    1WF      WF66338  20.602   4.880   8.125  0.0029  0.1600  0.0391
    1WF      WF66339  28.454   5.718   7.699  0.0528  0.1368 -0.0973
    1WF      WF66340   9.426  16.915   7.661 -0.0411  0.1448 -0.0206
    1WF      WF66341   3.730  13.335   8.157 -0.5375 -0.2497  0.0118
    1WF      WF66342  19.779  23.676   0.928  0.0377  0.0525  0.2718
    1WF      WF66343  21.131   5.591   0.841  0.0482 -0.0380 -0.1646
    1WF      WF66344  23.644  20.699   3.029  0.0761  0.4534  0.2484
    1WF      WF66345  26.604  23.033   7.937 -0.0914  0.0728  0.0252
    1WF      WF66346  27.040  22.850   8.266  0.0550  0.1789 -0.1370
    1WF      WF66347   3.420  13.757   8.073 -0.0875 -0.0440  0.0414
    1WF      WF66348  14.799  27.493   0.024 -0.4363 -0.1250  0.0695
    1WF      WF66349   7.707  11.759   0.468 -0.5473 -0.4216  0.2084
    1WF      WF66350  22.143  17.018   7.144  0.3083 -0.0824  0.1916
    1WF      WF66351  13.474   9.365   6.242  0.0915  0.3235  0.0364
    1WF      WF66352  19.338  24.064   9.083  0.0345  0.0013 -0.0465
    1WF      WF66353   4.612  11.767   6.538 -0.0098  0.3127  0.3580
    1WF      WF66354   3.718  24.475   9.083  0.3229 -0.3447 -0.1144
    1WF      WF66355  13.604  17.314   1.018 -0.0972  0.1713 -0.2978
    1WF      WF66356   0.311  14.005   0.744 -0.1853 -0.0445  0.2522
    1WF      WF66357   2.767  15.817   1.767  0.3915 -0.1754 -0.1241
    1WF      WF66358  15.934  29.558   8.137 -0.1143 -0.2992 -0.0140
    1WF      WF66359  15.033  12.092   8.372  0.1192 -0.1537  0.1559
    1WF      WF66360  11.081   2.154   0.211  0.1397 -0.1469 -0.1349
    1WF      WF66361   6.585  18.093   1.088 -0.0861 -0.0308  0.1656
    1WF      WF66362  11.342  24.435   1.837 -0.3406 -0.1025  0.0875
    1WF      WF66363  14.469   9.273   0.383 -0.1745  0.2102 -0.0390
    1WF      WF66364   5.887  20.021   9.279 -0.0955  0.0843 -0.0809
    1WF      WF66365   6.601   9.492   8.805 -0.1296 -0.1901 -0.0095
    1WF      WF66366  22.034  13.994   0.671  0.0095 -0.1686 -0.1067
    1WF      WF66367  18.935   9.819   8.523  0.0817  0.1004  0.2754
    1WF      WF66368  13.603  14.444   9.472  0.0151  0.1997 -0.2512
    1WF      WF66369  23.705  12.971   7.259 -0.5301  0.0503 -0.1025
    1WF      WF66370  12.530  23.652   0.929  0.0032  0.2757  0.0310
    1WF      WF66371   0.149  23.021   0.992 -0.1294  0.0771 -0.0714
    1WF      WF66372  13.089   9.082   6.438 -0.0110 -0.0808 -0.1917
    1WF      WF66373  11.778  16.483   1.114 -0.0477  0.0251 -0.1477
    1WF      WF66374  20.897  26.349   0.647 -0.2635  0.1903 -0.4425
    1WF      WF66375   4.696   9.935   6.067 -0.0043 -0.0990 -0.0242
    1WF      WF66376  15.224  10.176   8.548  0.0018 -0.3062 -0.2612
    1WF      WF66377   9.136   3.595   1.022  0.0357 -0.0059  0.0496
    1WF      WF66378  28.542   0.356   9.428 -0.3035 -0.1236  0.0838
    1WF      WF66379  18.466  23.706   1.266  0.0148  0.1735 -0.1098
    1WF      WF66380  12.601  21.533   0.152  0.2385 -0.1717 -0.1063
    1WF      WF66381  10.003   4.903   8.714 -0.1222  0.2938  0.0072
    1WF      WF66382   4.172   9.884   7.975  0.0814 -0.1208  0.0393
    1WF      WF66383  29.123  22.789   7.058 -0.0537  0.0528 -0.0862
    1WF      WF66384   5.331  25.225   6.870  0.0118 -0.0724 -0.1056
    1WF      WF66385  24.665  26.258   0.135  0.1358  0.0440  0.0017
    1WF      WF66386   9.895  13.672   8.671 -0.1487 -0.2288 -0.0222
    1WF      WF66387  13.496   2.600   1.613  0.1407 -0.2617  0.3447
    1WF      WF66388   6.230   8.585   9.228  0.1381  0.1329 -0.2520
    1WF      WF66389  25.226  17.805   1.236  0.2943 -0.1854 -0.2555
    1WF      WF66390   3.345  14.497   7.601 -0.1043  0.0889 -0.1336
    1WF      WF66391  14.402  23.461   1.054 -0.0380 -0.0070  0.0849
    1WF      WF66392  16.027  24.877   6.723  0.0670  0.3139 -0.3484
    1WF      WF66393  11.124  16.968   2.860 -0.1559  0.1284 -0.0860
    1WF      WF66394  16.395  13.654   0.760  0.0478  0.0653  0.0364
    1WF      WF66395  26.787  19.003   2.316  0.1663  0.1885 -0.0390
    1WF      WF66396   1.220   1.819   1.619  0.1744  0.1096 -0.0556
    1WF      WF66397   6.231   5.129   9.326 -0.0468  0.0700 -0.2892
    1WF      WF66398  18.189  19.895   8.909 -0.0203  0.0495 -0.0192
    1WF      WF66399  23.134   8.157   7.626 -0.1983 -0.1026 -0.1156
    1WF      WF66400   5.877  20.951   9.492 -0.0380 -0.0653  0.2582
    1WF      WF66401  10.085   3.480   8.121  0.0375  0.1424 -0.1889
    1WF      WF66402   9.894  27.452   0.522  0.1025  0.1475 -0.0123
    1WF      WF66403   0.505  21.485   2.402 -0.3702 -0.1419 -0.0963
    1WF      WF66404  19.018  12.437   0.216 -0.0615 -0.2658  0.0769
    1WF      WF66405  26.617  26.480   9.297 -0.0798  0.0002 -0.0406
    1WF      WF66406   4.014  18.278   8.917 -0.1184  0.2161  0.4621
    1WF      WF66407   4.036  26.320   3.496 -0.2817 -0.0226  0.0744
    1WF      WF66408  18.045  26.066   0.873 -0.1057  0.0382  0.1308
    1WF      WF66409  27.591   8.212   6.703  0.0624  0.0110 -0.0751
    1WF      WF66410   8.601   3.551   0.946  0.2135  0.1578  0.1221
    1WF      WF66411  14.916   8.918   2.380 -0.2213 -0.1964  0.4144
    1WF      WF66412  14.096  18.706   7.189  0.0413  0.0440  0.1133
    1WF      WF66413   4.424   7.093   0.144  0.0805 -0.1547  0.1380
    1WF      WF66414   8.460  26.154   1.906 -0.0896 -0.0057  0.0050
    1WF      WF66415  27.247  11.628   1.008  0.0858  0.2144 -0.1304
    1WF      WF66416  18.203   1.524   0.213 -0.0359  0.1470 -0.1510
    1WF      WF66417  22.506  16.977   0.779  0.1236 -0.0023  0.1337
    1WF      WF66418  22.719  19.784   9.261 -0.2821 -0.0996 -0.1520
    1WF      WF66419  26.358  12.436   8.883 -0.0598  0.1165  0.0561
    1WF      WF66420   1.517  26.098   9.561 -0.1037  0.0901  0.0775
    1WF      WF66421  19.336  18.540   9.154  0.0169  0.3471  0.1109
    1WF      WF66422  22.026   0.049   3.709  0.2268 -0.0420 -0.1104
    1WF      WF66423  29.095   6.524   8.986  0.5618 -0.1964  0.0310
    1WF      WF66424  15.684   0.293   1.381 -0.1090  0.1886  0.1119
    1WF      WF66425   0.107   4.505   8.691  0.2091  0.0061  0.0960
    1WF      WF66426   4.877   4.665   6.088  0.1260 -0.1925  0.0008
    1WF      WF66427  25.034  15.482   7.947  0.1795  0.2009 -0.0832
    1WF      WF66428  14.486   6.914   9.040  0.0146  0.0057 -0.4302
    1WF      WF66429  12.553  17.183   6.872 -0.1477  0.1048 -0.1456
    1WF      WF66430   6.030  10.570   7.193 -0.0722 -0.1011 -0.3347
    1WF      WF66431  20.865  23.142   1.415  0.2898  0.0579  0.1684
    1WF      WF66432  14.652   4.118   1.801  0.1502  0.0094 -0.0357
    1WF      WF66433   8.945   2.675   9.423  0.0831 -0.1231  0.0124
    1WF      WF66434  16.793   7.461   0.612  0.1165  0.1600 -0.2926
    1WF      WF66435  27.124  18.153   0.714 -0.2196 -0.1320 -0.1151
    1WF      WF66436  11.348  15.333   8.861 -0.2431  0.1526 -0.2584
    1WF      WF66437  17.410  10.776   6.571  0.2584  0.1258  0.0490
    1WF      WF66438  23.636  17.082   1.262 -0.5354  0.2552  0.1135
    1WF      WF66439  19.190   1.203   6.976 -0.2250 -0.1925  0.0801
    1WF      WF66440  18.146   1.094   9.626  0.1485 -0.2263  0.1495
    1WF      WF66441  23.596  12.880   3.139  0.1364  0.0590 -0.2912
    1WF      WF66442   0.539  25.710   1.862  0.0962  0.1183 -0.1041
    1WF      WF66443  25.296  21.927   2.342  0.0948  0.0731  0.0835
    1WF      WF66444  10.793  27.624   8.495 -0.1640  0.0570  0.0483
    1WF      WF66445   6.962   2.892   7.373  0.1235 -0.0674 -0.2608
    1WF      WF66446  19.873  17.992   0.116 -0.3139 -0.0312  0.2773
    1WF      WF66447   7.146   5.044   9.328 -0.0055 -0.2785  0.1975
    1WF      WF66448   2.088  27.099   6.254  0.1705  0.0239  0.2739
    1WF      WF66449  27.236   7.251   1.055  0.3048  0.1816 -0.3247
    1WF      WF66450  16.356   3.120   1.760 -0.0335  0.2349 -0.4340
    1WF      WF66451   0.895  11.090   0.374 -0.1694  0.1480 -0.4709
    1WF      WF66452  22.146   9.349   1.231 -0.3557  0.2431 -0.0848
    1WF      WF66453   5.684  14.447   8.717 -0.3231 -0.0223 -0.1287
    1WF      WF66454  26.836  20.486   8.620 -0.1601 -0.1255 -0.1888
    1WF      WF66455  27.492  15.144   9.292  0.0458  0.2038 -0.0248
    1WF      WF66456  25.888  25.380   9.004 -0.1528  0.2282  0.2106
    1WF      WF66457   1.501  16.651   1.273 -0.1809 -0.0142 -0.0939
    1WF      WF66458   1.358  13.764   8.001 -0.0727 -0.3327  0.2813
    1WF      WF66459   2.276   1.037   8.870  0.0919  0.1870  0.1486
    1WF      WF66460  13.478  25.296   8.798 -0.1636  0.0436  0.3046
    1WF      WF66461   7.285  17.810   2.465  0.2535  0.0850 -0.0483
    1WF      WF66462  17.426  10.367   0.827 -0.0284  0.2514  0.1704
    1WF      WF66463   1.478  25.613   9.493 -0.2735 -0.2361  0.2405
    1WF      WF66464  12.837  11.690   8.794 -0.2806 -0.2211 -0.2571
    1WF      WF66465  22.896  17.069   1.766 -0.0347 -0.1429 -0.1678
    1WF      WF66466   5.751  12.047   0.017  0.3059  0.1514  0.0640
    1WF      WF66467  14.803  16.931   9.464 -0.0574 -0.0395 -0.0113
    1WF      WF66468   4.168  24.713   9.068 -0.1976  0.1293 -0.1606
    1WF      WF66469  15.028  16.775   1.146 -0.1313  0.2347 -0.0811
    1WF      WF66470   5.716  29.363   1.716 -0.0975 -0.2707 -0.1821
    1WF      WF66471  21.736  18.345   9.566 -0.1278 -0.0700  0.2819
    1WF      WF66472   7.493   2.838   7.410  0.1069 -0.3759 -0.1290
    1WF      WF66473  14.055   6.598   9.176 -0.1718  0.0610  0.0644
    1WF      WF66474  11.916  12.169   8.021  0.0134 -0.2039 -0.1592
    1WF      WF66475  12.887  21.655   6.694  0.1732  0.2099 -0.2459
    1WF      WF66476  27.650  24.414   9.562 -0.0740  0.0222 -0.3672
    1WF      WF66477   3.390  22.906   2.408  0.0644 -0.1123 -0.1547
    1WF      WF66478  22.836  12.225   0.326  0.0292  0.0022 -0.1203
    1WF      WF66479  25.017   4.537   8.944  0.2034  0.1496 -0.2506
    1WF      WF66480  12.259  17.591   6.947  0.0140  0.0518  0.2330
    1WF      WF66481  19.081   3.880   7.101  0.1719 -0.0641  0.0189
    1WF      WF66482   7.072   4.882   7.379 -0.0518  0.0662 -0.1492
    1WF      WF66483  18.853  29.543   1.372 -0.0583 -0.1456  0.0248
    1WF      WF66484  17.753  12.076   7.272  0.1148 -0.2973  0.0340
    1WF      WF66485   7.293  16.706   9.535  0.0920  0.1668  0.3717
    1WF      WF66486  14.165   9.883   8.758  0.0688  0.1532  0.0907
    1WF      WF66487  19.124  19.107   7.548  0.1402 -0.0833 -0.3925
    1WF      WF66488  21.999  21.723   9.010 -0.0141  0.0687  0.0096
    1WF      WF66489  20.426  19.341   7.811 -0.0698 -0.2266 -0.0462
    1WF      WF66490   3.223  27.076   9.526 -0.0193  0.2003 -0.0448
    1WF      WF66491  28.520  20.374   1.706  0.2273 -0.1323 -0.3241
    1WF      WF66492  23.190  25.050   9.143 -0.1793  0.2106  0.0492
    1WF      WF66493   6.996  26.347   0.206  0.1777 -0.3906 -0.0860
    1WF      WF66494  14.402   3.657   9.468  0.0984  0.1041  0.0317
    1WF      WF66495   4.577  15.198   0.291  0.1469 -0.4373  0.0324
    1WF      WF66496   6.702  22.029   8.123  0.1316 -0.1348  0.1491
    1WF      WF66497  14.685  17.664   8.929 -0.1067 -0.1241  0.0488
    1WF      WF66498  10.493  25.590   0.203  0.0198  0.2569 -0.0797
    1WF      WF66499   5.429  20.823   0.720  0.1947 -0.2968 -0.2292
    1WF      WF66500   5.221   6.306   9.627  0.1856  0.3293 -0.0082
    1WF      WF66501  26.868  11.385   1.282 -0.2916 -0.1414 -0.0864
    1WF      WF66502   6.901  28.580   8.583  0.1031  0.0883  0.1297
    1WF      WF66503  28.492  10.998   9.366 -0.0360 -0.1740 -0.0990
    1WF      WF66504  13.533   8.199   8.794 -0.1657 -0.2159  0.1893
    1WF      WF66505   8.857  12.093   7.168 -0.1079  0.1164  0.2961
    1WF      WF66506   0.709  11.493   0.632  0.0801  0.1044  0.0052
    1WF      WF66507   9.258  13.346   0.655  0.2342 -0.0384 -0.1492
    1WF      WF66508  28.841  25.606   2.003  0.1011 -0.2286  0.0802
    1WF      WF66509   0.965  25.816   2.916 -0.1356 -0.3667  0.0166
    1WF      WF66510  14.085  17.890   8.961  0.1443  0.1046  0.0264
    1WF      WF66511  11.367  14.839   0.594 -0.0535 -0.3121 -0.0096
    1WF      WF66512  28.308  22.024   1.774 -0.2071  0.2336 -0.1713
    1WF      WF66513  12.697  21.671   7.750  0.1227 -0.1933  0.3319
    1WF      WF66514  15.307  13.601   9.099  0.0939  0.2569  0.0511
    1WF      WF66515  23.274  21.253   8.960  0.2619  0.1059 -0.1997
    1WF      WF66516  23.901  24.269   8.833 -0.0592  0.2442 -0.2098
    1WF      WF66517   4.059   6.724   0.269 -0.1233 -0.2256 -0.1304
    1WF      WF66518   6.395  17.790   1.473  0.2141 -0.0371  0.0589
    1WF      WF66519  22.563  21.837   2.544  0.0070 -0.1008 -0.1841
    1WF      WF66520  13.995   1.410   7.357  0.1246  0.0918 -0.0460
    1WF      WF66521   3.632   7.933   9.196 -0.2555  0.1195 -0.2704
    1WF      WF66522  28.520   9.654   1.056  0.1281  0.1721  0.1187
    1WF      WF66523  27.975  15.395   0.766  0.0196 -0.0817 -0.0522
    1WF      WF66524  10.257  29.408   9.226 -0.3358  0.0170 -0.1063
    1WF      WF66525   6.792  14.940   7.223  0.2267  0.0388  0.0271
    1WF      WF66526  13.794  10.515   1.525  0.1063 -0.0434  0.1381
    1WF      WF66527   3.500   0.553   6.761 -0.0040  0.2740 -0.0144
    1WF      WF66528   4.086   9.085   8.695  0.0290 -0.0194  0.1470
    1WF      WF66529  25.010  13.786   8.811  0.0552 -0.0824  0.2277
    1WF      WF66530   7.307  20.113   3.015 -0.1023 -0.0314  0.0613
    1WF      WF66531  10.544  27.356   1.079  0.0573  0.0206  0.0971
    1WF      WF66532   1.039  21.832   1.577 -0.0092 -0.0033 -0.0578
    1WF      WF66533   8.973   7.461   1.437 -0.1873 -0.0739 -0.1401
    1WF      WF66534  13.961  21.712   9.089  0.1734 -0.2750  0.1657
    1WF      WF66535  16.237   5.593   9.039 -0.1820  0.0315  0.0589
    1WF      WF66536  11.113  13.438   7.158  0.2302  0.2111 -0.0080
    1WF      WF66537  10.348  12.595   0.950 -0.0535 -0.1766 -0.1270
    1WF      WF66538  12.462  19.967   7.964  0.5108 -0.1931 -0.1007
    1WF      WF66539  28.071  24.223   0.673  0.1456  0.0303 -0.0140
    1WF      WF66540  12.841   0.932   7.373  0.3683  0.0551 -0.1749
    1WF      WF66541  14.257   8.870   0.264  0.1598  0.0579 -0.0727
    1WF      WF66542  17.251  18.574   1.620 -0.0505 -0.1133 -0.2728
    1WF      WF66543  28.517  21.492   4.095 -0.0242  0.3134  0.0267
    1WF      WF66544  10.138  17.357   0.679 -0.2826  0.2505 -0.0591
    1WF      WF66545  25.465   2.828   2.938 -0.0670 -0.2154  0.0038
    1WF      WF66546  10.765  19.448   2.736  0.0590 -0.2883 -0.1061
    1WF      WF66547   3.789   1.521   8.514  0.1485  0.2694 -0.0777
    1WF      WF66548  12.312   7.868   2.199 -0.2440 -0.2618  0.0364
    1WF      WF66549  14.331  19.111   7.447  0.2121 -0.2041 -0.1034
    1WF      WF66550  13.665   7.836   7.705  0.4021 -0.2590 -0.1888
    1WF      WF66551  11.221  12.719   0.876 -0.2728  0.3786 -0.0838
    1WF      WF66552  28.909   4.810   8.758 -0.1745  0.1288  0.0771
    1WF      WF66553  16.397  11.860   9.321 -0.0296 -0.0158  0.0365
    1WF      WF66554  18.795   2.153   1.602 -0.1685  0.1781  0.1592
    1WF      WF66555   6.656  23.502   0.664  0.1598 -0.2240 -0.1155
    1WF      WF66556  17.053  14.339   1.875  0.2730 -0.0402  0.0349
    1WF      WF66557  25.867   5.268   6.894 -0.3227  0.0128  0.1641
    1WF      WF66558  16.494  21.074   9.365 -0.1877  0.0316 -0.0893
    1WF      WF66559  19.927  15.694   9.531 -0.3448  0.2651 -0.1905
    1WF      WF66560  20.443  28.015   0.116  0.1298 -0.0206  0.1963
    1WF      WF66561  27.905   2.003   0.318 -0.1387 -0.4981  0.0332
    1WF      WF66562  13.356  25.790   8.857  0.0686 -0.2994 -0.0065
    1WF      WF66563  15.103   0.444   6.827  0.0051  0.0863 -0.0191
    1WF      WF66564  16.463   9.702   0.687 -0.0310  0.0965 -0.1730
    1WF      WF66565   7.270  14.893   7.414 -0.2110  0.2399 -0.0685
    1WF      WF66566   3.963  26.589   7.508  0.3996  0.0180 -0.3454
    1WF      WF66567   7.617  27.062   0.028 -0.4071 -0.1006 -0.0960
    1WF      WF66568   2.411  14.221   0.633 -0.4335  0.3553 -0.3555
    1WF      WF66569  21.318  19.587   2.913 -0.3707 -0.2378 -0.1864
    1WF      WF66570  16.129  19.173   9.521 -0.0017  0.0382  0.1049
    1WF      WF66571  27.630  16.878   9.627 -0.0125  0.2344 -0.3244
    1WF      WF66572  26.380   1.022   7.691 -0.0616 -0.3566  0.0760
    1WF      WF66573  15.524  28.527   8.584  0.1804 -0.0025 -0.1418
    1WF      WF66574  18.964  21.464   1.845 -0.2259 -0.1531  0.1713
    1WF      WF66575   8.413  11.856   0.387  0.5309 -0.0676  0.1122
    1WF      WF66576   3.714   3.191   2.684  0.1239 -0.2856 -0.1295
    1WF      WF66577  28.516  27.708   9.476 -0.2154  0.0043  0.2483
    1WF      WF66578  12.145  17.044   0.040 -0.0311 -0.4847 -0.1565
    1WF      WF66579  15.715   6.496   2.568  0.2687  0.0516  0.3480
    1WF      WF66580  16.604   4.106   8.557  0.0932  0.1161 -0.2426
    1WF      WF66581  19.636   7.962   8.458  0.0102 -0.0302  0.0418
    1WF      WF66582   4.948  10.690   0.166 -0.2831  0.0381 -0.1622
    1WF      WF66583   4.593   8.501   0.578  0.0434 -0.2731 -0.0286
    1WF      WF66584  26.601  26.593   7.035  0.2416  0.1449 -0.0686
    1WF      WF66585  27.376   8.635   1.663  0.2143  0.3475  0.0191
    1WF      WF66586  22.223  22.192   2.460 -0.2171  0.3896 -0.0285
    1WF      WF66587  18.787  26.824   8.837 -0.0932  0.1740  0.0705
    1WF      WF66588   6.620  19.439   6.662  0.2140  0.1226 -0.2588
    1WF      WF66589  23.315  26.966   2.223 -0.2269  0.0430  0.0615
    1WF      WF66590  22.420  16.922   1.474 -0.0435  0.0388  0.0894
    1WF      WF66591  29.341  27.076   6.122  0.3243  0.1160  0.1144
    1WF      WF66592   5.753  24.275   8.598  0.0323  0.0173  0.0915
    1WF      WF66593  23.578   4.198   0.319  0.0444  0.2289  0.2019
    1WF      WF66594  21.031   8.461   9.581  0.0193 -0.0111 -0.1904
    1WF      WF66595  25.326   4.861   0.465 -0.1337  0.1555  0.1061
    1WF      WF66596   9.851  20.247   0.132  0.0713 -0.1188 -0.0930
    1WF      WF66597  22.355  12.260   1.943 -0.2550 -0.1790  0.1396
    1WF      WF66598  17.066  15.168   8.014 -0.1002 -0.3967  0.1110
    1WF      WF66599  18.128   9.662   0.318  0.1599 -0.0900 -0.2739
    1WF      WF66600   5.039  22.692   0.124  0.0711 -0.0431  0.1026
    1WF      WF66601  18.625   5.888   7.712  0.1116 -0.3676  0.1438
    1WF      WF66602  14.472   8.514   0.034 -0.0014  0.0642  0.0638
    1WF      WF66603   0.255  16.270   9.155  0.0687  0.0637 -0.0104
    1WF      WF66604   7.654  19.715   0.801  0.0263 -0.2034 -0.1327
    1WF      WF66605   2.766   7.235   9.520  0.2087 -0.1823 -0.2598
    1WF      WF66606   4.128   3.365   0.423  0.1968  0.0729  0.0802
    1WF      WF66607  14.169  19.542   2.438 -0.0215 -0.1134  0.3752
    1WF      WF66608   8.387  13.987   0.216 -0.2500  0.1497  0.0963
    1WF      WF66609  27.238   7.615   0.438 -0.3849  0.0058 -0.0246
    1WF      WF66610   5.508   4.288   8.991 -0.0127 -0.0470  0.0981
    1WF      WF66611   8.103  26.723   8.196  0.0498 -0.0597 -0.0957
    1WF      WF66612  22.182  14.614   8.161  0.1020 -0.3688 -0.2271
    1WF      WF66613  24.097  13.993   0.551  0.3410 -0.1585 -0.0324
    1WF      WF66614  23.593   1.566   1.633  0.4223 -0.0596 -0.1865
    1WF      WF66615  28.403  15.715   3.030  0.1102  0.1027 -0.2927
    1WF      WF66616   6.275  15.560   0.848  0.0638 -0.0754 -0.0020
    1WF      WF66617   5.274  16.471   7.940 -0.0385 -0.1821  0.0131
    1WF      WF66618  22.298  14.729   7.660 -0.0720  0.0182  0.1491
    1WF      WF66619  26.674   0.721   8.609  0.2149  0.2330 -0.1901
    1WF      WF66620  29.582   7.922   8.900  0.2332 -0.0708  0.0449
    1WF      WF66621   9.568   4.137   7.344 -0.0779  0.0597 -0.2412
    1WF      WF66622   2.815   2.231   7.106  0.1482  0.2752  0.0190
    1WF      WF66623  11.296  24.028   8.475 -0.2912  0.0785 -0.0885
    1WF      WF66624  14.266  23.713   8.454 -0.4117  0.2757 -0.1323
    1WF      WF66625  21.272  21.049   2.085  0.2320  0.5355  0.3783
    1WF      WF66626   8.907  11.333   7.228 -0.2598  0.0109  0.1850
    1WF      WF66627  18.163  12.588   0.635  0.0309 -0.1379 -0.2273
    1WF      WF66628  16.722  10.335   2.844 -0.2176 -0.1929 -0.0528
    1WF      WF66629  25.460  20.972   3.496  0.0569 -0.1594 -0.1771
    1WF      WF66630   6.668  20.812   8.377  0.1284 -0.0423  0.1018
    1WF      WF66631   3.648  10.618   0.265 -0.0890 -0.0439 -0.2512
    1WF      WF66632  24.679  21.971   8.950 -0.0207 -0.0984  0.3033
    1WF      WF66633  21.368   4.022   8.466 -0.1539  0.0240 -0.1252
    1WF      WF66634   1.347   7.952   9.375  0.0206 -0.1195  0.0022
    1WF      WF66635  19.591  19.204   1.884 -0.2301  0.1338  0.0545
    1WF      WF66636  26.660   9.287   9.128  0.3503  0.1562 -0.1453
    1WF      WF66637  28.490  21.797   2.215 -0.2093  0.2163 -0.1996
    1WF      WF66638  15.035  20.688   1.068  0.0903  0.1583  0.1327
    1WF      WF66639   2.322   2.945   8.889 -0.0351  0.3053 -0.0070
    1WF      WF66640  10.816   1.872   0.625 -0.1424 -0.2434 -0.0379
    1WF      WF66641  21.250  11.963   9.006  0.0262  0.1522 -0.1057
    1WF      WF66642  27.595  21.501   0.657 -0.0638  0.0336  0.1362
    1WF      WF66643   8.311  20.665   2.037  0.1214  0.1073  0.1950
    1WF      WF66644  23.622  23.103   8.456 -0.2085 -0.0834 -0.1778
    1WF      WF66645   5.895   0.157   6.052  0.2311  0.0325 -0.2158
    1WF      WF66646   0.947  23.785   0.965 -0.1633  0.1918 -0.0849
    1WF      WF66647  12.129  18.411   6.380 -0.0949 -0.1868  0.1417
    1WF      WF66648  19.792   5.249   0.338 -0.0522  0.0875 -0.1820
    1WF      WF66649   0.960  17.414   1.174  0.1976  0.0825  0.0467
    1WF      WF66650  17.443  29.401   0.005  0.4375  0.3902 -0.1349
    1WF      WF66651  27.313   6.365   8.903 -0.3268  0.1193 -0.0599
    1WF      WF66652   2.244  11.480   0.439  0.0293  0.2390  0.3742
    1WF      WF66653  12.970  28.887   9.396  0.1650 -0.2007 -0.2094
    1WF      WF66654   2.783  16.499   0.013 -0.0300 -0.1403 -0.0317
    1WF      WF66655   4.583  22.234   7.835  0.0541 -0.1842  0.0422
    1WF      WF66656   6.207  21.078   3.385 -0.0572 -0.2228 -0.1588
    1WF      WF66657  28.935  10.828   9.258  0.1214 -0.0008  0.5397
    1WF      WF66658   9.415   2.507   8.762 -0.2447  0.0905  0.0010
    1WF      WF66659  29.197  23.760   2.118 -0.0035  0.1465  0.1653
    1WF      WF66660  10.752  25.522   9.391 -0.0738  0.1194  0.0607
    1WF      WF66661  14.054   3.624   8.018 -0.0979 -0.0490  0.0114
    1WF      WF66662  16.695  15.499   7.592 -0.0684 -0.0783  0.0224
    1WF      WF66663   3.502   8.137   9.597  0.0274  0.3221  0.1484
    1WF      WF66664  17.259  14.170   0.957  0.1370 -0.2382 -0.0401
    1WF      WF66665   7.539  18.422   7.612 -0.1656 -0.3951  0.0782
    1WF      WF66666  22.177  22.362   1.957 -0.0441  0.1637 -0.3847
    1WF      WF66667   7.554  11.724   6.977  0.1756 -0.2255  0.0549
    1WF      WF66668  22.998  20.474   9.256  0.1914 -0.0108 -0.0632
    1WF      WF66669   7.308  20.981   8.453  0.0784  0.0460 -0.0030
    1WF      WF66670  29.403  12.921   8.028 -0.1799 -0.2627 -0.1242
    1WF      WF66671  10.733  16.279   7.202  0.2711 -0.1703  0.1980
    1WF      WF66672   2.951  27.219   1.668 -0.0155  0.3327  0.0427
    1WF      WF66673   5.063  26.435   1.092 -0.3232  0.4052 -0.1747
    1WF      WF66674  19.193  25.958   2.344 -0.0560 -0.0456 -0.3140
    1WF      WF66675  22.726  10.148   1.108 -0.1055 -0.1188  0.0795
    1WF      WF66676   2.263  25.458   7.329 -0.2015  0.4249  0.0024
    1WF      WF66677   7.889  22.585   1.161 -0.0457  0.3404 -0.0095
    1WF      WF66678  15.104  25.463   1.496 -0.0911  0.2256  0.1633
    1WF      WF66679  18.525  26.316   1.686  0.5758 -0.1408 -0.1980
    1WF      WF66680   4.736  20.183   9.193 -0.1141  0.1812 -0.0191
    1WF      WF66681  17.187  18.339   6.718  0.0120  0.1059 -0.0990
    1WF      WF66682  21.659  10.190   8.210 -0.1341  0.0834  0.0478
    1WF      WF66683  20.090  26.898   0.372  0.0532 -0.0113 -0.0056
    1WF      WF66684  16.031   3.254   2.938 -0.3140  0.1466  0.1049
    1WF      WF66685   4.652  22.650   8.059 -0.3255  0.2886  0.0895
    1WF      WF66686  10.859  15.111   0.639 -0.0602 -0.1015 -0.1984
    1WF      WF66687   0.915  26.561   7.595 -0.2956 -0.3280 -0.2115
    1WF      WF66688  27.102  17.006   8.327 -0.1537 -0.1809 -0.0831
    1WF      WF66689   7.452  12.812   1.684  0.1405 -0.1786 -0.1061
    1WF      WF66690  16.749  18.941   9.334 -0.0606  0.3660 -0.0242
    1WF      WF66691   8.410  18.744   1.417  0.1679 -0.2814 -0.2330
    1WF      WF66692  25.267   1.809   0.625 -0.4039 -0.0172  0.1712
    1WF      WF66693   3.430  17.387   8.388 -0.1484  0.1391  0.1619
    1WF      WF66694   4.540   6.202   6.499 -0.0443 -0.0132 -0.3305
    1WF      WF66695  26.317  26.143   2.585 -0.3475  0.2953  0.3793
    1WF      WF66696  15.108  17.204   0.846 -0.0790  0.0331 -0.1551
    1WF      WF66697  17.431  19.035   1.419 -0.1713 -0.1053 -0.0884
    1WF      WF66698  15.826   0.293   7.318  0.0092 -0.0410 -0.2093
    1WF      WF66699   3.509  26.384   0.579  0.0017  0.3267 -0.0928
    1WF      WF66700   1.714   9.391   8.342  0.0354 -0.1566  0.0332
    1WF      WF66701  16.152   8.681   7.902 -0.1119 -0.0530  0.1100
    1WF      WF66702  16.553   9.013   8.003  0.1246  0.0919  0.3118
    1WF      WF66703  18.464   9.817   8.326  0.2622  0.0705  0.2769
    1WF      WF66704   4.831  11.579   8.017 -0.1497  0.0789 -0.0222
    1WF      WF66705  20.775  20.506   9.366 -0.0965 -0.0095 -0.0532
    1WF      WF66706  28.309  16.928   0.895 -0.2946  0.2280  0.1742
    1WF      WF66707  26.780  20.347   1.511 -0.0486  0.2483  0.1670
    1WF      WF66708  10.291  16.521   7.190 -0.1837 -0.0846 -0.1409
    1WF      WF66709  28.868  15.685   8.537 -0.0948  0.0930  0.0840
    1WF      WF66710   7.373   1.052   2.420 -0.1910  0.1040 -0.0643
    1WF      WF66711   5.007   7.113   8.616  0.2132 -0.4607  0.0404
    1WF      WF66712  25.134  23.333   2.463  0.1421 -0.2662 -0.1268
    1WF      WF66713   5.721  14.817   8.431  0.2303  0.6208  0.3029
    1WF      WF66714   0.502   3.773   1.502 -0.1855 -0.1139  0.1558
    1WF      WF66715  20.014  20.235   1.141  0.0591  0.2158 -0.1028
    1WF      WF66716  25.304  26.713   1.419  0.2006  0.0689 -0.1385
    1WF      WF66717  12.610  15.295   1.214 -0.2478  0.2753  0.0406
    1WF      WF66718  21.091  24.482   9.522 -0.1746 -0.2310  0.1352
    1WF      WF66719   5.849  20.469   9.415  0.1810  0.0731 -0.1042
    1WF      WF66720  14.207  14.623   8.344  0.1988 -0.3166  0.2354
    1WF      WF66721  22.541  23.563   4.168 -0.2460 -0.0410  0.1847
    1WF      WF66722  25.504  22.098   2.751  0.0170 -0.0212 -0.0198
    1WF      WF66723  15.714   2.339   8.710  0.0687 -0.0047  0.2120
    1WF      WF66724   5.653  22.210   7.113  0.0728 -0.1133  0.2732
    1WF      WF66725   2.267  11.726   9.604  0.0899  0.3479  0.1509
    1WF      WF66726   8.396  20.099   2.031  0.1162  0.2935  0.2700
    1WF      WF66727   4.169   6.656   0.727  0.0780  0.1393 -0.0890
    1WF      WF66728   1.061  11.024   6.411  0.1933 -0.1518 -0.0914
    1WF      WF66729   6.883  28.090   8.662  0.3089  0.0725  0.2105
    1WF      WF66730  10.492  21.941   2.267 -0.1549  0.1736  0.1669
    1WF      WF66731   4.923  26.520   9.378 -0.0620  0.0717 -0.1177
    1WF      WF66732   9.142  16.589   7.444 -0.0357  0.0238  0.2062
    1WF      WF66733  25.417   7.834   9.216  0.1772 -0.3434 -0.3563
    1WF      WF66734  10.289   8.287   0.428 -0.0049 -0.1453 -0.2798
    1WF      WF66735   1.872  15.288   0.588  0.2867 -0.3555  0.1949
    1WF      WF66736   5.861  15.819   0.766  0.2550  0.0866  0.1824
    1WF      WF66737  22.760   8.639   9.519 -0.0723  0.3110  0.1120
    1WF      WF66738  26.718  12.079   8.600 -0.0518  0.0056  0.0714
    1WF      WF66739  26.683  15.998   0.809  0.0228  0.1691 -0.0497
    1WF      WF66740   1.876  16.092   3.377 -0.3427  0.0845 -0.0162
    1WF      WF66741  23.256  27.037   2.726 -0.2095  0.1502 -0.1105
    1WF      WF66742  24.459  13.071   8.528 -0.0679  0.2798  0.2614
    1WF      WF66743   7.769   7.944   9.349 -0.1569 -0.1813  0.1435
    1WF      WF66744   0.971  21.486   0.711  0.0181  0.0562  0.0998
    1WF      WF66745   5.248   6.259   0.517 -0.0770  0.4499  0.3099
    1WF      WF66746  16.472  13.333   8.095  0.0077  0.2109  0.1508
    1WF      WF66747   3.378   7.329   7.982 -0.2290  0.0896  0.2188
    1WF      WF66748  13.000   1.766   8.124  0.3160  0.0933  0.2471
    1WF      WF66749  24.547   3.568   9.497 -0.1932 -0.3110  0.3729
    1WF      WF66750   5.846  10.871   7.527 -0.0511 -0.2666  0.0032
    1WF      WF66751   9.349  21.741   1.671  0.3706  0.0553 -0.3421
    1WF      WF66752  14.099  26.961   0.489  0.2109  0.2526 -0.1429
    1WF      WF66753   1.080  19.710   0.271  0.1537 -0.0865  0.2605
    1WF      WF66754  23.967   1.379   0.680 -0.0282 -0.1901 -0.0462
    1WF      WF66755  20.266   5.090   0.091 -0.0883  0.0561  0.0248
    1WF      WF66756   7.281   4.736   5.486  0.0975  0.1704 -0.0282
    1WF      WF66757   4.137   1.331   8.780  0.0854  0.0407 -0.1893
    1WF      WF66758  15.717  15.598   8.252  0.1162  0.0487  0.3544
    1WF      WF66759   2.492  22.277   1.042 -0.2635 -0.1157  0.0389
    1WF      WF66760  11.272   9.537   9.484 -0.2252 -0.1245  0.0301
    1WF      WF66761  24.585  19.345   8.490  0.2506  0.3854  0.1707
    1WF      WF66762  10.343   4.520   8.491 -0.1290 -0.1811  0.3857
    1WF      WF66763  22.516   3.350   0.200  0.1726  0.1284 -0.0331
    1WF      WF66764  13.988  21.385   6.678  0.4676  0.0172  0.3463
    1WF      WF66765   8.752  17.385   7.244 -0.2045 -0.0508  0.2799
    1WF      WF66766  12.943  22.757   7.259 -0.0382  0.1055  0.7117
    1WF      WF66767  23.276  11.995   0.303 -0.0615 -0.0277 -0.0658
    1WF      WF66768  27.293  22.531   8.511 -0.1767 -0.2169  0.1123
    1WF      WF66769  27.612  20.248   7.646  0.2438  0.0961 -0.0682
    1WF      WF66770  23.813  27.037   2.206  0.1950 -0.1882 -0.0319
    1WF      WF66771  11.848  18.474   8.822  0.1220 -0.0245  0.3389
    1WF      WF66772  18.763   9.030   8.889  0.0137  0.0311 -0.0408
    1WF      WF66773  18.793   1.387   1.795 -0.2130 -0.2108  0.2347
    1WF      WF66774  25.003  22.850   2.322  0.1635  0.0499 -0.2949
    1WF      WF66775  19.012  21.960   1.847 -0.0807 -0.1795  0.1382
    1WF      WF66776   1.290  28.468   0.263 -0.1388  0.2526  0.3493
    1WF      WF66777  24.334  28.471   1.942  0.0016 -0.2653 -0.2344
    1WF      WF66778  15.696   3.966   9.324  0.1110 -0.2973  0.1690
    1WF      WF66779  13.730  25.837   9.160 -0.3717 -0.0446 -0.2264
    1WF      WF66780   7.644   4.234   0.985 -0.1183 -0.2446 -0.1831
    1WF      WF66781  20.034   1.935   8.901 -0.2178 -0.1405  0.1625
    1WF      WF66782   9.573   2.928   7.426  0.0568 -0.1653 -0.1005
    1WF      WF66783  17.252  15.112   1.730 -0.0244  0.0760 -0.1417
    1WF      WF66784  15.257  20.284   0.859  0.1289  0.2671 -0.3199
    1WF      WF66785  20.022  11.157   0.619  0.1240  0.3619 -0.0005
    1WF      WF66786  16.768   8.923   8.485 -0.4106 -0.0402  0.1256
    1WF      WF66787  11.242   4.731   0.157  0.0555 -0.2749  0.0245
    1WF      WF66788   1.856  19.014   6.922 -0.2158  0.2500 -0.0354
    1WF      WF66789  18.456   4.165   0.712 -0.0306  0.1696 -0.1866
    1WF      WF66790  16.456  21.346   8.863  0.3653  0.1113 -0.0824
    1WF      WF66791   8.570  19.231   0.567  0.2818  0.3886  0.0832
    1WF      WF66792   5.300  27.926   0.063  0.1014 -0.0768 -0.0795
    1WF      WF66793   4.161  12.586   8.688 -0.1168 -0.1657 -0.0685
    1WF      WF66794   9.391   7.702   1.322  0.3651 -0.1684 -0.1031
    1WF      WF66795  15.853  15.368   7.166 -0.2157  0.2216 -0.3344
    1WF      WF66796   5.469   6.508   7.021 -0.0414  0.0397 -0.0757
    1WF      WF66797  22.886   3.713   0.136  0.1770  0.3357  0.3119
    1WF      WF66798  14.917  28.213   0.422  0.2879 -0.2561  0.2688
    1WF      WF66799  21.734  13.339   0.148  0.1775  0.0556 -0.2015
    1WF      WF66800   2.956   3.926   9.527  0.0817 -0.1463 -0.0300
    1WF      WF66801  23.279  17.347   1.469  0.0667  0.1443 -0.1125
    1WF      WF66802  24.134  22.720   6.929 -0.0500 -0.3746  0.1654
    1WF      WF66803  28.806  29.099   8.831  0.0339  0.0065 -0.0641
    1WF      WF66804   8.058  19.502   0.655  0.0163  0.0662 -0.2049
    1WF      WF66805   0.903  28.846   8.518  0.0479  0.2596 -0.3352
    1WF      WF66806  23.371  18.663   3.176 -0.0002 -0.3164 -0.2323
    1WF      WF66807  15.020   3.871   7.702  0.2121  0.1285  0.1787
    1WF      WF66808  10.419   6.315   7.142 -0.1306  0.1974 -0.2183
    1WF      WF66809  28.837   6.761   7.403 -0.2139  0.1527  0.0522
    1WF      WF66810  13.090  27.372   5.925  0.3614 -0.0379  0.2390
    1WF      WF66811   4.841  24.391   7.764 -0.0644 -0.0307 -0.0398
    1WF      WF66812   0.166   2.315   7.156  0.4298  0.2565 -0.1623
    1WF      WF66813  12.985  24.847   7.611 -0.1655  0.1145 -0.1691
    1WF      WF66814  19.935  29.117   8.466  0.0460  0.0921  0.0511
    1WF      WF66815  13.549  27.426   2.603 -0.3373  0.0719  0.0207
    1WF      WF66816   6.052   5.148   7.235  0.0918  0.0681 -0.0315
    1WF      WF66817  24.960  20.004   0.869  0.1604 -0.1252 -0.2739
    1WF      WF66818  11.299  16.237   1.164 -0.3006  0.0122 -0.0349
    1WF      WF66819   9.373   6.475   0.756 -0.0442 -0.0940  0.0451
    1WF      WF66820  14.096   3.970   8.363  0.1714 -0.3867  0.0993
    1WF      WF66821   5.273   4.573   9.321  0.2321 -0.0399 -0.0794
    1WF      WF66822  15.447   3.588   9.542 -0.2858  0.2131  0.1868
    1WF      WF66823   8.995  25.497   9.601  0.0169 -0.0204 -0.0346
    1WF      WF66824   7.533  13.814   0.619  0.0857 -0.0999  0.2261
    1WF      WF66825  19.513  18.850   7.710 -0.0184  0.0696 -0.1759
    1WF      WF66826  26.905   9.310   9.612 -0.0534  0.0877 -0.0864
    1WF      WF66827  18.432  18.498   2.805  0.1641  0.1593  0.2867
    1WF      WF66828   7.222  12.684   8.437  0.0256  0.0953 -0.1175
    1WF      WF66829   3.016   7.051   7.776  0.1963  0.1279 -0.2757
    1WF      WF66830  26.592  19.910   1.786 -0.0641 -0.1519  0.1640
    1WF      WF66831  25.814   9.336   1.277  0.2571  0.1059 -0.2001
    1WF      WF66832   7.478  17.663   0.238  0.0164 -0.2228  0.4683
    1WF      WF66833  16.664  27.868   0.978  0.1621 -0.0490 -0.1043
    1WF      WF66834   0.346   9.101   9.577  0.0475  0.4522  0.1123
    1WF      WF66835   2.752  22.307   8.820  0.1535 -0.0191  0.1470
    1WF      WF66836  14.847   2.522   0.957 -0.1596 -0.2786 -0.0669
    1WF      WF66837   9.320   8.827   7.851  0.1618 -0.2401  0.0409
    1WF      WF66838   2.729  19.272   6.818 -0.1920 -0.1238  0.0642
    1WF      WF66839  21.893  12.396   0.413 -0.1139  0.0199  0.2092
    1WF      WF66840  19.215  25.970   2.837  0.1111 -0.1132 -0.0270
    1WF      WF66841   7.302  13.024   7.995 -0.0840  0.0605 -0.0701
    1WF      WF66842   2.753  27.541   1.345 -0.0813 -0.2955  0.0597
    1WF      WF66843  19.508   6.525   1.325  0.1401 -0.1234 -0.1433
    1WF      WF66844  18.461   1.870   1.913 -0.5620  0.3525 -0.0901
    1WF      WF66845  19.835  26.843   1.053 -0.2860 -0.1697 -0.2918
    1WF      WF66846  23.923  25.635   8.841  0.0206  0.0311  0.1373
    1WF      WF66847  18.636  27.831   2.061 -0.3774 -0.1016 -0.3254
    1WF      WF66848  13.065   3.880   8.524  0.3931 -0.1182  0.0235
    1WF      WF66849   8.925  11.584   8.417 -0.3341  0.2358 -0.0628
    1WF      WF66850  13.275   3.141   8.301  0.0073 -0.0796  0.0393
    1WF      WF66851  10.351  21.766   7.958  0.0125  0.1049  0.0197
    1WF      WF66852  14.673  25.837   0.748  0.1307  0.0964  0.0572
    1WF      WF66853   2.156  13.432   7.735  0.2293  0.0614  0.2072
    1WF      WF66854  23.390  24.370   1.598 -0.2140  0.1390  0.0233
    1WF      WF66855   4.606   8.013   0.814  0.3120 -0.1339  0.2703
    1WF      WF66856  11.599   6.934   8.016  0.0168  0.0392  0.3528
    1WF      WF66857   5.856  11.928   9.184 -0.1537  0.0723  0.2105
    1WF      WF66858  18.208  13.125   1.470 -0.0805 -0.0079 -0.2036
    1WF      WF66859  14.295  13.351   8.480 -0.3565 -0.2086  0.2312
    1WF      WF66860  13.071  23.532   5.768  0.3215  0.1232  0.4391
    1WF      WF66861  23.151  18.439   1.345 -0.3497  0.0127  0.1477
    1WF      WF66862  13.882  14.542   0.789  0.1227 -0.3969 -0.0670
    1WF      WF66863  21.827  16.745   9.148  0.0463  0.0547 -0.2171
    1WF      WF66864   6.422  24.778   1.166  0.2105  0.0326 -0.2781
    1WF      WF66865   3.085  11.342   0.104  0.1378 -0.0724  0.4353
    1WF      WF66866  19.810  14.291   3.175  0.1198 -0.1450 -0.0432
    1WF      WF66867  27.586   4.692   1.078  0.3001 -0.0176  0.0003
    1WF      WF66868   3.271  26.641   0.170  0.2506  0.1698  0.0827
    1WF      WF66869  26.988  23.332   8.052 -0.1164  0.0390  0.0198
    1WF      WF66870  22.136   9.845   1.326 -0.2715  0.0245  0.2407
    1WF      WF66871   4.956   2.588   9.344 -0.0859 -0.0965 -0.0595
    1WF      WF66872  29.143   6.136   0.696 -0.0344 -0.0306 -0.3710
    1WF      WF66873  14.639  23.151   8.310 -0.1615  0.2745  0.2358
    1WF      WF66874   6.347  21.690   8.388  0.0083 -0.0907  0.1367
    1WF      WF66875  25.276   7.360   9.428 -0.0072 -0.2526 -0.0493
    1WF      WF66876   7.238   3.501   8.988 -0.2555  0.0966  0.1860
    1WF      WF66877  22.957  17.648   1.735 -0.1216  0.1762  0.1413
    1WF      WF66878  25.427  12.013   0.147 -0.0449  0.1032 -0.1565
    1WF      WF66879  13.090  10.134   2.054 -0.0295 -0.0978  0.4104
    1WF      WF66880   6.254   1.238   9.367 -0.2145 -0.2900  0.1980
    1WF      WF66881  15.233   2.169   1.566  0.3170 -0.0997  0.1794
    1WF      WF66882  22.113   0.371   2.099 -0.0320  0.0005 -0.0282
    1WF      WF66883  28.942  15.782   8.012 -0.2097  0.0074  0.0714
    1WF      WF66884  23.446  10.560   1.049  0.0033  0.1502  0.0603
    1WF      WF66885  17.582  27.783   0.507 -0.1962  0.3069  0.0564
    1WF      WF66886   8.889  22.624   8.205 -0.0842  0.1442  0.0042
    1WF      WF66887  27.566   6.332   9.490  0.0884  0.1888  0.0416
    1WF      WF66888  18.391   8.094   0.011 -0.1789 -0.0812 -0.0867
    1WF      WF66889  25.555  10.031   7.021  0.0451  0.1002 -0.0994
    1WF      WF66890   0.997  16.660   9.377 -0.3417  0.0776  0.1635
    1WF      WF66891  29.447   1.179   1.062  0.0160  0.2511  0.2535
    1WF      WF66892  10.941   5.053   7.844  0.1545 -0.1165 -0.2314
    1WF      WF66893   6.926  16.759   0.244  0.0390  0.1120  0.0750
    1WF      WF66894  16.359   9.228   9.563 -0.2077 -0.0545 -0.3900
    1WF      WF66895  21.747  20.290   0.610 -0.0606  0.1184 -0.3334
    1WF      WF66896  27.327   0.495   2.019 -0.0221  0.0469  0.0611
    1WF      WF66897  25.868  26.690   0.574 -0.0658  0.3413 -0.0554
    1WF      WF66898  12.427  14.998   1.614 -0.1729  0.1812 -0.1352
    1WF      WF66899  27.324  12.005   0.629  0.3245 -0.0187 -0.0825
    1WF      WF66900   6.130  17.828   0.955 -0.0111  0.2268 -0.2642
    1WF      WF66901   2.689  28.465   8.968  0.3270  0.1290  0.0308
    1WF      WF66902   6.943   1.757   7.748  0.2972  0.1533 -0.1612
    1WF      WF66903  18.359  18.984   9.558 -0.2520  0.0593  0.0447
    1WF      WF66904  14.694  22.196   8.368 -0.1178 -0.1011 -0.3004
    1WF      WF66905   7.348  23.877   6.440  0.1309 -0.0049 -0.2623
    1WF      WF66906  27.597   4.641   1.923  0.1333  0.0629 -0.0691
    1WF      WF66907   0.280   8.630   7.789  0.2247  0.3848  0.1123
    1WF      WF66908  23.120   7.448   0.910  0.0685 -0.1226  0.0458
    1WF      WF66909  24.648  24.038   3.115 -0.2040 -0.1079 -0.1108
    1WF      WF66910  10.284  12.806   2.495  0.0949 -0.1922  0.2500
    1WF      WF66911  24.509  15.649   0.406 -0.1535  0.1434  0.0146
    1WF      WF66912   4.922  18.684   9.292 -0.4520  0.0071 -0.1840
    1WF      WF66913   1.404  25.254   0.178  0.0972 -0.0985  0.1432
    1WF      WF66914  19.849  24.133   1.190 -0.2105 -0.0936 -0.0010
    1WF      WF66915  22.832  16.299   9.033 -0.0099  0.1774  0.2302
    1WF      WF66916  14.908  13.949   8.329  0.1760 -0.0260  0.0278
    1WF      WF66917  16.106  27.274   8.431  0.0271 -0.1089 -0.0512
    1WF      WF66918  17.019  19.364   9.141 -0.0237 -0.0880 -0.0756
    1WF      WF66919  20.616   6.937   7.172  0.2262  0.1286  0.2220
    1WF      WF66920  29.286   7.033   9.646  0.0353  0.3092 -0.2481
    1WF      WF66921  23.264  10.102   1.060 -0.0045  0.0935 -0.3755
    1WF      WF66922  13.593  13.352   7.953  0.0840 -0.2525 -0.0985
    1WF      WF66923  11.901   4.034   9.039 -0.1097 -0.3999  0.2576
    1WF      WF66924  24.130   2.247   2.825 -0.2309  0.1414  0.1385
    1WF      WF66925  22.304  23.171   3.498  0.0277  0.3061  0.0744
    1WF      WF66926  21.499  20.654   0.378  0.1778 -0.1998  0.1327
    1WF      WF66927  19.901  21.448   1.050  0.2588  0.1396  0.1479
    1WF      WF66928   9.308  22.903   8.384  0.0716  0.0418 -0.1393
    1WF      WF66929   2.665   4.243   0.559  0.0591  0.1054 -0.2885
    1WF      WF66930   8.061  13.918   0.574 -0.0553 -0.0473 -0.0836
    1WF      WF66931   3.655  26.777   7.940  0.0605 -0.0774 -0.0073
    1WF      WF66932  11.752   4.640   0.055 -0.4904  0.0088 -0.0673
    1WF      WF66933  16.105   2.211   9.034  0.2163  0.3380  0.3811
    1WF      WF66934  19.522  22.246   0.630  0.2793 -0.0556  0.0761
    1WF      WF66935  13.744  24.535   0.398 -0.0610 -0.0361  0.0213
    1WF      WF66936  12.238  14.838   0.156  0.0089 -0.1001  0.0400
    1WF      WF66937  12.553   6.125   8.513 -0.1346  0.3603  0.0595
    1WF      WF66938  21.224   5.801   8.901 -0.1786  0.0411  0.1073
    1WF      WF66939  11.784  24.253   7.246  0.0525  0.1154  0.1146
    1WF      WF66940   7.822  25.959   0.452 -0.0406  0.2956 -0.1903
    1WF      WF66941  27.852  19.936   1.987  0.1769  0.1443 -0.1508
    1WF      WF66942   2.961   3.651   9.063  0.3833 -0.0144  0.1178
    1WF      WF66943  14.896   3.178   8.809 -0.0161  0.1105 -0.1066
    1WF      WF66944   3.640  27.619   9.507 -0.2927 -0.0204 -0.1224
    1WF      WF66945   7.847   2.005   7.202 -0.0567  0.0185 -0.2771
    1WF      WF66946  12.309   1.877   9.633 -0.0193  0.0230 -0.2421
    1WF      WF66947  26.516  12.004   9.040 -0.1971 -0.2698  0.0977
    1WF      WF66948  25.430   0.126   9.178  0.0364  0.0815 -0.2139
    1WF      WF66949  17.391  15.311   8.491  0.1947  0.0995  0.1514
    1WF      WF66950  11.250  10.009   9.343  0.1598 -0.1392  0.0207
    1WF      WF66951  10.131  27.225   8.663  0.2262 -0.2357 -0.1266
    1WF      WF66952  15.869  14.998   7.587 -0.1601 -0.0483 -0.2961
    1WF      WF66953   6.731  13.232   1.110  0.1353 -0.1318  0.2528
    1WF      WF66954  24.815  16.455   0.152 -0.0311  0.1392 -0.0580
    1WF      WF66955  15.790  20.308   0.630 -0.3054  0.0138  0.0451
    1WF      WF66956   2.722  11.674   0.152  0.2539  0.3190  0.0091
    1WF      WF66957  15.334  20.193   0.334 -0.0041  0.0375  0.0573
    1WF      WF66958  23.048  29.033   1.640  0.0513 -0.0941  0.0100
    1WF      WF66959   2.970  13.121   9.219 -0.0213  0.1386  0.0250
    1WF      WF66960   4.226  23.861   2.173 -0.0196  0.1631 -0.2388
    1WF      WF66961  24.777   4.634   1.224  0.0609 -0.1424 -0.0595
    1WF      WF66962  27.066  27.825   8.975 -0.1488  0.0097 -0.0458
    1WF      WF66963  22.386  28.248   9.614  0.1060 -0.1128 -0.1927
    1WF      WF66964   4.720  17.697   1.069 -0.0638 -0.0194  0.0248
    1WF      WF66965  23.737   5.251   8.823  0.2289 -0.0386 -0.2394
    1WF      WF66966   6.948   5.730   8.779  0.1475  0.1475 -0.1448
    1WF      WF66967  25.532  14.655   1.050  0.0723  0.0492 -0.0799
    1WF      WF66968  26.563   4.316   8.893 -0.0480 -0.3408 -0.4165
    1WF      WF66969   9.108  11.754   7.432  0.3798  0.1569 -0.0172
    1WF      WF66970   2.433   5.434   9.463 -0.0539 -0.4393  0.0431
    1WF      WF66971  21.806  18.184   0.412 -0.2032  0.0626  0.1142
    1WF      WF66972   8.253   9.618   8.879 -0.0010  0.1158 -0.1552
    1WF      WF66973  22.210  27.813   0.307  0.0122  0.1025  0.1523
    1WF      WF66974  18.255  20.377   0.104 -0.1509 -0.0606  0.2112
    1WF      WF66975  24.907   3.934   9.389 -0.2847  0.3947 -0.3576
    1WF      WF66976  22.463  27.689   8.609  0.3939  0.5963  0.1831
    1WF      WF66977   3.288   1.581   8.363  0.1625  0.1458  0.2306
    1WF      WF66978  22.201  12.032   8.983 -0.1263 -0.2282 -0.0679
    1WF      WF66979   2.129   4.633   7.805  0.0009 -0.0262 -0.1642
    1WF      WF66980  28.532   0.504   0.758  0.4070 -0.1333 -0.0585
    1WF      WF66981  16.585  26.827   0.982  0.1586 -0.0375 -0.0246
    1WF      WF66982   4.332  14.783   0.157 -0.0590 -0.0405  0.0017
    1WF      WF66983   4.054   3.157   8.241 -0.2417 -0.3326 -0.3444
    1WF      WF66984   7.495  11.323   0.457  0.0002 -0.0194  0.0605
    1WF      WF66985  24.217  23.603   0.688  0.2615  0.1522 -0.2400
    1WF      WF66986  24.398  24.371   1.025 -0.1631 -0.0291 -0.2527
    1WF      WF66987  27.147   0.980   3.459 -0.1665 -0.3553  0.5659
    1WF      WF66988  11.601  24.179   1.396  0.1635 -0.2855  0.0271
    1WF      WF66989   5.754  24.360   1.036  0.0264  0.1285  0.0843
    1WF      WF66990   4.178   6.469   7.463  0.1108 -0.2055 -0.0081
    1WF      WF66991  25.676  10.374   8.339 -0.4460 -0.1727  0.1460
    1WF      WF66992  10.166  26.257   8.549  0.0215  0.0041  0.3626
    1WF      WF66993  16.367  21.720   8.495 -0.1812 -0.2059 -0.3532
    1WF      WF66994  27.771  22.538   1.222  0.0878  0.3106 -0.0851
    1WF      WF66995   9.552   1.824   7.380  0.0946 -0.1235 -0.1001
    1WF      WF66996   6.455  16.500   0.264  0.1239 -0.1664  0.0985
    1WF      WF66997   5.235  24.231   2.496 -0.0685 -0.1486 -0.0702
    1WF      WF66998  14.111   0.102   7.626 -0.2099 -0.0249 -0.2511
    1WF      WF66999  24.590   8.487   8.953  0.4156 -0.0453  0.0301
    1WF      WF67000  14.753  16.877   2.133  0.0903 -0.2550 -0.1968
    1WF      WF67001  29.013   1.289   5.730  0.0736  0.0754 -0.2113
    1WF      WF67002  17.655  16.450   1.548  0.1147 -0.0126  0.3266
    1WF      WF67003  19.359  24.303   3.784  0.1204 -0.0469  0.1366
    1WF      WF67004   0.210  25.214   0.209 -0.0692  0.1833  0.0701
    1WF      WF67005   7.332  28.194   8.466  0.0458  0.1671 -0.2473
    1WF      WF67006  12.574   1.616   7.907  0.1756  0.0547  0.2803
    1WF      WF67007  12.447  26.678   1.407  0.1160 -0.0711 -0.3080
    1WF      WF67008   3.995   8.731   0.649  0.0272 -0.0138 -0.3082
    1WF      WF67009  19.933  25.268   1.785  0.2506 -0.2442  0.2500
    1WF      WF67010  28.976  26.694   3.396  0.0374  0.0159  0.2755
    1WF      WF67011  17.181  28.557   8.816 -0.0541 -0.0799 -0.0904
    1WF      WF67012  12.192  10.418   8.693 -0.2186  0.1407 -0.0321
    1WF      WF67013   9.758  24.324   9.490 -0.4058  0.4209  0.0736
    1WF      WF67014  12.155   8.313   2.128  0.0422  0.0132  0.0929
    1WF      WF67015  27.246  11.791   0.076  0.1248 -0.2155  0.1015
    1WF      WF67016   8.685  25.213   6.860  0.0234  0.3581  0.0317
    1WF      WF67017  10.379  16.652   8.887 -0.2870  0.3207 -0.2229
    1WF      WF67018  27.301  23.696   7.766  0.1409 -0.1615  0.1545
    1WF      WF67019  17.790  24.398   0.222 -0.0277 -0.3975  0.0411
    1WF      WF67020  21.976   9.642   0.832  0.0298 -0.0970 -0.2171
    1WF      WF67021   3.233  22.937   1.911  0.2218 -0.1399  0.1980
    1WF      WF67022   4.485  28.653   8.809  0.0734 -0.0815 -0.1746
    1WF      WF67023   4.568  14.180   0.005  0.0801  0.2626 -0.1883
    1WF      WF67024   7.289   1.629   6.467  0.1076  0.1614 -0.0458
    1WF      WF67025  14.877  16.843   1.645  0.2574  0.2156 -0.0972
    1WF      WF67026  27.419   5.531   0.786 -0.1842 -0.4320  0.0754
    1WF      WF67027  17.718   9.542   0.091 -0.1011  0.0265 -0.3518
    1WF      WF67028  24.963   4.812   8.486 -0.1893  0.2963 -0.1447
    1WF      WF67029  14.606  20.955   0.842 -0.1907  0.2008 -0.1191
    1WF      WF67030   5.637  22.237   6.582 -0.0316 -0.1872  0.0887
    1WF      WF67031  12.578  19.736   0.143  0.0230 -0.2293 -0.0587
    1WF      WF67032  28.745  23.956   7.218  0.0404  0.1783  0.3107
    1WF      WF67033  29.127  11.793   0.953 -0.0117  0.0067 -0.2120
    1WF      WF67034  28.723  19.057   7.876  0.3711  0.0442  0.2440
    1WF      WF67035  15.871   4.732   7.744  0.0672  0.2160  0.2914
    1WF      WF67036  12.050  11.797   7.148 -0.0096  0.1845 -0.0826
    1WF      WF67037  19.911  15.265   0.244  0.2815  0.1430  0.1124
    1WF      WF67038   3.764   9.682   8.098 -0.1708 -0.0087 -0.1667
    1WF      WF67039  23.431  28.319   3.873  0.1138  0.1246  0.0882
    1WF      WF67040  13.353   4.448   7.858  0.0302 -0.2314 -0.0563
    1WF      WF67041   2.535  27.380   0.842  0.0545 -0.0516 -0.2761
    1WF      WF67042  12.985  27.548   0.313  0.2926  0.0260 -0.0654
    1WF      WF67043   3.836   0.592   1.574 -0.0344 -0.1413  0.2856
    1WF      WF67044   4.101   5.159   9.624 -0.0106 -0.0644 -0.2637
    1WF      WF67045   1.192  20.203   8.783  0.0210  0.0370 -0.2393
    1WF      WF67046  10.628  22.248   7.877 -0.1698 -0.2503  0.0079
    1WF      WF67047   8.061  14.833   1.717 -0.1345  0.4203 -0.0806
    1WF      WF67048  11.775   6.500   8.084 -0.0971  0.5113 -0.1029
    1WF      WF67049   6.752  14.059   8.544 -0.0740  0.0566  0.1384
    1WF      WF67050  15.950  27.302   2.979 -0.0745  0.0621 -0.3599
    1WF      WF67051  14.004  24.253   0.785  0.1156  0.2353  0.1206
    1WF      WF67052   2.980   5.635   0.536 -0.0665 -0.0897 -0.2518
    1WF      WF67053   5.497   0.015   7.641  0.1886 -0.0191 -0.0975
    1WF      WF67054  24.906  29.592   8.210  0.0503 -0.1168 -0.0238
    1WF      WF67055  17.344   1.585   7.320  0.0527 -0.2321  0.1765
    1WF      WF67056  14.541  10.278   1.301  0.0357  0.3913 -0.2161
    1WF      WF67057   9.395  12.554   8.591  0.1649 -0.0766  0.3911
    1WF      WF67058  15.324  13.621   8.573 -0.0999  0.1393  0.4782
    1WF      WF67059   7.954  20.198   7.963 -0.1148  0.1807  0.0109
    1WF      WF67060  27.172   0.653   8.096  0.2959 -0.0373  0.3151
    1WF      WF67061  17.950  25.681   9.610  0.2880  0.1210  0.0541
    1WF      WF67062  17.514   4.665   1.625 -0.0234  0.3029  0.0875
    1WF      WF67063  16.005   0.737   1.373 -0.4218  0.1166  0.2795
    1WF      WF67064   8.468  10.127   6.467 -0.0206 -0.1530  0.0507
    1WF      WF67065  27.607  21.975   0.176 -0.0884  0.0527  0.2321
    1WF      WF67066   0.164  15.134   2.324  0.0417  0.1169  0.1143
    1WF      WF67067  18.593  19.665   8.869 -0.2224 -0.1566 -0.0069
    1WF      WF67068  16.290  12.379   9.183  0.0666  0.0051  0.0032
    1WF      WF67069  21.593  13.117   1.407  0.1484 -0.5048  0.1904
    1WF      WF67070   6.641   0.225   9.481 -0.0485  0.1406 -0.0807
    1WF      WF67071  24.253  22.235   8.911 -0.0427  0.0134  0.0184
    1WF      WF67072   4.764  14.653   9.559 -0.0145 -0.1688  0.1947
    1WF      WF67073  10.363  14.576   7.412  0.1000  0.0179 -0.0153
    1WF      WF67074  12.182  23.447   7.478  0.0983  0.0971  0.0894
    1WF      WF67075   7.402   9.825   7.315  0.1023  0.3014  0.0848
    1WF      WF67076  27.954  19.241   9.549  0.0097 -0.1414  0.0916
    1WF      WF67077   9.729   2.780   2.381 -0.0867 -0.3727 -0.0232
    1WF      WF67078  19.654  12.763   1.890 -0.0100  0.0834 -0.1614
    1WF      WF67079  18.574   3.575   8.703  0.1991 -0.3073  0.0585
    1WF      WF67080  10.723  24.437   8.527 -0.0879 -0.0534 -0.2954
    1WF      WF67081  27.098  14.378   2.233  0.2118  0.0215 -0.2807
    1WF      WF67082  11.936  23.822   7.164 -0.0099  0.3486 -0.1883
    1WF      WF67083   7.410  26.479   2.875 -0.2294 -0.0462  0.3467
    1WF      WF67084  19.420   5.202   8.703  0.1680  0.2155 -0.2483
    1WF      WF67085   9.902  21.532   0.203  0.2408 -0.1623 -0.1654
    1WF      WF67086   0.370   2.066   9.417 -0.2027 -0.2356  0.1192
    1WF      WF67087  12.865  16.720   8.481  0.0694 -0.2041  0.1207
    1WF      WF67088   6.580   2.816   6.889  0.2020  0.0271 -0.0755
    1WF      WF67089   2.170   5.005   9.593 -0.3070  0.0324 -0.1530
    1WF      WF67090   3.997  16.008   0.971  0.0055 -0.1047  0.1013
    1WF      WF67091   2.264  11.067   7.494  0.1729  0.1927 -0.2488
    1WF      WF67092  15.241   3.715   1.130 -0.1537  0.0614  0.0315
    1WF      WF67093   8.043  14.092   7.392  0.0454 -0.2667 -0.3274
    1WF      WF67094   1.625  23.819   2.533  0.2389 -0.2311  0.2497
    1WF      WF67095   0.460   7.886   8.827 -0.0813  0.1026  0.1338
    1WF      WF67096  13.870   6.985   8.978 -0.1292 -0.0642 -0.3196
    1WF      WF67097  16.943  11.697   1.425 -0.0854  0.0985  0.4282
    1WF      WF67098  15.119  22.316   8.096 -0.1825  0.0390 -0.3057
    1WF      WF67099   5.765  14.688   9.331  0.0939 -0.0019 -0.0581
    1WF      WF67100  10.959  19.921   8.475 -0.1292 -0.1549  0.1919
    1WF      WF67101  15.208  18.710   1.009 -0.1139  0.0145  0.3597
    1WF      WF67102   5.199  17.778   1.087  0.1548  0.0596 -0.2854
    1WF      WF67103  11.047  26.895   0.627  0.1469 -0.0976  0.0391
    1WF      WF67104   8.374  27.228   1.516 -0.2772 -0.3113 -0.0447
    1WF      WF67105  18.962   3.753   7.576  0.0657  0.0978 -0.1432
    1WF      WF67106  28.366  22.688   9.129  0.1106  0.1454 -0.1983
    1WF      WF67107   0.953   6.556   1.438  0.3097  0.0486  0.0861
    1WF      WF67108   6.492   1.241   1.319  0.1789  0.2239 -0.0634
    1WF      WF67109   9.455   8.236   2.647  0.0458  0.1182  0.1689
    1WF      WF67110  11.161  19.322   1.582  0.1293 -0.3560  0.1128
    1WF      WF67111   5.029  18.710   0.404 -0.0248 -0.1576  0.3947
    1WF      WF67112  10.592  23.264   1.120  0.0057 -0.1172  0.1095
    1WF      WF67113  14.237   5.253   1.696 -0.0481  0.1421  0.1089
    1WF      WF67114  14.128  11.709   0.084 -0.0775 -0.3445  0.0405
    1WF      WF67115  14.680  18.505   0.957  0.0969  0.1781  0.2130
    1WF      WF67116   2.721  29.586   0.446 -0.0544 -0.0775 -0.3189
    1WF      WF67117   4.904  13.701   0.047 -0.2092 -0.0790 -0.2956
    1WF      WF67118  19.578  11.403   0.874 -0.1687 -0.0684  0.2216
    1WF      WF67119  18.550  18.064   2.609 -0.0129 -0.1395 -0.0562
    1WF      WF67120   0.264   4.665   9.226  0.1279  0.3790 -0.1723
    1WF      WF67121  10.025  16.507   8.241 -0.0229 -0.1444 -0.0590
    1WF      WF67122  28.721  12.823   8.146  0.3045 -0.0355  0.0978
    1WF      WF67123  22.544  10.388   9.093  0.0029 -0.1791 -0.2928
    1WF      WF67124   9.532   1.327   8.567 -0.0182  0.1356  0.1184
    1WF      WF67125  21.254   3.582   8.565  0.0614  0.0012  0.2689
    1WF      WF67126   2.190  11.899   8.546 -0.5183  0.0499  0.0252
    1WF      WF67127  26.339  15.632   0.505 -0.3730 -0.0545  0.1576
    1WF      WF67128   9.073   1.596   8.809  0.0234  0.0297  0.0240
    1WF      WF67129   8.672  15.979   7.721  0.2288  0.2863 -0.0010
    1WF      WF67130   1.229  28.400   1.642 -0.1489 -0.0103  0.1330
    1WF      WF67131  21.477   3.324   1.837  0.0078  0.3880 -0.1819
    1WF      WF67132   6.161  16.867   0.469  0.1451  0.0095  0.1600
    1WF      WF67133   6.880  10.719   7.467  0.1092  0.2154  0.2083
    1WF      WF67134  26.848  27.143   7.634  0.2068  0.1043  0.2396
    1WF      WF67135   2.278   5.773   8.984 -0.1179 -0.2098  0.0766
    1WF      WF67136   8.379  18.569   9.168 -0.0879 -0.2746  0.3104
    1WF      WF67137  10.237  17.814   0.326 -0.1043 -0.0909  0.2589
    1WF      WF67138   5.795  24.825   7.920  0.1022 -0.0447 -0.0559
    1WF      WF67139   7.710   8.667   8.379  0.2747  0.1671 -0.2475
    1WF      WF67140  11.344  25.915   0.922 -0.0772  0.2893 -0.0366
    1WF      WF67141  11.861  22.644   0.314  0.2484 -0.1202  0.3422
    1WF      WF67142  21.718  14.650   8.578  0.0027  0.1506 -0.2123
    1WF      WF67143  23.342  28.621   1.849 -0.0970 -0.1278  0.2047
    1WF      WF67144   8.903   0.258   0.085  0.1682  0.0463 -0.2771
    1WF      WF67145  21.975  25.828   8.614 -0.3506 -0.1107  0.0468
    1WF      WF67146  16.696  18.052   0.715  0.4115 -0.0447 -0.0145
    1WF      WF67147  27.568  11.270   7.946 -0.2142 -0.0249 -0.0009
    1WF      WF67148  20.026  18.768   3.806  0.0263 -0.2167 -0.0508
    1WF      WF67149   7.516  25.586   0.212  0.1249 -0.2384  0.0528
    1WF      WF67150  17.012   9.185   8.106 -0.0737  0.0352 -0.3021
    1WF      WF67151  13.131  17.000   7.182  0.0871 -0.0849  0.2002
    1WF      WF67152  26.228  27.432   6.954 -0.0460  0.1691 -0.4271
    1WF      WF67153   3.861  25.658   1.852 -0.0109  0.0789  0.1858
    1WF      WF67154   0.753   0.351   7.982  0.1006 -0.2193 -0.1215
    1WF      WF67155  14.722   5.322   1.508 -0.1509  0.0900  0.0467
    1WF      WF67156  25.259   0.305   0.669  0.0382 -0.0078 -0.3926
    1WF      WF67157  12.654   8.278   1.979  0.0682  0.2345 -0.2509
    1WF      WF67158   8.290  16.960   1.345  0.1185 -0.2315  0.0596
    1WF      WF67159  19.336   6.927   1.596  0.3681  0.1119 -0.1178
    1WF      WF67160  25.120  24.292   3.185  0.0549 -0.0887 -0.0524
    1WF      WF67161  12.585  17.733   0.496  0.0243  0.0829  0.0156
    1WF      WF67162   9.115   4.082   7.098  0.0989  0.1391  0.3480
    1WF      WF67163   0.162   2.363   7.714 -0.2657 -0.0776 -0.0167
    1WF      WF67164   8.529  10.606   8.485 -0.2901  0.2310  0.3476
    1WF      WF67165  29.015  27.750   0.009  0.1999 -0.1257  0.1849
    1WF      WF67166  21.968  25.515   2.618  0.0219 -0.3712 -0.0257
    1WF      WF67167  12.612  24.910   8.780 -0.0929 -0.3125  0.0762
    1WF      WF67168   6.000  11.600   0.004 -0.2063 -0.1053 -0.1440
    1WF      WF67169   9.419   6.318   7.089 -0.1502  0.0400 -0.0070
    1WF      WF67170  21.465  24.803   9.419  0.1151 -0.0567  0.1432
    1WF      WF67171  25.429  27.111   1.728  0.1503 -0.1088 -0.0609
    1WF      WF67172  20.882  13.398   9.381  0.2116  0.0958 -0.1656
    1WF      WF67173  24.956   3.187   2.919 -0.1931 -0.0309  0.0327
    1WF      WF67174   9.996  12.540   5.928 -0.3276  0.0690  0.3195
    1WF      WF67175  26.207   3.391   0.646  0.1702 -0.1495  0.1439
    1WF      WF67176  28.711   2.598   0.629  0.1871  0.0139  0.2696
    1WF      WF67177   1.035  27.017   1.056  0.2687 -0.3891 -0.1022
    1WF      WF67178  13.965  25.516   8.807 -0.0202  0.0693 -0.1621
    1WF      WF67179  21.581  23.525   3.133  0.0364  0.0103  0.0140
    1WF      WF67180  13.486   3.514   8.009  0.4258 -0.0136  0.2968
    1WF      WF67181  19.677  26.521   0.695  0.1271 -0.2760 -0.0379
    1WF      WF67182  13.858   7.265   0.438 -0.1869  0.0837 -0.3302
    1WF      WF67183   7.093  15.055   2.335 -0.0346  0.1002 -0.0051
    1WF      WF67184   6.019   0.009   7.538  0.2227  0.1067 -0.3064
    1WF      WF67185   6.059   8.774   0.010 -0.2112  0.1795 -0.0722
    1WF      WF67186  21.563  23.863   7.273 -0.3533  0.0526 -0.2567
    1WF      WF67187   6.370  16.309   9.271 -0.3193  0.1782  0.2578
    1WF      WF67188   6.930  22.320   9.442  0.2461  0.0969  0.2042
    1WF      WF67189   7.313   3.599   9.539 -0.1518  0.0419  0.1820
    1WF      WF67190   6.947  18.419   0.989  0.2391  0.1782  0.4673
    1WF      WF67191  20.410  23.044   0.867  0.0605 -0.0309  0.2395
    1WF      WF67192  16.846  26.081   0.398 -0.2108 -0.2939 -0.1240
    1WF      WF67193  22.210  29.573   2.323  0.1650  0.0349  0.0820
    1WF      WF67194   8.143   9.221   9.333  0.1101  0.0227 -0.0803
    1WF      WF67195   3.931   6.595   1.199 -0.0543 -0.0845  0.0697
    1WF      WF67196  26.050  24.064   1.030 -0.1024 -0.0627  0.0729
    1WF      WF67197   3.740  18.975   3.544  0.3101  0.3058  0.0145
    1WF      WF67198  21.974   9.295   2.454 -0.1807 -0.1531 -0.0942
    1WF      WF67199  14.141  10.105   9.296  0.0911  0.0474  0.3481
    1WF      WF67200  22.600  21.192   6.902 -0.4644 -0.0730 -0.2084
    1WF      WF67201   9.488   0.788   8.673  0.0531  0.0587  0.1337
    1WF      WF67202  15.025  27.945   0.019 -0.4640  0.1495 -0.4118
    1WF      WF67203  28.131   9.285   0.861 -0.0806 -0.1427  0.0676
    1WF      WF67204   1.388  23.350   1.140  0.0194  0.1545 -0.0555
    1WF      WF67205   7.535   6.066   0.871 -0.2230  0.2536 -0.4124
    1WF      WF67206   8.699  16.633   1.358 -0.1787  0.1556  0.1115
    1WF      WF67207   1.959   9.458   7.853  0.3074 -0.0950  0.0690
    1WF      WF67208  27.257  17.112   0.244  0.2089  0.0150 -0.2668
    1WF      WF67209  22.664  25.004   2.207 -0.2617  0.2407 -0.0086
    1WF      WF67210  19.232  14.684   1.288  0.3611  0.2750  0.1922
    1WF      WF67211  13.449  24.387   0.795 -0.0125  0.2263  0.0178
    1WF      WF67212  27.123  15.675   1.669 -0.5616  0.2310  0.3673
    1WF      WF67213  25.190   9.578   8.466  0.0498  0.2040 -0.0430
    1WF      WF67214  25.733  21.973   1.164  0.2296  0.3133  0.1443
    1WF      WF67215  25.550  22.631   0.125  0.0916  0.1712 -0.0056
    1WF      WF67216   7.357   6.584   1.800  0.0165  0.0356  0.0105
    1WF      WF67217   8.951   6.593   0.594 -0.1301 -0.2876 -0.1534
    1WF      WF67218   0.977  24.178   1.345 -0.1103 -0.1964  0.2335
    1WF      WF67219  17.966  18.971   8.791 -0.1086 -0.2052  0.1022
    1WF      WF67220   7.520  23.382   7.065 -0.1334  0.2349 -0.0343
    1WF      WF67221   9.901  17.923   7.774 -0.1855  0.0805 -0.0093
    1WF      WF67222   1.962   1.388   8.962  0.2823 -0.2580  0.1383
    1WF      WF67223   4.995  26.015   9.443  0.2485  0.2115 -0.1680
    1WF      WF67224  26.888   0.936   7.794 -0.1766 -0.1393  0.1788
    1WF      WF67225  19.501   5.166   0.757  0.1664  0.1513  0.1679
    1WF      WF67226  25.745  24.941   7.283  0.0944  0.3142  0.0084
    1WF      WF67227   7.020  25.832   0.120  0.1505  0.3225  0.2522
    1WF      WF67228   6.447  13.046   1.439  0.1845  0.1359 -0.0136
    1WF      WF67229   7.830   6.160   0.526 -0.2762 -0.1273  0.1712
    1WF      WF67230  12.698  19.082   8.656  0.0275  0.0809 -0.1398
    1WF      WF67231   7.943  22.825   1.587 -0.0167  0.1810 -0.0263
    1WF      WF67232  14.413  15.145   0.200  0.0029  0.0130  0.0407
    1WF      WF67233  21.041  26.176   1.638 -0.2168 -0.3294 -0.0287
    1WF      WF67234  28.133  14.824   7.131  0.0299 -0.1295 -0.0456
    1WF      WF67235  21.918  12.860   0.184  0.1872 -0.2131 -0.2930
    1WF      WF67236  27.492   1.461   1.849 -0.2267  0.1057 -0.2500
    1WF      WF67237  10.137  18.694   1.205 -0.1067 -0.1747 -0.2435
    1WF      WF67238  28.211  12.519   8.202  0.2690 -0.2489 -0.0305
    1WF      WF67239  16.131  28.400   0.310 -0.2080  0.0707  0.0841
    1WF      WF67240   0.105  26.003   1.938  0.1593 -0.3487 -0.2164
    1WF      WF67241  27.205  26.100   0.550  0.1236  0.0172  0.3787
    1WF      WF67242   9.354  25.812   0.267  0.1955 -0.1583 -0.0882
    1WF      WF67243  10.309  29.284   7.032 -0.1303  0.2121  0.2342
    1WF      WF67244  26.952   7.177   0.634  0.0401  0.0332  0.0682
    1WF      WF67245   0.973   5.178   0.005  0.3767 -0.0277 -0.2998
    1WF      WF67246  12.824  25.226   7.318  0.0168 -0.1794 -0.1110
    1WF      WF67247   2.441  26.847   0.730 -0.2018 -0.0240 -0.0001
    1WF      WF67248  16.609  16.521   9.457  0.2261  0.1553 -0.0474
    1WF      WF67249  19.955  18.928   2.067 -0.2284  0.3170 -0.5027
    1WF      WF67250  13.211   4.525   7.363 -0.0952  0.2348 -0.0026
    1WF      WF67251   6.908  21.982   8.590  0.1010  0.1764 -0.3993
    1WF      WF67252   9.792   0.134   7.736  0.0912 -0.0686  0.3900
    1WF      WF67253  26.933  16.912   0.535  0.2995  0.2202  0.0654
    1WF      WF67254  24.115  12.785   8.677  0.0318  0.2290 -0.3000
    1WF      WF67255  11.880  14.564   0.341  0.0638  0.3958  0.0720
    1WF      WF67256  18.391  17.373   8.486 -0.0493 -0.1510 -0.1931
    1WF      WF67257  13.724  14.701   8.314  0.0447  0.1401 -0.0369
    1WF      WF67258  28.644  23.013   6.512 -0.2295  0.3338  0.0416
    1WF      WF67259  28.848  20.882   8.722 -0.2948 -0.0409  0.0239
    1WF      WF67260  24.407   9.070   8.599 -0.0613  0.1128 -0.1614
    1WF      WF67261  15.567  11.267   2.851 -0.2358 -0.4070 -0.1231
    1WF      WF67262   4.978   8.839   7.914  0.3778  0.2372 -0.1302
    1WF      WF67263   1.979   8.903   0.598  0.1768  0.1081 -0.0049
    1WF      WF67264   4.886   8.804   0.307 -0.0698  0.3268 -0.0096
    1WF      WF67265  18.250  14.097   8.212 -0.2973  0.0010  0.2795
    1WF      WF67266   3.194  11.807   0.289 -0.0673 -0.2833 -0.0092
    1WF      WF67267   8.774   3.912   1.231 -0.2274 -0.3791  0.3128
    1WF      WF67268   3.772  23.597   1.800 -0.0340 -0.0221  0.1104
    1WF      WF67269   1.292   4.496   2.488  0.1011 -0.0387 -0.0813
    1WF      WF67270   8.027  26.197   8.090  0.3940  0.3681  0.1515
    1WF      WF67271  20.319  26.615   4.205  0.0741  0.0949  0.2843
    1WF      WF67272   8.477  10.378   0.958 -0.2536 -0.1073 -0.1293
    1WF      WF67273  10.614  18.639   1.164  0.0432 -0.3327 -0.0957
    1WF      WF67274  16.731  22.067   0.946 -0.0465  0.2692 -0.0651
    1WF      WF67275  19.837   7.023   1.574  0.0803  0.1145  0.0910
    1WF      WF67276  18.139  17.639   8.775  0.2072 -0.0391  0.0643
    1WF      WF67277   4.878  26.916   1.195 -0.1282 -0.2171  0.2395
    1WF      WF67278  25.956   5.202   8.301  0.0803  0.2113 -0.2193
    1WF      WF67279   2.791   2.663   0.839  0.2699 -0.1691  0.0004
    1WF      WF67280   7.785  20.647   7.824  0.0260  0.2075  0.3627
    1WF      WF67281   4.495  27.460   9.333  0.1894 -0.0756 -0.1329
    1WF      WF67282  28.176  18.401   2.848 -0.3055 -0.1483 -0.0980
    1WF      WF67283  10.659   8.452   0.127 -0.0641  0.0958 -0.0718
    1WF      WF67284   8.783  26.101   6.882 -0.0703 -0.0395 -0.0787
    1WF      WF67285  12.867   5.821   9.317  0.1125  0.2829  0.2676
    1WF      WF67286   6.195  21.750   7.908 -0.1220  0.0550 -0.0217
    1WF      WF67287   7.661   8.287   8.096  0.0951  0.0707  0.0148
    1WF      WF67288   7.239  10.084   1.973  0.0263 -0.0447  0.2422
    1WF      WF67289   8.351   5.003   7.568 -0.2763 -0.1826  0.2105
    1WF      WF67290  14.864  17.133   8.987  0.0576 -0.0344  0.1800
    1WF      WF67291  13.316   1.361   5.947 -0.0134 -0.1417  0.1033
    1WF      WF67292  23.296   3.897   9.519 -0.0986  0.1373  0.2206
    1WF      WF67293  26.048  17.051   3.031  0.1577  0.0337 -0.1556
    1WF      WF67294   7.258   8.023   8.077  0.0744 -0.4326  0.1852
    1WF      WF67295  19.029  21.032   2.058  0.0077 -0.0740 -0.2075
    1WF      WF67296  18.173  10.793   8.026  0.2097  0.1669 -0.0621
    1WF      WF67297  24.759   8.911   9.035  0.1928 -0.2245  0.0966
    1WF      WF67298  17.781  19.385   1.308 -0.0730  0.0081  0.0516
    1WF      WF67299   1.837   6.885   0.260 -0.3265 -0.0157  0.0532
    1WF      WF67300  17.406  26.318   1.821  0.1342  0.4001 -0.1950
    1WF      WF67301  15.269  22.309   1.343  0.1015  0.0102 -0.2226
    1WF      WF67302  19.077  24.201   9.423  0.1042 -0.0332  0.0022
    1WF      WF67303  10.670   8.839   8.968  0.3409 -0.0197  0.3723
    1WF      WF67304  12.597  21.665   7.128  0.0475  0.1833 -0.0304
    1WF      WF67305   8.513   7.451   1.720  0.0219  0.3772 -0.1441
    1WF      WF67306   9.316  27.690   7.954 -0.0478  0.2038 -0.0008
    1WF      WF67307  13.940  27.335   0.242 -0.4283 -0.1619  0.0917
    1WF      WF67308   4.075  15.245   0.190  0.1788  0.3406  0.1870
    1WF      WF67309  28.713  27.601   8.296 -0.0666  0.0711 -0.1327
    1WF      WF67310  24.887  22.182   9.409  0.3185 -0.1549 -0.0126
    1WF      WF67311  14.094   6.114   2.653  0.1060  0.1172 -0.1549
    1WF      WF67312  10.081   3.158   7.779 -0.1368  0.0358  0.0790
    1WF      WF67313  24.310  26.402   8.291  0.1327 -0.0049 -0.1939
    1WF      WF67314  11.482  16.086   7.930 -0.2352  0.0141  0.1039
    1WF      WF67315  11.640   5.471   0.441  0.0471  0.2203  0.2439
    1WF      WF67316  11.119  19.532   8.758 -0.0311  0.0165  0.2281
    1WF      WF67317  17.871  29.558   9.313  0.0177 -0.1346 -0.1841
    1WF      WF67318  25.692  22.693   3.687  0.1784 -0.4127  0.2482
    1WF      WF67319   5.614  26.996   7.315 -0.2605  0.0379 -0.1488
    1WF      WF67320  25.104  23.853   3.421  0.0113  0.1130  0.0509
    1WF      WF67321  11.904  22.862   9.397 -0.0717 -0.0651 -0.2354
    1WF      WF67322  15.299  10.658   8.214 -0.2359 -0.2697  0.1095
    1WF      WF67323  23.547  26.462   2.002 -0.3378 -0.4879  0.2347
    1WF      WF67324   1.363  13.986   9.506  0.0298  0.0109  0.3352
    1WF      WF67325   6.158  25.965   7.215 -0.1844 -0.1120  0.3973
    1WF      WF67326   7.210  14.365   8.570  0.0709  0.0415 -0.1326
    1WF      WF67327   5.871   3.269   0.473  0.4323  0.1721 -0.4439
    1WF      WF67328  10.945  23.523   0.858  0.3295  0.1015 -0.0386
    1WF      WF67329  16.498  18.009   1.178  0.0544 -0.3361  0.0318
    1WF      WF67330  15.599   4.328   2.071 -0.0354 -0.2095  0.1237
    1WF      WF67331  14.282  18.757   0.838  0.2592  0.0321 -0.0068
    1WF      WF67332   5.904   3.646   1.466 -0.1503 -0.2996 -0.1305
    1WF      WF67333   2.125  13.652   8.685  0.2827  0.0909  0.2649
    1WF      WF67334   1.430  20.252   9.241 -0.0647  0.0388  0.4701
    1WF      WF67335   8.362  10.121   8.582  0.2477 -0.1518  0.0010
    1WF      WF67336  15.462   0.105   7.067  0.0898 -0.0356 -0.2248
    1WF      WF67337  14.598  17.143   7.451  0.2190 -0.4277 -0.0249
    1WF      WF67338   3.228  23.671   3.903 -0.0331 -0.0173  0.2398
    1WF      WF67339  16.762  21.593   0.879  0.1142  0.1717  0.3073
    1WF      WF67340   9.420  12.614   9.289 -0.1219  0.0758 -0.1727
    1WF      WF67341  13.168  13.001   0.688  0.2835 -0.2341 -0.2050
    1WF      WF67342  21.044  21.098   1.619 -0.1936 -0.4685 -0.0136
    1WF      WF67343  18.682  18.834   2.546  0.4034 -0.1067  0.1794
    1WF      WF67344   2.434   6.573   7.529 -0.0203 -0.2287  0.1775
    1WF      WF67345  22.080  13.584   0.382 -0.0085 -0.3805  0.1593
    1WF      WF67346   9.584   3.307   1.240  0.1252  0.0216  0.1034
    1WF      WF67347  28.969   8.327   6.423  0.1353 -0.1885 -0.2916
    1WF      WF67348  24.302  27.813   0.386 -0.0833  0.0897 -0.0642
    1WF      WF67349   5.537  12.475   8.072  0.2082  0.1379 -0.2295
    1WF      WF67350  21.171  28.495   9.173 -0.2776 -0.1313  0.2867
    1WF      WF67351  22.127  23.553   3.214  0.1832  0.0451  0.0561
    1WF      WF67352   8.901   3.071   8.154 -0.3358  0.1535  0.1623
    1WF      WF67353   9.623  17.874   8.927 -0.0580 -0.0490 -0.1289
    1WF      WF67354  18.027  19.811   1.412 -0.0080 -0.0905 -0.1976
    1WF      WF67355  22.748  23.787   1.860  0.0466 -0.1947  0.2802
    1WF      WF67356  27.910  26.433   9.362 -0.0029  0.1072  0.1254
    1WF      WF67357   4.573   0.384   7.908 -0.0828  0.1821 -0.0325
    1WF      WF67358   7.316  18.162   8.770  0.1209 -0.0878  0.3598
    1WF      WF67359   8.277  15.368   8.664  0.2031 -0.1896  0.1092
    1WF      WF67360  21.545   4.537   0.815 -0.0940  0.0600  0.1397
    1WF      WF67361  11.460  15.619   7.722  0.1943  0.1045 -0.1930
    1WF      WF67362  27.425  24.091   9.275 -0.1240  0.0285 -0.1215
    1WF      WF67363   8.160   2.898   0.105 -0.0822  0.0281  0.1184
    1WF      WF67364   8.198   5.245   7.176 -0.1599  0.0270  0.3754
    1WF      WF67365  28.768   3.498   9.578 -0.2402 -0.1929  0.0334
    1WF      WF67366  29.081  15.830   1.356 -0.3267 -0.3663 -0.0145
    1WF      WF67367  12.312   7.607   7.856  0.1517 -0.1810 -0.3187
    1WF      WF67368  29.622   6.435   8.895  0.1763  0.0265  0.2426
    1WF      WF67369  18.665   5.407   9.355  0.2674 -0.1682  0.3000
    1WF      WF67370  28.915  14.432   9.110 -0.2893  0.0389 -0.3632
    1WF      WF67371  23.824   1.876   0.736 -0.1007 -0.1298 -0.2465
    1WF      WF67372   6.392   2.816   8.581 -0.2954 -0.0443  0.2692
    1WF      WF67373  12.606  16.395   8.243  0.0629  0.2931  0.0504
    1WF      WF67374  21.496   9.539   9.041  0.0005 -0.2631  0.1663
    1WF      WF67375  11.053   2.828   0.924  0.3152 -0.1062  0.0788
    1WF      WF67376   1.981  13.911   6.570 -0.0322  0.1624  0.0844
    1WF      WF67377  22.453  19.412   9.087 -0.3324 -0.0610 -0.1909
    1WF      WF67378   1.215  11.955   9.635  0.2223 -0.0325 -0.1653
    1WF      WF67379  22.080  20.450   1.051  0.1961 -0.1955  0.0396
    1WF      WF67380   2.115  17.831   8.144 -0.2559  0.2117 -0.3849
    1WF      WF67381  14.877  27.264   6.563 -0.1186 -0.2954 -0.0882
    1WF      WF67382  12.952  26.109   9.016 -0.1099 -0.1826  0.0295
    1WF      WF67383   2.505  22.296   8.406 -0.0600  0.1745 -0.1866
    1WF      WF67384   5.161   5.614   8.305 -0.0109 -0.0929 -0.1510
    1WF      WF67385  29.528   3.049   8.733 -0.0632  0.1783 -0.2541
    1WF      WF67386  22.284  21.966   0.868 -0.0472 -0.0530  0.0750
    1WF      WF67387  13.218   3.972   7.995  0.1138  0.0520  0.1757
    1WF      WF67388   2.238  13.450   8.227  0.1847  0.1812 -0.0202
    1WF      WF67389  27.283  26.819   6.625 -0.1484 -0.1351 -0.0227
    1WF      WF67390   0.687   4.289   9.184  0.1513 -0.2597 -0.2667
    1WF      WF67391  18.101   7.878   8.760 -0.3046 -0.0978  0.1193
    1WF      WF67392  29.189  29.118   8.515  0.1362  0.0864  0.0082
    1WF      WF67393  24.300  19.957   9.163 -0.2595 -0.0931 -0.1095
    1WF      WF67394  12.534  17.270   0.252  0.1040  0.3161  0.0174
    1WF      WF67395   4.499   8.816   8.839 -0.2535  0.2314  0.1100
    1WF      WF67396  28.703  12.903   0.894  0.2147 -0.2520 -0.0029
    1WF      WF67397   9.593  23.839   1.555 -0.1015  0.2232  0.1663
    1WF      WF67398   2.124  24.919   8.611  0.1978 -0.0015  0.0761
    1WF      WF67399  21.831  17.369   7.831  0.1776  0.0499 -0.1046
    1WF      WF67400  24.507   8.012   9.156  0.0401  0.3994  0.1053
    1WF      WF67401  10.830  13.873   9.061 -0.1000  0.1574  0.4943
    1WF      WF67402   7.295  14.268   0.566  0.1496 -0.1016  0.3305
    1WF      WF67403  16.922  18.839   8.161  0.3675 -0.1479 -0.1161
    1WF      WF67404  21.229   0.933   8.701  0.2042  0.1975 -0.2137
    1WF      WF67405  26.075  25.764   7.349  0.2483  0.0609 -0.1819
    1WF      WF67406  20.675  22.780   1.184  0.1120  0.0170  0.0229
    1WF      WF67407  27.144  24.554   0.132 -0.0631  0.1719 -0.2304
    1WF      WF67408   7.214   1.295   6.845 -0.0457  0.1942 -0.1634
    1WF      WF67409   2.862   5.602   0.034  0.1196 -0.0920 -0.1126
    1WF      WF67410   0.578  14.868   7.904  0.1144  0.1397  0.0687
    1WF      WF67411  18.623  25.673   8.842 -0.0256  0.2777 -0.1655
    1WF      WF67412  19.606   8.495   0.810 -0.0653  0.0345 -0.1379
    1WF      WF67413   7.808   1.515   8.227 -0.1946  0.2199  0.1384
    1WF      WF67414  13.313   6.412   0.283 -0.1521  0.0360 -0.2948
    1WF      WF67415  13.478  17.303   7.405  0.4657 -0.0721 -0.2613
    1WF      WF67416  11.254  24.660   1.403 -0.1451  0.0822 -0.0726
    1WF      WF67417   1.284  22.318   8.100 -0.3022 -0.0902 -0.1338
    1WF      WF67418   5.462  22.416   9.520 -0.1584  0.0656 -0.1817
    1WF      WF67419  24.970   9.366   9.168 -0.0017 -0.0357 -0.0172
    1WF      WF67420  25.585  16.688   8.674 -0.0726  0.1097 -0.0409
    1WF      WF67421  27.162   0.146   8.181  0.4588  0.0931 -0.1611
    1WF      WF67422  22.896  28.725   2.043 -0.0092  0.4189  0.1958
    1WF      WF67423   7.625   1.188   2.008  0.0443  0.0131 -0.1121
    1WF      WF67424  20.061  11.531   1.004 -0.0982 -0.1876 -0.1368
    1WF      WF67425   2.520  13.128   7.992 -0.3806  0.0565  0.0199
    1WF      WF67426  28.016  14.760   1.969  0.0994 -0.0366  0.0055
    1WF      WF67427  10.275   8.522   8.708 -0.1326  0.2276  0.2311
    1WF      WF67428  22.840  11.733   7.062 -0.0006 -0.1282 -0.0677
    1WF      WF67429  15.984   5.167   7.549  0.0456 -0.1137 -0.3440
    1WF      WF67430  24.022   2.297   2.331  0.1399  0.1250  0.3561
    1WF      WF67431  24.551   3.972   9.076 -0.1481 -0.3086  0.0034
    1WF      WF67432  13.914  11.592   6.577 -0.3296  0.0906 -0.1018
    1WF      WF67433  22.699   7.112   6.947  0.1616  0.0747 -0.0663
    1WF      WF67434  27.299   6.267   8.421  0.0602  0.2535 -0.0231
    1WF      WF67435  13.568   4.069   1.140 -0.2158  0.0900  0.2088
    1WF      WF67436   1.606  23.712   8.947 -0.1626 -0.1502 -0.1830
    1WF      WF67437  23.712  16.604   1.058 -0.0310 -0.2787 -0.0326
    1WF      WF67438  26.385  28.503   8.885 -0.2152 -0.1590  0.0087
    1WF      WF67439  28.432  19.551   1.874 -0.1169  0.0452  0.0612
    1WF      WF67440   7.091  28.065   1.080  0.1736 -0.1787 -0.0459
    1WF      WF67441  28.085  24.276   0.139  0.1518 -0.1052  0.0077
    1WF      WF67442  19.769  17.164   1.530 -0.0333  0.1412 -0.3008
    1WF      WF67443  26.108   3.929   0.878 -0.0686 -0.0800 -0.1148
    1WF      WF67444  23.440  20.145   2.906 -0.2150  0.2645 -0.0911
    1WF      WF67445  10.856  26.844   0.154 -0.1825 -0.1618 -0.1197
    1WF      WF67446  28.678   8.680   9.185 -0.3583 -0.2281  0.1159
    1WF      WF67447   7.771  26.522   8.529 -0.2686 -0.3122 -0.3854
    1WF      WF67448  20.351  14.159   9.369  0.3271  0.2506  0.3661
    1WF      WF67449   3.747  24.652   9.565  0.0037 -0.1130 -0.2487
    1WF      WF67450  27.385  13.616   0.939 -0.0303 -0.0144 -0.2732
    1WF      WF67451   5.730  21.932   7.584 -0.2625  0.2045 -0.1577
    1WF      WF67452   5.088  19.339   8.465 -0.0022 -0.1413 -0.3673
    1WF      WF67453  22.336  21.575   0.556 -0.3611 -0.1123  0.1272
    1WF      WF67454  16.026  20.944   1.628 -0.0926 -0.3684 -0.1318
    1WF      WF67455  21.330  23.809   1.841  0.3347 -0.4981 -0.0071
    1WF      WF67456  18.067   6.935   9.302 -0.0239  0.0323  0.1787
    1WF      WF67457   8.269  19.046   8.939 -0.1415  0.0378  0.1029
    1WF      WF67458   0.910  27.057   7.229 -0.0122 -0.0945 -0.1949
    1WF      WF67459  12.782  29.361   8.475 -0.0655 -0.0791  0.0086
    1WF      WF67460  19.097   6.956   6.892 -0.1357  0.2539 -0.0227
    1WF      WF67461  19.530   3.150   8.800 -0.0535  0.1822 -0.2240
    1WF      WF67462  29.239   8.205   9.104 -0.0181  0.0319  0.1490
    1WF      WF67463  14.599  22.836   6.823 -0.0530  0.1757  0.1277
    1WF      WF67464  23.299  11.315   9.136  0.3732 -0.0007  0.1888
    1WF      WF67465  10.940  14.990   9.026 -0.0801  0.1051  0.0098
    1WF      WF67466  16.658  16.545   0.369 -0.0009  0.3227  0.2213
    1WF      WF67467   3.583  11.127   5.721 -0.1251 -0.2721 -0.3521
    1WF      WF67468  26.441   4.731   9.097  0.4411 -0.0162  0.1219
    1WF      WF67469   4.805   5.955   8.390  0.2675 -0.2657 -0.1808
    1WF      WF67470  26.480  17.805   2.206 -0.0458  0.0117 -0.1681
    1WF      WF67471   6.155  27.844   1.886  0.0319 -0.0184 -0.0906
    1WF      WF67472   3.775  24.832   8.594 -0.2457  0.4408 -0.2421
    1WF      WF67473  20.162  17.929   0.500 -0.2175  0.2093 -0.0445
    1WF      WF67474   9.362  27.245   7.635 -0.2258  0.0564  0.0226
    1WF      WF67475  13.775  10.118   8.915  0.4273 -0.2423 -0.3773
    1WF      WF67476  27.581  21.406   0.039  0.1097 -0.3420  0.0413
    1WF      WF67477   7.938  12.908   7.954 -0.1314  0.1150 -0.1079
    1WF      WF67478  11.496  25.180   6.226 -0.2335  0.1728  0.2653
    1WF      WF67479   6.052   1.053   7.331 -0.4211  0.3215 -0.0220
    1WF      WF67480  27.237   8.607   1.150 -0.1156 -0.0191 -0.0514
    1WF      WF67481  13.869  19.117   7.003 -0.0023  0.2123  0.1339
    1WF      WF67482  12.175   0.730   6.318 -0.1755 -0.0336 -0.1818
    1WF      WF67483  22.567  17.944   7.001  0.0295 -0.0402 -0.0044
    1WF      WF67484   0.887   7.789   9.245 -0.3113  0.1329  0.1915
    1WF      WF67485  27.034  22.165   8.710 -0.0756 -0.0012 -0.0402
    1WF      WF67486  16.796  19.841   6.584  0.0444  0.0400 -0.0356
    1WF      WF67487  26.214  16.117   0.706 -0.0283  0.1484 -0.0044
    1WF      WF67488   1.005   7.195   8.822 -0.0532 -0.2040  0.2569
    1WF      WF67489  11.260  29.616   7.550  0.3966 -0.2129 -0.0227
    1WF      WF67490  22.472  27.466   0.595 -0.3201 -0.1280  0.2027
    1WF      WF67491   4.616  28.746   1.207 -0.0541 -0.2231 -0.1688
    1WF      WF67492  12.370   5.682   8.237 -0.4365  0.0980 -0.1798
    1WF      WF67493   2.285  14.109   1.120 -0.3249 -0.3225 -0.2936
    1WF      WF67494   1.699  22.886   6.812  0.1277 -0.0802  0.0091
    1WF      WF67495   2.708  27.100   0.473 -0.4336  0.2923 -0.0164
    1WF      WF67496  26.632  26.706   8.888 -0.1144  0.2783  0.1421
    1WF      WF67497  10.859  13.153   7.465  0.0707 -0.1552 -0.1854
    1WF      WF67498  16.226  27.107   7.910  0.1952 -0.2200  0.0198
    1WF      WF67499   1.897  13.832   7.988 -0.0467 -0.2634  0.0786
    1WF      WF67500   6.397   0.445   8.969  0.0572 -0.0177 -0.0612
    1WF      WF67501  18.136  18.358   1.234  0.1932  0.1374  0.3707
    1WF      WF67502   3.793  13.267   9.320 -0.0925 -0.2622 -0.0965
    1WF      WF67503  29.128   2.782   8.869  0.0937  0.0383 -0.2229
    1WF      WF67504  17.361  16.264   8.540  0.3618 -0.2273  0.0533
    1WF      WF67505  16.726  26.341   1.064  0.1808 -0.1303 -0.2211
    1WF      WF67506  14.803  13.470   8.375 -0.0111 -0.0325 -0.0266
    1WF      WF67507  18.185  10.253   8.112 -0.2906  0.1566  0.2586
    1WF      WF67508   3.173  19.368   1.871  0.0700 -0.3396  0.0595
    1WF      WF67509  29.143  28.440   2.577  0.1612  0.2373  0.0231
    1WF      WF67510  10.036   0.196   9.378 -0.1927 -0.0942 -0.0160
    1WF      WF67511  16.978  23.790   1.743 -0.0967 -0.2035  0.3574
    1WF      WF67512   9.376  28.620   2.243 -0.0781  0.1999  0.0169
    1WF      WF67513  25.042  25.321   7.301 -0.4776  0.2281 -0.1053
    1WF      WF67514  11.562   4.910   0.428  0.3041  0.1562 -0.2258
    1WF      WF67515   8.011   7.301   1.807 -0.1728  0.0279 -0.2704
    1WF      WF67516  25.071  19.701   3.635  0.0062  0.1992 -0.0596
    1WF      WF67517  15.429  12.204   1.071  0.1941  0.2348 -0.2587
    1WF      WF67518  22.789  21.780   0.716  0.0733  0.1390  0.1403
    1WF      WF67519  10.224  26.537   8.138 -0.2084 -0.0879  0.0874
    1WF      WF67520  14.221   8.572   9.242 -0.1320 -0.2688  0.1522
    1WF      WF67521   0.834  21.442   1.214 -0.0424  0.2916 -0.2316
    1WF      WF67522  17.947   4.603   1.389 -0.3259  0.1216  0.2574
    1WF      WF67523   0.288  13.100   0.741  0.2447  0.0965  0.0061
    1WF      WF67524  27.568  27.396   7.861  0.2700 -0.1540 -0.1427
    1WF      WF67525  23.966  19.579   8.883 -0.1139  0.1790  0.0588
    1WF      WF67526  27.929  22.681   8.898  0.0664 -0.1368 -0.0861
    1WF      WF67527   2.941  19.298   8.517 -0.0132 -0.1483 -0.2098
    1WF      WF67528  10.594  21.334   8.421  0.3840 -0.2004  0.1897
    1WF      WF67529  15.629  10.112   8.227  0.0810 -0.0989 -0.3531
    1WF      WF67530   3.208   1.187   7.963 -0.2171  0.0811 -0.1647
    1WF      WF67531   8.573  18.187   8.999  0.3598  0.1103  0.0983
    1WF      WF67532   3.946  25.732   8.363 -0.0365 -0.0749  0.2098
    1WF      WF67533   0.984  23.665   3.254  0.3635  0.1245 -0.0550
    1WF      WF67534  15.689  25.390   7.990  0.2643 -0.1193  0.2539
    1WF      WF67535  24.225  21.217   2.044  0.1600  0.0273 -0.2242
    1WF      WF67536   7.310   0.610   6.327  0.1505 -0.1228 -0.0141
    1WF      WF67537   4.486   6.042   7.294  0.1823 -0.3416 -0.0352
    1WF      WF67538  19.509  14.140   1.410  0.1023  0.3392 -0.0196
    1WF      WF67539   9.419  11.725   8.309 -0.0475 -0.1589  0.0590
    1WF      WF67540   6.995  24.667   1.311  0.0555 -0.0803  0.1563
    1WF      WF67541  17.212  16.361   1.776  0.0059 -0.0581  0.4440
    1WF      WF67542  22.282  16.535   0.622 -0.0246 -0.2279 -0.1217
    1WF      WF67543  23.753   1.645   0.277 -0.3726  0.0487  0.1109
    1WF      WF67544  11.459  16.995   5.798 -0.1971 -0.3557 -0.4436
    1WF      WF67545  28.929   2.244   1.894  0.0280  0.2401  0.2548
    1WF      WF67546  26.284   6.132   8.296 -0.0341 -0.0491  0.2054
    1WF      WF67547  24.037   1.338   1.619  0.1253  0.0633  0.2756
    1WF      WF67548   2.823  19.873   8.500 -0.1239  0.0004 -0.2904
    1WF      WF67549   9.255   3.539   1.515  0.1514 -0.1639  0.2425
    1WF      WF67550  18.811   8.207   9.443 -0.1733  0.2736  0.1040
    1WF      WF67551  15.951  16.008   0.417  0.0753 -0.0393  0.1260
    1WF      WF67552  11.650  25.118   8.435 -0.0471 -0.2323 -0.2694
    1WF      WF67553  22.120  12.717   7.938 -0.0107 -0.2695 -0.0158
    1WF      WF67554  29.622   9.386   9.103  0.0330  0.1763  0.3187
    1WF      WF67555  19.432  16.950   0.333 -0.1166 -0.0157 -0.3293
    1WF      WF67556   8.562   8.747   5.570 -0.1672 -0.0621 -0.1328
    1WF      WF67557  15.290  12.628   1.325  0.1490  0.1263 -0.1633
    1WF      WF67558   9.364  19.220   0.625 -0.0435  0.1565 -0.3115
    1WF      WF67559  15.232  17.571   8.902  0.1411  0.2110 -0.1196
    1WF      WF67560  18.271   8.133   9.168 -0.2654 -0.1154  0.2988
    1WF      WF67561  13.357  12.529   0.605  0.0094 -0.1111  0.2908
    1WF      WF67562  10.538   3.716   0.881  0.0162 -0.0824  0.0176
    1WF      WF67563   0.209  21.055   2.420  0.4913  0.1502 -0.1084
    1WF      WF67564   0.369   1.876   6.917 -0.1016  0.1723  0.1340
    1WF      WF67565  12.605   2.681   0.688 -0.1836  0.2222 -0.0634
    1WF      WF67566   4.803   7.371   7.482  0.0773 -0.2370 -0.1980
    1WF      WF67567  28.302  25.789   0.646 -0.2044 -0.2171 -0.1347
    1WF      WF67568   1.531  14.588   8.158 -0.2060  0.0406  0.2562
    1WF      WF67569  27.214   3.403   0.095 -0.1633 -0.3464  0.1758
    1WF      WF67570   9.049   2.800   0.288  0.0524  0.1826 -0.0575
    1WF      WF67571   3.802  18.925   9.497 -0.0290  0.0915 -0.1836
    1WF      WF67572   8.641  17.305   8.670  0.1015  0.2315  0.1214
    1WF      WF67573   2.377   9.324   8.117  0.1282  0.0168  0.0545
    1WF      WF67574  23.154  26.004   9.553  0.2174  0.1336 -0.1075
    1WF      WF67575   6.910  21.213   1.884 -0.1924 -0.0658 -0.1747
    1WF      WF67576  10.631   8.546   1.531 -0.0545  0.0698 -0.3098
    1WF      WF67577  13.365   9.720   2.287  0.1013  0.1336 -0.0777
    1WF      WF67578  13.595  27.442   8.253  0.0120 -0.1389  0.1227
    1WF      WF67579   5.705   6.214   6.643 -0.0292  0.0001  0.2310
    1WF      WF67580   9.183   3.018   7.697 -0.0677  0.2062 -0.2372
    1WF      WF67581  10.554   5.392   0.955 -0.0004  0.0503  0.0741
    1WF      WF67582  24.417  19.079   8.881 -0.1312 -0.1005  0.3479
    1WF      WF67583  12.387   2.254   6.417  0.3443  0.2417 -0.1779
    1WF      WF67584   1.395  24.074   8.655 -0.0802 -0.0203  0.0475
    1WF      WF67585  17.791  28.250   9.644 -0.3937 -0.0020  0.1412
    1WF      WF67586  10.872   2.469   9.556 -0.2040 -0.0111  0.0459
    1WF      WF67587   8.116  24.932   5.643  0.1116  0.0155  0.2586
    1WF      WF67588   5.203  12.928   0.419 -0.1263 -0.0666  0.0671
    1WF      WF67589  24.862   9.284   8.690 -0.2032  0.1568 -0.0622
    1WF      WF67590  27.390   3.858   8.694 -0.0043 -0.0520 -0.1333
    1WF      WF67591   5.285  24.469   8.038 -0.1731  0.3237 -0.2079
    1WF      WF67592  29.569  22.869   0.474 -0.0459  0.0618  0.1346
    1WF      WF67593   1.618   7.446   1.488 -0.0708  0.0022 -0.1818
    1WF      WF67594   4.891   6.133   9.268 -0.0477  0.1040  0.2162
    1WF      WF67595  27.349   2.370   8.366 -0.1588  0.0688 -0.1123
    1WF      WF67596  15.062  18.221   1.216 -0.0370 -0.1118  0.0111
    1WF      WF67597  17.703  24.217   8.596  0.0102 -0.0911 -0.0458
    1WF      WF67598  16.747  19.372   9.611 -0.3328  0.0151 -0.0923
    1WF      WF67599  26.200  19.999   1.540 -0.0857 -0.0208  0.4661
    1WF      WF67600  18.265  16.841   7.089 -0.0415  0.2086 -0.2267
    1WF      WF67601   4.272   9.934   6.319  0.0125  0.2135 -0.3443
    1WF      WF67602   7.292  24.383   1.942 -0.1592 -0.1785 -0.1121
    1WF      WF67603  14.594   5.770   1.613 -0.0140 -0.0906 -0.1700
    1WF      WF67604  12.585  15.859   8.129  0.2449 -0.1238 -0.2029
    1WF      WF67605  24.599  17.831   1.828  0.2692 -0.0238 -0.1778
    1WF      WF67606   6.299  13.182   9.142  0.2196  0.2014 -0.1080
    1WF      WF67607   2.490   9.539   6.502 -0.1218  0.1237 -0.0388
    1WF      WF67608   9.753  26.483   8.244 -0.1150  0.6182  0.0753
    1WF      WF67609  23.644   5.743   8.672  0.0267  0.1391 -0.5825
    1WF      WF67610   8.769  16.897   6.954 -0.2357 -0.0712 -0.1160
    1WF      WF67611  24.910   7.705   9.303 -0.1035 -0.0561 -0.0208
    1WF      WF67612  14.908  27.959   1.498  0.0000  0.3359  0.3025
    1WF      WF67613  21.579   5.854   0.739 -0.2297 -0.0853  0.3535
    1WF      WF67614   2.039   0.028   6.023 -0.4069  0.2339  0.0162
    1WF      WF67615  15.374  25.666   7.707 -0.0334  0.2373  0.0995
    1WF      WF67616   9.200  15.017   0.317 -0.0475  0.0365  0.0010
    1WF      WF67617   2.601  23.825   0.682  0.2003 -0.2338 -0.0222
    1WF      WF67618  28.072  21.300   2.934 -0.0262 -0.3128  0.2829
    1WF      WF67619   3.622  18.059   9.190  0.0185 -0.0199  0.0686
    1WF      WF67620  13.707  14.037   0.144  0.0112 -0.0478  0.2824
    1WF      WF67621  11.870   9.366   7.935 -0.0029 -0.2407 -0.2101
    1WF      WF67622   2.411  29.402   8.289  0.0498 -0.1087  0.1600
    1WF      WF67623  12.369  11.456   8.790  0.0480  0.2317 -0.2452
    1WF      WF67624   4.492  14.321   5.753  0.0550  0.3050  0.2322
    1WF      WF67625   5.406  26.878   6.866  0.2691 -0.1754  0.0212
    1WF      WF67626  15.493  18.138   7.915  0.1267 -0.0852  0.0298
    1WF      WF67627  28.298   8.792   0.856  0.1610  0.1744 -0.2027
    1WF      WF67628  25.819  29.063   8.636  0.0928  0.0667  0.0037
    1WF      WF67629  10.164  27.665   0.902  0.2885 -0.0973  0.0960
    1WF      WF67630  10.356   4.996   0.750  0.0072  0.2883  0.1700
    1WF      WF67631  17.881  15.473   8.566  0.0945 -0.2464  0.2798
    1WF      WF67632  13.653  19.429   8.967  0.2226 -0.4573  0.2266
    1WF      WF67633  14.301  15.052   8.669 -0.0359  0.1249 -0.0526
    1WF      WF67634  19.251  22.539   0.902  0.2767 -0.1476  0.0835
    1WF      WF67635   9.987   1.063   8.519  0.1884 -0.0737 -0.0956
    1WF      WF67636   2.143   1.417   8.471  0.2716 -0.0011 -0.2966
    1WF      WF67637   3.471  14.617   7.010  0.0613 -0.0368 -0.1584
    1WF      WF67638  26.461  27.971   3.556 -0.2236 -0.2597  0.1002
    1WF      WF67639   5.742   6.243   0.579  0.0454  0.5255  0.0321
    1WF      WF67640  27.805  10.920   8.305 -0.0015 -0.0837 -0.2677
    1WF      WF67641  10.679  18.084   0.357 -0.1574 -0.1541  0.0410
    1WF      WF67642   3.890  15.832   8.042  0.1036  0.1374 -0.1544
    1WF      WF67643  11.416   0.099   1.195  0.0924 -0.0629 -0.2084
    1WF      WF67644  26.541  29.426   2.250  0.1508 -0.2177 -0.1707
    1WF      WF67645  18.819  10.974   1.781  0.3134 -0.0870  0.1613
    1WF      WF67646  19.461  21.772   0.804  0.1674 -0.0763 -0.0168
    1WF      WF67647  15.256   1.934   7.949  0.0776 -0.3224 -0.3189
    1WF      WF67648  14.028  23.707   6.530 -0.4150 -0.1641  0.1876
    1WF      WF67649  19.660  16.249   1.882 -0.0125 -0.1260  0.0778
    1WF      WF67650  26.667  17.145   0.862  0.1495 -0.1148  0.3293
    1WF      WF67651   7.946  10.982   0.361 -0.1067 -0.4297 -0.0550
    1WF      WF67652   2.622   7.573   0.286 -0.2117 -0.0339  0.0429
    1WF      WF67653   0.403  15.292   8.305 -0.4294  0.1414 -0.0460
    1WF      WF67654  13.223  28.128   0.024 -0.1824 -0.1068  0.3624
    1WF      WF67655   2.312   4.627   8.266  0.0096  0.0657  0.1551
    1WF      WF67656   8.887  18.187   0.170  0.1076  0.1651  0.0590
    1WF      WF67657  12.084  11.208   1.845  0.3173  0.1704  0.2367
    1WF      WF67658   9.315   8.063   9.222  0.1272 -0.2609 -0.0920
    1WF      WF67659  22.612  19.794   1.865 -0.0538 -0.0094 -0.0116
    1WF      WF67660  16.584   5.470   1.257  0.2233 -0.1351 -0.0367
    1WF      WF67661  14.656  11.915   8.119  0.0689  0.0151  0.3641
    1WF      WF67662  27.777  16.976   9.122  0.2072 -0.0999  0.1683
    1WF      WF67663  14.403  26.406   6.110  0.1691  0.5375 -0.1050
    1WF      WF67664  16.837  17.014   9.314  0.3409 -0.1274  0.1111
    1WF      WF67665  14.104  23.503   9.527 -0.1312  0.2878 -0.0309
    1WF      WF67666   6.247  28.046   0.891  0.0168  0.2727 -0.3960
    1WF      WF67667  27.480  13.727   3.091  0.1503 -0.0171  0.1436
    1WF      WF67668  17.557  22.732   7.624 -0.0826 -0.1440 -0.1170
    1WF      WF67669  19.914  14.360   9.356  0.0440  0.2288 -0.0728
    1WF      WF67670  24.663  23.545   0.481 -0.1453  0.2523 -0.0258
    1WF      WF67671   4.058   2.855   7.785 -0.2550  0.0376 -0.0940
    1WF      WF67672   7.180  23.403   0.488 -0.1635 -0.1390  0.1068
    1WF      WF67673  17.108  23.300   0.441 -0.2596 -0.1689  0.4614
    1WF      WF67674  11.614   6.272   1.761  0.1161  0.2486  0.1502
    1WF      WF67675  22.402  15.097   1.139  0.0939  0.1399  0.0049
    1WF      WF67676   4.378  22.326   3.542  0.0228  0.0930 -0.1250
    1WF      WF67677  24.615   3.993   1.576  0.3390 -0.0965  0.1279
    1WF      WF67678  13.724  27.553   8.742 -0.3678 -0.1695 -0.1886
    1WF      WF67679  18.905  22.916   2.631  0.2397  0.0659 -0.2247
    1WF      WF67680  24.170  21.693   2.166  0.0280 -0.1516 -0.0239
    1WF      WF67681   5.408  26.050   1.171  0.0232 -0.2226 -0.0102
    1WF      WF67682   9.138  17.361   1.133  0.0867 -0.2915 -0.1084
    1WF      WF67683   4.655  24.153   1.332 -0.0704 -0.0443  0.0393
    1WF      WF67684  18.192  26.535   2.032  0.3628  0.1114 -0.3803
    1WF      WF67685  17.699  17.645   8.992  0.0604 -0.1068  0.0032
    1WF      WF67686  28.077   2.639   1.427  0.0127  0.0897  0.3305
    1WF      WF67687  19.840  27.872   2.776  0.0973  0.4918 -0.1631
    1WF      WF67688   4.429   1.078   9.487  0.2132  0.1392 -0.1203
    1WF      WF67689  16.982   1.899   7.146  0.0327 -0.1880  0.3745
    1WF      WF67690  14.375  12.176   8.537 -0.0253 -0.0642 -0.3204
    1WF      WF67691  26.144   3.481   9.004 -0.1701  0.2711  0.0081
    1WF      WF67692  15.774   2.349   9.333 -0.4819 -0.0341  0.1408
    1WF      WF67693   8.044  20.032   2.693  0.2259 -0.2977 -0.1263
    1WF      WF67694   5.468  21.026   1.218 -0.1614  0.1260  0.0094
    1WF      WF67695   6.168   5.990   0.475 -0.2789 -0.0294 -0.2310
    1WF      WF67696  21.458   9.386   8.559 -0.0198 -0.0086 -0.0691
    1WF      WF67697  22.719  16.668   0.412 -0.1950  0.2518 -0.2394
    1WF      WF67698  13.707   4.083   8.062  0.0109  0.0600  0.0334
    1WF      WF67699  29.387  16.165   9.161  0.0941  0.1515 -0.0386
    1WF      WF67700  22.192  18.380   0.157 -0.6625  0.2224  0.0518
    1WF      WF67701   6.460   0.937   0.888  0.0053 -0.1315 -0.0852
    1WF      WF67702  21.482  28.183   1.539  0.3164 -0.0720  0.0849
    1WF      WF67703  28.372   6.186   7.997  0.2061  0.3154 -0.0020
    1WF      WF67704   9.031  10.750   8.567  0.2699  0.2609 -0.0902
    1WF      WF67705   6.197  11.598   9.132 -0.0199  0.0478  0.1065
    1WF      WF67706  24.400   2.918   1.730 -0.1612 -0.0509  0.1036
    1WF      WF67707  18.865  10.932   9.554 -0.0490  0.2401 -0.2389
    1WF      WF67708  20.667  21.081   1.295 -0.1205  0.1576 -0.3141
    1WF      WF67709  22.211  20.855   2.066 -0.1218  0.1996  0.0465
    1WF      WF67710   2.714  20.074   9.020  0.0075 -0.2333 -0.0877
    1WF      WF67711  27.752  15.777   0.513  0.0776 -0.0793 -0.7078
    1WF      WF67712  20.519  29.127   2.973 -0.1925 -0.1080  0.0146
    1WF      WF67713  27.757  13.971   8.230  0.0531  0.0219  0.0898
    1WF      WF67714  14.849  29.320   1.029  0.1665  0.2187  0.0461
    1WF      WF67715   6.058  15.951   9.216  0.0396 -0.1033 -0.0081
    1WF      WF67716   5.324  29.475   2.886  0.1605  0.0036 -0.0320
    1WF      WF67717  24.968  12.746   1.855  0.0054 -0.0159 -0.1991
    1WF      WF67718  16.599  18.537   7.901  0.2690 -0.1565  0.0697
    1WF      WF67719  27.874  20.897   2.743 -0.2582  0.0297 -0.1724
    1WF      WF67720   8.397  23.352   9.529 -0.1780  0.0981  0.0295
    1WF      WF67721  20.804   8.697   0.297 -0.1562 -0.2490  0.0043
    1WF      WF67722   9.162   2.918   8.545  0.0630  0.1285 -0.0167
    1WF      WF67723  15.457  14.068   8.344 -0.2540  0.0796 -0.0451
    1WF      WF67724  17.138  19.928   9.183 -0.0134  0.3100 -0.0164
    1WF      WF67725  21.525  28.877   9.222  0.2066 -0.2068  0.2944
    1WF      WF67726  10.036  18.495   7.731 -0.3159 -0.0995 -0.1541
    1WF      WF67727  12.296   3.978   1.116 -0.0622 -0.2985 -0.1406
    1WF      WF67728   4.185  14.448   9.474  0.2049  0.1130  0.1185
    1WF      WF67729   8.131  10.480   0.543 -0.3383  0.0169 -0.0613
    1WF      WF67730   9.583  18.844   1.080 -0.3073 -0.2198 -0.1169
    1WF      WF67731  25.357  20.226   1.213 -0.0385 -0.1687  0.2247
    1WF      WF67732  26.923  11.757   0.426  0.4753 -0.0641  0.1054
    1WF      WF67733  24.355  26.525   0.522 -0.1334 -0.2805  0.1012
    1WF      WF67734  24.914  17.806   2.248  0.2218  0.0738  0.1093
    1WF      WF67735   0.166   3.069   9.204 -0.0755  0.1899  0.3020
    1WF      WF67736  29.109  11.593   2.173  0.2254 -0.1279 -0.1199
    1WF      WF67737  22.051  11.656   9.285  0.2194  0.0111  0.1410
    1WF      WF67738   8.149  28.720   1.294  0.0492 -0.1228  0.0504
    1WF      WF67739  19.283   2.326   1.373 -0.4412 -0.3701 -0.1276
    1WF      WF67740   9.389  22.110   9.270 -0.2758 -0.0243 -0.0918
    1WF      WF67741   6.013  24.595   1.426  0.0432 -0.3147  0.2701
    1WF      WF67742  17.027  26.868   9.094  0.2579 -0.0025 -0.0958
    1WF      WF67743  25.095  20.794   0.371  0.1355  0.0184  0.1061
    1WF      WF67744   4.298  20.264   1.185 -0.1215  0.0388  0.0803
    1WF      WF67745   0.441  29.074   0.244  0.2179 -0.1135 -0.1605
    1WF      WF67746  10.932  29.365   6.982 -0.0720 -0.0690  0.0267
    1WF      WF67747  20.133  29.105   2.575 -0.3110  0.2841 -0.2556
    1WF      WF67748  19.390  21.832   0.299  0.2527  0.0833  0.3983
    1WF      WF67749   7.951  16.523   1.426 -0.1804 -0.0117  0.0351
    1WF      WF67750  23.474  28.646   3.410  0.0432 -0.1205  0.2083
    1WF      WF67751  13.285  19.644   8.685 -0.2850  0.1064  0.0563
    1WF      WF67752  19.686  28.317   2.551  0.0725  0.1669 -0.2505
    1WF      WF67753  23.072  18.132   1.753  0.1669 -0.3747  0.0357
    1WF      WF67754   4.393  17.307   0.940 -0.4022 -0.0676 -0.0394
    1WF      WF67755   4.458  25.859   8.395 -0.1509 -0.0374 -0.0466
    1WF      WF67756  15.155  19.072   9.297  0.1633 -0.1879  0.0669
    1WF      WF67757   6.052  22.356   7.415  0.2225  0.2752  0.1954
    1WF      WF67758   6.968  24.221   8.527 -0.3014  0.0489  0.1269
    1WF      WF67759  21.164  25.062   7.307  0.1177  0.1826  0.1616
    1WF      WF67760  19.725  24.426   3.370 -0.3009 -0.2766  0.1600
    1WF      WF67761  20.640  22.551   0.141  0.1187 -0.0221  0.2954
    1WF      WF67762  11.171  29.004   9.306 -0.0979 -0.0816 -0.1557
    1WF      WF67763  14.490  25.890   6.936  0.0756 -0.2480  0.0926
    1WF      WF67764   6.257  27.677   0.561  0.2732  0.2272  0.1395
    1WF      WF67765  19.921   3.325   1.309 -0.3659  0.0746 -0.1195
    1WF      WF67766  23.661   1.574   9.370  0.2976  0.2520 -0.1729
    1WF      WF67767  25.018   6.267   8.098  0.0440 -0.1153  0.2374
    1WF      WF67768  19.436  19.711   9.623  0.1922  0.2452  0.1966
    1WF      WF67769   9.738  22.748   9.440 -0.1239  0.2955  0.4648
    1WF      WF67770  17.694  28.028   6.943  0.2480  0.2874 -0.0623
    1WF      WF67771   6.763  29.130   8.693  0.0489  0.1016 -0.0157
    1WF      WF67772  20.544  26.514   3.106 -0.0352 -0.3342 -0.0353
    1WF      WF67773   3.755   2.906   8.592 -0.0401 -0.1704  0.0020
    1WF      WF67774  15.813  28.885   8.787 -0.0874  0.0036 -0.0370
    1WF      WF67775  12.179  25.262   8.452 -0.0374 -0.1253 -0.3794
    1WF      WF67776  23.863  24.338   1.290  0.0783 -0.0669  0.1359
    1WF      WF67777  26.831  23.314   1.203 -0.0536  0.3266 -0.1219
    1WF      WF67778  28.944  22.799   8.151 -0.1180 -0.1269 -0.0996
    1WF      WF67779   2.220   7.184   0.056 -0.0064  0.0450  0.2545
    1WF      WF67780   9.050  20.525   8.613 -0.0495 -0.0618 -0.0580
    1WF      WF67781  25.414  28.488   1.198 -0.0080 -0.0307  0.0391
    1WF      WF67782   6.245   8.999   0.395 -0.1316 -0.2337 -0.1193
    1WF      WF67783  24.222  27.004   0.674 -0.2083  0.0162 -0.4060
    1WF      WF67784  11.664   4.314   9.372  0.0511  0.0612  0.1995
    1WF      WF67785  24.128  24.549   8.366  0.0294 -0.1576  0.1121
    1WF      WF67786  19.472  16.791   8.773 -0.1099  0.0083 -0.0302
    1WF      WF67787  15.448  20.665   0.645  0.0933 -0.2464  0.0765
    1WF      WF67788   0.741   3.603   1.052  0.1230 -0.1595  0.1925
    1WF      WF67789  12.772  23.590   1.382  0.2423 -0.0711 -0.1324
    1WF      WF67790  13.798  14.539   0.305  0.0612  0.0065 -0.0114
    1WF      WF67791  22.544   9.714   0.872  0.0829  0.0950  0.1090
    1WF      WF67792  11.890   6.590   1.470 -0.1836  0.0927  0.1040
    1WF      WF67793  14.641  12.444   8.125 -0.4638  0.2542  0.0398
    1WF      WF67794   2.240  29.450   7.761 -0.1677  0.0179  0.2325
    1WF      WF67795  23.110  19.996   9.461  0.0524  0.0699 -0.1249
    1WF      WF67796   4.150   8.275   0.520  0.3649 -0.1403  0.2361
    1WF      WF67797  23.068  18.106   8.277 -0.1111 -0.0969  0.2694
    1WF      WF67798  18.384  26.084   1.242 -0.0927 -0.1282  0.0987
    1WF      WF67799  13.180  29.570   9.382  0.2654  0.2954  0.0947
    1WF      WF67800   5.479  21.171   1.738 -0.0266 -0.0404  0.1065
    1WF      WF67801   5.847   1.920   3.259  0.2719  0.1988  0.4156
    1WF      WF67802  15.014  20.375   8.006  0.2210 -0.0394 -0.2083
    1WF      WF67803  18.504  25.546   8.387  0.3389  0.0108 -0.0663
    1WF      WF67804  27.461  20.677   7.906 -0.0042  0.0954 -0.1072
    1WF      WF67805  13.118   2.552   6.421 -0.0517  0.2076  0.0006
    1WF      WF67806   3.754  27.930   1.559  0.0528 -0.2031 -0.0689
    1WF      WF67807   6.421   7.012   0.490  0.2214  0.1998 -0.1556
    1WF      WF67808  14.197  10.652   1.286 -0.2217 -0.0013  0.0742
    1WF      WF67809  24.990   3.923   1.180 -0.1621  0.0073  0.0042
    1WF      WF67810   2.055   7.852   8.748  0.1907 -0.0889 -0.1356
    1WF      WF67811   7.150  16.933   6.537 -0.0065 -0.0711 -0.1351
    1WF      WF67812   1.089   6.192   0.496 -0.0677 -0.0081  0.0274
    1WF      WF67813  25.235  10.015   1.291  0.1510  0.0971 -0.0252
    1WF      WF67814  10.426   8.462   9.265  0.2402 -0.0897  0.0964
    1WF      WF67815  20.889  26.379   1.164 -0.4107 -0.1917 -0.0381
    1WF      WF67816  25.645  18.045   1.051  0.0194 -0.0599  0.1854
    1WF      WF67817  15.156   2.573   9.504  0.0318  0.2090 -0.0067
    1WF      WF67818  24.357  26.618   8.778 -0.0211 -0.1392  0.0745
    1WF      WF67819  29.228  17.334   0.459 -0.3904  0.0421  0.0470
    1WF      WF67820  27.185  18.389   7.981 -0.3308 -0.0059 -0.1229
    1WF      WF67821   8.186  26.012   2.424  0.3203  0.2432  0.2062
    1WF      WF67822   3.700  18.603   9.141 -0.1491  0.0530 -0.0630
    1WF      WF67823   7.664  16.177   1.162 -0.3957 -0.0683  0.1081
    1WF      WF67824  14.700  15.783   7.823  0.0449 -0.2287 -0.1495
    1WF      WF67825  23.767  21.966   2.522 -0.2383  0.0212 -0.2611
    1WF      WF67826  12.460  22.655   8.690 -0.1269  0.3904 -0.2928
    1WF      WF67827   8.652  23.716   1.422  0.0955 -0.0899 -0.1103
    1WF      WF67828  11.759  27.962   9.243 -0.0562 -0.3612  0.1032
    1WF      WF67829   7.422   2.918   0.997 -0.1052 -0.0033  0.2858
    1WF      WF67830  13.188  11.231   0.017  0.0935  0.2637 -0.1752
    1WF      WF67831  26.113   5.930   7.823 -0.0820  0.1708 -0.2258
    1WF      WF67832  29.339  14.479   0.995 -0.0634  0.0411 -0.2843
    1WF      WF67833  10.043  14.874   7.133  0.0813 -0.0795  0.2470
    1WF      WF67834   6.317  10.867   7.577 -0.0364  0.0102 -0.0760
    1WF      WF67835  18.640   3.133   1.303  0.1457 -0.2673  0.3214
    1WF      WF67836  13.083   9.094   8.677  0.1167 -0.1357 -0.0147
    1WF      WF67837  29.443   9.811   8.682 -0.0764  0.1785  0.0846
    1WF      WF67838   6.255  12.674   6.963  0.1263 -0.0190  0.0793
    1WF      WF67839  14.155  21.143   0.793  0.1355 -0.0056 -0.0089
    1WF      WF67840   7.314  26.079   0.482 -0.0686 -0.1136 -0.0548
    1WF      WF67841   1.485   2.349   9.026 -0.1057  0.1507  0.1607
    1WF      WF67842   0.093  21.102   0.759 -0.1835  0.0900  0.0858
    1WF      WF67843  21.263  22.244   2.116  0.0279  0.0266  0.0848
    1WF      WF67844  16.580   9.336   0.415 -0.2529 -0.1063 -0.1684
    1WF      WF67845  16.009   8.338   8.292  0.4422 -0.2610 -0.0985
    1WF      WF67846   6.013  15.464   9.084  0.0314  0.3008  0.0395
    1WF      WF67847  10.262  27.733   8.740  0.0978 -0.0990 -0.1075
    1WF      WF67848  16.305   3.681   2.941 -0.2415 -0.0091  0.0671
    1WF      WF67849  17.315   3.642   9.617  0.1534  0.1554  0.2564
    1WF      WF67850  25.752   2.967   9.022 -0.2301 -0.1878  0.1632
    1WF      WF67851  21.727  11.760   8.892  0.1476 -0.1357 -0.1845
    1WF      WF67852  11.930  11.534   7.585 -0.0718  0.1853 -0.2022
    1WF      WF67853  17.417   3.862   9.124  0.2031  0.2373 -0.0448
    1WF      WF67854  12.865   2.922   8.472 -0.1837 -0.0044  0.0014
    1WF      WF67855   4.903  24.750   8.139  0.0463  0.2349  0.1695
    1WF      WF67856   4.180  29.089   9.083  0.0031  0.3765 -0.0862
    1WF      WF67857  13.771  12.785   0.747 -0.0513 -0.2233 -0.0485
    1WF      WF67858  14.683   2.333   0.396  0.0364  0.0952  0.0004
    1WF      WF67859  14.538   2.128   8.067  0.3374 -0.0323 -0.1299
    1WF      WF67860  28.923   6.869   6.928 -0.1751 -0.1807 -0.0175
    1WF      WF67861   0.329   2.033   0.302 -0.5047  0.1964 -0.1802
    1WF      WF67862   8.053  28.103   7.538  0.2440 -0.0234 -0.5753
    1WF      WF67863  29.547  19.373   0.663  0.3106  0.2000  0.1467
    1WF      WF67864   1.557  24.720   0.285  0.1827 -0.2375 -0.2155
    1WF      WF67865   6.132   1.089   0.532  0.3038 -0.2628  0.1419
    1WF      WF67866   0.056  25.725   9.605  0.1399  0.2204  0.3930
    1WF      WF67867   7.516   5.875   8.483 -0.0135 -0.1733 -0.1383
    1WF      WF67868  25.689  20.760   3.958 -0.0248  0.2402 -0.0924
    1WF      WF67869  15.715  13.700   9.318  0.0486 -0.0210  0.2555
    1WF      WF67870   4.993   2.352   7.113  0.1964  0.3069 -0.0962
    1WF      WF67871  14.110  26.399   1.558  0.2170 -0.5528  0.2083
    1WF      WF67872  26.986  28.994   8.630 -0.0638 -0.1355 -0.0588
    1WF      WF67873  19.287  12.068   9.581  0.0368 -0.1978 -0.1002
    1WF      WF67874   9.881  11.178   6.360 -0.1888  0.3905  0.0410
    1WF      WF67875  20.752  28.141   2.505 -0.2625  0.1446 -0.0397
    1WF      WF67876   0.659  17.010   8.261  0.0637  0.0343  0.0517
    1WF      WF67877  22.105   6.106   0.570  0.1413  0.0250  0.0087
    1WF      WF67878  11.208  22.092   2.524 -0.1658  0.0331  0.0040
    1WF      WF67879   4.111   6.438   6.869 -0.1990 -0.0392 -0.0498
    1WF      WF67880  13.407   0.337   9.524 -0.0795  0.1626  0.0843
    1WF      WF67881  12.097  23.576   8.617  0.1642 -0.2113  0.2833
    1WF      WF67882  16.465   3.962   7.419 -0.2505 -0.0474 -0.1660
    1WF      WF67883  21.306  24.409   9.076  0.3143  0.1504 -0.2014
    1WF      WF67884  26.706   8.194   9.312  0.2286 -0.2707 -0.0297
    1WF      WF67885   9.973  22.018   2.516  0.2537 -0.0973  0.0515
    1WF      WF67886  20.699  22.668   0.683 -0.2788  0.1153 -0.2134
    1WF      WF67887   8.094   8.356   9.292 -0.0857 -0.2337 -0.0955
    1WF      WF67888  29.566   9.967   7.701 -0.1035 -0.3043 -0.3483
    1WF      WF67889  25.665   8.790   0.131 -0.1497 -0.0700  0.1869
    1WF      WF67890  27.287  21.267   3.373 -0.2429 -0.1043 -0.0521
    1WF      WF67891   2.425  24.968   8.191 -0.1814 -0.2941  0.2265
    1WF      WF67892  20.248  28.097   9.317  0.0343 -0.1353  0.3402
    1WF      WF67893  17.436  24.295   1.614  0.1297  0.3986  0.1135
    1WF      WF67894  29.106  22.812   0.175  0.0129  0.0898 -0.4826
    1WF      WF67895   3.258  28.151   3.157 -0.2068  0.0307  0.1707
    1WF      WF67896   0.728  17.528   0.695  0.1512  0.2972  0.0916
    1WF      WF67897   9.498   1.947   8.851  0.1060  0.1597 -0.0578
    1WF      WF67898  19.082  10.915   8.509 -0.0850  0.1859  0.2317
    1WF      WF67899  23.888  28.051   0.292  0.2104  0.0456  0.0175
    1WF      WF67900   1.166  21.056   0.683  0.0491 -0.4645  0.3611
    1WF      WF67901   5.472  22.200   9.089 -0.1056  0.1406  0.2301
    1WF      WF67902  10.115  16.227   0.110  0.0115 -0.1032 -0.5015
    1WF      WF67903  16.625   3.173   8.276 -0.3695  0.0506  0.1233
    1WF      WF67904   1.001  23.839   8.391 -0.3150  0.3193  0.0561
    1WF      WF67905   0.511  10.575   8.944 -0.2777 -0.0587 -0.4206
    1WF      WF67906  12.400  14.943   8.324 -0.1884  0.0302 -0.1500
    1WF      WF67907   8.547  25.672   6.738 -0.1301 -0.1912 -0.0714
    1WF      WF67908   9.155  16.076   7.597 -0.0859 -0.0935  0.0838
    1WF      WF67909  14.740  23.600   8.223 -0.1207 -0.4403  0.0851
    1WF      WF67910  27.281  23.567   1.142 -0.1778  0.1882  0.1677
    1WF      WF67911  26.983  10.551   7.961  0.1565 -0.0318 -0.2889
    1WF      WF67912  16.556  27.745   7.260  0.1530 -0.2096  0.1355
    1WF      WF67913  16.055  11.124   2.695  0.1404  0.1545 -0.2289
    1WF      WF67914  18.345  13.005   0.293  0.2422  0.0472  0.2814
    1WF      WF67915   7.984  15.008   2.193  0.1230 -0.1415  0.2218
    1WF      WF67916   5.440  20.154   9.570 -0.0567 -0.3074  0.3432
    1WF      WF67917  11.457  11.516   0.473 -0.0424 -0.0240  0.1114
    1WF      WF67918   3.872  29.175   9.541 -0.0026 -0.1956 -0.0645
    1WF      WF67919  12.591  29.264   8.002  0.0932  0.0284 -0.0305
    1WF      WF67920  17.383  19.629   2.482  0.1957 -0.0382  0.3368
    1WF      WF67921  16.289  26.119   8.628 -0.1674  0.1941  0.1200
    1WF      WF67922   2.979  18.696   7.822  0.1662 -0.1513 -0.0819
    1WF      WF67923  13.500   4.433   6.910 -0.1578 -0.2984  0.4004
    1WF      WF67924  23.919  17.743   0.195  0.0665  0.1474 -0.3152
    1WF      WF67925  12.195  20.006   6.719  0.0153 -0.0481 -0.0143
    1WF      WF67926   9.193  10.084   1.795  0.0185  0.0879 -0.0013
    1WF      WF67927  10.851  18.374   0.785  0.0491  0.2363  0.1933
    1WF      WF67928   5.606  12.407   9.334 -0.0922 -0.0017 -0.1881
    1WF      WF67929  29.065  15.803   7.531 -0.0589  0.0637 -0.1193
    1WF      WF67930   6.226   1.362   0.917 -0.0347  0.2660 -0.1269
    1WF      WF67931  10.953  20.949   9.642  0.1441 -0.1022  0.1531
    1WF      WF67932  15.507   4.570   1.641  0.1502 -0.0322 -0.1026
    1WF      WF67933   5.372  22.557   3.754  0.0138 -0.2238 -0.2313
    1WF      WF67934  22.077   3.498   7.499  0.1007 -0.0606 -0.1413
    1WF      WF67935  14.672  12.994   8.291 -0.0812 -0.2142 -0.1729
    1WF      WF67936  24.305  16.013   0.748 -0.0484  0.0500  0.1149
    1WF      WF67937  25.619   9.816   1.049  0.1922 -0.2150 -0.3827
    1WF      WF67938  18.746  13.318   7.105 -0.1920  0.0446 -0.0159
    1WF      WF67939  19.096  20.278   3.380 -0.2660  0.1470  0.2141
    1WF      WF67940  18.260  15.023   0.547 -0.0846  0.2305  0.3261
    1WF      WF67941  27.558  24.420   0.440  0.0219  0.1990  0.1499
    1WF      WF67942   8.268   9.060   8.847 -0.1553  0.3486  0.0742
    1WF      WF67943  13.469  21.696   9.310 -0.0362 -0.0767  0.0415
    1WF      WF67944  13.832   4.562   8.056  0.0825  0.0299  0.1408
    1WF      WF67945   4.689  27.770   7.980  0.2450 -0.1135 -0.1954
    1WF      WF67946   8.925  26.033   0.034  0.1737  0.0087 -0.2230
    1WF      WF67947   6.125  26.927   2.211  0.3008 -0.0243  0.0711
    1WF      WF67948  15.373  28.982   1.041 -0.2324 -0.3584 -0.0391
    1WF      WF67949   1.787   8.066   9.185 -0.0831 -0.1805  0.0512
    1WF      WF67950  24.609  27.958   0.768  0.1459 -0.2054 -0.0407
    1WF      WF67951  26.053   5.021   8.930  0.1403 -0.0589  0.1654
    1WF      WF67952   5.074  25.311   7.267  0.3056 -0.1075 -0.0505
    1WF      WF67953  17.086  23.264   1.829  0.1455 -0.1655 -0.1368
    1WF      WF67954  19.098  11.509   1.011  0.1995  0.1785  0.3556
    1WF      WF67955   0.257  16.422   0.874  0.2173  0.1100  0.2188
    1WF      WF67956  21.880  17.444   7.326  0.2601  0.1861 -0.0299
    1WF      WF67957  28.507  17.691   7.384  0.0000  0.1416  0.0345
    1WF      WF67958  28.125   9.877   9.015 -0.1329  0.2141 -0.0237
    1WF      WF67959  11.125  20.120   0.497 -0.0480  0.1372 -0.1867
    1WF      WF67960  21.374  17.816   0.036 -0.0757 -0.0509 -0.1712
    1WF      WF67961  15.381  23.227   1.437  0.0192 -0.1903 -0.0415
    1WF      WF67962  10.189  18.102   7.431 -0.1545 -0.0998 -0.4073
    1WF      WF67963  25.447  19.530   1.985 -0.1133 -0.1620  0.3262
    1WF      WF67964  14.048  10.137   1.311  0.4647  0.2098 -0.1056
    1WF      WF67965  26.983  29.466   8.509 -0.2109  0.0752 -0.2140
    1WF      WF67966   6.461  14.464   7.410  0.1448  0.2206  0.1111
    1WF      WF67967   1.589  28.815   1.523  0.0751  0.1452 -0.4219
    1WF      WF67968  18.025  27.063   9.181 -0.2996 -0.1144  0.0369
    1WF      WF67969  14.916  20.240   8.447 -0.3273 -0.1771 -0.2589
    1WF      WF67970  23.758  24.179   2.903  0.0390  0.3234 -0.2927
    1WF      WF67971  13.334   0.370   0.713 -0.1925 -0.3680 -0.1335
    1WF      WF67972  24.574  12.659   8.884 -0.0334 -0.0392  0.0161
    1WF      WF67973   6.341   6.054   2.570  0.0078  0.3643  0.0603
    1WF      WF67974  19.131  10.993   1.307 -0.0477  0.0701 -0.3119
    1WF      WF67975   0.134   8.869   2.100 -0.0954  0.3791  0.2144
    1WF      WF67976   1.749  12.077   8.389  0.2617 -0.0265 -0.3591
    1WF      WF67977  14.537  19.634   2.039 -0.0211 -0.1019 -0.1103
    1WF      WF67978  19.044  19.625   0.332 -0.1028  0.2153 -0.3791
    1WF      WF67979  22.717   2.406   9.429  0.0486 -0.0744 -0.1932
    1WF      WF67980  25.375   0.626   9.094  0.0184  0.1933 -0.0614
    1WF      WF67981  18.174   7.325   7.016  0.0123  0.3547 -0.3533
    1WF      WF67982  18.872  24.399   4.203 -0.0521  0.0626 -0.1150
    1WF      WF67983   9.476   4.787   1.094  0.0150 -0.1548  0.2503
    1WF      WF67984  28.965  17.628   7.151  0.1245 -0.0671 -0.2434
    1WF      WF67985  25.625  14.760   0.579  0.4654  0.0567 -0.1825
    1WF      WF67986   9.448   2.864   6.902  0.2007  0.1497 -0.0817
    1WF      WF67987  27.896  25.937   1.490  0.0322  0.0367  0.2146
    1WF      WF67988  18.406  20.782   0.312 -0.2411 -0.2288 -0.2572
    1WF      WF67989  27.082  19.608   0.253  0.0593  0.0870 -0.0509
    1WF      WF67990   7.327   2.778   0.552 -0.1440 -0.0844 -0.0410
    1WF      WF67991  24.040  28.076   9.420  0.0071 -0.2339 -0.0228
    1WF      WF67992   6.004   2.548   8.668 -0.3906 -0.3266 -0.0100
    1WF      WF67993  20.066   4.087   9.287  0.0201 -0.1514  0.1764
    1WF      WF67994  13.399  19.018   8.791 -0.0074  0.5192  0.2932
    1WF      WF67995  19.047  17.226   0.251  0.2490 -0.1576  0.0324
    1WF      WF67996  16.817  13.923   0.552 -0.1684 -0.1177 -0.1026
    1WF      WF67997   5.948  28.542   7.249  0.0092 -0.0325 -0.0124
    1WF      WF67998  27.834   1.172   7.016 -0.0699  0.1670  0.1700
    1WF      WF67999  18.957  18.649   6.601 -0.2930 -0.2865 -0.0881
    1WF      WF68000   0.306  19.809   3.912  0.0456 -0.1076  0.0666
    1WF      WF68001  28.728   0.494   8.922 -0.1057  0.0438 -0.0190
    1WF      WF68002  19.251   1.075   1.657  0.1618  0.0931 -0.2083
    1WF      WF68003   3.028   0.550   0.023  0.5048 -0.2142  0.0880
    1WF      WF68004   0.159  22.325   3.276 -0.3499 -0.0627 -0.0040
    1WF      WF68005  22.494  24.973   1.732 -0.0792 -0.3580  0.1742
    1WF      WF68006  24.849  12.451   9.229  0.0596  0.2167 -0.0644
    1WF      WF68007   6.700  27.813   1.033 -0.2094 -0.1383  0.0145
    1WF      WF68008  26.699  28.923   0.910  0.0980 -0.3004 -0.0640
    1WF      WF68009  16.339   7.659   0.982  0.1057  0.3413  0.1470
    1WF      WF68010   4.391  13.086   9.523  0.0543  0.1427  0.2048
    1WF      WF68011   2.653  24.893   8.632 -0.0400  0.1805  0.0740
    1WF      WF68012   8.081  23.462   9.200  0.2547  0.1777  0.0252
    1WF      WF68013  10.587  22.738   1.156 -0.0749  0.1050 -0.0735
    1WF      WF68014  19.867  27.938   2.273  0.2378  0.1967 -0.0382
    1WF      WF68015  10.218  15.116   0.830  0.2438 -0.2525 -0.1110
    1WF      WF68016  22.050   4.533   0.618  0.0184  0.0600  0.2692
    1WF      WF68017   6.221   1.240   8.540  0.2198 -0.2707 -0.1400
    1WF      WF68018  11.726  28.254   8.606 -0.2310  0.0466 -0.1408
    1WF      WF68019  13.303   7.261   1.246 -0.3107 -0.0605 -0.1665
    1WF      WF68020  27.761  28.023   0.767  0.1183 -0.0680  0.0705
    1WF      WF68021  17.225  16.147   6.938  0.0081 -0.3487 -0.0296
    1WF      WF68022  17.400  29.585   0.495  0.1322  0.4121  0.0415
    1WF      WF68023   5.794  25.313   8.160 -0.0968 -0.1049 -0.0351
    1WF      WF68024  18.712   7.762   7.085 -0.2250 -0.0270  0.2028
    1WF      WF68025   7.801  27.747   5.754 -0.0372  0.0379  0.4506
    1WF      WF68026   8.455   8.593   9.074 -0.2800  0.0368  0.4290
    1WF      WF68027   5.054  27.844   0.465  0.1219  0.1897  0.3985
    1WF      WF68028  16.762  26.060   8.295  0.3605  0.0220  0.3494
    1WF      WF68029   1.278  19.211   3.500  0.2883 -0.3429  0.1091
    1WF      WF68030  23.029  29.283   2.051 -0.0332 -0.2234  0.1557
    1WF      WF68031   8.418  25.592   9.621 -0.2626 -0.0455 -0.0870
    1WF      WF68032   4.017  28.530   8.740  0.2879 -0.0397 -0.0524
    1WF      WF68033   2.301  18.123   2.561 -0.0855 -0.3647  0.1496
    1WF      WF68034   7.732  14.207   0.792 -0.2006  0.1932 -0.0449
    1WF      WF68035   1.051   4.879   1.501  0.1714  0.4715 -0.0104
    1WF      WF68036   8.609  11.622   6.959  0.2540 -0.2453  0.0653
    1WF      WF68037   5.603   6.957   8.559  0.3134  0.2321  0.0175
    1WF      WF68038  23.675  22.995   7.984 -0.1585  0.5039 -0.1934
    1WF      WF68039   1.243   3.835   8.210  0.2326  0.1074 -0.0147
    1WF      WF68040  29.342  25.393   0.079  0.4173  0.1502  0.0710
    1WF      WF68041  21.317  21.563   7.667  0.0560 -0.0934  0.2144
    1WF      WF68042  13.456  20.015   6.778  0.0236  0.1303 -0.1987
    1WF      WF68043  29.220  25.932   2.049 -0.1170  0.1454  0.1470
    1WF      WF68044   0.445  18.619   0.598 -0.0636 -0.3344 -0.0038
    1WF      WF68045  25.893  12.482   8.954  0.0754 -0.2072  0.0540
    1WF      WF68046  13.017  10.184   6.365 -0.1668 -0.2186  0.0524
    1WF      WF68047  18.993   0.471   9.029 -0.0100 -0.3317  0.0275
    1WF      WF68048   7.967  23.365   6.959 -0.0265  0.1607  0.3675
    1WF      WF68049  20.676  13.809   9.566 -0.0116  0.1412 -0.0322
    1WF      WF68050   9.079   1.096   8.599  0.0413 -0.0075  0.2132
    1WF      WF68051  26.210  26.332   0.407  0.3435 -0.3563  0.0889
    1WF      WF68052   5.663  12.500   7.513  0.0584 -0.1921 -0.1066
    1WF      WF68053  10.150   4.767   6.571  0.4686  0.2110 -0.6269
    1WF      WF68054   7.027   7.642   9.212  0.0919  0.0029  0.0706
    1WF      WF68055  15.235  27.154   9.292  0.1511  0.0170 -0.1562
    1WF      WF68056  25.762  11.676   0.348  0.0441 -0.1824  0.1283
    1WF      WF68057  12.741   6.685   1.910 -0.1078  0.1138 -0.2316
    1WF      WF68058  12.484  20.214   0.972 -0.0137 -0.0955  0.1662
    1WF      WF68059  24.154  23.847   3.100 -0.4531  0.0587 -0.0873
    1WF      WF68060  21.862  23.212   3.691  0.0029 -0.1634 -0.1006
    1WF      WF68061  23.520  19.556   1.236 -0.1069  0.2766  0.0678
    1WF      WF68062  28.760  26.750   1.179  0.1055 -0.1797 -0.0246
    1WF      WF68063   6.945  14.511   7.471 -0.2214  0.2040 -0.2489
    1WF      WF68064  15.869  16.792   8.647 -0.1186 -0.0702  0.1369
    1WF      WF68065  20.421  28.717   2.665 -0.2087  0.1329 -0.0500
    1WF      WF68066  16.446   4.205   6.892 -0.1540  0.0797  0.1086
    1WF      WF68067  11.882  14.660   9.433  0.1042  0.2273 -0.2619
    1WF      WF68068  18.892   0.244   9.471 -0.4692  0.1677 -0.0838
    1WF      WF68069  10.129  29.485   7.420 -0.0484 -0.0054  0.1184
    1WF      WF68070   3.616   3.273   0.449 -0.1146  0.1259  0.1916
    1WF      WF68071  16.618  12.819   8.134 -0.0126 -0.1211 -0.0355
    1WF      WF68072   2.641   9.785   5.728  0.0889 -0.2099  0.0284
    1WF      WF68073   9.463  24.408   9.081 -0.2607 -0.0266  0.3049
    1WF      WF68074  11.035  16.395   0.223  0.0657 -0.1843  0.3265
    1WF      WF68075   0.169  28.905   0.602 -0.1009  0.4256 -0.0423
    1WF      WF68076  13.566   0.510   0.336  0.1548  0.2650 -0.0878
    1WF      WF68077  29.108  26.847   0.858  0.1751 -0.1951  0.1984
    1WF      WF68078  20.375  29.521   0.912  0.1804 -0.3016  0.3835
    1WF      WF68079   4.381   7.685   7.711  0.1089 -0.0115  0.1471
    1WF      WF68080  12.156  13.177   2.151  0.1737 -0.0666 -0.4037
    1WF      WF68081  12.557  17.953   9.224  0.0464 -0.3652 -0.3250
    1WF      WF68082  20.737  25.432   8.753  0.1445  0.0007 -0.0417
    1WF      WF68083  22.794  20.337   0.059 -0.1955 -0.1710  0.0602
    1WF      WF68084   5.701  17.661   1.088 -0.1305  0.0742  0.0334
    1WF      WF68085   5.321   4.649   8.164 -0.1729 -0.1518  0.0332
    1WF      WF68086   5.009  25.661   9.034 -0.1816  0.1748 -0.0762
    1WF      WF68087  24.939  28.534   2.288 -0.2321 -0.2227  0.0597
    1WF      WF68088   9.014  20.594   7.691  0.0148  0.0142 -0.1611
    1WF      WF68089  16.604  27.393   7.565  0.0313  0.1724  0.3245
    1WF      WF68090   1.444  28.222   3.422 -0.3100  0.4507  0.0386
    1WF      WF68091  18.169  13.337   9.626 -0.1021  0.2245  0.1957
    1WF      WF68092   4.369   0.518   9.595 -0.0979  0.0074  0.1154
    1WF      WF68093  18.684  24.503   7.450  0.2828 -0.1940 -0.1014
    1WF      WF68094  21.844  24.967   0.241  0.1732 -0.0146 -0.0164
    1WF      WF68095  29.541   9.996   8.236  0.0678 -0.1612 -0.1478
    1WF      WF68096  15.189  21.798   1.357 -0.1154 -0.1048 -0.0902
    1WF      WF68097   2.500  20.573   9.306 -0.1769  0.1908 -0.2584
    1WF      WF68098  17.515   6.074   0.668 -0.1952 -0.0975  0.0612
    1WF      WF68099  14.556   3.702   7.393  0.1966  0.1016  0.2547
    1WF      WF68100  21.564   9.503   0.505  0.2915  0.0115  0.0440
    1WF      WF68101  13.993  10.967   7.189  0.1037 -0.0482 -0.1023
    1WF      WF68102  11.879  10.917   9.456 -0.2406 -0.0681  0.0351
    1WF      WF68103  14.582  14.525   8.100  0.1199 -0.1408 -0.4619
    1WF      WF68104  22.800  17.960   7.911  0.1387 -0.3258 -0.0210
    1WF      WF68105  20.744  20.449   8.787  0.0988  0.0927  0.1368
    1WF      WF68106  19.836  15.769   0.365  0.1038 -0.0068  0.0808
    1WF      WF68107  17.578  28.390   8.415 -0.3899 -0.1505  0.0086
    1WF      WF68108   5.519  29.520   1.271 -0.1777 -0.3514 -0.0430
    1WF      WF68109  15.005  27.686   0.492 -0.2718  0.0735  0.1747
    1WF      WF68110  12.886  18.725   7.268  0.0563  0.2636 -0.5604
    1WF      WF68111   0.112  10.433   8.604  0.0779 -0.0110  0.2072
    1WF      WF68112   6.143  25.120   7.816 -0.2796  0.0779  0.1905
    1WF      WF68113  19.830  24.893   1.511  0.1586  0.1369  0.1779
    1WF      WF68114  25.909  19.484   8.681 -0.2405 -0.1315  0.0441
    1WF      WF68115   0.061  11.890   1.659 -0.1970  0.1046  0.3042
    1WF      WF68116  23.320  11.627   9.521 -0.1298  0.0442 -0.3408
    1WF      WF68117   5.227  29.251   1.630 -0.3358 -0.0984 -0.2289
    1WF      WF68118   2.926   6.517   7.757 -0.1149 -0.2924 -0.1390
    1WF      WF68119   4.812  24.490   0.461  0.1575 -0.2677 -0.2145
    1WF      WF68120  26.187  15.736   8.640 -0.0580 -0.0711 -0.1954
    1WF      WF68121  19.732  28.342   0.712 -0.3002 -0.5191  0.5180
    1WF      WF68122  28.410   5.211   7.555 -0.2634  0.1037 -0.1607
    1WF      WF68123   5.220  12.086   5.506 -0.3102  0.0453 -0.1719
    1WF      WF68124  12.663   6.975   1.360 -0.0665  0.3324 -0.1291
    1WF      WF68125   9.796  10.727   1.101 -0.0944  0.0863 -0.0777
    1WF      WF68126  19.224  23.289   2.623 -0.0165  0.0562  0.3251
    1WF      WF68127   1.930  28.847   1.137  0.2958 -0.0802  0.4406
    1WF      WF68128  26.519  25.687   7.165 -0.0267 -0.0486 -0.1208
    1WF      WF68129  11.360  28.766   0.814 -0.1565 -0.1836  0.0736
    1WF      WF68130  12.417  22.227   2.671  0.1522  0.0588  0.0827
    1WF      WF68131  17.928   1.874   0.497  0.0291 -0.1650  0.0775
    1WF      WF68132  23.092  20.637   0.430 -0.0145  0.0223 -0.2722
    1WF      WF68133  16.063  27.760   8.639 -0.1289 -0.0702  0.1921
    1WF      WF68134  14.947   8.368   6.034  0.0996 -0.0097  0.1296
    1WF      WF68135  28.306   7.504   8.122 -0.0578 -0.0071  0.0096
    1WF      WF68136  15.143  21.066   0.723 -0.0334  0.1608  0.0485
    1WF      WF68137  17.813  15.272   7.139  0.1023  0.2091 -0.0958
    1WF      WF68138  28.667   6.258   7.572 -0.0481  0.1722 -0.0573
    1WF      WF68139   1.494   6.556   0.291  0.3565 -0.3687  0.1746
    1WF      WF68140  27.247  14.023   9.084 -0.2483 -0.3249  0.1834
    1WF      WF68141   1.822  18.022   9.094 -0.2407 -0.1126 -0.0462
    1WF      WF68142   4.858  18.974   6.735 -0.2177  0.2816 -0.1407
    1WF      WF68143   1.298  27.983   2.001 -0.1010 -0.0451  0.1362
    1WF      WF68144   5.046  11.470   7.571  0.1071  0.0298  0.0240
    1WF      WF68145  13.317  10.584   1.634  0.2643  0.1668  0.2573
    1WF      WF68146  23.472   6.315   7.647  0.2107 -0.0495 -0.0654
    1WF      WF68147  14.325  12.109   0.439  0.1007  0.1967 -0.1238
    1WF      WF68148  21.680  12.187   9.145  0.1621  0.1578  0.3516
    1WF      WF68149  23.014  17.957   8.790 -0.2957 -0.1791  0.0355
    1WF      WF68150  27.328   1.948   8.114  0.3618 -0.0518 -0.0751
    1WF      WF68151   8.498  21.943   2.155 -0.1096  0.3602 -0.1330
    1WF      WF68152   8.854  20.906   7.348  0.1113 -0.0054  0.0655
    1WF      WF68153  24.194  12.888   7.415  0.1367 -0.0910  0.0193
    1WF      WF68154  12.418  18.430   5.944 -0.0693 -0.5407 -0.0480
    1WF      WF68155  27.395  21.213   9.291 -0.3617  0.2672  0.1306
    1WF      WF68156  12.174  19.895   7.586 -0.2302  0.2940  0.1341
    1WF      WF68157   1.066  11.543   0.278 -0.3537 -0.3838 -0.0917
    1WF      WF68158  10.172  14.975   7.633 -0.1585 -0.0780 -0.1554
    1WF      WF68159   3.184  28.705   1.446 -0.0816 -0.2573 -0.2454
    1WF      WF68160  16.186  13.310   9.254  0.0491 -0.1421 -0.0941
    1WF      WF68161  20.791   8.919   9.473 -0.0096 -0.2370 -0.3894
    1WF      WF68162   0.888   5.048   7.738 -0.0279 -0.1077 -0.0949
    1WF      WF68163   9.507  20.233   1.496  0.0600  0.2569  0.0254
    1WF      WF68164  18.595  14.142   8.607  0.2133  0.1014  0.1575
    1WF      WF68165  22.847  18.082   0.463 -0.2009  0.2306  0.1865
    1WF      WF68166  15.278  13.777   6.662 -0.1573  0.4379 -0.0224
    1WF      WF68167  20.106   7.774   8.580 -0.2783 -0.1036  0.1416
    1WF      WF68168   8.017  13.835   5.925 -0.2589 -0.1112 -0.0226
    1WF      WF68169   7.871  15.547   7.493  0.3924  0.1869  0.1824
    1WF      WF68170   3.845  25.233   8.151  0.1097  0.2392 -0.1885
    1WF      WF68171   1.244   2.007   2.144  0.2803  0.3105 -0.0473
    1WF      WF68172  16.983  23.567   0.845 -0.0473  0.1205  0.2265
    1WF      WF68173  23.717  10.316   9.002 -0.2043 -0.0214 -0.0279
    1WF      WF68174   8.785  23.053   0.133  0.4207 -0.2657 -0.1990
    1WF      WF68175   9.887   7.919   1.376  0.0690  0.3185 -0.0818
    1WF      WF68176  17.715  24.544   2.014 -0.1266 -0.1317  0.2243
    1WF      WF68177   6.301   5.508   1.018  0.0811  0.1620  0.2796
    1WF      WF68178  26.752  11.362   0.754  0.1918  0.1796 -0.1005
    1WF      WF68179  19.492  23.690   2.490 -0.1716  0.2381 -0.2478
    1WF      WF68180   6.578  29.586   7.560  0.1415 -0.2575  0.2549
    1WF      WF68181   9.348  25.356   1.193 -0.0716  0.3520  0.2050
    1WF      WF68182   7.958  10.108   1.000  0.1559 -0.3146  0.0168
    1WF      WF68183  25.753   9.412   8.350  0.0787  0.0883 -0.2329
    1WF      WF68184   7.713   8.247   1.035 -0.1802 -0.0337 -0.0221
    1WF      WF68185  19.623   5.562   9.045 -0.2639 -0.0162  0.1895
    1WF      WF68186  13.624   4.009   7.130 -0.1739 -0.1677 -0.4291
    1WF      WF68187  27.797  17.325   8.740  0.1302  0.0478 -0.1854
    1WF      WF68188  23.468  25.582   1.143 -0.1696  0.0420 -0.1661
    1WF      WF68189   4.630  19.330   1.031 -0.1946 -0.0057 -0.3612
    1WF      WF68190  12.977   1.293   7.756 -0.1898  0.1091 -0.0738
    1WF      WF68191  13.845  20.371   2.680 -0.0731 -0.0670 -0.2859
    1WF      WF68192  16.667  19.437   8.698  0.0284 -0.2480  0.0133
    1WF      WF68193  29.186  15.387   9.409 -0.2956 -0.2093 -0.2320
    1WF      WF68194  13.902  15.876   1.238 -0.5315 -0.1156 -0.1160
    1WF      WF68195   3.676  17.728   8.067  0.0168 -0.0957 -0.3511
    1WF      WF68196  23.351  19.561   7.019  0.3059  0.0883  0.0166
    1WF      WF68197   6.986  22.471   2.303 -0.3385 -0.0953 -0.0444
    1WF      WF68198  24.871  25.779   2.832 -0.1121 -0.0845 -0.1663
    1WF      WF68199  29.046   2.585   2.299  0.2087  0.2077  0.0101
    1WF      WF68200   5.356  18.929   8.125  0.1818 -0.0653  0.0619
    1WF      WF68201   2.689   3.272   8.864  0.0637  0.0806 -0.0780
    1WF      WF68202  24.992   4.853   0.829 -0.0961  0.0379  0.0925
    1WF      WF68203   2.467   8.120   0.360 -0.0805 -0.0101 -0.1669
    1WF      WF68204   6.696   3.237   7.027 -0.0252 -0.0384 -0.0797
    1WF      WF68205   8.232  18.805   0.933 -0.0955 -0.0009 -0.1157
    1WF      WF68206  29.343   6.105   9.223  0.0699  0.1130 -0.1540
    1WF      WF68207  23.619   4.683   0.243  0.2283 -0.4876  0.0372
    1WF      WF68208   6.811  22.394   8.935 -0.2465 -0.0231 -0.2114
    1WF      WF68209   1.998   5.007   7.533 -0.1996  0.0744  0.1710
    1WF      WF68210  26.167  17.873   0.966  0.0677 -0.1578 -0.1433
    1WF      WF68211  20.440  11.531   0.712  0.0033 -0.0279  0.1795
    1WF      WF68212  21.262  18.253   9.335  0.1008 -0.1728  0.0152
    1WF      WF68213  20.300  13.929   1.769 -0.1887  0.1003 -0.0519
    1WF      WF68214  12.457  25.190   7.656 -0.2087 -0.0836  0.1058
    1WF      WF68215   2.445  20.950   1.804 -0.0907  0.2002 -0.0637
    1WF      WF68216  11.309   1.346   9.535 -0.0966 -0.1060  0.2834
    1WF      WF68217   1.551  18.283   8.763  0.1854 -0.1554  0.2242
    1WF      WF68218  16.278   0.415   6.140  0.3894 -0.0369  0.3132
    1WF      WF68219   0.381  21.505   0.732 -0.3136 -0.2907 -0.0900
    1WF      WF68220  24.683  22.457   9.052  0.1819  0.3618 -0.0468
    1WF      WF68221  23.577  23.105   9.609 -0.1781  0.0404  0.1391
    1WF      WF68222  28.388  12.892   8.560  0.0591 -0.2197  0.0981
    1WF      WF68223  25.235  20.438   0.760  0.0065 -0.0934  0.0518
    1WF      WF68224  24.218   3.565   9.007  0.3364  0.0606  0.0895
    1WF      WF68225  26.704  21.006   8.525  0.0066  0.2431  0.1637
    1WF      WF68226  23.087  11.115   8.762  0.0568  0.0720 -0.0389
    1WF      WF68227  11.030  28.964   1.364  0.0234 -0.0324 -0.0086
    1WF      WF68228  14.462  14.831   0.803  0.0644  0.3128 -0.3552
    1WF      WF68229  27.924   4.722   2.552 -0.0971 -0.0991  0.0673
    1WF      WF68230  11.036   1.805   7.568  0.0543 -0.0699 -0.1182
    1WF      WF68231  18.657  16.062   9.322 -0.0848  0.1279 -0.3728
    1WF      WF68232  28.278   2.476   0.932  0.2372 -0.1435 -0.1172
    1WF      WF68233  21.870   5.021   0.842 -0.2290  0.2942  0.1844
    1WF      WF68234  14.385  16.701   7.414 -0.2104  0.1542 -0.3269
    1WF      WF68235  21.903   4.094   0.748 -0.0617  0.5705  0.1965
    1WF      WF68236  17.460  14.574   1.693  0.1671  0.0864 -0.1586
    1WF      WF68237  15.033   5.730   1.406 -0.1339  0.0421 -0.0714
    1WF      WF68238   3.077  23.189   1.400 -0.2117 -0.1006  0.1184
    1WF      WF68239  21.899   3.409   1.582 -0.0020 -0.0216  0.0833
    1WF      WF68240  26.107   0.666   0.951  0.0329 -0.0285 -0.0967
    1WF      WF68241  17.962   1.985   7.980  0.0319 -0.0425  0.0517
    1WF      WF68242   7.680  12.437   8.747 -0.2576 -0.0006  0.3550
    1WF      WF68243   3.274  10.353   0.424  0.0267  0.0006 -0.0862
    1WF      WF68244   6.634  27.170   7.554  0.1756 -0.2893  0.1467
    1WF      WF68245   2.732   1.838   7.415 -0.2029 -0.2124 -0.1808
    1WF      WF68246   9.400  17.295   9.075  0.1426 -0.1413  0.2793
    1WF      WF68247  27.942  28.634   3.515 -0.0987 -0.1598 -0.0846
    1WF      WF68248   3.969  10.537   1.760  0.0172 -0.1114  0.2094
    1WF      WF68249  12.063  13.076   0.694  0.1335 -0.0547 -0.0153
    1WF      WF68250  23.436  20.012   1.412  0.0687  0.4487  0.1035
    1WF      WF68251  11.365  25.899   6.908 -0.1273 -0.3240 -0.0465
    1WF      WF68252   1.300   5.358   0.339  0.0043 -0.0874  0.0160
    1WF      WF68253  23.956  23.323   0.364  0.1811  0.0202 -0.0475
    1WF      WF68254   8.643   5.065   6.869  0.4248 -0.0641 -0.1270
    1WF      WF68255  17.277   5.940   7.649  0.4103  0.1980 -0.0645
    1WF      WF68256  16.805  23.618   8.409  0.0996  0.1088 -0.0637
    1WF      WF68257   9.343   0.180   1.621 -0.2242  0.2213 -0.1568
    1WF      WF68258  12.014  10.251   8.253 -0.2519 -0.2254  0.2023
    1WF      WF68259  17.739   5.864   8.570 -0.3016 -0.0884  0.0488
    1WF      WF68260   6.069   0.935   1.211  0.1178  0.1184 -0.0176
    1WF      WF68261   8.141  11.591   7.024  0.0147 -0.1062 -0.0456
    1WF      WF68262  20.275  28.026   2.560 -0.2838 -0.3765  0.2923
    1WF      WF68263  15.192  21.032   2.703 -0.0549  0.1367  0.0087
    1WF      WF68264  19.090  15.949   8.941 -0.2793 -0.1835 -0.2363
    1WF      WF68265  15.357  11.688   8.803 -0.0485 -0.1564  0.0070
    1WF      WF68266  25.530   6.910   9.357  0.0107 -0.2483  0.1143
    1WF      WF68267   6.810  16.342   9.633  0.1040 -0.1726  0.1566
    1WF      WF68268   1.536  20.347   1.151 -0.0366 -0.1037  0.3809
    1WF      WF68269  22.918  27.874   7.700 -0.1600 -0.0968 -0.0543
    1WF      WF68270  11.752  23.898   8.532 -0.3147 -0.2574 -0.2546
    1WF      WF68271  13.424   1.351   6.483  0.0254  0.0130 -0.0633
    1WF      WF68272   4.760  14.635   2.482  0.0812 -0.2164  0.1667
    1WF      WF68273  20.659  28.470   9.231 -0.0067 -0.0942  0.1682
    1WF      WF68274  20.379  24.401   7.021  0.1768 -0.0455  0.0936
    1WF      WF68275   5.438  25.923   9.166  0.1633  0.3270 -0.0614
    1WF      WF68276  26.128   9.270   6.691 -0.0778 -0.3060  0.1927
    1WF      WF68277  24.813  12.977   9.191 -0.0148 -0.2118 -0.1043
    1WF      WF68278  20.982  22.677   2.793 -0.2258 -0.3215  0.1765
    1WF      WF68279   6.336   6.037   0.994 -0.4020  0.0830 -0.0494
    1WF      WF68280  17.680  16.634   2.011 -0.1209 -0.1697  0.2198
    1WF      WF68281  10.163  11.356   5.322 -0.0359  0.1496 -0.1366
    1WF      WF68282  25.299  12.306   1.791 -0.1073  0.0889  0.0103
    1WF      WF68283  17.454   5.828   8.098  0.0787 -0.1484 -0.1187
    1WF      WF68284  12.249  18.823   8.568 -0.0293 -0.1739 -0.2094
    1WF      WF68285  18.794   7.507   2.577  0.2550  0.1176 -0.0545
    1WF      WF68286   2.438  11.234   8.681 -0.2081  0.0535 -0.0616
    1WF      WF68287  12.438   9.402   7.768  0.0954 -0.0195  0.0319
    1WF      WF68288  28.947  18.302   0.547 -0.2832  0.0230  0.1620
    1WF      WF68289  17.079  23.828   1.253  0.1247 -0.0324  0.0907
    1WF      WF68290  20.873  19.914   0.442  0.0575  0.3464 -0.1176
    1WF      WF68291   0.954  14.131   9.213 -0.2286  0.1979 -0.0118
    1WF      WF68292  22.990  10.596   1.236 -0.0452 -0.0400  0.2676
    1WF      WF68293   8.531  18.822   6.284  0.0201 -0.1857 -0.2597
    1WF      WF68294  10.285  10.043   1.517  0.0718 -0.0858 -0.0474
    1WF      WF68295  11.359  11.144   0.152  0.1406 -0.0320 -0.2444
    1WF      WF68296   4.659  11.838   7.669  0.2715  0.0786  0.1468
    1WF      WF68297   0.249  13.570   0.477  0.2893  0.1089 -0.0397
    1WF      WF68298  27.121   2.916   0.367 -0.2459  0.1499  0.1781
    1WF      WF68299   7.000  27.434   5.909 -0.0036 -0.0021  0.2090
    1WF      WF68300  29.533  19.779   0.368  0.0934 -0.2024 -0.1442
    1WF      WF68301  19.068  26.398   0.376 -0.1116  0.3516  0.1223
    1WF      WF68302  13.408   6.605   1.865  0.1241 -0.1942 -0.2167
    1WF      WF68303  23.566  14.234   0.569  0.0600 -0.1617  0.0554
    1WF      WF68304  19.159  14.216   1.048  0.0422  0.1871  0.0638
    1WF      WF68305  14.410  15.325   0.723 -0.0575 -0.2208 -0.2278
    1WF      WF68306  21.403  15.223   8.808  0.2156  0.1819 -0.1896
    1WF      WF68307   5.674  28.007   2.048 -0.2413 -0.1017 -0.1120
    1WF      WF68308   8.002  25.450   0.240  0.1456  0.0056 -0.1220
    1WF      WF68309  25.251  23.634   2.868  0.2259  0.0557 -0.0222
    1WF      WF68310   3.784  26.536   0.080  0.0965 -0.1473  0.0450
    1WF      WF68311  12.160   6.929   1.252 -0.1108  0.3563  0.1592
    1WF      WF68312  19.203   0.696   9.441 -0.0206  0.2366  0.0987
    1WF      WF68313   4.698   2.548   6.765 -0.2801  0.1184  0.0064
    1WF      WF68314   2.616   3.141   7.494 -0.0269 -0.0856 -0.2645
    1WF      WF68315   2.644  22.466   7.948 -0.1228 -0.0416  0.0982
    1WF      WF68316  10.171   9.815   8.660 -0.3022 -0.1485  0.1081
    1WF      WF68317  24.742   0.170   1.882  0.0325  0.1616  0.2603
    1WF      WF68318  13.344  12.599   8.181  0.0172  0.0168  0.1738
    1WF      WF68319   6.983  29.572   7.247 -0.2806 -0.1760 -0.0257
    1WF      WF68320   4.338   8.894   0.374 -0.0062  0.1810  0.0388
    1WF      WF68321  28.171  25.720   1.109 -0.0332 -0.2945  0.1004
    1WF      WF68322   2.742   3.835   0.277 -0.0951 -0.0305 -0.0423
    1WF      WF68323  10.941  29.556   1.363 -0.0980  0.1859  0.2431
    1WF      WF68324  29.490  16.206   1.139 -0.0424 -0.2185 -0.1811
    1WF      WF68325   2.497  16.985   0.068 -0.0391 -0.1847  0.1770
    1WF      WF68326  18.212  19.575   8.548 -0.0078  0.0402  0.0578
    1WF      WF68327  27.046  26.788   9.213 -0.2071  0.2711  0.0074
    1WF      WF68328   0.102  20.541   2.384 -0.4086  0.0131 -0.2359
    1WF      WF68329  11.154  26.080   1.901  0.2009  0.0473 -0.4510
    1WF      WF68330   1.743  22.266   1.209 -0.1340  0.1935 -0.0676
    1WF      WF68331  16.854   3.149   1.811  0.0242 -0.0633  0.3328
    1WF      WF68332  24.853   0.576   2.177 -0.0936 -0.1376  0.0997
    1WF      WF68333   2.446  15.503   1.406  0.1100  0.0194  0.1114
    1WF      WF68334  21.808  25.120   9.437  0.1821  0.1733  0.0330
    1WF      WF68335  13.801  23.545   9.025  0.1009  0.0954 -0.0804
    1WF      WF68336  15.192   5.288   9.536 -0.0664  0.0567 -0.3176
    1WF      WF68337   7.920  20.290   2.249 -0.0215  0.5326 -0.2726
    1WF      WF68338  23.979  15.566   0.856  0.2329  0.1410 -0.0290
    1WF      WF68339  12.081  18.018   6.715 -0.2476  0.1095 -0.1079
    1WF      WF68340  23.199  21.135   0.586  0.0266  0.0989  0.1731
    1WF      WF68341  11.294  27.088   9.638 -0.0007 -0.0104  0.0054
    1WF      WF68342  18.039  27.979   0.537 -0.1441 -0.1040 -0.0882
    1WF      WF68343  21.151  13.263   1.261  0.0355 -0.2128 -0.1646
    1WF      WF68344   1.721  11.023   7.375 -0.1396 -0.1262 -0.1859
    1WF      WF68345   2.084  28.373   6.479  0.1581 -0.4543 -0.1894
    1WF      WF68346  11.764  24.151   1.874 -0.2778  0.0777 -0.1329
    1WF      WF68347  21.880  23.164   3.183 -0.0695 -0.0200  0.0166
    1WF      WF68348  24.694   2.875   8.529 -0.0322  0.2575  0.1798
    1WF      WF68349   6.109   3.434   8.419 -0.0586 -0.1173 -0.0136
    1WF      WF68350   4.658   9.289   0.389 -0.1920 -0.3135  0.0672
    1WF      WF68351  23.556   7.508   0.502  0.1938 -0.1241 -0.1192
    1WF      WF68352  15.413   0.045   8.038  0.1618 -0.0239  0.3028
    1WF      WF68353  26.503   2.129   7.327 -0.0529  0.0398  0.3590
    1WF      WF68354  17.687   1.671   3.436 -0.2296  0.0177 -0.0066
    1WF      WF68355   2.206   7.247   6.791  0.1147 -0.0753  0.3192
    1WF      WF68356   1.461  16.523   9.233  0.1110  0.0840 -0.2812
    1WF      WF68357  13.150   1.981   0.922  0.0227 -0.1295  0.0693
    1WF      WF68358  13.505  19.505   6.853  0.0536  0.2786  0.1744
    1WF      WF68359   7.445   7.585   9.438 -0.0468  0.2237 -0.1290
    1WF      WF68360  15.202   9.740   8.741  0.2656  0.1260  0.0391
    1WF      WF68361   8.637  13.151   1.955  0.1071  0.0085 -0.3252
    1WF      WF68362   7.544   1.796   6.855  0.3478 -0.2875  0.3612
    1WF      WF68363   8.709  22.382   7.836  0.0184  0.3345  0.1725
    1WF      WF68364  21.286  18.727   9.407 -0.2348  0.2258  0.0019
    1WF      WF68365  23.411   5.229   0.246 -0.5038  0.0301  0.0885
    1WF      WF68366   8.825   0.219   8.778 -0.0737  0.0381  0.1433
    1WF      WF68367   1.886   2.042   2.093 -0.0563  0.1692 -0.4553
    1WF      WF68368  25.233  22.460   2.567  0.0007  0.1803  0.2632
    1WF      WF68369   2.747  22.697   9.186  0.0565 -0.0474 -0.2606
    1WF      WF68370  23.146   6.538   1.547 -0.1257 -0.2002 -0.2933
    1WF      WF68371  14.696  12.605   1.486  0.2336 -0.1606 -0.0620
    1WF      WF68372  12.789  10.385   1.630 -0.0485 -0.1015  0.2941
    1WF      WF68373  24.230   4.090   8.699 -0.1366 -0.0286  0.0673
    1WF      WF68374  19.862  12.721   2.346 -0.0181  0.0237  0.0094
    1WF      WF68375   5.907  14.306   7.516 -0.1686  0.1689  0.0067
    1WF      WF68376  16.231  20.991   2.066 -0.0743 -0.0045 -0.2282
    1WF      WF68377   3.331   2.937   2.289  0.1170 -0.2268  0.2506
    1WF      WF68378  12.352  23.131   8.596 -0.0338  0.1587 -0.0793
    1WF      WF68379   1.260  27.395   7.474  0.1178  0.0826  0.3027
    1WF      WF68380  18.399  18.313   0.710  0.0066 -0.1992 -0.0115
    1WF      WF68381   7.156  12.336   8.819 -0.1422  0.2354  0.0962
    1WF      WF68382   5.188  18.078   6.456 -0.0188 -0.0172  0.1068
    1WF      WF68383   3.418  12.937   9.384 -0.0863 -0.0022 -0.0488
    1WF      WF68384  27.473   1.009   6.740  0.1532  0.0862  0.1457
    1WF      WF68385  19.316  26.113   0.711 -0.0846  0.0534 -0.1805
    1WF      WF68386   1.994  17.916   8.666  0.0544 -0.1980 -0.1263
    1WF      WF68387  23.567  20.351   3.422  0.2107  0.3115 -0.2101
    1WF      WF68388  29.530  24.872   7.450  0.0122 -0.0733 -0.0226
    1WF      WF68389  11.764  12.715   0.823 -0.1455  0.0138  0.2460
    1WF      WF68390   0.891   0.993   0.459  0.3631  0.0707 -0.0125
    1WF      WF68391   2.098   4.117   7.601  0.0382 -0.0419  0.0744
    1WF      WF68392  22.234  26.248   8.693  0.0818 -0.3675 -0.0873
    1WF      WF68393  18.510  12.535   0.301 -0.1178 -0.0332 -0.2006
    1WF      WF68394   4.156  27.579   1.692  0.0078 -0.3059  0.0303
    1WF      WF68395  13.316  10.806   0.572  0.5249  0.0200 -0.0697
    1WF      WF68396  27.496  13.884   8.676  0.1975 -0.0312 -0.2775
    1WF      WF68397  10.257  22.663   7.777  0.0309 -0.3235  0.0332
    1WF      WF68398  15.353   1.623   1.793 -0.1014 -0.1549  0.0243
    1WF      WF68399   3.752   0.432   6.137  0.2871 -0.2017 -0.1567
    1WF      WF68400  13.319  21.722   0.148  0.1595  0.4337  0.4396
    1WF      WF68401  28.263   7.197   8.554  0.0525 -0.0778 -0.1406
    1WF      WF68402   6.682   8.319   6.688 -0.3575  0.1909  0.0640
    1WF      WF68403  26.025  24.235   1.927  0.1218 -0.1601  0.3725
    1WF      WF68404  28.554  24.154   3.436  0.3392 -0.0728 -0.3008
    1WF      WF68405   4.880   8.668   6.284  0.0927 -0.3073  0.0950
    1WF      WF68406  11.871   7.442   8.059  0.1342  0.0709  0.0034
    1WF      WF68407  17.615  28.414   1.719  0.2435 -0.0456 -0.0267
    1WF      WF68408   0.417   3.414   7.680  0.0151  0.1182 -0.1760
    1WF      WF68409  28.690  18.579   0.237 -0.0662  0.0158 -0.1502
    1WF      WF68410   9.796  21.800   7.611 -0.0045 -0.0709  0.0404
    1WF      WF68411   9.899   3.687   8.598 -0.0480 -0.1677  0.1761
    1WF      WF68412   0.909  25.369   1.991 -0.1268 -0.3698  0.1598
    1WF      WF68413   2.414  25.285   8.680  0.1808 -0.1969  0.0431
    1WF      WF68414  11.999  11.342   1.336 -0.4589 -0.1451 -0.0858
    1WF      WF68415  19.104   2.462   1.825 -0.0529  0.0429  0.3842
    1WF      WF68416   8.829   0.055   9.262 -0.2242 -0.0350  0.0871
    1WF      WF68417   8.733  17.663   1.389 -0.0397  0.1408 -0.1026
    1WF      WF68418  17.290  22.630   8.886 -0.2160  0.1702 -0.0828
    1WF      WF68419  14.663  13.421   7.874 -0.1504 -0.0447  0.0397
    1WF      WF68420   3.710  29.115   7.024  0.2759 -0.0635  0.0504
    1WF      WF68421   9.345  15.378   0.628 -0.1067  0.0147 -0.0793
    1WF      WF68422   4.637  27.411   8.361  0.0864 -0.2157  0.2446
    1WF      WF68423   5.355  11.117   1.830 -0.0891  0.2256 -0.1445
    1WF      WF68424   8.970  19.459   0.366  0.1856  0.1177  0.2451
    1WF      WF68425  14.815  26.896   9.321 -0.1734 -0.0166 -0.2203
    1WF      WF68426  19.983  22.716   9.284 -0.0674 -0.0485 -0.0804
    1WF      WF68427   9.348  16.773   9.186 -0.1838  0.3079  0.2085
    1WF      WF68428  21.883   2.831   8.172 -0.2767  0.1377 -0.2677
    1WF      WF68429   8.892   2.789   8.917  0.1619  0.4105 -0.3687
    1WF      WF68430  21.707   1.837   9.077 -0.2440  0.1452  0.2679
    1WF      WF68431  28.076   0.555   0.660 -0.1029 -0.1950 -0.2291
    1WF      WF68432  17.106  22.459   2.435 -0.1417 -0.1265  0.1471
    1WF      WF68433   2.778  26.844   1.996 -0.2225 -0.0770  0.3403
    1WF      WF68434  13.375  24.644   2.914 -0.0072  0.0743 -0.1098
    1WF      WF68435  27.139   1.940   9.387  0.2343  0.2310  0.1816
    1WF      WF68436  24.198   9.805   7.124  0.0571 -0.0693 -0.2458
    1WF      WF68437   1.827  16.364   9.588  0.4896  0.4348  0.0759
    1WF      WF68438   3.734  12.892   8.367  0.0983 -0.0847  0.2882
    1WF      WF68439   4.911  15.957   9.187  0.0983  0.0510 -0.0310
    1WF      WF68440  17.566   7.567   7.708 -0.0769  0.1513  0.1397
    1WF      WF68441   4.192   9.878   8.734 -0.0734 -0.1574 -0.2401
    1WF      WF68442  10.418   1.313   8.235 -0.2790  0.2199  0.1667
    1WF      WF68443  15.478   9.532   9.163 -0.0689  0.0383  0.0442
    1WF      WF68444   7.793   5.547   9.568 -0.0261 -0.7198  0.1027
    1WF      WF68445   3.260  26.852   1.858  0.0652  0.1088 -0.1510
    1WF      WF68446  27.032  28.572   1.088  0.2994  0.0655 -0.1710
    1WF      WF68447  17.210  29.259   6.759  0.0189 -0.3733  0.0488
    1WF      WF68448   5.583  11.452   6.272  0.5081 -0.0764 -0.1525
    1WF      WF68449  23.945   7.892   1.659  0.0660  0.1354  0.0774
    1WF      WF68450  10.870  20.323   8.106 -0.2513  0.0438 -0.2382
    1WF      WF68451  26.979   4.208   8.651  0.1547 -0.0151 -0.0632
    1WF      WF68452  16.600  20.999   2.452  0.0059 -0.0980 -0.0441
    1WF      WF68453   1.250  25.063   1.741  0.1876 -0.3857  0.0683
    1WF      WF68454   7.906  15.736   5.720 -0.0072  0.0488 -0.1222
    1WF      WF68455   3.510   7.541   5.443 -0.2373 -0.0199 -0.1148
    1WF      WF68456  26.831   0.300   8.502  0.1450  0.0610  0.2350
    1WF      WF68457  26.268  27.236   2.722 -0.0640  0.1542 -0.3605
    1WF      WF68458   6.295   9.067   9.239 -0.0154  0.2654 -0.2305
    1WF      WF68459  14.833   2.954   9.300  0.1150  0.3222 -0.2464
    1WF      WF68460  13.306  26.031   7.745  0.0519  0.1255  0.1253
    1WF      WF68461   4.066   0.456   7.983  0.0553  0.3153 -0.1340
    1WF      WF68462  21.267  19.367   1.852  0.1578  0.1493 -0.2695
    1WF      WF68463  25.605   7.326   9.021 -0.1367 -0.1393  0.2516
    1WF      WF68464   6.297  27.574   7.568 -0.3667  0.1494 -0.0627
    1WF      WF68465   5.742  10.386   9.486 -0.1252  0.0838  0.0693
    1WF      WF68466  26.992   8.055   0.369  0.1581  0.2089  0.2070
    1WF      WF68467  23.701  19.516   7.364 -0.1525 -0.2016 -0.3881
    1WF      WF68468  20.017   8.264   9.439  0.1669 -0.0466 -0.1135
    1WF      WF68469   7.691   2.810   0.171  0.0627 -0.0495 -0.1050
    1WF      WF68470   6.881   6.935   0.595  0.0370  0.2304  0.2264
    1WF      WF68471  17.487  23.171   7.796 -0.1263  0.0778 -0.0423
    1WF      WF68472   1.358  20.320   7.121  0.1758  0.0295  0.2696
    1WF      WF68473  14.079  23.817   0.333 -0.0849  0.3344 -0.2120
    1WF      WF68474  11.353  19.216   7.591 -0.1346 -0.0260 -0.1989
    1WF      WF68475  13.257  16.437   2.624 -0.0124 -0.0550 -0.1449
    1WF      WF68476  29.155   0.734   8.662 -0.2115 -0.0929 -0.0594
    1WF      WF68477  28.598  13.820   0.265 -0.1385 -0.0297 -0.0906
    1WF      WF68478  27.943  19.527   2.227  0.2569  0.1757  0.1656
    1WF      WF68479   0.511  29.164   8.444  0.0353 -0.0069  0.2024
    1WF      WF68480  24.550  23.032   2.390  0.1456 -0.1909  0.1674
    1WF      WF68481   7.829   6.527   7.953 -0.1474 -0.2343  0.3682
    1WF      WF68482  23.166  16.813   0.139 -0.1645  0.3655 -0.3650
    1WF      WF68483   5.534  16.334   8.356 -0.2397  0.1725  0.5712
    1WF      WF68484  22.947  27.499   1.594 -0.0742 -0.1044  0.2882
    1WF      WF68485  25.883  25.863   6.916 -0.1019  0.0901 -0.1960
    1WF      WF68486   9.096  26.416   2.396 -0.3168  0.3219 -0.1480
    1WF      WF68487  14.096   9.568   8.363 -0.2630 -0.1712 -0.1364
    1WF      WF68488   8.803  21.913   1.666 -0.2528  0.3318  0.0951
    1WF      WF68489  15.602   3.402   6.008 -0.2358  0.1613 -0.0768
    1WF      WF68490   5.124  21.385   1.406  0.3267  0.1542  0.2171
    1WF      WF68491  15.518   1.263   1.241  0.1589 -0.0868 -0.2250
    1WF      WF68492   9.019  11.700   7.938 -0.1031 -0.0369 -0.0929
    1WF      WF68493  10.757  29.263   9.377  0.0166  0.1660 -0.1269
    1WF      WF68494  28.001  28.773   1.529 -0.0750 -0.0646 -0.1941
    1WF      WF68495  22.764  21.334   0.414  0.3450  0.0715  0.2504
    1WF      WF68496   6.991  18.696   8.765 -0.3148  0.0610 -0.0895
    1WF      WF68497  20.634  20.179   0.118  0.0548 -0.0575  0.0169
    1WF      WF68498   6.399  13.764   9.226  0.0494  0.0602  0.1026
    1WF      WF68499  14.638  16.331   7.891 -0.0726  0.3203  0.1805
    1WF      WF68500   7.581   6.238   2.027 -0.3209 -0.0776  0.2588
    1WF      WF68501   6.255  16.108   0.831  0.1998  0.3700 -0.1944
    1WF      WF68502  16.965  16.880   0.151 -0.0297  0.3128  0.0166
    1WF      WF68503   9.868  26.451   6.443 -0.2394 -0.0551  0.1120
    1WF      WF68504  13.037  29.297   9.013 -0.2206 -0.0304  0.1458
    1WF      WF68505  17.951  16.542   2.401 -0.0789  0.1324 -0.0672
    1WF      WF68506   3.664   6.652   0.655 -0.2011  0.2610  0.1306
    1WF      WF68507  20.760   5.841   8.798 -0.0798 -0.0838 -0.0469
    1WF      WF68508   7.973  23.517   0.051  0.2704  0.0519  0.1152
    1WF      WF68509   6.733   5.323   9.258 -0.0250 -0.1918 -0.0760
    1WF      WF68510   4.590  27.420   8.843 -0.2149 -0.0899 -0.2672
    1WF      WF68511  23.429  16.403   8.922  0.0270  0.0897  0.2915
    1WF      WF68512  25.080  29.131   7.583 -0.0371 -0.1391 -0.0449
    1WF      WF68513  27.528  18.275   0.122  0.0087 -0.2751 -0.0702
    1WF      WF68514  17.598  22.508   8.368 -0.1052  0.2356 -0.0374
    1WF      WF68515  12.975  24.581   9.482  0.2872  0.0636 -0.2127
    1WF      WF68516  15.961   0.296   0.949 -0.1508  0.2915  0.0718
    1WF      WF68517   2.957  17.163   0.160 -0.0978  0.2679  0.2211
    1WF      WF68518  17.738  10.082   0.236 -0.1941  0.0288 -0.0082
    1WF      WF68519  24.488  26.072   2.963  0.0223  0.1859 -0.1740
    1WF      WF68520  14.825  28.036   0.872 -0.1168 -0.0855  0.6196
    1WF      WF68521  22.754  10.726   8.770 -0.2848 -0.2381 -0.1400
    1WF      WF68522  20.627  14.277   1.011  0.2479  0.0710  0.1402
    1WF      WF68523  29.036  17.365   0.921 -0.0971 -0.0742 -0.1980
    1WF      WF68524  15.296  23.162   9.592 -0.2940  0.1358  0.0454
    1WF      WF68525  28.093  26.609   8.936  0.1555 -0.1237  0.0565
    1WF      WF68526  29.259  21.817   1.702 -0.0816 -0.2824 -0.0432
    1WF      WF68527  28.350  16.494   1.212 -0.3589 -0.1233 -0.0907
    1WF      WF68528  21.750  22.302   2.194  0.0818 -0.2960  0.3385
    1WF      WF68529  11.635   0.496   0.295 -0.4762 -0.2851  0.0405
    1WF      WF68530  11.014   1.057   9.237 -0.0862 -0.0315 -0.3005
    1WF      WF68531  10.246  10.519   1.322  0.0966 -0.0085  0.1509
    1WF      WF68532  18.703  23.270   1.249 -0.0098  0.0476  0.0691
    1WF      WF68533  17.864  22.383   6.482  0.1197  0.2379 -0.0487
    1WF      WF68534  25.482  28.241   0.140  0.0566  0.2413 -0.4396
    1WF      WF68535  10.566  17.654   9.564  0.0709 -0.1288  0.0684
    1WF      WF68536  12.102   6.212   6.930 -0.1911  0.2507 -0.0384
    1WF      WF68537   6.071   6.554   6.750  0.1395 -0.0247 -0.4118
    1WF      WF68538   9.414  14.655   9.646 -0.3067 -0.0651 -0.4214
    1WF      WF68539  29.511  24.608   0.945  0.2954 -0.2954 -0.1311
    1WF      WF68540  27.580  23.477   1.535 -0.3637  0.0565  0.0785
    1WF      WF68541  23.662   6.430   0.091 -0.1087 -0.0132 -0.0643
    1WF      WF68542  16.643   1.213   0.380  0.0459  0.0702  0.0220
    1WF      WF68543  12.165   6.120   8.129 -0.1123 -0.2480  0.3844
    1WF      WF68544  16.909   0.778   0.474 -0.3894 -0.0955  0.0888
    1WF      WF68545   0.428   4.117   8.710  0.0543 -0.3494 -0.2001
    1WF      WF68546  18.350  27.592   2.512 -0.1703 -0.0844 -0.2107
    1WF      WF68547  20.276  10.173   9.037  0.1082  0.2287  0.0213
    1WF      WF68548  24.920  28.601   7.540 -0.0450  0.0307 -0.1195
    1WF      WF68549  15.873   5.789   8.751  0.0721 -0.2564  0.0149
    1WF      WF68550  12.102  20.396   7.858  0.1833 -0.1442 -0.1221
    1WF      WF68551   0.508   0.277   8.405 -0.1073  0.3288 -0.2503
    1WF      WF68552   7.714  12.973   8.448 -0.1690 -0.2399  0.0934
    1WF      WF68553  19.742  28.812   2.503  0.1918 -0.0256  0.1814
    1WF      WF68554   9.249   6.427   7.604  0.1605 -0.1774  0.1181
    1WF      WF68555  19.988  24.770   3.853 -0.0488 -0.2155 -0.2752
    1WF      WF68556  17.527   1.922   7.781  0.0435 -0.0793 -0.2575
    1WF      WF68557   9.105  23.198   1.383  0.0974  0.1265  0.1037
    1WF      WF68558  12.290  13.549   9.524  0.1386 -0.1325 -0.1250
    1WF      WF68559   0.487   0.749   0.598 -0.1480 -0.2232  0.1549
    1WF      WF68560   4.262  12.828   5.937  0.0296  0.0169 -0.2892
    1WF      WF68561  26.573  20.915   6.862 -0.0809 -0.2722  0.1362
    1WF      WF68562  16.322   7.496   8.911  0.0546 -0.1475 -0.0972
    1WF      WF68563  23.300  16.716   9.334  0.1718 -0.2966 -0.0960
    1WF      WF68564   7.295   4.714   1.129  0.2112  0.3176  0.0375
    1WF      WF68565  18.529  18.605   0.279  0.0413 -0.2647  0.1288
    1WF      WF68566  16.677  11.188   1.374 -0.3652  0.0281  0.1887
    1WF      WF68567  21.441   9.174   8.010  0.0950 -0.0913  0.1490
    1WF      WF68568  23.621  10.066   9.410  0.0962 -0.1046  0.0170
    1WF      WF68569   4.905   4.887   9.465  0.0354  0.1566  0.0016
    1WF      WF68570  10.689  23.557   8.935 -0.3295  0.1265 -0.1111
    1WF      WF68571  19.722  17.236   8.940 -0.1219 -0.0649 -0.0688
    1WF      WF68572  14.265  17.102   7.059 -0.0020 -0.1872  0.0380
    1WF      WF68573  26.147  19.653   7.718  0.0972  0.0225 -0.3923
    1WF      WF68574   2.352   7.503   1.814  0.2100  0.2262 -0.1890
    1WF      WF68575   8.436  26.008   1.420  0.1638 -0.0293 -0.3271
    1WF      WF68576  21.804  16.268   9.026 -0.2627 -0.0977  0.2617
    1WF      WF68577  17.901   7.943   0.285 -0.2861 -0.2474  0.3486
    1WF      WF68578  20.786  11.735   8.982 -0.0932  0.1401 -0.1223
    1WF      WF68579   8.972  16.920   8.824 -0.2152  0.0118  0.1167
    1WF      WF68580  22.753   1.950   9.364 -0.3136  0.3308 -0.1142
    1WF      WF68581  18.906   1.628   8.466 -0.0501 -0.0855 -0.1379
    1WF      WF68582  18.106  20.411   0.612  0.0595  0.0800  0.4239
    1WF      WF68583  20.995  23.059   0.837 -0.2249 -0.2159 -0.1533
    1WF      WF68584  26.391   3.955   9.270 -0.0053 -0.2369  0.0247
    1WF      WF68585  12.100  21.772   8.683 -0.2960  0.1760 -0.1757
    1WF      WF68586   5.730  24.389   2.413  0.2149 -0.0251  0.0678
    1WF      WF68587   1.899  29.426   0.946 -0.2202 -0.0112 -0.1354
    1WF      WF68588   2.457  22.037   0.508  0.0811 -0.0874 -0.1071
    1WF      WF68589  19.972   3.000   8.988  0.1396 -0.1171 -0.1673
    1WF      WF68590  21.176   6.143   0.770  0.1788 -0.1487  0.2086
    1WF      WF68591  16.129  22.380   6.607  0.3971 -0.2440 -0.2089
    1WF      WF68592  21.983  19.968   0.897  0.0771  0.4118 -0.0412
    1WF      WF68593   2.757   3.640   8.484 -0.0656  0.1598  0.2829
    1WF      WF68594  10.463  16.553   9.619  0.1259  0.0576 -0.1010
    1WF      WF68595  20.837   1.845   3.691 -0.0060 -0.1353 -0.1235
    1WF      WF68596  27.564   5.150   1.122 -0.0610 -0.2075  0.1311
    1WF      WF68597  28.038  13.691   0.267 -0.0974 -0.0236  0.1357
    1WF      WF68598  17.091  23.425   8.032 -0.0699 -0.2648 -0.2129
    1WF      WF68599   1.933  25.840   0.127 -0.1412  0.0950 -0.0054
    1WF      WF68600  20.673   2.853   6.614  0.0793  0.1600 -0.0626
    1WF      WF68601  24.160  18.153   0.390 -0.0615 -0.0114  0.0205
    1WF      WF68602   1.519  21.935   1.547  0.0945 -0.5768  0.0633
    1WF      WF68603   2.441  19.427   8.771  0.2086  0.0582  0.1081
    1WF      WF68604   3.020  29.296   1.271  0.2960  0.1743 -0.3710
    1WF      WF68605  19.823  23.207   0.677 -0.1625 -0.0015  0.1034
    1WF      WF68606   1.207  15.593   1.189 -0.1014 -0.0923 -0.0388
    1WF      WF68607  11.059  29.596   8.047  0.0848 -0.1286 -0.0622
    1WF      WF68608  18.430  17.222   1.137  0.0273 -0.0027  0.0639
    1WF      WF68609   2.780  10.030   7.674  0.2713 -0.1937 -0.0563
    1WF      WF68610  21.167  28.049   1.942 -0.1081 -0.3165 -0.0566
    1WF      WF68611   7.762  15.491   6.412  0.3112 -0.0058 -0.0963
    1WF      WF68612   1.795   6.869   5.635  0.1083  0.2907  0.3517
    1WF      WF68613  12.523  22.117   8.648 -0.1976 -0.0005  0.1088
    1WF      WF68614  25.095  28.123   7.330  0.0290  0.0386 -0.1238
    1WF      WF68615   6.173  15.428   8.629 -0.0650  0.2587 -0.3334
    1WF      WF68616  15.561  23.228   9.152  0.1517 -0.0775 -0.1415
    1WF      WF68617  16.320  19.406   0.332  0.1694  0.0489 -0.0237
    1WF      WF68618  12.709  15.269   8.063 -0.0136 -0.2438  0.1269
    1WF      WF68619  28.910  23.321   2.196 -0.1287  0.2709 -0.0864
    1WF      WF68620  28.769   0.017   9.153 -0.0449  0.0267 -0.0465
    1WF      WF68621   5.207  16.858   8.219  0.1121  0.0604  0.0164
    1WF      WF68622  20.098   8.109   8.213  0.1577  0.4202 -0.3040
    1WF      WF68623  15.737  24.600   1.121  0.0962 -0.0999 -0.1763
    1WF      WF68624   8.055   4.563   7.732  0.2859  0.0261 -0.1010
    1WF      WF68625   6.978   4.389   9.174  0.0106  0.0202  0.0581
    1WF      WF68626  21.364  21.266   2.689  0.3796  0.1883 -0.2910
    1WF      WF68627  13.771   3.103   8.035 -0.1228 -0.3682 -0.0208
    1WF      WF68628   4.991   9.028   7.450  0.1043  0.0191  0.2659
    1WF      WF68629  15.527  28.244   1.432  0.1111 -0.1234 -0.0810
    1WF      WF68630  27.442  19.103   3.749 -0.0014 -0.4308 -0.1556
    1WF      WF68631   7.403  13.441   0.194  0.1010  0.0350  0.0271
    1WF      WF68632  23.962  22.091   1.981 -0.2059  0.0405  0.1387
    1WF      WF68633  10.883  25.727   0.620  0.0929  0.1113  0.1765
    1WF      WF68634  18.333  29.056   8.504 -0.4593 -0.1499 -0.4020
    1WF      WF68635  11.742   1.351   2.758  0.3381  0.4974  0.3053
    1WF      WF68636  28.756  16.998   0.595 -0.2434 -0.3052  0.0636
    1WF      WF68637  26.603  28.628   1.379 -0.2318  0.1135  0.0063
    1WF      WF68638  18.244  24.813   2.699  0.1245 -0.0377  0.0380
    1WF      WF68639  10.191  21.660   8.478  0.3475 -0.0704 -0.1932
    1WF      WF68640  14.398  17.879   9.357 -0.2310 -0.0337  0.0081
    1WF      WF68641  12.894   3.399   8.586 -0.2827 -0.0071  0.3582
    1WF      WF68642   1.381  26.926   7.460 -0.1942 -0.0356 -0.1631
    1WF      WF68643   6.386   8.197   5.458 -0.0341 -0.3404  0.1956
    1WF      WF68644   0.528   5.117   8.070 -0.1361  0.4404  0.0043
    1WF      WF68645  19.197  25.715   1.645  0.1925 -0.0637  0.3648
    1WF      WF68646  20.347   0.110   0.285 -0.0523  0.1758 -0.3855
    1WF      WF68647  10.567   1.062   7.755  0.0662  0.1758  0.1955
    1WF      WF68648  21.056  24.204   1.864  0.0445 -0.0084  0.1541
    1WF      WF68649  13.994  27.442   7.880  0.0356  0.2085  0.2223
    1WF      WF68650   5.201  24.095   1.302 -0.1942 -0.2250 -0.2079
    1WF      WF68651   2.462  17.563   1.404 -0.4813  0.0872  0.3060
    1WF      WF68652   9.280   5.894   8.367  0.0492  0.2376  0.0534
    1WF      WF68653   4.146  14.352   0.315 -0.1235 -0.1551  0.1497
    1WF      WF68654  18.043  28.762   8.275  0.0624  0.3191  0.0994
    1WF      WF68655  28.174  27.373   6.762  0.0846  0.0436 -0.0628
    1WF      WF68656   5.461  14.082   7.548 -0.2846  0.0518  0.1557
    1WF      WF68657  25.408  15.561   8.317  0.0938  0.0606  0.1083
    1WF      WF68658   9.792  24.626   0.809 -0.0130 -0.2456 -0.0569
    1WF      WF68659   2.473  16.906   9.183 -0.4437 -0.3504  0.1665
    1WF      WF68660  10.290  27.532   1.700  0.1987  0.0787  0.2244
    1WF      WF68661  15.303  21.548   0.927  0.1841 -0.0405  0.1331
    1WF      WF68662  24.867   1.860   0.116 -0.0436 -0.1466  0.1192
    1WF      WF68663  20.695  20.896   7.755  0.3295  0.0342  0.0494
    1WF      WF68664  17.211   0.713   0.893 -0.0496 -0.1236 -0.3694
    1WF      WF68665   9.017  28.760   2.629  0.1642 -0.1358 -0.1715
    1WF      WF68666  16.539   1.614   0.081 -0.1769  0.1568  0.0380
    1WF      WF68667  25.815  28.690   2.800  0.1292  0.0344  0.1552
    1WF      WF68668  20.220  18.112   7.242 -0.0750  0.1077  0.0192
    1WF      WF68669  23.750  14.080   0.988 -0.2211  0.0451  0.1221
    1WF      WF68670   0.838  18.268   1.749 -0.3430  0.0662 -0.1837
    1WF      WF68671  21.531  18.495   7.704  0.0837  0.1543  0.0355
    1WF      WF68672  13.777   8.720   9.040 -0.1175 -0.2487 -0.0664
    1WF      WF68673   9.885   4.937   0.937 -0.1770  0.2516 -0.0229
    1WF      WF68674   2.031   5.295   9.187 -0.2158  0.0495  0.1487
    1WF      WF68675  27.591   5.975   0.570  0.0470  0.3289 -0.3189
    1WF      WF68676  11.874  15.221   2.460  0.0348  0.0171  0.3900
    1WF      WF68677  21.772  19.799   2.882  0.0093 -0.2738 -0.0450
    1WF      WF68678   2.154   7.289   1.425 -0.0041 -0.0944 -0.2888
    1WF      WF68679  15.385  27.542   9.535  0.1127  0.2630  0.0206
    1WF      WF68680   3.096  15.726   2.156 -0.1628 -0.2498 -0.2945
    1WF      WF68681   9.262  11.626   8.769  0.1069  0.1252  0.1394
    1WF      WF68682  20.548  24.217   2.185  0.3861 -0.1423  0.0038
    1WF      WF68683  29.229  20.049   9.071  0.0278 -0.0644  0.1604
    1WF      WF68684  24.529  13.782   1.332  0.0768  0.2174  0.2519
    1WF      WF68685  15.516  10.195   0.631 -0.0030 -0.1498 -0.1614
    1WF      WF68686   4.890  28.893   1.609 -0.1310  0.0230  0.0085
    1WF      WF68687   7.059  26.827   9.556 -0.4744  0.0597  0.0712
    1WF      WF68688   1.902   4.476   7.370 -0.2869  0.0425 -0.1925
    1WF      WF68689  10.556  10.199   1.096  0.1248 -0.2869 -0.3102
    1WF      WF68690  14.404   1.191   7.160 -0.0304 -0.0743  0.2371
    1WF      WF68691  16.399   9.240   0.879  0.0724  0.0851  0.0932
    1WF      WF68692  21.858  12.135   8.567 -0.0807  0.2626 -0.1261
    1WF      WF68693  14.367  10.165   1.747 -0.0696  0.1528 -0.1350
    1WF      WF68694  12.946  14.890   6.545 -0.0510 -0.1415 -0.0993
    1WF      WF68695  10.044   1.626   1.273 -0.1940  0.4724  0.1768
    1WF      WF68696  23.003  26.547   1.961  0.2791  0.0102  0.1702
    1WF      WF68697  19.044  20.075   0.089  0.2947 -0.0895  0.1903
    1WF      WF68698   5.741   2.353   9.058  0.2428  0.2063 -0.1651
    1WF      WF68699  23.453  18.151   8.601 -0.3476 -0.0503 -0.0988
    1WF      WF68700  20.989  27.710   2.255 -0.2737  0.0629  0.3034
    1WF      WF68701  26.236  12.064   7.881 -0.0928 -0.0125 -0.0332
    1WF      WF68702  20.672  26.532   4.927  0.1279 -0.2220  0.1099
    1WF      WF68703   0.907   5.089   0.548  0.1031  0.0823 -0.2307
    1WF      WF68704  16.008  28.375   8.761  0.0461  0.1484  0.4068
    1WF      WF68705  19.422  19.400   0.650  0.0971  0.3561 -0.1061
    1WF      WF68706  19.765  18.478   1.919 -0.2272  0.0204 -0.0887
    1WF      WF68707   3.150  26.247   3.490 -0.1607  0.0526  0.1729
    1WF      WF68708  13.805   4.852   2.671 -0.0141 -0.3634  0.0838
    1WF      WF68709   2.486   4.506   0.937 -0.2659  0.0815 -0.0915
    1WF      WF68710   0.734  16.252   9.185 -0.3567 -0.1129  0.0198
    1WF      WF68711  14.686   2.539   9.627 -0.2067  0.2202 -0.2229
    1WF      WF68712  15.014  16.377   1.533  0.1366 -0.0348  0.3732
    1WF      WF68713  26.670   1.925   9.103 -0.0056 -0.2875 -0.4473
    1WF      WF68714  15.012   4.061   1.410  0.0151 -0.1531  0.0572
    1WF      WF68715  10.646  19.873   2.494 -0.0331 -0.1252  0.5116
    1WF      WF68716  12.229  18.897   6.184 -0.1510  0.3268  0.2921
    1WF      WF68717   4.147  24.393   2.357  0.0474 -0.2508 -0.1973
    1WF      WF68718  13.773  11.126   6.748  0.1751 -0.1767  0.1986
    1WF      WF68719   6.111  17.329   0.763  0.0659 -0.1507  0.2565
    1WF      WF68720  17.139   3.964   8.694  0.1922  0.1796 -0.3867
    1WF      WF68721   0.437  26.062   6.348 -0.2743 -0.1197  0.0201
    1WF      WF68722  11.414  29.409   7.083 -0.1497 -0.1075  0.4084
    1WF      WF68723  23.812  28.540   0.149  0.3699 -0.1056  0.1127
    1WF      WF68724  24.860  24.331   0.869 -0.0038 -0.2303 -0.0628
    1WF      WF68725  26.885   2.166   8.101  0.0037  0.2811 -0.1416
    1WF      WF68726  10.348  13.646   9.009 -0.1440  0.1303  0.0662
    1WF      WF68727  18.964   0.624   0.245  0.2412  0.0706  0.3923
    1WF      WF68728   5.202   0.260   0.913 -0.0871  0.0420 -0.0653
    1WF      WF68729  16.890  22.547   9.158  0.3145  0.0211 -0.1455
    1WF      WF68730  10.132  12.900   2.030 -0.3620 -0.0031 -0.3283
    1WF      WF68731   6.805   4.531   7.320  0.1484 -0.2551 -0.3759
    1WF      WF68732  24.935  13.215   0.083  0.1119 -0.0044 -0.0506
    1WF      WF68733  14.617  25.057   9.647  0.1000 -0.2794  0.0439
    1WF      WF68734   2.425   5.519   0.289 -0.0060  0.2634 -0.1436
    1WF      WF68735  12.706  19.838   0.614 -0.2402 -0.1448 -0.0958
    1WF      WF68736  23.762  14.553   6.938 -0.1610  0.0440 -0.1531
    1WF      WF68737  20.031  28.461   2.882  0.3113  0.1509  0.0568
    1WF      WF68738  24.327  27.092   1.961  0.1376  0.2159  0.2092
    1WF      WF68739   9.133  23.723   1.287  0.0311 -0.3231 -0.1872
    1WF      WF68740   8.605   3.928   7.234 -0.0224  0.0376  0.0493
    1WF      WF68741  11.582   0.329   0.765  0.2664  0.2764 -0.0887
    1WF      WF68742   2.966   1.507   5.769  0.0922  0.1717  0.0824
    1WF      WF68743  28.672  16.980   1.207 -0.0179  0.0608 -0.0062
    1WF      WF68744  11.395   6.103   2.179  0.2290 -0.5809 -0.2927
    1WF      WF68745  10.187  26.728   8.570 -0.1229 -0.1148 -0.2683
    1WF      WF68746   2.045   6.608   7.954  0.3022  0.1323  0.3429
    1WF      WF68747   7.020  20.858   8.842  0.1084  0.3027 -0.0246
    1WF      WF68748  17.076  14.366   1.375  0.0435  0.0743  0.0425
    1WF      WF68749  27.331   3.045   2.454  0.0938  0.0702 -0.0259
    1WF      WF68750  23.507   3.639   0.332 -0.0062  0.0599 -0.2221
    1WF      WF68751   1.402  19.126   0.553  0.1899  0.1918  0.0305
    1WF      WF68752  23.277  25.662   9.051 -0.0220  0.0692 -0.1923
    1WF      WF68753  18.028  17.129   0.827 -0.0380 -0.3575 -0.2895
    1WF      WF68754  15.853  23.545   1.467 -0.0162 -0.0868  0.1185
    1WF      WF68755  15.822  20.730   0.286  0.0906 -0.0461  0.0992
    1WF      WF68756  23.249  19.697   3.149 -0.4644  0.1367  0.0695
    1WF      WF68757   6.169  14.373   9.427  0.0575 -0.1460 -0.0835
    1WF      WF68758   7.081  10.328   0.102  0.0439  0.0908  0.0258
    1WF      WF68759  28.741   6.893   8.796  0.1322 -0.2069 -0.1234
    1WF      WF68760  19.883  10.300   8.770  0.1277  0.0571 -0.1623
    1WF      WF68761  29.481  12.133   1.258 -0.2733 -0.1808 -0.0747
    1WF      WF68762  14.149  13.414   8.015  0.0522  0.0663  0.1075
    1WF      WF68763  21.415  19.165   9.328 -0.0488 -0.1702  0.0342
    1WF      WF68764  21.916  28.101   9.614 -0.0286  0.1679 -0.0601
    1WF      WF68765   0.624  20.720   2.292  0.0208  0.2684 -0.0042
    1WF      WF68766   9.151  17.083   7.310  0.2706  0.0661  0.3774
    1WF      WF68767   8.921  16.537   9.395  0.4277  0.1787  0.1261
    1WF      WF68768  25.010  25.895   9.552 -0.0862 -0.0502  0.1079
    1WF      WF68769  24.401  27.474   0.801  0.1171 -0.1057 -0.1429
    1WF      WF68770  13.507   6.851   0.598 -0.0438  0.0186  0.1591
    1WF      WF68771  21.955  19.315   9.122  0.2461  0.2593 -0.1812
    1WF      WF68772   7.462   1.689   8.591  0.1298  0.0502  0.0453
    1WF      WF68773  13.893  17.757   8.470  0.1872  0.1370 -0.0868
    1WF      WF68774  25.552  17.254   3.033  0.2223  0.2486 -0.0292
    1WF      WF68775  13.598  25.533   5.971  0.0213  0.2838 -0.1134
    1WF      WF68776   3.064   1.630   7.799 -0.1247 -0.1473  0.0575
    1WF      WF68777   5.017   5.066   8.213  0.0653  0.5877  0.0557
    1WF      WF68778  10.656   4.741   2.610 -0.2208 -0.2882 -0.0524
    1WF      WF68779   9.177  21.610   9.159 -0.0575  0.0273  0.2612
    1WF      WF68780  20.882  27.865   7.686  0.0348 -0.0465  0.0603
    1WF      WF68781  13.124  28.898   6.537 -0.0519  0.2739 -0.2620
    1WF      WF68782  17.585   0.246   9.647 -0.0404 -0.0603 -0.0841
    1WF      WF68783   6.016   0.921   0.052  0.1957 -0.1043 -0.1402
    1WF      WF68784  19.659   4.035   9.559  0.0987 -0.0554 -0.0985
    1WF      WF68785  28.880  20.329   8.860 -0.0976  0.2247 -0.2603
    1WF      WF68786   8.902  27.804   8.300  0.3279  0.0606  0.0560
    1WF      WF68787   9.766  19.902   1.216  0.0647 -0.1921 -0.0829
    1WF      WF68788  11.740   3.962   1.989  0.0238  0.0944  0.2791
    1WF      WF68789  17.537  16.861   2.469 -0.2093  0.1200 -0.1805
    1WF      WF68790  12.177  20.195   8.394  0.0045 -0.2900 -0.0201
    1WF      WF68791  10.859  23.875   8.611 -0.0333  0.2324  0.0302
    1WF      WF68792  25.864  21.558   0.907 -0.1076  0.0217 -0.0655
    1WF      WF68793  10.633  20.224   7.619  0.1457  0.0916 -0.0064
    1WF      WF68794  11.335   0.740   1.529  0.0419 -0.2786  0.2625
    1WF      WF68795  15.738  15.461   7.680 -0.1284 -0.0066 -0.3234
    1WF      WF68796   2.375  19.676   9.242  0.1953  0.1828  0.4239
    1WF      WF68797  23.016   5.579   3.022 -0.2278  0.0262  0.1056
    1WF      WF68798  15.003  13.109   6.587  0.0298 -0.2299  0.0512
    1WF      WF68799   1.427   7.512   6.023 -0.0692 -0.1569 -0.1586
    1WF      WF68800  28.534   6.130   5.920  0.1581  0.1065  0.2430
    1WF      WF68801   1.825   2.676   9.247 -0.0343  0.1593  0.1288
    1WF      WF68802  29.228  16.974   0.048  0.0844  0.0581 -0.1808
    1WF      WF68803  25.945  19.002   8.405 -0.2981  0.0678  0.0283
    1WF      WF68804  25.732   3.380   0.859  0.0695  0.2308 -0.1203
    1WF      WF68805  21.717  27.784   1.476 -0.1162 -0.1617  0.0935
    1WF      WF68806   9.263   7.709   9.637  0.1603  0.1419  0.2497
    1WF      WF68807   8.177  22.962   1.080  0.2096 -0.0589  0.2277
    1WF      WF68808  12.476   0.954   9.596  0.1258 -0.0680 -0.0842
    1WF      WF68809   5.679   1.318   8.512  0.0132  0.1834 -0.0526
    1WF      WF68810  16.524  18.211   8.296  0.0901 -0.2601 -0.0423
    1WF      WF68811  26.794  11.719   9.461 -0.3869  0.2279 -0.1983
    1WF      WF68812   8.868   3.354   0.527  0.0720  0.4028  0.1158
    1WF      WF68813  14.511   0.534   0.970  0.2662 -0.0175 -0.1397
    1WF      WF68814  27.428  15.653   9.175 -0.1146 -0.1561  0.2192
    1WF      WF68815  16.735   3.578   1.628 -0.0992 -0.2619 -0.0404
    1WF      WF68816  23.143   1.651   9.201  0.0447 -0.0670 -0.1379
    1WF      WF68817  13.770  23.774   8.474  0.2915 -0.0920 -0.0255
    1WF      WF68818  11.372   2.464   9.600 -0.0530  0.1892  0.4262
    1WF      WF68819   6.364  25.148   9.538  0.0253 -0.1593  0.1531
    1WF      WF68820  14.261  19.219   0.764 -0.3277  0.2374  0.2553
    1WF      WF68821  24.743  15.102   8.085  0.0266  0.0931  0.2481
    1WF      WF68822   5.874  21.391   1.944 -0.1795  0.4966  0.0854
    1WF      WF68823   7.157  21.180   6.523  0.4749 -0.0319  0.1612
    1WF      WF68824  20.334   7.979   2.782  0.2223 -0.1371 -0.1675
    1WF      WF68825  18.696   9.362   8.497  0.0491  0.2407 -0.0138
    1WF      WF68826   9.750   2.571   7.142  0.0908 -0.1683  0.2699
    1WF      WF68827   4.851   8.275   6.613  0.2835 -0.3295  0.2137
    1WF      WF68828  15.678  10.497   7.884 -0.2117  0.0638 -0.0238
    1WF      WF68829   0.041  15.572   2.162 -0.2895  0.2326  0.2769
    1WF      WF68830  19.719  16.788   1.901  0.0143  0.0139  0.0897
    1WF      WF68831   4.036  12.931   9.073  0.2053 -0.1538  0.1868
    1WF      WF68832  19.959   5.348   9.425 -0.1838 -0.0819  0.0492
    1WF      WF68833  29.286   3.183   9.149 -0.0225 -0.4136 -0.0323
    1WF      WF68834  13.443   4.060   7.572  0.2035  0.0399 -0.3106
    1WF      WF68835  11.288  28.149   8.400 -0.2627  0.0135  0.1195
    1WF      WF68836  22.451  14.007   3.218  0.3959  0.2792  0.3570
    1WF      WF68837   1.160  12.791   0.015 -0.0477 -0.0406 -0.1608
    1WF      WF68838  20.600  25.615   1.455  0.0603  0.3013 -0.0364
    1WF      WF68839  23.800   1.474   1.174 -0.0525 -0.0953 -0.0861
    1WF      WF68840  15.447  11.834   8.377  0.0518 -0.2082 -0.0470
    1WF      WF68841   1.462  15.312   0.905 -0.2214 -0.2065 -0.0373
    1WF      WF68842   4.595  24.221   2.387 -0.1921  0.2069  0.0493
    1WF      WF68843   5.659  24.246   1.513 -0.2845  0.2961 -0.1198
    1WF      WF68844  10.611  15.173   7.508  0.0773 -0.1811 -0.0572
    1WF      WF68845  23.715  21.186   8.696 -0.1861  0.1309 -0.1539
    1WF      WF68846  21.835  10.838   2.540 -0.0097  0.1402  0.0496
    1WF      WF68847   3.138   8.123   1.921 -0.1265  0.2981 -0.1841
    1WF      WF68848  18.796  22.731   1.053 -0.0015  0.2832 -0.0853
    1WF      WF68849  26.060  23.422   7.899 -0.2573  0.0005 -0.0379
    1WF      WF68850  27.664  11.794   7.997 -0.0572 -0.0788  0.1474
    1WF      WF68851   6.706  25.602   9.438 -0.0544  0.1522 -0.2221
    1WF      WF68852  13.590  16.216   1.064 -0.0180  0.0909 -0.4160
    1WF      WF68853  12.426  19.480   9.395  0.1648 -0.0078 -0.1777
    1WF      WF68854   5.511  18.396   0.002 -0.0472 -0.1863 -0.0545
    1WF      WF68855   5.616  21.673   2.232  0.3202 -0.0176 -0.0075
    1WF      WF68856   8.639   2.997   0.053 -0.2352  0.1523 -0.1001
    1WF      WF68857  11.174  29.594   6.556  0.0059 -0.2181  0.0817
    1WF      WF68858  13.374  12.375   7.619 -0.3374  0.1368  0.0589
    1WF      WF68859   1.237  14.211   7.899 -0.1936  0.1596 -0.1846
    1WF      WF68860   3.335   2.600   0.696 -0.2421  0.1187 -0.2888
    1WF      WF68861   3.242  25.401   6.759 -0.0481 -0.0429  0.1572
    1WF      WF68862  21.986  12.190   1.615  0.0030 -0.0498 -0.0844
    1WF      WF68863   7.580   5.127   0.002  0.1189  0.0840 -0.0153
    1WF      WF68864   3.281  24.832   6.856  0.0951  0.2158  0.0116
    1WF      WF68865  23.133   9.669   0.756 -0.1005  0.0964  0.0387
    1WF      WF68866  27.548  16.826   7.578  0.1574 -0.3347 -0.0100
    1WF      WF68867   4.788  10.814   0.647  0.0996  0.1340  0.2425
    1WF      WF68868  24.469  16.162   0.295  0.3736  0.0366 -0.3261
    1WF      WF68869  29.072  17.808   0.646 -0.0230 -0.0486  0.1876
    1WF      WF68870  14.807  22.125   1.497 -0.1522 -0.3540  0.1934
    1WF      WF68871  18.278  25.715   9.212  0.0268  0.0947 -0.4106
    1WF      WF68872   6.532   7.853   0.960 -0.1133 -0.3519  0.0925
    1WF      WF68873  19.534  25.338   1.550  0.4508 -0.1916  0.2535
    1WF      WF68874  13.621  13.229   0.782 -0.0337 -0.1031  0.3781
    1WF      WF68875  28.102  17.402   9.139 -0.1555 -0.0774  0.1195
    1WF      WF68876  14.159  29.269   7.870  0.1068  0.0978 -0.1070
    1WF      WF68877  14.966  25.940   0.381  0.0812 -0.1177 -0.0830
    1WF      WF68878   3.481  27.380   9.053  0.0980 -0.0264  0.5092
    1WF      WF68879   3.314  29.590   8.378  0.1073 -0.0257  0.0968
    1WF      WF68880  12.693  22.374   6.226 -0.1487 -0.1487  0.1492
    1WF      WF68881   9.915   4.336   5.883  0.1538  0.2294  0.1882
    1WF      WF68882  14.880   2.243   6.353 -0.2595  0.0918  0.0010
    1WF      WF68883  12.597  22.086   6.655  0.1156  0.1715 -0.1084
    1WF      WF68884   6.375  21.313   8.090 -0.3925  0.2669  0.1242
    1WF      WF68885  29.392  24.179   1.613  0.1967 -0.0480 -0.0818
    1WF      WF68886  10.216   3.396   1.166 -0.1344  0.1479  0.1170
    1WF      WF68887  20.333  17.015   8.870 -0.0209  0.1636  0.2784
    1WF      WF68888  17.488  16.499   8.930  0.0936 -0.0410 -0.2443
    1WF      WF68889   2.963  14.088   7.899  0.2527  0.1958 -0.0218
    1WF      WF68890  26.489  22.964   1.027  0.1465  0.0434 -0.0621
    1WF      WF68891  16.969   5.817   0.855 -0.0925  0.0694 -0.0890
    1WF      WF68892  23.951  18.149   9.606  0.1551 -0.0956 -0.1941
    1WF      WF68893  24.357   5.889   9.466 -0.0206 -0.0326  0.1010
    1WF      WF68894  17.092   1.414   2.175  0.2922  0.0043  0.0748
    1WF      WF68895   7.646  14.219   5.769 -0.1083 -0.2095  0.1605
    1WF      WF68896  27.143  20.706   8.299  0.1029  0.0648 -0.2220
    1WF      WF68897   5.789  10.743   6.817 -0.0038 -0.2138  0.0640
    1WF      WF68898   1.795  14.254   7.787  0.0213 -0.0532  0.1600
    1WF      WF68899  22.190  17.089   9.103 -0.3300  0.2102 -0.1938
    1WF      WF68900  14.296  19.426   7.868 -0.0030 -0.2252 -0.1181
    1WF      WF68901   9.854  21.766   8.083 -0.0207 -0.2740 -0.1068
    1WF      WF68902  27.052   8.983   1.478 -0.1499  0.1937  0.0740
    1WF      WF68903  15.125  22.803   1.272  0.1680 -0.1438 -0.1150
    1WF      WF68904  17.357   0.059   9.159 -0.2452  0.0532  0.1564
    1WF      WF68905   5.858  10.403   0.374  0.1827 -0.0604 -0.1350
    1WF      WF68906  23.208   7.568   9.519 -0.2597  0.0296  0.0417
    1WF      WF68907  20.287   0.144   1.358 -0.0727  0.4772  0.1226
    1WF      WF68908  17.111  26.335   8.917 -0.3056  0.5422 -0.2533
    1WF      WF68909   1.146  18.219   9.125 -0.1170  0.2924 -0.0275
    1WF      WF68910   0.380   8.122   9.314 -0.0092  0.1376  0.1981
    1WF      WF68911  29.103   1.563   0.985  0.1065  0.1811  0.1761
    1WF      WF68912  26.895  17.305   2.236 -0.0370 -0.5326 -0.0451
    1WF      WF68913   6.506   5.008   7.426 -0.1822  0.2462  0.0752
    1WF      WF68914   8.068  15.329   1.822 -0.0823 -0.1206 -0.1960
    1WF      WF68915   2.944   8.956   5.119 -0.0760  0.0683  0.3122
    1WF      WF68916   0.517  10.319   9.373 -0.0028 -0.1730 -0.1381
    1WF      WF68917  27.591   0.376   0.661 -0.0016 -0.0713  0.0866
    1WF      WF68918   3.997  12.952   7.799  0.2394 -0.0881  0.0236
    1WF      WF68919   4.133  17.975   2.462  0.0909  0.0030  0.2218
    1WF      WF68920  27.241  10.508   7.086  0.4021 -0.1978  0.2369
    1WF      WF68921  13.468   7.334   0.773 -0.1575  0.2048  0.1528
    1WF      WF68922  22.121   7.428   0.779 -0.1449  0.3853 -0.2128
    1WF      WF68923  21.496   9.702   8.130 -0.0460  0.2369  0.1611
    1WF      WF68924   0.397   8.542   9.595 -0.0253 -0.0600 -0.0169
    1WF      WF68925  21.690  20.703   0.918 -0.2334  0.1046  0.2555
    1WF      WF68926   3.895   8.376   5.743 -0.1319 -0.0805 -0.0313
    1WF      WF68927  26.122   4.388   9.201 -0.1678 -0.2128 -0.1354
    1WF      WF68928  21.799  21.143   1.973  0.1551 -0.0389  0.2803
    1WF      WF68929  27.342  17.160   7.903  0.0516  0.2959  0.5457
    1WF      WF68930  22.078  16.780   1.073 -0.1250 -0.1268  0.2319
    1WF      WF68931   8.532   1.079   0.686  0.0455  0.1434 -0.0273
    1WF      WF68932   7.124  10.234   7.489 -0.1038  0.0771 -0.3916
    1WF      WF68933  28.330   9.433   8.866  0.2469 -0.1292 -0.0616
    1WF      WF68934  15.623  22.604   3.117  0.0616 -0.0860 -0.0238
    1WF      WF68935  11.877  19.402   7.456 -0.1556 -0.4660 -0.0430
    1WF      WF68936  10.508  25.948   8.336  0.1257  0.0894 -0.2405
    1WF      WF68937  14.554  25.437   0.299  0.0413  0.1133 -0.1497
    1WF      WF68938   1.440  27.275   1.121  0.1964 -0.1089  0.0340
    1WF      WF68939  21.411  17.379   8.441  0.1160  0.4269  0.3227
    1WF      WF68940  25.936   5.674   8.200  0.0835  0.1703 -0.1339
    1WF      WF68941  27.190  17.834   2.344  0.1238  0.1620 -0.1502
    1WF      WF68942  26.201  22.873   2.207  0.0825  0.1255 -0.1426
    1WF      WF68943   0.043  14.078   7.358 -0.2603  0.2983  0.2681
    1WF      WF68944   5.010  18.317   0.012  0.0386 -0.0302  0.2417
    1WF      WF68945  13.387   2.790   1.134 -0.1785 -0.2811 -0.2695
    1WF      WF68946   0.669  18.767   1.700  0.0520  0.2286  0.2426
    1WF      WF68947   5.041   5.894   8.816  0.3406  0.0454 -0.0048
    1WF      WF68948  22.546   7.275   2.408 -0.0792 -0.3494 -0.2312
    1WF      WF68949   3.633   7.884   5.956  0.4387 -0.1991 -0.1231
    1WF      WF68950   6.408   0.757   9.367 -0.4116  0.0460 -0.1769
    1WF      WF68951  15.213  15.622   7.761  0.0676 -0.1378 -0.2382
    1WF      WF68952   5.983  29.226   2.112 -0.2278 -0.0343 -0.0925
    1WF      WF68953  20.562   2.233   0.894 -0.0076  0.0242  0.0050
    1WF      WF68954   2.886  17.725   1.200 -0.1014 -0.0892  0.0231
    1WF      WF68955  28.177  29.157   8.290 -0.2658  0.6215  0.4548
    1WF      WF68956   3.842  25.164   7.650 -0.1965 -0.1341  0.1159
    1WF      WF68957   4.146   0.041   9.517 -0.0802  0.3512 -0.0853
    1WF      WF68958  12.276  20.298   6.314 -0.0585  0.3658  0.2133
    1WF      WF68959  10.394   9.889   8.181 -0.1545  0.1687  0.2394
    1WF      WF68960   0.940  14.587   8.207 -0.1311 -0.2599  0.0976
    1WF      WF68961   7.544  16.702   8.181 -0.0588 -0.3641  0.0823
    1WF      WF68962  17.217   7.912   1.318 -0.1102 -0.3380  0.0658
    1WF      WF68963   4.636  10.478   9.463 -0.4699  0.2719  0.3071
    1WF      WF68964  16.741  22.927   1.984  0.0286  0.0113 -0.3506
    1WF      WF68965  21.526  21.996   7.517  0.0132 -0.2346 -0.1814
    1WF      WF68966  24.089  19.285   7.146  0.3867 -0.0856 -0.2170
    1WF      WF68967   6.386   5.642   6.040 -0.4278 -0.0700 -0.2149
    1WF      WF68968   3.000  22.828   9.577 -0.3865  0.1079  0.0099
    1WF      WF68969  27.907  12.101   8.331  0.2306 -0.0173 -0.2923
    1WF      WF68970  13.406  22.513   7.349  0.1314 -0.1627  0.0008
    1WF      WF68971   6.221   6.446   0.625 -0.0580 -0.0850  0.1866
    1WF      WF68972   0.958  12.119   2.340  0.2547 -0.0667 -0.2160
    1WF      WF68973  22.670   6.531   1.448 -0.1713  0.1083  0.0058
    1WF      WF68974  14.341  14.340   0.952 -0.0245 -0.0837  0.2104
    1WF      WF68975   1.661   1.241   8.581  0.1280 -0.0633  0.0884
    1WF      WF68976  18.887  13.932   0.702 -0.2880  0.2795  0.0148
    1WF      WF68977  15.324   4.935   6.196 -0.1210 -0.1888 -0.0338
    1WF      WF68978   9.792  25.776   0.655  0.1934  0.0756  0.0926
    1WF      WF68979   7.718   5.675   1.026  0.1646  0.2986 -0.0890
    1WF      WF68980   4.687  12.571   8.581  0.1316  0.1526  0.0033
    1WF      WF68981  23.295  26.194   0.340  0.0183 -0.0585 -0.2176
    1WF      WF68982   1.192  20.149   0.047  0.4761  0.1562  0.0289
    1WF      WF68983  29.381   4.685   8.995  0.4970  0.1901  0.0774
    1WF      WF68984  25.288   2.898   8.779  0.3184  0.1114  0.4092
    1WF      WF68985   1.933   7.363   8.685  0.1077 -0.2867  0.3826
    1WF      WF68986  13.694  12.871   7.880 -0.3106  0.1560 -0.0919
    1WF      WF68987  12.203  22.878   9.014 -0.0566  0.4231 -0.1245
    1WF      WF68988  28.681  10.418   7.975  0.1212  0.2439 -0.3267
    1WF      WF68989  20.069  24.953   3.370 -0.3422 -0.0697  0.3111
    1WF      WF68990  25.034   8.250   9.124 -0.3056 -0.1137 -0.1322
    1WF      WF68991  10.160   4.889   7.180 -0.1708 -0.1656 -0.2021
    1WF      WF68992  27.599  21.328   2.920 -0.0547  0.1002  0.1881
    1WF      WF68993   1.439   7.180   8.557 -0.0308  0.2178  0.0128
    1WF      WF68994  18.774  20.486   0.092  0.2349 -0.1574  0.0555
    1WF      WF68995  28.345  28.832   8.704  0.0587  0.0284  0.1068
    1WF      WF68996  12.563  16.786   0.130  0.1903  0.2068  0.1840
    1WF      WF68997  28.229  11.122   8.391 -0.3252  0.3668 -0.2288
    1WF      WF68998   8.237  15.951   7.558  0.2994 -0.2091 -0.0784
    1WF      WF68999  13.286   8.662   8.732 -0.2055 -0.2025  0.0735
    1WF      WF69000  17.224  12.895   6.732  0.0202  0.2638  0.1354
    1WF      WF69001  17.404  22.065   0.254 -0.2036 -0.0772  0.1414
    1WF      WF69002  23.315  20.708   8.911  0.0925 -0.2530  0.5771
    1WF      WF69003   8.359   3.313   0.503  0.2756  0.1807  0.1896
    1WF      WF69004  11.212  16.003   9.648 -0.1700 -0.0003  0.1848
    1WF      WF69005  29.003  22.758   7.571 -0.0717  0.1787 -0.1667
    1WF      WF69006  13.731  26.215   7.828  0.2028 -0.1167  0.1208
    1WF      WF69007   9.089   5.607   8.064  0.0108 -0.1291 -0.4436
    1WF      WF69008   4.387  28.734   1.653  0.0782  0.4351 -0.2698
    1WF      WF69009  12.106   6.276   8.592  0.0312  0.1271 -0.2103
    1WF      WF69010  15.017   9.389   9.061 -0.0010  0.0451 -0.2874
    1WF      WF69011  16.275   4.979   7.837 -0.2564  0.3656 -0.4185
    1WF      WF69012  17.129   7.349   0.928  0.3923 -0.1155 -0.0775
    1WF      WF69013  27.453  10.615   8.623  0.3416  0.0422 -0.2281
    1WF      WF69014  26.127  17.975   2.505 -0.1711 -0.2497  0.1796
    1WF      WF69015  14.721  16.141   1.169  0.0164 -0.1190 -0.2032
    1WF      WF69016  25.829   4.713   0.572  0.0936 -0.0592  0.1322
    1WF      WF69017   7.437  10.851   0.300 -0.2290 -0.0682 -0.0013
    1WF      WF69018  16.737  16.120   1.708 -0.0723  0.1159  0.1722
    1WF      WF69019  23.471  23.520   8.097  0.0884 -0.3899 -0.1532
    1WF      WF69020  24.035  26.663   2.038  0.2312 -0.1080 -0.0114
    1WF      WF69021  22.598  15.221   1.572  0.2049  0.0443 -0.0526
    1WF      WF69022   2.865   4.098   8.725  0.0032 -0.1804  0.0714
    1WF      WF69023  24.241  13.955   2.917 -0.0063 -0.2114  0.0100
    1WF      WF69024  23.634  15.605   2.522  0.1177 -0.1221 -0.3390
    1WF      WF69025  13.146  13.553   0.883  0.1848 -0.4556 -0.0326
    1WF      WF69026   8.237  15.710   1.431 -0.1004  0.1650  0.2283
    1WF      WF69027   7.696  15.092   7.562  0.0462 -0.1504 -0.2114
    1WF      WF69028  27.563  28.586   1.449 -0.1368 -0.2848 -0.3107
    1WF      WF69029  14.420  27.110   0.160 -0.0558  0.2126 -0.1640
    1WF      WF69030  13.231  17.403   6.136  0.0370  0.1405 -0.0470
    1WF      WF69031  24.254  17.826   0.779 -0.0672  0.0957 -0.0280
    1WF      WF69032  15.392  20.076   7.785 -0.0438 -0.1011 -0.2435
    1WF      WF69033   9.799  15.376   2.747  0.1098  0.0100 -0.0581
    1WF      WF69034  21.267  23.401   1.601 -0.0604 -0.2869 -0.0452
    1WF      WF69035   6.080   3.229   1.197 -0.1865 -0.0210 -0.0378
    1WF      WF69036   2.312  16.545   9.470  0.1894  0.3309  0.0954
    1WF      WF69037  13.025   6.201   9.561 -0.3185 -0.2484 -0.1238
    1WF      WF69038  13.584  21.506   1.671  0.1589  0.1273  0.0166
    1WF      WF69039  19.657  20.492   1.935 -0.2331 -0.3674 -0.0110
    1WF      WF69040   4.174   4.713   9.475 -0.3079 -0.1136 -0.1347
    1WF      WF69041  26.324   7.760   7.998 -0.1006 -0.1244 -0.1929
    1WF      WF69042  22.172  17.293   0.958  0.2417  0.0234  0.0262
    1WF      WF69043  21.217  28.271   7.789 -0.1549  0.2582  0.1037
    1WF      WF69044  16.931  24.393   1.540 -0.1955  0.2595 -0.0166
    1WF      WF69045  17.489  19.800   2.996 -0.1909 -0.0320  0.3067
    1WF      WF69046  10.800  20.691   7.776  0.1304  0.0248  0.0239
    1WF      WF69047  17.719   1.443   0.244 -0.1110 -0.0723 -0.0703
    1WF      WF69048  17.722  16.734   1.095 -0.0621  0.0101 -0.1469
    1WF      WF69049   0.157  24.610   0.557  0.1388 -0.2285 -0.1281
    1WF      WF69050  15.949   4.247   2.473  0.2045 -0.0179  0.0401
    1WF      WF69051   2.391  16.282   8.952 -0.1680 -0.1673 -0.1656
    1WF      WF69052  10.189   8.572   0.066 -0.0975 -0.1900  0.2488
    1WF      WF69053  27.756  17.869   9.365  0.0894 -0.3059  0.0230
    1WF      WF69054  27.375   0.402   1.117 -0.1444  0.0695 -0.4391
    1WF      WF69055   3.857   0.204   8.391 -0.0397 -0.3450  0.0956
    1WF      WF69056  15.205   5.500   0.965 -0.1079  0.1725 -0.1606
    1WF      WF69057   9.821  11.475   0.241  0.2126 -0.2464 -0.1717
    1WF      WF69058  10.877  15.448   8.671  0.2771  0.3726  0.0712
    1WF      WF69059  22.643   2.833   0.409 -0.1513  0.2261 -0.0982
    1WF      WF69060   1.906  22.097   0.256 -0.0130  0.1274 -0.0671
    1WF      WF69061   8.514   3.864   8.895 -0.2659  0.2170 -0.0716
    1WF      WF69062  27.625   7.578   1.039 -0.0988  0.0268 -0.0361
    1WF      WF69063  12.886  21.899   0.335 -0.3697 -0.0927 -0.0749
    1WF      WF69064  23.977  23.923   1.063  0.2066 -0.0578  0.2307
    1WF      WF69065   1.654  23.401   7.019 -0.0863  0.0984  0.1258
    1WF      WF69066  27.052   9.967   1.090 -0.0267  0.1388  0.1607
    1WF      WF69067  27.255   7.401   8.494  0.1241 -0.2701 -0.1218
    1WF      WF69068  11.381  15.004   9.299  0.0969 -0.0638 -0.0190
    1WF      WF69069  29.142  27.884   8.461 -0.2662 -0.3080 -0.4075
    1WF      WF69070  20.451  20.820   9.129  0.1056 -0.0265 -0.0478
    1WF      WF69071   5.222  16.026   8.129  0.0569  0.0508 -0.2507
    1WF      WF69072   2.373   8.568   0.605 -0.1519  0.3673  0.1820
    1WF      WF69073   6.365   0.955   8.911 -0.3479 -0.1379 -0.0729
    1WF      WF69074  12.384  11.460   1.069 -0.2791  0.0555 -0.0848
    1WF      WF69075   9.815   2.333   8.492  0.1105  0.0152  0.4275
    1WF      WF69076  29.087   2.823   0.894  0.1367 -0.4348 -0.0205
    1WF      WF69077   2.902  29.238   8.427 -0.3705 -0.2618 -0.0560
    1WF      WF69078  24.062  26.471   1.577 -0.1938  0.0745 -0.0543
    1WF      WF69079  12.170  11.173   9.146 -0.5751 -0.1857  0.2685
    1WF      WF69080  26.897  12.208   0.027  0.0739  0.2435 -0.1290
    1WF      WF69081   5.562  20.721   0.175 -0.0407 -0.2540  0.1454
    1WF      WF69082   2.980   3.469   7.930 -0.2615 -0.0880  0.0364
    1WF      WF69083  15.692   8.634   8.550 -0.0445 -0.3554 -0.0540
    1WF      WF69084  20.366   3.101   1.137 -0.0611 -0.3387 -0.4238
    1WF      WF69085  11.989  28.164   1.461  0.1273  0.0986  0.0897
    1WF      WF69086   3.596  23.222   2.053  0.0127  0.0948 -0.0344
    1WF      WF69087  25.639  19.868   8.420 -0.0747  0.0142 -0.3968
    1WF      WF69088  17.694  22.171   8.746 -0.1004  0.1105 -0.0765
    1WF      WF69089  16.787   7.467   1.263  0.0723  0.0246 -0.0599
    1WF      WF69090  10.463   0.316   5.830 -0.0017 -0.1589  0.2602
    1WF      WF69091   1.933   7.208   1.843 -0.0125  0.1592 -0.0723
    1WF      WF69092   8.686  11.130   8.536  0.0619  0.0420  0.1577
    1WF      WF69093  10.800  13.677   7.515  0.2745  0.1826  0.1619
    1WF      WF69094   0.604   7.465   8.922 -0.2318  0.2479 -0.2112
    1WF      WF69095  18.127  24.831   2.191  0.1063  0.5232  0.0108
    1WF      WF69096   2.675   4.594   8.597 -0.1292 -0.2693 -0.0331
    1WF      WF69097  18.785  24.933   2.925  0.1783  0.0524 -0.0261
    1WF      WF69098   7.233  25.118   8.072  0.0182 -0.2153 -0.1497
    1WF      WF69099  27.108  28.559   8.247  0.4723 -0.0905  0.0880
    1WF      WF69100  22.762  28.576   8.148  0.0157 -0.0147 -0.1547
    1WF      WF69101  28.886  14.076   9.644 -0.2505 -0.0313  0.0738
    1WF      WF69102  20.435   8.222   1.330  0.0298 -0.0365  0.0049
    1WF      WF69103  14.386   9.765   1.220 -0.1673 -0.0468 -0.3674
    1WF      WF69104  17.565   0.386   0.829 -0.3727 -0.0525 -0.0497
    1WF      WF69105  13.730  27.859   2.242  0.0829  0.1338  0.1297
    1WF      WF69106   2.707  11.644   8.598 -0.1381 -0.0972  0.0099
    1WF      WF69107  23.858  24.899   8.639  0.0242 -0.2060 -0.0365
    1WF      WF69108  21.978  17.373   8.296  0.2515  0.1349 -0.3829
    1WF      WF69109  12.897   9.792   1.612 -0.2001  0.1560 -0.2221
    1WF      WF69110  25.789  10.804   8.092 -0.2259  0.1770 -0.0949
    1WF      WF69111  16.959   1.933   1.927  0.2700 -0.0356  0.0112
    1WF      WF69112  14.853  22.675   8.312 -0.1328 -0.0938  0.0631
    1WF      WF69113   5.943  14.974   8.831  0.0838 -0.1726 -0.1812
    1WF      WF69114  15.715   0.784   0.923  0.1067  0.2713  0.2610
    1WF      WF69115   3.217   7.098   9.408 -0.1287  0.0897 -0.0327
    1WF      WF69116  18.540  14.506   8.314 -0.0818 -0.0915 -0.0892
    1WF      WF69117  19.624  11.054   8.341  0.1710 -0.1667 -0.1816
    1WF      WF69118  23.023  28.954   8.406  0.3437 -0.3781  0.0223
    1WF      WF69119   6.804  17.888   2.644 -0.1404 -0.1302 -0.0732
    1WF      WF69120  17.576  28.834   1.895  0.0658 -0.0416  0.0847
    1WF      WF69121   1.436  12.397   0.166 -0.2876 -0.0960 -0.2152
    1WF      WF69122   6.584   1.069   0.098  0.1060 -0.0823  0.1509
    1WF      WF69123   6.746  28.677   6.676 -0.1032 -0.1500 -0.2150
    1WF      WF69124  10.481   6.979   9.277  0.3141  0.1394  0.1499
    1WF      WF69125  15.551  18.317   1.343 -0.0232  0.3736  0.0352
    1WF      WF69126  12.164   7.767   8.355  0.0362 -0.0744 -0.2319
    1WF      WF69127   4.061  20.697   0.889 -0.0756  0.1608  0.2327
    1WF      WF69128  25.862   4.366   2.264  0.1137 -0.1595  0.2203
    1WF      WF69129  17.404  26.367   2.462 -0.2120  0.0481 -0.0545
    1WF      WF69130  18.135   4.519   0.894 -0.3519  0.0803 -0.1238
    1WF      WF69131   0.643   1.582   6.626 -0.0249  0.0749  0.3887
    1WF      WF69132  21.824   0.076   0.760  0.1753  0.1378 -0.0813
    1WF      WF69133  14.580   3.727   7.923 -0.1938  0.0348  0.1429
    1WF      WF69134  13.865   8.206   9.155 -0.1082 -0.0099 -0.0148
    1WF      WF69135  25.213  14.962   0.793  0.0763  0.1944 -0.2064
    1WF      WF69136  23.286  10.625   8.941 -0.1506 -0.2813 -0.0139
    1WF      WF69137  26.850  15.673   1.250  0.0080 -0.4428  0.1172
    1WF      WF69138  27.419  20.507   8.693 -0.1966  0.3864  0.4859
    1WF      WF69139   7.002   4.554   1.508 -0.1200  0.2956  0.0347
    1WF      WF69140  12.643  26.713   0.979 -0.0553  0.0964  0.1259
    1WF      WF69141  17.624   2.348   8.121 -0.3568  0.1171  0.0631
    1WF      WF69142  26.264  25.214   8.752 -0.1923  0.1967 -0.1313
    1WF      WF69143  28.993  23.542   2.668 -0.1236  0.1910 -0.1809
    1WF      WF69144   7.609  21.014   8.897 -0.0112  0.1944  0.0868
    1WF      WF69145   1.548   1.596   1.998 -0.1819 -0.3567 -0.0762
    1WF      WF69146  25.449  24.470   8.417 -0.0090  0.3596  0.0936
    1WF      WF69147   2.275  11.723   9.018 -0.1897  0.3225  0.1211
    1WF      WF69148   6.518   4.378   2.631 -0.2314  0.0011 -0.2036
    1WF      WF69149  13.423  21.485   6.453  0.2391 -0.0825 -0.0728
    1WF      WF69150   7.877  18.699   1.451  0.0540  0.1669  0.2224
    1WF      WF69151   6.853  23.728   0.295  0.0709  0.1429  0.0123
    1WF      WF69152  13.211  11.489   2.929  0.1157 -0.0208 -0.1367
    1WF      WF69153   8.247  26.489   1.420  0.1823 -0.1893  0.0059
    1WF      WF69154   2.734   2.721   7.247  0.0164  0.0595  0.0271
    1WF      WF69155  27.226   0.636   1.554 -0.0716  0.1745 -0.1794
    1WF      WF69156   7.744   9.473   7.449  0.0486 -0.2998  0.0875
    1WF      WF69157  10.855   5.003   0.999 -0.0001  0.1807  0.1762
    1WF      WF69158  15.090   5.077   8.987  0.2197 -0.0201 -0.0402
    1WF      WF69159   9.585  23.189   9.123  0.1118 -0.1495 -0.2419
    1WF      WF69160  15.380  22.526   7.721  0.3310  0.2008  0.0985
    1WF      WF69161  23.749   1.035   1.915  0.2699  0.2110 -0.0440
    1WF      WF69162   2.745  24.010   0.192  0.1768  0.0410 -0.0014
    1WF      WF69163   8.939  21.229   6.907 -0.1927  0.1557  0.1390
    1WF      WF69164   6.037  25.075   1.322  0.0043  0.0142  0.0912
    1WF      WF69165   5.606  26.086   2.282 -0.3327 -0.0495  0.3022
    1WF      WF69166  15.035  14.484   8.326 -0.1829 -0.2509  0.3799
    1WF      WF69167  11.853  16.482   7.511  0.0428 -0.1886  0.7073
    1WF      WF69168   5.547  28.269   9.416  0.1963  0.4572  0.3652
    1WF      WF69169  13.436   1.466   0.879 -0.0974  0.2018  0.2004
    1WF      WF69170   9.731  21.333   7.919  0.4580  0.0140  0.0353
    1WF      WF69171  29.619  20.039   1.398 -0.2264 -0.0977  0.0895
    1WF      WF69172  11.866  12.052   7.521  0.0778  0.0896 -0.1729
    1WF      WF69173   8.783  13.549   2.181  0.1531  0.5505  0.2463
    1WF      WF69174  16.999  22.090   0.562  0.4947  0.4277  0.0466
    1WF      WF69175   8.363  19.346   6.496 -0.0606 -0.2039 -0.1168
    1WF      WF69176  10.965   2.402   0.622  0.1447 -0.2763 -0.0655
    1WF      WF69177   8.466   2.785   9.285 -0.1429  0.0002  0.3269
    1WF      WF69178  19.567  12.308   2.311 -0.1467 -0.2870 -0.1157
    1WF      WF69179  23.436  19.202   0.788  0.1131 -0.0399 -0.1010
    1WF      WF69180  14.180  16.549   7.866  0.1173 -0.1710 -0.1732
    1WF      WF69181  29.420  11.660   1.335 -0.3127  0.2096  0.2870
    1WF      WF69182   6.435  20.789   7.884  0.1229  0.1088  0.2208
    1WF      WF69183  24.350  24.176   8.060 -0.1269  0.1151  0.0970
    1WF      WF69184  11.176   7.507   2.924  0.2518  0.1134  0.0830
    1WF      WF69185  24.168   5.016   8.703 -0.1812  0.1101 -0.1424
    1WF      WF69186  14.356  23.374   6.678  0.2145  0.1452  0.3176
    1WF      WF69187   9.175  11.771   6.945  0.1666  0.1556 -0.0716
    1WF      WF69188   5.431  11.231   7.805 -0.3185 -0.0145  0.0732
    1WF      WF69189   3.071  27.342   0.257  0.0563  0.0589 -0.0955
    1WF      WF69190  27.401  17.041   8.787 -0.2274  0.4812  0.2174
    1WF      WF69191  29.331   4.714   8.478  0.0386 -0.2828 -0.0641
    1WF      WF69192  25.348   6.897   8.817 -0.0351 -0.1481  0.2655
    1WF      WF69193  25.502  28.729   4.205 -0.2120  0.1772  0.2642
    1WF      WF69194  17.607  28.837   8.599  0.0938  0.3243 -0.2066
    1WF      WF69195   0.074  13.341   7.918  0.1146 -0.0010 -0.1956
    1WF      WF69196   8.872  13.039   0.561 -0.1127  0.0326 -0.0654
    1WF      WF69197   1.888  25.306   0.080 -0.0189 -0.0079  0.2068
    1WF      WF69198  20.765  24.043   9.442  0.0567 -0.4809 -0.4343
    1WF      WF69199  18.647  10.845   0.361  0.0448 -0.2377  0.0058
    1WF      WF69200  27.089  20.795   9.024  0.0196  0.0144 -0.1655
    1WF      WF69201  24.716  17.734   1.260  0.2446  0.0767  0.1208
    1WF      WF69202   3.482  24.352   8.600  0.0741 -0.2184  0.0637
    1WF      WF69203  18.074  25.941   0.369  0.0777 -0.2424  0.0618
    1WF      WF69204  25.086  23.362   1.982  0.0290  0.0885 -0.2078
    1WF      WF69205   9.532  23.402   1.251  0.0731  0.0271 -0.0839
    1WF      WF69206  28.911   4.437   9.074 -0.1836 -0.0704 -0.0631
    1WF      WF69207   9.171  20.456   8.170  0.0163  0.0673 -0.3666
    1WF      WF69208   6.218   5.099   0.681 -0.1263  0.1076  0.1408
    1WF      WF69209  27.519   7.232   0.631 -0.0875  0.0460  0.1444
    1WF      WF69210  23.197   0.056   1.693 -0.0992 -0.1848 -0.2270
    1WF      WF69211  14.523   4.795   0.664  0.1632  0.0917  0.0386
    1WF      WF69212   7.225  21.895   9.609 -0.1475  0.0576 -0.1945
    1WF      WF69213  10.801  28.418   7.750 -0.0531  0.1156  0.0955
    1WF      WF69214  25.146  13.502   0.431 -0.0502  0.2574  0.1777
    1WF      WF69215   0.410  24.789   0.211  0.0436  0.2973  0.2171
    1WF      WF69216   7.107  13.836   0.366  0.0256  0.1229  0.0762
    1WF      WF69217  10.616   2.792   6.741 -0.0654 -0.0925  0.1507
    1WF      WF69218   1.057  16.575   8.875  0.3521  0.2993 -0.2727
    1WF      WF69219  12.357  15.433   8.432  0.1159  0.0772 -0.1722
    1WF      WF69220  11.174   1.624   0.347  0.1457 -0.1438  0.0117
    1WF      WF69221   1.932   1.015   9.296 -0.0090 -0.0331 -0.1131
    1WF      WF69222  11.013  24.760   2.062  0.1149 -0.1752 -0.0358
    1WF      WF69223  21.708   2.187   2.111  0.1609 -0.1996  0.0039
    1WF      WF69224   8.125  19.516   9.030  0.0590  0.1673 -0.0768
    1WF      WF69225  25.654  26.650   1.724  0.0498 -0.0394 -0.1120
    1WF      WF69226   5.315   8.021   9.127 -0.2407 -0.0573  0.4244
    1WF      WF69227  28.599  10.012   9.240  0.1208  0.2124  0.1895
    1WF      WF69228  24.518  23.972   0.680 -0.1639 -0.0708  0.1084
    1WF      WF69229  15.319   3.560   9.021  0.2252 -0.0286 -0.3418
    1WF      WF69230  28.297  24.652   9.521 -0.2234 -0.1254 -0.1056
    1WF      WF69231  17.747  12.695   1.636  0.3576 -0.2658 -0.0553
    1WF      WF69232   8.163  18.892   1.830 -0.0096 -0.0828 -0.1618
    1WF      WF69233  21.560   5.351   1.103  0.0862  0.0856 -0.0638
    1WF      WF69234  22.942  27.243   2.051  0.1805 -0.0523 -0.2470
    1WF      WF69235  16.969  16.287   0.061  0.0907  0.0146 -0.2541
    1WF      WF69236  18.837  29.292   8.600 -0.2050  0.1322 -0.0817
    1WF      WF69237  14.657  17.386   9.334  0.3634  0.0239  0.1506
    1WF      WF69238   8.354  17.439   1.537 -0.0075 -0.0044  0.1009
    1WF      WF69239  29.198  15.007   9.051  0.1403 -0.1739 -0.1262
    1WF      WF69240  13.194  23.211   7.378 -0.0862 -0.2421  0.1299
    1WF      WF69241   0.095  20.733   2.805 -0.1799  0.2004 -0.0949
    1WF      WF69242  19.741  23.252   2.383  0.5255  0.3296 -0.1052
    1WF      WF69243  18.953   3.247   8.576  0.1029  0.3913  0.1828
    1WF      WF69244   5.536  17.673   3.181 -0.3519 -0.2342 -0.1039
    1WF      WF69245   9.025  17.247   6.758  0.1549  0.3462  0.1643
    1WF      WF69246   4.733  12.896   0.666  0.1020 -0.2330 -0.0672
    1WF      WF69247  17.547  27.103   9.313 -0.3177  0.0935  0.1149
    1WF      WF69248  12.525   1.574   9.140  0.3012 -0.1144 -0.0957
    1WF      WF69249  20.196  28.600   0.660  0.0325  0.0258  0.1195
    1WF      WF69250  17.238  14.202   0.459  0.2220  0.1905  0.3053
    1WF      WF69251  23.004  25.425   1.261  0.1537 -0.2222  0.0039
    1WF      WF69252  11.441  29.227   1.124 -0.2930 -0.2945 -0.2703
    1WF      WF69253  28.182  22.354   1.347  0.2500  0.2717 -0.5714
    1WF      WF69254  22.460  29.418   0.180  0.2375 -0.2099 -0.1366
    1WF      WF69255   0.569  21.011   2.754  0.0548  0.2290  0.1274
    1WF      WF69256   9.889   4.482   6.974 -0.0087 -0.1152  0.1925
    1WF      WF69257  22.508  25.249   2.634 -0.0206 -0.0554 -0.0580
    1WF      WF69258  16.107   1.973   9.455  0.2745  0.1066 -0.1905
    1WF      WF69259  24.179   1.076   2.213 -0.1254 -0.2053  0.0466
    1WF      WF69260  10.017  26.131   6.806  0.0726  0.2174  0.0049
    1WF      WF69261  17.887  20.317   9.354 -0.1796 -0.0868  0.2092
    1WF      WF69262  19.207  15.620   7.253  0.0901 -0.0679 -0.0763
    1WF      WF69263   3.388  13.511   9.327 -0.1253 -0.0471  0.2890
    1WF      WF69264   1.309  27.665   1.651 -0.2966 -0.1339 -0.2439
    1WF      WF69265  16.476  26.915   7.516 -0.2848 -0.1517 -0.2992
    1WF      WF69266   0.042  26.615   0.950 -0.1295 -0.1698  0.0484
    1WF      WF69267  28.283  10.669   8.201 -0.3592 -0.0382 -0.1297
    1WF      WF69268  21.937  14.241   8.299  0.2696 -0.1674 -0.1665
    1WF      WF69269   8.402  18.182   9.487  0.0092  0.0439 -0.4722
    1WF      WF69270  27.003  20.878   1.560  0.2787  0.0213 -0.0683
    1WF      WF69271  13.478   2.334   1.085 -0.3359 -0.2290  0.4519
    1WF      WF69272  17.502  15.816   8.457  0.3580  0.2223  0.0361
    1WF      WF69273   6.531  18.837   8.819 -0.1438  0.0962 -0.1025
    1WF      WF69274   1.162  17.032   8.334 -0.0509  0.0269 -0.0698
    1WF      WF69275  12.148  21.267   8.727  0.2211  0.0950  0.0211
    1WF      WF69276  20.615  26.077   1.494  0.2872  0.0061 -0.0403
    1WF      WF69277   8.144  11.473   0.266 -0.3036  0.0862  0.1978
    1WF      WF69278  14.878   3.452   9.217  0.1656 -0.3409  0.1770
    1WF      WF69279   1.721  24.245   0.282  0.0975  0.0253 -0.1809
    1WF      WF69280  28.383  19.962   2.010 -0.1575 -0.3935 -0.0938
    1WF      WF69281  26.808  28.407   8.568 -0.0152  0.1194  0.0350
    1WF      WF69282  23.220  23.083   8.212 -0.0673  0.2175  0.1288
    1WF      WF69283  18.573   8.320   8.787  0.0181  0.0661  0.0395
    1WF      WF69284   5.885   3.326   8.009  0.1932  0.0758 -0.1669
    1WF      WF69285  25.057  28.077   1.270 -0.0938  0.0558  0.0499
    1WF      WF69286   2.545   6.917   7.935 -0.0548 -0.2274  0.2358
    1WF      WF69287  16.077  24.354   0.108  0.0167  0.2976  0.1166
    1WF      WF69288  27.374  13.581   8.263  0.2120 -0.1448  0.2045
    1WF      WF69289  14.178  23.800   0.830 -0.1691 -0.1597  0.0691
    1WF      WF69290  27.711  20.027   0.008 -0.1157  0.2072  0.0740
    1WF      WF69291  12.691  17.743   0.036  0.1688 -0.0452  0.2477
    1WF      WF69292  21.620  26.965   7.301  0.1595  0.1062 -0.0612
    1WF      WF69293  22.671  28.077   8.318  0.2163  0.1471  0.2368
    1WF      WF69294  12.731  24.496   9.032 -0.0394 -0.0710 -0.0968
    1WF      WF69295  26.175   4.378   0.664 -0.3207  0.0015 -0.0797
    1WF      WF69296   5.636  12.596   0.159 -0.0342  0.0303  0.0414
    1WF      WF69297  22.928   9.098   9.553  0.0845 -0.1755 -0.0868
    1WF      WF69298   5.939  16.068   1.227 -0.1202 -0.0101  0.0846
    1WF      WF69299  18.505   2.337   7.839  0.0205  0.2937 -0.0951
    1WF      WF69300   8.990  23.301   9.348 -0.0336  0.0531  0.2970
    1WF      WF69301   4.619  19.844   1.180  0.0486  0.1064  0.3126
    1WF      WF69302   5.408   8.707   7.749 -0.0391  0.2228 -0.3091
    1WF      WF69303  18.966   9.166   0.504 -0.0457  0.0971 -0.2589
    1WF      WF69304   8.629  26.277   2.349  0.0985  0.0003 -0.3818
    1WF      WF69305  19.971   7.884   1.371  0.0725  0.0279 -0.2041
    1WF      WF69306   7.027  24.832   0.853  0.2963 -0.0554 -0.0681
    1WF      WF69307  15.754  13.750   8.813 -0.1515 -0.0809  0.2157
    1WF      WF69308  12.905  17.871   2.640  0.1822 -0.3086  0.0421
    1WF      WF69309  29.285   0.257   3.203  0.1145  0.0069 -0.1038
    1WF      WF69310   4.162  16.425   0.731  0.1792  0.3673 -0.2399
    1WF      WF69311  25.136  22.200   8.896  0.1265 -0.0115  0.0302
    1WF      WF69312  25.230  27.545   1.436  0.0862  0.2711  0.2418
    1WF      WF69313  11.404  13.783   6.116 -0.2092 -0.0406 -0.0302
    1WF      WF69314  13.876  15.276   8.304  0.0174 -0.0656  0.0748
    1WF      WF69315  16.087  25.855   8.981  0.0673  0.3445 -0.1854
    1WF      WF69316  13.573  19.307   1.367 -0.1219 -0.0642 -0.0702
    1WF      WF69317  24.785  13.305   8.784 -0.0186 -0.1138  0.1018
    1WF      WF69318   1.357  24.221   2.279  0.0986  0.0137  0.0178
    1WF      WF69319   3.452  10.737   9.472  0.2059  0.1501 -0.1532
    1WF      WF69320  14.359  15.761   1.052 -0.0729  0.0618 -0.2484
    1WF      WF69321  12.942  12.538   0.867  0.0760 -0.0895  0.0843
    1WF      WF69322  27.977  13.978   8.678  0.0025  0.0358 -0.1927
    1WF      WF69323  17.335   7.567   7.264 -0.2577  0.0883 -0.0735
    1WF      WF69324  23.212  23.949   2.017 -0.1448 -0.2302  0.0910
    1WF      WF69325  29.153  20.684   2.550 -0.0047 -0.0368 -0.1814
    1WF      WF69326  16.623  22.411   2.170  0.0024 -0.3213  0.2462
    1WF      WF69327  11.130   4.634   0.678 -0.2349  0.0768 -0.2425
    1WF      WF69328  13.622   1.919   0.842  0.0127 -0.1945 -0.1178
    1WF      WF69329  26.427   6.004   6.577 -0.1828 -0.0859 -0.1720
    1WF      WF69330  26.254   9.330   8.263  0.1482 -0.0534 -0.0283
    1WF      WF69331  26.332  17.479   0.714 -0.1369 -0.1073  0.0434
    1WF      WF69332  27.135  15.837   2.778  0.2924 -0.0613  0.1635
    1WF      WF69333   2.338  25.141   7.735 -0.1539 -0.1705  0.2446
    1WF      WF69334  19.801   5.061   8.996 -0.1535  0.2102 -0.2126
    1WF      WF69335   4.510   4.846   0.216 -0.0226  0.0006 -0.2048
    1WF      WF69336  20.197  28.044   0.633  0.2931  0.2185  0.1620
    1WF      WF69337   7.701  19.622   2.679 -0.0603 -0.1443  0.0221
    1WF      WF69338  20.708  26.215   9.581  0.1858  0.0682 -0.0428
    1WF      WF69339  25.784  20.241   1.420 -0.1939  0.1097 -0.0017
    1WF      WF69340  14.977  12.978   1.175  0.2440  0.1670  0.1374
    1WF      WF69341  12.297  13.770   7.823  0.3973  0.0797 -0.1410
    1WF      WF69342  21.673  14.208   0.942 -0.2348 -0.0596  0.0488
    1WF      WF69343   9.053  26.843   7.416  0.0845  0.3072 -0.0081
    1WF      WF69344  21.526   1.290   8.974  0.1227 -0.2231 -0.1286
    1WF      WF69345  28.030  20.301   1.649  0.1039 -0.1631 -0.1662
    1WF      WF69346  24.845  27.632   1.056 -0.1727  0.0409  0.1336
    1WF      WF69347  27.199  20.531   1.870  0.1512  0.2075 -0.0451
    1WF      WF69348  23.694  25.313   8.418  0.0691 -0.3599 -0.0510
    1WF      WF69349  19.792   7.414   1.276  0.3191  0.0202 -0.1903
    1WF      WF69350   7.949  12.813   8.894 -0.2173 -0.4179  0.1182
    1WF      WF69351   7.505  22.920   1.380  0.0398 -0.0903 -0.2133
    1WF      WF69352  19.323  15.175   1.374 -0.1727 -0.2242 -0.4734
    1WF      WF69353  25.374  24.049   8.705  0.1196  0.0075  0.0314
    1WF      WF69354  13.855  18.577   6.765  0.0316 -0.0558 -0.0406
    1WF      WF69355  15.262  27.540   2.847  0.0650 -0.2176 -0.1028
    1WF      WF69356   4.165  16.989   0.654  0.2238 -0.2369 -0.1765
    1WF      WF69357  22.396  12.582   0.372 -0.1454  0.0679  0.1664
    1WF      WF69358  24.279  26.313   0.967  0.0115  0.0863 -0.1805
    1WF      WF69359   2.557  20.720   6.576  0.2501  0.1938  0.2144
    1WF      WF69360   8.030  11.887   0.064 -0.0796 -0.0142  0.0989
    1WF      WF69361   4.275   3.732   8.206 -0.2317  0.3014 -0.1177
    1ION     NA69362  12.352   2.369   0.333 -0.2674  0.2497  0.2572
    1ION     NA69363  25.426  25.184   3.385  0.0343 -0.2468  0.0009
    1ION     NA69364   0.462  25.837   3.096  0.0970 -0.0989 -0.2033
    1ION     NA69365  20.875  13.766   2.499  0.2040  0.3218  0.1730
    1ION     NA69366  17.150  20.528   1.778 -0.0358 -0.0848  0.0059
    1ION     NA69367   7.994  15.147   2.656 -0.1855 -0.2331  0.0625
    1ION     NA69368   2.362  22.057   7.812  0.2502 -0.2315 -0.3847
    1ION     NA69369   8.106   4.215   7.351 -0.2679  0.2026  0.1806
    1ION     NA69370  14.811  18.834   9.554  0.1760  0.0159  0.0374
    1ION     NA69371   7.234   3.746   2.720  0.0206  0.0166 -0.0012
    1ION     NA69372  26.773   3.209   8.381 -0.0378 -0.0882 -0.2589
    1ION     NA69373  25.432  10.666   0.366 -0.0053 -0.1045  0.0707
    1ION     NA69374   3.989   4.528   8.475  0.2155 -0.0184  0.0130
    1ION     NA69375  25.148  15.676   8.767 -0.0050  0.0364  0.0129
    1ION     NA69376  27.319  16.638   7.081  0.2144  0.0715  0.0000
    1ION     NA69377  28.466   4.003   0.939 -0.2692  0.0094  0.0843
    1ION     NA69378  24.058   9.375   0.988 -0.0833  0.0754 -0.1121
    1ION     NA69379  18.764  25.017   7.269 -0.1152  0.0288  0.1297
    1ION     NA69380  16.734  20.344   2.937 -0.0431 -0.1076  0.0024
    1ION     NA69381  14.659  27.121   8.379 -0.1151 -0.0637 -0.0461
    1ION     NA69382  26.988   9.301   2.228 -0.0836  0.2778 -0.0611
    1ION     NA69383  13.490  24.388   6.249 -0.3247  0.0522  0.0875
    1ION     NA69384  28.559  23.283   3.562  0.2950  0.0098 -0.0552
    1ION     NA69385   6.183  23.353   6.943 -0.1035  0.2135 -0.1119
    1ION     NA69386  24.225  17.251   9.009 -0.1484 -0.0323  0.2416
    1ION     NA69387  28.132  19.824   1.453  0.1421  0.1418  0.0484
    1ION     NA69388  14.651   5.203   1.974  0.0401 -0.0017 -0.1335
    1ION     NA69389   1.693  29.407   2.686 -0.0256  0.1126 -0.0965
    1ION     NA69390  20.549  23.394   3.012 -0.0287 -0.2096 -0.1045
    1ION     NA69391   2.507  15.138   6.277 -0.0842  0.0052 -0.0955
    1ION     NA69392   9.084  27.012   9.267  0.0632 -0.1523  0.0345
    1ION     NA69393   1.464  15.128   2.560  0.0641 -0.0630 -0.0075
    1ION     NA69394   3.567   6.861   0.167 -0.0321 -0.1752 -0.1814
    1ION     NA69395  12.876  16.049   2.548  0.0618  0.2592  0.1154
    1ION     NA69396  20.574  21.698   7.338  0.0481  0.1067  0.0498
    1ION     NA69397  22.775  15.658   8.139 -0.0723 -0.1223 -0.3514
    1ION     NA69398   6.685   4.790   9.428 -0.0951  0.1396  0.0526
    1ION     NA69399   2.639  27.389   3.081 -0.1135  0.1622  0.0906
    1ION     NA69400  11.304   7.180   6.237  0.1803 -0.1209  0.0794
    1ION     NA69401  14.678  17.781   0.208  0.0880 -0.1298 -0.0821
    1ION     NA69402   5.635  25.558   2.365 -0.0214 -0.0420 -0.1651
    1ION     NA69403   3.239  27.853   6.610 -0.0545  0.0934  0.0857
    1ION     NA69404   2.914  11.764   2.512 -0.3301  0.0256  0.4040
    1ION     NA69405  11.923  16.027   7.702 -0.0045 -0.1458 -0.0869
    1ION     NA69406  18.871   7.305   8.763 -0.1110  0.0729  0.3429
    1ION     NA69407  21.300  22.664   2.382  0.0907 -0.2873 -0.1636
    1ION     NA69408  12.276  23.085   6.294 -0.3136  0.0545  0.0782
    1ION     NA69409   6.415  15.848   1.259 -0.0579  0.0399  0.0414
    1ION     NA69410   6.979  25.457   6.183 -0.3409  0.2547  0.1063
    1ION     NA69411  16.218  24.555   1.233  0.0792 -0.0222 -0.0632
    1ION     NA69412  24.716   0.029   3.160 -0.1075  0.1684  0.0607
    1ION     NA69413  22.318  23.859   0.327 -0.3442  0.2811 -0.0350
    1ION     NA69414  15.996  23.978   9.447  0.0300 -0.1359  0.2534
    1ION     NA69415  16.294  26.233   0.790 -0.2368  0.1856  0.0323
    1ION     NA69416  18.735   3.922   9.121  0.2258  0.0328  0.0721
    1ION     NA69417  10.597   6.873   0.132 -0.1817  0.0439  0.0242
    1ION     NA69418  24.712  10.749   7.378  0.0864  0.3203  0.2942
    1ION     NA69419  28.504  18.147   1.703 -0.4619 -0.0017 -0.3430
    1ION     NA69420  20.678  16.556   3.276 -0.4158  0.2543 -0.1290
    1ION     NA69421  11.369   1.429   8.923 -0.0652  0.1259  0.0299
    1ION     NA69422   6.053  12.174   7.312 -0.0196 -0.0899  0.2864
    1ION     NA69423  21.241  18.389   7.227 -0.2476  0.2759  0.1785
    1ION     NA69424  17.759  14.829   7.518  0.0715 -0.0011 -0.1026
    1ION     NA69425   4.932  20.685   8.885  0.3521 -0.0180 -0.0938
    1ION     NA69426  29.363  19.368   0.182  0.0240 -0.0942  0.0260
    1ION     NA69427  24.870  11.856   9.165 -0.2035  0.0330  0.1827
    1ION     NA69428   3.573  19.865   3.499  0.0232  0.0303 -0.2008
    1ION     NA69429  19.628  25.719   4.052  0.1217 -0.2525 -0.0453
    1ION     NA69430   8.547  19.712   2.537  0.2531  0.2224  0.1561
    1ION     NA69431  14.410   5.693   9.213  0.0451  0.0883  0.2593
    1ION     NA69432   3.277   5.829   6.858 -0.0457 -0.0008 -0.0112
    1ION     NA69433   4.726  22.241   8.367  0.1339 -0.2140 -0.1048
    1ION     NA69434   3.527  24.743   7.316  0.0853 -0.2667  0.0240
    1ION     NA69435  16.413  12.253   6.784  0.1349  0.0267  0.0924
    1ION     NA69436   6.505  16.992   8.185  0.2701  0.0217  0.2450
    1ION     NA69437  10.783  29.097   3.031  0.0508  0.2073 -0.1173
    1ION     NA69438   9.444  13.753   0.444  0.0939  0.1175 -0.0567
    1ION     NA69439  25.744  21.102   3.119  0.2461  0.0663 -0.1605
    1ION     NA69440  26.545   7.948   0.110 -0.2376  0.1306  0.0739
    1ION     NA69441   1.180  21.936   3.575  0.2895  0.0881  0.0700
    1ION     NA69442  20.414  22.320   1.029 -0.0823  0.1316  0.0137
    1ION     NA69443  22.783  25.399   8.930 -0.1645  0.0996  0.0897
    1ION     NA69444  24.756  13.001   2.879  0.1320 -0.1648 -0.1985
    1ION     NA69445  23.505  25.809   8.604  0.2875  0.0805 -0.0694
    1ION     NA69446   5.886  26.214   1.208 -0.4319  0.2785  0.0911
    1ION     NA69447  28.571  10.825   7.746  0.0153 -0.2065  0.3283
    1ION     NA69448  23.761   5.253   0.600  0.1927  0.1079  0.0337
    1ION     NA69449  22.440  14.391   8.558 -0.0143  0.1786 -0.1000
    1ION     NA69450  17.589  21.486   9.129  0.0590  0.3301 -0.0983
    1ION     NA69451  20.533  10.413   7.972 -0.1856 -0.0158 -0.1747
    1ION     NA69452  17.746   4.754   8.170 -0.0202 -0.0959 -0.4431
    1ION     NA69453  19.451   6.489   1.859  0.0931  0.3271 -0.1754
    1ION     NA69454  25.660  16.933   2.656  0.0427  0.1150  0.0561
    1ION     NA69455  27.633  26.240   0.126  0.1887 -0.2611  0.1589
    1ION     NA69456  21.834  20.848   1.377  0.0393  0.1503  0.0839
    1ION     NA69457  21.321  16.563   1.832 -0.3696  0.0356 -0.2895
    1ION     NA69458  28.395  19.284   0.208 -0.1881 -0.0209 -0.2553
    1ION     NA69459  10.173  17.734   6.792 -0.1253  0.3922 -0.1910
    1ION     NA69460  16.748  21.106   8.498  0.0466  0.0632  0.0624
    1ION     NA69461  17.695  15.536   2.899  0.2009  0.0133 -0.1196
    1ION     NA69462  16.601  10.698   9.571  0.0902 -0.1195 -0.1002
    1ION     NA69463   3.966   2.233   7.810  0.1746 -0.0143  0.1233
    1ION     NA69464  19.230  24.474   8.834 -0.0194  0.1149  0.1279
    1ION     NA69465  27.605   3.792   9.152 -0.1363  0.2885  0.0946
    1ION     NA69466   8.416   1.863   0.230 -0.2544 -0.0010  0.0974
    1ION     NA69467   0.700  12.758   9.363  0.1502 -0.2525 -0.0839
    1ION     NA69468  19.426  13.626   8.957  0.1092  0.0561 -0.2385
    1ION     NA69469   6.788   3.769   8.847  0.0567 -0.0823 -0.4939
    1ION     NA69470   4.575  11.452   5.644 -0.2403 -0.3373  0.1454
    1ION     NA69471  13.474  10.352   6.276  0.2427 -0.1949  0.0798
    1ION     NA69472  24.175  20.887   1.640  0.0871 -0.2430  0.2041
    1ION     NA69473  26.627  20.066   7.357  0.1755  0.2480 -0.0928
    1ION     NA69474   2.481  13.907   8.064 -0.1282  0.0127 -0.1843
    1ION     NA69475  21.767   2.594   3.215 -0.2551 -0.0095  0.0312
    1ION     NA69476  13.644  14.300   6.715  0.1656 -0.0052 -0.3105
    1ION     NA69477   2.484  27.868   3.089 -0.3347 -0.1405  0.0908
    1ION     NA69478   3.210  10.115   1.822 -0.2075  0.1359  0.3744
    1ION     NA69479  16.167  16.632   2.768 -0.1601  0.0610 -0.1313
    1ION     NA69480   1.224  15.766   8.630 -0.4876 -0.0578 -0.0182
    1ION     NA69481   8.696  20.444   7.259 -0.1470  0.0940  0.3304
    1ION     NA69482   1.626  13.421   6.567  0.2484  0.0985  0.1683
    1ION     NA69483  24.594  15.778   2.561  0.3644 -0.0285 -0.2177
    1ION     NA69484   4.554  18.146   2.669 -0.1492 -0.0243 -0.0283
    1ION     NA69485   9.772   3.271   9.622  0.0577  0.0985 -0.4121
    1ION     NA69486  14.446  16.202   7.144  0.2712 -0.1077 -0.4721
    1ION     NA69487  27.914   1.238   8.768 -0.0887 -0.0648 -0.2514
    1ION     NA69488   4.219  17.146   1.426 -0.1703  0.0327  0.0099
    1ION     NA69489  19.670   3.183   6.748  0.0676 -0.2360 -0.1070
    1ION     NA69490  19.771   5.709   7.739  0.1327  0.0947 -0.3166
    1ION     NA69491   2.818  13.992   1.983 -0.1317  0.2742 -0.1867
    1ION     NA69492  11.179  17.819   1.168  0.0016 -0.0470  0.2556
    1ION     NA69493  16.409  20.744   1.378  0.4099 -0.2068 -0.0770
    1ION     NA69494   0.554  21.511   8.067  0.0600  0.0465  0.0698
    1ION     NA69495  21.864   6.444   8.866  0.0646 -0.0002 -0.3245
    1ION     NA69496   3.519   3.646   2.687  0.1040 -0.0112 -0.0522
    1ION     NA69497  29.246  18.986   8.896  0.0549  0.1626  0.4658
    1ION     NA69498  13.032  17.872   0.796 -0.0278  0.0590  0.3467
    1ION     NA69499  16.886   6.148   1.871 -0.3434  0.0711 -0.0016
    1ION     NA69500  25.823  22.088   7.247  0.2664 -0.0712 -0.1056
    1ION     NA69501   9.735   9.285   6.894  0.2205 -0.1106  0.0481
    1ION     NA69502   4.199  18.484   6.995 -0.0898 -0.2151 -0.2413
    1ION     NA69503  11.877  13.820   6.427  0.1589 -0.1303 -0.2050
    1ION     NA69504   0.197   5.934   1.421  0.1580 -0.2854  0.1586
    1ION     NA69505  12.851   5.759   2.529  0.2132 -0.0430  0.1157
    1ION     NA69506  26.082   9.653   1.001  0.2933 -0.1234  0.0672
    1ION     NA69507  26.674   2.675   1.945 -0.1626 -0.0612  0.0576
    1ION     NA69508  11.366  23.007   6.305 -0.1553 -0.2088  0.2199
    1ION     NA69509   9.603  23.875   0.397 -0.1802 -0.0250 -0.0612
    1ION     NA69510   4.291   4.119   6.279 -0.2574 -0.0941  0.2113
    1ION     NA69511  23.518   8.110   7.994  0.0672 -0.1003 -0.0342
    1ION     NA69512   0.105  22.329   3.742 -0.0059 -0.0067  0.2787
    1ION     NA69513  23.871  18.831   2.532 -0.1836 -0.1451 -0.3827
    1ION     NA69514  29.285   3.180   6.692 -0.2076  0.0454 -0.3445
    1ION     NA69515   8.396  20.103   3.087  0.1549 -0.0989  0.1560
    1ION     NA69516  14.469  28.456   0.466  0.1519 -0.1063  0.0463
    1ION     NA69517  14.535  22.699   2.654  0.0093 -0.3576  0.0686
    1ION     NA69518  27.479  23.403   7.436 -0.1869 -0.3350 -0.0967
    1ION     NA69519  14.180   9.636   9.612 -0.2631  0.2492  0.0385
    1ION     NA69520  12.349   2.048   2.662  0.0297 -0.1030 -0.3276
    1ION     NA69521  16.376   8.573   6.930 -0.0432  0.0761 -0.4684
    1ION     NA69522   7.927  11.164   1.375 -0.1123  0.2233 -0.1120
    1ION     NA69523  14.038  17.091   7.513 -0.0900  0.0285 -0.3019
    1ION     NA69524   1.588  10.159   0.116 -0.1984 -0.0245 -0.0872
    1ION     NA69525  16.525  23.213   2.920  0.1997  0.0631 -0.0584
    1ION     NA69526   2.417  28.228   6.872 -0.2089  0.0757 -0.2612
    1ION     NA69527  26.722   5.518   6.537 -0.0949  0.0600 -0.1822
    1ION     NA69528   3.900  21.980   0.815  0.3034  0.1539 -0.1556
    1ION     NA69529  18.799  16.339   0.857 -0.1856 -0.0388 -0.0856
    1ION     NA69530   8.797   9.967   0.591 -0.0513  0.0959  0.1832
    1ION     NA69531  16.446  10.662   8.170 -0.1290 -0.2693  0.1543
    1ION     NA69532  23.798  19.134   6.761 -0.0440 -0.1107 -0.0519
    1ION     NA69533  23.564  29.036   8.329 -0.0397 -0.2794 -0.0861
    1ION     NA69534  17.542  11.014   2.142  0.0830  0.0233  0.1175
    1ION     NA69535   4.342  18.434   8.403  0.0661 -0.0446 -0.2680
    1ION     NA69536   6.690  27.409   0.564  0.0520  0.0364  0.0334
    1ION     NA69537  25.090  13.806   2.592  0.0838 -0.4003 -0.0296
    1ION     NA69538  14.703   3.290   6.238  0.1319  0.1493  0.0665
    1ION     NA69539  24.922  24.259   3.688  0.1056  0.1828  0.0665
    1ION     NA69540  11.417  10.921   9.307 -0.4041 -0.5666 -0.1256
    1ION     NA69541  14.560  23.821   6.652  0.0361  0.6152 -0.2620
    1ION     NA69542  16.715   7.917   0.466 -0.0412  0.0850 -0.3759
    1ION     NA69543  13.939   8.874   2.805  0.0276 -0.2295  0.2830
    1ION     NA69544  25.766  14.097   6.929 -0.0965 -0.1129  0.0903
    1ION     NA69545  21.298  23.698   7.696 -0.0806  0.0459  0.1820
    1ION     NA69546  11.104   7.048   0.294  0.2117  0.0640  0.0665
    1ION     NA69547   4.197  19.270   6.764 -0.2162 -0.1684 -0.2954
    1ION     NA69548  10.680   5.255   6.018  0.2196 -0.0607 -0.3633
    1ION     NA69549  29.073  11.483   6.723 -0.0289 -0.2316 -0.1917
    1ION     NA69550  18.531  21.230   1.928 -0.1349  0.0323  0.1744
    1ION     NA69551  21.651   1.624   6.905 -0.1488 -0.0559 -0.1774
    1ION     NA69552   4.383  22.052   9.193 -0.3531  0.1626 -0.0174
    1ION     NA69553  14.279  20.061   2.601  0.1711  0.2986 -0.4116
    1ION     NA69554  26.060  28.217   0.528 -0.0861  0.0425 -0.1350
    1ION     NA69555  10.411   2.921   7.257 -0.4952 -0.2179  0.2581
    1ION     NA69556  22.458   7.589   7.060 -0.2382  0.1472 -0.0004
    1ION     NA69557   3.754   2.060   6.074 -0.0153  0.2667 -0.3296
    1ION     NA69558  21.277  26.700   8.294 -0.2434 -0.1124  0.0889
    1ION     NA69559  23.517   9.498   8.448 -0.1967  0.3814  0.2229
    1ION     NA69560   3.066   8.905   8.991 -0.2447  0.0311 -0.1768
    1ION     NA69561  16.438   2.288   2.988 -0.1070 -0.0545  0.3011
    1ION     NA69562   9.516  24.806   7.197 -0.0183 -0.0813  0.1011
    1ION     NA69563   4.400   6.665   1.297 -0.0877 -0.0703 -0.2908
    1ION     NA69564  17.776  20.456   0.207  0.0046 -0.0098 -0.2228
    1ION     NA69565  23.053  24.206   7.478 -0.0834 -0.4098 -0.0891
    1ION     NA69566   5.158   8.442   8.183 -0.2635  0.1706 -0.1965
    1ION     NA69567   8.790   0.577   8.036 -0.0380  0.0701 -0.0283
    1ION     NA69568  26.998   3.436   2.648 -0.1807  0.0660 -0.2048
    1ION     NA69569   7.478   7.748   1.215 -0.1275  0.0954  0.0416
    1ION     NA69570  25.999   5.002   6.287 -0.0474  0.1975 -0.0768
    1ION     NA69571   5.877   6.796   7.186 -0.0799  0.2443  0.0983
    1ION     NA69572  18.812   6.992   1.540  0.3837  0.0526 -0.2542
    1ION     NA69573   7.392   1.052   6.472  0.6783 -0.1157 -0.0984
    1ION     NA69574   1.437  21.010   7.495  0.0206  0.2758 -0.1479
    1ION     NA69575  23.223  27.037   1.672 -0.1052 -0.1760  0.0235
    1ION     NA69576   1.800   5.459   5.780  0.1523  0.1128  0.0527
    1ION     NA69577  18.144   5.426   9.051 -0.1026 -0.0566 -0.0589
    1ION     NA69578  19.437  21.236   1.003 -0.0404 -0.2040  0.0137
    1ION     NA69579  20.495  25.134   3.621  0.3238  0.0454  0.0607
    1ION     NA69580   2.705  17.086   2.852 -0.0596  0.2292  0.0760
    1ION     NA69581  16.834  13.807   7.594 -0.0608  0.1617  0.0532
    1ION     NA69582   9.346  14.236   6.240  0.2254  0.1439  0.1324
    1ION     NA69583  14.668   9.530   8.023 -0.0425 -0.4274  0.1979
    1ION     NA69584  19.407  14.317   9.596 -0.2745  0.0489  0.1726
    1ION     NA69585   3.867   6.148   0.906  0.1577  0.2189  0.1034
    1ION     NA69586   1.100   0.805   3.131  0.3227 -0.1757 -0.0215
    1ION     NA69587   1.139  10.878   2.378  0.1153 -0.0007  0.0896
    1ION     NA69588  16.054   1.263   8.163  0.0218  0.1628 -0.3026
    1ION     NA69589  28.666  23.172   1.807 -0.3940  0.5040 -0.0266
    1ION     NA69590  22.698   4.568   3.001  0.1683 -0.0981 -0.1467
    1ION     NA69591  18.647  10.741   6.982  0.0705 -0.0281  0.0511
    1ION     NA69592   0.309  28.036   6.708  0.1632 -0.1505  0.0535
    1ION     NA69593   0.180  17.259   3.334  0.0369 -0.1062  0.0588
    1ION     NA69594  13.355  17.791   7.461  0.0060  0.0176  0.2211
    1ION     NA69595  15.470  16.472   1.170  0.1387 -0.3789 -0.0492
    1ION     NA69596   4.738   1.889   6.124 -0.2129 -0.1411 -0.0848
    1ION     NA69597  27.260   6.990   2.339  0.1491  0.1223  0.0048
    1ION     NA69598   7.320   6.077   7.578 -0.1948 -0.0437  0.1290
    1ION     NA69599  26.301  13.268   7.070 -0.1792  0.3216  0.4025
    1ION     NA69600  28.277  17.692   3.392  0.1219  0.0453 -0.0854
    1ION     NA69601  23.989   9.889   9.061 -0.2510  0.0080  0.4291
    1ION     NA69602  23.037  23.486   8.371  0.1410  0.3189 -0.0460
    1ION     NA69603  26.035  24.940   8.298  0.2368 -0.0031  0.1166
    1ION     NA69604  18.045  25.094   1.451  0.0437 -0.0018 -0.1280
    1ION     NA69605  25.708   5.748   2.353  0.0560 -0.3107 -0.0954
    1ION     NA69606  13.866   9.657   5.913  0.1689  0.0210 -0.0445
    1ION     NA69607  11.579   0.827   1.941  0.1806 -0.0821 -0.1966
    1ION     NA69608  16.368  12.892   9.178 -0.0731  0.1195  0.0291
    1ION     NA69609   8.956  10.489   2.020 -0.0683 -0.2874  0.1477
    1ION     NA69610  29.438  29.457   8.235 -0.0118  0.0341  0.1141
    1ION     NA69611  24.679   0.850   8.078  0.1493  0.2568  0.0950
    1ION     NA69612   0.503  23.927   1.383 -0.1074  0.0045  0.2254
    1ION     NA69613  27.796  18.536   3.267 -0.2888  0.3570 -0.3408
    1ION     NA69614   9.113   6.719   8.085  0.1498  0.0759  0.1771
    1ION     NA69615   8.748  19.060   9.102  0.3574 -0.0989 -0.0155
    1ION     NA69616  15.227  22.313   2.954  0.1221  0.0553 -0.1550
    1ION     NA69617  11.199   3.190   2.879 -0.1517  0.0411 -0.4585
    1ION     NA69618   1.572   3.253   6.467  0.3323 -0.1218  0.0102
    1ION     NA69619  29.618   9.479   8.113 -0.2217  0.0901 -0.1732
    1ION     NA69620  27.792   1.619   2.919 -0.3405 -0.0114 -0.0300
    1ION     NA69621   4.353   6.778   2.323  0.1242  0.0095 -0.1953
    1ION     NA69622  19.874  16.904   3.213 -0.0522 -0.1239  0.2261
    1ION     NA69623  22.846  12.604   2.532 -0.1517 -0.0054  0.1578
    1ION     NA69624  27.099  18.160   1.939  0.0743  0.1157 -0.1510
    1ION     NA69625  15.124  10.925   6.610 -0.1596 -0.2656  0.0135
    1ION     NA69626  20.775   1.426   3.451  0.2916 -0.2783  0.2516
    1ION     NA69627  20.605   6.488   6.962 -0.1242 -0.1291 -0.0490
    1ION     NA69628   9.463   7.941   6.288  0.0619  0.4148 -0.0278
    1ION     NA69629  16.174   5.887   2.255 -0.0634  0.1327 -0.2400
    1ION     NA69630  21.794  26.779   7.715  0.0573  0.0911 -0.0306
    1ION     NA69631  16.298   5.086   0.891 -0.2203  0.0298  0.3304
    1ION     NA69632   4.514  16.516   7.977 -0.0449  0.1755  0.0742
    1ION     NA69633   8.288   1.364   5.708 -0.2374  0.3550  0.2234
    1ION     NA69634  28.020   8.095   6.923 -0.0834  0.2409 -0.0981
    1ION     NA69635   1.568   6.536   6.045 -0.1477 -0.1253  0.1865
    1ION     NA69636   1.341   4.305   8.409 -0.0278  0.1856 -0.0373
    1ION     NA69637   3.055   8.112   1.418  0.3259  0.1066  0.0657
    1ION     NA69638  14.328  18.821   8.543 -0.1529  0.1188  0.0363
    1ION     NA69639   7.666   6.975   1.986 -0.0352 -0.0993 -0.3326
    1ION     NA69640  11.296   9.416   2.138 -0.0006  0.0249  0.1933
    1ION     NA69641   5.087  15.241   0.150 -0.0992  0.0981 -0.3474
    1ION     NA69642   8.007  23.505   3.047  0.3222 -0.0079  0.0850
    1ION     NA69643  28.948  21.466   0.334  0.0236 -0.2917 -0.1451
    1ION     NA69644   4.621   8.721   7.593 -0.2340  0.0534  0.0364
    1ION     NA69645   7.528   7.315   6.430  0.5105  0.2455  0.0790
    1ION     NA69646  23.145   0.862   2.226  0.1790  0.3143  0.2306
    1ION     NA69647  24.622   7.501   1.161 -0.1687 -0.0361 -0.0475
    1ION     NA69648  18.948  18.495   0.620  0.1384 -0.2906 -0.1177
    1ION     NA69649  27.169   0.620   3.071  0.3736 -0.1441  0.3539
    1ION     NA69650   1.735  16.338   0.474  0.0972 -0.0345  0.2682
    1ION     NA69651  28.486   4.573   8.728 -0.3106  0.1521  0.0474
    1ION     NA69652   1.222   4.705   2.024  0.1241 -0.0312 -0.1862
    1ION     NA69653  26.453   7.121   0.448  0.2886 -0.0232 -0.0734
    1ION     NA69654  23.256   6.572   8.317 -0.0331  0.2845  0.1257
    1ION     NA69655  21.737  22.701   0.952 -0.0781 -0.3369  0.0052
    1ION     NA69656  24.352  13.116   9.018 -0.0671 -0.4190  0.1853
    1ION     NA69657   6.868  17.823   2.162  0.2012  0.2582 -0.1458
    1ION     NA69658  13.390  29.165   2.145  0.2164 -0.1260 -0.0578
    1ION     NA69659  26.332   1.600   0.001 -0.1516  0.0488 -0.0751
    1ION     NA69660  28.644   8.913   9.646 -0.0747 -0.4229  0.0512
    1ION     NA69661  13.032   1.144   1.169  0.3765 -0.1954  0.0171
    1ION     NA69662   8.171   2.415   6.152 -0.0006  0.1127  0.1993
    1ION     NA69663  27.782   5.931   0.032 -0.0182  0.0120 -0.1662
    1ION     NA69664   4.352   3.790   7.675 -0.0901 -0.1555  0.0241
    1ION     NA69665  14.913  11.000   8.384 -0.3827  0.0728 -0.0328
    1ION     NA69666  22.156  14.792   7.136  0.0966  0.4793 -0.2122
    1ION     NA69667  19.546   8.713   7.030 -0.0222 -0.0587  0.0915
    1ION     NA69668  15.357   8.652   0.557 -0.2790  0.0557 -0.0830
    1ION     NA69669  27.446   7.364   6.360 -0.1454 -0.3857 -0.1686
    1ION     NA69670   3.773   8.489   5.288 -0.1516  0.0720 -0.0721
    1ION     NA69671  24.362  23.470   0.091  0.0269  0.0596  0.0291
    1ION     NA69672  14.270   1.470   8.825 -0.0103  0.1132 -0.1186
    1ION     NA69673  18.875  28.262   7.197  0.1873 -0.1904 -0.2730
    1ION     NA69674  18.212  12.757   1.143  0.4269  0.0235  0.1001
    1ION     NA69675  16.254  19.620   6.084  0.3912 -0.5781 -0.1772
    1ION     NA69676  24.622  12.780   9.639 -0.3208  0.3118  0.3622
    1ION     NA69677  13.200   5.763   6.707 -0.0897 -0.1141  0.3615
    1ION     NA69678   6.648  14.531   6.911 -0.2110 -0.3358 -0.0127
    1ION     NA69679  24.110   4.220   7.218  0.1746 -0.2715  0.1104
    1ION     NA69680  12.116  11.683   8.006 -0.1524 -0.0708 -0.1882
    1ION     NA69681  24.336  18.979   8.048  0.0872 -0.0296  0.2520
    1ION     NA69682   5.935  13.792   6.169  0.0734  0.2331 -0.2092
    1ION     NA69683  17.279  10.220   0.373  0.1496 -0.1240  0.0253
    1ION     NA69684   5.943  14.085   9.056  0.1033 -0.1184 -0.1750
    1ION     NA69685  28.275  11.613   1.567  0.3610  0.3924 -0.0553
    1ION     NA69686  26.284  25.297   7.390 -0.2702 -0.4831 -0.1292
    1ION     NA69687   3.031  15.486   3.044 -0.1442  0.1513 -0.1522
    1ION     NA69688  10.464  12.100   0.649  0.3133 -0.1862  0.0086
    1ION     NA69689  17.992  23.807   8.501 -0.1221  0.2080  0.2697
    1ION     NA69690  14.078  14.404   7.913 -0.0515  0.1346 -0.0122
    1ION     NA69691   0.083  13.903   6.897  0.1581  0.1289  0.0854
    1ION     NA69692   3.667  19.480   2.111 -0.2634  0.1537  0.3495
    1ION     NA69693  17.068   7.526   6.805 -0.1347 -0.0681  0.0914
    1ION     NA69694  28.271  14.815   2.795 -0.1780  0.2274  0.3291
    1ION     NA69695  11.696  11.007   1.581 -0.2190  0.0491 -0.0319
    1ION     NA69696  19.600  12.786   7.076  0.2373  0.2744  0.1239
    1ION     NA69697   2.413  15.008   6.961  0.0158 -0.3466 -0.1735
    1ION     NA69698   9.913  18.830   2.570  0.1192  0.1848  0.0097
    1ION     NA69699  27.712  10.995   2.552  0.1188  0.1101 -0.1436
    1ION     NA69700  22.716   7.772   0.047 -0.0310 -0.0328 -0.0589
    1ION     NA69701  28.064  27.831   6.996  0.3200  0.3207 -0.1050
    1ION     NA69702   2.664   9.519   0.536  0.2443  0.0734 -0.0857
    1ION     NA69703   0.239  24.606   9.429  0.2412 -0.2125  0.0148
    1ION     NA69704   4.751  27.357   3.180 -0.2164 -0.1524 -0.0547
    1ION     NA69705   6.387  23.588   0.279  0.2512  0.1373  0.1976
    1ION     NA69706   2.166   2.647   9.558  0.0958  0.0029 -0.1329
    1ION     NA69707   4.448   1.361   0.426 -0.1006 -0.0023  0.1429
    1ION     NA69708   8.788   0.706   0.337  0.1485  0.0331  0.0031
    1ION     NA69709   0.023  24.076   3.024  0.0479  0.0729  0.0733
    1ION     NA69710   6.756  20.132   6.777 -0.1898 -0.0577 -0.0625
    1ION     NA69711  19.480  10.908   7.097  0.0718 -0.2742  0.2180
    1ION     NA69712  22.898   8.887   8.990  0.0581 -0.1688  0.1577
    1ION     NA69713  11.670  16.713   7.126 -0.0592 -0.2049 -0.1621
    1ION     NA69714  22.237  19.110   2.427 -0.0364 -0.0123 -0.1367
    1ION     NA69715  26.390   2.071   8.696 -0.1900  0.1657 -0.2897
    1ION     NA69716  12.730  13.943   1.551  0.2777  0.3467 -0.1212
    1ION     NA69717  20.951  25.491   2.926  0.0976 -0.3825 -0.1429
    1ION     NA69718  29.576   2.703   6.892  0.2775  0.0811  0.0886
    1ION     NA69719   3.003   8.218   6.640 -0.0975  0.0538  0.0908
    1ION     NA69720   9.418  18.099   8.427  0.0050 -0.1954 -0.0179
    1ION     NA69721  29.473  13.043   9.289 -0.3641 -0.0101 -0.0298
    1ION     NA69722  17.412   5.477   7.681 -0.2054 -0.2393  0.0364
    1ION     NA69723  14.785  13.358   9.177  0.2468 -0.1348  0.1572
    1ION     NA69724  14.628  24.802   8.812  0.1762  0.4479 -0.0136
    1ION     NA69725   7.124  24.108   0.310 -0.4729 -0.0231 -0.2977
    1ION     NA69726  11.477  25.985   7.538 -0.0351  0.1282 -0.3357
    1ION     NA69727   4.171   0.929   1.446  0.0882  0.0310 -0.2146
    1ION     NA69728  21.685  10.003   1.920  0.3292  0.0348 -0.0914
    1ION     NA69729   7.386   4.846   8.899 -0.2924 -0.2201  0.3334
    1ION     NA69730   7.833  17.710   0.663 -0.1165  0.2911 -0.3090
    1ION     NA69731  12.925  11.691   0.671 -0.0608 -0.2638 -0.0984
    1ION     NA69732  12.216  18.943   9.474 -0.1610 -0.0634  0.4056
    1ION     NA69733   9.695  26.186   1.738  0.0679 -0.2432  0.0475
    1ION     NA69734  13.776  29.128   0.989  0.1864  0.1029  0.0705
    1ION     NA69735  21.087  26.717   9.510 -0.2224 -0.0999  0.3541
    1ION     NA69736  22.166  22.737   2.506  0.2187  0.1806  0.1279
    1ION     NA69737  26.290  25.768   9.042 -0.0374  0.1793 -0.1594
    1ION     NA69738  18.511  27.563   7.384  0.0962 -0.3088 -0.1538
    1ION     NA69739  21.265   0.169   7.749 -0.1042 -0.1302 -0.1883
    1ION     NA69740  27.267  10.127   6.655 -0.4585  0.2927  0.0725
    1ION     NA69741  21.364   4.865   1.129 -0.1942  0.0800  0.0521
    1ION     NA69742   2.871   6.691   6.520  0.1167  0.2391 -0.1588
    1ION     NA69743  10.280  21.580   2.616  0.0233  0.1983 -0.1260
    1ION     NA69744   3.591  26.201   7.445  0.1818  0.0326 -0.1107
    1ION     NA69745   7.963  15.119   1.305 -0.1518 -0.2227 -0.0870
    1ION     NA69746   7.796  13.025   1.217  0.2852  0.0726 -0.0279
    1ION     NA69747  17.298  16.621   7.089 -0.0421 -0.1228 -0.2116
    1ION     NA69748   5.226   4.843   7.091  0.0109 -0.0173  0.1132
    1ION     NA69749  15.300  13.037   2.801 -0.0890 -0.3733  0.2779
    1ION     NA69750  11.790   6.197   1.151  0.3648  0.3051  0.1015
    1ION     NA69751  23.622   0.928   3.544 -0.1339 -0.0828 -0.0414
    1ION     NA69752  15.262   1.364   8.835  0.3471  0.1443  0.0692
    1ION     NA69753  28.167   5.308   1.574 -0.0509  0.1079  0.4189
    1ION     NA69754  19.129   5.294   8.353  0.0892  0.0859  0.1844
    1ION     NA69755  14.883  12.652   6.837  0.1595  0.0298  0.0019
    1ION     NA69756  14.753  14.400   2.221 -0.1699 -0.0635  0.2447
    1ION     NA69757  25.303   7.753   2.317  0.0603 -0.0506 -0.2011
    1ION     NA69758  26.087  10.431   8.076 -0.0469 -0.2384  0.1452
    1ION     NA69759  11.082  20.141   2.355  0.1725  0.0249  0.1878
    1ION     NA69760   3.400  12.198   0.628 -0.2074 -0.1347 -0.3738
    1ION     NA69761   1.734   1.753   2.976 -0.2826 -0.1536 -0.1112
    1ION     NA69762   9.520  26.570   2.451 -0.4796 -0.3192  0.2306
    1ION     NA69763   2.898  29.577   1.725 -0.0725 -0.0857  0.2172
    1ION     NA69764  12.428  17.367   9.422  0.1154  0.0485  0.1716
    1ION     NA69765  18.562  16.016   1.549  0.1684 -0.1294  0.1346
    1ION     NA69766  15.731  19.848   2.786 -0.1525 -0.3601  0.0501
    1ION     NA69767  14.275  23.147   2.738  0.1815  0.0326 -0.0984
    1ION     NA69768   0.515  25.636   0.141  0.2207  0.2824  0.1240
    1ION     NA69769   8.806   8.211   9.013 -0.3607  0.1499  0.3561
    1ION     NA69770  28.059   6.490   1.190 -0.3227 -0.3934  0.0151
    1ION     NA69771  26.598  10.354   8.371  0.0106  0.1350 -0.2671
    1ION     NA69772  28.773  14.878   8.307 -0.1297  0.3889  0.0928
    1ION     NA69773   1.055  12.592   0.456 -0.2440 -0.3392  0.0965
    1ION     NA69774  18.572   2.927   1.838  0.1369  0.0492 -0.2483
    1ION     NA69775  15.176  29.246   6.637  0.2140 -0.1417  0.0544
    1ION     NA69776  28.544   2.406   2.224 -0.3307 -0.0514  0.1108
    1ION     NA69777  27.382   2.184   7.019 -0.2159 -0.1049  0.0636
    1ION     NA69778  12.302  13.608   2.281  0.1247 -0.0287 -0.1218
    1ION     NA69779   7.135   6.078   2.302 -0.1050 -0.1099  0.1450
    1ION     NA69780   5.916   1.194   8.994  0.1539  0.1190  0.0556
    1ION     NA69781  17.506  20.318   7.151  0.0287  0.1041  0.3225
    1ION     NA69782  13.153  20.730   0.672 -0.1430  0.1681  0.1014
    1ION     NA69783   5.309  20.501   6.864 -0.0952  0.0606  0.2544
    1ION     CL69784  20.599   6.712   7.673 -0.1053  0.3813  0.1014
    1ION     CL69785  19.166   0.284   7.881  0.2944 -0.0489 -0.0167
    1ION     CL69786   7.994   3.721   0.684 -0.3331  0.1593  0.4076
    1ION     CL69787   3.139   7.695   6.502 -0.0298  0.0318  0.1981
    1ION     CL69788  28.019  19.617   0.239 -0.0933  0.1755 -0.0749
    1ION     CL69789   5.658   3.803   0.342 -0.1954 -0.0682  0.3455
    1ION     CL69790  23.380  17.797   7.920 -0.1360  0.1146 -0.5085
    1ION     CL69791  12.167  21.774   6.798 -0.1807 -0.0149 -0.0797
    1ION     CL69792  16.742   4.907   1.069  0.0112  0.2500 -0.0022
    1ION     CL69793  24.731  12.202   8.730 -0.0355  0.0070  0.2144
    1ION     CL69794  11.382  17.093   6.644 -0.1591  0.1944 -0.1310
    1ION     CL69795   6.260   8.448   7.103  0.1535  0.0419  0.2529
    1ION     CL69796   4.316   3.418   6.759 -0.1011  0.3144  0.0278
    1ION     CL69797  28.623  24.006   2.926 -0.1808  0.2296 -0.0065
    1ION     CL69798  17.352  10.558   1.910 -0.1178  0.0302  0.1199
    1ION     CL69799  17.413  11.588   1.719 -0.1092 -0.0832  0.2533
    1ION     CL69800  23.934   7.220   8.577  0.0014 -0.1382 -0.1727
    1ION     CL69801  24.139  20.626   1.184  0.3602  0.1569 -0.1389
    1ION     CL69802   5.964   5.281   8.911  0.1218 -0.0575 -0.5007
    1ION     CL69803  15.278  17.262   9.383  0.1495  0.1375  0.1744
    1ION     CL69804   9.408  14.344   0.326  0.0973  0.1385  0.0868
    1ION     CL69805  11.885  28.515   1.819 -0.0492  0.1482 -0.4076
    1ION     CL69806  20.776  22.848   2.325 -0.1368 -0.1764 -0.1248
    1ION     CL69807  26.960  13.497   1.970 -0.2039 -0.0173 -0.1460
    1ION     CL69808   1.652  12.807   1.614 -0.2241 -0.5858 -0.2816
    1ION     CL69809   4.955   8.340   7.734 -0.1607 -0.1174  0.2038
    1ION     CL69810  23.526  11.719   2.431  0.0691 -0.0328  0.2255
    1ION     CL69811  27.772   2.431   7.148 -0.0617 -0.4438  0.1908
    1ION     CL69812   9.162   4.178   6.581 -0.1250 -0.1707  0.0954
    1ION     CL69813   8.602   1.375   8.652 -0.0711 -0.3048 -0.1326
    1ION     CL69814  25.446   9.602   1.516  0.0184  0.1558 -0.2532
    1ION     CL69815  10.985   6.837   9.445 -0.0635  0.1276  0.0371
    1ION     CL69816  28.932   8.358   6.934 -0.0635 -0.1682 -0.2346
    1ION     CL69817  22.557   8.209   9.624  0.0246 -0.1978 -0.0037
    1ION     CL69818  24.102  18.444   0.837 -0.0148 -0.2336  0.1064
    1ION     CL69819  10.665  21.531   1.185  0.1155  0.3562  0.0368
    1ION     CL69820  13.881   4.653   6.421 -0.1109 -0.2061  0.0002
    1ION     CL69821  16.667  11.072   0.730  0.2750 -0.3930 -0.1568
    1ION     CL69822  12.469  10.867   6.228 -0.0813  0.0878 -0.0141
    1ION     CL69823   0.058  17.233   1.783 -0.0254 -0.0499 -0.0192
    1ION     CL69824   7.991  19.725   2.311 -0.0830  0.2902  0.0078
    1ION     CL69825   6.240  14.268   6.989 -0.1119 -0.1344  0.2425
    1ION     CL69826  25.933  25.757   9.399 -0.3517  0.1873 -0.1811
    1ION     CL69827  29.105  23.231   7.820  0.0833  0.0892 -0.3444
    1ION     CL69828  20.368   7.870   1.792  0.0231  0.1961  0.1517
    1ION     CL69829   3.164   7.799   7.790  0.0488 -0.0547  0.0197
    1ION     CL69830  22.004  16.122   8.598 -0.0030  0.1543  0.0348
    1ION     CL69831   8.679  13.349   7.084 -0.1316 -0.3106 -0.4814
    1ION     CL69832  10.960  22.813   1.568  0.2070 -0.2242 -0.0344
    1ION     CL69833   2.927  11.142   8.763 -0.0883 -0.5452  0.0235
    1ION     CL69834   4.410  27.336   7.820 -0.0533  0.1032 -0.0274
    1ION     CL69835  16.452  20.569   1.830  0.2481  0.1420  0.0943
    1ION     CL69836  16.213  11.839   2.205  0.0892 -0.1618  0.4119
    1ION     CL69837  11.860   9.534   6.637  0.2829  0.0436  0.1750
    1ION     CL69838   6.469  14.955   6.710 -0.1373 -0.1018  0.1117
    1ION     CL69839  11.118  17.876   0.652 -0.1722  0.0557 -0.0154
    1ION     CL69840  21.670   5.634   1.599 -0.0719  0.1987  0.1324
    1ION     CL69841   6.029  25.968   2.080 -0.0029  0.1375  0.1277
    1ION     CL69842  14.924  19.122   8.865 -0.1405  0.0177 -0.1931
    1ION     CL69843  27.675  18.437   2.732  0.0799 -0.2580 -0.2155
    1ION     CL69844   7.022   0.769   6.791  0.1273  0.0069  0.0403
    1ION     CL69845   8.455  23.544   6.954 -0.1043 -0.0048 -0.0861
    1ION     CL69846  21.339  13.744   2.286  0.0072  0.2109  0.1303
    1ION     CL69847  10.231   9.518   1.464  0.1364  0.4319  0.0567
    1ION     CL69848  15.424  28.820   9.179 -0.0185 -0.2117  0.2032
    1ION     CL69849  15.029  17.484   7.272  0.1052  0.1210 -0.1976
    1ION     CL69850   9.858  15.528   0.716 -0.2407  0.2764  0.1080
    1ION     CL69851  12.305  16.412   7.823  0.0143 -0.1767  0.0012
    1ION     CL69852   8.854  20.062   2.221 -0.0165 -0.2015  0.1035
    1ION     CL69853   2.429   0.426   7.579  0.1211  0.3446 -0.2729
    1ION     CL69854  21.850   8.837   7.814 -0.1173 -0.1664 -0.0206
    1ION     CL69855  22.554  22.186   0.454  0.0443  0.0884  0.2326
    1ION     CL69856  28.570  23.566   0.417  0.3534 -0.1727 -0.2585
    1ION     CL69857  15.323  21.255   7.273 -0.0038 -0.1946 -0.0960
    1ION     CL69858   3.978   4.559   7.138  0.1995  0.2179 -0.1175
    1ION     CL69859  16.815  14.618   0.447 -0.0364  0.0295 -0.0380
    1ION     CL69860  10.889  27.706   2.316 -0.2626 -0.0385  0.0175
    1ION     CL69861   7.498  25.831   9.356  0.4240 -0.1373  0.0300
    1ION     CL69862  25.986  18.372   2.826  0.0066  0.1794 -0.1478
    1ION     CL69863   2.545  13.942   8.519 -0.2989  0.1474  0.1403
    1ION     CL69864  23.275  24.003   7.908 -0.1453  0.0851  0.0412
    1ION     CL69865  10.773  13.378   1.042 -0.2023  0.2918  0.3831
    1ION     CL69866  13.856  29.264   2.036  0.0295  0.0981 -0.0491
    1ION     CL69867  21.367  16.631   2.361  0.0273  0.0682  0.1086
    1ION     CL69868   8.792  10.459   0.579  0.1566 -0.0211  0.0187
    1ION     CL69869  16.416  21.970   1.922  0.0236 -0.1854  0.1518
    1ION     CL69870   0.186   7.325   7.218 -0.1271  0.1142 -0.1163
    1ION     CL69871   1.010   2.250   9.244 -0.2007 -0.0268 -0.2262
    1ION     CL69872   4.702  24.594   9.108 -0.0570 -0.2017 -0.0901
    1ION     CL69873  12.106  12.848   0.180 -0.1671  0.1649  0.0381
    1ION     CL69874  19.680   2.528   0.241  0.0083  0.3236  0.0468
    1ION     CL69875  26.332  27.879   0.828 -0.1174  0.0823 -0.0818
    1ION     CL69876  21.830  23.257   1.576  0.2486  0.0426  0.1245
    1ION     CL69877  16.696  24.155   1.978 -0.2226 -0.2830 -0.1422
    1ION     CL69878  12.049   7.104   7.780  0.3172  0.0602  0.1463
    1ION     CL69879   5.535  21.187   2.243 -0.2549 -0.1550 -0.1201
    1ION     CL69880  25.389  16.528   9.648 -0.2187  0.4656  0.1423
    1ION     CL69881  14.112  28.820   0.820 -0.1291  0.2210 -0.2964
    1ION     CL69882  19.011  27.172   8.105 -0.3064 -0.0528 -0.0675
    1ION     CL69883  14.190  16.269   1.422  0.1666 -0.1096 -0.2685
    1ION     CL69884   5.183  24.371   0.844 -0.1962 -0.0852  0.1672
    1ION     CL69885  28.062   8.505   8.501  0.0026  0.0083 -0.0933
    1ION     CL69886  17.789   0.484   7.231  0.1764 -0.1533 -0.2950
    1ION     CL69887  20.135  10.311   7.722  0.0437  0.0125 -0.1693
    1ION     CL69888   5.106  22.548   8.394 -0.2763  0.0302 -0.0933
    1ION     CL69889  15.599  26.029   9.126  0.1673 -0.0885 -0.1198
    1ION     CL69890  22.399  12.276   8.621 -0.2103 -0.3541 -0.0283
    1ION     CL69891  23.191  16.250   9.386  0.3046  0.0917 -0.0892
    1ION     CL69892   4.065  21.141   1.074 -0.0031 -0.0858 -0.0594
    1ION     CL69893  29.516  28.744   7.961 -0.1284  0.0479 -0.0753
    1ION     CL69894  24.007  21.349   7.778 -0.1025 -0.4754 -0.3146
    1ION     CL69895  15.584   2.327   8.133  0.1150 -0.3946  0.0395
    1ION     CL69896  15.006   1.962   1.961  0.2869 -0.3296  0.1773
    1ION     CL69897  18.216  21.110   2.413  0.1988 -0.3433 -0.1550
    1ION     CL69898   7.487  24.279   8.697 -0.0216  0.5971  0.0498
    1ION     CL69899  15.331  15.713   7.236  0.0120 -0.2024  0.1142
    1ION     CL69900  26.130   1.932   9.130 -0.2744  0.2263 -0.2143
    1ION     CL69901  27.083  24.962   3.020 -0.0507  0.2331 -0.2890
    1ION     CL69902  26.595   3.397   0.237 -0.0144 -0.0100 -0.7828
    1ION     CL69903   9.757  14.028   1.951  0.0194  0.1636 -0.2945
    1ION     CL69904  12.149  15.077   1.164 -0.1571 -0.0766 -0.0311
    1ION     CL69905  13.942  15.394   7.038 -0.1844 -0.0462 -0.0635
    1ION     CL69906  26.711  24.001   2.515 -0.0365 -0.0858  0.6006
    1ION     CL69907   4.251   9.771   5.833  0.1712  0.0134  0.1233
    1ION     CL69908  25.379   2.282   0.759 -0.4807 -0.1505  0.1726
    1ION     CL69909   7.412  24.239   2.424 -0.0362  0.2080  0.2616
    1ION     CL69910   1.392   7.665   8.181 -0.0367 -0.0579  0.2785
    1ION     CL69911  23.763   8.110   8.510 -0.0500 -0.0100  0.3091
    1ION     CL69912  23.335   3.654   1.142 -0.0809 -0.0641  0.2446
    1ION     CL69913  17.977  13.083   1.999  0.0673 -0.0134 -0.2270
    1ION     CL69914  23.842   8.366   7.721  0.1061 -0.3775 -0.1146
    1ION     CL69915  15.761  23.933   7.705  0.1246 -0.2169  0.0248
    1ION     CL69916  25.306  28.596   2.689  0.0089  0.2292 -0.0556
    1ION     CL69917  29.243  21.132   0.648 -0.2030  0.0008 -0.0526
    1ION     CL69918   3.676  23.929   8.247  0.1291 -0.1785  0.1228
    1ION     CL69919  19.919   1.201   0.325 -0.0107  0.1278 -0.0358
    1ION     CL69920  27.957  24.689   0.558 -0.1901 -0.0253 -0.3395
    1ION     CL69921  14.467  14.733   7.662 -0.6680  0.1052 -0.1126
    1ION     CL69922  16.660   6.145   2.298  0.1445  0.0411  0.0948
    1ION     CL69923  15.422  16.521   7.260 -0.0271 -0.0807 -0.0693
    1ION     CL69924  19.651   8.882   0.444  0.4098 -0.0357 -0.2890
    1ION     CL69925  28.390  14.443   1.881 -0.5335 -0.0659 -0.3191
    1ION     CL69926  14.670  18.137   0.570 -0.0989 -0.1263  0.1160
    1ION     CL69927  13.279   5.779   9.646  0.2972 -0.2445 -0.1697
    1ION     CL69928  11.593   8.077   9.245  0.2093  0.1886 -0.1262
    1ION     CL69929  11.444  21.631   0.651 -0.0213  0.0016  0.0086
    1ION     CL69930   0.776  26.242   1.909  0.2751  0.0594 -0.0711
    1ION     CL69931   2.680   9.324   1.255 -0.0914 -0.4454 -0.1199
    1ION     CL69932  14.017  19.566   6.902  0.0852  0.1560  0.2083
    1ION     CL69933  28.633  12.466   0.642 -0.3573 -0.2448  0.0361
    1ION     CL69934   7.165   7.042   1.963  0.0447 -0.1759  0.0165
    1ION     CL69935   0.829  12.366   0.086 -0.2131  0.0656 -0.0214
    1ION     CL69936   5.873  15.568   1.276 -0.3319 -0.0749 -0.0875
    1ION     CL69937  22.371  19.393   2.021  0.3106 -0.0324 -0.1302
    1ION     CL69938   0.560  22.971   8.776  0.0433 -0.1508 -0.2257
    1ION     CL69939  27.679  24.033   7.518 -0.0155 -0.2079  0.1012
    1ION     CL69940  17.298  24.832   2.244 -0.1474 -0.1078 -0.1406
    1ION     CL69941  12.514  17.100   2.095  0.1898  0.0296  0.0461
    1ION     CL69942   6.849   9.728   6.034 -0.1387 -0.1077 -0.4222
    1ION     CL69943  24.001  18.336   2.505 -0.0126  0.1309  0.0400
    1ION     CL69944  10.507  29.504   2.222 -0.0653  0.1178 -0.1164
    1ION     CL69945   8.798  17.664   6.699 -0.2635 -0.0089  0.1814
    1ION     CL69946   5.950  23.512   2.488  0.5835  0.2543  0.2637
    1ION     CL69947  12.928   9.235   1.650  0.2356  0.1577  0.1355
    1ION     CL69948  27.511  13.468   1.768  0.0483  0.1176 -0.1818
    1ION     CL69949  29.224  20.030   8.556  0.0770  0.0559  0.1182
    1ION     CL69950  26.269  24.736   8.677  0.1228  0.0844 -0.4815
    1ION     CL69951  28.334  10.396   7.632 -0.3861 -0.0523 -0.0784
    1ION     CL69952  14.451   7.819   7.036  0.1178 -0.0638 -0.0527
    1ION     CL69953  17.566  14.810   8.388 -0.2329 -0.2201  0.1114
    1ION     CL69954  12.345  15.797   7.663 -0.3104 -0.1474 -0.1320
    1ION     CL69955  18.070   5.483   8.491 -0.1638 -0.1256  0.2614
    1ION     CL69956  13.337  18.313   7.583  0.2910 -0.0118 -0.1419
    1ION     CL69957  17.170   5.723   1.812 -0.1497 -0.0497 -0.1074
    1ION     CL69958   2.097   8.565   1.544  0.1388 -0.1045  0.1180
    1ION     CL69959   1.147  12.877   9.136  0.1153 -0.1534  0.0270
    1ION     CL69960  27.788   3.261   0.515  0.4419 -0.3062  0.1182
    1ION     CL69961   5.952  28.642   2.110  0.2837 -0.1745 -0.0835
    1ION     CL69962  22.448   6.839   9.480 -0.0318  0.2260 -0.0497
    1ION     CL69963   5.855  14.020   7.058 -0.0820  0.0182 -0.3203
    1ION     CL69964   5.396  13.960   8.869 -0.2198  0.0783 -0.1343
    1ION     CL69965   6.834  16.805   1.183 -0.0891 -0.0129  0.2137
    1ION     CL69966   6.463  19.710   8.116  0.1281 -0.0706 -0.0781
    1ION     CL69967  26.232   7.367   1.407 -0.0314  0.0338 -0.0067
    1ION     CL69968  23.159  25.458   7.648  0.0819  0.0721 -0.3424
    1ION     CL69969  17.642   3.881   8.648 -0.2876  0.1125 -0.0119
    1ION     CL69970  27.849   5.529   1.107  0.2185  0.1221  0.1950
    1ION     CL69971   4.381  17.932   8.798 -0.1725  0.2287 -0.1674
    1ION     CL69972  24.526  13.346   9.439  0.2073 -0.0604  0.0157
    1ION     CL69973   8.252   7.568   7.692 -0.0444 -0.0119  0.3217
    1ION     CL69974  13.145  12.082   0.990  0.0333 -0.2679  0.0917
    1ION     CL69975  25.908  10.797   1.302  0.1319  0.0568 -0.0504
    1ION     CL69976   5.330  21.814   7.824  0.3132  0.1978 -0.4173
    1ION     CL69977  29.337  20.199   2.682  0.0042  0.2055 -0.0634
    1ION     CL69978  25.800   3.887   2.396 -0.0518  0.1177  0.0667
    1ION     CL69979   7.047   7.190   6.395  0.0410  0.4836 -0.0289
    1ION     CL69980   5.437  25.442   2.819 -0.3369 -0.2298  0.0722
    1ION     CL69981  21.343  21.003   1.162  0.0954  0.4297 -0.1485
    1ION     CL69982   2.563  14.281   1.504  0.1824 -0.0235 -0.0961
    1ION     CL69983  19.223  21.076   1.499 -0.1912  0.1059 -0.0455
    1ION     CL69984  14.849  10.426   8.236  0.2975 -0.0196  0.0848
    1ION     CL69985  22.056   6.826   8.077 -0.1226 -0.1402  0.1265
    1ION     CL69986  22.088  15.126   7.983  0.0286 -0.1706  0.1307
    1ION     CL69987   5.753  10.458   8.523  0.0557  0.1382 -0.2283
    1ION     CL69988  15.660   1.580   8.046  0.0328  0.1374  0.0124
    1ION     CL69989   7.405   9.027   8.421 -0.2546 -0.0308 -0.3083
    1ION     CL69990  13.228   2.543   8.271 -0.0063  0.1063  0.0472
    1ION     CL69991   9.838  10.669   6.670  0.3699  0.2703  0.0223
    1ION     CL69992  13.185  13.742   1.371 -0.0194 -0.3445  0.0614
    1ION     CL69993  18.417  16.169   0.119 -0.0299  0.0100  0.0396
    1ION     CL69994  27.669   6.400   1.477 -0.0900  0.3520  0.0107
    1ION     CL69995   4.893   1.991   1.130 -0.0553  0.0187 -0.1155
    1ION     CL69996  15.963   0.028   1.720  0.1521 -0.0310 -0.1156
    1ION     CL69997   7.527  11.234   6.792 -0.1643  0.0533 -0.0700
    1ION     CL69998   6.789  23.251   0.164 -0.2196 -0.0949 -0.0931
    1ION     CL69999  19.064  11.782   7.120  0.1142  0.0938  0.0803
    1ION     CL70000  11.011  22.325   6.898  0.2296 -0.1930 -0.1832
    1ION     CL70001   6.106  15.197   0.544  0.1004 -0.1104 -0.3181
    1ION     CL70002   4.308   4.271   8.098 -0.0681 -0.0100  0.1923
    1ION     CL70003  22.373   0.627   0.682 -0.4994  0.2066  0.3233
    1ION     CL70004  29.250  12.995   1.772  0.1849  0.1583 -0.1152
    1ION     CL70005  12.712  21.391   1.312 -0.0346 -0.0293  0.0626
    1ION     CL70006   4.115  20.962   2.438 -0.0852  0.0967 -0.0390
    1ION     CL70007  29.550  23.563   3.367 -0.0093  0.0846 -0.1430
    1ION     CL70008  20.702   4.004   1.997  0.1897 -0.1113  0.0437
    1ION     CL70009   6.219  28.730   6.890 -0.1760  0.1705 -0.1454
    1ION     CL70010  28.386  25.491   8.977  0.2261  0.4950 -0.1041
    1ION     CL70011  11.533  24.870   2.077  0.1054  0.1293  0.0497
    1ION     CL70012  10.319  14.611   1.463  0.1518 -0.0560  0.0926
    1ION     CL70013  13.737   8.563   1.500  0.2179 -0.1084 -0.2048
    1ION     CL70014  10.459   8.985   6.879 -0.0263 -0.0740  0.1371
    1ION     CL70015  11.509   1.631   1.677  0.1383 -0.0746  0.0342
    1ION     CL70016  19.144  12.469   1.655 -0.0067 -0.0686  0.1629
    1ION     CL70017  12.755  13.391   2.183  0.1286 -0.1013 -0.2162
    1ION     CL70018   4.031   7.449   1.455 -0.1285 -0.2329 -0.0084
    1ION     CL70019   9.787  18.245   8.135 -0.2809 -0.0200  0.1523
    1ION     CL70020  28.839  22.992   9.038  0.1216 -0.0886 -0.0228
    1ION     CL70021   5.916   7.202   8.035  0.0452  0.0921  0.3395
    1ION     CL70022   2.095  27.102   2.109 -0.1506 -0.0578  0.1889
    1ION     CL70023   2.968   9.231   6.524 -0.0400 -0.2864 -0.2224
    1ION     CL70024   7.622   1.359   9.638 -0.0008 -0.1895  0.5189
    1ION     CL70025  14.547  21.182   6.553  0.2748  0.0495 -0.0927
    1ION     CL70026  15.911   6.284   2.168  0.0034 -0.0363  0.0154
    1ION     CL70027   7.068  13.136   1.556  0.3439  0.0602  0.1181
    1ION     CL70028  23.170  25.277   8.617 -0.1912 -0.2742  0.1678
    1ION     CL70029  18.569   9.311   0.241 -0.1659  0.1690 -0.3011
    1ION     CL70030   2.103  13.921   7.525 -0.2336 -0.1498  0.1901
    1ION     CL70031   1.525  16.714   0.755  0.0378  0.0182 -0.3789
    1ION     CL70032   3.852  15.329   7.938  0.1237  0.3485  0.0470
    1ION     CL70033  19.551  14.008   9.228  0.1068  0.0173 -0.2738
    1ION     CL70034  18.689  19.225   1.624  0.0194 -0.3767  0.1730
    1ION     CL70035   2.794   9.400   0.069  0.2267  0.0405 -0.0388
    1ION     CL70036   4.046  17.130   1.925  0.0708  0.3320  0.0512
    1ION     CL70037   3.382   8.174   6.299  0.2225 -0.1442  0.3033
    1ION     CL70038  27.766  28.847   2.583 -0.0355 -0.1428  0.2376
    1ION     CL70039  11.525  11.693   7.797  0.0109 -0.0828 -0.0369
    1ION     CL70040  23.431  22.854   1.310  0.2597 -0.2384  0.1253
    1ION     CL70041   1.926   0.121   2.208 -0.3145 -0.0816  0.0524
    1ION     CL70042  14.478   3.880   2.235 -0.1435  0.1213  0.1158
    1ION     CL70043  18.680  24.537   8.397  0.0092  0.0458 -0.3104
    1ION     CL70044   9.757   9.518   7.338 -0.2973  0.4360 -0.0453
    1ION     CL70045  27.886   7.706   7.908  0.2739 -0.1090  0.1026
    1ION     CL70046  10.961  17.474   9.350 -0.0226 -0.1344  0.0947
    1ION     CL70047   3.511   7.041   9.023  0.1352 -0.1206 -0.0029
    1ION     CL70048   4.903  19.926   7.764 -0.1028  0.1873 -0.3774
    1ION     CL70049   5.362   1.416   8.920  0.0679 -0.0182  0.4282
    1ION     CL70050  26.642  14.224   0.452 -0.1334  0.0080 -0.0896
    1ION     CL70051  14.768  16.043   9.227 -0.1371  0.3046  0.0805
    1ION     CL70052   2.519  20.503   2.784 -0.1665  0.1313  0.1194
    1ION     CL70053   7.140   0.867   2.017  0.1552  0.0395  0.1793
    1ION     CL70054  18.427  15.611   9.354  0.1205  0.0474 -0.3038
    1ION     CL70055  25.322  20.984   2.891  0.0618 -0.0450 -0.1803
    1ION     CL70056  11.355   8.722   2.234  0.1310  0.0560 -0.2550
    1ION     CL70057   9.783   0.460   1.714  0.1207  0.2631  0.0261
    1ION     CL70058  16.946   7.671   9.161  0.0906  0.0536  0.0260
    1ION     CL70059  23.375  29.417   8.002  0.0096 -0.0917  0.1825
    1ION     CL70060  19.816   3.732   7.882 -0.0689 -0.0224 -0.1328
    1ION     CL70061  17.254  28.862   8.294 -0.1879 -0.2858 -0.1895
    1ION     CL70062  10.218   8.946   9.175 -0.0226 -0.0435 -0.0685
    1ION     CL70063   9.411   8.468   8.158 -0.0826  0.0034  0.1438
    1ION     CL70064  20.204   5.160   1.815  0.0495  0.0672 -0.1762
    1ION     CL70065  27.101   3.438   8.630  0.0094  0.0483  0.2294
    1ION     CL70066  25.303  17.276   2.336  0.2064  0.0784 -0.2429
    1ION     CL70067  16.530  19.177   8.219 -0.1229  0.0328 -0.1334
    1ION     CL70068  19.027   6.641   1.265 -0.2209  0.0478  0.0565
    1ION     CL70069  20.425  18.409   7.587 -0.3144  0.0781  0.1058
    1ION     CL70070  28.140   4.482   8.310  0.2296  0.1374 -0.1031
    1ION     CL70071   4.172  23.988   2.688  0.0642 -0.4969  0.2432
    1ION     CL70072  20.710  10.060   7.614 -0.1372  0.0100 -0.0738
    1ION     CL70073  10.659  11.458   7.286  0.0515  0.0154 -0.4318
    1ION     CL70074   8.584   7.464   6.281 -0.0602  0.2148 -0.1111
    1ION     CL70075  23.869   9.982   8.546 -0.0797 -0.0568  0.0099
    1ION     CL70076  12.727   8.087   1.509  0.2223  0.0720  0.1606
    1ION     CL70077  12.341  14.017   1.921  0.1750  0.0013  0.2424
    1ION     CL70078   3.859  22.144   9.024 -0.1227 -0.0779 -0.1720
    1ION     CL70079   8.247  28.243   0.888  0.0623  0.0271 -0.5749
    1ION     CL70080   0.300  17.095   7.352 -0.1656 -0.0887 -0.1315
    1ION     CL70081  12.430  29.127   6.924  0.0529 -0.5069 -0.1214
    1ION     CL70082  22.168   0.262   7.842  0.0312  0.3702  0.0002
    1ION     CL70083  15.523  15.958   7.913 -0.2704 -0.3596  0.0763
    1ION     CL70084  24.591   0.304   8.014  0.1164 -0.0383 -0.3845
    1ION     CL70085  10.433   2.776   7.731  0.0415 -0.1198 -0.1757
    1ION     CL70086  25.537  20.630   1.667  0.1051 -0.0508  0.4334
    1ION     CL70087   5.712  18.911   1.811  0.3126  0.0797  0.1057
    1ION     CL70088  11.079  15.105   6.115 -0.0931  0.0917  0.2260
    1ION     CL70089  17.943  13.146   8.234 -0.1638  0.0833  0.1486
    1ION     CL70090   9.361   8.963   6.722  0.1030  0.0504 -0.4262
    1ION     CL70091  15.824   7.355   1.731  0.1348 -0.4266  0.0281
    1ION     CL70092  21.711   5.901   8.752  0.0011  0.1329  0.1795
    1ION     CL70093  14.786  24.077   8.379 -0.1003  0.0022  0.2176
    1ION     CL70094  23.707  15.144   1.800  0.2229  0.0844  0.0040
    1ION     CL70095  17.507  10.389   9.540  0.1970  0.1457 -0.1088
    1ION     CL70096   8.406  26.123   6.559  0.1606  0.0011 -0.2550
    1ION     CL70097   6.120  21.846   2.627  0.0630 -0.0801  0.2775
    1ION     CL70098   8.565  18.528   1.845  0.2273  0.2947  0.0717
    1ION     CL70099   8.448  15.246   1.524  0.2043  0.0182 -0.0259
    1ION     CL70100   0.007  26.619   8.383  0.0696  0.2040 -0.3050
    1ION     CL70101   0.664  28.375   2.042 -0.1154 -0.1180  0.0061
    1ION     CL70102  29.503   5.852   7.327 -0.0925  0.2143 -0.1774
    1ION     CL70103  26.683   7.553   0.413 -0.0826 -0.2223  0.0125
    1ION     CL70104   3.720   2.836   7.411 -0.0358 -0.1794 -0.3133
    1ION     CL70105   5.365  14.795   6.702 -0.2413  0.2092 -0.0286
    1ION     CL70106  27.206  23.689   9.146 -0.0120  0.0532  0.0222
    1ION     CL70107  19.072  16.656   9.080 -0.0641 -0.0203 -0.1666
    1ION     CL70108  29.357   7.097   0.508 -0.0737  0.1412  0.2182
    1ION     CL70109   8.340  20.089   7.009  0.2003 -0.4019  0.3333
    1ION     CL70110   1.562  22.425   2.318 -0.1447  0.2828 -0.2114
    1ION     CL70111  19.646  18.966   3.558  0.2366 -0.0870 -0.2226
    1ION     CL70112   9.126   3.114   1.168  0.0230  0.0599  0.1564
    1ION     CL70113   2.081   2.504   8.725 -0.0266 -0.0995  0.1842
    1ION     CL70114  21.211   9.490   7.679 -0.1562 -0.0551  0.2304
    1ION     CL70115  10.711  19.621   9.029 -0.1275 -0.2534 -0.0126
    1ION     CL70116   1.417  19.473   1.351 -0.1603  0.1265 -0.1302
    1ION     CL70117   2.846   5.644   7.116  0.1978 -0.2432 -0.2608
    1ION     CL70118  24.145   7.500   1.305  0.0563  0.0311 -0.0347
    1ION     CL70119  29.146  20.701   9.106 -0.1353  0.1043 -0.0528
    1ION     CL70120  16.342  20.846   0.089  0.0382  0.3762  0.0716
    1ION     CL70121   4.741  23.529   7.405  0.3767  0.0280  0.1047
    1ION     CL70122  17.438  25.918   2.642  0.2532  0.1614 -0.0963
    1ION     CL70123   3.536  23.626   3.461 -0.1552 -0.1760  0.4151
    1ION     CL70124  21.447  25.965   0.607  0.0939 -0.5037  0.0073
    1ION     CL70125   1.167  18.097   8.504  0.7566 -0.2034 -0.2087
    1ION     CL70126   3.094  29.018   8.891 -0.0532 -0.1333  0.1167
    1ION     CL70127  11.267   6.234   1.326 -0.1049 -0.0487 -0.0843
    1ION     CL70128  26.626   3.935   2.017  0.2880  0.3751  0.0290
    1ION     CL70129   9.342  26.021   2.095 -0.1160  0.0901  0.0089
    1ION     CL70130   2.257  22.569   7.663  0.0187 -0.2385  0.1539
    1ION     CL70131   4.265  20.739   6.816  0.0297  0.1089  0.1247
    1ION     CL70132  25.223  28.204   9.380 -0.1478 -0.2758  0.2665
    1ION     CL70133  10.978  10.006   1.262  0.5601  0.0197 -0.1458
    1ION     CL70134  24.013  23.714   9.488 -0.0005 -0.0304 -0.2391
    1ION     CL70135  20.663  25.546   2.352 -0.2213  0.0574  0.2093
    1ION     CL70136   1.478  12.825   0.700  0.2282 -0.0847 -0.3095
    1ION     CL70137   5.455  13.095   0.871 -0.1761  0.0828 -0.1171
    1ION     CL70138  20.108  29.186   0.657  0.0850 -0.2739 -0.0750
    1ION     CL70139  27.868  28.917   7.876  0.1942  0.2406 -0.0803
    1ION     CL70140  20.685  12.264   2.242 -0.1780 -0.1605 -0.3493
    1ION     CL70141  14.815   1.454   9.108  0.0664 -0.0104  0.0682
    1ION     CL70142   6.840  16.764   6.885  0.0866  0.0220 -0.1828
    1ION     CL70143  23.325  26.260   8.425  0.0918 -0.0228  0.2352
    1ION     CL70144  17.016  24.129   0.771  0.1109  0.2097  0.0308
    1ION     CL70145  19.546   6.952   1.053  0.2738 -0.1344 -0.0426
    1ION     CL70146  17.510   5.361   7.202  0.0979 -0.2622 -0.2462
    1ION     CL70147   5.746  24.367   9.112 -0.2616 -0.1739 -0.0850
    1ION     CL70148  10.213  11.041   8.765  0.1469 -0.0175 -0.0085
    1ION     CL70149  23.236  24.675   3.515  0.0931  0.0436 -0.0837
    1ION     CL70150  25.182  26.785   8.698 -0.0303  0.1309  0.2630
    1ION     CL70151  15.018  23.959   6.866 -0.0189 -0.0228 -0.2994
    1ION     CL70152  15.274  25.452   2.027  0.1746  0.0355 -0.2420
    1ION     CL70153  22.276  11.970   1.262 -0.2315  0.1338 -0.0592
    1ION     CL70154  24.476   4.664   8.478  0.2869 -0.1389  0.2024
    1ION     CL70155   5.328  14.236   1.331 -0.1121 -0.0422  0.2254
    1ION     CL70156  27.430  14.036   0.631 -0.0472  0.1565  0.3506
    1ION     CL70157  26.518  10.231   7.861  0.1946  0.1267 -0.3254
    1ION     CL70158  19.212  21.403   0.554  0.1192 -0.2881  0.2365
    1ION     CL70159  11.176  28.988   6.789 -0.0989 -0.2295  0.0191
    1ION     CL70160  12.734  29.362   0.061  0.0499 -0.0961  0.2239
    1ION     CL70161  16.650  21.052   7.548  0.1018  0.1290  0.1391
    1ION     CL70162   7.033  18.331   2.195 -0.0412 -0.0160 -0.1675
    1ION     CL70163   3.414  22.979   9.338 -0.0663 -0.0321 -0.0563
    1ION     CL70164   3.545  14.122   6.787 -0.2456  0.0461  0.1456
    1ION     CL70165  17.346  12.098   9.398  0.2344 -0.0893  0.3725
    1ION     CL70166  25.861  25.898   8.831  0.3291 -0.0804 -0.1227
    1ION     CL70167  16.156   3.165   8.126  0.1329 -0.1602  0.1604
    1ION     CL70168  28.616  21.809   0.252  0.3236  0.0691  0.0082
    1ION     CL70169  19.135   4.028   9.485  0.1379  0.1971 -0.2066
    1ION     CL70170   1.703  27.051   6.607 -0.1249 -0.1306  0.0328
    1ION     CL70171  26.307   0.545   7.565  0.3273  0.2965 -0.0448
    1ION     CL70172  15.626  27.255   2.531 -0.0787 -0.0034  0.0985
    1ION     CL70173  14.248  24.562   9.051 -0.1297  0.1802 -0.1859
    1ION     CL70174   7.753   3.966   1.508 -0.3751  0.1933  0.3271
    1ION     CL70175   1.731   5.696   6.743 -0.3504  0.0762 -0.0049
    1ION     CL70176  24.202  18.946   7.528 -0.0827  0.2012  0.0317
    1ION     CL70177  26.658   2.608   7.758  0.1343  0.1759 -0.1905
    1ION     CL70178   8.637  14.905   7.112 -0.0048  0.0034 -0.0074
    1ION     CL70179   4.897  14.734   0.401  0.0805  0.0067 -0.1654
    1ION     CL70180   0.522  26.397   7.776 -0.1038  0.3927 -0.1553
    1ION     CL70181  20.415   2.802   8.908  0.0677  0.0962 -0.1035
    1ION     CL70182  16.812  19.977   8.297 -0.0229 -0.1126  0.1874
    1ION     CL70183  22.743   9.689   7.693 -0.2786  0.1795 -0.1928
    1ION     CL70184  10.925  18.082   8.314  0.0367 -0.0842  0.0249
    1ION     CL70185  26.323  27.760   2.675 -0.2718  0.0698  0.0043
    1ION     CL70186  22.950   8.149   8.117 -0.1432  0.2443  0.0957
    1ION     CL70187   1.465  23.638   8.459  0.0438 -0.1340 -0.0964
    1ION     CL70188   7.962  21.923   0.664 -0.2499  0.1840  0.0192
    1ION     CL70189   2.471   6.492   0.906  0.0051 -0.3406  0.0725
    1ION     CL70190   0.642  13.764   7.050 -0.1590  0.0798  0.1848
    1ION     CL70191   7.204   5.748   7.918  0.0629 -0.0414 -0.1175
    1ION     CL70192  16.222   8.997   7.513  0.2280  0.2197 -0.2956
    1ION     CL70193  24.116   3.929   1.523 -0.0100 -0.0756  0.1916
    1ION     CL70194   5.598  27.236   9.527 -0.2920  0.1446  0.3174
    1ION     CL70195   5.294  15.032   8.305  0.1212  0.0169 -0.0773
    1ION     CL70196  18.967  15.484   2.781  0.1394 -0.0973 -0.0678
    1ION     CL70197   8.366   0.450   8.951 -0.1181  0.0923 -0.1519
    1ION     CL70198  20.266  25.456   3.282 -0.0948  0.0781 -0.0674
    1ION     CL70199   5.483  23.257   8.018 -0.6097 -0.1621  0.1665
    1ION     CL70200   7.200  24.287   0.846  0.2925 -0.0070 -0.0445
    1ION     CL70201   3.730  26.143   8.564  0.2707 -0.4847 -0.0970
    1ION     CL70202  14.053  10.456   7.162 -0.2693 -0.4901 -0.1353
    1ION     CL70203   2.199  24.064   0.090  0.0724  0.4317 -0.0022
    1ION     CL70204   4.631  18.402   7.995  0.2053 -0.0401 -0.1470
    1ION     CL70205   1.985  12.008   1.389  0.4839  0.1609 -0.1198
    1PPC    NC370206  16.271   7.223   7.305  0.3647 -0.2037 -0.0149
    1PPC    PO470207  16.385   6.912   7.147  0.1600 -0.1431  0.1280
    1PPC    GL170208  16.589   7.169   6.845 -0.0968 -0.1163  0.0286
    1PPC    GL270209  16.692   7.241   6.463 -0.0851  0.2857 -0.0120
    1PPC    C1B70210  16.855   7.398   6.112  0.3417  0.1181 -0.2609
    1PPC    C2B70211  16.927   7.489   5.619  0.5605  0.0314  0.3703
    1PPC    C3B70212  16.892   7.603   5.140 -0.1517 -0.1031 -0.0805
    1PPC    C4B70213  16.843   7.638   4.737  0.0994  0.1942 -0.0012
    1PPC    NC370214  22.216  10.688   7.651 -0.1404 -0.3738 -0.3572
    1PPC    PO470215  21.956  10.860   7.369  0.1615 -0.2095 -0.0482
    1PPC    GL170216  22.002  10.762   6.860 -0.2320  0.1498  0.2232
    1PPC    GL270217  21.846  10.876   6.692 -0.2060  0.0939 -0.4164
    1PPC    C1B70218  21.616  10.893   6.356 -0.0327 -0.1931 -0.5681
    1PPC    C2B70219  21.731  10.744   5.975  0.1143 -0.1543  0.1420
    1PPC    C3B70220  21.621  10.693   5.563 -0.0330 -0.1392  0.5286
    1PPC    C4B70221  21.780  10.588   5.233 -0.0090 -0.0403 -0.0062
    1PPC    NC370222  11.968  20.926   6.820  0.0707 -0.1560 -0.1141
    1PPC    PO470223  12.007  20.713   6.439 -0.0741 -0.1913  0.3449
    1PPC    GL170224  11.771  20.960   6.165 -0.1642  0.0200  0.0342
    1PPC    GL270225  11.682  20.860   5.909 -0.1311 -0.1931 -0.2983
    1PPC    C1B70226  11.406  20.688   5.553  0.1480  0.0181  0.1593
    1PPC    C2B70227  11.431  20.497   5.074  0.3361  0.0486 -0.1383
    1PPC    C3B70228  11.330  20.474   4.677  0.2297 -0.1111 -0.0238
    1PPC    C4B70229  11.385  20.781   4.374  0.0420  0.1393 -0.1588
    1PPC    NC370230   3.723  15.530   6.927  0.1991  0.2517  0.0412
    1PPC    PO470231   3.652  16.015   6.969  0.1954  0.2085 -0.0600
    1PPC    GL170232   3.759  16.096   6.529  0.2575 -0.2432  0.3761
    1PPC    GL270233   3.722  16.318   6.262 -0.0427  0.2017  0.2517
    1PPC    C1B70234   3.765  16.355   5.748  0.1508 -0.4345 -0.2260
    1PPC    C2B70235   3.761  16.327   5.329 -0.2239  0.0560  0.0793
    1PPC    C3B70236   3.468  16.145   5.038  0.0807  0.0341 -0.2759
    1PPC    C4B70237   3.468  16.010   4.637  0.1765  0.0022 -0.2540
    1PPC    NC370238  29.083  25.043   6.931 -0.0003  0.0023  0.2346
    1PPC    PO470239  28.846  25.401   6.917  0.1104  0.0784  0.1497
    1PPC    GL170240  28.758  25.643   6.470  0.0795  0.1663 -0.1595
    1PPC    GL270241  28.518  25.613   6.202  0.1219  0.1275  0.2853
    1PPC    C1B70242  28.518  25.564   5.842  0.2763 -0.0545 -0.0894
    1PPC    C2B70243  28.494  25.653   5.361 -0.2263  0.0083  0.0337
    1PPC    C3B70244  28.862  25.823   5.165 -0.2821  0.1715  0.0618
    1PPC    C4B70245  29.093  26.167   5.384 -0.0545  0.1669 -0.3101
    1PPC    NC370246  10.906  23.849   6.235  0.2316 -0.0502 -0.3685
    1PPC    PO470247  10.429  23.924   6.297  0.0498 -0.0092 -0.1569
    1PPC    GL170248  10.232  23.892   5.979  0.2480 -0.0447  0.2357
    1PPC    GL270249  10.014  23.842   5.828  0.3801 -0.0656 -0.0387
    1PPC    C1B70250   9.808  23.883   5.400  0.3339 -0.3018  0.0385
    1PPC    C2B70251   9.669  24.130   5.117 -0.3741 -0.0503 -0.0545
    1PPC    C3B70252   9.863  24.522   4.917  0.3094 -0.1255  0.0161
    1PPC    C4B70253   9.879  24.617   4.538  0.1862 -0.0255 -0.0342
    1PPC    NC370254  10.311  20.515   6.935 -0.1793 -0.0554 -0.0931
    1PPC    PO470255  10.160  20.804   6.517  0.0544 -0.1087 -0.1297
    1PPC    GL170256  10.146  20.487   6.223  0.0761 -0.1950  0.0421
    1PPC    GL270257   9.892  20.404   6.022 -0.2763  0.0774 -0.0755
    1PPC    C1B70258   9.587  20.346   5.724  0.0213 -0.1235 -0.0745
    1PPC    C2B70259   9.615  20.278   5.358  0.0737 -0.1465  0.1303
    1PPC    C3B70260   9.395  20.209   4.889  0.3966  0.0991 -0.0463
    1PPC    C4B70261   9.272  19.922   4.609  0.0650 -0.1905 -0.2580
    1PPC    NC370262  24.386   5.410   7.222 -0.1350 -0.1976  0.1837
    1PPC    PO470263  24.740   5.551   7.270  0.2446  0.4120  0.1502
    1PPC    GL170264  24.966   5.648   6.853  0.2027  0.2160 -0.0130
    1PPC    GL270265  25.053   5.587   6.545 -0.2197  0.3844  0.2799
    1PPC    C1B70266  24.924   5.754   6.211 -0.2178 -0.0088  0.0612
    1PPC    C2B70267  24.925   5.797   5.739 -0.2663 -0.0847 -0.0346
    1PPC    C3B70268  24.934   5.802   5.276 -0.1488  0.2366 -0.2855
    1PPC    C4B70269  24.857   5.665   4.774 -0.0293  0.0548 -0.2319
    1PPC    NC370270  25.341   9.957   7.477  0.1332 -0.0278  0.0095
    1PPC    PO470271  25.174   9.713   7.142 -0.1302  0.0168  0.2266
    1PPC    GL170272  25.109   9.531   6.735 -0.0421 -0.2513  0.2125
    1PPC    GL270273  25.091   9.339   6.507  0.3108 -0.1737 -0.0983
    1PPC    C1B70274  25.053   9.086   6.062  0.0135 -0.0354  0.0999
    1PPC    C2B70275  24.958   9.021   5.622 -0.2458  0.1137  0.3946
    1PPC    C3B70276  24.842   9.133   5.163 -0.0849  0.4308 -0.0001
    1PPC    C4B70277  24.429   9.038   4.882 -0.0225  0.0613  0.0994
    1PPC    NC370278  22.296   9.766   7.583 -0.1028  0.0898  0.0103
    1PPC    PO470279  22.110   9.994   7.145  0.1196  0.0190  0.0337
    1PPC    GL170280  22.195  10.230   6.731 -0.0510 -0.0194 -0.2427
    1PPC    GL270281  22.123  10.392   6.515  0.0164  0.1098 -0.0090
    1PPC    C1B70282  22.040  10.381   6.154  0.2435 -0.1078  0.0573
    1PPC    C2B70283  22.039  10.339   5.709 -0.5267  0.0284 -0.1019
    1PPC    C3B70284  22.111  10.220   5.306  0.0442 -0.0184 -0.1319
    1PPC    C4B70285  22.064  10.178   4.897 -0.0280 -0.1430  0.0043
    1PPC    NC370286  20.058   4.884   7.493  0.1367  0.0734  0.1330
    1PPC    PO470287  19.906   5.164   7.185  0.0621 -0.0472  0.1860
    1PPC    GL170288  20.106   5.146   6.737 -0.1535 -0.0291 -0.0389
    1PPC    GL270289  20.268   5.206   6.496 -0.3233  0.1344 -0.0765
    1PPC    C1B70290  20.348   5.321   6.140  0.0720  0.0998 -0.2304
    1PPC    C2B70291  20.502   5.289   5.715 -0.1432 -0.0478  0.2948
    1PPC    C3B70292  20.682   5.174   5.312 -0.2920  0.1344 -0.0445
    1PPC    C4B70293  20.779   4.878   5.007  0.2302 -0.1923  0.0593
    1PPC    NC370294   1.353  12.033   7.099  0.0960  0.0764 -0.2149
    1PPC    PO470295   1.090  12.217   6.705 -0.5574  0.1904 -0.1810
    1PPC    GL170296   1.035  12.161   6.328 -0.1321  0.2690 -0.2183
    1PPC    GL270297   1.023  11.919   6.140  0.2813 -0.0010 -0.4393
    1PPC    C1B70298   0.890  12.013   5.741 -0.0375 -0.0231 -0.2912
    1PPC    C2B70299   0.849  12.101   5.369  0.4522 -0.3556  0.0652
    1PPC    C3B70300   0.572  12.350   5.014 -0.2599  0.0083 -0.0102
    1PPC    C4B70301   0.397  12.308   4.569  0.0243  0.0077  0.1185
    1PPC    NC370302  16.483  24.390   7.172 -0.2162  0.1313 -0.2362
    1PPC    PO470303  16.262  24.377   6.821  0.0415  0.0330  0.0139
    1PPC    GL170304  16.373  24.333   6.427  0.1519 -0.1768  0.1720
    1PPC    GL270305  16.505  24.171   6.219 -0.0664  0.1029  0.1023
    1PPC    C1B70306  16.482  23.816   5.977  0.0297  0.2573  0.0681
    1PPC    C2B70307  16.329  23.686   5.475  0.0186 -0.0925  0.1409
    1PPC    C3B70308  16.011  23.555   5.319  0.2346 -0.2415  0.1488
    1PPC    C4B70309  15.814  23.398   5.052  0.0614  0.6112  0.0049
    1PPC    NC370310   6.402   9.823   5.878  0.2933 -0.0097  0.0016
    1PPC    PO470311   6.162   9.424   5.761  0.1458  0.0723  0.1334
    1PPC    GL170312   6.149   9.559   5.319  0.4874 -0.1765 -0.2593
    1PPC    GL270313   5.997   9.609   5.164  0.1369  0.2653 -0.0830
    1PPC    C1B70314   5.682   9.718   4.907  0.2281  0.1719  0.0427
    1PPC    C2B70315   5.634  10.019   4.631  0.2916 -0.0464 -0.0869
    1PPC    C3B70316   5.649  10.158   4.176  0.1426 -0.0990 -0.2221
    1PPC    C4B70317   5.477  10.302   3.747 -0.2300  0.3579  0.1626
    1PPC    NC370318  27.893   2.917   6.935 -0.4067 -0.0422  0.0593
    1PPC    PO470319  27.506   2.880   6.628 -0.0486  0.1061 -0.0781
    1PPC    GL170320  27.594   3.091   6.232 -0.0188  0.0709  0.0986
    1PPC    GL270321  27.384   3.240   5.987 -0.1099 -0.0246 -0.3517
    1PPC    C1B70322  27.230   3.259   5.587  0.0839 -0.1506 -0.0373
    1PPC    C2B70323  27.059   3.237   5.133  0.1732 -0.2141 -0.0597
    1PPC    C3B70324  26.777   3.306   4.754  0.0520 -0.1823 -0.0358
    1PPC    C4B70325  26.468   3.343   4.500 -0.0090  0.2786  0.2075
    1PPC    NC370326  27.092   4.406   6.566  0.1598 -0.0155  0.0718
    1PPC    PO470327  27.472   4.163   6.586  0.0273  0.0788  0.0378
    1PPC    GL170328  27.373   4.240   6.188  0.0511 -0.2008  0.2011
    1PPC    GL270329  27.399   4.178   5.870  0.0011  0.0389  0.0107
    1PPC    C1B70330  27.288   4.040   5.449  0.2265 -0.1916 -0.1858
    1PPC    C2B70331  27.338   3.794   5.045 -0.2913  0.1322  0.0440
    1PPC    C3B70332  27.211   3.495   4.728  0.0212  0.2887  0.1972
    1PPC    C4B70333  27.095   3.355   4.380  0.0108  0.1153 -0.1251
    1PPC    NC370334  11.781  12.059   6.152  0.3914 -0.0961  0.2789
    1PPC    PO470335  12.045  11.738   5.978 -0.1677 -0.1844  0.3019
    1PPC    GL170336  11.964  11.595   5.613 -0.4152 -0.0740 -0.0477
    1PPC    GL270337  12.068  11.397   5.362 -0.1718  0.0906 -0.1132
    1PPC    C1B70338  11.883  11.222   5.009 -0.2004 -0.0729 -0.0465
    1PPC    C2B70339  11.723  10.996   4.712 -0.2610 -0.3001 -0.0057
    1PPC    C3B70340  11.856  10.660   4.560 -0.0415  0.1562  0.3655
    1PPC    C4B70341  12.181  10.293   4.641 -0.0624 -0.1360 -0.1621
    1PPC    NC370342  25.884   0.932   7.807 -0.1177 -0.1999  0.0837
    1PPC    PO470343  25.353   0.956   7.671 -0.0527  0.1800  0.0332
    1PPC    GL170344  25.149   1.045   7.299  0.3286  0.3379  0.1196
    1PPC    GL270345  25.319   1.149   7.130 -0.1892  0.2306  0.1355
    1PPC    C1B70346  25.497   1.150   6.790 -0.0170 -0.0705 -0.0250
    1PPC    C2B70347  25.721   1.090   6.448  0.1670  0.2981  0.2243
    1PPC    C3B70348  25.824   1.121   6.051  0.4332 -0.4514  0.1266
    1PPC    C4B70349  25.807   1.124   5.589 -0.0106 -0.1373 -0.2394
    1PPC    NC370350   5.335  19.782   7.535 -0.0991  0.1118  0.1327
    1PPC    PO470351   5.439  20.078   7.152 -0.2630  0.4098 -0.2699
    1PPC    GL170352   5.544  19.996   6.734  0.0033  0.0918  0.0215
    1PPC    GL270353   5.516  19.750   6.460 -0.1380  0.0402  0.0212
    1PPC    C1B70354   5.676  19.535   6.009 -0.0199  0.0819  0.0645
    1PPC    C2B70355   5.581  19.391   5.653 -0.1285 -0.0692  0.0969
    1PPC    C3B70356   5.643  19.487   5.209  0.0959  0.4330  0.1518
    1PPC    C4B70357   5.455  19.412   4.769  0.3443  0.1359 -0.1155
    1PPC    NC370358  10.189   7.420   6.754 -0.3894 -0.1728 -0.3357
    1PPC    PO470359   9.881   7.696   6.405  0.4951 -0.0608  0.1261
    1PPC    GL170360   9.934   7.875   6.052 -0.0673 -0.2138 -0.0235
    1PPC    GL270361   9.969   7.716   5.901  0.1655  0.1823  0.4351
    1PPC    C1B70362  10.010   7.576   5.427  0.0735  0.1992 -0.0287
    1PPC    C2B70363  10.025   7.457   4.901 -0.0016  0.3047  0.0560
    1PPC    C3B70364   9.840   7.353   4.458 -0.0050  0.2732 -0.0321
    1PPC    C4B70365   9.452   7.184   4.465  0.0835 -0.0044  0.3071
    1PPC    NC370366  20.994   3.789   7.460 -0.0541 -0.1318 -0.2223
    1PPC    PO470367  20.633   3.602   7.232 -0.0630  0.1945  0.1112
    1PPC    GL170368  20.499   3.704   6.876 -0.2766  0.2573 -0.0816
    1PPC    GL270369  20.548   3.493   6.611  0.1734  0.0529  0.2120
    1PPC    C1B70370  20.515   3.361   6.136 -0.0856 -0.0984 -0.3221
    1PPC    C2B70371  20.276   3.637   5.779  0.0821  0.1061 -0.0781
    1PPC    C3B70372  20.185   3.514   5.335  0.1560  0.1492  0.2967
    1PPC    C4B70373  20.484   3.638   5.024 -0.2195  0.2707  0.2198
    1PPC    NC370374  29.388  12.142   6.998 -0.1260 -0.2467 -0.1494
    1PPC    PO470375  29.478  11.717   6.848  0.0648 -0.1089  0.2791
    1PPC    GL170376  29.495  11.385   6.474 -0.1215  0.0163 -0.0262
    1PPC    GL270377  29.399  11.335   6.266 -0.2808 -0.1738 -0.3587
    1PPC    C1B70378  29.261  11.379   5.925 -0.2707  0.1130  0.1744
    1PPC    C2B70379  29.204  11.334   5.568  0.2170 -0.0450 -0.0642
    1PPC    C3B70380  29.261  11.292   5.200  0.1835  0.4565 -0.1046
    1PPC    C4B70381  29.300  11.132   4.759  0.2372 -0.0162 -0.0034
    1PPC    NC370382  16.247   6.764   6.645  0.1358  0.4556 -0.0139
    1PPC    PO470383  16.093   7.156   6.825 -0.0549  0.1835  0.0405
    1PPC    GL170384  16.163   7.481   6.483 -0.0877  0.1314 -0.0398
    1PPC    GL270385  16.284   7.745   6.373 -0.0616 -0.1599 -0.0772
    1PPC    C1B70386  16.600   7.874   6.109 -0.2698 -0.0657  0.4929
    1PPC    C2B70387  16.569   7.964   5.645 -0.1653 -0.0744 -0.0009
    1PPC    C3B70388  16.604   7.989   5.107  0.1071 -0.0302 -0.0608
    1PPC    C4B70389  16.627   8.095   4.727  0.4479 -0.4055  0.1410
    1PPC    NC370390  25.268  13.854   7.756 -0.4667  0.0541  0.0329
    1PPC    PO470391  25.744  13.805   7.677 -0.1604  0.1871 -0.0021
    1PPC    GL170392  25.932  13.572   7.209 -0.0580  0.0061  0.1858
    1PPC    GL270393  25.858  13.579   6.803 -0.4286 -0.0523  0.2641
    1PPC    C1B70394  25.861  13.687   6.322 -0.1999 -0.1224 -0.1402
    1PPC    C2B70395  25.820  13.692   5.952  0.1474  0.4502 -0.0636
    1PPC    C3B70396  25.799  13.685   5.578 -0.0438  0.1670  0.5479
    1PPC    C4B70397  25.890  13.825   5.380 -0.0709  0.3470 -0.0257
    1PPC    NC370398  14.645  22.580   6.369  0.1481  0.4222  0.0148
    1PPC    PO470399  14.913  22.967   6.474 -0.1638 -0.0617 -0.1741
    1PPC    GL170400  14.793  22.943   6.120 -0.0627  0.0788  0.3287
    1PPC    GL270401  14.878  22.905   5.828 -0.0311  0.0145 -0.2096
    1PPC    C1B70402  15.061  22.818   5.494 -0.2337 -0.1191 -0.0575
    1PPC    C2B70403  15.302  22.597   5.127 -0.0822  0.0695  0.0393
    1PPC    C3B70404  15.452  22.727   4.689 -0.3765  0.1036 -0.2617
    1PPC    C4B70405  15.768  22.836   4.272  0.3017 -0.1389 -0.3252
    1PPC    NC370406  25.890   7.339   7.006 -0.1015 -0.0873 -0.1088
    1PPC    PO470407  25.458   7.515   7.109  0.0382  0.0923 -0.1073
    1PPC    GL170408  25.599   7.766   6.744  0.2368  0.0005 -0.0383
    1PPC    GL270409  25.562   7.755   6.438 -0.2259  0.1560  0.0063
    1PPC    C1B70410  25.589   7.822   5.936 -0.1235 -0.0030  0.0286
    1PPC    C2B70411  25.551   7.785   5.480 -0.0487  0.1208 -0.1187
    1PPC    C3B70412  25.511   7.845   5.022 -0.1790  0.2683 -0.0762
    1PPC    C4B70413  25.360   7.807   4.569 -0.1232 -0.1477 -0.1030
    1PPC    NC370414  19.032   4.252   7.761  0.3797  0.0080 -0.0188
    1PPC    PO470415  19.353   4.168   7.423  0.0205 -0.0831 -0.0254
    1PPC    GL170416  19.584   4.021   7.143 -0.0243  0.0254  0.0531
    1PPC    GL270417  19.748   3.990   6.776 -0.2144 -0.0184  0.0961
    1PPC    C1B70418  19.686   3.945   6.386 -0.0509 -0.0480  0.2068
    1PPC    C2B70419  19.530   4.178   5.924 -0.1028 -0.0747 -0.1190
    1PPC    C3B70420  19.611   4.278   5.510  0.0037  0.2604  0.0665
    1PPC    C4B70421  19.633   4.143   5.139  0.3474 -0.0184 -0.0703
    1PPC    NC370422  23.771   6.797   7.573  0.1348 -0.0568  0.0428
    1PPC    PO470423  23.800   6.625   7.177  0.1794 -0.1864 -0.0490
    1PPC    GL170424  23.576   6.602   6.843 -0.2083 -0.0277  0.2008
    1PPC    GL270425  23.384   6.664   6.574  0.1667 -0.0422  0.0218
    1PPC    C1B70426  23.286   6.868   6.214  0.2289  0.0776 -0.2535
    1PPC    C2B70427  23.194   6.893   5.796 -0.1254  0.1212  0.0170
    1PPC    C3B70428  23.184   6.818   5.413  0.1464 -0.1114  0.0181
    1PPC    C4B70429  23.203   6.751   5.023  0.2996 -0.0192  0.0371
    1PPC    NC370430  22.739   8.519   7.924  0.0625 -0.0016  0.3114
    1PPC    PO470431  22.604   8.214   7.561 -0.0737 -0.0628 -0.0034
    1PPC    GL170432  22.590   8.048   7.185  0.0297  0.0172 -0.0499
    1PPC    GL270433  22.720   8.063   6.914  0.0674 -0.0596 -0.1460
    1PPC    C1B70434  22.894   8.084   6.560 -0.1433 -0.1632 -0.4369
    1PPC    C2B70435  23.047   8.381   6.236  0.0468 -0.0611  0.1431
    1PPC    C3B70436  23.084   8.460   5.831 -0.1946 -0.1799  0.2556
    1PPC    C4B70437  23.087   8.628   5.514  0.0535  0.0984  0.1162
    1PPC    NC370438  26.725  15.953   7.734  0.2159 -0.0703  0.2147
    1PPC    PO470439  26.610  15.660   7.458 -0.1522 -0.0146  0.1782
    1PPC    GL170440  26.481  15.528   7.015 -0.0556  0.0020 -0.0633
    1PPC    GL270441  26.424  15.330   6.740 -0.4435 -0.0051 -0.2336
    1PPC    C1B70442  26.360  15.240   6.412  0.2485  0.0861 -0.3010
    1PPC    C2B70443  26.387  15.193   6.043  0.0633  0.0606 -0.3515
    1PPC    C3B70444  26.359  15.219   5.637 -0.1251  0.2100 -0.0134
    1PPC    C4B70445  26.368  15.245   5.204 -0.0312 -0.1945  0.1442
    1PPC    NC370446  24.424   9.888   7.719 -0.2923  0.4489  0.0637
    1PPC    PO470447  24.291   9.556   7.724  0.0806 -0.0441  0.1669
    1PPC    GL170448  24.346   9.318   7.241 -0.2330 -0.1469  0.0532
    1PPC    GL270449  24.322   9.354   6.929  0.0107  0.0567  0.1880
    1PPC    C1B70450  24.248   9.481   6.467  0.0644 -0.0394  0.1183
    1PPC    C2B70451  24.286   9.523   6.075 -0.2804  0.0348  0.0144
    1PPC    C3B70452  24.312   9.696   5.645 -0.3818 -0.1359  0.2296
    1PPC    C4B70453  24.555   9.896   5.338  0.3275 -0.2883  0.2834
    1PPC    NC370454  23.548   4.998   6.913 -0.0389 -0.3144 -0.0493
    1PPC    PO470455  23.310   4.659   7.076  0.0855  0.1508 -0.0277
    1PPC    GL170456  23.535   4.516   6.829  0.0802 -0.1244 -0.2217
    1PPC    GL270457  23.540   4.492   6.579 -0.0256  0.1092 -0.2218
    1PPC    C1B70458  23.549   4.235   6.238  0.2130  0.2895  0.0340
    1PPC    C2B70459  23.654   4.071   5.845 -0.0200  0.3111  0.0321
    1PPC    C3B70460  23.633   3.794   5.476 -0.0424 -0.2589  0.0134
    1PPC    C4B70461  23.474   3.588   5.168  0.0484  0.0260 -0.0800
    1PPC    NC370462   7.071  23.319   7.322  0.0032  0.1726 -0.0951
    1PPC    PO470463   6.883  23.280   6.941 -0.2863  0.0860  0.0396
    1PPC    GL170464   6.651  22.901   6.807  0.0629  0.0026 -0.1407
    1PPC    GL270465   6.451  22.921   6.629 -0.3195  0.0729 -0.0190
    1PPC    C1B70466   6.526  23.149   6.245  0.3097  0.0493 -0.1572
    1PPC    C2B70467   6.201  23.378   5.951 -0.0787 -0.0693  0.2696
    1PPC    C3B70468   5.950  23.576   5.760 -0.1312  0.3360  0.0624
    1PPC    C4B70469   5.561  23.684   5.641  0.3604  0.1811  0.1557
    1PPC    NC370470  24.628  12.476   7.666 -0.1048  0.2282 -0.1189
    1PPC    PO470471  24.519  12.116   7.418 -0.1609 -0.0403  0.2814
    1PPC    GL170472  24.733  12.022   7.046 -0.0291  0.1003 -0.3311
    1PPC    GL270473  24.817  12.218   6.798  0.0314 -0.2195 -0.2860
    1PPC    C1B70474  24.828  12.351   6.370 -0.1085  0.0891 -0.1771
    1PPC    C2B70475  25.143  12.441   6.091  0.1642 -0.3425 -0.1774
    1PPC    C3B70476  25.224  12.490   5.620 -0.4686  0.0472 -0.1141
    1PPC    C4B70477  25.282  12.307   5.203 -0.1731 -0.1667 -0.2156
    1PPC    NC370478  16.674   3.532   7.124 -0.2166  0.2107  0.0516
    1PPC    PO470479  16.760   3.839   6.700  0.1163  0.0970 -0.0955
    1PPC    GL170480  16.614   3.975   6.246 -0.2243 -0.0395  0.1207
    1PPC    GL270481  16.629   3.741   5.984 -0.0331  0.0041 -0.0587
    1PPC    C1B70482  16.590   3.751   5.552  0.2638  0.0616 -0.2324
    1PPC    C2B70483  16.364   3.524   5.218  0.0793 -0.2405 -0.0227
    1PPC    C3B70484  16.300   3.314   4.864 -0.0544 -0.2568 -0.1587
    1PPC    C4B70485  16.322   3.346   4.404  0.0780 -0.0656 -0.0761
    1PPC    NC370486  27.155  12.771   7.215  0.2355  0.1467 -0.0320
    1PPC    PO470487  27.029  12.356   7.184 -0.0251  0.1970 -0.1159
    1PPC    GL170488  27.222  12.273   6.759 -0.2388 -0.0920 -0.1798
    1PPC    GL270489  27.425  12.392   6.567 -0.0799 -0.1296  0.1035
    1PPC    C1B70490  27.663  12.287   6.232  0.0387 -0.0743  0.0465
    1PPC    C2B70491  27.497  12.259   5.850 -0.0102 -0.0852  0.0020
    1PPC    C3B70492  27.469  12.256   5.491 -0.4882 -0.2127  0.0986
    1PPC    C4B70493  27.621  12.257   5.119  0.1797 -0.0735  0.0437
    1PPC    NC370494  24.268  11.320   8.038 -0.0859 -0.1405 -0.0377
    1PPC    PO470495  24.454  11.110   7.612  0.0721 -0.0546  0.3370
    1PPC    GL170496  24.539  11.227   7.171  0.0857  0.0664  0.3375
    1PPC    GL270497  24.607  11.140   6.818  0.0729 -0.0511 -0.1051
    1PPC    C1B70498  24.465  11.190   6.492 -0.1926 -0.0666  0.0876
    1PPC    C2B70499  24.508  11.125   6.012  0.1959 -0.2194 -0.1326
    1PPC    C3B70500  24.406  11.195   5.600 -0.0485  0.1816 -0.0372
    1PPC    C4B70501  23.984  11.185   5.374 -0.0729 -0.3472 -0.1427
    1PPC    NC370502  12.112  14.724   6.711  0.3358 -0.2446  0.1597
    1PPC    PO470503  12.045  14.974   6.331  0.2161  0.2699 -0.2546
    1PPC    GL170504  11.935  15.151   5.947  0.3089  0.0133  0.0015
    1PPC    GL270505  11.642  15.083   5.818 -0.0334  0.0071  0.2494
    1PPC    C1B70506  11.469  15.248   5.426 -0.1016 -0.2658  0.1325
    1PPC    C2B70507  11.399  15.055   5.041 -0.0765  0.3054  0.2626
    1PPC    C3B70508  11.259  15.032   4.607  0.0020  0.1526  0.0661
    1PPC    C4B70509  11.155  15.296   4.366 -0.0980 -0.0567 -0.3045
    1PPC    NC370510  21.540  11.741   7.661 -0.0423  0.0981  0.0377
    1PPC    PO470511  21.438  11.539   7.312 -0.0354 -0.2367  0.4562
    1PPC    GL170512  21.113  11.609   7.073 -0.1914  0.0326 -0.1500
    1PPC    GL270513  21.047  11.618   6.740 -0.0370  0.0500 -0.0695
    1PPC    C1B70514  20.965  11.577   6.277 -0.1756  0.2627 -0.0260
    1PPC    C2B70515  20.995  11.599   5.783 -0.2206  0.0086 -0.2432
    1PPC    C3B70516  21.113  11.625   5.397 -0.0223 -0.1252  0.2238
    1PPC    C4B70517  21.100  11.700   4.888  0.3105 -0.3245 -0.0471
    1PPC    NC370518  18.034   5.387   7.025 -0.1828  0.3403  0.0339
    1PPC    PO470519  18.104   5.855   6.884 -0.1864 -0.0202 -0.1826
    1PPC    GL170520  18.236   5.848   6.583 -0.0623 -0.0877  0.0722
    1PPC    GL270521  18.321   5.957   6.337 -0.0352  0.0009  0.1209
    1PPC    C1B70522  18.350   5.906   5.911 -0.1882 -0.0031  0.3489
    1PPC    C2B70523  18.300   5.963   5.510  0.1617  0.1250 -0.2202
    1PPC    C3B70524  18.348   5.994   5.036 -0.0980  0.0274 -0.0563
    1PPC    C4B70525  18.260   6.024   4.714 -0.0428  0.2101  0.3661
    1PPC    NC370526  12.666  10.548   6.560  0.0229 -0.3188 -0.1159
    1PPC    PO470527  13.046  10.652   6.503  0.0232  0.1437  0.1872
    1PPC    GL170528  13.131  10.640   6.094 -0.2701 -0.0247  0.0257
    1PPC    GL270529  13.297  10.605   5.842  0.0131 -0.0328  0.0560
    1PPC    C1B70530  13.429  10.684   5.541 -0.0234 -0.3649 -0.1004
    1PPC    C2B70531  13.405  10.779   5.060  0.1161 -0.0302  0.2027
    1PPC    C3B70532  13.718  10.869   4.817  0.2752  0.1992 -0.3389
    1PPC    C4B70533  14.010  11.061   4.526 -0.1560  0.1202 -0.0769
    1PPC    NC370534  20.132  13.660   7.875  0.0647  0.2022  0.1771
    1PPC    PO470535  20.392  13.876   7.661 -0.2506  0.3961  0.2373
    1PPC    GL170536  20.815  13.826   7.432 -0.0168 -0.0747  0.1672
    1PPC    GL270537  21.000  13.868   7.211  0.4254  0.0295  0.1855
    1PPC    C1B70538  21.022  13.914   6.763 -0.1701  0.2829 -0.2842
    1PPC    C2B70539  20.945  13.880   6.317  0.3652  0.0592  0.1142
    1PPC    C3B70540  20.889  13.949   5.798 -0.1503 -0.2445 -0.1072
    1PPC    C4B70541  20.677  13.921   5.402  0.1421  0.0997 -0.1790
    1PPC    NC370542   7.612  23.779   7.307  0.2395 -0.0024 -0.1450
    1PPC    PO470543   7.238  23.782   6.959 -0.1788 -0.3502 -0.0045
    1PPC    GL170544   6.916  23.699   6.648 -0.0638 -0.1915  0.3311
    1PPC    GL270545   6.938  23.572   6.327 -0.2019 -0.0764  0.0750
    1PPC    C1B70546   6.938  23.336   6.006  0.1193 -0.2705  0.1306
    1PPC    C2B70547   6.764  23.521   5.525  0.4440 -0.0568 -0.0693
    1PPC    C3B70548   6.427  23.803   5.441 -0.2002 -0.1371  0.3653
    1PPC    C4B70549   6.428  24.078   5.153 -0.0038  0.0869  0.1163
    1PPC    NC370550  19.094   5.840   6.802 -0.3013  0.2906 -0.2577
    1PPC    PO470551  19.396   5.922   7.111  0.1267 -0.1169 -0.1752
    1PPC    GL170552  19.386   6.206   6.699  0.0729 -0.0645  0.2597
    1PPC    GL270553  19.205   6.170   6.360 -0.1421  0.1412 -0.0560
    1PPC    C1B70554  19.376   6.060   6.025 -0.3138  0.0944  0.0051
    1PPC    C2B70555  19.272   5.896   5.638 -0.2050  0.3750  0.5680
    1PPC    C3B70556  19.286   5.710   5.230 -0.1467 -0.2532 -0.2300
    1PPC    C4B70557  19.292   5.823   4.773  0.0790 -0.2706 -0.2578
    1PPC    NC370558  21.549  11.048   7.217  0.1145 -0.1521 -0.0809
    1PPC    PO470559  21.113  11.127   7.067 -0.0515 -0.0659  0.1137
    1PPC    GL170560  21.361  11.200   6.793  0.1774  0.0274 -0.1150
    1PPC    GL270561  21.370  11.298   6.452 -0.0401 -0.3231  0.0643
    1PPC    C1B70562  21.422  11.321   6.064 -0.1850  0.1127  0.0211
    1PPC    C2B70563  21.255  11.187   5.704  0.1096  0.2128 -0.1620
    1PPC    C3B70564  21.094  11.078   5.354 -0.1172 -0.1938 -0.1159
    1PPC    C4B70565  21.347  10.926   5.039  0.0700 -0.2280  0.0745
    1PPC    NC370566  18.467  13.162   8.132 -0.3652 -0.2622  0.0899
    1PPC    PO470567  18.373  13.114   7.736  0.0918 -0.2805  0.1030
    1PPC    GL170568  18.248  12.972   7.330 -0.1446  0.0432  0.2107
    1PPC    GL270569  17.932  13.002   7.135 -0.2784 -0.3167 -0.2774
    1PPC    C1B70570  17.762  12.848   6.737  0.0219 -0.2387  0.1569
    1PPC    C2B70571  17.606  12.939   6.319 -0.0663 -0.4049  0.1023
    1PPC    C3B70572  17.691  12.857   5.900 -0.2229 -0.2109 -0.1298
    1PPC    C4B70573  17.841  12.904   5.567  0.1187 -0.0787  0.1092
    1PPC    NC370574  15.623  17.475   7.239  0.3384  0.1283  0.0187
    1PPC    PO470575  15.703  17.418   6.762 -0.0845 -0.4564 -0.0339
    1PPC    GL170576  15.846  17.460   6.366 -0.1202  0.1186 -0.0214
    1PPC    GL270577  15.793  17.497   6.073 -0.0414 -0.2542 -0.2834
    1PPC    C1B70578  16.014  17.272   5.713 -0.2261 -0.3475  0.0704
    1PPC    C2B70579  16.418  17.185   5.471 -0.0136  0.4505  0.0869
    1PPC    C3B70580  16.669  17.351   5.225  0.4494 -0.1367 -0.0256
    1PPC    C4B70581  16.641  17.441   4.804  0.1134 -0.1057  0.0131
    1PPC    NC370582  15.708  11.998   6.706  0.0250  0.0707 -0.4173
    1PPC    PO470583  15.820  12.263   7.009 -0.0721 -0.4668 -0.0665
    1PPC    GL170584  16.005  12.501   6.777 -0.2869 -0.1046 -0.3238
    1PPC    GL270585  16.131  12.708   6.563  0.0101 -0.0373 -0.2684
    1PPC    C1B70586  16.253  12.863   6.138 -0.2885  0.0516  0.2270
    1PPC    C2B70587  16.249  12.861   5.728  0.1606  0.2636 -0.1722
    1PPC    C3B70588  16.227  12.953   5.341 -0.1231 -0.1192  0.1881
    1PPC    C4B70589  15.872  12.952   5.067 -0.0091  0.2669  0.3590
    1PPC    NC370590   1.131  12.936   7.577 -0.4133 -0.4159  0.1749
    1PPC    PO470591   1.335  12.862   7.149 -0.1431 -0.0575 -0.0304
    1PPC    GL170592   1.235  12.959   6.733 -0.2526  0.0498 -0.0397
    1PPC    GL270593   1.293  13.012   6.438 -0.0834 -0.1435 -0.1650
    1PPC    C1B70594   1.354  12.955   6.054  0.1604  0.0443 -0.1186
    1PPC    C2B70595   1.303  12.893   5.707 -0.0145 -0.0373 -0.1489
    1PPC    C3B70596   1.134  12.911   5.286  0.1508  0.0232  0.1559
    1PPC    C4B70597   1.044  12.521   5.125  0.2382 -0.0504 -0.0972
    1PPC    NC370598   0.281   5.486   6.153 -0.1654  0.0064 -0.0937
    1PPC    PO470599   0.137   5.981   6.025  0.0267  0.1162 -0.0545
    1PPC    GL170600  29.570   5.700   5.750 -0.2493  0.1988 -0.0470
    1PPC    GL270601  29.470   5.575   5.549 -0.6411  0.1262 -0.1534
    1PPC    C1B70602  29.348   5.423   5.059  0.1120  0.4515  0.3224
    1PPC    C2B70603  29.291   5.461   4.581  0.0973 -0.3851  0.3906
    1PPC    C3B70604  29.419   5.576   4.127 -0.3586 -0.0828  0.2654
    1PPC    C4B70605  29.297   5.696   3.659 -0.0128  0.1575 -0.0538
    1PPC    NC370606  27.296   6.174   7.079 -0.0452  0.1230 -0.1094
    1PPC    PO470607  27.519   5.917   6.853  0.1881 -0.0717  0.3411
    1PPC    GL170608  27.310   5.766   6.434  0.1731  0.2807 -0.1902
    1PPC    GL270609  27.122   5.572   6.207  0.0276  0.3720 -0.2606
    1PPC    C1B70610  27.077   5.554   5.746 -0.0555 -0.1638 -0.0517
    1PPC    C2B70611  27.074   5.541   5.343  0.1222  0.1020  0.0906
    1PPC    C3B70612  27.104   5.701   4.999  0.0105 -0.0278 -0.0710
    1PPC    C4B70613  26.786   5.667   4.728  0.1117  0.0567 -0.4076
    1PPC    NC370614  20.571  18.931   7.599  0.0349  0.4353 -0.0735
    1PPC    PO470615  21.097  18.734   7.537 -0.1206  0.0893  0.0503
    1PPC    GL170616  21.076  18.818   7.001 -0.0049 -0.4003 -0.1057
    1PPC    GL270617  20.956  18.651   6.728  0.0287 -0.2016 -0.0349
    1PPC    C1B70618  21.034  18.650   6.287  0.0903 -0.0857 -0.3327
    1PPC    C2B70619  20.881  18.753   5.761  0.2020 -0.0743  0.1288
    1PPC    C3B70620  20.538  18.788   5.473 -0.2914 -0.0882 -0.1305
    1PPC    C4B70621  20.573  18.924   5.103 -0.1344 -0.1361 -0.0757
    1PPC    NC370622  19.640  15.229   8.426  0.1300 -0.1112 -0.0695
    1PPC    PO470623  19.508  15.475   8.083 -0.0792  0.3034 -0.1749
    1PPC    GL170624  19.556  15.299   7.653  0.0192 -0.3145 -0.1444
    1PPC    GL270625  19.671  15.391   7.320 -0.3530  0.2830 -0.0344
    1PPC    C1B70626  19.822  15.560   6.827 -0.1210  0.1440  0.0673
    1PPC    C2B70627  19.840  15.687   6.403  0.0780  0.0604  0.0157
    1PPC    C3B70628  19.866  15.831   5.955 -0.1660 -0.1930  0.1892
    1PPC    C4B70629  20.085  15.726   5.586 -0.2957 -0.1562  0.1686
    1PPC    NC370630   8.466   3.432   5.971  0.1875 -0.1322 -0.1120
    1PPC    PO470631   8.552   3.898   5.971 -0.0500  0.0899 -0.0257
    1PPC    GL170632   8.652   4.388   5.633 -0.0343 -0.0206 -0.2441
    1PPC    GL270633   8.896   4.548   5.569 -0.1219  0.3037  0.1192
    1PPC    C1B70634   9.041   4.582   5.158  0.2710 -0.0915  0.0240
    1PPC    C2B70635   9.163   4.403   4.829 -0.0674  0.2745 -0.1446
    1PPC    C3B70636   9.276   4.358   4.460  0.0472 -0.3009 -0.2887
    1PPC    C4B70637   9.207   4.582   4.081 -0.1176 -0.1060 -0.0630
    1PPC    NC370638   3.512  12.556   6.470  0.0117 -0.2012  0.0317
    1PPC    PO470639   2.996  12.569   6.615 -0.2224  0.0053  0.0468
    1PPC    GL170640   3.135  12.867   6.288  0.1687  0.4372  0.2327
    1PPC    GL270641   3.177  13.176   6.092  0.0478 -0.1262  0.0599
    1PPC    C1B70642   3.274  13.488   5.691  0.3369 -0.0021  0.0919
    1PPC    C2B70643   3.355  13.510   5.249 -0.0735  0.0436 -0.2690
    1PPC    C3B70644   3.260  13.501   4.810  0.2146  0.1431 -0.0575
    1PPC    C4B70645   3.228  13.271   4.572 -0.4091 -0.3434  0.0231
    1PPC    NC370646   2.261   6.920   5.785  0.1323 -0.2460 -0.0458
    1PPC    PO470647   2.074   6.764   6.161  0.0155 -0.0455 -0.1761
    1PPC    GL170648   2.149   6.411   5.827  0.0855 -0.0949  0.1136
    1PPC    GL270649   2.098   6.332   5.559  0.0786 -0.1824 -0.3161
    1PPC    C1B70650   2.005   6.218   5.182 -0.2506 -0.0120 -0.4123
    1PPC    C2B70651   2.228   6.224   4.839 -0.0543 -0.0590 -0.0559
    1PPC    C3B70652   2.201   6.467   4.500 -0.4186 -0.0850  0.0701
    1PPC    C4B70653   2.220   6.606   4.052  0.0051  0.1019  0.3725
    1PPC    NC370654  21.026  24.855   7.696 -0.0200 -0.0483 -0.1675
    1PPC    PO470655  20.794  24.464   7.837  0.0382  0.0335  0.2323
    1PPC    GL170656  20.940  24.582   7.343  0.0887  0.1453 -0.1247
    1PPC    GL270657  21.159  24.556   7.162  0.0176 -0.1031  0.1255
    1PPC    C1B70658  21.205  24.785   6.789 -0.0271 -0.4494 -0.0369
    1PPC    C2B70659  21.174  24.776   6.343  0.0926 -0.0896 -0.3354
    1PPC    C3B70660  21.281  24.983   5.951  0.0019  0.2712  0.2578
    1PPC    C4B70661  21.557  24.906   5.675  0.3884 -0.0431  0.0517
    1PPC    NC370662  17.473   9.918   7.334  0.0663  0.0332  0.3172
    1PPC    PO470663  17.204   9.933   6.985 -0.3101 -0.0828  0.1135
    1PPC    GL170664  17.157   9.852   6.599 -0.1797  0.0003 -0.2919
    1PPC    GL270665  17.054   9.735   6.325  0.1419 -0.2168 -0.2923
    1PPC    C1B70666  16.918   9.842   5.871  0.4795  0.1123 -0.0510
    1PPC    C2B70667  17.042   9.925   5.470  0.1402 -0.0564 -0.2184
    1PPC    C3B70668  17.170   9.980   5.063 -0.3196 -0.1324  0.2016
    1PPC    C4B70669  17.521  10.099   4.760 -0.2832 -0.2125  0.1361
    1PPC    NC370670  16.210  15.499   7.842 -0.3448  0.0095 -0.1381
    1PPC    PO470671  16.292  15.284   7.391 -0.0097  0.3566 -0.0672
    1PPC    GL170672  16.498  15.489   7.125 -0.0864 -0.0340 -0.0715
    1PPC    GL270673  16.559  15.599   6.725 -0.1550  0.1779 -0.0559
    1PPC    C1B70674  16.755  15.586   6.264 -0.2797 -0.0376 -0.0369
    1PPC    C2B70675  16.712  15.434   5.811 -0.0215  0.1660 -0.0520
    1PPC    C3B70676  16.611  15.458   5.375  0.1104 -0.1270  0.1439
    1PPC    C4B70677  16.765  15.860   5.035  0.0766  0.1924 -0.0864
    1PPC    NC370678  14.785   7.655   6.301 -0.1377 -0.0315 -0.2609
    1PPC    PO470679  14.639   7.931   6.109 -0.1240  0.1946 -0.2853
    1PPC    GL170680  14.339   7.674   6.038 -0.0109  0.3181  0.1928
    1PPC    GL270681  14.193   7.510   5.845  0.1665 -0.2869 -0.2242
    1PPC    C1B70682  13.922   7.402   5.490  0.3987  0.0301 -0.3951
    1PPC    C2B70683  13.742   7.441   5.107 -0.0297  0.0723 -0.1098
    1PPC    C3B70684  13.915   7.552   4.708  0.0707 -0.1050 -0.0496
    1PPC    C4B70685  14.136   7.715   4.328  0.2092  0.0044  0.2969
    1PPC    NC370686  11.716  27.611   6.328  0.1275 -0.0543  0.4261
    1PPC    PO470687  12.090  27.283   6.472  0.0097 -0.2301 -0.2485
    1PPC    GL170688  12.004  27.366   6.041 -0.1586  0.3484 -0.3305
    1PPC    GL270689  11.776  27.345   5.781 -0.2337  0.2435 -0.3419
    1PPC    C1B70690  11.480  27.632   5.514 -0.0090 -0.1295 -0.1753
    1PPC    C2B70691  11.614  27.918   5.221 -0.5134  0.1486  0.4541
    1PPC    C3B70692  11.535  28.102   4.816 -0.0209  0.2886  0.1524
    1PPC    C4B70693  11.772  28.252   4.438 -0.5142 -0.2534  0.1338
    1PPC    NC370694  19.522   7.276   6.904 -0.0319 -0.1561 -0.3217
    1PPC    PO470695  19.338   7.326   7.329 -0.2554  0.0431 -0.0722
    1PPC    GL170696  19.094   7.426   7.096  0.0887 -0.0107  0.1152
    1PPC    GL270697  19.125   7.459   6.678  0.3691 -0.0900 -0.1326
    1PPC    C1B70698  19.095   7.493   6.234  0.0927 -0.0073  0.1407
    1PPC    C2B70699  18.994   7.528   5.788  0.0771 -0.5678 -0.1504
    1PPC    C3B70700  19.009   7.259   5.504 -0.1940 -0.1604 -0.1365
    1PPC    C4B70701  19.112   7.144   5.066 -0.1378  0.4041 -0.0199
    1PPC    NC370702  19.814   6.462   6.922  0.3247  0.2525 -0.1166
    1PPC    PO470703  19.568   6.712   6.850 -0.2079 -0.0968  0.0305
    1PPC    GL170704  19.582   6.609   6.423  0.1446  0.0710  0.0467
    1PPC    GL270705  19.597   6.619   6.102  0.1667  0.1202 -0.3402
    1PPC    C1B70706  19.555   6.329   5.717  0.1716 -0.0058  0.2236
    1PPC    C2B70707  19.523   6.164   5.278  0.0060 -0.2005 -0.1645
    1PPC    C3B70708  19.740   5.914   5.134  0.0836  0.1011 -0.0087
    1PPC    C4B70709  19.987   5.513   5.172  0.1171 -0.0204 -0.0027
    1PPC    NC370710  15.495   9.839   7.254 -0.0475 -0.1167 -0.0512
    1PPC    PO470711  15.252  10.049   6.990  0.2065 -0.0933  0.0735
    1PPC    GL170712  15.334  10.221   6.675  0.1823 -0.1856 -0.1377
    1PPC    GL270713  15.520  10.201   6.426  0.0429 -0.0790 -0.1419
    1PPC    C1B70714  15.684  10.247   6.071 -0.0831 -0.0803 -0.0385
    1PPC    C2B70715  15.850  10.365   5.687 -0.1551 -0.0165 -0.3147
    1PPC    C3B70716  16.086  10.641   5.449 -0.2560 -0.0562  0.1817
    1PPC    C4B70717  16.204  10.715   4.997 -0.0462  0.2147  0.0547
    1PPC    NC370718  26.330  11.659   7.405  0.1001  0.0606  0.0976
    1PPC    PO470719  26.223  11.960   7.343 -0.1162 -0.1241 -0.3426
    1PPC    GL170720  26.297  11.792   6.949 -0.2731  0.0201 -0.0134
    1PPC    GL270721  26.218  11.804   6.676  0.3191  0.1576  0.2148
    1PPC    C1B70722  26.091  11.905   6.338  0.3033 -0.2218 -0.3345
    1PPC    C2B70723  26.205  11.958   5.958  0.2533  0.0016 -0.3359
    1PPC    C3B70724  26.212  11.952   5.532  0.0938  0.0535  0.4464
    1PPC    C4B70725  26.350  11.974   5.100 -0.2742 -0.2190 -0.0805
    1PPC    NC370726  24.704  18.008   6.637  0.2605 -0.2195  0.1993
    1PPC    PO470727  24.998  17.682   6.905 -0.2985  0.2101  0.4385
    1PPC    GL170728  25.349  17.595   6.664 -0.2069 -0.1113  0.1337
    1PPC    GL270729  25.638  17.516   6.502  0.0776  0.3422  0.2771
    1PPC    C1B70730  26.002  17.723   6.332 -0.0166 -0.0054  0.1904
    1PPC    C2B70731  26.487  17.672   6.232  0.3181 -0.0632 -0.1795
    1PPC    C3B70732  26.908  17.786   6.333 -0.0597  0.1807 -0.0175
    1PPC    C4B70733  27.190  18.170   6.299  0.1015 -0.2607 -0.1952
    1PPC    NC370734  22.270   9.138   7.440 -0.2870 -0.2161  0.2332
    1PPC    PO470735  22.523   9.470   7.268 -0.0298  0.0204 -0.0414
    1PPC    GL170736  22.343   9.448   6.858  0.0567  0.0881 -0.1050
    1PPC    GL270737  22.122   9.464   6.677 -0.1685 -0.1106 -0.2317
    1PPC    C1B70738  22.121   9.465   6.265  0.0031  0.2216  0.0664
    1PPC    C2B70739  22.034   9.433   5.862 -0.0343  0.0265  0.0475
    1PPC    C3B70740  22.025   9.312   5.473  0.1616  0.1665 -0.0095
    1PPC    C4B70741  22.135   8.890   5.183 -0.1641  0.1478  0.1129
    1PPC    NC370742   3.952  10.824   5.964 -0.1887 -0.1408 -0.4949
    1PPC    PO470743   4.089  11.106   5.590  0.1611  0.0000 -0.2848
    1PPC    GL170744   4.002  11.374   5.378 -0.1383 -0.0398 -0.2310
    1PPC    GL270745   4.031  11.701   5.267 -0.2077 -0.1875 -0.3271
    1PPC    C1B70746   4.100  12.106   5.158  0.2311 -0.0095 -0.0758
    1PPC    C2B70747   3.789  12.250   4.779 -0.4993 -0.5086 -0.1673
    1PPC    C3B70748   3.585  12.134   4.480  0.3761 -0.6007 -0.1517
    1PPC    C4B70749   3.368  11.831   4.094 -0.0607 -0.3632 -0.2283
    1PPC    NC370750   6.639  26.964   6.651 -0.0566  0.2461 -0.1880
    1PPC    PO470751   6.692  26.609   6.443  0.0356 -0.0784 -0.0984
    1PPC    GL170752   6.447  26.258   6.220 -0.2226 -0.4402  0.1911
    1PPC    GL270753   6.482  26.209   5.926  0.0193 -0.1573 -0.3010
    1PPC    C1B70754   6.419  26.038   5.440  0.0294  0.0434 -0.4105
    1PPC    C2B70755   6.285  25.955   4.979  0.0217  0.2313 -0.0133
    1PPC    C3B70756   6.138  26.018   4.532 -0.2393 -0.0346 -0.0332
    1PPC    C4B70757   6.096  25.852   4.114 -0.3361 -0.1198 -0.3872
    1PPC    NC370758  26.753  21.888   7.798 -0.0521  0.0028 -0.0569
    1PPC    PO470759  26.763  21.488   7.502 -0.0699 -0.3943 -0.1299
    1PPC    GL170760  26.580  21.405   7.123 -0.3262 -0.3544 -0.0373
    1PPC    GL270761  26.393  21.654   6.925  0.2149 -0.0040 -0.1906
    1PPC    C1B70762  26.402  21.809   6.469  0.2874  0.0318 -0.1956
    1PPC    C2B70763  26.548  21.693   6.051  0.1528  0.2331 -0.0745
    1PPC    C3B70764  26.686  21.896   5.756 -0.0742 -0.2390 -0.4443
    1PPC    C4B70765  26.415  22.252   5.399 -0.2595  0.0368 -0.0597
    1PPC    NC370766  27.010   2.898   7.480  0.0091  0.2187 -0.2864
    1PPC    PO470767  26.858   2.980   7.078 -0.0826 -0.0170 -0.1287
    1PPC    GL170768  27.015   2.970   6.657  0.4927 -0.0841  0.0888
    1PPC    GL270769  27.020   3.222   6.422  0.0513  0.0941  0.1505
    1PPC    C1B70770  26.902   3.276   5.968  0.1315 -0.1091 -0.0268
    1PPC    C2B70771  26.753   3.279   5.609  0.2720  0.3025  0.1688
    1PPC    C3B70772  26.493   3.323   5.210 -0.2407  0.0524 -0.0739
    1PPC    C4B70773  26.316   3.566   4.920  0.0250  0.1231  0.1283
    1PPC    NC370774  18.545  11.708   7.112  0.0114  0.0469  0.1238
    1PPC    PO470775  18.237  12.133   7.251  0.1432  0.3279 -0.0995
    1PPC    GL170776  18.151  12.561   7.070  0.1681 -0.2552 -0.1923
    1PPC    GL270777  18.303  12.691   6.830 -0.0367 -0.2979 -0.2497
    1PPC    C1B70778  18.272  12.703   6.406 -0.4009 -0.2637 -0.0417
    1PPC    C2B70779  18.200  12.685   5.958 -0.0781 -0.0284  0.1187
    1PPC    C3B70780  18.309  12.757   5.570  0.2529  0.1702  0.0627
    1PPC    C4B70781  18.087  12.617   5.202  0.3837 -0.0143  0.0294
    1PPC    NC370782  16.444  16.901   6.905 -0.0531 -0.1320 -0.1007
    1PPC    PO470783  16.041  16.761   6.811  0.1948  0.1538 -0.0125
    1PPC    GL170784  16.176  16.903   6.449 -0.0476  0.0718  0.0380
    1PPC    GL270785  15.953  17.015   6.180 -0.0510  0.1058 -0.2922
    1PPC    C1B70786  15.891  16.744   5.839 -0.2481 -0.2578 -0.0998
    1PPC    C2B70787  15.918  16.874   5.332 -0.2042 -0.0393 -0.0693
    1PPC    C3B70788  15.920  17.272   5.084  0.3031  0.2384 -0.1201
    1PPC    C4B70789  15.844  17.296   4.713  0.2790 -0.0030 -0.1737
    1PPC    NC370790   6.418  29.525   6.197 -0.0789 -0.0107  0.0901
    1PPC    PO470791   6.365  29.048   6.444  0.0488 -0.1938  0.0674
    1PPC    GL170792   6.261  28.984   6.096 -0.3365  0.1442 -0.2391
    1PPC    GL270793   6.354  28.773   5.823 -0.1402  0.0701  0.0203
    1PPC    C1B70794   6.474  28.648   5.469  0.1312  0.0886  0.3872
    1PPC    C2B70795   6.423  28.579   5.053  0.1018 -0.0364  0.0447
    1PPC    C3B70796   6.360  28.461   4.638  0.0290 -0.1954 -0.2287
    1PPC    C4B70797   6.075  28.268   4.488  0.2079 -0.0285  0.2641
    1PPC    NC370798   9.381  17.335   6.411  0.0575  0.2364 -0.0943
    1PPC    PO470799   9.026  16.944   6.246  0.0847  0.0820 -0.1527
    1PPC    GL170800   9.334  17.058   5.996  0.2203  0.0897 -0.1074
    1PPC    GL270801   9.315  17.229   5.741 -0.6365 -0.0118 -0.0780
    1PPC    C1B70802   9.353  17.121   5.337 -0.1821  0.2625  0.0139
    1PPC    C2B70803   9.208  16.960   5.061 -0.0718  0.0711  0.0575
    1PPC    C3B70804   9.077  16.748   4.726 -0.2203  0.1121 -0.0612
    1PPC    C4B70805   8.987  16.650   4.287  0.0514 -0.0540 -0.2166
    1PPC    NC370806  24.367   4.933   7.124 -0.0758 -0.0495  0.0034
    1PPC    PO470807  24.523   4.527   7.117  0.3229  0.1511 -0.0086
    1PPC    GL170808  24.342   4.301   6.804 -0.1777 -0.1355  0.0402
    1PPC    GL270809  24.182   4.416   6.582  0.1419  0.0665  0.2591
    1PPC    C1B70810  23.980   4.450   6.185  0.0073  0.0574 -0.0011
    1PPC    C2B70811  23.937   4.493   5.769 -0.0048  0.0132 -0.0670
    1PPC    C3B70812  23.650   4.431   5.371 -0.1024 -0.0093 -0.4208
    1PPC    C4B70813  23.531   4.779   5.171  0.1381  0.3113 -0.1789
    1PPC    NC370814  28.919   7.876   6.835  0.2971 -0.2207 -0.2458
    1PPC    PO470815  28.708   7.900   6.345  0.1082  0.1762 -0.1710
    1PPC    GL170816  28.879   7.998   6.048 -0.0058 -0.1084  0.1311
    1PPC    GL270817  28.776   8.037   5.750  0.1175  0.0191 -0.1461
    1PPC    C1B70818  28.479   7.814   5.462  0.0268  0.0950  0.0437
    1PPC    C2B70819  28.420   7.812   5.060 -0.3185 -0.2870  0.0584
    1PPC    C3B70820  28.469   7.849   4.648  0.4575 -0.1750 -0.2857
    1PPC    C4B70821  28.352   7.630   4.293 -0.1170 -0.0152  0.0320
    1PPC    NC370822  27.612  16.431   7.811 -0.1271  0.0029 -0.1460
    1PPC    PO470823  27.649  16.264   7.432 -0.0519  0.0671 -0.1211
    1PPC    GL170824  27.717  16.343   6.992 -0.0063  0.0418 -0.0224
    1PPC    GL270825  27.645  16.299   6.689  0.1525 -0.0494 -0.0798
    1PPC    C1B70826  27.403  16.271   6.346  0.3480 -0.1026 -0.0418
    1PPC    C2B70827  27.416  16.343   5.900 -0.0468  0.0455  0.1237
    1PPC    C3B70828  27.366  16.272   5.421  0.0446 -0.2141  0.1543
    1PPC    C4B70829  27.223  16.088   5.023 -0.0004 -0.0811  0.2372
    1PPC    NC370830  10.688  11.051   6.974  0.0978 -0.6112  0.0976
    1PPC    PO470831  10.785  10.554   6.706 -0.0626 -0.2123  0.0904
    1PPC    GL170832  10.783  10.264   6.321  0.3535 -0.2025  0.1101
    1PPC    GL270833  10.778  10.224   6.080 -0.0036 -0.1434 -0.0346
    1PPC    C1B70834  10.782  10.039   5.700 -0.2508  0.0834 -0.1136
    1PPC    C2B70835  11.146  10.046   5.515 -0.2737  0.1524 -0.0694
    1PPC    C3B70836  11.311  10.317   5.065  0.0446 -0.0040  0.0562
    1PPC    C4B70837  11.751  10.304   4.908 -0.2477  0.1133 -0.0069
    1PPC    NC370838  27.272  15.267   7.106 -0.3991 -0.0978 -0.0953
    1PPC    PO470839  27.019  15.642   6.935  0.0579 -0.0427  0.2233
    1PPC    GL170840  26.902  15.391   6.656  0.4076  0.0211 -0.0102
    1PPC    GL270841  26.879  15.208   6.420  0.0411  0.0712 -0.2335
    1PPC    C1B70842  26.902  15.228   5.975  0.1392  0.1639  0.0277
    1PPC    C2B70843  26.863  15.332   5.688  0.1798  0.0752 -0.1436
    1PPC    C3B70844  26.852  15.318   5.290 -0.2057 -0.1041 -0.1233
    1PPC    C4B70845  26.809  15.354   4.833 -0.0296  0.0250  0.0250
    1PPC    NC370846  19.912  22.052   8.310 -0.0054 -0.0590  0.2450
    1PPC    PO470847  20.254  22.101   8.019  0.0320  0.0102  0.2909
    1PPC    GL170848  19.948  22.372   7.816 -0.5048 -0.2493 -0.2122
    1PPC    GL270849  19.975  22.457   7.508  0.1860  0.3473 -0.1532
    1PPC    C1B70850  20.041  22.274   7.065 -0.2026  0.0860 -0.1265
    1PPC    C2B70851  19.834  21.899   6.836  0.0418 -0.1684  0.1118
    1PPC    C3B70852  19.863  21.541   6.532 -0.0366 -0.1625 -0.0551
    1PPC    C4B70853  19.919  21.386   6.058  0.0370 -0.0682  0.2187
    1PPC    NC370854  16.703   9.848   6.934  0.0876 -0.1669  0.1184
    1PPC    PO470855  16.856   9.507   6.781 -0.1947  0.1580  0.0920
    1PPC    GL170856  16.660   9.422   6.408  0.1728  0.1975 -0.0668
    1PPC    GL270857  16.548   9.589   6.117 -0.0600 -0.0888  0.1141
    1PPC    C1B70858  16.491   9.625   5.664  0.1448 -0.1298 -0.1588
    1PPC    C2B70859  16.542   9.777   5.340 -0.2404  0.2640  0.0339
    1PPC    C3B70860  16.649   9.976   4.939  0.2072  0.0458  0.0152
    1PPC    C4B70861  16.538  10.360   4.879 -0.0101 -0.0524  0.2520
    1PPC    NC370862  17.520  13.328   8.158 -0.1958 -0.1511  0.1181
    1PPC    PO470863  17.597  13.544   7.693 -0.4009  0.1765 -0.3056
    1PPC    GL170864  17.703  13.459   7.301 -0.2418 -0.0196 -0.1326
    1PPC    GL270865  17.832  13.557   7.065 -0.4356  0.4854  0.2066
    1PPC    C1B70866  17.808  13.771   6.583 -0.0227 -0.0331 -0.1228
    1PPC    C2B70867  17.733  13.831   6.216  0.0520  0.3679  0.1022
    1PPC    C3B70868  17.647  13.769   5.806  0.0734 -0.2944 -0.0064
    1PPC    C4B70869  17.437  13.842   5.375 -0.1643 -0.1843 -0.1059
    1PPC    NC370870  19.256  11.805   7.682 -0.3026  0.0287  0.0432
    1PPC    PO470871  19.556  11.910   7.409  0.1767 -0.1049 -0.1427
    1PPC    GL170872  19.460  12.212   7.118 -0.2810 -0.3821 -0.2195
    1PPC    GL270873  19.520  12.338   6.855 -0.1399 -0.0122 -0.2549
    1PPC    C1B70874  19.699  12.138   6.411  0.0465  0.0449  0.2404
    1PPC    C2B70875  19.739  12.151   6.014  0.2102  0.1626 -0.2996
    1PPC    C3B70876  19.802  12.170   5.566  0.1127  0.0701 -0.0437
    1PPC    C4B70877  19.903  12.346   5.194 -0.1094  0.2008  0.1737
    1PPC    NC370878  26.860  12.961   7.606  0.0810 -0.2066  0.0292
    1PPC    PO470879  26.697  12.946   7.146  0.0531  0.2218  0.1022
    1PPC    GL170880  26.785  12.735   6.873 -0.0039  0.1794 -0.1840
    1PPC    GL270881  26.821  12.536   6.672  0.0199 -0.1435  0.0669
    1PPC    C1B70882  26.879  12.765   6.388  0.2270 -0.1146  0.2548
    1PPC    C2B70883  26.847  12.642   6.009 -0.1283 -0.1731  0.1495
    1PPC    C3B70884  26.737  12.711   5.599 -0.1068  0.0481 -0.1089
    1PPC    C4B70885  26.596  12.788   5.133  0.0429 -0.0507 -0.0967
    1PPC    NC370886  11.885  14.159   7.296 -0.1318 -0.1381  0.1136
    1PPC    PO470887  11.969  14.295   6.856 -0.2065 -0.0510  0.1673
    1PPC    GL170888  12.036  14.260   6.357 -0.0019  0.2038 -0.0429
    1PPC    GL270889  12.143  14.136   6.173 -0.0321  0.0959 -0.1459
    1PPC    C1B70890  12.141  14.355   5.728 -0.0993 -0.2319  0.0739
    1PPC    C2B70891  12.222  14.390   5.238  0.1414  0.3778 -0.6189
    1PPC    C3B70892  12.150  14.252   4.870 -0.0486  0.1241  0.0351
    1PPC    C4B70893  11.821  14.242   4.530 -0.0043 -0.3355  0.2320
    1PPC    NC370894  27.777  13.511   7.963  0.1417 -0.0389  0.0401
    1PPC    PO470895  27.822  13.721   7.494 -0.3024 -0.0490 -0.0417
    1PPC    GL170896  27.901  13.608   7.120  0.0065  0.0867 -0.1579
    1PPC    GL270897  27.898  13.526   6.772  0.3476 -0.1049 -0.2625
    1PPC    C1B70898  27.852  13.702   6.336 -0.1994  0.0821  0.0168
    1PPC    C2B70899  27.686  13.665   5.927  0.0983 -0.0657 -0.2735
    1PPC    C3B70900  27.712  13.550   5.525 -0.0814 -0.0720 -0.1551
    1PPC    C4B70901  27.666  13.540   5.150 -0.1695  0.0208 -0.1499
    1PPC    NC370902   1.942  14.006   7.023 -0.2111  0.4638 -0.1877
    1PPC    PO470903   1.766  14.304   6.741  0.2567  0.0361 -0.0326
    1PPC    GL170904   1.804  14.369   6.317 -0.2865  0.2405 -0.1468
    1PPC    GL270905   1.719  14.498   6.030 -0.0787 -0.3192 -0.1231
    1PPC    C1B70906   1.682  14.622   5.600  0.0626  0.2263  0.1128
    1PPC    C2B70907   1.630  14.671   5.133 -0.0495  0.0270 -0.0322
    1PPC    C3B70908   1.686  14.532   4.642 -0.2436  0.0057 -0.2924
    1PPC    C4B70909   2.040  14.203   4.524  0.1117  0.1413 -0.0634
    1PPC    NC370910  17.799  15.445   7.609  0.2890 -0.2189 -0.0833
    1PPC    PO470911  17.357  15.175   7.536  0.1340 -0.1686 -0.2187
    1PPC    GL170912  17.293  15.176   7.091  0.0541  0.1422  0.2487
    1PPC    GL270913  17.496  14.925   6.872  0.1093  0.0514  0.0798
    1PPC    C1B70914  17.629  14.655   6.543 -0.0695 -0.2027  0.0708
    1PPC    C2B70915  17.529  14.655   6.157 -0.0394  0.2291  0.1051
    1PPC    C3B70916  17.182  14.795   5.777 -0.1084 -0.0881 -0.0922
    1PPC    C4B70917  16.986  15.082   5.406  0.1438  0.0495 -0.0292
    1PPC    NC370918  25.810  12.097   7.572 -0.2074  0.1834  0.1586
    1PPC    PO470919  25.498  12.442   7.489  0.3486 -0.1303 -0.0873
    1PPC    GL170920  25.260  12.412   7.057 -0.0022  0.0273  0.0651
    1PPC    GL270921  25.405  12.431   6.711  0.0109  0.0568 -0.1664
    1PPC    C1B70922  25.621  12.670   6.379 -0.0278 -0.0717 -0.2023
    1PPC    C2B70923  25.621  12.692   5.875  0.1024  0.1213 -0.0485
    1PPC    C3B70924  25.677  12.631   5.366 -0.0053  0.4825 -0.0061
    1PPC    C4B70925  25.730  12.624   4.944  0.0926  0.1558 -0.2399
    1PPC    NC370926   4.270  17.725   7.130 -0.0557  0.4063 -0.0670
    1PPC    PO470927   3.984  17.872   6.772 -0.0293  0.0025  0.2012
    1PPC    GL170928   3.949  18.053   6.321  0.1344  0.0084 -0.0508
    1PPC    GL270929   4.131  18.155   6.044 -0.1268 -0.1351 -0.0453
    1PPC    C1B70930   4.335  18.249   5.653  0.0920 -0.0790  0.2621
    1PPC    C2B70931   4.445  18.321   5.256 -0.1113 -0.2156  0.0762
    1PPC    C3B70932   4.335  18.085   4.856  0.0418 -0.0459  0.0007
    1PPC    C4B70933   4.284  18.073   4.323  0.0526  0.4041 -0.1446
    1PPC    NC370934  16.444  20.251   7.518 -0.0648  0.1129 -0.1617
    1PPC    PO470935  16.566  20.434   7.189  0.0290  0.3353  0.1205
    1PPC    GL170936  16.658  20.243   6.821  0.3018  0.3554 -0.0128
    1PPC    GL270937  16.845  20.351   6.467 -0.1311  0.0466 -0.4009
    1PPC    C1B70938  16.712  20.446   6.030  0.1570 -0.1037  0.1687
    1PPC    C2B70939  16.613  20.494   5.584 -0.0094 -0.0353 -0.3650
    1PPC    C3B70940  16.387  20.415   5.252 -0.1193 -0.4505 -0.0327
    1PPC    C4B70941  16.244  20.715   4.775 -0.2137 -0.0791 -0.0690
    1PPC    NC370942  23.172   7.866   7.148 -0.0380 -0.3137 -0.1673
    1PPC    PO470943  23.507   7.584   6.918  0.0192  0.2534 -0.0775
    1PPC    GL170944  23.728   7.690   6.623  0.1194  0.0310  0.0318
    1PPC    GL270945  23.835   7.719   6.323 -0.0930  0.0562  0.0258
    1PPC    C1B70946  23.764   7.762   5.984  0.0266  0.2197  0.0380
    1PPC    C2B70947  23.780   7.785   5.493  0.3230 -0.0301  0.1610
    1PPC    C3B70948  23.491   7.684   5.261 -0.3799  0.2841  0.0727
    1PPC    C4B70949  23.549   7.700   4.913 -0.1106  0.1974  0.0668
    1PPC    NC370950  17.850   7.626   7.189 -0.0579 -0.1353 -0.1604
    1PPC    PO470951  18.189   7.859   7.110 -0.2484  0.0275  0.2520
    1PPC    GL170952  18.060   7.693   6.725  0.1981 -0.1129  0.2003
    1PPC    GL270953  18.001   7.446   6.526  0.0369 -0.1100 -0.0059
    1PPC    C1B70954  17.943   7.347   6.127 -0.2067  0.1728 -0.0944
    1PPC    C2B70955  18.014   7.357   5.657 -0.1991  0.0753  0.0824
    1PPC    C3B70956  18.234   7.538   5.354  0.4094 -0.0255  0.0662
    1PPC    C4B70957  18.216   7.442   4.838 -0.1089 -0.1808 -0.1321
    1PPC    NC370958  27.818   9.743   7.102 -0.0505  0.2753 -0.1031
    1PPC    PO470959  28.190   9.791   6.942  0.0760  0.0417 -0.3277
    1PPC    GL170960  28.384   9.820   6.527  0.2734 -0.0076  0.1974
    1PPC    GL270961  28.489   9.722   6.235 -0.0795  0.0002 -0.0642
    1PPC    C1B70962  28.469   9.764   5.787 -0.0493 -0.0167 -0.1663
    1PPC    C2B70963  28.305   9.927   5.385  0.0015  0.1420  0.1857
    1PPC    C3B70964  28.264  10.092   4.985  0.1077  0.1102 -0.0148
    1PPC    C4B70965  28.296  10.038   4.571  0.2325  0.0620 -0.2461
    1PPC    NC370966  17.354   9.486   7.034  0.2720  0.2901  0.4174
    1PPC    PO470967  17.346   9.107   6.904  0.2168 -0.1053 -0.2194
    1PPC    GL170968  17.124   9.205   6.479  0.3099  0.0297 -0.0204
    1PPC    GL270969  17.107   9.263   6.114 -0.2790 -0.0130  0.3369
    1PPC    C1B70970  17.094   9.359   5.758 -0.2333 -0.0217  0.0248
    1PPC    C2B70971  16.998   9.399   5.403 -0.2766  0.0629 -0.0335
    1PPC    C3B70972  16.977   9.535   5.042  0.0476 -0.0738 -0.0503
    1PPC    C4B70973  16.817   9.627   4.634  0.0951 -0.1090 -0.0038
    1PPC    NC370974  23.482  28.668   7.269  0.1963  0.0631 -0.2740
    1PPC    PO470975  23.371  29.090   7.429 -0.1266  0.0702 -0.2784
    1PPC    GL170976  23.451  29.135   6.926 -0.1261  0.0567 -0.1000
    1PPC    GL270977  23.619  29.059   6.680  0.1728  0.0747 -0.0003
    1PPC    C1B70978  23.866  28.793   6.457 -0.2320  0.0943  0.1848
    1PPC    C2B70979  23.945  29.041   6.034  0.0532  0.0763  0.3265
    1PPC    C3B70980  23.991  29.173   5.608 -0.0940  0.1259  0.0357
    1PPC    C4B70981  24.134  29.006   5.312  0.2820  0.0416  0.1334
    1PPC    NC370982  23.064   9.574   7.392 -0.1271  0.0266 -0.0008
    1PPC    PO470983  22.984   9.190   7.252  0.0021  0.2385  0.1836
    1PPC    GL170984  23.228   8.894   7.086  0.2702 -0.1410 -0.1418
    1PPC    GL270985  23.438   8.990   6.950 -0.2190 -0.2880 -0.2466
    1PPC    C1B70986  23.454   9.290   6.561 -0.1074 -0.2281  0.0516
    1PPC    C2B70987  23.350   9.477   6.183  0.4426  0.3450  0.1846
    1PPC    C3B70988  23.373   9.590   5.758  0.0787  0.0893  0.1874
    1PPC    C4B70989  23.471   9.438   5.402 -0.1121 -0.0571 -0.3707
    1PPC    NC370990  23.719  14.443   7.434  0.3138  0.0794  0.3987
    1PPC    PO470991  23.967  14.141   7.336  0.0478 -0.0650  0.1369
    1PPC    GL170992  23.775  14.012   6.967 -0.0698  0.2091  0.2643
    1PPC    GL270993  23.624  14.045   6.663  0.1155  0.3279 -0.2403
    1PPC    C1B70994  23.380  13.908   6.281 -0.1619 -0.2178 -0.0546
    1PPC    C2B70995  23.256  13.962   5.930  0.0371 -0.2369  0.0108
    1PPC    C3B70996  23.156  14.051   5.672 -0.3605 -0.1279  0.1847
    1PPC    C4B70997  23.202  14.162   5.247 -0.1015 -0.2430  0.1742
    1PPC    NC370998  11.871  25.727   6.890  0.2055  0.0054  0.3522
    1PPC    PO470999  12.220  25.730   6.593 -0.1924  0.1168  0.0264
    1PPC    GL171000  12.405  25.514   6.284  0.2106 -0.1076 -0.3474
    1PPC    GL271001  12.457  25.421   6.016  0.0854 -0.1758 -0.0646
    1PPC    C1B71002  12.704  25.206   5.815 -0.2474 -0.3341 -0.0520
    1PPC    C2B71003  12.985  24.953   5.481 -0.0230  0.1389  0.1249
    1PPC    C3B71004  13.221  24.904   5.158 -0.2396  0.3394 -0.0899
    1PPC    C4B71005  13.584  25.154   4.851  0.4026 -0.0387 -0.1311
    1PPC    NC371006  21.559  21.597   7.221 -0.1971 -0.0694 -0.0128
    1PPC    PO471007  21.988  21.736   7.458 -0.2717 -0.1658  0.0623
    1PPC    GL171008  21.907  21.829   6.917 -0.1872 -0.1380 -0.0164
    1PPC    GL271009  21.816  22.002   6.649  0.2582  0.2985 -0.0574
    1PPC    C1B71010  21.737  22.363   6.312 -0.1865 -0.2311 -0.1548
    1PPC    C2B71011  21.470  22.513   6.084  0.1085  0.0179 -0.0776
    1PPC    C3B71012  21.413  22.811   5.658  0.1179  0.2319 -0.0074
    1PPC    C4B71013  21.100  22.901   5.377 -0.1266 -0.2281  0.1411
    1PPC    NC371014  18.146  16.421   7.322 -0.0912  0.0617 -0.0626
    1PPC    PO471015  18.143  16.100   7.588 -0.3761  0.1881  0.1099
    1PPC    GL171016  18.516  15.950   7.387  0.1946 -0.1468  0.1868
    1PPC    GL271017  18.672  15.822   7.180  0.1442 -0.0438 -0.2582
    1PPC    C1B71018  18.726  15.676   6.775 -0.3329  0.0839 -0.0293
    1PPC    C2B71019  18.762  15.537   6.325  0.0298  0.0857 -0.0933
    1PPC    C3B71020  18.839  15.470   5.806  0.1386 -0.3941  0.3278
    1PPC    C4B71021  19.008  15.515   5.439  0.0216 -0.0366 -0.1915
    1PPC    NC371022  23.785   0.817   7.621  0.0055  0.4493  0.1195
    1PPC    PO471023  23.928   0.409   7.326  0.1391 -0.0489 -0.3830
    1PPC    GL171024  23.937   0.326   6.931  0.1666  0.0099 -0.0853
    1PPC    GL271025  23.866   0.297   6.611  0.3354  0.3918 -0.0958
    1PPC    C1B71026  23.853   0.465   6.242  0.3415 -0.2468  0.2835
    1PPC    C2B71027  23.939   0.587   5.962 -0.2413 -0.0384  0.0451
    1PPC    C3B71028  24.152   0.818   5.670  0.1454  0.2243  0.0591
    1PPC    C4B71029  24.236   0.935   5.298  0.0372 -0.0926 -0.1627
    1PPC    NC371030  20.300  11.257   7.426  0.0036  0.2781 -0.1031
    1PPC    PO471031  20.448  11.706   7.476 -0.3479  0.0302  0.1891
    1PPC    GL171032  20.679  11.812   7.099 -0.3706  0.1969 -0.2407
    1PPC    GL271033  20.749  12.047   6.789 -0.1730  0.1325 -0.1608
    1PPC    C1B71034  20.659  12.408   6.487  0.1400 -0.0436 -0.2289
    1PPC    C2B71035  20.687  12.499   6.114 -0.0037  0.1757 -0.2739
    1PPC    C3B71036  20.692  12.448   5.690 -0.1757  0.2328 -0.1892
    1PPC    C4B71037  20.853  12.413   5.325  0.1048  0.1990 -0.1211
    1PPC    NC371038  18.726  17.104   7.151 -0.0386 -0.2114 -0.0805
    1PPC    PO471039  18.296  17.335   7.207 -0.0292 -0.0147 -0.2182
    1PPC    GL171040  18.171  17.543   6.816  0.2360 -0.0890  0.1441
    1PPC    GL271041  18.305  17.552   6.511 -0.1921  0.1802 -0.0806
    1PPC    C1B71042  18.529  17.352   6.177  0.0183  0.2066 -0.2660
    1PPC    C2B71043  18.862  17.243   5.851  0.0771  0.0175  0.0619
    1PPC    C3B71044  18.943  17.271   5.440  0.0289 -0.1530  0.0077
    1PPC    C4B71045  19.389  17.260   5.308 -0.1926  0.2299  0.2405
    1PPC    NC371046  13.165  14.382   7.095  0.1442  0.5216 -0.0281
    1PPC    PO471047  13.294  14.647   6.847  0.1077  0.0426 -0.0609
    1PPC    GL171048  13.380  14.670   6.485 -0.2056 -0.0058  0.3072
    1PPC    GL271049  13.388  14.418   6.275 -0.1732  0.1878 -0.1975
    1PPC    C1B71050  13.215  14.201   5.973  0.0260  0.1077 -0.0143
    1PPC    C2B71051  13.136  13.954   5.478  0.0898 -0.0381  0.0796
    1PPC    C3B71052  12.795  14.052   5.237  0.1022 -0.0733 -0.5516
    1PPC    C4B71053  12.642  14.318   5.035  0.1154  0.1255  0.0552
    1PPC    NC371054   1.275   8.211   5.557  0.0810 -0.0381 -0.0490
    1PPC    PO471055   1.269   8.007   6.018 -0.2872  0.0524 -0.1399
    1PPC    GL171056   1.051   7.705   5.703  0.1510 -0.3199  0.1705
    1PPC    GL271057   0.873   7.786   5.467 -0.1041  0.0118  0.1662
    1PPC    C1B71058   0.819   7.962   5.014 -0.0928 -0.3048 -0.0999
    1PPC    C2B71059   0.813   7.905   4.630  0.3520  0.1092  0.1058
    1PPC    C3B71060   0.897   8.026   4.202 -0.1205 -0.0216  0.1640
    1PPC    C4B71061   1.112   8.065   3.825  0.1267 -0.3008  0.0685
    1PPC    NC371062  27.924   5.103   6.202  0.2546 -0.1174  0.1415
    1PPC    PO471063  27.491   5.256   6.258  0.0094  0.0649 -0.0831
    1PPC    GL171064  27.697   5.581   6.149  0.0542  0.0878 -0.1703
    1PPC    GL271065  27.740   5.822   5.983 -0.0225  0.0002 -0.2098
    1PPC    C1B71066  27.767   5.995   5.604 -0.1931  0.0192  0.0311
    1PPC    C2B71067  27.719   6.028   5.200  0.2137  0.0729 -0.0929
    1PPC    C3B71068  27.882   5.928   4.713 -0.0499  0.1956 -0.3528
    1PPC    C4B71069  27.869   5.637   4.407 -0.0197 -0.0021 -0.0495
    1PPC    NC371070  26.683   4.609   6.352  0.1150 -0.3064  0.3751
    1PPC    PO471071  26.251   4.516   6.503 -0.1635 -0.2490 -0.1185
    1PPC    GL171072  26.142   4.152   6.415  0.0224  0.0498  0.2485
    1PPC    GL271073  25.795   4.067   6.263  0.1425 -0.0919  0.0874
    1PPC    C1B71074  25.679   3.886   5.909 -0.1474  0.0196  0.3542
    1PPC    C2B71075  25.454   3.747   5.556 -0.0066  0.0343  0.1065
    1PPC    C3B71076  25.531   3.446   5.321 -0.0348 -0.0833  0.1894
    1PPC    C4B71077  25.474   2.971   5.360 -0.0572 -0.1028  0.0275
    1PPC    NC371078  26.259  14.377   7.092  0.2810  0.1947 -0.1125
    1PPC    PO471079  26.697  14.242   7.362 -0.0087  0.0737 -0.3203
    1PPC    GL171080  26.697  14.095   6.966 -0.4184  0.1602  0.0173
    1PPC    GL271081  26.789  14.214   6.743 -0.0546 -0.0977  0.1902
    1PPC    C1B71082  26.804  14.233   6.288 -0.0368 -0.0538  0.0712
    1PPC    C2B71083  26.897  14.149   5.859  0.2476 -0.2599  0.0676
    1PPC    C3B71084  26.863  14.151   5.367  0.4300  0.0731  0.2239
    1PPC    C4B71085  26.759  14.008   4.968  0.1171 -0.0137  0.0629
    1PPC    NC371086  20.834  14.758   7.413 -0.1389  0.0343 -0.0753
    1PPC    PO471087  20.406  14.750   7.633 -0.1605 -0.1010  0.0218
    1PPC    GL171088  20.119  14.428   7.436 -0.1591  0.0752  0.1000
    1PPC    GL271089  19.959  14.472   7.182 -0.2928 -0.0370 -0.0056
    1PPC    C1B71090  19.902  14.591   6.795  0.2628  0.0780 -0.1204
    1PPC    C2B71091  19.846  14.698   6.329  0.1663  0.0195 -0.0750
    1PPC    C3B71092  19.839  14.606   5.874 -0.3658 -0.3452  0.1867
    1PPC    C4B71093  19.936  14.418   5.536 -0.0234 -0.1917  0.3194
    1PPC    NC371094  21.909  18.876   7.926  0.1520  0.0013  0.2670
    1PPC    PO471095  22.036  18.720   7.571  0.0021  0.0852 -0.1696
    1PPC    GL171096  21.645  18.828   7.314  0.1748  0.3104  0.0638
    1PPC    GL271097  21.580  18.959   7.008 -0.0623  0.0697  0.3159
    1PPC    C1B71098  21.399  18.915   6.588 -0.1449 -0.1202 -0.0436
    1PPC    C2B71099  21.258  19.082   6.188 -0.0493  0.1052 -0.1140
    1PPC    C3B71100  21.123  19.204   5.721  0.1808 -0.3442  0.0588
    1PPC    C4B71101  21.093  19.020   5.366  0.0963  0.2490  0.1752
    1PPC    NC371102   7.911   0.767   5.705 -0.2707 -0.2582  0.0607
    1PPC    PO471103   8.402   0.867   5.693  0.3672 -0.0702  0.1363
    1PPC    GL171104   8.230   0.655   5.359  0.1389 -0.0870 -0.1063
    1PPC    GL271105   7.934   0.691   5.158  0.1590 -0.1824 -0.1848
    1PPC    C1B71106   7.880   0.707   4.801 -0.2786  0.1544 -0.1540
    1PPC    C2B71107   8.119   0.670   4.408 -0.0798  0.1117 -0.1976
    1PPC    C3B71108   8.303   0.835   4.107  0.0353  0.1448 -0.0700
    1PPC    C4B71109   8.539   1.130   3.873 -0.2676 -0.0684 -0.0074
    1PPC    NC371110  23.595   4.974   7.443  0.2372 -0.1778 -0.0477
    1PPC    PO471111  23.895   4.705   7.132 -0.0323  0.1336 -0.2845
    1PPC    GL171112  24.046   4.879   6.689 -0.4178 -0.2740  0.2226
    1PPC    GL271113  23.757   4.866   6.418  0.2951 -0.3511 -0.0259
    1PPC    C1B71114  23.826   4.935   5.982 -0.1582  0.2373  0.2067
    1PPC    C2B71115  23.831   4.934   5.541 -0.2673  0.4294  0.0235
    1PPC    C3B71116  23.940   5.116   5.149 -0.1415  0.1393 -0.1109
    1PPC    C4B71117  23.901   5.223   4.759  0.2994  0.1290 -0.0084
    1PPC    NC371118  26.848  26.748   7.938  0.0408  0.0515  0.0745
    1PPC    PO471119  27.223  27.051   8.039  0.1963 -0.0534 -0.0274
    1PPC    GL171120  27.374  27.182   7.489  0.3161 -0.1816  0.3659
    1PPC    GL271121  27.299  27.261   7.122  0.0290  0.5366  0.0648
    1PPC    C1B71122  27.137  27.254   6.711 -0.3694 -0.2867 -0.0237
    1PPC    C2B71123  27.134  27.540   6.335  0.0725 -0.0832 -0.0152
    1PPC    C3B71124  27.390  27.707   6.025  0.1185  0.0700 -0.2564
    1PPC    C4B71125  27.800  27.653   5.881 -0.2478 -0.1914 -0.3775
    1PPC    NC371126   4.493  18.631   7.599 -0.0715 -0.0204  0.0958
    1PPC    PO471127   4.654  18.602   7.157 -0.2553 -0.1930 -0.0597
    1PPC    GL171128   4.803  18.424   6.766 -0.1308 -0.0962  0.0468
    1PPC    GL271129   4.811  18.500   6.488  0.3603 -0.3796 -0.0452
    1PPC    C1B71130   4.693  18.570   5.972  0.3019  0.3731 -0.2763
    1PPC    C2B71131   4.810  18.484   5.550  0.0238  0.2876 -0.2905
    1PPC    C3B71132   5.002  18.693   5.193 -0.0755  0.2378 -0.0476
    1PPC    C4B71133   5.199  18.473   4.894 -0.1438 -0.0791  0.2574
    1PPC    NC371134  20.283  12.892   8.165 -0.0017 -0.0546  0.1568
    1PPC    PO471135  20.107  13.113   7.762  0.0363 -0.1889  0.0685
    1PPC    GL171136  20.032  13.150   7.348  0.1242 -0.2535 -0.0769
    1PPC    GL271137  20.054  13.016   7.030  0.0239  0.0745 -0.1499
    1PPC    C1B71138  19.993  13.122   6.522  0.2505  0.0405 -0.0076
    1PPC    C2B71139  19.972  13.117   6.092 -0.0729 -0.0398 -0.0602
    1PPC    C3B71140  20.028  13.097   5.689 -0.2328  0.1550 -0.1639
    1PPC    C4B71141  20.039  13.298   5.235  0.0316 -0.3809 -0.0302
    1PPC    NC371142  18.191  20.676   6.771 -0.0545  0.1921 -0.1064
    1PPC    PO471143  18.631  20.803   6.787  0.1111 -0.2962 -0.3502
    1PPC    GL171144  18.977  20.885   6.484  0.0430 -0.0547 -0.1310
    1PPC    GL271145  19.116  21.080   6.225 -0.2861 -0.0829 -0.1136
    1PPC    C1B71146  19.001  21.274   5.822 -0.0306 -0.1242  0.3169
    1PPC    C2B71147  19.168  21.622   5.689  0.0798 -0.1854  0.0610
    1PPC    C3B71148  19.288  21.955   5.651  0.2044  0.1309  0.1088
    1PPC    C4B71149  19.798  21.997   5.687  0.0848  0.0843  0.0075
    1PPC    NC371150  12.457  11.540   6.279  0.3288  0.1509  0.0708
    1PPC    PO471151  12.582  11.960   6.449  0.1535  0.0969  0.1785
    1PPC    GL171152  12.709  11.855   6.016 -0.1535  0.2258 -0.1349
    1PPC    GL271153  13.023  11.799   5.929 -0.1539  0.0126 -0.0165
    1PPC    C1B71154  13.559  11.746   5.951  0.0730 -0.1775 -0.2242
    1PPC    C2B71155  13.699  11.899   5.592  0.0180 -0.1001  0.3005
    1PPC    C3B71156  13.734  11.696   5.257 -0.0895 -0.1201  0.0806
    1PPC    C4B71157  13.769  11.777   4.901  0.0801 -0.0613 -0.2142
    1PPC    NC371158  14.789  28.070   7.329  0.3203  0.0478  0.1780
    1PPC    PO471159  14.849  28.253   7.003  0.3341 -0.1745 -0.0485
    1PPC    GL171160  14.740  28.341   6.531  0.0279 -0.0858  0.5441
    1PPC    GL271161  14.883  28.397   6.228 -0.0398 -0.2790  0.0369
    1PPC    C1B71162  15.148  28.265   5.982 -0.0166 -0.2772 -0.0160
    1PPC    C2B71163  15.218  28.083   5.636  0.2490  0.1655 -0.1196
    1PPC    C3B71164  15.377  28.181   5.213 -0.1486  0.3166 -0.1098
    1PPC    C4B71165  15.366  28.333   4.873 -0.1705  0.0745  0.0567
    1PPC    NC371166  24.245  29.146   6.896  0.0332  0.1261  0.2019
    1PPC    PO471167  23.890  29.414   6.878  0.0259  0.0597 -0.0184
    1PPC    GL171168  24.042  29.301   6.498  0.1292 -0.1941  0.0238
    1PPC    GL271169  24.267  29.536   6.419  0.2677  0.1481 -0.0457
    1PPC    C1B71170  24.354   0.230   6.130 -0.2447 -0.1605 -0.0554
    1PPC    C2B71171  24.352   0.313   5.725  0.2252  0.2278 -0.1694
    1PPC    C3B71172  24.154   0.391   5.308  0.0889 -0.0973  0.2888
    1PPC    C4B71173  23.855   0.682   5.012 -0.2323 -0.1288 -0.0328
    1PPC    NC371174  13.554   5.387   6.047  0.0102  0.2543 -0.0713
    1PPC    PO471175  13.235   5.607   6.248 -0.0627  0.3741  0.1779
    1PPC    GL171176  13.156   5.627   5.784 -0.3279  0.1214  0.1245
    1PPC    GL271177  12.876   5.640   5.652  0.2718  0.0604 -0.2919
    1PPC    C1B71178  12.786   5.406   5.257  0.0835 -0.0917 -0.2698
    1PPC    C2B71179  13.134   5.209   5.067  0.0013  0.4749  0.4787
    1PPC    C3B71180  13.362   4.860   4.943  0.0646  0.0131  0.1194
    1PPC    C4B71181  13.345   4.794   4.560  0.0150 -0.0284 -0.0944
    1PPC    NC371182  24.418   8.104   7.715  0.0995 -0.3178 -0.1398
    1PPC    PO471183  24.567   8.432   7.335  0.1516 -0.0801  0.0656
    1PPC    GL171184  24.370   8.434   6.922 -0.0754 -0.0910 -0.2743
    1PPC    GL271185  24.512   8.551   6.548  0.0067 -0.0461 -0.0285
    1PPC    C1B71186  24.496   8.529   6.074 -0.0308  0.0607 -0.3021
    1PPC    C2B71187  24.445   8.555   5.607  0.2108  0.2408  0.1586
    1PPC    C3B71188  24.344   8.677   5.197 -0.1922 -0.1114  0.1783
    1PPC    C4B71189  24.204   8.371   4.873 -0.1384  0.0041  0.0377
    1PPC    NC371190   3.336  11.530   7.297  0.4880  0.1156 -0.1581
    1PPC    PO471191   3.293  11.651   6.829 -0.0483  0.1820 -0.3753
    1PPC    GL171192   3.194  11.823   6.349 -0.3324  0.0732 -0.0264
    1PPC    GL271193   3.136  11.802   6.055  0.0100 -0.1050  0.1364
    1PPC    C1B71194   2.828  11.608   5.723 -0.0370 -0.0575 -0.0071
    1PPC    C2B71195   2.893  11.652   5.235  0.0993 -0.1257  0.1622
    1PPC    C3B71196   3.126  11.672   4.823  0.0200 -0.0045  0.2671
    1PPC    C4B71197   3.192  11.493   4.403 -0.0488 -0.1393 -0.2335
    1PPC    NC371198  27.425  17.559   7.536 -0.0849  0.2578 -0.1689
    1PPC    PO471199  27.304  17.174   7.251 -0.0626 -0.0672 -0.0704
    1PPC    GL171200  27.537  17.434   6.868 -0.1807  0.0982  0.0459
    1PPC    GL271201  27.781  17.576   6.763  0.1067  0.1295  0.1907
    1PPC    C1B71202  28.044  17.469   6.428  0.1214  0.0034  0.3791
    1PPC    C2B71203  28.088  17.511   5.885 -0.1293  0.1977 -0.0624
    1PPC    C3B71204  28.065  17.929   5.562  0.1216  0.1993 -0.1855
    1PPC    C4B71205  27.842  18.008   5.174 -0.3675  0.0616 -0.1909
    1PPC    NC371206  19.167   9.492   7.096 -0.0523  0.4574 -0.2439
    1PPC    PO471207  19.582   9.186   7.104  0.1540 -0.2795  0.0534
    1PPC    GL171208  19.758   9.050   6.671 -0.0116  0.3379 -0.1334
    1PPC    GL271209  19.661   8.795   6.549 -0.0290  0.0047  0.0893
    1PPC    C1B71210  19.570   8.867   6.187 -0.0165  0.0182  0.1527
    1PPC    C2B71211  19.566   8.676   5.792 -0.1533  0.0806  0.1710
    1PPC    C3B71212  19.574   8.624   5.379  0.0580  0.1208 -0.2073
    1PPC    C4B71213  19.606   8.526   4.965  0.1884  0.0473 -0.1720
    1PPC    NC371214  14.572   8.010   6.585 -0.0269 -0.1851 -0.0690
    1PPC    PO471215  15.020   8.068   6.466  0.0882 -0.2262  0.0515
    1PPC    GL171216  15.266   7.946   6.125  0.1619  0.3244  0.1123
    1PPC    GL271217  15.383   8.095   5.900  0.0205  0.0474  0.2620
    1PPC    C1B71218  15.247   8.194   5.508  0.2046  0.2294 -0.0067
    1PPC    C2B71219  14.893   8.032   5.197 -0.1460 -0.1140 -0.1234
    1PPC    C3B71220  14.637   7.719   5.033 -0.0721  0.1932  0.0128
    1PPC    C4B71221  14.392   7.408   4.871 -0.0606 -0.0665 -0.2423
    1PPC    NC371222  18.684  15.424   7.467 -0.3825  0.2420 -0.1137
    1PPC    PO471223  18.998  15.137   7.568  0.1961  0.0237 -0.2945
    1PPC    GL171224  18.980  15.173   7.167 -0.2965 -0.3124 -0.2459
    1PPC    GL271225  18.982  14.995   6.912 -0.2220  0.1181  0.0442
    1PPC    C1B71226  18.926  15.031   6.498  0.3936 -0.0857  0.0487
    1PPC    C2B71227  18.927  15.068   6.054  0.0907  0.2201  0.1640
    1PPC    C3B71228  18.869  15.019   5.613  0.1026  0.1139  0.2565
    1PPC    C4B71229  19.133  14.978   5.325  0.3343  0.0960  0.1634
    1PPC    NC371230  17.607   8.666   7.039  0.0251 -0.0631 -0.0747
    1PPC    PO471231  17.322   8.380   6.993 -0.0747  0.1077  0.1275
    1PPC    GL171232  17.161   8.676   6.685 -0.1128  0.1728  0.5134
    1PPC    GL271233  17.171   8.719   6.367  0.2566 -0.3891 -0.0756
    1PPC    C1B71234  17.213   8.858   5.943 -0.2228  0.1189 -0.1296
    1PPC    C2B71235  17.296   8.978   5.516 -0.0746 -0.1839  0.1549
    1PPC    C3B71236  17.377   9.111   5.179 -0.0229  0.2698  0.2641
    1PPC    C4B71237  17.509   9.022   4.717 -0.0951 -0.1380  0.1838
    1PPC    NC371238  25.134  14.858   7.192 -0.0465 -0.0083  0.2301
    1PPC    PO471239  25.398  15.218   7.412 -0.1499 -0.3665 -0.1226
    1PPC    GL171240  25.666  15.108   7.017  0.1242  0.3176  0.0934
    1PPC    GL271241  25.758  14.991   6.713  0.0632 -0.0359 -0.0372
    1PPC    C1B71242  25.806  15.165   6.246 -0.0110  0.0332  0.1866
    1PPC    C2B71243  25.888  15.204   5.843 -0.0076 -0.0288  0.0120
    1PPC    C3B71244  25.849  15.283   5.447 -0.1756 -0.1041 -0.3996
    1PPC    C4B71245  25.944  15.464   5.008  0.0550  0.2718 -0.0592
    1PPC    NC371246  17.223  12.232   7.436  0.0407  0.1809  0.1004
    1PPC    PO471247  17.217  12.503   7.114 -0.1966  0.2764 -0.0224
    1PPC    GL171248  17.602  12.485   7.025 -0.0954 -0.2026 -0.2457
    1PPC    GL271249  17.776  12.288   6.830  0.0887  0.4099  0.0138
    1PPC    C1B71250  18.040  12.315   6.569 -0.0128 -0.1787  0.0606
    1PPC    C2B71251  18.239  12.212   6.147  0.0605  0.2785 -0.2292
    1PPC    C3B71252  18.348  12.204   5.780  0.3978 -0.3099 -0.1022
    1PPC    C4B71253  18.384  12.207   5.289  0.0684 -0.1008  0.0965
    1PPC    NC371254  11.860   0.835   6.792 -0.0338 -0.2923 -0.2037
    1PPC    PO471255  12.107   1.132   6.594 -0.5505 -0.1339 -0.0655
    1PPC    GL171256  12.133   1.220   6.161  0.1868  0.5933  0.4913
    1PPC    GL271257  12.433   1.232   5.945 -0.2959  0.1247  0.0620
    1PPC    C1B71258  12.632   1.308   5.592  0.1519 -0.2911 -0.0893
    1PPC    C2B71259  12.494   1.262   5.211 -0.1295 -0.1609  0.2855
    1PPC    C3B71260  12.479   1.270   4.721  0.0413 -0.1580 -0.1291
    1PPC    C4B71261  12.174   1.084   4.406 -0.1045  0.1512  0.1671
    1PPC    NC371262  18.563   7.332   7.339 -0.1802  0.1828 -0.0151
    1PPC    PO471263  18.630   7.080   7.083 -0.0376  0.0336  0.0445
    1PPC    GL171264  18.587   7.385   6.720 -0.1029 -0.1587  0.0100
    1PPC    GL271265  18.499   7.390   6.421  0.1607  0.0874  0.3996
    1PPC    C1B71266  18.450   7.381   6.027 -0.0190 -0.1073 -0.0791
    1PPC    C2B71267  18.545   7.310   5.665  0.0598  0.0256 -0.1526
    1PPC    C3B71268  18.690   7.589   5.334  0.1611  0.2515 -0.5097
    1PPC    C4B71269  18.752   7.513   4.883 -0.0075 -0.4762  0.1572
    1PPC    NC371270  29.310  26.314   6.773  0.1315 -0.0140  0.1426
    1PPC    PO471271   0.040  26.065   6.682 -0.2681 -0.1660 -0.1375
    1PPC    GL171272   0.051  26.332   6.268 -0.0639 -0.3176 -0.0563
    1PPC    GL271273  29.592  26.596   6.004  0.0767 -0.1107  0.1191
    1PPC    C1B71274  29.510  26.658   5.667 -0.2886 -0.0128  0.1091
    1PPC    C2B71275  29.523  26.849   5.260 -0.1281 -0.2203  0.0684
    1PPC    C3B71276  29.510  26.855   4.859  0.3063  0.1142  0.0157
    1PPC    C4B71277  29.616  27.029   4.457 -0.1560 -0.1916 -0.1657
    1PPC    NC371278   4.114   1.118   6.999 -0.1916  0.0627  0.0823
    1PPC    PO471279   4.131   1.390   6.659 -0.0653  0.1122  0.3085
    1PPC    GL171280   4.259   1.478   6.198  0.0931 -0.0880  0.0306
    1PPC    GL271281   4.037   1.567   5.971 -0.1478 -0.0930 -0.2237
    1PPC    C1B71282   3.999   1.487   5.579  0.3719  0.0409 -0.0405
    1PPC    C2B71283   3.716   1.338   5.250  0.0658  0.2019  0.0140
    1PPC    C3B71284   3.573   1.429   4.781 -0.0399  0.0001 -0.0722
    1PPC    C4B71285   3.496   1.675   4.551 -0.1881 -0.1396  0.1029
    1PPC    NC371286  17.991  12.648   7.558 -0.1315 -0.1231  0.1767
    1PPC    PO471287  17.642  12.475   7.551 -0.3399  0.0523  0.1436
    1PPC    GL171288  17.549  12.875   7.410  0.1229  0.1082 -0.1146
    1PPC    GL271289  17.383  13.053   7.188 -0.1452 -0.4695  0.1226
    1PPC    C1B71290  17.561  13.273   6.774 -0.1303  0.0531 -0.1673
    1PPC    C2B71291  17.493  13.434   6.462 -0.5328  0.1893  0.3625
    1PPC    C3B71292  17.493  13.338   6.028 -0.1912 -0.0104 -0.2291
    1PPC    C4B71293  17.517  13.324   5.577 -0.0886 -0.0340 -0.0848
    1PPC    NC371294  11.687  17.158   6.273 -0.1102  0.0577  0.1278
    1PPC    PO471295  11.560  17.489   5.992  0.1821  0.2821  0.2723
    1PPC    GL171296  11.211  17.598   5.790  0.0546 -0.0341 -0.2446
    1PPC    GL271297  10.983  17.659   5.539 -0.1881 -0.0330 -0.0822
    1PPC    C1B71298  10.713  17.665   5.155  0.2986  0.1107  0.0457
    1PPC    C2B71299  10.485  17.453   4.731  0.0749  0.1858 -0.2001
    1PPC    C3B71300  10.055  17.370   4.528 -0.0072 -0.0233  0.0253
    1PPC    C4B71301   9.791  17.116   4.296  0.1067 -0.0535 -0.0732
    1PPC    NC371302  22.065  27.295   7.241 -0.0540 -0.2323 -0.0296
    1PPC    PO471303  22.274  26.943   7.464 -0.0889 -0.0702  0.3280
    1PPC    GL171304  22.233  26.827   7.064  0.0900 -0.2304  0.2808
    1PPC    GL271305  22.120  26.833   6.828  0.3271  0.4199 -0.4328
    1PPC    C1B71306  22.330  26.925   6.403 -0.1188  0.0646  0.2706
    1PPC    C2B71307  22.252  26.940   5.933  0.0353  0.2949  0.1235
    1PPC    C3B71308  22.338  26.609   5.665  0.1177 -0.2209 -0.1724
    1PPC    C4B71309  22.551  26.172   5.761 -0.0890 -0.5052  0.2815
    1PPC    NC371310  16.379  17.655   7.473  0.1925 -0.5003 -0.4732
    1PPC    PO471311  16.470  17.311   7.214 -0.1385  0.1797  0.1414
    1PPC    GL171312  16.877  17.175   6.974 -0.1406 -0.1933 -0.1020
    1PPC    GL271313  16.867  17.241   6.691  0.2104 -0.0845  0.2985
    1PPC    C1B71314  16.688  17.000   6.348 -0.0337  0.0496 -0.0783
    1PPC    C2B71315  16.587  16.911   5.848  0.2097  0.0862  0.1461
    1PPC    C3B71316  16.864  16.878   5.475 -0.2159 -0.2287 -0.2694
    1PPC    C4B71317  17.070  17.027   5.083  0.3028  0.0526  0.2800
    1PPC    NC371318   3.315  17.191   7.368 -0.0821  0.2295  0.0903
    1PPC    PO471319   3.671  17.055   7.176 -0.0732 -0.1445  0.1820
    1PPC    GL171320   3.643  17.038   6.725  0.0158  0.1625 -0.3200
    1PPC    GL271321   3.657  16.857   6.401  0.2009  0.1864 -0.1035
    1PPC    C1B71322   3.691  16.796   5.978 -0.1026 -0.1537  0.3493
    1PPC    C2B71323   3.608  16.794   5.489  0.0405  0.2267 -0.0130
    1PPC    C3B71324   3.341  16.678   5.200  0.2548  0.0307 -0.0672
    1PPC    C4B71325   3.268  16.491   4.703 -0.1947  0.0628  0.3382
    1PPC    NC371326  12.667  28.911   6.288  0.0399  0.2932 -0.0160
    1PPC    PO471327  12.250  28.873   6.527  0.3336 -0.0788  0.1129
    1PPC    GL171328  11.900  28.737   6.299 -0.0135 -0.1064  0.1353
    1PPC    GL271329  11.827  28.719   5.880  0.0416 -0.0993 -0.0494
    1PPC    C1B71330  11.748  28.611   5.513  0.0630  0.1424  0.0426
    1PPC    C2B71331  11.748  28.643   5.007 -0.0328 -0.4397  0.0451
    1PPC    C3B71332  11.936  28.726   4.618  0.2240  0.3314  0.2668
    1PPC    C4B71333  11.920  28.686   4.262 -0.2312 -0.2218  0.2716
    1PPC    NC371334  22.867  12.967   7.320 -0.1086 -0.0237  0.0785
    1PPC    PO471335  23.256  12.964   7.047 -0.0356  0.0884 -0.3378
    1PPC    GL171336  22.914  12.870   6.816 -0.0771 -0.0494 -0.0193
    1PPC    GL271337  22.744  12.708   6.698  0.0544  0.0051 -0.2701
    1PPC    C1B71338  22.506  12.612   6.312  0.1719 -0.2052 -0.1346
    1PPC    C2B71339  22.588  12.694   5.992  0.0015  0.1290 -0.2688
    1PPC    C3B71340  22.634  12.444   5.621  0.0009  0.0870  0.0397
    1PPC    C4B71341  22.504  12.354   5.108 -0.0836  0.0667 -0.2122
    1PPC    NC371342  17.881  24.125   7.877  0.1586 -0.1355 -0.1888
    1PPC    PO471343  18.185  24.227   7.518 -0.0489  0.0797  0.1268
    1PPC    GL171344  18.097  23.955   7.176  0.1271  0.4368 -0.3177
    1PPC    GL271345  18.187  23.928   6.954  0.1552 -0.2820 -0.0216
    1PPC    C1B71346  18.188  23.680   6.519 -0.1582 -0.0997  0.3045
    1PPC    C2B71347  18.060  23.760   6.089  0.3767  0.1719 -0.0036
    1PPC    C3B71348  18.230  23.796   5.768  0.1347 -0.1174  0.0210
    1PPC    C4B71349  18.428  23.338   5.581  0.1595 -0.0244 -0.3649
    1PPC    NC371350  27.892  17.758   8.376 -0.0956 -0.0831  0.3009
    1PPC    PO471351  27.880  17.720   7.846 -0.0927 -0.0034  0.0259
    1PPC    GL171352  28.018  17.731   7.351 -0.1991  0.3051 -0.3160
    1PPC    GL271353  28.134  17.900   7.045  0.0574  0.1309  0.1881
    1PPC    C1B71354  28.180  17.955   6.547  0.0437 -0.0928  0.2918
    1PPC    C2B71355  28.150  17.925   6.136 -0.1292 -0.0253  0.0254
    1PPC    C3B71356  28.479  17.823   5.835 -0.2953 -0.0492  0.1596
    1PPC    C4B71357  28.861  17.962   5.640 -0.1210 -0.2116 -0.0594
    1PPC    NC371358  25.041   3.971   7.252 -0.2473  0.0259  0.1151
    1PPC    PO471359  25.372   4.343   7.236  0.2811  0.0369  0.1085
    1PPC    GL171360  25.039   4.397   6.960 -0.0316  0.0748 -0.2328
    1PPC    GL271361  24.831   4.364   6.750 -0.2044 -0.2078 -0.0767
    1PPC    C1B71362  24.639   4.366   6.297  0.1138  0.0821 -0.1230
    1PPC    C2B71363  24.408   4.390   6.007  0.0615 -0.0295 -0.0057
    1PPC    C3B71364  24.407   4.533   5.550 -0.0552 -0.3828 -0.2621
    1PPC    C4B71365  24.155   4.616   5.301  0.1481 -0.1303  0.0451
    1PPC    NC371366  25.532   8.838   7.366  0.3742  0.1865  0.0029
    1PPC    PO471367  25.646   8.437   7.362 -0.3373 -0.0017 -0.2369
    1PPC    GL171368  25.629   8.371   6.937 -0.3124  0.0591 -0.0446
    1PPC    GL271369  25.721   8.346   6.562 -0.2331  0.1422  0.1339
    1PPC    C1B71370  25.804   8.295   6.149  0.1318 -0.3088  0.0137
    1PPC    C2B71371  25.716   8.302   5.756  0.0013 -0.0044  0.2316
    1PPC    C3B71372  25.741   8.271   5.315 -0.1909 -0.0521  0.0386
    1PPC    C4B71373  25.610   8.333   4.856  0.2104 -0.4213  0.1343
    1PPC    NC371374  17.485   8.029   7.357 -0.1013 -0.1496 -0.1094
    1PPC    PO471375  17.624   7.956   6.932  0.1042  0.0933  0.1831
    1PPC    GL171376  17.714   8.303   6.696 -0.1950 -0.1170 -0.2297
    1PPC    GL271377  17.878   8.266   6.429 -0.2417 -0.0670  0.1313
    1PPC    C1B71378  17.954   8.244   6.056 -0.0480  0.1503 -0.3060
    1PPC    C2B71379  17.944   8.292   5.535 -0.0668 -0.5061 -0.0735
    1PPC    C3B71380  18.008   8.335   5.135  0.0372 -0.2829  0.0703
    1PPC    C4B71381  18.319   8.381   4.812  0.2824  0.1856 -0.2908
    1PPC    NC371382   4.392  14.687   6.079 -0.1169  0.1457  0.2766
    1PPC    PO471383   4.457  15.059   6.192  0.0413 -0.2957  0.2884
    1PPC    GL171384   4.355  15.465   6.106  0.3687 -0.0612 -0.2174
    1PPC    GL271385   4.206  15.523   5.869 -0.3004  0.2144 -0.3419
    1PPC    C1B71386   3.770  15.351   5.740  0.1302  0.0405  0.0855
    1PPC    C2B71387   3.506  15.425   5.356  0.0059 -0.0166  0.0794
    1PPC    C3B71388   3.320  15.635   4.979 -0.1608  0.0569 -0.2863
    1PPC    C4B71389   3.240  15.602   4.522  0.1072 -0.0156  0.0109
    1PPC    NC371390  18.631  29.586   7.133 -0.0513 -0.0971 -0.0543
    1PPC    PO471391  18.232  29.472   7.430  0.1061 -0.1839  0.0592
    1PPC    GL171392  18.186  29.371   7.030  0.1135  0.0644  0.1600
    1PPC    GL271393  18.332  29.455   6.637 -0.1906  0.1246  0.0308
    1PPC    C1B71394  18.354  29.365   6.238  0.0683  0.1252 -0.1093
    1PPC    C2B71395  18.566  29.239   5.816  0.0676 -0.0136 -0.1898
    1PPC    C3B71396  18.622  29.179   5.377  0.4176  0.0860  0.4131
    1PPC    C4B71397  18.681  29.042   4.990 -0.3588  0.0760 -0.0964
    1PPC    NC371398   6.134  15.293   6.536  0.2193 -0.1178  0.0202
    1PPC    PO471399   5.857  15.300   6.282 -0.1175 -0.0537 -0.1979
    1PPC    GL171400   6.068  15.415   5.888  0.1139  0.3669  0.3155
    1PPC    GL271401   6.236  15.394   5.634  0.4347  0.1841  0.1642
    1PPC    C1B71402   6.361  15.492   5.195  0.5618 -0.3292  0.1636
    1PPC    C2B71403   6.467  15.616   4.723  0.1770 -0.2359  0.0765
    1PPC    C3B71404   6.215  15.497   4.453  0.2250 -0.1418 -0.1775
    1PPC    C4B71405   5.835  15.256   4.516  0.1047 -0.2601 -0.3009
    1PPC    NC371406  28.079  29.267   6.705  0.3453  0.0658 -0.3130
    1PPC    PO471407  28.364  29.570   6.622  0.3820 -0.1628  0.3389
    1PPC    GL171408  28.566   0.065   6.217 -0.1002 -0.1430 -0.1764
    1PPC    GL271409  28.551   0.099   5.948 -0.2469  0.0516 -0.2357
    1PPC    C1B71410  28.355   0.053   5.516  0.2691 -0.3435  0.2433
    1PPC    C2B71411  28.228  29.278   5.359 -0.3915 -0.0995  0.1130
    1PPC    C3B71412  28.057  28.931   5.259  0.3468  0.0320  0.2151
    1PPC    C4B71413  27.795  28.633   5.410  0.0272  0.1072  0.3777
    1PPC    NC371414  27.869   8.867   7.342  0.1919  0.1075 -0.1047
    1PPC    PO471415  27.730   9.260   7.061  0.0190  0.2580  0.0535
    1PPC    GL171416  27.562   9.157   6.636  0.1321 -0.1020  0.2955
    1PPC    GL271417  27.393   9.110   6.428 -0.1364 -0.1144  0.2527
    1PPC    C1B71418  27.351   9.239   5.978 -0.1305  0.0818 -0.2818
    1PPC    C2B71419  27.288   9.208   5.638  0.2412  0.1153 -0.2044
    1PPC    C3B71420  27.227   9.192   5.249  0.0884 -0.1297 -0.3001
    1PPC    C4B71421  27.252   9.210   4.832 -0.2049 -0.0897 -0.1968
    1PPC    NC371422   7.494   9.778   1.594 -0.0730 -0.1725  0.2407
    1PPC    PO471423   7.456   9.621   2.005 -0.1920 -0.1109  0.0938
    1PPC    GL171424   7.595   9.899   2.332  0.2719 -0.0559 -0.1445
    1PPC    GL271425   7.516  10.149   2.668 -0.3734  0.2263  0.1405
    1PPC    C1B71426   7.308  10.090   3.001  0.5574  0.0013  0.2307
    1PPC    C2B71427   7.294  10.009   3.447 -0.3548 -0.1071  0.2241
    1PPC    C3B71428   7.276  10.210   3.784  0.0159 -0.1705 -0.0577
    1PPC    C4B71429   7.106  10.629   3.909  0.1992 -0.0891  0.1542
    1PPC    NC371430  24.878  26.088   3.312 -0.0246 -0.1674 -0.0239
    1PPC    PO471431  24.749  25.668   3.454  0.1989 -0.0787 -0.0997
    1PPC    GL171432  24.845  25.355   3.656 -0.1195 -0.1690  0.0468
    1PPC    GL271433  25.000  25.404   3.795 -0.1153 -0.1468  0.2388
    1PPC    C1B71434  25.083  25.535   4.169  0.0978  0.0542  0.2944
    1PPC    C2B71435  24.937  25.393   4.559 -0.0276 -0.0866  0.3915
    1PPC    C3B71436  25.013  25.369   4.933  0.0061  0.1446  0.1269
    1PPC    C4B71437  25.176  25.578   5.264 -0.0789  0.1672  0.1800
    1PPC    NC371438  14.343  14.034   2.624  0.0417  0.2546 -0.2694
    1PPC    PO471439  14.624  14.321   2.660  0.1308  0.2524 -0.0339
    1PPC    GL171440  14.613  14.294   3.018  0.2492  0.0045 -0.0933
    1PPC    GL271441  14.625  14.644   3.056  0.2751 -0.2907  0.3574
    1PPC    C1B71442  14.446  14.851   3.415  0.0385 -0.0434 -0.1084
    1PPC    C2B71443  14.481  14.856   3.911 -0.0272  0.1831 -0.0275
    1PPC    C3B71444  14.449  14.527   4.249 -0.3422  0.3386 -0.0100
    1PPC    C4B71445  14.114  14.240   4.415  0.2425  0.0699  0.0221
    1PPC    NC371446  16.040   1.591   2.571  0.6641 -0.1153  0.0432
    1PPC    PO471447  15.689   1.889   2.630  0.1267  0.1038  0.1941
    1PPC    GL171448  15.438   2.163   2.914  0.1815  0.2355 -0.2916
    1PPC    GL271449  15.476   2.456   3.042  0.1854 -0.1947  0.0010
    1PPC    C1B71450  15.204   2.624   3.352  0.2151  0.1739 -0.0220
    1PPC    C2B71451  14.995   2.396   3.694 -0.0101 -0.1772  0.0081
    1PPC    C3B71452  14.509   2.450   3.566 -0.1200 -0.1940 -0.1176
    1PPC    C4B71453  14.078   2.658   3.583 -0.1098 -0.2492 -0.0947
    1PPC    NC371454  21.570   6.249   2.840 -0.0478 -0.0659 -0.2293
    1PPC    PO471455  21.592   5.873   2.675  0.1507 -0.1707  0.1912
    1PPC    GL171456  21.932   5.717   2.956  0.1798 -0.1506  0.1032
    1PPC    GL271457  21.816   5.596   3.184  0.5052  0.1225 -0.0885
    1PPC    C1B71458  21.781   5.600   3.670  0.1653  0.0812  0.1567
    1PPC    C2B71459  21.787   5.651   4.043 -0.0974 -0.0183  0.0651
    1PPC    C3B71460  21.727   5.760   4.439  0.0788 -0.1321 -0.2125
    1PPC    C4B71461  21.690   6.035   4.815  0.1549  0.0429 -0.0208
    1PPC    NC371462  14.403  17.147   1.934 -0.0781  0.1330  0.0647
    1PPC    PO471463  14.545  17.244   2.410 -0.2398 -0.1719 -0.1652
    1PPC    GL171464  14.420  17.195   2.766 -0.1610  0.2096  0.0864
    1PPC    GL271465  14.301  17.192   3.066  0.1229  0.1437  0.1876
    1PPC    C1B71466  14.317  17.027   3.479  0.1414  0.1383 -0.1388
    1PPC    C2B71467  14.314  16.884   3.851 -0.1301  0.0093 -0.0632
    1PPC    C3B71468  14.205  16.890   4.280 -0.1400  0.0142  0.1131
    1PPC    C4B71469  13.974  17.102   4.572  0.1224 -0.1337 -0.0451
    1PPC    NC371470  14.493   3.660   1.619  0.0850 -0.2299  0.1363
    1PPC    PO471471  14.590   3.216   1.775 -0.0530 -0.0002 -0.1500
    1PPC    GL171472  14.450   3.192   2.247  0.0526  0.1444  0.0271
    1PPC    GL271473  14.625   3.223   2.587  0.0804 -0.1632 -0.2858
    1PPC    C1B71474  14.517   3.195   2.979 -0.0956 -0.1040 -0.1860
    1PPC    C2B71475  14.301   3.078   3.328 -0.0479 -0.0308 -0.0558
    1PPC    C3B71476  14.338   3.183   3.736 -0.2764  0.2909 -0.0888
    1PPC    C4B71477  14.649   3.401   4.034 -0.0723  0.0850 -0.0365
    1PPC    NC371478   1.674  24.533   3.623  0.1096 -0.1559 -0.1818
    1PPC    PO471479   2.055  24.755   3.592  0.0464 -0.2549 -0.2344
    1PPC    GL171480   1.676  24.969   3.848 -0.1481 -0.1801  0.0384
    1PPC    GL271481   1.651  25.107   4.118 -0.0601  0.3090 -0.2078
    1PPC    C1B71482   1.521  25.016   4.553 -0.1617 -0.0822  0.1092
    1PPC    C2B71483   1.143  25.040   4.665 -0.1655 -0.3220  0.1772
    1PPC    C3B71484   0.766  25.093   4.941  0.0025 -0.3084  0.3173
    1PPC    C4B71485   0.377  25.157   5.129  0.1853  0.1106  0.0535
    1PPC    NC371486  21.394   3.967   2.908  0.1160 -0.1977 -0.4131
    1PPC    PO471487  21.556   3.647   3.004 -0.2008 -0.0271 -0.1737
    1PPC    GL171488  21.095   3.657   3.248 -0.0416 -0.0549  0.5551
    1PPC    GL271489  21.044   3.990   3.466 -0.1824 -0.0007  0.0315
    1PPC    C1B71490  21.233   4.129   3.790 -0.0000  0.3287  0.0618
    1PPC    C2B71491  21.675   4.203   3.987 -0.1251 -0.0050 -0.0684
    1PPC    C3B71492  21.856   4.308   4.312  0.0787  0.1480  0.2722
    1PPC    C4B71493  22.037   4.627   4.571 -0.0508  0.1115  0.0220
    1PPC    NC371494  22.694  18.772   3.261  0.0910 -0.0665 -0.0498
    1PPC    PO471495  22.289  18.663   2.964  0.0926 -0.1987  0.0360
    1PPC    GL171496  22.200  18.571   3.271 -0.0160 -0.3058  0.1174
    1PPC    GL271497  22.115  18.610   3.544  0.0814  0.3362  0.2463
    1PPC    C1B71498  22.186  18.647   3.942 -0.2285 -0.0723 -0.3183
    1PPC    C2B71499  22.102  18.785   4.387 -0.1883  0.0685 -0.0337
    1PPC    C3B71500  22.052  18.725   4.712  0.0755 -0.0343  0.0883
    1PPC    C4B71501  22.155  18.770   5.154 -0.1321 -0.3322 -0.1007
    1PPC    NC371502   4.290  17.419   2.224  0.2762  0.1198  0.1308
    1PPC    PO471503   4.562  17.656   2.450  0.1048 -0.0907  0.2442
    1PPC    GL171504   4.432  17.644   2.839  0.0204  0.0753 -0.3012
    1PPC    GL271505   4.275  17.820   3.163  0.0082  0.2702  0.1007
    1PPC    C1B71506   4.215  17.739   3.581  0.2095  0.2366  0.0900
    1PPC    C2B71507   4.321  17.595   3.992  0.1851  0.3007 -0.2216
    1PPC    C3B71508   4.241  17.565   4.413 -0.1331  0.0936 -0.2930
    1PPC    C4B71509   4.252  17.618   4.794  0.2587  0.1396 -0.1031
    1PPC    NC371510   3.690  10.606   1.358 -0.2517 -0.0617 -0.0707
    1PPC    PO471511   3.434  10.567   1.734 -0.0894  0.0488 -0.0592
    1PPC    GL171512   3.129  10.566   2.018  0.1786 -0.2453  0.1289
    1PPC    GL271513   3.112  10.467   2.261  0.2158 -0.1229 -0.1116
    1PPC    C1B71514   3.091  10.170   2.569 -0.0218 -0.0078  0.3869
    1PPC    C2B71515   3.252  10.111   3.013 -0.0993 -0.2387 -0.1264
    1PPC    C3B71516   3.084   9.938   3.358 -0.1302  0.1130 -0.2837
    1PPC    C4B71517   2.882   9.913   3.784  0.3727 -0.3674  0.0292
    1PPC    NC371518  25.677  13.565   2.678 -0.0560  0.0793  0.3989
    1PPC    PO471519  25.821  13.969   2.616 -0.1777  0.0657  0.2457
    1PPC    GL171520  25.811  14.340   2.718  0.3594 -0.3535  0.0454
    1PPC    GL271521  25.791  14.664   2.813  0.3415  0.2610  0.1825
    1PPC    C1B71522  25.937  14.809   3.177 -0.1518  0.4095  0.0410
    1PPC    C2B71523  25.881  14.740   3.571  0.3652 -0.0674 -0.2914
    1PPC    C3B71524  25.887  14.854   3.877  0.1713 -0.0385 -0.0738
    1PPC    C4B71525  25.857  14.893   4.343  0.0836  0.1028  0.5071
    1PPC    NC371526  24.998  25.332   3.087  0.0627  0.0621  0.1863
    1PPC    PO471527  25.233  25.650   3.185 -0.1965  0.3219 -0.0725
    1PPC    GL171528  25.172  25.884   3.643 -0.0967 -0.2442 -0.2350
    1PPC    GL271529  25.209  25.955   3.893 -0.1390  0.4598  0.0253
    1PPC    C1B71530  25.490  26.019   4.258  0.1536  0.1492  0.0222
    1PPC    C2B71531  25.722  25.974   4.687  0.2098  0.1797 -0.0311
    1PPC    C3B71532  25.441  25.938   5.004  0.0703  0.2073  0.0553
    1PPC    C4B71533  25.123  26.162   4.958 -0.0424 -0.1826  0.0527
    1PPC    NC371534  29.556  16.640   1.995  0.1749 -0.4514 -0.0858
    1PPC    PO471535  29.395  16.609   2.405  0.0948  0.0582  0.0482
    1PPC    GL171536  29.621  16.576   2.723 -0.2070  0.0286 -0.3233
    1PPC    GL271537   0.041  16.367   3.044  0.0118 -0.1140  0.0031
    1PPC    C1B71538  29.410  16.015   3.357 -0.0196 -0.2577 -0.0730
    1PPC    C2B71539  29.476  16.018   3.827 -0.1075  0.0975  0.2232
    1PPC    C3B71540  29.455  15.925   4.289  0.0831  0.0191  0.2416
    1PPC    C4B71541  29.330  15.757   4.634 -0.0041  0.0459 -0.0902
    1PPC    NC371542  18.157  12.670   2.867 -0.2410 -0.1123  0.0738
    1PPC    PO471543  18.550  12.522   2.690 -0.1682  0.0404  0.2246
    1PPC    GL171544  18.672  12.611   3.089 -0.0140 -0.1136  0.2073
    1PPC    GL271545  18.508  12.477   3.275  0.0990  0.1077 -0.2952
    1PPC    C1B71546  18.382  12.360   3.659 -0.0667  0.0237  0.1655
    1PPC    C2B71547  18.386  12.374   4.113  0.0895 -0.1297  0.0389
    1PPC    C3B71548  18.626  12.411   4.450  0.2505  0.2731  0.0472
    1PPC    C4B71549  18.541  12.562   4.937  0.0501  0.0717  0.0937
    1PPC    NC371550  26.241  15.102   2.038 -0.1817 -0.0960 -0.0825
    1PPC    PO471551  26.333  15.210   2.426  0.0093  0.1069  0.2005
    1PPC    GL171552  26.230  14.952   2.712  0.3801 -0.0252  0.2024
    1PPC    GL271553  26.318  14.611   2.956  0.1319 -0.1861  0.1432
    1PPC    C1B71554  26.504  14.600   3.378 -0.0567 -0.0092 -0.0563
    1PPC    C2B71555  26.619  14.638   3.830 -0.2027 -0.0833  0.2415
    1PPC    C3B71556  26.706  14.677   4.215  0.1612  0.1913 -0.2066
    1PPC    C4B71557  26.889  15.016   4.495  0.2232 -0.1964 -0.3242
    1PPC    NC371558  23.484   3.326   2.761 -0.0637 -0.1732 -0.2805
    1PPC    PO471559  23.667   3.655   2.697  0.1494  0.0588  0.0906
    1PPC    GL171560  23.659   3.779   3.197  0.2357 -0.2520 -0.2391
    1PPC    GL271561  23.750   4.093   3.262 -0.2252  0.1382 -0.0311
    1PPC    C1B71562  23.718   4.125   3.726 -0.0179 -0.1072  0.1767
    1PPC    C2B71563  23.534   4.109   4.047 -0.3345 -0.3220 -0.1974
    1PPC    C3B71564  23.355   4.138   4.462 -0.3602  0.1270 -0.0622
    1PPC    C4B71565  23.409   4.292   4.831  0.1774 -0.0938 -0.3182
    1PPC    NC371566  28.865   5.380   1.522 -0.0709  0.1007  0.0995
    1PPC    PO471567  28.583   5.418   1.837  0.0469  0.0629  0.0465
    1PPC    GL171568  28.383   5.539   2.185  0.0619 -0.2216  0.1051
    1PPC    GL271569  28.324   5.522   2.487  0.2097 -0.1890  0.1930
    1PPC    C1B71570  28.296   5.393   2.919 -0.5905 -0.1936 -0.2159
    1PPC    C2B71571  28.421   5.328   3.377  0.1279 -0.0014  0.0748
    1PPC    C3B71572  28.576   5.669   3.612 -0.1675 -0.0519 -0.1014
    1PPC    C4B71573  28.897   6.001   3.705 -0.3748 -0.2555  0.1415
    1PPC    NC371574  26.106   6.039   1.908 -0.0381 -0.2774 -0.2167
    1PPC    PO471575  25.738   6.229   2.105  0.0366  0.2038  0.2163
    1PPC    GL171576  25.828   6.467   2.491 -0.1022  0.2095 -0.2776
    1PPC    GL271577  25.840   6.637   2.701 -0.0168 -0.0040 -0.0006
    1PPC    C1B71578  25.702   6.702   3.175 -0.1391 -0.4319 -0.2673
    1PPC    C2B71579  25.696   6.618   3.634  0.0514 -0.0230  0.1879
    1PPC    C3B71580  25.634   6.737   4.007  0.3413 -0.1058  0.1021
    1PPC    C4B71581  25.640   6.758   4.367 -0.1862 -0.0782  0.1418
    1PPC    NC371582  17.092  18.407   2.116  0.1285  0.0509  0.0113
    1PPC    PO471583  16.953  18.763   2.384  0.1433  0.0730  0.4553
    1PPC    GL171584  16.751  18.832   2.818  0.0397  0.2159  0.2884
    1PPC    GL271585  16.653  18.969   3.063  0.0717  0.0316  0.1123
    1PPC    C1B71586  16.460  18.985   3.441  0.2583 -0.2040  0.0781
    1PPC    C2B71587  16.459  19.099   3.812  0.1231  0.0455 -0.2181
    1PPC    C3B71588  16.401  18.774   4.200 -0.1068 -0.1795 -0.2288
    1PPC    C4B71589  16.156  18.834   4.484 -0.0264 -0.0295 -0.0216
    1PPC    NC371590  28.512   7.290   1.192 -0.0428  0.0246  0.1476
    1PPC    PO471591  28.344   6.866   1.205  0.1725 -0.0908 -0.0146
    1PPC    GL171592  28.553   6.806   1.614 -0.0324  0.1002 -0.3633
    1PPC    GL271593  28.674   6.838   1.927  0.1468 -0.1720 -0.1963
    1PPC    C1B71594  28.588   7.215   2.242  0.1788  0.0957  0.2897
    1PPC    C2B71595  28.701   7.327   2.731 -0.0823 -0.0566 -0.0666
    1PPC    C3B71596  28.563   7.217   3.126 -0.2248 -0.0033  0.0290
    1PPC    C4B71597  28.545   7.119   3.556 -0.0072 -0.0815 -0.2513
    1PPC    NC371598  15.957   9.855   2.686  0.1228 -0.1605 -0.0621
    1PPC    PO471599  15.551   9.759   2.651 -0.0915 -0.2341  0.0582
    1PPC    GL171600  15.658   9.997   3.042 -0.1913 -0.3490 -0.0158
    1PPC    GL271601  15.795  10.298   3.197 -0.0710 -0.1009  0.0108
    1PPC    C1B71602  16.110  10.343   3.532 -0.1756 -0.4176  0.0312
    1PPC    C2B71603  16.187  10.334   4.060 -0.2477  0.2297  0.2275
    1PPC    C3B71604  16.503  10.181   4.441  0.0506 -0.1538  0.2880
    1PPC    C4B71605  17.036  10.052   4.573  0.2381  0.0049 -0.4545
    1PPC    NC371606  26.552   3.169   2.066  0.0697 -0.1600 -0.0628
    1PPC    PO471607  26.849   3.033   2.371 -0.1464  0.0072 -0.0561
    1PPC    GL171608  26.892   3.000   2.824 -0.0710  0.0707 -0.1688
    1PPC    GL271609  26.979   3.073   3.040 -0.3105  0.0237  0.1913
    1PPC    C1B71610  27.035   3.112   3.452 -0.1257 -0.0466 -0.0583
    1PPC    C2B71611  26.969   3.361   3.800 -0.2276  0.1972  0.1398
    1PPC    C3B71612  26.754   3.663   4.103 -0.1358  0.2447  0.2344
    1PPC    C4B71613  26.413   3.969   4.150 -0.0499 -0.1998  0.0515
    1PPC    NC371614   2.440  14.744   2.303  0.0644  0.0182 -0.1765
    1PPC    PO471615   2.569  14.980   2.739 -0.0093 -0.2030  0.1627
    1PPC    GL171616   2.811  14.975   2.982 -0.0414 -0.0273 -0.3742
    1PPC    GL271617   2.876  15.016   3.295 -0.0702 -0.1743 -0.0035
    1PPC    C1B71618   3.141  14.921   3.666 -0.4253  0.3797 -0.1303
    1PPC    C2B71619   3.341  14.647   4.042 -0.2373 -0.1443  0.0371
    1PPC    C3B71620   3.732  14.636   4.249  0.0206  0.1272  0.3135
    1PPC    C4B71621   3.715  14.564   4.676  0.1492 -0.1072 -0.1583
    1PPC    NC371622   2.598  15.880   2.884 -0.1417 -0.0830  0.2072
    1PPC    PO471623   2.310  16.139   2.700 -0.2679  0.1302 -0.0977
    1PPC    GL171624   2.243  16.283   3.059  0.0525 -0.0283 -0.4097
    1PPC    GL271625   2.422  16.097   3.316 -0.3003 -0.0004  0.0542
    1PPC    C1B71626   2.583  16.248   3.684  0.0102  0.0940  0.0790
    1PPC    C2B71627   2.879  16.399   3.909  0.1888  0.1406  0.2861
    1PPC    C3B71628   3.042  16.199   4.321 -0.1282 -0.1565  0.0317
    1PPC    C4B71629   3.018  16.063   4.753  0.4001  0.1544  0.0021
    1PPC    NC371630  23.839  11.370   2.545  0.1412  0.2356 -0.0713
    1PPC    PO471631  24.057  11.367   2.897 -0.0288  0.1517 -0.0846
    1PPC    GL171632  23.859  11.525   3.266 -0.3330  0.0655 -0.0914
    1PPC    GL271633  23.855  11.462   3.565  0.2434 -0.1942 -0.0360
    1PPC    C1B71634  23.876  11.511   3.995 -0.2426 -0.1097 -0.0210
    1PPC    C2B71635  24.004  11.408   4.367  0.0728 -0.1759  0.0137
    1PPC    C3B71636  24.226  11.509   4.730  0.3486  0.0566  0.1439
    1PPC    C4B71637  24.558  11.327   4.955  0.2515  0.0064 -0.0842
    1PPC    NC371638  26.934  16.289   2.404  0.0328  0.0404 -0.4491
    1PPC    PO471639  26.862  15.869   2.310 -0.0001  0.1042  0.3189
    1PPC    GL171640  26.703  15.566   2.743 -0.2919  0.1399  0.0614
    1PPC    GL271641  26.822  15.477   3.030 -0.0050  0.2190  0.4609
    1PPC    C1B71642  26.918  15.058   3.365 -0.2572  0.1404  0.2917
    1PPC    C2B71643  27.190  14.983   3.686  0.1958 -0.2378  0.1250
    1PPC    C3B71644  27.309  15.078   4.108  0.2490 -0.0409  0.1116
    1PPC    C4B71645  27.426  15.186   4.456  0.1216 -0.1512 -0.0507
    1PPC    NC371646  18.736  10.940   2.277 -0.1467  0.2006 -0.1963
    1PPC    PO471647  18.925  10.995   2.675 -0.2465 -0.1111 -0.0537
    1PPC    GL171648  18.793  11.278   2.987  0.1144  0.1232 -0.1781
    1PPC    GL271649  18.983  11.462   3.260 -0.3259  0.0740  0.0022
    1PPC    C1B71650  18.924  11.478   3.594 -0.1295 -0.1841 -0.1716
    1PPC    C2B71651  18.852  11.522   3.897 -0.0597 -0.3505 -0.3329
    1PPC    C3B71652  18.952  11.458   4.320 -0.0027  0.3521  0.2549
    1PPC    C4B71653  19.019  11.482   4.661 -0.2938 -0.0545  0.2557
    1PPC    NC371654  28.270  13.474   2.124 -0.0993 -0.1100  0.1178
    1PPC    PO471655  28.161  13.793   2.391 -0.1632 -0.0380 -0.0154
    1PPC    GL171656  28.083  13.801   2.780 -0.2230 -0.2148  0.2170
    1PPC    GL271657  28.029  13.847   3.051 -0.1568  0.1394 -0.1528
    1PPC    C1B71658  27.899  13.786   3.344  0.2199  0.1734  0.1849
    1PPC    C2B71659  27.911  13.759   3.725  0.3763 -0.0191 -0.5542
    1PPC    C3B71660  27.852  13.731   4.113 -0.3685  0.0254 -0.2215
    1PPC    C4B71661  28.026  13.529   4.436  0.0200  0.2552 -0.1677
    1PPC    NC371662  21.539  18.437   2.836  0.0706  0.0435  0.0887
    1PPC    PO471663  21.744  18.381   3.292  0.0625  0.1752 -0.1315
    1PPC    GL171664  21.977  18.105   3.444 -0.1610  0.0810  0.1132
    1PPC    GL271665  22.139  18.097   3.671 -0.1189  0.0738 -0.2401
    1PPC    C1B71666  22.088  18.132   4.106  0.1230 -0.0027  0.1971
    1PPC    C2B71667  21.903  18.341   4.485 -0.2065 -0.2073  0.1459
    1PPC    C3B71668  21.644  18.332   4.831 -0.2307  0.0160 -0.0182
    1PPC    C4B71669  21.539  18.158   5.224  0.1089 -0.1776 -0.1780
    1PPC    NC371670  18.511  12.051   2.508  0.0436 -0.4941 -0.1411
    1PPC    PO471671  18.304  11.634   2.508  0.1823 -0.1344  0.0785
    1PPC    GL171672  18.107  11.998   2.775  0.1247  0.0197  0.2388
    1PPC    GL271673  18.210  12.096   3.062  0.0061  0.0669 -0.0209
    1PPC    C1B71674  18.128  11.933   3.558 -0.0239 -0.2133 -0.2819
    1PPC    C2B71675  18.113  11.873   4.078 -0.1315 -0.1818 -0.3967
    1PPC    C3B71676  18.129  11.931   4.579  0.0831  0.2686 -0.2323
    1PPC    C4B71677  18.354  12.076   4.797 -0.0066 -0.1734  0.1242
    1PPC    NC371678  25.695  12.370   2.145  0.1285  0.0109 -0.2059
    1PPC    PO471679  25.670  12.332   2.636 -0.1540 -0.1208  0.1927
    1PPC    GL171680  25.617  12.452   2.980  0.0642  0.2882 -0.0178
    1PPC    GL271681  25.524  12.271   3.209  0.0922  0.1996 -0.0624
    1PPC    C1B71682  25.448  12.372   3.671  0.2828 -0.3085 -0.1641
    1PPC    C2B71683  25.443  12.363   4.075  0.1050  0.1923 -0.0193
    1PPC    C3B71684  25.527  12.353   4.495  0.0992 -0.2415  0.2567
    1PPC    C4B71685  25.308  12.461   4.732  0.1016 -0.0529  0.0122
    1PPC    NC371686  28.426  12.970   2.680 -0.2842  0.1404  0.0436
    1PPC    PO471687  28.167  13.324   2.618  0.3661  0.1001  0.0631
    1PPC    GL171688  28.319  13.400   3.006  0.0552 -0.2077 -0.2065
    1PPC    GL271689  28.255  13.382   3.269  0.1517  0.0865  0.3579
    1PPC    C1B71690  28.316  13.216   3.684 -0.0706  0.2020  0.3422
    1PPC    C2B71691  28.466  13.197   4.057 -0.1242  0.1530 -0.1558
    1PPC    C3B71692  28.566  13.453   4.429  0.2176 -0.1677 -0.0434
    1PPC    C4B71693  28.635  13.533   4.829  0.0199  0.1070  0.0350
    1PPC    NC371694  24.681  13.692   1.926 -0.0395  0.1430 -0.0356
    1PPC    PO471695  24.778  13.471   2.284  0.1568 -0.2904 -0.1144
    1PPC    GL171696  24.705  13.568   2.760 -0.0207  0.1568 -0.2513
    1PPC    GL271697  24.532  13.475   3.048 -0.0101 -0.0098 -0.2576
    1PPC    C1B71698  24.406  13.232   3.420 -0.0491 -0.3515 -0.1061
    1PPC    C2B71699  24.198  13.146   3.798 -0.0433 -0.1446  0.0938
    1PPC    C3B71700  23.958  13.162   4.105 -0.1406  0.0298  0.1338
    1PPC    C4B71701  23.619  12.996   4.208 -0.0527 -0.1602  0.0215
    1PPC    NC371702  25.022   6.236   1.476 -0.0841 -0.3109  0.0422
    1PPC    PO471703  24.969   6.021   1.938  0.2448  0.2227 -0.3064
    1PPC    GL171704  25.244   6.208   2.248  0.0832  0.2879  0.0126
    1PPC    GL271705  25.434   6.130   2.516  0.2110 -0.2209 -0.0949
    1PPC    C1B71706  25.636   6.100   2.837  0.0240 -0.0002 -0.0465
    1PPC    C2B71707  25.882   5.825   3.067 -0.3739  0.2102  0.0028
    1PPC    C3B71708  26.214   5.800   3.446  0.1843 -0.1291 -0.0164
    1PPC    C4B71709  26.411   5.942   3.829 -0.0550  0.1868 -0.1192
    1PPC    NC371710  26.990  12.272   2.450  0.1952  0.1118  0.0600
    1PPC    PO471711  26.777  11.962   2.260 -0.1967 -0.0256  0.1278
    1PPC    GL171712  27.080  11.766   2.565 -0.1318 -0.2016  0.2028
    1PPC    GL271713  27.142  11.620   2.773 -0.0703  0.0624  0.3773
    1PPC    C1B71714  27.059  11.420   3.101 -0.0840  0.2048  0.0166
    1PPC    C2B71715  27.046  11.297   3.488  0.1422 -0.2217  0.2216
    1PPC    C3B71716  27.024  11.189   3.852  0.0853  0.0464 -0.1131
    1PPC    C4B71717  27.135  11.179   4.267  0.0493 -0.2559 -0.0065
    1PPC    NC371718  15.953  10.360   1.999 -0.1473 -0.0782 -0.0542
    1PPC    PO471719  15.900  10.310   2.447  0.0642  0.2866  0.0453
    1PPC    GL171720  15.796  10.638   2.694 -0.0652  0.3277 -0.0667
    1PPC    GL271721  15.656  10.803   3.064  0.1395 -0.0497 -0.2686
    1PPC    C1B71722  15.507  11.117   3.347 -0.0106  0.2978  0.0884
    1PPC    C2B71723  15.452  11.051   3.779 -0.2147 -0.0151  0.2221
    1PPC    C3B71724  15.291  10.777   3.991  0.3898 -0.1112  0.4323
    1PPC    C4B71725  14.852  10.556   4.044  0.3782 -0.2092  0.0720
    1PPC    NC371726  16.379  13.035   2.149  0.0800 -0.1613  0.1460
    1PPC    PO471727  16.237  13.046   2.617  0.1362 -0.0122  0.1319
    1PPC    GL171728  16.192  13.120   3.052  0.0895  0.1702  0.0654
    1PPC    GL271729  16.427  13.250   3.306 -0.0893 -0.0189  0.1285
    1PPC    C1B71730  16.429  13.209   3.736 -0.0379  0.3663 -0.1385
    1PPC    C2B71731  16.423  13.250   4.193  0.0525  0.2527 -0.1984
    1PPC    C3B71732  16.286  13.377   4.507 -0.0101 -0.0080 -0.0978
    1PPC    C4B71733  16.325  13.733   4.646 -0.2284  0.0198  0.0616
    1PPC    NC371734  28.376  25.351   3.202 -0.0298  0.2654  0.2466
    1PPC    PO471735  28.594  25.730   3.324  0.0865  0.0442 -0.3232
    1PPC    GL171736  28.448  25.935   3.736  0.0028 -0.2210 -0.0485
    1PPC    GL271737  28.381  26.053   4.053  0.0837  0.0278 -0.2997
    1PPC    C1B71738  28.159  25.887   4.406  0.4098  0.0433 -0.1282
    1PPC    C2B71739  27.937  25.853   4.781 -0.0101  0.6308  0.1685
    1PPC    C3B71740  27.497  25.704   4.832  0.3996  0.0623 -0.3245
    1PPC    C4B71741  26.967  25.853   4.934  0.0410  0.3363  0.2198
    1PPC    NC371742   0.905   9.207   1.359  0.0433  0.2015 -0.1060
    1PPC    PO471743   0.797   9.635   1.542  0.0588  0.0092 -0.1671
    1PPC    GL171744   0.714   9.300   1.852  0.2955 -0.0451 -0.0289
    1PPC    GL271745   0.615   9.025   2.121  0.1078 -0.0455 -0.0424
    1PPC    C1B71746   0.518   8.932   2.549 -0.1782  0.0521 -0.0395
    1PPC    C2B71747   0.529   9.170   2.901  0.1146 -0.0471  0.2029
    1PPC    C3B71748   0.683   9.486   3.138  0.1608  0.0309 -0.1176
    1PPC    C4B71749   0.762   9.694   3.562  0.0019 -0.1253 -0.3905
    1PPC    NC371750  24.044   2.285   3.303 -0.1390  0.2942  0.1179
    1PPC    PO471751  23.898   1.885   3.089 -0.0544 -0.0256  0.0346
    1PPC    GL171752  23.906   1.820   3.544 -0.2267  0.2712  0.1311
    1PPC    GL271753  24.002   2.049   3.760 -0.0853 -0.0577  0.0654
    1PPC    C1B71754  23.940   2.368   4.170 -0.1053 -0.2386  0.1620
    1PPC    C2B71755  24.060   2.410   4.529 -0.0315 -0.2101 -0.2085
    1PPC    C3B71756  23.995   2.507   4.931  0.0526  0.2569 -0.0713
    1PPC    C4B71757  23.945   2.554   5.329  0.1997 -0.0285  0.0029
    1PPC    NC371758  15.835  16.128   2.049  0.0680 -0.1862  0.4060
    1PPC    PO471759  15.682  16.421   2.477  0.0093  0.0491  0.2401
    1PPC    GL171760  15.480  16.345   2.811  0.2693  0.0076  0.0255
    1PPC    GL271761  15.344  16.094   2.898  0.3873  0.1375  0.1696
    1PPC    C1B71762  15.147  15.886   3.201  0.1827  0.1482  0.1748
    1PPC    C2B71763  15.163  15.959   3.617 -0.0801  0.1801 -0.0981
    1PPC    C3B71764  15.457  15.640   3.928  0.1701  0.2193 -0.3995
    1PPC    C4B71765  15.336  15.607   4.391 -0.0928 -0.0819  0.0052
    1PPC    NC371766  20.202   4.836   2.174 -0.0141  0.0347 -0.1242
    1PPC    PO471767  19.672   4.803   2.212 -0.3485 -0.0729  0.4261
    1PPC    GL171768  19.914   4.975   2.668 -0.0414  0.1090  0.1818
    1PPC    GL271769  19.984   5.061   2.937 -0.3326 -0.1969  0.0882
    1PPC    C1B71770  20.019   5.206   3.317 -0.2147 -0.0324  0.0881
    1PPC    C2B71771  20.121   4.979   3.715 -0.0084 -0.0807  0.1080
    1PPC    C3B71772  20.117   4.768   4.102  0.3033 -0.2407  0.1302
    1PPC    C4B71773  20.082   4.695   4.465  0.3260 -0.1266  0.0955
    1PPC    NC371774  21.994  17.349   2.872  0.3147 -0.3668  0.0495
    1PPC    PO471775  22.127  17.683   3.113  0.0605 -0.0741  0.2347
    1PPC    GL171776  22.372  17.605   3.451 -0.1354 -0.0544  0.0248
    1PPC    GL271777  22.535  17.750   3.671  0.1341  0.1525  0.0637
    1PPC    C1B71778  22.692  17.793   4.105  0.1903 -0.1431  0.0154
    1PPC    C2B71779  22.612  17.995   4.472  0.2067  0.1972  0.1408
    1PPC    C3B71780  22.269  18.107   4.733  0.1498 -0.0464  0.3045
    1PPC    C4B71781  22.136  18.250   5.052  0.1080  0.0521 -0.2163
    1PPC    NC371782  15.718  18.620   2.436 -0.0140 -0.0325  0.3284
    1PPC    PO471783  16.109  18.444   2.597  0.1186  0.1721  0.0909
    1PPC    GL171784  16.129  18.164   2.821 -0.1638 -0.3853 -0.1667
    1PPC    GL271785  16.019  18.089   3.178 -0.4118  0.0012  0.0036
    1PPC    C1B71786  15.869  17.955   3.502  0.0443  0.2841 -0.4081
    1PPC    C2B71787  16.004  17.643   3.774 -0.2873 -0.0132  0.0333
    1PPC    C3B71788  15.933  17.618   4.218 -0.0909 -0.1068 -0.0646
    1PPC    C4B71789  15.745  17.767   4.526 -0.2095  0.2201 -0.0815
    1PPC    NC371790  14.076  17.204   2.399  0.1874 -0.1767  0.2151
    1PPC    PO471791  14.257  16.840   2.285 -0.0255  0.2151 -0.4672
    1PPC    GL171792  14.326  16.690   2.606  0.0255  0.0032 -0.1566
    1PPC    GL271793  14.419  16.754   2.864 -0.2758  0.0301  0.1025
    1PPC    C1B71794  14.470  16.551   3.288  0.0536  0.1003  0.0357
    1PPC    C2B71795  14.430  16.422   3.669 -0.0732 -0.1593  0.0867
    1PPC    C3B71796  14.250  16.442   4.105  0.0887  0.0173 -0.1413
    1PPC    C4B71797  13.839  16.538   4.359 -0.1549 -0.1587 -0.2233
    1PPC    NC371798   5.588   6.242   1.598  0.1578 -0.1339  0.2038
    1PPC    PO471799   5.348   6.591   1.883 -0.0157 -0.1056 -0.0457
    1PPC    GL171800   5.210   6.864   2.192  0.1042 -0.2004  0.1358
    1PPC    GL271801   4.975   6.810   2.459 -0.2395 -0.1145 -0.0378
    1PPC    C1B71802   4.903   7.036   2.813  0.1345  0.2168 -0.2153
    1PPC    C2B71803   4.931   7.179   3.282 -0.0955  0.3085  0.0158
    1PPC    C3B71804   5.096   7.125   3.614  0.1013 -0.0773 -0.1313
    1PPC    C4B71805   5.269   7.274   3.866 -0.1046  0.1277  0.2412
    1PPC    NC371806  15.531  11.035   2.397 -0.1641  0.1052 -0.0978
    1PPC    PO471807  15.297  10.805   2.628 -0.2765 -0.5150  0.0102
    1PPC    GL171808  15.302  10.456   3.013  0.2568 -0.0720 -0.3528
    1PPC    GL271809  15.206  10.255   3.229  0.1025  0.2708  0.0518
    1PPC    C1B71810  15.366  10.132   3.548  0.3713  0.2123 -0.0664
    1PPC    C2B71811  15.334  10.253   3.951 -0.0027  0.0275 -0.2426
    1PPC    C3B71812  15.239  10.391   4.308 -0.1311 -0.1214  0.3474
    1PPC    C4B71813  15.435  10.258   4.651  0.0307  0.0572 -0.1121
    1PPC    NC371814  15.469  19.084   2.079 -0.0177 -0.2491  0.1625
    1PPC    PO471815  15.257  18.752   2.250  0.3672 -0.1110  0.0229
    1PPC    GL171816  15.303  18.635   2.747  0.0396  0.3246 -0.2572
    1PPC    GL271817  15.394  18.810   3.077 -0.0558 -0.1297  0.1007
    1PPC    C1B71818  15.179  18.740   3.490 -0.1411  0.2995  0.0737
    1PPC    C2B71819  14.763  18.459   3.593 -0.2539  0.1492 -0.1515
    1PPC    C3B71820  14.328  18.225   3.605  0.0650 -0.1191 -0.0971
    1PPC    C4B71821  13.953  18.371   3.809 -0.2826  0.1737  0.1699
    1PPC    NC371822   1.831  15.994   2.890  0.0211 -0.1588  0.2596
    1PPC    PO471823   2.134  15.790   2.991  0.2533  0.0177  0.1901
    1PPC    GL171824   2.256  15.668   3.437  0.1610 -0.2733  0.1308
    1PPC    GL271825   2.334  15.674   3.730 -0.3316  0.2770  0.1873
    1PPC    C1B71826   2.498  15.942   4.114  0.1071  0.2004  0.1474
    1PPC    C2B71827   2.570  16.247   4.369 -0.0022  0.2336 -0.1652
    1PPC    C3B71828   2.677  16.486   4.700 -0.1156 -0.5670  0.3490
    1PPC    C4B71829   2.827  16.613   5.099 -0.0327 -0.0332  0.0574
    1PPC    NC371830  26.535   7.035   1.626  0.1138 -0.1359 -0.2232
    1PPC    PO471831  26.363   6.882   2.069 -0.1443  0.0195 -0.2612
    1PPC    GL171832  26.742   6.793   2.406 -0.0830 -0.0269  0.1315
    1PPC    GL271833  26.964   6.565   2.556  0.1464  0.0665  0.0101
    1PPC    C1B71834  27.066   6.580   3.010 -0.1498 -0.1181 -0.2186
    1PPC    C2B71835  27.189   6.472   3.457  0.0864  0.1575  0.2871
    1PPC    C3B71836  27.164   6.515   3.896  0.1552  0.0822  0.0715
    1PPC    C4B71837  27.193   6.400   4.230  0.1679 -0.0461 -0.0483
    1PPC    NC371838  14.973  21.828   2.035  0.0097  0.0376 -0.2427
    1PPC    PO471839  14.659  21.760   2.513 -0.0953  0.0164 -0.1947
    1PPC    GL171840  14.848  21.443   2.766  0.1247 -0.0043 -0.2505
    1PPC    GL271841  14.775  21.382   3.076  0.1794 -0.1637  0.0079
    1PPC    C1B71842  14.728  21.561   3.464  0.0194 -0.1082  0.2606
    1PPC    C2B71843  14.607  21.604   3.943 -0.0803  0.0564 -0.2866
    1PPC    C3B71844  14.616  21.982   4.007  0.0886 -0.1794  0.2763
    1PPC    C4B71845  14.527  22.266   4.432  0.4728  0.1021 -0.2511
    1PPC    NC371846  26.682  25.219   3.233  0.3725 -0.3845  0.1020
    1PPC    PO471847  26.347  24.999   3.444  0.0230  0.0173  0.1059
    1PPC    GL171848  25.910  25.187   3.552 -0.0256  0.2769  0.0554
    1PPC    GL271849  26.059  25.417   3.710  0.0961  0.1015 -0.2918
    1PPC    C1B71850  26.083  25.519   4.136  0.1935 -0.0893 -0.3184
    1PPC    C2B71851  26.154  25.670   4.531  0.0192 -0.4411 -0.0184
    1PPC    C3B71852  26.508  25.865   4.690  0.0765  0.2753 -0.1041
    1PPC    C4B71853  26.747  26.286   4.716  0.0009  0.2021  0.0135
    1PPC    NC371854  29.188   9.757   1.588 -0.0998 -0.1732  0.3508
    1PPC    PO471855  29.432   9.924   1.871  0.0697  0.2102  0.1878
    1PPC    GL171856  29.318   9.577   2.076  0.2502  0.1721 -0.1152
    1PPC    GL271857  29.247   9.449   2.349  0.2429 -0.1119 -0.2176
    1PPC    C1B71858  29.334   9.422   2.661 -0.1084  0.0666 -0.3098
    1PPC    C2B71859  29.294   9.245   3.024 -0.1858  0.1854  0.1125
    1PPC    C3B71860  29.014   9.271   3.368  0.0047  0.0962  0.0559
    1PPC    C4B71861  28.841   8.977   3.618 -0.1309  0.1038 -0.0155
    1PPC    NC371862  19.750  10.629   2.128 -0.0888 -0.0670 -0.0021
    1PPC    PO471863  19.443  10.880   2.563  0.0549 -0.2646 -0.2757
    1PPC    GL171864  19.256  10.632   2.923  0.1397  0.0111  0.0581
    1PPC    GL271865  19.291  10.728   3.239  0.0173  0.1372 -0.1295
    1PPC    C1B71866  19.340  10.712   3.588 -0.0180  0.0429 -0.0528
    1PPC    C2B71867  19.403  10.651   3.954  0.0049  0.0562 -0.0046
    1PPC    C3B71868  19.453  10.506   4.458  0.1956 -0.1757  0.2252
    1PPC    C4B71869  19.457  10.292   4.800 -0.1867 -0.0189  0.1267
    1PPC    NC371870  28.044  12.253   1.947 -0.3644  0.0135  0.0462
    1PPC    PO471871  28.388  12.191   2.290  0.0572  0.1223 -0.0167
    1PPC    GL171872  28.444  11.979   2.747  0.0590  0.2566 -0.0308
    1PPC    GL271873  28.605  11.993   2.989  0.1908 -0.1767  0.0480
    1PPC    C1B71874  28.671  12.043   3.412  0.1572  0.1624  0.2904
    1PPC    C2B71875  28.646  11.931   3.819  0.0179  0.5003  0.1190
    1PPC    C3B71876  28.790  11.881   4.273  0.0743 -0.1440 -0.1451
    1PPC    C4B71877  28.791  11.687   4.691  0.0805 -0.0265  0.2029
    1PPC    NC371878  25.269   9.236   2.379 -0.1000  0.2959  0.0629
    1PPC    PO471879  24.976   9.165   2.648 -0.2456  0.0375  0.1985
    1PPC    GL171880  25.307   9.478   2.777 -0.1595 -0.2722 -0.1707
    1PPC    GL271881  25.250   9.493   3.090  0.2051 -0.0114  0.1949
    1PPC    C1B71882  25.431   9.470   3.541  0.5308 -0.0767  0.1116
    1PPC    C2B71883  25.535   9.456   4.026 -0.0286  0.2964 -0.1790
    1PPC    C3B71884  25.608   9.332   4.406  0.0566 -0.2038  0.0105
    1PPC    C4B71885  25.933   9.271   4.697 -0.2588 -0.0776  0.0781
    1PPC    NC371886   0.338   6.928   1.724  0.1967 -0.1702  0.0888
    1PPC    PO471887   0.809   6.978   1.771 -0.0541  0.2653 -0.2024
    1PPC    GL171888   0.450   7.272   2.061  0.2731 -0.2464 -0.1236
    1PPC    GL271889   0.453   7.289   2.423 -0.2288  0.3408 -0.2249
    1PPC    C1B71890   0.788   7.184   2.757 -0.3310 -0.0551  0.0594
    1PPC    C2B71891   1.031   7.073   3.119 -0.1010  0.2749 -0.0062
    1PPC    C3B71892   1.142   7.190   3.549  0.3901  0.0318 -0.1397
    1PPC    C4B71893   1.594   7.181   3.779 -0.0305 -0.0811  0.0949
    1PPC    NC371894  21.100  11.945   2.260 -0.1102 -0.0684 -0.2057
    1PPC    PO471895  21.258  11.615   2.414  0.0639 -0.1135  0.0692
    1PPC    GL171896  21.215  11.450   2.829  0.1445 -0.0614 -0.1202
    1PPC    GL271897  21.311  11.371   3.125 -0.0893 -0.0471  0.1028
    1PPC    C1B71898  21.695  11.457   3.429 -0.2657 -0.1160  0.3546
    1PPC    C2B71899  21.769  11.362   3.829  0.0612  0.2198 -0.2040
    1PPC    C3B71900  21.761  11.307   4.285  0.3074  0.0434  0.0207
    1PPC    C4B71901  21.702  11.123   4.682 -0.2035 -0.0038 -0.1753
    1PPC    NC371902   2.343  18.492   2.877  0.0700  0.0375  0.0542
    1PPC    PO471903   2.278  18.927   2.837  0.4191  0.0443 -0.2775
    1PPC    GL171904   2.170  18.831   3.271 -0.0869  0.2512  0.1765
    1PPC    GL271905   2.345  18.895   3.582  0.0442 -0.0331  0.1523
    1PPC    C1B71906   2.283  18.732   4.005  0.4435  0.0253 -0.0492
    1PPC    C2B71907   2.045  18.438   4.299 -0.3525 -0.1079  0.0195
    1PPC    C3B71908   1.674  18.110   4.360 -0.0304  0.0723 -0.0019
    1PPC    C4B71909   1.419  18.049   4.652  0.0091  0.1415 -0.0526
    1PPC    NC371910  23.092   8.899   2.103 -0.0974 -0.2517  0.2123
    1PPC    PO471911  22.725   8.779   2.364 -0.3075  0.6941  0.1362
    1PPC    GL171912  22.821   8.640   2.763  0.1554 -0.0772  0.2732
    1PPC    GL271913  22.549   8.545   3.085  0.0848  0.0911  0.0195
    1PPC    C1B71914  22.516   8.542   3.542 -0.2799 -0.3809 -0.2784
    1PPC    C2B71915  22.470   8.525   3.981 -0.0006 -0.0421 -0.2316
    1PPC    C3B71916  22.382   8.424   4.301 -0.0482 -0.2248  0.3536
    1PPC    C4B71917  22.233   8.106   4.513  0.2131 -0.1317  0.0793
    1PPC    NC371918  21.895   5.638   2.430  0.2358  0.0574 -0.0294
    1PPC    PO471919  21.885   5.229   2.442 -0.4928 -0.1884  0.0703
    1PPC    GL171920  21.616   5.341   2.809 -0.0302 -0.1002  0.1276
    1PPC    GL271921  21.371   5.434   2.991 -0.0587 -0.0875 -0.0362
    1PPC    C1B71922  21.316   5.441   3.418  0.3154 -0.3836  0.1958
    1PPC    C2B71923  21.284   5.612   3.803 -0.2145  0.2833  0.0769
    1PPC    C3B71924  21.339   5.531   4.164  0.0527  0.1636  0.1368
    1PPC    C4B71925  21.336   5.407   4.722  0.2342  0.2891  0.2057
    1PPC    NC371926  11.075  21.234   2.332 -0.0530  0.3805 -0.2153
    1PPC    PO471927  11.151  20.684   2.421  0.2857 -0.2924  0.0070
    1PPC    GL171928  10.991  20.703   2.810 -0.1491 -0.2427 -0.1977
    1PPC    GL271929  11.057  20.866   3.086 -0.1296 -0.0199 -0.2034
    1PPC    C1B71930  11.300  20.695   3.423 -0.3008  0.1158  0.0811
    1PPC    C2B71931  11.431  20.680   3.812  0.0705 -0.2157  0.0614
    1PPC    C3B71932  11.774  20.579   4.030 -0.2422 -0.1434 -0.2669
    1PPC    C4B71933  12.186  20.632   4.236 -0.4772  0.4599  0.0850
    1PPC    NC371934  24.240  24.304   3.051 -0.2136  0.1194  0.0017
    1PPC    PO471935  24.186  24.219   3.498  0.1048  0.0439 -0.2076
    1PPC    GL171936  24.433  24.427   3.794 -0.4581 -0.1874  0.0738
    1PPC    GL271937  24.611  24.505   4.108  0.0140 -0.2104  0.0263
    1PPC    C1B71938  24.604  24.540   4.536  0.3344  0.1564  0.1295
    1PPC    C2B71939  24.359  24.747   4.923  0.1327  0.1805 -0.1240
    1PPC    C3B71940  24.096  24.819   5.266  0.1866 -0.0045 -0.2206
    1PPC    C4B71941  23.911  24.767   5.710 -0.0191 -0.3061 -0.0417
    1PPC    NC371942  29.117  10.669   2.173 -0.1020 -0.0935 -0.1256
    1PPC    PO471943  29.112  10.351   1.857 -0.0645  0.1081 -0.0199
    1PPC    GL171944  29.341  10.237   2.326  0.0126  0.0434  0.2213
    1PPC    GL271945  29.377   9.962   2.485  0.1956 -0.3005  0.0855
    1PPC    C1B71946  29.336  10.071   2.866  0.1940 -0.1291 -0.2604
    1PPC    C2B71947  29.575  10.141   3.215 -0.1561 -0.3337 -0.1639
    1PPC    C3B71948  29.491   9.977   3.532 -0.0516  0.0520  0.2023
    1PPC    C4B71949  29.600  10.004   3.878 -0.1445  0.0513 -0.4746
    1PPC    NC371950   2.974  14.794   2.424  0.1183 -0.3663 -0.1153
    1PPC    PO471951   2.842  14.419   2.263  0.1218 -0.2595 -0.1933
    1PPC    GL171952   3.115  14.136   2.441  0.3444 -0.1258  0.1960
    1PPC    GL271953   3.319  13.905   2.418  0.0085  0.0064 -0.1796
    1PPC    C1B71954   3.569  13.876   2.755 -0.0718  0.1681  0.1105
    1PPC    C2B71955   3.589  13.758   3.224 -0.0720 -0.0208  0.2524
    1PPC    C3B71956   3.453  13.740   3.748  0.0368  0.1856  0.0628
    1PPC    C4B71957   3.242  13.751   4.163 -0.0275  0.2061  0.0101
    1PPC    NC371958  21.472   8.732   2.060 -0.0719  0.0666  0.2656
    1PPC    PO471959  21.603   9.070   2.252 -0.2858  0.1972  0.0948
    1PPC    GL171960  21.322   8.964   2.582 -0.2567  0.5002 -0.1055
    1PPC    GL271961  21.361   8.878   2.807 -0.0283 -0.2643  0.2041
    1PPC    C1B71962  21.162   8.983   3.270 -0.1661  0.0929  0.0051
    1PPC    C2B71963  21.229   9.006   3.699 -0.0462 -0.0990 -0.1854
    1PPC    C3B71964  21.097   8.978   4.113  0.2937  0.0010  0.0291
    1PPC    C4B71965  20.939   8.808   4.501 -0.1221  0.0361  0.2404
    1PPC    NC371966  24.560  17.530   2.510 -0.0333  0.3951 -0.1585
    1PPC    PO471967  24.389  17.435   2.902  0.0813 -0.0057  0.2460
    1PPC    GL171968  24.205  17.499   3.263  0.0094 -0.1006  0.2605
    1PPC    GL271969  23.989  17.388   3.591 -0.0080 -0.2014 -0.0522
    1PPC    C1B71970  23.777  17.199   3.946  0.1283 -0.3980  0.1590
    1PPC    C2B71971  23.693  16.920   4.282  0.0006  0.0954  0.1142
    1PPC    C3B71972  23.641  16.487   4.566 -0.1012 -0.3546  0.3171
    1PPC    C4B71973  23.717  16.093   4.698  0.1419 -0.0153  0.0946
    1PPC    NC371974   4.602  12.378   2.002 -0.0533  0.0600  0.0488
    1PPC    PO471975   4.045  12.306   1.936 -0.0487  0.0898  0.0252
    1PPC    GL171976   4.091  12.554   2.290  0.0829 -0.0852 -0.0841
    1PPC    GL271977   4.113  12.519   2.570  0.0785 -0.4918 -0.0094
    1PPC    C1B71978   4.175  12.313   2.912  0.1079 -0.2288  0.0961
    1PPC    C2B71979   4.251  12.225   3.324 -0.0316 -0.2346 -0.2920
    1PPC    C3B71980   4.552  12.403   3.432 -0.0887 -0.0765 -0.0009
    1PPC    C4B71981   4.825  12.763   3.653 -0.0927  0.1416 -0.0401
    1PPC    NC371982   5.487   5.869   2.308  0.2801  0.2791 -0.1452
    1PPC    PO471983   5.713   6.180   2.047 -0.0228  0.1931 -0.2115
    1PPC    GL171984   5.409   6.361   2.370 -0.0268  0.0130 -0.0527
    1PPC    GL271985   5.347   6.500   2.504 -0.0148  0.0524 -0.3053
    1PPC    C1B71986   5.170   6.540   2.879 -0.0526 -0.0954 -0.3543
    1PPC    C2B71987   4.891   6.660   3.204 -0.3114  0.3837  0.0244
    1PPC    C3B71988   4.476   6.548   3.484 -0.0379  0.0651 -0.1366
    1PPC    C4B71989   4.052   6.452   3.450  0.0833  0.2041  0.1978
    1PPC    NC371990  24.103   5.142   2.578 -0.1223 -0.1146 -0.1601
    1PPC    PO471991  24.207   5.495   2.236  0.0986 -0.3977  0.0250
    1PPC    GL171992  24.076   5.694   2.611  0.2727 -0.1324  0.1461
    1PPC    GL271993  24.067   5.756   2.958 -0.2155 -0.4124  0.0437
    1PPC    C1B71994  23.964   5.891   3.343 -0.0057 -0.0053  0.0324
    1PPC    C2B71995  24.031   5.995   3.814  0.0740  0.1688  0.0586
    1PPC    C3B71996  24.133   6.148   4.166  0.1440  0.0438  0.0831
    1PPC    C4B71997  23.958   6.166   4.662 -0.1502  0.0307  0.2902
    1PPC    NC371998  24.388  21.156   3.255  0.3063 -0.2180  0.1662
    1PPC    PO471999  24.081  21.453   3.370  0.1936 -0.0213 -0.0459
    1PPC    GL172000  24.164  21.155   3.744  0.1133 -0.3501  0.1612
    1PPC    GL272001  24.027  20.913   3.909  0.0824  0.2003 -0.2402
    1PPC    C1B72002  23.953  20.791   4.253 -0.2203 -0.2810  0.3145
    1PPC    C2B72003  24.085  20.751   4.641  0.4892 -0.0052  0.2680
    1PPC    C3B72004  24.008  20.711   5.127  0.2762 -0.0556  0.3580
    1PPC    C4B72005  23.558  20.744   5.080  0.2586 -0.0852 -0.2052
    1PPC    NC372006  16.437  28.488   2.792 -0.0644 -0.2366  0.3606
    1PPC    PO472007  16.138  28.242   3.021 -0.0371 -0.2104  0.1670
    1PPC    GL172008  15.912  28.132   3.371 -0.0973  0.3385  0.3581
    1PPC    GL272009  15.918  28.272   3.651  0.1317 -0.0811 -0.1509
    1PPC    C1B72010  15.806  28.262   4.099 -0.0377 -0.0800 -0.1824
    1PPC    C2B72011  15.882  28.101   4.486 -0.3674  0.0344 -0.0192
    1PPC    C3B72012  15.620  27.714   4.746 -0.1330 -0.0218  0.0139
    1PPC    C4B72013  15.866  27.423   4.800 -0.1356  0.1527  0.1087
    1PPC    NC372014  11.638  12.324   2.101  0.2870  0.0408  0.1078
    1PPC    PO472015  11.975  12.694   2.243 -0.0683  0.0812 -0.1131
    1PPC    GL172016  11.951  12.944   2.620  0.0165 -0.0156  0.3255
    1PPC    GL272017  11.969  12.959   2.907  0.0361 -0.2528  0.4256
    1PPC    C1B72018  11.873  12.905   3.311  0.0260  0.0526 -0.1887
    1PPC    C2B72019  11.899  12.841   3.793 -0.0616  0.1924  0.1899
    1PPC    C3B72020  11.650  12.886   4.090  0.2404  0.1269 -0.0910
    1PPC    C4B72021  11.634  12.566   4.374  0.3577 -0.0675 -0.0914
    1PPC    NC372022  26.001  11.788   2.355 -0.4264  0.0583  0.0004
    1PPC    PO472023  25.524  11.882   2.106  0.2171  0.1135  0.0934
    1PPC    GL172024  25.565  11.869   2.596 -0.1056 -0.1877 -0.4045
    1PPC    GL272025  25.620  11.870   2.917 -0.1969 -0.1942 -0.0765
    1PPC    C1B72026  25.826  11.856   3.349 -0.2010  0.1033  0.0060
    1PPC    C2B72027  25.850  12.046   3.787 -0.1775  0.0554  0.1949
    1PPC    C3B72028  25.901  12.064   4.222  0.1886 -0.1470  0.0712
    1PPC    C4B72029  26.025  12.027   4.631  0.1091  0.1364 -0.4822
    1PPC    NC372030  26.517   9.081   1.809  0.0187 -0.0022  0.1056
    1PPC    PO472031  26.496   9.440   2.064  0.0360  0.1466 -0.3536
    1PPC    GL172032  26.446   9.444   2.464  0.2414  0.1206 -0.0039
    1PPC    GL272033  26.721   9.430   2.653 -0.0193 -0.1073  0.2308
    1PPC    C1B72034  26.900   9.279   3.078 -0.0048  0.0270  0.2882
    1PPC    C2B72035  27.015   9.284   3.505 -0.0172 -0.2612  0.0446
    1PPC    C3B72036  27.037   9.204   3.840 -0.1656  0.2088 -0.2413
    1PPC    C4B72037  27.165   9.219   4.326 -0.0229 -0.2631 -0.1290
    1PPC    NC372038   7.833  12.485   1.647  0.0401 -0.1509 -0.4485
    1PPC    PO472039   7.559  12.370   1.906  0.2859  0.1887  0.0467
    1PPC    GL172040   7.748  12.720   2.102  0.2017  0.1378  0.3106
    1PPC    GL272041   7.820  12.868   2.386  0.1401 -0.1553  0.0051
    1PPC    C1B72042   7.647  12.732   2.732 -0.1673 -0.1744 -0.0222
    1PPC    C2B72043   7.519  12.407   2.894  0.3592  0.4205 -0.0901
    1PPC    C3B72044   7.502  12.054   2.961  0.3859 -0.0240 -0.0018
    1PPC    C4B72045   7.345  11.884   3.390 -0.0023 -0.0365  0.2705
    1PPC    NC372046  21.678   9.530   2.109  0.1990  0.0501 -0.1289
    1PPC    PO472047  21.378   9.898   2.295  0.0266  0.0929 -0.2569
    1PPC    GL172048  21.575   9.667   2.592 -0.1716  0.1004 -0.1355
    1PPC    GL272049  21.665   9.513   2.833 -0.2999 -0.1410  0.1136
    1PPC    C1B72050  21.661   9.749   3.259 -0.3144 -0.2744  0.1698
    1PPC    C2B72051  21.701   9.731   3.746  0.1560  0.2322  0.3121
    1PPC    C3B72052  21.780   9.742   4.230 -0.2039  0.0153 -0.0943
    1PPC    C4B72053  21.720   9.776   4.720  0.1768  0.1347 -0.0550
    1PPC    NC372054  20.499   8.804   2.625 -0.0311 -0.0338  0.0863
    1PPC    PO472055  20.153   9.049   2.478 -0.1188 -0.0233  0.2211
    1PPC    GL172056  20.363   9.271   2.876  0.0079  0.0984 -0.0036
    1PPC    GL272057  20.632   9.405   3.014 -0.0466  0.0790  0.0626
    1PPC    C1B72058  20.735   9.245   3.385  0.0881 -0.2009  0.0958
    1PPC    C2B72059  20.736   9.211   3.826 -0.1870 -0.0905  0.0866
    1PPC    C3B72060  20.537   9.041   4.235 -0.1155  0.1520 -0.0385
    1PPC    C4B72061  20.480   8.915   4.618  0.2639 -0.1922 -0.0714
    1PPC    NC372062   2.911   9.980   1.344 -0.4616 -0.3616  0.2507
    1PPC    PO472063   2.805  10.309   1.676  0.1536  0.0352 -0.3274
    1PPC    GL172064   2.791  10.125   2.115  0.2215  0.0438  0.2649
    1PPC    GL272065   2.637   9.993   2.454  0.2310 -0.1608  0.0687
    1PPC    C1B72066   2.753   9.919   2.873 -0.1449 -0.1427 -0.1597
    1PPC    C2B72067   2.615   9.800   3.343 -0.0217 -0.0022  0.0587
    1PPC    C3B72068   2.589   9.560   3.720 -0.3425 -0.1065  0.1289
    1PPC    C4B72069   2.846   9.548   4.165 -0.0448  0.1094 -0.3535
    1PPC    NC372070   2.833   8.890   0.957  0.1671 -0.1583 -0.3203
    1PPC    PO472071   2.865   8.918   1.451  0.0729 -0.0071  0.2466
    1PPC    GL172072   3.045   8.704   1.656 -0.1861  0.2098 -0.1321
    1PPC    GL272073   2.919   8.580   1.943 -0.1332  0.0479  0.1265
    1PPC    C1B72074   2.836   8.755   2.286  0.2497  0.0518 -0.0750
    1PPC    C2B72075   2.788   8.679   2.694 -0.1135  0.0523  0.1075
    1PPC    C3B72076   2.734   8.532   3.163 -0.0358  0.1247 -0.1186
    1PPC    C4B72077   2.427   8.100   3.272  0.0822  0.2410  0.1914
    1PPC    NC372078  16.899  21.884   1.997 -0.2160 -0.1076  0.0566
    1PPC    PO472079  16.846  22.048   2.422 -0.0245  0.2888  0.2135
    1PPC    GL172080  16.829  21.927   2.866 -0.0310  0.0579 -0.2210
    1PPC    GL272081  16.933  21.953   3.165 -0.0122 -0.0249 -0.0726
    1PPC    C1B72082  16.651  22.021   3.565 -0.1491 -0.0768 -0.0682
    1PPC    C2B72083  16.312  22.210   3.834 -0.0370  0.1208  0.0532
    1PPC    C3B72084  16.052  21.955   4.166  0.0007 -0.2266  0.0060
    1PPC    C4B72085  15.895  21.549   4.049 -0.3194  0.0415  0.0529
    1PPC    NC372086  27.301  11.263   2.408  0.3774 -0.0449  0.0450
    1PPC    PO472087  27.296  10.713   2.478  0.0788  0.0440  0.1068
    1PPC    GL172088  27.589  10.539   2.847 -0.1605 -0.2003 -0.2202
    1PPC    GL272089  27.750  10.372   3.150 -0.0013 -0.2173  0.1578
    1PPC    C1B72090  27.855  10.271   3.579 -0.1336 -0.0207  0.1183
    1PPC    C2B72091  27.885  10.281   3.962  0.0483  0.1876  0.1266
    1PPC    C3B72092  27.919  10.199   4.295 -0.3037 -0.0841  0.0924
    1PPC    C4B72093  27.732  10.409   4.619  0.0180 -0.1260 -0.0931
    1PPC    NC372094  21.635  17.992   3.000 -0.0552  0.3550  0.0409
    1PPC    PO472095  21.289  18.172   3.145 -0.2718 -0.0492 -0.0119
    1PPC    GL172096  21.480  17.887   3.561 -0.2270 -0.2593  0.3179
    1PPC    GL272097  21.677  17.838   3.766 -0.3441 -0.2363 -0.0248
    1PPC    C1B72098  21.623  17.855   4.151 -0.0047 -0.0916  0.2683
    1PPC    C2B72099  21.773  17.889   4.528  0.2412 -0.1208 -0.0634
    1PPC    C3B72100  21.767  17.838   4.933  0.2148  0.0837 -0.2146
    1PPC    C4B72101  21.759  17.673   5.311 -0.0538  0.0106 -0.5567
    1PPC    NC372102  28.301  10.790   2.012 -0.0396 -0.2270 -0.0195
    1PPC    PO472103  28.154  10.763   2.399  0.2511  0.0368 -0.4061
    1PPC    GL172104  28.031  10.628   2.700 -0.1753  0.2325 -0.1235
    1PPC    GL272105  28.212  10.568   2.920  0.0523  0.1196 -0.2506
    1PPC    C1B72106  28.212  10.551   3.310 -0.0996  0.1711  0.1132
    1PPC    C2B72107  28.289  10.464   3.684 -0.0399 -0.4189  0.1214
    1PPC    C3B72108  28.263  10.534   4.144  0.1075  0.2209  0.4530
    1PPC    C4B72109  28.117  10.695   4.543 -0.0674  0.0583  0.0215
    1PPC    NC372110   5.264  11.995   1.565 -0.0533  0.0826  0.0633
    1PPC    PO472111   5.094  11.565   1.813 -0.0093  0.0480  0.1033
    1PPC    GL172112   5.014  11.417   2.142  0.0033  0.2636 -0.0187
    1PPC    GL272113   4.954  11.420   2.565 -0.1703  0.4143  0.1122
    1PPC    C1B72114   5.047  11.673   2.925  0.1301 -0.4085  0.2845
    1PPC    C2B72115   4.981  11.683   3.465  0.0262  0.1378  0.2106
    1PPC    C3B72116   4.655  11.587   3.891  0.5515  0.1346  0.0561
    1PPC    C4B72117   4.572  11.862   4.236 -0.0274 -0.0519 -0.4260
    1PPC    NC372118  27.033   9.747   2.445 -0.0068 -0.2493  0.0666
    1PPC    PO472119  26.694   9.915   2.645 -0.2538  0.0352 -0.0030
    1PPC    GL172120  26.287   9.791   2.804  0.0692 -0.1703  0.0465
    1PPC    GL272121  26.016   9.645   2.773 -0.0580  0.3200 -0.1418
    1PPC    C1B72122  25.828   9.566   3.146  0.2123 -0.1012  0.0689
    1PPC    C2B72123  25.895   9.462   3.613 -0.0581 -0.1499 -0.2102
    1PPC    C3B72124  26.003   9.235   4.019 -0.4202  0.1368  0.1948
    1PPC    C4B72125  26.320   9.181   4.387 -0.1205  0.2450  0.2313
    1PPC    NC372126  20.843  14.264   2.252  0.0394  0.1673  0.0739
    1PPC    PO472127  20.801  14.253   2.662 -0.0487 -0.0101  0.0663
    1PPC    GL172128  20.694  14.071   2.997 -0.1964  0.0520 -0.0606
    1PPC    GL272129  20.672  14.154   3.251 -0.0093  0.2008  0.2902
    1PPC    C1B72130  20.686  14.163   3.640 -0.0714  0.1194  0.6699
    1PPC    C2B72131  20.729  14.205   4.076  0.1064 -0.2886 -0.0472
    1PPC    C3B72132  20.725  14.196   4.483 -0.1645 -0.2392  0.1072
    1PPC    C4B72133  20.696  14.073   4.885  0.0421  0.0445 -0.2237
    1PPC    NC372134  23.293   3.806   2.366  0.0623 -0.1779  0.2050
    1PPC    PO472135  22.890   3.651   2.645 -0.1933  0.2722  0.4359
    1PPC    GL172136  23.057   3.721   3.010  0.0163  0.1552 -0.3964
    1PPC    GL272137  23.146   3.819   3.255 -0.0666  0.0291 -0.0366
    1PPC    C1B72138  23.329   4.016   3.549  0.0138 -0.3962  0.2457
    1PPC    C2B72139  23.170   4.211   3.809 -0.1864  0.0275  0.2585
    1PPC    C3B72140  23.058   4.378   4.150  0.2253 -0.0635  0.1324
    1PPC    C4B72141  22.998   4.539   4.500 -0.2784  0.0281 -0.0628
    1PPC    NC372142   4.695  21.630   2.737  0.1187  0.1553 -0.1791
    1PPC    PO472143   4.637  21.558   3.085 -0.2477  0.1374  0.2089
    1PPC    GL172144   4.682  21.368   3.422  0.0864  0.1809 -0.1603
    1PPC    GL272145   4.802  21.124   3.540 -0.3463 -0.1366 -0.0696
    1PPC    C1B72146   4.824  20.783   3.757 -0.1280  0.1367 -0.2300
    1PPC    C2B72147   4.650  20.396   3.985  0.0162 -0.1797 -0.2825
    1PPC    C3B72148   4.836  20.050   4.062  0.1393 -0.1373  0.0884
    1PPC    C4B72149   4.945  19.672   4.034  0.2612  0.0038 -0.1867
    1PPC    NC372150  25.486  15.359   2.000  0.1021  0.0589  0.1497
    1PPC    PO472151  25.439  15.661   2.377  0.0492  0.0502  0.0685
    1PPC    GL172152  25.433  15.595   2.833 -0.5030  0.0477 -0.1947
    1PPC    GL272153  25.306  15.429   3.096 -0.1582  0.1342  0.0345
    1PPC    C1B72154  25.091  15.275   3.539  0.2666 -0.1232  0.1273
    1PPC    C2B72155  24.971  15.175   3.928 -0.4383  0.0908 -0.1378
    1PPC    C3B72156  24.823  15.231   4.433  0.0620  0.0610 -0.0325
    1PPC    C4B72157  24.745  14.993   4.825 -0.0015 -0.1440 -0.0614
    1PPC    NC372158  11.175  14.451   1.642 -0.0083  0.0886 -0.0697
    1PPC    PO472159  11.047  14.687   1.986 -0.0614 -0.0482  0.0265
    1PPC    GL172160  11.058  14.796   2.340  0.0016  0.1020 -0.1710
    1PPC    GL272161  11.010  14.751   2.712  0.1978 -0.0447  0.0657
    1PPC    C1B72162  10.823  14.796   3.073  0.5074  0.0243 -0.1432
    1PPC    C2B72163  10.525  14.799   3.307 -0.1105  0.2547 -0.2934
    1PPC    C3B72164  10.367  14.672   3.732  0.3024 -0.1383  0.3389
    1PPC    C4B72165  10.092  14.672   4.053 -0.1274 -0.1780  0.1553
    1PPC    NC372166  21.857  10.062   2.680 -0.2852  0.0269 -0.0564
    1PPC    PO472167  22.017   9.833   2.390 -0.0341  0.2680  0.0396
    1PPC    GL172168  22.205   9.661   2.693 -0.0176 -0.2145  0.5248
    1PPC    GL272169  22.121   9.596   2.926  0.1750 -0.0422 -0.4769
    1PPC    C1B72170  22.124   9.386   3.366  0.0757 -0.1616 -0.1099
    1PPC    C2B72171  22.122   9.375   3.823 -0.2211  0.0051  0.0398
    1PPC    C3B72172  22.114   9.358   4.325  0.1534  0.0138  0.1970
    1PPC    C4B72173  22.242   9.215   4.721  0.0746  0.1167 -0.0657
    1PPC    NC372174  29.350  15.413   2.561  0.0027 -0.0615  0.2033
    1PPC    PO472175  29.333  14.915   2.412  0.0368 -0.0896 -0.1807
    1PPC    GL172176  29.299  14.972   2.860 -0.0077  0.1303  0.0235
    1PPC    GL272177  29.096  15.098   3.016 -0.0262 -0.2674 -0.2299
    1PPC    C1B72178  29.160  15.189   3.461 -0.0896  0.1225  0.2090
    1PPC    C2B72179  29.197  15.218   3.915  0.0142  0.0635  0.1309
    1PPC    C3B72180  29.160  15.116   4.312 -0.0096  0.2495  0.5555
    1PPC    C4B72181  29.283  15.219   4.699  0.1887 -0.1011  0.3165
    1PPC    NC372182   1.347  14.289   2.295  0.3244 -0.1303 -0.0739
    1PPC    PO472183   1.624  14.197   2.570 -0.0303 -0.3625 -0.4058
    1PPC    GL172184   1.786  14.377   2.919  0.2087 -0.1096  0.1210
    1PPC    GL272185   1.994  14.173   3.078 -0.0787  0.0429 -0.0525
    1PPC    C1B72186   2.165  13.721   3.007 -0.1925  0.1095 -0.3829
    1PPC    C2B72187   2.138  13.179   3.163  0.0721 -0.1673  0.1760
    1PPC    C3B72188   2.277  13.075   3.513 -0.0719  0.1959  0.4383
    1PPC    C4B72189   2.473  12.923   3.973 -0.3861  0.1618 -0.3124
    1PPC    NC372190  25.384   7.127   1.625  0.0026  0.3295  0.1897
    1PPC    PO472191  25.554   7.031   1.992  0.1684  0.0312  0.0699
    1PPC    GL172192  25.428   6.728   2.302 -0.0885  0.1763 -0.0130
    1PPC    GL272193  25.330   6.713   2.655  0.5101  0.1926 -0.0721
    1PPC    C1B72194  25.640   7.070   2.849 -0.1057 -0.0590 -0.0730
    1PPC    C2B72195  25.832   7.182   3.257  0.1751  0.3117  0.3947
    1PPC    C3B72196  25.901   7.062   3.609 -0.0741 -0.1265 -0.0276
    1PPC    C4B72197  26.142   6.978   3.906  0.1137 -0.0676  0.0406
    1PPC    NC372198  28.048  26.208   2.994 -0.0948 -0.0133 -0.1846
    1PPC    PO472199  27.897  25.858   3.118 -0.1477  0.0053 -0.1422
    1PPC    GL172200  28.112  25.653   3.485 -0.0529 -0.0183 -0.2364
    1PPC    GL272201  28.011  25.732   3.892 -0.4446  0.0285 -0.0788
    1PPC    C1B72202  27.689  25.689   4.238  0.0532  0.2966 -0.2394
    1PPC    C2B72203  27.426  25.349   4.368 -0.0175  0.3198  0.0815
    1PPC    C3B72204  27.496  25.111   4.737 -0.0115  0.3050 -0.0777
    1PPC    C4B72205  27.343  24.995   5.172  0.1991 -0.0822 -0.2173
    1PPC    NC372206  23.737  17.156   3.021  0.4063 -0.1453 -0.1529
    1PPC    PO472207  24.133  16.980   3.035  0.2297 -0.1015 -0.0451
    1PPC    GL172208  24.210  16.858   3.465 -0.1349  0.0538 -0.0042
    1PPC    GL272209  24.101  16.766   3.763  0.2807  0.0778  0.2407
    1PPC    C1B72210  24.291  16.790   4.137  0.0154 -0.2452 -0.3192
    1PPC    C2B72211  24.179  16.755   4.603 -0.0314 -0.0358 -0.0451
    1PPC    C3B72212  23.932  16.793   4.950  0.2150  0.0972 -0.2500
    1PPC    C4B72213  23.864  16.392   5.190  0.0787  0.1077  0.3348
    1PPC    NC372214  29.114   2.997   1.932 -0.1411 -0.1007 -0.3198
    1PPC    PO472215  28.789   2.732   1.861  0.0489  0.1975  0.0798
    1PPC    GL172216  28.650   2.898   2.253  0.0150  0.0769  0.0251
    1PPC    GL272217  28.469   2.849   2.562 -0.1791 -0.1930  0.3789
    1PPC    C1B72218  28.381   2.928   2.985  0.1965 -0.0913 -0.0176
    1PPC    C2B72219  28.392   2.983   3.439 -0.1431  0.0325 -0.0178
    1PPC    C3B72220  28.236   3.076   3.835 -0.2531  0.1717 -0.0366
    1PPC    C4B72221  28.188   2.867   4.187 -0.0396  0.0830 -0.2773
    1PPC    NC372222  23.593   8.168   1.930  0.1110 -0.2174  0.1290
    1PPC    PO472223  23.820   7.935   2.153 -0.2024  0.3285 -0.1167
    1PPC    GL172224  23.929   7.639   2.629 -0.3133  0.0566 -0.0877
    1PPC    GL272225  23.956   7.810   2.933  0.2741  0.3327 -0.0389
    1PPC    C1B72226  23.954   7.827   3.347  0.2155  0.0227  0.3306
    1PPC    C2B72227  23.925   7.690   3.760 -0.1723  0.1453 -0.0878
    1PPC    C3B72228  23.816   7.563   4.138 -0.0615  0.1073 -0.1030
    1PPC    C4B72229  23.948   7.819   4.550  0.1338 -0.2716 -0.2296
    1PPC    NC372230  18.143  15.091   2.206  0.0965  0.0369  0.1848
    1PPC    PO472231  18.178  14.749   2.533 -0.0872 -0.1006 -0.2066
    1PPC    GL172232  18.081  14.807   2.988 -0.0514  0.1881  0.2577
    1PPC    GL272233  18.133  14.836   3.315  0.0364 -0.1788  0.0265
    1PPC    C1B72234  18.080  14.759   3.708 -0.0334  0.1271  0.0867
    1PPC    C2B72235  18.035  14.865   4.094 -0.1719  0.0779 -0.4871
    1PPC    C3B72236  17.836  14.949   4.448 -0.2162  0.2797  0.3226
    1PPC    C4B72237  17.877  14.970   4.901  0.1020  0.2974  0.2799
    1PPC    NC372238  28.900   6.259   1.132 -0.2096 -0.2061  0.1111
    1PPC    PO472239  29.407   6.262   1.110 -0.0709  0.1364 -0.0595
    1PPC    GL172240  29.393   6.190   1.545  0.0110  0.1085 -0.2388
    1PPC    GL272241  29.231   6.157   1.830 -0.1975  0.0281  0.1713
    1PPC    C1B72242  29.312   6.331   2.270 -0.3673 -0.2698  0.0988
    1PPC    C2B72243  29.343   6.473   2.686  0.0101 -0.0232 -0.2739
    1PPC    C3B72244  29.259   6.539   3.112  0.1445  0.2671 -0.2233
    1PPC    C4B72245  29.317   6.649   3.594  0.2539 -0.1604  0.1189
    1PPC    NC372246  26.741  14.335   2.799 -0.1205 -0.2833 -0.1299
    1PPC    PO472247  27.197  14.142   2.803  0.3813 -0.1188  0.0093
    1PPC    GL172248  27.474  14.255   3.119  0.0018  0.2990  0.0671
    1PPC    GL272249  27.782  14.253   3.270  0.2315 -0.0630  0.0648
    1PPC    C1B72250  28.055  14.221   3.627 -0.0101  0.0281 -0.0477
    1PPC    C2B72251  27.945  14.212   4.040 -0.0567 -0.1495 -0.1699
    1PPC    C3B72252  28.022  14.068   4.471  0.0623  0.2057  0.1011
    1PPC    C4B72253  28.013  13.756   4.856  0.3310 -0.0837  0.1920
    1PPC    NC372254  22.709   0.808   3.064 -0.0797 -0.2524 -0.1111
    1PPC    PO472255  22.264   0.718   3.028 -0.2782 -0.1169  0.0853
    1PPC    GL172256  22.319   1.085   3.287  0.0500 -0.0357 -0.0286
    1PPC    GL272257  22.214   1.303   3.424 -0.0989  0.1082 -0.0991
    1PPC    C1B72258  21.998   1.482   3.841 -0.0842  0.2706 -0.1179
    1PPC    C2B72259  21.983   1.731   4.288 -0.0273 -0.0325  0.1448
    1PPC    C3B72260  21.999   1.623   4.722  0.1836 -0.0627 -0.2650
    1PPC    C4B72261  21.677   1.543   5.105 -0.0932  0.0690 -0.0574
    1PPC    NC372262  28.702  27.096   3.344 -0.1047 -0.1362  0.2879
    1PPC    PO472263  28.452  26.724   3.414  0.0838 -0.0771  0.0883
    1PPC    GL172264  28.460  26.771   3.761 -0.1866 -0.0047 -0.0622
    1PPC    GL272265  28.434  26.745   4.055 -0.0475  0.2033  0.1369
    1PPC    C1B72266  28.362  26.745   4.545 -0.1051 -0.0495  0.2186
    1PPC    C2B72267  28.544  27.006   4.978 -0.0833  0.1758  0.0048
    1PPC    C3B72268  28.446  26.929   5.371 -0.4774  0.2322 -0.4250
    1PPC    C4B72269  28.131  26.860   5.729  0.0421  0.0482 -0.1310
    1PPC    NC372270  14.128  29.253   2.628 -0.0441  0.4151 -0.2493
    1PPC    PO472271  13.623  29.351   2.568  0.0242 -0.0545  0.1661
    1PPC    GL172272  13.290  29.354   2.909  0.0458  0.4161  0.0448
    1PPC    GL272273  13.204  29.491   3.106 -0.0020  0.2355  0.1981
    1PPC    C1B72274  13.244  29.487   3.440  0.0199 -0.0138 -0.1495
    1PPC    C2B72275  13.343  29.530   3.880 -0.0133  0.1118 -0.0896
    1PPC    C3B72276  13.498   0.022   4.261 -0.0130  0.0553  0.0163
    1PPC    C4B72277  13.606   0.382   4.490 -0.1424  0.0335 -0.1142
    1PPC    NC372278  15.665  16.869   2.273  0.2326 -0.1897  0.3692
    1PPC    PO472279  15.214  17.004   2.051 -0.4609  0.0936 -0.1801
    1PPC    GL172280  15.088  17.099   2.459  0.3459  0.2688  0.0319
    1PPC    GL272281  14.877  16.969   2.696 -0.1721  0.0984  0.0370
    1PPC    C1B72282  14.772  16.926   3.153 -0.2756  0.0865 -0.3206
    1PPC    C2B72283  14.854  16.833   3.513  0.1601 -0.1106 -0.0589
    1PPC    C3B72284  14.877  16.834   3.982 -0.0931 -0.0960 -0.1925
    1PPC    C4B72285  14.709  16.698   4.364  0.2403  0.1407  0.0438
    1PPC    NC372286  18.936  16.889   3.217 -0.2157  0.1415 -0.2026
    1PPC    PO472287  19.396  16.794   3.240  0.0435  0.1340  0.0802
    1PPC    GL172288  19.173  16.533   3.457 -0.1003 -0.1449  0.2607
    1PPC    GL272289  19.049  16.650   3.733  0.1015 -0.0211  0.1770
    1PPC    C1B72290  18.829  16.794   4.096 -0.1237  0.2411  0.2062
    1PPC    C2B72291  18.744  16.866   4.490 -0.1967 -0.0438 -0.1496
    1PPC    C3B72292  18.718  17.089   4.985 -0.2608 -0.0019  0.1063
    1PPC    C4B72293  18.464  17.397   5.306 -0.3413  0.2823  0.1014
    1PPC    NC372294  24.354  10.696   2.872  0.1344  0.2619  0.1612
    1PPC    PO472295  23.938  10.860   2.722 -0.3640 -0.1928 -0.1506
    1PPC    GL172296  23.915  10.697   3.170  0.0546 -0.2425 -0.0325
    1PPC    GL272297  24.019  10.573   3.499  0.0570  0.0436 -0.0010
    1PPC    C1B72298  23.922  10.529   3.948 -0.2894 -0.1810  0.1918
    1PPC    C2B72299  23.884  10.573   4.364 -0.1210  0.3418  0.1402
    1PPC    C3B72300  23.615  10.791   4.647 -0.2538  0.1067  0.1007
    1PPC    C4B72301  23.686  10.907   5.082  0.0690  0.0700  0.2378
    1PPC    NC372302  28.085   4.673   2.073  0.2831  0.5886  0.1295
    1PPC    PO472303  28.276   4.956   1.927  0.2077 -0.1440  0.1278
    1PPC    GL172304  28.084   5.119   2.324  0.0150  0.2419  0.0201
    1PPC    GL272305  27.924   5.211   2.658  0.0152  0.2572  0.0070
    1PPC    C1B72306  27.950   5.129   3.104 -0.0588  0.1065 -0.4046
    1PPC    C2B72307  27.593   5.113   3.279  0.0039  0.0789  0.0827
    1PPC    C3B72308  27.565   5.021   3.714 -0.1710  0.3569 -0.3521
    1PPC    C4B72309  27.363   4.989   4.073  0.2199 -0.2309  0.1174
    1PPC    NC372310  29.336   7.015   1.525 -0.1230 -0.0929  0.3968
    1PPC    PO472311  28.932   7.146   1.466  0.1743 -0.1461 -0.2280
    1PPC    GL172312  29.013   7.255   1.862 -0.0776  0.0308  0.0633
    1PPC    GL272313  29.141   7.244   2.179  0.3930  0.0519  0.0823
    1PPC    C1B72314  29.147   7.129   2.549  0.1091  0.0197  0.1279
    1PPC    C2B72315  28.981   6.869   2.928 -0.1444  0.0979 -0.2215
    1PPC    C3B72316  28.954   6.920   3.375 -0.4486  0.3943 -0.3673
    1PPC    C4B72317  28.951   7.020   3.780  0.0359  0.0652 -0.3556
    1PPC    NC372318  27.885  12.147   2.586 -0.2126 -0.0211 -0.0611
    1PPC    PO472319  27.476  12.174   2.365 -0.0489  0.0485  0.0571
    1PPC    GL172320  27.386  12.145   2.752 -0.1080  0.0016  0.0774
    1PPC    GL272321  27.188  12.327   2.980 -0.1755 -0.0829  0.2563
    1PPC    C1B72322  27.404  12.321   3.297 -0.0085  0.1209  0.3878
    1PPC    C2B72323  27.384  12.286   3.719 -0.1706  0.0636  0.0751
    1PPC    C3B72324  27.394  12.221   4.161 -0.1490 -0.0425 -0.1319
    1PPC    C4B72325  27.426  12.123   4.629  0.1309 -0.0900 -0.0592
    1PPC    NC372326  19.506   7.398   1.712  0.0076 -0.2943  0.3012
    1PPC    PO472327  19.649   6.933   2.061 -0.3597 -0.1866 -0.1485
    1PPC    GL172328  19.759   6.723   2.455 -0.1894  0.1660  0.2076
    1PPC    GL272329  19.904   6.666   2.771  0.0608 -0.2000 -0.2109
    1PPC    C1B72330  19.874   6.926   3.116  0.2841  0.0634 -0.2632
    1PPC    C2B72331  19.734   6.966   3.510 -0.0423  0.0137 -0.0072
    1PPC    C3B72332  19.820   6.969   3.870  0.1431  0.0623 -0.1021
    1PPC    C4B72333  19.622   7.075   4.186 -0.1098  0.0773 -0.1083
    1PPC    NC372334  11.860  13.758   1.918 -0.3978  0.0703 -0.1866
    1PPC    PO472335  11.573  13.515   2.229  0.0412 -0.1517  0.0253
    1PPC    GL172336  11.672  13.348   2.651  0.1088 -0.2714  0.1074
    1PPC    GL272337  11.548  13.323   2.962 -0.0775 -0.3188 -0.0343
    1PPC    C1B72338  11.187  13.514   3.208  0.2044 -0.0100 -0.1424
    1PPC    C2B72339  11.126  13.628   3.599 -0.0794 -0.0258 -0.1708
    1PPC    C3B72340  11.040  13.685   4.015  0.0636  0.0496  0.3530
    1PPC    C4B72341  10.912  13.715   4.443  0.0059  0.1825 -0.0553
    1PPC    NC372342  10.061  14.920   1.751  0.1146  0.2533 -0.1585
    1PPC    PO472343  10.159  15.017   2.148 -0.1104 -0.0687  0.1625
    1PPC    GL172344  10.433  14.994   2.388  0.1860 -0.1872  0.2519
    1PPC    GL272345  10.532  15.103   2.650  0.1450  0.1076  0.1884
    1PPC    C1B72346  10.523  15.252   3.025  0.0965 -0.0402 -0.2204
    1PPC    C2B72347  10.553  15.538   3.174 -0.2726  0.0632 -0.0033
    1PPC    C3B72348  10.510  15.672   3.580  0.1732  0.3064  0.0520
    1PPC    C4B72349  10.234  15.646   3.880 -0.0596 -0.0983  0.2625
    1PPC    NC372350  20.846  15.769   3.193 -0.0982  0.0990  0.1241
    1PPC    PO472351  21.051  15.451   2.830 -0.2045 -0.1291 -0.1640
    1PPC    GL172352  21.222  15.433   3.261  0.2009 -0.3641 -0.0193
    1PPC    GL272353  21.355  15.657   3.479 -0.0056  0.0927  0.0606
    1PPC    C1B72354  21.315  15.679   3.892 -0.1464 -0.0217  0.1106
    1PPC    C2B72355  21.419  15.603   4.308  0.0946 -0.0516 -0.1057
    1PPC    C3B72356  21.485  15.597   4.643 -0.3358  0.0746 -0.0662
    1PPC    C4B72357  21.619  15.348   4.969  0.0616 -0.1190 -0.0732
    1PPC    NC372358  16.162  18.029   2.323  0.1510  0.0523 -0.0438
    1PPC    PO472359  16.516  17.868   2.610 -0.0435 -0.1318 -0.1910
    1PPC    GL172360  16.730  17.691   2.812  0.1377  0.1991 -0.2188
    1PPC    GL272361  16.797  17.414   3.071 -0.2638  0.2584  0.3577
    1PPC    C1B72362  16.497  17.301   3.426 -0.2170 -0.2464 -0.4298
    1PPC    C2B72363  16.497  17.153   3.847 -0.0421  0.0867 -0.2406
    1PPC    C3B72364  16.304  16.861   4.021 -0.0593 -0.0749  0.1715
    1PPC    C4B72365  16.264  16.714   4.460 -0.3576 -0.0647  0.2501
    1PPC    NC372366  25.330   9.121   1.458 -0.0100  0.0154 -0.0058
    1PPC    PO472367  25.661   8.793   1.561 -0.2114  0.1105  0.0533
    1PPC    GL172368  25.905   8.717   1.927  0.0673 -0.1736  0.1730
    1PPC    GL272369  25.930   8.565   2.194 -0.0396 -0.1188 -0.1964
    1PPC    C1B72370  26.092   8.573   2.662 -0.0427 -0.0691 -0.1197
    1PPC    C2B72371  26.242   8.706   3.024 -0.3503  0.1217 -0.1764
    1PPC    C3B72372  26.380   8.457   3.462 -0.0463 -0.2758 -0.0243
    1PPC    C4B72373  26.581   8.356   3.836  0.0847 -0.0888 -0.0736
    1PPC    NC372374  25.815  14.741   1.484  0.2105 -0.1449 -0.3264
    1PPC    PO472375  25.807  14.985   1.899 -0.1226  0.0776  0.1050
    1PPC    GL172376  25.802  15.161   2.396  0.0770  0.3201 -0.4024
    1PPC    GL272377  25.816  15.205   2.798  0.0809  0.0367 -0.0138
    1PPC    C1B72378  25.796  15.261   3.314 -0.0756  0.0163  0.1377
    1PPC    C2B72379  25.939  15.414   3.757 -0.0795  0.0988 -0.0677
    1PPC    C3B72380  25.885  15.310   4.103  0.0593 -0.0841 -0.3087
    1PPC    C4B72381  25.960  15.383   4.539 -0.1846  0.2131  0.4066
    1PPC    NC372382  16.947  19.805   2.210 -0.0604 -0.0862  0.1860
    1PPC    PO472383  17.080  20.049   2.599 -0.0081 -0.0206 -0.2113
    1PPC    GL172384  17.244  20.287   2.949 -0.1768  0.2000  0.0367
    1PPC    GL272385  17.054  20.348   3.375  0.1920 -0.1423 -0.0135
    1PPC    C1B72386  16.977  20.476   3.721  0.0449  0.0111 -0.4446
    1PPC    C2B72387  16.881  20.436   4.136 -0.0274 -0.0899  0.1784
    1PPC    C3B72388  16.613  20.176   4.154 -0.0051  0.0688 -0.0693
    1PPC    C4B72389  16.630  19.860   4.495  0.0156  0.0426  0.2340
    1PPC    NC372390  29.435  11.484   1.838 -0.0752 -0.1687 -0.1800
    1PPC    PO472391  29.292  11.121   2.152 -0.2161 -0.2291  0.4735
    1PPC    GL172392  28.988  11.222   2.431 -0.1964 -0.2207 -0.3398
    1PPC    GL272393  29.000  11.059   2.637  0.2569 -0.2668 -0.1644
    1PPC    C1B72394  29.343  10.928   2.970 -0.1209  0.0819 -0.0947
    1PPC    C2B72395  29.417  10.887   3.451  0.4651  0.0381  0.1665
    1PPC    C3B72396  29.405  10.854   3.884  0.0834  0.0204  0.1798
    1PPC    C4B72397  29.616  10.787   4.302  0.2896 -0.1730  0.1699
    1PPC    NC372398  23.834   7.366   2.097 -0.2249  0.4308 -0.1678
    1PPC    PO472399  23.678   6.969   2.286  0.0082 -0.3060 -0.0006
    1PPC    GL172400  23.825   7.170   2.572  0.0429  0.2430 -0.0460
    1PPC    GL272401  23.946   7.198   2.822  0.1733 -0.4204  0.1920
    1PPC    C1B72402  24.120   7.356   3.178  0.4072  0.0809  0.1446
    1PPC    C2B72403  24.122   7.334   3.515  0.1682 -0.0162  0.0676
    1PPC    C3B72404  24.180   7.350   3.939  0.0470  0.3485  0.0729
    1PPC    C4B72405  24.345   7.141   4.253  0.0023  0.0375 -0.1565
    1PPC    NC372406   1.192   7.677   1.418 -0.1284 -0.0674  0.2428
    1PPC    PO472407   0.912   7.868   1.709  0.0143  0.0094  0.2640
    1PPC    GL172408   0.668   7.738   1.979 -0.0761 -0.2018  0.2386
    1PPC    GL272409   0.670   7.719   2.234 -0.3554  0.2451  0.2088
    1PPC    C1B72410   0.840   7.682   2.691  0.1950  0.0969 -0.0432
    1PPC    C2B72411   1.100   7.583   3.112  0.2522 -0.2531  0.0153
    1PPC    C3B72412   1.515   7.295   3.214  0.1031 -0.2239  0.0639
    1PPC    C4B72413   1.826   6.987   3.427  0.0449 -0.4627  0.1110
    1PPC    NC372414  25.071   9.931   1.756 -0.1992 -0.0524  0.0863
    1PPC    PO472415  24.930  10.144   2.211  0.1053 -0.2593 -0.4244
    1PPC    GL172416  25.115  10.094   2.670 -0.1791 -0.0742  0.1536
    1PPC    GL272417  25.122   9.959   3.007  0.0827  0.0196 -0.0514
    1PPC    C1B72418  25.037   9.779   3.403 -0.0096 -0.1565  0.0747
    1PPC    C2B72419  25.069   9.663   3.828  0.2765  0.3127 -0.1013
    1PPC    C3B72420  25.084   9.575   4.290  0.1683 -0.2508  0.1043
    1PPC    C4B72421  25.122   9.413   4.677 -0.0583  0.0336  0.1349
    1PPC    NC372422  14.997   8.730   1.858 -0.2510 -0.2450  0.0840
    1PPC    PO472423  15.014   8.451   2.076 -0.1643 -0.0318  0.4527
    1PPC    GL172424  15.045   8.371   2.528  0.1539  0.1213  0.3437
    1PPC    GL272425  14.945   8.257   2.823 -0.0922 -0.1313 -0.0476
    1PPC    C1B72426  14.899   8.183   3.291 -0.0225 -0.0049  0.0192
    1PPC    C2B72427  14.695   8.082   3.803 -0.1018  0.1804  0.2005
    1PPC    C3B72428  14.717   8.130   4.244 -0.0179  0.1272 -0.0763
    1PPC    C4B72429  15.000   8.151   4.613  0.3093 -0.0135 -0.3010
    1PPC    NC372430   4.025  18.915   2.414  0.0900  0.2246  0.4705
    1PPC    PO472431   4.110  19.006   2.889  0.1267  0.0416  0.2716
    1PPC    GL172432   4.077  18.694   3.303  0.0198  0.1626  0.1629
    1PPC    GL272433   4.163  18.446   3.530 -0.4024 -0.1046  0.3496
    1PPC    C1B72434   3.950  18.105   3.760  0.1951  0.1451  0.0176
    1PPC    C2B72435   3.914  17.876   4.116  0.2968 -0.0350 -0.0293
    1PPC    C3B72436   3.795  17.781   4.508  0.0690 -0.1602  0.0465
    1PPC    C4B72437   3.802  17.586   4.994  0.0477  0.2832 -0.3245
    1PPC    NC372438  22.590  23.807   3.765 -0.1622 -0.1632  0.2806
    1PPC    PO472439  22.245  23.562   3.793 -0.0972 -0.2861  0.0914
    1PPC    GL172440  22.026  23.344   4.203  0.2118  0.0840  0.3045
    1PPC    GL272441  22.004  23.116   4.411 -0.1420  0.1317  0.0815
    1PPC    C1B72442  21.851  22.808   4.751 -0.0932 -0.1206 -0.1341
    1PPC    C2B72443  21.684  22.574   4.663  0.1152  0.0258  0.2141
    1PPC    C3B72444  21.362  22.277   4.798 -0.0653  0.4498  0.1412
    1PPC    C4B72445  21.042  22.465   5.156 -0.0212 -0.1660 -0.0468
    1PPC    NC372446   8.550   4.203   1.670 -0.2080  0.1229  0.1286
    1PPC    PO472447   8.671   4.280   2.054 -0.1569 -0.0862  0.0197
    1PPC    GL172448   8.929   3.987   2.243 -0.1570 -0.0646  0.0469
    1PPC    GL272449   8.956   3.867   2.566  0.0483  0.3591 -0.2475
    1PPC    C1B72450   8.661   3.952   2.953 -0.1589  0.0772  0.0026
    1PPC    C2B72451   8.493   3.855   3.303  0.0325  0.0941  0.1162
    1PPC    C3B72452   8.298   3.713   3.667 -0.0278  0.2139  0.2195
    1PPC    C4B72453   8.154   3.540   4.007 -0.0035  0.0419  0.1297
    1PPC    NC372454   5.668  20.020   2.598  0.4057 -0.1433 -0.0219
    1PPC    PO472455   5.465  19.784   2.590 -0.0863 -0.1208 -0.0661
    1PPC    GL172456   5.499  19.584   3.041  0.4731  0.1206 -0.0872
    1PPC    GL272457   5.538  19.486   3.346 -0.1761  0.0959  0.0884
    1PPC    C1B72458   5.312  19.523   3.708 -0.1843  0.1344 -0.0902
    1PPC    C2B72459   5.375  19.328   4.076 -0.0331  0.2053 -0.2201
    1PPC    C3B72460   5.338  19.071   4.386 -0.0005  0.0812 -0.0935
    1PPC    C4B72461   5.524  18.831   4.794 -0.1003 -0.0369 -0.1067
    1PPC    NC372462  28.303  16.901   3.158  0.0049 -0.0348 -0.3187
    1PPC    PO472463  28.730  16.675   3.053  0.0943 -0.2731  0.1596
    1PPC    GL172464  28.654  16.525   3.329 -0.2651 -0.0943 -0.1226
    1PPC    GL272465  28.612  16.595   3.573  0.3280 -0.1130  0.2069
    1PPC    C1B72466  28.449  16.554   4.010 -0.6247  0.0359 -0.2428
    1PPC    C2B72467  28.104  16.503   4.291  0.0034  0.0406 -0.0290
    1PPC    C3B72468  28.024  16.232   4.591 -0.0994  0.2335 -0.1419
    1PPC    C4B72469  27.678  15.841   4.708 -0.2863  0.2120 -0.0060
    1PPC    NC372470  23.841  11.812   2.817  0.0724  0.0276 -0.0421
    1PPC    PO472471  24.264  11.692   2.617 -0.1365  0.2422 -0.0673
    1PPC    GL172472  24.291  11.773   3.067 -0.0279 -0.0656  0.0153
    1PPC    GL272473  24.357  11.621   3.342 -0.1721 -0.2103 -0.0659
    1PPC    C1B72474  24.339  11.491   3.739 -0.0530  0.0143 -0.0346
    1PPC    C2B72475  24.372  11.559   4.121 -0.0745  0.0120  0.0495
    1PPC    C3B72476  24.578  11.686   4.415 -0.0754  0.0353  0.2035
    1PPC    C4B72477  25.015  11.603   4.757  0.2360 -0.2536  0.2524
    1PPC    NC372478  24.023   2.812   2.330 -0.2704 -0.3118  0.0993
    1PPC    PO472479  23.818   2.701   2.667 -0.1467 -0.2233  0.1455
    1PPC    GL172480  23.805   3.054   3.013  0.0126  0.1177  0.0270
    1PPC    GL272481  23.887   3.322   3.211  0.1009  0.3117  0.0030
    1PPC    C1B72482  23.924   3.578   3.572  0.2526  0.2879  0.3873
    1PPC    C2B72483  23.927   3.723   3.915  0.1647  0.0977 -0.0237
    1PPC    C3B72484  23.794   3.797   4.309  0.0370  0.0166 -0.3129
    1PPC    C4B72485  23.750   3.965   4.717  0.0538  0.0520 -0.3015
    1PPC    NC372486   2.551   3.618   2.959 -0.0597 -0.0545  0.3611
    1PPC    PO472487   2.531   3.109   2.973 -0.1412 -0.2914  0.2591
    1PPC    GL172488   2.177   3.322   3.150 -0.0443  0.1144 -0.2335
    1PPC    GL272489   2.004   3.467   3.387  0.1671 -0.1145 -0.1048
    1PPC    C1B72490   1.961   3.466   3.842 -0.0545 -0.1191  0.0820
    1PPC    C2B72491   1.980   3.646   4.226  0.0714 -0.0380 -0.1822
    1PPC    C3B72492   2.100   3.838   4.652 -0.2283 -0.0850  0.2242
    1PPC    C4B72493   1.887   3.838   5.001  0.0565 -0.0938  0.0137
    1PPC    NC372494  20.123   8.057   2.241 -0.0628 -0.3736 -0.0203
    1PPC    PO472495  20.501   8.348   2.466 -0.2969 -0.1791  0.0047
    1PPC    GL172496  20.686   8.294   2.824 -0.0856 -0.1187  0.3028
    1PPC    GL272497  20.664   8.248   3.154 -0.0607 -0.2771  0.2020
    1PPC    C1B72498  20.559   8.108   3.499 -0.1116  0.0021  0.1039
    1PPC    C2B72499  20.633   8.082   3.946 -0.1365  0.0499  0.0948
    1PPC    C3B72500  20.511   7.938   4.274  0.1985 -0.0655  0.0003
    1PPC    C4B72501  20.181   8.031   4.589  0.0105 -0.2491 -0.1639
    1PPC    NC372502  11.421  24.937   2.604  0.0252 -0.1995  0.0940
    1PPC    PO472503  11.101  25.192   2.424 -0.2064 -0.0398  0.0056
    1PPC    GL172504  11.206  25.499   2.768  0.1331 -0.0002 -0.2256
    1PPC    GL272505  11.422  25.677   2.808 -0.0588  0.0122 -0.4031
    1PPC    C1B72506  11.586  26.007   3.005  0.4080 -0.0188 -0.3559
    1PPC    C2B72507  11.629  26.202   3.389  0.3653 -0.1644  0.0183
    1PPC    C3B72508  11.386  26.283   3.734 -0.1791  0.0611 -0.4753
    1PPC    C4B72509  11.208  26.381   4.217  0.1232 -0.0208  0.1172
    1PPC    NC372510  25.543   3.160   2.024  0.1733 -0.6224  0.3703
    1PPC    PO472511  25.688   2.935   2.330  0.0722  0.1137 -0.1187
    1PPC    GL172512  25.861   3.079   2.722 -0.0373  0.1166 -0.0544
    1PPC    GL272513  25.951   2.974   2.932 -0.2407 -0.0245 -0.0733
    1PPC    C1B72514  25.806   3.229   3.414 -0.4300 -0.3220  0.0554
    1PPC    C2B72515  26.005   3.571   3.690 -0.0174  0.1682  0.1875
    1PPC    C3B72516  26.072   3.624   4.077  0.0023  0.1852  0.1721
    1PPC    C4B72517  26.096   3.784   4.516  0.2942  0.2992  0.1713
    1PPC    NC372518  18.991   3.795   2.101 -0.0700 -0.1218 -0.2751
    1PPC    PO472519  18.777   3.704   2.465 -0.1520 -0.1608 -0.0487
    1PPC    GL172520  18.830   3.817   2.828 -0.0934 -0.0531 -0.0206
    1PPC    GL272521  19.006   3.939   3.149  0.0030  0.1673 -0.2080
    1PPC    C1B72522  19.273   4.131   3.491  0.0127 -0.0243  0.0865
    1PPC    C2B72523  19.686   4.019   3.767 -0.2672 -0.0155  0.0819
    1PPC    C3B72524  19.842   4.115   4.190 -0.1090 -0.1718  0.2138
    1PPC    C4B72525  19.920   4.195   4.609  0.1883 -0.1122  0.0409
    1PPC    NC372526  21.058  10.716   1.726  0.0291 -0.0037 -0.4185
    1PPC    PO472527  20.971  10.843   2.104  0.0549  0.0187  0.3475
    1PPC    GL172528  20.842  10.579   2.404 -0.1476  0.2562  0.1095
    1PPC    GL272529  20.725  10.460   2.773 -0.1401  0.2002  0.2139
    1PPC    C1B72530  20.707  10.379   3.295  0.2667  0.3922  0.1286
    1PPC    C2B72531  20.855  10.388   3.776 -0.3492 -0.0220  0.1812
    1PPC    C3B72532  20.763  10.414   4.173  0.1805 -0.1716 -0.0707
    1PPC    C4B72533  20.775  10.540   4.550 -0.1233 -0.0580  0.1419
    1PPC    NC372534  21.148  20.807   2.955 -0.0877  0.2315  0.1238
    1PPC    PO472535  20.858  20.857   3.246 -0.0258  0.0732 -0.0681
    1PPC    GL172536  20.890  21.093   3.616  0.1247  0.2067 -0.2910
    1PPC    GL272537  21.032  21.177   3.839 -0.1401  0.2517 -0.4747
    1PPC    C1B72538  20.992  21.021   4.272 -0.1707 -0.0348  0.0873
    1PPC    C2B72539  21.185  20.819   4.696  0.1404  0.2105 -0.1109
    1PPC    C3B72540  21.528  20.661   4.892 -0.3226 -0.0205  0.2536
    1PPC    C4B72541  21.668  20.677   5.294 -0.4878  0.0255 -0.2331
    1PPC    NC372542  25.992  27.503   3.071  0.0173  0.0839 -0.1495
    1PPC    PO472543  25.977  27.727   3.390  0.2158 -0.1890 -0.2202
    1PPC    GL172544  26.156  27.466   3.662  0.0557  0.0137  0.3780
    1PPC    GL272545  26.007  27.376   3.924  0.4562  0.0100 -0.1303
    1PPC    C1B72546  25.545  27.440   4.150  0.0061 -0.1215 -0.3789
    1PPC    C2B72547  25.507  27.334   4.669 -0.1083 -0.2124 -0.0333
    1PPC    C3B72548  25.860  27.343   4.933  0.1411 -0.1009 -0.1460
    1PPC    C4B72549  26.252  27.010   4.947 -0.0918  0.1272  0.0425
    1PPC    NC372550  20.131  17.429   3.390 -0.1257 -0.2085  0.0702
    1PPC    PO472551  20.337  17.187   3.042 -0.1299 -0.2177  0.2116
    1PPC    GL172552  20.350  16.970   3.397 -0.0383  0.0140 -0.1894
    1PPC    GL272553  20.375  16.895   3.607 -0.4192  0.1013  0.1186
    1PPC    C1B72554  20.234  16.669   3.964 -0.0895 -0.1485 -0.1940
    1PPC    C2B72555  20.189  16.710   4.463 -0.1415  0.2326  0.1340
    1PPC    C3B72556  20.332  16.563   4.889 -0.2736 -0.1779 -0.2216
    1PPC    C4B72557  20.328  16.594   5.400  0.0872 -0.0932 -0.0928
    1PPC    NC372558  23.928  15.280   2.252 -0.0177  0.0105  0.2484
    1PPC    PO472559  23.555  15.002   2.502  0.1199 -0.3115 -0.1643
    1PPC    GL172560  23.322  14.838   2.727 -0.1772 -0.2072  0.0180
    1PPC    GL272561  23.269  14.743   3.119 -0.0521 -0.1171  0.2676
    1PPC    C1B72562  23.141  14.744   3.543 -0.0781  0.1054 -0.0441
    1PPC    C2B72563  23.109  14.899   3.897 -0.1231 -0.2281 -0.0025
    1PPC    C3B72564  23.186  14.834   4.362 -0.0751 -0.0781 -0.0696
    1PPC    C4B72565  23.501  14.631   4.613  0.1075  0.0323  0.1022
    1PPC    NC372566  20.360   5.591   1.951 -0.2518 -0.2328 -0.0638
    1PPC    PO472567  20.417   5.321   2.275  0.0217  0.0375 -0.1917
    1PPC    GL172568  20.527   5.166   2.559  0.1076  0.2576  0.1911
    1PPC    GL272569  20.519   5.147   2.904  0.3009 -0.0329  0.1791
    1PPC    C1B72570  20.525   5.076   3.346  0.2771  0.1510  0.1136
    1PPC    C2B72571  20.607   4.939   3.840 -0.0268 -0.0120 -0.0179
    1PPC    C3B72572  20.693   4.923   4.231  0.1357  0.2048  0.1044
    1PPC    C4B72573  20.518   4.875   4.520 -0.0954 -0.0733 -0.0957
    1PPC    NC372574  19.002  12.714   2.707 -0.1259  0.1097  0.0429
    1PPC    PO472575  19.039  13.173   2.778  0.2295  0.0371  0.0950
    1PPC    GL172576  18.901  13.403   3.085  0.0935 -0.2287 -0.2908
    1PPC    GL272577  18.653  13.493   3.248  0.1157  0.2067 -0.3207
    1PPC    C1B72578  18.859  13.433   3.676 -0.0711  0.0723  0.1136
    1PPC    C2B72579  18.911  13.414   4.125 -0.2059  0.0245  0.2666
    1PPC    C3B72580  19.007  13.329   4.480  0.2634  0.0678  0.0477
    1PPC    C4B72581  18.806  13.499   4.833  0.0679 -0.3014 -0.1644
    1PPC    NC372582   5.436   1.368   2.230 -0.2275 -0.3987 -0.2915
    1PPC    PO472583   5.326   1.102   2.502  0.0833  0.0493  0.1583
    1PPC    GL172584   5.310   1.019   3.024  0.0330 -0.0227 -0.0715
    1PPC    GL272585   5.187   1.009   3.340 -0.0376  0.1960  0.1798
    1PPC    C1B72586   5.088   0.928   3.845  0.2360  0.2162 -0.0151
    1PPC    C2B72587   5.092   0.533   4.117 -0.0064  0.1996 -0.1035
    1PPC    C3B72588   5.060   0.060   4.148 -0.2700  0.1824 -0.1222
    1PPC    C4B72589   5.092  29.271   4.043 -0.0961  0.1003 -0.2842
    1PPC    NC372590  28.587  29.282   2.492 -0.0745 -0.0259 -0.0770
    1PPC    PO472591  28.407  29.549   2.659 -0.0864  0.0795 -0.0174
    1PPC    GL172592  28.210  29.597   3.135  0.1406  0.0256  0.5392
    1PPC    GL272593  28.220   0.086   3.464 -0.0170 -0.0184  0.0412
    1PPC    C1B72594  28.155   0.305   3.825 -0.1767  0.2807  0.1079
    1PPC    C2B72595  28.030   0.405   4.235 -0.0780 -0.2523 -0.0056
    1PPC    C3B72596  28.117   0.655   4.670  0.1428  0.0482 -0.0047
    1PPC    C4B72597  28.420   0.834   4.932 -0.0274  0.2688 -0.1098
    1PPC    NC372598  25.151  19.690   3.141  0.0067 -0.0013  0.0132
    1PPC    PO472599  24.806  20.002   3.207  0.0281  0.0983  0.0478
    1PPC    GL172600  24.644  19.823   3.456 -0.0311  0.3723 -0.3301
    1PPC    GL272601  24.515  19.700   3.749 -0.0733 -0.1194 -0.0169
    1PPC    C1B72602  24.344  19.366   4.090 -0.1836 -0.2329  0.1338
    1PPC    C2B72603  24.568  19.210   4.539  0.0926  0.1240 -0.2059
    1PPC    C3B72604  24.796  19.419   4.925 -0.1147  0.1999 -0.0460
    1PPC    C4B72605  24.659  19.653   5.342 -0.1476 -0.0587 -0.0983
    1PPC    NC372606  18.146   5.833   2.030 -0.2475  0.0397  0.0218
    1PPC    PO472607  17.998   5.848   2.420 -0.6308  0.1735 -0.0057
    1PPC    GL172608  17.977   5.771   2.851 -0.2320 -0.1619  0.0131
    1PPC    GL272609  17.807   5.748   3.016 -0.0635 -0.0408 -0.0849
    1PPC    C1B72610  17.557   5.876   3.395  0.0524  0.0786 -0.0732
    1PPC    C2B72611  17.504   5.779   3.833 -0.0613 -0.1982 -0.1203
    1PPC    C3B72612  17.514   5.576   4.175  0.0793  0.1184  0.2958
    1PPC    C4B72613  17.429   5.213   4.470 -0.0307 -0.2128  0.3373
    1PPC    NC372614  14.273   1.817   1.760 -0.3702  0.0794 -0.2774
    1PPC    PO472615  14.092   1.968   2.118  0.0266 -0.0174 -0.0084
    1PPC    GL172616  14.292   2.236   2.438  0.2450  0.0859  0.0392
    1PPC    GL272617  14.302   2.441   2.737 -0.1008 -0.1081 -0.2487
    1PPC    C1B72618  14.450   2.669   3.078 -0.0986 -0.2244 -0.3099
    1PPC    C2B72619  14.798   2.901   3.315  0.3585  0.1230  0.0897
    1PPC    C3B72620  14.773   3.266   3.544 -0.1938  0.1874 -0.0342
    1PPC    C4B72621  14.611   3.646   3.577  0.1505 -0.0737 -0.3532
    1PPC    NC372622  19.297   3.502   2.703  0.0418 -0.1806 -0.1937
    1PPC    PO472623  19.613   3.345   2.389  0.1317 -0.1789 -0.0517
    1PPC    GL172624  19.766   3.583   2.789 -0.3747 -0.1950 -0.0253
    1PPC    GL272625  20.046   3.622   3.137 -0.0863  0.0291  0.2228
    1PPC    C1B72626  19.998   3.817   3.468 -0.0175 -0.0050  0.2609
    1PPC    C2B72627  20.215   4.119   3.847  0.5337  0.2656  0.0053
    1PPC    C3B72628  20.375   4.027   4.274 -0.2496  0.1053 -0.2155
    1PPC    C4B72629  20.343   3.953   4.691  0.0421 -0.5330 -0.3050
    1PPC    NC372630  21.769   1.729   2.361  0.1850 -0.0208 -0.0381
    1PPC    PO472631  21.762   1.699   2.757 -0.1823 -0.1906 -0.0384
    1PPC    GL172632  21.928   1.704   3.175  0.2897 -0.1646  0.2862
    1PPC    GL272633  21.791   1.841   3.510 -0.0527  0.0150  0.2063
    1PPC    C1B72634  21.770   2.041   3.939  0.0580 -0.0554  0.2055
    1PPC    C2B72635  21.537   2.024   4.397  0.2222 -0.1206  0.2396
    1PPC    C3B72636  21.653   2.131   4.843 -0.0188  0.1714 -0.0551
    1PPC    C4B72637  21.490   2.592   5.037 -0.2295  0.0282 -0.0492
  29.62559  29.62559   9.64883
