INSANE! Membrane UpperLeaflet>DPPC:DIPC:CHOL=20.0:65.0:15.0 LowerLeaflet>DPPC:DIPC:CHOL=20.0:65.0:15.0
71421
    1DPPC   NC3    1  22.300   7.734   6.275  0.0826  0.1288  0.2234
    1DPPC   PO4    2  22.714   7.759   6.419 -0.2800  0.4493  0.0370
    1DPPC   GL1    3  22.698   7.440   6.063  0.1894  0.1962  0.0502
    1DPPC   GL2    4  22.402   7.610   5.733  0.1891 -0.1790 -0.1396
    1DPPC   C1A    5  22.786   7.243   5.613 -0.0855 -0.0459 -0.0342
    1DPPC   C2A    6  22.900   7.059   5.172  0.0089  0.1575  0.0645
    1DPPC   C3A    7  23.011   6.633   5.121  0.2253 -0.0661  0.0787
    1DPPC   C4A    8  23.045   6.260   4.909 -0.1406  0.2481 -0.2266
    1DPPC   C1B    9  22.453   7.600   5.312  0.2614 -0.0244 -0.0386
    1DPPC   C2B   10  22.597   7.451   5.026 -0.2741 -0.1918  0.1229
    1DPPC   C3B   11  22.893   7.376   4.681  0.0511  0.0479 -0.2171
    1DPPC   C4B   12  23.253   7.194   4.831  0.0211 -0.0747 -0.2991
    1DPPC   NC3   13  21.493   2.938   7.190 -0.0312 -0.2988  0.2351
    1DPPC   PO4   14  21.706   3.254   7.029  0.5329 -0.0430 -0.1121
    1DPPC   GL1   15  21.839   3.264   6.594  0.1210  0.3216  0.0509
    1DPPC   GL2   16  22.142   3.318   6.688 -0.0506  0.0855  0.2279
    1DPPC   C1A   17  21.777   3.306   6.204  0.0797 -0.0574 -0.0873
    1DPPC   C2A   18  21.735   3.270   5.799 -0.0677 -0.0486 -0.0293
    1DPPC   C3A   19  21.756   3.203   5.369 -0.0949 -0.3320 -0.0215
    1DPPC   C4A   20  22.065   3.028   5.107 -0.2117  0.0105  0.0306
    1DPPC   C1B   21  22.295   3.414   6.333  0.3130 -0.0370  0.0744
    1DPPC   C2B   22  22.513   3.485   5.907 -0.1612  0.3550  0.1713
    1DPPC   C3B   23  22.810   3.391   5.542  0.4101 -0.0810 -0.0526
    1DPPC   C4B   24  22.882   3.330   5.007 -0.2524 -0.1136 -0.1204
    1DPPC   NC3   25  19.676   8.037   5.841 -0.0775 -0.1274 -0.2235
    1DPPC   PO4   26  20.006   8.264   5.715  0.0531  0.1148  0.2254
    1DPPC   GL1   27  20.027   8.156   5.316  0.1477 -0.0072 -0.2035
    1DPPC   GL2   28  20.002   8.065   5.193 -0.1429  0.1316 -0.0732
    1DPPC   C1A   29  20.416   8.273   4.912  0.2315 -0.3043 -0.2143
    1DPPC   C2A   30  20.567   7.959   4.670 -0.2120 -0.0546  0.0557
    1DPPC   C3A   31  20.656   7.941   4.145 -0.2146  0.0499 -0.0209
    1DPPC   C4A   32  20.695   7.566   4.076  0.1854  0.1023  0.0494
    1DPPC   C1B   33  19.752   8.116   4.899 -0.0948  0.0196  0.0869
    1DPPC   C2B   34  19.701   7.793   4.580 -0.0491 -0.3153  0.1503
    1DPPC   C3B   35  19.452   7.462   4.354 -0.1457  0.0358 -0.2210
    1DPPC   C4B   36  19.128   7.193   4.497 -0.1075  0.2283  0.4046
    1DPPC   NC3   37  21.146   6.298   6.389 -0.0123 -0.1033  0.1001
    1DPPC   PO4   38  20.663   6.108   6.359 -0.3902  0.1108  0.0406
    1DPPC   GL1   39  20.677   5.909   6.022 -0.1620 -0.2247  0.1653
    1DPPC   GL2   40  21.103   5.924   6.006  0.0458 -0.1923 -0.0519
    1DPPC   C1A   41  20.745   6.098   5.590 -0.1671 -0.0074 -0.0413
    1DPPC   C2A   42  20.891   6.087   5.137 -0.0019  0.0114 -0.1196
    1DPPC   C3A   43  21.179   6.249   4.859  0.0260 -0.1040  0.2690
    1DPPC   C4A   44  21.098   6.502   4.484 -0.2857 -0.1291  0.3151
    1DPPC   C1B   45  21.233   5.938   5.544 -0.2934 -0.1039  0.1459
    1DPPC   C2B   46  21.471   6.089   5.234 -0.0706 -0.0079  0.1704
    1DPPC   C3B   47  21.652   6.282   4.846  0.1947 -0.0251 -0.0883
    1DPPC   C4B   48  21.937   6.428   4.541  0.2605  0.2296  0.1740
    1DPPC   NC3   49  20.441  18.530   6.520 -0.0758  0.0872 -0.1721
    1DPPC   PO4   50  20.221  18.467   6.121 -0.1287  0.1852 -0.1008
    1DPPC   GL1   51  20.112  18.350   5.639  0.2021  0.2402  0.2241
    1DPPC   GL2   52  20.013  18.084   5.555 -0.4822  0.2336  0.0391
    1DPPC   C1A   53  20.267  18.410   5.260  0.1545  0.1335  0.2220
    1DPPC   C2A   54  20.130  18.338   4.772  0.3013  0.0851 -0.1193
    1DPPC   C3A   55  20.393  18.338   4.365  0.2256  0.1362  0.3672
    1DPPC   C4A   56  20.546  17.885   4.291  0.3842  0.0533 -0.0292
    1DPPC   C1B   57  19.999  17.991   5.103  0.0248  0.3187  0.0969
    1DPPC   C2B   58  19.882  17.876   4.691 -0.0932 -0.0312 -0.3542
    1DPPC   C3B   59  19.553  17.727   4.345 -0.0509  0.0693  0.2625
    1DPPC   C4B   60  19.265  17.652   3.962  0.2031 -0.2101  0.0210
    1DPPC   NC3   61  15.958  10.548   6.052 -0.0180 -0.1397  0.3207
    1DPPC   PO4   62  16.082  10.045   5.785 -0.0069 -0.1572 -0.2113
    1DPPC   GL1   63  16.001  10.013   5.350  0.1261  0.0304  0.1761
    1DPPC   GL2   64  15.676   9.890   5.252 -0.1247  0.2197  0.1171
    1DPPC   C1A   65  16.119   9.844   4.952  0.4249  0.0915 -0.0617
    1DPPC   C2A   66  16.106   9.825   4.539  0.2551  0.1033  0.0319
    1DPPC   C3A   67  16.122   9.716   4.085 -0.1053  0.1521  0.1345
    1DPPC   C4A   68  16.357   9.812   3.692 -0.1476 -0.0085 -0.4371
    1DPPC   C1B   69  15.566   9.962   4.884  0.0382 -0.4475  0.2421
    1DPPC   C2B   70  15.390  10.418   4.595 -0.3206  0.1293 -0.0254
    1DPPC   C3B   71  15.457  10.424   4.105  0.2191 -0.0628  0.0460
    1DPPC   C4B   72  15.389  10.128   3.806 -0.1482 -0.0449 -0.0501
    1DPPC   NC3   73  21.103   8.663   6.056  0.2027 -0.0924 -0.1095
    1DPPC   PO4   74  20.989   8.279   5.892  0.1865 -0.1936 -0.0899
    1DPPC   GL1   75  21.275   8.451   5.635 -0.0713  0.1274  0.2411
    1DPPC   GL2   76  21.514   8.199   5.563 -0.1555  0.1312  0.0366
    1DPPC   C1A   77  21.335   8.662   5.294  0.2079  0.2122  0.2938
    1DPPC   C2A   78  21.545   8.616   4.948 -0.0457  0.1050  0.2170
    1DPPC   C3A   79  21.425   8.811   4.563 -0.2165  0.0130  0.2468
    1DPPC   C4A   80  21.275   8.746   4.146 -0.4135 -0.0066  0.1949
    1DPPC   C1B   81  21.419   8.131   5.255  0.3294  0.0158  0.3720
    1DPPC   C2B   82  21.491   8.029   4.877  0.0944 -0.0128  0.0091
    1DPPC   C3B   83  21.624   7.664   4.651  0.0396 -0.0481 -0.1741
    1DPPC   C4B   84  21.695   7.519   4.212  0.1394  0.1029 -0.0894
    1DPPC   NC3   85  20.569  11.920   6.638  0.0832 -0.3194  0.2132
    1DPPC   PO4   86  20.545  12.215   6.367 -0.1459  0.0919 -0.2105
    1DPPC   GL1   87  20.642  12.326   5.965 -0.3493  0.0035 -0.0690
    1DPPC   GL2   88  20.455  12.532   5.864  0.0560 -0.0146 -0.1677
    1DPPC   C1A   89  20.758  12.311   5.493 -0.1335 -0.1770  0.1091
    1DPPC   C2A   90  20.905  12.208   5.113  0.1360  0.0118  0.2300
    1DPPC   C3A   91  20.880  12.001   4.675 -0.2286 -0.1477  0.4030
    1DPPC   C4A   92  20.930  11.596   4.546 -0.3148  0.0019  0.1237
    1DPPC   C1B   93  20.339  12.601   5.432  0.0194 -0.1039 -0.0876
    1DPPC   C2B   94  20.221  12.586   5.035 -0.0128  0.1231 -0.2587
    1DPPC   C3B   95  20.515  12.373   4.767 -0.3916  0.0932  0.2146
    1DPPC   C4B   96  20.628  12.313   4.324 -0.4183 -0.1124 -0.1950
    1DPPC   NC3   97   1.262  22.699   7.850 -0.1616  0.2705 -0.0445
    1DPPC   PO4   98   0.922  22.633   7.595 -0.1131 -0.4601  0.1045
    1DPPC   GL1   99   0.841  22.465   7.240 -0.0350  0.1245 -0.2076
    1DPPC   GL2  100   0.698  22.629   7.007  0.0827 -0.1659 -0.0444
    1DPPC   C1A  101   0.864  22.141   6.960 -0.0011  0.0641  0.1696
    1DPPC   C2A  102   0.664  22.047   6.627  0.2159  0.2565 -0.2987
    1DPPC   C3A  103   0.343  22.124   6.221 -0.2986 -0.0611 -0.0594
    1DPPC   C4A  104  -0.067  21.977   5.959 -0.5333  0.1971 -0.3038
    1DPPC   C1B  105   0.955  22.529   6.587  0.1875  0.0969  0.1553
    1DPPC   C2B  106   0.721  22.544   6.103 -0.0832 -0.0996 -0.2887
    1DPPC   C3B  107   0.306  22.585   5.971  0.1660 -0.0790 -0.0576
    1DPPC   C4B  108  -0.038  22.726   6.122 -0.0720  0.0239 -0.2176
    1DPPC   NC3  109  19.362  26.024   6.849  0.0277 -0.1727  0.2856
    1DPPC   PO4  110  19.513  25.648   6.791 -0.1898 -0.0802  0.4158
    1DPPC   GL1  111  19.565  25.757   6.319  0.0011  0.1760  0.1240
    1DPPC   GL2  112  19.927  25.597   6.297  0.1963 -0.3445 -0.1314
    1DPPC   C1A  113  19.756  26.167   6.294 -0.0903 -0.0183 -0.2092
    1DPPC   C2A  114  19.806  26.360   5.967 -0.2788 -0.2822  0.0347
    1DPPC   C3A  115  20.027  26.705   5.709 -0.2529 -0.1511  0.0890
    1DPPC   C4A  116  20.133  27.102   5.497  0.3994 -0.3482 -0.0184
    1DPPC   C1B  117  19.791  25.831   5.876  0.0035 -0.0327 -0.0393
    1DPPC   C2B  118  19.388  25.868   5.673 -0.2036 -0.6014  0.0171
    1DPPC   C3B  119  19.171  26.032   5.431 -0.2115 -0.0150 -0.1393
    1DPPC   C4B  120  18.736  26.058   5.653  0.1301  0.0632  0.1283
    1DPPC   NC3  121  16.153   3.956   6.491  0.1412 -0.0126 -0.2999
    1DPPC   PO4  122  16.021   3.621   6.154 -0.0149 -0.3742 -0.1285
    1DPPC   GL1  123  16.216   3.766   5.705 -0.0844 -0.1621  0.1569
    1DPPC   GL2  124  16.445   3.695   5.571 -0.0849 -0.2195  0.0375
    1DPPC   C1A  125  16.120   3.972   5.326 -0.2115  0.0328 -0.1857
    1DPPC   C2A  126  16.372   4.078   5.031  0.0965  0.0869  0.0621
    1DPPC   C3A  127  16.517   3.673   4.858  0.3815 -0.0081  0.3476
    1DPPC   C4A  128  16.308   3.216   4.789  0.3403 -0.1714 -0.0436
    1DPPC   C1B  129  16.829   3.704   5.278  0.2551  0.2317 -0.2528
    1DPPC   C2B  130  17.238   3.495   5.245  0.0819 -0.1831 -0.0054
    1DPPC   C3B  131  17.457   3.268   5.010 -0.0554 -0.0521 -0.3908
    1DPPC   C4B  132  17.606   2.912   4.906 -0.0720 -0.1033 -0.1622
    1DPPC   NC3  133  23.570  26.042   7.209  0.0013  0.1976  0.1313
    1DPPC   PO4  134  23.158  25.909   7.007  0.0433 -0.1120  0.0268
    1DPPC   GL1  135  23.133  26.007   6.564 -0.3108 -0.1465 -0.0751
    1DPPC   GL2  136  23.108  25.620   6.513 -0.0169  0.0009  0.1418
    1DPPC   C1A  137  23.085  25.867   6.076  0.0627  0.2638 -0.1810
    1DPPC   C2A  138  23.103  25.765   5.680  0.0510 -0.1645 -0.1670
    1DPPC   C3A  139  23.022  25.488   5.398 -0.3298 -0.3409 -0.0636
    1DPPC   C4A  140  22.714  25.422   5.055  0.0970 -0.0654 -0.1590
    1DPPC   C1B  141  22.792  25.437   6.238  0.1612 -0.0454 -0.2987
    1DPPC   C2B  142  22.894  25.324   5.948 -0.1750  0.1427 -0.0396
    1DPPC   C3B  143  23.237  25.175   5.693 -0.0416  0.2089 -0.1727
    1DPPC   C4B  144  23.373  24.986   5.315  0.2730  0.2012 -0.0195
    1DPPC   NC3  145  18.857   6.936   5.908 -0.0131 -0.1398  0.0571
    1DPPC   PO4  146  19.216   7.116   6.062  0.0961 -0.1964  0.2891
    1DPPC   GL1  147  19.385   7.176   5.653 -0.1225  0.1689  0.0734
    1DPPC   GL2  148  19.711   7.186   5.629 -0.1180  0.0095 -0.1585
    1DPPC   C1A  149  19.456   6.930   5.200  0.0770  0.0015 -0.2887
    1DPPC   C2A  150  19.161   6.784   4.850 -0.0505 -0.2401 -0.0732
    1DPPC   C3A  151  19.110   6.689   4.412  0.2083 -0.1073 -0.0675
    1DPPC   C4A  152  19.396   6.916   3.969  0.2937  0.1846  0.0351
    1DPPC   C1B  153  19.859   7.198   5.244  0.0048 -0.1879 -0.2483
    1DPPC   C2B  154  20.040   7.214   4.785  0.1287 -0.0308  0.0531
    1DPPC   C3B  155  19.961   7.356   4.391  0.0449  0.1226 -0.2452
    1DPPC   C4B  156  20.226   7.604   4.077  0.3728  0.0410  0.0260
    1DPPC   NC3  157  13.630  11.052   5.775 -0.0225  0.0382 -0.1563
    1DPPC   PO4  158  13.328  11.315   5.730 -0.0268  0.0859  0.0223
    1DPPC   GL1  159  13.407  11.379   5.304 -0.1947  0.0047 -0.1012
    1DPPC   GL2  160  13.433  11.101   5.300 -0.3878 -0.0012  0.0874
    1DPPC   C1A  161  13.469  11.477   4.799  0.2628 -0.2768 -0.2621
    1DPPC   C2A  162  13.546  11.389   4.332  0.1475 -0.1629 -0.5589
    1DPPC   C3A  163  13.977  11.292   4.142 -0.3744  0.4878 -0.0140
    1DPPC   C4A  164  14.408  11.100   4.227 -0.1901  0.1315 -0.1973
    1DPPC   C1B  165  13.445  10.981   4.856 -0.4360  0.1176 -0.0085
    1DPPC   C2B  166  13.184  10.956   4.559  0.2001  0.0200  0.1184
    1DPPC   C3B  167  12.927  11.231   4.260 -0.0524  0.1082  0.1013
    1DPPC   C4B  168  12.553  11.519   4.200 -0.1520  0.0062  0.0368
    1DPPC   NC3  169  27.926  23.537   7.746 -0.1483 -0.0703 -0.1423
    1DPPC   PO4  170  28.002  24.001   7.801 -0.2819  0.2042  0.0047
    1DPPC   GL1  171  28.033  24.005   7.437 -0.0748 -0.2241 -0.0691
    1DPPC   GL2  172  28.293  24.063   7.388 -0.0508  0.1134 -0.2345
    1DPPC   C1A  173  27.814  24.135   7.021 -0.0978  0.4614  0.2535
    1DPPC   C2A  174  27.478  23.883   6.692  0.1707  0.2233 -0.0998
    1DPPC   C3A  175  27.280  23.974   6.245 -0.0197  0.0188  0.3817
    1DPPC   C4A  176  27.239  24.359   5.988  0.1476  0.0919  0.0886
    1DPPC   C1B  177  28.252  24.370   7.059 -0.2563 -0.3043 -0.1713
    1DPPC   C2B  178  28.271  24.471   6.654 -0.1889 -0.2167 -0.1392
    1DPPC   C3B  179  28.062  24.665   6.263 -0.1137 -0.0219  0.2776
    1DPPC   C4B  180  27.760  24.985   6.095 -0.0599 -0.0038 -0.0164
    1DPPC   NC3  181   6.711  11.818   6.416  0.3696  0.0345  0.0939
    1DPPC   PO4  182   6.515  11.367   6.391  0.1104 -0.0610 -0.1663
    1DPPC   GL1  183   6.406  11.525   6.021  0.0012  0.0637 -0.0045
    1DPPC   GL2  184   6.315  11.895   6.101  0.1143  0.1250 -0.5684
    1DPPC   C1A  185   6.178  11.543   5.610 -0.0506 -0.1748 -0.0352
    1DPPC   C2A  186   5.855  11.720   5.234  0.0641  0.2445  0.0994
    1DPPC   C3A  187   5.645  11.588   4.954  0.1657  0.0526 -0.2340
    1DPPC   C4A  188   5.596  11.121   4.738  0.0626 -0.0776  0.0375
    1DPPC   C1B  189   6.136  12.126   5.665 -0.5532 -0.1274 -0.0280
    1DPPC   C2B  190   5.969  12.182   5.304  0.3491 -0.1048 -0.0769
    1DPPC   C3B  191   5.725  12.214   4.977  0.2231 -0.0967  0.1179
    1DPPC   C4B  192   5.410  12.014   4.772  0.1186 -0.0857 -0.0025
    1DPPC   NC3  193  22.696   6.644   6.940 -0.2037 -0.1635  0.0245
    1DPPC   PO4  194  23.007   6.749   6.655  0.0980 -0.1978 -0.1424
    1DPPC   GL1  195  23.322   6.709   6.299  0.1985 -0.0122  0.0930
    1DPPC   GL2  196  23.428   6.414   6.187 -0.0841  0.1744 -0.1043
    1DPPC   C1A  197  23.441   6.850   5.914  0.0505  0.2516  0.1926
    1DPPC   C2A  198  23.317   6.860   5.457 -0.3529 -0.0794  0.3073
    1DPPC   C3A  199  23.521   6.659   5.084  0.1416  0.3154  0.1903
    1DPPC   C4A  200  23.776   6.436   4.773  0.1145  0.1063 -0.1596
    1DPPC   C1B  201  23.678   6.499   5.751 -0.0954  0.0568 -0.1807
    1DPPC   C2B  202  23.910   6.725   5.400  0.0257 -0.1370 -0.0588
    1DPPC   C3B  203  24.034   6.792   4.999  0.3095  0.5068  0.2903
    1DPPC   C4B  204  24.120   6.837   4.572  0.0492 -0.4079  0.2056
    1DPPC   NC3  205  13.159   6.691   5.415 -0.1091  0.1649 -0.0087
    1DPPC   PO4  206  12.834   6.414   5.592 -0.1686  0.3694 -0.1141
    1DPPC   GL1  207  12.896   6.307   5.156  0.1031 -0.0444 -0.1851
    1DPPC   GL2  208  12.818   6.651   5.072 -0.2235 -0.1607 -0.2187
    1DPPC   C1A  209  13.055   6.145   4.759  0.3033 -0.0223 -0.1113
    1DPPC   C2A  210  13.003   5.944   4.375 -0.2906 -0.0952 -0.2193
    1DPPC   C3A  211  12.868   5.748   3.996  0.2809  0.2840  0.3029
    1DPPC   C4A  212  12.542   5.594   3.680  0.0528  0.0879  0.1818
    1DPPC   C1B  213  12.842   6.593   4.631 -0.1872 -0.0122 -0.0635
    1DPPC   C2B  214  12.552   6.685   4.241  0.0760 -0.3766 -0.3195
    1DPPC   C3B  215  12.496   7.167   4.078 -0.1345  0.2008 -0.3145
    1DPPC   C4B  216  12.150   7.306   3.924 -0.0124 -0.1572 -0.0200
    1DPPC   NC3  217  13.814  14.849   6.513 -0.1341 -0.0789  0.2604
    1DPPC   PO4  218  14.102  14.859   6.209  0.0292  0.0072 -0.0114
    1DPPC   GL1  219  14.457  14.817   5.857 -0.3308 -0.2471 -0.3312
    1DPPC   GL2  220  14.511  15.124   5.746 -0.0999  0.1638  0.0460
    1DPPC   C1A  221  14.540  14.741   5.323  0.0013  0.1997 -0.1162
    1DPPC   C2A  222  14.518  14.589   4.900  0.0769  0.0122  0.0510
    1DPPC   C3A  223  14.347  14.618   4.441 -0.0535  0.2481  0.2675
    1DPPC   C4A  224  14.521  14.504   4.049 -0.0869  0.0390  0.0622
    1DPPC   C1B  225  14.056  15.162   5.623 -0.2817  0.1876  0.1906
    1DPPC   C2B  226  13.990  15.367   5.069  0.1356 -0.1264  0.1754
    1DPPC   C3B  227  14.146  15.273   4.706  0.0089 -0.0710 -0.1258
    1DPPC   C4B  228  13.950  14.919   4.432 -0.3315 -0.1686 -0.1926
    1DPPC   NC3  229  17.343   8.215   5.734  0.2383  0.0359  0.0010
    1DPPC   PO4  230  17.212   8.640   5.906  0.3022 -0.0725  0.2524
    1DPPC   GL1  231  17.138   8.878   5.460 -0.0175  0.2519  0.2874
    1DPPC   GL2  232  17.279   9.198   5.463  0.1872 -0.1108  0.0253
    1DPPC   C1A  233  17.337   8.995   5.011  0.4714  0.1232  0.2553
    1DPPC   C2A  234  17.486   8.945   4.565 -0.0422 -0.2692  0.2724
    1DPPC   C3A  235  17.569   9.036   4.246  0.0451 -0.0022  0.1221
    1DPPC   C4A  236  17.753   9.259   3.997  0.1865 -0.1217 -0.2547
    1DPPC   C1B  237  17.069   9.392   5.125  0.0534  0.2124  0.1823
    1DPPC   C2B  238  17.153   9.396   4.657 -0.0098 -0.1582 -0.3894
    1DPPC   C3B  239  17.294   9.476   4.273 -0.1101  0.0985 -0.1491
    1DPPC   C4B  240  17.278   9.636   3.814 -0.2774 -0.1444  0.0054
    1DPPC   NC3  241   2.715  16.471   7.264  0.1829  0.3679 -0.1066
    1DPPC   PO4  242   2.907  16.462   6.811  0.0360  0.2449 -0.1948
    1DPPC   GL1  243   2.865  16.774   6.535  0.1322  0.1248  0.0742
    1DPPC   GL2  244   3.146  16.959   6.455 -0.1096  0.0323 -0.0339
    1DPPC   C1A  245   2.756  16.719   6.122  0.0195 -0.1001 -0.2896
    1DPPC   C2A  246   2.436  16.770   5.813 -0.1430 -0.3027 -0.0095
    1DPPC   C3A  247   2.231  16.551   5.473  0.0167 -0.0688 -0.0413
    1DPPC   C4A  248   1.978  16.222   5.613 -0.1559 -0.2203  0.2309
    1DPPC   C1B  249   3.237  16.933   6.025 -0.0087 -0.0733 -0.0735
    1DPPC   C2B  250   3.473  17.200   5.708 -0.1712  0.2458 -0.0548
    1DPPC   C3B  251   3.667  17.402   5.324  0.0253 -0.2063 -0.1706
    1DPPC   C4B  252   4.013  17.603   5.141  0.0429  0.0442  0.2575
    1DPPC   NC3  253  18.917   5.495   6.289 -0.2778 -0.1126 -0.0727
    1DPPC   PO4  254  18.722   5.057   6.130 -0.1472  0.0003  0.3675
    1DPPC   GL1  255  18.756   4.801   5.730 -0.1925 -0.1310 -0.0224
    1DPPC   GL2  256  19.109   4.665   5.682  0.0091 -0.3649 -0.0721
    1DPPC   C1A  257  18.624   4.799   5.266  0.1567  0.3259  0.0926
    1DPPC   C2A  258  18.689   4.765   4.811  0.0366  0.0813 -0.2095
    1DPPC   C3A  259  18.714   4.663   4.304 -0.1697 -0.4275 -0.2216
    1DPPC   C4A  260  18.714   4.312   4.015 -0.3850  0.1051  0.3620
    1DPPC   C1B  261  19.250   4.881   5.342  0.0987  0.0888  0.2395
    1DPPC   C2B  262  19.436   4.790   4.855 -0.0059 -0.1105 -0.1053
    1DPPC   C3B  263  19.582   4.906   4.442  0.1117  0.0942 -0.0250
    1DPPC   C4B  264  19.443   5.008   3.986 -0.0303 -0.0091 -0.0567
    1DPPC   NC3  265  22.888   3.289   7.121  0.0850  0.4944 -0.0749
    1DPPC   PO4  266  22.514   3.544   7.030  0.1129  0.0785 -0.3280
    1DPPC   GL1  267  22.507   3.801   6.678 -0.2735 -0.0487 -0.2366
    1DPPC   GL2  268  22.295   4.021   6.492  0.0580 -0.1953 -0.1634
    1DPPC   C1A  269  22.827   3.769   6.397 -0.0068  0.0917 -0.2776
    1DPPC   C2A  270  22.928   3.691   6.005  0.1124 -0.2109 -0.1202
    1DPPC   C3A  271  22.954   3.922   5.486 -0.1799  0.0444  0.2108
    1DPPC   C4A  272  22.926   3.785   5.112 -0.1685 -0.3361 -0.0655
    1DPPC   C1B  273  22.473   4.007   6.112 -0.0398  0.0761  0.2238
    1DPPC   C2B  274  22.528   3.970   5.716 -0.2711  0.1164 -0.0397
    1DPPC   C3B  275  22.467   3.767   5.315 -0.0398 -0.0952 -0.0011
    1DPPC   C4B  276  22.318   3.482   5.062 -0.1339  0.0225 -0.2684
    1DPPC   NC3  277  24.767  16.441   7.367  0.0649  0.0971 -0.1004
    1DPPC   PO4  278  25.079  16.553   7.152  0.0934 -0.1159  0.1252
    1DPPC   GL1  279  25.353  16.633   6.768  0.4254 -0.1478  0.2486
    1DPPC   GL2  280  25.540  16.846   6.860  0.0570 -0.2314  0.2409
    1DPPC   C1A  281  25.481  16.317   6.547  0.2616 -0.0023 -0.0990
    1DPPC   C2A  282  25.585  16.003   6.282 -0.0888  0.4761 -0.0794
    1DPPC   C3A  283  25.869  15.853   5.893  0.1011 -0.0167 -0.1241
    1DPPC   C4A  284  25.881  15.631   5.551 -0.0788  0.0342 -0.0703
    1DPPC   C1B  285  25.812  16.809   6.501 -0.0306 -0.2443  0.0412
    1DPPC   C2B  286  25.570  16.560   6.163 -0.3060  0.0174  0.0175
    1DPPC   C3B  287  25.588  16.718   5.882  0.0221  0.1211  0.1860
    1DPPC   C4B  288  25.550  16.755   5.416 -0.0436  0.0768 -0.2421
    1DPPC   NC3  289  20.875   5.336   6.982  0.3093 -0.0925 -0.4112
    1DPPC   PO4  290  20.684   5.317   6.555  0.2210 -0.2300  0.3277
    1DPPC   GL1  291  20.747   4.990   6.223  0.0618 -0.1383  0.2914
    1DPPC   GL2  292  20.447   4.892   6.183  0.0261  0.2059  0.2721
    1DPPC   C1A  293  20.774   5.032   5.787  0.2966 -0.1594 -0.1387
    1DPPC   C2A  294  20.880   5.119   5.387 -0.1155 -0.4684  0.0493
    1DPPC   C3A  295  21.040   5.228   5.012 -0.1679  0.3797 -0.0493
    1DPPC   C4A  296  21.288   4.993   4.694 -0.2373 -0.0017 -0.1739
    1DPPC   C1B  297  20.215   5.043   5.798 -0.0040  0.2944  0.0752
    1DPPC   C2B  298  20.279   5.239   5.404  0.0466  0.3005 -0.0944
    1DPPC   C3B  299  20.517   5.092   5.037 -0.0054  0.3769  0.3457
    1DPPC   C4B  300  20.467   4.755   4.767 -0.0372  0.0279  0.0153
    1DPPC   NC3  301  18.304   5.012   5.890  0.3120 -0.1653  0.3423
    1DPPC   PO4  302  17.893   4.910   5.877  0.1659 -0.2157 -0.2968
    1DPPC   GL1  303  18.091   4.875   5.495  0.0234 -0.2342  0.1025
    1DPPC   GL2  304  18.328   5.135   5.383  0.0836 -0.1329  0.2884
    1DPPC   C1A  305  17.838   4.831   5.154 -0.1797  0.0284 -0.1211
    1DPPC   C2A  306  17.557   4.928   4.975  0.0767  0.0811 -0.1056
    1DPPC   C3A  307  17.489   5.019   4.563  0.0910 -0.0375 -0.1645
    1DPPC   C4A  308  17.508   5.097   4.108 -0.3677 -0.1691  0.1259
    1DPPC   C1B  309  18.259   5.030   4.943 -0.0221  0.1039  0.2699
    1DPPC   C2B  310  17.977   4.780   4.640  0.2112 -0.2375 -0.0147
    1DPPC   C3B  311  17.843   4.771   4.222  0.0218  0.1635 -0.0336
    1DPPC   C4B  312  17.891   4.754   3.816  0.2591  0.0095 -0.3464
    1DPPC   NC3  313  13.212  26.380   6.878  0.1476  0.1257 -0.1967
    1DPPC   PO4  314  13.228  26.796   6.695 -0.1668 -0.1416 -0.1591
    1DPPC   GL1  315  12.977  26.994   6.350 -0.0295  0.3449 -0.0318
    1DPPC   GL2  316  12.655  27.052   6.368 -0.0822 -0.0178 -0.0177
    1DPPC   C1A  317  12.983  27.249   5.997  0.3509  0.0992  0.1279
    1DPPC   C2A  318  12.930  27.150   5.618  0.5137  0.0313  0.0849
    1DPPC   C3A  319  12.775  26.961   5.166  0.0038  0.2158  0.0588
    1DPPC   C4A  320  12.378  26.899   4.850  0.1664 -0.0559  0.0142
    1DPPC   C1B  321  12.548  26.934   5.986  0.1843  0.0762  0.1016
    1DPPC   C2B  322  12.452  26.972   5.590 -0.1039 -0.2258 -0.1433
    1DPPC   C3B  323  12.280  26.682   5.302 -0.2237 -0.0002  0.0120
    1DPPC   C4B  324  11.946  26.680   4.985 -0.0171 -0.2278 -0.0852
    1DPPC   NC3  325  21.993   8.816   6.305  0.0608  0.0790  0.0009
    1DPPC   PO4  326  21.908   9.031   5.867 -0.2660  0.0954  0.2608
    1DPPC   GL1  327  22.114   9.074   5.461  0.0325 -0.2115 -0.3666
    1DPPC   GL2  328  22.305   9.228   5.393  0.0191 -0.0015  0.0045
    1DPPC   C1A  329  22.003   8.980   5.082  0.0619  0.0228 -0.0864
    1DPPC   C2A  330  21.954   8.824   4.625  0.2281 -0.2567  0.1566
    1DPPC   C3A  331  21.860   8.634   4.215  0.2465 -0.0040  0.1752
    1DPPC   C4A  332  21.609   8.394   3.907  0.1304  0.1602 -0.3133
    1DPPC   C1B  333  22.469   9.257   5.067  0.1178  0.0673 -0.1140
    1DPPC   C2B  334  22.866   9.187   4.798  0.0731 -0.0709 -0.3193
    1DPPC   C3B  335  22.934   8.838   4.561 -0.1387  0.2422 -0.0950
    1DPPC   C4B  336  22.892   8.520   4.218 -0.0130 -0.1066  0.1636
    1DPPC   NC3  337   7.255  16.015   6.377 -0.2483  0.4714 -0.1762
    1DPPC   PO4  338   7.419  15.895   6.015 -0.1514  0.0489 -0.2881
    1DPPC   GL1  339   7.325  15.956   5.581 -0.1866  0.2584  0.0895
    1DPPC   GL2  340   6.973  15.944   5.622 -0.5752  0.2042  0.0446
    1DPPC   C1A  341   7.485  16.114   5.117 -0.1413  0.2899 -0.3595
    1DPPC   C2A  342   7.471  16.198   4.617  0.0787  0.2923  0.1097
    1DPPC   C3A  343   7.618  16.259   4.224  0.1022  0.1889 -0.0840
    1DPPC   C4A  344   7.501  16.558   3.883  0.0245 -0.0896 -0.1829
    1DPPC   C1B  345   6.650  15.954   5.410  0.0492 -0.0927 -0.0498
    1DPPC   C2B  346   6.440  15.931   4.976 -0.0799  0.0920 -0.1009
    1DPPC   C3B  347   6.149  16.160   4.781  0.1043  0.4715  0.1407
    1DPPC   C4B  348   5.849  16.277   4.538 -0.0226  0.1003 -0.1666
    1DPPC   NC3  349  16.091  14.450   6.615  0.2906 -0.0402  0.0133
    1DPPC   PO4  350  16.534  14.455   6.532 -0.0289 -0.2204  0.1150
    1DPPC   GL1  351  16.224  14.517   6.155 -0.1590  0.0146 -0.0118
    1DPPC   GL2  352  16.332  14.368   5.969 -0.1621  0.0541 -0.0634
    1DPPC   C1A  353  15.944  14.586   5.737  0.0733  0.0687  0.1013
    1DPPC   C2A  354  15.833  14.804   5.377  0.0724  0.3430 -0.0404
    1DPPC   C3A  355  15.888  14.752   4.919  0.0016 -0.0639  0.0035
    1DPPC   C4A  356  15.919  14.411   4.626  0.0701 -0.1857 -0.0721
    1DPPC   C1B  357  16.372  14.390   5.605  0.1423 -0.1288 -0.0374
    1DPPC   C2B  358  16.565  14.531   5.271 -0.1477 -0.1810  0.2317
    1DPPC   C3B  359  16.542  14.826   4.940 -0.0509  0.1284  0.0670
    1DPPC   C4B  360  16.580  15.089   4.603  0.3012  0.3923  0.1397
    1DPPC   NC3  361  16.696  26.453   6.729  0.3123 -0.0266 -0.1461
    1DPPC   PO4  362  16.242  26.716   6.729 -0.0440 -0.2638 -0.0712
    1DPPC   GL1  363  16.558  26.907   6.436 -0.1482 -0.1693  0.3560
    1DPPC   GL2  364  16.749  26.769   6.331 -0.3813  0.1005 -0.0576
    1DPPC   C1A  365  16.480  27.135   6.007  0.1753 -0.1387  0.3627
    1DPPC   C2A  366  16.512  26.932   5.568 -0.0781  0.0240  0.0152
    1DPPC   C3A  367  16.581  26.917   5.067 -0.1109 -0.1950  0.1120
    1DPPC   C4A  368  16.621  26.765   4.692 -0.3011 -0.1901 -0.3967
    1DPPC   C1B  369  16.942  26.815   5.811 -0.2663  0.1061  0.1671
    1DPPC   C2B  370  16.955  26.744   5.334  0.1553  0.3899  0.0405
    1DPPC   C3B  371  17.022  26.989   5.009 -0.1341  0.0903  0.0221
    1DPPC   C4B  372  16.989  27.183   4.698 -0.0277 -0.0108  0.2978
    1DPPC   NC3  373  23.137   1.497   7.022 -0.1485 -0.0121  0.1599
    1DPPC   PO4  374  23.522   1.187   6.967 -0.2003 -0.2227 -0.1217
    1DPPC   GL1  375  23.789   1.394   6.611  0.3044  0.1180  0.0319
    1DPPC   GL2  376  24.094   1.475   6.694 -0.1585  0.2633 -0.2193
    1DPPC   C1A  377  23.935   1.759   6.269 -0.0492 -0.1574  0.0563
    1DPPC   C2A  378  24.141   1.985   6.037  0.1149 -0.0215  0.0546
    1DPPC   C3A  379  24.140   2.196   5.657 -0.3127  0.1163  0.1239
    1DPPC   C4A  380  24.185   2.476   5.317 -0.1195 -0.0209  0.1413
    1DPPC   C1B  381  24.436   1.757   6.550  0.2162  0.2968 -0.2179
    1DPPC   C2B  382  24.644   1.698   6.204 -0.1044  0.0719 -0.2019
    1DPPC   C3B  383  24.614   2.049   5.785  0.0198 -0.3317 -0.3206
    1DPPC   C4B  384  24.435   1.690   5.532 -0.1907 -0.3320 -0.1931
    1DPPC   NC3  385  16.164   3.230   6.497 -0.4489  0.2128  0.1629
    1DPPC   PO4  386  15.805   2.959   6.680  0.2592  0.1476 -0.1397
    1DPPC   GL1  387  15.857   2.745   6.339  0.1151 -0.1970 -0.0742
    1DPPC   GL2  388  16.195   2.749   6.435 -0.2830 -0.2668 -0.3758
    1DPPC   C1A  389  15.712   2.684   5.899  0.1321  0.0753 -0.0741
    1DPPC   C2A  390  15.970   2.529   5.581 -0.2492  0.1410  0.1298
    1DPPC   C3A  391  16.310   2.388   5.300 -0.0057 -0.0809 -0.1459
    1DPPC   C4A  392  16.410   2.314   5.011 -0.0612  0.0083  0.3114
    1DPPC   C1B  393  16.259   2.788   5.974  0.3772  0.0319 -0.1807
    1DPPC   C2B  394  16.420   2.834   5.494  0.1121 -0.1282  0.1634
    1DPPC   C3B  395  16.479   2.821   4.997  0.0517  0.4856  0.1922
    1DPPC   C4B  396  16.582   2.920   4.488 -0.0766  0.1361 -0.0029
    1DPPC   NC3  397  19.953  13.739   6.120  0.1978 -0.1045 -0.0455
    1DPPC   PO4  398  19.799  13.372   6.227  0.0778  0.0734  0.4543
    1DPPC   GL1  399  20.221  13.352   5.897  0.0904  0.0033  0.0196
    1DPPC   GL2  400  19.961  13.662   5.607  0.0533 -0.1589 -0.2473
    1DPPC   C1A  401  20.508  13.095   5.584 -0.1141 -0.0623 -0.0150
    1DPPC   C2A  402  20.583  13.158   5.114  0.3221 -0.1858  0.1293
    1DPPC   C3A  403  20.560  13.384   4.758  0.1791 -0.1153 -0.1916
    1DPPC   C4A  404  20.314  13.691   4.433 -0.3966 -0.0236 -0.0412
    1DPPC   C1B  405  20.184  14.047   5.525 -0.2748  0.0475  0.0585
    1DPPC   C2B  406  20.618  14.251   5.436 -0.1016 -0.0349  0.1097
    1DPPC   C3B  407  21.016  14.155   5.360 -0.1173  0.0286 -0.2963
    1DPPC   C4B  408  21.281  13.975   5.182 -0.0248 -0.0572  0.1375
    1DPPC   NC3  409  13.272   5.098   5.921 -0.0356 -0.1521  0.1464
    1DPPC   PO4  410  13.442   5.145   5.602 -0.0027  0.2130  0.0613
    1DPPC   GL1  411  13.504   4.810   5.271 -0.0011 -0.3458 -0.0566
    1DPPC   GL2  412  13.591   4.554   5.416  0.0144 -0.1050 -0.0839
    1DPPC   C1A  413  13.657   4.690   4.829 -0.0789  0.2874 -0.1651
    1DPPC   C2A  414  13.676   4.663   4.380  0.1128  0.0438  0.0164
    1DPPC   C3A  415  13.705   4.919   4.081 -0.3120  0.0853 -0.0120
    1DPPC   C4A  416  13.732   5.247   3.820  0.0695 -0.1374  0.1288
    1DPPC   C1B  417  13.282   4.416   5.096 -0.0815  0.1715 -0.0699
    1DPPC   C2B  418  13.121   4.080   4.874 -0.1365 -0.1617 -0.1121
    1DPPC   C3B  419  13.120   3.984   4.423 -0.2903 -0.0269  0.0755
    1DPPC   C4B  420  12.977   3.828   4.001  0.1204  0.2683 -0.0218
    1DPPC   NC3  421  15.159  28.538   6.224  0.1045 -0.1220 -0.1596
    1DPPC   PO4  422  15.289  28.938   6.287  0.1543 -0.0770 -0.3139
    1DPPC   GL1  423  15.158  28.862   5.839 -0.1197 -0.2336  0.2905
    1DPPC   GL2  424  14.984  28.593   5.741 -0.0481 -0.2051 -0.0611
    1DPPC   C1A  425  15.022  29.075   5.355 -0.2383  0.2854 -0.1406
    1DPPC   C2A  426  15.239  29.004   5.014  0.0568  0.0402  0.0168
    1DPPC   C3A  427  15.294  28.819   4.657 -0.0180 -0.2026  0.2385
    1DPPC   C4A  428  15.175  28.608   4.397 -0.0506  0.1865  0.2582
    1DPPC   C1B  429  15.039  28.560   5.384 -0.2577  0.0112  0.0360
    1DPPC   C2B  430  15.161  28.317   4.842 -0.0140  0.0137  0.0718
    1DPPC   C3B  431  15.418  28.039   4.672  0.4463  0.2716  0.0446
    1DPPC   C4B  432  15.804  27.994   4.372  0.0792 -0.0512  0.0433
    1DPPC   NC3  433  20.899  27.499   7.184  0.0557 -0.0690 -0.0603
    1DPPC   PO4  434  20.892  27.923   6.956 -0.0753 -0.1660  0.0824
    1DPPC   GL1  435  21.194  27.928   6.637  0.0533 -0.1063  0.3078
    1DPPC   GL2  436  21.007  28.055   6.399  0.2689 -0.2367 -0.2130
    1DPPC   C1A  437  21.546  27.979   6.256 -0.0651 -0.0608 -0.0576
    1DPPC   C2A  438  21.569  27.947   5.792  0.3574 -0.1789 -0.0527
    1DPPC   C3A  439  21.895  27.751   5.697 -0.0072  0.1111  0.0579
    1DPPC   C4A  440  22.259  27.770   5.445 -0.1132  0.0053 -0.0719
    1DPPC   C1B  441  21.091  28.104   5.970  0.3452  0.0672  0.1968
    1DPPC   C2B  442  21.015  27.912   5.600 -0.3641  0.3271  0.2072
    1DPPC   C3B  443  20.629  27.757   5.451 -0.4696  0.2236  0.1370
    1DPPC   C4B  444  20.340  27.791   5.157 -0.1733  0.0251  0.0330
    1DPPC   NC3  445  27.186   5.627   8.887 -0.0928  0.2268 -0.0755
    1DPPC   PO4  446  27.418   5.701   8.387  0.4610 -0.0891 -0.1414
    1DPPC   GL1  447  27.460   5.661   7.994  0.3205 -0.0055  0.0168
    1DPPC   GL2  448  27.448   5.274   7.843 -0.1419 -0.1350 -0.0279
    1DPPC   C1A  449  27.431   5.635   7.507 -0.1846  0.1720 -0.0437
    1DPPC   C2A  450  27.256   5.709   7.129  0.2509  0.1188 -0.0250
    1DPPC   C3A  451  27.050   5.872   6.759 -0.0403  0.2909 -0.1361
    1DPPC   C4A  452  27.151   5.949   6.372 -0.0618  0.3621 -0.2816
    1DPPC   C1B  453  27.254   5.166   7.450 -0.0315 -0.2589  0.1829
    1DPPC   C2B  454  27.350   5.158   7.069 -0.0402  0.0201 -0.1722
    1DPPC   C3B  455  27.283   5.389   6.701 -0.0355 -0.2766 -0.0258
    1DPPC   C4B  456  27.285   5.232   6.285  0.1565 -0.0030 -0.0319
    1DPPC   NC3  457  21.565  26.748   7.148 -0.2168  0.2415  0.0354
    1DPPC   PO4  458  21.580  26.384   6.797  0.0828  0.0163  0.0911
    1DPPC   GL1  459  21.760  26.642   6.601 -0.0125 -0.1862  0.0415
    1DPPC   GL2  460  21.928  26.711   6.809 -0.0351 -0.1291 -0.1793
    1DPPC   C1A  461  22.123  26.836   6.173 -0.1890 -0.1846 -0.1244
    1DPPC   C2A  462  22.129  26.724   5.744 -0.1409  0.3421 -0.2314
    1DPPC   C3A  463  22.111  26.831   5.231  0.0377 -0.2196  0.2477
    1DPPC   C4A  464  22.073  27.083   4.993 -0.1229  0.2031 -0.1364
    1DPPC   C1B  465  22.290  26.551   6.567  0.1313 -0.0715  0.1721
    1DPPC   C2B  466  22.433  26.461   6.160 -0.1242  0.1853  0.0995
    1DPPC   C3B  467  22.601  26.713   5.885 -0.0642 -0.2165 -0.3673
    1DPPC   C4B  468  22.784  26.837   5.571 -0.0875 -0.0483 -0.2226
    1DPPC   NC3  469  16.182  25.325   7.021 -0.4348  0.1313 -0.0555
    1DPPC   PO4  470  16.538  25.069   7.147 -0.2202  0.1370  0.2022
    1DPPC   GL1  471  16.530  25.145   6.622 -0.1996  0.0465 -0.0242
    1DPPC   GL2  472  16.209  25.353   6.511 -0.0280  0.2399 -0.0168
    1DPPC   C1A  473  16.537  25.141   6.250  0.2609  0.0532  0.0345
    1DPPC   C2A  474  16.624  25.095   5.832  0.1607  0.1315 -0.0362
    1DPPC   C3A  475  16.637  25.031   5.418  0.3165  0.0060  0.2078
    1DPPC   C4A  476  16.632  24.953   4.990 -0.0154  0.1583 -0.2409
    1DPPC   C1B  477  16.305  25.574   6.164  0.3712 -0.0277  0.0606
    1DPPC   C2B  478  16.405  25.491   5.720 -0.2560  0.0962  0.1758
    1DPPC   C3B  479  16.486  25.547   5.283 -0.0659  0.0901  0.0553
    1DPPC   C4B  480  16.648  25.854   4.995 -0.0629 -0.0346 -0.1470
    1DPPC   NC3  481  12.558   3.411   6.027  0.0055  0.1021  0.3265
    1DPPC   PO4  482  12.670   2.968   5.977  0.1057  0.2409 -0.1771
    1DPPC   GL1  483  12.667   2.688   5.579  0.1911  0.0675 -0.1151
    1DPPC   GL2  484  12.504   2.490   5.662 -0.3450 -0.1195  0.0080
    1DPPC   C1A  485  12.809   2.399   5.269 -0.0687  0.0139  0.1649
    1DPPC   C2A  486  12.620   2.308   4.939  0.1626  0.4472 -0.1859
    1DPPC   C3A  487  12.560   2.055   4.606 -0.2732  0.2306 -0.3139
    1DPPC   C4A  488  12.602   1.701   4.354  0.1163 -0.0026  0.1437
    1DPPC   C1B  489  12.282   2.440   5.402  0.0860  0.1307  0.2162
    1DPPC   C2B  490  12.098   2.459   4.996 -0.1730  0.1247  0.0580
    1DPPC   C3B  491  12.405   2.547   4.526  0.2096 -0.0860 -0.2407
    1DPPC   C4B  492  12.884   2.409   4.561  0.0224  0.2431 -0.2119
    1DPPC   NC3  493   5.687  17.402   7.101 -0.1021  0.0784 -0.2392
    1DPPC   PO4  494   5.747  16.976   6.888  0.1618  0.2011  0.3268
    1DPPC   GL1  495   5.499  17.278   6.650 -0.0756  0.2280  0.2338
    1DPPC   GL2  496   5.857  17.410   6.598  0.1262 -0.0494 -0.1125
    1DPPC   C1A  497   5.428  17.269   6.216  0.3303 -0.1924  0.2539
    1DPPC   C2A  498   5.481  17.079   5.818 -0.0355 -0.1127 -0.0139
    1DPPC   C3A  499   5.596  17.203   5.484 -0.1403  0.1223 -0.0760
    1DPPC   C4A  500   5.878  17.018   5.177  0.0056 -0.0783 -0.3394
    1DPPC   C1B  501   5.882  17.493   6.151  0.0446 -0.0112  0.0848
    1DPPC   C2B  502   5.710  17.549   5.761 -0.1189  0.0374 -0.1226
    1DPPC   C3B  503   5.544  17.765   5.350  0.2216  0.1602 -0.0027
    1DPPC   C4B  504   5.133  17.759   5.207  0.0869  0.2113  0.0401
    1DPPC   NC3  505  22.722   1.762   7.323  0.0590 -0.1830 -0.0200
    1DPPC   PO4  506  22.631   2.006   7.055 -0.2376 -0.0673 -0.0056
    1DPPC   GL1  507  22.674   2.076   6.648 -0.1376 -0.3078 -0.0197
    1DPPC   GL2  508  22.937   1.732   6.671 -0.0457  0.0295  0.0734
    1DPPC   C1A  509  23.015   2.187   6.374  0.3408  0.3348 -0.0740
    1DPPC   C2A  510  23.097   2.127   6.005  0.1201 -0.0718 -0.0326
    1DPPC   C3A  511  23.246   2.052   5.563 -0.0011 -0.6748 -0.0416
    1DPPC   C4A  512  23.483   2.097   5.198  0.1101 -0.1281 -0.0334
    1DPPC   C1B  513  22.973   1.663   6.206 -0.1587  0.1968 -0.4261
    1DPPC   C2B  514  22.949   1.704   5.755 -0.0730 -0.0236 -0.0037
    1DPPC   C3B  515  23.062   1.661   5.427 -0.0448 -0.2029  0.2425
    1DPPC   C4B  516  23.474   1.589   5.151  0.1573 -0.1721 -0.2742
    1DPPC   NC3  517  14.217   4.231   6.203 -0.0739 -0.2014  0.1152
    1DPPC   PO4  518  14.619   4.130   5.945 -0.1115 -0.1788 -0.0704
    1DPPC   GL1  519  14.836   4.247   5.517 -0.3257  0.2400 -0.1771
    1DPPC   GL2  520  14.567   4.499   5.478  0.1734 -0.1196  0.1113
    1DPPC   C1A  521  14.997   4.111   5.065 -0.1949  0.0015 -0.3178
    1DPPC   C2A  522  15.050   3.850   4.715 -0.1346 -0.0379  0.0050
    1DPPC   C3A  523  15.118   3.483   4.636 -0.3964  0.4692  0.0668
    1DPPC   C4A  524  15.341   3.258   4.306 -0.3312 -0.0770  0.1617
    1DPPC   C1B  525  14.586   4.376   5.098  0.4258 -0.3673  0.0454
    1DPPC   C2B  526  14.628   4.285   4.756  0.0261 -0.2033  0.1421
    1DPPC   C3B  527  14.693   4.023   4.493  0.1639  0.0219 -0.0928
    1DPPC   C4B  528  14.844   3.681   4.260  0.1022 -0.1071 -0.0356
    1DPPC   NC3  529  12.035   5.021   6.135 -0.0111  0.2212 -0.1496
    1DPPC   PO4  530  12.461   4.806   6.117  0.1193  0.1444  0.1416
    1DPPC   GL1  531  12.554   4.572   5.721 -0.5256  0.0105 -0.2810
    1DPPC   GL2  532  12.551   4.240   5.770 -0.0333 -0.1948  0.1105
    1DPPC   C1A  533  12.635   4.591   5.316 -0.1058 -0.0428  0.5221
    1DPPC   C2A  534  12.840   4.487   4.825 -0.0625  0.1507 -0.0813
    1DPPC   C3A  535  12.808   4.405   4.487 -0.0327  0.1705 -0.1870
    1DPPC   C4A  536  12.925   4.332   4.058  0.0028 -0.0701 -0.2133
    1DPPC   C1B  537  12.156   4.180   5.535 -0.1602  0.0082  0.0072
    1DPPC   C2B  538  12.114   3.929   5.200  0.1626  0.0095 -0.1535
    1DPPC   C3B  539  12.021   3.989   4.804  0.1083  0.2970  0.0093
    1DPPC   C4B  540  12.119   3.835   4.489  0.2298  0.1458 -0.0799
    1DPPC   NC3  541   5.906   3.516   8.321  0.2998 -0.2552  0.1518
    1DPPC   PO4  542   5.766   3.325   7.926 -0.2486 -0.0781 -0.0533
    1DPPC   GL1  543   5.736   3.122   7.472 -0.2005  0.0302  0.0951
    1DPPC   GL2  544   5.525   2.939   7.326  0.1220 -0.1727  0.1366
    1DPPC   C1A  545   5.847   3.342   7.026  0.1208 -0.2966 -0.0819
    1DPPC   C2A  546   6.052   3.417   6.635  0.4640  0.0127  0.0677
    1DPPC   C3A  547   6.294   3.194   6.336  0.0602 -0.1468 -0.1398
    1DPPC   C4A  548   6.520   2.968   6.051  0.1959  0.1259 -0.1716
    1DPPC   C1B  549   5.862   2.850   7.045 -0.0599 -0.2550  0.1844
    1DPPC   C2B  550   6.022   2.516   6.724 -0.1609 -0.1194 -0.0441
    1DPPC   C3B  551   5.851   2.296   6.289 -0.1993 -0.1449  0.0055
    1DPPC   C4B  552   5.768   1.929   6.064  0.1716 -0.2706  0.0470
    1DPPC   NC3  553  18.431  27.843   7.314  0.1813  0.5187 -0.1999
    1DPPC   PO4  554  18.790  28.025   7.107  0.1287  0.4287  0.0602
    1DPPC   GL1  555  18.981  28.027   6.781  0.2418 -0.2423 -0.0977
    1DPPC   GL2  556  18.711  27.937   6.583  0.1825 -0.1186  0.0388
    1DPPC   C1A  557  18.991  28.364   6.405 -0.1926 -0.0076  0.0900
    1DPPC   C2A  558  19.178  28.326   6.033 -0.2245  0.0392 -0.0043
    1DPPC   C3A  559  19.209  28.198   5.643 -0.2249 -0.2067 -0.1153
    1DPPC   C4A  560  19.057  28.047   5.290 -0.0052 -0.1129 -0.1496
    1DPPC   C1B  561  18.886  27.940   6.137 -0.1381  0.0903  0.3807
    1DPPC   C2B  562  18.684  28.254   5.840 -0.1868 -0.0652  0.1489
    1DPPC   C3B  563  18.791  28.445   5.404  0.0343  0.0443 -0.1052
    1DPPC   C4B  564  18.520  28.641   5.122  0.3164 -0.0716 -0.0406
    1DPPC   NC3  565  16.187   0.856   6.459 -0.3335  0.1667  0.1066
    1DPPC   PO4  566  16.046   1.175   6.265  0.0385  0.4059  0.3574
    1DPPC   GL1  567  15.980   1.396   5.992 -0.2105  0.0229  0.1222
    1DPPC   GL2  568  16.000   1.242   5.704  0.0152 -0.0687 -0.2439
    1DPPC   C1A  569  15.767   1.648   5.639  0.1556  0.2546  0.0146
    1DPPC   C2A  570  15.566   1.710   5.219 -0.2578 -0.1458 -0.0966
    1DPPC   C3A  571  15.435   1.937   4.864  0.0238  0.3010 -0.0496
    1DPPC   C4A  572  15.205   1.859   4.508 -0.0876 -0.1201  0.1335
    1DPPC   C1B  573  16.089   1.498   5.260 -0.1825 -0.0357  0.0856
    1DPPC   C2B  574  16.149   1.845   4.967 -0.0959  0.2145 -0.3555
    1DPPC   C3B  575  16.199   2.088   4.598  0.0933  0.1787 -0.3413
    1DPPC   C4B  576  16.058   2.285   4.225  0.0089  0.0803  0.0072
    1DPPC   NC3  577   0.199   1.189   8.048  0.0022  0.1058  0.1165
    1DPPC   PO4  578   0.482   1.396   7.884 -0.1634 -0.0088  0.0648
    1DPPC   GL1  579   0.448   1.018   7.484  0.1194  0.4200 -0.1696
    1DPPC   GL2  580   0.589   0.816   7.426 -0.3066 -0.0136  0.1169
    1DPPC   C1A  581   0.333   1.034   7.064  0.0154  0.2853 -0.2126
    1DPPC   C2A  582   0.108   1.077   6.712  0.1660 -0.2379 -0.2952
    1DPPC   C3A  583  -0.059   1.347   6.338 -0.3707  0.0399 -0.1909
    1DPPC   C4A  584  -0.432   1.558   6.166 -0.1371  0.0206 -0.2265
    1DPPC   C1B  585   0.793   0.915   6.991  0.1594 -0.0870 -0.0038
    1DPPC   C2B  586   0.576   1.200   6.668 -0.1519 -0.2429  0.1809
    1DPPC   C3B  587   0.487   1.567   6.294  0.0497 -0.3434 -0.1762
    1DPPC   C4B  588   0.637   1.510   5.838 -0.0969 -0.2171  0.0080
    1DPPC   NC3  589  18.660   3.706   6.985 -0.1581 -0.2256  0.2189
    1DPPC   PO4  590  18.795   3.430   6.681  0.3816  0.1247  0.0498
    1DPPC   GL1  591  18.790   3.228   6.365 -0.0282 -0.0929  0.0994
    1DPPC   GL2  592  18.715   3.363   6.054 -0.2541 -0.2082  0.1665
    1DPPC   C1A  593  19.017   2.919   6.104 -0.0133 -0.1088  0.2539
    1DPPC   C2A  594  19.127   2.962   5.655 -0.0955 -0.1486 -0.1759
    1DPPC   C3A  595  19.207   2.844   5.174  0.0979 -0.1084  0.1388
    1DPPC   C4A  596  19.246   2.528   5.058 -0.0204 -0.0601  0.3706
    1DPPC   C1B  597  19.062   3.468   5.768  0.3512 -0.1714  0.1904
    1DPPC   C2B  598  19.365   3.429   5.425 -0.0851 -0.0868  0.3003
    1DPPC   C3B  599  19.665   3.180   5.132 -0.3815 -0.3474  0.1643
    1DPPC   C4B  600  19.968   3.192   4.756 -0.1327  0.0088 -0.4011
    1DPPC   NC3  601   4.284  11.791   7.253  0.0253  0.0152  0.1571
    1DPPC   PO4  602   3.935  11.673   7.106 -0.1431 -0.0395  0.0112
    1DPPC   GL1  603   3.614  11.914   6.817  0.0323  0.1206  0.0923
    1DPPC   GL2  604   3.270  11.814   6.900 -0.1488 -0.0699  0.0981
    1DPPC   C1A  605   3.409  12.123   6.429  0.1159 -0.1148  0.2523
    1DPPC   C2A  606   3.255  12.374   6.128  0.0372  0.0664 -0.0685
    1DPPC   C3A  607   2.976  12.278   5.789 -0.0357 -0.3385 -0.0991
    1DPPC   C4A  608   2.571  12.095   5.882  0.2811  0.2246  0.2594
    1DPPC   C1B  609   3.339  11.637   6.529 -0.0024 -0.2110  0.1283
    1DPPC   C2B  610   3.324  11.725   6.047 -0.2761 -0.2291 -0.0164
    1DPPC   C3B  611   3.083  11.696   5.707  0.1826 -0.0833 -0.1564
    1DPPC   C4B  612   2.809  11.923   5.422 -0.0555 -0.3037 -0.1755
    1DPPC   NC3  613  23.500  27.503   7.468  0.0430  0.0120  0.0929
    1DPPC   PO4  614  23.753  27.164   7.478 -0.1288  0.0477 -0.1973
    1DPPC   GL1  615  23.876  27.250   7.059 -0.0340  0.1138 -0.3165
    1DPPC   GL2  616  23.816  27.600   7.043 -0.1244 -0.1039 -0.0894
    1DPPC   C1A  617  24.106  27.300   6.743 -0.0723  0.2736  0.0419
    1DPPC   C2A  618  24.201  27.207   6.362 -0.2463 -0.1750 -0.1176
    1DPPC   C3A  619  24.420  26.943   6.073  0.2730  0.0282  0.2329
    1DPPC   C4A  620  24.690  27.080   5.751 -0.0166  0.3804  0.0558
    1DPPC   C1B  621  24.074  27.826   6.763 -0.2643 -0.2277 -0.3431
    1DPPC   C2B  622  24.256  28.186   6.629 -0.1142  0.2919 -0.0563
    1DPPC   C3B  623  24.386  28.361   6.219  0.1159 -0.3783 -0.2418
    1DPPC   C4B  624  24.553  28.458   5.874 -0.2056 -0.0546 -0.3076
    1DPPC   NC3  625  24.083  25.966   7.818 -0.1769  0.1148  0.0477
    1DPPC   PO4  626  24.372  25.573   7.817  0.0508 -0.1361  0.0507
    1DPPC   GL1  627  24.212  25.690   7.315  0.1397  0.2188  0.4028
    1DPPC   GL2  628  24.027  25.958   7.239 -0.1611  0.0213  0.3743
    1DPPC   C1A  629  24.435  25.603   6.917 -0.0105 -0.0374 -0.2295
    1DPPC   C2A  630  24.839  25.624   6.698  0.0667  0.0015 -0.0174
    1DPPC   C3A  631  25.136  25.374   6.506 -0.1590 -0.5146 -0.0350
    1DPPC   C4A  632  25.463  25.314   6.172  0.1200  0.0218  0.0163
    1DPPC   C1B  633  24.045  25.855   6.801 -0.0262  0.1770  0.0979
    1DPPC   C2B  634  24.091  25.714   6.407 -0.2640  0.0124  0.0337
    1DPPC   C3B  635  23.991  25.868   5.979 -0.3165  0.2058 -0.2517
    1DPPC   C4B  636  24.020  25.686   5.564  0.1050 -0.2165  0.1595
    1DPPC   NC3  637  11.579  20.592   7.171  0.0225 -0.0098 -0.1709
    1DPPC   PO4  638  11.411  20.720   6.865  0.1254  0.3108  0.2515
    1DPPC   GL1  639  11.624  20.495   6.552 -0.1141 -0.2237  0.1386
    1DPPC   GL2  640  11.709  20.182   6.564  0.2649  0.4412 -0.1732
    1DPPC   C1A  641  11.721  20.573   6.160 -0.1843  0.2798  0.1153
    1DPPC   C2A  642  11.824  20.741   5.826 -0.1296 -0.0389  0.1810
    1DPPC   C3A  643  11.988  20.625   5.502  0.1029 -0.0941  0.0968
    1DPPC   C4A  644  11.998  20.820   5.030  0.0415 -0.0118 -0.0197
    1DPPC   C1B  645  12.008  19.920   6.264  0.1271  0.1899 -0.0937
    1DPPC   C2B  646  12.118  19.731   5.871  0.1757  0.1696  0.1046
    1DPPC   C3B  647  12.219  19.513   5.608  0.3234 -0.0041  0.0620
    1DPPC   C4B  648  12.436  19.503   5.246  0.0943  0.1766  0.0610
    1DPPC   NC3  649   4.171  15.879   7.090  0.1426 -0.2639 -0.1037
    1DPPC   PO4  650   4.524  15.660   6.958  0.1270 -0.1564 -0.1345
    1DPPC   GL1  651   4.182  15.517   6.541 -0.2799 -0.3680 -0.1606
    1DPPC   GL2  652   3.942  15.781   6.610 -0.0271  0.1780  0.1415
    1DPPC   C1A  653   4.180  15.440   6.201  0.3635  0.2683 -0.0687
    1DPPC   C2A  654   3.996  15.339   5.709  0.2079 -0.3009  0.1572
    1DPPC   C3A  655   3.848  15.046   5.399  0.1700 -0.2282  0.2605
    1DPPC   C4A  656   4.023  14.692   5.096 -0.1064 -0.0849 -0.1231
    1DPPC   C1B  657   4.236  16.033   6.331 -0.1389  0.2127  0.0669
    1DPPC   C2B  658   4.362  16.190   6.045  0.1031 -0.0368  0.0875
    1DPPC   C3B  659   4.321  16.619   5.817  0.1341  0.0922  0.1711
    1DPPC   C4B  660   4.358  16.914   5.591  0.3953  0.1226  0.2015
    1DPPC   NC3  661  13.380   8.596   5.659 -0.1733  0.2594  0.0176
    1DPPC   PO4  662  13.717   8.710   5.372  0.4045 -0.0824  0.0118
    1DPPC   GL1  663  13.594   8.603   4.996  0.1151 -0.2445 -0.1943
    1DPPC   GL2  664  13.249   8.558   5.178 -0.2778  0.2040 -0.0543
    1DPPC   C1A  665  13.604   8.473   4.560  0.0092 -0.1083 -0.2713
    1DPPC   C2A  666  13.448   8.487   4.094  0.0801 -0.1271 -0.0847
    1DPPC   C3A  667  13.725   8.569   3.846  0.2129 -0.0563 -0.3908
    1DPPC   C4A  668  14.232   8.687   3.779  0.1953  0.0276 -0.1015
    1DPPC   C1B  669  13.126   8.395   4.779 -0.1019 -0.0695  0.3169
    1DPPC   C2B  670  13.010   8.359   4.389  0.2961 -0.0138  0.1296
    1DPPC   C3B  671  12.927   8.066   4.123  0.1304 -0.1025 -0.0556
    1DPPC   C4B  672  13.094   7.766   3.840 -0.0649  0.2726  0.0214
    1DPPC   NC3  673  17.358  27.174   6.560  0.2507 -0.1202  0.1903
    1DPPC   PO4  674  16.936  27.250   6.591  0.1485  0.1305 -0.0133
    1DPPC   GL1  675  16.982  27.251   6.139 -0.0778  0.1125  0.0949
    1DPPC   GL2  676  17.366  27.205   6.006  0.2142  0.0616 -0.2527
    1DPPC   C1A  677  16.899  27.269   5.720  0.1036  0.0831  0.0065
    1DPPC   C2A  678  16.757  27.333   5.406 -0.0165  0.2958 -0.1288
    1DPPC   C3A  679  16.727  27.443   5.075  0.4225  0.2093 -0.0314
    1DPPC   C4A  680  16.781  27.648   4.659 -0.2188  0.0514 -0.1284
    1DPPC   C1B  681  17.686  27.284   5.672  0.0231 -0.0022 -0.1517
    1DPPC   C2B  682  17.884  27.444   5.283 -0.1625 -0.0427 -0.0102
    1DPPC   C3B  683  17.953  27.237   4.848 -0.0515  0.1280 -0.2098
    1DPPC   C4B  684  18.010  27.052   4.497  0.1133 -0.1787 -0.0537
    1DPPC   NC3  685  18.101   9.060   5.837 -0.1736  0.0474  0.2535
    1DPPC   PO4  686  17.598   9.028   5.865 -0.2575 -0.0875  0.1538
    1DPPC   GL1  687  17.637   8.843   5.480 -0.0745  0.3164  0.1071
    1DPPC   GL2  688  17.549   8.555   5.390 -0.0424 -0.2328  0.0100
    1DPPC   C1A  689  17.849   8.796   5.020 -0.1377 -0.0269 -0.3340
    1DPPC   C2A  690  17.939   8.998   4.790 -0.1816  0.1270  0.0193
    1DPPC   C3A  691  18.084   9.076   4.360 -0.2822 -0.0120  0.1353
    1DPPC   C4A  692  18.165   8.991   3.889 -0.4037  0.3630  0.1121
    1DPPC   C1B  693  17.369   8.481   5.081  0.2291  0.0919 -0.0486
    1DPPC   C2B  694  17.137   8.655   4.763 -0.0672 -0.2630 -0.1442
    1DPPC   C3B  695  17.197   8.640   4.346  0.0152 -0.2464 -0.1330
    1DPPC   C4B  696  17.358   8.385   4.109 -0.1426  0.3790 -0.1654
    1DPPC   NC3  697  25.152  24.924   8.096  0.1715 -0.1786  0.0347
    1DPPC   PO4  698  25.038  24.515   7.885 -0.2436 -0.2312 -0.0574
    1DPPC   GL1  699  25.062  24.492   7.379 -0.1555 -0.0176 -0.0429
    1DPPC   GL2  700  25.297  24.230   7.162 -0.0517 -0.1364 -0.1326
    1DPPC   C1A  701  25.257  24.652   6.935 -0.3313  0.2826 -0.4014
    1DPPC   C2A  702  25.492  24.453   6.560  0.1255 -0.4511 -0.0870
    1DPPC   C3A  703  25.905  24.158   6.389 -0.3487 -0.0564 -0.2028
    1DPPC   C4A  704  26.286  24.243   6.356 -0.0305  0.0735  0.0036
    1DPPC   C1B  705  25.250  24.094   6.745 -0.0763  0.1836 -0.2721
    1DPPC   C2B  706  25.406  24.046   6.336 -0.0935 -0.0747 -0.3026
    1DPPC   C3B  707  25.607  24.386   6.050 -0.0912  0.1551 -0.0909
    1DPPC   C4B  708  25.628  24.636   5.665  0.1515 -0.0021  0.2915
    1DPPC   NC3  709  20.655   9.209   5.687  0.1496  0.1694 -0.1144
    1DPPC   PO4  710  20.399   8.983   5.873  0.1871 -0.0978  0.4631
    1DPPC   GL1  711  20.185   9.163   5.522 -0.0800  0.0452 -0.0418
    1DPPC   GL2  712  20.389   9.177   5.249 -0.0499 -0.3192 -0.1483
    1DPPC   C1A  713  19.856   9.305   5.319  0.1007 -0.1047  0.1460
    1DPPC   C2A  714  19.676   9.233   4.888 -0.0211  0.0804  0.1675
    1DPPC   C3A  715  19.516   9.437   4.475 -0.1390  0.2191 -0.0817
    1DPPC   C4A  716  19.603   9.868   4.319  0.0878 -0.2470 -0.1966
    1DPPC   C1B  717  20.158   9.103   4.823 -0.0959  0.0332  0.0104
    1DPPC   C2B  718  20.040   9.179   4.432  0.2127 -0.5288  0.0443
    1DPPC   C3B  719  20.179   8.884   4.228  0.1694 -0.1954  0.1277
    1DPPC   C4B  720  20.061   8.631   3.941 -0.1134 -0.3555  0.0197
    1DPPC   NC3  721  20.523   8.183   5.681 -0.0056 -0.2756 -0.2875
    1DPPC   PO4  722  20.764   8.700   5.645  0.0039 -0.5107  0.4412
    1DPPC   GL1  723  20.756   8.889   5.321  0.0048  0.2323  0.2947
    1DPPC   GL2  724  21.033   9.012   5.200 -0.1408  0.0288  0.0990
    1DPPC   C1A  725  20.517   8.765   4.944 -0.3932 -0.2052  0.0172
    1DPPC   C2A  726  20.525   8.651   4.562 -0.2235  0.1310 -0.2123
    1DPPC   C3A  727  20.363   8.390   4.289 -0.2098 -0.0208  0.2583
    1DPPC   C4A  728  20.195   8.087   3.903  0.1612  0.0977  0.1022
    1DPPC   C1B  729  21.073   8.888   4.842  0.2995 -0.0669  0.3321
    1DPPC   C2B  730  20.947   8.991   4.431 -0.1728 -0.1709  0.2073
    1DPPC   C3B  731  20.733   8.698   4.119 -0.1966  0.0243 -0.0679
    1DPPC   C4B  732  20.659   8.383   3.853 -0.2262  0.0446 -0.1906
    1DPPC   NC3  733   8.022  18.974   6.523  0.0240 -0.0760  0.1761
    1DPPC   PO4  734   7.592  18.825   6.333 -0.0276  0.0510  0.0103
    1DPPC   GL1  735   7.627  18.925   5.934 -0.0573  0.2276  0.2771
    1DPPC   GL2  736   7.344  19.100   6.011  0.1392  0.0182  0.2943
    1DPPC   C1A  737   7.737  19.149   5.492  0.0139 -0.4231  0.0123
    1DPPC   C2A  738   7.984  19.299   5.250 -0.3060 -0.2630 -0.2147
    1DPPC   C3A  739   8.299  19.218   4.967  0.1275 -0.0500 -0.0879
    1DPPC   C4A  740   8.699  18.985   4.937  0.0060 -0.1438 -0.0889
    1DPPC   C1B  741   7.431  19.518   5.784  0.1330 -0.2046 -0.3021
    1DPPC   C2B  742   7.487  19.664   5.390  0.1672 -0.0489  0.1242
    1DPPC   C3B  743   7.874  19.791   5.311 -0.0626 -0.0305 -0.0353
    1DPPC   C4B  744   8.104  20.178   5.323 -0.2903 -0.0229 -0.0371
    1DPPC   NC3  745  19.046   6.119   6.208 -0.2659 -0.1211 -0.0750
    1DPPC   PO4  746  18.730   6.410   6.080 -0.1505 -0.4447  0.0996
    1DPPC   GL1  747  18.744   6.450   5.713 -0.0276 -0.0106  0.0362
    1DPPC   GL2  748  18.407   6.498   5.384 -0.1684 -0.1279 -0.0771
    1DPPC   C1A  749  18.907   6.220   5.351  0.0330  0.1354  0.0172
    1DPPC   C2A  750  18.985   6.250   4.916 -0.0383 -0.1281  0.2355
    1DPPC   C3A  751  19.104   6.210   4.556  0.1544 -0.1951  0.0635
    1DPPC   C4A  752  19.265   5.996   4.287 -0.0904 -0.0356  0.3828
    1DPPC   C1B  753  18.479   6.157   5.092 -0.2341 -0.1845 -0.4580
    1DPPC   C2B  754  18.513   6.142   4.670  0.1843  0.3441 -0.1075
    1DPPC   C3B  755  18.685   6.439   4.362 -0.0323 -0.0476 -0.1330
    1DPPC   C4B  756  18.872   6.792   3.997  0.3247 -0.4624  0.0850
    1DPPC   NC3  757  23.132  24.270   7.398 -0.0515  0.3322 -0.1390
    1DPPC   PO4  758  22.872  24.583   7.372  0.2127  0.1924 -0.0632
    1DPPC   GL1  759  22.982  24.536   6.930  0.1591  0.0192 -0.1922
    1DPPC   GL2  760  23.241  24.254   6.872 -0.0948 -0.2207  0.0292
    1DPPC   C1A  761  23.257  24.667   6.611 -0.0809 -0.2700 -0.2125
    1DPPC   C2A  762  23.518  24.865   6.320  0.2602 -0.0399  0.1641
    1DPPC   C3A  763  23.664  24.918   5.857 -0.0310 -0.1211 -0.0767
    1DPPC   C4A  764  23.862  25.237   5.675 -0.0825 -0.1166  0.0265
    1DPPC   C1B  765  23.498  24.006   6.584  0.0387 -0.0462 -0.2724
    1DPPC   C2B  766  23.789  24.000   6.204  0.0130 -0.0969  0.1192
    1DPPC   C3B  767  24.150  23.937   5.879  0.0052  0.0431 -0.1828
    1DPPC   C4B  768  24.295  23.815   5.494 -0.0395  0.0563  0.0064
    1DPPC   NC3  769  15.362  12.449   6.378 -0.2908 -0.0307 -0.3211
    1DPPC   PO4  770  15.847  12.444   6.252 -0.3905  0.2641 -0.0557
    1DPPC   GL1  771  15.996  12.544   5.815 -0.2920  0.1156  0.0565
    1DPPC   GL2  772  16.382  12.514   5.746 -0.0452  0.0105 -0.0760
    1DPPC   C1A  773  15.832  12.506   5.420 -0.1468 -0.1931 -0.0294
    1DPPC   C2A  774  15.857  12.524   5.009 -0.0529 -0.0160 -0.0572
    1DPPC   C3A  775  16.009  12.794   4.781  0.3927 -0.2282  0.0608
    1DPPC   C4A  776  16.166  13.135   4.500 -0.2045  0.1753  0.2681
    1DPPC   C1B  777  16.457  12.574   5.380  0.0164 -0.1588 -0.0059
    1DPPC   C2B  778  16.457  12.807   5.032  0.0208  0.1130  0.1597
    1DPPC   C3B  779  16.596  12.901   4.619 -0.1494  0.2664  0.2893
    1DPPC   C4B  780  16.571  13.033   4.220  0.3002  0.1154 -0.2751
    1DPPC   NC3  781  11.031   6.184   6.035  0.0995 -0.0200  0.0426
    1DPPC   PO4  782  11.318   5.757   5.978  0.0520 -0.2649  0.4124
    1DPPC   GL1  783  11.294   5.838   5.681  0.1717 -0.2531  0.0261
    1DPPC   GL2  784  11.580   5.948   5.604 -0.4387 -0.3108 -0.0802
    1DPPC   C1A  785  11.381   5.649   5.268  0.0144 -0.0145 -0.2683
    1DPPC   C2A  786  11.421   5.356   4.890  0.0863 -0.0435  0.0376
    1DPPC   C3A  787  11.125   5.275   4.430 -0.2975  0.3393  0.0017
    1DPPC   C4A  788  11.242   5.049   4.113 -0.1172  0.0600  0.2204
    1DPPC   C1B  789  11.871   5.778   5.326  0.1283 -0.1644  0.1435
    1DPPC   C2B  790  11.850   5.486   5.155  0.0895 -0.0753 -0.2888
    1DPPC   C3B  791  11.813   5.653   4.740  0.1040  0.1742 -0.2841
    1DPPC   C4B  792  11.656   5.773   4.367 -0.1476 -0.1257  0.1470
    1DPPC   NC3  793  20.871  24.746   6.729  0.1330  0.0568  0.1514
    1DPPC   PO4  794  21.205  24.621   7.008 -0.0983  0.1272 -0.2872
    1DPPC   GL1  795  21.191  24.343   6.612 -0.0983 -0.2155  0.2343
    1DPPC   GL2  796  21.007  24.045   6.535  0.1541  0.0845  0.3706
    1DPPC   C1A  797  21.194  24.466   6.191  0.1199  0.0387  0.0060
    1DPPC   C2A  798  21.108  24.336   5.778  0.1744  0.0769  0.0587
    1DPPC   C3A  799  21.232  24.330   5.442 -0.0558  0.0100 -0.0473
    1DPPC   C4A  800  21.120  24.535   5.078  0.2050 -0.0091 -0.1151
    1DPPC   C1B  801  21.067  23.927   6.109  0.1380  0.1128  0.0379
    1DPPC   C2B  802  21.298  23.833   5.767 -0.1836  0.1142  0.0115
    1DPPC   C3B  803  21.365  23.763   5.397 -0.1787  0.3304 -0.0393
    1DPPC   C4B  804  21.433  24.105   4.995 -0.2078 -0.0357 -0.2013
    1DPPC   NC3  805  26.699   5.094   8.197 -0.2343 -0.2880  0.1725
    1DPPC   PO4  806  26.438   5.357   8.005  0.0015  0.0399 -0.1429
    1DPPC   GL1  807  26.494   5.097   7.687  0.1454 -0.2936  0.0343
    1DPPC   GL2  808  26.809   4.969   7.587 -0.0989 -0.1237  0.3586
    1DPPC   C1A  809  26.521   5.078   7.168 -0.0917 -0.3054  0.1404
    1DPPC   C2A  810  26.802   5.122   6.793 -0.1041  0.1562  0.0352
    1DPPC   C3A  811  26.829   5.489   6.511  0.1495 -0.0826  0.0680
    1DPPC   C4A  812  26.624   5.828   6.368  0.0245 -0.0170 -0.1692
    1DPPC   C1B  813  26.977   4.854   7.169 -0.0542 -0.2127 -0.2239
    1DPPC   C2B  814  27.185   4.815   6.761 -0.1655  0.1058 -0.2470
    1DPPC   C3B  815  27.503   4.795   6.392  0.1336  0.2614  0.1593
    1DPPC   C4B  816  27.601   4.845   5.998 -0.0969  0.0583  0.0888
    1DPPC   NC3  817   9.400   9.942   6.403 -0.0760 -0.0648 -0.0641
    1DPPC   PO4  818   9.205   9.547   6.249  0.0003  0.1942  0.2613
    1DPPC   GL1  819   9.221   9.501   5.788 -0.1551 -0.0276 -0.2893
    1DPPC   GL2  820   9.085   9.814   5.626 -0.3129  0.0743 -0.0636
    1DPPC   C1A  821   9.397   9.187   5.516  0.1344 -0.3389 -0.0306
    1DPPC   C2A  822   9.598   9.046   5.208 -0.1079 -0.1355  0.0101
    1DPPC   C3A  823   9.428   8.959   4.736  0.1273  0.1469 -0.1871
    1DPPC   C4A  824   9.648   8.931   4.264  0.2861 -0.3552  0.1632
    1DPPC   C1B  825   9.223  10.014   5.229  0.1372 -0.0534  0.1452
    1DPPC   C2B  826   9.206  10.028   4.879  0.0049  0.2767 -0.2619
    1DPPC   C3B  827   8.948  10.126   4.629 -0.2436  0.0777  0.1299
    1DPPC   C4B  828   8.445  10.085   4.488 -0.0341  0.1536  0.0772
    1DPPC   NC3  829  17.705   2.013   6.942  0.1150 -0.0421 -0.0456
    1DPPC   PO4  830  18.066   2.098   6.707 -0.2604  0.1530 -0.1867
    1DPPC   GL1  831  18.237   2.152   6.240 -0.2736  0.2037  0.0132
    1DPPC   GL2  832  18.275   2.422   5.973  0.1092  0.1509 -0.3214
    1DPPC   C1A  833  18.584   2.076   5.904 -0.0130 -0.1665 -0.1748
    1DPPC   C2A  834  18.666   2.063   5.438 -0.2338  0.2394  0.2509
    1DPPC   C3A  835  18.721   2.292   4.997 -0.1164  0.1360  0.1452
    1DPPC   C4A  836  18.841   2.667   4.711  0.2642  0.0883  0.1214
    1DPPC   C1B  837  18.293   2.532   5.571 -0.0378  0.1422 -0.0934
    1DPPC   C2B  838  18.302   2.348   5.193  0.1230 -0.2683  0.2771
    1DPPC   C3B  839  18.347   2.426   4.750  0.1011 -0.1550 -0.1711
    1DPPC   C4B  840  18.527   2.357   4.297 -0.2240  0.3285 -0.2056
    1DPPC   NC3  841  14.055  27.395   7.112  0.0005  0.1057 -0.0371
    1DPPC   PO4  842  14.260  27.454   6.638 -0.0175 -0.1318 -0.2102
    1DPPC   GL1  843  14.034  27.204   6.438  0.1024  0.1175  0.0400
    1DPPC   GL2  844  13.959  27.566   6.216 -0.0710  0.1780 -0.1322
    1DPPC   C1A  845  13.923  27.129   5.918  0.2259  0.1911  0.1666
    1DPPC   C2A  846  13.751  27.137   5.523 -0.2029  0.0296 -0.2456
    1DPPC   C3A  847  13.687  27.297   5.154  0.1733 -0.1312  0.0283
    1DPPC   C4A  848  13.736  27.281   4.699 -0.0983 -0.0192 -0.0470
    1DPPC   C1B  849  13.963  27.685   5.776 -0.0617 -0.0640  0.2370
    1DPPC   C2B  850  14.025  27.715   5.284 -0.1219  0.0782  0.2474
    1DPPC   C3B  851  14.142  28.051   5.025 -0.1135  0.1550  0.0916
    1DPPC   C4B  852  14.313  28.473   4.910  0.1789  0.1525 -0.1519
    1DPPC   NC3  853   7.964  25.212   7.359  0.0683  0.1189  0.0279
    1DPPC   PO4  854   7.869  24.860   7.243  0.0200 -0.3030 -0.1595
    1DPPC   GL1  855   7.755  24.642   6.855 -0.0431  0.1535  0.0677
    1DPPC   GL2  856   7.553  24.750   6.675  0.0999 -0.2395  0.1247
    1DPPC   C1A  857   8.092  24.734   6.499 -0.2706  0.1456 -0.0162
    1DPPC   C2A  858   8.099  24.738   6.048  0.0220 -0.1116 -0.1019
    1DPPC   C3A  859   7.991  24.488   5.767  0.0286  0.1801  0.1295
    1DPPC   C4A  860   7.968  24.701   5.522 -0.5544 -0.1353  0.3904
    1DPPC   C1B  861   7.401  25.099   6.412  0.1747 -0.0237  0.1063
    1DPPC   C2B  862   7.313  25.137   6.055  0.2589 -0.0913  0.2108
    1DPPC   C3B  863   7.122  25.056   5.516 -0.0196 -0.0135 -0.0688
    1DPPC   C4B  864   6.793  24.899   5.189 -0.1772  0.4735 -0.1908
    1DPPC   NC3  865  19.784   3.841   7.024 -0.2687  0.0590  0.2602
    1DPPC   PO4  866  19.589   3.421   6.893 -0.1345  0.0925  0.1660
    1DPPC   GL1  867  19.525   3.392   6.465 -0.2072  0.1235  0.2373
    1DPPC   GL2  868  19.267   3.224   6.411 -0.0450 -0.0164  0.2356
    1DPPC   C1A  869  19.533   3.422   5.979 -0.0996  0.1490  0.0670
    1DPPC   C2A  870  19.605   3.095   5.687 -0.1539 -0.1891 -0.4328
    1DPPC   C3A  871  19.849   2.791   5.388 -0.1337 -0.2587 -0.1231
    1DPPC   C4A  872  19.758   2.719   4.998  0.2413  0.0910  0.1814
    1DPPC   C1B  873  19.570   2.931   6.217  0.0012  0.2441  0.0151
    1DPPC   C2B  874  19.917   2.764   5.907  0.3654 -0.1732 -0.1850
    1DPPC   C3B  875  19.974   2.362   5.641 -0.0235 -0.1136  0.0371
    1DPPC   C4B  876  20.109   2.406   5.200  0.0244 -0.2980  0.1192
    1DPPC   NC3  877  26.012  27.287   7.566 -0.1170 -0.0805 -0.2989
    1DPPC   PO4  878  26.451  27.367   7.500  0.0778 -0.3826  0.0458
    1DPPC   GL1  879  26.367  27.539   7.160 -0.0777  0.1722 -0.1758
    1DPPC   GL2  880  26.524  27.924   7.079  0.1424  0.2455 -0.0272
    1DPPC   C1A  881  26.400  27.419   6.746 -0.0946 -0.2506  0.4091
    1DPPC   C2A  882  26.520  27.257   6.324 -0.1733 -0.0668  0.1855
    1DPPC   C3A  883  26.680  27.094   6.006  0.1751 -0.0273 -0.0844
    1DPPC   C4A  884  26.566  26.711   5.792  0.0291  0.2045 -0.0833
    1DPPC   C1B  885  26.541  28.017   6.593 -0.0636 -0.2815  0.2751
    1DPPC   C2B  886  26.509  27.829   6.257  0.0361 -0.0673  0.1516
    1DPPC   C3B  887  26.620  27.641   5.903  0.0838  0.0678 -0.2034
    1DPPC   C4B  888  26.750  27.800   5.392  0.0280 -0.1156 -0.2957
    1DPPC   NC3  889  14.398  24.036   7.311 -0.1584 -0.0270  0.2661
    1DPPC   PO4  890  14.236  24.444   7.108 -0.0931  0.3384  0.1832
    1DPPC   GL1  891  14.286  24.653   6.638 -0.1427 -0.0478 -0.0777
    1DPPC   GL2  892  14.589  24.671   6.479  0.0757  0.1000 -0.0472
    1DPPC   C1A  893  14.109  24.367   6.271  0.3681  0.4522  0.1257
    1DPPC   C2A  894  14.185  24.347   5.811  0.0190 -0.1591 -0.1182
    1DPPC   C3A  895  14.448  24.300   5.323  0.4878  0.1947  0.1128
    1DPPC   C4A  896  14.513  24.262   4.856  0.1531  0.2295  0.3058
    1DPPC   C1B  897  14.572  24.629   6.139  0.4663 -0.0940  0.0705
    1DPPC   C2B  898  14.464  24.746   5.625 -0.1694 -0.0341 -0.1192
    1DPPC   C3B  899  14.681  24.721   5.292 -0.1397 -0.1976 -0.0905
    1DPPC   C4B  900  14.608  24.741   4.860  0.0002 -0.0447  0.0858
    1DPPC   NC3  901   0.044   5.292   8.024 -0.0536  0.0016  0.0207
    1DPPC   PO4  902  -0.268   5.639   7.840  0.2157 -0.0304 -0.2171
    1DPPC   GL1  903  -0.471   5.521   7.518  0.2553 -0.0194 -0.0751
    1DPPC   GL2  904  -0.335   5.290   7.480 -0.0309  0.1305  0.0081
    1DPPC   C1A  905  -0.646   5.615   7.190 -0.1692 -0.1597 -0.1555
    1DPPC   C2A  906  -0.702   5.653   6.717  0.0367 -0.2512 -0.3399
    1DPPC   C3A  907  -0.975   5.696   6.358 -0.4947 -0.1096  0.3353
    1DPPC   C4A  908  -1.352   5.764   6.119 -0.1540 -0.0846 -0.0161
    1DPPC   C1B  909  -0.374   5.183   6.958 -0.2330 -0.0019 -0.0502
    1DPPC   C2B  910  -0.257   5.435   6.638 -0.1740  0.1747  0.1353
    1DPPC   C3B  911  -0.077   5.222   6.386 -0.2038  0.1939  0.1249
    1DPPC   C4B  912   0.370   5.019   6.444 -0.2161 -0.1530  0.0920
    1DPPC   NC3  913   0.231  27.051   7.945  0.1778 -0.1023 -0.0654
    1DPPC   PO4  914   0.381  27.517   7.900  0.0846 -0.2443 -0.2490
    1DPPC   GL1  915   0.418  27.732   7.550  0.2327  0.3347 -0.1211
    1DPPC   GL2  916   0.260  27.502   7.445 -0.2026 -0.0482  0.1086
    1DPPC   C1A  917   0.547  27.864   7.145 -0.0935  0.0400  0.3509
    1DPPC   C2A  918   0.413  27.862   6.746  0.1245  0.0065 -0.1559
    1DPPC   C3A  919   0.408  27.754   6.353 -0.2850  0.0599 -0.0297
    1DPPC   C4A  920   0.309  27.511   5.983 -0.1248  0.1017  0.1677
    1DPPC   C1B  921   0.139  27.580   7.072  0.1557  0.0578 -0.3366
    1DPPC   C2B  922  -0.099  27.660   6.660 -0.1649 -0.0536  0.1073
    1DPPC   C3B  923  -0.194  27.437   6.305 -0.3894 -0.0734  0.0015
    1DPPC   C4B  924  -0.554  27.244   6.106  0.1473 -0.0792  0.3706
    1DPPC   NC3  925  24.475   0.694   7.216 -0.1521 -0.0871 -0.0062
    1DPPC   PO4  926  24.285   1.006   7.326  0.2869  0.0170  0.2419
    1DPPC   GL1  927  23.957   0.853   7.047 -0.1231 -0.2100 -0.1012
    1DPPC   GL2  928  23.985   0.533   6.939  0.0161  0.0782  0.2283
    1DPPC   C1A  929  23.882   0.882   6.505 -0.2493 -0.0053 -0.0575
    1DPPC   C2A  930  23.962   1.232   6.140  0.0835  0.2877 -0.0458
    1DPPC   C3A  931  23.958   1.373   5.859  0.0753 -0.0057 -0.0959
    1DPPC   C4A  932  23.875   1.702   5.617 -0.0223 -0.0090 -0.0269
    1DPPC   C1B  933  23.761   0.354   6.606 -0.0531 -0.1067 -0.1949
    1DPPC   C2B  934  23.774   0.420   6.152 -0.0226 -0.1783 -0.1439
    1DPPC   C3B  935  23.728   0.391   5.708 -0.2109 -0.0364  0.0069
    1DPPC   C4B  936  23.564   0.167   5.267  0.2394 -0.0377  0.0461
    1DPPC   NC3  937  20.620   7.541   6.286 -0.0071  0.0811 -0.0627
    1DPPC   PO4  938  20.461   7.673   5.878 -0.0986 -0.1772  0.0421
    1DPPC   GL1  939  20.193   7.781   5.579 -0.0896  0.1963 -0.2584
    1DPPC   GL2  940  19.869   7.667   5.503 -0.1248  0.0869  0.0249
    1DPPC   C1A  941  20.245   7.551   5.190  0.2657 -0.3165  0.0187
    1DPPC   C2A  942  20.139   7.781   4.760  0.2506  0.0269  0.3707
    1DPPC   C3A  943  20.176   7.920   4.412  0.2119 -0.1513 -0.0415
    1DPPC   C4A  944  19.797   7.874   4.122  0.0770  0.0861 -0.0346
    1DPPC   C1B  945  19.735   7.646   5.098 -0.0546 -0.0175  0.0598
    1DPPC   C2B  946  19.531   7.408   4.870 -0.2113 -0.0240  0.1151
    1DPPC   C3B  947  19.547   7.053   4.683 -0.2139  0.1593 -0.2792
    1DPPC   C4B  948  19.674   6.927   4.396 -0.0014  0.0192 -0.3370
    1DPPC   NC3  949  21.594   9.919   6.200  0.0464 -0.0230  0.0323
    1DPPC   PO4  950  21.242   9.935   5.970 -0.0383  0.1130 -0.4091
    1DPPC   GL1  951  21.485  10.105   5.707  0.0639  0.1039  0.2278
    1DPPC   GL2  952  21.742  10.281   5.790  0.2058  0.0989 -0.0643
    1DPPC   C1A  953  21.449  10.188   5.233 -0.2548 -0.2682  0.1834
    1DPPC   C2A  954  21.478  10.206   4.769 -0.1766  0.0063  0.2012
    1DPPC   C3A  955  21.418  10.456   4.430 -0.0420 -0.1205 -0.0156
    1DPPC   C4A  956  21.372  10.882   4.455 -0.1007  0.0934 -0.3567
    1DPPC   C1B  957  21.990  10.044   5.579 -0.0333 -0.2263 -0.1691
    1DPPC   C2B  958  22.019  10.115   5.080  0.2537 -0.1125 -0.1093
    1DPPC   C3B  959  22.411  10.242   4.850  0.2695 -0.0000 -0.0598
    1DPPC   C4B  960  22.735  10.397   4.835  0.3164  0.0037 -0.2128
    1DPPC   NC3  961  16.241   6.953   5.404 -0.4805 -0.3170  0.0197
    1DPPC   PO4  962  16.196   6.511   5.354 -0.3279  0.0903  0.0414
    1DPPC   GL1  963  16.445   6.697   4.991 -0.0983 -0.1895 -0.0890
    1DPPC   GL2  964  16.638   7.048   5.002 -0.0168  0.3450  0.0760
    1DPPC   C1A  965  16.390   6.495   4.515  0.2539  0.2458  0.1205
    1DPPC   C2A  966  16.407   6.550   4.202 -0.0179 -0.0503 -0.0383
    1DPPC   C3A  967  16.731   6.682   3.906  0.1753  0.1698 -0.3702
    1DPPC   C4A  968  16.871   6.506   3.478 -0.0926 -0.2349 -0.1961
    1DPPC   C1B  969  17.005   7.041   4.688 -0.0574 -0.0762  0.0687
    1DPPC   C2B  970  17.224   6.830   4.441 -0.0627 -0.0291 -0.0843
    1DPPC   C3B  971  17.295   6.672   3.981  0.0780 -0.0922 -0.1684
    1DPPC   C4B  972  17.203   6.291   3.804 -0.1102 -0.0883 -0.2145
    1DPPC   NC3  973  25.822   0.587   8.365  0.0751 -0.0645  0.2634
    1DPPC   PO4  974  25.518   0.543   7.852 -0.1458 -0.1621 -0.0137
    1DPPC   GL1  975  25.825   0.548   7.426  0.0283 -0.0862 -0.0046
    1DPPC   GL2  976  25.695   0.291   7.183 -0.2248  0.1293  0.1350
    1DPPC   C1A  977  26.177   0.639   7.095 -0.0196 -0.3600  0.2074
    1DPPC   C2A  978  26.344   0.560   6.651  0.3243  0.0530  0.1055
    1DPPC   C3A  979  26.703   0.764   6.371 -0.0919  0.1704  0.2294
    1DPPC   C4A  980  26.832   1.109   6.166  0.2393  0.2930  0.2931
    1DPPC   C1B  981  25.902   0.297   6.770 -0.1113  0.1669  0.0268
    1DPPC   C2B  982  25.883   0.484   6.402  0.2381 -0.0707 -0.0392
    1DPPC   C3B  983  26.079   0.491   6.059 -0.0268 -0.0711 -0.0088
    1DPPC   C4B  984  26.364   0.476   5.667 -0.3679 -0.0600  0.1293
    1DPPC   NC3  985  16.922   1.502   6.596  0.3303  0.0100  0.0516
    1DPPC   PO4  986  16.442   1.431   6.491  0.3969  0.1876  0.0378
    1DPPC   GL1  987  16.568   1.417   6.067 -0.1439  0.0877  0.1851
    1DPPC   GL2  988  16.755   1.622   6.119 -0.1488 -0.2799 -0.4280
    1DPPC   C1A  989  16.451   1.488   5.661 -0.0059  0.2476  0.2152
    1DPPC   C2A  990  16.567   1.583   5.244  0.0087 -0.3367 -0.0734
    1DPPC   C3A  991  16.801   1.790   4.975 -0.0995  0.0508 -0.0961
    1DPPC   C4A  992  17.119   2.032   4.903  0.0661  0.2848  0.2612
    1DPPC   C1B  993  16.907   1.666   5.640  0.0260  0.1777  0.0426
    1DPPC   C2B  994  17.062   1.643   5.377  0.1297 -0.0723  0.1064
    1DPPC   C3B  995  17.351   1.578   5.038 -0.1391 -0.0039  0.0451
    1DPPC   C4B  996  17.776   1.417   4.983  0.0992 -0.1035 -0.3230
    1DPPC   NC3  997  22.687   5.485   6.971 -0.2513  0.0019  0.0963
    1DPPC   PO4  998  22.566   5.733   6.681 -0.0307 -0.2150  0.1041
    1DPPC   GL1  999  22.597   5.715   6.215  0.0539  0.0151  0.0244
    1DPPC   GL2 1000  22.702   5.917   6.032  0.1799 -0.0034 -0.0377
    1DPPC   C1A 1001  22.817   5.386   5.858 -0.3193  0.0080  0.0967
    1DPPC   C2A 1002  22.982   4.904   5.748  0.0643 -0.0492 -0.2132
    1DPPC   C3A 1003  23.381   4.756   5.755  0.0456  0.1703 -0.2746
    1DPPC   C4A 1004  23.796   5.087   5.742  0.4341 -0.2279 -0.5351
    1DPPC   C1B 1005  22.751   6.017   5.701  0.0700  0.0360  0.1402
    1DPPC   C2B 1006  22.744   6.332   5.410 -0.0266  0.0633 -0.0297
    1DPPC   C3B 1007  22.563   6.570   5.099  0.0623 -0.1997 -0.0373
    1DPPC   C4B 1008  22.854   6.859   4.695  0.0319 -0.2645 -0.1160
    1DPPC   NC3 1009   6.500  14.798   6.468 -0.0228  0.2157 -0.3738
    1DPPC   PO4 1010   6.837  14.667   6.431 -0.0261  0.3409  0.0184
    1DPPC   GL1 1011   6.700  14.528   6.048  0.1338  0.1272  0.1798
    1DPPC   GL2 1012   6.524  14.325   6.068 -0.0776  0.2987  0.1093
    1DPPC   C1A 1013   6.891  14.176   5.755 -0.0814  0.0699  0.0539
    1DPPC   C2A 1014   6.960  14.245   5.275  0.1908 -0.4250 -0.0109
    1DPPC   C3A 1015   7.253  14.137   4.874 -0.2074 -0.1091  0.0813
    1DPPC   C4A 1016   7.477  13.831   4.623 -0.0072  0.1099 -0.0597
    1DPPC   C1B 1017   6.462  14.319   5.621  0.2329  0.0885 -0.1178
    1DPPC   C2B 1018   6.415  14.487   5.231 -0.2431 -0.1463 -0.3352
    1DPPC   C3B 1019   6.714  14.597   4.923  0.0123 -0.1250  0.0921
    1DPPC   C4B 1020   6.928  14.410   4.552  0.0480 -0.0805 -0.1770
    1DPPC   NC3 1021   1.384   4.364   8.078 -0.1587 -0.1532  0.0717
    1DPPC   PO4 1022   1.741   4.109   7.895  0.0292  0.1113 -0.2156
    1DPPC   GL1 1023   1.587   4.344   7.581 -0.0696 -0.1264 -0.0629
    1DPPC   GL2 1024   1.233   4.452   7.624 -0.1734 -0.4414 -0.2028
    1DPPC   C1A 1025   1.742   4.227   7.202  0.2211  0.3416 -0.0941
    1DPPC   C2A 1026   2.097   4.183   6.920  0.3320  0.3722 -0.0852
    1DPPC   C3A 1027   2.386   4.120   6.499  0.0574  0.5074  0.2183
    1DPPC   C4A 1028   2.730   4.231   6.226  0.0303 -0.0873 -0.1481
    1DPPC   C1B 1029   0.975   4.506   7.252  0.1184  0.1077 -0.1368
    1DPPC   C2B 1030   1.010   4.292   6.843 -0.2393 -0.1551 -0.2775
    1DPPC   C3B 1031   0.839   4.297   6.461  0.0638 -0.0483  0.0184
    1DPPC   C4B 1032   0.783   4.024   6.149 -0.0902  0.1723  0.1299
    1DPPC   NC3 1033  18.903  19.519   6.486 -0.1315  0.0541 -0.2585
    1DPPC   PO4 1034  19.039  19.470   6.090  0.0363  0.1628 -0.2502
    1DPPC   GL1 1035  19.188  19.326   5.794 -0.2748 -0.1494  0.1866
    1DPPC   GL2 1036  19.110  19.534   5.567  0.4239  0.1537 -0.2770
    1DPPC   C1A 1037  19.493  19.153   5.467 -0.0927  0.2091 -0.0114
    1DPPC   C2A 1038  19.662  18.872   5.224  0.3402  0.3172 -0.0804
    1DPPC   C3A 1039  19.714  18.452   5.188  0.1333  0.1283  0.1290
    1DPPC   C4A 1040  19.601  18.289   4.800  0.0561 -0.1286  0.2054
    1DPPC   C1B 1041  19.263  19.527   5.169  0.1472 -0.3482 -0.2864
    1DPPC   C2B 1042  19.332  19.117   4.917 -0.2974 -0.0903 -0.3104
    1DPPC   C3B 1043  19.285  18.714   4.715 -0.0084 -0.2269 -0.0103
    1DPPC   C4B 1044  18.815  18.536   4.572  0.1697 -0.4833 -0.3792
    1DPPC   NC3 1045  20.342  24.626   6.874 -0.0688 -0.0696  0.2705
    1DPPC   PO4 1046  20.584  24.281   6.667  0.1912 -0.1908 -0.2072
    1DPPC   GL1 1047  20.669  24.481   6.265 -0.3163  0.0619 -0.0318
    1DPPC   GL2 1048  20.453  24.258   6.161 -0.1018 -0.0424 -0.0291
    1DPPC   C1A 1049  20.692  24.610   5.830  0.1889 -0.2381  0.1529
    1DPPC   C2A 1050  20.731  24.546   5.430  0.0531  0.0503 -0.0891
    1DPPC   C3A 1051  20.632  24.333   5.078 -0.1701  0.0438  0.0182
    1DPPC   C4A 1052  20.928  24.140   4.704 -0.0585 -0.0560 -0.3228
    1DPPC   C1B 1053  20.216  24.174   5.774 -0.1253  0.0364 -0.0147
    1DPPC   C2B 1054  20.311  24.057   5.328  0.2221 -0.3648  0.3193
    1DPPC   C3B 1055  20.405  23.833   4.938  0.1670 -0.1488  0.0141
    1DPPC   C4B 1056  20.357  23.503   4.531 -0.1344 -0.0354 -0.2935
    1DPPC   NC3 1057  14.530   2.373   6.826  0.0497 -0.0114  0.0830
    1DPPC   PO4 1058  14.234   1.963   6.824  0.0548  0.2064 -0.0615
    1DPPC   GL1 1059  14.345   1.780   6.428 -0.1016  0.0522  0.2413
    1DPPC   GL2 1060  14.260   1.436   6.266  0.0511  0.1894 -0.1321
    1DPPC   C1A 1061  14.299   1.745   5.907  0.0930 -0.1530 -0.0725
    1DPPC   C2A 1062  14.185   1.990   5.531  0.0135 -0.0082 -0.0203
    1DPPC   C3A 1063  14.132   2.235   5.183  0.2120 -0.3203 -0.0153
    1DPPC   C4A 1064  13.885   2.572   5.055 -0.1086 -0.1653  0.0491
    1DPPC   C1B 1065  14.436   1.281   5.950  0.0055 -0.3276  0.0810
    1DPPC   C2B 1066  14.405   1.052   5.488 -0.0310 -0.2910 -0.3500
    1DPPC   C3B 1067  14.101   0.983   5.226 -0.0377 -0.1147  0.0826
    1DPPC   C4B 1068  13.920   1.104   4.824 -0.0686  0.3150 -0.3360
    1DPPC   NC3 1069   0.835  16.452   7.417  0.4319  0.2263 -0.1892
    1DPPC   PO4 1070   0.897  15.975   7.446 -0.2993  0.2961 -0.0707
    1DPPC   GL1 1071   0.987  16.159   7.055  0.2084 -0.1556  0.0048
    1DPPC   GL2 1072   1.166  16.444   6.992 -0.0355 -0.0574  0.0251
    1DPPC   C1A 1073   0.873  16.405   6.588 -0.0513  0.1459 -0.1652
    1DPPC   C2A 1074   0.873  16.846   6.399 -0.0515 -0.0797  0.0134
    1DPPC   C3A 1075   0.931  16.883   5.980  0.0851 -0.0187  0.2629
    1DPPC   C4A 1076   1.116  16.681   5.700  0.0709  0.1893 -0.0798
    1DPPC   C1B 1077   1.285  16.628   6.578 -0.0737  0.0078  0.0195
    1DPPC   C2B 1078   1.354  16.583   6.215 -0.0957  0.0788  0.2337
    1DPPC   C3B 1079   1.537  16.329   5.868 -0.0749 -0.1410  0.0414
    1DPPC   C4B 1080   1.329  16.317   5.370 -0.0866 -0.3112 -0.0781
    1DPPC   NC3 1081   6.788  15.792   6.061  0.2121 -0.1283 -0.1114
    1DPPC   PO4 1082   6.422  15.690   6.289  0.0129  0.0232  0.1546
    1DPPC   GL1 1083   6.226  15.656   5.903 -0.1350 -0.3435 -0.1420
    1DPPC   GL2 1084   6.249  15.876   5.795  0.1110  0.1640  0.0797
    1DPPC   C1A 1085   6.298  15.518   5.425 -0.0625  0.0192  0.1980
    1DPPC   C2A 1086   6.471  15.451   5.034 -0.3737  0.0542 -0.1703
    1DPPC   C3A 1087   6.135  15.353   4.791  0.0518 -0.2529 -0.0368
    1DPPC   C4A 1088   5.811  15.085   4.635 -0.0450 -0.1888 -0.1876
    1DPPC   C1B 1089   6.085  16.363   5.717  0.1020 -0.2265 -0.0726
    1DPPC   C2B 1090   5.928  16.728   5.598 -0.0539  0.0700  0.1412
    1DPPC   C3B 1091   6.081  17.182   5.699  0.0309 -0.0862 -0.0979
    1DPPC   C4B 1092   6.268  17.596   5.668 -0.2272 -0.1189 -0.0940
    1DPPC   NC3 1093  18.413  24.641   6.829 -0.0528 -0.2601 -0.2162
    1DPPC   PO4 1094  18.634  24.241   6.704 -0.3277  0.0762  0.0286
    1DPPC   GL1 1095  18.489  24.448   6.370  0.1595 -0.0101 -0.0955
    1DPPC   GL2 1096  18.135  24.395   6.204  0.2389 -0.1573 -0.0585
    1DPPC   C1A 1097  18.586  24.606   5.889 -0.2946 -0.0965 -0.0622
    1DPPC   C2A 1098  18.848  24.498   5.528  0.3025  0.1021  0.3605
    1DPPC   C3A 1099  18.830  24.235   5.133 -0.0071 -0.0843  0.2126
    1DPPC   C4A 1100  18.871  23.943   4.694 -0.0812  0.0294  0.1533
    1DPPC   C1B 1101  18.053  24.472   5.711 -0.0114  0.2269  0.1955
    1DPPC   C2B 1102  18.361  24.368   5.427  0.0379  0.0743  0.1976
    1DPPC   C3B 1103  18.288  24.331   4.978  0.0412  0.1219 -0.1993
    1DPPC   C4B 1104  18.148  24.282   4.484  0.0680 -0.1995 -0.3712
    1DPPC   NC3 1105  15.518  12.706   5.968  0.3063 -0.2996  0.0863
    1DPPC   PO4 1106  15.563  12.255   5.850 -0.0549  0.1904  0.1041
    1DPPC   GL1 1107  15.366  12.024   5.491 -0.2890 -0.2921 -0.1949
    1DPPC   GL2 1108  15.440  11.696   5.318 -0.0911  0.1344  0.0083
    1DPPC   C1A 1109  15.385  12.294   5.128 -0.1248 -0.0593 -0.2307
    1DPPC   C2A 1110  15.529  12.279   4.682 -0.1119 -0.0036 -0.0773
    1DPPC   C3A 1111  15.731  12.481   4.443  0.2164  0.2751  0.1600
    1DPPC   C4A 1112  15.994  12.671   4.152  0.0977  0.2477 -0.0618
    1DPPC   C1B 1113  15.349  11.860   4.939 -0.0363 -0.2824  0.1859
    1DPPC   C2B 1114  15.128  12.021   4.638  0.0901  0.2314  0.3083
    1DPPC   C3B 1115  14.811  12.161   4.350  0.1606  0.0930 -0.0982
    1DPPC   C4B 1116  14.847  12.457   4.022  0.2948  0.1389  0.1251
    1DPPC   NC3 1117  11.805  19.863   7.031 -0.3526 -0.0416  0.2157
    1DPPC   PO4 1118  12.012  20.270   6.940 -0.0178  0.1289 -0.2222
    1DPPC   GL1 1119  12.148  20.512   6.532  0.2855  0.3457  0.0204
    1DPPC   GL2 1120  12.372  20.693   6.625 -0.2154 -0.0307  0.0295
    1DPPC   C1A 1121  12.167  20.390   6.022 -0.0933 -0.2967 -0.1236
    1DPPC   C2A 1122  11.826  20.201   5.784 -0.1466  0.0221  0.2408
    1DPPC   C3A 1123  11.521  20.060   5.438  0.1155  0.0555  0.0676
    1DPPC   C4A 1124  11.182  20.148   5.205  0.1969  0.1531 -0.0359
    1DPPC   C1B 1125  12.654  20.809   6.400 -0.1174  0.2105 -0.0023
    1DPPC   C2B 1126  12.702  20.991   6.032  0.0004  0.0578 -0.0632
    1DPPC   C3B 1127  12.639  21.167   5.630 -0.0379 -0.0577 -0.0842
    1DPPC   C4B 1128  12.498  20.979   5.199  0.1936 -0.1534 -0.1248
    1DPPC   NC3 1129  12.674  21.347   7.078 -0.1075  0.2652 -0.3014
    1DPPC   PO4 1130  12.303  21.161   6.886 -0.1244  0.2169  0.0264
    1DPPC   GL1 1131  12.169  21.045   6.338 -0.1938  0.0527  0.3095
    1DPPC   GL2 1132  11.896  21.047   6.285 -0.1666 -0.1196  0.0545
    1DPPC   C1A 1133  12.226  20.961   5.933 -0.0647 -0.1180  0.0194
    1DPPC   C2A 1134  12.131  21.160   5.592 -0.1194 -0.0021  0.0302
    1DPPC   C3A 1135  11.979  21.371   5.198 -0.4149  0.0786 -0.0119
    1DPPC   C4A 1136  11.737  21.280   4.904 -0.2427 -0.0760  0.1440
    1DPPC   C1B 1137  11.764  21.206   5.868  0.3477  0.1565 -0.0282
    1DPPC   C2B 1138  11.619  21.014   5.452 -0.2083  0.0775  0.0243
    1DPPC   C3B 1139  11.303  21.016   5.001  0.0942  0.2408  0.0861
    1DPPC   C4B 1140  11.144  20.617   4.925 -0.0356  0.1557  0.0087
    1DPPC   NC3 1141  13.316  28.325   7.431 -0.1514  0.0589  0.0235
    1DPPC   PO4 1142  13.263  28.451   6.912  0.3548 -0.3474  0.3315
    1DPPC   GL1 1143  13.305  28.407   6.461 -0.1002 -0.1172  0.0361
    1DPPC   GL2 1144  13.334  28.196   6.330  0.1315 -0.1604  0.3241
    1DPPC   C1A 1145  13.086  28.638   6.101  0.0889 -0.1000  0.0674
    1DPPC   C2A 1146  13.060  28.593   5.610 -0.2778  0.2179 -0.0387
    1DPPC   C3A 1147  12.920  28.495   5.221 -0.0194 -0.0869 -0.0002
    1DPPC   C4A 1148  12.777  28.722   4.802  0.1367 -0.1533  0.0409
    1DPPC   C1B 1149  13.362  28.222   5.917  0.0070 -0.2536  0.2671
    1DPPC   C2B 1150  13.183  28.128   5.475 -0.3569 -0.0162 -0.1674
    1DPPC   C3B 1151  12.989  28.009   5.115  0.0189  0.0040 -0.0830
    1DPPC   C4B 1152  12.675  28.022   4.891 -0.1033  0.0513  0.0536
    1DPPC   NC3 1153  11.533  21.213   6.715  0.0210 -0.2664  0.1211
    1DPPC   PO4 1154  11.087  21.277   6.929  0.4413 -0.0008 -0.0055
    1DPPC   GL1 1155  10.943  21.187   6.567  0.1244 -0.1115 -0.1445
    1DPPC   GL2 1156  11.158  20.935   6.496  0.2773 -0.0252  0.2553
    1DPPC   C1A 1157  10.926  21.286   6.180 -0.0657 -0.0309  0.0201
    1DPPC   C2A 1158  11.171  21.292   5.809  0.0488  0.1287 -0.1414
    1DPPC   C3A 1159  11.525  21.464   5.503 -0.0917 -0.0757 -0.3376
    1DPPC   C4A 1160  11.586  21.802   5.199  0.1738  0.0688  0.0532
    1DPPC   C1B 1161  10.813  20.811   6.131  0.0135 -0.1701  0.0349
    1DPPC   C2B 1162  10.828  20.850   5.674 -0.0973  0.0829 -0.0435
    1DPPC   C3B 1163  10.835  20.447   5.424 -0.1236 -0.0390  0.0374
    1DPPC   C4B 1164  10.421  20.267   5.203  0.0703 -0.1591  0.0977
    1DPPC   NC3 1165   5.004  20.759   7.351  0.0202 -0.1949  0.0921
    1DPPC   PO4 1166   4.626  20.593   7.352 -0.0989  0.1967 -0.0924
    1DPPC   GL1 1167   4.791  20.575   6.859 -0.1903 -0.0529  0.0308
    1DPPC   GL2 1168   5.135  20.881   6.882  0.1108 -0.1436  0.0944
    1DPPC   C1A 1169   4.655  20.818   6.382 -0.1966 -0.0113  0.0378
    1DPPC   C2A 1170   4.492  20.791   6.102 -0.1128 -0.0186 -0.0960
    1DPPC   C3A 1171   4.314  20.592   5.679  0.0646  0.2253 -0.0765
    1DPPC   C4A 1172   4.095  20.845   5.310  0.2056 -0.3069 -0.1937
    1DPPC   C1B 1173   5.109  20.746   6.474 -0.2195 -0.0580  0.0164
    1DPPC   C2B 1174   5.096  20.685   6.079 -0.0051  0.0347  0.1890
    1DPPC   C3B 1175   4.820  20.487   5.731  0.1814 -0.0559 -0.2506
    1DPPC   C4B 1176   4.484  20.144   5.621 -0.1544  0.1190  0.2644
    1DPPC   NC3 1177  15.920  27.452   7.314 -0.1055 -0.0216  0.4763
    1DPPC   PO4 1178  15.898  27.592   6.848  0.0908 -0.2943  0.1717
    1DPPC   GL1 1179  15.825  27.421   6.418 -0.0034  0.1224 -0.1532
    1DPPC   GL2 1180  15.670  27.533   6.117 -0.1631 -0.2558 -0.1870
    1DPPC   C1A 1181  15.982  27.142   6.041  0.1267 -0.1923  0.0381
    1DPPC   C2A 1182  16.034  26.829   5.829  0.1738  0.0911  0.1510
    1DPPC   C3A 1183  16.083  26.545   5.584  0.1502 -0.1383 -0.1381
    1DPPC   C4A 1184  15.967  26.427   5.219  0.0643  0.1984  0.1625
    1DPPC   C1B 1185  15.629  27.285   5.714 -0.0007 -0.1090  0.0083
    1DPPC   C2B 1186  15.639  26.906   5.470 -0.0929 -0.7118 -0.0550
    1DPPC   C3B 1187  15.688  26.802   5.059 -0.0603 -0.2090 -0.0023
    1DPPC   C4B 1188  15.647  26.670   4.710 -0.2398  0.1028  0.4063
    1DPPC   NC3 1189   4.769  14.407   6.988 -0.2710 -0.0993  0.0539
    1DPPC   PO4 1190   5.168  14.622   6.699 -0.0511 -0.0377 -0.2011
    1DPPC   GL1 1191   4.841  14.438   6.503  0.2074  0.0395  0.0258
    1DPPC   GL2 1192   4.501  14.493   6.467 -0.0960 -0.1540 -0.0608
    1DPPC   C1A 1193   4.707  14.508   6.033  0.2799  0.1505 -0.0419
    1DPPC   C2A 1194   4.657  14.404   5.665 -0.0979 -0.0858  0.2172
    1DPPC   C3A 1195   4.611  14.395   5.276  0.2995 -0.0624  0.1313
    1DPPC   C4A 1196   4.465  14.466   4.814  0.1084  0.1406 -0.0940
    1DPPC   C1B 1197   4.280  14.204   6.178  0.1171 -0.0148 -0.2068
    1DPPC   C2B 1198   4.178  14.354   5.840  0.1228 -0.0301 -0.0221
    1DPPC   C3B 1199   4.086  14.236   5.372 -0.1478  0.0697 -0.1158
    1DPPC   C4B 1200   4.349  13.976   5.104 -0.3381 -0.2160  0.2764
    1DPPC   NC3 1201  16.506  11.761   6.346  0.2871  0.2068  0.0785
    1DPPC   PO4 1202  16.835  12.129   6.204  0.0304  0.3528 -0.2382
    1DPPC   GL1 1203  16.834  12.216   5.773 -0.3654 -0.0931 -0.0218
    1DPPC   GL2 1204  17.058  12.462   5.779 -0.3260  0.1278 -0.2815
    1DPPC   C1A 1205  16.968  12.333   5.290 -0.0736 -0.1248 -0.1685
    1DPPC   C2A 1206  16.935  12.683   5.033 -0.2950 -0.1277 -0.0747
    1DPPC   C3A 1207  17.113  12.674   4.631 -0.3808 -0.0975 -0.0290
    1DPPC   C4A 1208  16.974  12.561   4.177 -0.1039  0.1727 -0.1083
    1DPPC   C1B 1209  16.890  12.769   5.508  0.0522  0.1061  0.2688
    1DPPC   C2B 1210  17.004  13.124   5.290  0.2100  0.0132  0.1823
    1DPPC   C3B 1211  17.009  13.436   5.109  0.0440 -0.2856  0.1441
    1DPPC   C4B 1212  16.966  13.428   4.692  0.2614  0.0696  0.1814
    1DPPC   NC3 1213   9.835  13.259   5.778  0.2440 -0.3102 -0.1283
    1DPPC   PO4 1214   9.438  13.292   5.538  0.0405  0.0166  0.0122
    1DPPC   GL1 1215   9.148  13.057   5.272  0.0682 -0.1807 -0.2073
    1DPPC   GL2 1216   8.831  13.264   5.310 -0.1308  0.3105  0.1615
    1DPPC   C1A 1217   9.132  12.784   5.018 -0.2261  0.0992 -0.2403
    1DPPC   C2A 1218   9.033  12.703   4.576 -0.3013  0.1240 -0.0268
    1DPPC   C3A 1219   8.890  12.685   4.186  0.0401 -0.3191  0.0494
    1DPPC   C4A 1220   8.782  12.446   3.834 -0.0927  0.0848 -0.2370
    1DPPC   C1B 1221   8.782  13.109   4.914  0.0444 -0.0959 -0.2605
    1DPPC   C2B 1222   8.733  13.062   4.496  0.1319 -0.1258 -0.0378
    1DPPC   C3B 1223   8.811  13.305   4.162 -0.1233 -0.1173  0.2173
    1DPPC   C4B 1224   8.873  13.545   3.725 -0.3991 -0.0803 -0.1169
    1DPPC   NC3 1225  22.081  27.009   7.193 -0.0445 -0.1754  0.0379
    1DPPC   PO4 1226  21.684  27.328   7.060 -0.1528 -0.2535  0.0221
    1DPPC   GL1 1227  21.743  27.563   6.619  0.1500 -0.2150  0.2970
    1DPPC   GL2 1228  21.845  27.900   6.580 -0.3705  0.0827 -0.1664
    1DPPC   C1A 1229  21.540  27.468   6.278  0.2602  0.2225 -0.0799
    1DPPC   C2A 1230  21.465  27.399   5.847  0.1424  0.2999  0.1906
    1DPPC   C3A 1231  21.452  27.518   5.535  0.0809  0.0032  0.0262
    1DPPC   C4A 1232  21.612  27.532   5.096  0.0963 -0.0570  0.2642
    1DPPC   C1B 1233  22.069  27.727   6.153  0.0224 -0.3108  0.1208
    1DPPC   C2B 1234  22.445  27.837   5.917  0.0535 -0.2029 -0.1011
    1DPPC   C3B 1235  22.700  27.739   5.730  0.1395 -0.2160 -0.2149
    1DPPC   C4B 1236  22.778  27.868   5.277  0.0607  0.0520  0.2544
    1DPPC   NC3 1237   8.004  14.304   5.894  0.3918 -0.1540 -0.0200
    1DPPC   PO4 1238   8.230  14.556   6.110  0.1565  0.0560  0.0058
    1DPPC   GL1 1239   8.121  14.725   5.620  0.1959  0.0020  0.1629
    1DPPC   GL2 1240   8.286  14.958   5.495  0.1705  0.1373  0.1786
    1DPPC   C1A 1241   8.045  14.649   5.144  0.1011 -0.1818 -0.0781
    1DPPC   C2A 1242   8.024  14.620   4.637  0.0265 -0.0877  0.1249
    1DPPC   C3A 1243   7.885  14.315   4.365  0.0860  0.4453  0.0436
    1DPPC   C4A 1244   8.055  14.120   4.154 -0.0280 -0.3626 -0.0753
    1DPPC   C1B 1245   8.259  15.097   5.036 -0.0270 -0.0200 -0.0784
    1DPPC   C2B 1246   8.280  15.085   4.538 -0.0617  0.0645  0.0193
    1DPPC   C3B 1247   8.041  15.253   4.199  0.1864  0.2676 -0.3551
    1DPPC   C4B 1248   8.111  15.137   3.744 -0.0104  0.0620  0.1303
    1DPPC   NC3 1249  15.558  11.714   5.868 -0.0609 -0.2785  0.1732
    1DPPC   PO4 1250  15.989  11.430   5.892  0.4027  0.2178 -0.0951
    1DPPC   GL1 1251  15.876  11.570   5.533  0.1039 -0.0322 -0.1573
    1DPPC   GL2 1252  15.894  11.946   5.491 -0.0312 -0.4767  0.4301
    1DPPC   C1A 1253  15.852  11.363   5.128  0.1214  0.0504 -0.1472
    1DPPC   C2A 1254  15.762  11.427   4.618 -0.3487 -0.0233  0.2575
    1DPPC   C3A 1255  15.512  11.271   4.413 -0.0767  0.2529 -0.1240
    1DPPC   C4A 1256  15.673  10.874   4.269 -0.0878 -0.0725 -0.0070
    1DPPC   C1B 1257  15.910  11.955   5.110  0.1944 -0.0805 -0.1348
    1DPPC   C2B 1258  15.940  11.954   4.638  0.1614  0.2008 -0.2033
    1DPPC   C3B 1259  15.963  11.709   4.258  0.0972 -0.1185  0.3662
    1DPPC   C4B 1260  15.744  11.284   4.009 -0.1313 -0.0105 -0.1697
    1DPPC   NC3 1261  16.234   7.700   5.717 -0.0638 -0.2058  0.1398
    1DPPC   PO4 1262  15.979   7.475   5.467  0.0234 -0.1793  0.1655
    1DPPC   GL1 1263  16.010   7.545   5.063  0.1326 -0.0491  0.0161
    1DPPC   GL2 1264  16.320   7.442   5.081  0.1132 -0.0063 -0.0714
    1DPPC   C1A 1265  15.910   7.512   4.744 -0.3860 -0.0445  0.2853
    1DPPC   C2A 1266  16.033   7.544   4.427 -0.0053 -0.1608  0.3219
    1DPPC   C3A 1267  15.932   7.304   4.038  0.0645 -0.0628 -0.1652
    1DPPC   C4A 1268  16.068   6.905   3.993 -0.0137 -0.0623  0.0242
    1DPPC   C1B 1269  16.410   7.528   4.719  0.1054  0.0450  0.1685
    1DPPC   C2B 1270  16.538   7.548   4.207 -0.1602  0.3269  0.0992
    1DPPC   C3B 1271  16.789   7.535   3.891 -0.0811  0.2716  0.0726
    1DPPC   C4B 1272  17.243   7.505   3.662  0.1969  0.2131 -0.1029
    1DPPC   NC3 1273  16.700   4.754   6.127 -0.1113  0.3583  0.2698
    1DPPC   PO4 1274  16.312   4.664   5.867 -0.0106 -0.1768  0.3191
    1DPPC   GL1 1275  16.198   4.960   5.512  0.3211  0.2649  0.1633
    1DPPC   GL2 1276  16.129   5.275   5.574 -0.2112 -0.1080  0.1849
    1DPPC   C1A 1277  16.166   4.980   5.072 -0.3013  0.0261  0.1782
    1DPPC   C2A 1278  16.079   4.847   4.673 -0.0947 -0.0756  0.2586
    1DPPC   C3A 1279  16.095   4.749   4.246 -0.0760 -0.1709 -0.1201
    1DPPC   C4A 1280  16.061   4.744   3.833  0.1475  0.1568  0.0299
    1DPPC   C1B 1281  16.212   5.470   5.151 -0.1324  0.0410  0.0888
    1DPPC   C2B 1282  16.154   5.526   4.692  0.2626  0.1124 -0.1391
    1DPPC   C3B 1283  16.314   5.591   4.343 -0.2905  0.1626 -0.1988
    1DPPC   C4B 1284  16.094   5.658   3.947  0.2339  0.3483  0.0869
    1DPPC   NC3 1285  21.582   5.335   7.073  0.1499  0.2334 -0.1726
    1DPPC   PO4 1286  21.285   5.457   6.744 -0.0083 -0.1190 -0.0488
    1DPPC   GL1 1287  21.264   5.527   6.273 -0.0757  0.0708 -0.1923
    1DPPC   GL2 1288  20.974   5.424   6.137  0.2789 -0.1899 -0.2027
    1DPPC   C1A 1289  21.382   5.450   5.829 -0.0528 -0.4722  0.0070
    1DPPC   C2A 1290  21.315   5.456   5.372 -0.2423  0.0900 -0.2018
    1DPPC   C3A 1291  21.272   5.695   4.997  0.3420 -0.2311  0.3767
    1DPPC   C4A 1292  21.458   5.665   4.689  0.1752  0.0673 -0.2181
    1DPPC   C1B 1293  20.856   5.546   5.689 -0.3041 -0.3820  0.0908
    1DPPC   C2B 1294  20.822   5.618   5.290  0.0051 -0.0199  0.0992
    1DPPC   C3B 1295  20.742   5.649   4.799  0.0335 -0.0393 -0.3138
    1DPPC   C4B 1296  20.953   5.939   4.529  0.0512 -0.1403 -0.3273
    1DPPC   NC3 1297   7.188  10.406   6.412  0.2415 -0.0073 -0.2675
    1DPPC   PO4 1298   6.930   9.939   6.417 -0.2472 -0.2344 -0.5037
    1DPPC   GL1 1299   6.787   9.704   6.086 -0.0554 -0.1510 -0.2558
    1DPPC   GL2 1300   6.994   9.495   5.974 -0.2549 -0.0032  0.1917
    1DPPC   C1A 1301   6.505   9.280   6.116 -0.1790 -0.0454 -0.3727
    1DPPC   C2A 1302   6.240   9.025   5.823  0.1509  0.3549 -0.0862
    1DPPC   C3A 1303   5.880   8.808   5.545  0.2319 -0.2311  0.0538
    1DPPC   C4A 1304   5.460   8.903   5.340  0.0918  0.1233  0.1798
    1DPPC   C1B 1305   6.825   9.263   5.610  0.2371 -0.2644  0.1954
    1DPPC   C2B 1306   6.585   9.060   5.380 -0.2084 -0.0212 -0.2030
    1DPPC   C3B 1307   6.238   9.069   5.276  0.0440 -0.1873  0.1845
    1DPPC   C4B 1308   5.779   9.261   5.131  0.0566 -0.0276  0.0838
    1DPPC   NC3 1309   6.907  13.348   6.088 -0.0591  0.0922  0.2497
    1DPPC   PO4 1310   6.528  13.274   6.139 -0.0272 -0.0829  0.0136
    1DPPC   GL1 1311   6.608  13.167   5.755  0.3764 -0.2185  0.0662
    1DPPC   GL2 1312   6.531  12.813   5.606 -0.0551  0.0413 -0.0678
    1DPPC   C1A 1313   6.762  13.333   5.374 -0.0799  0.1465 -0.2627
    1DPPC   C2A 1314   6.877  13.234   4.980  0.1725 -0.0892 -0.3155
    1DPPC   C3A 1315   6.837  13.365   4.579  0.5733  0.0261  0.0766
    1DPPC   C4A 1316   6.769  13.206   4.118  0.1866  0.2073  0.1813
    1DPPC   C1B 1317   6.291  13.108   5.368 -0.3035  0.1894  0.0945
    1DPPC   C2B 1318   6.333  13.407   5.080 -0.0877 -0.0700  0.1856
    1DPPC   C3B 1319   6.072  13.685   4.903 -0.0792 -0.0167 -0.2489
    1DPPC   C4B 1320   5.786  13.672   4.575  0.2506  0.1615  0.2782
    1DPPC   NC3 1321  25.991  28.275   7.523  0.1207 -0.1159  0.0780
    1DPPC   PO4 1322  25.761  28.065   7.728  0.0472 -0.1797 -0.3077
    1DPPC   GL1 1323  25.498  27.901   7.427 -0.1353  0.0233 -0.0261
    1DPPC   GL2 1324  25.261  27.790   7.513  0.2156  0.1098  0.0049
    1DPPC   C1A 1325  25.504  27.731   7.003  0.0195 -0.2743 -0.2989
    1DPPC   C2A 1326  25.619  27.691   6.649  0.1305  0.1170  0.1087
    1DPPC   C3A 1327  25.701  27.676   6.212 -0.0540  0.0331  0.1934
    1DPPC   C4A 1328  26.038  27.654   5.922 -0.0860  0.0648  0.2126
    1DPPC   C1B 1329  25.019  27.838   7.081  0.0189 -0.0444 -0.0502
    1DPPC   C2B 1330  25.079  27.755   6.608 -0.1678  0.0227  0.1522
    1DPPC   C3B 1331  25.194  27.726   6.235  0.3545  0.1217 -0.1495
    1DPPC   C4B 1332  25.185  27.411   5.953  0.1303  0.1646 -0.1115
    1DPPC   NC3 1333   5.095  11.643   7.023  0.3832  0.0298  0.1496
    1DPPC   PO4 1334   5.403  11.431   6.914 -0.3153  0.4840  0.1712
    1DPPC   GL1 1335   5.125  11.473   6.514  0.0482  0.2107  0.0311
    1DPPC   GL2 1336   4.922  11.792   6.551  0.2777 -0.4319 -0.2504
    1DPPC   C1A 1337   4.899  11.418   6.056  0.2026 -0.1482  0.1581
    1DPPC   C2A 1338   4.704  11.347   5.586 -0.1045 -0.1688  0.0021
    1DPPC   C3A 1339   4.520  11.433   5.188 -0.0245 -0.2611 -0.0063
    1DPPC   C4A 1340   4.582  11.431   4.765  0.1495 -0.1588  0.1692
    1DPPC   C1B 1341   4.501  11.685   6.349  0.0314  0.2889  0.0227
    1DPPC   C2B 1342   4.119  11.321   6.304 -0.3568  0.0227  0.0186
    1DPPC   C3B 1343   4.035  11.024   6.159  0.1175  0.0388  0.1306
    1DPPC   C4B 1344   4.003  10.891   5.821  0.2775 -0.1081  0.0738
    1DPPC   NC3 1345  25.361  27.603   8.163  0.2352 -0.0996 -0.1662
    1DPPC   PO4 1346  24.927  27.770   7.906 -0.1432  0.0824  0.1218
    1DPPC   GL1 1347  24.866  28.109   7.456 -0.0027 -0.0820  0.1318
    1DPPC   GL2 1348  24.666  28.383   7.405  0.2449 -0.1928 -0.1301
    1DPPC   C1A 1349  25.127  28.294   7.200 -0.1473 -0.0153  0.2215
    1DPPC   C2A 1350  25.062  28.471   6.845  0.2513 -0.0710  0.1658
    1DPPC   C3A 1351  25.133  28.666   6.467 -0.1639  0.1036  0.1503
    1DPPC   C4A 1352  25.287  28.770   6.112 -0.2962  0.2949  0.0807
    1DPPC   C1B 1353  24.648  28.259   6.991  0.1413  0.2245  0.2525
    1DPPC   C2B 1354  24.777  28.239   6.534  0.1035  0.0809 -0.0199
    1DPPC   C3B 1355  25.001  28.319   6.139  0.3296  0.0612  0.3531
    1DPPC   C4B 1356  25.135  28.439   5.666  0.1404  0.0266 -0.0877
    1DPPC   NC3 1357  14.215  21.628   6.397 -0.1988 -0.2321  0.0027
    1DPPC   PO4 1358  13.954  21.389   6.461 -0.1691 -0.0954 -0.2532
    1DPPC   GL1 1359  13.812  21.541   6.121  0.3614  0.0436  0.2030
    1DPPC   GL2 1360  13.818  21.913   6.068  0.1408  0.1671  0.2353
    1DPPC   C1A 1361  13.794  21.523   5.748  0.2839  0.1028  0.0432
    1DPPC   C2A 1362  13.511  21.712   5.408 -0.0661 -0.2008  0.2489
    1DPPC   C3A 1363  13.298  21.740   4.933 -0.0691  0.1268 -0.0030
    1DPPC   C4A 1364  13.058  21.401   4.749 -0.0083  0.0143  0.1887
    1DPPC   C1B 1365  13.442  21.941   5.850  0.1084  0.1393 -0.0426
    1DPPC   C2B 1366  13.099  22.124   5.609 -0.3572 -0.1885 -0.2150
    1DPPC   C3B 1367  13.007  22.295   5.170  0.1965 -0.2064 -0.2390
    1DPPC   C4B 1368  13.287  22.502   4.828 -0.0835  0.4833  0.0652
    1DPPC   NC3 1369  17.331  10.420   5.585  0.0091 -0.2072  0.2265
    1DPPC   PO4 1370  17.236  10.815   5.848  0.0097  0.2106  0.0489
    1DPPC   GL1 1371  17.554  10.794   5.382 -0.0789  0.4989 -0.4531
    1DPPC   GL2 1372  17.881  10.709   5.534 -0.3752 -0.2318 -0.2478
    1DPPC   C1A 1373  17.769  10.866   4.962  0.2729  0.0954 -0.1081
    1DPPC   C2A 1374  17.776  11.007   4.468  0.2305 -0.1289 -0.3951
    1DPPC   C3A 1375  17.719  10.963   3.995 -0.0029 -0.1459  0.1393
    1DPPC   C4A 1376  17.938  11.078   3.716 -0.0848 -0.1646 -0.0843
    1DPPC   C1B 1377  17.991  10.482   5.225 -0.0062  0.2317 -0.1899
    1DPPC   C2B 1378  17.995  10.389   4.882 -0.0348  0.0594 -0.0705
    1DPPC   C3B 1379  18.104  10.517   4.397  0.0352 -0.4887 -0.1336
    1DPPC   C4B 1380  18.184  10.892   4.182  0.3392 -0.0145 -0.0500
    1DPPC   NC3 1381  23.343   3.931   7.492 -0.2039 -0.0732 -0.4502
    1DPPC   PO4 1382  23.312   3.541   7.276 -0.1969 -0.0627 -0.4015
    1DPPC   GL1 1383  23.461   3.477   6.933 -0.0821 -0.1364  0.0472
    1DPPC   GL2 1384  23.165   3.299   6.708  0.4102 -0.0769  0.0141
    1DPPC   C1A 1385  23.705   3.491   6.610 -0.0959 -0.0484  0.0341
    1DPPC   C2A 1386  23.791   3.425   6.145  0.1602  0.2616 -0.0375
    1DPPC   C3A 1387  23.755   3.455   5.707  0.3778  0.0304  0.3815
    1DPPC   C4A 1388  23.871   3.399   5.327 -0.2996 -0.0048 -0.1505
    1DPPC   C1B 1389  23.159   3.323   6.288  0.0984  0.0717 -0.0443
    1DPPC   C2B 1390  23.283   3.350   5.852 -0.0997 -0.2278  0.2114
    1DPPC   C3B 1391  23.289   3.480   5.363 -0.1314 -0.0034 -0.0885
    1DPPC   C4B 1392  23.388   3.647   4.960 -0.0426 -0.0636  0.1868
    1DPPC   NC3 1393  17.071  13.563   5.877  0.0596 -0.3665  0.0276
    1DPPC   PO4 1394  16.618  13.491   6.002  0.1491 -0.0777 -0.1904
    1DPPC   GL1 1395  16.471  13.749   5.682  0.0086 -0.2288 -0.2886
    1DPPC   GL2 1396  16.609  13.998   5.752  0.1808  0.0732  0.0127
    1DPPC   C1A 1397  16.391  13.970   5.274 -0.3854  0.2697  0.2512
    1DPPC   C2A 1398  16.188  13.915   4.829 -0.4041 -0.1476  0.1705
    1DPPC   C3A 1399  15.901  13.901   4.502  0.0013  0.3008  0.0808
    1DPPC   C4A 1400  15.674  13.661   4.279 -0.0589  0.1964  0.1555
    1DPPC   C1B 1401  16.855  13.864   5.358 -0.0506  0.1618 -0.2165
    1DPPC   C2B 1402  16.852  14.058   4.949 -0.2272 -0.1844 -0.1274
    1DPPC   C3B 1403  16.472  14.307   4.832 -0.1505 -0.2857  0.2524
    1DPPC   C4B 1404  16.109  14.339   5.137  0.0794 -0.0451 -0.0630
    1DPPC   NC3 1405  12.875   1.941   6.414  0.1731 -0.0242 -0.2655
    1DPPC   PO4 1406  12.765   2.247   6.154  0.3016 -0.1067  0.2184
    1DPPC   GL1 1407  12.718   1.947   5.807 -0.3023  0.3317 -0.0186
    1DPPC   GL2 1408  12.669   1.633   5.789 -0.1231  0.1354  0.3652
    1DPPC   C1A 1409  12.863   1.851   5.335 -0.2062  0.1461  0.0845
    1DPPC   C2A 1410  12.774   1.677   4.890 -0.0013 -0.1030 -0.2629
    1DPPC   C3A 1411  12.735   1.382   4.683  0.1362  0.3224 -0.4009
    1DPPC   C4A 1412  12.748   1.170   4.388  0.3000  0.1877  0.2281
    1DPPC   C1B 1413  12.494   1.497   5.338  0.1783 -0.5365  0.0301
    1DPPC   C2B 1414  12.701   1.200   5.132  0.1291  0.0951  0.2658
    1DPPC   C3B 1415  13.135   1.179   5.018  0.0058 -0.0693 -0.1649
    1DPPC   C4B 1416  13.427   1.390   4.818 -0.2675  0.0199 -0.1708
    1DPPC   NC3 1417   8.339  12.788   6.079 -0.0245 -0.0861 -0.1194
    1DPPC   PO4 1418   8.553  13.041   5.853  0.2403 -0.2036  0.1722
    1DPPC   GL1 1419   8.592  12.848   5.507  0.0772  0.0667  0.0780
    1DPPC   GL2 1420   8.397  13.038   5.311  0.0260 -0.0515  0.0326
    1DPPC   C1A 1421   8.635  12.652   4.990 -0.1604  0.0459  0.2050
    1DPPC   C2A 1422   8.635  12.443   4.612 -0.3827  0.1984  0.0515
    1DPPC   C3A 1423   8.581  12.166   4.205 -0.2388 -0.0285  0.1838
    1DPPC   C4A 1424   8.304  12.362   3.786  0.0552  0.2072 -0.0892
    1DPPC   C1B 1425   8.331  13.197   5.009 -0.1823  0.0328  0.0027
    1DPPC   C2B 1426   8.330  13.445   4.688  0.3346 -0.3344 -0.0493
    1DPPC   C3B 1427   8.267  13.284   4.289 -0.2522 -0.1415 -0.1303
    1DPPC   C4B 1428   8.205  13.404   3.853 -0.4581  0.0204 -0.2815
    1DPPC   NC3 1429  17.432   2.800   6.866 -0.1132 -0.1246 -0.2092
    1DPPC   PO4 1430  17.443   2.415   6.670  0.0862 -0.0479 -0.0399
    1DPPC   GL1 1431  17.739   2.244   6.332 -0.3186  0.0154  0.0892
    1DPPC   GL2 1432  17.431   2.115   6.198  0.0524  0.1109  0.1560
    1DPPC   C1A 1433  17.778   2.477   5.928  0.1216  0.0817  0.1401
    1DPPC   C2A 1434  17.802   2.387   5.474 -0.0299  0.0213 -0.1089
    1DPPC   C3A 1435  17.843   2.476   4.964 -0.1095 -0.2141  0.0361
    1DPPC   C4A 1436  17.879   2.721   4.492  0.1704 -0.4301  0.2300
    1DPPC   C1B 1437  17.364   2.200   5.811 -0.1058  0.0875  0.2392
    1DPPC   C2B 1438  17.194   2.144   5.438  0.0295 -0.0180 -0.5173
    1DPPC   C3B 1439  17.383   2.438   5.178  0.0210 -0.1145  0.0695
    1DPPC   C4B 1440  17.290   2.590   4.725 -0.0910 -0.0926  0.0769
    1DPPC   NC3 1441  12.619  15.720   6.329 -0.2115 -0.1558  0.1925
    1DPPC   PO4 1442  12.296  15.518   6.141  0.0559 -0.0282 -0.2650
    1DPPC   GL1 1443  12.572  15.490   5.745  0.1642 -0.0705  0.2586
    1DPPC   GL2 1444  12.870  15.535   5.828  0.1075  0.4029  0.1353
    1DPPC   C1A 1445  12.726  15.335   5.378  0.1842  0.0912 -0.1523
    1DPPC   C2A 1446  12.702  15.172   4.934  0.2375  0.1124  0.1481
    1DPPC   C3A 1447  12.877  14.993   4.566  0.0419  0.0219 -0.0300
    1DPPC   C4A 1448  12.914  14.583   4.256  0.3564 -0.3294 -0.2466
    1DPPC   C1B 1449  13.092  15.660   5.488  0.0138 -0.0663  0.4011
    1DPPC   C2B 1450  12.978  15.635   5.009 -0.2271  0.2924  0.1177
    1DPPC   C3B 1451  13.097  15.554   4.666  0.1974  0.1330 -0.1343
    1DPPC   C4B 1452  12.996  15.762   4.217 -0.1073  0.0557 -0.4015
    1DPPC   NC3 1453  12.556   5.987   5.831  0.3994  0.1940 -0.2390
    1DPPC   PO4 1454  12.368   6.316   5.764  0.0808  0.1410 -0.1633
    1DPPC   GL1 1455  12.412   6.316   5.291  0.1582 -0.0583  0.1857
    1DPPC   GL2 1456  12.452   6.033   5.247  0.1648 -0.0245 -0.1869
    1DPPC   C1A 1457  12.364   6.480   4.902 -0.1394 -0.2449 -0.1666
    1DPPC   C2A 1458  12.181   6.473   4.497 -0.2142 -0.0845 -0.2199
    1DPPC   C3A 1459  12.079   6.766   4.145  0.0302 -0.1020 -0.0593
    1DPPC   C4A 1460  11.877   6.680   3.917  0.2614 -0.3304 -0.2372
    1DPPC   C1B 1461  12.349   5.584   5.049  0.0192  0.0581  0.0566
    1DPPC   C2B 1462  12.195   5.394   4.700 -0.0638  0.2481 -0.0903
    1DPPC   C3B 1463  11.900   5.279   4.294  0.1249  0.0975  0.1769
    1DPPC   C4B 1464  11.593   5.427   3.972 -0.1686 -0.0908  0.1665
    1DPPC   NC3 1465  15.037  27.404   6.955  0.0479 -0.1741  0.0317
    1DPPC   PO4 1466  14.826  27.487   6.610 -0.0438  0.1190 -0.1392
    1DPPC   GL1 1467  14.591  27.562   6.269 -0.1759 -0.1735  0.1739
    1DPPC   GL2 1468  14.692  27.709   6.052 -0.3147 -0.1414 -0.5130
    1DPPC   C1A 1469  14.398  27.259   6.012  0.1415  0.2597  0.2193
    1DPPC   C2A 1470  14.219  27.314   5.571 -0.3081  0.2691  0.0851
    1DPPC   C3A 1471  14.190  27.211   5.159 -0.4059 -0.0223 -0.0694
    1DPPC   C4A 1472  14.265  27.142   4.780 -0.1672 -0.0928  0.0806
    1DPPC   C1B 1473  14.680  27.517   5.562 -0.0830  0.0605 -0.1174
    1DPPC   C2B 1474  14.587  27.614   5.190  0.0151  0.2084  0.0819
    1DPPC   C3B 1475  14.379  27.621   4.800  0.1049  0.3060 -0.0305
    1DPPC   C4B 1476  14.505  27.449   4.417  0.2170 -0.1774  0.0487
    1DPPC   NC3 1477  12.894  27.117   6.826 -0.2356 -0.2914 -0.2449
    1DPPC   PO4 1478  13.232  27.383   6.740  0.0365  0.1180  0.0029
    1DPPC   GL1 1479  12.926  27.492   6.452 -0.0055  0.2639 -0.0843
    1DPPC   GL2 1480  12.832  27.792   6.424 -0.0402 -0.3107  0.0892
    1DPPC   C1A 1481  12.547  27.524   6.157  0.0200  0.0994 -0.1384
    1DPPC   C2A 1482  12.461  27.505   5.731  0.1080 -0.2959  0.4310
    1DPPC   C3A 1483  12.139  27.387   5.507  0.1813  0.5009 -0.6526
    1DPPC   C4A 1484  11.724  27.309   5.620  0.1769  0.2159  0.0361
    1DPPC   C1B 1485  12.947  27.776   5.969  0.0262  0.0184  0.0909
    1DPPC   C2B 1486  12.897  27.665   5.558 -0.3702  0.0540  0.1768
    1DPPC   C3B 1487  12.769  27.493   5.279 -0.0584  0.0063 -0.0250
    1DPPC   C4B 1488  12.367  27.290   5.140  0.0718 -0.0901 -0.0225
    1DPPC   NC3 1489  15.020   0.441   6.079  0.0031 -0.2271  0.0516
    1DPPC   PO4 1490  15.143   0.848   6.157 -0.2528 -0.2465  0.0014
    1DPPC   GL1 1491  15.418   0.624   5.836  0.1614 -0.1347  0.0656
    1DPPC   GL2 1492  15.602   0.305   5.865  0.1216 -0.2764  0.0040
    1DPPC   C1A 1493  15.409   0.627   5.504  0.0372 -0.2168 -0.0417
    1DPPC   C2A 1494  15.305   0.634   5.197  0.0153  0.0077 -0.2262
    1DPPC   C3A 1495  15.152   0.542   4.850  0.2147 -0.6156  0.1178
    1DPPC   C4A 1496  14.908   0.336   4.583  0.1308  0.0459 -0.0345
    1DPPC   C1B 1497  15.503   0.157   5.505  0.0652  0.3794  0.1781
    1DPPC   C2B 1498  15.560  -0.188   5.224  0.0465 -0.2019 -0.1475
    1DPPC   C3B 1499  15.758  -0.283   4.876 -0.3101  0.1315  0.0333
    1DPPC   C4B 1500  15.665  -0.340   4.464 -0.0106  0.0532  0.0095
    1DPPC   NC3 1501  23.665   2.172   7.191 -0.0367 -0.0765  0.0711
    1DPPC   PO4 1502  23.304   2.418   7.238 -0.0008 -0.0257  0.0356
    1DPPC   GL1 1503  23.339   2.560   6.869  0.0111 -0.1305  0.0026
    1DPPC   GL2 1504  23.428   2.349   6.657  0.2275 -0.0651  0.1105
    1DPPC   C1A 1505  23.133   2.809   6.478  0.0187  0.1538 -0.1464
    1DPPC   C2A 1506  23.079   2.640   6.102 -0.1423  0.0365 -0.2922
    1DPPC   C3A 1507  23.248   2.594   5.706  0.2407 -0.0891 -0.1629
    1DPPC   C4A 1508  23.268   2.578   5.216  0.1546 -0.2542  0.0305
    1DPPC   C1B 1509  23.623   2.315   6.279  0.1092 -0.1652 -0.1570
    1DPPC   C2B 1510  23.640   2.247   5.885 -0.0419  0.1446 -0.3023
    1DPPC   C3B 1511  23.726   2.487   5.509 -0.0969  0.3145  0.2561
    1DPPC   C4B 1512  23.791   2.471   5.038  0.0106 -0.3837 -0.1630
    1DPPC   NC3 1513  21.179   5.005   6.562  0.1130  0.3219  0.0504
    1DPPC   PO4 1514  20.886   4.680   6.710  0.0967  0.0310  0.0568
    1DPPC   GL1 1515  20.946   4.531   6.300 -0.2262 -0.0865  0.1327
    1DPPC   GL2 1516  20.896   4.218   6.353 -0.2186  0.0722  0.0697
    1DPPC   C1A 1517  20.933   4.571   5.898 -0.0478 -0.1971  0.1078
    1DPPC   C2A 1518  21.069   4.354   5.555  0.0172  0.2255 -0.0185
    1DPPC   C3A 1519  20.889   4.217   5.078 -0.1857  0.1509 -0.0200
    1DPPC   C4A 1520  20.676   4.299   4.701  0.3428  0.3858  0.0320
    1DPPC   C1B 1521  20.630   4.157   5.952 -0.0119  0.1038  0.0387
    1DPPC   C2B 1522  20.571   4.239   5.512  0.2067  0.0809  0.0730
    1DPPC   C3B 1523  20.400   4.330   5.115  0.2659  0.1021 -0.0634
    1DPPC   C4B 1524  20.188   4.088   4.806 -0.1779  0.1365  0.1613
    1DPPC   NC3 1525  13.777   4.545   6.373  0.2475 -0.1843 -0.0713
    1DPPC   PO4 1526  13.907   4.758   6.069 -0.1483 -0.1084 -0.0245
    1DPPC   GL1 1527  13.890   4.954   5.673 -0.1584  0.1667 -0.1218
    1DPPC   GL2 1528  14.133   4.750   5.507  0.2104  0.0758 -0.1305
    1DPPC   C1A 1529  14.020   5.045   5.139  0.1707 -0.0253  0.3958
    1DPPC   C2A 1530  14.017   5.079   4.655  0.1675  0.0782  0.0660
    1DPPC   C3A 1531  14.214   4.852   4.311 -0.3885  0.0852 -0.1157
    1DPPC   C4A 1532  14.310   4.687   3.936  0.3379  0.2090  0.0459
    1DPPC   C1B 1533  14.027   4.532   5.116 -0.0710  0.0625 -0.2277
    1DPPC   C2B 1534  14.152   4.489   4.665  0.0828 -0.0799 -0.0680
    1DPPC   C3B 1535  14.515   4.457   4.310 -0.1512  0.1106 -0.3230
    1DPPC   C4B 1536  14.862   4.399   4.085  0.0096  0.0703 -0.1745
    1DPPC   NC3 1537  17.527  25.944   6.875  0.2716  0.0131 -0.0162
    1DPPC   PO4 1538  17.637  26.408   6.866 -0.0470  0.3168 -0.0218
    1DPPC   GL1 1539  17.599  26.297   6.484 -0.0294  0.0060  0.4191
    1DPPC   GL2 1540  17.377  26.091   6.423  0.0824 -0.1246 -0.2892
    1DPPC   C1A 1541  17.767  26.279   6.129  0.0998 -0.2320  0.0362
    1DPPC   C2A 1542  17.998  26.409   5.717  0.0537  0.2968  0.0654
    1DPPC   C3A 1543  17.873  26.556   5.365  0.0261 -0.0522 -0.1317
    1DPPC   C4A 1544  17.773  26.954   5.208  0.2522 -0.0632 -0.0303
    1DPPC   C1B 1545  17.324  25.772   6.124  0.1778 -0.1971  0.1454
    1DPPC   C2B 1546  17.177  25.821   5.688  0.0157 -0.2402 -0.0669
    1DPPC   C3B 1547  17.147  25.800   5.294 -0.1427 -0.0733 -0.0298
    1DPPC   C4B 1548  17.131  25.869   4.859  0.1269  0.1200  0.0647
    1DPPC   NC3 1549  17.365   9.497   5.948  0.0114 -0.0166  0.0287
    1DPPC   PO4 1550  17.506   9.921   5.813 -0.3818 -0.1215  0.1125
    1DPPC   GL1 1551  17.375   9.943   5.348  0.0501 -0.1075  0.0150
    1DPPC   GL2 1552  17.647   9.883   5.218 -0.2153  0.1901 -0.1663
    1DPPC   C1A 1553  17.301   9.800   4.909 -0.0389 -0.2510 -0.1205
    1DPPC   C2A 1554  17.255   9.910   4.567  0.0776 -0.0388  0.1195
    1DPPC   C3A 1555  17.150  10.038   4.213  0.0125 -0.2544 -0.0112
    1DPPC   C4A 1556  16.811  10.202   4.136 -0.2526  0.0743 -0.0429
    1DPPC   C1B 1557  17.790   9.949   4.832  0.1638  0.2125 -0.1141
    1DPPC   C2B 1558  17.712   9.788   4.446 -0.0223  0.3805  0.0042
    1DPPC   C3B 1559  17.655   9.831   4.096 -0.2911  0.1448  0.0194
    1DPPC   C4B 1560  17.783   9.616   3.658  0.1228  0.0897  0.2742
    1DPPC   NC3 1561  14.948  15.130   6.703 -0.3114 -0.1421  0.3115
    1DPPC   PO4 1562  15.047  15.381   6.311  0.0622 -0.1498 -0.0490
    1DPPC   GL1 1563  15.017  15.241   5.841 -0.1156 -0.0646 -0.1271
    1DPPC   GL2 1564  14.957  15.449   5.665  0.1004  0.2439  0.0196
    1DPPC   C1A 1565  14.922  14.964   5.622 -0.1442 -0.1093 -0.2654
    1DPPC   C2A 1566  14.984  14.859   5.124 -0.2894  0.0801 -0.0869
    1DPPC   C3A 1567  15.057  14.612   4.784 -0.1325 -0.0481  0.0840
    1DPPC   C4A 1568  14.887  14.447   4.396  0.1221 -0.1271  0.0502
    1DPPC   C1B 1569  14.945  15.383   5.216  0.1416  0.1658  0.1753
    1DPPC   C2B 1570  14.916  15.523   4.769 -0.2758  0.1530 -0.1838
    1DPPC   C3B 1571  14.728  15.796   4.471 -0.0896  0.1171 -0.2632
    1DPPC   C4B 1572  14.290  15.958   4.510 -0.0610 -0.0177 -0.0264
    1DPPC   NC3 1573  27.267   0.507   8.158 -0.1142 -0.1652  0.0637
    1DPPC   PO4 1574  26.878   0.249   8.027  0.3004 -0.1446  0.0177
    1DPPC   GL1 1575  26.869   0.465   7.631 -0.0822  0.0839 -0.2823
    1DPPC   GL2 1576  26.695   0.335   7.409  0.6153 -0.1227  0.1883
    1DPPC   C1A 1577  27.067   0.652   7.333 -0.0576 -0.2528 -0.1452
    1DPPC   C2A 1578  27.431   0.564   7.167 -0.0300 -0.0275  0.0492
    1DPPC   C3A 1579  27.529   0.502   6.795 -0.0763  0.2082  0.0616
    1DPPC   C4A 1580  27.673   0.514   6.492  0.0610 -0.1746  0.0334
    1DPPC   C1B 1581  27.050   0.211   7.083 -0.1298  0.2023 -0.0070
    1DPPC   C2B 1582  27.281  -0.047   6.819 -0.1376  0.0981 -0.0684
    1DPPC   C3B 1583  27.550  -0.028   6.516  0.0200 -0.2674  0.0861
    1DPPC   C4B 1584  27.534  -0.294   6.198 -0.0497 -0.0132  0.0676
    1DPPC   NC3 1585  24.517  27.399   7.867  0.0177 -0.0153 -0.2347
    1DPPC   PO4 1586  24.653  27.142   7.540 -0.1232  0.2069  0.0479
    1DPPC   GL1 1587  24.849  27.246   7.157 -0.0941  0.2380  0.1128
    1DPPC   GL2 1588  25.192  27.368   7.229 -0.0868  0.3339 -0.0032
    1DPPC   C1A 1589  24.668  27.270   6.771 -0.0334 -0.0222  0.1179
    1DPPC   C2A 1590  24.714  27.357   6.379 -0.1684  0.1758 -0.2335
    1DPPC   C3A 1591  24.508  27.474   6.030 -0.0216  0.2945 -0.2830
    1DPPC   C4A 1592  24.337  27.674   5.698  0.0504  0.2020  0.0261
    1DPPC   C1B 1593  25.384  27.246   6.764  0.0856 -0.1900  0.1476
    1DPPC   C2B 1594  25.471  27.146   6.292 -0.0330 -0.0330 -0.0220
    1DPPC   C3B 1595  25.497  26.964   5.847  0.2272  0.0053 -0.0071
    1DPPC   C4B 1596  25.763  27.015   5.534 -0.1976 -0.1254 -0.4964
    1DPPC   NC3 1597  28.649   3.065   8.249 -0.0472 -0.1557 -0.0196
    1DPPC   PO4 1598  29.096   3.060   7.968  0.1175  0.0241 -0.0079
    1DPPC   GL1 1599  29.234   3.036   7.586 -0.1971  0.1677 -0.0788
    1DPPC   GL2 1600  29.154   2.786   7.399 -0.0122 -0.0797  0.0359
    1DPPC   C1A 1601  29.083   3.255   7.262  0.4256  0.0580 -0.0781
    1DPPC   C2A 1602  28.885   3.276   6.799 -0.4251  0.1365  0.1181
    1DPPC   C3A 1603  28.891   3.306   6.391 -0.1149 -0.3243 -0.0852
    1DPPC   C4A 1604  28.902   3.360   5.905  0.3553  0.0977  0.0316
    1DPPC   C1B 1605  28.793   2.853   7.052 -0.2024 -0.3899  0.1165
    1DPPC   C2B 1606  28.731   2.802   6.641  0.1200 -0.0325  0.0779
    1DPPC   C3B 1607  28.564   2.602   6.322 -0.1071  0.3936  0.4193
    1DPPC   C4B 1608  28.637   2.584   5.854  0.1113  0.1676  0.2630
    1DPPC   NC3 1609   7.816   3.655   7.880  0.1298 -0.1922  0.0175
    1DPPC   PO4 1610   7.473   3.817   7.693 -0.1038 -0.0663 -0.3672
    1DPPC   GL1 1611   7.601   3.815   7.219  0.3534  0.1289  0.2275
    1DPPC   GL2 1612   7.751   4.026   6.994  0.0116  0.1195  0.0531
    1DPPC   C1A 1613   7.406   3.658   6.853  0.4427 -0.3058  0.3544
    1DPPC   C2A 1614   7.470   3.371   6.436  0.0319 -0.0402 -0.0563
    1DPPC   C3A 1615   7.249   3.165   6.215 -0.0819  0.1104  0.2452
    1DPPC   C4A 1616   7.020   3.348   5.895 -0.0193 -0.0845  0.2570
    1DPPC   C1B 1617   7.591   3.968   6.491 -0.0954  0.2418  0.2108
    1DPPC   C2B 1618   7.901   4.089   6.135  0.1596  0.2674  0.1715
    1DPPC   C3B 1619   8.094   3.791   5.830  0.0429  0.2125  0.3261
    1DPPC   C4B 1620   8.121   3.404   5.676 -0.2188  0.1510  0.0360
    1DPPC   NC3 1621  20.275  11.184   6.318  0.1408 -0.1921 -0.0035
    1DPPC   PO4 1622  20.001  10.880   6.095  0.1961 -0.1302  0.2505
    1DPPC   GL1 1623  20.234  11.189   5.806  0.0969  0.1700  0.1267
    1DPPC   GL2 1624  20.297  11.451   5.842 -0.0600  0.1153 -0.0839
    1DPPC   C1A 1625  20.521  11.093   5.471  0.3976  0.0125  0.2544
    1DPPC   C2A 1626  20.800  11.216   5.143  0.1582  0.0011  0.0741
    1DPPC   C3A 1627  20.949  11.133   4.802 -0.0148  0.2011 -0.3475
    1DPPC   C4A 1628  20.935  11.029   4.507 -0.0442 -0.1279 -0.0024
    1DPPC   C1B 1629  19.970  11.500   5.536 -0.0631 -0.1908  0.0158
    1DPPC   C2B 1630  19.819  11.289   5.237  0.1654  0.2348  0.0110
    1DPPC   C3B 1631  19.860  11.164   4.796  0.0596 -0.0391  0.0983
    1DPPC   C4B 1632  19.687  10.893   4.432 -0.2189  0.1139  0.1686
    1DPPC   NC3 1633  26.590   0.671   7.975  0.0496  0.1811  0.2048
    1DPPC   PO4 1634  26.974   0.851   7.956  0.3151  0.1784  0.2315
    1DPPC   GL1 1635  26.803   1.001   7.619 -0.1220 -0.1513 -0.0056
    1DPPC   GL2 1636  26.879   1.305   7.531 -0.4217  0.0497 -0.0169
    1DPPC   C1A 1637  26.673   0.905   7.205  0.0700  0.1580 -0.0695
    1DPPC   C2A 1638  26.715   0.545   6.961  0.1222 -0.1461  0.0555
    1DPPC   C3A 1639  27.073   0.457   6.629 -0.1385  0.0422 -0.0714
    1DPPC   C4A 1640  27.169   0.224   6.417  0.0417 -0.2594 -0.1301
    1DPPC   C1B 1641  27.147   1.647   7.264  0.3396 -0.1959  0.1260
    1DPPC   C2B 1642  27.059   1.910   6.934 -0.1509 -0.0207 -0.1387
    1DPPC   C3B 1643  27.194   1.912   6.461 -0.0271  0.0102 -0.0647
    1DPPC   C4B 1644  27.233   1.970   6.029 -0.1033 -0.3185 -0.5553
    1DPPC   NC3 1645  14.616  11.358   5.951 -0.0440  0.0469  0.1434
    1DPPC   PO4 1646  15.042  11.574   5.659  0.0045  0.1821 -0.1506
    1DPPC   GL1 1647  15.010  11.507   5.262 -0.0152  0.0343 -0.1717
    1DPPC   GL2 1648  14.879  11.871   5.166 -0.2502  0.0621  0.0591
    1DPPC   C1A 1649  15.071  11.491   4.760 -0.2368 -0.0739 -0.1225
    1DPPC   C2A 1650  14.741  11.393   4.484  0.2147 -0.0473  0.1168
    1DPPC   C3A 1651  14.623  11.595   4.089 -0.0005 -0.3602  0.0578
    1DPPC   C4A 1652  14.551  11.992   3.805  0.0858  0.3347 -0.1115
    1DPPC   C1B 1653  14.673  11.817   4.704 -0.1080 -0.3642  0.0209
    1DPPC   C2B 1654  14.271  11.683   4.412  0.1229 -0.0127  0.0343
    1DPPC   C3B 1655  13.901  11.855   4.254 -0.0031  0.3524 -0.1808
    1DPPC   C4B 1656  13.403  11.988   4.175  0.1145  0.3193  0.0169
    1DPPC   NC3 1657   4.562  18.916   7.662  0.2362  0.3273 -0.1815
    1DPPC   PO4 1658   4.313  18.928   7.254  0.0356  0.2947 -0.3542
    1DPPC   GL1 1659   4.102  18.947   6.877 -0.1056  0.0866 -0.0255
    1DPPC   GL2 1660   3.747  19.052   6.754 -0.0929  0.1273  0.3680
    1DPPC   C1A 1661   4.247  19.058   6.438 -0.0053  0.0182  0.1676
    1DPPC   C2A 1662   4.397  19.350   6.247 -0.1698 -0.2574  0.1813
    1DPPC   C3A 1663   4.395  19.615   5.854 -0.0293 -0.0836  0.1887
    1DPPC   C4A 1664   4.421  19.733   5.336 -0.2266  0.0874  0.1190
    1DPPC   C1B 1665   3.720  19.234   6.290 -0.2097 -0.3268 -0.1570
    1DPPC   C2B 1666   3.762  19.383   5.846 -0.1521  0.1238  0.2305
    1DPPC   C3B 1667   3.467  19.584   5.428 -0.2495  0.0040  0.1221
    1DPPC   C4B 1668   3.080  19.620   5.181  0.1147 -0.0136  0.0082
    1DPPC   NC3 1669  20.480   2.984   6.626  0.1075  0.0461  0.1461
    1DPPC   PO4 1670  20.481   3.494   6.582 -0.0212  0.0629 -0.0734
    1DPPC   GL1 1671  20.534   3.256   6.190 -0.0285  0.1355  0.1957
    1DPPC   GL2 1672  20.807   3.214   6.140  0.0220  0.0095  0.1497
    1DPPC   C1A 1673  20.325   3.067   5.819 -0.0684 -0.0293 -0.0786
    1DPPC   C2A 1674  20.334   2.820   5.505 -0.1355  0.1510  0.0473
    1DPPC   C3A 1675  20.280   2.856   5.014  0.1668 -0.1374  0.1672
    1DPPC   C4A 1676  20.269   2.606   4.678 -0.0147 -0.1474 -0.1849
    1DPPC   C1B 1677  20.778   2.840   5.912 -0.2163 -0.1462 -0.2282
    1DPPC   C2B 1678  20.829   2.643   5.504 -0.0531 -0.4094  0.0968
    1DPPC   C3B 1679  20.604   2.478   5.150 -0.0809 -0.0262  0.1177
    1DPPC   C4B 1680  20.720   2.229   4.848  0.0454  0.3004  0.1746
    1DPPC   NC3 1681   4.958  21.479   6.845  0.2794 -0.3364 -0.0706
    1DPPC   PO4 1682   4.410  21.483   7.070  0.1813  0.0386  0.2757
    1DPPC   GL1 1683   4.458  21.472   6.628 -0.1264 -0.1535 -0.1567
    1DPPC   GL2 1684   4.760  21.756   6.497 -0.0101 -0.2643  0.1812
    1DPPC   C1A 1685   4.415  21.520   6.261  0.2454 -0.0277  0.0836
    1DPPC   C2A 1686   4.525  21.634   5.776 -0.0203 -0.0106 -0.0586
    1DPPC   C3A 1687   4.709  22.053   5.645  0.2214  0.3806 -0.0575
    1DPPC   C4A 1688   4.793  22.266   5.300 -0.1388  0.2890  0.3218
    1DPPC   C1B 1689   4.585  21.981   6.179  0.2777 -0.2721 -0.0644
    1DPPC   C2B 1690   4.645  22.390   6.046  0.0045 -0.1418 -0.0148
    1DPPC   C3B 1691   4.862  22.713   6.094  0.3168 -0.3338  0.1640
    1DPPC   C4B 1692   5.236  22.810   6.040 -0.0197 -0.1514  0.0629
    1DPPC   NC3 1693  23.183  25.213   6.961  0.0031 -0.0055  0.2689
    1DPPC   PO4 1694  23.498  25.562   7.147 -0.0586 -0.3090  0.0506
    1DPPC   GL1 1695  23.597  25.666   6.747  0.0288 -0.2386 -0.0028
    1DPPC   GL2 1696  23.580  25.321   6.666  0.0378 -0.2052  0.0453
    1DPPC   C1A 1697  23.554  25.681   6.298 -0.2516  0.0658  0.0662
    1DPPC   C2A 1698  23.516  25.581   5.820 -0.1322 -0.2683  0.3436
    1DPPC   C3A 1699  23.517  25.541   5.387  0.1016  0.0483  0.0554
    1DPPC   C4A 1700  23.222  25.340   4.996  0.0042 -0.3835 -0.1102
    1DPPC   C1B 1701  23.852  25.287   6.186  0.2127  0.0962 -0.1268
    1DPPC   C2B 1702  24.199  25.413   5.968 -0.0114 -0.0336 -0.0425
    1DPPC   C3B 1703  24.442  25.678   5.863  0.0928 -0.1500  0.4809
    1DPPC   C4B 1704  24.688  26.074   5.673 -0.0155 -0.0808 -0.0447
    1DPPC   NC3 1705   9.622  17.118   6.761 -0.0898  0.1494  0.1900
    1DPPC   PO4 1706   9.372  17.261   6.301  0.0081  0.1941 -0.3010
    1DPPC   GL1 1707   9.340  17.332   5.871 -0.1129  0.0710 -0.0250
    1DPPC   GL2 1708   9.134  17.597   5.740  0.0581 -0.1393 -0.1758
    1DPPC   C1A 1709   9.431  17.278   5.382 -0.0985 -0.3051  0.0043
    1DPPC   C2A 1710   9.262  17.265   4.954 -0.1115 -0.1883  0.1251
    1DPPC   C3A 1711   9.173  17.688   4.653 -0.0642 -0.2302  0.1294
    1DPPC   C4A 1712   9.283  17.936   4.236 -0.0017 -0.0710  0.1485
    1DPPC   C1B 1713   9.580  17.746   5.568  0.1947 -0.2149  0.0557
    1DPPC   C2B 1714   9.819  17.690   5.293 -0.1808  0.3102 -0.0717
    1DPPC   C3B 1715   9.687  17.546   4.866 -0.2174  0.1954  0.2187
    1DPPC   C4B 1716   9.899  17.671   4.341  0.3290  0.0952 -0.1891
    1DPPC   NC3 1717  19.158   7.657   6.257  0.1359  0.3099  0.1545
    1DPPC   PO4 1718  19.168   7.950   5.949 -0.0367 -0.4497  0.2037
    1DPPC   GL1 1719  18.872   7.988   5.623 -0.3490  0.2488  0.4251
    1DPPC   GL2 1720  19.055   8.244   5.560 -0.0531  0.0928  0.4067
    1DPPC   C1A 1721  18.792   7.895   5.168 -0.0618  0.3436  0.2425
    1DPPC   C2A 1722  18.629   8.093   4.777  0.0760  0.0683  0.1843
    1DPPC   C3A 1723  18.697   8.281   4.494  0.0263 -0.0631  0.1148
    1DPPC   C4A 1724  18.957   8.269   4.184 -0.0183  0.2796  0.3160
    1DPPC   C1B 1725  19.184   8.529   5.243  0.0348 -0.2457  0.1190
    1DPPC   C2B 1726  19.314   8.577   4.854  0.2476  0.0738 -0.0305
    1DPPC   C3B 1727  19.375   8.399   4.488  0.1161  0.1466  0.1167
    1DPPC   C4B 1728  19.363   8.011   4.288 -0.1758 -0.0321  0.2182
    1DPPC   NC3 1729  24.651  25.483   8.455  0.1298 -0.2249  0.0113
    1DPPC   PO4 1730  25.091  25.496   8.161  0.0143  0.0747  0.1453
    1DPPC   GL1 1731  24.999  25.576   7.740  0.1397  0.4035  0.0662
    1DPPC   GL2 1732  25.239  25.735   7.585 -0.1500  0.1128 -0.2873
    1DPPC   C1A 1733  24.798  25.769   7.205 -0.1425  0.0426  0.1588
    1DPPC   C2A 1734  24.957  26.119   6.926  0.2581  0.1944  0.0314
    1DPPC   C3A 1735  24.783  26.559   7.046  0.1571 -0.1013  0.0618
    1DPPC   C4A 1736  25.023  26.927   6.874  0.1637  0.1274  0.0840
    1DPPC   C1B 1737  25.306  25.840   7.211 -0.1200  0.2334  0.1902
    1DPPC   C2B 1738  25.310  25.774   6.747 -0.0492 -0.1891 -0.2144
    1DPPC   C3B 1739  25.168  26.080   6.441  0.0665 -0.1274 -0.3175
    1DPPC   C4B 1740  25.113  26.292   6.087  0.0330 -0.2254 -0.3180
    1DPPC   NC3 1741  27.288   3.882   8.477  0.3590 -0.3012  0.0537
    1DPPC   PO4 1742  26.928   3.737   8.319 -0.1465 -0.1438 -0.0930
    1DPPC   GL1 1743  27.172   3.793   7.971  0.1720  0.1538  0.0571
    1DPPC   GL2 1744  27.328   3.566   7.824  0.1937 -0.0973  0.2033
    1DPPC   C1A 1745  27.254   4.005   7.603  0.1152 -0.0353 -0.0854
    1DPPC   C2A 1746  27.147   3.903   7.204  0.1025  0.0260 -0.2476
    1DPPC   C3A 1747  27.352   3.893   6.802 -0.0673 -0.1066  0.3649
    1DPPC   C4A 1748  27.555   3.849   6.517  0.0624  0.3297 -0.2863
    1DPPC   C1B 1749  27.595   3.347   7.579  0.2511 -0.1910  0.1838
    1DPPC   C2B 1750  27.859   3.327   7.273  0.4143 -0.0212  0.0258
    1DPPC   C3B 1751  27.817   3.596   6.877 -0.2301  0.0045  0.0544
    1DPPC   C4B 1752  28.065   3.690   6.540 -0.1176 -0.0806 -0.0076
    1DPPC   NC3 1753  14.972   3.451   6.685  0.4042 -0.0750  0.0257
    1DPPC   PO4 1754  14.515   3.314   6.447  0.3020  0.3336 -0.0434
    1DPPC   GL1 1755  14.416   3.151   6.009  0.2388 -0.1302 -0.2846
    1DPPC   GL2 1756  14.733   3.285   5.793 -0.0856 -0.1727  0.0244
    1DPPC   C1A 1757  14.357   3.237   5.512 -0.2192  0.1194 -0.2567
    1DPPC   C2A 1758  14.356   3.080   5.121 -0.1514  0.1264  0.0448
    1DPPC   C3A 1759  14.310   2.863   4.729 -0.2852  0.0708  0.1155
    1DPPC   C4A 1760  14.061   2.704   4.473 -0.0552  0.1419 -0.2395
    1DPPC   C1B 1761  14.838   3.154   5.357 -0.1109  0.2103 -0.1759
    1DPPC   C2B 1762  14.820   2.948   4.890  0.2663 -0.0404 -0.1005
    1DPPC   C3B 1763  14.831   2.724   4.665  0.1088 -0.1243 -0.3858
    1DPPC   C4B 1764  15.096   2.693   4.289 -0.0454  0.0664  0.1324
    1DPPC   NC3 1765  23.010   6.228   6.566 -0.2720 -0.0669 -0.4943
    1DPPC   PO4 1766  23.446   5.952   6.745 -0.1064  0.3159 -0.0449
    1DPPC   GL1 1767  23.485   5.863   6.363  0.4801  0.1481 -0.1952
    1DPPC   GL2 1768  23.134   5.832   6.317 -0.0850 -0.0002 -0.0963
    1DPPC   C1A 1769  23.650   6.022   5.903  0.0594  0.0734 -0.0338
    1DPPC   C2A 1770  24.011   6.029   5.630  0.1250 -0.1642  0.0821
    1DPPC   C3A 1771  24.140   6.290   5.372 -0.3170 -0.1693 -0.1498
    1DPPC   C4A 1772  24.256   6.304   4.914 -0.0587 -0.1882  0.2336
    1DPPC   C1B 1773  23.168   5.800   5.937  0.0027 -0.0766  0.2618
    1DPPC   C2B 1774  23.115   5.687   5.530 -0.1808  0.1535  0.3003
    1DPPC   C3B 1775  22.976   5.790   5.169 -0.0998  0.1638  0.3418
    1DPPC   C4B 1776  22.853   5.444   4.872  0.1304  0.0101 -0.2262
    1DPPC   NC3 1777  25.790   2.587   7.729 -0.1631 -0.3733 -0.1438
    1DPPC   PO4 1778  25.513   2.776   7.468 -0.1181  0.0112  0.0016
    1DPPC   GL1 1779  25.801   2.827   7.297  0.0705 -0.1188  0.1512
    1DPPC   GL2 1780  26.138   2.916   7.397 -0.1926 -0.2932  0.0028
    1DPPC   C1A 1781  25.830   2.831   6.883  0.3391 -0.1701 -0.0060
    1DPPC   C2A 1782  26.146   2.995   6.553 -0.1359  0.0021 -0.2478
    1DPPC   C3A 1783  26.109   2.834   6.312  0.1445 -0.0567  0.0434
    1DPPC   C4A 1784  25.780   2.814   5.954 -0.3049 -0.0015  0.2464
    1DPPC   C1B 1785  26.352   2.825   7.024 -0.2119  0.0767  0.2418
    1DPPC   C2B 1786  26.618   2.726   6.593  0.0338 -0.1720 -0.0152
    1DPPC   C3B 1787  26.622   2.744   6.147  0.3987 -0.1196  0.4736
    1DPPC   C4B 1788  26.761   3.052   5.941 -0.1552  0.4303  0.0895
    1DPPC   NC3 1789  20.574  11.656   6.231  0.0177 -0.0179 -0.3663
    1DPPC   PO4 1790  20.203  11.688   6.287 -0.0895  0.0435 -0.2626
    1DPPC   GL1 1791  20.243  11.962   6.018 -0.1495 -0.0087  0.2571
    1DPPC   GL2 1792  19.997  12.304   6.054 -0.0423 -0.0877  0.2615
    1DPPC   C1A 1793  20.268  12.125   5.595 -0.2909 -0.0398 -0.0084
    1DPPC   C2A 1794  20.161  12.127   5.182  0.2230  0.0012 -0.1508
    1DPPC   C3A 1795  19.941  12.180   4.789  0.0181 -0.0863  0.2216
    1DPPC   C4A 1796  19.808  11.995   4.430 -0.1224 -0.1365 -0.0464
    1DPPC   C1B 1797  19.810  12.063   5.725 -0.0847  0.2028 -0.0433
    1DPPC   C2B 1798  19.611  11.785   5.399  0.0598 -0.2976  0.0066
    1DPPC   C3B 1799  19.394  11.520   5.188  0.0221 -0.0277  0.2354
    1DPPC   C4B 1800  19.317  11.040   5.084  0.0723  0.1441  0.0943
    1DPPC   NC3 1801   4.832  22.280   6.680 -0.0366  0.2484 -0.1024
    1DPPC   PO4 1802   5.102  21.963   6.904  0.1321  0.0790 -0.0391
    1DPPC   GL1 1803   5.304  21.781   6.567 -0.0116 -0.1990 -0.0806
    1DPPC   GL2 1804   5.144  21.993   6.284 -0.1774 -0.4266 -0.0671
    1DPPC   C1A 1805   5.516  21.632   6.199  0.1858  0.0783 -0.1141
    1DPPC   C2A 1806   5.522  21.434   5.752  0.2099  0.0709 -0.2149
    1DPPC   C3A 1807   5.650  21.422   5.263 -0.0461 -0.2634 -0.2140
    1DPPC   C4A 1808   6.048  21.347   4.922 -0.0678 -0.1423 -0.0827
    1DPPC   C1B 1809   5.070  21.803   5.925 -0.1553 -0.1589  0.1835
    1DPPC   C2B 1810   4.981  21.559   5.610 -0.1117  0.2312 -0.0218
    1DPPC   C3B 1811   4.772  21.728   5.284  0.0558  0.2398  0.2147
    1DPPC   C4B 1812   4.516  21.627   4.879 -0.0502 -0.1091 -0.0938
    1DPPC   NC3 1813  13.296   2.683   6.507 -0.0956 -0.1223  0.1233
    1DPPC   PO4 1814  13.213   2.304   6.346 -0.2966  0.1581  0.1738
    1DPPC   GL1 1815  13.310   2.060   6.074  0.0583  0.0469 -0.0300
    1DPPC   GL2 1816  13.589   1.847   6.003 -0.1382  0.1143 -0.1032
    1DPPC   C1A 1817  13.257   2.074   5.675  0.0475 -0.0314 -0.0698
    1DPPC   C2A 1818  13.355   2.178   5.305 -0.1040 -0.1067  0.1109
    1DPPC   C3A 1819  13.144   2.173   4.980  0.1185  0.0234  0.1560
    1DPPC   C4A 1820  13.084   1.960   4.583 -0.2223  0.3048 -0.0966
    1DPPC   C1B 1821  13.766   1.849   5.659 -0.0797  0.1938 -0.2138
    1DPPC   C2B 1822  13.766   1.979   5.205 -0.1285  0.3394  0.0648
    1DPPC   C3B 1823  13.927   2.152   4.695  0.1219  0.1224 -0.1601
    1DPPC   C4B 1824  14.121   1.962   4.390 -0.2987  0.1009 -0.1227
    1DPPC   NC3 1825  23.515   6.450   7.416 -0.0670 -0.0728 -0.4211
    1DPPC   PO4 1826  23.863   6.363   7.029 -0.0881  0.0090 -0.1746
    1DPPC   GL1 1827  24.209   6.195   6.782 -0.0109  0.0907 -0.4853
    1DPPC   GL2 1828  23.974   5.921   6.686  0.0826 -0.1373 -0.1414
    1DPPC   C1A 1829  24.402   6.003   6.408  0.1990  0.1979  0.2199
    1DPPC   C2A 1830  24.324   5.838   6.026 -0.1760  0.0629  0.0927
    1DPPC   C3A 1831  24.472   5.714   5.560  0.2816  0.1340 -0.0567
    1DPPC   C4A 1832  24.271   5.872   5.189 -0.1413  0.3969  0.0925
    1DPPC   C1B 1833  23.952   5.741   6.341  0.2026  0.0526  0.3507
    1DPPC   C2B 1834  23.734   5.548   6.068 -0.0223  0.4180  0.2594
    1DPPC   C3B 1835  23.675   5.655   5.616 -0.0712 -0.2904  0.1757
    1DPPC   C4B 1836  23.485   5.585   5.191 -0.2240 -0.1169 -0.0867
    1DPPC   NC3 1837  16.905   3.996   6.020  0.0593 -0.1877  0.0075
    1DPPC   PO4 1838  17.057   4.366   6.005  0.1450  0.0465 -0.0739
    1DPPC   GL1 1839  16.982   4.387   5.602 -0.2632  0.1220  0.1337
    1DPPC   GL2 1840  17.277   4.468   5.525  0.1034  0.0234  0.0069
    1DPPC   C1A 1841  16.789   4.214   5.219  0.3892 -0.0132  0.6494
    1DPPC   C2A 1842  16.836   4.139   4.809  0.0659 -0.0410  0.0803
    1DPPC   C3A 1843  16.789   3.829   4.468  0.2563  0.0410 -0.0267
    1DPPC   C4A 1844  16.809   3.415   4.504  0.0590  0.0563  0.3038
    1DPPC   C1B 1845  17.107   4.532   5.101  0.1926  0.2002 -0.3421
    1DPPC   C2B 1846  17.185   4.493   4.718  0.1882  0.0367 -0.0455
    1DPPC   C3B 1847  17.506   4.485   4.398 -0.1908  0.0433 -0.2585
    1DPPC   C4B 1848  17.616   4.356   4.012  0.0728  0.1366 -0.1578
    1DPPC   NC3 1849  27.220  27.520   7.825 -0.2906  0.2368 -0.0735
    1DPPC   PO4 1850  26.764  27.679   7.843 -0.0246  0.0957 -0.2310
    1DPPC   GL1 1851  26.869  27.722   7.418  0.2534  0.1457 -0.1297
    1DPPC   GL2 1852  27.030  27.397   7.413 -0.0618  0.2207  0.1945
    1DPPC   C1A 1853  27.192  27.767   7.109 -0.2250 -0.1080  0.0736
    1DPPC   C2A 1854  27.286  27.890   6.717 -0.0516  0.2434  0.2351
    1DPPC   C3A 1855  27.504  27.902   6.366  0.4251 -0.0180 -0.0554
    1DPPC   C4A 1856  27.586  27.754   6.009 -0.0038  0.3596 -0.1049
    1DPPC   C1B 1857  26.847  27.405   6.984  0.1122 -0.0954 -0.3312
    1DPPC   C2B 1858  26.892  27.544   6.555  0.1283 -0.0302  0.0715
    1DPPC   C3B 1859  27.021  27.875   6.305 -0.1439  0.0111  0.1327
    1DPPC   C4B 1860  27.273  28.214   6.056  0.0713 -0.1252 -0.0337
    1DPPC   NC3 1861  21.129   4.530   7.103 -0.1476  0.0244  0.1291
    1DPPC   PO4 1862  21.570   4.688   7.033  0.0018  0.4150 -0.0189
    1DPPC   GL1 1863  21.444   4.587   6.633 -0.1274 -0.2436 -0.1723
    1DPPC   GL2 1864  21.339   4.363   6.592  0.1776 -0.1328  0.2663
    1DPPC   C1A 1865  21.416   4.587   6.126  0.3637  0.3031 -0.0183
    1DPPC   C2A 1866  21.613   4.335   5.785 -0.0727 -0.2600  0.1750
    1DPPC   C3A 1867  21.500   4.051   5.541 -0.0195 -0.1189 -0.0064
    1DPPC   C4A 1868  21.339   4.061   5.162  0.0674  0.0961  0.1116
    1DPPC   C1B 1869  21.391   4.088   6.188  0.1775  0.3970 -0.2660
    1DPPC   C2B 1870  21.108   4.033   5.921 -0.0723 -0.0801 -0.1168
    1DPPC   C3B 1871  20.948   3.880   5.468 -0.2288  0.1303  0.0255
    1DPPC   C4B 1872  20.910   3.489   5.256  0.2393 -0.1322 -0.1839
    1DPPC   NC3 1873  20.394   6.625   6.361  0.2327 -0.1925  0.1633
    1DPPC   PO4 1874  20.850   6.681   6.430 -0.0405  0.1717 -0.0629
    1DPPC   GL1 1875  21.176   6.783   6.158 -0.1855  0.0365 -0.0211
    1DPPC   GL2 1876  21.027   6.921   5.937 -0.0883 -0.0612 -0.1227
    1DPPC   C1A 1877  21.625   6.776   5.943  0.1636 -0.1285 -0.1004
    1DPPC   C2A 1878  21.925   6.692   5.725  0.3571 -0.0144 -0.1682
    1DPPC   C3A 1879  22.259   6.697   5.432 -0.1395 -0.3064 -0.0038
    1DPPC   C4A 1880  22.696   6.736   5.624  0.2343 -0.0489  0.0067
    1DPPC   C1B 1881  21.287   7.203   5.714 -0.0048 -0.1601  0.2455
    1DPPC   C2B 1882  21.713   7.103   5.501  0.3922 -0.0922 -0.0753
    1DPPC   C3B 1883  21.822   6.940   5.117  0.2589  0.1420  0.0573
    1DPPC   C4B 1884  22.099   6.687   4.904  0.1120 -0.0287 -0.2108
    1DPPC   NC3 1885  22.237  28.535   7.560 -0.0610  0.0098  0.1551
    1DPPC   PO4 1886  22.122  28.952   7.207 -0.1407 -0.0607  0.0280
    1DPPC   GL1 1887  22.377  28.682   6.915 -0.1345 -0.0457 -0.0337
    1DPPC   GL2 1888  22.680  28.587   6.871  0.1005  0.2516 -0.1029
    1DPPC   C1A 1889  22.445  28.580   6.440 -0.1380 -0.0045  0.0577
    1DPPC   C2A 1890  22.601  28.821   6.097  0.0678  0.2152 -0.0916
    1DPPC   C3A 1891  22.794  28.739   5.800 -0.0656 -0.3082  0.3296
    1DPPC   C4A 1892  22.933  29.041   5.394 -0.1024 -0.2964  0.0031
    1DPPC   C1B 1893  22.794  28.182   6.693 -0.0523  0.1899  0.1022
    1DPPC   C2B 1894  22.860  27.945   6.254 -0.0225  0.1863 -0.2102
    1DPPC   C3B 1895  23.082  27.620   6.074  0.0875  0.0298  0.0106
    1DPPC   C4B 1896  23.068  27.332   5.679  0.5028 -0.2279 -0.0392
    1DPPC   NC3 1897  13.293  14.876   6.583 -0.1266 -0.0589  0.1600
    1DPPC   PO4 1898  13.542  15.269   6.427 -0.1994 -0.1378 -0.0310
    1DPPC   GL1 1899  13.428  15.451   6.013 -0.3730  0.0079  0.1148
    1DPPC   GL2 1900  13.333  15.831   5.901  0.1457 -0.0453  0.0502
    1DPPC   C1A 1901  13.681  15.609   5.558 -0.0260  0.0560 -0.2500
    1DPPC   C2A 1902  13.524  15.542   5.126 -0.1135 -0.4689  0.1042
    1DPPC   C3A 1903  13.672  15.446   4.706  0.1937 -0.1074  0.2044
    1DPPC   C4A 1904  13.546  15.186   4.369  0.0776  0.0215 -0.0075
    1DPPC   C1B 1905  13.387  16.081   5.579  0.2129  0.0360 -0.1970
    1DPPC   C2B 1906  13.454  16.011   5.184  0.1790 -0.0139 -0.0388
    1DPPC   C3B 1907  13.446  15.914   4.778 -0.0055 -0.0932 -0.0688
    1DPPC   C4B 1908  13.423  16.165   4.379 -0.1604  0.0994  0.3045
    1DPPC   NC3 1909  19.945  25.482   6.798 -0.2500 -0.2965 -0.1280
    1DPPC   PO4 1910  20.062  25.041   7.042  0.2344 -0.2525  0.1034
    1DPPC   GL1 1911  20.180  25.082   6.601  0.1634  0.1740  0.0253
    1DPPC   GL2 1912  20.486  24.934   6.477  0.4417 -0.1561  0.0350
    1DPPC   C1A 1913  20.077  25.141   6.228 -0.0668 -0.0508 -0.0819
    1DPPC   C2A 1914  19.832  25.298   5.881  0.2699  0.0074  0.2306
    1DPPC   C3A 1915  19.641  25.444   5.524  0.1567 -0.0713  0.3731
    1DPPC   C4A 1916  19.284  25.502   5.320  0.1072 -0.0263 -0.0851
    1DPPC   C1B 1917  20.525  24.962   6.101  0.0024  0.0994  0.3285
    1DPPC   C2B 1918  20.428  24.983   5.650  0.1461 -0.1677 -0.0379
    1DPPC   C3B 1919  20.579  25.193   5.362 -0.0192  0.2217 -0.0942
    1DPPC   C4B 1920  20.516  25.580   5.152  0.2982 -0.1446  0.0458
    1DPPC   NC3 1921  11.395   1.559   6.355 -0.2744 -0.0496  0.1624
    1DPPC   PO4 1922  11.181   1.934   6.318  0.0438  0.1926 -0.1329
    1DPPC   GL1 1923  11.268   1.858   5.990  0.0580  0.1090  0.2107
    1DPPC   GL2 1924  11.031   1.607   5.880 -0.1765 -0.0886 -0.0295
    1DPPC   C1A 1925  11.325   2.013   5.616 -0.2557 -0.0617  0.2894
    1DPPC   C2A 1926  11.297   2.023   5.154 -0.2465 -0.0017  0.0009
    1DPPC   C3A 1927  10.970   2.005   4.990  0.0779  0.2314 -0.4326
    1DPPC   C4A 1928  10.616   2.199   4.757 -0.1347 -0.0941 -0.0328
    1DPPC   C1B 1929  10.984   1.650   5.463 -0.3315  0.0411  0.0074
    1DPPC   C2B 1930  11.058   1.528   5.105 -0.1165  0.0823 -0.4978
    1DPPC   C3B 1931  11.319   1.700   4.756  0.1758 -0.0680  0.4330
    1DPPC   C4B 1932  11.156   1.960   4.517 -0.2818  0.0533  0.0068
    1DPPC   NC3 1933  28.475  20.507   7.507 -0.0387 -0.0213  0.1047
    1DPPC   PO4 1934  28.799  20.658   7.404 -0.1755  0.0998 -0.1314
    1DPPC   GL1 1935  28.973  20.727   7.066  0.0255 -0.2306  0.1736
    1DPPC   GL2 1936  29.263  20.672   7.097 -0.0483 -0.0101  0.0592
    1DPPC   C1A 1937  28.821  20.764   6.596  0.1353 -0.0350  0.0346
    1DPPC   C2A 1938  28.886  21.214   6.409  0.0649  0.1750  0.1175
    1DPPC   C3A 1939  28.772  21.544   6.074 -0.0071  0.1290 -0.0599
    1DPPC   C4A 1940  28.416  21.780   5.607 -0.0672  0.2406  0.0240
    1DPPC   C1B 1941  29.422  20.650   6.706  0.1927 -0.3687 -0.0556
    1DPPC   C2B 1942  29.606  20.620   6.319  0.0556  0.1229 -0.0884
    1DPPC   C3B 1943  29.608  20.948   5.993 -0.2349  0.2495  0.2914
    1DPPC   C4B 1944  29.867  20.908   5.540 -0.0291  0.1793 -0.0541
    1DPPC   NC3 1945   4.909  18.023   6.874  0.1110 -0.1604  0.1190
    1DPPC   PO4 1946   4.706  18.368   7.040 -0.3369  0.6275 -0.0799
    1DPPC   GL1 1947   4.571  18.468   6.617  0.0781  0.0266 -0.1128
    1DPPC   GL2 1948   4.226  18.584   6.522 -0.2314 -0.0100  0.4826
    1DPPC   C1A 1949   4.700  18.515   6.224 -0.0824  0.0824 -0.0653
    1DPPC   C2A 1950   4.607  18.492   5.894  0.1245  0.3413 -0.2084
    1DPPC   C3A 1951   4.583  18.742   5.523  0.0597  0.0926  0.0988
    1DPPC   C4A 1952   4.635  19.041   5.145 -0.0278  0.0054  0.3256
    1DPPC   C1B 1953   4.127  18.494   6.071  0.0390  0.3162 -0.0007
    1DPPC   C2B 1954   4.158  18.504   5.639 -0.0154 -0.0002  0.0914
    1DPPC   C3B 1955   3.976  18.268   5.291 -0.0792 -0.0047 -0.0490
    1DPPC   C4B 1956   3.829  18.250   4.896 -0.1330  0.0108 -0.0336
    1DPPC   NC3 1957   8.553  23.711   7.256 -0.2071  0.2611  0.1260
    1DPPC   PO4 1958   8.184  23.841   7.051 -0.0083 -0.0055 -0.0867
    1DPPC   GL1 1959   7.994  23.939   6.632  0.0736  0.1025  0.3755
    1DPPC   GL2 1960   7.695  23.799   6.504 -0.0005  0.2483  0.1656
    1DPPC   C1A 1961   7.848  24.345   6.318  0.1768  0.1745  0.0000
    1DPPC   C2A 1962   7.636  24.677   6.082  0.1695 -0.0844 -0.0588
    1DPPC   C3A 1963   7.584  24.813   5.744  0.2098 -0.0113  0.2056
    1DPPC   C4A 1964   7.682  25.000   5.273 -0.3201  0.1782  0.1586
    1DPPC   C1B 1965   7.953  23.729   6.118  0.1099 -0.0587 -0.1446
    1DPPC   C2B 1966   7.873  23.685   5.672 -0.1317  0.2046  0.1321
    1DPPC   C3B 1967   8.086  23.405   5.301  0.0280 -0.0258  0.1139
    1DPPC   C4B 1968   8.294  23.427   4.862  0.2090 -0.3772  0.1921
    1DPPC   NC3 1969  16.831  24.770   6.889  0.2248  0.0746  0.0288
    1DPPC   PO4 1970  17.035  25.230   6.727 -0.1424  0.2128  0.2613
    1DPPC   GL1 1971  16.958  25.308   6.349 -0.0117 -0.0084  0.1541
    1DPPC   GL2 1972  16.728  25.630   6.322 -0.1498 -0.0308  0.0969
    1DPPC   C1A 1973  17.012  25.372   5.952  0.0433  0.0698 -0.1022
    1DPPC   C2A 1974  16.973  25.401   5.543 -0.4051 -0.1132  0.1733
    1DPPC   C3A 1975  16.979  25.366   5.106 -0.1366  0.2660  0.0140
    1DPPC   C4A 1976  16.833  25.443   4.806  0.3728  0.0426 -0.1446
    1DPPC   C1B 1977  16.696  25.848   5.933 -0.0041 -0.0764 -0.1374
    1DPPC   C2B 1978  16.702  25.941   5.536  0.2251  0.2795  0.0757
    1DPPC   C3B 1979  16.911  26.200   5.230  0.0027  0.0342  0.0200
    1DPPC   C4B 1980  16.981  26.472   4.872  0.0040  0.2109 -0.0540
    1DPPC   NC3 1981  14.434   3.678   6.091 -0.0589  0.1642 -0.0272
    1DPPC   PO4 1982  14.825   3.710   6.289  0.2630  0.1247  0.1822
    1DPPC   GL1 1983  15.049   3.660   5.999  0.0948  0.1160 -0.1004
    1DPPC   GL2 1984  15.130   3.899   5.874  0.2794  0.1381  0.1838
    1DPPC   C1A 1985  15.342   3.481   5.826 -0.1610  0.0521 -0.2260
    1DPPC   C2A 1986  15.353   3.230   5.509  0.0945  0.1563  0.1390
    1DPPC   C3A 1987  15.350   3.116   5.109 -0.0590 -0.0759 -0.2495
    1DPPC   C4A 1988  15.357   3.026   4.729 -0.0082 -0.2921 -0.1076
    1DPPC   C1B 1989  15.178   3.865   5.517 -0.1921  0.0231  0.0639
    1DPPC   C2B 1990  15.167   3.631   5.121  0.1083  0.0235  0.3575
    1DPPC   C3B 1991  15.565   3.522   4.888 -0.0006  0.1569 -0.1507
    1DPPC   C4B 1992  15.795   3.402   4.517  0.0078  0.1897 -0.2564
    1DPPC   NC3 1993   5.438   4.335   7.653  0.0845  0.1617  0.0476
    1DPPC   PO4 1994   5.403   4.774   7.656 -0.0873  0.1936 -0.0312
    1DPPC   GL1 1995   5.332   4.730   7.228 -0.0944 -0.2666 -0.1277
    1DPPC   GL2 1996   5.293   4.429   7.190 -0.1393  0.0738  0.5614
    1DPPC   C1A 1997   5.172   4.980   6.870 -0.0094  0.0263  0.2404
    1DPPC   C2A 1998   5.031   5.235   6.465 -0.0852  0.2568 -0.1021
    1DPPC   C3A 1999   4.955   5.411   6.033  0.2848 -0.0540  0.0529
    1DPPC   C4A 2000   5.082   5.594   5.595 -0.0167 -0.4274 -0.3768
    1DPPC   C1B 2001   5.157   4.521   6.777 -0.1396  0.0960 -0.0713
    1DPPC   C2B 2002   5.068   4.671   6.449 -0.1474  0.1084  0.1233
    1DPPC   C3B 2003   5.229   4.886   6.162  0.1779 -0.2695 -0.0089
    1DPPC   C4B 2004   5.427   4.941   5.764  0.1499  0.2372  0.0028
    1DPPC   NC3 2005  23.153   4.704   7.400  0.2360  0.1174 -0.1874
    1DPPC   PO4 2006  23.089   4.390   7.215 -0.2571  0.5537 -0.0002
    1DPPC   GL1 2007  23.383   4.239   7.028 -0.1820 -0.0173 -0.1216
    1DPPC   GL2 2008  23.408   3.984   7.035 -0.0813  0.0156  0.1269
    1DPPC   C1A 2009  23.465   4.446   6.630 -0.1349 -0.2779  0.1626
    1DPPC   C2A 2010  23.600   4.383   6.300  0.1461 -0.1268  0.1477
    1DPPC   C3A 2011  23.738   4.393   5.898  0.2195  0.0380 -0.0721
    1DPPC   C4A 2012  23.977   4.156   5.614 -0.0960 -0.2284 -0.0584
    1DPPC   C1B 2013  23.311   3.873   6.609  0.2178 -0.2842 -0.4030
    1DPPC   C2B 2014  23.353   3.795   6.248 -0.0221  0.0564  0.3741
    1DPPC   C3B 2015  23.367   3.847   5.762 -0.1215  0.2198  0.0033
    1DPPC   C4B 2016  23.578   3.869   5.397 -0.3304  0.2187 -0.0985
    1DPPC   NC3 2017  13.429   3.494   6.070  0.1086 -0.0695 -0.0954
    1DPPC   PO4 2018  13.077   3.571   5.917  0.1717 -0.1323 -0.1633
    1DPPC   GL1 2019  13.111   3.337   5.608  0.0801 -0.2195 -0.2109
    1DPPC   GL2 2020  13.169   3.079   5.733  0.2890  0.0552  0.2055
    1DPPC   C1A 2021  12.908   3.390   5.190  0.1483 -0.3293  0.0897
    1DPPC   C2A 2022  12.649   3.255   4.774  0.2347  0.3206 -0.1659
    1DPPC   C3A 2023  12.508   3.447   4.447 -0.0251  0.2200  0.0304
    1DPPC   C4A 2024  12.480   3.646   3.999  0.3478 -0.0443 -0.3142
    1DPPC   C1B 2025  13.035   2.848   5.300  0.0591 -0.2329 -0.1627
    1DPPC   C2B 2026  13.372   2.675   4.894  0.1777  0.2693 -0.2810
    1DPPC   C3B 2027  13.429   2.350   4.568 -0.1085 -0.0404 -0.2789
    1DPPC   C4B 2028  13.270   2.224   4.192  0.3439 -0.2287 -0.0980
    1DPPC   NC3 2029  20.385   9.927   5.977  0.0128  0.0078 -0.2795
    1DPPC   PO4 2030  20.422   9.608   5.574 -0.3517  0.3223  0.2406
    1DPPC   GL1 2031  20.614   9.651   5.184 -0.2652 -0.1313  0.0995
    1DPPC   GL2 2032  20.831   9.486   5.147 -0.0352  0.1510 -0.0476
    1DPPC   C1A 2033  20.659   9.859   4.844 -0.1667 -0.1397  0.1609
    1DPPC   C2A 2034  20.408  10.015   4.489 -0.2087  0.1739 -0.0710
    1DPPC   C3A 2035  20.442  10.453   4.424  0.0872 -0.0098  0.0082
    1DPPC   C4A 2036  20.532  10.938   4.214 -0.0569  0.2253  0.2258
    1DPPC   C1B 2037  20.662   9.309   4.816  0.2683 -0.1845 -0.0222
    1DPPC   C2B 2038  20.514   9.182   4.485 -0.4920 -0.1317 -0.0814
    1DPPC   C3B 2039  20.583   9.249   4.052 -0.1880  0.1379  0.0227
    1DPPC   C4B 2040  20.496   9.424   3.642 -0.1018  0.1677 -0.1197
    1DPPC   NC3 2041  18.868   3.893   6.423 -0.0080  0.0983  0.1798
    1DPPC   PO4 2042  19.204   4.224   6.597  0.2059 -0.0532  0.0903
    1DPPC   GL1 2043  19.341   4.223   6.171  0.2155 -0.0811 -0.0861
    1DPPC   GL2 2044  19.574   4.360   6.138 -0.2188  0.0520 -0.2122
    1DPPC   C1A 2045  19.438   3.912   5.966  0.0114  0.0227  0.2788
    1DPPC   C2A 2046  19.737   3.880   5.652  0.0749  0.0655 -0.0144
    1DPPC   C3A 2047  19.791   3.741   5.201 -0.0341  0.0059 -0.0302
    1DPPC   C4A 2048  19.991   3.653   4.880  0.3147 -0.0661 -0.0152
    1DPPC   C1B 2049  19.492   4.362   5.732  0.0423 -0.4240 -0.1276
    1DPPC   C2B 2050  19.289   4.327   5.353 -0.0216  0.0952  0.0015
    1DPPC   C3B 2051  19.010   4.413   5.023 -0.0621  0.2997 -0.3136
    1DPPC   C4B 2052  19.056   4.345   4.571  0.1273 -0.1968  0.1306
    1DPPC   NC3 2053  23.064  23.816   8.028 -0.2719  0.0526  0.0718
    1DPPC   PO4 2054  23.279  23.802   7.558 -0.0442  0.3168  0.0595
    1DPPC   GL1 2055  23.065  23.689   7.084  0.0296  0.1038  0.0259
    1DPPC   GL2 2056  22.803  23.556   7.067  0.0256  0.1539  0.2802
    1DPPC   C1A 2057  23.167  23.679   6.668 -0.0075  0.0748  0.1412
    1DPPC   C2A 2058  23.448  23.581   6.269 -0.3324  0.4286  0.1043
    1DPPC   C3A 2059  23.773  23.533   5.947 -0.2330  0.2896  0.2238
    1DPPC   C4A 2060  24.117  23.450   5.812  0.0565  0.0808  0.0165
    1DPPC   C1B 2061  22.677  23.417   6.628  0.2831 -0.2397 -0.2076
    1DPPC   C2B 2062  22.845  23.601   6.240  0.0455  0.0046 -0.4283
    1DPPC   C3B 2063  23.156  23.975   5.978 -0.3017  0.1006 -0.3855
    1DPPC   C4B 2064  23.154  24.139   5.600  0.0850 -0.1155 -0.1519
    1DPPC   NC3 2065  25.042   0.664   7.793  0.3115 -0.2489  0.2053
    1DPPC   PO4 2066  24.824   0.859   7.504  0.0817  0.1691 -0.0022
    1DPPC   GL1 2067  24.834   1.052   7.110 -0.0733  0.2198  0.1673
    1DPPC   GL2 2068  24.837   0.708   6.895 -0.0837  0.2413 -0.3641
    1DPPC   C1A 2069  24.832   1.247   6.698 -0.0080  0.4215 -0.0730
    1DPPC   C2A 2070  25.051   1.309   6.233  0.0547 -0.3124  0.2334
    1DPPC   C3A 2071  25.430   1.381   5.992 -0.0141 -0.3286  0.1237
    1DPPC   C4A 2072  25.716   1.257   5.653  0.1130  0.1344 -0.2455
    1DPPC   C1B 2073  24.909   0.784   6.515 -0.0764 -0.0837 -0.2210
    1DPPC   C2B 2074  25.001   0.831   6.121  0.3179  0.3122 -0.2661
    1DPPC   C3B 2075  25.274   0.908   5.835  0.1556  0.4535  0.2688
    1DPPC   C4B 2076  25.393   0.739   5.414 -0.0298  0.2210 -0.0916
    1DPPC   NC3 2077   3.902  14.427   7.129 -0.2042 -0.0739  0.2337
    1DPPC   PO4 2078   4.274  14.506   6.887  0.3141 -0.0201  0.2881
    1DPPC   GL1 2079   3.960  14.241   6.698  0.2869  0.0565 -0.3087
    1DPPC   GL2 2080   3.993  13.828   6.783 -0.1705  0.2349 -0.1224
    1DPPC   C1A 2081   3.768  14.080   6.333 -0.0501 -0.1301  0.0269
    1DPPC   C2A 2082   3.504  13.828   6.124 -0.0907  0.1393 -0.1247
    1DPPC   C3A 2083   3.424  13.667   5.824  0.3484  0.0332  0.0050
    1DPPC   C4A 2084   3.410  13.618   5.443  0.1719  0.1472  0.2114
    1DPPC   C1B 2085   3.845  13.562   6.462  0.0664 -0.1767 -0.1214
    1DPPC   C2B 2086   3.877  13.259   6.039 -0.0145 -0.1711  0.1329
    1DPPC   C3B 2087   3.749  13.219   5.587 -0.0406 -0.1967 -0.1338
    1DPPC   C4B 2088   3.652  12.995   5.344 -0.0924  0.2119 -0.1947
    1DPPC   NC3 2089  22.038   5.026   6.876 -0.1155  0.0907 -0.1263
    1DPPC   PO4 2090  22.454   5.106   6.975  0.3163  0.1474  0.1465
    1DPPC   GL1 2091  22.419   5.054   6.490 -0.1830  0.0307 -0.3316
    1DPPC   GL2 2092  22.726   5.243   6.424  0.0034  0.0622  0.0417
    1DPPC   C1A 2093  22.385   5.242   6.096 -0.3281  0.1221  0.0277
    1DPPC   C2A 2094  22.421   5.024   5.738  0.2026 -0.0535 -0.1825
    1DPPC   C3A 2095  22.277   4.942   5.312 -0.2905 -0.0226  0.2224
    1DPPC   C4A 2096  22.114   4.690   5.044 -0.0546  0.0606  0.0038
    1DPPC   C1B 2097  23.126   5.361   6.234 -0.0061 -0.3228 -0.3953
    1DPPC   C2B 2098  23.273   5.204   6.045 -0.2130 -0.1632 -0.1028
    1DPPC   C3B 2099  23.381   5.267   5.628  0.0914 -0.3070 -0.1904
    1DPPC   C4B 2100  23.170   5.175   5.294 -0.0626  0.3015  0.2803
    1DPPC   NC3 2101   0.337  20.337   7.512  0.1316  0.2276  0.0987
    1DPPC   PO4 2102   0.063  20.172   7.292  0.3006 -0.0531 -0.2913
    1DPPC   GL1 2103   0.322  20.214   6.989 -0.1638 -0.0385  0.3970
    1DPPC   GL2 2104   0.656  20.235   7.080 -0.0296  0.1323  0.0893
    1DPPC   C1A 2105   0.303  20.208   6.557  0.2307 -0.1560  0.2132
    1DPPC   C2A 2106  -0.068  20.244   6.318  0.2291  0.0090 -0.0899
    1DPPC   C3A 2107  -0.367  20.013   6.099  0.0283 -0.1662  0.1430
    1DPPC   C4A 2108  -0.514  19.732   5.816  0.2565  0.2434  0.0105
    1DPPC   C1B 2109   0.804  20.022   6.583  0.0474  0.0520  0.0479
    1DPPC   C2B 2110   0.735  20.094   6.171  0.2440  0.0738 -0.2252
    1DPPC   C3B 2111   0.376  20.367   6.061 -0.2665 -0.0888  0.2640
    1DPPC   C4B 2112   0.244  20.808   6.128 -0.1699 -0.2171  0.4240
    1DPPC   NC3 2113  25.014   7.188   7.566 -0.0260  0.1402  0.0255
    1DPPC   PO4 2114  25.380   7.298   7.626  0.1952 -0.1595  0.0225
    1DPPC   GL1 2115  25.600   7.325   7.150 -0.2171  0.1526 -0.0708
    1DPPC   GL2 2116  25.885   7.332   7.311 -0.1178 -0.1982 -0.0259
    1DPPC   C1A 2117  25.577   7.438   6.735 -0.0197 -0.1693  0.2577
    1DPPC   C2A 2118  25.754   7.387   6.365  0.1605 -0.4674  0.1534
    1DPPC   C3A 2119  25.757   7.205   5.904  0.0158 -0.0708 -0.1742
    1DPPC   C4A 2120  25.428   7.112   5.528  0.1944  0.0469 -0.2837
    1DPPC   C1B 2121  25.997   6.915   7.037 -0.0536 -0.2173  0.0199
    1DPPC   C2B 2122  26.154   6.639   6.853  0.1791 -0.1131 -0.3872
    1DPPC   C3B 2123  26.355   6.579   6.528 -0.0501 -0.3891 -0.0107
    1DPPC   C4B 2124  26.469   6.381   6.139  0.1097 -0.0616  0.0613
    1DPPC   NC3 2125  13.446   6.112   5.928  0.2242  0.0936  0.1704
    1DPPC   PO4 2126  13.495   6.286   5.479  0.1851 -0.0855  0.4587
    1DPPC   GL1 2127  13.400   6.411   5.082 -0.0089  0.1582  0.0192
    1DPPC   GL2 2128  13.275   6.641   4.878 -0.0873  0.1152 -0.3118
    1DPPC   C1A 2129  13.559   6.217   4.731  0.2045  0.2021 -0.2751
    1DPPC   C2A 2130  13.515   6.155   4.320  0.1659  0.3198  0.4573
    1DPPC   C3A 2131  13.285   6.062   3.972 -0.1340 -0.2370  0.1595
    1DPPC   C4A 2132  13.363   6.241   3.581 -0.0027  0.2865  0.1085
    1DPPC   C1B 2133  13.273   6.555   4.391  0.0627 -0.1706  0.1205
    1DPPC   C2B 2134  12.987   6.506   4.078 -0.1311 -0.0678  0.1742
    1DPPC   C3B 2135  12.805   6.297   3.839 -0.1122 -0.0556  0.0076
    1DPPC   C4B 2136  12.760   6.013   3.539 -0.0837  0.2030 -0.0364
    1DPPC   NC3 2137  18.761   4.415   6.107  0.3731 -0.3070  0.1074
    1DPPC   PO4 2138  18.469   4.210   6.338 -0.1509 -0.0380 -0.1893
    1DPPC   GL1 2139  18.471   4.017   5.925  0.1852  0.2059  0.0220
    1DPPC   GL2 2140  18.154   3.946   5.646 -0.0169 -0.0456 -0.0945
    1DPPC   C1A 2141  18.592   3.703   5.608  0.0009 -0.0482 -0.0623
    1DPPC   C2A 2142  18.590   3.622   5.098 -0.0259  0.1417 -0.5221
    1DPPC   C3A 2143  18.608   3.600   4.685  0.0990 -0.2856 -0.2027
    1DPPC   C4A 2144  18.411   3.354   4.423 -0.1231 -0.0573  0.1955
    1DPPC   C1B 2145  18.227   3.986   5.276  0.0510  0.0303  0.3279
    1DPPC   C2B 2146  18.200   3.922   4.880 -0.0008  0.0542 -0.1663
    1DPPC   C3B 2147  18.111   3.728   4.521  0.0316 -0.4067  0.2844
    1DPPC   C4B 2148  17.893   3.613   4.229 -0.1206 -0.0723  0.1102
    1DPPC   NC3 2149  16.038   6.222   5.757  0.2232  0.0648  0.1012
    1DPPC   PO4 2150  15.709   5.917   5.668  0.0159  0.0232 -0.0611
    1DPPC   GL1 2151  15.646   5.870   5.137  0.0761  0.0413 -0.2036
    1DPPC   GL2 2152  15.338   5.968   5.036 -0.1254  0.1311  0.0374
    1DPPC   C1A 2153  15.709   5.749   4.751  0.0511  0.2108 -0.1258
    1DPPC   C2A 2154  15.671   5.660   4.307  0.2232 -0.2770 -0.1579
    1DPPC   C3A 2155  15.540   5.630   3.854 -0.1690 -0.2873 -0.0981
    1DPPC   C4A 2156  15.377   5.891   3.502  0.0684  0.0210  0.0433
    1DPPC   C1B 2157  15.403   6.117   4.677  0.1776 -0.0074  0.1294
    1DPPC   C2B 2158  15.535   6.136   4.301 -0.2309  0.2974  0.2441
    1DPPC   C3B 2159  15.723   6.093   3.800  0.1064  0.0964 -0.2442
    1DPPC   C4B 2160  15.881   5.857   3.462  0.0942 -0.3950 -0.0271
    1DPPC   NC3 2161  24.805   5.755   7.566  0.0121  0.2400 -0.3888
    1DPPC   PO4 2162  24.688   5.480   7.305  0.3334  0.2874  0.0787
    1DPPC   GL1 2163  24.683   5.689   6.865  0.0712 -0.0725  0.2378
    1DPPC   GL2 2164  24.434   5.548   6.700  0.1032 -0.2285  0.2289
    1DPPC   C1A 2165  24.818   5.709   6.364  0.0146  0.0046  0.4067
    1DPPC   C2A 2166  24.746   5.565   5.917  0.3012  0.1913 -0.0922
    1DPPC   C3A 2167  24.701   5.186   5.659 -0.1930  0.2174  0.0294
    1DPPC   C4A 2168  24.805   4.957   5.373  0.5319 -0.2414 -0.0462
    1DPPC   C1B 2169  24.434   5.363   6.283 -0.1687  0.0781  0.0110
    1DPPC   C2B 2170  24.160   5.341   5.906  0.0225  0.3301 -0.0743
    1DPPC   C3B 2171  24.029   5.352   5.444 -0.3091  0.1203  0.0547
    1DPPC   C4B 2172  23.729   5.177   5.267  0.0740 -0.1178  0.2164
    1DPPC   NC3 2173   4.490  26.061   7.572 -0.0876  0.0289  0.3661
    1DPPC   PO4 2174   4.102  26.223   7.531 -0.1050  0.0067 -0.2254
    1DPPC   GL1 2175   4.053  26.083   7.098  0.3552 -0.1869  0.0778
    1DPPC   GL2 2176   4.268  26.100   7.071  0.0161 -0.0022  0.0719
    1DPPC   C1A 2177   3.863  26.067   6.725 -0.3435  0.0989 -0.4143
    1DPPC   C2A 2178   3.778  25.870   6.266 -0.3046  0.0702 -0.0875
    1DPPC   C3A 2179   3.729  25.377   6.090  0.3177 -0.0485  0.0097
    1DPPC   C4A 2180   3.469  24.953   6.037 -0.0636 -0.3030  0.0833
    1DPPC   C1B 2181   4.309  26.404   6.698  0.1170  0.2379  0.1693
    1DPPC   C2B 2182   4.061  26.424   6.412 -0.2012  0.1841  0.1355
    1DPPC   C3B 2183   3.650  26.359   6.155  0.1038 -0.3046  0.0792
    1DPPC   C4B 2184   3.511  26.586   5.927 -0.1184 -0.0291 -0.2057
    1DPPC   NC3 2185  23.587   0.374   7.461 -0.0132 -0.2176  0.0955
    1DPPC   PO4 2186  23.362  -0.031   7.342 -0.0570 -0.1321  0.0033
    1DPPC   GL1 2187  23.468  -0.283   6.948  0.1658 -0.0092 -0.1316
    1DPPC   GL2 2188  23.299  -0.510   6.806  0.2605  0.1141 -0.2260
    1DPPC   C1A 2189  23.486  -0.024   6.463  0.3164  0.1157 -0.2718
    1DPPC   C2A 2190  23.307   0.377   6.265 -0.2197  0.1836  0.0302
    1DPPC   C3A 2191  23.004   0.482   6.043  0.0650 -0.3006  0.1481
    1DPPC   C4A 2192  22.939   0.567   5.672 -0.0041 -0.0670  0.0138
    1DPPC   C1B 2193  23.284  -0.709   6.484  0.0558  0.2836 -0.0743
    1DPPC   C2B 2194  23.439  -0.873   6.173 -0.0912  0.0169  0.4311
    1DPPC   C3B 2195  23.230  -0.946   5.698 -0.3717 -0.2610 -0.0133
    1DPPC   C4B 2196  23.268  -0.771   5.356  0.1395  0.3319 -0.0151
    1DPPC   NC3 2197  23.932  24.143   7.818  0.1756 -0.1089  0.1541
    1DPPC   PO4 2198  23.621  24.371   7.450 -0.0396  0.1037 -0.3885
    1DPPC   GL1 2199  23.798  24.449   7.073 -0.0257 -0.2159  0.2361
    1DPPC   GL2 2200  23.760  24.284   6.867 -0.0618 -0.0869  0.1958
    1DPPC   C1A 2201  23.984  24.797   6.750  0.2183  0.1036 -0.0739
    1DPPC   C2A 2202  24.004  24.851   6.367 -0.0518  0.2614 -0.3138
    1DPPC   C3A 2203  24.146  24.934   5.982  0.2629 -0.1507  0.0547
    1DPPC   C4A 2204  24.444  25.038   5.837  0.0874 -0.2262 -0.0412
    1DPPC   C1B 2205  23.804  24.431   6.471  0.1663 -0.0494  0.0235
    1DPPC   C2B 2206  24.035  24.417   6.038 -0.1190 -0.1212  0.0565
    1DPPC   C3B 2207  24.240  24.519   5.611  0.0131 -0.1027 -0.0474
    1DPPC   C4B 2208  24.375  24.330   5.192 -0.1511  0.2623  0.0749
    1DPPC   NC3 2209   1.693   5.810   8.085  0.0142 -0.1279 -0.2474
    1DPPC   PO4 2210   1.355   5.623   7.889  0.0870 -0.2137  0.2642
    1DPPC   GL1 2211   1.181   5.441   7.556 -0.5441 -0.3949  0.0750
    1DPPC   GL2 2212   1.472   5.325   7.448 -0.0909  0.1556  0.0505
    1DPPC   C1A 2213   1.003   5.604   7.189  0.1996  0.0381  0.2546
    1DPPC   C2A 2214   0.739   5.783   6.891 -0.1411 -0.1935 -0.0723
    1DPPC   C3A 2215   0.524   6.073   6.711  0.0661 -0.2109  0.2940
    1DPPC   C4A 2216   0.333   6.320   6.431 -0.1849 -0.1045 -0.0507
    1DPPC   C1B 2217   1.551   5.153   7.062 -0.1985 -0.0807 -0.2179
    1DPPC   C2B 2218   1.865   5.114   6.871 -0.2300 -0.0936 -0.0526
    1DPPC   C3B 2219   2.201   5.043   6.787  0.1726  0.1540  0.2826
    1DPPC   C4B 2220   2.407   5.118   6.480  0.2659  0.2515 -0.0659
    1DPPC   NC3 2221   8.935  26.578   7.665  0.0673  0.1846 -0.0862
    1DPPC   PO4 2222   9.085  27.049   7.768  0.0982  0.0387  0.2297
    1DPPC   GL1 2223   9.131  26.923   7.318  0.1600  0.0271  0.5764
    1DPPC   GL2 2224   9.044  26.614   7.125  0.0200 -0.2568  0.0251
    1DPPC   C1A 2225   9.070  27.079   6.920 -0.1772 -0.1945  0.0082
    1DPPC   C2A 2226   9.331  27.001   6.557 -0.2948  0.2642 -0.1256
    1DPPC   C3A 2227   9.227  26.766   6.211 -0.1238  0.1242 -0.0842
    1DPPC   C4A 2228   9.039  26.863   5.732 -0.1261  0.1297 -0.0907
    1DPPC   C1B 2229   8.983  26.600   6.576  0.2607 -0.0700  0.1641
    1DPPC   C2B 2230   8.815  26.502   6.161 -0.0524  0.0611  0.2041
    1DPPC   C3B 2231   8.385  26.334   6.065  0.1086 -0.0589  0.0416
    1DPPC   C4B 2232   8.387  26.041   5.834  0.2918 -0.3535 -0.1808
    1DPPC   NC3 2233  21.524   9.421   5.762  0.1053 -0.0124 -0.0985
    1DPPC   PO4 2234  21.158   9.456   5.543 -0.0283  0.0857 -0.0855
    1DPPC   GL1 2235  21.193   9.778   5.284  0.1022  0.0191  0.0275
    1DPPC   GL2 2236  21.461   9.728   5.289  0.0603  0.0168  0.0110
    1DPPC   C1A 2237  21.130   9.938   4.923  0.1989 -0.2214  0.2659
    1DPPC   C2A 2238  21.134   9.983   4.521 -0.0603 -0.2490 -0.0854
    1DPPC   C3A 2239  21.173   9.808   4.097  0.0922 -0.1411  0.2616
    1DPPC   C4A 2240  21.255   9.814   3.699  0.0447 -0.1712  0.0624
    1DPPC   C1B 2241  21.661   9.764   4.920 -0.0977 -0.1891  0.0449
    1DPPC   C2B 2242  21.633   9.830   4.456 -0.1914 -0.0792  0.2923
    1DPPC   C3B 2243  21.694   9.854   4.013  0.2485 -0.0515 -0.1491
    1DPPC   C4B 2244  21.755   9.891   3.599 -0.0391  0.2407 -0.1514
    1DPPC   NC3 2245  18.117   2.564   6.517  0.1815 -0.3573  0.3544
    1DPPC   PO4 2246  18.508   2.707   6.670 -0.0989 -0.1290 -0.1263
    1DPPC   GL1 2247  18.588   2.763   6.354 -0.3829 -0.1169 -0.1644
    1DPPC   GL2 2248  18.777   2.490   6.181 -0.0856 -0.3668  0.2499
    1DPPC   C1A 2249  18.351   2.922   5.946 -0.1980  0.1967 -0.1015
    1DPPC   C2A 2250  18.634   2.970   5.685 -0.0283  0.2929 -0.0180
    1DPPC   C3A 2251  18.760   3.248   5.388 -0.1762 -0.2239  0.1455
    1DPPC   C4A 2252  19.067   3.325   5.031 -0.1314 -0.1118 -0.1954
    1DPPC   C1B 2253  18.903   2.492   5.760 -0.3765 -0.0365 -0.1969
    1DPPC   C2B 2254  18.835   2.576   5.426 -0.4063  0.0048 -0.2083
    1DPPC   C3B 2255  18.549   2.878   5.174 -0.1186 -0.1175  0.1159
    1DPPC   C4B 2256  18.626   3.150   4.813  0.3398 -0.0589 -0.3606
    1DPPC   NC3 2257  25.343  28.618   8.219 -0.3940 -0.0252 -0.0649
    1DPPC   PO4 2258  24.966  28.621   7.925  0.0828  0.0015  0.0843
    1DPPC   GL1 2259  25.013  28.773   7.454 -0.0019 -0.0025  0.0565
    1DPPC   GL2 2260  25.325  28.827   7.274 -0.0945  0.0447  0.3395
    1DPPC   C1A 2261  24.968  28.944   6.969 -0.0862  0.0880  0.1182
    1DPPC   C2A 2262  24.758  29.106   6.576  0.0793  0.2386  0.0806
    1DPPC   C3A 2263  24.707  29.359   6.155 -0.4644  0.2354  0.1692
    1DPPC   C4A 2264  24.609  29.529   5.773 -0.2674  0.0832  0.3326
    1DPPC   C1B 2265  25.441  28.794   6.876  0.1915  0.3634  0.0021
    1DPPC   C2B 2266  25.604  28.834   6.508  0.0392 -0.2360  0.1957
    1DPPC   C3B 2267  25.745  28.973   6.090  0.1494  0.1292  0.0561
    1DPPC   C4B 2268  25.834  29.081   5.577 -0.1269  0.1151  0.0634
    1DPPC   NC3 2269   1.429   8.585   7.241 -0.1645  0.2718  0.3587
    1DPPC   PO4 2270   1.451   8.834   6.874  0.0275  0.1625  0.0841
    1DPPC   GL1 2271   1.292   8.407   6.760  0.3174  0.0251 -0.3319
    1DPPC   GL2 2272   0.982   8.278   6.520  0.1903  0.4604 -0.1410
    1DPPC   C1A 2273   1.480   8.364   6.281  0.0800 -0.0159  0.2668
    1DPPC   C2A 2274   1.577   8.563   5.836 -0.0565 -0.1623  0.2598
    1DPPC   C3A 2275   1.816   8.853   5.708 -0.0023 -0.2715  0.2326
    1DPPC   C4A 2276   2.282   8.992   5.458 -0.2488 -0.1273  0.5198
    1DPPC   C1B 2277   0.952   8.281   6.127  0.1087  0.0627 -0.2094
    1DPPC   C2B 2278   0.907   8.280   5.731 -0.0388 -0.3141 -0.0521
    1DPPC   C3B 2279   1.203   8.226   5.381  0.1864 -0.4019  0.2120
    1DPPC   C4B 2280   1.633   8.450   5.332 -0.0705  0.3139 -0.2552
    1DPPC   NC3 2281  24.343   3.720   7.542  0.2574  0.2109 -0.2372
    1DPPC   PO4 2282  24.306   3.360   7.423 -0.3336  0.5112 -0.0373
    1DPPC   GL1 2283  24.240   3.488   6.956  0.1112 -0.0950  0.2496
    1DPPC   GL2 2284  24.025   3.726   6.911  0.2760  0.2250 -0.0965
    1DPPC   C1A 2285  24.072   3.166   6.648 -0.0327  0.1719  0.0307
    1DPPC   C2A 2286  24.136   3.110   6.235 -0.3392  0.1938  0.2227
    1DPPC   C3A 2287  24.118   3.157   5.876 -0.1851 -0.1253 -0.2747
    1DPPC   C4A 2288  24.073   2.963   5.562  0.0888 -0.0626 -0.0363
    1DPPC   C1B 2289  24.200   3.667   6.481  0.0916  0.1347 -0.3362
    1DPPC   C2B 2290  24.407   3.483   6.061  0.0247  0.0014  0.0954
    1DPPC   C3B 2291  24.710   3.637   5.727 -0.0510  0.1154 -0.1256
    1DPPC   C4B 2292  24.759   3.652   5.288 -0.0334 -0.0477 -0.2469
    1DPPC   NC3 2293  18.159   5.900   6.208 -0.0513 -0.2945 -0.1690
    1DPPC   PO4 2294  18.614   5.850   6.300 -0.1043  0.0302  0.1345
    1DPPC   GL1 2295  18.927   5.833   5.851 -0.0860 -0.0512  0.3527
    1DPPC   GL2 2296  19.247   5.699   5.925 -0.1538  0.5758  0.1331
    1DPPC   C1A 2297  19.162   5.765   5.456  0.1967 -0.0658  0.2623
    1DPPC   C2A 2298  19.319   5.681   4.934 -0.1474 -0.1015 -0.1167
    1DPPC   C3A 2299  19.573   5.839   4.615 -0.0534 -0.1764 -0.0486
    1DPPC   C4A 2300  19.851   6.119   4.426  0.0338 -0.0449 -0.0358
    1DPPC   C1B 2301  19.310   5.307   5.601 -0.1515 -0.2950 -0.0958
    1DPPC   C2B 2302  19.520   5.246   5.178 -0.1881 -0.3102 -0.2178
    1DPPC   C3B 2303  19.696   5.294   4.787  0.3127  0.3188  0.1057
    1DPPC   C4B 2304  19.887   5.512   4.424 -0.0671  0.1139 -0.2860
    1DPPC   NC3 2305  18.340   6.781   5.873 -0.2220  0.1545 -0.1659
    1DPPC   PO4 2306  18.043   6.798   5.522  0.0943  0.0097 -0.0865
    1DPPC   GL1 2307  17.905   6.575   5.193 -0.3592  0.0451  0.1127
    1DPPC   GL2 2308  17.925   6.299   5.224  0.0477  0.1231  0.1891
    1DPPC   C1A 2309  18.020   6.665   4.839 -0.0936 -0.0901  0.3253
    1DPPC   C2A 2310  18.110   6.607   4.493  0.3480 -0.0665 -0.0397
    1DPPC   C3A 2311  18.222   6.254   4.283  0.0452 -0.1762 -0.0860
    1DPPC   C4A 2312  18.161   6.176   3.815  0.0842 -0.0302  0.0719
    1DPPC   C1B 2313  17.979   6.094   4.824 -0.1597  0.0795 -0.1923
    1DPPC   C2B 2314  18.107   5.853   4.506 -0.0488  0.1690 -0.2667
    1DPPC   C3B 2315  18.333   5.813   4.199 -0.0663  0.5174  0.1070
    1DPPC   C4B 2316  18.718   6.047   4.125  0.3961  0.2258 -0.0607
    1DPPC   NC3 2317  12.688   5.144   5.817 -0.0711  0.2955  0.1408
    1DPPC   PO4 2318  13.029   5.427   5.610  0.0513 -0.2695  0.1393
    1DPPC   GL1 2319  13.183   5.489   5.232  0.1361 -0.0330  0.2073
    1DPPC   GL2 2320  13.307   5.828   5.187 -0.1669 -0.0163 -0.1923
    1DPPC   C1A 2321  13.020   5.326   4.874 -0.2945 -0.0946 -0.2162
    1DPPC   C2A 2322  12.875   5.395   4.430  0.2275  0.1382  0.1244
    1DPPC   C3A 2323  12.560   5.630   4.384  0.0965 -0.0524  0.1743
    1DPPC   C4A 2324  12.148   5.881   4.364  0.1954  0.2370 -0.2071
    1DPPC   C1B 2325  13.319   5.702   4.772 -0.2047 -0.1740 -0.4412
    1DPPC   C2B 2326  13.398   5.624   4.366 -0.2151 -0.0736  0.0985
    1DPPC   C3B 2327  13.251   5.319   4.068  0.0691 -0.0753  0.0844
    1DPPC   C4B 2328  12.877   5.298   3.772 -0.3076  0.0550 -0.0248
    1DPPC   NC3 2329  14.490   5.548   5.756 -0.1594 -0.0241 -0.1720
    1DPPC   PO4 2330  14.832   5.693   5.449  0.3265 -0.0169 -0.1081
    1DPPC   GL1 2331  14.901   5.713   4.991  0.1619 -0.0542  0.1233
    1DPPC   GL2 2332  14.807   5.394   5.001  0.3699  0.1988  0.1535
    1DPPC   C1A 2333  14.797   5.949   4.606 -0.1718 -0.2811  0.0637
    1DPPC   C2A 2334  14.465   6.001   4.243  0.3040 -0.3113  0.1445
    1DPPC   C3A 2335  14.225   5.799   3.954  0.3075 -0.0140  0.0192
    1DPPC   C4A 2336  14.156   5.490   3.623  0.2798  0.2048 -0.0361
    1DPPC   C1B 2337  14.918   5.275   4.660  0.0869  0.2116 -0.0631
    1DPPC   C2B 2338  15.201   5.060   4.571  0.0503 -0.0176 -0.4073
    1DPPC   C3B 2339  15.328   4.741   4.163 -0.0801 -0.0081 -0.2723
    1DPPC   C4B 2340  15.590   4.763   3.781 -0.1941  0.3388 -0.1858
    1DPPC   NC3 2341  16.983  11.258   5.796  0.1845  0.1155  0.0375
    1DPPC   PO4 2342  16.650  11.356   6.047 -0.0045 -0.0003 -0.0962
    1DPPC   GL1 2343  16.684  11.719   5.864 -0.1991  0.0896 -0.1852
    1DPPC   GL2 2344  16.476  11.890   5.830  0.0783  0.2537 -0.3640
    1DPPC   C1A 2345  16.751  11.791   5.432  0.4015 -0.1853  0.1867
    1DPPC   C2A 2346  16.684  12.007   5.108  0.0395  0.3143 -0.0207
    1DPPC   C3A 2347  16.472  11.939   4.632 -0.1081 -0.1970 -0.0183
    1DPPC   C4A 2348  16.371  12.067   4.193  0.0229  0.0128 -0.0163
    1DPPC   C1B 2349  16.325  12.097   5.460  0.3337  0.0447  0.3435
    1DPPC   C2B 2350  16.322  12.298   4.991  0.1091  0.5032 -0.1358
    1DPPC   C3B 2351  16.204  12.349   4.543 -0.2175 -0.0549 -0.0256
    1DPPC   C4B 2352  16.496  12.544   4.190 -0.0590  0.0826 -0.0081
    1DPPC   NC3 2353   0.790   4.040   8.461 -0.3364 -0.4027  0.0060
    1DPPC   PO4 2354   0.959   4.138   8.088 -0.1601  0.0207  0.1441
    1DPPC   GL1 2355   0.681   4.287   7.662 -0.1356 -0.2313  0.2086
    1DPPC   GL2 2356   0.629   4.546   7.614 -0.1437  0.0346 -0.0503
    1DPPC   C1A 2357   0.605   4.195   7.214  0.0275  0.1370  0.0823
    1DPPC   C2A 2358   0.497   4.161   6.802  0.0448 -0.1634  0.1939
    1DPPC   C3A 2359   0.372   3.894   6.412  0.1314  0.2428  0.2343
    1DPPC   C4A 2360   0.293   3.688   6.140  0.0857  0.1570  0.3965
    1DPPC   C1B 2361   0.800   4.911   7.539 -0.1174 -0.2995 -0.0680
    1DPPC   C2B 2362   1.076   5.083   7.206 -0.0491 -0.0107  0.2426
    1DPPC   C3B 2363   1.164   5.291   6.751  0.0224  0.0373  0.1798
    1DPPC   C4B 2364   1.259   5.324   6.288  0.2810  0.1270  0.0186
    1DPPC   NC3 2365   9.320   0.767   7.894  0.1867 -0.1146  0.0277
    1DPPC   PO4 2366   9.684   0.728   7.486  0.1413 -0.1920  0.3462
    1DPPC   GL1 2367   9.538   0.956   7.157  0.0261  0.1378 -0.2016
    1DPPC   GL2 2368   9.800   1.117   7.011 -0.3879 -0.0474 -0.1369
    1DPPC   C1A 2369   9.131   0.854   6.891  0.2149 -0.2899  0.3161
    1DPPC   C2A 2370   8.977   0.743   6.448 -0.0729  0.3060  0.2030
    1DPPC   C3A 2371   8.912   0.642   5.973  0.3409  0.1520 -0.1943
    1DPPC   C4A 2372   9.187   0.639   5.620  0.3714  0.0149 -0.0064
    1DPPC   C1B 2373   9.566   1.272   6.775  0.0794  0.1545 -0.2166
    1DPPC   C2B 2374   9.296   1.116   6.509 -0.1836 -0.0831  0.0905
    1DPPC   C3B 2375   9.309   0.922   6.139  0.1964  0.1551 -0.2111
    1DPPC   C4B 2376   9.648   0.892   5.906  0.3150 -0.2916  0.0752
    1DPPC   NC3 2377  28.766  17.566   7.899 -0.0686 -0.1558  0.0873
    1DPPC   PO4 2378  28.510  17.844   7.592  0.1218 -0.2942  0.0123
    1DPPC   GL1 2379  28.415  17.939   7.198 -0.2793  0.2325 -0.0007
    1DPPC   GL2 2380  28.108  18.051   7.241  0.0310  0.0857 -0.1918
    1DPPC   C1A 2381  28.436  17.730   6.855  0.0389  0.2739 -0.0391
    1DPPC   C2A 2382  28.421  17.541   6.400 -0.0039  0.1089 -0.2774
    1DPPC   C3A 2383  28.483  17.426   5.967 -0.3637  0.0844 -0.1061
    1DPPC   C4A 2384  28.422  17.305   5.624 -0.0068 -0.0465 -0.0901
    1DPPC   C1B 2385  28.309  18.289   6.860  0.2110  0.2132 -0.3558
    1DPPC   C2B 2386  28.332  18.648   6.546  0.0604  0.0102 -0.0433
    1DPPC   C3B 2387  28.643  18.945   6.405  0.4582 -0.1591 -0.0892
    1DPPC   C4B 2388  28.925  19.287   6.246  0.0323 -0.1391 -0.1383
    1DPPC   NC3 2389  22.034   6.959   6.547 -0.0246  0.0814 -0.1856
    1DPPC   PO4 2390  22.083   7.251   6.250  0.0719 -0.3833 -0.0220
    1DPPC   GL1 2391  21.936   7.355   5.920 -0.0213  0.0858 -0.1468
    1DPPC   GL2 2392  22.100   7.106   5.778  0.0311 -0.0815  0.2913
    1DPPC   C1A 2393  21.951   7.498   5.453 -0.0108  0.2626  0.2293
    1DPPC   C2A 2394  21.979   7.431   4.982 -0.0895  0.0444  0.2434
    1DPPC   C3A 2395  21.758   7.166   4.610  0.0141  0.1414 -0.0596
    1DPPC   C4A 2396  21.351   7.195   4.484  0.3070  0.1894  0.0114
    1DPPC   C1B 2397  22.283   7.163   5.290 -0.1977  0.1269 -0.1798
    1DPPC   C2B 2398  22.439   7.046   4.834  0.2042 -0.0217  0.2686
    1DPPC   C3B 2399  22.471   6.649   4.543  0.0366 -0.0453 -0.0940
    1DPPC   C4B 2400  22.649   6.358   4.704  0.3618 -0.2901 -0.1250
    1DPPC   NC3 2401  14.232   1.432   6.840  0.0696 -0.2696  0.0162
    1DPPC   PO4 2402  14.616   1.238   6.607 -0.1485 -0.1314 -0.1921
    1DPPC   GL1 2403  14.779   1.429   6.252  0.1668  0.0550 -0.0354
    1DPPC   GL2 2404  15.001   1.319   6.060 -0.1045 -0.1438 -0.3388
    1DPPC   C1A 2405  14.774   1.654   5.819 -0.0951 -0.1526  0.3520
    1DPPC   C2A 2406  14.537   1.536   5.334  0.0685  0.2068 -0.3028
    1DPPC   C3A 2407  14.604   1.243   5.107  0.1314 -0.0670 -0.0452
    1DPPC   C4A 2408  14.361   1.290   4.683  0.1380  0.3636 -0.2932
    1DPPC   C1B 2409  14.826   1.119   5.679  0.0520 -0.2982  0.4824
    1DPPC   C2B 2410  14.866   0.790   5.339  0.1239 -0.0467 -0.0049
    1DPPC   C3B 2411  14.675   0.568   5.067 -0.1707  0.2386 -0.1629
    1DPPC   C4B 2412  14.666   0.204   5.021  0.2025 -0.0536 -0.0817
    1DPPC   NC3 2413   3.164  14.160   7.139  0.1946 -0.0073 -0.1391
    1DPPC   PO4 2414   3.537  14.054   6.980 -0.0414 -0.4666  0.1359
    1DPPC   GL1 2415   3.375  13.747   6.767  0.0941 -0.1567  0.0611
    1DPPC   GL2 2416   3.441  13.491   6.820 -0.0902  0.3181  0.1618
    1DPPC   C1A 2417   3.055  13.780   6.406 -0.1862 -0.0584 -0.1748
    1DPPC   C2A 2418   2.931  13.638   5.991  0.2137  0.2200 -0.4097
    1DPPC   C3A 2419   2.905  13.466   5.622  0.0660 -0.0445  0.2479
    1DPPC   C4A 2420   2.733  13.082   5.579  0.1929 -0.2351 -0.2022
    1DPPC   C1B 2421   3.294  13.380   6.378  0.2887  0.1134 -0.0616
    1DPPC   C2B 2422   3.314  13.228   5.930  0.3245 -0.0116  0.0547
    1DPPC   C3B 2423   3.256  13.110   5.611  0.3995  0.2719 -0.0066
    1DPPC   C4B 2424   3.170  13.111   5.166 -0.0134 -0.3350 -0.1612
    1DPPC   NC3 2425   6.995   3.914   7.557  0.0312  0.0514  0.0224
    1DPPC   PO4 2426   6.771   4.319   7.534 -0.3339 -0.4698 -0.2951
    1DPPC   GL1 2427   6.692   4.235   7.116  0.1651  0.0392 -0.1777
    1DPPC   GL2 2428   6.359   4.288   7.180  0.1916  0.1157 -0.2880
    1DPPC   C1A 2429   6.781   4.317   6.743  0.2184  0.1217  0.2578
    1DPPC   C2A 2430   6.694   4.652   6.509 -0.0038 -0.2636 -0.0673
    1DPPC   C3A 2431   6.525   4.481   6.092 -0.0033  0.0784 -0.0910
    1DPPC   C4A 2432   6.568   4.384   5.643 -0.2044  0.2919  0.1134
    1DPPC   C1B 2433   6.279   4.351   6.750 -0.1630  0.0614  0.1544
    1DPPC   C2B 2434   6.086   4.330   6.367 -0.0367 -0.0733 -0.2636
    1DPPC   C3B 2435   6.054   4.299   5.905  0.2537 -0.1449  0.1041
    1DPPC   C4B 2436   6.121   4.654   5.737  0.1227 -0.2136 -0.0577
    1DPPC   NC3 2437  10.722   9.910   5.755  0.0684  0.3795 -0.1763
    1DPPC   PO4 2438  10.358  10.119   5.686 -0.0637  0.0616  0.2030
    1DPPC   GL1 2439  10.391  10.059   5.377 -0.3281  0.1287 -0.1567
    1DPPC   GL2 2440  10.629   9.970   5.169 -0.2057 -0.0650  0.3906
    1DPPC   C1A 2441  10.099  10.028   4.959 -0.0726 -0.2499 -0.0905
    1DPPC   C2A 2442   9.982   9.774   4.523 -0.2139 -0.1614 -0.2130
    1DPPC   C3A 2443  10.211   9.407   4.298 -0.0878 -0.2424 -0.0390
    1DPPC   C4A 2444  10.560   9.343   4.144  0.0193  0.3889 -0.1419
    1DPPC   C1B 2445  10.888   9.775   4.855 -0.3725 -0.0051  0.2977
    1DPPC   C2B 2446  11.033   9.569   4.379  0.2110 -0.1413 -0.1115
    1DPPC   C3B 2447  11.515   9.577   4.267 -0.3845 -0.1049 -0.3142
    1DPPC   C4B 2448  11.948   9.486   4.332 -0.2085  0.1954  0.3299
    1DPPC   NC3 2449  22.600   9.981   6.660 -0.1816 -0.3230 -0.2860
    1DPPC   PO4 2450  22.482   9.658   6.461  0.0440  0.2622  0.2441
    1DPPC   GL1 2451  22.499   9.858   6.124  0.2801 -0.0460 -0.0136
    1DPPC   GL2 2452  22.201   9.946   6.064  0.1839  0.2008 -0.0658
    1DPPC   C1A 2453  22.493   9.915   5.683 -0.0440 -0.1087  0.0709
    1DPPC   C2A 2454  22.415   9.813   5.250  0.4036 -0.0794 -0.1856
    1DPPC   C3A 2455  22.644   9.773   4.831  0.2531 -0.1614 -0.2358
    1DPPC   C4A 2456  22.463   9.567   4.406  0.2420  0.0457 -0.2548
    1DPPC   C1B 2457  22.271  10.379   5.787  0.1374  0.1430 -0.0811
    1DPPC   C2B 2458  22.476  10.434   5.362  0.1228 -0.0623  0.0082
    1DPPC   C3B 2459  22.423  10.717   5.123 -0.0988  0.0785  0.0561
    1DPPC   C4B 2460  22.227  11.023   4.793 -0.0653 -0.1157 -0.0034
    1DPPC   NC3 2461  14.087   3.010   6.437 -0.0028  0.3918  0.1710
    1DPPC   PO4 2462  14.005   3.400   6.183  0.1164  0.1510 -0.3229
    1DPPC   GL1 2463  13.921   3.303   5.777 -0.0055  0.3324  0.0140
    1DPPC   GL2 2464  13.646   3.101   5.752 -0.1589  0.1002  0.0857
    1DPPC   C1A 2465  13.914   3.045   5.321  0.0025  0.0689 -0.3982
    1DPPC   C2A 2466  13.785   3.039   4.931 -0.3646  0.0818 -0.5531
    1DPPC   C3A 2467  13.713   3.240   4.496 -0.2703 -0.1222  0.1623
    1DPPC   C4A 2468  13.877   3.517   4.175 -0.1110 -0.1087 -0.1800
    1DPPC   C1B 2469  13.440   3.214   5.320 -0.1796 -0.0481 -0.0127
    1DPPC   C2B 2470  13.283   3.166   4.894 -0.1133 -0.0310  0.0564
    1DPPC   C3B 2471  13.161   2.925   4.571 -0.1550 -0.0453  0.2688
    1DPPC   C4B 2472  13.497   2.776   4.376 -0.2467  0.1100 -0.1282
    1DPPC   NC3 2473  17.010   2.232   6.575  0.1655 -0.1679 -0.1502
    1DPPC   PO4 2474  16.664   1.951   6.555 -0.3831 -0.1039  0.1411
    1DPPC   GL1 2475  16.385   1.990   6.231 -0.0471 -0.0952  0.3697
    1DPPC   GL2 2476  16.450   2.284   6.165  0.1287 -0.0166  0.2242
    1DPPC   C1A 2477  16.269   1.887   5.879 -0.1145 -0.3175 -0.0841
    1DPPC   C2A 2478  16.078   1.976   5.470  0.1478 -0.2297 -0.1470
    1DPPC   C3A 2479  15.809   2.249   5.145  0.0074  0.3334  0.3435
    1DPPC   C4A 2480  15.713   2.236   4.669 -0.3392 -0.0851 -0.1036
    1DPPC   C1B 2481  16.465   2.373   5.801 -0.3001  0.2770 -0.1121
    1DPPC   C2B 2482  16.793   2.520   5.578  0.1481  0.0719 -0.3935
    1DPPC   C3B 2483  16.869   2.390   5.172  0.0017  0.2041  0.0091
    1DPPC   C4B 2484  16.820   2.395   4.714  0.0115 -0.2177  0.0951
    1DPPC   NC3 2485   8.536  13.743   5.991 -0.1107  0.1376 -0.2248
    1DPPC   PO4 2486   8.070  13.847   5.875 -0.0415 -0.2867  0.3478
    1DPPC   GL1 2487   8.196  13.695   5.504  0.0308  0.0446 -0.1438
    1DPPC   GL2 2488   8.444  13.547   5.501  0.0055  0.1362  0.3289
    1DPPC   C1A 2489   8.096  13.623   5.115 -0.1399  0.0784 -0.2966
    1DPPC   C2A 2490   7.871  13.772   4.908  0.0941 -0.0105 -0.0292
    1DPPC   C3A 2491   7.753  14.242   4.880  0.2512  0.2728  0.1186
    1DPPC   C4A 2492   7.524  14.556   4.589  0.0518  0.2590 -0.1015
    1DPPC   C1B 2493   8.597  13.606   5.038 -0.1902  0.3469 -0.1979
    1DPPC   C2B 2494   8.753  13.721   4.723 -0.3147 -0.1862  0.2618
    1DPPC   C3B 2495   8.922  13.770   4.273 -0.1493 -0.2540 -0.2455
    1DPPC   C4B 2496   9.084  13.899   3.892 -0.0804 -0.2782  0.0816
    1DPPC   NC3 2497   7.648  13.140   6.181 -0.0264  0.0782  0.1886
    1DPPC   PO4 2498   7.424  13.567   6.126  0.0138 -0.1400  0.0226
    1DPPC   GL1 2499   7.239  13.438   5.696  0.1194  0.1653  0.3052
    1DPPC   GL2 2500   7.107  13.699   5.747  0.0086 -0.2646 -0.0987
    1DPPC   C1A 2501   7.270  13.187   5.348  0.2424  0.0777 -0.1749
    1DPPC   C2A 2502   7.334  12.986   4.977  0.0167 -0.0134 -0.2538
    1DPPC   C3A 2503   7.121  12.866   4.650 -0.2702 -0.0453  0.1766
    1DPPC   C4A 2504   7.319  12.769   4.268  0.0415  0.1545  0.0931
    1DPPC   C1B 2505   7.093  13.810   5.340 -0.1375 -0.0975 -0.0045
    1DPPC   C2B 2506   6.978  13.749   4.854  0.1717  0.0567 -0.0519
    1DPPC   C3B 2507   7.007  13.918   4.447  0.0428  0.1713  0.2511
    1DPPC   C4B 2508   6.989  13.782   3.979 -0.1671  0.0846  0.0692
    1DPPC   NC3 2509   0.595   6.226   8.175 -0.3120  0.0729  0.1480
    1DPPC   PO4 2510   0.857   6.502   7.865  0.0207 -0.2026 -0.1626
    1DPPC   GL1 2511   0.922   6.284   7.420 -0.2421 -0.1644 -0.1677
    1DPPC   GL2 2512   1.081   5.915   7.570  0.0308  0.2295  0.0867
    1DPPC   C1A 2513   0.789   6.376   7.061 -0.1485  0.2319 -0.0682
    1DPPC   C2A 2514   0.784   6.516   6.669  0.0164 -0.0289  0.1796
    1DPPC   C3A 2515   1.175   6.470   6.390 -0.2174 -0.2914 -0.0070
    1DPPC   C4A 2516   1.509   6.235   6.229  0.1745 -0.1801 -0.0934
    1DPPC   C1B 2517   0.622   5.874   7.474 -0.1560  0.0399 -0.1792
    1DPPC   C2B 2518   0.325   6.155   7.269 -0.0810 -0.0580  0.1050
    1DPPC   C3B 2519   0.057   6.057   6.967  0.4187  0.2110  0.0263
    1DPPC   C4B 2520  -0.323   6.004   6.692 -0.1216 -0.2324  0.2562
    1DPPC   NC3 2521  17.082   5.544   5.728 -0.3840 -0.1707  0.2944
    1DPPC   PO4 2522  17.020   5.900   5.740  0.1075 -0.4810  0.0812
    1DPPC   GL1 2523  17.129   5.868   5.307  0.1618 -0.2993  0.3136
    1DPPC   GL2 2524  17.115   5.572   5.190 -0.1615  0.0658  0.1971
    1DPPC   C1A 2525  16.997   6.025   4.922 -0.2097  0.1007 -0.2260
    1DPPC   C2A 2526  17.122   5.921   4.475  0.1312 -0.0276 -0.1408
    1DPPC   C3A 2527  17.164   5.945   4.129  0.0519  0.0770  0.1293
    1DPPC   C4A 2528  17.102   5.726   3.818  0.2769 -0.2635  0.4540
    1DPPC   C1B 2529  17.204   5.456   4.771 -0.1088  0.2888 -0.3104
    1DPPC   C2B 2530  17.304   5.488   4.318 -0.0588  0.1358  0.2284
    1DPPC   C3B 2531  17.572   5.530   3.954  0.1455 -0.0022 -0.1418
    1DPPC   C4B 2532  17.653   5.289   3.664 -0.0706  0.1436  0.0175
    1DPPC   NC3 2533  20.882   0.254   6.995 -0.0818  0.1757  0.1898
    1DPPC   PO4 2534  21.258   0.333   6.951 -0.0137 -0.0034  0.0577
    1DPPC   GL1 2535  21.066   0.452   6.530 -0.2048  0.0785  0.0058
    1DPPC   GL2 2536  21.081   0.676   6.343 -0.2942  0.1232 -0.2669
    1DPPC   C1A 2537  20.798   0.447   6.057  0.2218 -0.1590 -0.0411
    1DPPC   C2A 2538  20.981   0.563   5.656 -0.0872 -0.1861  0.1796
    1DPPC   C3A 2539  21.054   0.338   5.262  0.0437 -0.2125  0.1340
    1DPPC   C4A 2540  20.980   0.202   4.920 -0.0736  0.0189 -0.0138
    1DPPC   C1B 2541  21.415   0.583   6.048  0.2118 -0.0467 -0.1049
    1DPPC   C2B 2542  21.426   0.297   5.716  0.0767  0.0175 -0.0867
    1DPPC   C3B 2543  21.032   0.072   5.676 -0.2171 -0.0789  0.1225
    1DPPC   C4B 2544  20.848  -0.410   5.683 -0.1532 -0.0164  0.2015
    1DPPC   NC3 2545  15.999  24.421   6.869 -0.2070 -0.2022  0.1723
    1DPPC   PO4 2546  15.514  24.570   6.604 -0.0411  0.1912  0.2250
    1DPPC   GL1 2547  15.799  24.421   6.295  0.2800  0.0392 -0.1105
    1DPPC   GL2 2548  15.790  24.050   6.221 -0.1714  0.2059  0.3214
    1DPPC   C1A 2549  16.024  24.408   5.952 -0.0108  0.0116  0.1073
    1DPPC   C2A 2550  16.041  24.222   5.452  0.1222  0.1311  0.1901
    1DPPC   C3A 2551  16.129  23.852   5.085 -0.3626  0.0359 -0.1133
    1DPPC   C4A 2552  16.118  23.817   4.691 -0.2115 -0.0535  0.1442
    1DPPC   C1B 2553  15.708  24.037   5.842 -0.0903  0.1213  0.2177
    1DPPC   C2B 2554  15.519  24.312   5.556  0.4131 -0.0171  0.0844
    1DPPC   C3B 2555  15.170  24.614   5.429  0.0097 -0.1479 -0.1023
    1DPPC   C4B 2556  15.214  24.879   5.051 -0.2121 -0.2002 -0.1323
    1DPPC   NC3 2557  12.102   6.237   6.183 -0.1066 -0.1640  0.2580
    1DPPC   PO4 2558  11.751   6.297   5.869  0.2612 -0.1633 -0.2384
    1DPPC   GL1 2559  11.485   6.494   5.474  0.1566  0.1932  0.2004
    1DPPC   GL2 2560  11.203   6.385   5.569  0.3879  0.1185  0.0958
    1DPPC   C1A 2561  11.295   6.499   5.092 -0.0964 -0.2699 -0.0351
    1DPPC   C2A 2562  11.370   6.623   4.682  0.0770  0.1090  0.1533
    1DPPC   C3A 2563  11.670   6.582   4.377 -0.2482 -0.1114  0.0125
    1DPPC   C4A 2564  11.846   6.253   4.182  0.4371  0.1305  0.1377
    1DPPC   C1B 2565  10.994   6.062   5.351 -0.0627  0.2163 -0.2794
    1DPPC   C2B 2566  10.952   5.976   4.950  0.3479 -0.2376 -0.1958
    1DPPC   C3B 2567  10.794   5.958   4.582  0.1968 -0.2022  0.1243
    1DPPC   C4B 2568  10.702   5.708   4.230 -0.1337  0.1415 -0.1978
    1DPPC   NC3 2569  14.213  25.243   7.119 -0.2435  0.0243 -0.4330
    1DPPC   PO4 2570  14.433  25.225   6.686  0.4267 -0.0603 -0.1747
    1DPPC   GL1 2571  14.364  25.157   6.268 -0.0034 -0.1786  0.1591
    1DPPC   GL2 2572  14.179  24.925   6.225  0.1567 -0.0875  0.1821
    1DPPC   C1A 2573  14.309  25.271   5.870  0.0465  0.1077 -0.1350
    1DPPC   C2A 2574  14.101  25.244   5.506 -0.0508  0.0853  0.1129
    1DPPC   C3A 2575  14.312  25.416   5.090  0.2589 -0.2825  0.2624
    1DPPC   C4A 2576  14.472  25.647   4.758  0.0360  0.4158  0.1586
    1DPPC   C1B 2577  13.999  24.861   5.798  0.2139 -0.1277  0.0732
    1DPPC   C2B 2578  13.982  24.626   5.467 -0.2425 -0.2060  0.2928
    1DPPC   C3B 2579  13.706  24.266   5.342  0.1658  0.3118 -0.1095
    1DPPC   C4B 2580  13.588  24.193   4.887  0.0257  0.0489 -0.1790
    1DPPC   NC3 2581  26.516   2.671   8.112 -0.0597  0.1886 -0.1411
    1DPPC   PO4 2582  26.263   2.390   7.810 -0.1000 -0.0854 -0.0591
    1DPPC   GL1 2583  26.459   2.518   7.533  0.1314 -0.3574 -0.1467
    1DPPC   GL2 2584  26.656   2.771   7.618 -0.0591  0.2092  0.5020
    1DPPC   C1A 2585  26.645   2.380   7.148  0.1831  0.2144 -0.2575
    1DPPC   C2A 2586  26.866   2.309   6.774 -0.0512  0.0954 -0.2561
    1DPPC   C3A 2587  27.042   2.480   6.455  0.2746 -0.2530  0.0517
    1DPPC   C4A 2588  27.491   2.309   6.340 -0.0829 -0.3165 -0.1265
    1DPPC   C1B 2589  26.791   2.874   7.195  0.3307  0.0637  0.0581
    1DPPC   C2B 2590  26.975   2.978   6.793 -0.1717  0.1315 -0.4711
    1DPPC   C3B 2591  27.201   2.995   6.524 -0.0983  0.1176 -0.0713
    1DPPC   C4B 2592  27.395   2.749   6.109 -0.2097 -0.1450 -0.0757
    1DPPC   NC3 2593  22.667  18.237   6.636  0.0509  0.0334 -0.0014
    1DPPC   PO4 2594  23.039  18.258   6.464  0.1628  0.0896 -0.3167
    1DPPC   GL1 2595  22.822  18.238   6.151 -0.0010  0.0058 -0.2680
    1DPPC   GL2 2596  22.544  18.312   6.110 -0.2095  0.2526  0.2186
    1DPPC   C1A 2597  22.910  18.325   5.787  0.3552 -0.1439  0.1113
    1DPPC   C2A 2598  22.934  18.350   5.300  0.1148 -0.3418  0.0569
    1DPPC   C3A 2599  23.070  18.317   5.008 -0.1447  0.1691 -0.2148
    1DPPC   C4A 2600  22.980  18.255   4.563 -0.1251 -0.1131  0.1053
    1DPPC   C1B 2601  22.362  18.326   5.713  0.0142 -0.0662 -0.1702
    1DPPC   C2B 2602  22.402  18.473   5.334 -0.0360 -0.1274 -0.2366
    1DPPC   C3B 2603  22.098  18.330   5.015  0.2233  0.1617 -0.2058
    1DPPC   C4B 2604  22.010  18.457   4.677  0.1117  0.0374 -0.3276
    1DPPC   NC3 2605  21.888   4.246   7.217  0.2186  0.1542 -0.0405
    1DPPC   PO4 2606  21.584   4.072   6.922 -0.0977 -0.0099 -0.3958
    1DPPC   GL1 2607  21.848   4.266   6.681  0.1070  0.2359 -0.3133
    1DPPC   GL2 2608  22.113   4.441   6.800 -0.3446  0.1813 -0.4104
    1DPPC   C1A 2609  21.910   4.380   6.239  0.4031  0.0747 -0.1656
    1DPPC   C2A 2610  22.112   4.261   5.883 -0.0076 -0.1975 -0.0955
    1DPPC   C3A 2611  22.218   4.323   5.512 -0.2606 -0.1935  0.1453
    1DPPC   C4A 2612  22.256   4.158   5.079 -0.1810 -0.2738 -0.0161
    1DPPC   C1B 2613  22.391   4.529   6.393  0.2345  0.0794 -0.0693
    1DPPC   C2B 2614  22.498   4.581   5.913  0.0857  0.0193 -0.1413
    1DPPC   C3B 2615  22.630   4.595   5.490  0.0952 -0.0870 -0.0567
    1DPPC   C4B 2616  22.715   4.216   5.164  0.1412 -0.1946  0.1815
    1DPPC   NC3 2617  13.664  28.634   6.741  0.0599  0.1455 -0.1908
    1DPPC   PO4 2618  14.082  28.482   6.700  0.0501  0.0659  0.3072
    1DPPC   GL1 2619  13.851  28.412   6.260 -0.1617 -0.0481  0.0606
    1DPPC   GL2 2620  13.926  28.595   5.931  0.0470 -0.0805  0.1228
    1DPPC   C1A 2621  13.857  28.139   6.015 -0.0359 -0.2779  0.0545
    1DPPC   C2A 2622  13.750  28.037   5.511 -0.0251  0.0344  0.0841
    1DPPC   C3A 2623  13.630  28.032   5.151  0.0543  0.0809 -0.1452
    1DPPC   C4A 2624  13.528  28.203   4.789  0.0147  0.1192  0.0490
    1DPPC   C1B 2625  13.700  28.544   5.626 -0.1433  0.2114  0.2512
    1DPPC   C2B 2626  13.419  28.678   5.290  0.0042 -0.1005  0.0674
    1DPPC   C3B 2627  13.282  28.713   4.879 -0.0309 -0.0163  0.0422
    1DPPC   C4B 2628  13.387  28.557   4.439  0.1768  0.3553 -0.1692
    1DPPC   NC3 2629  17.936  11.371   6.338 -0.2934  0.2028 -0.2027
    1DPPC   PO4 2630  17.670  11.686   6.161 -0.0036  0.3057 -0.3357
    1DPPC   GL1 2631  17.732  11.688   5.764  0.0192  0.0544  0.0656
    1DPPC   GL2 2632  17.411  11.482   5.644  0.2893  0.1371  0.1638
    1DPPC   C1A 2633  17.687  11.721   5.313  0.3413 -0.1783 -0.1688
    1DPPC   C2A 2634  17.757  11.799   4.814  0.0215 -0.1591 -0.0727
    1DPPC   C3A 2635  17.418  11.833   4.541  0.1933 -0.0150 -0.3044
    1DPPC   C4A 2636  17.195  11.699   4.166  0.0010 -0.2120 -0.0837
    1DPPC   C1B 2637  17.366  11.334   5.195 -0.0678 -0.0501 -0.1723
    1DPPC   C2B 2638  17.528  11.266   4.831  0.2856  0.0461 -0.1229
    1DPPC   C3B 2639  17.469  11.350   4.339 -0.3770 -0.2785  0.0956
    1DPPC   C4B 2640  17.304  11.168   3.951  0.2648  0.0783 -0.0809
    1DPPC   NC3 2641  28.519  24.179   7.822  0.0305 -0.3053  0.0238
    1DPPC   PO4 2642  28.343  24.591   7.904 -0.0061 -0.2650  0.2033
    1DPPC   GL1 2643  28.339  24.792   7.530  0.1381 -0.0510 -0.2622
    1DPPC   GL2 2644  28.669  24.884   7.384 -0.2619 -0.1197 -0.0382
    1DPPC   C1A 2645  28.335  24.872   7.000  0.1158 -0.2590  0.0970
    1DPPC   C2A 2646  28.254  25.062   6.545  0.0856 -0.0070 -0.3076
    1DPPC   C3A 2647  28.367  25.103   6.082  0.2056 -0.1278  0.0713
    1DPPC   C4A 2648  28.413  25.405   5.704  0.2703 -0.2054  0.3913
    1DPPC   C1B 2649  28.862  24.833   6.987  0.0236  0.0057  0.3124
    1DPPC   C2B 2650  28.763  24.874   6.563 -0.1257 -0.1392  0.3162
    1DPPC   C3B 2651  28.610  24.573   6.291 -0.1222  0.0539 -0.0832
    1DPPC   C4B 2652  28.419  24.553   5.952  0.0210  0.2131  0.1478
    1DPPC   NC3 2653  16.942   5.419   6.222  0.1795 -0.1558 -0.1359
    1DPPC   PO4 2654  17.033   5.071   5.889  0.0994 -0.1353  0.4193
    1DPPC   GL1 2655  17.159   4.969   5.493  0.0092 -0.1366 -0.1471
    1DPPC   GL2 2656  17.548   4.919   5.522  0.2713 -0.3599 -0.0124
    1DPPC   C1A 2657  17.103   5.015   5.111  0.3717 -0.1642 -0.1245
    1DPPC   C2A 2658  17.009   4.976   4.671  0.0530 -0.2495 -0.3774
    1DPPC   C3A 2659  17.135   4.817   4.315 -0.0492 -0.0492  0.1411
    1DPPC   C4A 2660  17.128   4.564   4.049 -0.1432 -0.1919 -0.2464
    1DPPC   C1B 2661  17.490   5.306   5.258 -0.0251  0.1467  0.0224
    1DPPC   C2B 2662  17.512   5.755   5.000  0.0664 -0.3048  0.1681
    1DPPC   C3B 2663  17.597   5.847   4.576 -0.1583 -0.0681  0.1324
    1DPPC   C4B 2664  17.811   5.969   4.120 -0.0077 -0.1899 -0.1878
    1DPPC   NC3 2665   9.341  16.344   6.406  0.1949  0.4592 -0.0808
    1DPPC   PO4 2666   8.903  16.348   6.209 -0.0170 -0.0079 -0.0676
    1DPPC   GL1 2667   8.698  16.596   5.940 -0.2905 -0.0697  0.0050
    1DPPC   GL2 2668   8.322  16.593   5.967 -0.1096 -0.1789 -0.2844
    1DPPC   C1A 2669   8.446  16.541   5.491 -0.1571  0.2187  0.0119
    1DPPC   C2A 2670   8.419  16.498   5.035 -0.1039 -0.1376  0.1546
    1DPPC   C3A 2671   8.301  16.437   4.584 -0.0112 -0.1100 -0.2240
    1DPPC   C4A 2672   8.009  16.583   4.300 -0.0587 -0.0512  0.1870
    1DPPC   C1B 2673   8.005  16.564   5.640 -0.1004 -0.0001  0.0115
    1DPPC   C2B 2674   7.874  16.538   5.171 -0.3564  0.2207 -0.0687
    1DPPC   C3B 2675   7.917  16.283   4.908 -0.0385 -0.1364 -0.0257
    1DPPC   C4B 2676   8.015  16.006   4.528  0.0302  0.0045  0.0770
    1DPPC   NC3 2677  11.421  19.194   6.873  0.2359  0.1649  0.1240
    1DPPC   PO4 2678  11.512  19.618   6.695 -0.1907  0.0380  0.1517
    1DPPC   GL1 2679  11.510  19.717   6.308  0.2321  0.1320 -0.1340
    1DPPC   GL2 2680  11.198  19.872   6.378 -0.2651  0.1292  0.3128
    1DPPC   C1A 2681  11.413  19.766   5.919  0.0870 -0.2202  0.2577
    1DPPC   C2A 2682  11.087  19.922   5.649  0.1298  0.1691  0.0474
    1DPPC   C3A 2683  10.765  19.938   5.372 -0.2013  0.0288  0.2459
    1DPPC   C4A 2684  10.373  19.736   5.281  0.0415  0.0117  0.2256
    1DPPC   C1B 2685  10.870  20.022   6.059 -0.2831  0.0847  0.1918
    1DPPC   C2B 2686  10.678  20.390   5.926  0.0254 -0.2624 -0.0623
    1DPPC   C3B 2687  10.356  20.371   5.704 -0.2448 -0.0736 -0.1125
    1DPPC   C4B 2688  10.325  20.728   5.328  0.1433 -0.2599 -0.1555
    1DPPC   NC3 2689  14.638  20.874   6.270 -0.2050  0.3171 -0.0540
    1DPPC   PO4 2690  14.469  21.212   6.527  0.3141 -0.1944  0.1808
    1DPPC   GL1 2691  14.285  21.305   6.034 -0.1086  0.1872 -0.0355
    1DPPC   GL2 2692  14.296  20.984   5.925 -0.1443  0.0109  0.2458
    1DPPC   C1A 2693  14.308  21.505   5.592 -0.2283 -0.0125  0.2354
    1DPPC   C2A 2694  14.165  21.780   5.424 -0.3098  0.0212  0.1836
    1DPPC   C3A 2695  14.120  22.177   5.149  0.3357  0.2261 -0.3678
    1DPPC   C4A 2696  14.161  22.512   4.904 -0.1571 -0.2820 -0.3045
    1DPPC   C1B 2697  14.026  21.126   5.538  0.0596 -0.3205  0.3102
    1DPPC   C2B 2698  13.929  21.362   5.240  0.0271  0.2170 -0.0559
    1DPPC   C3B 2699  14.117  21.324   4.886  0.0225 -0.0497 -0.2669
    1DPPC   C4B 2700  14.485  21.326   4.816 -0.3198  0.3075 -0.4263
    1DPPC   NC3 2701  22.087   0.534   7.081 -0.2312 -0.0957 -0.1229
    1DPPC   PO4 2702  22.521   0.271   7.008  0.0984 -0.2259  0.1148
    1DPPC   GL1 2703  22.364   0.401   6.687  0.2856 -0.0544 -0.0466
    1DPPC   GL2 2704  22.103   0.075   6.592 -0.2862  0.1996  0.1795
    1DPPC   C1A 2705  22.448   0.386   6.308  0.0515 -0.2031  0.2162
    1DPPC   C2A 2706  22.511   0.435   5.969 -0.1403  0.0959  0.0816
    1DPPC   C3A 2707  22.487   0.259   5.629  0.1354  0.0398  0.0813
    1DPPC   C4A 2708  22.503   0.530   5.221  0.2263 -0.1071 -0.0096
    1DPPC   C1B 2709  22.110   0.001   6.232 -0.1189 -0.2519  0.0402
    1DPPC   C2B 2710  22.204  -0.157   5.799  0.0055 -0.1012  0.0571
    1DPPC   C3B 2711  22.411  -0.248   5.552  0.2127  0.4272  0.0225
    1DPPC   C4B 2712  22.570  -0.044   5.210  0.3264 -0.1527 -0.0852
    1DPPC   NC3 2713  16.493   9.133   6.087 -0.4126  0.3722 -0.0341
    1DPPC   PO4 2714  16.286   9.116   5.635  0.0956 -0.0544  0.0823
    1DPPC   GL1 2715  16.177   9.229   5.252  0.1062  0.0402 -0.0176
    1DPPC   GL2 2716  15.891   9.412   5.178 -0.0275  0.3882 -0.0036
    1DPPC   C1A 2717  16.300   9.330   4.944  0.2693  0.0469  0.0714
    1DPPC   C2A 2718  16.265   9.341   4.494 -0.1657 -0.1464 -0.3923
    1DPPC   C3A 2719  16.491   9.096   4.246  0.5099  0.2484 -0.0859
    1DPPC   C4A 2720  16.626   8.926   3.902 -0.1420 -0.2781  0.2425
    1DPPC   C1B 2721  15.826   9.438   4.728  0.1481 -0.0715 -0.1265
    1DPPC   C2B 2722  15.778   9.265   4.296  0.1002  0.0441  0.1206
    1DPPC   C3B 2723  16.062   9.183   3.972 -0.3924 -0.0499  0.3514
    1DPPC   C4B 2724  16.447   9.373   3.837  0.0556  0.3446  0.0278
    1DPPC   NC3 2725  22.322  24.526   7.589 -0.0454  0.0088  0.2453
    1DPPC   PO4 2726  22.549  24.185   7.599  0.1004  0.2112 -0.0990
    1DPPC   GL1 2727  22.515  24.031   7.226 -0.2677  0.0694  0.1861
    1DPPC   GL2 2728  22.539  24.266   7.086  0.1242 -0.3613  0.1372
    1DPPC   C1A 2729  22.809  23.978   6.825 -0.2127 -0.1027 -0.2560
    1DPPC   C2A 2730  23.014  24.117   6.432  0.2930 -0.3333 -0.2839
    1DPPC   C3A 2731  23.399  24.326   6.236  0.1095  0.1076 -0.1147
    1DPPC   C4A 2732  23.506  24.393   5.923 -0.3059  0.1168  0.2664
    1DPPC   C1B 2733  22.576  24.362   6.657  0.0179  0.0703  0.0225
    1DPPC   C2B 2734  22.802  24.670   6.445 -0.1020 -0.0413 -0.1092
    1DPPC   C3B 2735  23.072  24.822   6.094  0.0368  0.2359  0.2257
    1DPPC   C4B 2736  23.175  24.668   5.635  0.2932 -0.1831  0.1554
    1DPPC   NC3 2737   4.745  15.242   7.024 -0.1954 -0.0815  0.0765
    1DPPC   PO4 2738   4.674  14.851   6.775  0.3026  0.3754  0.0889
    1DPPC   GL1 2739   4.854  14.943   6.378  0.1418  0.0983  0.0159
    1DPPC   GL2 2740   5.184  14.825   6.282 -0.2446  0.5108 -0.3585
    1DPPC   C1A 2741   4.760  15.248   6.006 -0.0427  0.0507 -0.2594
    1DPPC   C2A 2742   4.867  15.495   5.651 -0.0227  0.0855  0.2523
    1DPPC   C3A 2743   4.734  15.710   5.269  0.4071 -0.4912 -0.2589
    1DPPC   C4A 2744   4.508  15.552   5.026  0.0862 -0.0273 -0.1827
    1DPPC   C1B 2745   5.007  14.846   5.848  0.1689 -0.0124  0.0396
    1DPPC   C2B 2746   4.905  14.989   5.497  0.0679  0.0624  0.1572
    1DPPC   C3B 2747   4.894  15.201   5.119 -0.3550  0.3541  0.2608
    1DPPC   C4B 2748   5.033  15.381   4.808  0.0128 -0.0693  0.4115
    1DPPC   NC3 2749  26.456  26.678   7.919 -0.1337  0.1557  0.0602
    1DPPC   PO4 2750  26.309  26.912   7.598  0.2536  0.0535 -0.2765
    1DPPC   GL1 2751  26.413  26.662   7.177 -0.1291  0.3374  0.2128
    1DPPC   GL2 2752  26.361  27.018   7.030 -0.0569  0.0502 -0.1063
    1DPPC   C1A 2753  26.495  26.367   6.745 -0.1156 -0.0892 -0.4486
    1DPPC   C2A 2754  26.682  26.536   6.338  0.0531 -0.0812  0.2355
    1DPPC   C3A 2755  27.101  26.519   6.007 -0.1495  0.0295 -0.0984
    1DPPC   C4A 2756  27.489  26.797   5.761  0.3710 -0.0815 -0.0544
    1DPPC   C1B 2757  26.553  26.863   6.725 -0.0653  0.0866 -0.2026
    1DPPC   C2B 2758  26.879  27.035   6.580  0.0507  0.0767  0.1283
    1DPPC   C3B 2759  27.207  26.984   6.329 -0.0765 -0.2435 -0.0929
    1DPPC   C4B 2760  27.634  27.055   6.221 -0.0206  0.1039 -0.2064
    1DPPC   NC3 2761  22.803  12.245   7.073 -0.1201  0.1455 -0.1330
    1DPPC   PO4 2762  22.736  12.720   6.963  0.3276  0.2276  0.2347
    1DPPC   GL1 2763  22.869  12.569   6.576 -0.1521 -0.0482  0.3739
    1DPPC   GL2 2764  22.883  12.854   6.363  0.0346  0.0999 -0.2465
    1DPPC   C1A 2765  22.873  12.384   6.195  0.1601 -0.1144 -0.0266
    1DPPC   C2A 2766  22.993  12.438   5.830  0.0486 -0.2316 -0.0866
    1DPPC   C3A 2767  23.010  12.391   5.402  0.2928  0.1585 -0.1018
    1DPPC   C4A 2768  23.138  12.191   4.994  0.1553  0.0535 -0.0686
    1DPPC   C1B 2769  22.734  13.032   5.968  0.0592  0.1386 -0.0855
    1DPPC   C2B 2770  22.443  13.047   5.622  0.2763 -0.5504 -0.0711
    1DPPC   C3B 2771  22.185  13.258   5.257  0.0993  0.3572 -0.0971
    1DPPC   C4B 2772  22.184  13.235   4.824 -0.1170 -0.1316 -0.0635
    1DPPC   NC3 2773  14.383  28.392   6.323  0.2371  0.3735 -0.2709
    1DPPC   PO4 2774  14.750  28.261   6.132  0.0869 -0.0149 -0.1474
    1DPPC   GL1 2775  14.396  28.343   5.799  0.0802 -0.1505  0.0858
    1DPPC   GL2 2776  14.468  28.654   5.876  0.0550 -0.2333  0.1831
    1DPPC   C1A 2777  14.173  28.335   5.450  0.2738  0.1138  0.1310
    1DPPC   C2A 2778  13.851  28.481   5.140 -0.1734  0.0339 -0.0864
    1DPPC   C3A 2779  13.840  28.849   4.907 -0.3309 -0.1753 -0.0111
    1DPPC   C4A 2780  13.830  28.802   4.420  0.2102  0.0196 -0.1421
    1DPPC   C1B 2781  14.578  28.971   5.605 -0.1336  0.0789  0.0876
    1DPPC   C2B 2782  14.586  28.667   5.325  0.0636  0.1306 -0.0689
    1DPPC   C3B 2783  14.787  28.629   4.959  0.1935  0.1642 -0.3621
    1DPPC   C4B 2784  14.646  28.773   4.574  0.3920  0.1262 -0.1066
    1DPPC   NC3 2785  15.015  27.893   6.374 -0.2954 -0.1205 -0.3032
    1DPPC   PO4 2786  15.316  28.160   6.478  0.2383  0.3270  0.1592
    1DPPC   GL1 2787  15.521  28.075   6.056 -0.1011  0.0300 -0.0369
    1DPPC   GL2 2788  15.959  28.052   6.022  0.1214  0.1363 -0.0159
    1DPPC   C1A 2789  15.541  27.789   5.677  0.2133 -0.1315  0.1899
    1DPPC   C2A 2790  15.682  27.562   5.256  0.2179 -0.0398 -0.1647
    1DPPC   C3A 2791  15.849  27.254   4.971 -0.0598  0.2885 -0.0338
    1DPPC   C4A 2792  15.888  27.138   4.557  0.0230  0.1416 -0.2122
    1DPPC   C1B 2793  15.966  28.014   5.617 -0.2867 -0.1227 -0.2746
    1DPPC   C2B 2794  16.085  27.839   5.266 -0.1423  0.0898 -0.0809
    1DPPC   C3B 2795  16.231  27.572   4.986  0.1238 -0.2200 -0.1125
    1DPPC   C4B 2796  16.212  27.762   4.526  0.1234 -0.0397 -0.2950
    1DPPC   NC3 2797   1.278   3.966   7.592  0.3277  0.1736 -0.3646
    1DPPC   PO4 2798   0.983   3.642   7.830  0.0406 -0.0817  0.3273
    1DPPC   GL1 2799   0.751   3.785   7.495  0.1859 -0.0822  0.0807
    1DPPC   GL2 2800   0.638   3.537   7.504  0.1506  0.0439  0.1079
    1DPPC   C1A 2801   0.789   3.777   7.054 -0.1672 -0.0266  0.0733
    1DPPC   C2A 2802   0.954   3.850   6.612  0.0693  0.0468  0.2590
    1DPPC   C3A 2803   1.238   4.034   6.315  0.1451  0.0590  0.1967
    1DPPC   C4A 2804   1.234   3.859   5.921 -0.0504 -0.1057  0.4974
    1DPPC   C1B 2805   0.652   3.225   7.154  0.0429  0.0679  0.1231
    1DPPC   C2B 2806   0.440   2.931   6.873  0.0271  0.1166 -0.2668
    1DPPC   C3B 2807   0.399   2.944   6.514  0.0188  0.0482  0.1133
    1DPPC   C4B 2808   0.117   2.879   6.184  0.1378  0.1365  0.0376
    1DPPC   NC3 2809  13.753   0.716   6.562 -0.2431 -0.2373 -0.0754
    1DPPC   PO4 2810  14.130   1.011   6.526  0.2288 -0.0446 -0.2435
    1DPPC   GL1 2811  14.019   0.875   6.131  0.1995  0.0548  0.1069
    1DPPC   GL2 2812  13.752   0.903   6.101  0.0307  0.0386 -0.1735
    1DPPC   C1A 2813  13.993   0.768   5.660 -0.2634  0.2947  0.0591
    1DPPC   C2A 2814  13.816   0.578   5.382  0.1444 -0.0699  0.4605
    1DPPC   C3A 2815  13.502   0.256   5.136 -0.0052 -0.3516 -0.0086
    1DPPC   C4A 2816  13.059   0.129   5.225  0.2077  0.0745  0.1499
    1DPPC   C1B 2817  13.548   0.679   5.844  0.0120  0.3875 -0.1782
    1DPPC   C2B 2818  13.294   0.514   5.492  0.0007  0.1396  0.1752
    1DPPC   C3B 2819  13.102   0.673   5.115  0.3622 -0.0591  0.0656
    1DPPC   C4B 2820  13.061   0.792   4.675  0.7307  0.0923 -0.1607
    1DPPC   NC3 2821  22.784   2.473   7.002 -0.0407  0.0212  0.3374
    1DPPC   PO4 2822  22.328   2.363   6.862 -0.2394 -0.1908 -0.2932
    1DPPC   GL1 2823  22.345   2.519   6.442 -0.0395  0.3003 -0.2669
    1DPPC   GL2 2824  22.642   2.510   6.374 -0.0050  0.0487 -0.1801
    1DPPC   C1A 2825  22.194   2.822   6.304  0.0528  0.1597 -0.0328
    1DPPC   C2A 2826  22.187   3.117   5.977  0.0336  0.1666  0.1370
    1DPPC   C3A 2827  22.309   3.233   5.510  0.1655 -0.2535 -0.0355
    1DPPC   C4A 2828  22.539   3.014   5.270 -0.1024  0.1879  0.0022
    1DPPC   C1B 2829  22.622   2.475   5.940  0.0309  0.2099 -0.0577
    1DPPC   C2B 2830  22.860   2.327   5.630  0.2270  0.0614  0.0939
    1DPPC   C3B 2831  22.875   2.215   5.246 -0.0914 -0.0970  0.2249
    1DPPC   C4B 2832  22.812   2.194   4.838  0.1120  0.1781  0.3933
    1DPPC   NC3 2833  18.107   8.189   6.139 -0.0411 -0.2107  0.2006
    1DPPC   PO4 2834  18.551   8.230   6.012  0.0701 -0.1036  0.1065
    1DPPC   GL1 2835  18.643   8.422   5.640  0.1882 -0.0829 -0.1052
    1DPPC   GL2 2836  18.439   8.779   5.499 -0.0904  0.5442 -0.2258
    1DPPC   C1A 2837  18.695   8.393   5.240  0.0062 -0.2271  0.2879
    1DPPC   C2A 2838  18.805   8.620   4.855 -0.1383 -0.1906  0.1807
    1DPPC   C3A 2839  19.029   8.750   4.477  0.0681  0.1842  0.0135
    1DPPC   C4A 2840  19.272   8.665   4.045  0.2518  0.3216 -0.1760
    1DPPC   C1B 2841  18.255   8.522   5.016 -0.3307  0.2208  0.1104
    1DPPC   C2B 2842  18.219   8.588   4.647  0.2231  0.3394 -0.0594
    1DPPC   C3B 2843  18.373   8.700   4.298 -0.1340 -0.1583  0.2773
    1DPPC   C4B 2844  18.707   8.747   3.998 -0.3985 -0.2724 -0.1134
    1DPPC   NC3 2845  20.012   3.556   6.631 -0.2759 -0.2493  0.0729
    1DPPC   PO4 2846  20.104   3.907   6.548 -0.0156  0.1971 -0.0982
    1DPPC   GL1 2847  19.986   3.990   6.104 -0.5497 -0.1188  0.2388
    1DPPC   GL2 2848  19.912   3.674   6.143 -0.2946 -0.1563 -0.0023
    1DPPC   C1A 2849  20.037   4.218   5.712  0.2509  0.0167 -0.4885
    1DPPC   C2A 2850  19.944   4.264   5.385  0.2248 -0.0792  0.0954
    1DPPC   C3A 2851  19.698   4.289   5.069  0.0359  0.0369  0.0499
    1DPPC   C4A 2852  19.447   4.137   4.743  0.1780 -0.0194  0.2654
    1DPPC   C1B 2853  20.027   3.448   5.899 -0.0256  0.0947  0.0929
    1DPPC   C2B 2854  19.979   3.435   5.516 -0.1160  0.0662 -0.0954
    1DPPC   C3B 2855  20.135   3.268   5.264 -0.0493 -0.2125  0.4050
    1DPPC   C4B 2856  20.490   3.297   4.929  0.1879 -0.0175 -0.2497
    1DPPC   NC3 2857   6.586  10.940   6.234 -0.2955 -0.1221  0.1069
    1DPPC   PO4 2858   6.670  10.554   6.497  0.0974 -0.0888 -0.1711
    1DPPC   GL1 2859   6.828  10.414   6.073 -0.1033 -0.2799  0.1048
    1DPPC   GL2 2860   7.002  10.602   5.903  0.1059  0.2507  0.2751
    1DPPC   C1A 2861   6.605  10.252   5.750 -0.1859 -0.2628 -0.2046
    1DPPC   C2A 2862   6.391  10.264   5.424 -0.0709 -0.0430 -0.2568
    1DPPC   C3A 2863   6.379  10.087   5.094  0.0453 -0.1073 -0.0867
    1DPPC   C4A 2864   6.410  10.120   4.684  0.4158  0.1794 -0.0731
    1DPPC   C1B 2865   7.050  10.412   5.609 -0.0463 -0.2759  0.0540
    1DPPC   C2B 2866   6.881  10.318   5.265  0.0192  0.3818 -0.1189
    1DPPC   C3B 2867   6.894  10.111   4.863  0.1645  0.2331 -0.1664
    1DPPC   C4B 2868   7.194  10.064   4.482  0.0141 -0.2416  0.2102
    1DPPC   NC3 2869   6.731   0.468   8.452  0.0110 -0.3694 -0.1666
    1DPPC   PO4 2870   6.399   0.444   8.211  0.0242 -0.0050  0.1220
    1DPPC   GL1 2871   6.277   0.539   7.782  0.2837  0.3289 -0.2535
    1DPPC   GL2 2872   6.509   0.761   7.713 -0.1177 -0.2671 -0.1424
    1DPPC   C1A 2873   6.263   0.518   7.345 -0.1382  0.0197  0.1755
    1DPPC   C2A 2874   6.469   0.566   7.048 -0.5431  0.1145  0.1770
    1DPPC   C3A 2875   6.233   0.744   6.658  0.1762 -0.2151 -0.0793
    1DPPC   C4A 2876   6.349   0.609   6.278 -0.0824 -0.2228  0.1526
    1DPPC   C1B 2877   6.551   0.982   7.353 -0.0071  0.1591 -0.2490
    1DPPC   C2B 2878   6.555   1.151   6.997 -0.3497 -0.1244 -0.0251
    1DPPC   C3B 2879   6.510   1.094   6.461  0.0351  0.0632  0.1165
    1DPPC   C4B 2880   6.491   1.413   6.237  0.2963 -0.4732 -0.0514
    1DPPC   NC3 2881  15.230  27.122   6.600 -0.0332  0.0827 -0.1646
    1DPPC   PO4 2882  15.341  27.560   6.560 -0.1412  0.0838  0.0811
    1DPPC   GL1 2883  15.109  27.431   6.182  0.0520 -0.0387 -0.1758
    1DPPC   GL2 2884  14.859  27.108   6.127  0.1430  0.0101 -0.0855
    1DPPC   C1A 2885  15.145  27.342   5.734 -0.0601 -0.1545 -0.1942
    1DPPC   C2A 2886  15.183  27.211   5.423  0.1994 -0.2933  0.0439
    1DPPC   C3A 2887  15.194  26.965   5.134 -0.1211 -0.0266  0.1463
    1DPPC   C4A 2888  15.100  26.656   4.973  0.0430 -0.0916 -0.0561
    1DPPC   C1B 2889  14.779  27.006   5.692  0.0558  0.0531 -0.0288
    1DPPC   C2B 2890  14.724  27.096   5.211 -0.0147  0.3359  0.1096
    1DPPC   C3B 2891  14.811  27.320   4.829  0.0288  0.2487 -0.4544
    1DPPC   C4B 2892  15.030  27.718   4.604  0.3197  0.0760 -0.1655
    1DPPC   NC3 2893  28.402   5.864   8.291  0.2389 -0.2271  0.0898
    1DPPC   PO4 2894  28.314   5.410   8.174 -0.0501 -0.3344 -0.0704
    1DPPC   GL1 2895  27.976   5.336   7.829 -0.3245 -0.4596  0.2699
    1DPPC   GL2 2896  27.871   5.012   7.716 -0.1960 -0.0615 -0.0685
    1DPPC   C1A 2897  27.792   5.334   7.378 -0.0125  0.2197  0.2288
    1DPPC   C2A 2898  27.776   5.343   6.835  0.0973 -0.0686  0.1369
    1DPPC   C3A 2899  27.771   5.209   6.459  0.2387 -0.0304  0.0781
    1DPPC   C4A 2900  27.755   5.285   5.925 -0.0228 -0.1013  0.1340
    1DPPC   C1B 2901  28.026   4.935   7.223  0.0728  0.1238 -0.1164
    1DPPC   C2B 2902  28.171   4.850   6.748  0.1220 -0.0908  0.2107
    1DPPC   C3B 2903  28.440   4.734   6.482 -0.0030 -0.2098  0.0112
    1DPPC   C4B 2904  28.694   4.514   6.207 -0.2223 -0.0967 -0.4226
    1DPPC   NC3 2905  18.447   6.082   5.823 -0.3184  0.3083 -0.0703
    1DPPC   PO4 2906  18.119   5.875   5.602 -0.0336  0.2781  0.1080
    1DPPC   GL1 2907  18.345   5.681   5.370 -0.3047  0.2644  0.1384
    1DPPC   GL2 2908  18.655   5.785   5.410 -0.3787  0.1734 -0.3376
    1DPPC   C1A 2909  18.274   5.667   4.971  0.0657 -0.2919  0.0486
    1DPPC   C2A 2910  18.517   5.460   4.673  0.1762  0.1574  0.2964
    1DPPC   C3A 2911  18.523   5.176   4.443  0.0325 -0.0570 -0.2324
    1DPPC   C4A 2912  18.279   4.966   4.194 -0.2640 -0.1575 -0.2415
    1DPPC   C1B 2913  18.785   5.779   5.017 -0.0336 -0.0301  0.1953
    1DPPC   C2B 2914  18.953   5.784   4.627 -0.2302 -0.0766  0.0140
    1DPPC   C3B 2915  18.850   5.606   4.200  0.1307  0.2678 -0.1547
    1DPPC   C4B 2916  18.562   5.309   3.991 -0.1746 -0.3661  0.1262
    1DPPC   NC3 2917  25.767  12.780   6.821 -0.1166 -0.0129 -0.4410
    1DPPC   PO4 2918  26.134  12.514   6.817 -0.0802 -0.1224 -0.1547
    1DPPC   GL1 2919  26.173  12.437   6.325 -0.2189 -0.0345 -0.3661
    1DPPC   GL2 2920  25.876  12.286   6.182  0.0607 -0.0589 -0.2555
    1DPPC   C1A 2921  26.501  12.291   6.075 -0.0431 -0.3758  0.0298
    1DPPC   C2A 2922  26.824  12.086   5.747 -0.1223 -0.0863 -0.4306
    1DPPC   C3A 2923  27.140  11.951   5.596 -0.0699 -0.1386  0.0487
    1DPPC   C4A 2924  27.454  11.944   5.259  0.0860  0.3570 -0.1180
    1DPPC   C1B 2925  26.090  12.070   5.879 -0.2132  0.2487 -0.1435
    1DPPC   C2B 2926  26.343  12.242   5.552  0.3142 -0.0273  0.1442
    1DPPC   C3B 2927  26.785  12.462   5.432 -0.0102 -0.3698 -0.2297
    1DPPC   C4B 2928  27.126  12.331   5.264 -0.1429  0.1769  0.0701
    1DPPC   NC3 2929  23.738  26.685   7.639 -0.1090  0.2902 -0.1880
    1DPPC   PO4 2930  23.443  26.415   7.503 -0.0439  0.1040 -0.4553
    1DPPC   GL1 2931  23.815  26.488   7.185 -0.1227  0.2822 -0.2084
    1DPPC   GL2 2932  23.936  26.775   7.121  0.3104  0.1678  0.0660
    1DPPC   C1A 2933  23.985  26.398   6.735 -0.0515  0.3823 -0.0459
    1DPPC   C2A 2934  24.138  26.213   6.346 -0.0041 -0.1949 -0.1665
    1DPPC   C3A 2935  24.352  26.184   6.062 -0.1993 -0.2486  0.2572
    1DPPC   C4A 2936  24.108  26.195   5.566 -0.0625 -0.1609 -0.2901
    1DPPC   C1B 2937  23.735  26.850   6.740 -0.3421  0.0077  0.1749
    1DPPC   C2B 2938  23.876  26.728   6.363  0.2284 -0.0024  0.1867
    1DPPC   C3B 2939  24.034  26.565   6.023  0.1900 -0.2707  0.1088
    1DPPC   C4B 2940  24.116  26.717   5.607 -0.1908 -0.2542  0.1148
    1DPPC   NC3 2941  25.501   1.284   7.832 -0.0532  0.1053  0.2244
    1DPPC   PO4 2942  25.670   1.494   7.481 -0.0880 -0.2738 -0.0957
    1DPPC   GL1 2943  25.343   1.299   7.261  0.1843  0.0178 -0.0355
    1DPPC   GL2 2944  25.127   1.519   7.051  0.2542 -0.2137 -0.0988
    1DPPC   C1A 2945  25.314   1.136   6.823  0.2733  0.2090 -0.0144
    1DPPC   C2A 2946  25.440   1.025   6.397 -0.0940 -0.0073 -0.1710
    1DPPC   C3A 2947  25.714   0.849   6.089 -0.0255  0.0357 -0.1917
    1DPPC   C4A 2948  25.628   0.533   5.818 -0.2630  0.2354 -0.1557
    1DPPC   C1B 2949  25.144   1.626   6.598 -0.0122  0.0474 -0.1726
    1DPPC   C2B 2950  25.164   1.812   6.114  0.0700  0.2017  0.0397
    1DPPC   C3B 2951  24.857   1.643   5.785 -0.1152 -0.3049 -0.2407
    1DPPC   C4B 2952  24.910   1.691   5.357 -0.0572  0.2527  0.0477
    1DPPC   NC3 2953  23.865  28.584   7.356  0.0347  0.0240  0.2326
    1DPPC   PO4 2954  24.164  28.875   7.411 -0.1174  0.1543  0.1259
    1DPPC   GL1 2955  24.458  28.777   7.108  0.1044  0.1594 -0.1010
    1DPPC   GL2 2956  24.447  29.119   6.941  0.2154 -0.1339 -0.0480
    1DPPC   C1A 2957  24.539  28.635   6.699  0.1411 -0.2435 -0.2841
    1DPPC   C2A 2958  24.687  28.720   6.276  0.1216  0.0116 -0.1604
    1DPPC   C3A 2959  24.842  28.881   5.930 -0.0817  0.1579 -0.1035
    1DPPC   C4A 2960  25.275  28.928   5.608 -0.0539 -0.0720 -0.0488
    1DPPC   C1B 2961  24.331  29.426   6.538 -0.0829  0.0242 -0.0349
    1DPPC   C2B 2962  24.242  29.533   6.136  0.0363 -0.3132  0.2945
    1DPPC   C3B 2963  24.107  29.789   5.809  0.1147 -0.0484 -0.0612
    1DPPC   C4B 2964  24.288  30.070   5.543 -0.1358  0.2890 -0.3019
    1DPPC   NC3 2965  20.467  25.255   6.920  0.0884  0.0401  0.0016
    1DPPC   PO4 2966  20.815  25.228   6.673  0.0077  0.0327 -0.1576
    1DPPC   GL1 2967  20.895  25.359   6.268 -0.0740  0.2902  0.0380
    1DPPC   GL2 2968  20.911  25.706   6.283 -0.1078 -0.0527 -0.1020
    1DPPC   C1A 2969  20.840  25.395   5.822 -0.0431 -0.2273  0.1078
    1DPPC   C2A 2970  20.976  25.568   5.377 -0.1057  0.3597 -0.0809
    1DPPC   C3A 2971  21.273  25.440   5.046  0.1904  0.0059 -0.2288
    1DPPC   C4A 2972  21.423  25.304   4.660  0.1345 -0.3771  0.2193
    1DPPC   C1B 2973  20.747  25.863   5.904 -0.1978 -0.0648 -0.0053
    1DPPC   C2B 2974  20.666  25.999   5.469 -0.1304 -0.2268  0.2999
    1DPPC   C3B 2975  20.488  26.312   5.145 -0.2867 -0.2207  0.0610
    1DPPC   C4B 2976  20.290  26.348   4.684 -0.2191 -0.0771 -0.0010
    1DPPC   NC3 2977  13.753   5.286   5.997 -0.2777 -0.1033  0.1477
    1DPPC   PO4 2978  14.040   5.608   5.747  0.2351 -0.2874  0.1448
    1DPPC   GL1 2979  14.071   5.436   5.434  0.1613  0.1123 -0.0182
    1DPPC   GL2 2980  13.757   5.427   5.272 -0.2134  0.1173 -0.2383
    1DPPC   C1A 2981  14.278   5.506   5.082  0.1609  0.4476 -0.0229
    1DPPC   C2A 2982  14.409   5.469   4.701 -0.1293  0.1692 -0.1981
    1DPPC   C3A 2983  14.693   5.562   4.350  0.0164  0.1189  0.3119
    1DPPC   C4A 2984  14.721   5.648   3.910 -0.0021 -0.1008  0.0104
    1DPPC   C1B 2985  13.523   5.258   4.905  0.0011 -0.2936  0.0177
    1DPPC   C2B 2986  13.461   5.104   4.516  0.4064  0.0040 -0.1567
    1DPPC   C3B 2987  13.124   4.930   4.344 -0.1308 -0.0400 -0.1237
    1DPPC   C4B 2988  13.086   4.860   3.933 -0.1312  0.1592 -0.0463
    1DPPC   NC3 2989   0.158  25.702   7.846 -0.0633  0.0226 -0.5676
    1DPPC   PO4 2990   0.553  26.034   7.954  0.1465  0.2000 -0.2927
    1DPPC   GL1 2991   0.375  26.221   7.594 -0.2029 -0.0199 -0.3116
    1DPPC   GL2 2992   0.147  26.095   7.483 -0.1903  0.0556  0.2936
    1DPPC   C1A 2993   0.268  26.385   7.102 -0.1611  0.1432 -0.1896
    1DPPC   C2A 2994   0.016  26.693   6.663  0.0274 -0.1130 -0.2020
    1DPPC   C3A 2995  -0.409  26.805   6.360 -0.1280 -0.0142  0.0830
    1DPPC   C4A 2996  -0.816  26.784   6.261 -0.0816  0.2208  0.2241
    1DPPC   C1B 2997   0.246  25.850   7.116 -0.1080 -0.0144  0.1719
    1DPPC   C2B 2998   0.302  25.795   6.774  0.1374 -0.4423  0.0984
    1DPPC   C3B 2999   0.308  25.799   6.286  0.2477 -0.0978  0.1604
    1DPPC   C4B 3000   0.170  26.111   6.009  0.0160 -0.0084  0.1886
    1DPPC   NC3 3001   2.595   5.447   8.163 -0.1016  0.1119  0.2311
    1DPPC   PO4 3002   2.197   5.151   7.986 -0.1849  0.0122  0.0395
    1DPPC   GL1 3003   2.078   5.235   7.574 -0.0499 -0.0073 -0.1904
    1DPPC   GL2 3004   1.944   4.992   7.351 -0.1007 -0.0444 -0.0543
    1DPPC   C1A 3005   2.244   5.384   7.209 -0.1477 -0.1794 -0.1612
    1DPPC   C2A 3006   2.585   5.336   6.875 -0.1825 -0.0426  0.0783
    1DPPC   C3A 3007   2.804   5.441   6.494 -0.1037 -0.0067 -0.2775
    1DPPC   C4A 3008   3.112   5.709   6.477 -0.1228 -0.1131 -0.1744
    1DPPC   C1B 3009   2.011   4.637   7.107 -0.3147  0.1956 -0.1204
    1DPPC   C2B 3010   1.797   4.543   6.789  0.0127 -0.2812 -0.0660
    1DPPC   C3B 3011   1.813   4.279   6.304 -0.1145  0.1914 -0.3360
    1DPPC   C4B 3012   1.658   3.827   6.128  0.1006 -0.1279  0.1471
    1DPPC   NC3 3013  21.456   3.571   6.716 -0.1488 -0.0783  0.1582
    1DPPC   PO4 3014  21.108   3.781   6.775 -0.0232  0.0240 -0.0014
    1DPPC   GL1 3015  21.029   3.759   6.308 -0.1347  0.2034  0.0893
    1DPPC   GL2 3016  21.272   3.604   6.244  0.4214  0.0026 -0.0592
    1DPPC   C1A 3017  20.938   3.589   5.874 -0.1351  0.3156  0.1461
    1DPPC   C2A 3018  20.682   3.194   5.582 -0.1795 -0.1263  0.2535
    1DPPC   C3A 3019  20.724   3.020   5.246 -0.0608 -0.0398 -0.0407
    1DPPC   C4A 3020  20.944   3.018   4.976 -0.2207  0.1623  0.0110
    1DPPC   C1B 3021  21.467   3.643   5.882  0.0835 -0.1293  0.2191
    1DPPC   C2B 3022  21.445   3.561   5.419  0.0999  0.2064  0.1188
    1DPPC   C3B 3023  21.360   3.462   5.041 -0.2139 -0.0286 -0.2388
    1DPPC   C4B 3024  21.036   3.347   4.602  0.1136  0.0406  0.2616
    1DPPC   NC3 3025  23.828   7.899   6.978 -0.3371 -0.1065 -0.1009
    1DPPC   PO4 3026  24.097   8.061   6.768  0.2828 -0.0976  0.0178
    1DPPC   GL1 3027  24.104   8.000   6.296  0.0186 -0.2001  0.0657
    1DPPC   GL2 3028  24.458   8.175   6.179  0.0830  0.0045  0.2964
    1DPPC   C1A 3029  24.251   7.727   5.951  0.1195  0.0161 -0.0453
    1DPPC   C2A 3030  24.408   7.318   5.806  0.1556  0.1229 -0.0278
    1DPPC   C3A 3031  24.479   6.967   5.579  0.4434  0.1097  0.2851
    1DPPC   C4A 3032  24.519   6.654   5.226  0.2004 -0.2754  0.1776
    1DPPC   C1B 3033  24.554   8.185   5.855  0.2679  0.0100  0.0597
    1DPPC   C2B 3034  24.506   7.881   5.572  0.1333 -0.0057  0.0765
    1DPPC   C3B 3035  24.669   7.539   5.392 -0.4299  0.1453  0.0770
    1DPPC   C4B 3036  24.931   7.076   5.369 -0.0296 -0.2285 -0.0796
    1DPPC   NC3 3037  25.917   5.253   8.082 -0.1198 -0.1687  0.1618
    1DPPC   PO4 3038  26.112   4.925   8.002  0.0086 -0.1569  0.0178
    1DPPC   GL1 3039  26.178   4.712   7.637  0.2276  0.2266 -0.0993
    1DPPC   GL2 3040  26.460   4.597   7.579  0.1066  0.1250  0.5029
    1DPPC   C1A 3041  26.109   4.752   7.233  0.0856 -0.4035 -0.2742
    1DPPC   C2A 3042  26.277   4.828   6.829  0.2678  0.0290  0.2087
    1DPPC   C3A 3043  26.385   5.034   6.499  0.2550  0.2635  0.1804
    1DPPC   C4A 3044  26.629   5.103   6.225  0.1061 -0.2090  0.0669
    1DPPC   C1B 3045  26.623   4.530   7.188 -0.2391 -0.2643 -0.1876
    1DPPC   C2B 3046  26.747   4.641   6.722  0.0775  0.0940 -0.0434
    1DPPC   C3B 3047  26.930   4.691   6.297  0.1071  0.0892  0.2785
    1DPPC   C4B 3048  26.922   4.347   5.989 -0.2247 -0.0900  0.2603
    1DPPC   NC3 3049   7.752  13.971   6.338 -0.3323  0.0517 -0.0986
    1DPPC   PO4 3050   7.523  14.018   5.893 -0.0161  0.3365 -0.1326
    1DPPC   GL1 3051   7.605  14.159   5.505  0.0402 -0.0011  0.2062
    1DPPC   GL2 3052   7.677  13.949   5.351 -0.1744  0.0058  0.1207
    1DPPC   C1A 3053   7.544  14.487   5.271  0.0824 -0.1442 -0.1121
    1DPPC   C2A 3054   7.344  14.639   5.018  0.1753 -0.2756 -0.2389
    1DPPC   C3A 3055   7.231  14.924   4.643  0.0018  0.1911  0.1797
    1DPPC   C4A 3056   7.136  15.299   4.412  0.1183  0.1030 -0.1141
    1DPPC   C1B 3057   7.441  13.618   5.070 -0.1796 -0.4540 -0.0343
    1DPPC   C2B 3058   7.272  13.375   4.722 -0.0356  0.1682 -0.1123
    1DPPC   C3B 3059   7.292  13.513   4.295 -0.1837  0.1192  0.1574
    1DPPC   C4B 3060   7.256  13.191   3.917 -0.2008 -0.1170 -0.0048
    1DPPC   NC3 3061  24.020  16.696   6.956  0.2001 -0.0294 -0.2143
    1DPPC   PO4 3062  24.397  16.332   7.005  0.2758 -0.4642  0.0413
    1DPPC   GL1 3063  24.443  16.439   6.627 -0.1092 -0.1885  0.3668
    1DPPC   GL2 3064  24.728  16.517   6.541 -0.2035 -0.3195 -0.0775
    1DPPC   C1A 3065  24.309  16.462   6.061 -0.0652  0.0493  0.0592
    1DPPC   C2A 3066  24.342  16.289   5.704 -0.2717  0.0461  0.0262
    1DPPC   C3A 3067  24.278  16.440   5.358  0.3084  0.2240  0.0203
    1DPPC   C4A 3068  23.986  16.477   5.094 -0.3004 -0.0347 -0.0961
    1DPPC   C1B 3069  25.061  16.862   6.391 -0.2297  0.0752  0.1492
    1DPPC   C2B 3070  25.414  17.155   6.285  0.2116 -0.2504  0.1430
    1DPPC   C3B 3071  25.828  17.152   6.115  0.0820  0.0214  0.0105
    1DPPC   C4B 3072  26.244  17.324   5.914 -0.1099  0.0386 -0.2125
    1DPPC   NC3 3073   0.852   5.449   8.372  0.1225 -0.3360 -0.0984
    1DPPC   PO4 3074   0.508   5.324   8.186  0.3721 -0.2658  0.1599
    1DPPC   GL1 3075   0.466   5.374   7.698  0.1671 -0.0157  0.4182
    1DPPC   GL2 3076   0.193   5.450   7.536  0.1212  0.1498  0.0516
    1DPPC   C1A 3077   0.676   5.399   7.427 -0.0231 -0.0600 -0.0777
    1DPPC   C2A 3078   0.643   5.324   7.031  0.0488  0.3072  0.1815
    1DPPC   C3A 3079   0.638   5.315   6.622 -0.4712  0.0263 -0.1870
    1DPPC   C4A 3080   0.760   5.201   6.204  0.3793  0.1805 -0.0902
    1DPPC   C1B 3081   0.328   5.665   7.131  0.0500  0.1268 -0.0518
    1DPPC   C2B 3082   0.233   5.679   6.660 -0.1213  0.0129 -0.0193
    1DPPC   C3B 3083  -0.069   5.745   6.302  0.1719  0.2037  0.1803
    1DPPC   C4B 3084  -0.489   5.815   6.285  0.2064  0.0677 -0.0165
    1DPPC   NC3 3085   5.186  13.459   6.757  0.2569  0.2440  0.0626
    1DPPC   PO4 3086   5.289  13.708   6.469 -0.3635  0.0767  0.0898
    1DPPC   GL1 3087   5.624  13.924   6.223 -0.2558  0.1757  0.0932
    1DPPC   GL2 3088   5.662  13.644   5.911 -0.0020  0.0895 -0.0638
    1DPPC   C1A 3089   5.623  14.195   5.862  0.0857  0.0958  0.2447
    1DPPC   C2A 3090   5.595  14.386   5.524  0.1333 -0.0505 -0.0423
    1DPPC   C3A 3091   5.427  14.397   5.063 -0.2081 -0.0926 -0.0046
    1DPPC   C4A 3092   5.450  14.023   4.743  0.2413 -0.2428 -0.0713
    1DPPC   C1B 3093   5.378  13.357   5.797  0.0335 -0.1180  0.0428
    1DPPC   C2B 3094   5.098  13.383   5.438 -0.3656 -0.0662  0.1594
    1DPPC   C3B 3095   5.048  13.295   5.082  0.2103 -0.0199 -0.0683
    1DPPC   C4B 3096   5.061  12.901   4.929  0.1287 -0.1356 -0.3174
    1DPPC   NC3 3097  17.941   4.528   6.179 -0.0911 -0.0162 -0.2149
    1DPPC   PO4 3098  18.310   4.513   5.932  0.0280 -0.0244 -0.3001
    1DPPC   GL1 3099  18.448   4.411   5.608 -0.0350  0.5881 -0.2120
    1DPPC   GL2 3100  18.287   4.475   5.437 -0.2405 -0.0056 -0.1047
    1DPPC   C1A 3101  18.686   4.182   5.322 -0.3773 -0.1385 -0.1332
    1DPPC   C2A 3102  18.713   4.041   4.896 -0.0383  0.0583  0.0896
    1DPPC   C3A 3103  18.774   3.997   4.437  0.1760 -0.0837  0.5087
    1DPPC   C4A 3104  18.392   3.969   4.158  0.2350  0.1349  0.0359
    1DPPC   C1B 3105  18.324   4.390   5.007  0.0096 -0.1870 -0.1505
    1DPPC   C2B 3106  18.449   4.292   4.553 -0.1649  0.1066  0.1552
    1DPPC   C3B 3107  18.255   4.463   4.234 -0.0676  0.4436 -0.1671
    1DPPC   C4B 3108  18.165   4.321   3.854 -0.1925  0.0588  0.1118
    1DPPC   NC3 3109   9.512  14.560   5.740  0.3376 -0.1485  0.1663
    1DPPC   PO4 3110   9.127  14.462   5.870  0.1483 -0.1425  0.2576
    1DPPC   GL1 3111   9.090  14.547   5.430  0.2626 -0.1150 -0.0549
    1DPPC   GL2 3112   9.054  14.812   5.321 -0.3482  0.1923  0.0462
    1DPPC   C1A 3113   9.283  14.346   4.989  0.3847  0.0963  0.0926
    1DPPC   C2A 3114   9.328  14.001   4.677  0.1779 -0.3314 -0.1114
    1DPPC   C3A 3115   9.413  13.906   4.357 -0.2833  0.0810 -0.0577
    1DPPC   C4A 3116   9.589  13.873   3.993  0.0511  0.1160  0.0870
    1DPPC   C1B 3117   8.778  15.089   5.273 -0.1401  0.1387  0.0687
    1DPPC   C2B 3118   8.690  15.224   4.843 -0.2862 -0.0375  0.1634
    1DPPC   C3B 3119   8.781  15.078   4.470  0.1360 -0.0661 -0.2645
    1DPPC   C4B 3120   8.525  14.948   4.090 -0.1961  0.1219  0.0230
    1DPPC   NC3 3121  12.343   2.553   6.159 -0.6335 -0.1966 -0.0615
    1DPPC   PO4 3122  11.928   2.718   6.183 -0.3035  0.3696  0.0460
    1DPPC   GL1 3123  11.535   2.681   6.005  0.0989 -0.1316  0.1672
    1DPPC   GL2 3124  11.180   2.477   5.989 -0.2401 -0.1705  0.2577
    1DPPC   C1A 3125  11.387   2.900   5.652 -0.1692  0.2941  0.0992
    1DPPC   C2A 3126  11.201   3.378   5.567 -0.2506  0.3439  0.0087
    1DPPC   C3A 3127  10.836   3.762   5.545 -0.0650 -0.1690  0.0961
    1DPPC   C4A 3128  10.469   3.812   5.302 -0.1056 -0.2445 -0.1279
    1DPPC   C1B 3129  11.129   2.480   5.627  0.0689 -0.4376 -0.0425
    1DPPC   C2B 3130  10.958   2.371   5.302  0.0268  0.1138  0.2031
    1DPPC   C3B 3131  10.769   2.634   5.044  0.1552 -0.0412  0.1646
    1DPPC   C4B 3132  10.394   2.632   4.791 -0.1171 -0.1052  0.1577
    1DPPC   NC3 3133  22.884   8.288   6.368 -0.3266 -0.2662  0.0037
    1DPPC   PO4 3134  22.582   8.110   6.129  0.1877 -0.1643  0.3685
    1DPPC   GL1 3135  22.796   8.272   5.871  0.2320 -0.0053  0.3279
    1DPPC   GL2 3136  23.176   8.380   6.011 -0.2689 -0.3574 -0.1593
    1DPPC   C1A 3137  22.908   8.314   5.418 -0.1388 -0.2114 -0.0225
    1DPPC   C2A 3138  22.869   8.286   4.990 -0.2869  0.1309  0.1514
    1DPPC   C3A 3139  22.629   8.380   4.619  0.1813 -0.1213 -0.3516
    1DPPC   C4A 3140  22.257   8.371   4.547  0.1617 -0.2960  0.0732
    1DPPC   C1B 3141  23.307   8.109   5.721 -0.0056 -0.0276 -0.0795
    1DPPC   C2B 3142  23.441   7.695   5.686  0.0611 -0.1354 -0.1115
    1DPPC   C3B 3143  23.227   7.311   5.870  0.0611  0.1331 -0.0552
    1DPPC   C4B 3144  22.954   6.960   6.065 -0.1626  0.2655 -0.1363
    1DPPC   NC3 3145  25.056  20.671   7.252 -0.2252  0.2145  0.0953
    1DPPC   PO4 3146  25.480  20.575   7.328 -0.0302  0.0043 -0.2023
    1DPPC   GL1 3147  25.566  20.759   6.929  0.1596  0.0415 -0.2060
    1DPPC   GL2 3148  25.306  20.465   6.687  0.0981 -0.0695  0.0313
    1DPPC   C1A 3149  25.816  20.651   6.568  0.0116 -0.1159  0.1341
    1DPPC   C2A 3150  26.149  20.556   6.385 -0.2772 -0.2512  0.3305
    1DPPC   C3A 3151  26.413  20.193   6.360  0.0310 -0.0106 -0.1261
    1DPPC   C4A 3152  26.374  19.799   6.606 -0.1203  0.1709 -0.2620
    1DPPC   C1B 3153  25.316  20.551   6.262  0.0945 -0.2116 -0.1209
    1DPPC   C2B 3154  25.222  20.544   5.889  0.3399 -0.1689 -0.1524
    1DPPC   C3B 3155  25.377  20.525   5.489 -0.1778  0.4212  0.0560
    1DPPC   C4B 3156  25.449  20.000   5.379  0.1246  0.0145  0.0481
    1DPPC   NC3 3157  14.685  23.467   6.865 -0.1839  0.1689 -0.1309
    1DPPC   PO4 3158  14.554  23.791   6.935  0.2627 -0.0797 -0.3083
    1DPPC   GL1 3159  14.713  23.827   6.452 -0.0809 -0.1660  0.1951
    1DPPC   GL2 3160  14.498  24.118   6.357 -0.1484 -0.1770 -0.0499
    1DPPC   C1A 3161  14.846  23.757   6.025  0.3136  0.0237  0.1928
    1DPPC   C2A 3162  14.710  23.705   5.599  0.0256  0.0291  0.0061
    1DPPC   C3A 3163  14.732  23.830   5.153 -0.2350  0.1626  0.0565
    1DPPC   C4A 3164  14.663  23.681   4.702  0.1841 -0.2092  0.1013
    1DPPC   C1B 3165  14.368  23.822   5.949  0.6218 -0.0167 -0.1649
    1DPPC   C2B 3166  14.147  23.939   5.505  0.3783 -0.1846  0.1824
    1DPPC   C3B 3167  13.800  23.788   5.213  0.0958 -0.1075  0.1676
    1DPPC   C4B 3168  13.365  23.497   4.914 -0.1351 -0.1774 -0.0253
    1DPPC   NC3 3169  15.000   4.448   5.945  0.1343 -0.1692 -0.0786
    1DPPC   PO4 3170  14.857   4.928   6.020  0.0947 -0.0577 -0.1455
    1DPPC   GL1 3171  14.967   4.802   5.596 -0.0262  0.1658  0.0090
    1DPPC   GL2 3172  15.039   5.046   5.442  0.0137  0.0718 -0.1767
    1DPPC   C1A 3173  15.113   4.606   5.197 -0.2372 -0.0839 -0.3262
    1DPPC   C2A 3174  15.120   4.592   4.825 -0.1772  0.0973  0.1503
    1DPPC   C3A 3175  15.098   4.373   4.532  0.0508  0.1926 -0.0057
    1DPPC   C4A 3176  15.168   4.056   4.323 -0.1088 -0.2255 -0.0437
    1DPPC   C1B 3177  15.240   5.120   5.114  0.2006  0.1951  0.1010
    1DPPC   C2B 3178  15.319   5.474   4.932 -0.0713  0.0944  0.0281
    1DPPC   C3B 3179  15.230   5.663   4.592 -0.1188 -0.0752  0.3472
    1DPPC   C4B 3180  15.212   5.491   4.202 -0.1153 -0.1270  0.3195
    1DPPC   NC3 3181   8.416  16.122   6.187 -0.2661  0.0421  0.0577
    1DPPC   PO4 3182   8.565  15.748   5.974  0.1362 -0.0449 -0.3630
    1DPPC   GL1 3183   8.761  16.117   5.648  0.0364 -0.2361 -0.2033
    1DPPC   GL2 3184   8.998  15.886   5.465  0.0263 -0.1950 -0.2194
    1DPPC   C1A 3185   8.843  16.330   5.300 -0.1850  0.0288  0.1203
    1DPPC   C2A 3186   8.844  16.279   4.831 -0.0844 -0.3332 -0.0737
    1DPPC   C3A 3187   9.106  15.972   4.476  0.2437 -0.0655 -0.0473
    1DPPC   C4A 3188   9.485  15.865   4.293 -0.2823  0.0611 -0.2179
    1DPPC   C1B 3189   8.919  15.718   5.008 -0.1054 -0.0206 -0.0006
    1DPPC   C2B 3190   8.798  15.617   4.543  0.3440  0.0619 -0.0451
    1DPPC   C3B 3191   8.463  15.496   4.324 -0.2455  0.1521 -0.2788
    1DPPC   C4B 3192   8.508  15.422   3.929 -0.2083  0.1490 -0.0778
    1DPPC   NC3 3193   8.494  14.453   6.559 -0.2753 -0.1275  0.1421
    1DPPC   PO4 3194   8.757  14.177   6.221  0.2785 -0.0103  0.0457
    1DPPC   GL1 3195   8.498  14.216   5.836 -0.0746 -0.1777  0.1820
    1DPPC   GL2 3196   8.619  14.461   5.738  0.0470 -0.0424  0.1534
    1DPPC   C1A 3197   8.615  14.089   5.421 -0.0755  0.0628 -0.0645
    1DPPC   C2A 3198   8.832  14.122   5.009 -0.1851 -0.2611  0.0737
    1DPPC   C3A 3199   8.855  14.180   4.552  0.1166  0.2612 -0.0903
    1DPPC   C4A 3200   9.138  14.314   4.277  0.2149 -0.1164 -0.3129
    1DPPC   C1B 3201   8.584  14.589   5.262  0.1411  0.0231  0.1034
    1DPPC   C2B 3202   8.524  14.696   4.816  0.0257 -0.2060  0.1259
    1DPPC   C3B 3203   8.544  14.536   4.385 -0.4469 -0.0465 -0.3692
    1DPPC   C4B 3204   8.658  14.263   4.062 -0.2414  0.1946 -0.2765
    1DPPC   NC3 3205  15.446  11.278   5.666 -0.1046  0.1375 -0.1990
    1DPPC   PO4 3206  15.080  11.086   5.607  0.0120 -0.2819  0.0505
    1DPPC   GL1 3207  15.152  10.911   5.221  0.1220 -0.2495  0.1240
    1DPPC   GL2 3208  15.329  11.188   5.116 -0.1951  0.0315 -0.0987
    1DPPC   C1A 3209  15.384  10.634   5.003  0.1199  0.1301 -0.0723
    1DPPC   C2A 3210  15.803  10.432   4.895  0.0194  0.0204 -0.0432
    1DPPC   C3A 3211  15.914  10.356   4.531 -0.2225  0.3850 -0.1118
    1DPPC   C4A 3212  15.978  10.372   4.142 -0.0219 -0.1230 -0.2357
    1DPPC   C1B 3213  15.679  10.965   4.840 -0.0564  0.1710  0.4056
    1DPPC   C2B 3214  15.983  10.928   4.633 -0.0832  0.2001  0.1210
    1DPPC   C3B 3215  16.437  11.022   4.599  0.3928 -0.0639  0.3108
    1DPPC   C4B 3216  16.776  10.964   4.240  0.1935 -0.1329  0.0375
    1DPPC   NC3 3217  28.851  22.169   7.392  0.2707  0.0916  0.0373
    1DPPC   PO4 3218  28.432  22.313   7.275  0.0047  0.0117  0.1393
    1DPPC   GL1 3219  28.344  22.158   6.912  0.3798  0.0480 -0.0280
    1DPPC   GL2 3220  28.543  21.837   6.963  0.0996  0.0688  0.4928
    1DPPC   C1A 3221  28.161  21.949   6.542  0.3995  0.3423  0.3117
    1DPPC   C2A 3222  27.758  21.869   6.362 -0.0033  0.1798  0.0797
    1DPPC   C3A 3223  27.404  21.758   6.431 -0.1391  0.2216 -0.1919
    1DPPC   C4A 3224  27.351  21.450   6.807  0.0608 -0.0274  0.1605
    1DPPC   C1B 3225  28.503  21.608   6.495  0.0047 -0.1458  0.3487
    1DPPC   C2B 3226  28.187  21.473   6.116  0.2083  0.4550  0.2391
    1DPPC   C3B 3227  28.473  21.277   5.713  0.2094  0.1613  0.0281
    1DPPC   C4B 3228  28.921  21.237   5.612  0.0998 -0.0326  0.0085
    1DPPC   NC3 3229  21.568   6.164   7.314 -0.0598 -0.0516  0.0753
    1DPPC   PO4 3230  21.745   5.794   6.940  0.2093  0.1319  0.0892
    1DPPC   GL1 3231  21.664   5.742   6.520  0.0134 -0.2723  0.0416
    1DPPC   GL2 3232  21.549   6.002   6.393 -0.1798 -0.0996  0.0698
    1DPPC   C1A 3233  21.797   5.431   6.192 -0.0965  0.0396  0.0327
    1DPPC   C2A 3234  21.925   5.318   5.794 -0.1401  0.2193  0.0547
    1DPPC   C3A 3235  21.801   5.266   5.381 -0.1447  0.2297  0.0007
    1DPPC   C4A 3236  21.671   5.162   5.019 -0.2136 -0.1635 -0.1292
    1DPPC   C1B 3237  21.570   5.847   6.002 -0.1221 -0.0258  0.0330
    1DPPC   C2B 3238  21.746   5.752   5.595  0.0313  0.1722 -0.3361
    1DPPC   C3B 3239  21.921   5.819   5.262 -0.0126 -0.1149 -0.1256
    1DPPC   C4B 3240  21.905   5.742   4.904  0.0907 -0.0448  0.1384
    1DPPC   NC3 3241  27.192   1.326   7.927  0.0136  0.0294 -0.1619
    1DPPC   PO4 3242  27.564   0.987   8.076 -0.0561  0.1574 -0.1215
    1DPPC   GL1 3243  27.817   1.013   7.679  0.1034  0.0410 -0.0166
    1DPPC   GL2 3244  27.921   1.279   7.480  0.0851 -0.0162 -0.2429
    1DPPC   C1A 3245  27.768   0.906   7.216  0.0665 -0.0458 -0.1960
    1DPPC   C2A 3246  27.927   0.765   6.825 -0.1709 -0.2723  0.1447
    1DPPC   C3A 3247  28.062   0.765   6.381  0.0750 -0.3431 -0.1017
    1DPPC   C4A 3248  28.210   1.167   6.302 -0.3483  0.0656  0.0940
    1DPPC   C1B 3249  28.183   1.201   7.064 -0.1793  0.0497  0.0533
    1DPPC   C2B 3250  28.446   1.030   6.741 -0.0047 -0.0368 -0.0767
    1DPPC   C3B 3251  28.709   0.726   6.495 -0.2387  0.2447 -0.2063
    1DPPC   C4B 3252  28.900   0.517   6.110 -0.1846 -0.0921  0.1099
    1DPPC   NC3 3253  17.084   7.477   5.562  0.0326  0.2027  0.1294
    1DPPC   PO4 3254  17.060   7.031   5.501 -0.1903 -0.0579 -0.2709
    1DPPC   GL1 3255  17.080   6.776   5.138  0.1753  0.0010 -0.0021
    1DPPC   GL2 3256  17.011   6.592   4.961 -0.0475  0.0955  0.1241
    1DPPC   C1A 3257  17.480   6.794   4.935  0.1107  0.2194  0.0587
    1DPPC   C2A 3258  17.706   6.883   4.546 -0.0457  0.0040  0.0825
    1DPPC   C3A 3259  17.886   6.951   4.137 -0.0203 -0.2970 -0.3121
    1DPPC   C4A 3260  17.978   7.110   3.776 -0.1250  0.1340 -0.1738
    1DPPC   C1B 3261  16.831   6.533   4.675  0.0414  0.1705  0.1463
    1DPPC   C2B 3262  16.956   6.429   4.302  0.0488  0.1956  0.2350
    1DPPC   C3B 3263  16.728   6.191   3.975  0.1634  0.2150  0.0612
    1DPPC   C4B 3264  16.600   5.941   3.741  0.0612 -0.0400  0.5120
    1DPPC   NC3 3265  10.111   9.819   5.999 -0.0893 -0.0187  0.0228
    1DPPC   PO4 3266  10.383   9.603   5.836  0.3832 -0.2515 -0.0341
    1DPPC   GL1 3267  10.307   9.240   5.567  0.0744  0.0830  0.0272
    1DPPC   GL2 3268   9.999   9.240   5.435  0.0744  0.0822 -0.0562
    1DPPC   C1A 3269  10.426   9.059   5.278 -0.2909 -0.1490 -0.0739
    1DPPC   C2A 3270  10.325   9.063   4.799  0.1919  0.0427  0.0125
    1DPPC   C3A 3271  10.183   8.833   4.440  0.2932  0.1465 -0.0768
    1DPPC   C4A 3272  10.509   8.836   4.174  0.0928 -0.1859  0.1077
    1DPPC   C1B 3273   9.956   9.331   5.022  0.2575  0.1450  0.0394
    1DPPC   C2B 3274   9.781   9.279   4.643 -0.1414  0.1517  0.0910
    1DPPC   C3B 3275   9.585   9.470   4.394 -0.0215 -0.0482  0.0716
    1DPPC   C4B 3276   9.445   9.890   4.292  0.1304 -0.0578  0.0670
    1DPPC   NC3 3277  19.777  12.803   6.319 -0.2696 -0.3518  0.1246
    1DPPC   PO4 3278  19.556  12.440   6.350 -0.1911 -0.0193  0.4752
    1DPPC   GL1 3279  19.665  12.579   5.878  0.2248 -0.0278  0.2720
    1DPPC   GL2 3280  19.539  12.948   5.828  0.1547  0.0007 -0.0170
    1DPPC   C1A 3281  19.868  12.524   5.449  0.3042  0.1392  0.0832
    1DPPC   C2A 3282  19.735  12.643   4.989 -0.2134  0.0008 -0.1978
    1DPPC   C3A 3283  19.702  12.947   4.707  0.1305  0.1321  0.0194
    1DPPC   C4A 3284  19.665  13.218   4.341 -0.1883  0.0342 -0.1503
    1DPPC   C1B 3285  19.533  12.892   5.368  0.0008 -0.1060  0.0120
    1DPPC   C2B 3286  19.471  13.135   5.086  0.3276  0.0206 -0.0138
    1DPPC   C3B 3287  19.384  13.341   4.725  0.0962 -0.0114  0.1422
    1DPPC   C4B 3288  19.132  13.295   4.334  0.0046  0.1786  0.1255
    1DPPC   NC3 3289   5.712  12.862   6.509  0.0815  0.1349 -0.0888
    1DPPC   PO4 3290   5.403  12.983   6.735 -0.0907  0.2307 -0.2786
    1DPPC   GL1 3291   5.251  13.221   6.304  0.4311  0.3142 -0.1154
    1DPPC   GL2 3292   5.470  12.978   6.096  0.0620 -0.2698  0.0919
    1DPPC   C1A 3293   4.919  13.430   6.037  0.0206 -0.1188  0.0603
    1DPPC   C2A 3294   4.674  13.451   5.652  0.2769  0.0826 -0.1258
    1DPPC   C3A 3295   4.645  13.087   5.333 -0.0722 -0.0811 -0.0030
    1DPPC   C4A 3296   4.524  12.909   4.973  0.3073 -0.2226 -0.3943
    1DPPC   C1B 3297   5.371  12.844   5.636  0.0698  0.1648 -0.2008
    1DPPC   C2B 3298   5.067  12.835   5.390  0.0774  0.1389 -0.3318
    1DPPC   C3B 3299   4.837  12.515   5.122 -0.3162 -0.0388 -0.0557
    1DPPC   C4B 3300   4.736  12.177   5.062  0.1517 -0.0221  0.2275
    1DPPC   NC3 3301   7.962  15.049   6.111  0.0178  0.0391 -0.2644
    1DPPC   PO4 3302   7.548  15.060   6.044  0.0963 -0.3606 -0.0932
    1DPPC   GL1 3303   7.690  15.189   5.682 -0.1962  0.0659  0.1618
    1DPPC   GL2 3304   7.738  15.504   5.697 -0.2720 -0.0248 -0.0507
    1DPPC   C1A 3305   7.715  15.031   5.345 -0.0830  0.1991  0.0300
    1DPPC   C2A 3306   7.748  14.957   4.896 -0.0778  0.1841  0.4009
    1DPPC   C3A 3307   7.733  15.037   4.522 -0.1593 -0.0098  0.0485
    1DPPC   C4A 3308   7.807  14.789   4.182 -0.4161 -0.1346 -0.2163
    1DPPC   C1B 3309   7.502  15.534   5.304  0.2407  0.0570 -0.0760
    1DPPC   C2B 3310   7.537  15.565   4.793 -0.3505  0.3422  0.0902
    1DPPC   C3B 3311   7.529  15.760   4.359 -0.3178 -0.1342  0.0831
    1DPPC   C4B 3312   7.383  15.572   4.057 -0.0205  0.0113 -0.0416
    1DPPC   NC3 3313  25.649   0.080   7.679 -0.1727 -0.1383  0.2778
    1DPPC   PO4 3314  25.861  -0.292   7.843 -0.0754 -0.0948  0.1742
    1DPPC   GL1 3315  26.033  -0.116   7.380 -0.1620  0.1239 -0.0726
    1DPPC   GL2 3316  26.156   0.187   7.358  0.1143  0.0838 -0.0808
    1DPPC   C1A 3317  25.964  -0.210   6.913 -0.2116 -0.0364 -0.2986
    1DPPC   C2A 3318  26.015  -0.397   6.561 -0.0792 -0.2458  0.0504
    1DPPC   C3A 3319  25.933  -0.329   6.151 -0.1184  0.1595  0.2155
    1DPPC   C4A 3320  25.655  -0.315   5.789  0.0541 -0.1000 -0.0080
    1DPPC   C1B 3321  26.354   0.172   6.994  0.0318  0.2739 -0.0851
    1DPPC   C2B 3322  26.273   0.045   6.627  0.0379  0.1267 -0.2253
    1DPPC   C3B 3323  26.305   0.034   6.118 -0.1371 -0.0671 -0.0214
    1DPPC   C4B 3324  26.282  -0.255   5.814  0.1202  0.1216 -0.0682
    1DPPC   NC3 3325  19.712  24.856   7.339 -0.0564 -0.1375 -0.0799
    1DPPC   PO4 3326  19.843  24.569   7.024  0.2144 -0.1289  0.2971
    1DPPC   GL1 3327  19.891  24.677   6.611 -0.3041  0.5652 -0.0467
    1DPPC   GL2 3328  20.088  24.562   6.326 -0.2275 -0.0238 -0.0648
    1DPPC   C1A 3329  19.697  24.822   6.319 -0.2950  0.1088 -0.1309
    1DPPC   C2A 3330  19.689  24.835   5.943  0.4255  0.1198  0.1581
    1DPPC   C3A 3331  19.886  24.916   5.564 -0.3529 -0.0959  0.0784
    1DPPC   C4A 3332  20.041  25.136   5.311 -0.0670  0.1286 -0.0885
    1DPPC   C1B 3333  20.128  24.663   5.952 -0.0555  0.0580  0.0826
    1DPPC   C2B 3334  20.217  24.583   5.473  0.0680  0.2623  0.0375
    1DPPC   C3B 3335  20.338  24.726   5.118 -0.1104  0.0203  0.1271
    1DPPC   C4B 3336  20.471  25.049   4.918  0.0682 -0.0554  0.0434
    1DPPC   NC3 3337  22.637  20.987   7.263 -0.2176  0.3499 -0.0554
    1DPPC   PO4 3338  22.736  20.723   6.967  0.2484 -0.0413  0.0784
    1DPPC   GL1 3339  22.744  20.757   6.475 -0.1578 -0.3914  0.0865
    1DPPC   GL2 3340  22.957  21.084   6.327  0.2632  0.0937  0.0689
    1DPPC   C1A 3341  22.723  20.667   6.006  0.3961  0.1460  0.2637
    1DPPC   C2A 3342  22.597  20.710   5.625 -0.0344  0.0540  0.0651
    1DPPC   C3A 3343  22.229  20.819   5.327  0.1121  0.1855 -0.1570
    1DPPC   C4A 3344  22.245  20.922   4.892  0.1954  0.0191 -0.1205
    1DPPC   C1B 3345  22.723  21.179   5.880  0.0460  0.1619  0.2403
    1DPPC   C2B 3346  22.504  21.182   5.561  0.2272  0.0414  0.0541
    1DPPC   C3B 3347  22.497  21.587   5.280  0.0514  0.1338  0.1980
    1DPPC   C4B 3348  22.408  21.424   4.903 -0.3594 -0.2951 -0.4890
    1DPPC   NC3 3349  15.515  25.775   7.030  0.0010 -0.3450  0.2753
    1DPPC   PO4 3350  15.741  25.484   6.815  0.0183  0.2707  0.0584
    1DPPC   GL1 3351  15.717  25.347   6.437 -0.1153 -0.2380 -0.0368
    1DPPC   GL2 3352  15.539  25.085   6.396  0.0005  0.4117  0.1062
    1DPPC   C1A 3353  15.867  25.437   5.986  0.0589  0.1135 -0.1594
    1DPPC   C2A 3354  15.904  25.566   5.520 -0.0183  0.1447  0.0058
    1DPPC   C3A 3355  15.950  25.473   5.065 -0.1117 -0.0312 -0.0667
    1DPPC   C4A 3356  16.336  25.464   4.787  0.0678 -0.1892  0.1265
    1DPPC   C1B 3357  15.601  24.968   5.965  0.0972 -0.1464 -0.0119
    1DPPC   C2B 3358  15.602  24.861   5.507  0.0937 -0.1697  0.1201
    1DPPC   C3B 3359  15.599  24.621   5.092 -0.1481  0.5317 -0.4339
    1DPPC   C4B 3360  15.485  24.645   4.684 -0.0400 -0.0592 -0.1659
    1DPPC   NC3 3361  10.717   1.960   6.547  0.1189  0.3696 -0.1272
    1DPPC   PO4 3362  10.584   1.679   6.747 -0.3406  0.1945  0.0747
    1DPPC   GL1 3363  10.364   1.613   6.406  0.1798  0.2925 -0.3931
    1DPPC   GL2 3364  10.520   1.687   6.088  0.0845 -0.2758  0.4036
    1DPPC   C1A 3365   9.959   1.708   6.269 -0.2843 -0.0587  0.0758
    1DPPC   C2A 3366   9.699   1.874   6.052  0.3139  0.2297  0.0055
    1DPPC   C3A 3367   9.485   1.753   5.598 -0.1163  0.0102  0.2582
    1DPPC   C4A 3368   9.526   1.488   5.299  0.1319 -0.0277 -0.0786
    1DPPC   C1B 3369  10.198   1.678   5.779  0.1180  0.0295 -0.2292
    1DPPC   C2B 3370  10.025   1.707   5.379 -0.1834  0.0211  0.6188
    1DPPC   C3B 3371   9.911   1.388   5.085  0.2925 -0.1315  0.0582
    1DPPC   C4B 3372  10.094   0.997   4.846  0.1172  0.2072 -0.2845
    1DPPC   NC3 3373   1.377   7.446   7.532 -0.1323  0.3139 -0.2888
    1DPPC   PO4 3374   1.453   7.165   7.859 -0.0487 -0.2137 -0.4206
    1DPPC   GL1 3375   1.334   6.809   7.400 -0.0117 -0.0387 -0.1753
    1DPPC   GL2 3376   1.438   6.503   7.375  0.0598  0.0029  0.1541
    1DPPC   C1A 3377   1.335   6.722   6.884  0.3796 -0.2072 -0.2562
    1DPPC   C2A 3378   1.296   6.997   6.474  0.1067  0.0001 -0.0591
    1DPPC   C3A 3379   1.563   7.131   6.134 -0.0011 -0.0360 -0.1406
    1DPPC   C4A 3380   1.563   7.543   5.933  0.2166  0.2696 -0.0796
    1DPPC   C1B 3381   1.699   6.356   7.031 -0.2116 -0.2019 -0.0357
    1DPPC   C2B 3382   1.818   6.085   6.580 -0.0899 -0.2309 -0.1301
    1DPPC   C3B 3383   2.049   5.886   6.274  0.4990  0.1718 -0.2283
    1DPPC   C4B 3384   2.383   5.606   6.271 -0.2800  0.2253 -0.2257
    1DPPC   NC3 3385  21.474   0.728   6.685 -0.1469 -0.2586 -0.1216
    1DPPC   PO4 3386  21.964   0.875   6.785 -0.0226 -0.0051 -0.0749
    1DPPC   GL1 3387  21.812   1.044   6.400  0.3430 -0.0835 -0.1045
    1DPPC   GL2 3388  21.703   1.400   6.370  0.0347  0.0924 -0.1654
    1DPPC   C1A 3389  21.693   1.009   6.030  0.0780  0.1231 -0.5822
    1DPPC   C2A 3390  21.662   0.831   5.677  0.0073  0.0520  0.2205
    1DPPC   C3A 3391  21.320   0.847   5.320  0.1882 -0.1852  0.3017
    1DPPC   C4A 3392  21.202   1.013   4.963 -0.0164 -0.1571  0.0114
    1DPPC   C1B 3393  21.611   1.473   5.913 -0.2321 -0.1134  0.2450
    1DPPC   C2B 3394  21.477   1.253   5.506  0.1229  0.0492 -0.3790
    1DPPC   C3B 3395  21.201   1.466   5.170 -0.2947 -0.0671 -0.2904
    1DPPC   C4B 3396  21.264   1.873   4.940 -0.1389  0.0560 -0.3520
    1DPPC   NC3 3397   3.622  21.711   7.706  0.0723  0.1535  0.0562
    1DPPC   PO4 3398   3.504  21.585   7.241 -0.1122 -0.1271  0.1945
    1DPPC   GL1 3399   3.843  21.620   6.881 -0.1361  0.1208 -0.0346
    1DPPC   GL2 3400   4.050  21.737   6.822  0.2346  0.3056 -0.2478
    1DPPC   C1A 3401   3.911  21.372   6.483  0.0456  0.4446 -0.0252
    1DPPC   C2A 3402   4.166  21.159   6.055 -0.0482  0.0526  0.0085
    1DPPC   C3A 3403   4.400  21.152   5.666 -0.2189 -0.0771 -0.1041
    1DPPC   C4A 3404   4.554  21.199   5.206  0.0023  0.0456  0.1841
    1DPPC   C1B 3405   4.052  21.816   6.359 -0.1152  0.0612 -0.0600
    1DPPC   C2B 3406   3.969  21.843   5.941 -0.2699  0.0264  0.1784
    1DPPC   C3B 3407   3.810  21.815   5.560  0.0191 -0.1638 -0.0041
    1DPPC   C4B 3408   3.787  22.053   5.140 -0.0145 -0.1168 -0.1405
    1DPPC   NC3 3409  10.673   9.187   5.944 -0.3613 -0.0600  0.1210
    1DPPC   PO4 3410  11.055   9.508   5.835  0.0539  0.0110  0.1189
    1DPPC   GL1 3411  10.780   9.458   5.530 -0.1126  0.1336 -0.3760
    1DPPC   GL2 3412  10.939   9.447   5.300  0.0355 -0.0096 -0.1094
    1DPPC   C1A 3413  10.370   9.544   5.212  0.3066  0.1606 -0.1912
    1DPPC   C2A 3414  10.413   9.614   4.710 -0.0534  0.0420 -0.3010
    1DPPC   C3A 3415  10.526   9.786   4.362  0.0039  0.0829 -0.2912
    1DPPC   C4A 3416  10.698  10.027   3.967  0.0129 -0.0769  0.0755
    1DPPC   C1B 3417  10.752   9.267   4.930 -0.0822 -0.1409 -0.1430
    1DPPC   C2B 3418  10.856   9.127   4.602 -0.0937  0.1712  0.3265
    1DPPC   C3B 3419  11.057   8.736   4.449 -0.3085  0.0536 -0.0634
    1DPPC   C4B 3420  11.140   8.340   4.719  0.1875  0.1224 -0.1235
    1DPPC   NC3 3421   0.533  17.414   8.473  0.0656  0.0646 -0.0760
    1DPPC   PO4 3422   0.311  17.273   8.003  0.2734  0.2116 -0.0250
    1DPPC   GL1 3423   0.394  17.400   7.610 -0.0798 -0.0068 -0.0757
    1DPPC   GL2 3424   0.168  17.569   7.455  0.1473  0.3118 -0.1783
    1DPPC   C1A 3425   0.466  17.263   7.183  0.0997 -0.4866 -0.1205
    1DPPC   C2A 3426   0.529  17.372   6.768  0.0417  0.3748  0.1582
    1DPPC   C3A 3427   0.715  17.355   6.354 -0.1592 -0.1901  0.2323
    1DPPC   C4A 3428   0.969  17.561   6.118  0.0981  0.2763  0.1227
    1DPPC   C1B 3429   0.118  17.731   7.087 -0.3402  0.0749 -0.1696
    1DPPC   C2B 3430   0.037  17.750   6.704 -0.4617  0.4500 -0.1695
    1DPPC   C3B 3431   0.310  17.733   6.414  0.2912 -0.2255 -0.2958
    1DPPC   C4B 3432   0.649  17.853   6.295  0.1476 -0.2160 -0.0613
    1DPPC   NC3 3433  16.786   5.951   6.246 -0.2833 -0.2289 -0.0606
    1DPPC   PO4 3434  16.627   5.637   5.937 -0.2203  0.4794 -0.2495
    1DPPC   GL1 3435  16.636   5.433   5.597  0.2039 -0.1024  0.0287
    1DPPC   GL2 3436  16.610   5.736   5.396 -0.0594 -0.3275 -0.3117
    1DPPC   C1A 3437  16.650   5.233   5.216 -0.0960 -0.2962  0.1962
    1DPPC   C2A 3438  16.568   5.143   4.759 -0.1552 -0.0303  0.0984
    1DPPC   C3A 3439  16.407   5.109   4.361  0.0823  0.0330  0.1167
    1DPPC   C4A 3440  16.262   5.176   3.999 -0.2452 -0.1445  0.2643
    1DPPC   C1B 3441  16.607   5.740   4.968  0.1034 -0.4537  0.1449
    1DPPC   C2B 3442  16.762   5.582   4.622  0.1029  0.2588  0.1642
    1DPPC   C3B 3443  16.853   5.219   4.264  0.2165  0.1251  0.3728
    1DPPC   C4B 3444  16.805   4.918   3.901  0.0090 -0.1516 -0.1678
    1DPPC   NC3 3445  10.188   2.830   6.613 -0.0282 -0.1915 -0.0264
    1DPPC   PO4 3446  10.710   2.858   6.524  0.2007 -0.1860 -0.0999
    1DPPC   GL1 3447  10.781   2.890   6.088 -0.2240  0.1700  0.0656
    1DPPC   GL2 3448  10.729   2.653   5.993  0.1743 -0.0486 -0.1487
    1DPPC   C1A 3449  10.854   3.091   5.742 -0.2073  0.0029  0.0031
    1DPPC   C2A 3450  10.957   3.003   5.365 -0.3221 -0.0038  0.1872
    1DPPC   C3A 3451  11.190   3.005   5.032  0.1794  0.0745 -0.0360
    1DPPC   C4A 3452  11.407   2.914   4.790  0.2659 -0.1607 -0.3436
    1DPPC   C1B 3453  10.631   2.644   5.561  0.2155 -0.1217 -0.1307
    1DPPC   C2B 3454  10.257   2.672   5.258 -0.1456  0.2335 -0.0766
    1DPPC   C3B 3455  10.026   2.935   5.096 -0.1201  0.2245 -0.0639
    1DPPC   C4B 3456   9.545   2.864   5.115  0.1126  0.2309 -0.0276
    1DPPC   NC3 3457  21.818   2.243   6.799  0.0157  0.0508 -0.1541
    1DPPC   PO4 3458  21.675   2.632   6.904 -0.0261  0.1958 -0.1241
    1DPPC   GL1 3459  21.708   2.784   6.407 -0.0229  0.0714  0.1210
    1DPPC   GL2 3460  21.830   2.404   6.313 -0.0409  0.1574  0.1403
    1DPPC   C1A 3461  21.723   2.843   5.994  0.0884  0.0567  0.2507
    1DPPC   C2A 3462  21.841   2.714   5.622 -0.0147  0.1342  0.2919
    1DPPC   C3A 3463  21.823   2.635   5.209  0.0309  0.3820  0.1143
    1DPPC   C4A 3464  22.181   2.530   4.877  0.3707 -0.0240 -0.0991
    1DPPC   C1B 3465  22.096   2.480   5.945  0.1376 -0.0488  0.0595
    1DPPC   C2B 3466  22.267   2.555   5.467  0.0900 -0.1111 -0.2143
    1DPPC   C3B 3467  22.571   2.531   5.135  0.2417 -0.2272  0.1865
    1DPPC   C4B 3468  22.848   2.868   4.892  0.0371  0.0722  0.0122
    1DPPC   NC3 3469  22.431   1.238   7.294  0.0983  0.1968 -0.0351
    1DPPC   PO4 3470  22.610   1.437   7.032  0.0387 -0.0262 -0.0316
    1DPPC   GL1 3471  22.454   1.559   6.584 -0.1353 -0.0391 -0.0578
    1DPPC   GL2 3472  22.158   1.507   6.390 -0.0139  0.0971 -0.2749
    1DPPC   C1A 3473  22.606   1.346   6.221  0.0502 -0.0676  0.0798
    1DPPC   C2A 3474  22.630   1.378   5.865 -0.2522  0.2465  0.0281
    1DPPC   C3A 3475  22.455   1.444   5.568 -0.0840  0.4332  0.2846
    1DPPC   C4A 3476  22.224   1.563   5.126 -0.2339  0.2426 -0.1294
    1DPPC   C1B 3477  22.108   1.394   6.008  0.0657 -0.0352  0.0501
    1DPPC   C2B 3478  21.960   1.370   5.569 -0.1827  0.1098 -0.0109
    1DPPC   C3B 3479  21.886   0.988   5.241  0.0615  0.1131 -0.2319
    1DPPC   C4B 3480  21.997   0.630   5.091  0.0994 -0.2113 -0.0782
    1DPPC   NC3 3481  12.304  13.973   6.755  0.0885  0.2060  0.0600
    1DPPC   PO4 3482  12.063  13.961   6.302  0.4242 -0.2131  0.0682
    1DPPC   GL1 3483  11.803  13.896   5.948  0.1270 -0.0525 -0.1127
    1DPPC   GL2 3484  11.991  13.707   5.708  0.4717 -0.3165  0.1638
    1DPPC   C1A 3485  11.645  13.949   5.483  0.3944  0.2092  0.2812
    1DPPC   C2A 3486  11.933  14.208   5.257  0.0384 -0.2963 -0.1095
    1DPPC   C3A 3487  12.281  14.385   5.031  0.0851 -0.1608  0.0350
    1DPPC   C4A 3488  12.335  14.320   4.597  0.1474  0.0907  0.0632
    1DPPC   C1B 3489  12.033  13.751   5.250  0.0111  0.0714 -0.0322
    1DPPC   C2B 3490  12.259  13.919   4.902  0.2506  0.2524  0.0366
    1DPPC   C3B 3491  12.185  13.728   4.492 -0.1968 -0.0322 -0.0361
    1DPPC   C4B 3492  11.976  13.350   4.267 -0.2389  0.0386  0.1860
    1DPPC   NC3 3493  19.343  18.041   6.490  0.0436 -0.5730  0.1487
    1DPPC   PO4 3494  19.459  18.037   6.097 -0.0709  0.0326 -0.0660
    1DPPC   GL1 3495  19.524  18.030   5.692 -0.0666  0.2281  0.2958
    1DPPC   GL2 3496  19.504  17.677   5.584  0.1285  0.0076 -0.1049
    1DPPC   C1A 3497  19.520  17.968   5.219 -0.0497  0.0572 -0.2359
    1DPPC   C2A 3498  19.317  17.864   4.863  0.1760  0.0156 -0.0117
    1DPPC   C3A 3499  19.092  17.608   4.449 -0.2325 -0.1943 -0.0563
    1DPPC   C4A 3500  18.850  18.011   4.181  0.4892  0.2308 -0.0030
    1DPPC   C1B 3501  19.800  17.564   5.286 -0.1757  0.0731 -0.0458
    1DPPC   C2B 3502  20.206  17.509   5.083  0.2693 -0.0186  0.0594
    1DPPC   C3B 3503  20.358  17.778   4.833  0.0073 -0.4994 -0.3194
    1DPPC   C4B 3504  20.633  18.096   4.730  0.1772  0.3402 -0.1702
    1DPPC   NC3 3505   7.469   9.724   6.524  0.0435  0.0286  0.0832
    1DPPC   PO4 3506   7.925   9.879   6.586  0.1391  0.2628  0.0306
    1DPPC   GL1 3507   7.848   9.678   6.142  0.0521 -0.3948 -0.3667
    1DPPC   GL2 3508   8.088   9.477   6.095  0.0957  0.0884 -0.1272
    1DPPC   C1A 3509   7.677   9.809   5.767  0.1132  0.3354  0.1755
    1DPPC   C2A 3510   7.578   9.655   5.294  0.0528  0.0949 -0.2481
    1DPPC   C3A 3511   7.744   9.619   4.901  0.1251  0.0715  0.0854
    1DPPC   C4A 3512   8.195   9.711   4.796 -0.0394 -0.1254 -0.3205
    1DPPC   C1B 3513   8.132   9.680   5.727 -0.4535  0.0023  0.0163
    1DPPC   C2B 3514   8.040   9.838   5.421 -0.2188  0.0302 -0.2911
    1DPPC   C3B 3515   7.904  10.092   5.222 -0.1857 -0.0987  0.1471
    1DPPC   C4B 3516   7.849  10.161   4.852 -0.4177  0.2127 -0.0459
    1DPPC   NC3 3517  23.515   8.859   6.936 -0.2620 -0.1647 -0.0562
    1DPPC   PO4 3518  23.383   9.330   6.872  0.2938  0.2023  0.3806
    1DPPC   GL1 3519  23.269   9.355   6.416 -0.0827  0.0039 -0.0826
    1DPPC   GL2 3520  23.499   9.584   6.242 -0.3781  0.0091 -0.0676
    1DPPC   C1A 3521  23.047   9.247   6.011  0.0881  0.0376  0.0952
    1DPPC   C2A 3522  23.222   9.158   5.578  0.0488 -0.1133 -0.1810
    1DPPC   C3A 3523  23.323   9.193   5.164 -0.0527 -0.2523  0.1419
    1DPPC   C4A 3524  23.624   9.147   4.817 -0.0518 -0.0819 -0.1753
    1DPPC   C1B 3525  23.339   9.745   5.810  0.2579 -0.3163  0.1936
    1DPPC   C2B 3526  23.340   9.741   5.352 -0.0401  0.2738  0.0102
    1DPPC   C3B 3527  23.050  10.008   5.060  0.2193  0.4931  0.0655
    1DPPC   C4B 3528  23.116  10.063   4.646 -0.0317 -0.0194 -0.4270
    1DPPC   NC3 3529  10.214   1.998   6.789 -0.0628 -0.0118 -0.2569
    1DPPC   PO4 3530  10.018   2.326   6.662 -0.0465  0.1773 -0.1136
    1DPPC   GL1 3531   9.858   2.322   6.249  0.1285 -0.1635  0.0935
    1DPPC   GL2 3532   9.720   2.560   6.318 -0.1122  0.0775 -0.1732
    1DPPC   C1A 3533   9.630   2.417   5.852 -0.1954  0.2423  0.1854
    1DPPC   C2A 3534   9.351   2.284   5.575 -0.0532  0.1192  0.2020
    1DPPC   C3A 3535   9.179   1.945   5.298  0.6370 -0.3303  0.2879
    1DPPC   C4A 3536   8.784   1.722   5.137  0.1158 -0.0838 -0.0179
    1DPPC   C1B 3537   9.787   2.881   6.004 -0.1404  0.1777 -0.1185
    1DPPC   C2B 3538   9.852   2.999   5.560  0.0850 -0.1450 -0.1437
    1DPPC   C3B 3539   9.795   3.311   5.379 -0.2661  0.2330 -0.2356
    1DPPC   C4B 3540   9.626   3.417   5.081  0.3675  0.0478  0.0519
    1DPPC   NC3 3541  18.354  25.660   7.055 -0.4250 -0.0862  0.1852
    1DPPC   PO4 3542  17.910  25.591   6.980  0.1597  0.3074 -0.0532
    1DPPC   GL1 3543  17.865  25.477   6.593  0.2645  0.0864 -0.1932
    1DPPC   GL2 3544  17.564  25.552   6.557  0.1488  0.1017  0.0994
    1DPPC   C1A 3545  17.931  25.337   6.141  0.0045 -0.0230  0.1735
    1DPPC   C2A 3546  17.927  25.454   5.669 -0.2807  0.0288  0.2132
    1DPPC   C3A 3547  18.214  25.670   5.315 -0.0542 -0.1299  0.3580
    1DPPC   C4A 3548  18.450  25.809   4.894 -0.2617  0.0206  0.1729
    1DPPC   C1B 3549  17.437  25.294   6.231 -0.1871  0.2619  0.0489
    1DPPC   C2B 3550  17.484  25.317   5.831 -0.3896 -0.3239 -0.1996
    1DPPC   C3B 3551  17.464  25.429   5.350 -0.2642 -0.0396  0.1624
    1DPPC   C4B 3552  17.432  25.456   4.861 -0.0124 -0.0999 -0.1396
    1DPPC   NC3 3553  25.016   8.575   7.046  0.1054 -0.0545 -0.0542
    1DPPC   PO4 3554  25.465   8.436   7.044  0.2430 -0.3768  0.1539
    1DPPC   GL1 3555  25.527   8.247   6.636 -0.0755 -0.0651 -0.0637
    1DPPC   GL2 3556  25.418   7.853   6.608 -0.1186  0.0707 -0.0461
    1DPPC   C1A 3557  25.623   8.449   6.188 -0.2922 -0.2486  0.1775
    1DPPC   C2A 3558  25.641   8.491   5.769  0.0960 -0.3041  0.2584
    1DPPC   C3A 3559  25.960   8.820   5.654  0.4733  0.1702  0.0084
    1DPPC   C4A 3560  25.878   9.241   5.483  0.1514  0.0343  0.0606
    1DPPC   C1B 3561  25.686   7.865   6.226  0.3222 -0.1946 -0.0984
    1DPPC   C2B 3562  25.894   7.988   5.900  0.0575 -0.0144 -0.2744
    1DPPC   C3B 3563  25.880   7.988   5.524  0.1376  0.0530  0.2168
    1DPPC   C4B 3564  26.088   7.816   5.242  0.1126 -0.1730  0.2517
    1DPPC   NC3 3565  21.220   8.174   6.699 -0.0652 -0.1543 -0.1597
    1DPPC   PO4 3566  21.025   7.993   6.320  0.3120 -0.1601 -0.0131
    1DPPC   GL1 3567  21.065   7.756   5.860 -0.1821 -0.0262  0.3527
    1DPPC   GL2 3568  20.969   7.466   5.935 -0.0157 -0.3737  0.0593
    1DPPC   C1A 3569  20.968   7.821   5.414 -0.1270 -0.2385 -0.0049
    1DPPC   C2A 3570  20.999   7.879   5.052 -0.1043 -0.1265 -0.1264
    1DPPC   C3A 3571  21.032   7.896   4.537 -0.3200 -0.1127  0.0575
    1DPPC   C4A 3572  21.227   7.625   4.224 -0.2424  0.0547  0.1881
    1DPPC   C1B 3573  20.815   7.175   5.591 -0.1445 -0.0656  0.0025
    1DPPC   C2B 3574  20.746   7.403   5.239  0.0769 -0.1953  0.1060
    1DPPC   C3B 3575  20.611   7.534   4.871 -0.3787  0.4999  0.0670
    1DPPC   C4B 3576  20.481   7.452   4.524 -0.1090 -0.3770  0.4167
    1DPPC   NC3 3577  26.446  28.049   7.550 -0.0539 -0.1555  0.2324
    1DPPC   PO4 3578  26.374  28.534   7.737 -0.0883  0.1808 -0.1854
    1DPPC   GL1 3579  26.576  28.592   7.330 -0.3606  0.0297  0.1359
    1DPPC   GL2 3580  26.370  28.389   7.129 -0.1027  0.2400 -0.0914
    1DPPC   C1A 3581  26.746  28.746   7.135  0.0957  0.1560  0.0385
    1DPPC   C2A 3582  26.730  28.897   6.726 -0.1418 -0.0140  0.1411
    1DPPC   C3A 3583  26.628  29.139   6.418 -0.3453  0.0231 -0.0629
    1DPPC   C4A 3584  26.878  29.286   6.017 -0.2484  0.1209 -0.0547
    1DPPC   C1B 3585  26.489  28.491   6.726  0.5037 -0.2290  0.2679
    1DPPC   C2B 3586  26.459  28.438   6.287 -0.0323 -0.0198  0.2396
    1DPPC   C3B 3587  26.699  28.275   5.940  0.3668 -0.0189  0.0373
    1DPPC   C4B 3588  26.595  28.306   5.522  0.2728  0.1039 -0.0481
    1DPPC   NC3 3589  23.963  22.831   7.574  0.0676  0.0350 -0.0754
    1DPPC   PO4 3590  24.002  23.156   7.298 -0.1677 -0.0407 -0.0321
    1DPPC   GL1 3591  23.917  23.583   7.057  0.0397  0.0361 -0.1115
    1DPPC   GL2 3592  23.658  23.538   6.849  0.0406 -0.0522  0.0467
    1DPPC   C1A 3593  24.058  23.909   6.767 -0.1968 -0.1209  0.1267
    1DPPC   C2A 3594  24.247  24.054   6.413 -0.1700  0.2284  0.0516
    1DPPC   C3A 3595  24.556  24.050   6.080  0.0957  0.0086  0.1265
    1DPPC   C4A 3596  25.002  24.242   5.956 -0.0005  0.2239 -0.1730
    1DPPC   C1B 3597  23.815  23.560   6.539 -0.1086  0.1742  0.2358
    1DPPC   C2B 3598  24.237  23.582   6.262  0.0521 -0.1629 -0.3099
    1DPPC   C3B 3599  24.582  23.572   6.001  0.3319 -0.1190 -0.3700
    1DPPC   C4B 3600  24.892  23.372   6.159 -0.0009 -0.0281 -0.0298
    1DPPC   NC3 3601  17.490   7.137   5.744  0.0973  0.2201  0.3162
    1DPPC   PO4 3602  17.566   7.569   5.707 -0.0650  0.0164 -0.0971
    1DPPC   GL1 3603  17.585   7.410   5.295  0.2946  0.0848  0.0470
    1DPPC   GL2 3604  17.420   7.245   5.198  0.0944  0.0793 -0.0456
    1DPPC   C1A 3605  17.853   7.122   4.979 -0.2858  0.0734 -0.0104
    1DPPC   C2A 3606  18.225   7.105   4.663  0.0100 -0.1609  0.0504
    1DPPC   C3A 3607  18.360   7.026   4.255  0.2827  0.4176  0.0778
    1DPPC   C4A 3608  18.360   6.645   4.029 -0.1291 -0.0156  0.1022
    1DPPC   C1B 3609  17.451   7.312   4.711  0.0002 -0.1641  0.0120
    1DPPC   C2B 3610  17.676   7.388   4.332  0.3840 -0.0002 -0.2665
    1DPPC   C3B 3611  17.694   7.594   3.942  0.4217  0.2626 -0.1589
    1DPPC   C4B 3612  17.609   7.835   3.506 -0.0263  0.2167 -0.1363
    1DPPC   NC3 3613  10.857   2.645   6.913  0.2524 -0.0323 -0.2350
    1DPPC   PO4 3614  10.495   2.429   6.724  0.2345 -0.0670 -0.0680
    1DPPC   GL1 3615  10.429   2.375   6.373 -0.0353  0.1403  0.1341
    1DPPC   GL2 3616  10.305   2.591   6.212  0.1707  0.0795 -0.1366
    1DPPC   C1A 3617  10.259   2.112   5.979 -0.0076 -0.3468 -0.3576
    1DPPC   C2A 3618   9.869   2.074   5.623 -0.1687 -0.1491  0.2837
    1DPPC   C3A 3619   9.636   2.013   5.199  0.2779 -0.1585  0.0643
    1DPPC   C4A 3620   9.596   1.717   4.860 -0.2016 -0.0164 -0.0673
    1DPPC   C1B 3621  10.098   2.562   5.751  0.0383  0.2509 -0.1592
    1DPPC   C2B 3622   9.832   2.452   5.334  0.2742  0.1962  0.0883
    1DPPC   C3B 3623   9.840   2.466   4.949  0.0290  0.2456  0.0753
    1DPPC   C4B 3624   9.922   2.781   4.653 -0.0953 -0.1962 -0.0002
    1DPPC   NC3 3625  23.393   7.054   6.779  0.0569 -0.0705  0.1532
    1DPPC   PO4 3626  23.855   7.245   6.862  0.2702 -0.0730 -0.1558
    1DPPC   GL1 3627  23.841   6.847   6.660 -0.1951  0.1071  0.0307
    1DPPC   GL2 3628  23.998   6.736   6.717  0.1339 -0.0003  0.1091
    1DPPC   C1A 3629  23.881   6.773   6.167 -0.1614  0.0759 -0.1214
    1DPPC   C2A 3630  23.998   6.966   5.842 -0.2151  0.1154  0.0080
    1DPPC   C3A 3631  23.709   7.171   5.520  0.2692  0.0204 -0.0484
    1DPPC   C4A 3632  23.316   7.365   5.365  0.2345  0.0789 -0.2652
    1DPPC   C1B 3633  24.315   6.543   6.446 -0.0311 -0.1559  0.3354
    1DPPC   C2B 3634  24.696   6.553   6.354 -0.2331  0.2321  0.0986
    1DPPC   C3B 3635  25.070   6.635   6.129 -0.0991 -0.2934 -0.1282
    1DPPC   C4B 3636  25.301   6.284   5.924  0.0056 -0.0798 -0.0775
    1DPPC   NC3 3637  21.456   8.045   6.029 -0.0956 -0.3587 -0.1953
    1DPPC   PO4 3638  21.831   7.809   6.016 -0.1688 -0.2293 -0.1487
    1DPPC   GL1 3639  21.949   7.964   5.703 -0.1290 -0.2349  0.3080
    1DPPC   GL2 3640  22.253   8.108   5.745 -0.0476 -0.2438  0.1844
    1DPPC   C1A 3641  21.887   7.889   5.110  0.1138  0.0312 -0.1662
    1DPPC   C2A 3642  22.068   7.811   4.716  0.0612  0.0573  0.2201
    1DPPC   C3A 3643  22.094   7.806   4.279  0.0484 -0.1815 -0.0264
    1DPPC   C4A 3644  22.318   7.537   3.967  0.0996 -0.3279  0.0031
    1DPPC   C1B 3645  22.376   8.048   5.269  0.2456 -0.1755  0.1257
    1DPPC   C2B 3646  22.470   8.059   4.936  0.0242 -0.1755  0.3917
    1DPPC   C3B 3647  22.610   7.840   4.649  0.0670  0.1283 -0.0407
    1DPPC   C4B 3648  22.371   7.425   4.518  0.0425  0.0438  0.1140
    1DIPC   NC3 3649  12.988   0.009   6.764  0.0452  0.1644  0.0573
    1DIPC   PO4 3650  12.932   0.568   6.838  0.2763 -0.0955  0.2217
    1DIPC   GL1 3651  13.181   0.865   6.513 -0.2678 -0.1562 -0.2625
    1DIPC   GL2 3652  13.297   0.712   6.275  0.0961  0.4255  0.0022
    1DIPC   C1A 3653  13.233   1.179   6.290  0.0925 -0.0963 -0.1342
    1DIPC   D2A 3654  13.285   1.176   5.882 -0.0938 -0.0069  0.2234
    1DIPC   D3A 3655  13.426   1.546   5.719  0.2403  0.1796 -0.0874
    1DIPC   C4A 3656  13.358   1.607   5.271 -0.0841  0.1663  0.2150
    1DIPC   C1B 3657  13.343   0.353   6.129  0.0460  0.0774 -0.0481
    1DIPC   D2B 3658  13.251   0.121   5.796  0.1232  0.1889  0.1358
    1DIPC   D3B 3659  12.922   0.197   5.657  0.0130 -0.0415  0.4625
    1DIPC   C4B 3660  12.746   0.507   5.422  0.1030  0.1495  0.3916
    1DIPC   NC3 3661  18.260  22.092   6.055 -0.2283  0.1921  0.4273
    1DIPC   PO4 3662  18.523  22.293   6.431  0.1045 -0.2970 -0.2432
    1DIPC   GL1 3663  18.235  22.603   6.156 -0.2072 -0.0278  0.0097
    1DIPC   GL2 3664  18.016  22.602   6.330 -0.0436  0.3519  0.1380
    1DIPC   C1A 3665  18.324  22.762   5.747 -0.0060 -0.0734 -0.0837
    1DIPC   D2A 3666  18.305  22.893   5.278 -0.2580 -0.1463 -0.0313
    1DIPC   D3A 3667  18.523  23.009   4.898  0.1243 -0.3147  0.0995
    1DIPC   C4A 3668  18.326  23.390   4.719  0.1072  0.2415 -0.2523
    1DIPC   C1B 3669  17.826  22.732   5.931  0.0129 -0.2598 -0.1347
    1DIPC   D2B 3670  17.962  23.053   5.645  0.0234 -0.1385  0.0729
    1DIPC   D3B 3671  17.735  22.710   5.293 -0.1161 -0.0727  0.0666
    1DIPC   C4B 3672  18.119  22.570   4.904  0.0806 -0.1071 -0.2074
    1DIPC   NC3 3673   0.530  11.647   6.970  0.1616 -0.2839 -0.1682
    1DIPC   PO4 3674   0.845  11.779   6.838  0.1000  0.1060 -0.1631
    1DIPC   GL1 3675   0.909  11.970   6.534 -0.1269  0.2263  0.2156
    1DIPC   GL2 3676   0.975  11.687   6.344  0.1345  0.0766  0.0077
    1DIPC   C1A 3677   1.013  12.104   6.036  0.0131  0.1902 -0.1579
    1DIPC   D2A 3678   0.987  11.915   5.592  0.1615 -0.0910 -0.1983
    1DIPC   D3A 3679   1.418  11.959   5.556  0.0797 -0.2575  0.3511
    1DIPC   C4A 3680   1.431  11.680   5.342 -0.2061 -0.0037 -0.0969
    1DIPC   C1B 3681   1.010  11.191   6.170  0.0312  0.0313  0.1938
    1DIPC   D2B 3682   0.791  10.827   6.052  0.2959  0.1942  0.0099
    1DIPC   D3B 3683   0.445  10.884   5.687 -0.2343  0.1533  0.0157
    1DIPC   C4B 3684   0.375  11.176   5.485  0.0902  0.1575  0.1648
    1DIPC   NC3 3685  12.724  21.872   7.274  0.0639 -0.2373  0.0951
    1DIPC   PO4 3686  12.946  21.720   6.819  0.0671 -0.0349  0.4537
    1DIPC   GL1 3687  12.830  21.923   6.467 -0.0792 -0.0043 -0.4907
    1DIPC   GL2 3688  12.560  22.192   6.526  0.4889 -0.1076  0.0966
    1DIPC   C1A 3689  12.612  21.921   6.144  0.1366 -0.1876  0.0496
    1DIPC   D2A 3690  12.351  22.003   5.738 -0.0859 -0.3911 -0.0583
    1DIPC   D3A 3691  12.504  22.071   5.436  0.1139  0.1711  0.3669
    1DIPC   C4A 3692  12.418  22.291   5.152 -0.0269 -0.2094 -0.2011
    1DIPC   C1B 3693  12.128  22.052   6.334  0.3965 -0.0110  0.1666
    1DIPC   D2B 3694  11.931  22.067   5.963  0.0576  0.1239 -0.0429
    1DIPC   D3B 3695  11.542  21.979   5.854  0.0887  0.0286  0.0770
    1DIPC   C4B 3696  11.248  21.715   6.077  0.3986  0.0511 -0.2315
    1DIPC   NC3 3697   1.925  20.563   7.427 -0.0869 -0.0261 -0.0123
    1DIPC   PO4 3698   1.732  20.968   7.359 -0.1204 -0.1669  0.3056
    1DIPC   GL1 3699   1.688  20.858   6.893 -0.0217  0.3182  0.0798
    1DIPC   GL2 3700   1.812  21.160   6.626 -0.3468 -0.0389 -0.0090
    1DIPC   C1A 3701   1.350  20.735   6.537  0.0544 -0.1797  0.0553
    1DIPC   D2A 3702   1.281  20.841   6.089  0.1682  0.1135  0.3620
    1DIPC   D3A 3703   1.166  21.228   5.882  0.2428 -0.0752 -0.2870
    1DIPC   C4A 3704   0.809  21.350   5.757  0.0180 -0.0522 -0.0276
    1DIPC   C1B 3705   1.957  21.375   6.309 -0.1948  0.1449 -0.0575
    1DIPC   D2B 3706   1.820  21.755   6.084 -0.3730 -0.0839  0.0063
    1DIPC   D3B 3707   1.939  21.515   5.772 -0.1196  0.2892  0.0275
    1DIPC   C4B 3708   2.070  21.655   5.445 -0.1109 -0.0089 -0.1321
    1DIPC   NC3 3709   2.890  13.080   7.272  0.1233  0.4654 -0.0326
    1DIPC   PO4 3710   3.420  13.144   7.181 -0.0189 -0.0367 -0.1965
    1DIPC   GL1 3711   3.215  12.937   6.772 -0.0211 -0.1727  0.4050
    1DIPC   GL2 3712   3.519  13.035   6.648  0.0997  0.1906  0.2222
    1DIPC   C1A 3713   3.070  12.604   6.542  0.4481 -0.2242 -0.2581
    1DIPC   D2A 3714   2.734  12.439   6.274  0.3697  0.1374  0.2931
    1DIPC   D3A 3715   2.448  12.679   5.887 -0.2830  0.2064  0.1202
    1DIPC   C4A 3716   2.494  12.493   5.532  0.1086  0.1662  0.3062
    1DIPC   C1B 3717   3.422  12.876   6.296  0.3370  0.2972 -0.2440
    1DIPC   D2B 3718   3.504  12.762   5.845  0.0017  0.0004 -0.3010
    1DIPC   D3B 3719   3.912  12.709   5.711  0.2416  0.3748 -0.0112
    1DIPC   C4B 3720   3.967  12.389   5.387 -0.0901  0.1538  0.1091
    1DIPC   NC3 3721   8.292   7.452   6.886  0.0153  0.0176 -0.0419
    1DIPC   PO4 3722   8.027   7.378   6.561 -0.1983  0.0293  0.0080
    1DIPC   GL1 3723   7.850   7.387   6.148  0.0242 -0.1617  0.0787
    1DIPC   GL2 3724   7.551   7.397   6.147  0.1213 -0.2607  0.1274
    1DIPC   C1A 3725   8.060   7.405   5.706  0.2075 -0.2994  0.1402
    1DIPC   D2A 3726   8.297   7.417   5.319 -0.0845 -0.0486  0.0788
    1DIPC   D3A 3727   8.710   7.697   5.230  0.0587  0.2211 -0.1202
    1DIPC   C4A 3728   8.908   7.934   4.915  0.0953 -0.2786  0.1456
    1DIPC   C1B 3729   7.606   7.518   5.637  0.0310  0.1608  0.0327
    1DIPC   D2B 3730   7.282   7.459   5.329 -0.0137  0.0795  0.5049
    1DIPC   D3B 3731   7.549   7.729   5.071  0.1311 -0.1498 -0.3257
    1DIPC   C4B 3732   7.936   7.410   4.938 -0.0241 -0.1332 -0.3749
    1DIPC   NC3 3733  27.536  22.614   7.546 -0.0782  0.3871  0.1482
    1DIPC   PO4 3734  27.812  22.473   7.340  0.0127  0.1208 -0.0702
    1DIPC   GL1 3735  28.099  22.593   6.964  0.0212 -0.1435  0.2591
    1DIPC   GL2 3736  28.445  22.822   7.021  0.3625  0.0505  0.1084
    1DIPC   C1A 3737  27.882  22.511   6.613 -0.0857  0.1082 -0.0443
    1DIPC   D2A 3738  27.727  22.482   6.178  0.6220 -0.0243  0.0898
    1DIPC   D3A 3739  27.374  22.626   6.199 -0.1502 -0.1297 -0.1835
    1DIPC   C4A 3740  26.997  22.445   6.207 -0.1931  0.1331  0.0226
    1DIPC   C1B 3741  28.336  23.132   6.732 -0.0785 -0.1864  0.2071
    1DIPC   D2B 3742  28.532  23.573   6.509  0.3228 -0.0656  0.2950
    1DIPC   D3B 3743  28.182  23.783   6.271  0.1238 -0.2362  0.2331
    1DIPC   C4B 3744  28.020  23.623   5.874  0.0513 -0.1104  0.2108
    1DIPC   NC3 3745  14.362  11.827   6.113  0.0641  0.0193  0.0609
    1DIPC   PO4 3746  14.136  11.424   6.064 -0.0840 -0.1128  0.1538
    1DIPC   GL1 3747  14.144  11.589   5.652 -0.1643 -0.1758 -0.4951
    1DIPC   GL2 3748  14.113  11.229   5.559  0.0143 -0.2471 -0.1524
    1DIPC   C1A 3749  14.134  11.805   5.272  0.1851 -0.1474  0.3212
    1DIPC   D2A 3750  14.419  12.218   5.020 -0.2710  0.2615  0.0066
    1DIPC   D3A 3751  14.469  12.375   4.639 -0.0148  0.0443  0.1708
    1DIPC   C4A 3752  14.321  12.121   4.241 -0.1642 -0.0875  0.5034
    1DIPC   C1B 3753  13.908  11.178   5.178 -0.0941 -0.2463 -0.2089
    1DIPC   D2B 3754  13.924  11.330   4.670 -0.2690 -0.4080 -0.1659
    1DIPC   D3B 3755  13.885  10.912   4.462 -0.2464  0.0085  0.0226
    1DIPC   C4B 3756  13.566  10.786   4.127  0.0739 -0.1487  0.2403
    1DIPC   NC3 3757  21.188  17.985   6.235  0.4161 -0.3828 -0.0269
    1DIPC   PO4 3758  20.782  17.766   6.183 -0.2012  0.2033  0.1129
    1DIPC   GL1 3759  20.485  17.868   5.798 -0.1980 -0.0611  0.1588
    1DIPC   GL2 3760  20.369  17.638   5.592  0.0612 -0.1047  0.2476
    1DIPC   C1A 3761  20.573  18.239   5.578 -0.0952 -0.0305 -0.0709
    1DIPC   D2A 3762  20.854  18.505   5.315  0.1885  0.2970 -0.1052
    1DIPC   D3A 3763  21.228  18.346   5.333 -0.1967 -0.0993  0.1317
    1DIPC   C4A 3764  21.648  18.361   5.353  0.0116  0.1248  0.0926
    1DIPC   C1B 3765  20.727  17.831   5.300 -0.0234 -0.0048  0.1822
    1DIPC   D2B 3766  21.213  17.847   5.290 -0.1511 -0.0415  0.3167
    1DIPC   D3B 3767  21.697  17.753   5.359  0.3014 -0.3933  0.1716
    1DIPC   C4B 3768  22.014  18.122   5.451  0.2145  0.0716  0.1219
    1DIPC   NC3 3769   4.085   3.018   7.410  0.2281  0.1669  0.1018
    1DIPC   PO4 3770   3.645   2.899   7.482  0.0302 -0.0111  0.1155
    1DIPC   GL1 3771   3.502   2.881   7.133 -0.1290 -0.3653  0.0190
    1DIPC   GL2 3772   3.852   2.792   6.984 -0.0479 -0.2032  0.3031
    1DIPC   C1A 3773   3.320   2.988   6.721 -0.3728 -0.4116  0.1013
    1DIPC   D2A 3774   3.305   3.152   6.304 -0.0170 -0.0718 -0.2444
    1DIPC   D3A 3775   3.544   3.517   6.221 -0.0934 -0.3691 -0.2878
    1DIPC   C4A 3776   3.681   3.748   5.791  0.4547  0.2365 -0.1323
    1DIPC   C1B 3777   3.519   2.470   6.783  0.1631 -0.0302  0.0987
    1DIPC   D2B 3778   3.392   2.242   6.446 -0.0526 -0.0825  0.3401
    1DIPC   D3B 3779   3.420   1.745   6.337 -0.1207 -0.0396  0.0409
    1DIPC   C4B 3780   3.489   1.573   5.945 -0.2531 -0.4470  0.3466
    1DIPC   NC3 3781   3.269  15.495   7.086  0.2911  0.1889 -0.0599
    1DIPC   PO4 3782   2.981  15.284   6.926 -0.1369 -0.0538  0.0142
    1DIPC   GL1 3783   2.872  15.320   6.500  0.0018  0.1035 -0.2645
    1DIPC   GL2 3784   2.473  15.411   6.449 -0.1726  0.1557 -0.0288
    1DIPC   C1A 3785   2.945  15.253   5.996 -0.0649  0.2076 -0.1288
    1DIPC   D2A 3786   3.104  15.472   5.659 -0.0244 -0.1024  0.1207
    1DIPC   D3A 3787   3.511  15.454   5.477  0.1061  0.1402 -0.2253
    1DIPC   C4A 3788   3.685  15.909   5.397 -0.0018  0.0478 -0.0920
    1DIPC   C1B 3789   2.398  15.423   6.099 -0.0739 -0.0027 -0.1809
    1DIPC   D2B 3790   2.515  15.271   5.738  0.3045  0.1169 -0.1317
    1DIPC   D3B 3791   2.640  15.554   5.463  0.1150 -0.3406  0.1206
    1DIPC   C4B 3792   2.282  15.795   5.522  0.2003 -0.0764  0.1300
    1DIPC   NC3 3793   0.365  14.260   7.556  0.1713 -0.0128  0.1186
    1DIPC   PO4 3794   0.678  14.537   7.401 -0.5454 -0.0065 -0.1491
    1DIPC   GL1 3795   0.729  14.517   6.926 -0.0799  0.0069 -0.4631
    1DIPC   GL2 3796   0.816  14.275   6.782 -0.2840 -0.0166  0.0777
    1DIPC   C1A 3797   0.406  14.383   6.604  0.0820 -0.2983 -0.0275
    1DIPC   D2A 3798   0.269  14.130   6.373  0.1678 -0.0333 -0.0905
    1DIPC   D3A 3799   0.159  13.701   6.302  0.1703 -0.1267  0.1355
    1DIPC   C4A 3800   0.261  13.394   5.867 -0.0120  0.1002  0.1255
    1DIPC   C1B 3801   0.775  14.218   6.336  0.1268  0.4033  0.1053
    1DIPC   D2B 3802   1.006  13.982   5.989 -0.2073 -0.0551 -0.2060
    1DIPC   D3B 3803   1.233  14.188   5.681  0.0424  0.2504  0.1021
    1DIPC   C4B 3804   1.496  13.898   5.373  0.2834 -0.0498 -0.0457
    1DIPC   NC3 3805  16.678  23.306   6.551 -0.1094 -0.1367  0.1170
    1DIPC   PO4 3806  16.535  23.742   6.504  0.0165 -0.0817  0.3175
    1DIPC   GL1 3807  16.570  23.572   6.132  0.1649 -0.0014 -0.0083
    1DIPC   GL2 3808  16.759  23.339   6.080  0.3094  0.0079 -0.0381
    1DIPC   C1A 3809  16.510  23.490   5.666  0.2762 -0.0055 -0.1197
    1DIPC   D2A 3810  16.623  23.436   5.209  0.0760 -0.0261 -0.0774
    1DIPC   D3A 3811  16.763  23.156   4.855 -0.0222  0.1989 -0.1027
    1DIPC   C4A 3812  16.520  22.845   4.879  0.0876  0.1163  0.3526
    1DIPC   C1B 3813  17.067  22.970   5.812  0.0892 -0.1499  0.0138
    1DIPC   D2B 3814  17.425  22.985   5.618  0.1245 -0.0488 -0.2153
    1DIPC   D3B 3815  17.222  23.176   5.287 -0.3519  0.0111 -0.2991
    1DIPC   C4B 3816  17.315  23.115   4.870  0.0625 -0.0889  0.0989
    1DIPC   NC3 3817   9.151  19.906   6.992 -0.0456  0.0552  0.2997
    1DIPC   PO4 3818   9.204  19.568   6.807  0.2018 -0.1201  0.2303
    1DIPC   GL1 3819   9.190  19.534   6.402  0.3910  0.1807  0.1489
    1DIPC   GL2 3820   9.096  19.345   6.112  0.0140 -0.0587 -0.0275
    1DIPC   C1A 3821   9.500  19.523   5.995 -0.0065  0.1088 -0.0251
    1DIPC   D2A 3822   9.702  19.580   5.618  0.0338  0.1477  0.0726
    1DIPC   D3A 3823   9.846  19.736   5.186  0.3437  0.1395  0.2080
    1DIPC   C4A 3824   9.951  20.092   4.969  0.1915 -0.2598  0.0625
    1DIPC   C1B 3825   9.072  19.477   5.735  0.4185  0.0646 -0.1783
    1DIPC   D2B 3826   9.341  19.639   5.337  0.0211 -0.1884  0.0828
    1DIPC   D3B 3827   9.411  20.106   5.381 -0.3106 -0.1665  0.0942
    1DIPC   C4B 3828   9.767  20.516   5.362  0.3668 -0.3947 -0.0172
    1DIPC   NC3 3829   9.783  14.926   5.932 -0.1610  0.3929 -0.1711
    1DIPC   PO4 3830  10.082  15.096   5.773  0.0704  0.2406  0.2414
    1DIPC   GL1 3831  10.196  15.211   5.388 -0.1139 -0.0984 -0.0490
    1DIPC   GL2 3832  10.506  15.198   5.423  0.2865  0.1615  0.0753
    1DIPC   C1A 3833  10.189  15.171   4.970 -0.2180 -0.1578 -0.2240
    1DIPC   D2A 3834  10.169  15.523   4.669 -0.0833  0.3378 -0.0853
    1DIPC   D3A 3835   9.699  15.753   4.727 -0.1757  0.2219 -0.1060
    1DIPC   C4A 3836   9.362  15.575   4.752 -0.2187 -0.3526 -0.2427
    1DIPC   C1B 3837  10.471  15.640   5.217 -0.0705  0.1976 -0.1135
    1DIPC   D2B 3838  10.615  15.765   4.777 -0.1390 -0.1523  0.0270
    1DIPC   D3B 3839  10.462  16.202   4.559 -0.1149  0.1401  0.2642
    1DIPC   C4B 3840  10.399  16.240   4.070 -0.0485  0.0437 -0.4176
    1DIPC   NC3 3841   8.343  20.825   6.526  0.0897  0.0865 -0.0894
    1DIPC   PO4 3842   7.901  21.107   6.619 -0.1048  0.2225 -0.0870
    1DIPC   GL1 3843   7.967  21.028   6.223  0.2600  0.0488  0.1516
    1DIPC   GL2 3844   8.205  20.960   6.062  0.0845 -0.0537  0.3691
    1DIPC   C1A 3845   7.759  21.005   5.890  0.1804  0.1492 -0.0776
    1DIPC   D2A 3846   7.632  21.177   5.558  0.2933 -0.0945 -0.0091
    1DIPC   D3A 3847   7.406  21.417   5.637 -0.4143 -0.0902 -0.0107
    1DIPC   C4A 3848   7.622  21.767   5.582  0.1196  0.0101  0.1443
    1DIPC   C1B 3849   8.187  21.297   5.826 -0.0154  0.2290 -0.0888
    1DIPC   D2B 3850   8.049  21.597   5.611  0.1838 -0.2907 -0.3158
    1DIPC   D3B 3851   7.994  21.743   5.111 -0.1837 -0.1793 -0.2695
    1DIPC   C4B 3852   8.237  21.448   4.729  0.2126  0.1203 -0.0037
    1DIPC   NC3 3853   5.434  27.198   8.059 -0.2438 -0.1908 -0.0607
    1DIPC   PO4 3854   5.251  27.527   8.046 -0.0660 -0.0646  0.0052
    1DIPC   GL1 3855   5.237  27.687   7.635 -0.0374 -0.0897  0.1348
    1DIPC   GL2 3856   4.874  27.669   7.616 -0.0196  0.1372 -0.2493
    1DIPC   C1A 3857   5.375  27.685   7.181 -0.0452 -0.0032  0.1955
    1DIPC   D2A 3858   5.240  27.979   6.919  0.1051 -0.0331 -0.0752
    1DIPC   D3A 3859   5.295  27.921   6.523  0.2002  0.2891 -0.2614
    1DIPC   C4A 3860   5.047  28.161   6.308 -0.1090 -0.0701  0.0730
    1DIPC   C1B 3861   4.972  27.994   7.302  0.2398 -0.0789  0.2291
    1DIPC   D2B 3862   4.974  28.330   7.092 -0.3441  0.0970  0.1463
    1DIPC   D3B 3863   5.115  28.659   7.247 -0.0196 -0.0458  0.1786
    1DIPC   C4B 3864   5.242  28.875   6.986 -0.0920  0.0323  0.0371
    1DIPC   NC3 3865   2.632  23.445   7.557  0.2309  0.0439 -0.2216
    1DIPC   PO4 3866   2.529  23.868   7.703 -0.1253 -0.0697 -0.1398
    1DIPC   GL1 3867   2.787  23.912   7.230 -0.1832 -0.2998  0.2155
    1DIPC   GL2 3868   2.744  23.617   7.116 -0.3345  0.2208  0.0192
    1DIPC   C1A 3869   2.655  24.083   6.866 -0.2330 -0.2670 -0.1225
    1DIPC   D2A 3870   2.468  24.124   6.488 -0.1530 -0.1624 -0.1947
    1DIPC   D3A 3871   2.562  23.972   6.104 -0.0072 -0.2029 -0.0629
    1DIPC   C4A 3872   2.196  23.877   5.927  0.0111 -0.2330 -0.2525
    1DIPC   C1B 3873   2.617  23.584   6.705  0.3228 -0.0844 -0.0636
    1DIPC   D2B 3874   2.440  23.333   6.506 -0.2036  0.1519  0.0384
    1DIPC   D3B 3875   2.599  23.180   6.202  0.2352 -0.0903  0.1826
    1DIPC   C4B 3876   2.971  23.048   6.004  0.2010 -0.1376 -0.0183
    1DIPC   NC3 3877  27.467  16.815   7.827 -0.0864 -0.1195 -0.2942
    1DIPC   PO4 3878  27.173  16.882   7.556  0.0016 -0.3921 -0.0151
    1DIPC   GL1 3879  27.279  16.885   7.188 -0.0356  0.1884 -0.1527
    1DIPC   GL2 3880  27.128  17.004   6.906 -0.3452  0.2752  0.0809
    1DIPC   C1A 3881  27.597  16.737   6.803 -0.0904  0.1676  0.1949
    1DIPC   D2A 3882  27.965  16.662   6.519 -0.0342  0.0965  0.0042
    1DIPC   D3A 3883  28.067  16.436   6.102  0.2150  0.1445  0.0761
    1DIPC   C4A 3884  28.389  16.164   5.882 -0.1273  0.2974  0.2013
    1DIPC   C1B 3885  27.193  17.275   6.639  0.0319  0.0065 -0.1378
    1DIPC   D2B 3886  27.365  17.415   6.271  0.0903  0.0972  0.2053
    1DIPC   D3B 3887  27.226  17.240   5.900  0.1397 -0.0963 -0.1156
    1DIPC   C4B 3888  27.143  17.187   5.480 -0.2674  0.0082  0.0669
    1DIPC   NC3 3889  12.419  24.901   7.412  0.0415  0.0245 -0.2144
    1DIPC   PO4 3890  12.514  24.477   7.289 -0.0055  0.1153  0.1323
    1DIPC   GL1 3891  12.526  24.257   6.871 -0.1033  0.1858  0.0663
    1DIPC   GL2 3892  12.237  24.182   6.854 -0.1046  0.0709  0.0955
    1DIPC   C1A 3893  12.624  24.401   6.481 -0.0231  0.1869  0.0859
    1DIPC   D2A 3894  12.649  24.504   6.094 -0.2150 -0.2017 -0.0943
    1DIPC   D3A 3895  13.164  24.750   5.890  0.0070  0.1861  0.1549
    1DIPC   C4A 3896  13.413  24.717   5.441 -0.0105  0.1321 -0.0444
    1DIPC   C1B 3897  12.105  23.762   6.802  0.1388  0.0862  0.0627
    1DIPC   D2B 3898  11.908  23.481   6.527 -0.3416 -0.0555 -0.0082
    1DIPC   D3B 3899  11.855  23.452   6.041 -0.0257  0.0845 -0.0804
    1DIPC   C4B 3900  11.611  23.126   5.782 -0.1693  0.0372  0.0376
    1DIPC   NC3 3901  16.176  19.658   7.000  0.1095  0.1491  0.1634
    1DIPC   PO4 3902  15.980  19.577   6.567  0.2918 -0.1573 -0.1334
    1DIPC   GL1 3903  16.229  19.360   6.265  0.1478  0.0442 -0.0910
    1DIPC   GL2 3904  16.185  19.132   5.940 -0.2059  0.0636  0.0345
    1DIPC   C1A 3905  16.286  19.572   5.862 -0.0642  0.0826 -0.0575
    1DIPC   D2A 3906  16.257  20.020   5.804 -0.1099 -0.4471 -0.0445
    1DIPC   D3A 3907  16.568  20.245   5.671 -0.2838 -0.0480 -0.0358
    1DIPC   C4A 3908  16.549  20.495   5.344 -0.1355 -0.2233  0.0221
    1DIPC   C1B 3909  16.524  18.879   5.718 -0.1546  0.0951 -0.4914
    1DIPC   D2B 3910  16.867  19.016   5.449  0.1867  0.0171 -0.1681
    1DIPC   D3B 3911  17.155  19.074   5.091 -0.0908  0.2055  0.0818
    1DIPC   C4B 3912  17.122  19.231   4.701  0.1565 -0.1097  0.0266
    1DIPC   NC3 3913  25.764   8.527   7.510  0.5334 -0.1968  0.3592
    1DIPC   PO4 3914  26.242   8.572   7.407 -0.2778 -0.2091  0.1768
    1DIPC   GL1 3915  26.428   8.643   7.017  0.0130 -0.1918  0.2575
    1DIPC   GL2 3916  26.344   8.339   6.880 -0.1964  0.0576  0.2718
    1DIPC   C1A 3917  26.641   8.854   6.761  0.0254  0.2179 -0.0535
    1DIPC   D2A 3918  26.646   9.257   6.488  0.0749  0.0181  0.1928
    1DIPC   D3A 3919  26.861   9.141   6.096 -0.1297  0.1119 -0.2556
    1DIPC   C4A 3920  26.767   9.162   5.589 -0.2380  0.0314 -0.1320
    1DIPC   C1B 3921  26.473   8.006   6.745 -0.1881 -0.1843 -0.2493
    1DIPC   D2B 3922  26.150   7.886   6.459  0.0823 -0.1602  0.0270
    1DIPC   D3B 3923  26.361   8.244   6.333 -0.0634 -0.3006 -0.0281
    1DIPC   C4B 3924  25.996   8.444   6.514  0.2106 -0.0166  0.1893
    1DIPC   NC3 3925   3.714  10.788   6.936 -0.1704 -0.2817  0.0818
    1DIPC   PO4 3926   3.403  11.043   7.256  0.0248 -0.0513 -0.1351
    1DIPC   GL1 3927   3.147  11.255   6.915  0.1645 -0.1593  0.2639
    1DIPC   GL2 3928   2.953  11.504   7.057 -0.0151 -0.1737  0.1221
    1DIPC   C1A 3929   3.101  11.252   6.392 -0.1244 -0.0572 -0.0662
    1DIPC   D2A 3930   2.895  11.153   5.908  0.0950  0.1800 -0.0233
    1DIPC   D3A 3931   3.378  11.159   5.745 -0.0785  0.2801  0.0831
    1DIPC   C4A 3932   3.382  11.403   5.398  0.1356 -0.0110  0.1762
    1DIPC   C1B 3933   2.846  11.765   6.612 -0.0938  0.1368  0.0642
    1DIPC   D2B 3934   2.929  12.018   6.286  0.0665  0.0425 -0.1480
    1DIPC   D3B 3935   2.776  11.684   6.069 -0.0625 -0.1949 -0.1006
    1DIPC   C4B 3936   2.300  11.684   6.079 -0.0074 -0.0292  0.0099
    1DIPC   NC3 3937  18.820   1.630   6.709 -0.2446  0.2050  0.0996
    1DIPC   PO4 3938  19.198   1.320   6.838  0.1212  0.0493  0.1160
    1DIPC   GL1 3939  18.819   1.147   6.544 -0.1725 -0.2724  0.0575
    1DIPC   GL2 3940  18.516   1.195   6.326 -0.0493 -0.2654  0.1541
    1DIPC   C1A 3941  18.810   0.801   6.202  0.0895 -0.2115 -0.2945
    1DIPC   D2A 3942  18.591   0.685   5.919  0.2303 -0.1626 -0.3192
    1DIPC   D3A 3943  18.289   0.654   5.543  0.2725 -0.0472 -0.0083
    1DIPC   C4A 3944  18.495   0.651   5.076 -0.0302  0.0699 -0.0364
    1DIPC   C1B 3945  18.384   1.119   5.934  0.2370  0.3489  0.1347
    1DIPC   D2B 3946  18.442   1.100   5.552 -0.2260 -0.1699 -0.0497
    1DIPC   D3B 3947  18.290   1.180   5.141  0.0747 -0.2046 -0.4449
    1DIPC   C4B 3948  18.123   1.127   4.793 -0.0572 -0.2371 -0.0602
    1DIPC   NC3 3949  19.897  27.314   7.188 -0.0420 -0.2144  0.0555
    1DIPC   PO4 3950  19.785  26.908   7.005 -0.0771 -0.0498  0.0346
    1DIPC   GL1 3951  20.143  26.751   6.780  0.0842  0.2595 -0.1480
    1DIPC   GL2 3952  20.116  26.468   6.509  0.0406  0.0951  0.3159
    1DIPC   C1A 3953  20.640  26.676   6.699 -0.0045  0.3078  0.2888
    1DIPC   D2A 3954  21.070  26.373   6.605 -0.2178 -0.1916 -0.2584
    1DIPC   D3A 3955  21.237  26.609   6.204  0.0174 -0.0254 -0.2146
    1DIPC   C4A 3956  21.179  27.008   5.964  0.1942  0.4808  0.1881
    1DIPC   C1B 3957  20.297  26.708   6.198 -0.1613  0.0450  0.0762
    1DIPC   D2B 3958  20.102  27.113   5.977 -0.0637  0.3038 -0.0397
    1DIPC   D3B 3959  20.539  27.069   5.789  0.3040  0.0334 -0.0279
    1DIPC   C4B 3960  20.596  27.171   5.381  0.2162  0.0421  0.0462
    1DIPC   NC3 3961   5.233  26.313   8.239  0.2625  0.0248  0.1990
    1DIPC   PO4 3962   5.403  26.709   8.163  0.0627  0.2350 -0.4918
    1DIPC   GL1 3963   5.446  26.928   7.680  0.0193 -0.1031 -0.0573
    1DIPC   GL2 3964   5.134  27.215   7.617  0.4037 -0.2366 -0.1708
    1DIPC   C1A 3965   5.524  27.130   7.222 -0.1290  0.3811 -0.1401
    1DIPC   D2A 3966   5.424  27.337   6.824  0.1287 -0.1180  0.2715
    1DIPC   D3A 3967   5.706  27.529   6.386  0.2230  0.2154 -0.0301
    1DIPC   C4A 3968   5.758  27.393   5.892  0.2719 -0.2002  0.1631
    1DIPC   C1B 3969   5.095  27.248   7.214 -0.0561  0.1432  0.0695
    1DIPC   D2B 3970   5.114  26.946   6.810  0.0065 -0.1190 -0.1434
    1DIPC   D3B 3971   4.716  26.618   6.702 -0.3143 -0.0923  0.0065
    1DIPC   C4B 3972   4.563  26.576   6.188 -0.0654  0.2962  0.0342
    1DIPC   NC3 3973   8.772  28.824   7.266 -0.3383 -0.1117  0.0468
    1DIPC   PO4 3974   9.085  29.214   7.378 -0.1985  0.0646 -0.0373
    1DIPC   GL1 3975   9.297  28.965   7.007 -0.5519  0.4244  0.1861
    1DIPC   GL2 3976   9.049  28.709   6.788 -0.0432  0.2690 -0.2379
    1DIPC   C1A 3977   9.485  28.877   6.592 -0.3112 -0.0215  0.3082
    1DIPC   D2A 3978   9.460  28.712   6.200 -0.1667  0.1872 -0.4026
    1DIPC   D3A 3979   9.356  28.592   5.844 -0.0389 -0.1116  0.0823
    1DIPC   C4A 3980   9.374  28.210   5.626 -0.1782  0.0839 -0.0753
    1DIPC   C1B 3981   8.734  28.474   6.543 -0.1738  0.1302  0.0521
    1DIPC   D2B 3982   8.636  28.305   6.190 -0.0338 -0.2229  0.0622
    1DIPC   D3B 3983   8.849  28.433   5.912 -0.2476  0.2511 -0.0637
    1DIPC   C4B 3984   8.795  28.346   5.528  0.4885  0.1012 -0.3373
    1DIPC   NC3 3985  27.288   7.483   8.246  0.1828  0.1518 -0.1953
    1DIPC   PO4 3986  27.716   7.622   7.999  0.1453  0.3339 -0.1612
    1DIPC   GL1 3987  27.946   7.468   7.611 -0.3094  0.1463 -0.0894
    1DIPC   GL2 3988  27.829   7.161   7.574  0.0645 -0.2516 -0.0377
    1DIPC   C1A 3989  28.140   7.535   7.248 -0.4125  0.0008 -0.3889
    1DIPC   D2A 3990  28.404   7.308   6.985 -0.0766 -0.0841  0.2319
    1DIPC   D3A 3991  28.449   7.684   6.835 -0.0313 -0.3001  0.0533
    1DIPC   C4A 3992  28.403   8.013   7.078 -0.1657 -0.0942  0.1371
    1DIPC   C1B 3993  28.024   6.947   7.227  0.1389 -0.0214  0.0631
    1DIPC   D2B 3994  28.061   6.528   6.941 -0.0314 -0.0880 -0.0191
    1DIPC   D3B 3995  27.959   6.119   6.744  0.0716  0.1075  0.3990
    1DIPC   C4B 3996  27.578   5.825   6.654 -0.1900  0.2977 -0.2502
    1DIPC   NC3 3997  26.626  15.134   7.560  0.0152  0.2448  0.0743
    1DIPC   PO4 3998  27.055  15.021   7.438 -0.1931 -0.2179  0.0976
    1DIPC   GL1 3999  27.226  15.125   7.015  0.0507 -0.0343  0.2346
    1DIPC   GL2 4000  27.282  15.413   7.044  0.1627  0.3374 -0.2195
    1DIPC   C1A 4001  27.230  14.908   6.603  0.0012  0.3288  0.0508
    1DIPC   D2A 4002  27.310  15.038   6.115 -0.0390  0.0560  0.0604
    1DIPC   D3A 4003  26.983  14.709   6.179  0.1404  0.3468 -0.2038
    1DIPC   C4A 4004  26.778  14.564   6.544 -0.0972 -0.0408 -0.1844
    1DIPC   C1B 4005  27.078  15.486   6.619  0.0921 -0.0308 -0.0054
    1DIPC   D2B 4006  27.260  15.541   6.196 -0.0462  0.3480  0.0265
    1DIPC   D3B 4007  27.678  15.324   6.358  0.2964  0.0146 -0.3595
    1DIPC   C4B 4008  27.924  15.644   6.478  0.2508  0.2098  0.1691
    1DIPC   NC3 4009   3.024  20.357   7.347  0.2434  0.1554 -0.0165
    1DIPC   PO4 4010   2.757  19.992   7.349 -0.0630  0.2248 -0.2062
    1DIPC   GL1 4011   2.886  20.040   6.859 -0.2045 -0.3461  0.2537
    1DIPC   GL2 4012   2.913  20.313   6.702 -0.0435  0.1963  0.2751
    1DIPC   C1A 4013   3.256  19.949   6.629  0.0953 -0.1017 -0.4988
    1DIPC   D2A 4014   3.656  19.951   6.516  0.0800  0.3600 -0.0888
    1DIPC   D3A 4015   3.842  20.360   6.480 -0.2457  0.2093  0.0425
    1DIPC   C4A 4016   4.267  20.370   6.531 -0.0813  0.0493 -0.1102
    1DIPC   C1B 4017   2.781  20.285   6.360 -0.2718 -0.2372  0.0425
    1DIPC   D2B 4018   2.861  20.363   5.873 -0.0306  0.0625 -0.2157
    1DIPC   D3B 4019   2.813  19.949   6.045 -0.1823 -0.1464  0.2697
    1DIPC   C4B 4020   2.433  19.758   5.838 -0.0226  0.0461 -0.2870
    1DIPC   NC3 4021   6.309  18.101   6.671  0.0860 -0.1677  0.3119
    1DIPC   PO4 4022   6.065  17.729   6.889 -0.4266 -0.0468 -0.2813
    1DIPC   GL1 4023   6.270  17.652   6.487  0.0153 -0.2024  0.0142
    1DIPC   GL2 4024   6.219  17.838   6.188  0.1891  0.2611  0.1994
    1DIPC   C1A 4025   6.353  17.336   6.114 -0.0081  0.0795  0.0948
    1DIPC   D2A 4026   6.635  17.195   5.785 -0.1873  0.0272 -0.1388
    1DIPC   D3A 4027   6.840  16.827   5.613 -0.0835  0.3859 -0.0563
    1DIPC   C4A 4028   6.737  16.893   5.082 -0.3057 -0.1758 -0.3271
    1DIPC   C1B 4029   6.238  18.157   5.772 -0.2321 -0.1021  0.0701
    1DIPC   D2B 4030   6.079  18.503   5.483  0.2319  0.1647  0.0861
    1DIPC   D3B 4031   5.745  18.754   5.543  0.0455  0.0657  0.0541
    1DIPC   C4B 4032   5.318  18.683   5.427 -0.0551 -0.0436 -0.1582
    1DIPC   NC3 4033   7.175  28.136   8.163 -0.2774  0.1543 -0.0912
    1DIPC   PO4 4034   7.004  27.999   7.676 -0.3071 -0.1031  0.1207
    1DIPC   GL1 4035   6.980  28.328   7.406  0.2644 -0.0119  0.1782
    1DIPC   GL2 4036   7.019  28.643   7.422 -0.0369  0.0430  0.1802
    1DIPC   C1A 4037   7.042  28.324   6.968  0.1146 -0.1926 -0.3139
    1DIPC   D2A 4038   6.710  28.355   6.596 -0.1870  0.0125  0.0989
    1DIPC   D3A 4039   6.707  28.492   6.215 -0.0740  0.1204 -0.2667
    1DIPC   C4A 4040   6.517  28.912   6.248 -0.0932  0.0978  0.3531
    1DIPC   C1B 4041   7.250  29.018   7.254 -0.0797  0.3137  0.3761
    1DIPC   D2B 4042   7.589  29.150   6.857 -0.2158 -0.0623  0.2240
    1DIPC   D3B 4043   7.181  29.356   6.865  0.3238  0.0598 -0.0729
    1DIPC   C4B 4044   6.924  29.397   7.270  0.0787 -0.3690  0.0071
    1DIPC   NC3 4045  22.657  14.920   6.606  0.0163 -0.2848  0.3093
    1DIPC   PO4 4046  22.320  15.165   6.415 -0.0508  0.2800 -0.0340
    1DIPC   GL1 4047  22.514  14.956   6.109 -0.1500 -0.2981  0.1433
    1DIPC   GL2 4048  22.730  14.893   5.960  0.3132 -0.2231 -0.1820
    1DIPC   C1A 4049  22.237  14.963   5.737  0.1502  0.1105 -0.0954
    1DIPC   D2A 4050  22.375  15.031   5.317  0.0719 -0.1577 -0.0787
    1DIPC   D3A 4051  22.752  15.203   5.171  0.1543 -0.1997 -0.0183
    1DIPC   C4A 4052  22.876  15.437   4.948  0.0859 -0.1727  0.4625
    1DIPC   C1B 4053  22.743  14.812   5.539 -0.4922 -0.1949 -0.1499
    1DIPC   D2B 4054  22.831  14.670   5.113 -0.0158 -0.0273  0.0140
    1DIPC   D3B 4055  22.594  14.332   5.092  0.0774  0.0233 -0.3215
    1DIPC   C4B 4056  22.293  14.188   4.809 -0.0897 -0.3396  0.0441
    1DIPC   NC3 4057  27.460  14.798   7.688 -0.2587 -0.2706  0.2558
    1DIPC   PO4 4058  27.454  14.712   7.271  0.0171 -0.1981  0.2219
    1DIPC   GL1 4059  27.382  14.529   6.852 -0.3543  0.0301 -0.2025
    1DIPC   GL2 4060  27.623  14.613   6.659 -0.1326 -0.0816 -0.3795
    1DIPC   C1A 4061  27.320  14.361   6.423 -0.0408  0.3791 -0.0622
    1DIPC   D2A 4062  27.278  14.022   6.035  0.0181 -0.1207  0.1798
    1DIPC   D3A 4063  27.002  13.772   5.810 -0.0852 -0.0941 -0.2378
    1DIPC   C4A 4064  27.006  13.836   5.258 -0.0642  0.0995 -0.1413
    1DIPC   C1B 4065  27.723  14.873   6.374 -0.3074  0.0755  0.1131
    1DIPC   D2B 4066  27.862  15.086   5.958  0.1083  0.0532  0.1376
    1DIPC   D3B 4067  27.668  15.509   5.922 -0.2218  0.3786  0.0842
    1DIPC   C4B 4068  27.211  15.469   5.701 -0.4118 -0.0221 -0.0915
    1DIPC   NC3 4069  10.277   6.786   6.359 -0.1749 -0.1491  0.1832
    1DIPC   PO4 4070  10.159   7.100   6.371  0.1175  0.0424  0.0502
    1DIPC   GL1 4071  10.134   7.340   5.995 -0.2694  0.0388 -0.0536
    1DIPC   GL2 4072   9.730   7.395   5.929 -0.0186 -0.1136 -0.1074
    1DIPC   C1A 4073  10.150   7.650   5.768 -0.3607  0.1467  0.1707
    1DIPC   D2A 4074   9.999   8.068   5.559 -0.1015 -0.0195  0.2340
    1DIPC   D3A 4075   9.754   8.387   5.737 -0.0577  0.2048  0.0057
    1DIPC   C4A 4076   9.591   8.518   5.362  0.2686  0.0426  0.1583
    1DIPC   C1B 4077   9.515   7.032   5.764  0.0244 -0.1886  0.1052
    1DIPC   D2B 4078   9.669   6.942   5.318  0.2416 -0.1669  0.0117
    1DIPC   D3B 4079   9.639   6.781   4.848  0.1454 -0.2167  0.0568
    1DIPC   C4B 4080   9.362   6.494   4.887 -0.1599 -0.0753  0.1185
    1DIPC   NC3 4081  19.777  21.363   6.339  0.0596 -0.1337 -0.3033
    1DIPC   PO4 4082  20.124  21.490   6.513  0.0125  0.0984 -0.3967
    1DIPC   GL1 4083  20.411  21.554   6.138  0.3385 -0.0417 -0.0388
    1DIPC   GL2 4084  20.314  21.909   5.992  0.1352  0.0955  0.3925
    1DIPC   C1A 4085  20.613  21.414   5.863  0.1337  0.3249 -0.0361
    1DIPC   D2A 4086  20.615  21.387   5.440 -0.1681 -0.2621  0.1097
    1DIPC   D3A 4087  20.693  21.643   5.134 -0.1059  0.1987 -0.3583
    1DIPC   C4A 4088  20.632  21.631   4.671  0.1570 -0.0368 -0.1938
    1DIPC   C1B 4089  19.896  22.018   5.805 -0.0866 -0.1020  0.2838
    1DIPC   D2B 4090  19.623  22.121   5.501  0.1051 -0.0241  0.2092
    1DIPC   D3B 4091  20.019  22.072   5.188  0.0817 -0.0299  0.1982
    1DIPC   C4B 4092  20.339  21.863   5.450 -0.0782  0.1829 -0.2840
    1DIPC   NC3 4093  12.164   1.328   6.577 -0.3063  0.0641  0.0100
    1DIPC   PO4 4094  12.509   1.037   6.731  0.0133 -0.1277 -0.1927
    1DIPC   GL1 4095  12.569   0.921   6.374  0.2016 -0.0490 -0.3862
    1DIPC   GL2 4096  12.427   0.662   6.279  0.0897 -0.2704  0.1112
    1DIPC   C1A 4097  12.793   1.050   5.988  0.4081  0.1037  0.1625
    1DIPC   D2A 4098  12.915   1.289   5.585 -0.3230 -0.1900 -0.3100
    1DIPC   D3A 4099  13.005   0.922   5.515  0.0896  0.1072  0.0265
    1DIPC   C4A 4100  13.014   0.642   5.845  0.1401  0.2992 -0.4562
    1DIPC   C1B 4101  12.473   0.556   5.904  0.0750 -0.0829 -0.0836
    1DIPC   D2B 4102  12.467   0.195   5.728  0.0963 -0.1188 -0.1376
    1DIPC   D3B 4103  12.185   0.441   5.511  0.1522  0.1340 -0.2725
    1DIPC   C4B 4104  11.735   0.299   5.382  0.1914 -0.0499  0.3162
    1DIPC   NC3 4105  28.002  16.503   7.699  0.0491 -0.0860  0.2317
    1DIPC   PO4 4106  27.887  17.084   7.781  0.1251  0.5172 -0.1355
    1DIPC   GL1 4107  27.761  17.269   7.320  0.0656  0.0513  0.1386
    1DIPC   GL2 4108  27.601  17.214   6.978 -0.3412 -0.0664 -0.0214
    1DIPC   C1A 4109  27.879  17.627   6.946 -0.0839 -0.1292  0.0321
    1DIPC   D2A 4110  28.034  17.902   6.661  0.0957 -0.4674 -0.0872
    1DIPC   D3A 4111  27.561  17.874   6.445 -0.1350 -0.1040 -0.4899
    1DIPC   C4A 4112  27.408  18.263   6.363  0.1683  0.0612  0.1392
    1DIPC   C1B 4113  27.727  17.275   6.606  0.0750 -0.1007  0.1136
    1DIPC   D2B 4114  27.656  17.013   6.161 -0.1083 -0.1377  0.1764
    1DIPC   D3B 4115  27.294  16.774   6.356  0.0106  0.0724  0.2149
    1DIPC   C4B 4116  27.119  16.761   5.978 -0.1103  0.1545 -0.0740
    1DIPC   NC3 4117   3.336   5.771   7.466 -0.0900  0.2339  0.0688
    1DIPC   PO4 4118   3.715   5.617   7.332 -0.0338  0.1147 -0.2974
    1DIPC   GL1 4119   3.702   5.436   6.952 -0.2265  0.0342 -0.1986
    1DIPC   GL2 4120   3.605   5.680   6.863  0.3162 -0.2194 -0.0480
    1DIPC   C1A 4121   3.384   5.292   6.615 -0.1084  0.1397  0.2581
    1DIPC   D2A 4122   3.573   5.239   6.194  0.1341  0.0192  0.1493
    1DIPC   D3A 4123   3.133   5.309   6.144  0.0731 -0.1147 -0.1484
    1DIPC   C4A 4124   2.708   5.114   6.125 -0.1168  0.0676  0.2670
    1DIPC   C1B 4125   3.733   5.642   6.478 -0.1993 -0.0293  0.0425
    1DIPC   D2B 4126   3.908   5.596   5.979  0.0098 -0.0769  0.0067
    1DIPC   D3B 4127   3.995   5.998   6.101 -0.0480  0.1403  0.1908
    1DIPC   C4B 4128   3.970   6.155   6.490 -0.0606 -0.1696 -0.2042
    1DIPC   NC3 4129  25.432  21.870   6.903  0.3812 -0.0147 -0.1766
    1DIPC   PO4 4130  25.434  21.509   7.183 -0.3183  0.0989 -0.0432
    1DIPC   GL1 4131  25.548  21.380   6.806 -0.2100 -0.1753 -0.0433
    1DIPC   GL2 4132  25.447  21.483   6.480 -0.5955 -0.1190 -0.0105
    1DIPC   C1A 4133  25.830  21.132   6.579  0.1033  0.2736  0.1002
    1DIPC   D2A 4134  26.154  21.026   6.182 -0.1031 -0.0768 -0.2323
    1DIPC   D3A 4135  26.127  20.774   5.821  0.0778 -0.0840 -0.1106
    1DIPC   C4A 4136  26.263  20.888   5.383 -0.2024  0.0274  0.1979
    1DIPC   C1B 4137  25.424  21.803   6.138  0.0553  0.1219 -0.0920
    1DIPC   D2B 4138  25.291  21.985   5.748 -0.1518  0.1061 -0.2358
    1DIPC   D3B 4139  25.252  22.264   5.631  0.0706 -0.1774  0.0516
    1DIPC   C4B 4140  25.108  22.322   5.249  0.3305 -0.0446 -0.0919
    1DIPC   NC3 4141  28.174   1.340   7.908 -0.2161 -0.0648 -0.2449
    1DIPC   PO4 4142  28.663   1.399   7.904  0.3998  0.3017 -0.1499
    1DIPC   GL1 4143  28.853   1.291   7.567 -0.1043  0.0656  0.2711
    1DIPC   GL2 4144  29.022   1.442   7.414 -0.1234 -0.1142  0.2566
    1DIPC   C1A 4145  28.747   1.025   7.140 -0.0309 -0.1655 -0.0335
    1DIPC   D2A 4146  28.841   0.648   7.026 -0.2312  0.0395  0.2406
    1DIPC   D3A 4147  29.298   0.642   6.721 -0.3524  0.4886  0.3407
    1DIPC   C4A 4148  29.220   0.841   6.335  0.5046  0.0474 -0.1622
    1DIPC   C1B 4149  29.381   1.587   7.155  0.1031  0.0881  0.1017
    1DIPC   D2B 4150  29.721   1.607   6.884  0.2285  0.0028  0.1748
    1DIPC   D3B 4151  29.850   1.710   6.498  0.2119  0.3086  0.1270
    1DIPC   C4B 4152  30.120   1.808   6.128 -0.2235 -0.5452  0.5983
    1DIPC   NC3 4153   4.880   0.838   7.954  0.0397  0.1089  0.0778
    1DIPC   PO4 4154   5.158   1.169   8.103 -0.3572 -0.1314  0.1137
    1DIPC   GL1 4155   5.069   1.364   7.795 -0.2922 -0.1569  0.2070
    1DIPC   GL2 4156   4.858   1.244   7.658 -0.2053 -0.0319 -0.1829
    1DIPC   C1A 4157   5.052   1.486   7.317  0.2179 -0.0080  0.0214
    1DIPC   D2A 4158   5.383   1.325   7.085  0.2107 -0.3077  0.0970
    1DIPC   D3A 4159   5.635   1.583   6.838  0.0090  0.1567 -0.1730
    1DIPC   C4A 4160   5.487   1.508   6.385 -0.0993  0.1151 -0.3104
    1DIPC   C1B 4161   4.543   1.346   7.212 -0.4886  0.0734 -0.2684
    1DIPC   D2B 4162   4.517   1.550   6.802  0.2583  0.0569  0.2351
    1DIPC   D3B 4163   4.727   1.296   6.482 -0.1962  0.1505 -0.0243
    1DIPC   C4B 4164   4.966   1.398   6.219 -0.0638  0.1225 -0.0525
    1DIPC   NC3 4165  19.854  14.568   6.859  0.0771 -0.1213  0.2099
    1DIPC   PO4 4166  19.552  14.664   6.643  0.1292 -0.0608 -0.1837
    1DIPC   GL1 4167  19.421  14.730   6.263  0.0550 -0.1619  0.1514
    1DIPC   GL2 4168  19.114  14.818   6.086  0.2650 -0.0651 -0.0158
    1DIPC   C1A 4169  19.626  14.712   5.914 -0.2103 -0.0807  0.0804
    1DIPC   D2A 4170  19.939  14.584   5.703 -0.4177  0.1149 -0.2525
    1DIPC   D3A 4171  19.990  14.377   5.257  0.1052 -0.0146 -0.3305
    1DIPC   C4A 4172  19.682  14.501   4.977  0.1898 -0.2483  0.0645
    1DIPC   C1B 4173  19.183  14.814   5.664 -0.2975 -0.0013  0.1307
    1DIPC   D2B 4174  19.531  14.634   5.457  0.0260  0.0823 -0.0094
    1DIPC   D3B 4175  19.121  14.603   5.188  0.2752 -0.0556 -0.2118
    1DIPC   C4B 4176  19.053  14.346   4.828  0.0617  0.2742  0.3610
    1DIPC   NC3 4177  10.039  24.408   7.237 -0.0543 -0.0762 -0.1462
    1DIPC   PO4 4178  10.296  24.717   7.141 -0.1396  0.0951 -0.1623
    1DIPC   GL1 4179  10.569  24.569   6.827  0.0789 -0.2148  0.0323
    1DIPC   GL2 4180  10.642  24.244   6.842  0.2104 -0.0532  0.1575
    1DIPC   C1A 4181  10.534  24.581   6.474  0.0351 -0.1203 -0.1215
    1DIPC   D2A 4182  10.585  24.423   6.135 -0.0272  0.2788 -0.0432
    1DIPC   D3A 4183  10.651  24.004   5.922 -0.0429  0.0762  0.3598
    1DIPC   C4A 4184  10.951  23.717   5.883  0.3056  0.1969  0.0673
    1DIPC   C1B 4185  10.223  24.179   6.615  0.1467 -0.0394  0.1428
    1DIPC   D2B 4186   9.993  24.502   6.407  0.0518  0.3917 -0.0813
    1DIPC   D3B 4187  10.219  24.807   6.143 -0.0528 -0.1502 -0.2276
    1DIPC   C4B 4188  10.336  24.733   5.722  0.1003  0.0404 -0.4244
    1DIPC   NC3 4189  20.821  25.699   6.806 -0.1857  0.1305 -0.0823
    1DIPC   PO4 4190  20.377  25.742   6.877 -0.1467 -0.0683  0.1033
    1DIPC   GL1 4191  20.371  26.006   6.518  0.1272 -0.0625  0.3043
    1DIPC   GL2 4192  20.605  26.110   6.455 -0.1281  0.0566  0.1382
    1DIPC   C1A 4193  20.309  26.068   6.099 -0.0214  0.0788  0.0865
    1DIPC   D2A 4194  20.203  26.133   5.624 -0.1585 -0.0146 -0.0248
    1DIPC   D3A 4195  19.760  26.165   5.519 -0.1276  0.0353  0.0396
    1DIPC   C4A 4196  19.496  26.396   5.216 -0.1204  0.0980 -0.0225
    1DIPC   C1B 4197  20.723  26.416   6.160 -0.1830 -0.1014 -0.0422
    1DIPC   D2B 4198  20.538  26.559   5.758 -0.2202  0.2493  0.1539
    1DIPC   D3B 4199  20.814  26.711   5.452 -0.2341  0.0568  0.1167
    1DIPC   C4B 4200  21.038  26.343   5.208 -0.0084 -0.0843  0.1039
    1DIPC   NC3 4201   3.581   4.266   7.772 -0.0463  0.4733  0.5807
    1DIPC   PO4 4202   3.125   4.295   7.713 -0.0383 -0.1008 -0.0097
    1DIPC   GL1 4203   3.327   4.228   7.296 -0.3546 -0.2547  0.1098
    1DIPC   GL2 4204   3.132   3.992   7.323  0.1326 -0.0364  0.0733
    1DIPC   C1A 4205   3.349   4.571   7.033  0.3138 -0.1576 -0.0646
    1DIPC   D2A 4206   3.448   4.805   6.679  0.0002  0.3720 -0.2278
    1DIPC   D3A 4207   3.199   4.849   6.386 -0.0125  0.0052  0.1910
    1DIPC   C4A 4208   3.029   4.723   6.132  0.2517 -0.1084  0.0747
    1DIPC   C1B 4209   3.201   3.899   6.879 -0.1409 -0.1224 -0.0806
    1DIPC   D2B 4210   3.274   3.897   6.435 -0.1471  0.0953 -0.2710
    1DIPC   D3B 4211   3.084   3.640   6.143  0.2231  0.3609  0.0596
    1DIPC   C4B 4212   3.262   3.306   5.842 -0.0851 -0.2501  0.1928
    1DIPC   NC3 4213  19.189  23.285   6.711  0.1912  0.0580 -0.1153
    1DIPC   PO4 4214  18.839  23.452   6.902 -0.1205  0.0196 -0.0640
    1DIPC   GL1 4215  18.893  23.624   6.510  0.0350 -0.2286 -0.1394
    1DIPC   GL2 4216  18.553  23.750   6.411 -0.1659  0.0905 -0.0384
    1DIPC   C1A 4217  19.185  23.811   6.160 -0.0406 -0.1179  0.0096
    1DIPC   D2A 4218  19.358  24.156   5.852 -0.0146 -0.2787  0.4512
    1DIPC   D3A 4219  19.303  24.051   5.391 -0.0111 -0.1058 -0.2604
    1DIPC   C4A 4220  19.215  23.745   5.111 -0.5024  0.0578  0.2306
    1DIPC   C1B 4221  18.711  23.553   6.110 -0.3607  0.0477  0.2550
    1DIPC   D2B 4222  18.932  23.664   5.748  0.2140 -0.2268 -0.1463
    1DIPC   D3B 4223  18.778  23.840   5.424 -0.0547  0.1088  0.1978
    1DIPC   C4B 4224  18.378  23.890   5.330 -0.4030 -0.0977  0.2017
    1DIPC   NC3 4225  28.276  12.563   6.780 -0.0520  0.0546  0.3137
    1DIPC   PO4 4226  27.838  12.494   6.815  0.1071  0.0417 -0.1824
    1DIPC   GL1 4227  27.841  12.843   6.556 -0.1621  0.1720 -0.0403
    1DIPC   GL2 4228  27.858  13.179   6.692  0.0982  0.0870 -0.0134
    1DIPC   C1A 4229  27.840  13.203   6.198  0.0037 -0.1914 -0.1037
    1DIPC   D2A 4230  27.866  13.270   5.633  0.2580  0.1387 -0.2649
    1DIPC   D3A 4231  28.053  13.009   5.791  0.0918 -0.2664  0.0732
    1DIPC   C4A 4232  27.998  12.671   5.596  0.0631 -0.1156 -0.1118
    1DIPC   C1B 4233  27.823  13.585   6.484 -0.1021 -0.0641  0.2448
    1DIPC   D2B 4234  27.819  13.928   6.231  0.0234 -0.3147 -0.3629
    1DIPC   D3B 4235  27.802  13.869   5.771 -0.1606  0.2829  0.1577
    1DIPC   C4B 4236  27.549  14.201   5.587 -0.0490 -0.0223 -0.0746
    1DIPC   NC3 4237   2.412  11.192   7.669  0.0280  0.3710  0.1170
    1DIPC   PO4 4238   2.519  11.604   7.435 -0.0820  0.1030 -0.0403
    1DIPC   GL1 4239   2.486  11.341   7.107 -0.0218 -0.2382  0.1517
    1DIPC   GL2 4240   2.137  11.521   7.009 -0.0266  0.0156  0.1138
    1DIPC   C1A 4241   2.593  11.340   6.711  0.1035  0.1245 -0.2214
    1DIPC   D2A 4242   2.648  10.924   6.413 -0.0138  0.1470  0.0996
    1DIPC   D3A 4243   2.591  10.687   5.979 -0.1136  0.0916 -0.1861
    1DIPC   C4A 4244   2.504  10.762   5.519  0.1243  0.0542  0.1315
    1DIPC   C1B 4245   2.294  11.714   6.651 -0.3958 -0.0730  0.1372
    1DIPC   D2B 4246   2.428  12.059   6.374 -0.2168  0.0667 -0.0932
    1DIPC   D3B 4247   2.605  12.315   6.714  0.1098  0.1552  0.1372
    1DIPC   C4B 4248   2.976  12.210   6.825  0.2055  0.1111 -0.0392
    1DIPC   NC3 4249  23.976  10.428   7.156 -0.0221 -0.2868  0.1607
    1DIPC   PO4 4250  23.564  10.395   6.912  0.0987  0.0473  0.1566
    1DIPC   GL1 4251  23.587  10.303   6.498 -0.0243  0.1160 -0.0686
    1DIPC   GL2 4252  23.476  10.084   6.299  0.1284 -0.1193 -0.1536
    1DIPC   C1A 4253  23.930  10.363   6.146 -0.1913  0.1786  0.1629
    1DIPC   D2A 4254  24.154  10.411   5.914 -0.3286  0.0445 -0.2092
    1DIPC   D3A 4255  24.342  10.212   5.522  0.1581  0.0552 -0.1987
    1DIPC   C4A 4256  24.268  10.570   5.182  0.0927  0.2343  0.0290
    1DIPC   C1B 4257  23.326  10.274   5.859  0.0511 -0.3243  0.0019
    1DIPC   D2B 4258  23.359  10.682   5.598  0.0730 -0.1320  0.1455
    1DIPC   D3B 4259  23.051  10.687   5.302  0.1930  0.3311  0.0856
    1DIPC   C4B 4260  23.275  10.445   4.922  0.3449 -0.0312  0.1743
    1DIPC   NC3 4261   4.376   4.830   7.474 -0.1325  0.0194 -0.0514
    1DIPC   PO4 4262   4.082   4.565   7.635 -0.0281  0.4475  0.3361
    1DIPC   GL1 4263   4.248   4.480   7.163 -0.1185 -0.2295 -0.0150
    1DIPC   GL2 4264   4.248   4.098   7.211 -0.0527 -0.0395 -0.0026
    1DIPC   C1A 4265   4.197   4.319   6.765  0.1470  0.1128  0.1397
    1DIPC   D2A 4266   3.866   4.543   6.527  0.1121 -0.0172 -0.0340
    1DIPC   D3A 4267   3.484   4.381   6.292 -0.2244  0.0076  0.0497
    1DIPC   C4A 4268   3.306   4.175   5.966  0.1326  0.0383 -0.0859
    1DIPC   C1B 4269   3.810   4.179   7.104  0.2282 -0.1706  0.1390
    1DIPC   D2B 4270   3.592   4.205   6.741  0.0875  0.4107 -0.1407
    1DIPC   D3B 4271   3.778   4.015   6.393 -0.2003 -0.0310  0.3126
    1DIPC   C4B 4272   4.095   4.328   6.050 -0.0479  0.2544 -0.0987
    1DIPC   NC3 4273  10.849  20.836   6.890 -0.1395  0.1257 -0.0367
    1DIPC   PO4 4274  10.771  20.376   6.906 -0.0873  0.1257  0.0909
    1DIPC   GL1 4275  10.488  20.372   6.597 -0.3085 -0.0330 -0.2325
    1DIPC   GL2 4276  10.508  20.098   6.369 -0.1178  0.2217  0.1746
    1DIPC   C1A 4277  10.297  20.626   6.224 -0.1813  0.1505 -0.0922
    1DIPC   D2A 4278  10.345  20.847   5.788 -0.1033 -0.4171  0.1257
    1DIPC   D3A 4279  10.025  21.102   5.724  0.0891 -0.1001 -0.0485
    1DIPC   C4A 4280  10.038  21.239   5.348 -0.2277  0.2000  0.1319
    1DIPC   C1B 4281  10.370  19.672   6.183  0.4480  0.0991 -0.1079
    1DIPC   D2B 4282  10.028  19.462   6.067  0.1040  0.1121 -0.0839
    1DIPC   D3B 4283  10.145  19.408   5.568 -0.0055  0.1300 -0.2875
    1DIPC   C4B 4284  10.458  19.249   5.392 -0.2576  0.0615 -0.0317
    1DIPC   NC3 4285  10.802  15.481   6.212 -0.0505  0.0176 -0.1066
    1DIPC   PO4 4286  10.540  15.883   6.153 -0.1056 -0.0603  0.2261
    1DIPC   GL1 4287  10.617  15.996   5.702  0.0870  0.0088  0.1081
    1DIPC   GL2 4288  10.293  15.983   5.542 -0.1988  0.0630 -0.0510
    1DIPC   C1A 4289  10.589  16.259   5.270  0.1068  0.0475 -0.1054
    1DIPC   D2A 4290  10.767  16.453   4.893  0.0665  0.1355  0.0124
    1DIPC   D3A 4291  10.973  16.150   4.747  0.0378  0.6043 -0.2215
    1DIPC   C4A 4292  11.195  16.142   4.310 -0.3018 -0.0757  0.4177
    1DIPC   C1B 4293  10.224  16.017   5.056  0.1457 -0.2180 -0.0691
    1DIPC   D2B 4294   9.989  16.219   4.613  0.1891  0.0504  0.2216
    1DIPC   D3B 4295  10.079  15.911   4.372 -0.3147 -0.2766 -0.0632
    1DIPC   C4B 4296   9.954  15.480   4.239  0.0850  0.2737  0.3540
    1DIPC   NC3 4297  19.391   6.790   6.448 -0.4152  0.1246 -0.0039
    1DIPC   PO4 4298  19.240   6.568   6.084 -0.0013  0.1070 -0.3804
    1DIPC   GL1 4299  19.263   6.710   5.668 -0.0752  0.2494 -0.1124
    1DIPC   GL2 4300  19.595   6.685   5.696  0.2580  0.1245  0.1277
    1DIPC   C1A 4301  18.876   6.767   5.301 -0.1037 -0.3474  0.1033
    1DIPC   D2A 4302  18.542   7.081   5.444  0.3658  0.0305  0.1029
    1DIPC   D3A 4303  18.290   6.954   5.141 -0.3865 -0.2514  0.1461
    1DIPC   C4A 4304  18.518   6.633   4.904  0.1091  0.1386  0.1371
    1DIPC   C1B 4305  19.879   6.596   5.429 -0.0827 -0.0628  0.2070
    1DIPC   D2B 4306  19.984   6.236   5.249  0.2348 -0.1996  0.3575
    1DIPC   D3B 4307  20.156   6.408   4.908  0.1491 -0.0936 -0.0611
    1DIPC   C4B 4308  19.880   6.752   4.883  0.0710 -0.2186 -0.0785
    1DIPC   NC3 4309  21.497  11.047   7.015 -0.0744  0.0553 -0.0620
    1DIPC   PO4 4310  21.362  11.431   6.744 -0.0342 -0.3748  0.1005
    1DIPC   GL1 4311  21.398  11.447   6.325 -0.0108 -0.0787 -0.0638
    1DIPC   GL2 4312  21.223  11.192   6.239  0.0250  0.0202  0.2219
    1DIPC   C1A 4313  21.403  11.478   5.880 -0.0559  0.1722  0.1545
    1DIPC   D2A 4314  21.541  11.557   5.389 -0.2012 -0.1157  0.0036
    1DIPC   D3A 4315  21.861  11.936   5.204  0.0429  0.3345 -0.0322
    1DIPC   C4A 4316  21.775  12.390   5.199 -0.2298 -0.2127  0.0035
    1DIPC   C1B 4317  21.058  10.822   5.899  0.1345 -0.1810  0.3636
    1DIPC   D2B 4318  20.970  10.844   5.452 -0.1943  0.1318 -0.2902
    1DIPC   D3B 4319  20.554  10.568   5.439  0.1313  0.0517  0.2285
    1DIPC   C4B 4320  20.357  10.298   5.004  0.2797 -0.0128 -0.4923
    1DIPC   NC3 4321  11.343  11.260   5.953 -0.0230 -0.0025 -0.1284
    1DIPC   PO4 4322  11.692  11.043   5.796 -0.1305 -0.3530  0.0788
    1DIPC   GL1 4323  11.682  10.743   5.439 -0.0435  0.2493  0.0003
    1DIPC   GL2 4324  11.900  10.489   5.503 -0.3447 -0.0233  0.1148
    1DIPC   C1A 4325  11.711  10.934   5.078 -0.2916 -0.2240  0.1391
    1DIPC   D2A 4326  11.455  10.811   4.655  0.0095 -0.1485 -0.2100
    1DIPC   D3A 4327  11.615  10.983   4.414  0.1969  0.3480  0.2721
    1DIPC   C4A 4328  11.885  11.356   4.326  0.2204 -0.0494 -0.1697
    1DIPC   C1B 4329  11.856  10.145   5.166 -0.0480  0.0511  0.2045
    1DIPC   D2B 4330  11.950   9.943   4.791  0.1376 -0.1566 -0.0161
    1DIPC   D3B 4331  12.176  10.322   4.760  0.1034  0.1678 -0.1614
    1DIPC   C4B 4332  12.306  10.510   4.331 -0.3495  0.0078 -0.0442
    1DIPC   NC3 4333  18.629   7.770   6.045  0.1507  0.2717 -0.2647
    1DIPC   PO4 4334  18.464   7.316   5.881 -0.1061 -0.1619  0.0556
    1DIPC   GL1 4335  18.429   7.665   5.548  0.2953  0.1455  0.0752
    1DIPC   GL2 4336  18.385   7.975   5.636  0.0055 -0.0379 -0.0548
    1DIPC   C1A 4337  18.460   7.518   5.171  0.1038  0.0508  0.0325
    1DIPC   D2A 4338  18.505   7.634   4.760 -0.0377  0.2551  0.1078
    1DIPC   D3A 4339  18.556   7.439   4.473  0.0927  0.0951 -0.0281
    1DIPC   C4A 4340  18.611   7.722   4.103 -0.1404 -0.1437 -0.2167
    1DIPC   C1B 4341  18.298   8.014   5.206 -0.1385 -0.0640  0.1194
    1DIPC   D2B 4342  18.163   8.111   4.753  0.0722  0.1268  0.1440
    1DIPC   D3B 4343  18.179   8.234   4.303 -0.1637  0.0035  0.0282
    1DIPC   C4B 4344  18.219   7.954   3.867 -0.0080  0.1945  0.1214
    1DIPC   NC3 4345  13.652  21.724   6.981 -0.0707  0.4536 -0.0988
    1DIPC   PO4 4346  13.924  21.861   6.692 -0.2074 -0.0495  0.0610
    1DIPC   GL1 4347  14.085  22.196   6.424  0.0459  0.0024  0.2701
    1DIPC   GL2 4348  13.927  22.460   6.569  0.0546  0.1358 -0.0919
    1DIPC   C1A 4349  14.099  22.477   6.089  0.1100  0.1346 -0.0281
    1DIPC   D2A 4350  14.116  22.305   5.700 -0.0397 -0.0089 -0.2324
    1DIPC   D3A 4351  13.770  22.125   5.550  0.2283  0.1950 -0.0677
    1DIPC   C4A 4352  13.595  22.136   5.117 -0.2575  0.2641 -0.2422
    1DIPC   C1B 4353  13.797  22.799   6.245 -0.0823  0.0566 -0.0891
    1DIPC   D2B 4354  13.571  23.149   5.962 -0.0371  0.2186  0.0107
    1DIPC   D3B 4355  13.545  23.550   6.202 -0.2214 -0.1106 -0.1935
    1DIPC   C4B 4356  13.324  23.873   6.153  0.0478 -0.3382  0.2791
    1DIPC   NC3 4357  11.548   9.569   5.824 -0.1305 -0.1054  0.0426
    1DIPC   PO4 4358  12.030   9.571   5.822  0.0025 -0.3915  0.1033
    1DIPC   GL1 4359  12.121   9.838   5.450 -0.1142  0.0302 -0.1378
    1DIPC   GL2 4360  11.946   9.573   5.224  0.0292  0.3613 -0.1516
    1DIPC   C1A 4361  12.345   9.787   5.014 -0.0757  0.1716  0.1552
    1DIPC   D2A 4362  12.383   9.538   4.631  0.0241  0.2510  0.1967
    1DIPC   D3A 4363  12.324   9.128   4.580  0.0346  0.2795  0.0416
    1DIPC   C4A 4364  12.071   9.011   4.289 -0.0204  0.2433  0.1087
    1DIPC   C1B 4365  12.166   9.204   5.074  0.2224 -0.1053 -0.3031
    1DIPC   D2B 4366  12.181   8.788   4.949 -0.0454 -0.1337 -0.0040
    1DIPC   D3B 4367  11.971   8.505   4.637 -0.1206 -0.2559  0.3143
    1DIPC   C4B 4368  12.047   8.467   4.164  0.0256  0.1308 -0.0766
    1DIPC   NC3 4369   2.790  14.879   7.157 -0.2220 -0.1873 -0.1858
    1DIPC   PO4 4370   2.480  14.702   7.290 -0.3981  0.0639  0.2196
    1DIPC   GL1 4371   2.435  14.846   6.774 -0.0037  0.1768  0.0359
    1DIPC   GL2 4372   2.073  14.996   6.734  0.0171 -0.0702  0.4213
    1DIPC   C1A 4373   2.591  14.906   6.429  0.1667  0.0598 -0.0718
    1DIPC   D2A 4374   2.459  14.896   6.022 -0.1461 -0.3857 -0.0523
    1DIPC   D3A 4375   2.312  14.795   5.624 -0.1467 -0.0247  0.0024
    1DIPC   C4A 4376   2.140  14.748   5.190 -0.0564  0.1252 -0.0200
    1DIPC   C1B 4377   2.033  15.024   6.367 -0.1837 -0.0043 -0.3398
    1DIPC   D2B 4378   1.946  14.706   5.990 -0.0350 -0.0719  0.0362
    1DIPC   D3B 4379   2.005  15.126   5.916 -0.0723 -0.2756  0.3984
    1DIPC   C4B 4380   2.133  15.265   5.463 -0.1255  0.3800  0.3302
    1DIPC   NC3 4381  21.824  25.856   7.695 -0.4268  0.2712  0.1780
    1DIPC   PO4 4382  22.000  25.721   7.306 -0.0799  0.2978 -0.0550
    1DIPC   GL1 4383  22.230  25.788   6.993 -0.2479 -0.4452  0.1283
    1DIPC   GL2 4384  22.182  26.148   6.839 -0.0841  0.0091  0.1253
    1DIPC   C1A 4385  22.568  25.635   6.765 -0.4152 -0.1010 -0.0367
    1DIPC   D2A 4386  22.713  25.170   6.732 -0.3895 -0.1489 -0.0134
    1DIPC   D3A 4387  23.091  25.138   6.478  0.2614 -0.1946 -0.1097
    1DIPC   C4A 4388  23.318  25.291   6.188  0.2131 -0.1214  0.3976
    1DIPC   C1B 4389  22.091  25.821   6.526 -0.0864  0.3415 -0.1967
    1DIPC   D2B 4390  21.831  25.540   6.456 -0.1043 -0.1200  0.1922
    1DIPC   D3B 4391  21.729  25.634   6.056  0.0544 -0.0135 -0.0366
    1DIPC   C4B 4392  21.247  25.611   5.993  0.0350  0.1409  0.0949
    1DIPC   NC3 4393  28.563  11.224   6.840  0.2357  0.2665  0.1388
    1DIPC   PO4 4394  29.042  11.237   6.697  0.0689  0.2501 -0.0877
    1DIPC   GL1 4395  28.816  11.123   6.274 -0.4462 -0.1120 -0.0807
    1DIPC   GL2 4396  28.502  11.288   6.350 -0.4012 -0.1535  0.0907
    1DIPC   C1A 4397  28.806  11.095   5.769  0.1732 -0.0050  0.3207
    1DIPC   D2A 4398  28.695  11.053   5.366 -0.1441 -0.2947 -0.1887
    1DIPC   D3A 4399  28.529  10.689   5.172  0.1694 -0.1732  0.1903
    1DIPC   C4A 4400  28.335  10.430   5.384  0.2342  0.1333  0.1221
    1DIPC   C1B 4401  28.317  11.035   6.031  0.1544 -0.0829  0.0323
    1DIPC   D2B 4402  28.219  10.822   5.643 -0.3677 -0.0052 -0.0150
    1DIPC   D3B 4403  28.271  11.271   5.550  0.1617  0.1416 -0.2415
    1DIPC   C4B 4404  28.069  11.618   5.820  0.0816 -0.1055 -0.1139
    1DIPC   NC3 4405   3.903   8.539   7.658 -0.1484 -0.0093 -0.0164
    1DIPC   PO4 4406   3.659   8.821   7.525  0.0916  0.0235 -0.0659
    1DIPC   GL1 4407   3.744   8.704   7.062 -0.1537  0.0472  0.0014
    1DIPC   GL2 4408   3.431   8.646   6.813 -0.2239  0.0723  0.3680
    1DIPC   C1A 4409   3.733   8.298   6.683  0.4406  0.1063  0.0340
    1DIPC   D2A 4410   4.069   8.043   6.507 -0.3028  0.0904  0.2469
    1DIPC   D3A 4411   4.055   7.801   6.105 -0.0515 -0.3266 -0.2913
    1DIPC   C4A 4412   3.678   7.769   5.898 -0.0835  0.2064 -0.1630
    1DIPC   C1B 4413   3.275   8.391   6.416  0.0168  0.1063 -0.2042
    1DIPC   D2B 4414   2.889   8.051   6.212  0.0304  0.1493  0.3761
    1DIPC   D3B 4415   2.568   8.163   5.953 -0.0167  0.2329 -0.1055
    1DIPC   C4B 4416   2.666   8.307   5.528  0.0975  0.1348  0.1059
    1DIPC   NC3 4417  16.002  21.751   7.002  0.1125  0.2104 -0.1709
    1DIPC   PO4 4418  16.232  21.910   6.598  0.2660 -0.1007 -0.0958
    1DIPC   GL1 4419  16.144  21.973   6.176  0.3108 -0.0914  0.3025
    1DIPC   GL2 4420  15.882  22.223   6.115  0.2821  0.0333 -0.2757
    1DIPC   C1A 4421  16.231  21.882   5.763 -0.1182  0.0260 -0.1503
    1DIPC   D2A 4422  16.406  21.872   5.335  0.0030  0.1460 -0.1072
    1DIPC   D3A 4423  16.457  22.385   5.125 -0.0582 -0.1285 -0.0121
    1DIPC   C4A 4424  16.075  22.487   4.799  0.1579 -0.2367  0.0167
    1DIPC   C1B 4425  15.655  22.092   5.780  0.0825  0.2303  0.0415
    1DIPC   D2B 4426  15.832  21.750   5.545 -0.1675 -0.0080 -0.1924
    1DIPC   D3B 4427  15.767  21.736   5.039 -0.1951 -0.3251  0.2866
    1DIPC   C4B 4428  15.612  21.490   4.755 -0.1424  0.1816 -0.0271
    1DIPC   NC3 4429   5.793  24.114   7.348 -0.0973 -0.1998 -0.0339
    1DIPC   PO4 4430   5.928  24.450   7.469 -0.2413 -0.2256 -0.1566
    1DIPC   GL1 4431   5.925  24.475   6.971  0.1032 -0.0743 -0.0883
    1DIPC   GL2 4432   5.654  24.386   6.937  0.0380  0.0961  0.0770
    1DIPC   C1A 4433   6.181  24.465   6.609  0.2118 -0.1659 -0.4600
    1DIPC   D2A 4434   6.620  24.370   6.549 -0.0099  0.2495 -0.1327
    1DIPC   D3A 4435   6.541  24.562   6.161  0.0723 -0.1813 -0.1064
    1DIPC   C4A 4436   6.383  24.555   5.727 -0.2877  0.0765 -0.0725
    1DIPC   C1B 4437   5.697  24.521   6.480  0.3153 -0.4025  0.0130
    1DIPC   D2B 4438   5.477  24.545   6.065 -0.0496 -0.0735 -0.0749
    1DIPC   D3B 4439   5.537  24.119   5.880  0.2040  0.2584  0.1829
    1DIPC   C4B 4440   5.897  24.061   5.756  0.2413 -0.3451  0.1538
    1DIPC   NC3 4441   7.986   9.228   6.640 -0.1747  0.0277  0.0624
    1DIPC   PO4 4442   7.637   9.286   6.354 -0.1559  0.3092 -0.0420
    1DIPC   GL1 4443   7.445   9.326   6.025 -0.3560 -0.0112 -0.0899
    1DIPC   GL2 4444   7.577   8.995   5.957  0.0809 -0.0800  0.0541
    1DIPC   C1A 4445   7.367   9.360   5.612  0.3420 -0.0468 -0.0855
    1DIPC   D2A 4446   7.166   9.360   5.288  0.1406 -0.2831  0.0832
    1DIPC   D3A 4447   7.015   9.020   5.128  0.1812 -0.2336 -0.0353
    1DIPC   C4A 4448   6.692   8.753   4.991 -0.0838  0.0866 -0.0073
    1DIPC   C1B 4449   7.778   9.110   5.652  0.0707  0.0930  0.2311
    1DIPC   D2B 4450   7.713   9.177   5.179 -0.0355  0.0176  0.1321
    1DIPC   D3B 4451   8.076   9.230   4.905 -0.0137 -0.2308 -0.2084
    1DIPC   C4B 4452   8.467   9.298   4.954  0.0783  0.0629  0.1735
    1DIPC   NC3 4453  11.535   7.025   5.972 -0.4815  0.2587 -0.0455
    1DIPC   PO4 4454  11.388   6.640   6.230  0.1783 -0.0086 -0.0580
    1DIPC   GL1 4455  11.055   6.722   5.863 -0.2435  0.1536 -0.2629
    1DIPC   GL2 4456  11.236   6.962   5.571 -0.1548  0.1201  0.1512
    1DIPC   C1A 4457  10.763   6.557   5.624  0.2058  0.0903  0.2224
    1DIPC   D2A 4458  10.579   6.319   5.249 -0.3873 -0.2575  0.1255
    1DIPC   D3A 4459  10.733   6.409   4.861 -0.1534  0.0728  0.1321
    1DIPC   C4A 4460  10.907   6.834   4.708  0.0442 -0.1515  0.3475
    1DIPC   C1B 4461  10.973   6.872   5.301 -0.0044  0.0693  0.0833
    1DIPC   D2B 4462  10.652   7.017   5.122  0.2764  0.0276  0.0482
    1DIPC   D3B 4463  10.773   7.415   4.857  0.3702 -0.1317  0.1419
    1DIPC   C4B 4464  10.797   7.383   4.436 -0.1508 -0.1450  0.3686
    1DIPC   NC3 4465  28.134   9.329   7.363  0.2918  0.1310  0.0161
    1DIPC   PO4 4466  28.244   9.027   7.688  0.0578  0.4311 -0.2035
    1DIPC   GL1 4467  28.042   8.851   7.183  0.0517  0.0072  0.1156
    1DIPC   GL2 4468  28.068   8.439   7.166 -0.2073 -0.0361 -0.2651
    1DIPC   C1A 4469  27.852   8.755   6.742  0.0338  0.1535 -0.3050
    1DIPC   D2A 4470  27.514   8.783   6.506 -0.1983 -0.1508 -0.1359
    1DIPC   D3A 4471  27.532   8.499   6.105  0.4411 -0.2624  0.3586
    1DIPC   C4A 4472  27.593   8.597   5.639 -0.1687 -0.0822 -0.1512
    1DIPC   C1B 4473  28.060   8.273   6.799 -0.0539 -0.0755  0.2965
    1DIPC   D2B 4474  27.972   8.421   6.351 -0.1326  0.3242 -0.4139
    1DIPC   D3B 4475  27.829   7.995   6.266  0.0705 -0.3011  0.5235
    1DIPC   C4B 4476  27.561   8.015   5.857  0.4291 -0.1007  0.1384
    1DIPC   NC3 4477  10.838  10.335   5.561  0.4193 -0.0319 -0.0633
    1DIPC   PO4 4478  11.198  10.479   5.632  0.1134 -0.1517 -0.1738
    1DIPC   GL1 4479  11.405  10.320   5.226 -0.1840 -0.0684  0.0654
    1DIPC   GL2 4480  11.160  10.221   4.983 -0.1287 -0.0265 -0.2436
    1DIPC   C1A 4481  11.729  10.503   4.902  0.4104 -0.0344  0.0203
    1DIPC   D2A 4482  12.016  10.810   4.608  0.0109 -0.0519  0.1449
    1DIPC   D3A 4483  12.201  11.186   4.831 -0.0384  0.1642  0.0370
    1DIPC   C4A 4484  12.502  11.385   4.707  0.6516  0.3890  0.0592
    1DIPC   C1B 4485  11.094  10.699   5.017 -0.2273 -0.1020  0.0265
    1DIPC   D2B 4486  10.848  10.977   4.733 -0.2502 -0.0296  0.1588
    1DIPC   D3B 4487  10.840  11.450   4.671 -0.1000 -0.1706 -0.0826
    1DIPC   C4B 4488  10.988  11.462   4.230  0.1089  0.0250  0.2435
    1DIPC   NC3 4489   7.060  16.777   6.078 -0.4460  0.3376  0.0074
    1DIPC   PO4 4490   7.476  16.507   6.289  0.1585  0.1006  0.0489
    1DIPC   GL1 4491   7.553  16.704   5.902  0.1621 -0.0423 -0.0950
    1DIPC   GL2 4492   7.302  16.462   5.770 -0.5643  0.2527 -0.0284
    1DIPC   C1A 4493   7.722  16.968   5.486 -0.2458  0.1090  0.1984
    1DIPC   D2A 4494   7.503  17.280   5.421 -0.2337 -0.0986 -0.0311
    1DIPC   D3A 4495   7.220  16.956   5.315  0.1926 -0.2347  0.2211
    1DIPC   C4A 4496   7.420  16.684   5.183  0.1947 -0.3343 -0.0357
    1DIPC   C1B 4497   7.032  16.366   5.449 -0.1199  0.3064 -0.1150
    1DIPC   D2B 4498   6.973  16.200   5.049  0.0399  0.1452 -0.3243
    1DIPC   D3B 4499   7.081  16.472   4.759 -0.0763  0.2962 -0.2245
    1DIPC   C4B 4500   7.090  16.374   4.311 -0.0845 -0.1003 -0.1377
    1DIPC   NC3 4501  20.566  17.211   6.443  0.2555  0.2879  0.0052
    1DIPC   PO4 4502  20.732  16.836   6.342 -0.0566 -0.0116 -0.2229
    1DIPC   GL1 4503  20.920  16.747   5.945 -0.1439  0.0481 -0.0205
    1DIPC   GL2 4504  21.087  16.983   5.640 -0.2260  0.1489 -0.1829
    1DIPC   C1A 4505  20.824  16.583   5.609 -0.0837  0.2998 -0.0232
    1DIPC   D2A 4506  20.727  16.322   5.281 -0.0513 -0.0464  0.0423
    1DIPC   D3A 4507  20.607  15.955   5.012  0.4656 -0.3828  0.1602
    1DIPC   C4A 4508  20.565  15.542   4.741  0.2590 -0.2376  0.2713
    1DIPC   C1B 4509  21.055  16.843   5.211  0.2094  0.0180  0.1526
    1DIPC   D2B 4510  20.734  16.920   4.969  0.0571  0.0169  0.1476
    1DIPC   D3B 4511  20.827  16.484   4.810 -0.3752 -0.0516 -0.2552
    1DIPC   C4B 4512  21.173  16.244   4.880  0.0320 -0.2623 -0.2517
    1DIPC   NC3 4513   5.146  15.596   6.344 -0.1624  0.0195  0.1614
    1DIPC   PO4 4514   5.448  15.236   6.322 -0.0388 -0.1510  0.3016
    1DIPC   GL1 4515   5.276  15.225   5.931  0.2945  0.0018 -0.3291
    1DIPC   GL2 4516   5.387  15.514   5.914  0.4662 -0.0994 -0.2161
    1DIPC   C1A 4517   5.299  15.315   5.437 -0.1410 -0.0664 -0.2576
    1DIPC   D2A 4518   5.746  15.388   5.193  0.3383  0.2452 -0.0640
    1DIPC   D3A 4519   5.496  15.675   5.171  0.0739  0.0070 -0.1839
    1DIPC   C4A 4520   5.630  16.089   4.996 -0.1234 -0.0216  0.1238
    1DIPC   C1B 4521   5.839  15.783   5.573  0.1675  0.1169 -0.0051
    1DIPC   D2B 4522   6.032  15.774   5.156 -0.2966 -0.0597  0.0909
    1DIPC   D3B 4523   6.099  16.120   5.299 -0.1021 -0.1726  0.0676
    1DIPC   C4B 4524   5.971  16.491   5.090  0.0831  0.2043 -0.3714
    1DIPC   NC3 4525  18.183  27.615   7.853  0.0610 -0.0351  0.2002
    1DIPC   PO4 4526  18.051  27.459   7.376 -0.0347  0.1327 -0.0676
    1DIPC   GL1 4527  18.116  27.564   6.972  0.2527 -0.0858 -0.1318
    1DIPC   GL2 4528  18.205  27.435   6.773  0.0748 -0.0013  0.1252
    1DIPC   C1A 4529  17.882  27.761   6.662  0.1547 -0.0670  0.2006
    1DIPC   D2A 4530  17.905  27.936   6.201  0.0639  0.2507 -0.1336
    1DIPC   D3A 4531  18.060  27.504   6.127 -0.3753  0.0422 -0.3123
    1DIPC   C4A 4532  18.120  27.548   5.744 -0.2271  0.4143 -0.0160
    1DIPC   C1B 4533  18.335  27.686   6.525  0.0467  0.1372  0.2767
    1DIPC   D2B 4534  18.373  27.948   6.144  0.2029 -0.1599 -0.1501
    1DIPC   D3B 4535  18.113  28.038   5.741  0.1123 -0.2818 -0.0571
    1DIPC   C4B 4536  17.802  28.349   5.701  0.1373 -0.1696  0.1148
    1DIPC   NC3 4537   3.969   5.354   7.702 -0.2445  0.0968  0.1227
    1DIPC   PO4 4538   3.823   5.057   7.578  0.0574 -0.1226 -0.2110
    1DIPC   GL1 4539   3.962   4.970   7.072  0.2942  0.1515  0.1312
    1DIPC   GL2 4540   4.275   5.073   6.987  0.1610 -0.1920 -0.2106
    1DIPC   C1A 4541   3.960   5.019   6.560 -0.2292  0.3040 -0.1179
    1DIPC   D2A 4542   4.176   5.201   6.275  0.0879 -0.2835 -0.0950
    1DIPC   D3A 4543   3.942   4.841   6.093 -0.2390 -0.0377 -0.0366
    1DIPC   C4A 4544   3.545   4.780   5.922 -0.2504  0.2172 -0.0045
    1DIPC   C1B 4545   4.198   5.475   6.732  0.0143  0.0839 -0.0610
    1DIPC   D2B 4546   4.093   5.806   6.809  0.2189  0.0746 -0.2256
    1DIPC   D3B 4547   4.456   5.991   6.728 -0.0131 -0.0975  0.0270
    1DIPC   C4B 4548   4.467   6.201   6.309 -0.1381 -0.1457  0.1598
    1DIPC   NC3 4549  10.042   7.533   6.471 -0.1302  0.2501 -0.0111
    1DIPC   PO4 4550  10.535   7.619   6.565 -0.0863 -0.2606  0.0033
    1DIPC   GL1 4551  10.595   7.357   6.242 -0.1682 -0.1725  0.1894
    1DIPC   GL2 4552  10.666   7.045   6.263 -0.2020  0.1196  0.1704
    1DIPC   C1A 4553  10.621   7.535   5.787  0.2404 -0.0582 -0.2542
    1DIPC   D2A 4554  10.803   7.383   5.457 -0.1616  0.2469 -0.4325
    1DIPC   D3A 4555  11.230   7.719   5.413 -0.0642  0.3576  0.2672
    1DIPC   C4A 4556  11.260   8.070   5.139  0.0891 -0.1075 -0.1918
    1DIPC   C1B 4557  10.581   6.987   5.789  0.0189 -0.0150 -0.1412
    1DIPC   D2B 4558  10.291   7.275   5.511 -0.0985 -0.0527 -0.2262
    1DIPC   D3B 4559  10.169   7.121   5.089  0.1910  0.1281  0.1854
    1DIPC   C4B 4560   9.829   7.395   4.858 -0.0003 -0.2891 -0.0134
    1DIPC   NC3 4561   3.251  18.793   7.470 -0.1573  0.1878  0.0620
    1DIPC   PO4 4562   3.359  18.482   7.100 -0.1203 -0.0735  0.0924
    1DIPC   GL1 4563   3.260  18.604   6.612  0.0961  0.0275 -0.0954
    1DIPC   GL2 4564   3.101  18.215   6.522  0.0959  0.0982 -0.0805
    1DIPC   C1A 4565   3.205  18.621   6.203 -0.0574  0.0105 -0.1269
    1DIPC   D2A 4566   3.054  18.692   5.873  0.0158 -0.1551  0.0774
    1DIPC   D3A 4567   3.195  18.301   5.601  0.0758  0.2651 -0.1831
    1DIPC   C4A 4568   2.921  18.005   5.413 -0.0076 -0.3136  0.0980
    1DIPC   C1B 4569   3.002  17.983   6.180 -0.1837  0.0711  0.0216
    1DIPC   D2B 4570   2.572  17.765   5.881  0.0273 -0.1718 -0.1626
    1DIPC   D3B 4571   2.408  17.345   5.684 -0.1665 -0.3252  0.0836
    1DIPC   C4B 4572   2.045  17.159   5.891  0.1325 -0.0141  0.2490
    1DIPC   NC3 4573   9.273   5.250   7.103 -0.2320 -0.4373 -0.0042
    1DIPC   PO4 4574   9.617   5.039   6.742  0.2092 -0.1567  0.1091
    1DIPC   GL1 4575   9.237   5.162   6.522  0.0841  0.2080  0.0915
    1DIPC   GL2 4576   8.929   5.257   6.371  0.1430 -0.3002 -0.0208
    1DIPC   C1A 4577   9.414   5.282   6.133 -0.3078 -0.2829  0.0919
    1DIPC   D2A 4578   9.233   5.199   5.733 -0.0430  0.0573 -0.0892
    1DIPC   D3A 4579   8.995   5.326   5.381 -0.0321  0.1083 -0.3781
    1DIPC   C4A 4580   8.853   5.712   5.181  0.1676  0.3704 -0.1677
    1DIPC   C1B 4581   8.981   5.568   6.039  0.1975  0.4412 -0.1384
    1DIPC   D2B 4582   8.890   5.699   5.685  0.0121 -0.0557 -0.0913
    1DIPC   D3B 4583   8.428   5.519   5.432  0.0099 -0.3761 -0.2399
    1DIPC   C4B 4584   8.305   5.748   5.002  0.1512  0.2793 -0.1648
    1DIPC   NC3 4585  12.984  18.538   6.878 -0.0721 -0.2203 -0.0550
    1DIPC   PO4 4586  12.770  18.219   6.789  0.1718  0.3918  0.0593
    1DIPC   GL1 4587  12.725  18.423   6.421 -0.0198 -0.0624 -0.1722
    1DIPC   GL2 4588  12.434  18.539   6.253 -0.0479  0.0407  0.1399
    1DIPC   C1A 4589  12.888  18.592   6.044 -0.0681 -0.2490  0.0727
    1DIPC   D2A 4590  13.078  18.907   5.777  0.3257 -0.1395  0.5026
    1DIPC   D3A 4591  12.632  19.170   5.794  0.1546  0.3099 -0.4394
    1DIPC   C4A 4592  12.440  19.433   6.086 -0.0335 -0.0961  0.2225
    1DIPC   C1B 4593  12.037  18.410   6.078 -0.2835  0.0499 -0.1198
    1DIPC   D2B 4594  11.804  18.610   5.698  0.2807 -0.2202 -0.1435
    1DIPC   D3B 4595  11.312  18.764   5.506  0.3109  0.2420 -0.0153
    1DIPC   C4B 4596  10.908  19.042   5.284  0.0962 -0.0233  0.2728
    1DIPC   NC3 4597   9.736  11.832   6.425  0.0100  0.0225  0.0832
    1DIPC   PO4 4598   9.930  11.567   6.146 -0.0268 -0.2255  0.1038
    1DIPC   GL1 4599  10.022  11.541   5.683  0.1517 -0.2423  0.1027
    1DIPC   GL2 4600   9.971  11.827   5.518  0.4701 -0.2670 -0.0997
    1DIPC   C1A 4601  10.330  11.533   5.348  0.0606 -0.4490  0.1160
    1DIPC   D2A 4602  10.433  11.484   4.966 -0.0908 -0.0634 -0.0338
    1DIPC   D3A 4603  10.838  11.283   5.142  0.1220  0.0455  0.3025
    1DIPC   C4A 4604  11.200  11.534   5.126 -0.1569  0.2087 -0.2943
    1DIPC   C1B 4605  10.070  11.785   4.968  0.1907 -0.1492 -0.1908
    1DIPC   D2B 4606   9.937  11.599   4.562 -0.1073  0.1391  0.2180
    1DIPC   D3B 4607   9.664  11.361   4.773 -0.0455  0.1893 -0.0309
    1DIPC   C4B 4608   9.826  11.467   5.232 -0.0724  0.0117 -0.4328
    1DIPC   NC3 4609   0.138  13.173   7.121  0.3530  0.1613 -0.1190
    1DIPC   PO4 4610  -0.100  13.371   6.805 -0.1389 -0.0057  0.2318
    1DIPC   GL1 4611   0.025  13.201   6.444 -0.0575 -0.0242 -0.5589
    1DIPC   GL2 4612   0.229  12.932   6.637  0.1828 -0.0503  0.0161
    1DIPC   C1A 4613  -0.031  12.914   6.055  0.0097  0.1242 -0.0121
    1DIPC   D2A 4614  -0.424  12.705   5.782 -0.3666 -0.0345  0.1788
    1DIPC   D3A 4615  -0.421  12.856   5.398  0.0399 -0.1437  0.2479
    1DIPC   C4A 4616  -0.099  12.585   5.039  0.2740  0.1644 -0.0654
    1DIPC   C1B 4617   0.730  12.900   6.607  0.1739 -0.0313 -0.1802
    1DIPC   D2B 4618   0.924  12.883   6.317 -0.1450  0.0223 -0.0649
    1DIPC   D3B 4619   1.339  13.099   6.382  0.0211  0.0791 -0.2120
    1DIPC   C4B 4620   1.610  12.902   6.113 -0.0232 -0.0208  0.1126
    1DIPC   NC3 4621  16.266  13.788   6.172  0.1414  0.4117  0.0665
    1DIPC   PO4 4622  15.930  14.084   6.305 -0.1826  0.1063 -0.0915
    1DIPC   GL1 4623  15.809  14.065   5.833  0.0419 -0.1385 -0.4306
    1DIPC   GL2 4624  16.074  14.017   5.762 -0.2645  0.2850  0.2482
    1DIPC   C1A 4625  15.711  14.278   5.449 -0.1416  0.4105  0.0448
    1DIPC   D2A 4626  15.344  14.529   5.346  0.2381  0.2030 -0.0356
    1DIPC   D3A 4627  15.526  14.416   4.914  0.0290  0.1666 -0.3228
    1DIPC   C4A 4628  15.719  13.975   5.018 -0.3833  0.1870 -0.2089
    1DIPC   C1B 4629  15.986  13.704   5.536 -0.1633  0.2429 -0.2216
    1DIPC   D2B 4630  16.053  13.556   5.185  0.0293 -0.0080  0.2818
    1DIPC   D3B 4631  15.966  13.125   5.192 -0.2683  0.0536 -0.0887
    1DIPC   C4B 4632  16.160  12.935   5.477 -0.2696  0.0278  0.0308
    1DIPC   NC3 4633   6.609  25.051   7.258 -0.0470 -0.0486 -0.1826
    1DIPC   PO4 4634   6.492  25.380   7.206 -0.1169 -0.3332  0.0124
    1DIPC   GL1 4635   6.644  25.658   7.026 -0.3947  0.1954  0.2368
    1DIPC   GL2 4636   6.594  25.591   6.723 -0.2339  0.1129 -0.1300
    1DIPC   C1A 4637   6.627  26.076   6.728 -0.1350 -0.2393  0.0586
    1DIPC   D2A 4638   6.600  26.312   6.493  0.1567  0.3974 -0.1767
    1DIPC   D3A 4639   6.223  26.421   6.744  0.0136 -0.0579 -0.0730
    1DIPC   C4A 4640   5.845  26.425   6.408  0.2436 -0.0235  0.1486
    1DIPC   C1B 4641   6.636  25.783   6.347  0.0689 -0.1954  0.1022
    1DIPC   D2B 4642   6.619  26.059   6.075  0.0937 -0.0802  0.3496
    1DIPC   D3B 4643   6.208  25.935   5.883 -0.1039 -0.1443 -0.2084
    1DIPC   C4B 4644   5.825  26.025   6.005  0.1547  0.0993  0.1347
    1DIPC   NC3 4645  20.714   3.457   7.000  0.3481 -0.2544  0.1108
    1DIPC   PO4 4646  20.929   2.976   6.898  0.0038  0.0813  0.1344
    1DIPC   GL1 4647  20.891   2.695   6.622  0.2169 -0.0592  0.1637
    1DIPC   GL2 4648  20.952   2.832   6.378 -0.0844  0.2108 -0.0137
    1DIPC   C1A 4649  20.656   2.423   6.322 -0.0795  0.0740 -0.2338
    1DIPC   D2A 4650  20.721   2.040   6.092  0.0920 -0.0365  0.0827
    1DIPC   D3A 4651  20.979   2.268   5.808 -0.0853  0.2021 -0.0142
    1DIPC   C4A 4652  21.071   2.139   5.304  0.2546 -0.1599 -0.1764
    1DIPC   C1B 4653  21.198   2.553   6.143  0.1365 -0.0942 -0.0310
    1DIPC   D2B 4654  21.446   2.297   5.997 -0.0733 -0.2495  0.1439
    1DIPC   D3B 4655  21.419   2.412   5.590 -0.2244 -0.0443 -0.1718
    1DIPC   C4B 4656  21.594   2.258   5.323 -0.0455  0.2732 -0.0131
    1DIPC   NC3 4657  17.923  19.719   6.655 -0.1118 -0.1086  0.2018
    1DIPC   PO4 4658  18.071  19.922   6.267 -0.0167  0.0817 -0.0772
    1DIPC   GL1 4659  18.122  19.846   5.825  0.0722  0.2380  0.1541
    1DIPC   GL2 4660  18.436  19.981   5.723  0.0713 -0.0221 -0.0847
    1DIPC   C1A 4661  17.844  19.932   5.477 -0.0872  0.1278 -0.3529
    1DIPC   D2A 4662  17.661  20.087   5.081 -0.1172  0.0283  0.0193
    1DIPC   D3A 4663  18.039  20.231   4.986 -0.0346  0.2041  0.2509
    1DIPC   C4A 4664  18.181  20.223   4.510  0.1424  0.0021 -0.0253
    1DIPC   C1B 4665  18.353  20.087   5.302  0.1019 -0.0675 -0.1992
    1DIPC   D2B 4666  18.497  19.946   4.917 -0.2069  0.1422 -0.1393
    1DIPC   D3B 4667  18.663  20.154   4.503  0.0956 -0.1272  0.0952
    1DIPC   C4B 4668  18.871  20.516   4.493  0.2005 -0.2331  0.0585
    1DIPC   NC3 4669   9.453   6.132   6.696  0.0541  0.1965 -0.3232
    1DIPC   PO4 4670   9.096   5.777   7.028  0.1538  0.0614 -0.2935
    1DIPC   GL1 4671   9.039   5.785   6.485  0.0204 -0.0944 -0.2008
    1DIPC   GL2 4672   9.329   5.919   6.255  0.0703 -0.2482  0.0573
    1DIPC   C1A 4673   8.759   6.003   6.234 -0.1367  0.0378  0.0220
    1DIPC   D2A 4674   8.420   6.009   6.034  0.1914 -0.1757  0.1527
    1DIPC   D3A 4675   8.182   5.924   6.414 -0.2751 -0.0835 -0.2425
    1DIPC   C4A 4676   7.824   5.646   6.387  0.0755 -0.3598 -0.1045
    1DIPC   C1B 4677   9.156   6.107   5.970  0.2335 -0.1482 -0.2767
    1DIPC   D2B 4678   8.914   6.198   5.663 -0.3512 -0.1614 -0.2456
    1DIPC   D3B 4679   8.531   6.021   5.460  0.3369 -0.0609 -0.1266
    1DIPC   C4B 4680   8.424   6.252   5.072 -0.0428  0.2575 -0.0671
    1DIPC   NC3 4681   8.138   7.829   6.374 -0.0927  0.0091 -0.4123
    1DIPC   PO4 4682   7.950   8.263   6.410  0.0794 -0.1812  0.2649
    1DIPC   GL1 4683   7.661   8.474   6.035 -0.2225  0.2453 -0.3801
    1DIPC   GL2 4684   7.512   8.321   5.833  0.1854 -0.0579  0.0472
    1DIPC   C1A 4685   7.874   8.607   5.738  0.2922 -0.2542  0.0024
    1DIPC   D2A 4686   8.200   8.806   5.489  0.1289  0.0635 -0.0831
    1DIPC   D3A 4687   8.608   8.927   5.236  0.0545 -0.0374  0.2196
    1DIPC   C4A 4688   8.885   9.258   5.283 -0.3044  0.0583  0.0056
    1DIPC   C1B 4689   7.656   8.045   5.515  0.0175 -0.0732  0.0531
    1DIPC   D2B 4690   7.942   7.802   5.400  0.2682 -0.0773 -0.2909
    1DIPC   D3B 4691   8.008   7.887   4.937 -0.3177  0.1528 -0.3544
    1DIPC   C4B 4692   8.360   7.593   4.843 -0.1369  0.1547 -0.1073
    1DIPC   NC3 4693  17.472  20.374   5.949  0.2106  0.1489 -0.2591
    1DIPC   PO4 4694  17.678  20.706   6.156  0.1358 -0.1197  0.3079
    1DIPC   GL1 4695  17.812  20.864   5.787 -0.4362 -0.0238 -0.2037
    1DIPC   GL2 4696  17.631  21.094   5.878  0.0263  0.0605 -0.0820
    1DIPC   C1A 4697  18.084  21.023   5.539  0.0889  0.1592 -0.0315
    1DIPC   D2A 4698  18.433  21.342   5.543 -0.1973  0.1936 -0.1409
    1DIPC   D3A 4699  18.744  21.202   5.154  0.3089 -0.1559 -0.0047
    1DIPC   C4A 4700  18.932  21.474   4.971  0.4566  0.1337  0.2046
    1DIPC   C1B 4701  17.174  21.048   5.683  0.1904 -0.0352  0.2850
    1DIPC   D2B 4702  16.736  20.952   5.522 -0.0289  0.1610  0.0060
    1DIPC   D3B 4703  16.998  20.819   5.222  0.0646 -0.1152 -0.0405
    1DIPC   C4B 4704  16.859  20.970   4.878 -0.1273 -0.1747  0.1700
    1DIPC   NC3 4705  25.233  15.191   7.620  0.3716  0.1699 -0.4099
    1DIPC   PO4 4706  25.343  15.221   7.229  0.4557 -0.0705  0.3373
    1DIPC   GL1 4707  25.502  15.232   6.788  0.0844 -0.0123 -0.3526
    1DIPC   GL2 4708  25.427  15.027   6.534 -0.0718  0.3034  0.2695
    1DIPC   C1A 4709  25.589  15.570   6.579  0.1629 -0.0845  0.1839
    1DIPC   D2A 4710  25.473  15.529   6.132 -0.0228 -0.1443  0.2850
    1DIPC   D3A 4711  25.413  15.469   5.739  0.1839  0.0432  0.3280
    1DIPC   C4A 4712  25.408  15.810   5.473 -0.2787  0.2571 -0.1650
    1DIPC   C1B 4713  25.447  15.009   6.114 -0.1944  0.2768 -0.0003
    1DIPC   D2B 4714  25.194  14.930   5.767 -0.0100  0.4530  0.0231
    1DIPC   D3B 4715  24.956  14.586   5.863  0.2346 -0.0778  0.3557
    1DIPC   C4B 4716  24.867  14.335   5.475 -0.2512 -0.1238 -0.0720
    1DIPC   NC3 4717   8.416  25.023   7.379 -0.0495  0.1695 -0.2435
    1DIPC   PO4 4718   8.736  24.736   7.275 -0.1701 -0.3889  0.1202
    1DIPC   GL1 4719   8.881  25.040   7.015 -0.0318  0.0832 -0.0159
    1DIPC   GL2 4720   8.668  25.229   6.959 -0.0293  0.1965  0.0972
    1DIPC   C1A 4721   8.854  25.010   6.589 -0.0545 -0.1429  0.1050
    1DIPC   D2A 4722   8.929  25.045   6.109  0.4326  0.2639 -0.0081
    1DIPC   D3A 4723   9.136  25.247   5.854 -0.0731  0.1754  0.0591
    1DIPC   C4A 4724   9.231  25.177   5.443  0.2885  0.0595  0.0178
    1DIPC   C1B 4725   8.779  25.523   6.599 -0.2590 -0.0988  0.2850
    1DIPC   D2B 4726   8.729  25.476   6.147 -0.4810 -0.1802  0.1063
    1DIPC   D3B 4727   8.760  25.936   6.128  0.0193  0.1406 -0.4382
    1DIPC   C4B 4728   9.097  26.198   5.792 -0.2485  0.0939  0.0333
    1DIPC   NC3 4729   0.310  13.640   7.307  0.1414  0.0089  0.2961
    1DIPC   PO4 4730   0.592  13.407   7.491  0.1043  0.0324 -0.1818
    1DIPC   GL1 4731   0.642  13.298   7.074  0.4950 -0.2585 -0.2002
    1DIPC   GL2 4732   0.443  13.376   6.781 -0.3012  0.0261  0.3272
    1DIPC   C1A 4733   1.039  13.303   6.832 -0.1690 -0.1444  0.0905
    1DIPC   D2A 4734   1.345  13.548   6.597  0.0107  0.1714 -0.0151
    1DIPC   D3A 4735   1.110  13.585   6.243 -0.1070 -0.0340  0.1179
    1DIPC   C4A 4736   1.244  13.220   5.945 -0.0735 -0.0161 -0.0016
    1DIPC   C1B 4737   0.547  13.272   6.386 -0.2494 -0.3823 -0.2630
    1DIPC   D2B 4738   0.441  12.954   6.118 -0.1241 -0.0067 -0.1679
    1DIPC   D3B 4739   0.364  12.810   5.744 -0.1185  0.1261  0.0068
    1DIPC   C4B 4740   0.025  12.948   5.548  0.1072 -0.1199  0.1675
    1DIPC   NC3 4741  10.076  15.796   6.456  0.1433  0.0694  0.2601
    1DIPC   PO4 4742   9.863  16.231   6.378  0.2270 -0.0503  0.1986
    1DIPC   GL1 4743  10.105  16.451   6.132 -0.4384  0.1771  0.1742
    1DIPC   GL2 4744   9.870  16.658   6.044 -0.3785 -0.0875 -0.3520
    1DIPC   C1A 4745  10.370  16.443   5.828 -0.1756  0.1681  0.1043
    1DIPC   D2A 4746  10.876  16.488   5.709  0.2006 -0.0288 -0.0840
    1DIPC   D3A 4747  11.064  16.564   5.311  0.2136 -0.2294  0.0712
    1DIPC   C4A 4748  10.988  17.077   5.309  0.1213  0.0239  0.1889
    1DIPC   C1B 4749  10.141  16.903   5.884  0.1071 -0.0214 -0.0279
    1DIPC   D2B 4750  10.458  17.090   5.762  0.1988 -0.0417  0.1465
    1DIPC   D3B 4751  10.526  16.833   5.460 -0.1739  0.0139 -0.1643
    1DIPC   C4B 4752  10.576  17.007   4.972 -0.1418 -0.1627  0.2324
    1DIPC   NC3 4753  27.480  12.279   7.063  0.0763 -0.0380 -0.2360
    1DIPC   PO4 4754  27.312  11.841   6.962  0.4490 -0.0923 -0.2206
    1DIPC   GL1 4755  27.234  11.986   6.514  0.2217  0.0243 -0.1625
    1DIPC   GL2 4756  27.437  12.258   6.517 -0.0169 -0.2814 -0.2476
    1DIPC   C1A 4757  27.292  11.907   6.080  0.2950 -0.0998  0.0796
    1DIPC   D2A 4758  27.484  11.565   5.921  0.1678  0.0553 -0.0556
    1DIPC   D3A 4759  27.278  11.398   5.601  0.1412  0.0226 -0.1554
    1DIPC   C4A 4760  26.889  11.493   5.353 -0.0672  0.1821  0.3173
    1DIPC   C1B 4761  27.623  12.385   6.139 -0.0035  0.0115  0.0029
    1DIPC   D2B 4762  27.800  12.623   6.057  0.0756  0.3083 -0.0961
    1DIPC   D3B 4763  28.226  12.741   6.292  0.3013 -0.2739 -0.2022
    1DIPC   C4B 4764  28.568  12.383   6.134  0.1623 -0.1308 -0.0210
    1DIPC   NC3 4765  18.671  19.095   6.079  0.0406 -0.0525  0.1661
    1DIPC   PO4 4766  18.910  18.754   5.920  0.0766 -0.0039  0.2075
    1DIPC   GL1 4767  18.996  18.948   5.638  0.0925 -0.0715 -0.4083
    1DIPC   GL2 4768  18.787  18.989   5.346 -0.1541  0.3932  0.0376
    1DIPC   C1A 4769  19.198  18.764   5.241  0.2824 -0.2513 -0.1621
    1DIPC   D2A 4770  19.025  18.396   5.048  0.0979  0.0299  0.0001
    1DIPC   D3A 4771  19.051  18.028   5.324  0.2098  0.0244 -0.3353
    1DIPC   C4A 4772  19.108  17.701   5.336 -0.2495 -0.0814 -0.1121
    1DIPC   C1B 4773  18.795  19.296   5.278  0.0823 -0.1129 -0.0682
    1DIPC   D2B 4774  18.869  19.619   4.901 -0.1594  0.1260 -0.0638
    1DIPC   D3B 4775  19.034  19.980   4.842 -0.2678  0.0153 -0.1408
    1DIPC   C4B 4776  19.296  20.029   5.219 -0.2757 -0.0557  0.5010
    1DIPC   NC3 4777  10.090  22.577   7.218  0.3003 -0.0568  0.0644
    1DIPC   PO4 4778  10.092  22.951   7.032 -0.0841 -0.0454  0.4380
    1DIPC   GL1 4779   9.986  23.021   6.583 -0.0680 -0.0573 -0.3969
    1DIPC   GL2 4780  10.259  23.105   6.369  0.0453 -0.1414 -0.1742
    1DIPC   C1A 4781   9.746  22.859   6.233  0.0077  0.0890  0.2010
    1DIPC   D2A 4782   9.696  22.937   5.740 -0.2903  0.0355 -0.4258
    1DIPC   D3A 4783   9.319  22.787   5.929  0.3023  0.1805  0.1430
    1DIPC   C4A 4784   9.019  22.715   5.739 -0.2045  0.2787 -0.4882
    1DIPC   C1B 4785  10.121  23.181   5.901  0.1616 -0.0566 -0.0674
    1DIPC   D2B 4786   9.980  23.427   5.556  0.1945  0.1529 -0.0503
    1DIPC   D3B 4787  10.181  23.190   5.418 -0.0980 -0.3119 -0.0237
    1DIPC   C4B 4788  10.118  22.765   5.543 -0.1193  0.0758  0.0096
    1DIPC   NC3 4789  16.787  21.935   6.442  0.1431 -0.1409  0.0014
    1DIPC   PO4 4790  17.021  21.527   6.231  0.0726  0.1304 -0.0647
    1DIPC   GL1 4791  17.153  21.650   5.814 -0.1018 -0.0066  0.0967
    1DIPC   GL2 4792  17.419  21.635   5.757  0.4334 -0.2140  0.1507
    1DIPC   C1A 4793  16.972  21.647   5.398 -0.0093  0.0906 -0.2368
    1DIPC   D2A 4794  16.932  21.613   5.005  0.1693  0.1179 -0.0043
    1DIPC   D3A 4795  16.687  21.935   4.911  0.2086 -0.0338 -0.1757
    1DIPC   C4A 4796  16.887  22.338   4.858  0.1987  0.2143 -0.2662
    1DIPC   C1B 4797  17.522  21.992   5.635  0.0084 -0.1521  0.0165
    1DIPC   D2B 4798  17.597  22.253   5.319 -0.2850  0.2138 -0.1090
    1DIPC   D3B 4799  17.583  21.820   5.048 -0.1184 -0.0832  0.2499
    1DIPC   C4B 4800  17.391  21.454   5.214 -0.0755 -0.1514  0.0755
    1DIPC   NC3 4801  18.428  21.824   6.526 -0.1656  0.0453  0.0085
    1DIPC   PO4 4802  18.035  21.701   6.349 -0.0619  0.0626 -0.0761
    1DIPC   GL1 4803  17.836  21.738   5.921 -0.1421 -0.3979 -0.1542
    1DIPC   GL2 4804  17.685  21.939   6.150  0.3318  0.2477 -0.2865
    1DIPC   C1A 4805  17.894  21.480   5.599  0.0964  0.0152 -0.1327
    1DIPC   D2A 4806  17.913  21.491   5.151 -0.1039  0.0291  0.1177
    1DIPC   D3A 4807  18.161  21.151   5.069 -0.3265  0.1777  0.0212
    1DIPC   C4A 4808  17.999  20.766   5.075  0.1658 -0.0228  0.1042
    1DIPC   C1B 4809  17.653  22.295   6.002  0.0907  0.3102  0.0759
    1DIPC   D2B 4810  17.977  22.321   5.628 -0.4281 -0.0125 -0.0254
    1DIPC   D3B 4811  18.020  21.939   5.409  0.1013  0.4024  0.0183
    1DIPC   C4B 4812  18.174  22.010   5.010  0.0933 -0.1672 -0.0699
    1DIPC   NC3 4813  12.794  23.965   7.230  0.2823 -0.1056  0.2727
    1DIPC   PO4 4814  12.572  23.559   7.228 -0.2308  0.3515 -0.2222
    1DIPC   GL1 4815  12.667  23.687   6.804  0.0228  0.0101  0.2027
    1DIPC   GL2 4816  12.926  23.942   6.737  0.1141  0.0019 -0.0159
    1DIPC   C1A 4817  12.494  23.894   6.472 -0.0120 -0.2433  0.0191
    1DIPC   D2A 4818  12.373  24.124   6.066  0.0523  0.3020  0.1953
    1DIPC   D3A 4819  12.524  24.182   5.761  0.2115  0.0508 -0.2336
    1DIPC   C4A 4820  12.333  24.518   5.431 -0.3902  0.0426 -0.4106
    1DIPC   C1B 4821  13.301  24.007   6.635  0.0538  0.2261  0.0555
    1DIPC   D2B 4822  13.685  23.923   6.520 -0.3050 -0.0285 -0.0164
    1DIPC   D3B 4823  13.574  24.315   6.270 -0.1476 -0.2405  0.2167
    1DIPC   C4B 4824  13.671  24.433   5.835 -0.0017 -0.3084  0.1415
    1DIPC   NC3 4825  19.572  17.070   6.609 -0.0724 -0.2247 -0.0332
    1DIPC   PO4 4826  19.659  17.487   6.380 -0.2499  0.1395 -0.2032
    1DIPC   GL1 4827  19.661  17.406   5.984  0.3525 -0.3073 -0.0665
    1DIPC   GL2 4828  20.005  17.350   5.775  0.1270 -0.0936  0.1541
    1DIPC   C1A 4829  19.545  17.145   5.640 -0.2634 -0.1767  0.1169
    1DIPC   D2A 4830  19.219  16.895   5.655 -0.1765  0.1795  0.2865
    1DIPC   D3A 4831  19.060  16.796   5.322 -0.0668  0.2667  0.3696
    1DIPC   C4A 4832  18.909  16.504   4.982  0.1590 -0.2017 -0.1657
    1DIPC   C1B 4833  20.110  17.148   5.412 -0.1214 -0.1070 -0.1913
    1DIPC   D2B 4834  19.922  17.112   5.049  0.1432 -0.0273  0.1614
    1DIPC   D3B 4835  19.816  16.828   4.806 -0.0084 -0.3217  0.1013
    1DIPC   C4B 4836  19.487  16.794   4.567  0.1922 -0.3231 -0.0642
    1DIPC   NC3 4837  13.841  16.599   6.271 -0.3661 -0.4372  0.0389
    1DIPC   PO4 4838  13.465  16.822   6.451  0.0995  0.5778  0.2049
    1DIPC   GL1 4839  13.473  17.174   6.065  0.2465  0.0890 -0.1010
    1DIPC   GL2 4840  13.203  17.332   5.942  0.3564 -0.1750 -0.2748
    1DIPC   C1A 4841  13.596  17.382   5.672  0.2355  0.0822 -0.0608
    1DIPC   D2A 4842  13.952  17.465   5.374  0.0584  0.0493 -0.0618
    1DIPC   D3A 4843  14.189  17.455   5.728 -0.1452 -0.1767 -0.1057
    1DIPC   C4A 4844  14.234  17.842   5.753  0.0360 -0.0720 -0.1222
    1DIPC   C1B 4845  13.084  17.461   5.599 -0.2295  0.0292 -0.2559
    1DIPC   D2B 4846  13.389  17.504   5.234  0.0079 -0.4445  0.2095
    1DIPC   D3B 4847  13.157  17.462   4.807 -0.2610 -0.0762  0.0978
    1DIPC   C4B 4848  13.370  17.133   4.584  0.2441 -0.1506 -0.1192
    1DIPC   NC3 4849  17.204  21.164   6.532  0.0412 -0.1478 -0.1125
    1DIPC   PO4 4850  16.695  21.093   6.373 -0.1037  0.0730  0.2266
    1DIPC   GL1 4851  16.639  21.262   5.982 -0.0431 -0.0207  0.0498
    1DIPC   GL2 4852  16.586  21.616   5.982 -0.0494  0.2023  0.0945
    1DIPC   C1A 4853  16.514  21.382   5.495 -0.2173  0.1688 -0.1847
    1DIPC   D2A 4854  16.503  21.311   5.011  0.1549  0.0184 -0.0992
    1DIPC   D3A 4855  16.193  21.622   4.809  0.0623 -0.1976  0.1810
    1DIPC   C4A 4856  16.231  22.037   4.840  0.2684  0.0677  0.0763
    1DIPC   C1B 4857  16.759  21.935   5.743 -0.1173 -0.0918 -0.1423
    1DIPC   D2B 4858  16.885  22.205   5.399  0.0254 -0.0666  0.1013
    1DIPC   D3B 4859  17.154  22.063   5.175 -0.0043  0.0593 -0.0566
    1DIPC   C4B 4860  17.132  21.985   4.674 -0.2001  0.0207  0.0513
    1DIPC   NC3 4861   4.274   2.365   7.810 -0.2072 -0.0573 -0.1041
    1DIPC   PO4 4862   3.964   2.639   7.850 -0.1578  0.2849 -0.0852
    1DIPC   GL1 4863   4.030   2.548   7.345 -0.1123 -0.1422 -0.3644
    1DIPC   GL2 4864   4.405   2.412   7.206 -0.1616  0.1634  0.0177
    1DIPC   C1A 4865   4.009   2.215   7.041  0.3017  0.2782 -0.0071
    1DIPC   D2A 4866   3.923   2.137   6.641 -0.0086  0.2143  0.0440
    1DIPC   D3A 4867   4.210   2.196   6.253  0.0999  0.0762 -0.2520
    1DIPC   C4A 4868   4.130   2.323   5.842 -0.2921 -0.0576  0.1081
    1DIPC   C1B 4869   4.763   2.607   7.006 -0.2033  0.0278  0.1182
    1DIPC   D2B 4870   4.803   2.801   6.690 -0.1943  0.1189  0.0654
    1DIPC   D3B 4871   4.916   2.813   6.188 -0.1083 -0.0540  0.0383
    1DIPC   C4B 4872   5.083   2.330   6.071 -0.0788  0.2342  0.1898
    1DIPC   NC3 4873  23.099  16.669   6.562  0.3250  0.1249  0.1220
    1DIPC   PO4 4874  22.606  16.503   6.486  0.3766 -0.3852  0.0270
    1DIPC   GL1 4875  22.557  16.220   6.144 -0.1374  0.2997  0.2404
    1DIPC   GL2 4876  22.738  15.863   6.153 -0.0796 -0.2576 -0.2235
    1DIPC   C1A 4877  22.174  16.307   5.897 -0.0688 -0.2408  0.0150
    1DIPC   D2A 4878  21.943  16.644   5.709 -0.0531 -0.1860 -0.0956
    1DIPC   D3A 4879  21.765  16.224   5.532 -0.0979 -0.3837 -0.1903
    1DIPC   C4A 4880  21.450  16.035   5.358 -0.0255 -0.1138  0.2619
    1DIPC   C1B 4881  23.051  15.696   5.891  0.3309 -0.0832 -0.0335
    1DIPC   D2B 4882  23.232  16.036   5.697 -0.0524 -0.1146 -0.0599
    1DIPC   D3B 4883  23.610  16.143   5.861 -0.1241 -0.0815  0.1396
    1DIPC   C4B 4884  23.838  16.491   5.990 -0.4390 -0.2841 -0.1017
    1DIPC   NC3 4885  28.106  17.581   7.548  0.0206 -0.0035  0.3126
    1DIPC   PO4 4886  28.273  17.378   7.802  0.1101 -0.2319 -0.0298
    1DIPC   GL1 4887  28.558  17.333   7.508  0.0751 -0.3777  0.1114
    1DIPC   GL2 4888  28.578  17.412   7.192  0.1827 -0.3669 -0.2040
    1DIPC   C1A 4889  28.696  16.896   7.306  0.2591 -0.0766 -0.0800
    1DIPC   D2A 4890  28.778  16.455   7.150 -0.0723  0.2171  0.1625
    1DIPC   D3A 4891  28.521  16.705   6.870  0.0076  0.1886 -0.0478
    1DIPC   C4A 4892  28.188  16.444   6.915 -0.1524  0.0682  0.0385
    1DIPC   C1B 4893  28.832  17.277   6.770 -0.3235 -0.0259  0.0628
    1DIPC   D2B 4894  28.638  17.000   6.482  0.2373 -0.1484  0.0878
    1DIPC   D3B 4895  28.414  16.751   6.327 -0.0416 -0.2873 -0.2380
    1DIPC   C4B 4896  28.424  16.325   6.443 -0.1840  0.0864  0.0838
    1DIPC   NC3 4897  22.746  22.730   7.247  0.1728 -0.0770 -0.0857
    1DIPC   PO4 4898  22.848  22.406   6.979  0.0471 -0.0754 -0.1749
    1DIPC   GL1 4899  22.903  22.272   6.643 -0.1946 -0.0565  0.0474
    1DIPC   GL2 4900  23.053  22.045   6.576 -0.2406 -0.1287  0.1451
    1DIPC   C1A 4901  22.758  22.464   6.234 -0.0281  0.0449  0.1023
    1DIPC   D2A 4902  22.599  22.823   5.880  0.0017  0.0623  0.1579
    1DIPC   D3A 4903  22.626  22.805   5.401  0.0299 -0.0520  0.0536
    1DIPC   C4A 4904  23.025  22.778   5.078  0.1534  0.2214 -0.0481
    1DIPC   C1B 4905  23.183  22.158   6.215 -0.1206 -0.0902  0.1925
    1DIPC   D2B 4906  23.252  22.139   5.743 -0.2411 -0.0556  0.2495
    1DIPC   D3B 4907  23.632  22.418   5.611  0.1575 -0.0009  0.1075
    1DIPC   C4B 4908  23.902  22.250   5.313  0.1821 -0.0691  0.2991
    1DIPC   NC3 4909  28.009   6.869   8.128 -0.2086 -0.1000 -0.1107
    1DIPC   PO4 4910  28.422   6.910   8.210  0.3004  0.1339 -0.3397
    1DIPC   GL1 4911  28.312   7.009   7.781  0.2104 -0.1270 -0.1253
    1DIPC   GL2 4912  28.151   6.736   7.682 -0.0404 -0.2050 -0.2279
    1DIPC   C1A 4913  28.442   7.083   7.444  0.3027 -0.2277  0.0209
    1DIPC   D2A 4914  28.604   7.457   7.438 -0.4308  0.1295 -0.1459
    1DIPC   D3A 4915  28.855   7.465   7.055 -0.0212  0.3270 -0.0801
    1DIPC   C4A 4916  28.889   7.328   6.602 -0.2618  0.0098  0.2521
    1DIPC   C1B 4917  28.468   6.455   7.582 -0.1852 -0.1075  0.0626
    1DIPC   D2B 4918  28.837   6.392   7.485 -0.0154  0.2172 -0.2137
    1DIPC   D3B 4919  28.697   5.929   7.437 -0.4195 -0.3250  0.0497
    1DIPC   C4B 4920  28.707   5.691   7.084 -0.1060  0.0983 -0.1225
    1DIPC   NC3 4921   0.892   8.768   6.645 -0.0689 -0.0211 -0.2884
    1DIPC   PO4 4922   0.804   8.433   6.959 -0.2649  0.1412  0.0466
    1DIPC   GL1 4923   0.651   7.978   6.852 -0.0017 -0.0575  0.0382
    1DIPC   GL2 4924   0.275   7.929   6.964 -0.1379 -0.0755 -0.1041
    1DIPC   C1A 4925   0.701   7.896   6.456  0.0798 -0.0298 -0.1939
    1DIPC   D2A 4926   1.197   7.854   6.216 -0.0124  0.1680  0.0068
    1DIPC   D3A 4927   0.926   7.501   6.255 -0.1017  0.1711  0.1272
    1DIPC   C4A 4928   1.028   7.166   5.986 -0.0880 -0.0425  0.0351
    1DIPC   C1B 4929   0.354   8.245   6.577  0.1364  0.2852  0.0615
    1DIPC   D2B 4930   0.533   8.529   6.335  0.0712  0.2291 -0.0011
    1DIPC   D3B 4931   0.406   8.264   6.028  0.2374 -0.0491 -0.3178
    1DIPC   C4B 4932   0.596   7.903   5.852 -0.0078  0.1510  0.4428
    1DIPC   NC3 4933  15.066  13.737   6.338  0.1646  0.1409 -0.1630
    1DIPC   PO4 4934  15.419  13.932   6.136 -0.0439 -0.0075  0.0096
    1DIPC   GL1 4935  15.270  14.027   5.737 -0.2398  0.0554 -0.1038
    1DIPC   GL2 4936  15.384  13.695   5.638  0.0497  0.0065  0.3123
    1DIPC   C1A 4937  15.300  14.043   5.228 -0.1972  0.2277  0.0875
    1DIPC   D2A 4938  15.144  14.121   4.727 -0.1536 -0.0161 -0.2059
    1DIPC   D3A 4939  15.413  13.990   4.524 -0.5031 -0.0630  0.3393
    1DIPC   C4A 4940  15.584  14.154   4.180 -0.0446 -0.1732  0.0222
    1DIPC   C1B 4941  14.870  13.919   5.494  0.0343  0.0575  0.0602
    1DIPC   D2B 4942  14.438  14.261   5.673  0.1458 -0.0770  0.1156
    1DIPC   D3B 4943  14.870  14.439   5.654  0.2346  0.0994  0.1020
    1DIPC   C4B 4944  14.905  14.337   5.170  0.0073 -0.1343 -0.1694
    1DIPC   NC3 4945  15.239  22.002   6.502  0.0510  0.1262 -0.0439
    1DIPC   PO4 4946  15.201  22.409   6.330 -0.1294 -0.0033  0.3895
    1DIPC   GL1 4947  15.495  22.535   6.045 -0.1317  0.2148  0.1062
    1DIPC   GL2 4948  15.521  22.831   5.962 -0.3026 -0.2918  0.4415
    1DIPC   C1A 4949  15.505  22.536   5.583  0.2312  0.0599  0.0154
    1DIPC   D2A 4950  15.365  22.327   5.158 -0.0573  0.0950 -0.4105
    1DIPC   D3A 4951  15.785  22.266   5.202  0.2694  0.1300  0.2889
    1DIPC   C4A 4952  16.074  22.198   5.472 -0.0754 -0.0448  0.1956
    1DIPC   C1B 4953  15.293  22.966   5.587 -0.3119  0.1285  0.0715
    1DIPC   D2B 4954  15.283  23.055   5.202  0.0188 -0.1659 -0.3601
    1DIPC   D3B 4955  15.640  23.245   5.239  0.0813  0.2098  0.0138
    1DIPC   C4B 4956  15.817  23.512   4.993  0.0992  0.0938  0.0365
    1DIPC   NC3 4957   2.368  27.980   8.045  0.0352  0.1611  0.1795
    1DIPC   PO4 4958   2.250  27.635   7.890 -0.1004 -0.0858 -0.2482
    1DIPC   GL1 4959   2.298  27.536   7.458  0.0899  0.1000 -0.0734
    1DIPC   GL2 4960   1.971  27.555   7.326  0.1656 -0.0494  0.0828
    1DIPC   C1A 4961   2.273  27.478   6.989  0.1569 -0.0849 -0.2646
    1DIPC   D2A 4962   2.041  27.482   6.588 -0.0530  0.1096 -0.0465
    1DIPC   D3A 4963   2.473  27.447   6.424 -0.0020 -0.1819 -0.1296
    1DIPC   C4A 4964   2.694  27.609   6.080 -0.2318  0.2178  0.0614
    1DIPC   C1B 4965   2.005  27.913   7.148 -0.0699  0.1559  0.0847
    1DIPC   D2B 4966   1.957  27.964   6.598 -0.3193 -0.0236 -0.4563
    1DIPC   D3B 4967   1.730  28.290   6.581 -0.1974 -0.1321 -0.1678
    1DIPC   C4B 4968   1.527  28.585   6.260  0.1206 -0.0844 -0.1695
    1DIPC   NC3 4969  17.885  12.765   6.573 -0.0336  0.0796  0.0612
    1DIPC   PO4 4970  18.144  12.431   6.559 -0.2307 -0.2470  0.0856
    1DIPC   GL1 4971  17.890  12.314   6.026  0.2424  0.1037 -0.2878
    1DIPC   GL2 4972  18.053  12.472   5.831 -0.1527  0.1644 -0.1898
    1DIPC   C1A 4973  17.863  12.165   5.442  0.1258  0.1167 -0.2832
    1DIPC   D2A 4974  18.008  12.103   5.051 -0.1694 -0.3356  0.3399
    1DIPC   D3A 4975  18.126  12.201   4.599 -0.1003  0.0658  0.1825
    1DIPC   C4A 4976  17.883  12.392   4.219  0.1615 -0.0128  0.1243
    1DIPC   C1B 4977  18.039  12.729   5.534  0.2194 -0.1167  0.0559
    1DIPC   D2B 4978  17.811  12.865   5.259  0.0977 -0.0762 -0.1088
    1DIPC   D3B 4979  17.706  12.970   4.878 -0.1128 -0.2311 -0.2086
    1DIPC   C4B 4980  17.274  13.002   4.916 -0.2461 -0.1201  0.0351
    1DIPC   NC3 4981  22.503  19.390   6.483  0.1392  0.2159 -0.0776
    1DIPC   PO4 4982  22.110  19.534   6.209  0.1177 -0.1182  0.0990
    1DIPC   GL1 4983  22.269  19.882   5.902  0.0970 -0.0656 -0.0266
    1DIPC   GL2 4984  22.186  19.701   5.678  0.0215 -0.0033 -0.3643
    1DIPC   C1A 4985  22.258  20.278   5.641 -0.0402 -0.0596  0.0227
    1DIPC   D2A 4986  22.237  20.224   5.178  0.0189 -0.1615 -0.2974
    1DIPC   D3A 4987  21.879  19.828   5.264 -0.0924  0.0159  0.3454
    1DIPC   C4A 4988  21.694  19.542   4.902  0.2094 -0.0915 -0.2013
    1DIPC   C1B 4989  22.546  19.873   5.378 -0.0304 -0.0322 -0.1386
    1DIPC   D2B 4990  22.660  19.999   4.900 -0.3243  0.1728  0.3349
    1DIPC   D3B 4991  22.301  20.414   4.718  0.0878  0.3200 -0.1282
    1DIPC   C4B 4992  21.903  20.500   4.691 -0.1874  0.0438 -0.0584
    1DIPC   NC3 4993  10.662  14.086   5.949  0.0721 -0.1467  0.3679
    1DIPC   PO4 4994  10.937  14.149   5.655  0.0405 -0.0108  0.3495
    1DIPC   GL1 4995  10.980  14.567   5.229 -0.0213  0.1843  0.0596
    1DIPC   GL2 4996  10.678  14.721   5.192 -0.2552 -0.0796  0.2718
    1DIPC   C1A 4997  11.015  14.473   4.780 -0.2192  0.1294 -0.1906
    1DIPC   D2A 4998  10.802  14.230   4.382  0.1274  0.0131 -0.0864
    1DIPC   D3A 4999  10.574  14.585   4.408 -0.1017 -0.0564  0.3255
    1DIPC   C4A 5000  10.113  14.603   4.336  0.1137  0.2152 -0.0991
    1DIPC   C1B 5001  10.572  14.918   4.828 -0.0638  0.2366 -0.0541
    1DIPC   D2B 5002  10.611  15.325   4.595 -0.3843  0.1203  0.3368
    1DIPC   D3B 5003  10.910  15.463   4.280 -0.2008  0.4995  0.1010
    1DIPC   C4B 5004  11.241  15.716   4.014 -0.0650  0.2833 -0.0946
    1DIPC   NC3 5005  15.996  21.129   6.710 -0.3484  0.1128 -0.0147
    1DIPC   PO4 5006  15.726  21.517   6.646  0.3173 -0.0292  0.1539
    1DIPC   GL1 5007  15.675  21.212   6.151 -0.4425 -0.1436 -0.2323
    1DIPC   GL2 5008  15.272  21.193   6.044 -0.1527  0.2211  0.1706
    1DIPC   C1A 5009  15.745  20.973   5.840  0.4280 -0.1484 -0.3136
    1DIPC   D2A 5010  15.868  20.892   5.462 -0.0258 -0.1303  0.0052
    1DIPC   D3A 5011  16.266  20.937   5.694  0.1089  0.0301  0.2371
    1DIPC   C4A 5012  16.065  21.379   5.799 -0.0746  0.0385  0.3134
    1DIPC   C1B 5013  15.414  21.353   5.709 -0.0991 -0.3170 -0.0330
    1DIPC   D2B 5014  15.312  21.589   5.169  0.0684  0.2374  0.2095
    1DIPC   D3B 5015  15.497  21.271   5.218 -0.0440  0.1765 -0.0231
    1DIPC   C4B 5016  15.605  21.011   4.790  0.2927  0.3382 -0.0754
    1DIPC   NC3 5017  14.987   9.185   5.681  0.1042 -0.0634 -0.0476
    1DIPC   PO4 5018  14.954   9.583   5.736 -0.1146  0.1580  0.1240
    1DIPC   GL1 5019  14.990   9.538   5.320 -0.0356  0.0245  0.1703
    1DIPC   GL2 5020  14.739   9.342   5.237  0.0602 -0.0671  0.1264
    1DIPC   C1A 5021  14.905   9.589   4.840 -0.3425 -0.0154 -0.0331
    1DIPC   D2A 5022  14.635   9.801   4.543  0.3733  0.1324 -0.1046
    1DIPC   D3A 5023  14.451  10.154   4.283  0.0596  0.0531  0.1367
    1DIPC   C4A 5024  14.261  10.568   4.429 -0.0896  0.0915  0.0413
    1DIPC   C1B 5025  14.845   9.109   4.784  0.0424 -0.1650 -0.2064
    1DIPC   D2B 5026  14.878   9.116   4.378 -0.0107  0.2886  0.2808
    1DIPC   D3B 5027  14.517   8.846   4.345  0.0109  0.0725  0.2205
    1DIPC   C4B 5028  14.599   8.409   4.227  0.2111  0.0879 -0.1008
    1DIPC   NC3 5029  18.427  20.515   6.250  0.1347 -0.2470 -0.0050
    1DIPC   PO4 5030  18.746  20.318   5.913  0.0288 -0.0776 -0.0566
    1DIPC   GL1 5031  18.637  20.501   5.599  0.0174 -0.2938  0.0733
    1DIPC   GL2 5032  18.538  20.804   5.611  0.1539  0.0325 -0.0026
    1DIPC   C1A 5033  18.156  20.496   5.468  0.0399  0.1417  0.1108
    1DIPC   D2A 5034  17.800  20.441   5.514  0.1248  0.5346  0.2362
    1DIPC   D3A 5035  17.551  20.547   5.162  0.0940 -0.0470  0.2125
    1DIPC   C4A 5036  17.678  20.511   4.743 -0.0125 -0.0782  0.4882
    1DIPC   C1B 5037  18.510  20.737   5.145 -0.1010 -0.0087 -0.4429
    1DIPC   D2B 5038  18.438  20.538   4.754 -0.0859  0.1319  0.0743
    1DIPC   D3B 5039  18.111  20.714   4.577  0.1828  0.2643 -0.0404
    1DIPC   C4B 5040  18.030  20.982   4.240  0.2154 -0.0627 -0.4368
    1DIPC   NC3 5041  17.042   3.548   6.715 -0.0002  0.2723 -0.0330
    1DIPC   PO4 5042  17.002   3.601   6.344 -0.3165  0.0020 -0.1325
    1DIPC   GL1 5043  17.181   3.496   6.045 -0.2994  0.1678  0.2786
    1DIPC   GL2 5044  16.943   3.534   5.789  0.2077  0.1949 -0.1997
    1DIPC   C1A 5045  17.552   3.503   5.608  0.1679 -0.2252  0.1234
    1DIPC   D2A 5046  17.704   3.750   5.210  0.1805 -0.1329  0.2607
    1DIPC   D3A 5047  17.688   3.691   4.748  0.1458  0.0110  0.1095
    1DIPC   C4A 5048  17.448   4.018   4.571 -0.0227 -0.0248  0.0418
    1DIPC   C1B 5049  16.920   3.149   5.570  0.0755  0.2728 -0.0850
    1DIPC   D2B 5050  17.007   2.865   5.248  0.0119  0.0487 -0.0388
    1DIPC   D3B 5051  17.472   2.944   5.428 -0.3762  0.0459  0.2950
    1DIPC   C4B 5052  17.354   2.772   5.817 -0.3868 -0.3718 -0.2870
    1DIPC   NC3 5053  11.121  11.624   6.573 -0.2904  0.1825 -0.1934
    1DIPC   PO4 5054  10.918  11.498   6.189  0.2143  0.0428 -0.0724
    1DIPC   GL1 5055  10.837  11.813   5.873  0.2341 -0.0621 -0.1356
    1DIPC   GL2 5056  11.059  11.931   5.714 -0.0456  0.0371  0.0981
    1DIPC   C1A 5057  10.787  11.828   5.357 -0.1253  0.1068 -0.1238
    1DIPC   D2A 5058  10.955  11.897   4.952  0.0379  0.3143 -0.2719
    1DIPC   D3A 5059  10.925  11.933   4.514  0.2258 -0.2395  0.2021
    1DIPC   C4A 5060  11.106  12.095   4.221  0.0850  0.0526  0.0899
    1DIPC   C1B 5061  11.287  12.073   5.382 -0.1048  0.2110  0.0623
    1DIPC   D2B 5062  11.370  12.232   4.912  0.1757 -0.0248  0.4361
    1DIPC   D3B 5063  11.288  12.622   5.181 -0.1226  0.0995 -0.2408
    1DIPC   C4B 5064  11.347  13.089   4.895  0.1383 -0.1687 -0.2727
    1DIPC   NC3 5065   2.553   6.592   8.089 -0.3535  0.2528  0.2398
    1DIPC   PO4 5066   2.339   6.741   7.650 -0.1647  0.4531  0.0572
    1DIPC   GL1 5067   2.301   6.546   7.301  0.3036 -0.2486 -0.2943
    1DIPC   GL2 5068   2.530   6.620   7.110 -0.1593 -0.2034 -0.0948
    1DIPC   C1A 5069   2.193   6.351   6.924  0.0418  0.3008 -0.1994
    1DIPC   D2A 5070   2.360   6.078   6.614 -0.1730 -0.0845  0.0254
    1DIPC   D3A 5071   2.456   6.170   6.206  0.0594  0.0466  0.2416
    1DIPC   C4A 5072   2.369   5.926   5.884  0.0650  0.3527  0.0357
    1DIPC   C1B 5073   2.469   6.670   6.657  0.0642  0.2045  0.0974
    1DIPC   D2B 5074   2.252   6.839   6.346 -0.0424  0.2912  0.0952
    1DIPC   D3B 5075   2.557   7.174   6.324  0.3098  0.3184  0.0392
    1DIPC   C4B 5076   2.600   7.598   6.056  0.1522  0.0803  0.2309
    1DIPC   NC3 5077   5.881  11.385   7.211  0.0246  0.0534  0.1849
    1DIPC   PO4 5078   5.785  11.126   6.839  0.1838  0.1566 -0.1282
    1DIPC   GL1 5079   5.741  11.448   6.428 -0.4803  0.0039 -0.2838
    1DIPC   GL2 5080   6.025  11.272   6.276 -0.0595 -0.0228 -0.2347
    1DIPC   C1A 5081   5.493  11.500   6.071  0.3863  0.1450  0.1870
    1DIPC   D2A 5082   5.264  11.193   5.758  0.2606  0.0220  0.3635
    1DIPC   D3A 5083   5.146  11.614   5.666 -0.0547 -0.0793 -0.0009
    1DIPC   C4A 5084   5.096  11.852   6.007 -0.0041 -0.2589  0.1163
    1DIPC   C1B 5085   5.957  11.173   5.941  0.2256 -0.0376  0.1869
    1DIPC   D2B 5086   5.822  11.144   5.582 -0.0934 -0.0297 -0.0245
    1DIPC   D3B 5087   5.666  11.465   5.633  0.2500  0.3275 -0.1095
    1DIPC   C4B 5088   5.887  11.756   5.916  0.1542  0.1852  0.0440
    1DIPC   NC3 5089  14.362  19.054   7.171  0.0774  0.0961  0.1647
    1DIPC   PO4 5090  14.140  19.292   6.926 -0.0030 -0.0613  0.1962
    1DIPC   GL1 5091  14.251  19.119   6.471 -0.4087  0.0917 -0.2305
    1DIPC   GL2 5092  14.267  18.743   6.325  0.2608  0.0308 -0.2062
    1DIPC   C1A 5093  14.637  19.329   6.255  0.0283  0.1200  0.4140
    1DIPC   D2A 5094  14.808  19.374   5.844  0.2077  0.1728 -0.0932
    1DIPC   D3A 5095  14.414  19.586   5.583  0.2462 -0.2622 -0.0605
    1DIPC   C4A 5096  14.260  20.085   5.594 -0.2744 -0.1069  0.1753
    1DIPC   C1B 5097  14.280  18.998   5.941  0.0543 -0.2837 -0.3972
    1DIPC   D2B 5098  14.185  19.193   5.511 -0.0946  0.2571 -0.1408
    1DIPC   D3B 5099  13.798  19.127   5.146 -0.3295 -0.0850 -0.0044
    1DIPC   C4B 5100  13.586  19.500   4.902  0.0715  0.1460  0.3540
    1DIPC   NC3 5101  16.576  20.215   6.210  0.1234 -0.0451 -0.3931
    1DIPC   PO4 5102  16.974  20.255   5.946  0.1792 -0.1237  0.1817
    1DIPC   GL1 5103  17.079  20.473   5.529 -0.1974  0.2877 -0.2310
    1DIPC   GL2 5104  17.350  20.643   5.552 -0.1643 -0.1933 -0.3249
    1DIPC   C1A 5105  17.022  20.385   5.048  0.1913 -0.0592 -0.1633
    1DIPC   D2A 5106  17.034  20.293   4.654  0.3053 -0.2006 -0.0891
    1DIPC   D3A 5107  17.120  20.033   4.356 -0.2247 -0.0317 -0.0579
    1DIPC   C4A 5108  17.550  20.063   4.482 -0.1995 -0.0752  0.2700
    1DIPC   C1B 5109  17.558  21.007   5.379  0.2972 -0.0853 -0.1847
    1DIPC   D2B 5110  17.643  21.149   4.886 -0.2358  0.1133  0.1010
    1DIPC   D3B 5111  17.988  21.280   4.628  0.1696 -0.2857 -0.0386
    1DIPC   C4B 5112  18.128  21.750   4.574  0.2061 -0.0641  0.1299
    1DIPC   NC3 5113   9.539  27.319   7.704  0.2535 -0.1276 -0.1973
    1DIPC   PO4 5114   9.573  27.688   7.467  0.0687 -0.1645 -0.0845
    1DIPC   GL1 5115   9.778  27.672   7.070 -0.0750 -0.0890  0.1576
    1DIPC   GL2 5116   9.664  27.941   6.964  0.1389  0.0392  0.1143
    1DIPC   C1A 5117   9.619  27.428   6.688 -0.2126 -0.4478 -0.0367
    1DIPC   D2A 5118   9.525  27.570   6.290 -0.1580 -0.1775 -0.3046
    1DIPC   D3A 5119   9.154  27.255   6.064  0.0248  0.3303 -0.4562
    1DIPC   C4A 5120   8.849  27.413   5.912  0.0130 -0.2234  0.0789
    1DIPC   C1B 5121   9.300  27.872   6.617 -0.0090  0.0496  0.3767
    1DIPC   D2B 5122   9.105  27.486   6.569  0.1651  0.1231  0.1515
    1DIPC   D3B 5123   8.668  27.538   6.558  0.0508  0.3085  0.1605
    1DIPC   C4B 5124   8.485  27.709   6.840  0.6067 -0.1270 -0.1336
    1DIPC   NC3 5125  13.051  10.466   5.467 -0.0049  0.1572 -0.0002
    1DIPC   PO4 5126  13.408  10.627   5.467 -0.3460 -0.0617 -0.2544
    1DIPC   GL1 5127  13.317  10.586   5.061  0.2178 -0.0078 -0.1558
    1DIPC   GL2 5128  13.062  10.567   4.836 -0.0354  0.0644  0.0140
    1DIPC   C1A 5129  13.567  10.383   4.789 -0.0784 -0.2099 -0.1647
    1DIPC   D2A 5130  13.887  10.278   4.555  0.0505  0.5000 -0.3212
    1DIPC   D3A 5131  13.839  10.388   4.285 -0.1857  0.2975  0.3441
    1DIPC   C4A 5132  14.052  10.737   3.980 -0.0822 -0.1461  0.1416
    1DIPC   C1B 5133  13.069  10.102   4.710  0.0885  0.1609 -0.1734
    1DIPC   D2B 5134  12.940   9.789   4.438 -0.0214  0.1743 -0.1043
    1DIPC   D3B 5135  13.176   9.989   4.085  0.0102 -0.0918  0.1070
    1DIPC   C4B 5136  12.984  10.276   3.791  0.1026  0.1433 -0.2153
    1DIPC   NC3 5137   8.104  10.409   6.195  0.0006  0.0014  0.1332
    1DIPC   PO4 5138   7.730  10.226   6.293  0.1774  0.0030  0.1561
    1DIPC   GL1 5139   7.961  10.230   5.762  0.0392 -0.2097  0.0873
    1DIPC   GL2 5140   7.961  10.522   5.703 -0.0807 -0.0209 -0.0231
    1DIPC   C1A 5141   8.318  10.325   5.486  0.0693 -0.0328  0.1370
    1DIPC   D2A 5142   8.541  10.641   5.288  0.1707 -0.1365 -0.1283
    1DIPC   D3A 5143   8.618  10.499   4.756  0.0295  0.1268 -0.1659
    1DIPC   C4A 5144   9.029  10.830   4.581 -0.2015  0.0594  0.0157
    1DIPC   C1B 5145   7.822  10.610   5.311 -0.0117  0.1582 -0.1980
    1DIPC   D2B 5146   7.680  10.706   4.857 -0.0007  0.2148 -0.0639
    1DIPC   D3B 5147   7.825  10.976   4.486 -0.1669  0.0812 -0.0983
    1DIPC   C4B 5148   8.338  11.033   4.584 -0.0122  0.0267  0.2916
    1DIPC   NC3 5149  22.799   9.319   6.626  0.0326  0.0292  0.0883
    1DIPC   PO4 5150  23.063   8.957   6.586  0.0547  0.1212 -0.0323
    1DIPC   GL1 5151  23.500   8.899   6.399 -0.0232  0.1754  0.0634
    1DIPC   GL2 5152  23.705   9.141   6.481  0.0793 -0.1396  0.1301
    1DIPC   C1A 5153  23.477   8.794   6.003 -0.0503 -0.2212 -0.3105
    1DIPC   D2A 5154  23.788   8.954   5.684 -0.2657  0.1294  0.0221
    1DIPC   D3A 5155  23.791   8.915   5.266 -0.0513 -0.1353 -0.1766
    1DIPC   C4A 5156  24.071   8.595   5.220  0.2820  0.0897  0.0898
    1DIPC   C1B 5157  23.864   9.285   6.086  0.2057  0.1023  0.3044
    1DIPC   D2B 5158  23.926   9.401   5.714  0.0518  0.5393  0.1381
    1DIPC   D3B 5159  23.689   9.431   5.392  0.0752  0.0024 -0.0415
    1DIPC   C4B 5160  23.814   9.594   4.934 -0.3200  0.1000  0.1179
    1DIPC   NC3 5161   0.709  20.536   7.931  0.2624  0.1567 -0.0053
    1DIPC   PO4 5162   0.773  20.635   7.436 -0.1044  0.3221 -0.1861
    1DIPC   GL1 5163   0.903  20.699   7.048  0.0753 -0.0423  0.2723
    1DIPC   GL2 5164   0.885  21.009   6.831  0.1658 -0.5647  0.1534
    1DIPC   C1A 5165   1.111  20.380   6.767 -0.0722  0.1025 -0.1879
    1DIPC   D2A 5166   1.162  20.296   6.322  0.0599 -0.2042  0.1274
    1DIPC   D3A 5167   1.010  20.385   5.853  0.0333  0.1394 -0.2082
    1DIPC   C4A 5168   0.709  20.257   5.563  0.0299  0.0073 -0.2914
    1DIPC   C1B 5169   1.012  21.156   6.437 -0.1716  0.0028 -0.1683
    1DIPC   D2B 5170   1.462  21.301   6.326 -0.1022 -0.1379  0.1702
    1DIPC   D3B 5171   1.704  21.103   5.957 -0.1080  0.2039 -0.0503
    1DIPC   C4B 5172   1.514  21.256   5.466 -0.2411 -0.0405 -0.0805
    1DIPC   NC3 5173  14.126   8.577   5.620  0.0246 -0.0526  0.2248
    1DIPC   PO4 5174  13.808   8.355   5.738  0.1027  0.1012 -0.2499
    1DIPC   GL1 5175  13.544   8.187   5.409 -0.1886  0.0567  0.0246
    1DIPC   GL2 5176  13.151   8.093   5.478 -0.0714  0.2155  0.1667
    1DIPC   C1A 5177  13.496   8.042   4.923 -0.1641 -0.0797  0.1055
    1DIPC   D2A 5178  13.826   7.830   4.609 -0.0339  0.0023 -0.0055
    1DIPC   D3A 5179  13.757   8.102   4.270  0.0959  0.0649  0.0440
    1DIPC   C4A 5180  13.592   7.862   3.781 -0.0611  0.1963 -0.2685
    1DIPC   C1B 5181  13.018   7.972   5.128  0.0937  0.0265  0.2445
    1DIPC   D2B 5182  13.024   7.921   4.712 -0.1260  0.0096 -0.0829
    1DIPC   D3B 5183  13.348   7.862   4.315 -0.0059  0.0479 -0.1257
    1DIPC   C4B 5184  13.542   7.504   4.156 -0.2727  0.1655 -0.2033
    1DIPC   NC3 5185   6.115   5.401   7.741  0.2936 -0.1136  0.0141
    1DIPC   PO4 5186   6.100   5.019   7.674  0.0669  0.6568  0.2660
    1DIPC   GL1 5187   5.842   4.977   7.375 -0.0988  0.0199  0.1425
    1DIPC   GL2 5188   6.065   4.778   7.125  0.1366  0.1266  0.0650
    1DIPC   C1A 5189   5.728   5.086   6.913 -0.0684  0.2919  0.0445
    1DIPC   D2A 5190   5.694   4.944   6.466  0.4756  0.0391  0.1626
    1DIPC   D3A 5191   5.879   5.219   6.117  0.0311 -0.0487 -0.2337
    1DIPC   C4A 5192   5.934   5.104   5.677  0.1943 -0.0656  0.0067
    1DIPC   C1B 5193   5.730   4.494   6.863 -0.1880 -0.2188 -0.2931
    1DIPC   D2B 5194   5.591   4.290   6.508 -0.1240 -0.0565 -0.0795
    1DIPC   D3B 5195   5.642   4.119   6.100  0.0870 -0.2580  0.0048
    1DIPC   C4B 5196   5.608   4.247   5.656 -0.1075 -0.0045 -0.1077
    1DIPC   NC3 5197  13.060  25.393   7.021  0.1358 -0.0277  0.1481
    1DIPC   PO4 5198  13.189  25.741   6.852 -0.2432  0.4100  0.2651
    1DIPC   GL1 5199  12.973  25.540   6.509  0.1233  0.2902 -0.1027
    1DIPC   GL2 5200  12.701  25.502   6.498  0.2418 -0.1378  0.2699
    1DIPC   C1A 5201  13.033  25.180   6.252 -0.2859  0.0893 -0.0115
    1DIPC   D2A 5202  12.735  25.110   5.927 -0.1869  0.3106  0.2590
    1DIPC   D3A 5203  13.124  25.274   5.718  0.2194 -0.2983  0.0299
    1DIPC   C4A 5204  13.118  25.149   5.346  0.0099  0.0409 -0.1491
    1DIPC   C1B 5205  12.736  25.565   6.030 -0.1228 -0.0581 -0.0371
    1DIPC   D2B 5206  12.589  25.777   5.674 -0.2650 -0.0844  0.1393
    1DIPC   D3B 5207  12.842  25.547   5.425  0.2754  0.1666 -0.1107
    1DIPC   C4B 5208  13.062  25.587   5.087 -0.0569  0.0282  0.1611
    1DIPC   NC3 5209  12.613  26.354   6.950  0.3908 -0.1234 -0.2378
    1DIPC   PO4 5210  12.769  26.663   6.780  0.1729  0.0641  0.3373
    1DIPC   GL1 5211  12.488  26.587   6.470  0.0134  0.0534  0.0847
    1DIPC   GL2 5212  12.486  26.216   6.441  0.2509  0.0861 -0.3598
    1DIPC   C1A 5213  12.323  26.519   5.993  0.0509  0.0899  0.0930
    1DIPC   D2A 5214  12.351  26.290   5.630 -0.3005  0.0996  0.1751
    1DIPC   D3A 5215  12.109  25.844   5.616  0.1898  0.4875 -0.1030
    1DIPC   C4A 5216  11.629  25.941   5.522 -0.0508 -0.0694  0.3769
    1DIPC   C1B 5217  12.838  26.076   6.060  0.1081 -0.1427  0.1081
    1DIPC   D2B 5218  13.043  25.941   5.816  0.1178  0.0118 -0.0916
    1DIPC   D3B 5219  13.042  26.099   5.384  0.1264  0.2251 -0.1330
    1DIPC   C4B 5220  12.675  26.009   5.228  0.1186  0.1171 -0.5696
    1DIPC   NC3 5221   2.052   9.614   7.220 -0.0329 -0.2074 -0.0445
    1DIPC   PO4 5222   2.097   9.199   7.194  0.3108  0.0883  0.3691
    1DIPC   GL1 5223   2.302   9.250   6.827  0.3247  0.0505  0.0889
    1DIPC   GL2 5224   2.107   9.329   6.658 -0.3750  0.0161 -0.2060
    1DIPC   C1A 5225   2.640   9.163   6.562  0.4410  0.0638  0.0974
    1DIPC   D2A 5226   2.761   9.083   6.140  0.1719  0.1450 -0.1060
    1DIPC   D3A 5227   3.192   9.182   6.294 -0.1265  0.3934  0.1175
    1DIPC   C4A 5228   3.265   9.133   6.685 -0.3265 -0.1819  0.1017
    1DIPC   C1B 5229   2.171   9.350   6.224 -0.0379  0.0460  0.0586
    1DIPC   D2B 5230   2.411   9.601   5.932  0.1534 -0.0557  0.0913
    1DIPC   D3B 5231   2.591   9.346   5.776 -0.0541 -0.0229  0.0482
    1DIPC   C4B 5232   2.936   9.562   5.659 -0.2913 -0.2483  0.2044
    1DIPC   NC3 5233   3.007  16.989   7.917  0.0173  0.3122  0.1881
    1DIPC   PO4 5234   2.981  17.200   7.513  0.1819 -0.2672 -0.0145
    1DIPC   GL1 5235   2.760  17.042   7.160  0.2197  0.2726  0.0653
    1DIPC   GL2 5236   2.845  17.227   6.768  0.0845  0.1160  0.1221
    1DIPC   C1A 5237   2.484  16.889   6.814  0.1924 -0.1424  0.2928
    1DIPC   D2A 5238   2.329  16.936   6.336  0.0303  0.0266 -0.2143
    1DIPC   D3A 5239   2.286  16.474   6.401 -0.5480 -0.1013 -0.1593
    1DIPC   C4A 5240   2.169  16.442   6.844 -0.1285 -0.0165  0.0952
    1DIPC   C1B 5241   2.696  17.290   6.438  0.0715 -0.0122 -0.1798
    1DIPC   D2B 5242   2.959  17.350   6.057  0.1860 -0.0260  0.1936
    1DIPC   D3B 5243   2.942  17.002   5.655  0.3025  0.1009 -0.0640
    1DIPC   C4B 5244   2.727  16.731   5.374 -0.0165  0.2941  0.1683
    1DIPC   NC3 5245  12.438  28.361   7.269  0.0423 -0.0623  0.1764
    1DIPC   PO4 5246  12.442  28.683   6.979 -0.1240  0.1028 -0.1037
    1DIPC   GL1 5247  12.279  28.364   6.735 -0.1517 -0.0369  0.1449
    1DIPC   GL2 5248  12.316  28.090   6.840  0.0129 -0.1426  0.0044
    1DIPC   C1A 5249  11.980  28.291   6.442 -0.0143  0.0950  0.0796
    1DIPC   D2A 5250  11.738  28.126   6.142 -0.1187 -0.1729 -0.0939
    1DIPC   D3A 5251  11.570  28.419   5.862 -0.0029 -0.1597  0.1043
    1DIPC   C4A 5252  11.353  28.371   5.451 -0.1983 -0.1587  0.2434
    1DIPC   C1B 5253  12.401  28.044   6.375  0.0234 -0.0246  0.2010
    1DIPC   D2B 5254  12.221  27.985   6.070 -0.1367 -0.1312  0.0390
    1DIPC   D3B 5255  12.062  28.364   5.854  0.1166  0.2062 -0.2422
    1DIPC   C4B 5256  11.864  28.211   5.413 -0.1489 -0.1490 -0.0098
    1DIPC   NC3 5257  21.517  23.814   6.834  0.3879 -0.0157 -0.0411
    1DIPC   PO4 5258  21.125  23.527   6.888  0.0648 -0.0235  0.1734
    1DIPC   GL1 5259  21.057  23.529   6.436 -0.2119  0.1506  0.0520
    1DIPC   GL2 5260  21.378  23.595   6.394  0.0098  0.2524  0.3731
    1DIPC   C1A 5261  20.972  23.467   6.083 -0.3262  0.1834  0.4108
    1DIPC   D2A 5262  20.755  23.373   5.692  0.0888  0.4086 -0.1046
    1DIPC   D3A 5263  20.926  23.006   5.410  0.1967  0.1699 -0.1135
    1DIPC   C4A 5264  21.184  23.211   5.120  0.1059 -0.0621 -0.0127
    1DIPC   C1B 5265  21.544  23.935   6.175 -0.3797  0.1176  0.1625
    1DIPC   D2B 5266  21.616  24.313   5.955 -0.2276  0.0070  0.0508
    1DIPC   D3B 5267  21.785  24.059   5.526 -0.0037 -0.1504 -0.2550
    1DIPC   C4B 5268  21.853  24.018   5.179  0.2417  0.0727  0.1698
    1DIPC   NC3 5269  22.432  15.768   6.543 -0.1016  0.1476 -0.0102
    1DIPC   PO4 5270  22.076  15.638   6.440  0.1067  0.1922 -0.1577
    1DIPC   GL1 5271  22.127  15.815   6.018  0.2580 -0.0522 -0.4745
    1DIPC   GL2 5272  21.907  15.712   5.746  0.0950 -0.0409 -0.0074
    1DIPC   C1A 5273  22.325  15.888   5.591 -0.2751  0.0218 -0.1547
    1DIPC   D2A 5274  22.673  15.665   5.424  0.0322 -0.3139  0.2258
    1DIPC   D3A 5275  22.587  15.985   5.113  0.0812  0.1081 -0.3740
    1DIPC   C4A 5276  22.563  15.839   4.724  0.2078  0.1866  0.0552
    1DIPC   C1B 5277  22.135  15.442   5.480 -0.1432 -0.0981  0.1877
    1DIPC   D2B 5278  22.309  15.541   5.062  0.1262  0.1100 -0.2446
    1DIPC   D3B 5279  22.069  15.845   5.159  0.2308 -0.1265  0.3654
    1DIPC   C4B 5280  21.808  16.126   4.933 -0.1136  0.0215 -0.0944
    1DIPC   NC3 5281   9.397  15.716   5.730 -0.1173 -0.0267  0.0335
    1DIPC   PO4 5282   9.767  15.762   5.607 -0.2674 -0.2885  0.0222
    1DIPC   GL1 5283   9.469  15.734   5.214 -0.0438  0.0699  0.0481
    1DIPC   GL2 5284   9.294  15.410   5.270  0.2552  0.0008  0.3415
    1DIPC   C1A 5285   9.292  16.037   4.963  0.3186  0.0883 -0.0948
    1DIPC   D2A 5286   9.476  16.339   4.650 -0.0390 -0.1315 -0.0912
    1DIPC   D3A 5287   9.248  16.567   4.751 -0.0423  0.1607  0.0411
    1DIPC   C4A 5288   9.194  16.938   4.581  0.0037  0.2679 -0.1131
    1DIPC   C1B 5289   9.157  15.176   4.971  0.2969 -0.0754 -0.0095
    1DIPC   D2B 5290   8.988  14.747   4.847  0.0018 -0.1806  0.0599
    1DIPC   D3B 5291   9.286  14.676   4.589  0.2545  0.1709  0.2322
    1DIPC   C4B 5292   9.572  14.382   4.548  0.0286  0.2977 -0.2629
    1DIPC   NC3 5293   3.614   3.298   7.799 -0.0053  0.0369 -0.1993
    1DIPC   PO4 5294   4.016   3.570   7.762 -0.1965 -0.1219  0.4007
    1DIPC   GL1 5295   4.029   3.603   7.273  0.0445  0.0829 -0.0455
    1DIPC   GL2 5296   4.095   3.364   7.068 -0.3060 -0.1208 -0.1836
    1DIPC   C1A 5297   4.169   3.805   6.784 -0.2349 -0.1638 -0.1270
    1DIPC   D2A 5298   4.339   4.026   6.359 -0.0146 -0.0286  0.0220
    1DIPC   D3A 5299   4.114   3.699   6.179 -0.0652 -0.0387  0.0005
    1DIPC   C4A 5300   4.269   3.274   6.003  0.0762 -0.0637  0.0133
    1DIPC   C1B 5301   4.357   2.972   6.844  0.0030  0.0820  0.0552
    1DIPC   D2B 5302   4.368   2.494   6.640 -0.0684 -0.2487  0.1657
    1DIPC   D3B 5303   4.456   2.047   6.783  0.0749  0.0586 -0.0701
    1DIPC   C4B 5304   4.731   1.885   7.093 -0.0977  0.2000  0.0786
    1DIPC   NC3 5305  21.424  12.259   6.664  0.2004 -0.2223 -0.3946
    1DIPC   PO4 5306  21.336  12.569   6.516  0.0083 -0.1018  0.0477
    1DIPC   GL1 5307  21.539  12.498   6.154 -0.3033 -0.0114  0.1441
    1DIPC   GL2 5308  21.427  12.340   5.920  0.1587 -0.0840  0.1303
    1DIPC   C1A 5309  21.899  12.572   5.832  0.1056 -0.1546  0.0526
    1DIPC   D2A 5310  22.151  12.276   5.624 -0.3032  0.0908  0.0643
    1DIPC   D3A 5311  22.260  12.349   5.184  0.1278 -0.1028  0.3404
    1DIPC   C4A 5312  22.670  12.427   5.054  0.1020 -0.1231 -0.1930
    1DIPC   C1B 5313  21.313  12.415   5.625  0.1249 -0.0502  0.1428
    1DIPC   D2B 5314  21.236  12.588   5.156 -0.4214 -0.1283 -0.3612
    1DIPC   D3B 5315  21.465  12.826   5.408 -0.0922  0.0905  0.0562
    1DIPC   C4B 5316  21.446  12.866   5.826 -0.1027  0.0431  0.1795
    1DIPC   NC3 5317  21.017  22.531   6.819  0.0896 -0.2885  0.0437
    1DIPC   PO4 5318  20.835  22.282   6.548  0.1353 -0.3174  0.0732
    1DIPC   GL1 5319  20.627  22.375   6.211  0.3373  0.0269 -0.3940
    1DIPC   GL2 5320  20.426  22.699   6.411 -0.0372 -0.0643 -0.0936
    1DIPC   C1A 5321  20.431  22.329   5.841  0.1373 -0.1548  0.0403
    1DIPC   D2A 5322  20.584  22.615   5.415  0.1724  0.2996 -0.0166
    1DIPC   D3A 5323  20.393  22.373   5.276  0.0543  0.2032 -0.1653
    1DIPC   C4A 5324  20.386  22.160   4.800 -0.0816 -0.2880 -0.2098
    1DIPC   C1B 5325  20.690  22.760   5.912  0.0574  0.4562  0.2693
    1DIPC   D2B 5326  20.947  22.498   5.781  0.2386  0.2131  0.0739
    1DIPC   D3B 5327  21.076  22.516   5.359  0.0826 -0.0624  0.0900
    1DIPC   C4B 5328  20.935  22.775   4.936 -0.2620  0.0105  0.1101
    1DIPC   NC3 5329   6.447   9.667   7.031  0.0955 -0.0057 -0.2463
    1DIPC   PO4 5330   6.153   9.859   6.819  0.3132  0.0226  0.0095
    1DIPC   GL1 5331   5.997   9.925   6.518  0.0272 -0.5658  0.3102
    1DIPC   GL2 5332   6.012  10.124   6.243  0.0307  0.0363  0.0844
    1DIPC   C1A 5333   5.614   9.842   6.322  0.3339 -0.0613 -0.2476
    1DIPC   D2A 5334   5.102   9.989   6.211  0.4155  0.1204 -0.0123
    1DIPC   D3A 5335   4.646  10.027   6.136 -0.1007  0.1034 -0.0502
    1DIPC   C4A 5336   4.412  10.032   5.700 -0.1346  0.1816 -0.0211
    1DIPC   C1B 5337   5.963   9.731   6.022 -0.1012 -0.1501  0.0688
    1DIPC   D2B 5338   5.949   9.454   5.698  0.2415 -0.0805 -0.3239
    1DIPC   D3B 5339   5.697   9.231   5.588 -0.0298  0.1740  0.0255
    1DIPC   C4B 5340   5.391   9.429   5.419 -0.1394 -0.0655 -0.1633
    1DIPC   NC3 5341   4.807  17.854   7.334 -0.2224  0.1604  0.1045
    1DIPC   PO4 5342   4.619  17.521   7.072 -0.2103 -0.3051 -0.2388
    1DIPC   GL1 5343   4.482  17.755   6.737  0.0679 -0.1960  0.1720
    1DIPC   GL2 5344   4.308  18.030   6.618  0.0615 -0.1280  0.0311
    1DIPC   C1A 5345   4.263  17.598   6.390  0.0536 -0.2902 -0.1329
    1DIPC   D2A 5346   4.245  17.249   6.196 -0.0134  0.0609 -0.2498
    1DIPC   D3A 5347   4.523  17.452   6.008  0.1930  0.2180  0.0789
    1DIPC   C4A 5348   4.939  17.431   6.160 -0.0893 -0.2570  0.1940
    1DIPC   C1B 5349   3.926  18.002   6.376  0.5167 -0.1295 -0.1672
    1DIPC   D2B 5350   3.547  18.240   6.161  0.1098 -0.0581 -0.1650
    1DIPC   D3B 5351   3.649  18.321   5.730  0.1516 -0.1087  0.1521
    1DIPC   C4B 5352   3.541  18.705   5.631  0.1232 -0.1446 -0.0524
    1DIPC   NC3 5353  12.163  11.033   5.598 -0.1110 -0.1804 -0.0884
    1DIPC   PO4 5354  12.537  11.088   5.379  0.2625  0.1003  0.1684
    1DIPC   GL1 5355  12.274  11.467   5.196 -0.1023 -0.2547  0.1585
    1DIPC   GL2 5356  11.930  11.367   5.292  0.0362  0.1937 -0.1676
    1DIPC   C1A 5357  12.119  11.736   4.877 -0.0208 -0.4954 -0.1175
    1DIPC   D2A 5358  12.265  11.841   4.508  0.2781  0.3490  0.1883
    1DIPC   D3A 5359  11.920  11.858   4.253  0.1087  0.0416 -0.0045
    1DIPC   C4A 5360  11.956  12.044   3.858 -0.1235 -0.2545  0.2334
    1DIPC   C1B 5361  11.680  11.357   4.881  0.0264 -0.0155 -0.2648
    1DIPC   D2B 5362  11.302  11.300   4.605 -0.1192 -0.0095  0.1565
    1DIPC   D3B 5363  11.094  10.985   4.301  0.1130  0.3512  0.0154
    1DIPC   C4B 5364  10.619  11.062   4.209  0.0980 -0.2348 -0.1325
    1DIPC   NC3 5365   1.475  25.528   7.808  0.1702 -0.2633 -0.2860
    1DIPC   PO4 5366   1.378  26.007   7.850  0.0398 -0.2013 -0.2200
    1DIPC   GL1 5367   1.419  25.995   7.440  0.1166 -0.0565 -0.2609
    1DIPC   GL2 5368   1.609  25.791   7.198  0.0810  0.0258  0.0441
    1DIPC   C1A 5369   1.573  26.235   6.997  0.1583 -0.3265  0.1874
    1DIPC   D2A 5370   1.841  26.644   6.963 -0.0084 -0.0516 -0.4004
    1DIPC   D3A 5371   1.893  26.633   6.610 -0.3535  0.1950 -0.0743
    1DIPC   C4A 5372   1.538  26.598   6.249  0.2813 -0.1543  0.1457
    1DIPC   C1B 5373   1.280  25.695   6.880  0.0600  0.2848 -0.0761
    1DIPC   D2B 5374   1.339  25.405   6.523 -0.1289 -0.2222  0.0156
    1DIPC   D3B 5375   1.165  25.365   6.159  0.0146  0.1545  0.0676
    1DIPC   C4B 5376   1.322  24.923   5.906  0.0738 -0.0799  0.3358
    1DIPC   NC3 5377  25.661  23.095   7.489 -0.1675  0.4630  0.0318
    1DIPC   PO4 5378  25.457  23.378   7.225  0.1363 -0.3495  0.0460
    1DIPC   GL1 5379  25.501  23.258   6.804  0.2051 -0.1416  0.1187
    1DIPC   GL2 5380  25.900  23.290   6.670  0.0338  0.2396  0.2867
    1DIPC   C1A 5381  25.295  23.158   6.426 -0.0922  0.3444  0.1055
    1DIPC   D2A 5382  25.342  23.207   5.955 -0.1879 -0.0343 -0.4433
    1DIPC   D3A 5383  25.177  22.808   5.884 -0.1356 -0.4497 -0.0501
    1DIPC   C4A 5384  25.159  22.802   5.457 -0.0301 -0.1200 -0.4740
    1DIPC   C1B 5385  26.276  23.197   6.689  0.1937  0.0652  0.1471
    1DIPC   D2B 5386  26.627  23.303   6.527 -0.0302  0.2576  0.0691
    1DIPC   D3B 5387  26.694  23.718   6.313  0.2315  0.1187 -0.1444
    1DIPC   C4B 5388  26.519  23.713   5.880  0.1682  0.0181  0.0799
    1DIPC   NC3 5389  11.473  25.629   7.498 -0.1292  0.2768  0.2520
    1DIPC   PO4 5390  11.159  25.307   7.300  0.1123 -0.0658  0.0229
    1DIPC   GL1 5391  11.225  25.330   6.856  0.1892  0.0319  0.1236
    1DIPC   GL2 5392  10.910  25.447   6.745  0.0250 -0.0631 -0.0214
    1DIPC   C1A 5393  11.269  25.430   6.397 -0.0054 -0.1241  0.1778
    1DIPC   D2A 5394  11.282  25.669   6.055 -0.2566 -0.7430 -0.3656
    1DIPC   D3A 5395  11.035  25.333   5.950 -0.0074 -0.1248  0.3526
    1DIPC   C4A 5396  11.127  25.142   5.619  0.1738 -0.0345  0.0953
    1DIPC   C1B 5397  10.728  25.202   6.520 -0.0716 -0.0641 -0.1914
    1DIPC   D2B 5398  10.623  25.073   6.075 -0.2780 -0.1917  0.0567
    1DIPC   D3B 5399  10.830  24.762   5.829  0.2059  0.0467  0.2915
    1DIPC   C4B 5400  11.080  24.483   5.894 -0.3005  0.0818  0.1931
    1DIPC   NC3 5401   1.132   0.294   8.137 -0.0883  0.1441  0.0910
    1DIPC   PO4 5402   0.749   0.333   8.050 -0.1858  0.0559  0.1398
    1DIPC   GL1 5403   0.466   0.170   7.738 -0.0713  0.0480 -0.1429
    1DIPC   GL2 5404   0.291   0.438   7.548  0.2339  0.0802 -0.1682
    1DIPC   C1A 5405   0.518  -0.088   7.356 -0.0781 -0.0700  0.4123
    1DIPC   D2A 5406   0.442  -0.516   7.047 -0.0163  0.0517 -0.2149
    1DIPC   D3A 5407   0.307  -0.394   6.671  0.1161 -0.3357 -0.1156
    1DIPC   C4A 5408   0.359  -0.652   6.385  0.2785 -0.0956  0.2294
    1DIPC   C1B 5409   0.501   0.386   7.165 -0.2674  0.2994  0.1495
    1DIPC   D2B 5410   0.907   0.444   6.996  0.0242  0.2322  0.1386
    1DIPC   D3B 5411   1.344   0.147   6.955  0.0486 -0.1657  0.1610
    1DIPC   C4B 5412   1.573   0.264   6.573 -0.0892 -0.0813 -0.1363
    1DIPC   NC3 5413  13.190  12.963   6.495 -0.0918  0.0904  0.0959
    1DIPC   PO4 5414  12.826  12.808   6.306 -0.1810 -0.0928 -0.4695
    1DIPC   GL1 5415  12.817  12.726   5.907 -0.0004 -0.0509  0.2613
    1DIPC   GL2 5416  12.509  12.976   5.793  0.2438  0.0606  0.0614
    1DIPC   C1A 5417  12.672  12.720   5.440 -0.0947  0.1652  0.2668
    1DIPC   D2A 5418  12.441  12.914   5.001 -0.0543  0.1158 -0.2962
    1DIPC   D3A 5419  12.651  13.015   4.712  0.0536 -0.1424 -0.2253
    1DIPC   C4A 5420  12.512  13.184   4.357  0.4576  0.0611 -0.0520
    1DIPC   C1B 5421  12.707  13.231   5.502 -0.0335  0.0741 -0.3070
    1DIPC   D2B 5422  12.934  13.133   5.083  0.0367  0.0914  0.1517
    1DIPC   D3B 5423  13.308  13.307   5.008  0.1906 -0.0392  0.3710
    1DIPC   C4B 5424  13.603  13.000   4.838  0.0855 -0.1011 -0.4512
    1DIPC   NC3 5425  19.018  14.643   6.567 -0.1063 -0.0744  0.0191
    1DIPC   PO4 5426  18.674  14.819   6.311 -0.0449  0.1095 -0.0080
    1DIPC   GL1 5427  18.583  14.863   5.936 -0.0877 -0.3380  0.0356
    1DIPC   GL2 5428  18.768  15.202   5.938  0.0093 -0.2065  0.3727
    1DIPC   C1A 5429  18.704  14.930   5.477  0.2824 -0.0800  0.1917
    1DIPC   D2A 5430  18.447  14.927   5.159  0.3544 -0.5266 -0.2272
    1DIPC   D3A 5431  18.643  14.539   5.080 -0.0239 -0.0191 -0.1103
    1DIPC   C4A 5432  18.160  14.426   4.912 -0.0183  0.2320  0.0002
    1DIPC   C1B 5433  19.070  15.302   5.612 -0.3464  0.0060 -0.1366
    1DIPC   D2B 5434  19.161  15.135   5.267 -0.1320 -0.1413  0.1445
    1DIPC   D3B 5435  19.281  15.435   4.993  0.0111  0.1276 -0.2275
    1DIPC   C4B 5436  19.293  15.722   5.295  0.4095  0.2079 -0.0112
    1DIPC   NC3 5437  10.076  23.476   6.977 -0.0608  0.0005 -0.2847
    1DIPC   PO4 5438   9.645  23.700   7.066  0.3665 -0.4590 -0.0801
    1DIPC   GL1 5439   9.604  23.787   6.646 -0.2600  0.1087  0.0227
    1DIPC   GL2 5440   9.360  23.703   6.571 -0.2184  0.0306 -0.2623
    1DIPC   C1A 5441   9.808  24.043   6.278  0.3586 -0.1628  0.3727
    1DIPC   D2A 5442  10.186  24.070   6.145  0.2816  0.2246  0.2493
    1DIPC   D3A 5443  10.006  23.698   6.014  0.1042 -0.0478 -0.3427
    1DIPC   C4A 5444   9.931  23.434   6.333  0.1596 -0.0793 -0.1636
    1DIPC   C1B 5445   9.371  23.741   6.146  0.4227  0.0052  0.1154
    1DIPC   D2B 5446   9.547  23.564   5.801  0.0413 -0.0952  0.0073
    1DIPC   D3B 5447   9.679  23.990   5.758 -0.0870  0.0456 -0.1087
    1DIPC   C4B 5448   9.428  24.344   5.582  0.0384 -0.0526  0.0561
    1DIPC   NC3 5449  15.892  13.085   6.561 -0.2296 -0.1489  0.0521
    1DIPC   PO4 5450  15.831  13.094   6.140 -0.4690 -0.0250  0.3134
    1DIPC   GL1 5451  15.689  13.077   5.687 -0.1198  0.1356 -0.1353
    1DIPC   GL2 5452  15.665  13.330   5.548 -0.2741 -0.0346  0.2984
    1DIPC   C1A 5453  15.537  12.845   5.259 -0.2992 -0.0996  0.0203
    1DIPC   D2A 5454  15.454  12.781   4.827  0.1917  0.0056 -0.1581
    1DIPC   D3A 5455  15.637  13.125   4.623  0.1732 -0.1318  0.1396
    1DIPC   C4A 5456  15.896  13.429   4.754 -0.2074  0.2799  0.1256
    1DIPC   C1B 5457  15.560  13.459   5.104 -0.0479 -0.1247 -0.3421
    1DIPC   D2B 5458  15.346  13.648   4.825 -0.0529 -0.1351 -0.0466
    1DIPC   D3B 5459  15.180  13.229   4.858 -0.2271  0.1136  0.1373
    1DIPC   C4B 5460  15.047  12.879   5.242  0.0075  0.2209 -0.0206
    1DIPC   NC3 5461  10.073   8.780   6.031  0.2262  0.0671 -0.1764
    1DIPC   PO4 5462  10.184   8.329   6.035 -0.0466  0.0736 -0.3313
    1DIPC   GL1 5463  10.493   8.085   5.729  0.2199 -0.0967  0.3533
    1DIPC   GL2 5464  10.670   8.376   5.483  0.1125 -0.0614  0.0131
    1DIPC   C1A 5465  10.692   7.898   5.321 -0.0414 -0.0274 -0.0767
    1DIPC   D2A 5466  10.724   8.007   4.877  0.3252  0.0146 -0.1429
    1DIPC   D3A 5467  10.409   7.802   4.614  0.0300 -0.0851 -0.3595
    1DIPC   C4A 5468  10.267   7.320   4.643  0.3146 -0.4349  0.2189
    1DIPC   C1B 5469  10.338   8.265   5.182 -0.1654 -0.1295  0.1505
    1DIPC   D2B 5470  10.166   8.140   4.812 -0.0725 -0.1013  0.0919
    1DIPC   D3B 5471   9.831   8.146   4.984  0.0035  0.1151  0.2108
    1DIPC   C4B 5472   9.416   8.357   4.903 -0.0216 -0.0326  0.0894
    1DIPC   NC3 5473   1.233  17.007   8.277 -0.3127  0.3334 -0.2136
    1DIPC   PO4 5474   0.987  17.110   7.906 -0.0174 -0.2040 -0.0578
    1DIPC   GL1 5475   0.866  17.465   7.561 -0.2010  0.1817  0.3127
    1DIPC   GL2 5476   1.049  17.282   7.292 -0.0006 -0.1781  0.3813
    1DIPC   C1A 5477   0.623  17.770   7.291 -0.1016 -0.3717 -0.0711
    1DIPC   D2A 5478   0.524  17.883   6.851 -0.1782  0.2899 -0.0591
    1DIPC   D3A 5479   0.411  18.262   7.079 -0.1052 -0.0333 -0.1801
    1DIPC   C4A 5480   0.400  18.675   6.928  0.4191  0.1707 -0.0838
    1DIPC   C1B 5481   1.418  17.391   7.005 -0.0959  0.3825  0.1686
    1DIPC   D2B 5482   1.711  17.351   6.727  0.0156  0.2016  0.2755
    1DIPC   D3B 5483   1.839  17.470   6.297  0.0775 -0.1157  0.0787
    1DIPC   C4B 5484   2.340  17.460   6.205 -0.2304 -0.1647  0.0374
    1DIPC   NC3 5485  27.400  23.637   7.781  0.0599 -0.0412 -0.0342
    1DIPC   PO4 5486  27.145  24.072   7.934  0.0332 -0.0362 -0.2326
    1DIPC   GL1 5487  27.231  24.048   7.507 -0.0737  0.0815 -0.1269
    1DIPC   GL2 5488  27.545  23.929   7.394 -0.0343  0.1035 -0.0058
    1DIPC   C1A 5489  27.041  24.052   7.022 -0.1125  0.0641  0.2728
    1DIPC   D2A 5490  26.768  24.044   6.687 -0.0855 -0.1670 -0.3679
    1DIPC   D3A 5491  26.788  24.342   6.306  0.0228  0.1538  0.1855
    1DIPC   C4A 5492  26.503  24.305   5.959  0.0118  0.2132  0.1106
    1DIPC   C1B 5493  27.410  23.553   7.086 -0.1627  0.0147  0.2910
    1DIPC   D2B 5494  27.509  23.355   6.725  0.3071 -0.2875 -0.1064
    1DIPC   D3B 5495  27.156  23.114   6.832 -0.1211  0.0616  0.2055
    1DIPC   C4B 5496  26.988  22.957   6.379 -0.0746 -0.0810  0.0088
    1DIPC   NC3 5497  24.609  21.525   6.693 -0.0635  0.0945 -0.1815
    1DIPC   PO4 5498  24.666  21.131   6.661  0.0604  0.2683 -0.2241
    1DIPC   GL1 5499  24.940  21.246   6.349  0.1766 -0.1716 -0.0558
    1DIPC   GL2 5500  24.847  20.968   6.223 -0.2528 -0.1447  0.0256
    1DIPC   C1A 5501  24.862  21.587   6.006  0.3779  0.0039  0.1969
    1DIPC   D2A 5502  24.892  21.455   5.503  0.3345  0.0590  0.0813
    1DIPC   D3A 5503  24.835  21.882   5.425  0.0620 -0.1077 -0.3140
    1DIPC   C4A 5504  24.563  21.883   5.223  0.2135 -0.0933  0.0771
    1DIPC   C1B 5505  25.011  21.076   5.866 -0.1069 -0.0203  0.2136
    1DIPC   D2B 5506  25.234  21.408   5.838  0.1169 -0.1209 -0.3134
    1DIPC   D3B 5507  25.346  21.502   5.352  0.1892  0.0739 -0.2243
    1DIPC   C4B 5508  25.770  21.447   5.300 -0.0831 -0.3214  0.1184
    1DIPC   NC3 5509   4.910   1.660   8.133 -0.1913  0.2988  0.1964
    1DIPC   PO4 5510   5.117   2.040   8.173 -0.1374 -0.2737  0.2389
    1DIPC   GL1 5511   5.410   1.914   7.767  0.1202 -0.1687  0.0242
    1DIPC   GL2 5512   5.325   1.720   7.608  0.1979 -0.3076 -0.3311
    1DIPC   C1A 5513   5.748   2.034   7.407 -0.1664  0.5060 -0.2798
    1DIPC   D2A 5514   6.062   1.948   7.495  0.0803  0.3645  0.3966
    1DIPC   D3A 5515   5.804   1.517   7.306  0.0258 -0.0544 -0.0517
    1DIPC   C4A 5516   6.077   1.270   6.948 -0.1297 -0.3656 -0.1648
    1DIPC   C1B 5517   5.306   1.846   7.109  0.0842  0.0770 -0.0032
    1DIPC   D2B 5518   5.053   1.611   6.778  0.3118 -0.2867  0.1305
    1DIPC   D3B 5519   5.069   1.818   6.484  0.2527 -0.1264  0.0487
    1DIPC   C4B 5520   5.410   2.058   6.405 -0.4044 -0.1764  0.4347
    1DIPC   NC3 5521  17.872  19.464   6.125 -0.0722  0.0273  0.3241
    1DIPC   PO4 5522  18.220  19.221   5.899 -0.2760  0.4435  0.0448
    1DIPC   GL1 5523  18.258  19.242   5.480  0.0533  0.1842  0.0726
    1DIPC   GL2 5524  18.305  19.546   5.406 -0.2465  0.0756 -0.2650
    1DIPC   C1A 5525  18.372  19.113   5.110  0.3066 -0.1920 -0.2685
    1DIPC   D2A 5526  18.383  19.400   4.861  0.0729  0.2715  0.1513
    1DIPC   D3A 5527  18.158  19.355   4.527 -0.2795 -0.0559 -0.0148
    1DIPC   C4A 5528  18.000  18.902   4.549 -0.1406 -0.0687 -0.1812
    1DIPC   C1B 5529  17.986  19.671   5.093  0.0525 -0.1537  0.0234
    1DIPC   D2B 5530  18.070  19.799   4.762  0.0289 -0.0291 -0.3240
    1DIPC   D3B 5531  18.025  19.741   4.293 -0.0811 -0.2038 -0.2886
    1DIPC   C4B 5532  17.878  20.130   4.137 -0.1781 -0.0673 -0.0438
    1DIPC   NC3 5533  28.206  22.754   7.485 -0.3185  0.0872  0.0950
    1DIPC   PO4 5534  28.010  23.103   7.423 -0.1684  0.0685 -0.3776
    1DIPC   GL1 5535  27.800  23.069   7.067 -0.3583  0.0850  0.0241
    1DIPC   GL2 5536  27.505  22.902   7.089  0.0299  0.0531  0.0692
    1DIPC   C1A 5537  27.879  23.005   6.721 -0.3110 -0.2458 -0.1055
    1DIPC   D2A 5538  28.233  22.827   6.351 -0.0926 -0.0292 -0.0182
    1DIPC   D3A 5539  28.083  22.828   5.995  0.1124 -0.3752  0.1345
    1DIPC   C4A 5540  28.018  23.164   5.736 -0.1508 -0.1946 -0.1401
    1DIPC   C1B 5541  27.465  22.783   6.648  0.0715  0.0374  0.1888
    1DIPC   D2B 5542  27.506  23.060   6.358 -0.1958 -0.0370 -0.1497
    1DIPC   D3B 5543  27.563  22.989   5.912  0.0944  0.1283  0.1704
    1DIPC   C4B 5544  27.406  22.614   5.724  0.0690  0.0136  0.1728
    1DIPC   NC3 5545  18.665  11.277   6.844 -0.0520 -0.0794  0.0840
    1DIPC   PO4 5546  18.437  11.255   6.319 -0.3135  0.0177  0.2302
    1DIPC   GL1 5547  18.530  11.537   6.005 -0.1352 -0.0970 -0.2650
    1DIPC   GL2 5548  18.196  11.602   5.894 -0.2213  0.3278  0.3651
    1DIPC   C1A 5549  18.776  11.677   5.637 -0.1323  0.3711  0.1544
    1DIPC   D2A 5550  19.132  11.887   5.448 -0.1129 -0.0768 -0.0094
    1DIPC   D3A 5551  19.094  11.919   5.094  0.0333 -0.4419 -0.2026
    1DIPC   C4A 5552  19.323  11.788   4.719 -0.1234 -0.0719  0.0047
    1DIPC   C1B 5553  18.156  11.940   5.796 -0.1150  0.2093 -0.1263
    1DIPC   D2B 5554  18.396  12.179   5.572 -0.4062  0.4828  0.1991
    1DIPC   D3B 5555  18.328  12.510   5.215  0.0106  0.0549 -0.1050
    1DIPC   C4B 5556  18.641  12.541   4.821  0.0510 -0.2844  0.0859
    1DIPC   NC3 5557  26.139  21.155   7.673 -0.3255  0.0929  0.1830
    1DIPC   PO4 5558  26.374  21.568   7.597  0.0643  0.1559  0.0242
    1DIPC   GL1 5559  26.487  21.730   7.198  0.0827  0.0739 -0.0726
    1DIPC   GL2 5560  26.304  22.007   7.010  0.0577 -0.3884 -0.2183
    1DIPC   C1A 5561  26.853  21.711   6.839 -0.2549 -0.0593 -0.0165
    1DIPC   D2A 5562  26.908  21.480   6.469  0.0177 -0.4291 -0.0693
    1DIPC   D3A 5563  27.077  21.526   6.092  0.0836 -0.0640 -0.0630
    1DIPC   C4A 5564  26.897  21.358   5.747 -0.2866 -0.2183  0.2546
    1DIPC   C1B 5565  26.412  21.835   6.676  0.0131 -0.0193  0.0468
    1DIPC   D2B 5566  26.226  21.407   6.536 -0.4592 -0.2347  0.3488
    1DIPC   D3B 5567  26.529  21.323   6.172 -0.0297  0.0037 -0.1751
    1DIPC   C4B 5568  26.539  21.696   5.897 -0.3819 -0.0039 -0.0700
    1DIPC   NC3 5569  26.372   9.485   7.608 -0.1913 -0.0165 -0.1094
    1DIPC   PO4 5570  26.166   9.473   7.229  0.2142  0.0492 -0.1060
    1DIPC   GL1 5571  26.048   9.220   6.941  0.0376 -0.0338  0.1682
    1DIPC   GL2 5572  25.928   9.353   6.689 -0.0437  0.1922  0.1364
    1DIPC   C1A 5573  26.156   8.954   6.592  0.1997  0.0900  0.1111
    1DIPC   D2A 5574  26.463   8.853   6.299  0.1127 -0.2140  0.0649
    1DIPC   D3A 5575  26.145   8.691   6.092  0.3381 -0.3155  0.2251
    1DIPC   C4A 5576  26.146   8.391   5.801 -0.1338  0.1617  0.2535
    1DIPC   C1B 5577  26.020   9.334   6.306 -0.1141  0.2021 -0.0391
    1DIPC   D2B 5578  25.917   9.297   5.927 -0.0467 -0.0211 -0.2780
    1DIPC   D3B 5579  25.671   9.005   6.074 -0.3731 -0.0060  0.1373
    1DIPC   C4B 5580  25.660   8.914   6.525  0.3071 -0.0524  0.2042
    1DIPC   NC3 5581   5.043   7.498   6.953  0.2686  0.0437  0.0711
    1DIPC   PO4 5582   4.619   7.591   6.921 -0.0841 -0.0681 -0.0107
    1DIPC   GL1 5583   4.587   7.626   6.514 -0.0683  0.0032 -0.3208
    1DIPC   GL2 5584   4.561   7.940   6.410  0.2288 -0.1309  0.3400
    1DIPC   C1A 5585   4.780   7.326   6.185 -0.2139 -0.2050  0.1747
    1DIPC   D2A 5586   5.211   7.151   5.921 -0.0639  0.0550  0.0025
    1DIPC   D3A 5587   4.873   6.814   5.686 -0.2314 -0.3592 -0.2678
    1DIPC   C4A 5588   4.609   7.037   5.342 -0.1280 -0.1788  0.1518
    1DIPC   C1B 5589   4.580   7.793   6.010  0.0220 -0.0539 -0.3400
    1DIPC   D2B 5590   4.739   7.552   5.750  0.0641  0.1637  0.2465
    1DIPC   D3B 5591   5.021   7.301   5.483  0.2997 -0.1984 -0.1105
    1DIPC   C4B 5592   5.343   6.971   5.516  0.0514 -0.0494  0.1453
    1DIPC   NC3 5593   6.121  26.427   7.915 -0.0826  0.0487  0.1097
    1DIPC   PO4 5594   6.427  26.098   7.685  0.1667  0.1593 -0.0315
    1DIPC   GL1 5595   6.282  26.363   7.388  0.1972  0.0535  0.4076
    1DIPC   GL2 5596   6.358  26.083   7.159  0.0075 -0.1473 -0.0607
    1DIPC   C1A 5597   6.413  26.731   7.100 -0.3841 -0.1384  0.0607
    1DIPC   D2A 5598   6.337  27.190   6.752  0.0832 -0.3246  0.1281
    1DIPC   D3A 5599   6.464  27.625   6.878 -0.1835 -0.0968  0.1682
    1DIPC   C4A 5600   6.813  27.883   6.691 -0.1429 -0.2202 -0.1084
    1DIPC   C1B 5601   6.071  25.946   6.864  0.2539 -0.0450 -0.1374
    1DIPC   D2B 5602   5.769  25.918   6.556  0.1018 -0.0609  0.0106
    1DIPC   D3B 5603   6.171  26.007   6.375 -0.2777 -0.0200  0.1965
    1DIPC   C4B 5604   6.241  26.434   6.126  0.1524 -0.0994 -0.1407
    1DIPC   NC3 5605   2.213  21.394   7.427 -0.0529  0.3219 -0.1134
    1DIPC   PO4 5606   2.591  21.532   7.314 -0.3639 -0.3949  0.1657
    1DIPC   GL1 5607   2.537  21.696   6.934  0.1250 -0.2411 -0.3672
    1DIPC   GL2 5608   2.281  21.490   6.806 -0.1391  0.1361 -0.2716
    1DIPC   C1A 5609   2.804  21.937   6.667  0.1633  0.2138  0.1211
    1DIPC   D2A 5610   2.967  22.132   6.360  0.0145  0.0912 -0.0240
    1DIPC   D3A 5611   2.863  22.310   6.005 -0.0431  0.1253  0.0213
    1DIPC   C4A 5612   2.852  21.940   5.697 -0.1598  0.2250 -0.2296
    1DIPC   C1B 5613   2.457  21.291   6.537  0.0241  0.1077 -0.2245
    1DIPC   D2B 5614   2.738  21.104   6.122  0.1266 -0.3258 -0.3763
    1DIPC   D3B 5615   2.377  21.401   5.994  0.0438  0.2461 -0.2497
    1DIPC   C4B 5616   2.496  21.563   5.670  0.2237 -0.0435  0.0996
    1DIPC   NC3 5617  11.862  17.910   6.622  0.2960  0.2047  0.1684
    1DIPC   PO4 5618  12.124  17.601   6.677  0.3882  0.0780 -0.1306
    1DIPC   GL1 5619  12.305  17.619   6.277 -0.1081 -0.0711 -0.0621
    1DIPC   GL2 5620  12.315  17.232   6.124  0.2253  0.0234  0.0559
    1DIPC   C1A 5621  12.230  17.841   5.908 -0.1653  0.0463 -0.0398
    1DIPC   D2A 5622  11.844  18.132   5.710  0.2424  0.2682  0.1209
    1DIPC   D3A 5623  11.781  18.197   5.322  0.3929  0.3792 -0.0633
    1DIPC   C4A 5624  11.460  17.972   4.990  0.0631 -0.3161  0.0960
    1DIPC   C1B 5625  12.188  17.352   5.853 -0.2122 -0.0005  0.0851
    1DIPC   D2B 5626  12.304  17.492   5.401 -0.0450  0.3753  0.0872
    1DIPC   D3B 5627  12.053  17.436   5.067  0.1125  0.0137  0.2113
    1DIPC   C4B 5628  11.666  17.524   4.885 -0.1733  0.1178  0.4191
    1DIPC   NC3 5629  13.854   7.121   5.919 -0.3906  0.4167  0.2285
    1DIPC   PO4 5630  14.160   7.025   5.555  0.1182  0.1299 -0.0831
    1DIPC   GL1 5631  14.116   6.931   5.147  0.1198 -0.0921 -0.1512
    1DIPC   GL2 5632  13.923   7.120   5.017 -0.3801 -0.0984  0.0546
    1DIPC   C1A 5633  14.203   6.910   4.693  0.1843  0.0197 -0.3166
    1DIPC   D2A 5634  14.514   6.994   4.375 -0.1064 -0.0885 -0.2138
    1DIPC   D3A 5635  14.859   6.785   4.159 -0.0472  0.0131 -0.3141
    1DIPC   C4A 5636  14.985   6.735   3.730 -0.1028 -0.1461  0.1519
    1DIPC   C1B 5637  13.785   6.667   4.694  0.0759  0.2130  0.0065
    1DIPC   D2B 5638  13.720   6.586   4.273 -0.1467  0.3484 -0.1838
    1DIPC   D3B 5639  14.051   6.935   4.178 -0.2889  0.0496  0.1596
    1DIPC   C4B 5640  13.942   7.247   3.894  0.0346  0.0265 -0.4068
    1DIPC   NC3 5641  27.008  14.032   7.558 -0.0246 -0.0481  0.0716
    1DIPC   PO4 5642  26.766  14.236   7.276 -0.0329 -0.2132  0.3168
    1DIPC   GL1 5643  26.853  14.114   6.835 -0.0104 -0.1803  0.0928
    1DIPC   GL2 5644  27.156  13.985   6.711  0.1552  0.0478 -0.3161
    1DIPC   C1A 5645  26.863  14.155   6.284  0.1411  0.1572 -0.2647
    1DIPC   D2A 5646  26.793  14.359   5.914 -0.2274  0.4599 -0.0476
    1DIPC   D3A 5647  27.028  14.248   5.558  0.0630 -0.0462 -0.3380
    1DIPC   C4A 5648  27.251  14.508   5.290 -0.0542 -0.0491  0.0608
    1DIPC   C1B 5649  27.329  13.736   6.446 -0.0972  0.3538  0.2099
    1DIPC   D2B 5650  27.503  13.493   5.962  0.0891 -0.1382  0.1158
    1DIPC   D3B 5651  27.139  13.261   6.165 -0.0645  0.3454 -0.2519
    1DIPC   C4B 5652  26.699  13.255   5.969  0.0275  0.0110 -0.2875
    1DIPC   NC3 5653  26.600  23.917   7.456  0.1071  0.3625  0.0139
    1DIPC   PO4 5654  26.341  23.490   7.499  0.2136 -0.0919 -0.0678
    1DIPC   GL1 5655  26.350  23.618   7.034 -0.1730 -0.4265  0.1976
    1DIPC   GL2 5656  26.669  23.725   6.982 -0.0097  0.5270 -0.1054
    1DIPC   C1A 5657  26.307  23.694   6.647  0.1965 -0.1241  0.1894
    1DIPC   D2A 5658  26.123  23.641   6.256 -0.1527  0.1704  0.1130
    1DIPC   D3A 5659  26.284  23.319   6.146 -0.3334 -0.0945  0.0206
    1DIPC   C4A 5660  26.679  23.254   6.058 -0.2368 -0.2601 -0.0591
    1DIPC   C1B 5661  27.018  23.594   6.715  0.1945  0.1353  0.2296
    1DIPC   D2B 5662  27.135  23.426   6.299 -0.2501  0.0189  0.0123
    1DIPC   D3B 5663  27.009  23.540   5.879  0.0598 -0.0190  0.0322
    1DIPC   C4B 5664  26.959  23.995   5.770  0.0984 -0.3868 -0.6043
    1DIPC   NC3 5665   7.261  25.831   7.986 -0.1197 -0.1102 -0.0585
    1DIPC   PO4 5666   7.199  25.966   7.559 -0.0265  0.2148  0.1449
    1DIPC   GL1 5667   7.351  25.731   7.176  0.1068  0.2486  0.1207
    1DIPC   GL2 5668   7.131  25.834   7.000 -0.0356  0.1684 -0.1725
    1DIPC   C1A 5669   7.456  25.530   6.729  0.2048  0.4861  0.0583
    1DIPC   D2A 5670   7.500  25.587   6.198  0.1577  0.1444 -0.2286
    1DIPC   D3A 5671   7.510  26.049   6.427  0.3631  0.1294 -0.0467
    1DIPC   C4A 5672   7.857  26.285   6.466 -0.0556  0.1033  0.0377
    1DIPC   C1B 5673   7.039  25.877   6.681  0.4389  0.4038 -0.1293
    1DIPC   D2B 5674   7.088  25.904   6.249  0.0945 -0.4032 -0.0020
    1DIPC   D3B 5675   6.979  26.388   6.125 -0.1964 -0.0275  0.0587
    1DIPC   C4B 5676   6.692  26.674   6.195  0.1271  0.0023 -0.3400
    1DIPC   NC3 5677  23.521  18.371   6.721  0.0447 -0.0374  0.1245
    1DIPC   PO4 5678  23.446  18.747   6.727 -0.1861  0.1876  0.0225
    1DIPC   GL1 5679  23.256  18.659   6.288 -0.0414 -0.0914  0.0564
    1DIPC   GL2 5680  23.015  18.772   6.015  0.1061 -0.0612  0.0835
    1DIPC   C1A 5681  23.395  18.488   5.943 -0.2233  0.0545 -0.0959
    1DIPC   D2A 5682  23.359  18.440   5.459 -0.0302  0.1234  0.2751
    1DIPC   D3A 5683  23.580  18.143   5.127  0.1782 -0.2864 -0.1161
    1DIPC   C4A 5684  24.085  18.065   5.177 -0.1605  0.0761  0.2162
    1DIPC   C1B 5685  23.416  18.980   5.927 -0.0915 -0.1230  0.2314
    1DIPC   D2B 5686  23.615  19.389   5.884  0.0311 -0.0078 -0.0171
    1DIPC   D3B 5687  23.825  19.391   5.459  0.2827 -0.1200  0.3281
    1DIPC   C4B 5688  23.951  18.987   5.234 -0.0722 -0.3628 -0.1059
    1DIPC   NC3 5689  19.562  22.461   7.139 -0.2821  0.1899 -0.0405
    1DIPC   PO4 5690  19.297  22.333   6.724 -0.0630 -0.0557 -0.0136
    1DIPC   GL1 5691  19.571  22.480   6.565 -0.0547 -0.1597  0.2419
    1DIPC   GL2 5692  19.509  22.792   6.502 -0.0107 -0.2913  0.1901
    1DIPC   C1A 5693  19.603  22.514   6.083  0.3167 -0.1084 -0.3001
    1DIPC   D2A 5694  19.542  22.734   5.703  0.1730 -0.1879  0.1165
    1DIPC   D3A 5695  19.431  23.139   5.707 -0.2313 -0.0148  0.0977
    1DIPC   C4A 5696  19.134  23.285   5.507  0.0640  0.0050 -0.0128
    1DIPC   C1B 5697  19.340  22.931   6.136 -0.0896  0.1432  0.0723
    1DIPC   D2B 5698  19.121  23.246   6.083  0.0891  0.0826  0.2029
    1DIPC   D3B 5699  19.472  23.398   6.299 -0.0182  0.1563 -0.1347
    1DIPC   C4B 5700  19.816  23.227   6.170 -0.2246  0.3475 -0.1311
    1DIPC   NC3 5701   2.665  27.396   7.950  0.1289 -0.2206  0.0910
    1DIPC   PO4 5702   3.075  27.190   8.125  0.2449  0.1561  0.0880
    1DIPC   GL1 5703   3.037  27.248   7.616 -0.1577 -0.0027 -0.1186
    1DIPC   GL2 5704   2.806  27.478   7.466  0.2802  0.0746  0.3821
    1DIPC   C1A 5705   3.202  27.149   7.143  0.2972 -0.1686  0.0241
    1DIPC   D2A 5706   3.477  27.138   6.829  0.1357 -0.1024  0.2166
    1DIPC   D3A 5707   3.423  27.279   6.337  0.1172  0.1399 -0.1603
    1DIPC   C4A 5708   3.532  27.089   5.993  0.0276  0.1914 -0.1490
    1DIPC   C1B 5709   2.817  27.399   7.018  0.0539  0.0608 -0.1568
    1DIPC   D2B 5710   2.638  27.050   6.783 -0.1721  0.1282 -0.0955
    1DIPC   D3B 5711   2.983  26.860   6.712  0.0251 -0.1720 -0.1355
    1DIPC   C4B 5712   3.181  26.704   6.288  0.0396  0.0370  0.2196
    1DIPC   NC3 5713   8.996  20.989   7.293  0.1580 -0.0486  0.0131
    1DIPC   PO4 5714   8.869  21.299   6.927  0.1569 -0.0419 -0.2121
    1DIPC   GL1 5715   8.900  21.385   6.507 -0.0505 -0.0776  0.1114
    1DIPC   GL2 5716   8.633  21.269   6.357 -0.0277 -0.0007  0.0363
    1DIPC   C1A 5717   9.109  21.489   6.039  0.3312  0.0610 -0.1761
    1DIPC   D2A 5718   9.207  21.722   5.586  0.0314 -0.1061  0.2524
    1DIPC   D3A 5719   8.928  21.970   5.268 -0.0503  0.0466 -0.2777
    1DIPC   C4A 5720   8.976  22.404   5.235 -0.0691  0.1818  0.0878
    1DIPC   C1B 5721   8.505  21.627   6.044 -0.3737 -0.4677  0.4964
    1DIPC   D2B 5722   8.597  21.653   5.591  0.2201  0.4824 -0.2027
    1DIPC   D3B 5723   8.723  21.201   5.825  0.1469 -0.0349  0.0816
    1DIPC   C4B 5724   8.685  20.886   5.614 -0.1537  0.0970  0.1435
    1DIPC   NC3 5725   2.609  19.510   7.434 -0.0382 -0.0443  0.0890
    1DIPC   PO4 5726   2.951  19.290   7.426 -0.1752  0.2546 -0.1547
    1DIPC   GL1 5727   2.701  19.218   7.026 -0.1821 -0.1606  0.0389
    1DIPC   GL2 5728   2.752  18.868   6.760  0.0146  0.0466  0.0083
    1DIPC   C1A 5729   2.816  19.496   6.641 -0.3984  0.1076 -0.0633
    1DIPC   D2A 5730   2.703  19.462   6.186  0.1374 -0.1787 -0.1607
    1DIPC   D3A 5731   2.431  19.227   6.362 -0.0562 -0.2898  0.0743
    1DIPC   C4A 5732   2.329  19.480   6.646 -0.3287  0.0663 -0.0357
    1DIPC   C1B 5733   2.844  18.982   6.258 -0.3256  0.0563 -0.0491
    1DIPC   D2B 5734   2.690  19.002   5.884  0.0718 -0.1206  0.0361
    1DIPC   D3B 5735   2.390  19.274   5.841 -0.1235 -0.0444  0.1371
    1DIPC   C4B 5736   1.950  19.143   5.800  0.2404 -0.0591 -0.0652
    1DIPC   NC3 5737   5.878  18.996   7.206  0.1650 -0.1638  0.1656
    1DIPC   PO4 5738   6.058  18.649   7.193 -0.1505  0.0343  0.2387
    1DIPC   GL1 5739   6.068  18.812   6.795  0.0499 -0.3702  0.0743
    1DIPC   GL2 5740   6.275  18.590   6.605  0.0260  0.0763 -0.1082
    1DIPC   C1A 5741   6.022  18.925   6.352 -0.1542  0.1076  0.3551
    1DIPC   D2A 5742   5.848  19.021   5.973 -0.1057  0.0517  0.0139
    1DIPC   D3A 5743   6.042  19.383   6.148 -0.2166 -0.1011 -0.2152
    1DIPC   C4A 5744   6.497  19.535   6.258 -0.1682 -0.0742  0.1124
    1DIPC   C1B 5745   6.042  18.464   6.140 -0.0845  0.1159 -0.0685
    1DIPC   D2B 5746   5.691  18.419   5.904  0.2719  0.0645 -0.0342
    1DIPC   D3B 5747   5.799  18.028   5.787  0.1024  0.2283 -0.0828
    1DIPC   C4B 5748   5.961  18.008   5.379 -0.2153 -0.2226  0.1577
    1DIPC   NC3 5749  24.389   8.456   6.578  0.4138 -0.2524  0.0332
    1DIPC   PO4 5750  24.631   8.692   6.762 -0.1057 -0.1026 -0.0667
    1DIPC   GL1 5751  24.861   8.819   6.315  0.0562  0.0250 -0.1889
    1DIPC   GL2 5752  24.624   8.693   6.114  0.2863 -0.3819 -0.1765
    1DIPC   C1A 5753  25.273   8.747   6.046 -0.0307  0.0537 -0.3025
    1DIPC   D2A 5754  25.314   8.953   5.732 -0.4687  0.0318 -0.3489
    1DIPC   D3A 5755  25.239   8.607   5.533 -0.1288  0.1482 -0.1971
    1DIPC   C4A 5756  25.259   8.435   5.122 -0.0608  0.2267  0.0976
    1DIPC   C1B 5757  24.833   8.707   5.785  0.0227 -0.0786 -0.1606
    1DIPC   D2B 5758  24.745   8.883   5.411 -0.1440 -0.1618 -0.0337
    1DIPC   D3B 5759  25.123   9.029   5.223 -0.1022 -0.1433  0.2101
    1DIPC   C4B 5760  25.535   8.942   5.307  0.1163 -0.1919 -0.5702
    1DIPC   NC3 5761  25.841  11.554   7.035 -0.1967  0.0780 -0.0193
    1DIPC   PO4 5762  26.004  11.454   6.587  0.0692 -0.0800  0.0153
    1DIPC   GL1 5763  26.254  11.084   6.453  0.2292  0.0832  0.1381
    1DIPC   GL2 5764  26.457  10.892   6.661 -0.1571  0.0972  0.0413
    1DIPC   C1A 5765  26.427  10.755   6.077 -0.0884  0.0187 -0.0768
    1DIPC   D2A 5766  26.506  10.627   5.754  0.1327  0.1012  0.0666
    1DIPC   D3A 5767  26.261  10.862   5.382 -0.2030  0.2581 -0.1372
    1DIPC   C4A 5768  26.570  11.102   5.227 -0.3815 -0.0185 -0.1150
    1DIPC   C1B 5769  26.837  10.966   6.273 -0.0534  0.0589  0.2538
    1DIPC   D2B 5770  27.194  11.160   6.014  0.1444  0.0746  0.1318
    1DIPC   D3B 5771  27.332  11.161   6.419  0.1804 -0.2801  0.4661
    1DIPC   C4B 5772  27.163  11.553   6.357 -0.2028 -0.0360  0.2055
    1DIPC   NC3 5773  26.180  22.911   7.587 -0.2505 -0.0600  0.0121
    1DIPC   PO4 5774  26.257  22.450   7.313  0.0359 -0.0393 -0.1511
    1DIPC   GL1 5775  26.277  22.502   6.865 -0.1368 -0.1462  0.1835
    1DIPC   GL2 5776  26.127  22.235   6.608  0.1574  0.2745  0.1847
    1DIPC   C1A 5777  26.634  22.336   6.537 -0.2902  0.0330  0.1227
    1DIPC   D2A 5778  26.787  21.916   6.226  0.0624 -0.0672 -0.1515
    1DIPC   D3A 5779  27.004  22.044   6.514 -0.1056  0.0478 -0.1546
    1DIPC   C4A 5780  27.283  21.934   6.935  0.0916  0.1435  0.2658
    1DIPC   C1B 5781  26.238  22.027   6.150  0.0505 -0.1469  0.0699
    1DIPC   D2B 5782  26.619  22.192   5.844 -0.0685  0.0678  0.0808
    1DIPC   D3B 5783  26.959  21.929   5.726  0.0549  0.0509 -0.0054
    1DIPC   C4B 5784  27.089  21.676   5.294 -0.1773 -0.3485 -0.0570
    1DIPC   NC3 5785   6.153   9.331   7.507 -0.0799  0.1201 -0.0061
    1DIPC   PO4 5786   6.334   9.193   7.105 -0.1145  0.0531 -0.1675
    1DIPC   GL1 5787   6.205   9.243   6.720 -0.2200  0.0930  0.1668
    1DIPC   GL2 5788   6.363   9.064   6.569  0.0081 -0.0990  0.1039
    1DIPC   C1A 5789   6.003   9.202   6.233  0.0879 -0.0421  0.0947
    1DIPC   D2A 5790   5.682   8.974   6.045 -0.3664  0.0407 -0.1066
    1DIPC   D3A 5791   5.281   9.058   5.818 -0.0646 -0.0839 -0.0868
    1DIPC   C4A 5792   4.833   8.970   5.852 -0.0076  0.2618  0.0317
    1DIPC   C1B 5793   6.271   8.758   6.305  0.1209 -0.1469  0.2955
    1DIPC   D2B 5794   6.194   8.522   5.888  0.1437  0.2417  0.1307
    1DIPC   D3B 5795   5.885   8.250   5.667 -0.1358 -0.0528 -0.0120
    1DIPC   C4B 5796   6.053   7.841   5.450  0.1001 -0.0278 -0.0572
    1DIPC   NC3 5797   1.434   2.677   8.143 -0.2497  0.3618  0.0737
    1DIPC   PO4 5798   1.735   2.931   7.847  0.4101  0.0618 -0.1562
    1DIPC   GL1 5799   1.688   3.079   7.482 -0.2103  0.3256 -0.0227
    1DIPC   GL2 5800   1.950   3.012   7.250  0.0901  0.0137 -0.1432
    1DIPC   C1A 5801   1.535   3.359   7.225 -0.2705 -0.1434 -0.0112
    1DIPC   D2A 5802   1.430   3.777   7.146  0.0270  0.1708 -0.3800
    1DIPC   D3A 5803   1.565   4.060   6.735 -0.0387 -0.1054 -0.1269
    1DIPC   C4A 5804   1.950   3.810   6.584  0.4708  0.2054 -0.1980
    1DIPC   C1B 5805   1.930   2.783   6.829 -0.1656 -0.0484  0.0024
    1DIPC   D2B 5806   1.644   2.687   6.514 -0.1000 -0.1776 -0.1542
    1DIPC   D3B 5807   1.703   2.994   6.288  0.0529 -0.1126 -0.1380
    1DIPC   C4B 5808   1.889   3.310   6.416 -0.1567  0.0182  0.4307
    1DIPC   NC3 5809  18.835  23.937   7.015 -0.1874 -0.1137 -0.2619
    1DIPC   PO4 5810  19.271  23.765   6.862  0.1074 -0.2564 -0.2084
    1DIPC   GL1 5811  19.559  23.895   6.584  0.2525  0.0350  0.1636
    1DIPC   GL2 5812  19.600  24.226   6.511  0.0319  0.0150  0.0441
    1DIPC   C1A 5813  19.665  23.772   6.142 -0.1510 -0.1571 -0.3861
    1DIPC   D2A 5814  19.456  23.653   5.708 -0.0623 -0.0949 -0.1652
    1DIPC   D3A 5815  19.821  23.867   5.629  0.0733 -0.0434  0.1106
    1DIPC   C4A 5816  19.865  24.112   5.208  0.0651 -0.2900  0.1230
    1DIPC   C1B 5817  19.409  24.437   6.272 -0.1083 -0.0971 -0.3754
    1DIPC   D2B 5818  19.145  24.552   5.933 -0.0316 -0.2297  0.3033
    1DIPC   D3B 5819  19.245  24.956   6.201 -0.0813 -0.1139 -0.1619
    1DIPC   C4B 5820  19.412  25.396   6.062 -0.0452 -0.1658 -0.1906
    1DIPC   NC3 5821   3.042   1.561   7.991 -0.0267 -0.1309 -0.1505
    1DIPC   PO4 5822   3.018   1.136   7.842  0.1362  0.0742  0.1536
    1DIPC   GL1 5823   2.741   1.386   7.499 -0.1902 -0.0242 -0.1914
    1DIPC   GL2 5824   2.970   1.613   7.332  0.3382  0.0756 -0.1602
    1DIPC   C1A 5825   2.513   1.609   7.253 -0.1780  0.1804  0.1035
    1DIPC   D2A 5826   2.300   1.924   6.983  0.3176  0.1552  0.0021
    1DIPC   D3A 5827   2.055   2.303   6.662  0.1920  0.2710  0.1846
    1DIPC   C4A 5828   1.970   2.424   6.255  0.2026  0.3188  0.0378
    1DIPC   C1B 5829   2.888   1.362   6.938 -0.1142 -0.1984 -0.0695
    1DIPC   D2B 5830   3.118   1.500   6.719  0.2427 -0.1914 -0.2995
    1DIPC   D3B 5831   3.223   1.025   6.666 -0.3367  0.2745  0.0605
    1DIPC   C4B 5832   3.015   0.801   6.418 -0.0933 -0.2706 -0.1546
    1DIPC   NC3 5833   1.688  16.498   7.723  0.2447  0.0502 -0.3638
    1DIPC   PO4 5834   1.697  16.712   7.295  0.2046  0.2522  0.1398
    1DIPC   GL1 5835   1.674  16.491   6.864  0.0989  0.1929  0.1230
    1DIPC   GL2 5836   1.757  16.171   6.919  0.2276  0.0262 -0.2953
    1DIPC   C1A 5837   1.788  16.413   6.498 -0.2443 -0.1892 -0.0134
    1DIPC   D2A 5838   1.938  16.111   6.083  0.0371 -0.2242 -0.4967
    1DIPC   D3A 5839   1.564  15.849   6.142 -0.0747 -0.3557 -0.1098
    1DIPC   C4A 5840   1.364  15.925   5.708  0.0267 -0.0563  0.1204
    1DIPC   C1B 5841   1.361  16.068   6.757 -0.2434  0.1700 -0.2030
    1DIPC   D2B 5842   1.201  16.122   6.353 -0.0872  0.3592  0.0854
    1DIPC   D3B 5843   0.906  16.403   6.071 -0.0525 -0.0488  0.1722
    1DIPC   C4B 5844   0.757  16.281   5.568 -0.1275  0.0648 -0.0051
    1DIPC   NC3 5845  12.628  17.742   6.677 -0.0564  0.1151  0.0258
    1DIPC   PO4 5846  12.879  17.407   6.767  0.2733  0.1805  0.1913
    1DIPC   GL1 5847  12.889  17.508   6.362 -0.2490 -0.1920 -0.1836
    1DIPC   GL2 5848  12.955  17.825   6.264  0.3863 -0.0175  0.0550
    1DIPC   C1A 5849  12.693  17.577   5.964  0.0538  0.3765  0.1128
    1DIPC   D2A 5850  12.637  17.830   5.571  0.1622  0.4512  0.1271
    1DIPC   D3A 5851  12.234  18.010   5.329  0.0599  0.1611 -0.1807
    1DIPC   C4A 5852  12.009  17.905   4.888 -0.1216 -0.0732 -0.1991
    1DIPC   C1B 5853  12.666  18.102   6.035 -0.1680  0.2630 -0.0224
    1DIPC   D2B 5854  12.485  18.282   5.801 -0.0446  0.2084 -0.1613
    1DIPC   D3B 5855  12.227  18.516   5.462 -0.1517 -0.4329  0.2839
    1DIPC   C4B 5856  12.174  18.372   5.009 -0.4150 -0.2451 -0.0245
    1DIPC   NC3 5857  15.655  17.590   6.242  0.2343  0.1993 -0.0624
    1DIPC   PO4 5858  16.037  17.746   6.298 -0.1883  0.0248  0.3942
    1DIPC   GL1 5859  15.997  17.855   5.758 -0.0292  0.0282 -0.1360
    1DIPC   GL2 5860  16.129  17.553   5.685 -0.0845 -0.0503 -0.0882
    1DIPC   C1A 5861  15.969  18.046   5.410  0.0834  0.1357  0.2251
    1DIPC   D2A 5862  15.922  18.127   4.917 -0.2585  0.2454  0.1978
    1DIPC   D3A 5863  15.891  18.387   4.504  0.1550  0.0685  0.0806
    1DIPC   C4A 5864  15.894  18.140   4.132 -0.1824 -0.2156 -0.0797
    1DIPC   C1B 5865  15.882  17.461   5.405 -0.2862 -0.3165  0.0096
    1DIPC   D2B 5866  15.869  17.623   5.054 -0.2114  0.1528  0.2770
    1DIPC   D3B 5867  15.574  17.749   4.832  0.0183  0.0016 -0.0034
    1DIPC   C4B 5868  15.282  17.445   4.575 -0.1471 -0.1775 -0.2709
    1DIPC   NC3 5869  24.638  23.759   8.003 -0.2927 -0.1448 -0.1936
    1DIPC   PO4 5870  24.334  23.898   7.693  0.0836  0.3119  0.1794
    1DIPC   GL1 5871  24.599  23.782   7.310 -0.1425  0.1673  0.3616
    1DIPC   GL2 5872  24.353  23.491   7.175 -0.0591  0.0590 -0.2777
    1DIPC   C1A 5873  24.834  24.041   7.101 -0.0165 -0.1172 -0.1309
    1DIPC   D2A 5874  24.827  24.443   6.965  0.3088 -0.0728  0.0829
    1DIPC   D3A 5875  24.651  24.815   7.208 -0.0766 -0.3963  0.2163
    1DIPC   C4A 5876  24.479  25.075   6.893 -0.0164  0.0833  0.1676
    1DIPC   C1B 5877  24.462  23.598   6.756 -0.0644  0.1293  0.1423
    1DIPC   D2B 5878  24.752  23.732   6.482  0.3043 -0.1830  0.2777
    1DIPC   D3B 5879  24.823  24.157   6.543  0.0962 -0.1626  0.1799
    1DIPC   C4B 5880  25.047  24.508   6.398 -0.2129 -0.0786  0.2855
    1DIPC   NC3 5881   0.261  18.501   7.648  0.1310  0.1384 -0.1282
    1DIPC   PO4 5882   0.083  18.914   7.937 -0.2129 -0.2086 -0.0752
    1DIPC   GL1 5883  -0.021  19.007   7.519  0.1434  0.0467 -0.1110
    1DIPC   GL2 5884  -0.225  19.215   7.372 -0.0702  0.2007  0.1085
    1DIPC   C1A 5885  -0.056  18.880   7.072  0.0333  0.1194  0.1689
    1DIPC   D2A 5886   0.029  19.282   6.799  0.0885 -0.1543 -0.1070
    1DIPC   D3A 5887   0.280  18.942   6.538  0.2215 -0.0628  0.1084
    1DIPC   C4A 5888   0.568  19.148   6.128  0.1251  0.2549  0.2229
    1DIPC   C1B 5889   0.150  19.422   7.239 -0.1851  0.3124 -0.0562
    1DIPC   D2B 5890   0.597  19.255   7.154  0.2089  0.2973  0.0061
    1DIPC   D3B 5891   0.600  19.267   6.757  0.3424 -0.1016 -0.2571
    1DIPC   C4B 5892   0.797  18.881   6.529 -0.5121 -0.1375 -0.0844
    1DIPC   NC3 5893  11.951  17.044   6.511  0.0849 -0.1805  0.0637
    1DIPC   PO4 5894  12.231  16.643   6.479 -0.0912  0.1903 -0.0031
    1DIPC   GL1 5895  12.575  16.776   6.156  0.2732 -0.0407  0.1098
    1DIPC   GL2 5896  12.630  16.512   5.959 -0.2253 -0.0840 -0.2877
    1DIPC   C1A 5897  12.750  17.088   5.874  0.1785  0.4157  0.0581
    1DIPC   D2A 5898  12.743  17.158   5.479 -0.1381  0.1240 -0.0143
    1DIPC   D3A 5899  12.691  16.740   5.409 -0.3042  0.0362  0.2374
    1DIPC   C4A 5900  12.422  16.515   5.196  0.1183 -0.1515  0.0728
    1DIPC   C1B 5901  12.209  16.653   5.794  0.2139  0.2140 -0.2703
    1DIPC   D2B 5902  11.890  16.610   5.482 -0.0994  0.1074 -0.0810
    1DIPC   D3B 5903  12.239  16.929   5.419  0.0722  0.0153 -0.1819
    1DIPC   C4B 5904  12.466  16.989   5.056 -0.0836  0.0795  0.2933
    1DIPC   NC3 5905  10.842  27.147   7.401  0.0914 -0.0549 -0.0748
    1DIPC   PO4 5906  10.844  26.701   7.089 -0.0198 -0.2328 -0.0229
    1DIPC   GL1 5907  10.723  26.467   6.718 -0.1422  0.1322 -0.0507
    1DIPC   GL2 5908  10.743  26.689   6.474 -0.2435 -0.1282  0.3117
    1DIPC   C1A 5909  10.565  26.175   6.440  0.0488 -0.0069  0.2169
    1DIPC   D2A 5910  10.586  26.048   5.979  0.2610  0.0541 -0.3510
    1DIPC   D3A 5911  10.839  26.437   5.832  0.1125 -0.0993 -0.1214
    1DIPC   C4A 5912  11.009  26.788   5.997  0.2757 -0.1372  0.1571
    1DIPC   C1B 5913  10.496  26.636   6.160 -0.0881  0.2209 -0.0219
    1DIPC   D2B 5914  10.218  26.825   5.829  0.1778 -0.2270  0.0474
    1DIPC   D3B 5915  10.192  27.321   5.837 -0.1795 -0.4288  0.0971
    1DIPC   C4B 5916  10.016  27.487   6.244  0.4420 -0.1219  0.1270
    1DIPC   NC3 5917  15.022  12.154   5.869  0.0346 -0.2482  0.1900
    1DIPC   PO4 5918  14.660  12.204   6.105 -0.1140 -0.0701  0.1406
    1DIPC   GL1 5919  14.580  12.393   5.656 -0.4078  0.3229 -0.2874
    1DIPC   GL2 5920  14.858  12.347   5.354  0.1540 -0.0543 -0.0265
    1DIPC   C1A 5921  14.411  12.604   5.252  0.0580 -0.1699  0.0055
    1DIPC   D2A 5922  14.574  12.792   4.887 -0.1043 -0.0983 -0.1806
    1DIPC   D3A 5923  14.383  12.863   4.522 -0.0968 -0.1645  0.3625
    1DIPC   C4A 5924  14.416  12.639   4.183 -0.0061  0.1728  0.3686
    1DIPC   C1B 5925  14.931  12.392   4.900  0.2273  0.0231 -0.0235
    1DIPC   D2B 5926  15.124  12.550   4.526 -0.0048  0.0786 -0.0020
    1DIPC   D3B 5927  14.843  12.738   4.421 -0.1078  0.0337  0.0858
    1DIPC   C4B 5928  14.804  12.967   4.089 -0.2710 -0.0405  0.1518
    1DIPC   NC3 5929  20.465  16.780   6.766  0.0005 -0.2763 -0.2215
    1DIPC   PO4 5930  20.080  16.814   6.604 -0.2897  0.0369 -0.2441
    1DIPC   GL1 5931  19.978  16.627   6.164 -0.0245 -0.0626 -0.2169
    1DIPC   GL2 5932  19.870  16.352   6.092 -0.2138 -0.3001  0.4833
    1DIPC   C1A 5933  19.876  16.795   5.792  0.2118 -0.1436 -0.0183
    1DIPC   D2A 5934  19.782  16.738   5.323 -0.2199  0.3424 -0.1143
    1DIPC   D3A 5935  19.479  17.043   5.157  0.2855  0.0414  0.1647
    1DIPC   C4A 5936  19.371  17.293   4.728  0.0696 -0.0277 -0.2337
    1DIPC   C1B 5937  20.051  15.978   5.920 -0.2105 -0.0083  0.1132
    1DIPC   D2B 5938  20.325  16.063   5.584 -0.0049  0.1700  0.0373
    1DIPC   D3B 5939  20.197  16.201   5.137  0.4584  0.1133 -0.4258
    1DIPC   C4B 5940  19.921  16.288   4.843 -0.0921 -0.6755  0.1287
    1DIPC   NC3 5941   3.749   0.844   7.728  0.0262  0.0096  0.1397
    1DIPC   PO4 5942   3.593   1.160   7.866 -0.2779 -0.0727 -0.3946
    1DIPC   GL1 5943   3.339   1.033   7.479  0.0169  0.0467  0.0188
    1DIPC   GL2 5944   3.313   0.677   7.474 -0.0681  0.1027 -0.1341
    1DIPC   C1A 5945   3.381   1.286   7.208  0.0980  0.0206 -0.0826
    1DIPC   D2A 5946   3.600   1.442   6.893  0.0578 -0.0013  0.1705
    1DIPC   D3A 5947   3.739   1.091   6.665  0.0826  0.0449 -0.0378
    1DIPC   C4A 5948   3.727   0.913   7.061 -0.0443  0.1142 -0.1998
    1DIPC   C1B 5949   2.960   0.832   7.199  0.0464  0.2177 -0.3101
    1DIPC   D2B 5950   2.620   0.649   7.179  0.1255  0.0773  0.1814
    1DIPC   D3B 5951   2.909   0.465   6.842 -0.0176 -0.0654 -0.1437
    1DIPC   C4B 5952   3.073   0.353   6.452 -0.0621 -0.0794  0.2534
    1DIPC   NC3 5953   0.702  23.928   7.725  0.3566 -0.0176  0.0353
    1DIPC   PO4 5954   0.850  23.527   7.541  0.0673 -0.0947  0.1834
    1DIPC   GL1 5955   0.758  23.413   7.024  0.1159  0.1759 -0.1729
    1DIPC   GL2 5956   0.471  23.598   7.064 -0.1151  0.2477  0.2023
    1DIPC   C1A 5957   0.928  23.019   6.856 -0.2354 -0.2743 -0.2655
    1DIPC   D2A 5958   1.205  22.952   6.498 -0.2183  0.0275  0.1977
    1DIPC   D3A 5959   1.150  23.311   6.295 -0.1726 -0.1881 -0.2103
    1DIPC   C4A 5960   0.761  23.544   6.408 -0.0242 -0.0631 -0.0542
    1DIPC   C1B 5961   0.331  23.874   6.724  0.0291  0.0302 -0.0406
    1DIPC   D2B 5962   0.195  24.049   6.270  0.3226 -0.1701  0.0268
    1DIPC   D3B 5963   0.398  23.856   5.927  0.1789  0.1356  0.0740
    1DIPC   C4B 5964   0.902  23.794   5.944  0.0631 -0.0532 -0.1136
    1DIPC   NC3 5965  26.049  18.542   7.286 -0.0023  0.2519  0.0894
    1DIPC   PO4 5966  26.086  18.075   7.273  0.1873 -0.0909  0.1961
    1DIPC   GL1 5967  26.118  18.021   6.884 -0.1385  0.0209  0.0180
    1DIPC   GL2 5968  26.228  17.630   6.788  0.0820  0.0201 -0.2408
    1DIPC   C1A 5969  26.343  18.136   6.465 -0.1317  0.2890 -0.1017
    1DIPC   D2A 5970  26.590  18.326   6.206  0.1709 -0.3323  0.2270
    1DIPC   D3A 5971  26.483  18.589   5.746  0.1242  0.0971 -0.1821
    1DIPC   C4A 5972  26.395  18.288   5.428 -0.0729  0.0412  0.0412
    1DIPC   C1B 5973  26.491  17.577   6.559 -0.2312  0.1267 -0.0300
    1DIPC   D2B 5974  26.745  17.378   6.158  0.2887 -0.0173  0.2359
    1DIPC   D3B 5975  26.728  17.568   5.732  0.0432  0.1676 -0.3112
    1DIPC   C4B 5976  26.412  17.709   5.577 -0.0309 -0.1524  0.2193
    1DIPC   NC3 5977  23.237  22.105   7.126  0.0109  0.1019 -0.0974
    1DIPC   PO4 5978  23.561  22.065   6.716 -0.0756  0.1905 -0.0198
    1DIPC   GL1 5979  23.490  22.401   6.661 -0.1541  0.1222 -0.0135
    1DIPC   GL2 5980  23.397  22.633   6.435 -0.1402  0.0715 -0.0789
    1DIPC   C1A 5981  23.664  22.847   6.752  0.0227 -0.2283 -0.1520
    1DIPC   D2A 5982  24.005  23.185   6.776 -0.0015  0.0540  0.0981
    1DIPC   D3A 5983  24.418  23.074   6.909 -0.0997  0.1738 -0.1661
    1DIPC   C4A 5984  24.811  23.227   6.711 -0.0437 -0.0042 -0.2074
    1DIPC   C1B 5985  23.147  22.637   6.003 -0.0687  0.1046 -0.1604
    1DIPC   D2B 5986  23.121  22.726   5.561  0.1139  0.0470 -0.0620
    1DIPC   D3B 5987  23.495  22.943   5.350 -0.0227  0.2024 -0.0831
    1DIPC   C4B 5988  23.457  23.079   4.953  0.2953  0.0682 -0.0559
    1DIPC   NC3 5989  17.671  25.028   7.022  0.2888  0.0743  0.3959
    1DIPC   PO4 5990  18.153  25.133   6.951 -0.0397 -0.0037  0.0891
    1DIPC   GL1 5991  18.332  25.071   6.504  0.1521  0.3593 -0.0778
    1DIPC   GL2 5992  18.699  25.043   6.358 -0.0217  0.1087  0.1270
    1DIPC   C1A 5993  18.245  24.875   6.145 -0.1564  0.1479  0.0804
    1DIPC   D2A 5994  18.253  24.924   5.709 -0.1476  0.0692  0.2692
    1DIPC   D3A 5995  18.640  24.942   5.481 -0.0198  0.2400 -0.2923
    1DIPC   C4A 5996  18.672  24.693   5.104 -0.1072 -0.0799  0.0218
    1DIPC   C1B 5997  18.822  25.053   5.930  0.0772  0.0773  0.0774
    1DIPC   D2B 5998  19.131  25.128   5.640 -0.2285  0.1703 -0.2225
    1DIPC   D3B 5999  19.062  24.958   5.235 -0.0672 -0.0087  0.1815
    1DIPC   C4B 6000  19.201  24.617   5.129  0.2309  0.0894 -0.3767
    1DIPC   NC3 6001  26.956  26.212   7.693  0.1766 -0.0323  0.0310
    1DIPC   PO4 6002  26.826  26.680   7.584 -0.0121  0.1263  0.3420
    1DIPC   GL1 6003  26.890  26.459   7.195  0.2184 -0.0733  0.0896
    1DIPC   GL2 6004  26.657  26.173   7.139 -0.0058  0.1700 -0.3346
    1DIPC   C1A 6005  26.941  26.560   6.797 -0.2546  0.1185  0.1333
    1DIPC   D2A 6006  27.137  26.421   6.475  0.1272  0.0231  0.1932
    1DIPC   D3A 6007  27.413  26.225   6.721  0.0539 -0.0043 -0.0977
    1DIPC   C4A 6008  27.859  26.435   6.951  0.0514 -0.2399  0.3184
    1DIPC   C1B 6009  26.837  26.063   6.656  0.1732  0.0368 -0.0380
    1DIPC   D2B 6010  26.890  25.987   6.255 -0.0647 -0.2413  0.2839
    1DIPC   D3B 6011  27.371  26.033   6.222 -0.2381 -0.0092  0.0649
    1DIPC   C4B 6012  27.698  25.875   5.914  0.0559 -0.1119 -0.1112
    1DIPC   NC3 6013   5.186   0.119   8.179 -0.1413  0.1020 -0.1936
    1DIPC   PO4 6014   5.283  -0.326   8.160  0.1504 -0.2754  0.1638
    1DIPC   GL1 6015   5.345  -0.096   7.786  0.2305  0.1047  0.1259
    1DIPC   GL2 6016   5.576  -0.334   7.511 -0.0365  0.4555 -0.1924
    1DIPC   C1A 6017   5.348   0.175   7.511  0.2744 -0.0641  0.1240
    1DIPC   D2A 6018   5.339   0.524   7.139 -0.0112  0.2455  0.0291
    1DIPC   D3A 6019   5.295   0.561   6.640 -0.3361  0.0439 -0.0709
    1DIPC   C4A 6020   5.413   0.180   6.451  0.3293  0.2483 -0.2006
    1DIPC   C1B 6021   5.517  -0.469   7.107  0.3650  0.2220  0.0735
    1DIPC   D2B 6022   5.300  -0.457   6.627 -0.1685 -0.1494  0.0365
    1DIPC   D3B 6023   5.337  -0.306   6.279 -0.0017  0.2729  0.0835
    1DIPC   C4B 6024   5.678  -0.402   6.110  0.0941  0.2750 -0.3536
    1DIPC   NC3 6025   1.939  17.436   7.876 -0.2354  0.0006 -0.1298
    1DIPC   PO4 6026   1.835  17.679   7.478  0.1497  0.0640  0.0746
    1DIPC   GL1 6027   1.745  17.746   7.127  0.0864 -0.0431 -0.2309
    1DIPC   GL2 6028   2.028  17.676   6.892  0.0729 -0.3723 -0.1065
    1DIPC   C1A 6029   1.523  17.815   6.740  0.0046  0.4385  0.0478
    1DIPC   D2A 6030   1.378  17.707   6.369 -0.2166 -0.2192  0.0991
    1DIPC   D3A 6031   1.455  17.451   5.941 -0.4202 -0.0490  0.0051
    1DIPC   C4A 6032   1.509  17.004   5.896  0.0679  0.5013  0.1473
    1DIPC   C1B 6033   2.204  17.336   6.695  0.2124  0.0824 -0.0382
    1DIPC   D2B 6034   1.994  16.913   6.795 -0.0938 -0.1165 -0.1470
    1DIPC   D3B 6035   1.768  16.875   6.408  0.1045 -0.1921 -0.0586
    1DIPC   C4B 6036   1.940  16.597   5.968  0.1020 -0.0917 -0.0952
    1DIPC   NC3 6037   9.710  19.266   7.059  0.1868 -0.0983  0.3762
    1DIPC   PO4 6038   9.439  18.994   6.840  0.1535  0.4689  0.1289
    1DIPC   GL1 6039   9.519  19.165   6.453 -0.0484  0.3277 -0.3904
    1DIPC   GL2 6040   9.725  19.382   6.487 -0.0476  0.2195  0.3481
    1DIPC   C1A 6041   9.714  19.071   6.060 -0.2696 -0.1468  0.2519
    1DIPC   D2A 6042   9.726  18.759   5.898  0.2957  0.2353 -0.0955
    1DIPC   D3A 6043   9.635  18.636   5.490  0.3261 -0.1738  0.3167
    1DIPC   C4A 6044   9.889  18.685   5.031 -0.0298  0.1625  0.1462
    1DIPC   C1B 6045   9.946  19.775   6.444  0.1550  0.0542  0.0957
    1DIPC   D2B 6046   9.980  20.224   6.307 -0.3371 -0.1662  0.3077
    1DIPC   D3B 6047   9.897  19.899   5.944  0.2070  0.2270  0.0968
    1DIPC   C4B 6048  10.001  20.087   5.537 -0.1269 -0.0033  0.1659
    1DIPC   NC3 6049  16.857   0.466   6.830 -0.1820  0.2203 -0.0330
    1DIPC   PO4 6050  16.686   0.475   6.469 -0.1839  0.0666  0.1498
    1DIPC   GL1 6051  16.736   0.680   6.011  0.0478  0.0978 -0.1459
    1DIPC   GL2 6052  16.513   0.952   6.059 -0.1567  0.0705 -0.3186
    1DIPC   C1A 6053  17.062   0.727   5.747  0.0782 -0.0473 -0.4189
    1DIPC   D2A 6054  17.302   0.769   5.501 -0.0341 -0.0336 -0.1128
    1DIPC   D3A 6055  17.599   0.474   5.337  0.1191 -0.1882  0.1589
    1DIPC   C4A 6056  17.967   0.543   5.171  0.0430 -0.4926 -0.1960
    1DIPC   C1B 6057  16.441   0.977   5.631  0.2001 -0.1512 -0.1429
    1DIPC   D2B 6058  16.553   1.085   5.239  0.0207  0.1132 -0.1614
    1DIPC   D3B 6059  16.291   0.846   5.194  0.0382  0.1288 -0.0397
    1DIPC   C4B 6060  16.111   0.623   4.787  0.0454 -0.0707 -0.0825
    1DIPC   NC3 6061  22.911  18.662   6.781 -0.1368  0.0671 -0.3304
    1DIPC   PO4 6062  22.640  18.679   6.404 -0.1430 -0.1696  0.1340
    1DIPC   GL1 6063  22.482  18.815   6.059  0.0075  0.1811 -0.0307
    1DIPC   GL2 6064  22.466  19.139   6.035  0.3016 -0.3373 -0.0082
    1DIPC   C1A 6065  22.489  18.851   5.660 -0.2796  0.1718 -0.1600
    1DIPC   D2A 6066  22.599  18.986   5.272  0.0973 -0.0975  0.0348
    1DIPC   D3A 6067  22.865  18.754   4.986 -0.1102 -0.2053  0.0393
    1DIPC   C4A 6068  22.540  18.504   4.860 -0.2896  0.0733 -0.2345
    1DIPC   C1B 6069  22.544  19.371   5.626 -0.1088 -0.0200 -0.1202
    1DIPC   D2B 6070  22.784  19.453   5.240  0.1243 -0.1385  0.0322
    1DIPC   D3B 6071  22.712  19.277   4.878  0.0865 -0.0832 -0.0499
    1DIPC   C4B 6072  22.763  19.543   4.626 -0.4316  0.0610 -0.0737
    1DIPC   NC3 6073   8.688  20.183   7.085  0.3001  0.1058 -0.0529
    1DIPC   PO4 6074   8.505  20.437   6.759  0.2329 -0.2890  0.2831
    1DIPC   GL1 6075   8.857  20.663   6.412  0.2025 -0.1286 -0.0455
    1DIPC   GL2 6076   9.026  20.451   6.204 -0.0666 -0.2659 -0.2682
    1DIPC   C1A 6077   9.064  20.998   6.167 -0.3010  0.0950 -0.1208
    1DIPC   D2A 6078   9.409  21.108   5.900  0.0708  0.0042  0.2511
    1DIPC   D3A 6079   9.139  21.199   5.525 -0.0015 -0.2220  0.0911
    1DIPC   C4A 6080   9.251  21.414   5.179  0.1354  0.2684 -0.1168
    1DIPC   C1B 6081   8.966  20.394   5.740 -0.1320  0.2466 -0.0874
    1DIPC   D2B 6082   9.064  20.665   5.305  0.0693  0.0678 -0.0564
    1DIPC   D3B 6083   8.788  20.564   4.990  0.2543  0.0914 -0.1991
    1DIPC   C4B 6084   8.443  20.263   4.942 -0.0457  0.1391  0.2552
    1DIPC   NC3 6085   1.046  14.803   7.692 -0.0626  0.1143  0.0383
    1DIPC   PO4 6086   0.757  15.054   7.357  0.0956 -0.1583 -0.2250
    1DIPC   GL1 6087   0.582  14.978   6.969  0.0029  0.2031 -0.1950
    1DIPC   GL2 6088   0.753  14.935   6.698 -0.1242 -0.0256  0.1199
    1DIPC   C1A 6089   0.263  14.781   6.854  0.1443 -0.1001  0.3854
    1DIPC   D2A 6090   0.029  15.077   6.563 -0.0301 -0.0723  0.2013
    1DIPC   D3A 6091  -0.222  14.968   6.286  0.2909 -0.1511 -0.3334
    1DIPC   C4A 6092  -0.343  15.068   5.884 -0.0352  0.0961  0.1647
    1DIPC   C1B 6093   0.639  14.732   6.383  0.2342 -0.0898  0.0506
    1DIPC   D2B 6094   0.384  14.553   6.057 -0.0142  0.1667  0.4175
    1DIPC   D3B 6095   0.620  14.382   5.826 -0.1995 -0.0122 -0.0896
    1DIPC   C4B 6096   0.947  14.664   5.932 -0.0370 -0.3874 -0.1472
    1DIPC   NC3 6097  19.925   5.462   6.865 -0.0383  0.0461 -0.0692
    1DIPC   PO4 6098  19.702   5.154   6.537  0.1917  0.1320 -0.0429
    1DIPC   GL1 6099  19.896   5.219   6.075  0.1197  0.1601 -0.0607
    1DIPC   GL2 6100  19.651   5.313   5.999 -0.0447 -0.1860  0.0155
    1DIPC   C1A 6101  19.824   5.392   5.551 -0.3476  0.2052 -0.1684
    1DIPC   D2A 6102  19.631   5.735   5.487 -0.0932 -0.2099  0.3246
    1DIPC   D3A 6103  19.857   5.799   5.057  0.0885  0.3194  0.1071
    1DIPC   C4A 6104  20.174   5.473   4.987  0.2009 -0.2628  0.0611
    1DIPC   C1B 6105  19.795   5.765   5.956 -0.0287 -0.1379 -0.0264
    1DIPC   D2B 6106  19.875   6.144   5.729  0.0668  0.1061  0.0355
    1DIPC   D3B 6107  20.315   6.350   5.808 -0.0943  0.1043  0.2655
    1DIPC   C4B 6108  20.397   6.438   5.426  0.0664  0.1799 -0.3202
    1DIPC   NC3 6109  13.327  17.261   6.594 -0.0860 -0.0869  0.2354
    1DIPC   PO4 6110  13.400  17.567   6.368  0.0049 -0.0644  0.0305
    1DIPC   GL1 6111  13.490  17.794   6.002 -0.1538 -0.0954 -0.1044
    1DIPC   GL2 6112  13.314  18.074   6.017  0.1436  0.1417 -0.1261
    1DIPC   C1A 6113  13.539  17.848   5.543  0.1096  0.0111 -0.1712
    1DIPC   D2A 6114  13.707  17.857   5.096 -0.0041  0.1207 -0.3601
    1DIPC   D3A 6115  13.452  18.288   5.089 -0.1025  0.2322 -0.0104
    1DIPC   C4A 6116  13.061  18.311   4.979  0.3978  0.0048  0.3433
    1DIPC   C1B 6117  13.054  18.014   5.677 -0.2162 -0.2120 -0.0236
    1DIPC   D2B 6118  13.147  17.950   5.239  0.1648 -0.1331  0.2256
    1DIPC   D3B 6119  12.786  17.713   5.125 -0.2688  0.1772 -0.2944
    1DIPC   C4B 6120  12.569  17.424   4.736  0.2392 -0.0036  0.1372
    1DIPC   NC3 6121   8.106   4.011   7.420  0.0345  0.0020 -0.1463
    1DIPC   PO4 6122   8.028   4.468   7.238  0.0491  0.3548 -0.0054
    1DIPC   GL1 6123   7.987   4.536   6.818  0.1459  0.2387 -0.1802
    1DIPC   GL2 6124   7.684   4.394   6.695 -0.1549  0.1087 -0.1151
    1DIPC   C1A 6125   8.167   4.570   6.428  0.3886  0.0977 -0.0248
    1DIPC   D2A 6126   8.306   4.335   6.048  0.0432  0.0377  0.0775
    1DIPC   D3A 6127   8.471   4.746   6.117 -0.3831  0.1409  0.1357
    1DIPC   C4A 6128   8.532   4.952   6.424  0.0797  0.0564  0.2269
    1DIPC   C1B 6129   7.689   4.514   6.275  0.1036 -0.0385 -0.1467
    1DIPC   D2B 6130   7.433   4.390   6.015 -0.1118  0.0308  0.4345
    1DIPC   D3B 6131   7.551   4.525   5.598  0.2454  0.0853  0.2163
    1DIPC   C4B 6132   7.391   4.278   5.175 -0.2591 -0.1309  0.0642
    1DIPC   NC3 6133   6.744  19.359   6.983  0.2997  0.0023  0.0908
    1DIPC   PO4 6134   6.848  19.682   6.857  0.0591 -0.0723  0.0194
    1DIPC   GL1 6135   6.618  19.902   6.548 -0.0321  0.5107  0.0042
    1DIPC   GL2 6136   6.798  20.151   6.457  0.0270 -0.1623 -0.0153
    1DIPC   C1A 6137   6.671  19.988   6.014  0.0504  0.1255 -0.0126
    1DIPC   D2A 6138   6.612  19.938   5.662 -0.1848  0.2691 -0.0103
    1DIPC   D3A 6139   6.516  20.170   5.413 -0.1730 -0.0796 -0.0279
    1DIPC   C4A 6140   6.395  19.964   5.097  0.0882  0.3028  0.0760
    1DIPC   C1B 6141   6.497  20.325   6.290 -0.2449 -0.1945  0.2065
    1DIPC   D2B 6142   6.374  20.340   5.853 -0.1718 -0.0491  0.1730
    1DIPC   D3B 6143   6.796  20.430   5.809 -0.2423 -0.1954 -0.1008
    1DIPC   C4B 6144   6.968  20.437   6.046 -0.1320 -0.2264 -0.2164
    1DIPC   NC3 6145  17.983  23.057   6.916  0.0644 -0.0267  0.0216
    1DIPC   PO4 6146  17.781  23.042   6.534  0.0340 -0.0205  0.2169
    1DIPC   GL1 6147  17.799  23.282   6.158  0.1931  0.0436  0.2224
    1DIPC   GL2 6148  17.564  23.369   5.854  0.1175 -0.2321  0.0988
    1DIPC   C1A 6149  17.961  23.616   5.688  0.1599  0.1027 -0.3038
    1DIPC   D2A 6150  18.092  23.537   5.260  0.3409  0.0452  0.1657
    1DIPC   D3A 6151  17.883  23.172   5.051 -0.0968 -0.2740 -0.0800
    1DIPC   C4A 6152  17.973  23.077   4.706  0.0423  0.2139 -0.0827
    1DIPC   C1B 6153  17.619  23.405   5.427  0.0489 -0.3865  0.1274
    1DIPC   D2B 6154  17.548  23.598   4.997  0.0554 -0.1808  0.2718
    1DIPC   D3B 6155  17.652  23.465   4.670  0.3085  0.1419 -0.2113
    1DIPC   C4B 6156  17.597  23.469   4.299  0.3059  0.0397  0.2252
    1DIPC   NC3 6157   9.248  24.089   6.904  0.1462  0.0291 -0.0254
    1DIPC   PO4 6158   9.674  24.228   6.972 -0.1410  0.3211 -0.1478
    1DIPC   GL1 6159   9.422  24.481   6.653 -0.1635 -0.2078 -0.1333
    1DIPC   GL2 6160   9.366  24.188   6.433  0.0293  0.2823  0.1028
    1DIPC   C1A 6161   9.252  24.768   6.369 -0.0017 -0.0921  0.3147
    1DIPC   D2A 6162   9.293  25.282   6.357  0.1259  0.0545  0.0051
    1DIPC   D3A 6163   9.715  25.265   6.097  0.0379  0.3754 -0.1821
    1DIPC   C4A 6164   9.579  25.505   5.671  0.0428  0.1143  0.2370
    1DIPC   C1B 6165   9.405  24.399   6.035 -0.2432 -0.1931 -0.2204
    1DIPC   D2B 6166   9.243  24.759   5.848  0.0701  0.0220 -0.2146
    1DIPC   D3B 6167   8.926  24.697   5.731  0.0654  0.0347 -0.0076
    1DIPC   C4B 6168   8.516  24.582   5.785 -0.2889 -0.2651 -0.2408
    1DIPC   NC3 6169  24.821   1.454   7.446  0.0983  0.1973  0.1399
    1DIPC   PO4 6170  24.748   1.913   7.423 -0.1866  0.0128  0.0492
    1DIPC   GL1 6171  25.060   2.039   7.290 -0.0266  0.1357  0.1011
    1DIPC   GL2 6172  25.095   2.326   7.349 -0.3507  0.0228 -0.1613
    1DIPC   C1A 6173  25.349   1.936   6.923  0.1238 -0.1204 -0.1890
    1DIPC   D2A 6174  25.467   2.024   6.468 -0.2032 -0.2096  0.3605
    1DIPC   D3A 6175  25.689   1.886   6.085  0.1233  0.0693 -0.1561
    1DIPC   C4A 6176  25.875   1.693   5.750 -0.1051 -0.0331 -0.1943
    1DIPC   C1B 6177  25.171   2.449   6.925  0.4768  0.0023 -0.0053
    1DIPC   D2B 6178  25.181   2.466   6.502 -0.3451  0.2150 -0.0348
    1DIPC   D3B 6179  25.435   2.392   6.137  0.0343 -0.1564 -0.0212
    1DIPC   C4B 6180  25.393   2.616   5.732  0.0379  0.0091 -0.1413
    1DIPC   NC3 6181  16.214  15.356   6.659  0.2866  0.0140  0.0841
    1DIPC   PO4 6182  16.261  15.444   6.198 -0.0226 -0.0708 -0.1492
    1DIPC   GL1 6183  16.144  15.418   5.782  0.0008 -0.1426  0.0233
    1DIPC   GL2 6184  15.952  15.211   5.604 -0.2815 -0.1595 -0.0585
    1DIPC   C1A 6185  16.422  15.621   5.464 -0.1312  0.0321 -0.1789
    1DIPC   D2A 6186  16.684  15.769   5.067 -0.0887  0.1210  0.2287
    1DIPC   D3A 6187  16.273  16.028   5.025  0.0125  0.4877 -0.1193
    1DIPC   C4A 6188  16.320  16.359   4.774  0.1907 -0.1412 -0.0610
    1DIPC   C1B 6189  15.997  15.221   5.108 -0.0973  0.1293 -0.1220
    1DIPC   D2B 6190  16.112  15.184   4.622  0.0321 -0.0504 -0.2286
    1DIPC   D3B 6191  15.883  15.413   4.249  0.3450 -0.3139  0.0780
    1DIPC   C4B 6192  15.721  15.782   4.297 -0.2777 -0.0906 -0.2075
    1DIPC   NC3 6193  16.626   2.872   7.142  0.3015 -0.0076 -0.1356
    1DIPC   PO4 6194  16.623   3.080   6.686 -0.1044 -0.0953  0.2110
    1DIPC   GL1 6195  16.609   3.214   6.247  0.1865  0.0340 -0.0854
    1DIPC   GL2 6196  16.880   3.125   6.119  0.0136  0.1873  0.1560
    1DIPC   C1A 6197  16.515   3.277   5.804 -0.1213 -0.0736 -0.0103
    1DIPC   D2A 6198  16.483   3.296   5.297 -0.1873  0.4032  0.0560
    1DIPC   D3A 6199  16.840   3.315   4.981 -0.0653 -0.1789 -0.3470
    1DIPC   C4A 6200  16.998   2.992   4.738 -0.0038  0.0300 -0.2603
    1DIPC   C1B 6201  16.791   2.717   6.070  0.0725  0.0928 -0.0972
    1DIPC   D2B 6202  16.976   2.398   6.108 -0.0359  0.1105  0.1822
    1DIPC   D3B 6203  16.868   2.083   5.854 -0.1439  0.0596  0.0119
    1DIPC   C4B 6204  16.607   2.026   5.484 -0.2507 -0.1521  0.0263
    1DIPC   NC3 6205   4.149  12.510   7.412  0.2004  0.1648 -0.1310
    1DIPC   PO4 6206   3.969  12.095   7.421 -0.1404 -0.2032  0.1368
    1DIPC   GL1 6207   4.115  12.150   6.975  0.1675 -0.2560  0.0508
    1DIPC   GL2 6208   3.771  12.350   6.950  0.0873  0.2358  0.1206
    1DIPC   C1A 6209   4.023  12.163   6.483  0.0789  0.0266  0.0774
    1DIPC   D2A 6210   3.762  11.842   6.195  0.2077 -0.1793  0.2199
    1DIPC   D3A 6211   4.179  11.885   5.892 -0.0034  0.2030  0.1175
    1DIPC   C4A 6212   4.268  11.470   5.750 -0.3856 -0.1718 -0.3889
    1DIPC   C1B 6213   3.670  12.598   6.675 -0.1732  0.0904  0.1014
    1DIPC   D2B 6214   3.780  12.504   6.183  0.0495  0.0475 -0.2666
    1DIPC   D3B 6215   3.807  12.217   5.851 -0.0410 -0.1560  0.0387
    1DIPC   C4B 6216   3.562  12.022   5.735  0.0526  0.0737  0.1651
    1DIPC   NC3 6217  11.141  16.929   7.023  0.5682  0.3729 -0.3108
    1DIPC   PO4 6218  11.468  16.986   6.766  0.1345 -0.0412  0.0633
    1DIPC   GL1 6219  11.502  17.082   6.311  0.1787  0.2903 -0.1811
    1DIPC   GL2 6220  11.257  17.290   6.145  0.1802  0.1091 -0.0766
    1DIPC   C1A 6221  11.464  16.895   5.882 -0.1612  0.3348 -0.0728
    1DIPC   D2A 6222  11.442  16.851   5.400 -0.1739 -0.3029 -0.0671
    1DIPC   D3A 6223  11.750  17.017   5.114 -0.2060  0.1360 -0.0232
    1DIPC   C4A 6224  11.728  16.914   4.714 -0.2222  0.1215  0.0223
    1DIPC   C1B 6225  11.595  17.381   5.830 -0.1032 -0.2052 -0.0068
    1DIPC   D2B 6226  11.796  17.200   5.553 -0.1904  0.0658  0.1926
    1DIPC   D3B 6227  11.817  17.645   5.441  0.1819  0.0588 -0.1047
    1DIPC   C4B 6228  11.489  17.836   5.537  0.0557 -0.1163 -0.3184
    1DIPC   NC3 6229   9.799  21.090   6.995 -0.0613  0.4591 -0.0075
    1DIPC   PO4 6230   9.481  20.899   7.158  0.0474 -0.0950 -0.0348
    1DIPC   GL1 6231   9.289  21.012   6.776 -0.0858  0.1101 -0.2370
    1DIPC   GL2 6232   9.263  20.672   6.711  0.1027  0.0171  0.0861
    1DIPC   C1A 6233   9.412  21.349   6.411 -0.0150 -0.1633  0.2953
    1DIPC   D2A 6234   9.714  21.462   6.253  0.0707 -0.1819 -0.0422
    1DIPC   D3A 6235  10.173  21.465   6.006 -0.0336  0.3463  0.1376
    1DIPC   C4A 6236  10.426  21.218   6.109  0.0833 -0.0532  0.4758
    1DIPC   C1B 6237   9.491  20.771   6.332 -0.2258  0.1782  0.1068
    1DIPC   D2B 6238   9.927  21.010   6.183  0.0668 -0.0664  0.1070
    1DIPC   D3B 6239  10.039  21.239   6.538  0.0742  0.2527  0.1567
    1DIPC   C4B 6240  10.468  21.400   6.529 -0.0901  0.1150 -0.1941
    1DIPC   NC3 6241   7.434  27.698   7.549 -0.1040 -0.4281  0.2789
    1DIPC   PO4 6242   7.790  27.338   7.492  0.2966 -0.1081 -0.2608
    1DIPC   GL1 6243   7.866  27.447   7.084 -0.0575  0.0016  0.0121
    1DIPC   GL2 6244   7.670  27.612   7.082  0.0754  0.1000 -0.1329
    1DIPC   C1A 6245   7.906  27.254   6.711  0.1141 -0.1983 -0.2852
    1DIPC   D2A 6246   8.244  27.145   6.298  0.2450 -0.0052 -0.2410
    1DIPC   D3A 6247   8.341  27.485   6.056  0.1564 -0.0246  0.2179
    1DIPC   C4A 6248   8.506  27.832   6.198  0.0544  0.2180 -0.0526
    1DIPC   C1B 6249   7.507  27.586   6.707 -0.0205 -0.3257 -0.1748
    1DIPC   D2B 6250   7.165  27.595   6.438 -0.1861  0.1409  0.2012
    1DIPC   D3B 6251   7.176  27.434   6.135  0.1650 -0.1587 -0.0555
    1DIPC   C4B 6252   7.399  27.650   5.914  0.0957 -0.1025 -0.0497
    1DIPC   NC3 6253  26.453   2.009   7.914 -0.0049  0.0779  0.1829
    1DIPC   PO4 6254  26.409   1.725   7.762 -0.1595 -0.3000 -0.1970
    1DIPC   GL1 6255  26.658   1.708   7.458  0.1796  0.0267 -0.0844
    1DIPC   GL2 6256  26.823   2.077   7.481 -0.2683  0.0490  0.0733
    1DIPC   C1A 6257  26.739   1.403   7.056  0.1083 -0.3270  0.0190
    1DIPC   D2A 6258  26.538   1.031   6.732 -0.0507  0.3123  0.0834
    1DIPC   D3A 6259  26.488   1.372   6.590  0.0559  0.2709  0.0963
    1DIPC   C4A 6260  26.558   1.508   6.248 -0.0064 -0.1319 -0.0342
    1DIPC   C1B 6261  27.057   2.459   7.493  0.1097 -0.0153 -0.0605
    1DIPC   D2B 6262  27.360   2.645   7.650 -0.1483  0.0749 -0.1728
    1DIPC   D3B 6263  27.745   2.907   7.470 -0.0525  0.2472  0.0254
    1DIPC   C4B 6264  27.875   2.959   6.956 -0.4182  0.0401 -0.0294
    1DIPC   NC3 6265   7.544  12.357   6.332 -0.2755 -0.0413  0.0284
    1DIPC   PO4 6266   7.874  12.618   6.209  0.0488 -0.0354  0.0108
    1DIPC   GL1 6267   7.598  12.667   5.821  0.1384  0.0811 -0.0222
    1DIPC   GL2 6268   7.627  12.975   5.713  0.0826  0.1554  0.4295
    1DIPC   C1A 6269   7.333  12.573   5.408 -0.1309  0.2936 -0.0491
    1DIPC   D2A 6270   7.122  12.434   4.998  0.0391  0.0776  0.1895
    1DIPC   D3A 6271   7.134  12.149   4.586  0.4404  0.4127 -0.1304
    1DIPC   C4A 6272   7.035  12.397   4.251 -0.0747 -0.0137  0.0426
    1DIPC   C1B 6273   7.736  12.746   5.317 -0.1954 -0.3023 -0.0636
    1DIPC   D2B 6274   8.082  12.678   5.000 -0.2457 -0.2521 -0.2737
    1DIPC   D3B 6275   8.259  12.882   4.682 -0.2632 -0.2324 -0.0327
    1DIPC   C4B 6276   8.344  12.681   4.249  0.3949 -0.0710  0.1201
    1DIPC   NC3 6277   9.874   5.727   7.006  0.1182  0.0353 -0.0241
    1DIPC   PO4 6278   9.849   5.879   6.578  0.1550  0.2994  0.1895
    1DIPC   GL1 6279   9.853   5.874   6.098 -0.1767  0.1122  0.0223
    1DIPC   GL2 6280   9.996   5.988   5.950 -0.1523 -0.0407  0.3497
    1DIPC   C1A 6281   9.533   5.752   5.794 -0.3047  0.0223 -0.0785
    1DIPC   D2A 6282   9.351   5.659   5.402 -0.1750  0.1910  0.0001
    1DIPC   D3A 6283   9.739   5.353   5.403  0.2963  0.0834 -0.1882
    1DIPC   C4A 6284   9.864   5.169   4.974 -0.1368 -0.0136 -0.0445
    1DIPC   C1B 6285  10.058   5.766   5.535  0.2147 -0.2534 -0.0200
    1DIPC   D2B 6286  10.055   5.632   5.148  0.0745  0.1183 -0.0736
    1DIPC   D3B 6287  10.217   5.556   4.688  0.0761 -0.2915 -0.3437
    1DIPC   C4B 6288  10.014   5.309   4.450  0.1642 -0.2672  0.1265
    1DIPC   NC3 6289  27.991  18.513   7.871 -0.1474  0.0135 -0.0132
    1DIPC   PO4 6290  28.401  18.243   7.890  0.3069 -0.1522  0.0226
    1DIPC   GL1 6291  28.443  18.370   7.388  0.1554  0.4875 -0.0622
    1DIPC   GL2 6292  28.436  18.713   7.254  0.1673  0.0379 -0.0203
    1DIPC   C1A 6293  28.779  18.394   7.009 -0.0628 -0.0216  0.2602
    1DIPC   D2A 6294  28.837  18.583   6.670  0.1133 -0.2853  0.2492
    1DIPC   D3A 6295  28.914  18.161   6.537 -0.1517 -0.3721 -0.1075
    1DIPC   C4A 6296  28.873  17.916   6.062  0.0456  0.2439  0.0976
    1DIPC   C1B 6297  27.957  18.514   7.213 -0.2418 -0.4668  0.1039
    1DIPC   D2B 6298  27.600  18.230   7.242  0.0527 -0.0592 -0.2745
    1DIPC   D3B 6299  27.164  18.360   7.364 -0.1589  0.4609  0.1089
    1DIPC   C4B 6300  26.838  18.486   7.046 -0.1619  0.4226 -0.1898
    1DIPC   NC3 6301  17.163   0.533   6.382  0.3434  0.0705  0.0579
    1DIPC   PO4 6302  17.200   0.838   6.698 -0.1079 -0.0021 -0.1076
    1DIPC   GL1 6303  17.504   0.877   6.316  0.0709 -0.1897 -0.1803
    1DIPC   GL2 6304  17.483   0.612   5.981  0.1054 -0.0139  0.1072
    1DIPC   C1A 6305  17.432   1.111   5.912 -0.0318 -0.0840 -0.2425
    1DIPC   D2A 6306  17.434   1.219   5.428 -0.0445  0.2599  0.1149
    1DIPC   D3A 6307  17.049   1.191   5.456  0.0260  0.0766  0.2638
    1DIPC   C4A 6308  16.876   1.216   5.824  0.0314 -0.2216 -0.0626
    1DIPC   C1B 6309  17.804   0.374   5.768 -0.0186  0.0881  0.0581
    1DIPC   D2B 6310  17.795  -0.006   5.585  0.4282 -0.0794 -0.1152
    1DIPC   D3B 6311  17.766  -0.117   6.057  0.3830  0.0851  0.0921
    1DIPC   C4B 6312  18.140  -0.075   6.370  0.0877  0.0240 -0.0354
    1DIPC   NC3 6313  16.283  27.291   6.558 -0.0958  0.0111 -0.1315
    1DIPC   PO4 6314  16.270  27.818   6.576 -0.1267 -0.0943 -0.0832
    1DIPC   GL1 6315  16.659  27.648   6.300  0.2161 -0.0353 -0.2717
    1DIPC   GL2 6316  16.876  27.888   6.322  0.1056  0.0583 -0.0645
    1DIPC   C1A 6317  16.666  27.691   5.807  0.3080 -0.0325  0.3132
    1DIPC   D2A 6318  16.652  27.836   5.387  0.2185  0.0870  0.0660
    1DIPC   D3A 6319  16.901  28.067   5.053  0.1366  0.1541 -0.1500
    1DIPC   C4A 6320  17.267  28.107   4.890  0.1422 -0.1493  0.0091
    1DIPC   C1B 6321  17.112  27.731   6.020  0.1181  0.0970 -0.1598
    1DIPC   D2B 6322  17.137  27.649   5.596 -0.1238 -0.1117  0.2560
    1DIPC   D3B 6323  17.154  27.638   5.162 -0.0372 -0.3027 -0.1005
    1DIPC   C4B 6324  17.587  27.766   5.073 -0.1541 -0.3294  0.1320
    1DIPC   NC3 6325  27.016  17.326   7.297  0.3438  0.0993 -0.2667
    1DIPC   PO4 6326  26.832  17.753   7.538 -0.0682  0.3381 -0.0285
    1DIPC   GL1 6327  27.053  17.853   7.156  0.1074  0.0469  0.1295
    1DIPC   GL2 6328  27.246  17.632   6.959  0.3001 -0.0393  0.1316
    1DIPC   C1A 6329  27.283  18.125   6.860  0.0712  0.1671 -0.3932
    1DIPC   D2A 6330  27.768  18.282   6.763  0.1341  0.0998  0.0108
    1DIPC   D3A 6331  27.991  18.289   6.378  0.1302 -0.0837 -0.2020
    1DIPC   C4A 6332  28.372  18.177   6.379  0.0257 -0.1761  0.1994
    1DIPC   C1B 6333  27.015  17.809   6.569 -0.0278  0.0391  0.0334
    1DIPC   D2B 6334  26.831  17.850   6.233  0.1022  0.2698  0.0029
    1DIPC   D3B 6335  26.437  17.833   6.080  0.1995  0.1562  0.0715
    1DIPC   C4B 6336  26.239  18.182   5.905 -0.0162 -0.1123 -0.1912
    1DIPC   NC3 6337   3.781  13.198   7.492 -0.1310  0.1474 -0.0148
    1DIPC   PO4 6338   4.192  13.037   7.368 -0.1256 -0.0712 -0.3941
    1DIPC   GL1 6339   3.974  12.830   7.075 -0.2983  0.1775  0.0372
    1DIPC   GL2 6340   3.912  13.158   6.944  0.0401 -0.1553 -0.1205
    1DIPC   C1A 6341   4.209  12.617   6.689  0.1952  0.0478  0.1421
    1DIPC   D2A 6342   4.576  12.608   6.561  0.0915 -0.0688 -0.0775
    1DIPC   D3A 6343   4.587  12.601   6.138  0.1917  0.0725 -0.2026
    1DIPC   C4A 6344   4.242  12.442   6.073  0.0787 -0.1866  0.1440
    1DIPC   C1B 6345   3.987  13.050   6.514  0.3111  0.1440 -0.0580
    1DIPC   D2B 6346   4.189  12.874   6.216 -0.2002  0.1848  0.0633
    1DIPC   D3B 6347   4.443  13.161   6.147  0.1726 -0.1615 -0.0636
    1DIPC   C4B 6348   4.820  13.017   6.293 -0.0346  0.0210 -0.3583
    1DIPC   NC3 6349   1.789  21.446   7.199 -0.0213  0.3961  0.0992
    1DIPC   PO4 6350   1.599  21.809   7.360  0.0127 -0.0448  0.1342
    1DIPC   GL1 6351   1.399  21.922   7.055 -0.2024 -0.2551  0.1276
    1DIPC   GL2 6352   1.163  21.745   6.943  0.2447  0.5689  0.0564
    1DIPC   C1A 6353   1.270  22.167   6.678  0.0489  0.0188  0.2135
    1DIPC   D2A 6354   1.637  22.217   6.341 -0.0400 -0.0059 -0.0525
    1DIPC   D3A 6355   1.496  22.693   6.166 -0.1030 -0.1139  0.2123
    1DIPC   C4A 6356   1.801  22.773   5.836  0.1271 -0.0088 -0.4659
    1DIPC   C1B 6357   1.123  21.707   6.525  0.0545  0.2393  0.2968
    1DIPC   D2B 6358   0.826  21.623   6.206 -0.0447  0.0530 -0.1025
    1DIPC   D3B 6359   1.037  22.096   6.178  0.1148  0.1168  0.1118
    1DIPC   C4B 6360   1.344  22.255   5.828  0.0737 -0.1308 -0.1627
    1DIPC   NC3 6361   2.530  13.994   7.353 -0.0083  0.0013  0.2125
    1DIPC   PO4 6362   2.781  13.815   7.139 -0.0416  0.1443  0.0099
    1DIPC   GL1 6363   2.820  13.894   6.827 -0.1216 -0.0841 -0.1959
    1DIPC   GL2 6364   2.591  13.711   6.586  0.1224 -0.3915 -0.0112
    1DIPC   C1A 6365   2.451  14.161   6.580  0.3797 -0.4466  0.0436
    1DIPC   D2A 6366   2.178  14.546   6.512 -0.4229 -0.1039 -0.3195
    1DIPC   D3A 6367   1.710  14.599   6.450 -0.1643  0.0899  0.1077
    1DIPC   C4A 6368   1.490  14.838   6.151 -0.1980 -0.1926  0.0664
    1DIPC   C1B 6369   2.625  13.983   6.184  0.1305 -0.1224  0.1266
    1DIPC   D2B 6370   2.642  13.873   5.696  0.2010  0.0829 -0.1832
    1DIPC   D3B 6371   2.676  14.086   5.260 -0.2538 -0.2289 -0.0059
    1DIPC   C4B 6372   2.370  14.362   5.328  0.0005  0.2432  0.2949
    1DIPC   NC3 6373  16.561  28.245   6.485  0.2526  0.1963  0.1461
    1DIPC   PO4 6374  16.924  28.402   6.463 -0.2426  0.1826  0.0721
    1DIPC   GL1 6375  16.878  28.229   5.909  0.2399 -0.0007  0.0562
    1DIPC   GL2 6376  16.492  28.142   5.935 -0.1293  0.1679  0.0947
    1DIPC   C1A 6377  17.006  28.187   5.543 -0.2019  0.0791  0.1100
    1DIPC   D2A 6378  17.417  28.151   5.365 -0.0413  0.2013  0.1059
    1DIPC   D3A 6379  17.339  28.578   5.440 -0.0102  0.2020 -0.2802
    1DIPC   C4A 6380  16.987  28.699   5.688 -0.2710  0.3393 -0.0710
    1DIPC   C1B 6381  16.508  28.411   5.542  0.2047  0.1685 -0.0808
    1DIPC   D2B 6382  16.868  28.555   5.218 -0.1471 -0.1895  0.0617
    1DIPC   D3B 6383  16.370  28.564   5.053 -0.1049 -0.1693 -0.2726
    1DIPC   C4B 6384  16.000  28.477   5.357 -0.1771  0.1058  0.1140
    1DIPC   NC3 6385  28.738  24.887   7.932  0.3033 -0.0913 -0.1403
    1DIPC   PO4 6386  29.056  24.582   7.724 -0.1691  0.0279 -0.1757
    1DIPC   GL1 6387  29.187  24.641   7.303  0.0690  0.0408 -0.2808
    1DIPC   GL2 6388  29.403  24.934   7.280  0.1378 -0.1610 -0.0112
    1DIPC   C1A 6389  29.432  24.498   6.881  0.3884 -0.3806  0.2859
    1DIPC   D2A 6390  29.453  24.683   6.506 -0.2967 -0.1155  0.0587
    1DIPC   D3A 6391  29.079  24.469   6.500 -0.0548  0.0014 -0.0757
    1DIPC   C4A 6392  28.960  24.294   6.841  0.0686 -0.3543 -0.2323
    1DIPC   C1B 6393  29.757  24.944   6.942  0.2134  0.1189  0.1576
    1DIPC   D2B 6394  29.799  25.135   6.542 -0.1299  0.0683  0.0419
    1DIPC   D3B 6395  29.643  25.007   6.171 -0.0008  0.0539  0.5528
    1DIPC   C4B 6396  29.191  24.956   6.219  0.2882 -0.2338 -0.2249
    1DIPC   NC3 6397  11.107  17.339   6.676  0.1214  0.0498 -0.1811
    1DIPC   PO4 6398  11.187  17.686   6.788 -0.1653  0.1704  0.0070
    1DIPC   GL1 6399  11.139  17.725   6.410  0.0704 -0.2268 -0.0441
    1DIPC   GL2 6400  10.892  17.728   6.361 -0.1272  0.0466  0.2136
    1DIPC   C1A 6401  11.217  17.808   5.954 -0.1534 -0.0698  0.0543
    1DIPC   D2A 6402  11.318  18.220   5.821  0.0372  0.1965  0.2232
    1DIPC   D3A 6403  11.241  18.292   5.355 -0.3088 -0.0211 -0.0836
    1DIPC   C4A 6404  11.089  18.587   5.067 -0.2773 -0.0283  0.3870
    1DIPC   C1B 6405  10.542  17.845   6.177 -0.0132  0.0479  0.0585
    1DIPC   D2B 6406  10.043  17.911   6.235  0.1996  0.0110  0.0862
    1DIPC   D3B 6407   9.746  17.664   6.021  0.2696 -0.0772 -0.0267
    1DIPC   C4B 6408   9.852  17.329   5.650 -0.3118  0.0717 -0.0097
    1DIPC   NC3 6409  27.502   4.575   7.868 -0.0472  0.4384 -0.0097
    1DIPC   PO4 6410  27.874   4.443   8.151  0.0677  0.0602  0.0894
    1DIPC   GL1 6411  28.167   4.636   7.891 -0.2127 -0.2116 -0.3007
    1DIPC   GL2 6412  28.361   4.454   7.782 -0.1753  0.2272 -0.0099
    1DIPC   C1A 6413  28.451   4.807   7.478 -0.0581 -0.0048 -0.1439
    1DIPC   D2A 6414  28.586   4.717   7.102  0.1129  0.3325  0.1529
    1DIPC   D3A 6415  28.920   4.867   6.816  0.1583 -0.1403  0.0616
    1DIPC   C4A 6416  29.034   5.209   7.017  0.0623  0.2434  0.1012
    1DIPC   C1B 6417  28.103   4.466   7.337 -0.2626  0.0245 -0.0904
    1DIPC   D2B 6418  27.892   4.461   7.019 -0.0137 -0.1651  0.2716
    1DIPC   D3B 6419  27.834   4.056   6.999 -0.1062  0.1226  0.1086
    1DIPC   C4B 6420  28.153   3.757   7.228  0.1432 -0.1965  0.0096
    1DIPC   NC3 6421  19.029  14.073   7.016  0.0087 -0.2863 -0.1830
    1DIPC   PO4 6422  19.167  14.207   6.580  0.1853  0.0052  0.3243
    1DIPC   GL1 6423  19.401  14.206   6.265 -0.0679 -0.1702 -0.1359
    1DIPC   GL2 6424  19.666  14.268   6.099 -0.3683 -0.2457 -0.0277
    1DIPC   C1A 6425  19.209  14.312   5.823 -0.1457  0.1795 -0.1522
    1DIPC   D2A 6426  18.810  14.446   5.643 -0.1736  0.0137  0.2112
    1DIPC   D3A 6427  18.901  14.167   5.385  0.1053 -0.0007  0.0778
    1DIPC   C4A 6428  19.318  14.195   5.308 -0.0043  0.0908  0.1689
    1DIPC   C1B 6429  19.702  14.074   5.632  0.1250  0.0314  0.0485
    1DIPC   D2B 6430  19.755  13.965   5.179 -0.0108  0.0828  0.1647
    1DIPC   D3B 6431  19.618  13.585   5.232  0.2537  0.0791  0.3531
    1DIPC   C4B 6432  19.511  13.393   5.550 -0.1967  0.1584  0.1458
    1DIPC   NC3 6433  13.725  21.119   6.828  0.1641  0.1538  0.3860
    1DIPC   PO4 6434  13.355  20.703   6.787  0.0288 -0.2512  0.0870
    1DIPC   GL1 6435  13.374  20.901   6.395 -0.0683 -0.2581 -0.1570
    1DIPC   GL2 6436  13.566  21.103   6.249  0.0289 -0.1968 -0.0908
    1DIPC   C1A 6437  13.164  20.921   5.918  0.3793 -0.0058 -0.2533
    1DIPC   D2A 6438  13.057  20.859   5.514  0.0457 -0.0218 -0.0127
    1DIPC   D3A 6439  12.993  21.162   5.173  0.1132 -0.2998  0.0505
    1DIPC   C4A 6440  12.849  20.972   4.750 -0.0688  0.1000 -0.1191
    1DIPC   C1B 6441  13.745  20.938   5.897  0.1551 -0.1053  0.0121
    1DIPC   D2B 6442  13.626  20.769   5.573  0.4862 -0.1911  0.2362
    1DIPC   D3B 6443  13.440  21.243   5.476 -0.1017  0.1538 -0.1732
    1DIPC   C4B 6444  13.358  21.414   5.872 -0.0121 -0.0546 -0.1207
    1DIPC   NC3 6445   8.582  28.427   7.510  0.0799  0.1760  0.2244
    1DIPC   PO4 6446   8.342  28.640   7.392  0.0606 -0.2016 -0.1489
    1DIPC   GL1 6447   8.240  28.791   7.034  0.0510 -0.0722  0.2663
    1DIPC   GL2 6448   8.457  28.856   6.839 -0.1713  0.2506  0.0153
    1DIPC   C1A 6449   7.991  28.909   6.721  0.0769 -0.0774  0.1214
    1DIPC   D2A 6450   7.653  28.718   6.492 -0.0663 -0.3038  0.1531
    1DIPC   D3A 6451   7.658  28.391   6.215 -0.3042 -0.4473 -0.2708
    1DIPC   C4A 6452   7.537  27.941   6.266  0.1700 -0.0276 -0.0369
    1DIPC   C1B 6453   8.252  28.568   6.466  0.1096  0.2873 -0.1652
    1DIPC   D2B 6454   8.074  28.627   6.068  0.0027  0.0065 -0.0634
    1DIPC   D3B 6455   8.402  28.464   5.826  0.0531 -0.1097  0.1257
    1DIPC   C4B 6456   8.373  28.060   5.765  0.1598  0.2986  0.0597
    1DIPC   NC3 6457   3.054  11.289   7.497 -0.1047  0.1396  0.0672
    1DIPC   PO4 6458   2.871  10.997   7.616  0.0123  0.2842 -0.2056
    1DIPC   GL1 6459   2.853  10.922   7.180 -0.1670  0.0647  0.4011
    1DIPC   GL2 6460   3.076  10.563   7.145  0.3450  0.2002  0.2742
    1DIPC   C1A 6461   2.997  10.876   6.768  0.0629  0.3674 -0.2664
    1DIPC   D2A 6462   3.465  10.962   6.564 -0.2296 -0.0564  0.0953
    1DIPC   D3A 6463   3.577  11.303   6.217  0.0816  0.2475  0.0298
    1DIPC   C4A 6464   3.811  11.472   5.744  0.0299  0.0700 -0.0588
    1DIPC   C1B 6465   3.265  10.280   6.875  0.2282  0.1791 -0.0991
    1DIPC   D2B 6466   3.781  10.264   6.697 -0.0219 -0.0793  0.0049
    1DIPC   D3B 6467   3.482  10.518   6.443  0.0426 -0.0899 -0.2353
    1DIPC   C4B 6468   3.547  10.768   6.056 -0.0172 -0.2089 -0.0014
    1DIPC   NC3 6469   4.136  22.572   6.882  0.0393 -0.0596 -0.0676
    1DIPC   PO4 6470   3.751  22.871   7.006 -0.5035 -0.2359 -0.0622
    1DIPC   GL1 6471   3.723  23.243   6.688  0.1342 -0.4442  0.0281
    1DIPC   GL2 6472   3.538  23.456   6.578 -0.0277 -0.0035  0.0392
    1DIPC   C1A 6473   3.963  23.642   6.609 -0.1313 -0.1948 -0.0713
    1DIPC   D2A 6474   4.251  23.988   6.466 -0.1936  0.1799  0.0802
    1DIPC   D3A 6475   4.077  23.981   6.137 -0.2025 -0.0867  0.3830
    1DIPC   C4A 6476   3.708  24.162   6.229  0.0529 -0.3874 -0.0307
    1DIPC   C1B 6477   3.465  23.781   6.395  0.5471 -0.3192  0.2244
    1DIPC   D2B 6478   3.354  23.929   6.031  0.0647  0.0283 -0.2447
    1DIPC   D3B 6479   3.047  24.049   5.924 -0.0051  0.0481  0.0557
    1DIPC   C4B 6480   3.113  24.252   5.566 -0.0702 -0.0906  0.0063
    1DIPC   NC3 6481   6.613  22.859   7.265 -0.1348 -0.1207 -0.0992
    1DIPC   PO4 6482   6.913  22.573   7.245 -0.0385 -0.0253 -0.2563
    1DIPC   GL1 6483   6.890  22.733   6.827 -0.2021  0.4888 -0.1393
    1DIPC   GL2 6484   7.061  22.763   6.613 -0.0795  0.0198 -0.0876
    1DIPC   C1A 6485   6.726  23.138   6.683  0.1477  0.1515 -0.1083
    1DIPC   D2A 6486   6.812  23.524   6.447  0.1481  0.0243 -0.0554
    1DIPC   D3A 6487   7.176  23.251   6.505  0.2963 -0.0583  0.1055
    1DIPC   C4A 6488   7.506  23.385   6.261  0.0262 -0.1185 -0.0022
    1DIPC   C1B 6489   6.859  22.930   6.229 -0.3627 -0.0813  0.1117
    1DIPC   D2B 6490   6.566  23.119   6.158  0.2599 -0.0679 -0.0055
    1DIPC   D3B 6491   6.500  23.106   5.675  0.1511  0.3238 -0.2588
    1DIPC   C4B 6492   6.402  23.057   5.208 -0.2656 -0.0271  0.0350
    1DIPC   NC3 6493  14.625  16.331   6.544  0.0300  0.4070  0.2240
    1DIPC   PO4 6494  14.658  16.170   6.180  0.0620  0.2927 -0.1013
    1DIPC   GL1 6495  14.627  16.128   5.794 -0.1409  0.2030  0.0970
    1DIPC   GL2 6496  14.857  15.990   5.699  0.1605 -0.0618  0.2392
    1DIPC   C1A 6497  14.542  16.202   5.377 -0.3613 -0.1657 -0.0777
    1DIPC   D2A 6498  14.620  16.166   4.847 -0.0706 -0.2259 -0.0624
    1DIPC   D3A 6499  14.276  16.516   4.786 -0.0295 -0.0220 -0.1976
    1DIPC   C4A 6500  14.118  16.590   4.380 -0.5197  0.0095  0.0003
    1DIPC   C1B 6501  15.204  16.178   5.552 -0.0217 -0.0349  0.1330
    1DIPC   D2B 6502  15.476  16.574   5.570 -0.2760 -0.1047 -0.1644
    1DIPC   D3B 6503  15.432  17.044   5.401 -0.3593 -0.0572 -0.2484
    1DIPC   C4B 6504  15.357  17.410   5.185 -0.4431 -0.1622  0.6038
    1DIPC   NC3 6505   5.681   6.936   7.219 -0.0595 -0.1915 -0.1343
    1DIPC   PO4 6506   5.564   7.360   6.939  0.0472  0.3327  0.0264
    1DIPC   GL1 6507   5.890   7.175   6.676 -0.1430  0.1576  0.1187
    1DIPC   GL2 6508   5.992   7.462   6.507  0.1973 -0.1622  0.0073
    1DIPC   C1A 6509   6.096   6.997   6.261  0.0093 -0.1376  0.3360
    1DIPC   D2A 6510   6.041   6.553   6.097  0.0329 -0.1013  0.0981
    1DIPC   D3A 6511   6.054   6.233   5.794 -0.0779  0.0587 -0.3014
    1DIPC   C4A 6512   6.232   6.388   5.403 -0.1001 -0.0820  0.4820
    1DIPC   C1B 6513   6.159   7.455   6.124  0.0944 -0.0601  0.0551
    1DIPC   D2B 6514   6.183   7.475   5.712  0.0573  0.1314  0.2881
    1DIPC   D3B 6515   6.043   7.144   5.348 -0.3431 -0.2926  0.1274
    1DIPC   C4B 6516   5.798   7.038   5.052  0.0328  0.0986  0.0115
    1DIPC   NC3 6517  22.030  21.587   7.122  0.0143 -0.0313 -0.1231
    1DIPC   PO4 6518  22.356  21.990   6.950 -0.0921 -0.0698  0.1792
    1DIPC   GL1 6519  22.359  22.073   6.489  0.2414 -0.0696  0.2201
    1DIPC   GL2 6520  22.672  21.989   6.250  0.1938 -0.0455  0.1127
    1DIPC   C1A 6521  22.098  22.427   6.306 -0.0807 -0.1691 -0.1344
    1DIPC   D2A 6522  22.049  22.848   6.127 -0.1966 -0.0941 -0.0869
    1DIPC   D3A 6523  21.787  23.216   6.087 -0.0626  0.0215  0.4154
    1DIPC   C4A 6524  21.788  23.672   5.820  0.1618  0.0715  0.0686
    1DIPC   C1B 6525  22.957  21.747   5.981  0.3418  0.2213 -0.0859
    1DIPC   D2B 6526  23.227  21.570   5.653  0.0427 -0.1320  0.1112
    1DIPC   D3B 6527  23.428  21.493   5.288 -0.0296 -0.2590 -0.2899
    1DIPC   C4B 6528  23.322  21.728   4.859 -0.0686  0.0499  0.2046
    1DIPC   NC3 6529   8.990  14.962   5.898  0.0056 -0.1399  0.2742
    1DIPC   PO4 6530   9.330  15.060   5.682 -0.0421  0.1840  0.3998
    1DIPC   GL1 6531   9.651  15.193   5.433  0.2653  0.2576  0.1115
    1DIPC   GL2 6532   9.786  14.895   5.427 -0.0205  0.0556  0.2116
    1DIPC   C1A 6533   9.676  15.257   5.029 -0.0819 -0.3482 -0.1652
    1DIPC   D2A 6534   9.603  15.157   4.598 -0.4042 -0.2122 -0.3628
    1DIPC   D3A 6535   9.821  14.976   4.188 -0.1705 -0.1205  0.1916
    1DIPC   C4A 6536   9.485  14.654   4.104 -0.1770 -0.0160  0.0258
    1DIPC   C1B 6537  10.068  14.726   5.150 -0.2216 -0.0772  0.0604
    1DIPC   D2B 6538   9.983  14.812   4.732  0.0700  0.4406  0.3458
    1DIPC   D3B 6539  10.051  14.397   4.790  0.0764  0.1160 -0.0716
    1DIPC   C4B 6540  10.480  14.291   4.810 -0.0720 -0.1238 -0.2860
    1DIPC   NC3 6541   4.368   8.020   6.935  0.1223  0.1208 -0.3261
    1DIPC   PO4 6542   4.138   8.332   7.191 -0.0844 -0.2887 -0.0183
    1DIPC   GL1 6543   4.199   8.500   6.899  0.0920 -0.2705  0.1729
    1DIPC   GL2 6544   4.549   8.488   6.774  0.0926  0.3321  0.2239
    1DIPC   C1A 6545   4.042   8.698   6.496  0.2677  0.2757  0.0902
    1DIPC   D2A 6546   3.877   8.330   6.200 -0.0573 -0.0663  0.0694
    1DIPC   D3A 6547   3.843   8.264   5.792 -0.1279  0.0951 -0.0503
    1DIPC   C4A 6548   3.407   8.135   5.891 -0.0700 -0.0757  0.1627
    1DIPC   C1B 6549   4.405   8.447   6.374 -0.0722  0.2348  0.2051
    1DIPC   D2B 6550   4.358   8.239   6.082 -0.3625  0.0238  0.0728
    1DIPC   D3B 6551   4.263   7.994   5.616  0.0390  0.3700 -0.2171
    1DIPC   C4B 6552   4.628   7.903   5.414 -0.1235  0.4203  0.2207
    1DIPC   NC3 6553  18.230  16.236   6.374 -0.0322  0.2644 -0.1017
    1DIPC   PO4 6554  18.423  16.594   6.455  0.2907 -0.1608 -0.2784
    1DIPC   GL1 6555  18.370  16.563   5.976  0.1359 -0.3329 -0.0344
    1DIPC   GL2 6556  18.023  16.429   5.803 -0.1425 -0.2401  0.1959
    1DIPC   C1A 6557  18.387  16.813   5.606  0.0955 -0.1926 -0.0171
    1DIPC   D2A 6558  18.512  16.712   5.212 -0.0733 -0.1933 -0.1215
    1DIPC   D3A 6559  18.356  16.277   5.263  0.1598  0.1433  0.2042
    1DIPC   C4A 6560  18.293  16.327   4.808  0.2932 -0.0627 -0.2388
    1DIPC   C1B 6561  17.927  16.617   5.418  0.0986  0.1958 -0.4187
    1DIPC   D2B 6562  17.966  16.706   4.956  0.1293 -0.1202  0.2485
    1DIPC   D3B 6563  17.804  16.400   4.680  0.0497 -0.2315 -0.0825
    1DIPC   C4B 6564  17.942  15.931   4.742 -0.2738  0.2475  0.1082
    1DIPC   NC3 6565   0.596  23.081   7.380 -0.1940  0.2642 -0.0722
    1DIPC   PO4 6566   0.205  23.152   7.210  0.0429  0.1601 -0.4871
    1DIPC   GL1 6567  -0.079  23.259   6.975 -0.0836 -0.1249  0.4977
    1DIPC   GL2 6568  -0.068  22.956   6.713  0.1063  0.0711  0.1275
    1DIPC   C1A 6569   0.074  23.413   6.630 -0.1539 -0.1242  0.3697
    1DIPC   D2A 6570   0.271  23.545   6.353 -0.2715 -0.1328  0.0663
    1DIPC   D3A 6571   0.355  23.163   6.033  0.2378  0.0431  0.1624
    1DIPC   C4A 6572   0.439  23.411   5.648 -0.1766  0.2107  0.0802
    1DIPC   C1B 6573  -0.198  23.158   6.236  0.0590  0.0225 -0.1790
    1DIPC   D2B 6574  -0.475  23.303   6.033  0.0617  0.1408 -0.0358
    1DIPC   D3B 6575  -0.925  23.276   6.240 -0.0342  0.0525  0.0751
    1DIPC   C4B 6576  -0.873  23.491   6.643  0.0774 -0.2078  0.0466
    1DIPC   NC3 6577   3.674  22.034   7.170  0.0872 -0.1090 -0.1552
    1DIPC   PO4 6578   3.886  22.197   6.813 -0.2855  0.0344 -0.1337
    1DIPC   GL1 6579   3.597  21.974   6.606 -0.4339 -0.2844  0.0965
    1DIPC   GL2 6580   3.606  22.192   6.242  0.1257  0.2554  0.0929
    1DIPC   C1A 6581   3.570  21.708   6.290  0.1587  0.0014 -0.1197
    1DIPC   D2A 6582   3.703  21.361   6.001 -0.1152  0.0915  0.0451
    1DIPC   D3A 6583   3.419  21.198   5.688  0.2307  0.1853 -0.0843
    1DIPC   C4A 6584   3.558  20.904   5.303 -0.0596 -0.0046 -0.1047
    1DIPC   C1B 6585   3.536  22.187   5.808  0.0690  0.1341  0.0714
    1DIPC   D2B 6586   3.371  22.117   5.406 -0.0261 -0.0417 -0.0578
    1DIPC   D3B 6587   2.966  22.316   5.444  0.0222 -0.3000  0.2785
    1DIPC   C4B 6588   2.991  22.713   5.675  0.0250 -0.2686  0.2211
    1DIPC   NC3 6589   5.410   9.432   7.206  0.1152 -0.0812 -0.3572
    1DIPC   PO4 6590   5.326   9.863   7.105  0.0798 -0.2710 -0.0776
    1DIPC   GL1 6591   5.243   9.631   6.709  0.4280  0.0017  0.1022
    1DIPC   GL2 6592   4.897   9.689   6.536 -0.0138 -0.1045 -0.1179
    1DIPC   C1A 6593   5.440   9.363   6.374 -0.0939 -0.0284  0.1341
    1DIPC   D2A 6594   5.530   9.560   5.934  0.1033  0.1990  0.1259
    1DIPC   D3A 6595   5.565   9.880   5.634  0.2242 -0.1111 -0.2870
    1DIPC   C4A 6596   5.476  10.218   5.876 -0.0523 -0.1081  0.1793
    1DIPC   C1B 6597   4.584   9.535   6.186  0.0337 -0.2467 -0.1291
    1DIPC   D2B 6598   4.423   9.297   5.911 -0.2712  0.0695  0.2031
    1DIPC   D3B 6599   4.331   8.847   5.953 -0.1604  0.1961 -0.0516
    1DIPC   C4B 6600   4.242   8.530   5.687  0.0867  0.0782 -0.0420
    1DIPC   NC3 6601  21.303  21.843   7.068  0.0908 -0.2407  0.0733
    1DIPC   PO4 6602  21.671  21.875   6.886  0.1292 -0.0075  0.0912
    1DIPC   GL1 6603  21.743  21.825   6.407  0.0629  0.0162  0.0708
    1DIPC   GL2 6604  21.878  22.004   6.374 -0.4011  0.3339 -0.0333
    1DIPC   C1A 6605  21.882  21.481   6.139 -0.0501  0.0972 -0.0851
    1DIPC   D2A 6606  22.298  21.482   5.944  0.1157 -0.1906 -0.0251
    1DIPC   D3A 6607  22.498  21.858   5.792 -0.0295  0.0031  0.0811
    1DIPC   C4A 6608  22.799  21.885   5.485  0.0290 -0.3324 -0.0083
    1DIPC   C1B 6609  22.080  21.915   6.054  0.0010 -0.0408  0.0676
    1DIPC   D2B 6610  22.112  21.752   5.561  0.0252 -0.0075 -0.1546
    1DIPC   D3B 6611  22.280  22.035   5.233  0.1677 -0.2433 -0.0089
    1DIPC   C4B 6612  22.293  22.495   5.367 -0.0850  0.2461  0.3071
    1DIPC   NC3 6613   0.657  15.524   7.441  0.0805 -0.0597 -0.0979
    1DIPC   PO4 6614   0.335  15.857   7.654  0.2797  0.2262 -0.2272
    1DIPC   GL1 6615   0.406  16.048   7.271  0.0886 -0.0545 -0.2450
    1DIPC   GL2 6616   0.430  15.841   7.058 -0.1073  0.1275 -0.1402
    1DIPC   C1A 6617   0.430  16.367   6.970 -0.0756  0.0765 -0.0661
    1DIPC   D2A 6618   0.786  16.727   6.995 -0.3343 -0.4374 -0.0826
    1DIPC   D3A 6619   1.005  17.078   6.823 -0.2245 -0.2606  0.0001
    1DIPC   C4A 6620   1.259  17.209   6.441  0.1121 -0.1070  0.0337
    1DIPC   C1B 6621   0.273  15.983   6.698 -0.1410  0.0658  0.2015
    1DIPC   D2B 6622   0.042  16.333   6.664 -0.2723 -0.0892  0.0009
    1DIPC   D3B 6623   0.447  16.311   6.337  0.0337  0.0963  0.2539
    1DIPC   C4B 6624   0.422  16.225   5.904  0.1413 -0.0288  0.0813
    1DIPC   NC3 6625  10.617  23.600   7.617 -0.0466 -0.0417 -0.0803
    1DIPC   PO4 6626  10.497  23.655   7.186 -0.5149 -0.2241 -0.0347
    1DIPC   GL1 6627  10.523  23.766   6.751  0.1803 -0.0908 -0.0045
    1DIPC   GL2 6628  10.310  23.638   6.539  0.1636  0.0060  0.2918
    1DIPC   C1A 6629  10.658  23.989   6.415 -0.1391  0.2583  0.0664
    1DIPC   D2A 6630  11.048  24.132   6.220 -0.0555 -0.0172 -0.3413
    1DIPC   D3A 6631  11.138  24.428   6.564  0.3821  0.1336  0.3329
    1DIPC   C4A 6632  11.556  24.509   6.433  0.1880  0.0645 -0.0746
    1DIPC   C1B 6633  10.471  23.471   6.164 -0.0462 -0.2369  0.3182
    1DIPC   D2B 6634  10.423  23.616   5.667 -0.3219 -0.1581 -0.2095
    1DIPC   D3B 6635  10.640  23.258   5.633 -0.1855  0.1703 -0.1339
    1DIPC   C4B 6636  11.148  23.271   5.631 -0.2631  0.1556  0.3475
    1DIPC   NC3 6637   7.872  26.091   7.335  0.0515 -0.2247 -0.1811
    1DIPC   PO4 6638   7.860  26.544   7.437  0.0479  0.1922  0.3785
    1DIPC   GL1 6639   8.039  26.733   7.106 -0.1103 -0.2107 -0.0748
    1DIPC   GL2 6640   7.786  26.959   7.076  0.2961  0.1706  0.3183
    1DIPC   C1A 6641   8.077  26.744   6.690  0.0255  0.1875 -0.0039
    1DIPC   D2A 6642   8.346  26.550   6.489 -0.2965  0.1339 -0.0041
    1DIPC   D3A 6643   8.042  26.667   6.180 -0.1058 -0.0030  0.0286
    1DIPC   C4A 6644   7.816  26.923   6.268  0.4694 -0.2068 -0.3883
    1DIPC   C1B 6645   7.511  26.896   6.682  0.1065 -0.2632 -0.0606
    1DIPC   D2B 6646   7.252  27.057   6.522 -0.0068 -0.1868  0.2825
    1DIPC   D3B 6647   7.097  26.907   6.073 -0.1146 -0.1245 -0.0657
    1DIPC   C4B 6648   6.938  27.190   5.789  0.1091  0.3052  0.2309
    1DIPC   NC3 6649  23.651  13.110   7.115  0.1469 -0.0174 -0.0774
    1DIPC   PO4 6650  23.960  13.453   6.975  0.1209  0.2288  0.0250
    1DIPC   GL1 6651  24.200  13.374   6.596  0.4154 -0.2732 -0.0412
    1DIPC   GL2 6652  23.897  13.418   6.322  0.2164 -0.1839 -0.1210
    1DIPC   C1A 6653  24.424  13.408   6.242 -0.2166 -0.0600  0.1695
    1DIPC   D2A 6654  24.447  13.537   5.862 -0.0318  0.0593  0.3462
    1DIPC   D3A 6655  24.681  13.157   5.599 -0.0477  0.3743 -0.0074
    1DIPC   C4A 6656  24.933  13.387   5.297 -0.0166  0.2535 -0.2300
    1DIPC   C1B 6657  23.912  13.728   5.889  0.0063  0.1308 -0.0070
    1DIPC   D2B 6658  23.677  13.720   5.518 -0.0453  0.0188  0.0756
    1DIPC   D3B 6659  23.767  13.583   5.084  0.0256 -0.0847 -0.0215
    1DIPC   C4B 6660  23.997  13.353   4.874 -0.1611  0.3775 -0.1557
    1DIPC   NC3 6661   4.878  19.666   7.231  0.0003  0.3381  0.0313
    1DIPC   PO4 6662   4.604  19.295   7.082  0.1364  0.1410 -0.1819
    1DIPC   GL1 6663   4.679  19.391   6.636 -0.0032  0.3603 -0.0923
    1DIPC   GL2 6664   4.792  19.641   6.677  0.3432 -0.1171 -0.0313
    1DIPC   C1A 6665   4.893  19.365   6.246  0.1143  0.0647  0.3287
    1DIPC   D2A 6666   4.867  19.377   5.756 -0.0186 -0.1656 -0.2281
    1DIPC   D3A 6667   5.011  19.308   5.371 -0.1162 -0.1874  0.0491
    1DIPC   C4A 6668   5.253  19.542   5.118 -0.1701 -0.2867  0.0547
    1DIPC   C1B 6669   4.566  19.791   6.322 -0.0011  0.1117 -0.5286
    1DIPC   D2B 6670   4.793  19.936   5.963  0.3659 -0.0740 -0.4021
    1DIPC   D3B 6671   4.877  19.775   5.507  0.2932 -0.1062 -0.1490
    1DIPC   C4B 6672   5.126  19.988   5.299  0.1646 -0.3504 -0.0204
    1DIPC   NC3 6673  26.591  14.691   7.357 -0.1617 -0.1131  0.0538
    1DIPC   PO4 6674  26.353  15.000   7.178  0.1393  0.0105 -0.0796
    1DIPC   GL1 6675  26.302  15.344   6.947 -0.1364  0.1894 -0.0632
    1DIPC   GL2 6676  26.107  15.401   6.769 -0.0550  0.2977 -0.1535
    1DIPC   C1A 6677  26.511  15.681   6.685  0.1952  0.0594 -0.0629
    1DIPC   D2A 6678  26.392  16.161   6.567 -0.3384 -0.1589  0.2028
    1DIPC   D3A 6679  26.003  16.356   6.331  0.0761  0.0070  0.0848
    1DIPC   C4A 6680  25.984  16.339   5.882 -0.0149 -0.0260  0.0425
    1DIPC   C1B 6681  25.921  15.196   6.352  0.3616 -0.1272  0.0096
    1DIPC   D2B 6682  25.933  15.210   5.875  0.0735 -0.0491  0.0279
    1DIPC   D3B 6683  26.147  15.452   5.980  0.0519 -0.1543  0.1293
    1DIPC   C4B 6684  26.376  15.382   6.328 -0.2603 -0.1606 -0.1540
    1DIPC   NC3 6685  26.486   8.080   8.221 -0.0433  0.2869 -0.3196
    1DIPC   PO4 6686  26.839   7.833   8.061  0.1413  0.0820  0.3268
    1DIPC   GL1 6687  26.928   7.729   7.671  0.0454  0.1487 -0.0665
    1DIPC   GL2 6688  27.006   7.923   7.438 -0.2565 -0.0932 -0.0761
    1DIPC   C1A 6689  26.661   7.607   7.167  0.3173  0.0406 -0.0453
    1DIPC   D2A 6690  26.804   7.409   6.919 -0.2641 -0.0089 -0.1256
    1DIPC   D3A 6691  26.683   7.344   6.477 -0.1097 -0.1866 -0.0838
    1DIPC   C4A 6692  26.579   7.742   6.228 -0.0874  0.1273 -0.0987
    1DIPC   C1B 6693  27.137   7.689   7.145  0.0022 -0.1998 -0.0451
    1DIPC   D2B 6694  27.446   7.742   6.818 -0.1990  0.1649  0.0393
    1DIPC   D3B 6695  27.197   7.385   6.570  0.0107  0.2076  0.0796
    1DIPC   C4B 6696  27.391   7.119   6.292  0.0214  0.2367  0.1241
    1DIPC   NC3 6697   2.316   8.942   7.639  0.1389  0.0664  0.1808
    1DIPC   PO4 6698   2.437   8.845   7.153  0.0268  0.3609 -0.0658
    1DIPC   GL1 6699   2.428   8.773   6.751  0.1936 -0.2846  0.1936
    1DIPC   GL2 6700   2.415   8.485   6.791 -0.0316  0.1482  0.0155
    1DIPC   C1A 6701   2.283   8.785   6.359  0.1167  0.3950  0.2949
    1DIPC   D2A 6702   2.237   8.961   5.931  0.2316  0.1560 -0.0672
    1DIPC   D3A 6703   2.590   8.733   5.751 -0.0196 -0.3157 -0.2231
    1DIPC   C4A 6704   2.938   8.844   5.592 -0.0022  0.3945 -0.1538
    1DIPC   C1B 6705   2.474   8.200   6.473  0.1199 -0.1059  0.0971
    1DIPC   D2B 6706   2.109   7.939   6.608  0.2175  0.0727 -0.1715
    1DIPC   D3B 6707   2.383   7.703   6.465 -0.1372  0.4974  0.1664
    1DIPC   C4B 6708   2.713   7.552   6.671 -0.2016  0.1174  0.0750
    1DIPC   NC3 6709   4.038   5.980   7.303  0.0141 -0.1498 -0.0542
    1DIPC   PO4 6710   3.615   6.271   7.433 -0.1139  0.1876 -0.1997
    1DIPC   GL1 6711   3.599   6.203   7.083  0.0478  0.1474 -0.0725
    1DIPC   GL2 6712   3.727   6.440   6.847 -0.5494  0.2775 -0.0856
    1DIPC   C1A 6713   3.360   6.088   6.751 -0.5638  0.0551  0.0899
    1DIPC   D2A 6714   3.479   6.163   6.343 -0.1303 -0.0483 -0.0918
    1DIPC   D3A 6715   3.696   6.434   6.058  0.3020 -0.0679 -0.0535
    1DIPC   C4A 6716   3.744   6.733   5.797  0.2719 -0.4552  0.1538
    1DIPC   C1B 6717   4.252   6.431   6.790  0.0223 -0.2308  0.0555
    1DIPC   D2B 6718   4.579   6.651   6.595  0.2781  0.0219  0.1667
    1DIPC   D3B 6719   4.702   6.873   6.229 -0.0351  0.3498 -0.0850
    1DIPC   C4B 6720   4.882   6.506   6.044  0.1336 -0.0359 -0.1363
    1DIPC   NC3 6721   0.074   8.738   7.492  0.0750  0.0437 -0.1480
    1DIPC   PO4 6722  -0.305   8.581   7.613 -0.0933 -0.0830 -0.1210
    1DIPC   GL1 6723  -0.343   8.524   7.161  0.1993  0.0477  0.2598
    1DIPC   GL2 6724  -0.401   8.699   6.837  0.2013  0.0989  0.1271
    1DIPC   C1A 6725  -0.116   8.288   6.784 -0.2033 -0.1751  0.0579
    1DIPC   D2A 6726  -0.038   7.816   6.593 -0.1475 -0.1805 -0.0924
    1DIPC   D3A 6727  -0.242   7.701   6.220  0.3477  0.0007 -0.2019
    1DIPC   C4A 6728  -0.456   7.541   5.941 -0.2288  0.0719 -0.0882
    1DIPC   C1B 6729  -0.410   8.541   6.469  0.3016 -0.1938  0.0917
    1DIPC   D2B 6730  -0.401   8.646   5.987 -0.0685  0.0694  0.0784
    1DIPC   D3B 6731  -0.518   8.191   6.085  0.0631 -0.0007  0.1300
    1DIPC   C4B 6732  -0.507   8.014   6.474 -0.1256  0.2595  0.0354
    1DIPC   NC3 6733  12.022  26.113   7.115  0.0334  0.1983 -0.1573
    1DIPC   PO4 6734  12.224  26.058   6.881  0.0095  0.0797 -0.3406
    1DIPC   GL1 6735  12.002  26.252   6.594 -0.0427 -0.1195  0.0749
    1DIPC   GL2 6736  11.744  26.267   6.721  0.1713 -0.1182 -0.3177
    1DIPC   C1A 6737  11.897  26.558   6.355 -0.2260  0.0455 -0.0121
    1DIPC   D2A 6738  11.436  26.786   6.269 -0.0293 -0.0985 -0.1999
    1DIPC   D3A 6739  11.578  27.086   6.073  0.1227  0.2273  0.5504
    1DIPC   C4A 6740  11.362  26.997   5.696  0.0629 -0.3708  0.2867
    1DIPC   C1B 6741  11.459  26.183   6.357 -0.3566 -0.0865  0.1687
    1DIPC   D2B 6742  11.029  26.291   6.263  0.1746 -0.1387  0.1179
    1DIPC   D3B 6743  11.145  26.088   5.875 -0.2910  0.1400 -0.0585
    1DIPC   C4B 6744  11.059  26.244   5.497 -0.1406 -0.0561 -0.0144
    1DIPC   NC3 6745  13.559  18.544   7.212  0.0004 -0.0269  0.1570
    1DIPC   PO4 6746  13.501  18.497   6.770  0.1505 -0.1881  0.0259
    1DIPC   GL1 6747  13.563  18.567   6.392  0.1120 -0.0625  0.0373
    1DIPC   GL2 6748  13.785  18.835   6.266 -0.1985  0.0697  0.0676
    1DIPC   C1A 6749  13.409  18.630   5.994  0.0555 -0.0560  0.2217
    1DIPC   D2A 6750  13.355  18.384   5.662  0.0492  0.1490  0.1038
    1DIPC   D3A 6751  13.051  18.542   5.430 -0.0291  0.0932 -0.0234
    1DIPC   C4A 6752  12.679  18.342   5.299 -0.2207  0.7302  0.0530
    1DIPC   C1B 6753  13.959  18.707   5.771 -0.0647 -0.1545  0.0514
    1DIPC   D2B 6754  13.667  18.671   5.431 -0.2761  0.0230  0.0412
    1DIPC   D3B 6755  13.299  18.915   5.191 -0.0069 -0.2081  0.2174
    1DIPC   C4B 6756  12.888  18.819   4.904 -0.2952  0.0211 -0.5823
    1DIPC   NC3 6757   2.203   1.127   8.343  0.1551 -0.0806 -0.1649
    1DIPC   PO4 6758   2.012   1.158   7.976  0.4137  0.0040  0.1643
    1DIPC   GL1 6759   1.883   1.139   7.524 -0.1384  0.1719 -0.3269
    1DIPC   GL2 6760   1.765   0.800   7.532  0.3257  0.0720  0.3111
    1DIPC   C1A 6761   1.963   1.003   7.125 -0.0827  0.1619  0.1808
    1DIPC   D2A 6762   2.148   0.735   6.811  0.6384 -0.1334 -0.5078
    1DIPC   D3A 6763   1.979   1.215   6.628 -0.2716 -0.0852 -0.1671
    1DIPC   C4A 6764   1.768   1.259   6.144  0.0103  0.4236 -0.2471
    1DIPC   C1B 6765   2.134   0.555   7.306  0.3422 -0.2210 -0.0097
    1DIPC   D2B 6766   2.401   0.344   6.886 -0.0758  0.0663 -0.1655
    1DIPC   D3B 6767   2.038   0.207   6.922 -0.2884  0.2858 -0.1760
    1DIPC   C4B 6768   1.938  -0.151   6.598  0.0608 -0.0489 -0.0933
    1DIPC   NC3 6769  24.648  25.287   7.507 -0.3807 -0.0784 -0.5259
    1DIPC   PO4 6770  25.039  25.003   7.613 -0.0922  0.1616 -0.0080
    1DIPC   GL1 6771  25.161  25.271   7.338 -0.0081 -0.1126 -0.3115
    1DIPC   GL2 6772  24.996  25.223   7.060 -0.1901  0.2604 -0.0713
    1DIPC   C1A 6773  25.605  25.382   7.362  0.1079 -0.2523  0.0443
    1DIPC   D2A 6774  26.106  25.339   7.348 -0.1214 -0.0191  0.1170
    1DIPC   D3A 6775  25.989  25.090   7.069  0.3283  0.1472 -0.2448
    1DIPC   C4A 6776  25.615  24.868   7.189 -0.2544 -0.0454  0.0754
    1DIPC   C1B 6777  25.470  25.238   6.928 -0.0893  0.0565  0.1257
    1DIPC   D2B 6778  25.814  25.101   6.573  0.1443  0.2245 -0.0933
    1DIPC   D3B 6779  25.328  24.916   6.464 -0.0707  0.0161  0.1900
    1DIPC   C4B 6780  24.934  24.935   6.590 -0.0131 -0.1018  0.3352
    1DIPC   NC3 6781   2.986  22.422   7.493 -0.1153 -0.1075 -0.0549
    1DIPC   PO4 6782   3.235  22.009   7.462 -0.4453  0.1936  0.0615
    1DIPC   GL1 6783   3.189  22.094   6.984 -0.0295  0.0036 -0.0315
    1DIPC   GL2 6784   2.982  22.373   6.960 -0.1703  0.1592 -0.0815
    1DIPC   C1A 6785   3.225  21.663   6.655 -0.2826  0.1380 -0.0990
    1DIPC   D2A 6786   2.997  21.278   6.591  0.1553  0.1970 -0.1022
    1DIPC   D3A 6787   2.861  21.515   6.357  0.0417  0.0173 -0.4951
    1DIPC   C4A 6788   3.131  21.744   6.018  0.0751 -0.1471 -0.0934
    1DIPC   C1B 6789   2.744  22.574   6.743  0.0920  0.0903  0.0474
    1DIPC   D2B 6790   2.417  22.801   6.542 -0.1060 -0.0699 -0.0761
    1DIPC   D3B 6791   2.135  22.911   6.188  0.0371 -0.0522  0.1110
    1DIPC   C4B 6792   2.324  22.756   5.879  0.1793  0.0472  0.2527
    1DIPC   NC3 6793   6.779   7.655   6.691 -0.1824 -0.0007  0.4366
    1DIPC   PO4 6794   7.119   7.621   6.380  0.0028 -0.0096 -0.0248
    1DIPC   GL1 6795   7.013   7.490   5.936  0.0148 -0.2245  0.0179
    1DIPC   GL2 6796   6.858   7.460   5.587 -0.1536 -0.1219 -0.1144
    1DIPC   C1A 6797   7.151   7.115   5.699  0.0649  0.0350 -0.1214
    1DIPC   D2A 6798   7.097   6.876   5.369  0.3245  0.1030 -0.0268
    1DIPC   D3A 6799   7.355   7.060   5.003 -0.4264  0.2772 -0.1366
    1DIPC   C4A 6800   7.207   7.406   4.746 -0.1489  0.1238 -0.0919
    1DIPC   C1B 6801   6.390   7.505   5.189 -0.2151  0.2880 -0.1826
    1DIPC   D2B 6802   6.248   7.226   4.837  0.0336  0.2033 -0.0515
    1DIPC   D3B 6803   6.596   6.867   4.762  0.2278  0.2815 -0.0391
    1DIPC   C4B 6804   6.659   6.627   5.198 -0.1015 -0.3665  0.0404
    1DIPC   NC3 6805   7.809   7.030   6.900  0.2752 -0.2787 -0.0668
    1DIPC   PO4 6806   8.166   6.894   6.699 -0.0913  0.2592  0.2639
    1DIPC   GL1 6807   8.275   6.980   6.268  0.1546  0.1161  0.0871
    1DIPC   GL2 6808   8.103   6.984   5.980 -0.0021  0.3693 -0.2919
    1DIPC   C1A 6809   8.507   7.396   6.115  0.2072 -0.0550 -0.1689
    1DIPC   D2A 6810   8.543   7.753   5.874 -0.0171  0.0097 -0.2206
    1DIPC   D3A 6811   8.116   7.998   5.847 -0.4079 -0.1522 -0.0056
    1DIPC   C4A 6812   8.072   8.258   5.450  0.0958  0.1558 -0.0927
    1DIPC   C1B 6813   8.435   7.027   5.728  0.0246 -0.3735  0.0022
    1DIPC   D2B 6814   8.677   7.336   5.555  0.0677  0.1724  0.1543
    1DIPC   D3B 6815   8.739   7.196   5.114 -0.1303  0.3617 -0.2204
    1DIPC   C4B 6816   8.845   7.351   4.763 -0.2590  0.0903 -0.0361
    1DIPC   NC3 6817   5.353  18.253   7.565 -0.0250 -0.2684  0.2682
    1DIPC   PO4 6818   5.196  18.249   7.170  0.1107  0.1970 -0.0996
    1DIPC   GL1 6819   5.362  18.246   6.671  0.1713  0.0035  0.0427
    1DIPC   GL2 6820   5.079  18.309   6.438  0.0096  0.0670 -0.0394
    1DIPC   C1A 6821   5.557  18.509   6.395 -0.3291  0.2348  0.3095
    1DIPC   D2A 6822   5.380  18.737   6.076 -0.1511  0.0261  0.2752
    1DIPC   D3A 6823   4.979  18.878   5.832 -0.1485  0.1984  0.0594
    1DIPC   C4A 6824   4.675  18.998   6.049 -0.0424  0.0495 -0.0162
    1DIPC   C1B 6825   5.093  18.387   5.939  0.2950 -0.0250  0.0400
    1DIPC   D2B 6826   4.848  18.117   5.602  0.2048  0.0199  0.2177
    1DIPC   D3B 6827   4.825  17.765   5.814 -0.1364 -0.0715  0.1397
    1DIPC   C4B 6828   5.148  17.539   5.653 -0.0176 -0.1815  0.0818
    1DIPC   NC3 6829   7.295  16.382   6.775 -0.1029 -0.2461 -0.0319
    1DIPC   PO4 6830   6.900  16.501   6.588 -0.1570 -0.2180  0.0244
    1DIPC   GL1 6831   6.516  16.488   6.301 -0.2505  0.1157 -0.1106
    1DIPC   GL2 6832   6.388  16.207   6.134 -0.2893  0.2505  0.0595
    1DIPC   C1A 6833   6.458  16.771   5.962 -0.2342  0.4069 -0.1488
    1DIPC   D2A 6834   6.350  16.852   5.428  0.2029  0.0314 -0.3090
    1DIPC   D3A 6835   6.408  17.231   5.336  0.3967 -0.1895  0.2556
    1DIPC   C4A 6836   5.957  17.507   5.310 -0.1453  0.0935 -0.1075
    1DIPC   C1B 6837   6.543  16.389   5.654 -0.0491 -0.1015  0.1138
    1DIPC   D2B 6838   6.475  16.416   5.199  0.0920 -0.0598 -0.2162
    1DIPC   D3B 6839   6.618  16.463   4.871  0.0190 -0.1120 -0.1720
    1DIPC   C4B 6840   6.603  16.337   4.441  0.0359  0.2185  0.1041
    1DIPC   NC3 6841  12.782   9.366   5.666 -0.1311  0.4386 -0.2519
    1DIPC   PO4 6842  13.252   9.282   5.652  0.0538  0.0893 -0.2651
    1DIPC   GL1 6843  13.011   8.955   5.338  0.2120 -0.0151  0.0874
    1DIPC   GL2 6844  12.656   9.001   5.378 -0.1936  0.1119  0.1594
    1DIPC   C1A 6845  12.697   8.680   5.039  0.0120  0.0867  0.1423
    1DIPC   D2A 6846  12.650   8.309   4.899 -0.1433  0.1183 -0.0085
    1DIPC   D3A 6847  12.414   8.470   4.550 -0.1448 -0.0718 -0.1989
    1DIPC   C4A 6848  12.501   8.335   4.090 -0.0477 -0.3091  0.0869
    1DIPC   C1B 6849  12.711   9.299   5.023 -0.3285  0.0665 -0.2477
    1DIPC   D2B 6850  12.893   9.349   4.655 -0.1611  0.0842 -0.0847
    1DIPC   D3B 6851  12.693   9.273   4.265  0.2624 -0.0726 -0.1661
    1DIPC   C4B 6852  12.363   9.531   4.039  0.3431  0.0668 -0.1601
    1DIPC   NC3 6853   7.373   5.846   7.579  0.2155 -0.2138  0.2229
    1DIPC   PO4 6854   7.232   5.435   7.609 -0.0640  0.0695  0.2505
    1DIPC   GL1 6855   7.242   5.526   7.135  0.1527 -0.0523  0.2928
    1DIPC   GL2 6856   7.069   5.336   6.842  0.0413 -0.3397 -0.0284
    1DIPC   C1A 6857   7.368   5.752   6.713 -0.1305  0.0119  0.1955
    1DIPC   D2A 6858   7.432   5.927   6.309 -0.1086 -0.0497  0.2250
    1DIPC   D3A 6859   7.345   5.809   5.920 -0.2183  0.0208  0.2903
    1DIPC   C4A 6860   7.527   5.396   5.929 -0.2221 -0.2672  0.1944
    1DIPC   C1B 6861   7.223   5.244   6.459 -0.2476 -0.0557 -0.0389
    1DIPC   D2B 6862   7.099   5.210   6.136  0.0009  0.4365  0.1515
    1DIPC   D3B 6863   6.886   4.978   6.195  0.0911  0.2900 -0.1487
    1DIPC   C4B 6864   6.988   4.646   5.939  0.0004 -0.1428  0.0027
    1DIPC   NC3 6865   1.855  27.812   8.651 -0.0539  0.1179  0.0162
    1DIPC   PO4 6866   1.785  28.171   8.339 -0.0350 -0.0801 -0.2984
    1DIPC   GL1 6867   1.912  28.027   7.925  0.3174  0.2134  0.1974
    1DIPC   GL2 6868   2.011  28.109   7.598 -0.0665  0.1632 -0.0214
    1DIPC   C1A 6869   1.596  27.865   7.551  0.0736 -0.0014 -0.0220
    1DIPC   D2A 6870   1.523  27.610   7.131 -0.4236 -0.2937 -0.1477
    1DIPC   D3A 6871   1.563  27.976   6.948 -0.1416  0.0539  0.3507
    1DIPC   C4A 6872   1.404  28.297   7.160 -0.0526  0.3015 -0.1554
    1DIPC   C1B 6873   1.822  28.383   7.430 -0.1026  0.0180 -0.2531
    1DIPC   D2B 6874   1.422  28.715   7.505  0.0954 -0.0675  0.0075
    1DIPC   D3B 6875   1.777  29.111   7.352 -0.1169 -0.0825  0.1646
    1DIPC   C4B 6876   1.636  29.430   7.065 -0.2381  0.2689 -0.0110
    1DIPC   NC3 6877   8.851   2.984   7.708  0.2007  0.1263 -0.1562
    1DIPC   PO4 6878   8.921   2.786   7.308 -0.0188  0.2170  0.0647
    1DIPC   GL1 6879   8.622   2.575   7.027  0.1568  0.1465  0.3309
    1DIPC   GL2 6880   8.487   2.438   7.185  0.0081  0.1502 -0.0105
    1DIPC   C1A 6881   8.526   2.620   6.600 -0.0311 -0.2307 -0.0116
    1DIPC   D2A 6882   8.361   2.657   6.242 -0.0031  0.1722 -0.0909
    1DIPC   D3A 6883   8.753   2.525   6.161  0.2433 -0.2324  0.0716
    1DIPC   C4A 6884   9.118   2.572   6.408  0.0817 -0.0004  0.0854
    1DIPC   C1B 6885   8.307   2.176   6.815  0.0506 -0.1646  0.2530
    1DIPC   D2B 6886   8.564   2.139   6.493 -0.1634 -0.2011 -0.4261
    1DIPC   D3B 6887   8.397   2.140   6.098 -0.0455  0.1493  0.0322
    1DIPC   C4B 6888   8.465   2.456   5.751  0.2323 -0.0519 -0.0351
    1DIPC   NC3 6889   1.373   1.290   8.326  0.2777 -0.0515 -0.0316
    1DIPC   PO4 6890   1.400   1.747   8.316  0.2276 -0.0101  0.1801
    1DIPC   GL1 6891   1.325   1.670   7.869  0.0747 -0.0141 -0.2670
    1DIPC   GL2 6892   1.580   1.484   7.912 -0.0138 -0.1044  0.0741
    1DIPC   C1A 6893   1.135   1.737   7.435 -0.2519  0.0677 -0.3733
    1DIPC   D2A 6894   0.886   1.817   7.328  0.2091  0.2292  0.0342
    1DIPC   D3A 6895   0.746   2.249   7.531 -0.1179 -0.0249 -0.0318
    1DIPC   C4A 6896   0.704   2.455   7.110 -0.0674  0.0362  0.0042
    1DIPC   C1B 6897   1.302   1.253   7.620 -0.0532  0.1100  0.3014
    1DIPC   D2B 6898   0.858   1.284   7.397 -0.1858  0.4220 -0.1962
    1DIPC   D3B 6899   1.204   1.265   7.088  0.1780 -0.1367  0.0389
    1DIPC   C4B 6900   1.095   1.222   6.706 -0.1309  0.1009 -0.1610
    1DIPC   NC3 6901  13.394  15.766   6.365 -0.0058  0.1998 -0.3117
    1DIPC   PO4 6902  13.060  16.060   6.434 -0.1514 -0.0264  0.0801
    1DIPC   GL1 6903  12.810  16.039   5.969 -0.0231  0.0628  0.2835
    1DIPC   GL2 6904  12.512  15.930   5.904  0.1431 -0.1426  0.0682
    1DIPC   C1A 6905  12.888  16.242   5.599 -0.0481 -0.2733 -0.2023
    1DIPC   D2A 6906  13.088  16.393   5.326  0.3884  0.0788  0.3703
    1DIPC   D3A 6907  12.919  16.224   5.061 -0.0476 -0.1810 -0.0423
    1DIPC   C4A 6908  12.912  16.054   4.629 -0.1500  0.1398 -0.0113
    1DIPC   C1B 6909  12.563  15.898   5.432  0.2486  0.2602 -0.0968
    1DIPC   D2B 6910  12.487  15.969   5.003 -0.0278  0.0901 -0.0598
    1DIPC   D3B 6911  12.170  16.151   4.821 -0.2975 -0.1481  0.4918
    1DIPC   C4B 6912  12.100  16.596   4.618  0.0823 -0.0533 -0.0207
    1DIPC   NC3 6913  12.216  22.768   6.977 -0.0640  0.1792  0.0937
    1DIPC   PO4 6914  11.842  22.525   6.979 -0.1139  0.1479  0.3220
    1DIPC   GL1 6915  11.985  22.448   6.617 -0.3948  0.0676 -0.1145
    1DIPC   GL2 6916  11.770  22.327   6.451  0.0308  0.0656 -0.0678
    1DIPC   C1A 6917  12.238  22.525   6.213 -0.4883  0.3412 -0.0397
    1DIPC   D2A 6918  12.136  22.960   6.040  0.1021 -0.2123 -0.0713
    1DIPC   D3A 6919  12.175  22.926   5.674 -0.1178 -0.0151  0.1151
    1DIPC   C4A 6920  12.171  22.491   5.557  0.0485 -0.1413  0.0255
    1DIPC   C1B 6921  11.714  22.627   6.156  0.2434  0.0458  0.2919
    1DIPC   D2B 6922  11.807  22.695   5.770  0.1753 -0.0386 -0.2211
    1DIPC   D3B 6923  11.668  22.326   5.520  0.4742  0.0089  0.1250
    1DIPC   C4B 6924  11.503  22.505   5.114  0.1680  0.1665 -0.0034
    1DIPC   NC3 6925   9.084  13.009   5.776 -0.0550 -0.0337  0.0627
    1DIPC   PO4 6926   9.379  13.051   5.994  0.4222  0.0337 -0.0601
    1DIPC   GL1 6927   9.493  12.828   5.571  0.1920 -0.0912  0.1410
    1DIPC   GL2 6928   9.178  12.549   5.448  0.1105  0.1279 -0.2484
    1DIPC   C1A 6929   9.603  12.551   5.150 -0.3003 -0.0674 -0.1854
    1DIPC   D2A 6930   9.723  12.171   4.833  0.0376  0.0263  0.1546
    1DIPC   D3A 6931   9.402  12.382   4.556 -0.0740  0.1573 -0.1831
    1DIPC   C4A 6932   9.120  12.174   4.256 -0.1366  0.0616  0.1699
    1DIPC   C1B 6933   8.767  12.409   5.410  0.0122  0.0791 -0.0371
    1DIPC   D2B 6934   8.369  12.327   5.271 -0.0093  0.2145 -0.1186
    1DIPC   D3B 6935   8.676  12.110   4.977 -0.2216 -0.1609 -0.3269
    1DIPC   C4B 6936   9.151  12.246   5.007  0.0563  0.2043 -0.0817
    1DIPC   NC3 6937  28.417  26.351   7.832 -0.1509  0.0817  0.0072
    1DIPC   PO4 6938  28.531  25.933   7.833 -0.1071  0.0272 -0.1199
    1DIPC   GL1 6939  28.623  26.335   7.394  0.1687 -0.1054 -0.2559
    1DIPC   GL2 6940  28.381  26.467   7.300  0.1412  0.1846  0.0898
    1DIPC   C1A 6941  28.779  26.767   7.190 -0.0535 -0.0616  0.0327
    1DIPC   D2A 6942  29.016  27.073   7.081  0.1176  0.1881  0.0874
    1DIPC   D3A 6943  29.304  26.845   7.062 -0.0404 -0.2133 -0.2395
    1DIPC   C4A 6944  29.446  26.513   6.749 -0.0652 -0.0560 -0.1730
    1DIPC   C1B 6945  28.340  26.181   6.956 -0.0752 -0.0179  0.2104
    1DIPC   D2B 6946  28.282  26.273   6.527 -0.3272  0.1403  0.0296
    1DIPC   D3B 6947  27.909  26.177   6.513  0.0767  0.2415 -0.1963
    1DIPC   C4B 6948  27.661  25.754   6.468 -0.0021 -0.3128 -0.0746
    1DIPC   NC3 6949   2.775   6.792   7.493  0.1667 -0.2910 -0.0540
    1DIPC   PO4 6950   3.096   6.556   7.461 -0.2569 -0.2013  0.0234
    1DIPC   GL1 6951   3.053   6.504   6.939  0.1717  0.1037 -0.2999
    1DIPC   GL2 6952   3.298   6.765   6.843 -0.0576  0.0647  0.3903
    1DIPC   C1A 6953   3.109   6.479   6.464 -0.3149 -0.0758  0.1058
    1DIPC   D2A 6954   2.986   6.249   6.109  0.0732  0.0352 -0.2419
    1DIPC   D3A 6955   3.158   6.449   5.839  0.0944 -0.5181 -0.0312
    1DIPC   C4A 6956   3.268   6.552   5.433  0.2511  0.0595  0.1814
    1DIPC   C1B 6957   3.526   6.748   6.481 -0.0571 -0.1413 -0.1605
    1DIPC   D2B 6958   3.728   6.997   6.236 -0.2023  0.0896 -0.2020
    1DIPC   D3B 6959   3.644   7.246   5.891 -0.1667 -0.2301 -0.0585
    1DIPC   C4B 6960   3.838   7.219   5.491  0.0340  0.0885 -0.2508
    1DIPC   NC3 6961  10.175  26.162   7.226 -0.1594  0.2949  0.3270
    1DIPC   PO4 6962  10.627  26.114   7.137  0.0519  0.3323 -0.1617
    1DIPC   GL1 6963  10.772  25.900   6.794 -0.2396 -0.1860  0.0688
    1DIPC   GL2 6964  11.001  26.042   6.686  0.4020 -0.0022 -0.0945
    1DIPC   C1A 6965  10.474  25.640   6.512  0.1416 -0.1162  0.0679
    1DIPC   D2A 6966  10.175  25.354   6.248 -0.2384  0.0659  0.3063
    1DIPC   D3A 6967  10.128  25.239   5.778 -0.1425 -0.0429 -0.1871
    1DIPC   C4A 6968  10.646  25.284   5.522  0.1495  0.0924  0.4092
    1DIPC   C1B 6969  10.920  25.795   6.347 -0.2706  0.3653 -0.1266
    1DIPC   D2B 6970  10.623  25.557   6.057  0.1817 -0.1031 -0.0502
    1DIPC   D3B 6971  10.836  25.758   5.621 -0.1189  0.0959 -0.1462
    1DIPC   C4B 6972  11.224  25.634   5.528 -0.3934 -0.0103  0.2275
    1DIPC   NC3 6973  13.211  24.212   7.492  0.1647  0.4907 -0.0118
    1DIPC   PO4 6974  12.972  24.489   7.174 -0.0024  0.1872 -0.1931
    1DIPC   GL1 6975  13.056  24.422   6.760  0.2042 -0.0852 -0.0544
    1DIPC   GL2 6976  12.983  24.766   6.491  0.0531  0.2162  0.1803
    1DIPC   C1A 6977  13.048  24.322   6.251 -0.1299 -0.1576 -0.0220
    1DIPC   D2A 6978  12.893  24.064   6.084  0.2135 -0.0531  0.1658
    1DIPC   D3A 6979  13.033  24.238   5.663  0.0617  0.4101  0.0111
    1DIPC   C4A 6980  12.704  24.205   5.320  0.1148 -0.3115  0.2804
    1DIPC   C1B 6981  13.402  24.701   6.596  0.1925 -0.2469 -0.2132
    1DIPC   D2B 6982  13.701  24.815   6.269  0.2143 -0.1117  0.3116
    1DIPC   D3B 6983  13.564  25.056   5.832 -0.1347 -0.2228 -0.0789
    1DIPC   C4B 6984  13.860  25.440   5.865 -0.0302  0.1267 -0.1800
    1DIPC   NC3 6985  24.166   5.828   7.150 -0.0275  0.1898  0.4276
    1DIPC   PO4 6986  24.519   6.006   7.292 -0.0343 -0.0987 -0.0323
    1DIPC   GL1 6987  24.789   6.215   6.997 -0.3733 -0.0417  0.0799
    1DIPC   GL2 6988  25.054   5.929   7.109  0.0224 -0.0860 -0.0233
    1DIPC   C1A 6989  24.945   6.142   6.533 -0.2734 -0.0630  0.3169
    1DIPC   D2A 6990  24.870   6.149   6.074  0.1316  0.1683 -0.2323
    1DIPC   D3A 6991  24.880   5.976   5.651  0.0232 -0.0696  0.0119
    1DIPC   C4A 6992  24.637   6.166   5.307  0.0215 -0.0055 -0.0760
    1DIPC   C1B 6993  25.197   5.664   6.744 -0.1561  0.1634  0.1537
    1DIPC   D2B 6994  25.326   5.443   6.325 -0.0588 -0.1367  0.0894
    1DIPC   D3B 6995  25.224   5.745   5.917  0.1242 -0.1068 -0.1174
    1DIPC   C4B 6996  25.350   6.004   5.478 -0.0174  0.0955 -0.3032
    1DIPC   NC3 6997  27.974  20.585   7.848  0.1255 -0.1391  0.2024
    1DIPC   PO4 6998  28.179  20.934   7.654 -0.4454  0.0618 -0.1412
    1DIPC   GL1 6999  28.405  20.972   7.267  0.0698  0.1189 -0.3505
    1DIPC   GL2 7000  28.420  20.692   6.988  0.0452 -0.0187 -0.2046
    1DIPC   C1A 7001  28.479  21.216   6.839  0.3067  0.3968 -0.3427
    1DIPC   D2A 7002  28.426  21.102   6.389 -0.0799 -0.1034  0.0241
    1DIPC   D3A 7003  28.696  20.996   6.008 -0.1660  0.2713  0.0002
    1DIPC   C4A 7004  28.646  20.749   5.650  0.0131 -0.0559 -0.3831
    1DIPC   C1B 7005  28.368  20.442   6.665 -0.2039 -0.0046 -0.2817
    1DIPC   D2B 7006  28.445  20.559   6.197  0.1485 -0.2306 -0.1933
    1DIPC   D3B 7007  28.073  20.232   6.267 -0.4624  0.3224 -0.1697
    1DIPC   C4B 7008  27.815  20.086   6.047 -0.0381  0.3147  0.1015
    1DIPC   NC3 7009  28.179  10.632   7.329  0.1335 -0.1507  0.1452
    1DIPC   PO4 7010  28.118  10.245   7.099  0.1318  0.1959  0.2206
    1DIPC   GL1 7011  28.059  10.207   6.736 -0.2236 -0.0614  0.0510
    1DIPC   GL2 7012  27.916  10.444   6.558  0.3325 -0.0897 -0.0072
    1DIPC   C1A 7013  27.960   9.934   6.482 -0.0785 -0.4816  0.1739
    1DIPC   D2A 7014  27.718   9.705   6.181  0.0468  0.3897  0.3378
    1DIPC   D3A 7015  28.070   9.641   5.838  0.1452  0.2547  0.1552
    1DIPC   C4A 7016  28.475   9.741   6.099 -0.0129  0.3470 -0.1166
    1DIPC   C1B 7017  27.632  10.197   6.234  0.2446  0.0927  0.1676
    1DIPC   D2B 7018  27.234  10.026   6.378 -0.6802  0.0328 -0.0394
    1DIPC   D3B 7019  27.187   9.931   5.926  0.0827  0.1618 -0.0459
    1DIPC   C4B 7020  26.806   9.621   5.860  0.0383 -0.1945  0.2389
    1DIPC   NC3 7021   2.642  25.207   7.314  0.2554  0.2471 -0.0802
    1DIPC   PO4 7022   2.652  25.565   7.495  0.2727 -0.0267  0.1496
    1DIPC   GL1 7023   2.727  25.665   7.007 -0.0717 -0.1068 -0.1223
    1DIPC   GL2 7024   2.673  25.442   6.903 -0.0063  0.1449 -0.0024
    1DIPC   C1A 7025   2.968  25.847   6.663  0.0860  0.1497  0.1379
    1DIPC   D2A 7026   3.196  26.153   6.561  0.3311  0.0518  0.2829
    1DIPC   D3A 7027   2.794  26.316   6.468 -0.2402  0.2895  0.1620
    1DIPC   C4A 7028   2.945  26.331   6.093 -0.3016  0.3900  0.2073
    1DIPC   C1B 7029   2.991  25.330   6.692 -0.1309  0.0540 -0.0081
    1DIPC   D2B 7030   3.032  24.935   6.453  0.1785  0.2675 -0.1337
    1DIPC   D3B 7031   2.981  25.127   6.165  0.0557  0.0627  0.1947
    1DIPC   C4B 7032   3.074  24.915   5.771  0.2741 -0.0752 -0.2598
    1DIPC   NC3 7033   6.112   0.971   8.312 -0.2306 -0.4715  0.0225
    1DIPC   PO4 7034   6.391   1.062   8.109 -0.4288  0.0255 -0.1203
    1DIPC   GL1 7035   6.518   1.349   7.730 -0.3700 -0.1505 -0.1755
    1DIPC   GL2 7036   6.238   1.500   7.655  0.1307 -0.1486  0.1195
    1DIPC   C1A 7037   6.850   1.384   7.421  0.0578 -0.2064  0.0979
    1DIPC   D2A 7038   6.924   1.632   7.061 -0.0610 -0.1629 -0.3981
    1DIPC   D3A 7039   6.642   2.016   6.913 -0.0987  0.1976 -0.0136
    1DIPC   C4A 7040   6.408   2.045   6.459 -0.1049 -0.1636  0.4269
    1DIPC   C1B 7041   6.443   1.625   7.234  0.2625  0.0646 -0.2617
    1DIPC   D2B 7042   6.450   1.600   6.744  0.1786 -0.2294  0.1488
    1DIPC   D3B 7043   6.802   1.735   6.440  0.0509 -0.0038  0.3750
    1DIPC   C4B 7044   6.742   2.048   6.070 -0.0558 -0.0752 -0.0014
    1DIPC   NC3 7045   4.238  24.506   7.555  0.3208 -0.0097  0.2113
    1DIPC   PO4 7046   3.889  24.788   7.537 -0.2187 -0.2024 -0.0848
    1DIPC   GL1 7047   3.923  24.588   7.216 -0.2417  0.0727  0.2754
    1DIPC   GL2 7048   4.101  24.298   7.113  0.0717  0.0669 -0.1478
    1DIPC   C1A 7049   3.821  24.740   6.727  0.2702 -0.0139  0.3801
    1DIPC   D2A 7050   3.898  25.085   6.586 -0.1691  0.0489  0.1753
    1DIPC   D3A 7051   3.460  25.156   6.634 -0.0500  0.2126 -0.2238
    1DIPC   C4A 7052   3.281  25.434   6.311  0.1056 -0.1263  0.3545
    1DIPC   C1B 7053   3.877  24.146   6.755  0.1509  0.0435  0.0268
    1DIPC   D2B 7054   3.506  24.280   6.712 -0.0775 -0.1350 -0.4839
    1DIPC   D3B 7055   3.123  24.107   6.822  0.1025  0.0582  0.2165
    1DIPC   C4B 7056   2.945  23.890   6.413 -0.1091 -0.1011 -0.1673
    1DIPC   NC3 7057  24.514  15.049   7.324 -0.1110  0.1043 -0.1524
    1DIPC   PO4 7058  24.819  15.305   7.270  0.0833  0.3122  0.0245
    1DIPC   GL1 7059  24.991  15.581   6.873 -0.2671 -0.2043 -0.1231
    1DIPC   GL2 7060  24.756  15.533   6.634  0.0812 -0.2075 -0.4220
    1DIPC   C1A 7061  25.315  15.913   6.776  0.0170  0.1671 -0.0661
    1DIPC   D2A 7062  25.841  16.005   6.802 -0.0125  0.1027 -0.0911
    1DIPC   D3A 7063  25.943  16.484   6.854 -0.1320  0.0572  0.0694
    1DIPC   C4A 7064  26.252  16.637   6.614  0.1416  0.0625  0.1147
    1DIPC   C1B 7065  25.094  15.708   6.343 -0.0641  0.0095 -0.1038
    1DIPC   D2B 7066  25.136  15.869   5.934 -0.0402 -0.1614  0.1629
    1DIPC   D3B 7067  25.382  16.179   5.869 -0.0259 -0.1937 -0.2015
    1DIPC   C4B 7068  25.319  16.300   5.521  0.0985  0.1610  0.1738
    1DIPC   NC3 7069   7.794  21.621   6.623  0.0416  0.0753 -0.0626
    1DIPC   PO4 7070   8.142  21.944   6.570  0.1787  0.0374  0.2442
    1DIPC   GL1 7071   8.260  22.224   6.430 -0.2300  0.1142  0.1424
    1DIPC   GL2 7072   8.534  22.134   6.282 -0.4610 -0.0044  0.2008
    1DIPC   C1A 7073   7.982  22.419   6.169  0.1755 -0.2505 -0.1334
    1DIPC   D2A 7074   7.682  22.629   5.900  0.0743  0.1028 -0.2192
    1DIPC   D3A 7075   7.629  22.661   5.447  0.1848  0.3433 -0.1054
    1DIPC   C4A 7076   7.299  22.822   5.205 -0.0120  0.3926  0.0686
    1DIPC   C1B 7077   8.466  22.134   5.816  0.1051  0.4418  0.3400
    1DIPC   D2B 7078   8.631  22.422   5.552 -0.0684  0.1612 -0.0246
    1DIPC   D3B 7079   8.944  22.179   5.695  0.0891 -0.2549 -0.0102
    1DIPC   C4B 7080   8.900  21.966   6.005  0.1308  0.1743  0.1948
    1DIPC   NC3 7081  26.835  10.739   6.916 -0.0159  0.0893  0.2326
    1DIPC   PO4 7082  26.944  10.264   6.986  0.0411  0.1099 -0.6437
    1DIPC   GL1 7083  26.945  10.334   6.631  0.1829  0.1015 -0.0961
    1DIPC   GL2 7084  26.686  10.499   6.470 -0.0426 -0.1787 -0.4106
    1DIPC   C1A 7085  27.129  10.544   6.295  0.0740  0.1742 -0.0133
    1DIPC   D2A 7086  27.278  10.688   5.957 -0.0288  0.1856  0.1375
    1DIPC   D3A 7087  27.085  10.367   5.719  0.1429 -0.2411 -0.0616
    1DIPC   C4A 7088  27.232  10.438   5.276  0.0148  0.1104 -0.0780
    1DIPC   C1B 7089  26.729  10.276   6.102 -0.0455 -0.2316  0.0948
    1DIPC   D2B 7090  26.550  10.112   5.702 -0.1686  0.4052 -0.0478
    1DIPC   D3B 7091  26.823  10.082   5.311  0.4170 -0.0727  0.1114
    1DIPC   C4B 7092  26.883   9.627   5.204 -0.2637  0.0291  0.0244
    1DIPC   NC3 7093  21.655  14.688   6.526 -0.3568 -0.1285 -0.1851
    1DIPC   PO4 7094  21.715  14.291   6.402 -0.2494 -0.0153  0.1456
    1DIPC   GL1 7095  22.000  14.208   6.046  0.0519 -0.0076 -0.3327
    1DIPC   GL2 7096  22.285  14.485   5.914  0.0065  0.2748 -0.0172
    1DIPC   C1A 7097  22.129  14.045   5.694 -0.0456 -0.2021 -0.0422
    1DIPC   D2A 7098  22.174  14.056   5.304 -0.1345  0.1706 -0.1134
    1DIPC   D3A 7099  22.164  14.542   5.275  0.0288 -0.2019  0.1256
    1DIPC   C4A 7100  22.261  14.679   4.793 -0.3291  0.0711 -0.0469
    1DIPC   C1B 7101  22.519  14.357   5.611 -0.1638  0.0020 -0.2375
    1DIPC   D2B 7102  22.953  14.332   5.488  0.0880  0.0771 -0.0492
    1DIPC   D3B 7103  22.929  13.964   5.258 -0.0317 -0.0763 -0.1131
    1DIPC   C4B 7104  22.757  13.857   4.920  0.1647  0.1927 -0.1157
    1DIPC   NC3 7105  13.532  22.641   6.837 -0.5284 -0.1344  0.4168
    1DIPC   PO4 7106  13.357  22.301   6.701 -0.2442  0.0135  0.0201
    1DIPC   GL1 7107  13.436  22.428   6.354  0.2924  0.2743 -0.0044
    1DIPC   GL2 7108  13.627  22.322   6.190  0.0391  0.2259 -0.1465
    1DIPC   C1A 7109  13.199  22.681   5.932 -0.0241 -0.3493 -0.0569
    1DIPC   D2A 7110  13.246  22.961   5.614  0.0472 -0.1157 -0.0879
    1DIPC   D3A 7111  12.939  22.796   5.318 -0.0151  0.0915 -0.2379
    1DIPC   C4A 7112  12.518  22.808   5.172  0.1188  0.1260  0.0994
    1DIPC   C1B 7113  13.635  22.573   5.812  0.1016 -0.0913  0.0974
    1DIPC   D2B 7114  13.479  22.602   5.353  0.2014  0.2893 -0.2534
    1DIPC   D3B 7115  13.894  22.552   5.355 -0.0462 -0.1023 -0.0372
    1DIPC   C4B 7116  14.141  22.921   5.211  0.1465 -0.0687 -0.0061
    1DIPC   NC3 7117  11.346  18.344   7.299  0.2656  0.0461 -0.0330
    1DIPC   PO4 7118  11.266  18.774   7.149 -0.2152  0.0350  0.0762
    1DIPC   GL1 7119  11.408  18.710   6.724  0.1021 -0.1353  0.1929
    1DIPC   GL2 7120  11.300  18.874   6.519  0.0038 -0.0138  0.1481
    1DIPC   C1A 7121  11.589  18.471   6.360  0.1236 -0.1660 -0.2449
    1DIPC   D2A 7122  11.561  18.084   6.242  0.2708 -0.1503  0.0474
    1DIPC   D3A 7123  11.179  18.260   6.394  0.1478  0.1290  0.1355
    1DIPC   C4A 7124  10.874  18.570   6.557 -0.2326 -0.0379 -0.1243
    1DIPC   C1B 7125  10.919  19.036   6.337  0.1962 -0.0780 -0.0390
    1DIPC   D2B 7126  10.560  19.239   6.124 -0.1812  0.1167 -0.1639
    1DIPC   D3B 7127  10.622  19.485   5.760 -0.0361  0.0722  0.3582
    1DIPC   C4B 7128  10.473  19.936   5.760  0.1172  0.3397 -0.2624
    1DIPC   NC3 7129  21.422  27.491   7.432  0.1581 -0.1015  0.0590
    1DIPC   PO4 7130  21.233  27.136   7.176 -0.0119  0.2282 -0.3903
    1DIPC   GL1 7131  21.341  26.916   6.716 -0.0258 -0.0952  0.0796
    1DIPC   GL2 7132  21.586  27.099   6.610  0.0952 -0.3288 -0.0187
    1DIPC   C1A 7133  21.139  27.119   6.422  0.1888  0.3401  0.1780
    1DIPC   D2A 7134  20.766  26.879   6.183 -0.0229  0.1647  0.0159
    1DIPC   D3A 7135  20.452  27.172   6.319  0.1839  0.1741  0.0119
    1DIPC   C4A 7136  19.992  27.127   6.428 -0.0241 -0.2781  0.0874
    1DIPC   C1B 7137  21.631  26.955   6.249 -0.0570  0.1355 -0.2386
    1DIPC   D2B 7138  21.705  26.568   5.993 -0.1192  0.2048 -0.1207
    1DIPC   D3B 7139  21.558  26.098   5.927  0.1124 -0.0758  0.0871
    1DIPC   C4B 7140  21.204  25.950   5.548  0.0025 -0.1195  0.1881
    1DIPC   NC3 7141  21.833  22.737   7.130  0.0409 -0.1809 -0.1019
    1DIPC   PO4 7142  21.532  22.733   6.880 -0.0437  0.1239 -0.2080
    1DIPC   GL1 7143  21.668  22.708   6.506  0.1048 -0.1254 -0.0924
    1DIPC   GL2 7144  21.978  22.802   6.636 -0.0300 -0.1027 -0.3994
    1DIPC   C1A 7145  21.529  22.735   5.999  0.0688  0.2851  0.1040
    1DIPC   D2A 7146  21.916  22.690   5.609  0.0297  0.2376 -0.1805
    1DIPC   D3A 7147  21.623  22.449   5.321 -0.1659  0.2678 -0.1652
    1DIPC   C4A 7148  21.489  22.728   5.022 -0.1331 -0.3159 -0.2506
    1DIPC   C1B 7149  22.204  23.135   6.650 -0.0240  0.3178  0.1662
    1DIPC   D2B 7150  22.264  23.307   6.282 -0.0812 -0.0011  0.4184
    1DIPC   D3B 7151  22.175  23.221   5.816  0.3131 -0.0271 -0.3342
    1DIPC   C4B 7152  22.430  23.274   5.482  0.2093  0.1303  0.0554
    1DIPC   NC3 7153   5.950  22.142   7.226  0.1632  0.2309  0.0084
    1DIPC   PO4 7154   5.621  21.974   7.172  0.3210  0.1186 -0.2830
    1DIPC   GL1 7155   5.652  22.130   6.764 -0.1995  0.1529 -0.3564
    1DIPC   GL2 7156   5.375  22.284   6.727 -0.1654 -0.0552  0.1015
    1DIPC   C1A 7157   5.811  21.980   6.373 -0.1195  0.2857 -0.1518
    1DIPC   D2A 7158   6.216  21.666   6.364  0.0332  0.0105 -0.2597
    1DIPC   D3A 7159   6.003  21.422   6.073  0.2031  0.0271  0.0540
    1DIPC   C4A 7160   6.008  21.522   5.636  0.1563 -0.1000  0.0707
    1DIPC   C1B 7161   5.473  22.429   6.321  0.0821 -0.0848  0.1260
    1DIPC   D2B 7162   5.714  22.776   6.044  0.0047  0.0076 -0.0933
    1DIPC   D3B 7163   5.532  22.503   5.717  0.1914  0.1865 -0.2687
    1DIPC   C4B 7164   5.086  22.362   5.848  0.0351 -0.2300  0.0782
    1DIPC   NC3 7165   7.702  19.231   6.853 -0.0242 -0.0541 -0.0607
    1DIPC   PO4 7166   7.451  19.512   6.778  0.4996  0.1998  0.0733
    1DIPC   GL1 7167   7.103  19.494   6.428  0.2525  0.0641 -0.2076
    1DIPC   GL2 7168   6.869  19.174   6.296  0.0540 -0.2745  0.1814
    1DIPC   C1A 7169   6.946  19.575   6.069 -0.0687 -0.0306  0.2214
    1DIPC   D2A 7170   6.827  19.439   5.685  0.1939  0.0245  0.0212
    1DIPC   D3A 7171   6.962  19.519   5.324 -0.2521  0.0145 -0.1603
    1DIPC   C4A 7172   7.190  19.324   5.240  0.0514 -0.1534  0.2296
    1DIPC   C1B 7173   6.880  18.940   5.930 -0.3104  0.0560 -0.1846
    1DIPC   D2B 7174   6.710  18.945   5.547 -0.0621  0.1733 -0.1220
    1DIPC   D3B 7175   6.690  18.673   5.356  0.1804  0.0900 -0.1821
    1DIPC   C4B 7176   6.431  18.663   5.026 -0.0457 -0.0731  0.1321
    1DIPC   NC3 7177   4.729  16.147   7.069 -0.0305 -0.0979 -0.0121
    1DIPC   PO4 7178   4.659  16.630   6.904  0.0067 -0.1303  0.1424
    1DIPC   GL1 7179   4.756  16.632   6.486  0.0418  0.0828 -0.2986
    1DIPC   GL2 7180   4.424  16.626   6.334  0.2503 -0.2814  0.0492
    1DIPC   C1A 7181   4.706  16.978   6.108  0.1404 -0.0818  0.1299
    1DIPC   D2A 7182   4.926  17.070   5.789 -0.0837  0.1441  0.0028
    1DIPC   D3A 7183   5.200  16.759   5.643 -0.0469  0.1926 -0.1732
    1DIPC   C4A 7184   5.485  16.697   5.330 -0.2636 -0.1331  0.1616
    1DIPC   C1B 7185   4.771  16.452   5.971  0.1927 -0.0322  0.0052
    1DIPC   D2B 7186   4.761  16.461   5.566 -0.0231  0.2376 -0.2473
    1DIPC   D3B 7187   5.154  16.267   5.669  0.1381  0.2676  0.3139
    1DIPC   C4B 7188   5.118  15.914   5.450 -0.1024 -0.2947  0.0091
    1DIPC   NC3 7189  23.918  18.241   7.215  0.2530  0.2119 -0.1692
    1DIPC   PO4 7190  24.219  17.942   7.038  0.3358 -0.1145 -0.0036
    1DIPC   GL1 7191  24.491  18.056   6.691 -0.0400  0.2136 -0.3072
    1DIPC   GL2 7192  24.729  18.239   6.769 -0.1358  0.2761  0.0021
    1DIPC   C1A 7193  24.608  18.061   6.260 -0.1313  0.0854  0.0467
    1DIPC   D2A 7194  24.849  18.004   5.919 -0.0409 -0.0539 -0.2433
    1DIPC   D3A 7195  25.164  17.975   5.652 -0.0304 -0.1177 -0.5011
    1DIPC   C4A 7196  25.376  18.309   5.366  0.1700  0.2535 -0.0866
    1DIPC   C1B 7197  24.601  18.529   6.420 -0.0571 -0.2468 -0.0204
    1DIPC   D2B 7198  24.207  18.276   6.181 -0.0641 -0.0850 -0.3462
    1DIPC   D3B 7199  23.982  17.870   6.167 -0.1070 -0.2885 -0.4202
    1DIPC   C4B 7200  23.911  17.635   5.836  0.0625  0.1429  0.2735
    1DIPC   NC3 7201   3.371  17.915   6.969 -0.0269 -0.2151  0.0353
    1DIPC   PO4 7202   3.533  17.485   7.045 -0.0447  0.1089  0.0413
    1DIPC   GL1 7203   3.742  17.477   6.492  0.0478 -0.1801  0.2182
    1DIPC   GL2 7204   3.435  17.397   6.396  0.1567 -0.0380  0.1543
    1DIPC   C1A 7205   3.850  17.464   6.042 -0.0626 -0.4161 -0.0822
    1DIPC   D2A 7206   4.052  17.433   5.619  0.0164 -0.0364  0.1651
    1DIPC   D3A 7207   4.486  17.688   5.489  0.1602  0.0974  0.1341
    1DIPC   C4A 7208   4.421  18.098   5.330  0.3684 -0.1517 -0.0372
    1DIPC   C1B 7209   3.465  17.786   6.112  0.1169 -0.1491  0.1702
    1DIPC   D2B 7210   3.239  17.717   5.687 -0.4302 -0.2693 -0.4161
    1DIPC   D3B 7211   3.152  17.588   5.285 -0.0528  0.3361  0.2374
    1DIPC   C4B 7212   2.656  17.337   5.258  0.0935  0.0448  0.0859
    1DIPC   NC3 7213  26.273  19.341   7.800  0.1552 -0.2460  0.0004
    1DIPC   PO4 7214  26.539  19.632   7.662  0.3903  0.1372  0.2252
    1DIPC   GL1 7215  26.734  19.930   7.438  0.0355  0.0169  0.0031
    1DIPC   GL2 7216  26.952  20.041   7.614 -0.2779 -0.0534 -0.0758
    1DIPC   C1A 7217  26.796  19.893   7.036  0.1225 -0.2576 -0.2814
    1DIPC   D2A 7218  26.814  20.147   6.646  0.2982  0.2305  0.2197
    1DIPC   D3A 7219  26.783  20.517   6.408  0.4686  0.0297 -0.1199
    1DIPC   C4A 7220  26.578  20.736   6.133  0.0617  0.2016 -0.0219
    1DIPC   C1B 7221  27.301  19.900   7.394 -0.1242  0.0900  0.0709
    1DIPC   D2B 7222  27.520  19.676   7.114 -0.0044 -0.0486 -0.0035
    1DIPC   D3B 7223  27.104  19.450   7.112  0.1909 -0.0634  0.0663
    1DIPC   C4B 7224  27.039  18.987   6.994 -0.1394  0.0038  0.1183
    1DIPC   NC3 7225   9.264  28.045   7.482  0.1498  0.1602 -0.2019
    1DIPC   PO4 7226   9.080  28.408   7.372  0.1131 -0.1910 -0.2342
    1DIPC   GL1 7227   8.971  28.248   6.968  0.2299 -0.0367  0.0071
    1DIPC   GL2 7228   8.574  28.296   7.045 -0.1191  0.1707  0.0242
    1DIPC   C1A 7229   8.827  27.965   6.644 -0.1223 -0.1213  0.0099
    1DIPC   D2A 7230   8.976  27.769   6.190  0.0444 -0.0301  0.1567
    1DIPC   D3A 7231   8.853  27.923   5.814  0.1134  0.1024 -0.3161
    1DIPC   C4A 7232   8.981  27.811   5.428 -0.0944  0.3346 -0.4509
    1DIPC   C1B 7233   8.375  28.156   6.687  0.4152 -0.0502  0.0513
    1DIPC   D2B 7234   7.942  27.820   6.729 -0.0859 -0.0975  0.0954
    1DIPC   D3B 7235   8.020  27.667   6.350  0.0967  0.3027  0.2846
    1DIPC   C4B 7236   7.768  27.419   6.208 -0.0942  0.1729 -0.0546
    1DIPC   NC3 7237   0.192   3.519   8.798 -0.2108  0.1383 -0.0971
    1DIPC   PO4 7238   0.306   3.862   8.469 -0.0378 -0.0018 -0.3334
    1DIPC   GL1 7239   0.188   3.989   7.983 -0.0798 -0.0894  0.4685
    1DIPC   GL2 7240   0.331   3.919   7.637 -0.1873  0.1242 -0.3316
    1DIPC   C1A 7241  -0.133   4.056   7.685 -0.0575  0.0370  0.3214
    1DIPC   D2A 7242  -0.418   4.170   7.403  0.0251 -0.3123 -0.0204
    1DIPC   D3A 7243  -0.502   4.206   6.982  0.2777 -0.2570 -0.0690
    1DIPC   C4A 7244  -0.541   4.245   6.574 -0.0045 -0.3512 -0.0669
    1DIPC   C1B 7245   0.311   3.813   7.239  0.2016 -0.1390 -0.2631
    1DIPC   D2B 7246   0.419   3.629   6.787  0.0148 -0.0729 -0.3127
    1DIPC   D3B 7247   0.664   3.341   6.628  0.2450  0.0071 -0.2087
    1DIPC   C4B 7248   0.892   3.508   6.164  0.1210  0.0712 -0.0231
    1DIPC   NC3 7249  21.130  20.573   6.829  0.0367 -0.1498 -0.0207
    1DIPC   PO4 7250  21.053  21.093   6.606 -0.1256  0.1683 -0.2107
    1DIPC   GL1 7251  21.247  20.949   6.175  0.0251  0.2664 -0.1319
    1DIPC   GL2 7252  21.053  20.952   5.889  0.1514 -0.2126  0.0277
    1DIPC   C1A 7253  21.583  21.055   5.894  0.4185  0.2926 -0.0470
    1DIPC   D2A 7254  21.924  21.223   5.648 -0.3312  0.1097  0.0923
    1DIPC   D3A 7255  21.661  21.546   5.592 -0.0740  0.1106  0.2923
    1DIPC   C4A 7256  21.530  21.812   5.953 -0.0064  0.2134  0.0923
    1DIPC   C1B 7257  20.911  20.884   5.551 -0.0575  0.0270 -0.2089
    1DIPC   D2B 7258  20.818  20.995   5.098  0.3311 -0.1549 -0.0037
    1DIPC   D3B 7259  21.032  21.279   4.828  0.2241  0.3848 -0.0157
    1DIPC   C4B 7260  21.447  21.324   4.940 -0.0178 -0.1701  0.2491
    1DIPC   NC3 7261  28.037  25.092   7.848 -0.0114 -0.2585 -0.2281
    1DIPC   PO4 7262  27.819  24.827   7.607 -0.1208 -0.0352 -0.0460
    1DIPC   GL1 7263  27.847  25.049   7.257 -0.1288 -0.0504  0.3481
    1DIPC   GL2 7264  27.891  24.710   6.984  0.1235 -0.1542 -0.1624
    1DIPC   C1A 7265  27.848  25.210   6.923 -0.0803  0.0639 -0.3568
    1DIPC   D2A 7266  27.706  25.262   6.530  0.0540  0.4830 -0.1298
    1DIPC   D3A 7267  28.016  25.403   6.196 -0.1328 -0.1192 -0.0673
    1DIPC   C4A 7268  28.214  25.926   6.139  0.3192  0.1319 -0.1565
    1DIPC   C1B 7269  27.708  24.721   6.640 -0.1509 -0.0467  0.0685
    1DIPC   D2B 7270  27.394  24.679   6.312  0.0352 -0.1442 -0.3081
    1DIPC   D3B 7271  27.224  24.953   6.611  0.2328  0.2046 -0.0942
    1DIPC   C4B 7272  27.358  25.212   7.010  0.1509  0.0998  0.1816
    1DIPC   NC3 7273  15.447   7.487   5.446 -0.0904  0.0495 -0.1460
    1DIPC   PO4 7274  14.918   7.517   5.452 -0.3579  0.0779 -0.0105
    1DIPC   GL1 7275  14.674   7.387   5.090  0.3355 -0.2818 -0.1185
    1DIPC   GL2 7276  14.424   7.461   5.191  0.0039  0.0712  0.1648
    1DIPC   C1A 7277  14.757   7.429   4.696 -0.1576 -0.2962 -0.0702
    1DIPC   D2A 7278  14.709   7.434   4.283 -0.1984 -0.0953 -0.2609
    1DIPC   D3A 7279  14.247   7.380   4.282 -0.1301 -0.1995 -0.1604
    1DIPC   C4A 7280  14.041   7.732   4.114 -0.0211 -0.0896  0.1564
    1DIPC   C1B 7281  14.270   7.420   4.783  0.0845 -0.1004  0.0709
    1DIPC   D2B 7282  13.823   7.272   4.558 -0.1312  0.2330  0.4014
    1DIPC   D3B 7283  13.605   7.552   4.887  0.3971  0.2717  0.0701
    1DIPC   C4B 7284  13.208   7.499   5.023 -0.3025 -0.1158 -0.1701
    1DIPC   NC3 7285  14.732  17.076   6.333  0.2240 -0.2103  0.1661
    1DIPC   PO4 7286  14.943  16.646   6.227  0.0761 -0.1444 -0.0683
    1DIPC   GL1 7287  14.824  16.581   5.847 -0.0911 -0.4327  0.0365
    1DIPC   GL2 7288  14.679  16.917   5.869  0.3621  0.0942  0.0875
    1DIPC   C1A 7289  14.944  16.595   5.491  0.0112  0.2288  0.1674
    1DIPC   D2A 7290  15.233  16.674   5.087  0.3374  0.4513 -0.0115
    1DIPC   D3A 7291  15.243  16.227   5.101  0.1303  0.0517  0.0191
    1DIPC   C4A 7292  14.913  15.888   5.185  0.0260 -0.2798 -0.0316
    1DIPC   C1B 7293  14.492  17.036   5.584 -0.0018  0.1941  0.0939
    1DIPC   D2B 7294  14.348  17.192   5.233 -0.1142 -0.0958  0.0010
    1DIPC   D3B 7295  14.472  17.650   5.337  0.1298 -0.0472 -0.3101
    1DIPC   C4B 7296  14.511  17.814   4.897 -0.1147 -0.1253 -0.0224
    1DIPC   NC3 7297   7.548  26.897   7.561  0.1271 -0.0702 -0.1683
    1DIPC   PO4 7298   7.086  26.677   7.701  0.4267  0.0406  0.2315
    1DIPC   GL1 7299   7.115  26.781   7.291 -0.0988  0.0293 -0.1467
    1DIPC   GL2 7300   7.343  26.740   7.066  0.0954  0.0243 -0.0426
    1DIPC   C1A 7301   6.923  26.958   6.932 -0.1738 -0.0998  0.1385
    1DIPC   D2A 7302   6.632  26.788   6.657  0.4280 -0.1744 -0.2239
    1DIPC   D3A 7303   6.201  26.844   6.407  0.1201  0.1187 -0.1259
    1DIPC   C4A 7304   6.140  27.230   6.239 -0.0979  0.0256  0.1882
    1DIPC   C1B 7305   7.595  26.476   6.875  0.1814  0.1042 -0.1432
    1DIPC   D2B 7306   7.681  26.050   6.859  0.1314  0.1383 -0.1353
    1DIPC   D3B 7307   8.072  26.227   6.863 -0.1350  0.0211 -0.0068
    1DIPC   C4B 7308   8.400  26.057   6.541  0.2977  0.1646 -0.3446
    1DIPC   NC3 7309  26.008   1.456   7.852  0.1991  0.0755  0.0997
    1DIPC   PO4 7310  26.320   1.085   7.833  0.1274  0.1390 -0.0943
    1DIPC   GL1 7311  26.337   1.254   7.458  0.0268 -0.2024  0.1093
    1DIPC   GL2 7312  26.105   1.513   7.384 -0.3349  0.0319  0.1350
    1DIPC   C1A 7313  26.093   1.087   6.963  0.0221 -0.0364 -0.4751
    1DIPC   D2A 7314  25.912   0.932   6.618  0.0762  0.0676 -0.1347
    1DIPC   D3A 7315  26.248   0.933   6.336  0.0681  0.1294  0.0475
    1DIPC   C4A 7316  26.523   0.844   5.911 -0.1736 -0.0493  0.0265
    1DIPC   C1B 7317  26.162   1.628   6.990 -0.0885  0.0394 -0.0795
    1DIPC   D2B 7318  26.515   1.873   6.916 -0.3031  0.1091 -0.0336
    1DIPC   D3B 7319  26.664   1.824   6.600 -0.1326  0.2254  0.2185
    1DIPC   C4B 7320  26.966   1.488   6.574 -0.0807  0.2014  0.0498
    1DIPC   NC3 7321  24.923  15.101   6.707  0.0560  0.0739 -0.1613
    1DIPC   PO4 7322  24.601  14.774   6.868 -0.1882 -0.3647  0.0743
    1DIPC   GL1 7323  24.344  14.807   6.499 -0.2148  0.1013  0.2165
    1DIPC   GL2 7324  24.553  15.092   6.364 -0.3422  0.1327 -0.0594
    1DIPC   C1A 7325  24.226  14.715   6.054 -0.4630  0.1371 -0.3358
    1DIPC   D2A 7326  24.458  14.526   5.735 -0.0410  0.0998  0.0715
    1DIPC   D3A 7327  24.347  14.401   5.341 -0.1785 -0.1358 -0.2473
    1DIPC   C4A 7328  24.665  14.560   5.077 -0.3007 -0.1471  0.0487
    1DIPC   C1B 7329  24.682  15.010   5.944 -0.3226 -0.0738 -0.1126
    1DIPC   D2B 7330  24.743  14.921   5.453 -0.0222  0.0178 -0.1625
    1DIPC   D3B 7331  24.270  14.897   5.386 -0.1661  0.0884 -0.1142
    1DIPC   C4B 7332  24.083  14.759   5.027  0.0409 -0.1016  0.1163
    1DIPC   NC3 7333   9.483   8.185   6.676 -0.0857  0.1013 -0.1328
    1DIPC   PO4 7334   9.458   7.837   6.399 -0.4631 -0.1505  0.0074
    1DIPC   GL1 7335   9.302   7.806   5.990  0.0081  0.0034  0.2544
    1DIPC   GL2 7336   9.358   8.136   5.887 -0.0636 -0.0203 -0.0224
    1DIPC   C1A 7337   9.025   7.878   5.578 -0.0753 -0.0502 -0.3908
    1DIPC   D2A 7338   9.087   8.196   5.276  0.0293 -0.1612 -0.1496
    1DIPC   D3A 7339   9.423   8.039   5.295  0.1263  0.0892 -0.1310
    1DIPC   C4A 7340   9.513   7.790   4.948 -0.1406 -0.2622  0.0330
    1DIPC   C1B 7341   9.573   7.699   5.581  0.2144  0.1632  0.2448
    1DIPC   D2B 7342   9.775   7.454   5.425  0.2089 -0.1389  0.0711
    1DIPC   D3B 7343  10.091   7.768   5.249 -0.4604  0.1823 -0.1622
    1DIPC   C4B 7344  10.440   7.577   5.105  0.0263 -0.0282  0.0162
    1DIPC   NC3 7345   6.670  21.604   6.996  0.1583 -0.0730  0.0158
    1DIPC   PO4 7346   7.010  21.396   6.966  0.2576 -0.0666 -0.2249
    1DIPC   GL1 7347   7.147  21.390   6.452 -0.1627 -0.3927 -0.0501
    1DIPC   GL2 7348   7.514  21.324   6.319  0.3131 -0.0226 -0.3780
    1DIPC   C1A 7349   7.091  21.591   6.052  0.4664 -0.3479 -0.0506
    1DIPC   D2A 7350   6.956  21.773   5.673  0.0149 -0.1003  0.0625
    1DIPC   D3A 7351   6.637  21.565   5.545 -0.0779 -0.1450  0.0428
    1DIPC   C4A 7352   6.321  21.815   5.491  0.1140 -0.1137 -0.0400
    1DIPC   C1B 7353   7.718  21.534   6.039  0.0972  0.1997  0.3909
    1DIPC   D2B 7354   8.035  21.920   6.080 -0.0781  0.1737  0.3502
    1DIPC   D3B 7355   7.602  22.032   6.039 -0.2326  0.3417 -0.0959
    1DIPC   C4B 7356   7.429  22.171   5.743  0.0038 -0.3220  0.1194
    1DIPC   NC3 7357  24.279   7.129   7.110  0.1158 -0.2084 -0.2239
    1DIPC   PO4 7358  24.647   7.160   7.167  0.0476 -0.1304  0.2173
    1DIPC   GL1 7359  24.808   7.382   6.756  0.2900  0.4588  0.0584
    1DIPC   GL2 7360  25.100   7.556   6.827 -0.5879  0.2099 -0.3288
    1DIPC   C1A 7361  24.449   7.424   6.486  0.0357 -0.1784  0.1521
    1DIPC   D2A 7362  24.168   7.198   6.359  0.1925 -0.0633  0.1562
    1DIPC   D3A 7363  24.471   6.957   6.624  0.1438 -0.3569  0.3065
    1DIPC   C4A 7364  24.892   7.030   6.454  0.1338 -0.1094  0.1025
    1DIPC   C1B 7365  25.152   7.462   6.374  0.0484 -0.1997  0.0589
    1DIPC   D2B 7366  25.309   7.257   5.982 -0.1836  0.0451  0.1523
    1DIPC   D3B 7367  24.841   7.098   5.900  0.3678  0.3018 -0.0105
    1DIPC   C4B 7368  24.454   6.882   6.093  0.3881  0.0451  0.1479
    1DIPC   NC3 7369   7.951   2.710   7.827  0.1231 -0.1101  0.0907
    1DIPC   PO4 7370   7.941   3.084   7.848 -0.1111 -0.1842 -0.3686
    1DIPC   GL1 7371   7.924   2.903   7.378 -0.0171  0.1651  0.1604
    1DIPC   GL2 7372   8.022   2.995   7.097 -0.2718  0.3470 -0.1139
    1DIPC   C1A 7373   7.518   2.775   7.197 -0.4018 -0.2100 -0.2210
    1DIPC   D2A 7374   7.099   2.677   7.287 -0.0177  0.3459 -0.3087
    1DIPC   D3A 7375   7.056   2.196   7.237 -0.3545  0.0381  0.0506
    1DIPC   C4A 7376   6.772   1.991   7.420  0.2031  0.0338  0.1037
    1DIPC   C1B 7377   7.709   3.119   6.842 -0.0563 -0.0037  0.1099
    1DIPC   D2B 7378   7.252   3.218   7.063 -0.1956  0.2222  0.0278
    1DIPC   D3B 7379   7.025   3.290   6.774  0.0091 -0.3353 -0.0604
    1DIPC   C4B 7380   7.076   3.740   6.473 -0.1270 -0.2194 -0.0197
    1DIPC   NC3 7381   7.846   0.899   7.522  0.1085  0.0664 -0.3970
    1DIPC   PO4 7382   8.373   1.056   7.469  0.0615  0.3745  0.2257
    1DIPC   GL1 7383   8.233   1.034   7.110  0.0062  0.3608  0.0795
    1DIPC   GL2 7384   7.897   0.902   6.923 -0.3659  0.4790  0.2278
    1DIPC   C1A 7385   8.177   1.203   6.689 -0.1817  0.1031  0.0445
    1DIPC   D2A 7386   7.951   1.130   6.364  0.1199  0.3178 -0.0405
    1DIPC   D3A 7387   8.190   1.455   6.295 -0.1883  0.0994  0.0658
    1DIPC   C4A 7388   8.194   1.820   6.418  0.2273  0.2173 -0.1014
    1DIPC   C1B 7389   7.875   0.580   6.477 -0.0042  0.0034  0.0055
    1DIPC   D2B 7390   7.880   0.208   6.180 -0.1220 -0.1676 -0.0242
    1DIPC   D3B 7391   7.479   0.176   6.127 -0.0181 -0.1546  0.3499
    1DIPC   C4B 7392   7.291  -0.254   5.999 -0.0545 -0.0750  0.1238
    1DIPC   NC3 7393  26.429  13.943   7.051  0.1024 -0.3861 -0.0738
    1DIPC   PO4 7394  26.323  13.509   7.058  0.4062 -0.2758  0.0847
    1DIPC   GL1 7395  26.458  13.441   6.617  0.0734 -0.1659 -0.1825
    1DIPC   GL2 7396  26.727  13.621   6.429 -0.0715 -0.4804 -0.0455
    1DIPC   C1A 7397  26.237  13.364   6.259 -0.0060 -0.1936 -0.1488
    1DIPC   D2A 7398  26.236  13.272   5.802 -0.0244 -0.1592  0.2471
    1DIPC   D3A 7399  26.103  13.625   5.566 -0.1519 -0.0880  0.0470
    1DIPC   C4A 7400  25.804  13.846   5.549  0.1130 -0.0338  0.2720
    1DIPC   C1B 7401  26.471  13.821   6.087  0.0833 -0.1323 -0.1575
    1DIPC   D2B 7402  26.466  13.928   5.664  0.2376 -0.0081 -0.1929
    1DIPC   D3B 7403  26.530  13.457   5.476 -0.2082  0.0419  0.1753
    1DIPC   C4B 7404  26.683  13.375   5.109 -0.2641 -0.4059  0.0105
    1DIPC   NC3 7405  27.797  14.993   6.986 -0.3892  0.0098  0.1148
    1DIPC   PO4 7406  27.910  15.236   7.255  0.3538 -0.1732 -0.1033
    1DIPC   GL1 7407  28.122  15.336   6.792  0.3343  0.0807 -0.0517
    1DIPC   GL2 7408  28.370  15.170   6.823  0.2174 -0.2004 -0.0810
    1DIPC   C1A 7409  28.176  15.220   6.375 -0.0960  0.0268 -0.0369
    1DIPC   D2A 7410  28.262  15.416   6.079  0.4949 -0.1245 -0.0405
    1DIPC   D3A 7411  28.347  15.844   6.355  0.0467  0.0201 -0.2417
    1DIPC   C4A 7412  28.350  15.822   6.859  0.0540  0.0371 -0.0713
    1DIPC   C1B 7413  28.548  15.491   6.515 -0.1041 -0.0808 -0.1117
    1DIPC   D2B 7414  28.754  15.444   6.191  0.3539  0.0283 -0.2482
    1DIPC   D3B 7415  29.125  15.527   6.233  0.3123  0.0109 -0.1191
    1DIPC   C4B 7416  29.449  15.266   6.072 -0.0379 -0.0229  0.2588
    1DIPC   NC3 7417   9.925  12.321   5.685 -0.4019 -0.0463  0.3223
    1DIPC   PO4 7418  10.288  12.415   5.829 -0.1268 -0.2260  0.0777
    1DIPC   GL1 7419  10.488  12.555   5.411  0.0254 -0.0128  0.2047
    1DIPC   GL2 7420  10.242  12.404   5.287  0.0429  0.2656  0.1586
    1DIPC   C1A 7421  10.837  12.423   5.226 -0.0423 -0.2244 -0.0804
    1DIPC   D2A 7422  10.669  12.352   4.784  0.1292 -0.1024  0.0822
    1DIPC   D3A 7423  11.129  12.484   4.524 -0.2172 -0.0807 -0.1294
    1DIPC   C4A 7424  11.170  12.892   4.379  0.0056  0.3053  0.0960
    1DIPC   C1B 7425  10.044  12.704   5.131 -0.2815  0.0477 -0.0417
    1DIPC   D2B 7426   9.819  13.077   5.273  0.4327 -0.0295 -0.0694
    1DIPC   D3B 7427   9.531  13.168   5.072  0.2445  0.0254  0.2814
    1DIPC   C4B 7428   9.506  12.959   4.766  0.1295 -0.1003  0.1423
    1DIPC   NC3 7429  24.287  22.139   7.171 -0.2911  0.0669 -0.0121
    1DIPC   PO4 7430  24.244  21.839   6.840 -0.0089 -0.0044  0.0873
    1DIPC   GL1 7431  24.507  21.966   6.423 -0.0763  0.5050 -0.3488
    1DIPC   GL2 7432  24.453  21.805   6.093 -0.0388 -0.2557  0.0318
    1DIPC   C1A 7433  24.373  22.299   6.151  0.1012 -0.3456  0.0243
    1DIPC   D2A 7434  24.188  22.646   5.856 -0.1494  0.2840  0.4070
    1DIPC   D3A 7435  24.134  23.014   6.128 -0.1034  0.2280 -0.1799
    1DIPC   C4A 7436  24.473  23.175   6.344  0.1650 -0.2814  0.3973
    1DIPC   C1B 7437  24.119  21.554   5.994 -0.1163 -0.3507  0.0013
    1DIPC   D2B 7438  23.799  21.322   5.777  0.2833 -0.1414 -0.0778
    1DIPC   D3B 7439  24.006  21.192   5.421 -0.1713 -0.2291 -0.2136
    1DIPC   C4B 7440  24.211  21.491   5.046  0.0144  0.0556 -0.0880
    1DIPC   NC3 7441  25.142   5.458   7.372 -0.0987  0.0010 -0.0565
    1DIPC   PO4 7442  25.186   5.089   7.740 -0.0597 -0.2669 -0.1867
    1DIPC   GL1 7443  25.419   4.986   7.420 -0.2141  0.0466  0.4722
    1DIPC   GL2 7444  25.736   4.994   7.462 -0.1402 -0.1805 -0.0650
    1DIPC   C1A 7445  25.354   4.621   7.105  0.0984  0.1606 -0.2053
    1DIPC   D2A 7446  25.066   4.229   7.133 -0.0109  0.2011 -0.4606
    1DIPC   D3A 7447  25.432   4.095   7.142  0.2268  0.4479  0.2455
    1DIPC   C4A 7448  25.751   4.382   7.391 -0.3298 -0.1092  0.1979
    1DIPC   C1B 7449  25.720   4.955   7.012  0.3217 -0.1265 -0.0805
    1DIPC   D2B 7450  25.777   4.458   6.879  0.1177 -0.0181  0.0363
    1DIPC   D3B 7451  25.642   4.615   6.553  0.2435 -0.5422 -0.3413
    1DIPC   C4B 7452  25.392   4.988   6.515  0.1565  0.0774 -0.2368
    1DIPC   NC3 7453  17.178  19.966   6.331  0.3352 -0.0985  0.0462
    1DIPC   PO4 7454  17.170  19.548   6.228  0.0037 -0.0654  0.1500
    1DIPC   GL1 7455  17.311  19.288   5.917  0.1282 -0.0740 -0.0372
    1DIPC   GL2 7456  17.072  19.050   5.882 -0.0478 -0.2922 -0.1367
    1DIPC   C1A 7457  17.363  19.082   5.500  0.1840 -0.1469 -0.1420
    1DIPC   D2A 7458  17.520  18.788   5.191  0.0445 -0.1725  0.2865
    1DIPC   D3A 7459  17.621  18.623   5.592  0.0379 -0.0256 -0.0189
    1DIPC   C4A 7460  17.442  18.248   5.745  0.2175  0.2143  0.3867
    1DIPC   C1B 7461  16.746  19.390   5.790 -0.2466 -0.1742  0.0202
    1DIPC   D2B 7462  16.729  19.766   5.597  0.3889 -0.1909 -0.1605
    1DIPC   D3B 7463  16.911  19.990   5.293 -0.0732  0.0347  0.2415
    1DIPC   C4B 7464  17.313  20.107   5.394 -0.1059 -0.1552 -0.1039
    1DIPC   NC3 7465  14.556   9.907   5.711 -0.2406 -0.0786 -0.0459
    1DIPC   PO4 7466  14.898  10.119   5.754  0.1094 -0.1942  0.0806
    1DIPC   GL1 7467  14.876  10.076   5.377 -0.1898 -0.1369 -0.0204
    1DIPC   GL2 7468  15.230  10.033   5.278 -0.3027  0.0228  0.3073
    1DIPC   C1A 7469  14.544  10.045   5.072  0.1095 -0.1717  0.0729
    1DIPC   D2A 7470  14.366  10.175   4.796 -0.0147 -0.0300  0.0907
    1DIPC   D3A 7471  14.223  10.475   5.034 -0.0756  0.1293 -0.0294
    1DIPC   C4A 7472  13.863  10.733   4.979 -0.0516  0.2422 -0.0054
    1DIPC   C1B 7473  15.144  10.182   4.984 -0.3169 -0.1379  0.1114
    1DIPC   D2B 7474  14.878  10.237   4.735 -0.0696  0.0607 -0.0622
    1DIPC   D3B 7475  14.992  10.381   4.382 -0.0575 -0.0070 -0.0687
    1DIPC   C4B 7476  15.052  10.762   4.180  0.1542  0.0204 -0.0437
    1DIPC   NC3 7477  11.130  26.925   6.719  0.5773 -0.0402 -0.0618
    1DIPC   PO4 7478  11.271  27.230   6.926 -0.0794 -0.2063 -0.0561
    1DIPC   GL1 7479  11.135  27.416   6.511 -0.3718  0.0277  0.0069
    1DIPC   GL2 7480  11.070  27.160   6.294  0.4428  0.1669 -0.1837
    1DIPC   C1A 7481  10.988  27.731   6.310 -0.2618 -0.1994 -0.2142
    1DIPC   D2A 7482  10.586  27.698   6.028  0.0405 -0.0687  0.4269
    1DIPC   D3A 7483  10.539  27.879   5.621  0.1035  0.0923 -0.1396
    1DIPC   C4A 7484  10.218  27.651   5.475  0.1898  0.2053  0.1215
    1DIPC   C1B 7485  11.123  27.355   5.899 -0.2385  0.2215  0.2274
    1DIPC   D2B 7486  10.709  27.398   5.622 -0.0930  0.1737 -0.1542
    1DIPC   D3B 7487  10.909  27.246   5.331 -0.0835 -0.3437  0.0104
    1DIPC   C4B 7488  11.389  27.447   5.304  0.1112  0.2542 -0.1118
    1DIPC   NC3 7489   6.006  15.379   6.307 -0.0776  0.1353  0.0916
    1DIPC   PO4 7490   5.976  14.940   6.275 -0.0785  0.0220  0.0088
    1DIPC   GL1 7491   6.288  14.906   6.039  0.2950 -0.1271 -0.1921
    1DIPC   GL2 7492   6.463  15.180   6.003 -0.1246 -0.0926 -0.1641
    1DIPC   C1A 7493   6.507  14.779   5.667 -0.1004  0.0209  0.1083
    1DIPC   D2A 7494   6.836  14.629   5.513 -0.2158 -0.1377  0.1297
    1DIPC   D3A 7495   7.228  14.950   5.487 -0.3073 -0.2911  0.1679
    1DIPC   C4A 7496   7.299  15.151   5.053  0.0223 -0.0997 -0.0500
    1DIPC   C1B 7497   6.685  15.249   5.593 -0.1073 -0.2079  0.2989
    1DIPC   D2B 7498   6.839  15.067   5.237  0.2693 -0.0952 -0.0354
    1DIPC   D3B 7499   6.854  15.154   4.818  0.1032  0.0751 -0.0534
    1DIPC   C4B 7500   6.687  15.414   4.469  0.0138 -0.0725 -0.2750
    1DIPC   NC3 7501  12.234   0.660   6.802  0.0939  0.0603 -0.0493
    1DIPC   PO4 7502  12.012   0.857   6.595 -0.1117  0.0013  0.0884
    1DIPC   GL1 7503  12.032   0.953   6.231  0.2880  0.2186  0.0807
    1DIPC   GL2 7504  11.734   1.224   6.200 -0.1343 -0.1308  0.0060
    1DIPC   C1A 7505  12.169   0.939   5.833 -0.2214  0.2729  0.1366
    1DIPC   D2A 7506  12.467   0.964   5.575  0.1026  0.0878 -0.2274
    1DIPC   D3A 7507  12.251   0.927   5.252  0.3386  0.2385  0.1965
    1DIPC   C4A 7508  12.464   0.797   4.854  0.2846  0.3322  0.0489
    1DIPC   C1B 7509  11.696   1.112   5.773 -0.1729 -0.0064 -0.0370
    1DIPC   D2B 7510  11.825   0.806   5.493  0.1426  0.2026 -0.0482
    1DIPC   D3B 7511  11.727   0.848   5.022 -0.1829  0.1518  0.2087
    1DIPC   C4B 7512  11.776   1.084   4.547 -0.0840  0.0670  0.1683
    1DIPC   NC3 7513  15.481  20.442   6.615 -0.0750 -0.2811 -0.0029
    1DIPC   PO4 7514  15.172  20.705   6.428  0.1933 -0.1528  0.2722
    1DIPC   GL1 7515  15.382  20.662   6.011  0.0291 -0.2438  0.0792
    1DIPC   GL2 7516  15.451  20.366   5.804 -0.0145 -0.0022 -0.0673
    1DIPC   C1A 7517  15.356  20.853   5.593 -0.0077 -0.1061 -0.0521
    1DIPC   D2A 7518  15.018  21.167   5.529 -0.3696 -0.1701  0.0874
    1DIPC   D3A 7519  14.919  20.868   5.791 -0.0310  0.0186  0.0535
    1DIPC   C4A 7520  14.575  20.481   5.560  0.0606  0.0060 -0.3096
    1DIPC   C1B 7521  15.525  20.446   5.352 -0.3193  0.1988  0.0949
    1DIPC   D2B 7522  15.473  20.606   4.993 -0.0052 -0.1962  0.1321
    1DIPC   D3B 7523  15.064  20.465   4.872  0.0369 -0.0040 -0.1573
    1DIPC   C4B 7524  14.694  20.664   4.839  0.1333 -0.2571 -0.2907
    1DIPC   NC3 7525   1.103  26.607   7.693  0.2811 -0.2302 -0.0339
    1DIPC   PO4 7526   0.968  26.932   7.678 -0.2426  0.0265 -0.1323
    1DIPC   GL1 7527   0.904  26.829   7.263  0.1355 -0.2952  0.3655
    1DIPC   GL2 7528   0.821  26.569   7.229 -0.0428 -0.0256  0.3050
    1DIPC   C1A 7529   0.886  26.846   6.832 -0.1837  0.0746 -0.0226
    1DIPC   D2A 7530   1.046  27.160   6.439 -0.0922  0.1316 -0.0146
    1DIPC   D3A 7531   0.844  27.307   6.094 -0.0506  0.0986  0.2319
    1DIPC   C4A 7532   0.819  27.681   5.841  0.1586  0.1735 -0.3255
    1DIPC   C1B 7533   1.085  26.278   6.993 -0.0394  0.3047 -0.0757
    1DIPC   D2B 7534   0.734  26.039   6.842  0.2532  0.2533 -0.0823
    1DIPC   D3B 7535   0.761  25.813   6.568  0.1292 -0.1204  0.0139
    1DIPC   C4B 7536   0.659  26.107   6.283  0.0821  0.0637 -0.4420
    1DIPC   NC3 7537  24.904  19.840   7.269 -0.4375 -0.1175 -0.1179
    1DIPC   PO4 7538  24.676  19.686   7.010  0.1069 -0.1710 -0.1420
    1DIPC   GL1 7539  24.802  19.668   6.641  0.0078 -0.0885  0.1827
    1DIPC   GL2 7540  24.560  19.461   6.587  0.5135  0.0548 -0.1258
    1DIPC   C1A 7541  25.149  19.675   6.275 -0.0600  0.2659 -0.1056
    1DIPC   D2A 7542  25.176  19.832   5.853 -0.0938  0.1838  0.0034
    1DIPC   D3A 7543  24.984  20.135   5.577 -0.0766 -0.1697 -0.0902
    1DIPC   C4A 7544  24.918  20.027   5.164 -0.0670  0.0126 -0.0531
    1DIPC   C1B 7545  24.742  19.391   6.240  0.0403  0.0581 -0.0444
    1DIPC   D2B 7546  24.762  19.446   5.809  0.1112  0.0017 -0.2067
    1DIPC   D3B 7547  24.477  19.067   5.727 -0.4077 -0.4050 -0.0637
    1DIPC   C4B 7548  23.927  19.012   5.846 -0.1086  0.3440  0.2125
    1DIPC   NC3 7549  25.484  16.706   7.352  0.2700 -0.0016  0.0658
    1DIPC   PO4 7550  25.636  17.164   7.253 -0.0382  0.0735 -0.2734
    1DIPC   GL1 7551  25.490  17.331   6.909  0.2277 -0.2660 -0.1003
    1DIPC   GL2 7552  25.243  17.365   6.722 -0.0082  0.2651 -0.1031
    1DIPC   C1A 7553  25.796  17.292   6.585  0.1042  0.3625 -0.1301
    1DIPC   D2A 7554  26.034  17.603   6.291  0.0263  0.1334  0.1802
    1DIPC   D3A 7555  25.605  17.550   6.046 -0.1863  0.2700  0.1259
    1DIPC   C4A 7556  25.208  17.742   6.159  0.1851  0.0435 -0.0076
    1DIPC   C1B 7557  25.519  17.675   6.571 -0.1110  0.0082 -0.1803
    1DIPC   D2B 7558  25.704  17.995   6.562  0.1270  0.0170  0.4617
    1DIPC   D3B 7559  25.534  18.066   6.136 -0.0776 -0.1472  0.0631
    1DIPC   C4B 7560  25.666  18.207   5.745  0.0835 -0.1433 -0.1668
    1DIPC   NC3 7561  27.859   5.874   8.237  0.3794 -0.0382 -0.1230
    1DIPC   PO4 7562  27.864   6.275   8.198 -0.0092  0.1579 -0.2934
    1DIPC   GL1 7563  27.663   6.059   7.848  0.0169 -0.1716  0.2112
    1DIPC   GL2 7564  27.466   6.256   7.567  0.1417  0.0242 -0.1323
    1DIPC   C1A 7565  27.893   5.851   7.543  0.2674  0.2450  0.1430
    1DIPC   D2A 7566  27.728   5.749   7.146 -0.1812  0.0325  0.4070
    1DIPC   D3A 7567  27.605   6.177   7.040 -0.3694  0.0876  0.3977
    1DIPC   C4A 7568  27.322   6.321   6.741 -0.1411  0.0675 -0.0786
    1DIPC   C1B 7569  27.867   6.346   7.454 -0.0478  0.3134  0.0085
    1DIPC   D2B 7570  28.247   6.101   7.302  0.1418 -0.1096 -0.3454
    1DIPC   D3B 7571  28.501   6.287   7.059 -0.0973 -0.0398  0.0929
    1DIPC   C4B 7572  28.499   6.703   7.184  0.0485 -0.2216  0.3321
    1DIPC   NC3 7573  24.999   4.224   7.596  0.2420  0.0730 -0.2841
    1DIPC   PO4 7574  25.265   3.745   7.574  0.0500 -0.2246  0.1609
    1DIPC   GL1 7575  25.261   3.566   7.109 -0.0624 -0.3255 -0.0473
    1DIPC   GL2 7576  25.498   3.324   7.113  0.1696  0.2323 -0.3088
    1DIPC   C1A 7577  25.293   3.703   6.658  0.1016 -0.3532  0.0342
    1DIPC   D2A 7578  25.290   3.902   6.281 -0.2725  0.2158 -0.4434
    1DIPC   D3A 7579  25.251   3.726   5.834  0.2200 -0.2381 -0.2606
    1DIPC   C4A 7580  25.114   3.439   5.555  0.1916 -0.1970  0.0892
    1DIPC   C1B 7581  25.645   3.279   6.691 -0.1490 -0.0966 -0.0168
    1DIPC   D2B 7582  25.752   3.191   6.238 -0.0141  0.1174  0.1239
    1DIPC   D3B 7583  25.657   3.535   6.089 -0.0671 -0.2282  0.2854
    1DIPC   C4B 7584  25.979   3.757   5.963 -0.1373 -0.2891 -0.4002
    1DIPC   NC3 7585  15.423   0.527   6.440 -0.0277  0.2262  0.3373
    1DIPC   PO4 7586  15.809   0.663   6.207  0.4217 -0.0147 -0.5400
    1DIPC   GL1 7587  16.059   0.718   5.865 -0.0141 -0.0448  0.0653
    1DIPC   GL2 7588  15.878   0.712   5.662 -0.1182  0.0344 -0.0729
    1DIPC   C1A 7589  16.306   0.477   5.619  0.0683  0.0171  0.1379
    1DIPC   D2A 7590  16.642   0.250   5.740  0.2405 -0.0242  0.1605
    1DIPC   D3A 7591  16.834   0.200   5.444  0.0636 -0.1777 -0.0421
    1DIPC   C4A 7592  16.498   0.334   5.169  0.0236 -0.4397 -0.0542
    1DIPC   C1B 7593  15.758   0.827   5.188  0.2066  0.1566  0.0709
    1DIPC   D2B 7594  15.954   1.044   4.921  0.1921 -0.1911 -0.0854
    1DIPC   D3B 7595  15.706   1.373   4.771  0.2466  0.0673 -0.0415
    1DIPC   C4B 7596  15.362   1.343   4.636 -0.1372 -0.2189  0.0752
    1DIPC   NC3 7597  22.855  13.067   7.251  0.0533 -0.2134  0.1626
    1DIPC   PO4 7598  22.968  13.433   6.952 -0.0061 -0.0066  0.1107
    1DIPC   GL1 7599  22.921  13.376   6.527 -0.1433 -0.0013  0.3192
    1DIPC   GL2 7600  23.175  13.279   6.342 -0.1900 -0.0658  0.0005
    1DIPC   C1A 7601  22.665  13.669   6.250  0.0831 -0.2338 -0.1542
    1DIPC   D2A 7602  22.433  14.092   6.319 -0.2029  0.0393 -0.0823
    1DIPC   D3A 7603  22.606  14.041   5.909  0.1185 -0.1563  0.1746
    1DIPC   C4A 7604  22.980  13.816   5.765 -0.1312  0.0365 -0.1535
    1DIPC   C1B 7605  23.246  12.967   6.039  0.2713  0.0844 -0.0338
    1DIPC   D2B 7606  23.338  12.766   5.735 -0.0547 -0.6031  0.2559
    1DIPC   D3B 7607  23.175  12.966   5.482  0.1120  0.0223  0.1225
    1DIPC   C4B 7608  22.874  12.874   5.468  0.1218  0.1067  0.0105
    1DIPC   NC3 7609  10.937  21.565   7.289 -0.1228 -0.1714 -0.0360
    1DIPC   PO4 7610  11.003  21.948   7.182  0.0906  0.3330  0.0852
    1DIPC   GL1 7611  10.931  21.755   6.781  0.1440 -0.0207 -0.1010
    1DIPC   GL2 7612  11.294  21.704   6.727 -0.2073 -0.0088  0.1744
    1DIPC   C1A 7613  10.854  21.780   6.420 -0.2718  0.0570  0.3933
    1DIPC   D2A 7614  10.699  21.659   6.040  0.0136 -0.3709  0.0414
    1DIPC   D3A 7615  10.771  21.526   5.695  0.3124  0.3051  0.0925
    1DIPC   C4A 7616  10.537  21.228   5.545 -0.2674  0.0471  0.0054
    1DIPC   C1B 7617  11.515  21.947   6.401  0.4292 -0.0453  0.2921
    1DIPC   D2B 7618  11.757  21.599   6.139 -0.0741 -0.0598  0.1930
    1DIPC   D3B 7619  11.446  21.307   6.217 -0.0346 -0.1538 -0.0008
    1DIPC   C4B 7620  11.418  20.934   6.086  0.2761  0.3857  0.1317
    1DIPC   NC3 7621  20.628  23.506   7.241  0.1225 -0.0986 -0.0063
    1DIPC   PO4 7622  20.657  23.255   7.002  0.1719  0.1062  0.3792
    1DIPC   GL1 7623  20.666  23.279   6.530 -0.0635 -0.0587  0.2245
    1DIPC   GL2 7624  20.390  23.254   6.334 -0.1389  0.0279 -0.2134
    1DIPC   C1A 7625  20.833  23.065   6.308 -0.2634  0.1899 -0.2249
    1DIPC   D2A 7626  21.082  22.657   6.233  0.1037 -0.1300  0.1679
    1DIPC   D3A 7627  21.123  23.011   5.880  0.4069  0.1775 -0.2227
    1DIPC   C4A 7628  21.370  23.312   5.837 -0.1641 -0.0745  0.1301
    1DIPC   C1B 7629  20.426  23.181   5.980  0.0237 -0.4435 -0.0991
    1DIPC   D2B 7630  19.934  23.155   5.651  0.2912  0.0763 -0.0610
    1DIPC   D3B 7631  20.327  23.087   5.498  0.0537  0.3414  0.2252
    1DIPC   C4B 7632  20.651  23.350   5.161 -0.0706 -0.1859 -0.0832
    1DIPC   NC3 7633   0.548  19.139   7.776 -0.4307 -0.0273  0.1882
    1DIPC   PO4 7634   0.906  19.161   7.582  0.2337 -0.0312  0.0895
    1DIPC   GL1 7635   1.056  19.196   7.167 -0.0892 -0.1050 -0.1374
    1DIPC   GL2 7636   0.951  18.917   7.024  0.2148 -0.1453  0.0896
    1DIPC   C1A 7637   1.063  19.421   6.688  0.0356 -0.2597 -0.2377
    1DIPC   D2A 7638   0.987  19.391   6.187 -0.4000 -0.0229  0.1153
    1DIPC   D3A 7639   1.125  19.416   5.759  0.1184 -0.0620  0.1824
    1DIPC   C4A 7640   1.454  19.252   5.515 -0.0035  0.1071 -0.2155
    1DIPC   C1B 7641   1.278  19.011   6.701  0.0734  0.0984  0.0766
    1DIPC   D2B 7642   1.389  19.180   6.292  0.2104 -0.4551 -0.0057
    1DIPC   D3B 7643   1.711  18.859   6.086  0.2260 -0.2929 -0.0417
    1DIPC   C4B 7644   1.670  18.434   5.896  0.0894 -0.1948 -0.2430
    1DIPC   NC3 7645  15.425   6.665   5.257 -0.1473 -0.0712  0.1083
    1DIPC   PO4 7646  15.682   7.069   5.221  0.1520  0.2376 -0.1170
    1DIPC   GL1 7647  15.564   6.984   4.893 -0.2352  0.2523 -0.0086
    1DIPC   GL2 7648  15.349   6.731   4.722  0.0944 -0.0005  0.2663
    1DIPC   C1A 7649  15.548   7.094   4.407  0.0907  0.2911  0.2582
    1DIPC   D2A 7650  15.575   7.006   3.935 -0.1401 -0.1303  0.2115
    1DIPC   D3A 7651  15.749   7.126   3.550 -0.1599 -0.3500  0.0633
    1DIPC   C4A 7652  15.961   6.856   3.317 -0.1480  0.1378 -0.1012
    1DIPC   C1B 7653  15.594   6.510   4.592 -0.1422  0.1187 -0.0191
    1DIPC   D2B 7654  15.887   6.725   4.420  0.0829  0.1216  0.3881
    1DIPC   D3B 7655  15.836   6.459   4.120 -0.0232 -0.3417  0.0412
    1DIPC   C4B 7656  15.816   6.590   3.728  0.0368 -0.2228  0.2097
    1DIPC   NC3 7657  19.568  10.979   6.258  0.2285  0.1244 -0.1493
    1DIPC   PO4 7658  19.216  10.813   6.026 -0.2669 -0.0869  0.0630
    1DIPC   GL1 7659  19.220  10.732   5.632 -0.1415  0.1057  0.2782
    1DIPC   GL2 7660  19.087  10.451   5.476  0.0538 -0.1719 -0.0045
    1DIPC   C1A 7661  19.672  10.745   5.343  0.2359 -0.4401  0.3419
    1DIPC   D2A 7662  20.104  10.750   5.158 -0.0254 -0.0139  0.1884
    1DIPC   D3A 7663  20.286  11.223   5.064 -0.4597  0.0477  0.0044
    1DIPC   C4A 7664  20.516  11.331   4.705 -0.1289 -0.2274  0.1110
    1DIPC   C1B 7665  19.283  10.476   5.091  0.0843  0.1684 -0.0112
    1DIPC   D2B 7666  19.535  10.663   4.805  0.0790  0.0251 -0.0670
    1DIPC   D3B 7667  19.221  10.907   4.592  0.0250  0.2237  0.0372
    1DIPC   C4B 7668  19.165  10.943   4.141 -0.0134  0.4426 -0.1739
    1DIPC   NC3 7669  17.421  22.684   6.788  0.2904 -0.0754 -0.0162
    1DIPC   PO4 7670  17.076  22.446   6.485 -0.1348  0.0742  0.1189
    1DIPC   GL1 7671  16.668  22.497   6.353  0.3244 -0.1014  0.0872
    1DIPC   GL2 7672  16.752  22.838   6.233  0.2622 -0.0884 -0.1078
    1DIPC   C1A 7673  16.467  22.320   5.962  0.1258  0.2289 -0.0848
    1DIPC   D2A 7674  16.477  22.469   5.599 -0.2359 -0.1229 -0.0594
    1DIPC   D3A 7675  16.894  22.484   5.858 -0.0535  0.1053  0.0319
    1DIPC   C4A 7676  17.304  22.502   5.652  0.0692 -0.0795  0.2442
    1DIPC   C1B 7677  16.250  22.723   6.086 -0.0883 -0.0908 -0.2421
    1DIPC   D2B 7678  15.943  22.577   5.737  0.0346  0.5317 -0.0824
    1DIPC   D3B 7679  15.854  22.868   5.430  0.0046 -0.2729 -0.0404
    1DIPC   C4B 7680  16.114  23.177   5.410  0.0687  0.4815  0.0653
    1DIPC   NC3 7681   6.345  21.173   7.344 -0.3035  0.3989  0.0132
    1DIPC   PO4 7682   6.642  21.083   6.975 -0.0708  0.3157  0.2292
    1DIPC   GL1 7683   6.720  21.054   6.528  0.1432 -0.0054 -0.3445
    1DIPC   GL2 7684   6.820  20.712   6.408  0.0027  0.0580 -0.0155
    1DIPC   C1A 7685   6.685  21.381   6.240  0.1667 -0.1481  0.0474
    1DIPC   D2A 7686   6.593  21.691   5.967 -0.2191 -0.0903 -0.3352
    1DIPC   D3A 7687   6.483  21.221   5.807  0.4300  0.1167  0.1528
    1DIPC   C4A 7688   6.316  21.209   5.396 -0.2442 -0.0740  0.0314
    1DIPC   C1B 7689   6.617  20.798   6.087  0.1892  0.0076  0.1148
    1DIPC   D2B 7690   6.527  20.794   5.584 -0.0106  0.1556 -0.0194
    1DIPC   D3B 7691   6.145  20.615   5.362  0.3483 -0.0764 -0.2389
    1DIPC   C4B 7692   5.942  20.891   5.074 -0.1997  0.1545 -0.0942
    1DIPC   NC3 7693  14.554  25.661   6.457  0.0109 -0.1796  0.0826
    1DIPC   PO4 7694  14.164  25.713   6.389 -0.2662 -0.0275 -0.1902
    1DIPC   GL1 7695  13.858  25.983   6.114 -0.1669 -0.0287 -0.1187
    1DIPC   GL2 7696  14.021  26.281   6.033 -0.0784  0.2396 -0.1586
    1DIPC   C1A 7697  13.565  25.911   5.773 -0.1451  0.3207 -0.0470
    1DIPC   D2A 7698  13.396  25.607   5.510  0.2633 -0.1453 -0.1772
    1DIPC   D3A 7699  13.606  25.274   5.383 -0.0102 -0.0611  0.1272
    1DIPC   C4A 7700  13.810  25.244   4.898 -0.0039 -0.1849 -0.3366
    1DIPC   C1B 7701  14.448  26.245   5.868  0.0258 -0.0464 -0.0465
    1DIPC   D2B 7702  14.531  26.136   5.447  0.0829  0.1206  0.0145
    1DIPC   D3B 7703  14.727  25.809   5.129  0.0841 -0.0515  0.1057
    1DIPC   C4B 7704  15.046  25.518   5.190  0.2785 -0.0477  0.0602
    1DIPC   NC3 7705  21.645  21.373   7.588  0.0266 -0.1494  0.0276
    1DIPC   PO4 7706  21.575  21.413   7.122 -0.2727  0.0420  0.0472
    1DIPC   GL1 7707  21.605  21.449   6.637 -0.0742  0.2673 -0.1854
    1DIPC   GL2 7708  21.360  21.443   6.381  0.1078  0.2133 -0.0642
    1DIPC   C1A 7709  21.799  21.053   6.444 -0.1115 -0.0825  0.2097
    1DIPC   D2A 7710  21.772  20.670   6.165 -0.2242 -0.0056  0.0366
    1DIPC   D3A 7711  21.451  20.408   5.955  0.1315  0.0031  0.0539
    1DIPC   C4A 7712  21.317  20.573   5.606 -0.2454  0.4158  0.0964
    1DIPC   C1B 7713  21.226  21.408   5.959 -0.1597 -0.0452 -0.0752
    1DIPC   D2B 7714  21.089  21.637   5.643  0.0038  0.1279 -0.0535
    1DIPC   D3B 7715  21.144  21.365   5.378 -0.1271  0.0174 -0.2530
    1DIPC   C4B 7716  21.437  21.076   5.422  0.0193 -0.0851  0.2607
    1DIPC   NC3 7717  20.392  18.026   6.267 -0.0213 -0.1187  0.1521
    1DIPC   PO4 7718  20.284  17.565   6.152 -0.0110 -0.0446 -0.0556
    1DIPC   GL1 7719  20.508  17.309   5.953 -0.3515 -0.1009  0.0802
    1DIPC   GL2 7720  20.454  16.992   5.882  0.2791 -0.1737  0.3412
    1DIPC   C1A 7721  20.851  17.441   5.627  0.2774 -0.3663  0.1199
    1DIPC   D2A 7722  21.223  17.391   5.474 -0.1101 -0.1291 -0.1108
    1DIPC   D3A 7723  21.279  17.326   5.097  0.1502 -0.1125 -0.2693
    1DIPC   C4A 7724  21.412  17.535   4.856 -0.1879 -0.1553 -0.1457
    1DIPC   C1B 7725  20.632  17.042   5.438  0.3686  0.0975 -0.0660
    1DIPC   D2B 7726  20.706  17.395   5.148  0.0709 -0.1524  0.1146
    1DIPC   D3B 7727  20.633  17.378   4.770  0.3210 -0.0080 -0.3933
    1DIPC   C4B 7728  20.308  17.226   4.659  0.2290 -0.0893  0.1586
    1DIPC   NC3 7729  11.871  24.290   7.269  0.0751 -0.1360 -0.1202
    1DIPC   PO4 7730  12.062  24.662   7.101 -0.0488 -0.1471  0.1355
    1DIPC   GL1 7731  12.102  24.648   6.707 -0.0497  0.0542  0.2627
    1DIPC   GL2 7732  11.894  24.890   6.583  0.1159 -0.0398  0.0940
    1DIPC   C1A 7733  12.072  24.360   6.361  0.3474  0.0435 -0.3910
    1DIPC   D2A 7734  11.938  23.928   6.200 -0.2236 -0.1852 -0.1810
    1DIPC   D3A 7735  11.878  23.905   5.697  0.2315  0.2236 -0.0773
    1DIPC   C4A 7736  12.197  24.042   5.416  0.2397 -0.0153  0.1794
    1DIPC   C1B 7737  11.792  25.251   6.319 -0.0710  0.1449  0.1261
    1DIPC   D2B 7738  12.061  25.229   5.989 -0.2141 -0.1977 -0.0023
    1DIPC   D3B 7739  12.338  25.362   5.733  0.0130  0.0390 -0.0206
    1DIPC   C4B 7740  12.466  25.034   5.460 -0.1490 -0.2084  0.0760
    1DIPC   NC3 7741   3.653  26.473   8.011 -0.0008  0.2124 -0.0488
    1DIPC   PO4 7742   3.296  26.734   7.858  0.0333 -0.1582  0.2158
    1DIPC   GL1 7743   3.456  27.012   7.575  0.0061 -0.0783 -0.1473
    1DIPC   GL2 7744   3.489  27.392   7.458 -0.1557 -0.1771 -0.1223
    1DIPC   C1A 7745   3.755  26.898   7.214 -0.2769 -0.2130 -0.1059
    1DIPC   D2A 7746   3.875  26.614   6.935 -0.1018  0.1111 -0.0079
    1DIPC   D3A 7747   4.342  26.719   7.098 -0.2073  0.2385 -0.0748
    1DIPC   C4A 7748   4.684  27.045   7.005 -0.1221  0.0140 -0.2297
    1DIPC   C1B 7749   3.690  27.466   7.162  0.0189  0.1573 -0.0468
    1DIPC   D2B 7750   3.757  27.499   6.750 -0.1006 -0.1210 -0.2628
    1DIPC   D3B 7751   3.927  27.228   6.396  0.0747 -0.1625 -0.2878
    1DIPC   C4B 7752   4.326  27.264   6.173 -0.0686  0.1600  0.0957
    1DIPC   NC3 7753   2.206  10.371   7.524 -0.3265 -0.1920  0.0144
    1DIPC   PO4 7754   2.331   9.933   7.446  0.1385 -0.0963  0.1247
    1DIPC   GL1 7755   2.337   9.972   6.961  0.0213  0.0386 -0.4892
    1DIPC   GL2 7756   2.548   9.651   7.006  0.2431  0.3733  0.0854
    1DIPC   C1A 7757   2.705  10.085   6.681  0.0036 -0.2649 -0.0589
    1DIPC   D2A 7758   3.108  10.023   6.469  0.0247 -0.1308 -0.0518
    1DIPC   D3A 7759   3.059  10.150   6.102 -0.1422 -0.0158  0.2357
    1DIPC   C4A 7760   2.758  10.272   5.734 -0.2746 -0.0571  0.2569
    1DIPC   C1B 7761   2.400   9.692   6.557  0.4803 -0.3003  0.0309
    1DIPC   D2B 7762   2.238  10.002   6.493 -0.2578 -0.0904  0.0628
    1DIPC   D3B 7763   2.072   9.945   6.163  0.0383  0.0920  0.0203
    1DIPC   C4B 7764   2.091  10.345   5.850 -0.0236  0.0336 -0.4948
    1DIPC   NC3 7765  14.803  19.867   6.832  0.1046  0.0202  0.2323
    1DIPC   PO4 7766  15.122  19.742   6.561 -0.3201 -0.1762 -0.2262
    1DIPC   GL1 7767  14.840  19.840   6.333 -0.1034  0.2636 -0.1567
    1DIPC   GL2 7768  14.641  20.047   6.370 -0.4059  0.0224  0.0352
    1DIPC   C1A 7769  14.717  19.994   5.886  0.0002 -0.1362 -0.1778
    1DIPC   D2A 7770  14.885  19.755   5.442  0.1402  0.1097  0.0062
    1DIPC   D3A 7771  15.014  20.251   5.577 -0.0846 -0.0738 -0.0898
    1DIPC   C4A 7772  15.024  20.637   5.310  0.2139 -0.1337 -0.1222
    1DIPC   C1B 7773  14.266  19.867   6.127  0.0016  0.0666  0.1821
    1DIPC   D2B 7774  13.947  19.912   5.963  0.1957 -0.0323  0.2836
    1DIPC   D3B 7775  14.024  19.462   5.888  0.0234  0.0492  0.2241
    1DIPC   C4B 7776  13.744  19.159   5.890  0.0725 -0.0567  0.1602
    1DIPC   NC3 7777  20.666  14.335   6.180 -0.0153 -0.0449 -0.0424
    1DIPC   PO4 7778  20.407  13.934   6.357  0.0441 -0.0523  0.2471
    1DIPC   GL1 7779  20.433  13.835   5.882 -0.1183  0.1541  0.0753
    1DIPC   GL2 7780  20.784  13.891   5.695 -0.0166 -0.1099  0.2117
    1DIPC   C1A 7781  20.431  13.600   5.426  0.1122 -0.0438 -0.0977
    1DIPC   D2A 7782  20.162  13.665   5.047  0.1291 -0.1133  0.3128
    1DIPC   D3A 7783  20.446  13.912   4.980 -0.0630  0.0317 -0.0182
    1DIPC   C4A 7784  20.541  14.081   4.623  0.3440 -0.2683 -0.1826
    1DIPC   C1B 7785  21.190  13.789   5.678 -0.1133  0.4233  0.0378
    1DIPC   D2B 7786  21.358  13.424   5.804  0.1493 -0.0858  0.0423
    1DIPC   D3B 7787  21.401  13.295   5.344  0.0257 -0.0810 -0.0559
    1DIPC   C4B 7788  21.072  13.094   5.033 -0.1417 -0.2739 -0.2432
    1DIPC   NC3 7789   6.715   6.758   6.822  0.0013 -0.0125 -0.0605
    1DIPC   PO4 7790   6.944   6.452   6.950 -0.0590 -0.2735 -0.2637
    1DIPC   GL1 7791   6.911   6.256   6.586  0.2085  0.1993 -0.1332
    1DIPC   GL2 7792   6.763   6.412   6.436 -0.0627 -0.1131 -0.2684
    1DIPC   C1A 7793   6.958   5.800   6.419 -0.0200  0.0652 -0.0931
    1DIPC   D2A 7794   6.621   5.498   6.242 -0.0399  0.1009  0.4115
    1DIPC   D3A 7795   6.248   5.355   6.370  0.1956 -0.0779  0.0586
    1DIPC   C4A 7796   6.039   5.450   6.761 -0.0062  0.1812 -0.1988
    1DIPC   C1B 7797   6.941   6.169   6.104  0.0097  0.1334  0.3288
    1DIPC   D2B 7798   6.870   5.867   5.835 -0.1810  0.0744 -0.2177
    1DIPC   D3B 7799   6.723   5.421   5.750 -0.1633  0.1178 -0.0991
    1DIPC   C4B 7800   6.485   5.232   5.367 -0.1577  0.0813 -0.1713
    1DIPC   NC3 7801  27.786  11.887   7.000  0.0498  0.1427  0.3092
    1DIPC   PO4 7802  28.152  12.127   7.046 -0.2143 -0.1276  0.0334
    1DIPC   GL1 7803  28.028  12.077   6.561  0.1673  0.1125 -0.3330
    1DIPC   GL2 7804  28.088  12.276   6.309 -0.0099  0.1528 -0.0537
    1DIPC   C1A 7805  27.844  11.914   6.143 -0.2577  0.0525 -0.2763
    1DIPC   D2A 7806  27.648  12.070   5.698  0.1952  0.1387  0.0931
    1DIPC   D3A 7807  27.987  11.938   5.433 -0.1491 -0.4417  0.0778
    1DIPC   C4A 7808  28.427  11.728   5.445  0.0275  0.2123 -0.1390
    1DIPC   C1B 7809  28.141  12.264   5.901  0.1718  0.2374 -0.1860
    1DIPC   D2B 7810  28.351  12.258   5.495 -0.0449 -0.0474  0.1167
    1DIPC   D3B 7811  28.093  12.375   5.170 -0.1070  0.0837  0.0880
    1DIPC   C4B 7812  27.607  12.395   5.323 -0.0312  0.0581  0.0527
    1DIPC   NC3 7813   5.501  25.245   7.234 -0.2290 -0.3299  0.0217
    1DIPC   PO4 7814   5.885  25.281   7.278 -0.0544 -0.0165  0.2037
    1DIPC   GL1 7815   6.004  25.357   7.033  0.0228 -0.1815 -0.2375
    1DIPC   GL2 7816   5.729  25.569   6.915  0.2856  0.1946  0.4505
    1DIPC   C1A 7817   6.131  25.496   6.611  0.0587  0.2000 -0.2285
    1DIPC   D2A 7818   6.033  25.560   6.120 -0.1069  0.1157 -0.2692
    1DIPC   D3A 7819   6.023  25.330   5.666 -0.3793  0.4014  0.1741
    1DIPC   C4A 7820   6.366  25.121   5.576  0.0035 -0.2436 -0.0108
    1DIPC   C1B 7821   5.555  25.531   6.399 -0.0791  0.0422  0.1190
    1DIPC   D2B 7822   5.601  25.496   5.886 -0.0971  0.0368  0.0391
    1DIPC   D3B 7823   5.159  25.441   5.884  0.3638 -0.1646  0.0594
    1DIPC   C4B 7824   4.882  25.560   5.516  0.2700  0.0734 -0.1010
    1DIPC   NC3 7825   2.293  15.521   7.474  0.0536  0.1614  0.2201
    1DIPC   PO4 7826   2.329  15.952   7.444 -0.0631 -0.0313  0.1363
    1DIPC   GL1 7827   2.140  15.860   7.076  0.1893  0.0540  0.1031
    1DIPC   GL2 7828   1.795  15.728   7.111  0.1006 -0.1996  0.1362
    1DIPC   C1A 7829   2.083  15.971   6.651 -0.0523  0.0850 -0.2225
    1DIPC   D2A 7830   2.390  15.895   6.385  0.0427 -0.4404 -0.0457
    1DIPC   D3A 7831   2.787  16.160   6.408  0.0993 -0.1470 -0.3316
    1DIPC   C4A 7832   3.052  16.306   6.070  0.1864  0.1047 -0.1768
    1DIPC   C1B 7833   1.356  15.539   7.006  0.0619  0.2145 -0.0042
    1DIPC   D2B 7834   0.905  15.585   6.998 -0.2927 -0.1542  0.1409
    1DIPC   D3B 7835   0.876  15.906   6.647  0.0752 -0.0727 -0.0373
    1DIPC   C4B 7836   0.591  15.873   6.276  0.3671 -0.1479 -0.2684
    1DIPC   NC3 7837  28.401  19.820   8.022  0.2605 -0.0353  0.1836
    1DIPC   PO4 7838  28.259  20.214   7.962 -0.0272  0.3814  0.1962
    1DIPC   GL1 7839  28.337  20.007   7.486 -0.0116 -0.0922 -0.2160
    1DIPC   GL2 7840  28.396  20.157   7.118  0.2580 -0.2964 -0.0426
    1DIPC   C1A 7841  28.519  19.702   7.132 -0.0296 -0.1042 -0.3024
    1DIPC   D2A 7842  28.440  19.445   6.794 -0.1887 -0.0035 -0.1265
    1DIPC   D3A 7843  28.388  19.051   6.882 -0.1607 -0.1729 -0.0831
    1DIPC   C4A 7844  28.026  18.847   6.903  0.1508  0.1881  0.0964
    1DIPC   C1B 7845  28.686  19.943   6.754 -0.3736  0.3531  0.0188
    1DIPC   D2B 7846  28.794  19.719   6.482 -0.0415 -0.1305 -0.0185
    1DIPC   D3B 7847  28.474  19.562   6.297  0.3781 -0.2621 -0.1235
    1DIPC   C4B 7848  28.184  19.734   6.330  0.2137 -0.1520  0.3087
    1DIPC   NC3 7849   7.371   6.374   6.603 -0.3277  0.0440 -0.1466
    1DIPC   PO4 7850   7.320   6.793   6.813  0.0833 -0.2813  0.1719
    1DIPC   GL1 7851   7.087   6.804   6.416 -0.1699  0.3538  0.2394
    1DIPC   GL2 7852   7.183   7.078   6.278 -0.2078 -0.0312  0.1291
    1DIPC   C1A 7853   6.956   6.715   6.024  0.0752  0.2499  0.1495
    1DIPC   D2A 7854   6.809   6.645   5.696 -0.2432  0.2174 -0.0522
    1DIPC   D3A 7855   6.675   6.194   5.532 -0.2549  0.0679 -0.2684
    1DIPC   C4A 7856   6.395   5.925   5.645 -0.2594 -0.0288 -0.2422
    1DIPC   C1B 7857   7.528   6.915   6.006 -0.3656 -0.2647 -0.3245
    1DIPC   D2B 7858   7.707   7.042   5.571  0.0112 -0.0336 -0.1327
    1DIPC   D3B 7859   7.611   6.652   5.380  0.0141 -0.3594 -0.1976
    1DIPC   C4B 7860   7.752   6.781   4.985 -0.2572  0.1867  0.2422
    1DIPC   NC3 7861  28.305  14.094   7.139 -0.0431  0.1001  0.1129
    1DIPC   PO4 7862  28.717  13.813   7.159 -0.0695  0.0829  0.0671
    1DIPC   GL1 7863  28.510  13.798   6.739  0.0383 -0.1039 -0.1136
    1DIPC   GL2 7864  28.616  14.083   6.592 -0.1493 -0.0130 -0.0233
    1DIPC   C1A 7865  28.250  13.785   6.373  0.4640  0.0028  0.1586
    1DIPC   D2A 7866  28.165  13.579   5.995 -0.0278 -0.0815  0.1848
    1DIPC   D3A 7867  28.287  13.779   5.579 -0.1034 -0.0762 -0.1831
    1DIPC   C4A 7868  28.572  14.117   5.459 -0.0960  0.3294 -0.1531
    1DIPC   C1B 7869  28.772  14.429   6.221 -0.0721  0.1382  0.2377
    1DIPC   D2B 7870  28.862  14.459   5.783 -0.1192  0.0208  0.0469
    1DIPC   D3B 7871  29.146  14.744   5.538  0.2373 -0.0798  0.2123
    1DIPC   C4B 7872  29.453  14.889   5.641  0.3469 -0.0819 -0.1930
    1DIPC   NC3 7873   2.648  24.890   7.721 -0.0229  0.4179 -0.2131
    1DIPC   PO4 7874   2.462  24.761   7.377  0.1161 -0.0816  0.3122
    1DIPC   GL1 7875   2.429  24.528   6.998 -0.1671  0.0432  0.3083
    1DIPC   GL2 7876   2.161  24.381   6.933 -0.0289  0.2648 -0.1491
    1DIPC   C1A 7877   2.355  24.614   6.554 -0.2317 -0.1560  0.0595
    1DIPC   D2A 7878   2.262  24.396   6.138  0.0597  0.1829 -0.1596
    1DIPC   D3A 7879   2.356  24.281   5.659  0.1557 -0.2004  0.1352
    1DIPC   C4A 7880   2.618  23.905   5.611 -0.3429 -0.1264  0.3494
    1DIPC   C1B 7881   1.968  24.212   6.533  0.0610  0.1468 -0.2775
    1DIPC   D2B 7882   1.773  24.067   6.154 -0.0280 -0.0997  0.1592
    1DIPC   D3B 7883   1.418  24.305   6.262  0.0599  0.2310  0.2831
    1DIPC   C4B 7884   1.059  24.271   5.909  0.0375  0.0241 -0.0865
    1DIPC   NC3 7885   4.819  24.490   7.407 -0.1764  0.3587 -0.2026
    1DIPC   PO4 7886   4.471  24.103   7.398 -0.0024 -0.2362 -0.0520
    1DIPC   GL1 7887   4.698  24.281   7.017 -0.0293  0.0166 -0.0958
    1DIPC   GL2 7888   4.485  24.394   6.833 -0.0120 -0.2739  0.0987
    1DIPC   C1A 7889   5.073  24.246   6.767 -0.1888  0.3098  0.0962
    1DIPC   D2A 7890   5.289  23.798   6.570  0.5539  0.0407 -0.4805
    1DIPC   D3A 7891   5.415  23.742   6.177 -0.2021 -0.2734 -0.5008
    1DIPC   C4A 7892   5.737  24.047   6.326  0.1900  0.1310  0.0565
    1DIPC   C1B 7893   4.682  24.373   6.440  0.0785  0.1634 -0.0669
    1DIPC   D2B 7894   4.658  24.134   6.077  0.0045 -0.0649  0.1630
    1DIPC   D3B 7895   4.337  24.377   5.933 -0.1450  0.0324  0.2515
    1DIPC   C4B 7896   4.408  24.749   5.779 -0.0934  0.0182  0.0494
    1DIPC   NC3 7897  18.379  13.466   6.788  0.1282  0.1974 -0.1950
    1DIPC   PO4 7898  18.344  13.513   6.317  0.0166  0.3224  0.1030
    1DIPC   GL1 7899  17.975  13.574   5.991  0.1658 -0.0987  0.0248
    1DIPC   GL2 7900  18.040  13.220   5.772  0.0338  0.0309  0.0955
    1DIPC   C1A 7901  17.680  13.534   5.618 -0.2485 -0.0905 -0.1335
    1DIPC   D2A 7902  17.346  13.655   5.463  0.0172 -0.1110 -0.1740
    1DIPC   D3A 7903  17.388  14.069   5.259 -0.3983 -0.0575 -0.0501
    1DIPC   C4A 7904  17.684  14.161   4.889  0.1036 -0.1497 -0.1015
    1DIPC   C1B 7905  18.164  13.470   5.532 -0.0815  0.0249 -0.0772
    1DIPC   D2B 7906  18.045  13.355   5.131  0.0869  0.3468  0.4406
    1DIPC   D3B 7907  18.469  13.441   5.140 -0.3599 -0.1880  0.2847
    1DIPC   C4B 7908  18.568  13.743   5.399 -0.0234 -0.0480 -0.2363
    1DIPC   NC3 7909   5.746  21.512   7.229  0.0515 -0.0944 -0.2335
    1DIPC   PO4 7910   6.172  21.614   7.191 -0.1809 -0.2278 -0.1323
    1DIPC   GL1 7911   6.327  22.015   6.815  0.0023  0.0233  0.3815
    1DIPC   GL2 7912   6.133  22.338   6.744 -0.0185 -0.0852  0.2961
    1DIPC   C1A 7913   6.274  22.134   6.348  0.0863  0.0718 -0.1737
    1DIPC   D2A 7914   6.334  22.082   5.924 -0.1308 -0.2230  0.2186
    1DIPC   D3A 7915   5.912  22.164   5.928  0.0345  0.2607 -0.0559
    1DIPC   C4A 7916   5.468  22.060   5.949 -0.1806 -0.0261 -0.0105
    1DIPC   C1B 7917   5.992  22.562   6.506 -0.1062 -0.1576  0.1067
    1DIPC   D2B 7918   6.074  22.954   6.331  0.0519  0.1423  0.0575
    1DIPC   D3B 7919   6.083  23.042   5.944  0.0931  0.0751  0.0775
    1DIPC   C4B 7920   6.126  22.768   5.526 -0.0718  0.0255 -0.0244
    1DIPC   NC3 7921  12.147   9.841   6.302 -0.0601  0.4491 -0.1208
    1DIPC   PO4 7922  12.484   9.758   5.838 -0.2487 -0.1005 -0.3179
    1DIPC   GL1 7923  12.690   9.834   5.355 -0.0858  0.0962 -0.1073
    1DIPC   GL2 7924  12.737  10.187   5.246 -0.1400 -0.1272  0.1049
    1DIPC   C1A 7925  12.841   9.757   4.955  0.1138 -0.0811  0.0884
    1DIPC   D2A 7926  13.115   9.520   5.131 -0.0601  0.0284  0.0256
    1DIPC   D3A 7927  13.386   9.465   4.846 -0.1651  0.1554 -0.2931
    1DIPC   C4A 7928  13.317   9.465   4.334 -0.0765  0.1391  0.4989
    1DIPC   C1B 7929  12.622  10.339   4.833  0.0937 -0.1198  0.0656
    1DIPC   D2B 7930  12.787  10.366   4.373 -0.1071  0.3071 -0.5122
    1DIPC   D3B 7931  13.261  10.448   4.336 -0.2062 -0.3275  0.0845
    1DIPC   C4B 7932  13.496  10.358   3.928 -0.0063  0.1315  0.0166
    1DIPC   NC3 7933  22.288  18.991   6.501  0.1302  0.1599 -0.1686
    1DIPC   PO4 7934  21.975  19.034   6.194  0.0689  0.2576 -0.1431
    1DIPC   GL1 7935  21.991  19.252   5.831 -0.3009 -0.1000 -0.0596
    1DIPC   GL2 7936  21.694  19.461   5.900  0.0419  0.5431  0.0200
    1DIPC   C1A 7937  22.119  19.291   5.409  0.1589 -0.2588 -0.0242
    1DIPC   D2A 7938  22.103  19.275   4.953  0.0457  0.0293 -0.0248
    1DIPC   D3A 7939  22.295  19.706   4.937  0.0440  0.3117  0.3741
    1DIPC   C4A 7940  21.941  20.032   4.811 -0.2227 -0.3307 -0.1819
    1DIPC   C1B 7941  21.619  19.146   5.597  0.0084 -0.1439  0.0519
    1DIPC   D2B 7942  21.645  19.180   5.227 -0.0023  0.0609 -0.0159
    1DIPC   D3B 7943  21.482  18.828   5.283  0.0950 -0.0307  0.3025
    1DIPC   C4B 7944  21.425  18.524   4.886 -0.0064 -0.0453  0.1830
    1DIPC   NC3 7945   1.783  19.890   7.223  0.0560  0.1432 -0.1077
    1DIPC   PO4 7946   2.067  20.126   7.285 -0.1961  0.1637  0.2612
    1DIPC   GL1 7947   2.006  20.152   6.837  0.2368 -0.2690  0.0124
    1DIPC   GL2 7948   2.003  19.828   6.690 -0.0740 -0.1436  0.1974
    1DIPC   C1A 7949   1.757  20.427   6.614  0.0093 -0.3836 -0.3147
    1DIPC   D2A 7950   1.600  20.465   6.147  0.0560 -0.0642  0.2401
    1DIPC   D3A 7951   1.728  20.003   6.224  0.1303  0.1188  0.0625
    1DIPC   C4A 7952   1.925  19.909   5.830 -0.1927  0.0451  0.2900
    1DIPC   C1B 7953   1.711  19.604   6.484 -0.1879 -0.0774 -0.0517
    1DIPC   D2B 7954   1.915  19.289   6.281  0.3893 -0.2179 -0.0528
    1DIPC   D3B 7955   2.128  19.671   6.215  0.1013 -0.0081 -0.0583
    1DIPC   C4B 7956   2.414  19.896   6.461 -0.2882 -0.0293  0.0454
    1DIPC   NC3 7957  25.154  13.429   6.978  0.1310  0.0435 -0.0572
    1DIPC   PO4 7958  25.459  13.285   6.735 -0.2010  0.0152  0.0719
    1DIPC   GL1 7959  25.509  13.515   6.383  0.0016 -0.1070  0.1216
    1DIPC   GL2 7960  25.400  13.836   6.237 -0.0564  0.2070 -0.1694
    1DIPC   C1A 7961  25.837  13.656   6.126 -0.1240 -0.1472 -0.0094
    1DIPC   D2A 7962  26.053  13.952   5.935  0.0549  0.0298 -0.1075
    1DIPC   D3A 7963  25.665  14.201   5.980 -0.0534 -0.2185  0.1818
    1DIPC   C4A 7964  25.396  14.484   5.678 -0.2262 -0.1291 -0.1163
    1DIPC   C1B 7965  25.456  13.597   5.867 -0.0626 -0.2106 -0.0406
    1DIPC   D2B 7966  25.469  13.535   5.386  0.2152  0.0573  0.1030
    1DIPC   D3B 7967  25.232  13.134   5.577  0.2444 -0.0342  0.0947
    1DIPC   C4B 7968  25.216  13.176   6.055 -0.0247  0.0179  0.2218
    1DIPC   NC3 7969   5.566  16.194   6.654  0.0463 -0.0887 -0.0650
    1DIPC   PO4 7970   5.213  16.003   6.596 -0.1143  0.1632  0.0550
    1DIPC   GL1 7971   4.878  15.990   6.148  0.1946 -0.2728  0.1425
    1DIPC   GL2 7972   4.618  15.741   6.145 -0.1781  0.1355 -0.2749
    1DIPC   C1A 7973   4.695  16.009   5.728 -0.0158 -0.2740  0.2154
    1DIPC   D2A 7974   4.339  16.075   5.492 -0.0796 -0.1480  0.0472
    1DIPC   D3A 7975   4.522  16.197   5.184 -0.3560  0.3264  0.0977
    1DIPC   C4A 7976   4.600  16.639   5.153  0.0934  0.7038 -0.0030
    1DIPC   C1B 7977   4.386  15.637   5.756  0.2000  0.2205  0.1709
    1DIPC   D2B 7978   4.449  15.356   5.475  0.2636 -0.1732  0.1175
    1DIPC   D3B 7979   4.114  15.672   5.357 -0.3190  0.2650  0.2213
    1DIPC   C4B 7980   3.714  15.578   5.060 -0.0146  0.0000  0.0303
    1DIPC   NC3 7981  20.629  13.640   6.656 -0.4048 -0.0867 -0.0347
    1DIPC   PO4 7982  20.619  13.468   6.285 -0.3528  0.0179 -0.0195
    1DIPC   GL1 7983  20.818  13.372   5.953 -0.0167  0.0717  0.0612
    1DIPC   GL2 7984  21.004  13.119   5.882 -0.0042  0.2969  0.0101
    1DIPC   C1A 7985  20.924  13.462   5.420 -0.1756 -0.0728  0.1127
    1DIPC   D2A 7986  20.885  13.703   5.087  0.1936  0.1553 -0.0707
    1DIPC   D3A 7987  20.851  13.712   4.576  0.0291  0.2468 -0.0057
    1DIPC   C4A 7988  21.012  13.452   4.557 -0.2141 -0.1291  0.2176
    1DIPC   C1B 7989  20.864  12.762   5.460  0.0175 -0.1122 -0.0486
    1DIPC   D2B 7990  20.795  12.712   5.027 -0.0494 -0.1073 -0.2924
    1DIPC   D3B 7991  20.978  12.616   4.706  0.0508  0.0936 -0.0558
    1DIPC   C4B 7992  21.312  12.302   4.767  0.0782 -0.0787 -0.1712
    1DIPC   NC3 7993  15.526  19.467   6.359  0.4147 -0.1699  0.0939
    1DIPC   PO4 7994  15.616  19.914   6.498 -0.5338 -0.1690  0.1481
    1DIPC   GL1 7995  15.582  19.851   5.997  0.0612 -0.1190 -0.3796
    1DIPC   GL2 7996  15.804  19.697   5.967 -0.0806 -0.2642  0.1516
    1DIPC   C1A 7997  15.374  19.782   5.561 -0.0064 -0.2724 -0.3001
    1DIPC   D2A 7998  15.449  19.491   5.225 -0.1060 -0.3117 -0.4397
    1DIPC   D3A 7999  15.249  19.741   5.020  0.2975 -0.0076  0.1376
    1DIPC   C4A 8000  15.251  20.091   5.179  0.2032 -0.1382 -0.1030
    1DIPC   C1B 8001  15.902  19.599   5.489  0.3654 -0.0737  0.2030
    1DIPC   D2B 8002  16.150  19.698   5.199  0.1594  0.1556  0.0613
    1DIPC   D3B 8003  16.418  20.042   5.243 -0.0025 -0.1614 -0.1540
    1DIPC   C4B 8004  16.594  20.149   4.922 -0.1548  0.1921 -0.0580
    1DIPC   NC3 8005   2.184  25.505   7.371  0.0008  0.0891  0.2491
    1DIPC   PO4 8006   1.779  25.357   7.426  0.3070 -0.0958  0.0274
    1DIPC   GL1 8007   1.840  25.138   7.134 -0.1865  0.1792 -0.2773
    1DIPC   GL2 8008   2.220  25.203   6.975 -0.3957  0.1387  0.0676
    1DIPC   C1A 8009   1.988  24.850   6.740  0.0417  0.2079 -0.0053
    1DIPC   D2A 8010   1.768  24.638   6.416 -0.2254  0.0875  0.0096
    1DIPC   D3A 8011   1.824  24.579   5.993  0.0701  0.3269  0.0220
    1DIPC   C4A 8012   1.472  24.411   5.679 -0.2451  0.1487 -0.2192
    1DIPC   C1B 8013   1.816  25.476   6.768  0.2314  0.0707 -0.0645
    1DIPC   D2B 8014   1.686  25.778   6.543  0.0601 -0.0216  0.2532
    1DIPC   D3B 8015   1.483  26.037   6.288 -0.4218  0.1468  0.0021
    1DIPC   C4B 8016   1.593  26.208   5.930 -0.2558 -0.1027 -0.0578
    1DIPC   NC3 8017   8.141  20.132   6.641 -0.2434 -0.0683  0.0923
    1DIPC   PO4 8018   8.404  19.949   6.769 -0.2427  0.3817  0.0217
    1DIPC   GL1 8019   8.516  19.761   6.425  0.3089 -0.1869 -0.3383
    1DIPC   GL2 8020   8.756  19.731   6.233  0.0528  0.4283 -0.1245
    1DIPC   C1A 8021   8.155  19.542   6.209 -0.0385 -0.0700  0.1436
    1DIPC   D2A 8022   7.943  19.457   5.862  0.0815 -0.0296  0.2770
    1DIPC   D3A 8023   7.748  19.903   5.888 -0.0449  0.0410  0.0740
    1DIPC   C4A 8024   7.668  20.142   5.585  0.1615  0.2953  0.0181
    1DIPC   C1B 8025   9.062  19.986   6.062  0.3139 -0.2174  0.2263
    1DIPC   D2B 8026   9.338  20.027   5.829 -0.0590  0.0462 -0.3110
    1DIPC   D3B 8027   9.571  20.247   6.027  0.1987  0.0725  0.4319
    1DIPC   C4B 8028   9.887  20.553   5.833 -0.0165  0.4303 -0.0807
    1DIPC   NC3 8029  24.678  15.854   7.239 -0.1526 -0.0219 -0.0684
    1DIPC   PO4 8030  24.467  15.758   6.995 -0.0507 -0.0949 -0.1890
    1DIPC   GL1 8031  24.440  15.894   6.623 -0.0116 -0.0136  0.1556
    1DIPC   GL2 8032  24.304  15.551   6.468  0.1735 -0.0198  0.3449
    1DIPC   C1A 8033  24.655  16.064   6.267 -0.0454  0.3292 -0.0213
    1DIPC   D2A 8034  25.011  16.204   6.292  0.1392  0.0587 -0.2877
    1DIPC   D3A 8035  24.844  16.483   5.936  0.0590  0.1541 -0.0082
    1DIPC   C4A 8036  24.616  16.851   6.112  0.3459 -0.2632 -0.1968
    1DIPC   C1B 8037  24.670  15.516   6.136 -0.4757  0.0505 -0.1434
    1DIPC   D2B 8038  25.086  15.263   6.092 -0.2301 -0.1420  0.1249
    1DIPC   D3B 8039  24.905  15.420   5.713  0.1783  0.0535 -0.0282
    1DIPC   C4B 8040  25.101  15.310   5.320  0.0142 -0.0085  0.1968
    1DIPC   NC3 8041   1.324  10.144   7.125  0.4382 -0.1503 -0.0240
    1DIPC   PO4 8042   1.432   9.797   7.002  0.0062 -0.3018  0.0017
    1DIPC   GL1 8043   1.305   9.603   6.592  0.0802  0.2871  0.0226
    1DIPC   GL2 8044   1.412   9.265   6.468  0.2558 -0.0032  0.1990
    1DIPC   C1A 8045   1.265   9.793   6.250  0.3725  0.0624  0.4098
    1DIPC   D2A 8046   1.143  10.190   6.000  0.1243  0.0153 -0.0771
    1DIPC   D3A 8047   0.709  10.329   5.891  0.2338 -0.1170  0.2852
    1DIPC   C4A 8048   0.417  10.173   5.791 -0.0406  0.0325 -0.1338
    1DIPC   C1B 8049   1.095   9.335   6.046  0.2473 -0.0066 -0.2132
    1DIPC   D2B 8050   1.183   9.575   5.612  0.1292 -0.0091 -0.0742
    1DIPC   D3B 8051   1.352  10.032   5.607 -0.0942  0.5134  0.0586
    1DIPC   C4B 8052   1.004  10.385   5.519  0.0849  0.0915  0.1781
    1DIPC   NC3 8053  23.054  17.778   6.346 -0.1657 -0.2066 -0.0224
    1DIPC   PO4 8054  22.591  17.788   6.439  0.0155  0.2860  0.4020
    1DIPC   GL1 8055  22.793  17.452   6.085  0.2565  0.0804  0.0860
    1DIPC   GL2 8056  22.745  17.094   6.179  0.2386  0.1921 -0.0612
    1DIPC   C1A 8057  22.676  17.393   5.657  0.2783 -0.0007 -0.1276
    1DIPC   D2A 8058  23.025  17.411   5.478  0.0461  0.3188  0.0385
    1DIPC   D3A 8059  22.880  17.271   4.961 -0.0005 -0.0557 -0.1118
    1DIPC   C4A 8060  23.195  17.208   4.627  0.1950 -0.2058 -0.1120
    1DIPC   C1B 8061  23.124  17.077   5.904 -0.2255  0.0178  0.1328
    1DIPC   D2B 8062  23.416  16.920   5.521  0.0635  0.0670  0.0863
    1DIPC   D3B 8063  23.491  17.270   5.181 -0.0868 -0.1472  0.1180
    1DIPC   C4B 8064  23.514  17.591   5.464 -0.2098  0.2261 -0.0008
    1DIPC   NC3 8065  17.414  19.018   6.404 -0.0774 -0.1491  0.1002
    1DIPC   PO4 8066  17.677  18.928   6.055  0.0097 -0.2565 -0.0090
    1DIPC   GL1 8067  17.805  19.069   5.693 -0.0282 -0.0919  0.0764
    1DIPC   GL2 8068  17.774  19.418   5.627  0.0354 -0.2843  0.2084
    1DIPC   C1A 8069  17.832  19.154   5.217  0.0256 -0.0884 -0.0321
    1DIPC   D2A 8070  17.633  19.135   4.838  0.0460  0.0733  0.0774
    1DIPC   D3A 8071  17.686  19.512   4.646  0.2656  0.1887 -0.1588
    1DIPC   C4A 8072  17.368  19.630   4.392 -0.0143 -0.0069 -0.0168
    1DIPC   C1B 8073  17.490  19.550   5.180 -0.1632 -0.2567  0.2072
    1DIPC   D2B 8074  17.200  19.767   4.864  0.0525 -0.1299 -0.0888
    1DIPC   D3B 8075  16.648  19.651   4.847 -0.1612 -0.2364 -0.0867
    1DIPC   C4B 8076  16.646  19.425   4.470  0.1203  0.1528 -0.1249
    1DIPC   NC3 8077  12.249  18.535   7.192  0.2535 -0.1684 -0.2340
    1DIPC   PO4 8078  12.319  18.652   6.766 -0.2285 -0.0334  0.0465
    1DIPC   GL1 8079  12.029  18.844   6.403 -0.1326 -0.3691  0.0362
    1DIPC   GL2 8080  11.753  18.955   6.359 -0.3043  0.0850  0.0161
    1DIPC   C1A 8081  12.224  18.862   5.925  0.2679 -0.0940  0.0690
    1DIPC   D2A 8082  11.899  19.097   5.733  0.0568 -0.2884  0.2382
    1DIPC   D3A 8083  12.062  18.985   5.332 -0.1824 -0.0127  0.0357
    1DIPC   C4A 8084  11.780  18.646   5.147  0.3710 -0.2163 -0.0109
    1DIPC   C1B 8085  11.515  18.887   6.050  0.2906  0.0204  0.4184
    1DIPC   D2B 8086  11.091  18.650   6.030 -0.0542 -0.1754 -0.0483
    1DIPC   D3B 8087  10.779  18.267   5.980 -0.2812 -0.2203  0.1565
    1DIPC   C4B 8088  10.920  17.988   5.612 -0.2373 -0.1305  0.1635
    1DIPC   NC3 8089  14.486  26.573   6.603 -0.1373 -0.2431 -0.0421
    1DIPC   PO4 8090  14.887  26.798   6.802  0.1110  0.2821  0.1294
    1DIPC   GL1 8091  14.981  26.709   6.434  0.4487  0.2485  0.4110
    1DIPC   GL2 8092  15.277  26.570   6.456 -0.1448 -0.0003 -0.2512
    1DIPC   C1A 8093  14.844  26.604   5.983  0.2006 -0.2759 -0.2923
    1DIPC   D2A 8094  14.956  26.144   5.725  0.0816  0.1756  0.4005
    1DIPC   D3A 8095  15.158  26.110   5.317 -0.0902  0.5574 -0.0117
    1DIPC   C4A 8096  15.036  26.134   4.961  0.2804  0.0003 -0.0152
    1DIPC   C1B 8097  15.119  26.192   6.164 -0.0734  0.0391  0.2131
    1DIPC   D2B 8098  15.042  25.774   6.090  0.2903 -0.0487 -0.3524
    1DIPC   D3B 8099  15.103  25.713   5.633 -0.0407  0.1266  0.0302
    1DIPC   C4B 8100  14.602  25.655   5.597  0.0645  0.2296  0.0538
    1DIPC   NC3 8101  18.505  18.018   6.250 -0.0017  0.2824  0.0599
    1DIPC   PO4 8102  18.890  18.136   6.168 -0.0885  0.1040  0.1543
    1DIPC   GL1 8103  18.777  18.232   5.733 -0.4565  0.0122 -0.1929
    1DIPC   GL2 8104  18.753  18.469   5.463 -0.0999  0.0697  0.0867
    1DIPC   C1A 8105  18.497  18.065   5.265 -0.2169  0.2632  0.2856
    1DIPC   D2A 8106  18.312  17.763   4.952 -0.1526  0.3020  0.2653
    1DIPC   D3A 8107  18.058  17.738   4.642  0.0663  0.1047 -0.3865
    1DIPC   C4A 8108  17.809  18.070   4.701  0.2220  0.1490  0.0649
    1DIPC   C1B 8109  18.611  18.627   5.050  0.2315  0.1014 -0.1057
    1DIPC   D2B 8110  18.418  18.805   4.671 -0.0912  0.0959  0.1577
    1DIPC   D3B 8111  18.796  18.995   4.821 -0.1257  0.3527 -0.1541
    1DIPC   C4B 8112  19.018  19.153   4.568 -0.2047 -0.2174  0.1157
    1DIPC   NC3 8113  23.245  13.769   6.672 -0.1483 -0.0311  0.0310
    1DIPC   PO4 8114  23.735  13.861   6.745  0.3216 -0.0501 -0.1066
    1DIPC   GL1 8115  23.615  13.884   6.291 -0.0381 -0.1799  0.0784
    1DIPC   GL2 8116  23.497  13.579   6.085 -0.0349  0.0963  0.0297
    1DIPC   C1A 8117  23.411  14.067   5.857 -0.0522 -0.0134  0.2556
    1DIPC   D2A 8118  23.400  14.165   5.391  0.1234  0.0564  0.1562
    1DIPC   D3A 8119  23.733  14.411   5.554  0.3241  0.1398  0.0904
    1DIPC   C4A 8120  23.698  14.489   5.901  0.0213  0.2292  0.1896
    1DIPC   C1B 8121  23.310  13.384   5.673 -0.1296 -0.2740  0.1039
    1DIPC   D2B 8122  23.051  13.484   5.374  0.1936 -0.0205 -0.1255
    1DIPC   D3B 8123  23.170  13.598   4.995  0.2348  0.0403  0.1374
    1DIPC   C4B 8124  23.024  13.526   4.553 -0.0964  0.2376  0.0852
    1DIPC   NC3 8125  14.249  17.398   6.396  0.1603 -0.0921 -0.1882
    1DIPC   PO4 8126  14.612  17.507   6.131 -0.1877 -0.1236  0.1274
    1DIPC   GL1 8127  14.743  17.713   5.766  0.0654 -0.5139  0.2060
    1DIPC   GL2 8128  14.734  18.123   5.748  0.1742  0.0014 -0.0585
    1DIPC   C1A 8129  14.963  17.699   5.396  0.3502  0.0955 -0.1002
    1DIPC   D2A 8130  15.071  17.804   4.983  0.0020  0.0810  0.2742
    1DIPC   D3A 8131  15.562  17.858   5.317  0.0772 -0.1113 -0.1540
    1DIPC   C4A 8132  15.498  17.796   5.683  0.0499 -0.0518 -0.3343
    1DIPC   C1B 8133  14.682  18.162   5.296 -0.0227 -0.1770 -0.0144
    1DIPC   D2B 8134  14.426  18.366   4.919 -0.3563  0.0159 -0.0244
    1DIPC   D3B 8135  14.571  18.587   4.752  0.5057 -0.0778  0.1224
    1DIPC   C4B 8136  14.396  18.707   4.307 -0.0518 -0.1756  0.0460
    1DIPC   NC3 8137  26.105  21.973   7.516  0.0070 -0.0293  0.1308
    1DIPC   PO4 8138  25.808  22.237   7.047  0.1565 -0.3041 -0.4557
    1DIPC   GL1 8139  25.580  22.282   6.691  0.0556 -0.4065 -0.0343
    1DIPC   GL2 8140  25.269  22.218   6.614 -0.2583  0.2026 -0.1288
    1DIPC   C1A 8141  25.700  22.276   6.334  0.0502  0.2724  0.0572
    1DIPC   D2A 8142  25.775  22.180   5.903 -0.1942  0.2161 -0.0514
    1DIPC   D3A 8143  26.112  22.216   5.658 -0.0143 -0.1858 -0.0182
    1DIPC   C4A 8144  26.567  22.137   5.377  0.0167  0.0780 -0.1404
    1DIPC   C1B 8145  25.192  22.645   6.479 -0.0700 -0.3071 -0.0453
    1DIPC   D2B 8146  24.818  22.797   6.458  0.5629  0.1928 -0.0292
    1DIPC   D3B 8147  24.701  22.734   6.034  0.4475 -0.0366 -0.2258
    1DIPC   C4B 8148  24.788  22.584   5.611  0.0497 -0.1844 -0.0436
    1DIPC   NC3 8149  20.801  15.177   6.253 -0.0379  0.1024 -0.3227
    1DIPC   PO4 8150  20.441  14.841   6.298 -0.0671  0.0045 -0.3547
    1DIPC   GL1 8151  20.420  14.777   5.904  0.1457 -0.3399  0.2173
    1DIPC   GL2 8152  20.712  14.722   5.835  0.0438  0.1636 -0.1724
    1DIPC   C1A 8153  20.366  14.669   5.383 -0.0527  0.2480  0.3457
    1DIPC   D2A 8154  20.339  14.463   4.894 -0.2206 -0.2984 -0.2597
    1DIPC   D3A 8155  20.697  14.528   4.532  0.2743 -0.2075 -0.1574
    1DIPC   C4A 8156  20.628  14.526   4.103  0.1777  0.0104 -0.0422
    1DIPC   C1B 8157  20.807  14.734   5.506 -0.0325  0.2472  0.0666
    1DIPC   D2B 8158  20.794  14.691   5.032  0.0102 -0.2698  0.0154
    1DIPC   D3B 8159  20.852  14.334   4.975  0.2371 -0.0068 -0.1946
    1DIPC   C4B 8160  21.069  14.081   4.776  0.0036 -0.2120 -0.0817
    1DIPC   NC3 8161  24.426   4.809   7.177 -0.1575 -0.0901  0.0313
    1DIPC   PO4 8162  24.076   4.571   7.306  0.2370 -0.2552 -0.1332
    1DIPC   GL1 8163  24.330   4.360   6.950  0.1170 -0.0416 -0.1048
    1DIPC   GL2 8164  24.640   4.389   6.984 -0.1551 -0.1895 -0.1585
    1DIPC   C1A 8165  24.357   4.215   6.455  0.1856 -0.0203 -0.0122
    1DIPC   D2A 8166  24.320   4.153   5.994  0.0933  0.2171  0.2072
    1DIPC   D3A 8167  24.592   4.333   5.857 -0.0791  0.0412  0.0713
    1DIPC   C4A 8168  24.509   4.543   5.483 -0.1315 -0.0327  0.2278
    1DIPC   C1B 8169  25.018   4.595   6.728 -0.0593 -0.1184 -0.2044
    1DIPC   D2B 8170  25.323   4.301   6.677 -0.0667 -0.0088  0.0572
    1DIPC   D3B 8171  24.874   4.107   6.607 -0.0755 -0.2959 -0.1433
    1DIPC   C4B 8172  24.555   3.936   6.847 -0.0403  0.1303 -0.3567
    1DIPC   NC3 8173  20.439  28.591   6.531  0.3365 -0.1625  0.1613
    1DIPC   PO4 8174  20.655  28.909   6.585 -0.0556 -0.0508  0.1358
    1DIPC   GL1 8175  20.406  28.823   6.132  0.0653 -0.1038 -0.1361
    1DIPC   GL2 8176  20.083  28.869   6.286  0.0827 -0.3102  0.2626
    1DIPC   C1A 8177  20.368  28.555   5.785 -0.0135  0.2039 -0.1934
    1DIPC   D2A 8178  20.280  28.705   5.333  0.2628  0.2558  0.2218
    1DIPC   D3A 8179  19.839  28.627   5.362  0.0389  0.3249 -0.0804
    1DIPC   C4A 8180  19.539  28.837   5.125  0.1548 -0.0361  0.1187
    1DIPC   C1B 8181  19.977  28.909   5.800 -0.3805 -0.0527  0.0148
    1DIPC   D2B 8182  19.980  29.143   5.414 -0.1131  0.1780  0.3244
    1DIPC   D3B 8183  19.809  29.298   5.045  0.5713  0.2272 -0.2272
    1DIPC   C4B 8184  19.734  29.686   5.113 -0.1721 -0.2799  0.1093
    1DIPC   NC3 8185   6.216   6.369   7.387 -0.0291  0.1400  0.2644
    1DIPC   PO4 8186   6.197   6.769   7.183 -0.0665  0.3299 -0.1332
    1DIPC   GL1 8187   6.087   6.724   6.835 -0.3222 -0.0971 -0.1734
    1DIPC   GL2 8188   6.245   6.768   6.637 -0.3218 -0.1407 -0.1416
    1DIPC   C1A 8189   5.773   6.671   6.527  0.0444  0.0952  0.1150
    1DIPC   D2A 8190   5.386   6.425   6.646 -0.0766 -0.1272  0.0677
    1DIPC   D3A 8191   5.335   5.959   6.676 -0.4183 -0.1045  0.2144
    1DIPC   C4A 8192   5.012   5.740   6.393  0.0106  0.0043 -0.0240
    1DIPC   C1B 8193   6.232   6.353   6.468 -0.1481 -0.3132  0.0185
    1DIPC   D2B 8194   6.487   5.994   6.625 -0.1306 -0.1137  0.2104
    1DIPC   D3B 8195   6.552   5.589   6.826 -0.0744  0.4364 -0.1245
    1DIPC   C4B 8196   6.676   5.165   6.629 -0.0493 -0.2635  0.0704
    1DIPC   NC3 8197   8.679  25.682   7.484 -0.0349  0.1281 -0.0428
    1DIPC   PO4 8198   8.351  25.516   7.195  0.4039 -0.1360  0.3363
    1DIPC   GL1 8199   8.302  25.664   6.758 -0.1778  0.1803  0.0506
    1DIPC   GL2 8200   7.982  25.768   6.603 -0.3281 -0.0595  0.1173
    1DIPC   C1A 8201   8.326  25.611   6.279 -0.0868 -0.1286 -0.1196
    1DIPC   D2A 8202   8.326  25.584   5.777  0.1326 -0.3246 -0.0233
    1DIPC   D3A 8203   7.886  25.742   5.688 -0.1728 -0.1958  0.0565
    1DIPC   C4A 8204   7.459  25.372   5.639  0.1268 -0.0561 -0.0976
    1DIPC   C1B 8205   7.954  25.871   6.159 -0.5318 -0.0521 -0.2007
    1DIPC   D2B 8206   7.909  26.232   5.931 -0.1262  0.1307  0.2965
    1DIPC   D3B 8207   7.454  26.103   5.861  0.1588  0.0235  0.0703
    1DIPC   C4B 8208   7.085  26.325   5.633 -0.0751  0.0252  0.0379
    1DIPC   NC3 8209   4.655  23.223   6.969  0.1286  0.1653  0.0610
    1DIPC   PO4 8210   4.629  22.769   6.877  0.2677 -0.2660 -0.3288
    1DIPC   GL1 8211   4.467  22.546   6.444  0.1150 -0.0574 -0.2184
    1DIPC   GL2 8212   4.219  22.305   6.379 -0.3520 -0.0615  0.2332
    1DIPC   C1A 8213   4.354  22.789   6.015  0.0025 -0.0082  0.1349
    1DIPC   D2A 8214   4.284  23.077   5.688  0.0324 -0.2870  0.1256
    1DIPC   D3A 8215   3.838  22.871   5.867 -0.3474  0.1847  0.0916
    1DIPC   C4A 8216   3.878  22.768   6.287  0.0304 -0.0923  0.4777
    1DIPC   C1B 8217   4.012  22.370   6.035 -0.2358 -0.4671  0.0280
    1DIPC   D2B 8218   3.912  22.491   5.570  0.1764  0.0075 -0.0593
    1DIPC   D3B 8219   4.334  22.559   5.372 -0.4294 -0.0097  0.1631
    1DIPC   C4B 8220   4.707  22.703   5.590  0.3240  0.0699 -0.1179
    1DIPC   NC3 8221  21.493  17.004   5.996 -0.0353 -0.1802  0.0307
    1DIPC   PO4 8222  21.863  17.052   5.965 -0.2123  0.1543 -0.3489
    1DIPC   GL1 8223  22.091  17.106   5.493  0.0191 -0.2946 -0.0842
    1DIPC   GL2 8224  22.359  16.907   5.597 -0.2348 -0.0674 -0.0574
    1DIPC   C1A 8225  22.032  16.740   5.166 -0.1685  0.2666 -0.2250
    1DIPC   D2A 8226  22.225  16.356   5.034  0.0409 -0.4793  0.1670
    1DIPC   D3A 8227  22.478  16.454   4.782  0.0336 -0.4094  0.3429
    1DIPC   C4A 8228  22.563  16.285   4.410  0.1262 -0.2544 -0.1033
    1DIPC   C1B 8229  22.595  16.909   5.196 -0.3476 -0.1024  0.1908
    1DIPC   D2B 8230  22.699  16.921   4.738 -0.2806 -0.0257 -0.0306
    1DIPC   D3B 8231  22.327  16.860   4.498 -0.0625 -0.1558 -0.2370
    1DIPC   C4B 8232  22.050  16.973   4.199 -0.2682  0.2506 -0.0838
    1DIPC   NC3 8233   2.055  18.164   7.222  0.0318  0.0130  0.0588
    1DIPC   PO4 8234   2.508  18.164   7.313 -0.1712  0.2244  0.3116
    1DIPC   GL1 8235   2.352  18.103   6.825 -0.1532  0.1043 -0.0705
    1DIPC   GL2 8236   2.493  18.322   6.633  0.0029 -0.3479 -0.1073
    1DIPC   C1A 8237   1.973  18.035   6.580  0.1109 -0.0324  0.7984
    1DIPC   D2A 8238   1.765  17.920   6.163 -0.5908 -0.1184 -0.2842
    1DIPC   D3A 8239   2.100  17.747   5.893  0.1312  0.1848 -0.1422
    1DIPC   C4A 8240   2.075  17.637   5.470  0.1321 -0.2424 -0.1424
    1DIPC   C1B 8241   2.628  18.388   6.142 -0.3040 -0.1771  0.0415
    1DIPC   D2B 8242   2.554  18.276   5.690  0.2051 -0.2942 -0.1443
    1DIPC   D3B 8243   2.792  18.533   5.449 -0.1697 -0.1111 -0.0940
    1DIPC   C4B 8244   2.650  19.048   5.347  0.2254 -0.0886 -0.0804
    1DIPC   NC3 8245   6.918   0.599   7.989  0.1990  0.1094 -0.0339
    1DIPC   PO4 8246   7.260   0.585   7.782 -0.2506 -0.0199 -0.0073
    1DIPC   GL1 8247   7.289   0.835   7.457 -0.1327  0.0620  0.2447
    1DIPC   GL2 8248   7.498   0.747   7.211  0.2784 -0.2183 -0.1722
    1DIPC   C1A 8249   7.005   0.974   7.015  0.1133  0.1375  0.0276
    1DIPC   D2A 8250   6.936   1.254   6.625  0.0184 -0.1012 -0.1822
    1DIPC   D3A 8251   7.300   1.488   6.748  0.3017 -0.1636 -0.0759
    1DIPC   C4A 8252   7.705   1.613   6.540 -0.3206  0.0944  0.1606
    1DIPC   C1B 8253   7.470   0.810   6.650  0.0045 -0.1226  0.2448
    1DIPC   D2B 8254   7.326   0.521   6.373 -0.0721 -0.0819 -0.0299
    1DIPC   D3B 8255   7.579   0.632   6.024 -0.0337 -0.4584  0.0224
    1DIPC   C4B 8256   7.986   0.671   5.915 -0.0109 -0.0510 -0.3569
    1DIPC   NC3 8257   6.717  18.072   7.259  0.0159  0.2341  0.1411
    1DIPC   PO4 8258   6.792  17.943   6.841  0.0847  0.0814 -0.0854
    1DIPC   GL1 8259   6.926  17.990   6.485 -0.1767 -0.1389 -0.0706
    1DIPC   GL2 8260   6.706  17.851   6.306  0.2269 -0.0218  0.2389
    1DIPC   C1A 8261   7.192  18.139   6.146  0.1880  0.0793 -0.0679
    1DIPC   D2A 8262   7.412  18.117   5.815  0.1785  0.3662  0.0458
    1DIPC   D3A 8263   7.411  18.237   5.394  0.2813  0.0075 -0.0748
    1DIPC   C4A 8264   7.760  18.317   5.215 -0.0301  0.1289  0.0934
    1DIPC   C1B 8265   6.646  17.894   5.804  0.0529  0.1971 -0.2961
    1DIPC   D2B 8266   6.682  17.684   5.420 -0.4728 -0.0055 -0.0908
    1DIPC   D3B 8267   6.337  17.736   5.131  0.1109  0.0065 -0.0591
    1DIPC   C4B 8268   6.266  17.370   4.836 -0.2910 -0.1881 -0.1335
    1DIPC   NC3 8269  11.988  16.202   6.640 -0.1616 -0.0157 -0.1749
    1DIPC   PO4 8270  12.216  15.759   6.634 -0.0647 -0.0633 -0.0174
    1DIPC   GL1 8271  12.059  15.944   6.220  0.1488  0.0655 -0.0009
    1DIPC   GL2 8272  11.717  15.749   6.135 -0.0251  0.0950  0.1448
    1DIPC   C1A 8273  12.023  16.019   5.820 -0.1147 -0.1105  0.1892
    1DIPC   D2A 8274  11.732  16.053   5.576 -0.3789  0.1307  0.2354
    1DIPC   D3A 8275  12.039  15.951   5.281  0.0766 -0.0514 -0.0786
    1DIPC   C4A 8276  11.808  15.863   4.908 -0.1290 -0.2139 -0.2492
    1DIPC   C1B 8277  11.495  15.656   5.724  0.1437  0.2500 -0.2584
    1DIPC   D2B 8278  11.466  15.846   5.222  0.2649 -0.0149  0.1941
    1DIPC   D3B 8279  11.471  16.344   5.201  0.1357  0.1491  0.3919
    1DIPC   C4B 8280  11.806  16.512   5.010 -0.3762 -0.2164 -0.1371
    1DIPC   NC3 8281   6.506   4.693   7.525  0.0931 -0.1732  0.2729
    1DIPC   PO4 8282   6.822   4.851   7.517 -0.0832 -0.2961  0.4004
    1DIPC   GL1 8283   6.906   4.732   7.078 -0.0030 -0.2344 -0.2319
    1DIPC   GL2 8284   6.567   4.812   6.956 -0.1365  0.1416  0.1067
    1DIPC   C1A 8285   7.060   4.826   6.758  0.2717  0.4394 -0.0562
    1DIPC   D2A 8286   7.295   4.778   6.346  0.1423 -0.2936 -0.0043
    1DIPC   D3A 8287   7.536   4.980   6.739 -0.1710  0.0103  0.3170
    1DIPC   C4A 8288   7.850   5.203   6.704  0.0355  0.1288  0.2767
    1DIPC   C1B 8289   6.222   4.912   6.628  0.2061  0.1401  0.1054
    1DIPC   D2B 8290   6.166   4.806   6.261  0.1589 -0.0262 -0.4573
    1DIPC   D3B 8291   6.382   5.070   5.966  0.1272  0.2245  0.1722
    1DIPC   C4B 8292   6.654   4.912   5.720 -0.5612  0.0872 -0.0423
    1DIPC   NC3 8293   6.237  19.854   7.395  0.1459 -0.0380  0.0622
    1DIPC   PO4 8294   5.813  19.844   7.253  0.1923  0.0842  0.4805
    1DIPC   GL1 8295   5.791  19.793   6.835  0.0874  0.1250  0.0174
    1DIPC   GL2 8296   5.657  20.137   6.845 -0.3134  0.2326  0.0321
    1DIPC   C1A 8297   5.927  19.690   6.462  0.0661  0.0319 -0.1700
    1DIPC   D2A 8298   6.189  19.922   6.172 -0.0022  0.0669 -0.0011
    1DIPC   D3A 8299   6.203  19.706   5.784 -0.1835 -0.1871  0.2710
    1DIPC   C4A 8300   6.387  19.549   5.425 -0.1695 -0.1137  0.2452
    1DIPC   C1B 8301   5.563  19.968   6.379  0.2254  0.4042 -0.1647
    1DIPC   D2B 8302   5.763  19.782   5.950 -0.2503 -0.2108 -0.0681
    1DIPC   D3B 8303   5.825  19.375   5.690 -0.0198 -0.1121  0.0397
    1DIPC   C4B 8304   5.867  19.327   5.293  0.0325  0.2122  0.2537
    1DIPC   NC3 8305   0.067  28.372   8.169  0.0164  0.0041  0.0057
    1DIPC   PO4 8306  -0.097  28.102   8.040  0.3496  0.1249 -0.0520
    1DIPC   GL1 8307  -0.147  28.300   7.581 -0.0671 -0.2334 -0.2360
    1DIPC   GL2 8308   0.111  28.221   7.530  0.3091  0.0650 -0.0737
    1DIPC   C1A 8309  -0.095  28.504   7.177  0.0076 -0.0734  0.2069
    1DIPC   D2A 8310  -0.179  28.668   6.857  0.2872 -0.1994 -0.2692
    1DIPC   D3A 8311  -0.473  28.784   6.564  0.0591  0.4048  0.0825
    1DIPC   C4A 8312  -0.863  28.671   6.284  0.1292  0.0080  0.0209
    1DIPC   C1B 8313  -0.094  27.998   7.169  0.0375  0.1195 -0.2165
    1DIPC   D2B 8314  -0.090  28.147   6.788  0.1646 -0.1037  0.0100
    1DIPC   D3B 8315  -0.192  28.347   6.399 -0.1587  0.1442 -0.0680
    1DIPC   C4B 8316  -0.495  28.244   6.086  0.3132  0.0170  0.0188
    1DIPC   NC3 8317  26.762   8.645   7.505  0.1366 -0.4259  0.0491
    1DIPC   PO4 8318  27.137   8.377   7.612  0.3121  0.0318 -0.1533
    1DIPC   GL1 8319  27.050   8.376   7.189 -0.1332  0.0413 -0.2267
    1DIPC   GL2 8320  27.344   8.148   7.161 -0.0223 -0.1788  0.2899
    1DIPC   C1A 8321  26.892   8.292   6.717 -0.2448  0.2603  0.1309
    1DIPC   D2A 8322  26.943   7.860   6.546 -0.0097  0.1950  0.1506
    1DIPC   D3A 8323  26.867   8.160   6.221 -0.0365 -0.1117 -0.3293
    1DIPC   C4A 8324  27.153   8.298   5.830 -0.0689 -0.1548 -0.0208
    1DIPC   C1B 8325  27.401   8.363   6.746 -0.1435  0.2263 -0.2667
    1DIPC   D2B 8326  27.353   8.108   6.327 -0.3309  0.0001 -0.3232
    1DIPC   D3B 8327  27.224   7.679   6.197  0.0974 -0.0542 -0.1227
    1DIPC   C4B 8328  27.450   7.499   5.829  0.0420 -0.1168 -0.1263
    1DIPC   NC3 8329  12.511   5.212   6.387  0.1691  0.3876 -0.0072
    1DIPC   PO4 8330  12.249   5.464   5.977 -0.1546 -0.0462 -0.0288
    1DIPC   GL1 8331  12.179   5.282   5.543  0.2940  0.1255 -0.1437
    1DIPC   GL2 8332  12.101   4.976   5.627 -0.2311  0.1297  0.0260
    1DIPC   C1A 8333  12.159   5.074   5.158  0.1252 -0.2505  0.1496
    1DIPC   D2A 8334  12.134   4.795   4.865  0.1805 -0.1478  0.1167
    1DIPC   D3A 8335  11.821   5.093   4.781 -0.1066 -0.1918  0.2238
    1DIPC   C4A 8336  11.423   4.944   4.581  0.1002 -0.5583  0.1704
    1DIPC   C1B 8337  12.107   4.639   5.396 -0.5613  0.2148  0.0176
    1DIPC   D2B 8338  12.262   4.376   5.048  0.1006  0.0137 -0.0626
    1DIPC   D3B 8339  12.290   4.354   4.619  0.2435 -0.0189  0.0485
    1DIPC   C4B 8340  12.085   4.760   4.372  0.1263  0.1193  0.0067
    1DIPC   NC3 8341  18.593  13.973   6.229 -0.0238 -0.3203  0.0719
    1DIPC   PO4 8342  18.261  13.989   5.942  0.1341  0.2465 -0.0278
    1DIPC   GL1 8343  18.379  14.235   5.584  0.0481  0.0693  0.0482
    1DIPC   GL2 8344  18.264  14.490   5.605  0.0849 -0.1797  0.1102
    1DIPC   C1A 8345  18.450  14.106   5.122  0.0560  0.1439 -0.2124
    1DIPC   D2A 8346  18.528  14.150   4.642 -0.4188 -0.1161 -0.0218
    1DIPC   D3A 8347  18.633  14.578   4.591  0.2258 -0.2495  0.2272
    1DIPC   C4A 8348  18.330  14.856   4.727 -0.0487 -0.0346 -0.2974
    1DIPC   C1B 8349  17.932  14.271   5.352  0.0875 -0.1264  0.2168
    1DIPC   D2B 8350  17.872  13.839   5.296  0.0542  0.0031 -0.0881
    1DIPC   D3B 8351  18.098  13.826   4.911 -0.0148  0.1986 -0.0952
    1DIPC   C4B 8352  18.027  14.113   4.531  0.0770  0.0111  0.0167
    1DIPC   NC3 8353  19.922  20.522   6.002  0.1886  0.0759  0.0511
    1DIPC   PO4 8354  20.153  20.241   5.933  0.1304 -0.3310 -0.1194
    1DIPC   GL1 8355  20.194  20.155   5.435  0.0479 -0.1626 -0.0049
    1DIPC   GL2 8356  20.071  19.858   5.370  0.1504  0.0865 -0.1779
    1DIPC   C1A 8357  20.218  20.227   5.036  0.0639  0.0953  0.5091
    1DIPC   D2A 8358  20.049  20.667   4.831  0.0517  0.2898 -0.1337
    1DIPC   D3A 8359  19.858  20.592   4.487  0.2460 -0.0519 -0.3061
    1DIPC   C4A 8360  19.865  20.959   4.337  0.1857  0.4777 -0.0942
    1DIPC   C1B 8361  19.794  19.908   5.052 -0.0338  0.2372  0.1964
    1DIPC   D2B 8362  19.787  20.061   4.628  0.1947  0.1988  0.1014
    1DIPC   D3B 8363  20.033  19.793   4.368  0.2853 -0.2565 -0.0028
    1DIPC   C4B 8364  20.155  19.813   3.958 -0.2056  0.1162 -0.3413
    1DIPC   NC3 8365  17.342  16.113   6.853  0.0911  0.0727 -0.2249
    1DIPC   PO4 8366  17.746  15.885   6.557  0.2874  0.0735 -0.3746
    1DIPC   GL1 8367  17.825  16.018   6.192  0.0134  0.2029  0.2456
    1DIPC   GL2 8368  18.082  15.904   6.040 -0.0089  0.0479 -0.1631
    1DIPC   C1A 8369  17.564  16.211   5.931  0.1934  0.3005 -0.0202
    1DIPC   D2A 8370  17.270  16.443   5.803  0.0324  0.1096  0.3000
    1DIPC   D3A 8371  17.251  16.543   5.319  0.1470  0.0103  0.0894
    1DIPC   C4A 8372  17.512  16.650   5.159  0.0774 -0.0746 -0.0353
    1DIPC   C1B 8373  17.902  15.909   5.565 -0.1390 -0.2869 -0.0756
    1DIPC   D2B 8374  17.809  16.210   5.161 -0.3741  0.5196 -0.0118
    1DIPC   D3B 8375  17.437  16.157   4.921  0.1727 -0.0616 -0.2411
    1DIPC   C4B 8376  17.061  16.389   4.719  0.0132  0.1186  0.0588
    1DIPC   NC3 8377  18.416  21.352   6.229 -0.1461 -0.0429  0.0595
    1DIPC   PO4 8378  18.442  21.605   5.985  0.1423  0.0033 -0.2321
    1DIPC   GL1 8379  18.663  21.858   5.742  0.0577  0.0977 -0.0879
    1DIPC   GL2 8380  18.808  21.954   6.089  0.0078  0.1278 -0.1635
    1DIPC   C1A 8381  18.596  21.872   5.316  0.1924  0.1148 -0.1653
    1DIPC   D2A 8382  18.424  21.608   5.071 -0.1602  0.0950 -0.4316
    1DIPC   D3A 8383  18.494  21.351   4.672  0.2031 -0.1831 -0.0080
    1DIPC   C4A 8384  18.561  20.949   4.563 -0.3896 -0.0141 -0.0985
    1DIPC   C1B 8385  19.114  21.954   5.644 -0.3500  0.1211  0.0251
    1DIPC   D2B 8386  19.115  21.934   5.280 -0.0765  0.1846  0.2729
    1DIPC   D3B 8387  19.085  22.102   4.939 -0.3223  0.2976  0.3545
    1DIPC   C4B 8388  18.606  22.025   4.699  0.2527 -0.0558 -0.0220
    1DIPC   NC3 8389   5.318  10.924   6.801  0.0810  0.1219 -0.1506
    1DIPC   PO4 8390   5.025  10.807   6.579  0.1915 -0.0647 -0.3558
    1DIPC   GL1 8391   5.037  10.776   6.151 -0.0480  0.1336  0.0657
    1DIPC   GL2 8392   5.028  10.450   6.063  0.1216 -0.1191 -0.0717
    1DIPC   C1A 8393   4.985  10.772   5.723 -0.2454 -0.0521  0.1846
    1DIPC   D2A 8394   5.238  10.846   5.430  0.1422 -0.1032  0.0725
    1DIPC   D3A 8395   5.665  10.853   5.183 -0.1969 -0.1675 -0.2083
    1DIPC   C4A 8396   5.957  11.205   5.127 -0.2556 -0.1546  0.3945
    1DIPC   C1B 8397   4.920  10.097   5.763 -0.0105  0.1350 -0.1247
    1DIPC   D2B 8398   5.112   9.939   5.542 -0.5293 -0.5250 -0.1467
    1DIPC   D3B 8399   4.779   9.917   5.195 -0.2099 -0.0809  0.1073
    1DIPC   C4B 8400   4.619  10.116   4.772  0.3526 -0.1699 -0.0210
    1DIPC   NC3 8401   8.321  17.915   6.526 -0.0024  0.1834  0.1847
    1DIPC   PO4 8402   8.472  18.250   6.305  0.0901  0.0115 -0.0157
    1DIPC   GL1 8403   8.518  18.342   5.883 -0.1563 -0.0164 -0.0544
    1DIPC   GL2 8404   8.804  18.391   5.766 -0.0978 -0.1569  0.1102
    1DIPC   C1A 8405   8.096  18.166   5.638 -0.2431  0.1190  0.0543
    1DIPC   D2A 8406   7.875  17.712   5.576 -0.0598 -0.1724 -0.2167
    1DIPC   D3A 8407   7.674  17.843   5.230 -0.0420 -0.0711  0.0139
    1DIPC   C4A 8408   7.460  17.596   5.042 -0.1415  0.0745 -0.2064
    1DIPC   C1B 8409   8.796  18.067   5.457 -0.0126  0.0725  0.2850
    1DIPC   D2B 8410   8.995  18.083   5.081  0.3346  0.2319  0.0956
    1DIPC   D3B 8411   8.593  18.118   4.815 -0.4814  0.0382  0.0804
    1DIPC   C4B 8412   8.272  18.284   5.119 -0.2409  0.2764  0.0199
    1DIPC   NC3 8413   7.472   8.356   6.700 -0.0810 -0.0230  0.0489
    1DIPC   PO4 8414   7.120   8.080   6.716  0.0329 -0.0484  0.3221
    1DIPC   GL1 8415   7.228   8.119   6.215  0.1214  0.1041 -0.1916
    1DIPC   GL2 8416   7.068   8.282   6.084 -0.1332 -0.1559  0.0271
    1DIPC   C1A 8417   7.273   7.864   5.826 -0.1012 -0.1227 -0.0751
    1DIPC   D2A 8418   7.195   7.927   5.430  0.3262 -0.2767  0.1304
    1DIPC   D3A 8419   7.419   8.248   5.141 -0.0385  0.0158 -0.0368
    1DIPC   C4A 8420   7.333   7.998   4.701  0.2093 -0.1443  0.1558
    1DIPC   C1B 8421   6.989   8.313   5.686  0.0475 -0.0005  0.1345
    1DIPC   D2B 8422   6.975   8.429   5.265 -0.2693 -0.1211  0.0119
    1DIPC   D3B 8423   7.056   8.399   4.813  0.2485 -0.0271 -0.1328
    1DIPC   C4B 8424   6.818   8.372   4.460 -0.2967  0.0657 -0.0811
    1DIPC   NC3 8425  24.517  14.325   6.875  0.0694  0.1112  0.1533
    1DIPC   PO4 8426  24.817  13.951   6.953 -0.1219 -0.0533  0.0697
    1DIPC   GL1 8427  24.677  14.000   6.470 -0.0864  0.0129 -0.3561
    1DIPC   GL2 8428  24.984  14.140   6.216 -0.0601 -0.3892  0.0382
    1DIPC   C1A 8429  24.672  13.974   5.913  0.0652  0.1090  0.0751
    1DIPC   D2A 8430  24.745  13.862   5.541  0.0890  0.0494  0.2303
    1DIPC   D3A 8431  24.950  13.567   5.741 -0.1131 -0.0476  0.0950
    1DIPC   C4A 8432  24.941  13.598   6.134 -0.1796  0.0675  0.1154
    1DIPC   C1B 8433  25.186  14.028   5.878 -0.0352 -0.3296 -0.0923
    1DIPC   D2B 8434  25.342  14.053   5.438 -0.1115  0.0276 -0.0115
    1DIPC   D3B 8435  25.066  13.905   5.162  0.1979 -0.1287 -0.1843
    1DIPC   C4B 8436  24.595  14.015   5.100  0.0007 -0.2939  0.1198
    1DIPC   NC3 8437   7.708  15.507   6.178 -0.2130 -0.1554  0.1283
    1DIPC   PO4 8438   8.066  15.637   6.120 -0.2822 -0.1794 -0.0466
    1DIPC   GL1 8439   8.070  15.892   5.791  0.2895 -0.0808 -0.1123
    1DIPC   GL2 8440   8.295  15.964   5.642  0.3254  0.2009  0.0072
    1DIPC   C1A 8441   7.833  16.060   5.449 -0.3548  0.1655 -0.1781
    1DIPC   D2A 8442   7.993  15.828   5.091 -0.0813  0.1976  0.0813
    1DIPC   D3A 8443   8.089  15.479   5.307 -0.2565 -0.1206  0.0289
    1DIPC   C4A 8444   8.576  15.504   5.323  0.0328 -0.1730 -0.0624
    1DIPC   C1B 8445   8.405  16.049   5.280 -0.1901  0.1973 -0.2305
    1DIPC   D2B 8446   8.386  15.982   4.837  0.0318  0.0474 -0.0738
    1DIPC   D3B 8447   8.368  15.568   4.850 -0.0945 -0.2065 -0.2361
    1DIPC   C4B 8448   7.968  15.400   4.720  0.1259 -0.0094  0.2022
    1DIPC   NC3 8449  23.690  20.666   6.843  0.1732  0.2415  0.1561
    1DIPC   PO4 8450  24.004  20.175   6.713  0.0702  0.3527 -0.0656
    1DIPC   GL1 8451  23.972  20.274   6.419  0.2758 -0.2695  0.1944
    1DIPC   GL2 8452  24.008  20.588   6.335  0.3660 -0.0277 -0.0668
    1DIPC   C1A 8453  23.696  20.266   6.125  0.2143 -0.4990 -0.0933
    1DIPC   D2A 8454  23.761  19.862   5.839 -0.2105 -0.1920  0.2668
    1DIPC   D3A 8455  24.044  19.866   5.428  0.0900  0.1764 -0.0945
    1DIPC   C4A 8456  24.226  19.480   5.189  0.2190  0.1079 -0.1699
    1DIPC   C1B 8457  24.068  20.479   5.865 -0.1618 -0.0046  0.2800
    1DIPC   D2B 8458  24.322  20.299   5.545 -0.1508 -0.1239  0.0170
    1DIPC   D3B 8459  24.308  20.718   5.490 -0.2626  0.0360  0.1518
    1DIPC   C4B 8460  24.635  21.057   5.411 -0.3209  0.1254 -0.2261
    1DIPC   NC3 8461   0.552  12.414   7.378 -0.0133 -0.2896 -0.1426
    1DIPC   PO4 8462   0.613  12.284   6.906 -0.2941  0.0449 -0.0779
    1DIPC   GL1 8463   0.431  12.066   6.550  0.1188  0.0048 -0.0753
    1DIPC   GL2 8464   0.150  11.880   6.674 -0.1033 -0.1289  0.1028
    1DIPC   C1A 8465   0.557  11.842   6.110 -0.1983  0.1312 -0.2935
    1DIPC   D2A 8466   0.677  11.618   5.858  0.1504  0.0526  0.0484
    1DIPC   D3A 8467   0.911  11.194   5.612 -0.0984 -0.3480 -0.0943
    1DIPC   C4A 8468   1.310  11.210   5.681 -0.0956  0.4171  0.1105
    1DIPC   C1B 8469   0.027  11.765   6.272  0.2353 -0.1204  0.0188
    1DIPC   D2B 8470  -0.049  11.967   5.915  0.2028  0.1563  0.1327
    1DIPC   D3B 8471  -0.071  12.305   5.695 -0.1923  0.0206 -0.0519
    1DIPC   C4B 8472   0.156  12.473   5.415 -0.0984  0.1353 -0.1718
    1DIPC   NC3 8473  19.573  21.017   6.637 -0.3419 -0.0212 -0.2264
    1DIPC   PO4 8474  19.617  20.800   6.263  0.2336  0.0526 -0.1591
    1DIPC   GL1 8475  19.832  21.030   5.977  0.1453  0.2430  0.0777
    1DIPC   GL2 8476  20.095  20.955   5.774  0.1374  0.1092  0.2403
    1DIPC   C1A 8477  19.750  21.069   5.522  0.1156 -0.2734  0.0106
    1DIPC   D2A 8478  19.731  21.103   5.070 -0.1642 -0.1689  0.2367
    1DIPC   D3A 8479  19.440  21.434   4.984 -0.1845  0.2024  0.1513
    1DIPC   C4A 8480  19.570  21.854   5.110 -0.2356 -0.0983 -0.0687
    1DIPC   C1B 8481  20.177  21.044   5.354 -0.1718  0.1585 -0.1410
    1DIPC   D2B 8482  20.406  21.237   5.046  0.2063 -0.2458  0.2003
    1DIPC   D3B 8483  20.134  21.195   4.733  0.2489 -0.2683  0.0436
    1DIPC   C4B 8484  20.357  21.200   4.266 -0.1659 -0.0867 -0.1548
    1DIPC   NC3 8485  10.068  15.953   5.996  0.0294 -0.0694 -0.0418
    1DIPC   PO4 8486   9.586  15.892   6.167  0.0624  0.0518 -0.1532
    1DIPC   GL1 8487   9.607  16.255   5.940 -0.1388  0.2946  0.4355
    1DIPC   GL2 8488   9.288  16.326   5.808  0.2410 -0.1127  0.0227
    1DIPC   C1A 8489   9.862  16.414   5.624 -0.0790 -0.3230  0.1947
    1DIPC   D2A 8490  10.125  16.498   5.366 -0.2701  0.4149 -0.3387
    1DIPC   D3A 8491   9.904  16.898   5.401  0.3901  0.0618 -0.0618
    1DIPC   C4A 8492  10.049  17.264   5.130 -0.0477 -0.0339  0.0675
    1DIPC   C1B 8493   9.403  16.270   5.380  0.1439 -0.1540  0.0719
    1DIPC   D2B 8494   9.726  16.101   5.143 -0.2655 -0.0889  0.0135
    1DIPC   D3B 8495   9.810  16.493   4.989  0.2283 -0.2028 -0.3138
    1DIPC   C4B 8496  10.218  16.679   4.915  0.2386 -0.1718  0.4746
    1DIPC   NC3 8497   4.110  10.208   7.089 -0.0693 -0.0795  0.1802
    1DIPC   PO4 8498   4.143  10.658   7.063  0.2063 -0.0332 -0.1893
    1DIPC   GL1 8499   4.137  10.688   6.509 -0.0393 -0.1341 -0.0340
    1DIPC   GL2 8500   4.269  10.395   6.598  0.1279  0.1901  0.0371
    1DIPC   C1A 8501   4.016  10.549   6.174 -0.1749 -0.3286  0.2157
    1DIPC   D2A 8502   4.026  10.390   5.762  0.2152  0.3466  0.0739
    1DIPC   D3A 8503   3.935   9.958   5.854 -0.0502 -0.3394  0.0595
    1DIPC   C4A 8504   4.102   9.682   5.629  0.0885  0.1276  0.1252
    1DIPC   C1B 8505   4.156   9.978   6.387 -0.0310  0.0553 -0.1232
    1DIPC   D2B 8506   4.069   9.561   6.261 -0.1404  0.2034  0.1949
    1DIPC   D3B 8507   4.049   9.129   6.222 -0.0590  0.1858 -0.2883
    1DIPC   C4B 8508   4.391   9.055   6.400  0.0609  0.1575 -0.0451
    1DIPC   NC3 8509  11.716   8.323   6.101  0.0041 -0.0116  0.0514
    1DIPC   PO4 8510  11.539   8.667   5.879 -0.1547 -0.0145  0.0066
    1DIPC   GL1 8511  11.459   8.573   5.456  0.2597  0.1544 -0.2179
    1DIPC   GL2 8512  11.138   8.478   5.396  0.1585 -0.1288 -0.0633
    1DIPC   C1A 8513  11.744   8.489   5.149  0.1133  0.3634  0.2103
    1DIPC   D2A 8514  12.135   8.279   5.061  0.0420 -0.1417 -0.2120
    1DIPC   D3A 8515  12.321   7.851   5.042 -0.1100  0.0111 -0.2386
    1DIPC   C4A 8516  12.208   7.444   4.834  0.0964 -0.0381  0.0578
    1DIPC   C1B 8517  10.670   8.641   5.078 -0.0103  0.0506 -0.1156
    1DIPC   D2B 8518  10.523   8.479   4.764  0.0832 -0.0457  0.0246
    1DIPC   D3B 8519  10.569   8.285   4.336  0.0868  0.1402 -0.0413
    1DIPC   C4B 8520  10.749   8.371   3.927  0.3105 -0.0530 -0.0258
    1DIPC   NC3 8521  23.861  19.206   7.738  0.2460  0.1524 -0.0265
    1DIPC   PO4 8522  23.887  18.787   7.435  0.0193 -0.3103 -0.1356
    1DIPC   GL1 8523  24.298  18.835   7.197 -0.0394 -0.1899  0.0532
    1DIPC   GL2 8524  24.348  18.466   6.995  0.0038  0.0124  0.0098
    1DIPC   C1A 8525  24.395  18.948   6.708 -0.2277 -0.0851  0.0502
    1DIPC   D2A 8526  24.448  19.035   6.410 -0.2637  0.0277 -0.0328
    1DIPC   D3A 8527  24.283  18.779   6.140  0.2484  0.0082 -0.2995
    1DIPC   C4A 8528  24.532  18.461   5.878 -0.1167 -0.1094 -0.0241
    1DIPC   C1B 8529  24.104  18.576   6.589 -0.0863 -0.1015 -0.2156
    1DIPC   D2B 8530  23.790  18.503   6.277  0.0019  0.0882  0.0665
    1DIPC   D3B 8531  23.951  18.543   5.786 -0.5720 -0.3001  0.0479
    1DIPC   C4B 8532  23.881  18.498   5.399  0.1701  0.0003  0.0545
    1DIPC   NC3 8533   6.106  10.365   6.715  0.2076  0.2018  0.0796
    1DIPC   PO4 8534   5.791  10.686   6.607  0.0634 -0.0262 -0.0566
    1DIPC   GL1 8535   5.813  10.639   6.165 -0.1378  0.0304  0.1086
    1DIPC   GL2 8536   5.517  10.638   6.113  0.0166 -0.1149 -0.5092
    1DIPC   C1A 8537   6.027  10.288   5.752 -0.2491  0.2795 -0.1297
    1DIPC   D2A 8538   6.015   9.918   5.423 -0.1538 -0.0384  0.0372
    1DIPC   D3A 8539   6.314   9.854   5.710  0.1414  0.0657  0.0078
    1DIPC   C4A 8540   6.420   9.504   5.668  0.1101 -0.0381  0.2597
    1DIPC   C1B 8541   5.633  10.705   5.707  0.1513 -0.2984  0.3926
    1DIPC   D2B 8542   5.561  10.478   5.429 -0.0095  0.0039 -0.0157
    1DIPC   D3B 8543   5.919  10.389   5.276  0.3397  0.0548 -0.1209
    1DIPC   C4B 8544   6.198  10.714   5.171  0.0796  0.0033 -0.2624
    1DIPC   NC3 8545   8.969  10.643   6.148  0.1921 -0.1050  0.1831
    1DIPC   PO4 8546   8.504  10.737   6.252 -0.3850 -0.1013  0.0605
    1DIPC   GL1 8547   8.425  10.732   5.818 -0.0152 -0.0876 -0.1885
    1DIPC   GL2 8548   8.727  10.808   5.728 -0.1933 -0.0612  0.2125
    1DIPC   C1A 8549   8.139  10.991   5.457 -0.0350 -0.1496 -0.1108
    1DIPC   D2A 8550   8.062  11.050   5.028  0.1330  0.0335 -0.0424
    1DIPC   D3A 8551   8.171  10.623   4.962  0.3032  0.1620  0.1730
    1DIPC   C4A 8552   8.058  10.486   4.559  0.2004  0.0545 -0.2499
    1DIPC   C1B 8553   8.931  11.039   5.401  0.0057  0.4123  0.0760
    1DIPC   D2B 8554   9.167  11.145   4.960 -0.0326  0.2592 -0.1374
    1DIPC   D3B 8555   8.761  11.027   4.942  0.0740 -0.3157  0.2180
    1DIPC   C4B 8556   8.553  11.254   5.264  0.2122  0.0376  0.1156
    1DIPC   NC3 8557  24.065  14.880   6.932 -0.0110 -0.2218 -0.0699
    1DIPC   PO4 8558  23.723  14.660   7.158 -0.0188 -0.0271  0.1041
    1DIPC   GL1 8559  23.756  14.556   6.701 -0.1213 -0.0319  0.0393
    1DIPC   GL2 8560  23.998  14.433   6.436 -0.0966  0.0779  0.0790
    1DIPC   C1A 8561  23.576  14.745   6.357  0.0152 -0.1493 -0.0384
    1DIPC   D2A 8562  23.589  15.007   6.018 -0.0768 -0.0723 -0.0038
    1DIPC   D3A 8563  23.792  14.950   5.681  0.0893 -0.1080 -0.1729
    1DIPC   C4A 8564  23.848  15.209   5.333  0.0245 -0.5081 -0.2168
    1DIPC   C1B 8565  24.071  14.239   6.046 -0.0605 -0.0016 -0.1426
    1DIPC   D2B 8566  24.246  14.055   5.700  0.1542  0.1884 -0.1137
    1DIPC   D3B 8567  24.268  13.845   5.365 -0.2746  0.0621 -0.0230
    1DIPC   C4B 8568  24.143  13.465   5.370  0.0180 -0.1061  0.0407
    1DIPC   NC3 8569   9.015   9.096   6.282  0.2277 -0.0848  0.1690
    1DIPC   PO4 8570   8.581   9.124   6.549 -0.0805  0.0743 -0.1364
    1DIPC   GL1 8571   8.570   9.332   6.191  0.1523 -0.3421  0.1951
    1DIPC   GL2 8572   8.749   9.506   6.024  0.0100  0.2944  0.1737
    1DIPC   C1A 8573   8.449   9.234   5.739 -0.0107 -0.2940 -0.0034
    1DIPC   D2A 8574   8.219   9.336   5.366  0.3074  0.1354 -0.1050
    1DIPC   D3A 8575   8.512   9.696   5.249  0.1162 -0.2501 -0.2909
    1DIPC   C4A 8576   8.864   9.744   5.068  0.2061 -0.2305 -0.3421
    1DIPC   C1B 8577   8.590   9.825   5.737 -0.0737 -0.3788 -0.2650
    1DIPC   D2B 8578   8.798  10.322   5.557 -0.0482 -0.0153  0.3157
    1DIPC   D3B 8579   8.739  10.191   5.115  0.4472  0.0429  0.0889
    1DIPC   C4B 8580   8.330  10.164   4.979 -0.2418 -0.1314  0.2774
    1DIPC   NC3 8581   0.158   7.316   7.621  0.0506 -0.4644  0.1652
    1DIPC   PO4 8582   0.246   7.754   7.618 -0.1878  0.1245 -0.1424
    1DIPC   GL1 8583   0.410   7.565   7.248 -0.1505 -0.1012 -0.2286
    1DIPC   GL2 8584   0.460   7.220   7.252 -0.4100 -0.0663  0.2026
    1DIPC   C1A 8585   0.464   7.515   6.857 -0.0253  0.0200 -0.0500
    1DIPC   D2A 8586   0.433   7.554   6.466 -0.2274 -0.0464  0.3805
    1DIPC   D3A 8587   0.249   7.839   6.158 -0.1305  0.2126  0.2941
    1DIPC   C4A 8588  -0.064   8.228   6.287 -0.0580  0.0403  0.1871
    1DIPC   C1B 8589   0.505   6.926   6.913  0.2083 -0.0036 -0.0704
    1DIPC   D2B 8590   0.268   6.812   6.554  0.2333 -0.0272 -0.0613
    1DIPC   D3B 8591   0.392   7.106   6.243  0.0746 -0.1199 -0.0934
    1DIPC   C4B 8592   0.119   7.158   5.956 -0.1182 -0.0406 -0.1959
    1DIPC   NC3 8593   7.520  20.832   6.440  0.1497 -0.0593 -0.0129
    1DIPC   PO4 8594   7.875  20.597   6.550 -0.0957 -0.0521 -0.1003
    1DIPC   GL1 8595   8.200  20.460   6.220 -0.2505 -0.0425 -0.0796
    1DIPC   GL2 8596   8.512  20.316   6.224 -0.0874  0.0526  0.1047
    1DIPC   C1A 8597   8.024  20.390   5.804  0.1008 -0.2262 -0.1822
    1DIPC   D2A 8598   7.785  20.666   5.438 -0.1874 -0.1289  0.3443
    1DIPC   D3A 8599   7.834  20.683   4.928 -0.1685 -0.1708  0.0035
    1DIPC   C4A 8600   7.789  20.380   4.682 -0.2370  0.2303 -0.1177
    1DIPC   C1B 8601   8.500  20.497   5.801  0.2184  0.0746 -0.0588
    1DIPC   D2B 8602   8.466  20.493   5.361  0.2901 -0.2705 -0.5357
    1DIPC   D3B 8603   8.204  20.905   5.529 -0.2403 -0.0865 -0.0523
    1DIPC   C4B 8604   8.315  21.277   5.305 -0.1488 -0.0530  0.1713
    1DIPC   NC3 8605   5.227  22.872   7.181 -0.1079  0.1641  0.2074
    1DIPC   PO4 8606   5.100  22.682   6.758 -0.0843  0.0005 -0.0994
    1DIPC   GL1 8607   4.932  23.088   6.611  0.0404  0.3510  0.1752
    1DIPC   GL2 8608   4.666  23.040   6.446  0.1538 -0.0030 -0.0333
    1DIPC   C1A 8609   4.976  23.443   6.363  0.1505  0.3439  0.2689
    1DIPC   D2A 8610   4.931  23.710   5.918  0.0171  0.0937 -0.0156
    1DIPC   D3A 8611   5.228  23.773   5.692  0.3599 -0.0714 -0.0445
    1DIPC   C4A 8612   5.202  23.969   5.291  0.5249  0.1896 -0.0973
    1DIPC   C1B 8613   4.626  23.189   6.088  0.2113  0.1927  0.0132
    1DIPC   D2B 8614   4.902  23.249   5.688 -0.1909 -0.0225 -0.1349
    1DIPC   D3B 8615   4.781  23.543   5.392 -0.0009  0.1392  0.3536
    1DIPC   C4B 8616   4.404  23.783   5.261  0.1587  0.0782 -0.0454
    1DIPC   NC3 8617  24.268  21.324   6.931 -0.1397 -0.0824  0.0387
    1DIPC   PO4 8618  23.937  21.161   6.676 -0.0253  0.1639  0.4110
    1DIPC   GL1 8619  23.912  21.103   6.269 -0.0953  0.0294  0.0995
    1DIPC   GL2 8620  23.780  21.393   6.244  0.1909 -0.0736 -0.1381
    1DIPC   C1A 8621  24.211  20.996   5.856 -0.2878 -0.1075 -0.3468
    1DIPC   D2A 8622  24.554  21.200   5.872 -0.0690  0.0469  0.0408
    1DIPC   D3A 8623  24.363  21.494   5.519  0.0979  0.0134  0.3057
    1DIPC   C4A 8624  24.070  21.805   5.431 -0.1361 -0.0949 -0.0026
    1DIPC   C1B 8625  23.421  21.194   6.169  0.3439 -0.0074 -0.2385
    1DIPC   D2B 8626  23.133  20.874   5.861 -0.0668  0.2598  0.2401
    1DIPC   D3B 8627  23.015  20.905   5.427  0.0988 -0.0849 -0.3179
    1DIPC   C4B 8628  22.919  21.384   5.252  0.0147 -0.0299  0.0926
    1DIPC   NC3 8629  14.952  21.705   6.805  0.3053 -0.3052 -0.0951
    1DIPC   PO4 8630  14.689  21.613   6.446 -0.2788 -0.0674 -0.1567
    1DIPC   GL1 8631  14.722  22.056   6.271 -0.0569 -0.0372  0.2152
    1DIPC   GL2 8632  14.562  21.876   6.028 -0.1431  0.2531  0.0674
    1DIPC   C1A 8633  14.574  22.418   5.967 -0.1506  0.1660 -0.2379
    1DIPC   D2A 8634  14.510  22.700   5.589  0.0301 -0.1797 -0.0058
    1DIPC   D3A 8635  14.736  22.910   5.307 -0.0904 -0.2784  0.1802
    1DIPC   C4A 8636  14.538  22.865   4.918  0.1358  0.1454  0.3174
    1DIPC   C1B 8637  14.626  22.110   5.596  0.0085 -0.2095  0.1256
    1DIPC   D2B 8638  15.006  22.353   5.529 -0.4005 -0.1196  0.2421
    1DIPC   D3B 8639  15.011  22.673   5.896  0.2440  0.2883  0.0069
    1DIPC   C4B 8640  14.665  22.875   6.013 -0.0492 -0.2038 -0.1339
    1DIPC   NC3 8641  11.245  15.758   6.861 -0.1420  0.3271  0.0146
    1DIPC   PO4 8642  10.953  15.900   6.567 -0.0541  0.0888 -0.2251
    1DIPC   GL1 8643  10.923  16.205   6.369  0.0219  0.0246  0.0204
    1DIPC   GL2 8644  10.683  16.455   6.289  0.0995  0.0304 -0.0658
    1DIPC   C1A 8645  11.192  16.501   6.226 -0.1747 -0.1100 -0.0516
    1DIPC   D2A 8646  11.402  16.410   5.884  0.0477  0.1524 -0.1432
    1DIPC   D3A 8647  11.257  16.118   5.558  0.1669 -0.0849 -0.2582
    1DIPC   C4A 8648  11.018  15.957   5.280  0.1861  0.1318  0.0434
    1DIPC   C1B 8649  10.733  16.785   6.113 -0.0134 -0.0444 -0.0478
    1DIPC   D2B 8650  11.003  16.962   5.807  0.2449  0.0784  0.2119
    1DIPC   D3B 8651  11.151  17.381   5.692  0.1942  0.0722  0.0981
    1DIPC   C4B 8652  11.377  17.349   5.341 -0.1313  0.2931 -0.0139
    1DIPC   NC3 8653  24.741   9.581   7.063 -0.1860  0.0222 -0.0683
    1DIPC   PO4 8654  24.673   9.332   6.689 -0.1386 -0.0153  0.3752
    1DIPC   GL1 8655  24.878   9.687   6.515  0.3404  0.1408 -0.2265
    1DIPC   GL2 8656  24.779   9.910   6.289  0.1529  0.3296 -0.0260
    1DIPC   C1A 8657  25.288   9.864   6.251 -0.0062 -0.0276  0.0041
    1DIPC   D2A 8658  25.217  10.105   5.898 -0.0413  0.0857 -0.1479
    1DIPC   D3A 8659  25.031   9.732   5.781 -0.1019  0.0354  0.1371
    1DIPC   C4A 8660  25.117   9.481   5.504  0.0108  0.0158 -0.0608
    1DIPC   C1B 8661  24.638  10.035   5.892 -0.0810 -0.0111 -0.0008
    1DIPC   D2B 8662  24.810  10.309   5.378  0.1525  0.1448 -0.0080
    1DIPC   D3B 8663  25.172  10.039   5.402 -0.1047  0.0357  0.0232
    1DIPC   C4B 8664  25.246   9.594   5.026  0.0355 -0.1091  0.3384
    1DIPC   NC3 8665  14.012  23.254   7.517  0.2245  0.0061  0.0797
    1DIPC   PO4 8666  14.035  23.647   7.263 -0.0003 -0.1764 -0.0688
    1DIPC   GL1 8667  14.092  23.497   6.769 -0.1010  0.0515 -0.0913
    1DIPC   GL2 8668  13.904  23.325   6.563  0.1178  0.4293 -0.1206
    1DIPC   C1A 8669  14.090  23.747   6.354  0.0220  0.1218 -0.0725
    1DIPC   D2A 8670  13.819  23.959   6.017  0.1979  0.1914 -0.2823
    1DIPC   D3A 8671  13.795  23.612   5.789  0.2606 -0.1198 -0.3645
    1DIPC   C4A 8672  13.985  23.411   5.446  0.0462  0.0166 -0.1231
    1DIPC   C1B 8673  14.115  23.161   6.158  0.0914 -0.1154  0.1021
    1DIPC   D2B 8674  14.119  22.957   5.814  0.1768  0.0534  0.1385
    1DIPC   D3B 8675  13.721  22.997   5.447 -0.3492 -0.1368 -0.2806
    1DIPC   C4B 8676  13.478  23.434   5.393 -0.2647  0.2553 -0.1462
    1DIPC   NC3 8677  12.633  20.172   6.890  0.2953 -0.0645 -0.0405
    1DIPC   PO4 8678  12.267  19.806   6.916  0.2889  0.0257  0.1350
    1DIPC   GL1 8679  12.471  19.966   6.518 -0.0184 -0.0983  0.2089
    1DIPC   GL2 8680  12.602  20.280   6.414 -0.0616 -0.1866  0.1340
    1DIPC   C1A 8681  12.555  19.933   6.060 -0.0999 -0.2477  0.4113
    1DIPC   D2A 8682  12.447  19.990   5.613  0.3039 -0.0581 -0.1994
    1DIPC   D3A 8683  12.012  19.931   5.388 -0.1045 -0.0352  0.3018
    1DIPC   C4A 8684  11.745  19.633   5.540  0.3723  0.1584 -0.0994
    1DIPC   C1B 8685  12.690  20.497   6.002  0.0254 -0.0624  0.1352
    1DIPC   D2B 8686  12.493  20.655   5.673 -0.1139 -0.0517  0.1959
    1DIPC   D3B 8687  12.356  20.372   5.295  0.0173 -0.1854  0.0631
    1DIPC   C4B 8688  12.007  20.307   5.059 -0.5405 -0.3359 -0.2827
    1DIPC   NC3 8689  19.921  28.824   7.154  0.2619 -0.0953  0.0033
    1DIPC   PO4 8690  19.446  28.771   7.186  0.0730  0.1758 -0.2507
    1DIPC   GL1 8691  19.312  28.515   6.775 -0.2490 -0.2514  0.4607
    1DIPC   GL2 8692  19.340  28.705   6.471 -0.0037 -0.0567  0.0714
    1DIPC   C1A 8693  19.516  28.272   6.405 -0.0524 -0.2166  0.0951
    1DIPC   D2A 8694  19.574  28.064   6.085  0.0139  0.0875  0.0601
    1DIPC   D3A 8695  19.827  28.330   5.802 -0.0055  0.0598  0.0310
    1DIPC   C4A 8696  19.775  28.109   5.353 -0.1277 -0.2362 -0.0130
    1DIPC   C1B 8697  19.592  28.649   6.063 -0.1587 -0.0095  0.1404
    1DIPC   D2B 8698  19.461  28.654   5.673  0.2610 -0.2554 -0.2086
    1DIPC   D3B 8699  19.106  28.896   5.889  0.0723  0.1047 -0.0261
    1DIPC   C4B 8700  18.812  28.686   6.016 -0.0788  0.0748 -0.0583
    1DIPC   NC3 8701  27.340   9.387   7.715  0.1077  0.0262  0.1585
    1DIPC   PO4 8702  27.269   9.383   7.298 -0.1914  0.0953  0.1424
    1DIPC   GL1 8703  27.209   9.325   6.794 -0.1039  0.2585  0.3401
    1DIPC   GL2 8704  27.106   9.059   6.573  0.1837 -0.0696  0.0578
    1DIPC   C1A 8705  27.232   9.500   6.337 -0.0032 -0.0937 -0.1501
    1DIPC   D2A 8706  27.368   9.373   6.046  0.0786 -0.2807 -0.2090
    1DIPC   D3A 8707  27.352   9.058   6.149 -0.0499 -0.1480 -0.3266
    1DIPC   C4A 8708  27.149   8.864   5.800  0.1344  0.1466  0.2429
    1DIPC   C1B 8709  26.952   8.702   6.367 -0.0447  0.1292 -0.0828
    1DIPC   D2B 8710  26.694   8.603   5.945 -0.2996  0.1579 -0.4012
    1DIPC   D3B 8711  26.437   8.718   5.492  0.3904  0.1073 -0.1098
    1DIPC   C4B 8712  26.355   9.059   5.339 -0.3968  0.1265 -0.0425
    1DIPC   NC3 8713  14.151  14.036   6.016 -0.1706 -0.1703 -0.3553
    1DIPC   PO4 8714  14.106  13.565   6.024 -0.1898  0.1217 -0.2385
    1DIPC   GL1 8715  14.225  13.728   5.600 -0.1188 -0.1533 -0.1390
    1DIPC   GL2 8716  14.509  13.510   5.471 -0.2003  0.3215  0.1915
    1DIPC   C1A 8717  13.986  13.784   5.229  0.4028 -0.2104 -0.1784
    1DIPC   D2A 8718  13.785  13.493   5.031 -0.3792 -0.1166  0.2514
    1DIPC   D3A 8719  14.037  13.211   4.735  0.2587 -0.0025  0.1869
    1DIPC   C4A 8720  13.932  12.927   4.317 -0.1390  0.1119 -0.0153
    1DIPC   C1B 8721  14.347  13.588   4.984 -0.1783 -0.1686  0.0534
    1DIPC   D2B 8722  14.070  13.686   4.642 -0.0536 -0.3180 -0.1712
    1DIPC   D3B 8723  13.788  13.984   4.778  0.2391 -0.2131 -0.0262
    1DIPC   C4B 8724  13.834  14.405   4.596 -0.1994  0.1349 -0.0716
    1DIPC   NC3 8725   2.220   3.774   8.343  0.1138 -0.0596 -0.0489
    1DIPC   PO4 8726   2.473   3.822   8.091 -0.0784  0.0543  0.1700
    1DIPC   GL1 8727   2.406   3.539   7.710 -0.2121 -0.0687  0.0094
    1DIPC   GL2 8728   2.198   3.213   7.667 -0.1926  0.1756  0.0159
    1DIPC   C1A 8729   2.316   3.606   7.285  0.2338 -0.2369  0.1929
    1DIPC   D2A 8730   1.877   3.691   7.030 -0.0241 -0.2165  0.1773
    1DIPC   D3A 8731   1.931   3.316   6.893  0.1509 -0.4001 -0.0004
    1DIPC   C4A 8732   2.300   3.226   6.722  0.1175 -0.0378  0.1292
    1DIPC   C1B 8733   2.455   3.018   7.228  0.1225  0.1179  0.0100
    1DIPC   D2B 8734   2.708   2.622   7.296  0.0772  0.3521 -0.3200
    1DIPC   D3B 8735   2.357   2.417   7.190  0.1793 -0.0581 -0.0194
    1DIPC   C4B 8736   2.148   2.067   7.458 -0.1799  0.4666  0.1309
    1DIPC   NC3 8737  14.941  24.024   7.302 -0.1800 -0.3181 -0.1607
    1DIPC   PO4 8738  15.086  23.807   6.886 -0.1962  0.2518  0.2179
    1DIPC   GL1 8739  15.082  23.551   6.514 -0.3947 -0.0763 -0.5484
    1DIPC   GL2 8740  15.385  23.632   6.259 -0.0814  0.1053  0.2059
    1DIPC   C1A 8741  15.100  23.222   6.157  0.3726  0.1170 -0.2187
    1DIPC   D2A 8742  14.912  23.281   5.722  0.0022  0.0744 -0.4180
    1DIPC   D3A 8743  14.996  23.354   5.405  0.3662  0.0908  0.1405
    1DIPC   C4A 8744  15.231  23.646   5.064  0.1066  0.1166  0.3628
    1DIPC   C1B 8745  15.245  23.965   6.106 -0.2662 -0.0350 -0.2358
    1DIPC   D2B 8746  15.345  24.387   5.962  0.2240  0.1094 -0.0388
    1DIPC   D3B 8747  14.942  24.533   5.852 -0.2460 -0.1074  0.0569
    1DIPC   C4B 8748  14.712  24.163   5.828 -0.1965  0.2018 -0.1344
    1DIPC   NC3 8749  20.760  16.010   6.709 -0.3152  0.0224  0.1941
    1DIPC   PO4 8750  20.506  16.414   6.392 -0.3242 -0.1795  0.0185
    1DIPC   GL1 8751  20.502  16.259   6.044 -0.0892 -0.1268  0.3613
    1DIPC   GL2 8752  20.313  16.404   5.892  0.0238  0.2207 -0.1651
    1DIPC   C1A 8753  20.789  16.068   5.748  0.1445  0.0875 -0.1152
    1DIPC   D2A 8754  20.844  15.808   5.411  0.2310 -0.1562  0.1395
    1DIPC   D3A 8755  21.192  15.539   5.343 -0.2687 -0.1812 -0.1948
    1DIPC   C4A 8756  21.585  15.554   5.361 -0.1198 -0.1884 -0.0020
    1DIPC   C1B 8757  20.369  16.580   5.443  0.1217  0.2219 -0.0245
    1DIPC   D2B 8758  20.239  16.764   5.019 -0.2069 -0.3068 -0.2994
    1DIPC   D3B 8759  20.281  16.574   4.657 -0.0924  0.0413  0.2970
    1DIPC   C4B 8760  19.968  16.690   4.313 -0.0041  0.0304  0.3305
    1DIPC   NC3 8761  27.484   1.384   8.390 -0.1979  0.0348 -0.0080
    1DIPC   PO4 8762  27.395   1.801   8.104 -0.1809 -0.0352  0.0774
    1DIPC   GL1 8763  27.404   1.795   7.668 -0.2019 -0.2884 -0.3878
    1DIPC   GL2 8764  27.329   2.064   7.570 -0.0367  0.2046 -0.0546
    1DIPC   C1A 8765  27.574   1.803   7.237 -0.2756  0.0793  0.0732
    1DIPC   D2A 8766  27.674   1.358   7.072  0.2762  0.1597 -0.0550
    1DIPC   D3A 8767  27.455   1.471   6.749 -0.0485  0.0090  0.2342
    1DIPC   C4A 8768  27.650   1.605   6.440 -0.2514 -0.3229  0.0655
    1DIPC   C1B 8769  27.435   2.255   7.120 -0.0373 -0.2874  0.2183
    1DIPC   D2B 8770  27.591   2.004   6.776 -0.0363  0.0351  0.1466
    1DIPC   D3B 8771  27.883   2.087   6.920 -0.0937  0.0381 -0.1256
    1DIPC   C4B 8772  27.886   2.467   6.953 -0.0445  0.2192 -0.0269
    1DIPC   NC3 8773  10.488  12.887   5.849  0.1681  0.0102 -0.2500
    1DIPC   PO4 8774  10.351  13.293   5.941 -0.0193 -0.2576 -0.0544
    1DIPC   GL1 8775  10.255  13.241   5.472  0.0592  0.2088  0.1400
    1DIPC   GL2 8776  10.323  13.040   5.328 -0.0647 -0.2108  0.0674
    1DIPC   C1A 8777  10.158  13.438   5.071 -0.0238  0.1995 -0.0580
    1DIPC   D2A 8778   9.762  13.605   4.886 -0.2379  0.0229 -0.0847
    1DIPC   D3A 8779   9.872  13.965   4.613 -0.2115  0.0425  0.3043
    1DIPC   C4A 8780  10.292  14.082   4.353  0.2517 -0.3020 -0.0079
    1DIPC   C1B 8781  10.344  12.936   4.878 -0.0945 -0.0707 -0.1312
    1DIPC   D2B 8782  10.008  13.171   4.595  0.1822  0.0865  0.1995
    1DIPC   D3B 8783  10.216  13.527   4.514  0.0700 -0.0028 -0.2644
    1DIPC   C4B 8784  10.399  13.793   4.838  0.1350 -0.3232 -0.1367
    1DIPC   NC3 8785  21.585  15.006   6.128 -0.1700  0.0074  0.0427
    1DIPC   PO4 8786  21.101  14.763   6.153  0.0175  0.0296  0.0347
    1DIPC   GL1 8787  21.262  14.891   5.755  0.0089  0.1794  0.0990
    1DIPC   GL2 8788  21.267  14.650   5.580  0.0876  0.1599  0.0879
    1DIPC   C1A 8789  21.203  15.079   5.327  0.1731 -0.0914 -0.0019
    1DIPC   D2A 8790  21.371  15.167   5.041 -0.0216  0.1814 -0.2564
    1DIPC   D3A 8791  21.065  14.968   4.719  0.0357  0.2291 -0.0676
    1DIPC   C4A 8792  20.557  15.037   4.750 -0.0212  0.0522 -0.1867
    1DIPC   C1B 8793  21.307  14.525   5.140  0.1737  0.0935 -0.1416
    1DIPC   D2B 8794  21.310  14.520   4.638 -0.0155  0.3914 -0.4123
    1DIPC   D3B 8795  21.066  14.621   4.259  0.7849  0.1582 -0.0967
    1DIPC   C4B 8796  20.967  15.030   4.189  0.0905  0.2257 -0.0193
    1DIPC   NC3 8797   8.636  26.929   7.461  0.1481  0.1553  0.1130
    1DIPC   PO4 8798   8.504  26.566   7.421 -0.1221 -0.2669  0.0545
    1DIPC   GL1 8799   8.531  26.564   7.077  0.2011 -0.3967  0.2716
    1DIPC   GL2 8800   8.649  26.383   6.856 -0.0102 -0.2562 -0.0296
    1DIPC   C1A 8801   8.585  26.905   6.748  0.1305 -0.0523 -0.0364
    1DIPC   D2A 8802   8.791  27.060   6.365  0.1749  0.1433 -0.0390
    1DIPC   D3A 8803   8.503  26.807   6.008 -0.0469 -0.1175  0.0687
    1DIPC   C4A 8804   8.035  27.024   5.821 -0.1131  0.0129  0.1426
    1DIPC   C1B 8805   8.983  26.072   6.623  0.1271  0.0875 -0.1438
    1DIPC   D2B 8806   9.234  26.254   6.260  0.1955  0.1355 -0.2704
    1DIPC   D3B 8807   9.525  26.520   5.927  0.1816  0.1485 -0.0624
    1DIPC   C4B 8808   9.467  26.645   5.556 -0.1259 -0.0322  0.2624
    1DIPC   NC3 8809  14.977  21.164   6.491  0.1815 -0.0837  0.0612
    1DIPC   PO4 8810  15.207  21.499   6.386 -0.2468 -0.1325 -0.3997
    1DIPC   GL1 8811  15.039  21.699   6.017 -0.1379 -0.0232  0.0654
    1DIPC   GL2 8812  15.136  22.073   5.922 -0.1679 -0.1705  0.0296
    1DIPC   C1A 8813  14.787  21.567   5.638 -0.1737 -0.1639  0.2120
    1DIPC   D2A 8814  14.813  21.464   5.186  0.1849 -0.0515  0.1228
    1DIPC   D3A 8815  14.583  21.083   5.409 -0.4054  0.0269  0.2962
    1DIPC   C4A 8816  14.348  20.772   5.138  0.0168 -0.1554  0.1019
    1DIPC   C1B 8817  15.153  21.910   5.489 -0.2018  0.2787  0.0063
    1DIPC   D2B 8818  14.925  21.979   5.061  0.3760  0.2424  0.0956
    1DIPC   D3B 8819  14.398  21.846   4.994 -0.2318  0.2172  0.3207
    1DIPC   C4B 8820  14.301  21.727   4.603  0.1011 -0.0581 -0.0391
    1DIPC   NC3 8821  28.460  23.482   7.255  0.2725 -0.1244 -0.0420
    1DIPC   PO4 8822  28.804  23.676   7.262 -0.2611 -0.0580 -0.0251
    1DIPC   GL1 8823  28.575  23.902   6.958 -0.1023  0.0051 -0.0731
    1DIPC   GL2 8824  28.250  23.833   6.935  0.3531  0.2444 -0.1873
    1DIPC   C1A 8825  28.552  24.079   6.544  0.0729  0.0527  0.0352
    1DIPC   D2A 8826  28.564  24.127   6.069  0.0419  0.0152 -0.2034
    1DIPC   D3A 8827  28.235  24.143   5.743 -0.1881 -0.1227 -0.3416
    1DIPC   C4A 8828  27.788  24.037   5.823  0.3960  0.0332 -0.0134
    1DIPC   C1B 8829  28.042  24.018   6.653  0.1933  0.2227  0.1834
    1DIPC   D2B 8830  27.837  24.207   6.399 -0.0726  0.0095 -0.0428
    1DIPC   D3B 8831  27.700  23.699   6.258  0.0798  0.2199 -0.1510
    1DIPC   C4B 8832  27.491  23.516   5.883 -0.0164  0.0077 -0.0818
    1DIPC   NC3 8833   3.760   0.487   8.274  0.0397 -0.1244  0.0867
    1DIPC   PO4 8834   4.004   0.443   7.897 -0.0418  0.2425  0.1041
    1DIPC   GL1 8835   4.380   0.477   7.634 -0.0778  0.1188 -0.1847
    1DIPC   GL2 8836   4.412   0.273   7.359 -0.0852 -0.1720  0.0138
    1DIPC   C1A 8837   4.342   0.812   7.296  0.1142 -0.0473  0.2549
    1DIPC   D2A 8838   4.334   0.986   6.962  0.0352 -0.2360  0.2438
    1DIPC   D3A 8839   4.059   0.755   6.708  0.1760 -0.0117  0.1010
    1DIPC   C4A 8840   4.260   0.484   6.392 -0.2186 -0.2323  0.2302
    1DIPC   C1B 8841   4.389   0.348   6.860  0.1984 -0.1505 -0.0730
    1DIPC   D2B 8842   4.427   0.038   6.565  0.2753 -0.0433  0.0178
    1DIPC   D3B 8843   4.684  -0.383   6.367  0.0580  0.0909  0.4324
    1DIPC   C4B 8844   4.851  -0.275   6.024 -0.0310 -0.1463 -0.1058
    1DIPC   NC3 8845  27.833   0.624   8.381 -0.2937  0.0840 -0.0482
    1DIPC   PO4 8846  27.611   0.187   8.381  0.2370  0.3139  0.0821
    1DIPC   GL1 8847  27.587  -0.045   8.026  0.3702 -0.1725  0.2033
    1DIPC   GL2 8848  27.364   0.086   7.864  0.3421  0.1392 -0.0448
    1DIPC   C1A 8849  27.739  -0.137   7.595 -0.0959 -0.0171  0.3140
    1DIPC   D2A 8850  27.763  -0.215   7.117  0.0823  0.1979 -0.1344
    1DIPC   D3A 8851  28.162  -0.061   7.180 -0.1447  0.0082 -0.0327
    1DIPC   C4A 8852  28.372  -0.186   7.555  0.0460  0.3880 -0.3488
    1DIPC   C1B 8853  27.348   0.207   7.509 -0.0642  0.1471  0.0351
    1DIPC   D2B 8854  27.260  -0.198   7.271 -0.0313  0.0805  0.2689
    1DIPC   D3B 8855  27.486  -0.611   6.984 -0.3416 -0.0752 -0.2950
    1DIPC   C4B 8856  27.600  -0.581   6.661  0.1053 -0.2694 -0.0237
    1DIPC   NC3 8857   4.441  23.208   7.681  0.3613  0.2646 -0.0080
    1DIPC   PO4 8858   4.425  23.556   7.345 -0.0412 -0.0979 -0.1700
    1DIPC   GL1 8859   4.456  23.767   6.906  0.3360 -0.1759  0.1932
    1DIPC   GL2 8860   4.471  23.542   6.675 -0.0262 -0.0565  0.0035
    1DIPC   C1A 8861   4.763  23.907   6.555 -0.0532 -0.2272  0.1787
    1DIPC   D2A 8862   5.133  24.157   6.272 -0.5650  0.2151 -0.0120
    1DIPC   D3A 8863   5.226  24.589   6.492  0.3165 -0.1797 -0.0698
    1DIPC   C4A 8864   4.859  24.779   6.610 -0.0432 -0.1151  0.1405
    1DIPC   C1B 8865   4.490  23.596   6.253  0.1249 -0.0654  0.0417
    1DIPC   D2B 8866   4.475  23.575   5.784  0.3117 -0.2683  0.0649
    1DIPC   D3B 8867   4.164  23.969   5.616  0.2277 -0.2898 -0.1945
    1DIPC   C4B 8868   3.665  24.137   5.721  0.0061  0.0563  0.3550
    1DIPC   NC3 8869   7.320  17.779   6.764 -0.0360  0.0520  0.2098
    1DIPC   PO4 8870   7.174  17.422   6.401 -0.2409  0.2600  0.3251
    1DIPC   GL1 8871   6.934  17.485   6.029  0.1523 -0.0969  0.1508
    1DIPC   GL2 8872   7.126  17.724   5.935  0.0872 -0.4433 -0.2477
    1DIPC   C1A 8873   7.009  17.351   5.524  0.0102 -0.0276 -0.0142
    1DIPC   D2A 8874   7.031  17.344   5.075 -0.2359 -0.0350  0.0843
    1DIPC   D3A 8875   6.776  17.322   4.699 -0.0513 -0.0289 -0.2040
    1DIPC   C4A 8876   6.598  17.525   4.263 -0.0183 -0.1967 -0.0799
    1DIPC   C1B 8877   7.238  17.799   5.530 -0.0549 -0.0610 -0.1557
    1DIPC   D2B 8878   7.020  17.907   5.192 -0.0317 -0.3772  0.1716
    1DIPC   D3B 8879   7.198  17.960   4.851 -0.2774 -0.0542 -0.1831
    1DIPC   C4B 8880   7.485  18.210   4.848 -0.0951 -0.0429 -0.3468
    1DIPC   NC3 8881  24.188   2.841   7.420 -0.2072  0.0465  0.2506
    1DIPC   PO4 8882  24.151   2.442   7.259 -0.2367 -0.0226  0.2855
    1DIPC   GL1 8883  24.141   2.492   6.910 -0.3274  0.3560 -0.1128
    1DIPC   GL2 8884  23.887   2.567   6.688  0.2658  0.3248 -0.3513
    1DIPC   C1A 8885  24.204   2.263   6.515 -0.0277 -0.0951 -0.2806
    1DIPC   D2A 8886  24.092   2.522   6.172  0.0843  0.0543  0.0610
    1DIPC   D3A 8887  24.211   2.628   5.878 -0.0417  0.0764  0.3436
    1DIPC   C4A 8888  24.547   2.579   5.640  0.1222  0.0028 -0.3034
    1DIPC   C1B 8889  24.317   2.777   6.512 -0.2535 -0.3187 -0.0096
    1DIPC   D2B 8890  24.564   3.218   6.474 -0.2565 -0.1413 -0.1678
    1DIPC   D3B 8891  24.829   3.647   6.459 -0.1686  0.2075 -0.2567
    1DIPC   C4B 8892  24.818   3.978   6.149 -0.1435  0.1080 -0.0918
    1DIPC   NC3 8893  26.233  15.920   7.589 -0.3389  0.0529  0.0632
    1DIPC   PO4 8894  26.613  15.712   7.400 -0.2249  0.1815 -0.2386
    1DIPC   GL1 8895  26.806  15.968   7.050  0.0701 -0.2337  0.0045
    1DIPC   GL2 8896  27.123  15.950   7.005  0.0827  0.1160  0.0310
    1DIPC   C1A 8897  26.952  16.000   6.557 -0.0622 -0.1224 -0.0344
    1DIPC   D2A 8898  26.833  15.772   6.252  0.1182 -0.0974 -0.1755
    1DIPC   D3A 8899  26.398  15.875   6.112  0.1845 -0.1632  0.0142
    1DIPC   C4A 8900  25.996  15.733   6.393 -0.0897 -0.1166  0.2260
    1DIPC   C1B 8901  27.466  15.873   6.693  0.0437  0.2589 -0.0488
    1DIPC   D2B 8902  27.555  15.929   6.229 -0.0807  0.0908  0.1037
    1DIPC   D3B 8903  27.202  16.154   6.171  0.0382 -0.1483 -0.0731
    1DIPC   C4B 8904  26.945  16.046   5.881  0.2653  0.0414 -0.3232
    1DIPC   NC3 8905  11.067   5.952   6.522 -0.0057  0.0330 -0.0222
    1DIPC   PO4 8906  10.644   6.112   6.413 -0.1237  0.2607 -0.1980
    1DIPC   GL1 8907  10.422   6.235   6.028 -0.2657  0.1193  0.0658
    1DIPC   GL2 8908  10.234   6.541   5.953 -0.2958 -0.0724  0.0405
    1DIPC   C1A 8909  10.452   6.066   5.613 -0.1153  0.1646  0.0249
    1DIPC   D2A 8910  10.658   5.670   5.434 -0.0554 -0.1190 -0.1254
    1DIPC   D3A 8911  10.517   5.802   5.007 -0.0109 -0.0041  0.1952
    1DIPC   C4A 8912  10.329   6.119   4.810  0.1046  0.4663 -0.0129
    1DIPC   C1B 8913  10.030   6.372   5.691  0.2747  0.0943 -0.0572
    1DIPC   D2B 8914   9.649   6.116   5.527  0.0320  0.0964  0.1061
    1DIPC   D3B 8915   9.718   6.057   5.048  0.1029  0.1346  0.2115
    1DIPC   C4B 8916   9.625   5.663   4.942  0.2572  0.0771  0.0030
    1DIPC   NC3 8917  24.971   2.429   7.911 -0.0138 -0.1456 -0.2529
    1DIPC   PO4 8918  25.387   2.207   7.724 -0.1938 -0.2163 -0.1266
    1DIPC   GL1 8919  25.634   2.227   7.356  0.0331 -0.0933 -0.4868
    1DIPC   GL2 8920  25.798   1.938   7.190  0.0711  0.0777 -0.0785
    1DIPC   C1A 8921  25.667   2.343   6.926  0.0040 -0.1188  0.1850
    1DIPC   D2A 8922  25.686   2.531   6.570  0.6999 -0.0580  0.1627
    1DIPC   D3A 8923  25.893   2.302   6.318  0.0163 -0.0187 -0.1203
    1DIPC   C4A 8924  26.104   2.370   5.999  0.0334  0.2290  0.3282
    1DIPC   C1B 8925  25.899   1.952   6.690  0.2910 -0.0891 -0.0224
    1DIPC   D2B 8926  26.168   1.798   6.513  0.0610  0.1511 -0.2121
    1DIPC   D3B 8927  26.235   1.852   6.130 -0.2079  0.5005  0.1846
    1DIPC   C4B 8928  26.249   2.004   5.600 -0.4055  0.2481  0.0381
    1DIPC   NC3 8929   8.046  11.868   5.917 -0.1795  0.1436 -0.0268
    1DIPC   PO4 8930   7.607  12.079   5.918 -0.3146 -0.0128 -0.0847
    1DIPC   GL1 8931   7.624  12.158   5.458  0.2204 -0.1345 -0.0117
    1DIPC   GL2 8932   7.916  11.979   5.411 -0.0837 -0.0029 -0.1071
    1DIPC   C1A 8933   7.608  12.279   5.044 -0.1736 -0.1046 -0.2039
    1DIPC   D2A 8934   7.552  12.487   4.779  0.0029 -0.0507  0.0036
    1DIPC   D3A 8935   7.956  12.448   4.572 -0.2380  0.1340  0.1986
    1DIPC   C4A 8936   8.062  12.247   4.258  0.3682 -0.1149 -0.0716
    1DIPC   C1B 8937   8.122  12.015   5.029  0.0380  0.1182 -0.3170
    1DIPC   D2B 8938   8.329  11.977   4.632 -0.3500  0.0239  0.0147
    1DIPC   D3B 8939   8.761  11.824   4.591 -0.1776  0.0443 -0.0092
    1DIPC   C4B 8940   8.908  11.662   4.145  0.2661  0.1642  0.1410
    1DIPC   NC3 8941   8.852  19.260   6.638 -0.1766 -0.0756  0.0519
    1DIPC   PO4 8942   8.445  19.215   6.636 -0.1448 -0.1572 -0.0727
    1DIPC   GL1 8943   8.620  19.216   6.169 -0.0608  0.1392 -0.1330
    1DIPC   GL2 8944   8.733  18.980   5.945  0.0540  0.1395 -0.1572
    1DIPC   C1A 8945   8.515  19.472   5.839 -0.2217  0.2841 -0.0638
    1DIPC   D2A 8946   8.295  19.616   5.477  0.3483  0.0504 -0.1707
    1DIPC   D3A 8947   8.321  19.717   5.017 -0.2467  0.1384 -0.2635
    1DIPC   C4A 8948   8.008  19.969   4.806 -0.1182  0.2227  0.3421
    1DIPC   C1B 8949   8.808  19.079   5.509 -0.0184  0.0810 -0.0617
    1DIPC   D2B 8950   8.719  19.406   5.218 -0.1005 -0.2586 -0.2430
    1DIPC   D3B 8951   9.088  19.235   5.083 -0.1512  0.1084 -0.1335
    1DIPC   C4B 8952   9.123  18.758   5.347 -0.1825 -0.0265  0.1486
    1DIPC   NC3 8953  17.951  27.028   6.996  0.2850 -0.0403 -0.1019
    1DIPC   PO4 8954  18.398  27.033   7.014 -0.0382  0.0577  0.0914
    1DIPC   GL1 8955  18.409  26.880   6.617 -0.0252  0.2297  0.0302
    1DIPC   GL2 8956  18.344  27.135   6.359 -0.1455 -0.0747 -0.2256
    1DIPC   C1A 8957  18.326  26.543   6.394  0.1576  0.1141  0.1638
    1DIPC   D2A 8958  18.410  26.474   5.973  0.1017  0.0723 -0.0800
    1DIPC   D3A 8959  18.622  26.696   5.696 -0.0190  0.0100 -0.0331
    1DIPC   C4A 8960  18.911  26.458   5.380 -0.3804 -0.3044 -0.1864
    1DIPC   C1B 8961  18.703  26.980   6.221 -0.0967  0.1128  0.2603
    1DIPC   D2B 8962  18.873  27.120   5.786  0.1906 -0.1458  0.0688
    1DIPC   D3B 8963  19.123  26.867   5.525  0.0038  0.1549  0.0273
    1DIPC   C4B 8964  19.371  26.522   5.696 -0.4055  0.0448  0.1813
    1DIPC   NC3 8965   8.291   5.742   6.922  0.0753 -0.1426 -0.1185
    1DIPC   PO4 8966   8.688   5.528   6.831 -0.2217 -0.1957 -0.0738
    1DIPC   GL1 8967   8.527   5.585   6.411  0.1033 -0.2814  0.0137
    1DIPC   GL2 8968   8.289   5.412   6.441  0.0082 -0.1966 -0.0448
    1DIPC   C1A 8969   8.403   5.506   6.029  0.0525  0.4601  0.3408
    1DIPC   D2A 8970   8.037   5.582   5.855  0.0100  0.1398 -0.1312
    1DIPC   D3A 8971   8.249   5.101   5.768 -0.0450 -0.2715 -0.0666
    1DIPC   C4A 8972   8.733   5.133   5.862  0.0142 -0.1566 -0.1093
    1DIPC   C1B 8973   8.076   5.052   6.276 -0.0587  0.0255 -0.0955
    1DIPC   D2B 8974   7.683   4.972   6.054 -0.3215  0.5263 -0.1056
    1DIPC   D3B 8975   7.981   4.660   5.824 -0.0442  0.0270  0.1072
    1DIPC   C4B 8976   8.396   4.618   5.634  0.3252 -0.2139 -0.1171
    1DIPC   NC3 8977   0.853  25.832   8.304  0.1245 -0.3071  0.2436
    1DIPC   PO4 8978   0.608  25.479   8.035 -0.3129  0.0930 -0.0703
    1DIPC   GL1 8979   0.597  25.470   7.562  0.0810 -0.0160  0.0377
    1DIPC   GL2 8980   0.550  25.742   7.500  0.2513 -0.0691 -0.0320
    1DIPC   C1A 8981   0.373  25.391   7.128  0.0656 -0.2180  0.0865
    1DIPC   D2A 8982   0.362  25.068   6.796 -0.1546 -0.2244 -0.1075
    1DIPC   D3A 8983   0.499  25.404   6.549  0.0642 -0.0490  0.0768
    1DIPC   C4A 8984   0.647  25.503   6.179 -0.2207 -0.0441  0.2390
    1DIPC   C1B 8985   1.015  25.741   7.397 -0.0407 -0.1854  0.0015
    1DIPC   D2B 8986   1.331  25.359   7.317 -0.3876 -0.2367  0.2191
    1DIPC   D3B 8987   0.996  25.212   7.300  0.0095 -0.1545  0.3632
    1DIPC   C4B 8988   0.883  25.487   6.938  0.4264  0.2546  0.0314
    1DIPC   NC3 8989  10.874  27.671   6.943  0.2793  0.1494  0.2003
    1DIPC   PO4 8990  10.577  27.545   7.210  0.1415  0.0488  0.1399
    1DIPC   GL1 8991  10.260  27.700   6.913  0.1065 -0.0580 -0.1116
    1DIPC   GL2 8992  10.179  27.344   6.678  0.0896  0.0246  0.2983
    1DIPC   C1A 8993   9.963  27.772   6.588  0.0027 -0.0246 -0.1541
    1DIPC   D2A 8994   9.704  28.072   6.435  0.2056 -0.6881  0.1475
    1DIPC   D3A 8995   9.707  28.311   6.082  0.2088 -0.2100 -0.3458
    1DIPC   C4A 8996   9.870  28.236   5.745 -0.1590  0.2163  0.0371
    1DIPC   C1B 8997  10.321  27.073   6.342 -0.2283  0.3579  0.0588
    1DIPC   D2B 8998  10.646  27.145   6.040 -0.3313  0.0342  0.0031
    1DIPC   D3B 8999  10.662  26.866   5.691  0.2484 -0.0401  0.0672
    1DIPC   C4B 9000  11.026  26.757   5.431 -0.0397 -0.0965  0.2108
    1DIPC   NC3 9001  14.907   8.239   5.626  0.1512  0.0526  0.1484
    1DIPC   PO4 9002  14.957   8.604   5.604  0.2253  0.1835 -0.2227
    1DIPC   GL1 9003  14.894   8.854   5.270 -0.1527  0.1738  0.1113
    1DIPC   GL2 9004  15.175   9.034   5.209  0.1353 -0.4413  0.0257
    1DIPC   C1A 9005  14.517   8.863   5.131  0.0548 -0.1131 -0.2161
    1DIPC   D2A 9006  14.189   8.996   4.822 -0.0745 -0.3161 -0.2667
    1DIPC   D3A 9007  13.923   8.948   5.030  0.0852  0.2363  0.4925
    1DIPC   C4A 9008  13.696   9.053   4.737 -0.2244  0.0465 -0.0311
    1DIPC   C1B 9009  15.204   8.768   4.818 -0.0876 -0.4155  0.3727
    1DIPC   D2B 9010  15.242   8.745   4.393  0.1363 -0.0253 -0.0584
    1DIPC   D3B 9011  15.084   8.521   4.154 -0.0201 -0.2841  0.0792
    1DIPC   C4B 9012  15.181   8.116   3.979 -0.0440 -0.0210 -0.0848
    1DIPC   NC3 9013  25.798   5.975   7.632 -0.1319 -0.1389 -0.0851
    1DIPC   PO4 9014  25.333   5.900   7.564 -0.2211  0.0167 -0.2424
    1DIPC   GL1 9015  25.611   5.834   7.191  0.0119  0.1406 -0.2196
    1DIPC   GL2 9016  25.658   5.482   7.216  0.1728  0.1419  0.0408
    1DIPC   C1A 9017  25.464   6.072   6.817 -0.3039 -0.2890  0.2131
    1DIPC   D2A 9018  25.430   5.996   6.327  0.3251  0.1772 -0.0304
    1DIPC   D3A 9019  25.822   5.723   6.283 -0.2018 -0.0099 -0.1053
    1DIPC   C4A 9020  26.206   5.856   6.083  0.0319  0.0387  0.1515
    1DIPC   C1B 9021  25.665   5.389   6.691 -0.1005 -0.1130 -0.0611
    1DIPC   D2B 9022  25.876   5.062   6.377  0.0835 -0.1506 -0.1048
    1DIPC   D3B 9023  25.588   5.113   5.994 -0.2472  0.1191  0.1840
    1DIPC   C4B 9024  25.143   5.230   5.795 -0.2121  0.3470 -0.0250
    1DIPC   NC3 9025   7.552  11.585   6.113  0.1827 -0.2162  0.1590
    1DIPC   PO4 9026   7.864  11.464   6.130 -0.1534 -0.0429 -0.3635
    1DIPC   GL1 9027   7.684  11.196   5.702  0.3521  0.0845  0.5347
    1DIPC   GL2 9028   7.388  11.137   5.915  0.0657  0.2207 -0.0323
    1DIPC   C1A 9029   7.608  11.106   5.235  0.0687  0.0444 -0.0616
    1DIPC   D2A 9030   7.450  11.227   4.787  0.0853  0.2973  0.1677
    1DIPC   D3A 9031   7.312  11.100   4.366  0.0611  0.0716 -0.0368
    1DIPC   C4A 9032   7.651  11.081   3.939 -0.2277  0.1178 -0.0847
    1DIPC   C1B 9033   7.050  11.036   5.597 -0.0235  0.1288  0.3158
    1DIPC   D2B 9034   6.777  10.880   5.321  0.5034 -0.4113  0.0759
    1DIPC   D3B 9035   6.590  10.756   5.683 -0.2472 -0.1832  0.0553
    1DIPC   C4B 9036   6.152  10.752   5.639  0.4011  0.1207 -0.2324
    1DIPC   NC3 9037  16.664  17.561   6.286  0.0273 -0.1140  0.2155
    1DIPC   PO4 9038  16.485  17.766   6.089  0.0859 -0.4180 -0.1856
    1DIPC   GL1 9039  16.589  17.337   5.852  0.0537  0.6146  0.1419
    1DIPC   GL2 9040  16.388  17.115   5.833  0.2948  0.2512 -0.2176
    1DIPC   C1A 9041  16.628  17.548   5.475  0.0957 -0.3842  0.1757
    1DIPC   D2A 9042  16.328  17.801   5.206  0.1167  0.0838  0.0393
    1DIPC   D3A 9043  16.544  17.614   4.876 -0.0471 -0.1694  0.1499
    1DIPC   C4A 9044  17.000  17.523   4.891 -0.0379 -0.1346  0.0650
    1DIPC   C1B 9045  16.403  17.111   5.384  0.0480  0.0297  0.0795
    1DIPC   D2B 9046  16.203  17.239   5.031  0.1503  0.2216  0.3142
    1DIPC   D3B 9047  16.196  16.834   4.923 -0.5079  0.0752  0.1056
    1DIPC   C4B 9048  16.174  16.755   4.520 -0.1549 -0.0116 -0.2402
    1DIPC   NC3 9049  11.830   2.141   6.206 -0.0483 -0.0447  0.0061
    1DIPC   PO4 9050  11.870   1.734   6.358 -0.1394 -0.2498  0.0327
    1DIPC   GL1 9051  11.722   1.622   5.916 -0.1159 -0.0419 -0.0625
    1DIPC   GL2 9052  11.808   1.884   5.789 -0.3755  0.0791 -0.0766
    1DIPC   C1A 9053  11.474   1.501   5.550 -0.0126 -0.1897 -0.0197
    1DIPC   D2A 9054  11.448   1.199   5.316 -0.0910  0.4556 -0.1820
    1DIPC   D3A 9055  11.399   1.168   4.922  0.1148  0.1367  0.2790
    1DIPC   C4A 9056  10.949   1.182   4.695  0.0540  0.0312  0.3907
    1DIPC   C1B 9057  11.825   2.022   5.282 -0.3231  0.0322  0.2450
    1DIPC   D2B 9058  11.673   2.105   4.863 -0.1605 -0.2601  0.2032
    1DIPC   D3B 9059  12.060   2.083   4.652 -0.0811  0.0828 -0.0632
    1DIPC   C4B 9060  12.058   1.782   4.243 -0.2713  0.2241  0.0485
    1DIPC   NC3 9061  13.941  15.989   6.558  0.2259  0.1437  0.2780
    1DIPC   PO4 9062  14.166  16.322   6.536 -0.2697 -0.1203 -0.1058
    1DIPC   GL1 9063  14.058  16.215   6.113  0.0594  0.1280 -0.1088
    1DIPC   GL2 9064  13.963  15.843   6.067 -0.0946  0.2222 -0.0840
    1DIPC   C1A 9065  13.875  16.116   5.621  0.1113  0.2701 -0.0268
    1DIPC   D2A 9066  14.089  16.269   5.208  0.3089 -0.1850 -0.0610
    1DIPC   D3A 9067  14.037  15.840   5.073  0.0351  0.0925 -0.0941
    1DIPC   C4A 9068  14.438  15.655   4.868 -0.2034 -0.0218  0.0704
    1DIPC   C1B 9069  14.244  15.698   5.707  0.1164  0.1387  0.4002
    1DIPC   D2B 9070  14.525  15.651   5.365 -0.0986  0.2868 -0.2916
    1DIPC   D3B 9071  14.450  15.201   5.200  0.0699  0.1563 -0.0448
    1DIPC   C4B 9072  14.638  15.132   4.868  0.3013 -0.0459  0.3034
    1DIPC   NC3 9073   2.952  28.242   7.459 -0.0771 -0.3016 -0.1778
    1DIPC   PO4 9074   2.602  28.017   7.591 -0.0692 -0.3098  0.1379
    1DIPC   GL1 9075   2.529  28.154   7.124  0.2139  0.2055  0.1342
    1DIPC   GL2 9076   2.601  27.804   7.089  0.2072 -0.2945 -0.1553
    1DIPC   C1A 9077   2.421  28.216   6.725  0.1306  0.3087 -0.0813
    1DIPC   D2A 9078   2.208  28.383   6.348 -0.1816 -0.0762  0.2184
    1DIPC   D3A 9079   2.264  28.589   5.947  0.3087 -0.2474  0.0044
    1DIPC   C4A 9080   2.005  29.001   6.075 -0.0443  0.1347 -0.1653
    1DIPC   C1B 9081   2.777  27.831   6.672  0.0978  0.3741  0.2543
    1DIPC   D2B 9082   2.689  28.039   6.293 -0.2749 -0.0045 -0.0172
    1DIPC   D3B 9083   2.859  28.369   6.542  0.0083  0.0793  0.1730
    1DIPC   C4B 9084   3.085  28.712   6.432 -0.0575 -0.0194  0.2030
    1DIPC   NC3 9085  26.082  19.748   7.650  0.0182 -0.2624  0.0169
    1DIPC   PO4 9086  25.976  19.413   7.390  0.2196  0.1813 -0.2765
    1DIPC   GL1 9087  26.090  19.368   6.925  0.1242  0.1185  0.0926
    1DIPC   GL2 9088  26.148  19.000   6.736  0.4758 -0.0783  0.4029
    1DIPC   C1A 9089  25.843  19.435   6.671 -0.0734 -0.1798 -0.2783
    1DIPC   D2A 9090  25.682  19.640   6.392  0.0634  0.1705 -0.0982
    1DIPC   D3A 9091  25.652  19.687   5.999 -0.1597  0.1912  0.0746
    1DIPC   C4A 9092  25.893  19.852   5.700 -0.1722  0.1773 -0.1646
    1DIPC   C1B 9093  26.327  19.159   6.398 -0.3276 -0.2576  0.3183
    1DIPC   D2B 9094  26.414  19.373   5.970 -0.0149  0.0869  0.0078
    1DIPC   D3B 9095  26.200  19.694   6.121  0.1884 -0.2151  0.2287
    1DIPC   C4B 9096  26.011  20.035   6.151 -0.1346 -0.0173  0.4047
    1DIPC   NC3 9097  12.797  11.425   5.662 -0.0543 -0.0088  0.0845
    1DIPC   PO4 9098  12.675  11.850   5.926 -0.0765 -0.1522  0.1388
    1DIPC   GL1 9099  12.603  11.805   5.411  0.0557  0.1654 -0.4065
    1DIPC   GL2 9100  12.347  12.004   5.432 -0.1173  0.0086  0.2285
    1DIPC   C1A 9101  12.629  11.821   4.913  0.0675 -0.1526 -0.5535
    1DIPC   D2A 9102  12.794  12.124   4.605 -0.1458  0.0451 -0.0525
    1DIPC   D3A 9103  13.166  12.340   4.514  0.2084  0.1677  0.1339
    1DIPC   C4A 9104  13.183  12.464   4.136 -0.1311 -0.0029  0.1463
    1DIPC   C1B 9105  12.267  12.201   5.097 -0.3625 -0.1197  0.2297
    1DIPC   D2B 9106  12.346  12.341   4.637  0.1910  0.0476  0.1123
    1DIPC   D3B 9107  12.179  12.751   4.417  0.3015 -0.4541  0.1760
    1DIPC   C4B 9108  11.976  12.991   4.689 -0.1751  0.1710  0.1479
    1DIPC   NC3 9109  19.966  19.789   5.834 -0.0597 -0.2274 -0.0116
    1DIPC   PO4 9110  19.741  20.119   5.728  0.1200  0.0003 -0.1940
    1DIPC   GL1 9111  19.700  20.387   5.344  0.0734  0.0214 -0.3616
    1DIPC   GL2 9112  19.859  20.648   5.311  0.1091 -0.0250  0.0702
    1DIPC   C1A 9113  19.594  20.447   4.919 -0.5463 -0.4434  0.0958
    1DIPC   D2A 9114  19.332  20.268   4.573 -0.3853 -0.0745  0.2566
    1DIPC   D3A 9115  19.291  20.750   4.641  0.0584 -0.3276  0.0830
    1DIPC   C4A 9116  19.483  21.075   4.653 -0.0338  0.2053  0.0293
    1DIPC   C1B 9117  19.447  20.782   5.295 -0.1696 -0.1520  0.1230
    1DIPC   D2B 9118  19.218  20.982   5.093  0.3781 -0.2008 -0.3794
    1DIPC   D3B 9119  18.930  20.822   4.937  0.2084  0.1870 -0.2342
    1DIPC   C4B 9120  19.059  20.424   5.155  0.0325  0.0636  0.2324
    1DIPC   NC3 9121  19.462   0.565   7.294  0.0189 -0.1738  0.0606
    1DIPC   PO4 9122  19.848   0.408   7.223 -0.1519 -0.1265 -0.0231
    1DIPC   GL1 9123  19.858   0.448   6.875  0.1861 -0.2665  0.4093
    1DIPC   GL2 9124  19.577   0.228   6.831 -0.0218 -0.0831  0.2125
    1DIPC   C1A 9125  20.012   0.786   6.595  0.2181 -0.0253 -0.2601
    1DIPC   D2A 9126  19.874   1.091   6.419  0.0647 -0.1486 -0.1217
    1DIPC   D3A 9127  19.743   0.881   6.066  0.1639  0.2249  0.1627
    1DIPC   C4A 9128  19.374   0.892   5.900  0.0546  0.1232 -0.1550
    1DIPC   C1B 9129  19.718   0.357   6.373 -0.2678 -0.1754 -0.0038
    1DIPC   D2B 9130  19.554   0.396   6.008 -0.1765 -0.0910  0.1535
    1DIPC   D3B 9131  19.463   0.280   5.500  0.1051  0.2714  0.1755
    1DIPC   C4B 9132  19.291   0.389   5.101 -0.1931  0.0586  0.0607
    1DIPC   NC3 9133   0.024  22.156   7.928 -0.1764 -0.0366  0.0799
    1DIPC   PO4 9134   0.327  22.021   7.733 -0.1613  0.1414  0.0950
    1DIPC   GL1 9135   0.402  21.901   7.334 -0.0020  0.3462 -0.0241
    1DIPC   GL2 9136   0.323  22.128   7.053 -0.0011 -0.3404  0.0535
    1DIPC   C1A 9137   0.678  21.651   7.087  0.2675  0.2610 -0.0718
    1DIPC   D2A 9138   0.694  21.514   6.687  0.0148 -0.4189 -0.0201
    1DIPC   D3A 9139   0.257  21.705   6.409  0.0312  0.1634  0.1199
    1DIPC   C4A 9140   0.029  21.987   6.669  0.3161 -0.1844 -0.0908
    1DIPC   C1B 9141   0.381  22.458   6.691  0.1332  0.2697 -0.4196
    1DIPC   D2B 9142   0.314  22.808   6.429 -0.2326  0.0724  0.0610
    1DIPC   D3B 9143   0.726  23.017   6.264 -0.3219 -0.3193  0.1731
    1DIPC   C4B 9144   0.796  23.287   5.913 -0.0046 -0.0710  0.0861
    1DIPC   NC3 9145  19.548   9.467   6.157  0.1031  0.1755  0.1354
    1DIPC   PO4 9146  19.198   9.776   6.065  0.0874  0.1119 -0.1757
    1DIPC   GL1 9147  19.077   9.747   5.497  0.1193 -0.2907 -0.0304
    1DIPC   GL2 9148  19.071   9.454   5.379 -0.5559 -0.1088 -0.2350
    1DIPC   C1A 9149  19.065   9.926   5.067  0.1898  0.0990  0.1496
    1DIPC   D2A 9150  18.914  10.017   4.638  0.0547  0.0344  0.1604
    1DIPC   D3A 9151  18.637   9.686   4.628 -0.0241 -0.0014  0.0740
    1DIPC   C4A 9152  18.678   9.560   5.017  0.1160 -0.2455  0.2191
    1DIPC   C1B 9153  19.441   9.603   5.199 -0.2412 -0.0398  0.0490
    1DIPC   D2B 9154  19.560   9.832   4.876  0.0917 -0.1680 -0.0204
    1DIPC   D3B 9155  19.393  10.169   4.770  0.1962  0.3005  0.2999
    1DIPC   C4B 9156  19.500  10.351   4.373 -0.2981 -0.1563 -0.3126
    1DIPC   NC3 9157   7.298  22.275   7.260  0.1987  0.0495  0.1821
    1DIPC   PO4 9158   7.371  22.525   6.915 -0.0230  0.0444  0.2714
    1DIPC   GL1 9159   7.338  22.299   6.524 -0.0483 -0.0868  0.4289
    1DIPC   GL2 9160   7.236  21.920   6.364 -0.1278 -0.0534  0.1292
    1DIPC   C1A 9161   7.238  22.478   6.108  0.3572  0.2295  0.3283
    1DIPC   D2A 9162   7.133  22.559   5.676  0.2380 -0.2945 -0.1230
    1DIPC   D3A 9163   7.170  22.350   5.329  0.0285 -0.1802 -0.5847
    1DIPC   C4A 9164   7.541  22.192   5.276 -0.1031  0.2405  0.0682
    1DIPC   C1B 9165   6.895  22.060   6.113 -0.2154  0.1363 -0.0278
    1DIPC   D2B 9166   6.773  22.241   5.682  0.3361  0.4772  0.2541
    1DIPC   D3B 9167   6.630  22.595   5.868 -0.0041  0.0104 -0.1889
    1DIPC   C4B 9168   6.227  22.562   6.045 -0.4230  0.1287 -0.2070
    1DIPC   NC3 9169   9.788  11.117   6.293  0.1161  0.1102  0.3031
    1DIPC   PO4 9170   9.365  10.871   6.127  0.0091 -0.1624  0.1214
    1DIPC   GL1 9171   9.360  10.833   5.655 -0.3649 -0.1420  0.0012
    1DIPC   GL2 9172   9.514  11.005   5.351  0.1165 -0.0166  0.0489
    1DIPC   C1A 9173   9.132  10.628   5.339 -0.2611 -0.0867  0.2724
    1DIPC   D2A 9174   9.116  10.517   4.975  0.0685  0.0189  0.0299
    1DIPC   D3A 9175   9.353  10.440   4.553  0.5473  0.2389 -0.0142
    1DIPC   C4A 9176   9.125  10.248   4.150 -0.1546 -0.1606  0.1549
    1DIPC   C1B 9177   9.574  10.857   4.894  0.2748 -0.0825  0.1731
    1DIPC   D2B 9178   9.698  10.793   4.532 -0.1408  0.0431  0.2405
    1DIPC   D3B 9179   9.780  11.170   4.329  0.4042  0.1927  0.0332
    1DIPC   C4B 9180   9.647  11.112   3.904 -0.1576  0.1405  0.1977
    1DIPC   NC3 9181   2.760  22.014   7.296  0.4208  0.2467  0.2383
    1DIPC   PO4 9182   2.468  22.413   7.477 -0.1558 -0.0788  0.0977
    1DIPC   GL1 9183   2.444  22.436   7.067 -0.1929  0.1058  0.0680
    1DIPC   GL2 9184   2.095  22.664   6.974 -0.0141 -0.0625 -0.3180
    1DIPC   C1A 9185   2.317  22.171   6.820 -0.2292 -0.1259  0.0108
    1DIPC   D2A 9186   2.094  21.933   6.482  0.1081 -0.0420 -0.2715
    1DIPC   D3A 9187   2.435  21.853   6.342  0.1657  0.1058 -0.2362
    1DIPC   C4A 9188   2.542  22.325   6.371 -0.1176 -0.3385 -0.0370
    1DIPC   C1B 9189   2.069  22.441   6.459 -0.0155  0.3801 -0.2332
    1DIPC   D2B 9190   2.050  22.370   6.023 -0.3898 -0.1156  0.0556
    1DIPC   D3B 9191   1.806  22.257   5.688  0.3285 -0.0884  0.1791
    1DIPC   C4B 9192   2.025  22.380   5.235  0.1735 -0.2379  0.2405
    1DIPC   NC3 9193  10.272  22.100   7.736 -0.1689  0.0738 -0.3265
    1DIPC   PO4 9194  10.013  21.936   7.378  0.1842  0.0709  0.4621
    1DIPC   GL1 9195  10.081  22.013   6.954  0.1408  0.0858 -0.0774
    1DIPC   GL2 9196  10.085  22.310   6.802 -0.2868  0.1448 -0.3837
    1DIPC   C1A 9197   9.963  21.875   6.446  0.1735  0.1658  0.1681
    1DIPC   D2A 9198  10.339  21.922   6.256 -0.2066  0.1610  0.3206
    1DIPC   D3A 9199  10.329  22.037   5.865  0.1423 -0.1626 -0.0371
    1DIPC   C4A 9200  10.234  21.702   5.515 -0.1126  0.0227 -0.0416
    1DIPC   C1B 9201   9.674  22.451   6.600 -0.0187  0.2843  0.0282
    1DIPC   D2B 9202   9.347  22.772   6.526  0.2539  0.0076  0.2450
    1DIPC   D3B 9203   8.905  22.832   6.338  0.1448 -0.3720  0.0413
    1DIPC   C4B 9204   8.656  22.551   6.043 -0.1333 -0.0110  0.0646
    1DIPC   NC3 9205  23.113  10.136   6.866  0.1759 -0.2010  0.0979
    1DIPC   PO4 9206  23.043  10.247   6.495  0.1236 -0.3117 -0.0079
    1DIPC   GL1 9207  22.813  10.236   6.125  0.0424  0.1691 -0.0500
    1DIPC   GL2 9208  22.947   9.920   5.940  0.0909 -0.1540  0.1199
    1DIPC   C1A 9209  22.768  10.402   5.745  0.0034 -0.2563 -0.0621
    1DIPC   D2A 9210  22.889  10.158   5.513  0.3520 -0.1001 -0.1127
    1DIPC   D3A 9211  23.421  10.196   5.361 -0.1666  0.2369 -0.1154
    1DIPC   C4A 9212  23.548   9.977   5.031 -0.3151 -0.3724  0.0958
    1DIPC   C1B 9213  22.892   9.590   5.646 -0.1916 -0.2079 -0.0799
    1DIPC   D2B 9214  22.919   9.556   5.208 -0.0171 -0.2192 -0.1447
    1DIPC   D3B 9215  23.316   9.584   4.881 -0.0456  0.0769  0.4182
    1DIPC   C4B 9216  23.396   9.776   4.420 -0.3089 -0.0015 -0.2612
    1DIPC   NC3 9217  16.874  18.998   6.751 -0.1774 -0.2046  0.1280
    1DIPC   PO4 9218  16.988  18.853   6.370  0.1648  0.0669  0.1296
    1DIPC   GL1 9219  16.829  18.610   6.054 -0.2633 -0.1119 -0.0397
    1DIPC   GL2 9220  17.089  18.583   5.823  0.2881  0.2711  0.0337
    1DIPC   C1A 9221  16.647  18.404   5.747 -0.0776 -0.3890 -0.1784
    1DIPC   D2A 9222  16.521  18.002   5.722 -0.2315 -0.0603 -0.0874
    1DIPC   D3A 9223  16.439  18.254   5.322 -0.0003  0.0271  0.3111
    1DIPC   C4A 9224  16.530  18.667   5.279  0.0557  0.2263 -0.0533
    1DIPC   C1B 9225  17.067  18.534   5.328 -0.1698 -0.1306  0.1472
    1DIPC   D2B 9226  16.822  18.406   4.999 -0.0920 -0.0550 -0.0356
    1DIPC   D3B 9227  16.761  18.796   4.778  0.0270 -0.0925  0.1859
    1DIPC   C4B 9228  16.680  19.177   4.921 -0.0296  0.3706 -0.0207
    1DIPC   NC3 9229   3.525  25.039   7.271  0.1269  0.0659 -0.1843
    1DIPC   PO4 9230   3.074  24.966   7.415 -0.0894 -0.0623  0.0636
    1DIPC   GL1 9231   2.983  24.931   6.986 -0.1596  0.2916 -0.0186
    1DIPC   GL2 9232   2.632  24.963   6.838 -0.2722 -0.0112 -0.1929
    1DIPC   C1A 9233   2.849  24.536   6.701  0.2053  0.1285 -0.2558
    1DIPC   D2A 9234   2.855  24.422   6.321 -0.0100  0.2690  0.1157
    1DIPC   D3A 9235   3.290  24.530   6.280 -0.3077 -0.0064 -0.1471
    1DIPC   C4A 9236   3.370  24.470   5.958 -0.1289 -0.1637  0.1016
    1DIPC   C1B 9237   2.365  25.167   6.492  0.3298 -0.0159 -0.2215
    1DIPC   D2B 9238   2.138  24.934   6.243 -0.0274 -0.0310 -0.1106
    1DIPC   D3B 9239   2.567  24.795   6.166 -0.2138  0.1436  0.2844
    1DIPC   C4B 9240   2.708  24.512   5.870  0.0444  0.2510 -0.0236
    1DIPC   NC3 9241  11.797  23.028   6.865  0.1740  0.4073 -0.2145
    1DIPC   PO4 9242  11.461  23.274   6.921  0.3730 -0.1198  0.2347
    1DIPC   GL1 9243  11.278  23.385   6.571  0.2178  0.0046  0.1003
    1DIPC   GL2 9244  10.896  23.537   6.529  0.1560  0.3930  0.0816
    1DIPC   C1A 9245  11.321  23.401   6.106  0.1115 -0.0873 -0.0090
    1DIPC   D2A 9246  11.489  23.601   5.638 -0.1751  0.0411 -0.1097
    1DIPC   D3A 9247  11.298  23.787   5.488  0.2345 -0.2456 -0.0020
    1DIPC   C4A 9248  11.152  24.185   5.510 -0.1198 -0.0004  0.0238
    1DIPC   C1B 9249  10.899  23.156   6.186  0.0379 -0.4645 -0.0662
    1DIPC   D2B 9250  11.111  22.743   6.111 -0.4093  0.2414 -0.2807
    1DIPC   D3B 9251  10.890  22.790   5.752  0.3556 -0.1345 -0.0705
    1DIPC   C4B 9252  11.053  22.878   5.356  0.0262 -0.1149  0.2677
    1DIPC   NC3 9253   1.207   9.381   7.093 -0.2065  0.3146  0.1307
    1DIPC   PO4 9254   1.005   9.212   6.750  0.0956 -0.2165  0.1702
    1DIPC   GL1 9255   0.805   9.503   6.487  0.0840  0.1059 -0.2633
    1DIPC   GL2 9256   0.660   9.381   6.266  0.1955 -0.2213 -0.1071
    1DIPC   C1A 9257   0.758   9.955   6.364 -0.0831  0.2435  0.0083
    1DIPC   D2A 9258   0.729  10.423   6.421  0.0982  0.1677  0.0108
    1DIPC   D3A 9259   0.311  10.448   6.326 -0.0505  0.1498  0.0621
    1DIPC   C4A 9260   0.201  10.669   6.037  0.0543 -0.1959 -0.2537
    1DIPC   C1B 9261   0.724   9.692   5.968 -0.0977  0.3398 -0.1528
    1DIPC   D2B 9262   0.867   9.921   5.697  0.1457 -0.0149  0.0375
    1DIPC   D3B 9263   0.664   9.477   5.431 -0.1353 -0.0242 -0.0080
    1DIPC   C4B 9264   0.811   9.107   5.620  0.3289 -0.1337 -0.0436
    1DIPC   NC3 9265  23.611  19.343   6.835 -0.3804 -0.5296 -0.3852
    1DIPC   PO4 9266  23.359  19.423   6.558  0.0805 -0.2248 -0.0130
    1DIPC   GL1 9267  23.162  19.388   6.163 -0.3773  0.1413 -0.1895
    1DIPC   GL2 9268  22.866  19.555   6.112 -0.0616  0.1491 -0.0592
    1DIPC   C1A 9269  23.065  19.225   5.729  0.2458  0.2675  0.3845
    1DIPC   D2A 9270  23.055  19.016   5.390  0.0705  0.0288 -0.0325
    1DIPC   D3A 9271  23.469  18.993   5.346  0.0306  0.4803 -0.0880
    1DIPC   C4A 9272  23.574  18.693   5.064 -0.0966  0.2312 -0.1941
    1DIPC   C1B 9273  23.012  19.746   5.762 -0.1263 -0.0513  0.5166
    1DIPC   D2B 9274  23.320  19.687   5.613 -0.0476 -0.0052  0.0012
    1DIPC   D3B 9275  23.086  19.879   5.315 -0.2652  0.1003 -0.2773
    1DIPC   C4B 9276  23.402  20.032   4.998  0.0974  0.0240 -0.0254
    1DIPC   NC3 9277   1.705  10.383   7.355 -0.1947 -0.0942 -0.3439
    1DIPC   PO4 9278   1.813  10.084   7.215 -0.1130 -0.0223 -0.0709
    1DIPC   GL1 9279   1.853   9.823   6.795  0.0996  0.0247 -0.0139
    1DIPC   GL2 9280   1.753   9.999   6.660  0.3253  0.1149  0.1654
    1DIPC   C1A 9281   1.753   9.612   6.425  0.1848 -0.2678  0.2619
    1DIPC   D2A 9282   1.690   9.755   5.911 -0.0938 -0.4631  0.3842
    1DIPC   D3A 9283   1.994   9.432   5.712 -0.0533  0.1736 -0.0258
    1DIPC   C4A 9284   2.272   9.508   5.344  0.1277  0.0792 -0.0856
    1DIPC   C1B 9285   1.654  10.091   6.311 -0.0474 -0.0801 -0.2287
    1DIPC   D2B 9286   1.663  10.522   6.092 -0.1596  0.1938  0.0723
    1DIPC   D3B 9287   1.620  10.493   5.643 -0.1536 -0.1264  0.1846
    1DIPC   C4B 9288   1.955  10.548   5.390  0.1779 -0.0786  0.0834
    1DIPC   NC3 9289   2.741  15.697   6.737  0.1138 -0.2037 -0.2185
    1DIPC   PO4 9290   3.115  15.922   6.998  0.0380  0.2900  0.1376
    1DIPC   GL1 9291   3.209  15.710   6.624 -0.1086  0.3796 -0.2433
    1DIPC   GL2 9292   3.422  15.515   6.612 -0.2705 -0.0765 -0.0122
    1DIPC   C1A 9293   3.148  15.677   6.220  0.1084 -0.1363 -0.0862
    1DIPC   D2A 9294   2.771  15.779   5.935 -0.1437 -0.1167 -0.1838
    1DIPC   D3A 9295   2.479  16.142   5.948  0.3705  0.1269 -0.0195
    1DIPC   C4A 9296   2.653  16.377   5.774 -0.0968  0.4352  0.2638
    1DIPC   C1B 9297   3.365  15.162   6.334  0.1189  0.0948 -0.0309
    1DIPC   D2B 9298   3.442  14.737   6.338 -0.0771 -0.0802 -0.0429
    1DIPC   D3B 9299   2.945  14.674   6.223 -0.0909  0.0195  0.1917
    1DIPC   C4B 9300   2.868  14.402   6.583 -0.1879 -0.0842  0.2521
    1DIPC   NC3 9301  13.405  10.654   6.014  0.0280  0.0161 -0.0305
    1DIPC   PO4 9302  13.327  10.214   5.797 -0.3346  0.1422  0.0869
    1DIPC   GL1 9303  13.438  10.096   5.360  0.2723  0.3838  0.2511
    1DIPC   GL2 9304  13.741  10.189   5.283 -0.1137 -0.4073  0.0184
    1DIPC   C1A 9305  13.438   9.916   5.031  0.0874 -0.0506 -0.0444
    1DIPC   D2A 9306  13.479   9.900   4.608 -0.0440 -0.1268  0.1310
    1DIPC   D3A 9307  13.626   9.895   4.240 -0.0626  0.0919 -0.2167
    1DIPC   C4A 9308  13.740   9.887   3.753  0.0105 -0.1708 -0.2652
    1DIPC   C1B 9309  13.908   9.981   4.949 -0.1264 -0.0882 -0.0267
    1DIPC   D2B 9310  14.127   9.813   4.566 -0.0706  0.0332  0.0187
    1DIPC   D3B 9311  14.113   9.676   4.159 -0.1831  0.4484 -0.0939
    1DIPC   C4B 9312  13.655   9.482   3.979  0.0204 -0.2025 -0.0418
    1DIPC   NC3 9313   5.222   2.394   7.805  0.2244 -0.3978  0.2532
    1DIPC   PO4 9314   4.781   2.362   7.641 -0.0067 -0.2644  0.0336
    1DIPC   GL1 9315   4.993   2.298   7.315  0.0800 -0.3766  0.0389
    1DIPC   GL2 9316   5.233   2.319   7.306  0.0270  0.0669 -0.6959
    1DIPC   C1A 9317   5.088   2.217   6.874  0.1136  0.1966  0.0585
    1DIPC   D2A 9318   4.863   2.298   6.491 -0.0860  0.2276 -0.0837
    1DIPC   D3A 9319   4.681   1.933   6.278  0.1099  0.2697 -0.1749
    1DIPC   C4A 9320   4.339   1.694   6.309 -0.1629 -0.0911 -0.1539
    1DIPC   C1B 9321   5.203   2.704   7.074 -0.2080  0.1217 -0.1220
    1DIPC   D2B 9322   5.414   2.974   6.792 -0.1859 -0.1640  0.2402
    1DIPC   D3B 9323   5.279   2.651   6.525 -0.0190  0.0415  0.1622
    1DIPC   C4B 9324   5.487   2.565   6.132  0.0571  0.2634 -0.1077
    1DIPC   NC3 9325   0.612  11.179   7.114 -0.1123 -0.1596 -0.2373
    1DIPC   PO4 9326   0.856  11.459   7.308 -0.1122  0.0926 -0.2213
    1DIPC   GL1 9327   1.138  11.389   7.009  0.1068  0.1085 -0.0759
    1DIPC   GL2 9328   1.262  11.550   6.729 -0.0461 -0.2737 -0.4969
    1DIPC   C1A 9329   1.311  11.024   6.754  0.1914  0.0052 -0.2820
    1DIPC   D2A 9330   1.644  11.087   6.578  0.0560 -0.0164  0.0737
    1DIPC   D3A 9331   1.647  11.011   6.132 -0.0817 -0.3250 -0.2587
    1DIPC   C4A 9332   1.996  10.838   5.821  0.1312  0.1349  0.0899
    1DIPC   C1B 9333   1.402  11.973   6.536 -0.3228 -0.3299  0.2159
    1DIPC   D2B 9334   1.495  12.004   6.096  0.0726  0.2137 -0.1226
    1DIPC   D3B 9335   1.844  11.831   5.884  0.2593  0.1367 -0.1073
    1DIPC   C4B 9336   1.784  11.389   5.814  0.0059 -0.0790  0.3609
    1DIPC   NC3 9337  22.558  11.335   6.918  0.1344 -0.0004  0.0928
    1DIPC   PO4 9338  22.921  11.326   6.704  0.1386  0.1929  0.0979
    1DIPC   GL1 9339  23.118  11.284   6.351 -0.0533  0.2956  0.1448
    1DIPC   GL2 9340  22.922  11.389   6.088  0.2083 -0.0842 -0.0050
    1DIPC   C1A 9341  23.562  11.502   6.128  0.3169  0.3735 -0.1284
    1DIPC   D2A 9342  23.659  11.571   5.715  0.1373  0.0731  0.0736
    1DIPC   D3A 9343  23.927  11.786   5.405 -0.0759  0.1845 -0.1458
    1DIPC   C4A 9344  24.146  12.262   5.523 -0.1908 -0.0445 -0.0838
    1DIPC   C1B 9345  23.154  11.509   5.772 -0.5208 -0.2325 -0.2607
    1DIPC   D2B 9346  23.268  11.567   5.409  0.0006 -0.1430 -0.0086
    1DIPC   D3B 9347  23.110  11.263   5.079 -0.1881 -0.0925 -0.0320
    1DIPC   C4B 9348  22.996  11.436   4.662 -0.3494 -0.3097 -0.2159
    1DIPC   NC3 9349  19.971  15.554   6.634 -0.1639  0.0063 -0.0759
    1DIPC   PO4 9350  20.338  15.359   6.355 -0.0705 -0.0235 -0.1231
    1DIPC   GL1 9351  20.310  15.495   6.001  0.0683 -0.4918 -0.1469
    1DIPC   GL2 9352  20.583  15.504   5.740 -0.3737  0.2321 -0.1348
    1DIPC   C1A 9353  20.086  15.402   5.700 -0.0150  0.0449  0.0386
    1DIPC   D2A 9354  20.093  15.033   5.520 -0.1609 -0.0190  0.0806
    1DIPC   D3A 9355  20.340  15.267   5.253  0.0710  0.0843 -0.0830
    1DIPC   C4A 9356  20.246  15.625   5.276  0.0598  0.1997  0.2906
    1DIPC   C1B 9357  20.758  15.181   5.611 -0.4161 -0.0225  0.2750
    1DIPC   D2B 9358  20.828  15.249   5.115 -0.2703 -0.0262 -0.1733
    1DIPC   D3B 9359  21.056  15.467   4.757  0.1435 -0.2760  0.0207
    1DIPC   C4B 9360  21.324  15.802   4.847  0.1858  0.0940  0.0407
    1DIPC   NC3 9361   4.645   7.192   7.510 -0.1437 -0.0355 -0.1758
    1DIPC   PO4 9362   4.679   7.002   7.117  0.0562 -0.1626  0.0047
    1DIPC   GL1 9363   4.917   6.997   6.741  0.0903 -0.0746  0.1021
    1DIPC   GL2 9364   5.103   7.275   6.529  0.2117 -0.0890 -0.1887
    1DIPC   C1A 9365   5.123   6.786   6.397 -0.2559 -0.1213  0.2934
    1DIPC   D2A 9366   5.450   6.607   6.115 -0.0395  0.0978 -0.2320
    1DIPC   D3A 9367   5.495   6.375   5.794  0.0759  0.0084 -0.0598
    1DIPC   C4A 9368   5.345   6.028   5.689 -0.0363  0.1459  0.1231
    1DIPC   C1B 9369   5.523   7.105   6.335  0.1062 -0.1293 -0.0976
    1DIPC   D2B 9370   5.753   7.301   5.937  0.1601  0.2386  0.4395
    1DIPC   D3B 9371   5.755   6.892   5.773  0.0342 -0.1598  0.1444
    1DIPC   C4B 9372   6.221   6.772   5.691  0.3086  0.0647  0.1348
    1DIPC   NC3 9373   8.538  24.456   7.663 -0.0388 -0.0787  0.4079
    1DIPC   PO4 9374   8.279  24.547   7.341 -0.1111  0.2079  0.1388
    1DIPC   GL1 9375   8.358  24.811   6.891 -0.3995 -0.0153  0.0116
    1DIPC   GL2 9376   8.573  24.625   6.791  0.1078 -0.1130  0.0847
    1DIPC   C1A 9377   8.346  25.185   6.513 -0.0028  0.0523  0.0772
    1DIPC   D2A 9378   8.371  25.172   6.061 -0.0422 -0.2542  0.1595
    1DIPC   D3A 9379   8.624  25.147   5.692  0.4141  0.2189 -0.0691
    1DIPC   C4A 9380   8.627  25.361   5.288 -0.2194 -0.1750  0.1061
    1DIPC   C1B 9381   8.899  24.468   6.628 -0.0820 -0.1979  0.0995
    1DIPC   D2B 9382   8.882  24.099   6.435  0.0057  0.0070  0.0483
    1DIPC   D3B 9383   8.851  24.465   6.148  0.1663  0.0658 -0.0304
    1DIPC   C4B 9384   8.545  24.721   6.257 -0.2293  0.1440  0.0977
    1DIPC   NC3 9385   8.656   6.540   6.988  0.0409  0.3304  0.0319
    1DIPC   PO4 9386   9.052   6.428   6.739  0.2886  0.0856 -0.1202
    1DIPC   GL1 9387   9.187   6.462   6.342  0.1479  0.3121  0.1014
    1DIPC   GL2 9388   9.339   6.741   6.210  0.1129 -0.0051  0.3631
    1DIPC   C1A 9389   8.759   6.476   6.151 -0.2853 -0.2939  0.1059
    1DIPC   D2A 9390   8.566   6.469   5.755  0.2343 -0.2504  0.1634
    1DIPC   D3A 9391   8.468   6.658   5.356  0.3690 -0.1225 -0.0133
    1DIPC   C4A 9392   8.158   6.909   5.295 -0.1812 -0.0911 -0.0593
    1DIPC   C1B 9393   9.544   6.518   5.837 -0.0729 -0.1159  0.1398
    1DIPC   D2B 9394   9.551   6.496   5.300 -0.4455 -0.2810 -0.1542
    1DIPC   D3B 9395   9.203   6.196   5.298  0.1703 -0.1395 -0.0001
    1DIPC   C4B 9396   8.928   6.349   5.093 -0.1208  0.4083 -0.0975
    1DIPC   NC3 9397  17.628  14.952   6.297  0.0784  0.0925  0.1042
    1DIPC   PO4 9398  17.609  15.219   6.547  0.1887 -0.0591  0.4130
    1DIPC   GL1 9399  17.805  15.492   6.239  0.0576  0.1604 -0.0497
    1DIPC   GL2 9400  18.067  15.353   6.177 -0.1890  0.0519 -0.2922
    1DIPC   C1A 9401  17.482  15.715   5.958  0.2176 -0.1333  0.3661
    1DIPC   D2A 9402  17.420  15.868   5.534 -0.0669 -0.0256  0.0574
    1DIPC   D3A 9403  17.017  15.988   5.339 -0.0642  0.1592  0.0697
    1DIPC   C4A 9404  16.852  16.315   5.564  0.2793 -0.0016 -0.1879
    1DIPC   C1B 9405  18.160  15.420   5.747  0.0891  0.2371  0.4732
    1DIPC   D2B 9406  18.256  15.399   5.305 -0.1363  0.0525  0.1707
    1DIPC   D3B 9407  18.194  15.761   5.190 -0.0606  0.1447  0.0474
    1DIPC   C4B 9408  18.461  15.827   4.946  0.0039 -0.1431  0.1378
    1DIPC   NC3 9409   6.774  27.515   7.331  0.3374 -0.2081  0.3366
    1DIPC   PO4 9410   6.392  27.495   7.390 -0.2884  0.3208 -0.0731
    1DIPC   GL1 9411   6.339  27.954   7.275 -0.0864 -0.1061  0.1910
    1DIPC   GL2 9412   6.659  28.047   7.156 -0.2084 -0.0255  0.1437
    1DIPC   C1A 9413   6.126  28.315   7.146  0.2836 -0.2916 -0.1939
    1DIPC   D2A 9414   5.934  28.640   7.152  0.1179  0.0018 -0.0584
    1DIPC   D3A 9415   6.144  29.020   7.120 -0.3174 -0.1030  0.0834
    1DIPC   C4A 9416   6.322  29.166   6.666 -0.0943  0.0887 -0.1407
    1DIPC   C1B 9417   6.353  28.098   6.740 -0.1334  0.1332  0.0491
    1DIPC   D2B 9418   6.402  28.103   6.193  0.0564 -0.0806  0.2183
    1DIPC   D3B 9419   6.525  27.799   5.885  0.1610 -0.3660 -0.1724
    1DIPC   C4B 9420   6.498  27.444   5.895  0.0757 -0.2190 -0.1253
    1DIPC   NC3 9421  24.133  15.899   7.399 -0.1055 -0.0125  0.0023
    1DIPC   PO4 9422  23.914  16.244   7.158  0.3559 -0.0471  0.0777
    1DIPC   GL1 9423  23.945  16.222   6.667 -0.0069  0.0040  0.4265
    1DIPC   GL2 9424  23.922  16.542   6.512  0.1839 -0.3250  0.0262
    1DIPC   C1A 9425  24.005  16.104   6.216  0.1459  0.1936 -0.1359
    1DIPC   D2A 9426  24.251  15.742   5.899  0.1492  0.5050 -0.0519
    1DIPC   D3A 9427  24.642  15.910   5.765 -0.0791  0.1198 -0.1238
    1DIPC   C4A 9428  24.895  15.878   5.370  0.2166 -0.3272 -0.0578
    1DIPC   C1B 9429  24.104  16.877   6.307 -0.0295 -0.0321  0.0961
    1DIPC   D2B 9430  24.310  17.392   6.191  0.2247  0.1946 -0.2635
    1DIPC   D3B 9431  24.268  17.198   5.826  0.0723  0.2086  0.2884
    1DIPC   C4B 9432  24.122  16.784   5.753 -0.1039  0.1217 -0.4498
    1DIPC   NC3 9433   6.884   1.789   8.375 -0.0042  0.0680 -0.0390
    1DIPC   PO4 9434   6.638   2.237   8.213  0.0516 -0.0704 -0.0651
    1DIPC   GL1 9435   6.751   2.456   7.671 -0.1078  0.1271  0.0185
    1DIPC   GL2 9436   7.156   2.414   7.703 -0.2030  0.0038 -0.0910
    1DIPC   C1A 9437   6.566   2.398   7.289  0.1399  0.0225 -0.0364
    1DIPC   D2A 9438   6.493   2.467   6.869  0.1715 -0.1705  0.1554
    1DIPC   D3A 9439   6.832   2.356   6.582 -0.4161 -0.0308 -0.0427
    1DIPC   C4A 9440   6.852   2.532   6.158 -0.1109  0.0586  0.3643
    1DIPC   C1B 9441   7.152   1.956   7.703  0.2310  0.0008  0.0218
    1DIPC   D2B 9442   7.365   1.533   7.627  0.1997  0.1927 -0.1358
    1DIPC   D3B 9443   7.338   1.284   7.208  0.1237 -0.0690  0.1377
    1DIPC   C4B 9444   7.676   1.341   6.980  0.0060  0.0574 -0.0309
    1DIPC   NC3 9445   6.787  14.162   6.585 -0.0208 -0.2008 -0.5208
    1DIPC   PO4 9446   6.525  13.893   6.818 -0.0130 -0.0447 -0.2317
    1DIPC   GL1 9447   6.342  13.920   6.343  0.2481 -0.2797  0.0287
    1DIPC   GL2 9448   6.125  13.607   6.231  0.0811  0.1180  0.1569
    1DIPC   C1A 9449   6.128  13.992   5.991 -0.0831  0.1083  0.1423
    1DIPC   D2A 9450   6.034  14.077   5.559 -0.5088 -0.0571  0.1190
    1DIPC   D3A 9451   5.565  13.912   5.449  0.0811 -0.3849 -0.0774
    1DIPC   C4A 9452   5.472  13.664   5.145  0.0363  0.1205  0.1516
    1DIPC   C1B 9453   6.102  13.442   5.736 -0.4247  0.0260  0.0522
    1DIPC   D2B 9454   5.898  13.566   5.372  0.2299 -0.0550 -0.1520
    1DIPC   D3B 9455   5.751  13.198   5.382  0.1509 -0.0289  0.2004
    1DIPC   C4B 9456   5.484  13.009   5.132  0.2290  0.1411  0.2403
    1DIPC   NC3 9457   1.835  13.449   7.747 -0.1213  0.0354  0.1960
    1DIPC   PO4 9458   1.604  13.613   7.359  0.0780  0.0952 -0.1538
    1DIPC   GL1 9459   1.707  13.697   6.973 -0.0663 -0.2221 -0.0735
    1DIPC   GL2 9460   1.945  13.600   6.658  0.2902  0.2605 -0.1475
    1DIPC   C1A 9461   1.769  14.107   6.659  0.2655 -0.0323  0.1168
    1DIPC   D2A 9462   1.927  14.230   6.167  0.2279 -0.0975 -0.5019
    1DIPC   D3A 9463   2.260  14.295   5.807 -0.1423  0.1535 -0.0664
    1DIPC   C4A 9464   2.688  14.409   5.782 -0.2094  0.3205  0.1375
    1DIPC   C1B 9465   2.143  13.810   6.311 -0.2372 -0.2154 -0.1002
    1DIPC   D2B 9466   2.128  13.798   5.880 -0.3165  0.2138 -0.0889
    1DIPC   D3B 9467   1.705  13.935   5.809 -0.2235 -0.0696  0.3186
    1DIPC   C4B 9468   1.384  13.649   5.823  0.3479 -0.0221 -0.0111
    1DIPC   NC3 9469  12.829  11.808   6.432 -0.1378  0.2626  0.1770
    1DIPC   PO4 9470  13.138  12.068   6.053 -0.0950  0.0597 -0.1025
    1DIPC   GL1 9471  12.982  12.239   5.717 -0.0622 -0.0592 -0.0156
    1DIPC   GL2 9472  12.755  12.257   5.597 -0.0999 -0.0062  0.1792
    1DIPC   C1A 9473  13.172  12.568   5.558 -0.4262 -0.2302 -0.2067
    1DIPC   D2A 9474  13.425  12.606   5.148 -0.0135 -0.0959  0.2131
    1DIPC   D3A 9475  13.791  12.213   5.121 -0.1023 -0.1970 -0.1862
    1DIPC   C4A 9476  13.627  11.784   5.174 -0.2421  0.0080 -0.1731
    1DIPC   C1B 9477  12.775  12.248   5.167 -0.0034 -0.1352  0.1539
    1DIPC   D2B 9478  12.800  12.561   4.863 -0.2577  0.1133  0.0131
    1DIPC   D3B 9479  13.128  12.867   4.702  0.0760 -0.0368  0.0706
    1DIPC   C4B 9480  13.103  13.194   4.536  0.1733 -0.0170  0.0551
    1DIPC   NC3 9481  23.770   8.394   6.984  0.0870  0.0946  0.0833
    1DIPC   PO4 9482  23.903   8.727   6.699  0.1625  0.1206 -0.1264
    1DIPC   GL1 9483  24.018   8.746   6.337  0.0009 -0.0923 -0.2058
    1DIPC   GL2 9484  24.234   8.969   6.329 -0.0887 -0.2985  0.1399
    1DIPC   C1A 9485  24.083   8.487   5.946  0.1007 -0.0962 -0.0361
    1DIPC   D2A 9486  24.413   8.549   5.580  0.1225  0.0540  0.4029
    1DIPC   D3A 9487  24.789   8.321   5.440 -0.1093  0.3182 -0.1352
    1DIPC   C4A 9488  24.842   8.123   5.065 -0.1368 -0.3649 -0.0017
    1DIPC   C1B 9489  24.322   9.031   5.891 -0.0473  0.0127 -0.1070
    1DIPC   D2B 9490  24.287   9.027   5.416  0.2571  0.2555  0.0178
    1DIPC   D3B 9491  24.187   9.305   5.097 -0.0325  0.2513 -0.2650
    1DIPC   C4B 9492  24.219   9.599   5.317  0.0892 -0.4378 -0.0306
    1DIPC   NC3 9493   1.824   1.999   8.206 -0.1732 -0.1144 -0.1597
    1DIPC   PO4 9494   1.929   2.478   8.260  0.0865  0.2983 -0.1852
    1DIPC   GL1 9495   1.786   2.348   7.804  0.2290 -0.0813 -0.0674
    1DIPC   GL2 9496   1.620   2.559   7.575 -0.2785  0.2468  0.0468
    1DIPC   C1A 9497   1.618   1.978   7.588 -0.1783 -0.0564 -0.4105
    1DIPC   D2A 9498   1.629   1.555   7.341 -0.1721  0.0703  0.0179
    1DIPC   D3A 9499   1.645   1.469   6.825 -0.0164  0.2276 -0.1405
    1DIPC   C4A 9500   1.995   1.717   6.670  0.0244  0.0356  0.0798
    1DIPC   C1B 9501   1.764   2.352   7.202  0.0436  0.3584  0.1652
    1DIPC   D2B 9502   1.760   1.942   7.028  0.5724 -0.4049  0.0633
    1DIPC   D3B 9503   1.278   1.818   6.918 -0.0117 -0.1050 -0.2663
    1DIPC   C4B 9504   0.978   2.127   6.882  0.0285 -0.1895  0.0648
    1DIPC   NC3 9505  28.413  10.505   6.817 -0.1890  0.1995 -0.1254
    1DIPC   PO4 9506  28.188  10.873   6.896 -0.0529  0.2068 -0.3359
    1DIPC   GL1 9507  28.233  10.811   6.449 -0.0340 -0.1591 -0.0602
    1DIPC   GL2 9508  28.494  10.653   6.277 -0.0126 -0.3875 -0.5036
    1DIPC   C1A 9509  28.012  10.623   6.107 -0.1976 -0.0187  0.3857
    1DIPC   D2A 9510  27.767  10.586   5.897 -0.2625 -0.2227 -0.3115
    1DIPC   D3A 9511  27.676  10.488   5.449 -0.0606  0.2607 -0.0648
    1DIPC   C4A 9512  27.920  10.203   5.229 -0.1840  0.3359  0.0763
    1DIPC   C1B 9513  28.562  10.571   5.810  0.1396  0.1030 -0.0170
    1DIPC   D2B 9514  28.874  10.555   5.588  0.1413  0.1442  0.2542
    1DIPC   D3B 9515  28.872  10.187   5.375  0.1287 -0.0633  0.0151
    1DIPC   C4B 9516  28.569  10.159   5.058 -0.0877  0.3079  0.0987
    1DIPC   NC3 9517  24.642   2.957   7.410 -0.1311 -0.4282  0.1444
    1DIPC   PO4 9518  24.980   2.790   7.521  0.1085 -0.0380  0.0136
    1DIPC   GL1 9519  25.111   3.002   7.139 -0.1254 -0.2481  0.0301
    1DIPC   GL2 9520  24.931   2.883   6.877 -0.0603 -0.2742 -0.3162
    1DIPC   C1A 9521  25.354   2.901   6.742 -0.1158 -0.1676  0.0122
    1DIPC   D2A 9522  25.338   2.876   6.229  0.0747  0.0952 -0.1333
    1DIPC   D3A 9523  25.422   3.167   5.876 -0.1377 -0.0062  0.3522
    1DIPC   C4A 9524  25.287   3.027   5.444  0.1701 -0.2073 -0.1730
    1DIPC   C1B 9525  25.065   3.274   6.729 -0.0007  0.3093  0.2124
    1DIPC   D2B 9526  25.189   3.401   6.246 -0.1460  0.0677  0.0182
    1DIPC   D3B 9527  24.898   3.308   6.003 -0.1401 -0.0131  0.0607
    1DIPC   C4B 9528  24.983   2.932   5.771  0.1731 -0.0351 -0.2256
    1DIPC   NC3 9529   6.284  12.679   6.030  0.0623 -0.0714  0.2691
    1DIPC   PO4 9530   6.545  12.292   6.241 -0.0178  0.3595 -0.1764
    1DIPC   GL1 9531   6.599  12.376   5.812 -0.0034  0.1238 -0.2312
    1DIPC   GL2 9532   6.904  12.397   5.552 -0.0049 -0.0823  0.0243
    1DIPC   C1A 9533   6.464  12.346   5.359 -0.0750  0.2231 -0.0817
    1DIPC   D2A 9534   6.273  12.341   4.941  0.3471 -0.2267 -0.3956
    1DIPC   D3A 9535   6.259  12.328   4.490  0.0932 -0.0596  0.0534
    1DIPC   C4A 9536   6.384  12.234   4.064 -0.0404 -0.0818 -0.0322
    1DIPC   C1B 9537   7.105  11.962   5.525  0.0373 -0.3175 -0.1206
    1DIPC   D2B 9538   7.149  11.860   5.112 -0.1648  0.2775  0.4417
    1DIPC   D3B 9539   6.805  11.874   4.855  0.0557 -0.1152 -0.1056
    1DIPC   C4B 9540   6.709  12.341   4.673  0.0610 -0.0175  0.1007
    1DIPC   NC3 9541  13.132  16.499   6.218 -0.0661 -0.0903 -0.0070
    1DIPC   PO4 9542  13.560  16.204   6.261  0.4246 -0.0913 -0.3172
    1DIPC   GL1 9543  13.539  16.431   5.890  0.1152  0.1116 -0.1061
    1DIPC   GL2 9544  13.620  16.768   5.855  0.1834  0.0482 -0.2334
    1DIPC   C1A 9545  13.652  16.502   5.392 -0.2002  0.0523  0.1100
    1DIPC   D2A 9546  13.463  16.518   5.011  0.0063 -0.1897  0.1201
    1DIPC   D3A 9547  13.253  16.449   4.721 -0.0392  0.2226  0.0238
    1DIPC   C4A 9548  13.150  16.644   4.409 -0.1278 -0.0704 -0.0057
    1DIPC   C1B 9549  13.998  16.890   5.528 -0.0471  0.2605 -0.0013
    1DIPC   D2B 9550  13.981  16.772   5.123 -0.1079  0.0032  0.1216
    1DIPC   D3B 9551  14.524  16.673   5.249 -0.0366  0.1216 -0.1193
    1DIPC   C4B 9552  14.811  16.636   4.809 -0.4704  0.1912 -0.3019
    1DIPC   NC3 9553   3.459  27.440   7.930  0.1850  0.1516 -0.0790
    1DIPC   PO4 9554   3.795  27.671   7.782 -0.0545  0.2455 -0.1109
    1DIPC   GL1 9555   4.021  27.756   7.486 -0.0562 -0.0499 -0.0275
    1DIPC   GL2 9556   4.367  27.673   7.486  0.3337 -0.0282  0.1896
    1DIPC   C1A 9557   4.158  27.660   7.033 -0.0145  0.0323 -0.3199
    1DIPC   D2A 9558   4.360  27.559   6.687 -0.2877 -0.1280  0.1739
    1DIPC   D3A 9559   4.115  27.711   6.333 -0.0709 -0.0659  0.0191
    1DIPC   C4A 9560   3.718  27.672   6.277  0.0805  0.1357 -0.2251
    1DIPC   C1B 9561   4.676  27.592   7.151  0.3365 -0.1597  0.4029
    1DIPC   D2B 9562   4.954  27.586   6.789  0.0245 -0.1050 -0.1577
    1DIPC   D3B 9563   5.131  27.374   6.399 -0.1297  0.0249  0.0696
    1DIPC   C4B 9564   5.339  27.681   6.041  0.0551  0.0053  0.0877
    1DIPC   NC3 9565  12.438  14.599   6.029  0.1014  0.1080 -0.1074
    1DIPC   PO4 9566  12.952  14.611   5.947  0.0036  0.0627  0.1071
    1DIPC   GL1 9567  12.892  14.924   5.693  0.1339 -0.0623 -0.0224
    1DIPC   GL2 9568  12.465  14.997   5.647 -0.0998 -0.0606  0.0722
    1DIPC   C1A 9569  13.204  15.085   5.602 -0.1203 -0.0793  0.1607
    1DIPC   D2A 9570  13.634  15.060   5.309 -0.2879  0.1301  0.0147
    1DIPC   D3A 9571  13.616  14.677   5.358  0.5514 -0.1007 -0.4135
    1DIPC   C4A 9572  13.540  14.363   4.977 -0.0039 -0.1026  0.3511
    1DIPC   C1B 9573  12.457  14.884   5.200  0.2920  0.2488 -0.0548
    1DIPC   D2B 9574  12.615  14.666   4.826 -0.1950 -0.0519 -0.3262
    1DIPC   D3B 9575  13.105  14.658   4.964 -0.4307 -0.0090  0.3782
    1DIPC   C4B 9576  12.981  14.873   5.231  0.2498  0.1724 -0.3000
    1DIPC   NC3 9577  13.511   7.999   5.838 -0.0868  0.2287 -0.1233
    1DIPC   PO4 9578  13.844   7.772   5.851  0.1570  0.2441  0.0669
    1DIPC   GL1 9579  14.014   7.822   5.460  0.0651 -0.0461  0.0124
    1DIPC   GL2 9580  14.069   8.138   5.351  0.0055 -0.1450  0.3806
    1DIPC   C1A 9581  13.982   7.784   5.078  0.0988 -0.1257  0.0574
    1DIPC   D2A 9582  14.360   7.916   4.791  0.1146  0.0716 -0.1724
    1DIPC   D3A 9583  14.330   8.046   4.404  0.1254  0.1368 -0.0414
    1DIPC   C4A 9584  14.547   7.867   4.124 -0.1007 -0.1360 -0.1001
    1DIPC   C1B 9585  13.969   8.250   4.878 -0.3000  0.0582  0.3621
    1DIPC   D2B 9586  14.151   8.529   4.580  0.1386  0.0827  0.2954
    1DIPC   D3B 9587  14.535   8.422   4.785 -0.0149 -0.0819 -0.1375
    1DIPC   C4B 9588  14.880   8.520   4.611  0.1281 -0.1949  0.1315
    1DIPC   NC3 9589   1.085   8.050   7.047 -0.2741 -0.1786  0.1721
    1DIPC   PO4 9590   1.509   7.814   7.241  0.0546  0.0395 -0.1403
    1DIPC   GL1 9591   1.399   7.484   7.078 -0.0637  0.1131  0.1528
    1DIPC   GL2 9592   1.196   7.160   7.022 -0.1675  0.1735  0.0214
    1DIPC   C1A 9593   1.717   7.165   6.863  0.0773 -0.0646 -0.0690
    1DIPC   D2A 9594   1.985   6.832   6.887  0.1391  0.2780 -0.0906
    1DIPC   D3A 9595   1.785   6.731   6.479  0.0761  0.0355 -0.1711
    1DIPC   C4A 9596   2.041   6.401   6.208  0.1191  0.1823 -0.0840
    1DIPC   C1B 9597   0.854   6.821   7.243 -0.0575  0.0382 -0.1989
    1DIPC   D2B 9598   0.449   6.694   7.304  0.1690  0.1470 -0.1000
    1DIPC   D3B 9599   0.309   6.478   6.940  0.1418 -0.3697 -0.1304
    1DIPC   C4B 9600  -0.054   6.472   6.740 -0.0289 -0.0023 -0.3739
    1DIPC   NC3 9601   1.642  18.244   7.522  0.0200  0.1815  0.0020
    1DIPC   PO4 9602   1.847  18.661   7.326  0.1751  0.0240  0.2204
    1DIPC   GL1 9603   1.974  18.584   6.886 -0.2460  0.0817 -0.1339
    1DIPC   GL2 9604   2.211  18.785   6.672  0.0612  0.1469  0.4033
    1DIPC   C1A 9605   1.885  18.511   6.390  0.0915  0.1365  0.0087
    1DIPC   D2A 9606   2.105  18.280   6.084 -0.2602  0.4004  0.2284
    1DIPC   D3A 9607   2.400  17.966   6.270 -0.4406  0.2129 -0.2204
    1DIPC   C4A 9608   2.583  17.800   6.552 -0.1487  0.2613 -0.0874
    1DIPC   C1B 9609   2.233  18.821   6.133  0.0999 -0.1342  0.1017
    1DIPC   D2B 9610   2.310  18.734   5.593 -0.2093  0.1919 -0.1070
    1DIPC   D3B 9611   1.883  18.717   5.499  0.1430 -0.0053 -0.2067
    1DIPC   C4B 9612   1.832  19.085   5.202  0.4616  0.1592 -0.4027
    1DIPC   NC3 9613  23.645  12.355   6.675 -0.0514  0.3265  0.2361
    1DIPC   PO4 9614  23.710  12.729   6.859  0.1999 -0.0096 -0.1861
    1DIPC   GL1 9615  23.866  12.953   6.438 -0.0935  0.4966  0.0449
    1DIPC   GL2 9616  23.586  13.015   6.383 -0.2063 -0.0493  0.0231
    1DIPC   C1A 9617  24.233  12.948   6.303  0.0117  0.0656  0.4303
    1DIPC   D2A 9618  24.224  13.075   5.869 -0.0834  0.0151 -0.1644
    1DIPC   D3A 9619  24.202  12.722   5.798 -0.1894  0.2093 -0.0817
    1DIPC   C4A 9620  24.542  12.570   5.665  0.0079  0.1410 -0.3173
    1DIPC   C1B 9621  23.733  13.138   5.898 -0.1881 -0.0962  0.1375
    1DIPC   D2B 9622  23.731  13.216   5.514  0.0158  0.1179  0.1519
    1DIPC   D3B 9623  23.425  13.161   5.117  0.2834  0.1601 -0.2491
    1DIPC   C4B 9624  23.678  12.830   4.940 -0.0570  0.0805  0.1495
    1DIPC   NC3 9625   4.534  10.715   6.803 -0.0355 -0.1609  0.2081
    1DIPC   PO4 9626   4.782  10.371   6.503 -0.0624  0.1632 -0.1746
    1DIPC   GL1 9627   4.566  10.674   6.208 -0.1798  0.3242 -0.1146
    1DIPC   GL2 9628   4.443  10.562   5.939 -0.0075 -0.0657 -0.0217
    1DIPC   C1A 9629   4.518  11.079   5.958  0.3420 -0.0036  0.0768
    1DIPC   D2A 9630   4.501  10.916   5.619  0.0433 -0.0955  0.3899
    1DIPC   D3A 9631   4.153  10.699   5.410  0.1524  0.2016  0.0453
    1DIPC   C4A 9632   3.611  10.795   5.536  0.2186  0.0531  0.0909
    1DIPC   C1B 9633   4.674  10.421   5.495  0.0215 -0.2717 -0.1294
    1DIPC   D2B 9634   5.036  10.445   5.086 -0.3443 -0.0469 -0.0314
    1DIPC   D3B 9635   5.277  10.708   4.935 -0.0162 -0.0637 -0.0861
    1DIPC   C4B 9636   5.688  10.633   4.694 -0.1359 -0.0084  0.1900
    1DIPC   NC3 9637  25.107  27.309   7.724 -0.1838 -0.0451 -0.0220
    1DIPC   PO4 9638  25.541  27.050   7.489  0.1693  0.1646  0.0682
    1DIPC   GL1 9639  25.546  26.948   7.116 -0.1231  0.0799  0.1991
    1DIPC   GL2 9640  25.869  26.900   7.184  0.0815  0.0877  0.3012
    1DIPC   C1A 9641  25.612  26.834   6.668 -0.2508  0.0150 -0.0674
    1DIPC   D2A 9642  25.405  26.634   6.304 -0.1510 -0.1660 -0.0996
    1DIPC   D3A 9643  25.695  26.656   6.231 -0.0419 -0.2699 -0.0616
    1DIPC   C4A 9644  25.912  26.265   6.123  0.1842  0.1525 -0.2182
    1DIPC   C1B 9645  25.944  26.547   7.067 -0.1013 -0.1031 -0.0289
    1DIPC   D2B 9646  26.148  26.136   7.028  0.0666 -0.0673 -0.0178
    1DIPC   D3B 9647  26.170  25.932   6.675  0.0046  0.1438  0.0804
    1DIPC   C4B 9648  26.356  26.156   6.257  0.2882  0.2984  0.0362
    1DIPC   NC3 9649   9.063   7.888   6.689 -0.1584  0.1274  0.0478
    1DIPC   PO4 9650   8.560   7.826   6.668 -0.1174  0.0203  0.3304
    1DIPC   GL1 9651   8.671   8.172   6.301 -0.2783  0.0233 -0.2157
    1DIPC   GL2 9652   8.460   8.128   6.244 -0.0575 -0.0136 -0.0550
    1DIPC   C1A 9653   8.822   8.232   5.916  0.0307 -0.0719  0.0246
    1DIPC   D2A 9654   8.589   8.227   5.516 -0.1226  0.1869 -0.2822
    1DIPC   D3A 9655   8.590   8.450   5.191 -0.0395 -0.1519 -0.0192
    1DIPC   C4A 9656   8.442   8.094   4.905 -0.0624  0.1306  0.1707
    1DIPC   C1B 9657   8.356   8.452   5.917  0.0892  0.0922 -0.0672
    1DIPC   D2B 9658   8.690   8.693   5.645 -0.4302 -0.2073 -0.4233
    1DIPC   D3B 9659   8.601   8.863   6.014  0.0260 -0.2772  0.0935
    1DIPC   C4B 9660   8.096   9.017   6.056 -0.1132 -0.0462  0.0487
    1DIPC   NC3 9661   8.015  10.927   6.044  0.0665 -0.2575 -0.0962
    1DIPC   PO4 9662   7.720  10.718   6.144  0.1541 -0.1153 -0.4069
    1DIPC   GL1 9663   7.463  10.473   5.977 -0.1459  0.2540  0.0753
    1DIPC   GL2 9664   7.442  10.733   5.647 -0.1800 -0.1250  0.0341
    1DIPC   C1A 9665   7.489  10.272   5.589 -0.1214 -0.0619 -0.0064
    1DIPC   D2A 9666   7.376  10.233   5.222 -0.0412 -0.1352  0.1252
    1DIPC   D3A 9667   7.384  10.000   4.970 -0.0403 -0.2181  0.0470
    1DIPC   C4A 9668   7.077   9.679   4.874 -0.1407 -0.0462 -0.0137
    1DIPC   C1B 9669   7.313  10.743   5.219 -0.4611 -0.2248  0.2485
    1DIPC   D2B 9670   7.202  10.499   4.814 -0.1327  0.0437 -0.2941
    1DIPC   D3B 9671   6.920  10.535   4.460 -0.0262 -0.1936  0.0042
    1DIPC   C4B 9672   6.792  10.904   4.358  0.3871  0.0290  0.2983
    1DIPC   NC3 9673  24.600  11.047   7.052 -0.2668  0.0178 -0.0110
    1DIPC   PO4 9674  24.334  10.762   6.908 -0.0665  0.1789  0.1066
    1DIPC   GL1 9675  24.262  10.930   6.522 -0.0119 -0.2230  0.1226
    1DIPC   GL2 9676  24.095  11.229   6.409  0.0158  0.3146 -0.3527
    1DIPC   C1A 9677  24.339  10.839   6.111 -0.1591  0.1074  0.0461
    1DIPC   D2A 9678  24.593  10.579   5.773 -0.0216  0.0347 -0.3357
    1DIPC   D3A 9679  24.428  10.963   5.523 -0.1832 -0.0229  0.1802
    1DIPC   C4A 9680  24.350  11.054   5.152 -0.0564 -0.0915  0.1505
    1DIPC   C1B 9681  24.052  11.218   5.890  0.0807 -0.0764  0.2289
    1DIPC   D2B 9682  23.935  11.087   5.468  0.0998 -0.0776  0.0369
    1DIPC   D3B 9683  23.638  11.268   5.169  0.0589 -0.0243  0.1554
    1DIPC   C4B 9684  23.549  11.734   5.076 -0.0263 -0.4148  0.1352
    1DIPC   NC3 9685   3.452  19.607   7.384 -0.0026  0.1096  0.2672
    1DIPC   PO4 9686   3.319  19.997   7.332 -0.1632  0.0080  0.2822
    1DIPC   GL1 9687   3.641  19.862   7.027 -0.0442 -0.0932  0.1997
    1DIPC   GL2 9688   3.657  19.540   6.922 -0.4259 -0.0490 -0.2760
    1DIPC   C1A 9689   4.031  20.061   6.888 -0.0761  0.0845  0.3466
    1DIPC   D2A 9690   4.599  20.067   6.768  0.0522 -0.1723  0.2490
    1DIPC   D3A 9691   4.763  20.320   6.345 -0.2522 -0.0883  0.0296
    1DIPC   C4A 9692   4.431  20.272   6.095  0.0144  0.0085 -0.0667
    1DIPC   C1B 9693   3.435  19.506   6.616  0.0124 -0.2268  0.0422
    1DIPC   D2B 9694   3.165  19.540   6.230  0.2197 -0.1281  0.1204
    1DIPC   D3B 9695   3.283  19.651   5.873 -0.2206 -0.0706  0.1257
    1DIPC   C4B 9696   3.127  19.875   5.613  0.3898 -0.1563 -0.0551
    1DIPC   NC3 9697   9.887  24.739   6.895  0.2660  0.1370  0.0611
    1DIPC   PO4 9698   9.524  24.974   6.921 -0.0599 -0.2540  0.1073
    1DIPC   GL1 9699   9.688  25.106   6.630 -0.1189 -0.3197 -0.0639
    1DIPC   GL2 9700   9.759  25.400   6.619  0.4261 -0.0563 -0.2742
    1DIPC   C1A 9701   9.704  24.803   6.213  0.0433 -0.0013 -0.2058
    1DIPC   D2A 9702   9.946  24.437   5.871 -0.0784  0.1022  0.1518
    1DIPC   D3A 9703   9.792  24.887   5.778 -0.0264 -0.0392  0.5986
    1DIPC   C4A 9704   9.697  25.011   5.303 -0.0376  0.2501 -0.1159
    1DIPC   C1B 9705   9.685  25.743   6.330 -0.1241 -0.0487  0.2601
    1DIPC   D2B 9706   9.669  26.031   6.014 -0.1907 -0.3929  0.0326
    1DIPC   D3B 9707   9.717  25.913   5.525  0.1390 -0.1218 -0.0774
    1DIPC   C4B 9708   9.965  25.536   5.367 -0.3548  0.1962  0.2606
    1DIPC   NC3 9709   5.591  20.315   7.353  0.1622  0.2562  0.0320
    1DIPC   PO4 9710   5.319  19.935   7.245 -0.0929  0.0127  0.0437
    1DIPC   GL1 9711   5.191  19.946   6.827  0.4562  0.3913  0.1034
    1DIPC   GL2 9712   5.174  20.149   6.607 -0.0083 -0.0366 -0.2705
    1DIPC   C1A 9713   5.347  19.597   6.627 -0.0292  0.2979  0.1225
    1DIPC   D2A 9714   5.648  19.235   6.422  0.0270  0.3296 -0.0921
    1DIPC   D3A 9715   5.528  19.395   6.111 -0.2105  0.0625  0.0015
    1DIPC   C4A 9716   5.355  19.149   5.749  0.0595  0.1144  0.1232
    1DIPC   C1B 9717   5.100  19.811   6.265  0.1745 -0.1355  0.0162
    1DIPC   D2B 9718   5.262  19.714   5.827 -0.1469  0.0293 -0.1056
    1DIPC   D3B 9719   5.580  19.887   5.510 -0.0204 -0.1848  0.1779
    1DIPC   C4B 9720   5.950  19.826   5.320  0.2245  0.0580 -0.0302
    1DIPC   NC3 9721   3.662  25.926   7.415  0.2973 -0.1868 -0.0983
    1DIPC   PO4 9722   3.483  25.492   7.500 -0.1837 -0.2106  0.0539
    1DIPC   GL1 9723   3.773  25.430   7.145  0.2249 -0.1507  0.2420
    1DIPC   GL2 9724   4.041  25.179   7.102  0.0168 -0.2760  0.3530
    1DIPC   C1A 9725   3.854  25.555   6.659 -0.0687 -0.0544 -0.0525
    1DIPC   D2A 9726   4.073  25.469   6.379 -0.2935 -0.1432  0.0512
    1DIPC   D3A 9727   4.259  25.211   6.074 -0.0018  0.1305  0.0883
    1DIPC   C4A 9728   4.001  25.061   5.681  0.0256 -0.3819 -0.0662
    1DIPC   C1B 9729   4.222  25.546   6.955  0.2261  0.0934  0.2413
    1DIPC   D2B 9730   4.282  25.884   6.568 -0.4135  0.1691 -0.0391
    1DIPC   D3B 9731   4.564  25.582   6.375 -0.1685  0.0309 -0.1247
    1DIPC   C4B 9732   4.707  25.669   5.977 -0.3773  0.1059  0.0426
    1DIPC   NC3 9733   3.596  21.160   7.000  0.0357  0.0992  0.0205
    1DIPC   PO4 9734   3.745  20.808   6.876  0.1625 -0.0233  0.1540
    1DIPC   GL1 9735   3.538  20.913   6.484 -0.0774  0.2593 -0.4104
    1DIPC   GL2 9736   3.462  21.251   6.434  0.0564  0.1144 -0.0493
    1DIPC   C1A 9737   3.527  20.825   6.062 -0.5040 -0.1207  0.2519
    1DIPC   D2A 9738   3.840  20.913   5.731  0.3944  0.1042 -0.0655
    1DIPC   D3A 9739   3.889  21.300   5.473  0.1146  0.3275  0.2196
    1DIPC   C4A 9740   4.232  21.578   5.413  0.0621 -0.2763 -0.0005
    1DIPC   C1B 9741   3.182  21.198   6.129 -0.1223 -0.0169 -0.1564
    1DIPC   D2B 9742   2.943  21.339   5.717 -0.0724  0.0795 -0.2990
    1DIPC   D3B 9743   2.896  20.874   5.660 -0.0208  0.0256  0.0247
    1DIPC   C4B 9744   3.270  20.630   5.688  0.4320  0.2667 -0.1109
    1DIPC   NC3 9745   4.238   7.405   7.228 -0.2934  0.2652  0.0200
    1DIPC   PO4 9746   4.117   6.965   7.169  0.3149  0.0232 -0.2068
    1DIPC   GL1 9747   3.875   6.966   6.781 -0.0018 -0.1047 -0.4491
    1DIPC   GL2 9748   3.649   7.212   6.700  0.0663  0.0462 -0.3826
    1DIPC   C1A 9749   4.036   6.730   6.481  0.0938 -0.3142 -0.0682
    1DIPC   D2A 9750   4.221   6.676   6.111  0.1083 -0.0891 -0.2908
    1DIPC   D3A 9751   4.132   6.422   5.785 -0.0691  0.3023 -0.0662
    1DIPC   C4A 9752   4.384   6.330   5.417  0.1127 -0.0456 -0.1256
    1DIPC   C1B 9753   3.691   7.491   6.379 -0.0539  0.1608 -0.2632
    1DIPC   D2B 9754   3.583   7.955   6.352  0.0024 -0.2067  0.1763
    1DIPC   D3B 9755   3.162   7.808   6.626  0.3120  0.2289 -0.1305
    1DIPC   C4B 9756   2.908   8.175   6.689 -0.3707 -0.1402 -0.2155
    1DIPC   NC3 9757   1.267  20.366   7.694  0.0565  0.0013 -0.0581
    1DIPC   PO4 9758   1.352  19.996   7.475  0.0072 -0.0057  0.0464
    1DIPC   GL1 9759   1.189  19.861   7.055  0.1494 -0.1365 -0.0316
    1DIPC   GL2 9760   1.396  19.906   6.722 -0.0699  0.1671 -0.1642
    1DIPC   C1A 9761   0.841  19.724   7.013  0.2237  0.0769  0.2490
    1DIPC   D2A 9762   0.480  19.791   7.162  0.1499 -0.2047  0.2017
    1DIPC   D3A 9763   0.377  19.756   6.762  0.1188  0.1764  0.1051
    1DIPC   C4A 9764   0.551  19.633   6.383 -0.0220  0.1015  0.0926
    1DIPC   C1B 9765   1.234  19.783   6.354  0.2945  0.1918  0.0679
    1DIPC   D2B 9766   1.584  19.558   5.955  0.1158  0.0237 -0.1539
    1DIPC   D3B 9767   1.356  19.999   5.896 -0.4315 -0.1104 -0.1509
    1DIPC   C4B 9768   1.612  20.174   5.561  0.1015  0.0082 -0.5236
    1DIPC   NC3 9769  23.722  16.676   7.428 -0.1312  0.1035 -0.0425
    1DIPC   PO4 9770  23.672  16.985   7.128  0.0805  0.1985  0.0965
    1DIPC   GL1 9771  23.768  17.044   6.695  0.1610  0.0769 -0.3258
    1DIPC   GL2 9772  23.515  16.935   6.553  0.2458  0.1109 -0.0324
    1DIPC   C1A 9773  23.688  17.406   6.329  0.0178 -0.0321  0.2031
    1DIPC   D2A 9774  23.414  17.516   6.029  0.0820  0.0559  0.0873
    1DIPC   D3A 9775  23.166  17.851   5.846 -0.0836  0.2954  0.1699
    1DIPC   C4A 9776  23.228  17.969   5.491 -0.1337 -0.0413  0.1625
    1DIPC   C1B 9777  23.589  16.932   6.061 -0.1603 -0.1667  0.2267
    1DIPC   D2B 9778  23.783  17.198   5.769  0.1705 -0.3863 -0.1554
    1DIPC   D3B 9779  23.907  17.014   5.375  0.0934  0.0101 -0.0437
    1DIPC   C4B 9780  24.253  17.169   5.246  0.1012  0.1452  0.1920
    1DIPC   NC3 9781  12.206   7.762   5.581 -0.0504 -0.0649 -0.1629
    1DIPC   PO4 9782  11.780   7.841   5.894  0.0674 -0.0174 -0.0888
    1DIPC   GL1 9783  11.726   7.721   5.512 -0.0885  0.1073 -0.1937
    1DIPC   GL2 9784  11.596   7.302   5.497 -0.1686 -0.0502 -0.2369
    1DIPC   C1A 9785  11.749   7.903   5.118  0.1155 -0.3728 -0.1020
    1DIPC   D2A 9786  11.667   8.129   4.808 -0.2045 -0.1607 -0.1144
    1DIPC   D3A 9787  11.331   7.796   4.783  0.3202 -0.3669  0.3992
    1DIPC   C4A 9788  11.332   7.603   4.323  0.1481 -0.0844 -0.0327
    1DIPC   C1B 9789  11.658   7.433   5.068 -0.0294 -0.1526  0.2324
    1DIPC   D2B 9790  11.788   7.597   4.647  0.1012 -0.1678  0.2061
    1DIPC   D3B 9791  12.076   8.045   4.488 -0.1777  0.0244  0.3024
    1DIPC   C4B 9792  12.570   7.900   4.495  0.0306 -0.1741 -0.0288
    1DIPC   NC3 9793  22.009   9.328   6.640  0.1786  0.1292  0.0030
    1DIPC   PO4 9794  21.766   9.466   6.258 -0.0511 -0.1037 -0.0313
    1DIPC   GL1 9795  21.976   9.555   5.886 -0.0966 -0.1601 -0.2176
    1DIPC   GL2 9796  21.895   9.527   5.485  0.1199  0.1476  0.1498
    1DIPC   C1A 9797  22.439   9.456   5.804 -0.0030 -0.0705 -0.1359
    1DIPC   D2A 9798  22.673   9.097   5.705 -0.0532  0.3434 -0.3012
    1DIPC   D3A 9799  22.816   9.085   5.309 -0.1121  0.0177 -0.1022
    1DIPC   C4A 9800  23.062   8.780   5.051  0.1776 -0.0664 -0.1430
    1DIPC   C1B 9801  22.056   9.549   5.119  0.4015 -0.1205  0.0378
    1DIPC   D2B 9802  22.125   9.274   4.692 -0.2074  0.0220  0.1989
    1DIPC   D3B 9803  21.865   9.426   4.354 -0.2350 -0.3409  0.1166
    1DIPC   C4B 9804  21.587   9.117   4.167 -0.0389  0.0087 -0.1053
    1DIPC   NC3 9805   1.503  10.953   7.726  0.1722 -0.0912  0.0665
    1DIPC   PO4 9806   1.958  10.824   7.498  0.0364  0.0311  0.1907
    1DIPC   GL1 9807   2.109  10.943   7.073 -0.1484 -0.0096 -0.2610
    1DIPC   GL2 9808   2.386  10.864   6.904 -0.1631  0.1388  0.0173
    1DIPC   C1A 9809   2.130  11.169   6.607  0.0907 -0.1206 -0.0457
    1DIPC   D2A 9810   2.221  11.023   6.208 -0.1299 -0.2041  0.0145
    1DIPC   D3A 9811   2.398  11.204   5.863  0.0379 -0.2778  0.0852
    1DIPC   C4A 9812   2.389  11.617   5.647 -0.0595 -0.0539 -0.2379
    1DIPC   C1B 9813   2.627  10.576   6.775 -0.2892 -0.2427 -0.0826
    1DIPC   D2B 9814   2.929  10.460   6.431 -0.4693 -0.0774 -0.1699
    1DIPC   D3B 9815   3.126  10.804   6.291  0.1088 -0.3178 -0.2179
    1DIPC   C4B 9816   3.113  10.572   5.816 -0.0894  0.2648 -0.1266
    1DIPC   NC3 9817   2.229  15.114   7.219 -0.1043  0.2063  0.1382
    1DIPC   PO4 9818   2.361  15.441   6.959 -0.1201  0.0436 -0.0656
    1DIPC   GL1 9819   1.947  15.450   6.704 -0.0062  0.3896 -0.0025
    1DIPC   GL2 9820   1.694  15.726   6.666  0.1871 -0.3034  0.0203
    1DIPC   C1A 9821   1.938  15.567   6.268  0.2109  0.1791 -0.0504
    1DIPC   D2A 9822   1.880  15.580   5.847  0.0148 -0.0717  0.0793
    1DIPC   D3A 9823   1.762  15.700   5.427  0.0172  0.0762  0.0219
    1DIPC   C4A 9824   2.168  15.665   5.069 -0.2425 -0.1280 -0.0535
    1DIPC   C1B 9825   1.282  15.639   6.465  0.1559  0.2103  0.1109
    1DIPC   D2B 9826   1.060  15.661   6.125  0.1118 -0.0682  0.1201
    1DIPC   D3B 9827   0.905  15.903   5.864 -0.0411 -0.0887 -0.0166
    1DIPC   C4B 9828   0.859  15.775   5.412 -0.0861 -0.0460 -0.3336
    1DIPC   NC3 9829   6.039   7.264   7.154  0.1446 -0.2006  0.2330
    1DIPC   PO4 9830   6.352   7.499   6.927 -0.0104 -0.3482 -0.0753
    1DIPC   GL1 9831   6.446   7.220   6.574  0.0440  0.0657  0.0732
    1DIPC   GL2 9832   6.610   7.342   6.307 -0.2317  0.1329 -0.2419
    1DIPC   C1A 9833   6.521   6.820   6.204 -0.2372  0.1266 -0.1666
    1DIPC   D2A 9834   6.517   6.340   5.962  0.0140  0.1974  0.2032
    1DIPC   D3A 9835   6.237   5.889   6.140  0.0265  0.0698 -0.0930
    1DIPC   C4A 9836   6.203   5.544   5.898  0.0783  0.0658 -0.1490
    1DIPC   C1B 9837   6.546   7.131   5.901 -0.1418 -0.1458  0.2945
    1DIPC   D2B 9838   6.588   7.070   5.431 -0.1267  0.0386 -0.2422
    1DIPC   D3B 9839   6.821   7.173   5.074 -0.3033 -0.1892 -0.5105
    1DIPC   C4B 9840   6.895   7.629   5.075  0.1778  0.1819  0.1236
    1DIPC   NC3 9841   2.117  26.423   8.008 -0.3402 -0.0368  0.0954
    1DIPC   PO4 9842   2.003  26.804   7.901 -0.0652  0.2505 -0.1239
    1DIPC   GL1 9843   1.879  26.973   7.418  0.0948 -0.0289  0.2067
    1DIPC   GL2 9844   2.097  27.024   7.250 -0.1156 -0.1457  0.0708
    1DIPC   C1A 9845   1.676  27.134   7.010  0.1356 -0.1071 -0.0446
    1DIPC   D2A 9846   1.634  27.058   6.551 -0.0644  0.1528 -0.2806
    1DIPC   D3A 9847   1.374  26.721   6.753  0.3358 -0.0784 -0.1932
    1DIPC   C4A 9848   1.075  26.554   6.528  0.0841  0.0865 -0.1483
    1DIPC   C1B 9849   2.140  27.033   6.852 -0.0715  0.0178  0.0016
    1DIPC   D2B 9850   2.174  26.993   6.442  0.1843  0.1884  0.1593
    1DIPC   D3B 9851   1.886  27.301   6.139 -0.4535  0.0668  0.1790
    1DIPC   C4B 9852   1.430  27.343   6.145  0.0695  0.0745 -0.0638
    1DIPC   NC3 9853  28.530  10.008   6.923  0.3491  0.1747 -0.1590
    1DIPC   PO4 9854  28.901  10.248   6.853  0.1683  0.0366  0.3477
    1DIPC   GL1 9855  28.713  10.207   6.451 -0.0476 -0.2079 -0.2811
    1DIPC   GL2 9856  28.402  10.187   6.382  0.2949 -0.0228 -0.0063
    1DIPC   C1A 9857  28.806  10.188   6.048 -0.0337 -0.1880 -0.5164
    1DIPC   D2A 9858  28.585  10.081   5.762  0.3896 -0.1692 -0.1640
    1DIPC   D3A 9859  28.315   9.963   5.503  0.3301 -0.2852  0.0112
    1DIPC   C4A 9860  28.024   9.729   5.152 -0.1615 -0.3903  0.1868
    1DIPC   C1B 9861  28.058  10.083   6.006  0.0702  0.2931 -0.1758
    1DIPC   D2B 9862  27.682  10.055   5.778 -0.2150  0.0908  0.3699
    1DIPC   D3B 9863  27.668   9.615   5.508 -0.1290 -0.2549 -0.0106
    1DIPC   C4B 9864  27.318   9.306   5.580  0.0352 -0.3729  0.0899
    1DIPC   NC3 9865  28.051   8.576   7.621 -0.0882 -0.1833  0.0346
    1DIPC   PO4 9866  27.870   8.291   7.964 -0.2065  0.0421 -0.0819
    1DIPC   GL1 9867  27.674   8.071   7.581 -0.0572 -0.0581 -0.2921
    1DIPC   GL2 9868  27.525   7.739   7.491 -0.0915 -0.1879  0.0763
    1DIPC   C1A 9869  27.803   7.935   7.129 -0.0845  0.1436 -0.3579
    1DIPC   D2A 9870  27.960   7.749   6.801  0.1154 -0.1684 -0.3353
    1DIPC   D3A 9871  27.742   7.565   6.425  0.2142 -0.1447 -0.1659
    1DIPC   C4A 9872  27.938   7.233   6.162  0.2112 -0.1127  0.0135
    1DIPC   C1B 9873  27.540   7.407   7.280 -0.1954  0.0921 -0.0468
    1DIPC   D2B 9874  27.643   7.196   6.890 -0.2629  0.0786 -0.0731
    1DIPC   D3B 9875  28.000   7.107   6.706  0.0072 -0.2612 -0.0064
    1DIPC   C4B 9876  28.242   7.512   6.408  0.0249  0.0361 -0.1663
    1DIPC   NC3 9877   2.487   4.732   8.060  0.0555 -0.1570 -0.1243
    1DIPC   PO4 9878   2.795   5.048   7.914 -0.2612 -0.0628  0.1132
    1DIPC   GL1 9879   2.566   5.345   7.630  0.0643 -0.2465 -0.2149
    1DIPC   GL2 9880   2.720   5.250   7.321  0.0007  0.0329 -0.1180
    1DIPC   C1A 9881   2.524   5.727   7.365  0.3674 -0.0160  0.0406
    1DIPC   D2A 9882   2.689   6.135   7.072  0.2275 -0.2286  0.0340
    1DIPC   D3A 9883   2.741   5.847   6.846 -0.1854  0.1500 -0.1126
    1DIPC   C4A 9884   3.056   5.606   6.933 -0.2388 -0.1165  0.2550
    1DIPC   C1B 9885   2.448   4.896   7.226  0.1550  0.1563 -0.1812
    1DIPC   D2B 9886   2.475   4.407   7.083  0.0792 -0.1362 -0.0483
    1DIPC   D3B 9887   2.849   4.351   6.966 -0.0382  0.0606 -0.1735
    1DIPC   C4B 9888   3.101   4.344   6.578 -0.2087  0.0634 -0.2287
    1DIPC   NC3 9889  20.448  28.158   7.014 -0.0791  0.0100  0.0494
    1DIPC   PO4 9890  20.198  28.461   6.899 -0.0228 -0.0388  0.1867
    1DIPC   GL1 9891  19.988  28.230   6.609  0.2001  0.0150 -0.0929
    1DIPC   GL2 9892  19.960  28.427   6.286 -0.0878 -0.2513  0.1156
    1DIPC   C1A 9893  19.949  27.884   6.481 -0.2155  0.1587  0.1681
    1DIPC   D2A 9894  19.752  27.543   6.277 -0.1979  0.0571 -0.0471
    1DIPC   D3A 9895  19.793  27.645   5.857  0.1950  0.2573 -0.1687
    1DIPC   C4A 9896  19.481  27.766   5.535  0.1173 -0.1594 -0.1154
    1DIPC   C1B 9897  20.116  28.073   6.026 -0.1551  0.3140 -0.1027
    1DIPC   D2B 9898  20.212  28.041   5.576  0.0816  0.0631  0.0712
    1DIPC   D3B 9899  20.537  28.253   5.350  0.1031 -0.3365 -0.0987
    1DIPC   C4B 9900  20.857  28.021   5.078  0.2361 -0.1026  0.0541
    1DIPC   NC3 9901  15.408  15.749   6.414 -0.0054  0.1922 -0.0793
    1DIPC   PO4 9902  15.612  16.147   6.305 -0.0435  0.1235 -0.1692
    1DIPC   GL1 9903  15.611  16.077   5.846 -0.0936 -0.0316 -0.1604
    1DIPC   GL2 9904  15.372  15.846   5.831  0.0606 -0.2037 -0.1556
    1DIPC   C1A 9905  15.712  16.102   5.324  0.1385 -0.4684 -0.0451
    1DIPC   D2A 9906  15.781  16.176   4.869  0.5659  0.0371  0.1098
    1DIPC   D3A 9907  15.478  16.477   4.744  0.0701  0.0517 -0.1507
    1DIPC   C4A 9908  15.187  16.701   4.402 -0.4383 -0.0712 -0.0894
    1DIPC   C1B 9909  15.348  15.682   5.433 -0.1600  0.0001  0.0729
    1DIPC   D2B 9910  15.367  15.698   5.017 -0.0116  0.2908  0.2780
    1DIPC   D3B 9911  15.385  15.952   4.663  0.1087 -0.1655  0.0205
    1DIPC   C4B 9912  15.051  16.200   4.627  0.1865 -0.1073  0.0082
    1DIPC   NC3 9913   0.769   9.329   7.310  0.1909  0.3434 -0.0783
    1DIPC   PO4 9914   0.478   8.911   7.268 -0.1497 -0.1262 -0.4392
    1DIPC   GL1 9915   0.067   8.940   6.985  0.3018 -0.0115  0.1701
    1DIPC   GL2 9916  -0.072   9.204   6.890  0.1500 -0.1299 -0.0927
    1DIPC   C1A 9917   0.046   8.703   6.494 -0.1312 -0.0679 -0.2989
    1DIPC   D2A 9918   0.079   8.656   5.996 -0.1443  0.1527  0.2930
    1DIPC   D3A 9919   0.156   8.418   5.612 -0.0664 -0.3120 -0.1302
    1DIPC   C4A 9920   0.312   8.083   5.525 -0.0930  0.4532 -0.1916
    1DIPC   C1B 9921  -0.290   9.038   6.425 -0.0600 -0.0258 -0.0607
    1DIPC   D2B 9922  -0.759   8.873   6.338 -0.2167  0.0969  0.0210
    1DIPC   D3B 9923  -0.855   8.758   5.873  0.0910 -0.1222 -0.2957
    1DIPC   C4B 9924  -0.906   8.308   5.827 -0.1921 -0.3199  0.1709
    1DIPC   NC3 9925   2.575  26.546   7.787  0.0543  0.3042 -0.2525
    1DIPC   PO4 9926   2.781  26.865   7.875 -0.1026 -0.0933  0.0278
    1DIPC   GL1 9927   2.878  26.735   7.471  0.1825  0.0113 -0.0397
    1DIPC   GL2 9928   2.605  26.808   7.303  0.1451  0.0888 -0.1959
    1DIPC   C1A 9929   3.311  26.609   7.217 -0.2977 -0.1016  0.1348
    1DIPC   D2A 9930   3.554  26.258   7.031  0.0400 -0.2348 -0.1210
    1DIPC   D3A 9931   3.441  26.580   6.685 -0.1203 -0.1739  0.2374
    1DIPC   C4A 9932   3.643  26.839   6.403 -0.1264 -0.0055 -0.3553
    1DIPC   C1B 9933   2.318  26.592   6.954  0.1740 -0.0930  0.0592
    1DIPC   D2B 9934   2.362  26.510   6.506  0.2784 -0.2608  0.2954
    1DIPC   D3B 9935   2.615  26.787   6.360 -0.0546 -0.3061  0.0767
    1DIPC   C4B 9936   2.501  26.836   5.919 -0.0838  0.1307  0.2444
    1DIPC   NC3 9937  25.666   3.661   7.829  0.3318  0.1494 -0.4407
    1DIPC   PO4 9938  25.943   3.947   8.018  0.0259 -0.0670 -0.2734
    1DIPC   GL1 9939  26.181   4.008   7.574  0.3279  0.3963 -0.1627
    1DIPC   GL2 9940  26.277   3.687   7.328  0.0004  0.1065  0.5705
    1DIPC   C1A 9941  26.203   4.254   7.235  0.0949  0.3370 -0.0001
    1DIPC   D2A 9942  26.277   4.243   6.838  0.1374  0.1012 -0.2289
    1DIPC   D3A 9943  26.141   4.506   6.503  0.0003 -0.2233 -0.0691
    1DIPC   C4A 9944  26.248   4.748   6.154 -0.0213 -0.1091 -0.0591
    1DIPC   C1B 9945  26.336   3.765   6.964  0.1870 -0.2041  0.4051
    1DIPC   D2B 9946  26.483   3.758   6.526 -0.1816  0.0299 -0.1890
    1DIPC   D3B 9947  26.306   3.966   6.364  0.1492 -0.0994 -0.0843
    1DIPC   C4B 9948  26.590   4.275   6.357 -0.0419 -0.0690  0.0307
    1DIPC   NC3 9949   4.235   1.362   8.351  0.1477 -0.1785  0.0692
    1DIPC   PO4 9950   4.535   1.364   8.009  0.3804  0.0086 -0.1412
    1DIPC   GL1 9951   4.345   1.603   7.582  0.2136 -0.0367  0.1633
    1DIPC   GL2 9952   4.365   1.966   7.501  0.4632 -0.0063 -0.2272
    1DIPC   C1A 9953   3.829   1.656   7.474  0.0716 -0.0804  0.1341
    1DIPC   D2A 9954   3.513   1.812   7.214  0.0274 -0.0050 -0.1777
    1DIPC   D3A 9955   3.508   1.897   6.817  0.2278 -0.0503  0.0233
    1DIPC   C4A 9956   3.853   1.627   6.499  0.0175  0.1700  0.1304
    1DIPC   C1B 9957   4.162   1.762   7.144 -0.2713  0.1242  0.0244
    1DIPC   D2B 9958   4.070   1.426   6.935  0.1371 -0.0707 -0.1195
    1DIPC   D3B 9959   4.222   1.240   6.552 -0.1480  0.3124 -0.0671
    1DIPC   C4B 9960   3.978   1.108   6.181  0.0131 -0.3087 -0.1385
    1DIPC   NC3 9961   9.223  23.147   7.004  0.2267 -0.0982 -0.0431
    1DIPC   PO4 9962   8.910  23.235   7.231  0.1548  0.4551  0.1382
    1DIPC   GL1 9963   8.860  23.312   6.721 -0.0610  0.3016  0.0274
    1DIPC   GL2 9964   8.563  23.288   6.427  0.0327 -0.1295 -0.0325
    1DIPC   C1A 9965   9.089  23.334   6.394  0.0979 -0.1496 -0.0289
    1DIPC   D2A 9966   9.398  23.233   6.168 -0.0628 -0.0021 -0.0757
    1DIPC   D3A 9967   9.067  23.204   5.835  0.3537 -0.1067 -0.0211
    1DIPC   C4A 9968   9.243  23.232   5.429  0.0443  0.1538 -0.1863
    1DIPC   C1B 9969   8.552  23.141   6.055  0.2074  0.1993 -0.1018
    1DIPC   D2B 9970   8.597  22.960   5.689 -0.0564 -0.1325 -0.1489
    1DIPC   D3B 9971   8.570  23.435   5.443 -0.1099 -0.0824  0.1687
    1DIPC   C4B 9972   8.943  23.624   5.575 -0.2516 -0.2195  0.1241
    1DIPC   NC3 9973  13.595  25.717   6.566 -0.0379 -0.2108  0.0365
    1DIPC   PO4 9974  13.459  26.082   6.505 -0.3220 -0.1369  0.2380
    1DIPC   GL1 9975  13.410  26.348   6.057 -0.0815 -0.1671  0.0046
    1DIPC   GL2 9976  13.620  26.546   6.257 -0.0488 -0.1531 -0.0440
    1DIPC   C1A 9977  13.358  26.420   5.634  0.0151  0.0268 -0.0546
    1DIPC   D2A 9978  13.490  26.293   5.242  0.0637 -0.0913  0.2142
    1DIPC   D3A 9979  13.209  26.580   5.128  0.1407  0.0761 -0.0804
    1DIPC   C4A 9980  12.939  26.698   4.790  0.0373  0.0797  0.3190
    1DIPC   C1B 9981  13.779  26.671   5.821  0.1270  0.0044 -0.0652
    1DIPC   D2B 9982  13.822  26.668   5.397 -0.1062 -0.1417  0.1235
    1DIPC   D3B 9983  13.978  26.300   5.437 -0.5321 -0.2458  0.2843
    1DIPC   C4B 9984  14.241  26.159   5.063 -0.0463  0.1178  0.1764
    1DIPC   NC3 9985   8.201   6.633   7.109  0.1851  0.1472  0.0040
    1DIPC   PO4 9986   8.256   6.214   6.994 -0.0828  0.0528 -0.4621
    1DIPC   GL1 9987   8.227   6.430   6.530 -0.2316  0.2772 -0.0332
    1DIPC   GL2 9988   7.861   6.322   6.352  0.1520 -0.0553  0.1487
    1DIPC   C1A 9989   8.214   6.519   6.074  0.0803  0.1199 -0.0790
    1DIPC   D2A 9990   8.000   6.550   5.745 -0.0424  0.1211 -0.1082
    1DIPC   D3A 9991   8.110   6.232   5.541  0.1511 -0.2244  0.1589
    1DIPC   C4A 9992   7.938   6.384   5.164 -0.2126  0.0328 -0.1109
    1DIPC   C1B 9993   7.802   6.053   5.983 -0.4443  0.2353  0.2791
    1DIPC   D2B 9994   7.695   5.744   5.564 -0.0273 -0.0556 -0.0833
    1DIPC   D3B 9995   7.862   5.912   5.209 -0.2268  0.1692  0.1998
    1DIPC   C4B 9996   7.513   6.007   4.944  0.3307  0.2124 -0.1055
    1DIPC   NC3 9997  13.447   4.597   5.890  0.2865 -0.3275 -0.1494
    1DIPC   PO4 9998  13.794   4.301   5.864  0.0954 -0.0546  0.2926
    1DIPC   GL1 9999  13.879   4.112   5.452  0.0782  0.1419 -0.1595
    1DIPC   GL210000  14.222   4.094   5.559  0.1342 -0.0625  0.1162
    1DIPC   C1A10001  13.691   4.066   5.037 -0.0630  0.2584 -0.3250
    1DIPC   D2A10002  13.515   4.192   4.671  0.0555 -0.1739  0.0439
    1DIPC   D3A10003  13.270   4.504   4.619  0.1510  0.0372  0.2347
    1DIPC   C4A10004  13.142   4.862   4.913  0.0820 -0.0556 -0.0605
    1DIPC   C1B10005  14.187   4.049   5.120  0.0899  0.1539  0.1573
    1DIPC   D2B10006  14.218   3.982   4.705  0.1232  0.2689  0.0720
    1DIPC   D3B10007  13.928   3.928   4.389 -0.1982  0.0510 -0.0069
    1DIPC   C4B10008  13.524   3.691   4.510 -0.0424 -0.0098 -0.3108
    1DIPC   NC310009   3.151  21.144   7.273  0.0546  0.0374 -0.1902
    1DIPC   PO410010   2.850  20.808   7.377 -0.0528 -0.2839  0.0537
    1DIPC   GL110011   2.720  20.651   7.046  0.1069 -0.2160  0.1609
    1DIPC   GL210012   2.419  20.454   6.997  0.2084  0.4490  0.0916
    1DIPC   C1A10013   2.714  20.752   6.581  0.0909  0.0045  0.1615
    1DIPC   D2A10014   2.538  20.675   6.137 -0.3645  0.0828 -0.1365
    1DIPC   D3A10015   3.043  20.740   6.160 -0.0350  0.2945 -0.2745
    1DIPC   C4A10016   3.358  20.407   6.356 -0.1450  0.0240 -0.0835
    1DIPC   C1B10017   2.297  20.408   6.555  0.1252  0.1739  0.2061
    1DIPC   D2B10018   2.194  20.258   6.098  0.2055  0.0475 -0.2765
    1DIPC   D3B10019   2.416  20.450   5.733  0.1382 -0.0014 -0.2362
    1DIPC   C4B10020   2.421  20.973   5.736 -0.2434 -0.2376  0.1082
    1DIPC   NC310021   7.121  10.934   6.329  0.1821 -0.1866  0.2100
    1DIPC   PO410022   7.111  11.378   6.448  0.2417 -0.2415  0.2530
    1DIPC   GL110023   6.883  11.416   6.024  0.2451  0.3960 -0.0047
    1DIPC   GL210024   7.065  11.497   5.758 -0.1402 -0.1181 -0.0883
    1DIPC   C1A10025   6.614  11.328   5.656 -0.2249 -0.2723  0.2189
    1DIPC   D2A10026   6.349  11.137   5.369 -0.0314 -0.1381  0.1487
    1DIPC   D3A10027   6.392  11.161   4.880  0.1509  0.0281 -0.2525
    1DIPC   C4A10028   6.532  11.470   4.638  0.1157 -0.2411 -0.1845
    1DIPC   C1B10029   7.048  11.465   5.385 -0.1799  0.0801  0.1387
    1DIPC   D2B10030   6.871  11.372   5.011 -0.2469 -0.1660  0.1810
    1DIPC   D3B10031   6.936  10.990   4.859  0.1938  0.0194  0.1389
    1DIPC   C4B10032   6.676  10.574   4.896 -0.1399 -0.0437  0.0510
    1DIPC   NC310033  24.218  12.361   7.130 -0.0002 -0.1550 -0.1137
    1DIPC   PO410034  24.099  12.206   6.730  0.0681  0.0554 -0.3424
    1DIPC   GL110035  24.239  12.185   6.418  0.0885 -0.0034  0.2453
    1DIPC   GL210036  24.041  12.354   6.229 -0.0119  0.2082 -0.2007
    1DIPC   C1A10037  24.377  12.109   5.917 -0.1290 -0.0193  0.0419
    1DIPC   D2A10038  24.572  12.025   5.462 -0.1037 -0.0688 -0.1625
    1DIPC   D3A10039  24.922  12.251   5.303  0.0204  0.3447  0.0041
    1DIPC   C4A10040  25.235  12.075   5.232  0.0588 -0.1977 -0.0329
    1DIPC   C1B10041  23.752  12.469   5.834 -0.0980 -0.1310 -0.0707
    1DIPC   D2B10042  23.758  12.741   5.465 -0.1468  0.3399 -0.0323
    1DIPC   D3B10043  23.480  12.494   5.276 -0.1811 -0.0557 -0.0545
    1DIPC   C4B10044  23.483  12.098   5.499  0.1831  0.2130 -0.0651
    1DIPC   NC310045  13.719  13.367   6.230  0.0029  0.0518 -0.1262
    1DIPC   PO410046  13.523  12.999   6.089 -0.3171 -0.1023  0.1154
    1DIPC   GL110047  13.656  13.025   5.651  0.2781 -0.2087 -0.0082
    1DIPC   GL210048  14.002  13.243   5.594  0.1805  0.0942  0.4084
    1DIPC   C1A10049  13.361  13.100   5.409  0.1419  0.3294 -0.0820
    1DIPC   D2A10050  13.045  13.536   5.406 -0.1026 -0.0667 -0.0211
    1DIPC   D3A10051  12.648  13.632   5.272  0.2926  0.1864  0.1114
    1DIPC   C4A10052  12.488  13.972   5.528 -0.0444 -0.0992 -0.4062
    1DIPC   C1B10053  14.294  13.169   5.192 -0.2720  0.0381  0.0267
    1DIPC   D2B10054  14.726  13.233   5.056  0.2210  0.1667  0.4138
    1DIPC   D3B10055  14.715  13.254   4.474 -0.0781  0.2360 -0.0874
    1DIPC   C4B10056  14.245  13.263   4.252  0.0484  0.2484 -0.0761
    1DIPC   NC310057  16.179  16.303   6.549  0.0639  0.1852  0.1187
    1DIPC   PO410058  15.948  15.812   6.502 -0.1948  0.1216  0.0182
    1DIPC   GL110059  15.991  15.900   6.077 -0.1897  0.0530  0.1696
    1DIPC   GL210060  16.231  15.857   5.861  0.0465  0.0621 -0.0516
    1DIPC   C1A10061  15.808  15.745   5.634 -0.0850 -0.1045  0.1687
    1DIPC   D2A10062  15.891  15.643   5.243  0.1072 -0.0439 -0.1578
    1DIPC   D3A10063  15.718  15.507   4.707  0.0341  0.1438  0.1822
    1DIPC   C4A10064  15.354  15.444   4.526 -0.0451  0.0125  0.2377
    1DIPC   C1B10065  16.692  15.843   5.826 -0.3306 -0.0879 -0.0807
    1DIPC   D2B10066  17.070  15.923   5.933  0.1144  0.1151  0.2412
    1DIPC   D3B10067  16.901  16.261   6.071 -0.0444 -0.0925  0.3240
    1DIPC   C4B10068  16.527  16.327   5.927 -0.0369  0.0924  0.0424
    1DIPC   NC310069   4.630   3.829   7.394 -0.1506  0.0962 -0.0291
    1DIPC   PO410070   4.946   3.495   7.624  0.0403  0.0841 -0.2453
    1DIPC   GL110071   5.087   3.372   7.268 -0.0892  0.0712  0.0425
    1DIPC   GL210072   5.050   3.651   7.112 -0.3001 -0.5109  0.0807
    1DIPC   C1A10073   5.400   3.517   6.826 -0.0989  0.1288  0.0758
    1DIPC   D2A10074   5.527   3.501   6.437 -0.0953 -0.0671  0.0469
    1DIPC   D3A10075   5.895   3.428   6.163  0.1167 -0.0389 -0.0065
    1DIPC   C4A10076   5.949   3.715   5.880  0.0468 -0.3815 -0.2021
    1DIPC   C1B10077   4.886   3.748   6.698  0.3289 -0.1801 -0.2003
    1DIPC   D2B10078   4.897   3.901   6.241 -0.1630  0.1006 -0.1355
    1DIPC   D3B10079   5.265   3.904   6.459 -0.0296  0.1790 -0.1333
    1DIPC   C4B10080   5.256   4.031   6.856  0.1562  0.0250 -0.1440
    1DIPC   NC310081  16.835  18.329   6.454  0.3049 -0.1047  0.1645
    1DIPC   PO410082  17.085  17.878   6.415 -0.2640  0.2568  0.0775
    1DIPC   GL110083  16.973  18.040   6.060  0.0396  0.1122  0.2196
    1DIPC   GL210084  16.999  17.685   5.886  0.3186 -0.1606 -0.3861
    1DIPC   C1A10085  16.987  18.076   5.546  0.1948 -0.4064 -0.1624
    1DIPC   D2A10086  16.829  17.900   5.157 -0.0184  0.2368 -0.3107
    1DIPC   D3A10087  16.437  18.132   4.829  0.1477 -0.1987 -0.1704
    1DIPC   C4A10088  16.361  18.508   4.811  0.0841  0.0281 -0.0316
    1DIPC   C1B10089  17.345  17.683   5.435  0.0359 -0.2252 -0.0554
    1DIPC   D2B10090  17.448  17.401   5.109 -0.1848  0.0685 -0.0595
    1DIPC   D3B10091  17.538  17.128   4.946 -0.3885  0.0676  0.0600
    1DIPC   C4B10092  17.464  16.726   4.725  0.3194 -0.1302  0.1868
    1DIPC   NC310093  12.071   3.830   6.401  0.0058  0.0301 -0.1844
    1DIPC   PO410094  12.430   3.919   6.135  0.0886  0.2455 -0.2467
    1DIPC   GL110095  12.039   3.547   5.987 -0.0771  0.1970  0.1185
    1DIPC   GL210096  12.057   3.691   5.678  0.0597 -0.1011  0.0106
    1DIPC   C1A10097  11.581   3.552   5.856 -0.1009  0.0609  0.1838
    1DIPC   D2A10098  10.940   3.598   5.970  0.2485 -0.0692  0.0923
    1DIPC   D3A10099  10.446   3.671   6.034  0.2943  0.0180 -0.4234
    1DIPC   C4A10100  10.180   3.776   5.720  0.0115 -0.1853  0.0244
    1DIPC   C1B10101  11.761   3.631   5.389  0.2495  0.2868 -0.0507
    1DIPC   D2B10102  11.561   3.555   4.971 -0.2043  0.3583  0.1363
    1DIPC   D3B10103  11.331   3.414   4.617 -0.3632  0.0055  0.1638
    1DIPC   C4B10104  10.841   3.305   4.557  0.2981 -0.0218  0.0874
    1DIPC   NC310105  16.550   9.941   5.988 -0.2310  0.1303  0.0785
    1DIPC   PO410106  16.936  10.117   5.721 -0.2626  0.1010  0.3451
    1DIPC   GL110107  16.828  10.575   5.619  0.1899  0.2012  0.0484
    1DIPC   GL210108  16.982  10.750   5.402  0.2057  0.3565 -0.2628
    1DIPC   C1A10109  16.508  10.582   5.264  0.0881  0.0377  0.0921
    1DIPC   D2A10110  16.266  10.390   5.052 -0.0180  0.1693  0.1629
    1DIPC   D3A10111  16.489  10.146   4.830 -0.3553 -0.0329  0.0113
    1DIPC   C4A10112  16.392  10.116   4.314 -0.1202  0.1487 -0.0178
    1DIPC   C1B10113  17.255  10.872   4.958  0.2136  0.1359 -0.0590
    1DIPC   D2B10114  17.262  10.958   4.453 -0.0387  0.2218 -0.1592
    1DIPC   D3B10115  17.065  10.564   4.311 -0.2765 -0.1693 -0.0973
    1DIPC   C4B10116  16.574  10.563   4.453  0.1887  0.1817 -0.1541
    1DIPC   NC310117  20.602  20.291   6.149  0.1795  0.0948  0.0937
    1DIPC   PO410118  20.441  20.725   6.015  0.0973 -0.2667  0.0611
    1DIPC   GL110119  20.436  20.576   5.647 -0.3442 -0.0775  0.0261
    1DIPC   GL210120  20.637  20.368   5.663 -0.0987  0.1224  0.2259
    1DIPC   C1A10121  20.433  20.643   5.189  0.0965 -0.3043  0.0103
    1DIPC   D2A10122  20.519  20.803   4.736 -0.1184  0.1093 -0.0032
    1DIPC   D3A10123  20.370  20.713   4.360 -0.0204 -0.1327  0.2178
    1DIPC   C4A10124  20.201  20.783   3.951 -0.2096 -0.1882 -0.2491
    1DIPC   C1B10125  20.624  20.043   5.344  0.0525  0.2091 -0.1619
    1DIPC   D2B10126  20.456  19.737   5.087 -0.0094  0.0190 -0.1736
    1DIPC   D3B10127  20.370  19.553   4.730 -0.0055 -0.1248 -0.0521
    1DIPC   C4B10128  20.539  19.567   4.294 -0.2832 -0.3276  0.2521
    1DIPC   NC310129  13.291  14.235   6.065 -0.1261  0.2352  0.1979
    1DIPC   PO410130  13.478  14.604   6.184 -0.0233  0.2037  0.4228
    1DIPC   GL110131  13.719  14.419   5.899  0.2395  0.0749  0.0440
    1DIPC   GL210132  13.925  14.492   5.899 -0.1937 -0.0942 -0.0464
    1DIPC   C1A10133  13.767  14.208   5.462 -0.0444  0.3872 -0.0521
    1DIPC   D2A10134  14.074  14.298   5.152 -0.1855  0.0117  0.0085
    1DIPC   D3A10135  14.417  14.074   5.112  0.1450 -0.0431  0.4191
    1DIPC   C4A10136  14.608  14.151   4.745  0.2941  0.1753  0.2131
    1DIPC   C1B10137  14.084  14.653   5.519  0.0604  0.0093 -0.3530
    1DIPC   D2B10138  14.089  14.887   5.109  0.1610 -0.1415  0.1278
    1DIPC   D3B10139  13.711  14.895   4.831  0.1806  0.1561  0.1894
    1DIPC   C4B10140  13.317  15.150   4.868  0.0058 -0.0335 -0.3713
    1DIPC   NC310141   4.095  16.760   6.867  0.1482 -0.4256 -0.2679
    1DIPC   PO410142   3.916  17.171   6.859  0.0685  0.0409  0.1458
    1DIPC   GL110143   3.651  17.034   6.607 -0.0976  0.0079 -0.0120
    1DIPC   GL210144   3.618  16.744   6.710  0.1552 -0.0739 -0.0079
    1DIPC   C1A10145   3.714  16.929   6.222 -0.0064 -0.0713  0.0003
    1DIPC   D2A10146   3.913  16.978   5.838  0.1061  0.1237 -0.0915
    1DIPC   D3A10147   3.825  16.686   5.574 -0.2263 -0.2218 -0.3459
    1DIPC   C4A10148   3.733  16.385   5.359  0.2681  0.0037 -0.0995
    1DIPC   C1B10149   3.418  16.582   6.395  0.0625 -0.2108  0.0910
    1DIPC   D2B10150   3.519  16.513   6.002  0.2635 -0.1365  0.2786
    1DIPC   D3B10151   3.227  16.531   5.679  0.2246 -0.0377  0.0831
    1DIPC   C4B10152   3.292  16.788   5.357 -0.4804 -0.3091  0.1720
    1DIPC   NC310153   9.347   3.044   7.176 -0.1935 -0.1058 -0.0130
    1DIPC   PO410154   9.383   3.285   6.877 -0.2438  0.2773 -0.0000
    1DIPC   GL110155   9.210   3.267   6.437 -0.1574  0.2102  0.1556
    1DIPC   GL210156   9.415   3.335   6.256  0.0556  0.0562 -0.2094
    1DIPC   C1A10157   8.967   3.341   6.079 -0.0857 -0.1946  0.0515
    1DIPC   D2A10158   8.844   3.414   5.647 -0.1742 -0.0850  0.0359
    1DIPC   D3A10159   8.667   2.966   5.826 -0.3905 -0.0174  0.0154
    1DIPC   C4A10160   8.186   2.962   5.903  0.0527  0.3313  0.1408
    1DIPC   C1B10161   9.287   2.937   6.097  0.2633 -0.1896  0.0150
    1DIPC   D2B10162   9.173   2.556   5.896 -0.2328 -0.0555 -0.2125
    1DIPC   D3B10163   9.006   2.715   5.490  0.1218  0.1351  0.1115
    1DIPC   C4B10164   8.617   2.873   5.311 -0.0800 -0.2865 -0.1233
    1DIPC   NC310165  24.573  12.053   6.854 -0.4321 -0.3501  0.0137
    1DIPC   PO410166  24.993  12.279   6.781 -0.0700 -0.0895  0.4098
    1DIPC   GL110167  24.768  12.159   6.394  0.0977  0.2658 -0.0553
    1DIPC   GL210168  24.677  11.839   6.448 -0.0587 -0.2836 -0.1107
    1DIPC   C1A10169  24.606  12.565   6.196 -0.1183  0.0040  0.0242
    1DIPC   D2A10170  24.761  13.000   6.135 -0.2497  0.1766  0.1862
    1DIPC   D3A10171  24.999  12.728   5.877  0.2891 -0.2986  0.0678
    1DIPC   C4A10172  24.878  12.222   5.900  0.1752  0.0783 -0.0984
    1DIPC   C1B10173  24.876  11.753   6.044  0.1146  0.2933 -0.2369
    1DIPC   D2B10174  25.029  11.817   5.593 -0.0803  0.2839  0.2870
    1DIPC   D3B10175  24.816  11.535   5.582  0.1116  0.2315 -0.1066
    1DIPC   C4B10176  24.346  11.493   5.519 -0.5641  0.1907  0.3328
    1DIPC   NC310177  17.954   9.958   6.027 -0.1102  0.3188  0.1420
    1DIPC   PO410178  18.166   9.586   5.809 -0.0679  0.1634  0.2168
    1DIPC   GL110179  18.125   9.747   5.403  0.0488 -0.1644  0.1640
    1DIPC   GL210180  18.171  10.052   5.226 -0.0601  0.2333  0.1813
    1DIPC   C1A10181  18.205   9.637   4.972  0.2895 -0.1195  0.2573
    1DIPC   D2A10182  18.031   9.500   4.620  0.0624 -0.0210 -0.1971
    1DIPC   D3A10183  17.646   9.420   4.708 -0.3676 -0.1206 -0.2356
    1DIPC   C4A10184  17.686   9.294   5.136 -0.1624 -0.1288  0.1336
    1DIPC   C1B10185  18.456  10.128   4.802  0.2200 -0.1957  0.0663
    1DIPC   D2B10186  18.509  10.236   4.426 -0.0680 -0.0141 -0.1862
    1DIPC   D3B10187  18.189   9.901   4.379  0.0375 -0.1437  0.1663
    1DIPC   C4B10188  18.172   9.553   4.141  0.1768 -0.0149  0.1020
    1DIPC   NC310189  25.273  25.927   8.090 -0.1177  0.1987 -0.1296
    1DIPC   PO410190  25.562  26.121   7.751  0.0465 -0.1548  0.1672
    1DIPC   GL110191  25.655  26.193   7.339  0.0397 -0.0449  0.1776
    1DIPC   GL210192  25.861  25.820   7.305 -0.0818  0.2456  0.0871
    1DIPC   C1A10193  25.651  26.148   6.949 -0.1356  0.4921  0.3210
    1DIPC   D2A10194  25.680  26.303   6.616  0.3492 -0.0955 -0.0359
    1DIPC   D3A10195  26.091  26.577   6.575  0.2712 -0.1412 -0.0464
    1DIPC   C4A10196  26.246  26.650   6.219  0.0592 -0.0098  0.0704
    1DIPC   C1B10197  25.873  25.601   7.009 -0.1188 -0.0344  0.0678
    1DIPC   D2B10198  25.780  25.578   6.612  0.2694 -0.6013  0.1077
    1DIPC   D3B10199  25.767  25.886   6.388  0.4203  0.0401  0.0127
    1DIPC   C4B10200  25.514  25.983   6.038  0.2724 -0.0367  0.0902
    1DIPC   NC310201  25.163  22.302   7.375  0.0445 -0.2960 -0.0040
    1DIPC   PO410202  24.755  22.456   7.256 -0.0964  0.1645 -0.0431
    1DIPC   GL110203  24.602  22.584   6.836  0.0802  0.0346 -0.0976
    1DIPC   GL210204  24.610  22.370   6.659  0.1712  0.3001  0.0875
    1DIPC   C1A10205  24.226  22.741   6.538  0.0291 -0.1010  0.0625
    1DIPC   D2A10206  23.913  22.578   6.255  0.2086 -0.2905  0.0131
    1DIPC   D3A10207  23.710  22.250   6.234  0.0972 -0.0148  0.0748
    1DIPC   C4A10208  23.989  22.045   5.908 -0.1547 -0.0903  0.0411
    1DIPC   C1B10209  24.838  22.324   6.309  0.5574 -0.2310 -0.1944
    1DIPC   D2B10210  24.824  22.154   5.891 -0.2834  0.1013  0.0554
    1DIPC   D3B10211  25.232  22.323   6.098 -0.2297  0.1601  0.2611
    1DIPC   C4B10212  25.570  22.697   6.115  0.4809  0.2436 -0.1150
    1DIPC   NC310213  15.385  16.591   6.422  0.0452 -0.0229 -0.1997
    1DIPC   PO410214  15.763  16.688   6.478  0.1861  0.1889 -0.0486
    1DIPC   GL110215  15.700  16.544   6.023 -0.1768 -0.0408 -0.2200
    1DIPC   GL210216  15.746  16.819   5.845 -0.0545 -0.3746 -0.2961
    1DIPC   C1A10217  16.002  16.332   5.744  0.3772  0.1859 -0.0821
    1DIPC   D2A10218  16.395  16.086   5.460 -0.0388 -0.3702  0.2418
    1DIPC   D3A10219  16.095  16.421   5.202  0.3442 -0.0086 -0.3282
    1DIPC   C4A10220  15.731  16.724   5.154 -0.2501  0.0235  0.0225
    1DIPC   C1B10221  16.035  16.807   5.587 -0.3006  0.0431  0.1415
    1DIPC   D2B10222  16.427  16.623   5.510  0.0210 -0.0131  0.1169
    1DIPC   D3B10223  16.602  16.652   5.161  0.1021  0.0882  0.0261
    1DIPC   C4B10224  16.743  16.259   5.051  0.0246 -0.0556  0.1802
    1DIPC   NC310225  12.380  10.290   5.625  0.0546 -0.1168 -0.0594
    1DIPC   PO410226  12.502  10.618   5.556  0.0642 -0.2378  0.1604
    1DIPC   GL110227  12.695  10.711   5.129 -0.0028  0.0538 -0.1712
    1DIPC   GL210228  13.004  10.991   5.080  0.0653  0.3909 -0.0337
    1DIPC   C1A10229  12.562  10.863   4.737  0.1292 -0.0807  0.0935
    1DIPC   D2A10230  12.492  11.009   4.350 -0.0739 -0.0026 -0.0028
    1DIPC   D3A10231  12.604  10.785   4.007 -0.3559 -0.0043 -0.3741
    1DIPC   C4A10232  13.028  10.768   4.022 -0.0012  0.1113  0.0246
    1DIPC   C1B10233  12.966  11.308   4.771  0.1030 -0.2739 -0.0752
    1DIPC   D2B10234  13.035  11.651   4.493  0.2984  0.2033 -0.1864
    1DIPC   D3B10235  13.152  11.591   4.074  0.0190  0.1091  0.2346
    1DIPC   C4B10236  13.311  11.197   3.926 -0.1375  0.2341  0.1238
    1DIPC   NC310237   1.619  14.021   7.772  0.1841 -0.1149  0.2111
    1DIPC   PO410238   1.264  13.966   7.516  0.0558 -0.0862 -0.1852
    1DIPC   GL110239   1.222  13.912   6.993 -0.2843  0.1304  0.2053
    1DIPC   GL210240   0.888  13.801   6.906 -0.1581 -0.1932  0.0044
    1DIPC   C1A10241   1.242  14.018   6.521 -0.0243  0.3451 -0.3171
    1DIPC   D2A10242   1.509  13.954   6.241 -0.2880  0.2977 -0.0369
    1DIPC   D3A10243   1.744  13.553   6.165 -0.0891  0.0938 -0.2735
    1DIPC   C4A10244   1.821  13.335   5.896 -0.0385  0.4090  0.1244
    1DIPC   C1B10245   0.667  13.728   6.535 -0.3218  0.2570 -0.1545
    1DIPC   D2B10246   0.607  13.742   6.102  0.3019 -0.1218 -0.0396
    1DIPC   D3B10247   0.757  13.316   5.946 -0.0966 -0.1162 -0.3315
    1DIPC   C4B10248   0.607  13.211   5.507 -0.1776  0.1728  0.1246
    1DIPC   NC310249  12.071  11.973   6.000 -0.0851  0.1248 -0.0337
    1DIPC   PO410250  11.900  12.409   6.079  0.0029  0.2204 -0.1051
    1DIPC   GL110251  11.808  12.407   5.630 -0.2530  0.2170 -0.0376
    1DIPC   GL210252  11.504  12.530   5.640 -0.0905 -0.1903 -0.2318
    1DIPC   C1A10253  11.766  12.279   5.274 -0.0363  0.1403  0.1141
    1DIPC   D2A10254  11.840  12.248   4.803  0.0223  0.0262 -0.1117
    1DIPC   D3A10255  11.614  12.211   4.479  0.2981  0.1493 -0.1609
    1DIPC   C4A10256  11.916  12.399   4.192  0.1871 -0.1689 -0.0017
    1DIPC   C1B10257  11.473  12.993   5.524 -0.1591  0.1674  0.0954
    1DIPC   D2B10258  11.165  13.304   5.279 -0.1185  0.1653 -0.0600
    1DIPC   D3B10259  11.052  13.785   5.284 -0.0634 -0.4689 -0.0842
    1DIPC   C4B10260  11.431  14.002   5.095 -0.1908  0.0151  0.1379
    1DIPC   NC310261   7.412  24.585   7.161  0.3030  0.2510  0.1331
    1DIPC   PO410262   7.032  24.840   7.138  0.1294  0.1762  0.0955
    1DIPC   GL110263   7.025  24.930   6.739 -0.0175 -0.0731 -0.0394
    1DIPC   GL210264   6.941  25.233   6.867 -0.1029  0.0881  0.2993
    1DIPC   C1A10265   6.911  24.971   6.315  0.1341 -0.2034  0.2717
    1DIPC   D2A10266   6.793  24.875   5.888  0.2013 -0.3122 -0.0180
    1DIPC   D3A10267   6.874  24.613   5.588  0.4893  0.0727 -0.0350
    1DIPC   C4A10268   7.310  24.647   5.313 -0.1295  0.0668  0.2037
    1DIPC   C1B10269   7.018  25.447   6.387 -0.0521 -0.0322 -0.0689
    1DIPC   D2B10270   7.034  25.502   5.910 -0.0210  0.0563 -0.3435
    1DIPC   D3B10271   7.104  25.732   5.635 -0.1066  0.0361  0.0740
    1DIPC   C4B10272   7.483  25.861   5.405 -0.0125  0.0868 -0.1451
    1DIPC   NC310273  13.948   9.443   5.771  0.1378  0.1296  0.2723
    1DIPC   PO410274  13.707   9.854   5.677 -0.3465  0.1738 -0.1208
    1DIPC   GL110275  13.613   9.582   5.327  0.1092 -0.2559 -0.1115
    1DIPC   GL210276  13.506   9.165   5.233 -0.1434  0.0756 -0.1361
    1DIPC   C1A10277  13.856   9.509   4.964  0.0926 -0.2000  0.1183
    1DIPC   D2A10278  13.774   9.430   4.469 -0.2224 -0.2421 -0.0252
    1DIPC   D3A10279  13.543   9.007   4.268  0.0780  0.0512 -0.4707
    1DIPC   C4A10280  13.194   9.022   4.013 -0.0976 -0.1829  0.0222
    1DIPC   C1B10281  13.231   8.947   4.887  0.0149  0.2738  0.1134
    1DIPC   D2B10282  13.252   8.770   4.538  0.1393  0.0983 -0.1823
    1DIPC   D3B10283  12.796   8.862   4.555  0.2589  0.2751 -0.2137
    1DIPC   C4B10284  12.752   8.806   4.113  0.2194 -0.1459 -0.6078
    1DIPC   NC310285  21.376  13.986   6.625 -0.0685  0.1288 -0.0111
    1DIPC   PO410286  21.619  13.733   6.389  0.0258 -0.0141 -0.2371
    1DIPC   GL110287  21.446  13.937   6.031 -0.1501 -0.1349 -0.0117
    1DIPC   GL210288  21.735  13.761   5.820 -0.0655  0.0871 -0.2980
    1DIPC   C1A10289  21.496  14.144   5.614 -0.0225  0.0050 -0.0624
    1DIPC   D2A10290  21.701  14.371   5.320 -0.0150  0.1964  0.0263
    1DIPC   D3A10291  21.750  13.977   5.028  0.1385  0.0796 -0.1249
    1DIPC   C4A10292  21.558  14.043   4.663  0.1256  0.1731 -0.2475
    1DIPC   C1B10293  21.793  13.665   5.417  0.0551  0.0186 -0.2133
    1DIPC   D2B10294  21.756  13.418   4.967 -0.0460  0.0380 -0.1311
    1DIPC   D3B10295  21.422  13.631   4.876  0.1465  0.1190 -0.1307
    1DIPC   C4B10296  21.500  13.588   4.448  0.0877  0.3684  0.0032
    1DIPC   NC310297   3.619   9.734   7.842 -0.1758  0.2164  0.1553
    1DIPC   PO410298   3.274   9.500   7.541 -0.0967 -0.2759 -0.1375
    1DIPC   GL110299   3.340   9.574   7.061 -0.4903 -0.0775  0.1470
    1DIPC   GL210300   3.050   9.834   6.949 -0.2624  0.4350 -0.0393
    1DIPC   C1A10301   3.503   9.837   6.782 -0.1640 -0.0913 -0.1892
    1DIPC   D2A10302   3.646   9.897   6.292  0.0522  0.0270  0.0118
    1DIPC   D3A10303   3.531  10.259   5.976  0.0226 -0.0095  0.0053
    1DIPC   C4A10304   3.507  10.287   5.574 -0.1202 -0.2940 -0.2289
    1DIPC   C1B10305   2.993   9.556   6.685  0.2016  0.3071 -0.0810
    1DIPC   D2B10306   2.849   9.586   6.287 -0.2458  0.1217 -0.1883
    1DIPC   D3B10307   3.216   9.652   6.059 -0.2868 -0.0934 -0.2056
    1DIPC   C4B10308   3.158   9.975   5.693 -0.1399  0.2902 -0.0637
    1DIPC   NC310309   5.412   6.222   7.191 -0.0500  0.0613 -0.2293
    1DIPC   PO410310   4.931   6.192   7.385 -0.2672  0.1724 -0.0210
    1DIPC   GL110311   4.953   6.091   6.968  0.2448 -0.0717  0.1497
    1DIPC   GL210312   4.990   5.753   7.027 -0.1085 -0.0044  0.1000
    1DIPC   C1A10313   4.907   6.262   6.567 -0.4555 -0.2168 -0.2185
    1DIPC   D2A10314   5.197   6.129   6.196 -0.3285 -0.0849  0.0937
    1DIPC   D3A10315   4.865   5.951   5.964 -0.1877 -0.1641  0.2172
    1DIPC   C4A10316   4.436   6.051   5.849 -0.0321 -0.0233 -0.2124
    1DIPC   C1B10317   5.242   5.454   6.831  0.0993 -0.2597 -0.0098
    1DIPC   D2B10318   5.594   5.539   6.500 -0.4058  0.1473  0.0407
    1DIPC   D3B10319   5.373   5.646   6.103 -0.2457  0.4942 -0.0065
    1DIPC   C4B10320   5.519   5.422   5.762 -0.5078  0.0327 -0.0509
    1DIPC   NC310321  25.659  20.444   7.831  0.0624 -0.1003  0.1322
    1DIPC   PO410322  26.072  20.269   7.837  0.2232  0.1481 -0.0259
    1DIPC   GL110323  26.312  20.187   7.418 -0.0886 -0.0708 -0.1018
    1DIPC   GL210324  26.584  20.411   7.367 -0.1831 -0.0958  0.0380
    1DIPC   C1A10325  26.391  20.180   6.966 -0.0053  0.0528  0.0658
    1DIPC   D2A10326  26.436  20.536   6.763 -0.2792  0.1287  0.0446
    1DIPC   D3A10327  26.809  20.639   6.895 -0.2963 -0.0024  0.3931
    1DIPC   C4A10328  27.054  20.975   6.948  0.4380  0.0692  0.0218
    1DIPC   C1B10329  27.011  20.359   7.233  0.1634  0.0150 -0.2869
    1DIPC   D2B10330  27.218  20.181   6.892 -0.0338 -0.0664 -0.0127
    1DIPC   D3B10331  27.700  20.223   6.978  0.1940 -0.2915  0.0671
    1DIPC   C4B10332  27.855  20.562   6.806 -0.0268 -0.0181  0.0439
    1DIPC   NC310333  11.085  26.308   7.266  0.0665 -0.2008  0.1634
    1DIPC   PO410334  11.501  26.122   7.123 -0.0165  0.0098 -0.0670
    1DIPC   GL110335  11.711  25.767   6.886  0.0326  0.0025  0.1132
    1DIPC   GL210336  11.438  25.788   6.749 -0.0135 -0.0038 -0.0326
    1DIPC   C1A10337  11.686  25.381   6.789 -0.0493 -0.1144 -0.0909
    1DIPC   D2A10338  11.405  24.973   6.600 -0.0314  0.0678 -0.1876
    1DIPC   D3A10339  11.622  24.589   6.860 -0.0478  0.0914 -0.3953
    1DIPC   C4A10340  11.770  24.132   6.660  0.0086  0.4057  0.0856
    1DIPC   C1B10341  11.749  25.810   6.357  0.1917  0.2429 -0.1986
    1DIPC   D2B10342  11.792  25.670   5.939 -0.0941  0.2168  0.0275
    1DIPC   D3B10343  11.566  25.296   5.730 -0.2013 -0.2203  0.0628
    1DIPC   C4B10344  11.540  24.970   5.346 -0.0069  0.0300  0.0524
    1DIPC   NC310345  11.003   0.211   7.301  0.1389 -0.3091  0.2748
    1DIPC   PO410346  10.665   0.293   7.075 -0.0385 -0.4166  0.2873
    1DIPC   GL110347  10.955   0.043   6.700  0.1155 -0.1748  0.0575
    1DIPC   GL210348  10.776   0.130   6.432 -0.2025  0.0959  0.1930
    1DIPC   C1A10349  11.275  -0.076   6.426  0.2333  0.0456 -0.0885
    1DIPC   D2A10350  11.643  -0.211   6.373  0.0157 -0.1242  0.1964
    1DIPC   D3A10351  11.956  -0.048   6.142  0.2468  0.0583  0.0362
    1DIPC   C4A10352  12.307   0.222   6.230  0.0431 -0.1493  0.2341
    1DIPC   C1B10353  10.440   0.391   6.191  0.0320  0.0024 -0.2467
    1DIPC   D2B10354  10.079   0.589   6.234  0.0338 -0.0146 -0.0639
    1DIPC   D3B10355   9.971   0.526   5.774 -0.0667  0.1855  0.0265
    1DIPC   C4B10356  10.023   0.169   5.464 -0.0941  0.1854  0.1366
    1DIPC   NC310357   6.237  12.356   6.645 -0.0247  0.0259  0.0920
    1DIPC   PO410358   5.984  12.495   6.367  0.3070 -0.0247  0.0976
    1DIPC   GL110359   5.804  12.654   5.898  0.0536 -0.0106 -0.1808
    1DIPC   GL210360   6.025  12.697   5.645  0.0829 -0.0656 -0.1739
    1DIPC   C1A10361   5.610  12.461   5.459 -0.0494  0.0711 -0.0331
    1DIPC   D2A10362   5.394  12.464   5.166 -0.2875 -0.1694 -0.0901
    1DIPC   D3A10363   5.578  12.681   4.758  0.0416  0.1638  0.1742
    1DIPC   C4A10364   5.808  12.529   4.502 -0.0220 -0.0328  0.0917
    1DIPC   C1B10365   5.939  12.690   5.146  0.0099 -0.2669  0.0270
    1DIPC   D2B10366   6.128  12.956   4.830 -0.3225  0.1240 -0.1888
    1DIPC   D3B10367   5.831  13.267   4.898 -0.2417 -0.1794 -0.1489
    1DIPC   C4B10368   5.416  13.344   4.713 -0.0508  0.2056  0.3879
    1DIPC   NC310369  21.661  28.849   6.953  0.0838 -0.1312 -0.0243
    1DIPC   PO410370  21.738  29.221   6.833 -0.2143  0.2456 -0.2010
    1DIPC   GL110371  21.512  29.117   6.432  0.1269  0.1061 -0.3593
    1DIPC   GL210372  21.652  28.866   6.418 -0.0530  0.0788 -0.2302
    1DIPC   C1A10373  21.179  29.041   6.154 -0.0167 -0.0733 -0.0993
    1DIPC   D2A10374  20.899  28.791   6.150 -0.0909  0.1331  0.0343
    1DIPC   D3A10375  20.710  28.394   6.128  0.3972 -0.0698  0.0731
    1DIPC   C4A10376  20.587  28.016   5.940  0.0211  0.2566  0.0302
    1DIPC   C1B10377  21.705  28.829   5.996 -0.2440  0.1840  0.1096
    1DIPC   D2B10378  21.760  28.671   5.585  0.2083 -0.1918  0.0500
    1DIPC   D3B10379  21.356  28.779   5.317  0.3550  0.2411 -0.2666
    1DIPC   C4B10380  21.547  29.275   5.236  0.0521  0.2631  0.2674
    1DIPC   NC310381  21.174  21.869   6.579 -0.1842  0.0393 -0.0547
    1DIPC   PO410382  21.389  22.239   6.655 -0.1427  0.4416 -0.0543
    1DIPC   GL110383  21.435  22.317   6.293  0.1726  0.1724  0.2703
    1DIPC   GL210384  21.261  22.170   6.141  0.0615  0.1481 -0.0471
    1DIPC   C1A10385  21.748  22.303   5.966  0.1679  0.0228  0.0674
    1DIPC   D2A10386  21.932  22.191   5.596 -0.0116  0.1185 -0.0210
    1DIPC   D3A10387  22.336  22.373   5.843 -0.2887 -0.1386 -0.0702
    1DIPC   C4A10388  22.792  22.355   5.711  0.0193  0.2547  0.1608
    1DIPC   C1B10389  21.291  22.217   5.714  0.0237  0.0077 -0.1118
    1DIPC   D2B10390  21.439  21.985   5.267  0.0699  0.2031  0.0437
    1DIPC   D3B10391  21.885  21.726   5.033  0.2123  0.1144  0.0343
    1DIPC   C4B10392  21.998  21.266   5.143  0.0104  0.0535 -0.3283
    1DIPC   NC310393  27.669  26.824   8.099 -0.1665 -0.1229  0.0982
    1DIPC   PO410394  27.840  26.558   7.756 -0.0260  0.0093  0.0030
    1DIPC   GL110395  27.523  26.495   7.398  0.1102  0.2792  0.0714
    1DIPC   GL210396  27.323  26.712   7.303 -0.1485  0.1502  0.0742
    1DIPC   C1A10397  27.362  26.246   7.221 -0.0069  0.0122 -0.0084
    1DIPC   D2A10398  27.114  25.936   7.090  0.1618 -0.2051  0.2298
    1DIPC   D3A10399  27.377  25.639   7.249 -0.3148  0.1433  0.1760
    1DIPC   C4A10400  27.716  25.680   6.987 -0.2156  0.1061 -0.3538
    1DIPC   C1B10401  27.419  26.770   6.909  0.0243 -0.0463  0.1002
    1DIPC   D2B10402  27.546  26.708   6.535 -0.1268 -0.1211  0.0507
    1DIPC   D3B10403  27.588  26.492   6.168  0.0011 -0.3555  0.1108
    1DIPC   C4B10404  27.948  26.384   5.957  0.0890  0.0624  0.0891
    1DIPC   NC310405   5.683   8.684   7.142  0.2492 -0.1760 -0.0253
    1DIPC   PO410406   5.480   8.566   6.815 -0.2303 -0.1091 -0.2737
    1DIPC   GL110407   5.360   8.233   6.514  0.3091  0.1893  0.0893
    1DIPC   GL210408   5.041   8.383   6.575 -0.1917 -0.0811  0.0734
    1DIPC   C1A10409   5.406   8.065   6.147 -0.1575 -0.0285 -0.0921
    1DIPC   D2A10410   5.176   7.702   5.987 -0.1713  0.0965  0.4373
    1DIPC   D3A10411   5.135   7.892   5.555 -0.1563  0.1927  0.3987
    1DIPC   C4A10412   5.014   8.175   5.286  0.0984 -0.1978  0.1531
    1DIPC   C1B10413   5.022   7.894   6.441 -0.1403  0.0113 -0.0077
    1DIPC   D2B10414   5.558   7.675   6.434  0.0871 -0.2903 -0.2031
    1DIPC   D3B10415   5.839   7.982   6.386  0.0910  0.1394  0.0694
    1DIPC   C4B10416   5.831   8.343   6.179 -0.1992  0.1760  0.0109
    1DIPC   NC310417  12.011   7.417   6.023 -0.0367  0.0257  0.1351
    1DIPC   PO410418  12.119   7.265   5.726  0.0881  0.0793  0.1440
    1DIPC   GL110419  11.883   6.893   5.457 -0.3069 -0.2234 -0.1104
    1DIPC   GL210420  12.059   6.647   5.610 -0.4595  0.1129 -0.0556
    1DIPC   C1A10421  11.530   6.911   5.219  0.2006 -0.0032  0.0232
    1DIPC   D2A10422  11.242   7.144   4.878 -0.0939 -0.0474  0.0045
    1DIPC   D3A10423  11.582   7.102   4.599 -0.0803  0.1295  0.1904
    1DIPC   C4A10424  11.879   6.810   4.763 -0.2234  0.2282 -0.1686
    1DIPC   C1B10425  11.870   6.455   5.140 -0.0158 -0.1679  0.3766
    1DIPC   D2B10426  12.088   6.036   4.926  0.1668 -0.1186  0.2276
    1DIPC   D3B10427  11.729   6.197   4.687  0.1227  0.5430  0.3099
    1DIPC   C4B10428  11.447   6.018   4.993 -0.1046  0.1558  0.1471
    1DIPC   NC310429  20.983  25.066   7.113  0.0743 -0.3412  0.0329
    1DIPC   PO410430  21.173  25.524   7.070 -0.0101  0.0442  0.2734
    1DIPC   GL110431  21.349  25.599   6.606  0.1912 -0.2391 -0.1978
    1DIPC   GL210432  21.355  25.910   6.480  0.0297 -0.1600 -0.1560
    1DIPC   C1A10433  21.425  25.221   6.333 -0.2311 -0.1755  0.1061
    1DIPC   D2A10434  21.519  25.182   5.866 -0.1048  0.2533 -0.2561
    1DIPC   D3A10435  21.459  25.482   5.528 -0.4114 -0.0693 -0.2013
    1DIPC   C4A10436  21.751  25.881   5.543  0.1220 -0.3227  0.1070
    1DIPC   C1B10437  21.104  26.142   6.119 -0.1956  0.1764  0.1808
    1DIPC   D2B10438  21.055  26.420   5.773  0.2126  0.0678 -0.3383
    1DIPC   D3B10439  21.384  26.651   5.508  0.0801  0.1856  0.0444
    1DIPC   C4B10440  21.706  26.411   5.472 -0.0440 -0.0842  0.4307
    1DIPC   NC310441  16.565  20.681   6.041  0.0960  0.1826  0.0174
    1DIPC   PO410442  16.179  20.463   6.130  0.1632 -0.2737 -0.1260
    1DIPC   GL110443  15.938  20.475   5.748 -0.2016 -0.0378 -0.0833
    1DIPC   GL210444  15.790  20.115   5.570 -0.1019 -0.0413  0.0365
    1DIPC   C1A10445  16.052  20.504   5.233 -0.1027  0.2820 -0.0973
    1DIPC   D2A10446  15.909  20.572   4.764 -0.3788 -0.1371 -0.0732
    1DIPC   D3A10447  16.345  20.699   4.823 -0.0499 -0.0258 -0.3824
    1DIPC   C4A10448  16.634  20.587   4.567  0.1874 -0.1818 -0.0349
    1DIPC   C1B10449  15.777  20.017   5.112  0.0095 -0.2836 -0.2744
    1DIPC   D2B10450  15.529  20.061   4.719 -0.0705  0.2569 -0.4324
    1DIPC   D3B10451  15.093  20.017   4.628  0.0986 -0.0309  0.0003
    1DIPC   C4B10452  14.884  19.684   4.723 -0.0178  0.1918  0.1882
    1DIPC   NC310453  20.985  16.374   6.263 -0.1821 -0.1878 -0.1135
    1DIPC   PO410454  21.350  16.509   6.016  0.0140  0.0545 -0.1838
    1DIPC   GL110455  21.403  16.608   5.619 -0.0610  0.0111 -0.2541
    1DIPC   GL210456  21.555  16.898   5.497  0.1222 -0.1843  0.0522
    1DIPC   C1A10457  21.498  16.552   5.165  0.0898  0.2266  0.1767
    1DIPC   D2A10458  21.652  16.694   4.837 -0.0892  0.1155 -0.0361
    1DIPC   D3A10459  21.196  16.892   4.767  0.3126 -0.1491 -0.2984
    1DIPC   C4A10460  21.207  17.237   4.505 -0.1237  0.0814  0.0033
    1DIPC   C1B10461  21.710  17.114   5.096 -0.1499 -0.0331 -0.0117
    1DIPC   D2B10462  21.737  17.201   4.660  0.0696  0.0715 -0.0139
    1DIPC   D3B10463  22.125  17.142   4.846 -0.3347 -0.0357  0.2008
    1DIPC   C4B10464  22.378  17.535   4.677 -0.0565  0.0355  0.1663
    1DIPC   NC310465   1.331  11.817   7.175  0.1744  0.0672  0.2465
    1DIPC   PO410466   1.628  12.235   7.228  0.1792  0.0152  0.0809
    1DIPC   GL110467   1.664  12.448   6.746 -0.0960  0.3356  0.1032
    1DIPC   GL210468   1.551  12.763   6.742  0.1138  0.4907  0.0663
    1DIPC   C1A10469   1.719  12.460   6.314  0.1362 -0.0941 -0.2345
    1DIPC   D2A10470   1.688  12.538   5.822 -0.0355  0.1191  0.2265
    1DIPC   D3A10471   1.267  12.476   5.705 -0.1653  0.1434 -0.4799
    1DIPC   C4A10472   1.227  12.549   6.119 -0.1065  0.1395 -0.0593
    1DIPC   C1B10473   1.176  12.506   6.597  0.0323  0.1607  0.1109
    1DIPC   D2B10474   0.721  12.427   6.446 -0.2900 -0.1173  0.2467
    1DIPC   D3B10475   0.731  12.525   6.012  0.0864  0.2038 -0.0788
    1DIPC   C4B10476   0.942  12.843   5.764 -0.1538 -0.1098 -0.2183
    1DIPC   NC310477  23.288  11.681   6.662 -0.0094  0.1580 -0.0939
    1DIPC   PO410478  23.252  12.029   6.837  0.2511  0.0178  0.0916
    1DIPC   GL110479  23.285  12.052   6.327 -0.1458  0.2443 -0.0712
    1DIPC   GL210480  23.064  11.870   6.149  0.1003  0.1511 -0.4036
    1DIPC   C1A10481  23.462  12.079   6.007  0.0174  0.2051  0.0257
    1DIPC   D2A10482  23.921  11.991   5.865  0.2649 -0.1847  0.0150
    1DIPC   D3A10483  24.083  11.729   6.128  0.2887  0.0587 -0.2876
    1DIPC   C4A10484  24.443  11.597   6.002  0.1300  0.0579  0.2192
    1DIPC   C1B10485  22.957  11.995   5.667  0.2048  0.2112 -0.0155
    1DIPC   D2B10486  22.584  12.066   5.419  0.5423  0.0923 -0.2704
    1DIPC   D3B10487  22.364  11.778   5.157  0.3066 -0.0652  0.2002
    1DIPC   C4B10488  22.536  11.402   5.055 -0.2751 -0.1730  0.0358
    1DIPC   NC310489  24.301  20.003   7.053 -0.0754  0.0678  0.0771
    1DIPC   PO410490  24.805  20.193   6.976 -0.2059 -0.2270  0.0303
    1DIPC   GL110491  25.081  20.058   6.569  0.0060 -0.0980 -0.0066
    1DIPC   GL210492  25.022  20.190   6.299 -0.0024  0.0824  0.1430
    1DIPC   C1A10493  25.566  20.113   6.320  0.0802  0.0069  0.1238
    1DIPC   D2A10494  25.537  20.142   5.866  0.2548  0.1039 -0.2032
    1DIPC   D3A10495  25.833  20.465   6.058  0.0459  0.0695  0.0223
    1DIPC   C4A10496  26.330  20.319   5.890 -0.0063 -0.3173  0.0868
    1DIPC   C1B10497  24.709  19.927   6.171  0.0774 -0.4102  0.4958
    1DIPC   D2B10498  24.263  19.884   6.106 -0.0181 -0.3971  0.1443
    1DIPC   D3B10499  24.271  19.628   5.771  0.1864 -0.1032  0.1582
    1DIPC   C4B10500  24.601  19.854   5.511 -0.1114 -0.0597  0.3708
    1DIPC   NC310501  21.800  12.672   7.342  0.1628 -0.0894 -0.0606
    1DIPC   PO410502  21.782  12.354   6.969 -0.0420  0.1815 -0.0168
    1DIPC   GL110503  21.880  12.454   6.538 -0.1283 -0.0789 -0.1764
    1DIPC   GL210504  21.898  12.751   6.344  0.0258  0.0371 -0.0846
    1DIPC   C1A10505  22.079  12.222   6.237  0.3335  0.0125 -0.0599
    1DIPC   D2A10506  22.458  12.067   6.030  0.0359 -0.4185  0.1737
    1DIPC   D3A10507  22.327  11.780   5.768  0.1040  0.1285  0.2990
    1DIPC   C4A10508  22.007  11.592   5.618  0.1630  0.0986 -0.1579
    1DIPC   C1B10509  22.023  12.990   6.055 -0.0871 -0.1040 -0.1194
    1DIPC   D2B10510  21.900  13.224   5.675 -0.3607  0.2702  0.0403
    1DIPC   D3B10511  22.005  12.841   5.424 -0.0208 -0.1629  0.0497
    1DIPC   C4B10512  21.805  12.829   4.935 -0.2815  0.3374  0.1186
    1DIPC   NC310513   4.762  25.025   7.588  0.0371  0.0732  0.1152
    1DIPC   PO410514   5.059  24.923   7.276 -0.1845  0.0925  0.0040
    1DIPC   GL110515   5.033  25.054   6.936 -0.0985 -0.0107 -0.3266
    1DIPC   GL210516   5.093  25.429   7.044  0.2284 -0.1250  0.1120
    1DIPC   C1A10517   5.222  25.135   6.600  0.2650 -0.2672  0.0644
    1DIPC   D2A10518   5.246  25.019   6.140  0.1139  0.1671  0.1767
    1DIPC   D3A10519   4.972  24.663   6.027 -0.0010 -0.4246  0.0169
    1DIPC   C4A10520   4.853  24.581   5.530 -0.0681 -0.0508 -0.0330
    1DIPC   C1B10521   5.149  25.626   6.609  0.1278  0.2106 -0.0964
    1DIPC   D2B10522   5.107  25.810   6.260  0.0487 -0.0428 -0.1306
    1DIPC   D3B10523   5.391  26.227   6.311  0.2460  0.2004 -0.1624
    1DIPC   C4B10524   5.403  26.470   5.892  0.0367  0.0781 -0.0217
    1DIPC   NC310525  10.931  22.503   7.132  0.0947  0.1595 -0.0096
    1DIPC   PO410526  10.588  22.753   7.189 -0.2498  0.0394 -0.1535
    1DIPC   GL110527  10.430  22.704   6.745 -0.2082 -0.0183  0.0224
    1DIPC   GL210528  10.638  22.326   6.666  0.0333 -0.0054 -0.0166
    1DIPC   C1A10529  10.176  22.608   6.414 -0.1132  0.1105  0.2446
    1DIPC   D2A10530  10.062  22.337   6.166  0.3314  0.0295  0.1147
    1DIPC   D3A10531  10.469  22.541   5.992  0.0803 -0.1549  0.1193
    1DIPC   C4A10532  10.545  22.454   5.567 -0.0660  0.1169 -0.0628
    1DIPC   C1B10533  10.772  22.242   6.237 -0.0019 -0.2662  0.0709
    1DIPC   D2B10534  11.014  22.174   5.900 -0.1237  0.1401 -0.1012
    1DIPC   D3B10535  11.318  22.329   6.038 -0.0978 -0.1028  0.1320
    1DIPC   C4B10536  11.283  22.574   5.651 -0.1140 -0.1419  0.1218
    1DIPC   NC310537  28.140  25.644   8.401  0.1248  0.0649  0.1454
    1DIPC   PO410538  28.396  25.228   8.168 -0.0850 -0.1077  0.0286
    1DIPC   GL110539  28.567  25.381   7.698 -0.1604  0.0824  0.2036
    1DIPC   GL210540  28.362  25.286   7.473 -0.0481 -0.0165 -0.1472
    1DIPC   C1A10541  28.807  25.478   7.301  0.2193  0.1145  0.0234
    1DIPC   D2A10542  28.785  25.305   6.830  0.0480 -0.1180 -0.0133
    1DIPC   D3A10543  28.667  25.683   6.822  0.0201  0.1659  0.1019
    1DIPC   C4A10544  28.826  26.169   6.871 -0.0090  0.3627 -0.1539
    1DIPC   C1B10545  28.286  25.401   7.065 -0.2081 -0.2063 -0.4522
    1DIPC   D2B10546  28.102  25.532   6.711 -0.0773  0.0658 -0.0695
    1DIPC   D3B10547  28.427  25.560   6.393 -0.0304  0.2708 -0.0529
    1DIPC   C4B10548  28.704  25.916   6.393 -0.1655 -0.0255  0.0321
    1DIPC   NC310549   2.997   2.563   7.726  0.2948 -0.3643 -0.2580
    1DIPC   PO410550   2.621   2.405   7.673  0.2378  0.0994  0.1242
    1DIPC   GL110551   2.825   2.093   7.220  0.0325 -0.0047  0.1153
    1DIPC   GL210552   3.123   2.105   7.103  0.1604 -0.0207  0.0112
    1DIPC   C1A10553   2.756   1.891   6.809 -0.0336  0.0697  0.3482
    1DIPC   D2A10554   2.943   1.948   6.462  0.2801 -0.4483 -0.2211
    1DIPC   D3A10555   2.578   2.212   6.390  0.0220  0.0375  0.0921
    1DIPC   C4A10556   2.505   2.571   6.100  0.2503 -0.0609  0.0316
    1DIPC   C1B10557   3.034   2.346   6.778  0.0733 -0.3063  0.0859
    1DIPC   D2B10558   2.964   2.697   6.487 -0.1876  0.1749 -0.1095
    1DIPC   D3B10559   3.387   2.701   6.348  0.0862  0.0785 -0.1549
    1DIPC   C4B10560   3.558   2.886   6.002 -0.1179 -0.0262  0.0422
    1DIPC   NC310561  26.473  11.476   7.477 -0.1336  0.2740  0.0998
    1DIPC   PO410562  26.591  11.237   7.064  0.1350  0.0300  0.4717
    1DIPC   GL110563  26.705  11.374   6.644 -0.5049 -0.0604 -0.0631
    1DIPC   GL210564  26.694  11.688   6.551  0.1877 -0.3409 -0.2058
    1DIPC   C1A10565  26.550  11.377   6.130  0.2875  0.3698  0.1570
    1DIPC   D2A10566  26.676  11.153   5.759  0.2420 -0.0763  0.2056
    1DIPC   D3A10567  26.920  10.828   5.628  0.0964 -0.3229  0.1957
    1DIPC   C4A10568  26.761  10.581   5.301  0.0739 -0.0070  0.0751
    1DIPC   C1B10569  26.763  11.885   6.186  0.2386  0.0946 -0.0681
    1DIPC   D2B10570  26.906  11.577   5.870  0.3418  0.0087 -0.2636
    1DIPC   D3B10571  26.532  11.680   5.733  0.1520 -0.1101 -0.0602
    1DIPC   C4B10572  26.298  11.428   5.433  0.1699 -0.2549  0.1868
    1DIPC   NC310573   7.943   0.029   7.410  0.1897 -0.1142 -0.2380
    1DIPC   PO410574   7.728  -0.136   7.732  0.2219 -0.1155  0.1434
    1DIPC   GL110575   7.574  -0.256   7.334 -0.0263  0.0800  0.0539
    1DIPC   GL210576   7.825  -0.367   7.109 -0.1319 -0.1438  0.0065
    1DIPC   C1A10577   7.342  -0.192   6.885 -0.1554  0.1184  0.2298
    1DIPC   D2A10578   7.084  -0.074   6.463 -0.1820  0.0076  0.1124
    1DIPC   D3A10579   7.177  -0.534   6.392 -0.1657  0.0706 -0.2864
    1DIPC   C4A10580   7.411  -0.771   6.730  0.2418 -0.3129  0.0125
    1DIPC   C1B10581   7.877  -0.565   6.658 -0.1184  0.1697 -0.0539
    1DIPC   D2B10582   8.070  -0.736   6.304  0.0600  0.1328 -0.0967
    1DIPC   D3B10583   7.891  -0.783   5.909 -0.0391  0.1700 -0.0694
    1DIPC   C4B10584   7.891  -0.519   5.662 -0.3852 -0.0772  0.0785
    1DIPC   NC310585  25.496  19.272   7.352  0.2839 -0.0486 -0.0386
    1DIPC   PO410586  25.139  19.447   7.303  0.3425  0.1510 -0.2559
    1DIPC   GL110587  25.013  19.245   6.939  0.1045  0.0531  0.1441
    1DIPC   GL210588  25.254  19.046   6.875  0.0378 -0.1192 -0.1136
    1DIPC   C1A10589  24.920  19.016   6.532 -0.0562 -0.3307  0.2479
    1DIPC   D2A10590  24.811  18.872   6.045 -0.0378  0.2659 -0.0400
    1DIPC   D3A10591  25.012  18.991   5.650 -0.2015  0.0319  0.1197
    1DIPC   C4A10592  24.894  19.235   5.393 -0.0095  0.0365  0.2189
    1DIPC   C1B10593  25.390  19.248   6.506  0.1090 -0.3306  0.2286
    1DIPC   D2B10594  25.217  19.182   6.035 -0.0790 -0.0361  0.1538
    1DIPC   D3B10595  25.454  19.473   5.626 -0.1979 -0.0714 -0.2167
    1DIPC   C4B10596  25.263  19.524   5.215  0.0769  0.0521 -0.3080
    1DIPC   NC310597  10.366  17.365   7.279 -0.0093  0.0013 -0.3220
    1DIPC   PO410598  10.654  17.102   6.964 -0.4358  0.0522 -0.0135
    1DIPC   GL110599  10.600  17.100   6.547  0.0567 -0.1344  0.1955
    1DIPC   GL210600  10.334  16.985   6.319  0.0560  0.1296 -0.0288
    1DIPC   C1A10601  10.680  17.377   6.152 -0.1025  0.1910 -0.0971
    1DIPC   D2A10602  10.592  17.611   5.786 -0.2633  0.0186  0.0650
    1DIPC   D3A10603  10.718  17.446   5.413 -0.0770  0.3825 -0.0681
    1DIPC   C4A10604  11.103  17.725   5.271  0.0459 -0.2404  0.0555
    1DIPC   C1B10605  10.216  17.420   6.034  0.1561  0.0109 -0.1739
    1DIPC   D2B10606  10.106  17.759   5.708  0.2130  0.2214 -0.2617
    1DIPC   D3B10607  10.265  17.474   5.473 -0.1201  0.1192 -0.0212
    1DIPC   C4B10608  10.460  17.511   4.924  0.1060  0.2140  0.0713
    1DIPC   NC310609  12.179  14.997   6.603  0.2391  0.3792 -0.1080
    1DIPC   PO410610  12.159  15.043   6.166 -0.2630  0.2282  0.2438
    1DIPC   GL110611  12.036  15.264   5.754 -0.0544 -0.0939  0.1811
    1DIPC   GL210612  11.999  15.586   5.714  0.1198  0.3384  0.0091
    1DIPC   C1A10613  12.137  15.244   5.368 -0.1155  0.1011  0.0134
    1DIPC   D2A10614  12.272  15.469   5.024  0.0166  0.2522 -0.2516
    1DIPC   D3A10615  12.367  15.582   4.667  0.0541 -0.1705 -0.1662
    1DIPC   C4A10616  12.669  15.465   4.462  0.3990 -0.2767  0.2698
    1DIPC   C1B10617  11.673  15.363   5.293 -0.2586  0.4485  0.1322
    1DIPC   D2B10618  11.651  15.364   4.869  0.1250  0.0119 -0.1898
    1DIPC   D3B10619  11.643  14.979   4.534 -0.2257  0.1644  0.0522
    1DIPC   C4B10620  11.365  14.631   4.477  0.2723  0.1982  0.0308
    1DIPC   NC310621  22.077  22.704   7.985  0.1228  0.0494 -0.2433
    1DIPC   PO410622  22.100  22.859   7.577  0.1719 -0.0449 -0.2199
    1DIPC   GL110623  22.153  23.315   7.449 -0.1030 -0.0019 -0.0369
    1DIPC   GL210624  22.352  23.516   7.344  0.0875 -0.0751  0.2138
    1DIPC   C1A10625  21.994  23.402   7.054 -0.2388 -0.0213 -0.1515
    1DIPC   D2A10626  21.911  23.580   6.546 -0.0655  0.2757  0.0320
    1DIPC   D3A10627  21.703  23.197   6.573 -0.2900  0.0712  0.0479
    1DIPC   C4A10628  21.378  23.073   6.325 -0.0001 -0.0369 -0.3113
    1DIPC   C1B10629  22.335  23.696   6.837  0.1808 -0.3131  0.0751
    1DIPC   D2B10630  22.496  23.912   6.436  0.2427  0.2006 -0.1060
    1DIPC   D3B10631  22.615  24.130   6.077  0.0580  0.0042 -0.0095
    1DIPC   C4B10632  22.632  23.956   5.667  0.1717 -0.1568 -0.0249
    1DIPC   NC310633   1.657  24.657   8.346  0.1164  0.1855  0.2094
    1DIPC   PO410634   1.443  24.516   7.975 -0.0694  0.0013 -0.1648
    1DIPC   GL110635   1.162  24.410   7.724 -0.0003  0.4247  0.1775
    1DIPC   GL210636   1.096  24.757   7.580 -0.2452  0.3570  0.1695
    1DIPC   C1A10637   1.347  24.378   7.286  0.0007 -0.1661 -0.0858
    1DIPC   D2A10638   1.505  24.440   6.826  0.1338 -0.0067 -0.0017
    1DIPC   D3A10639   1.088  24.354   6.817  0.4599  0.2939 -0.1783
    1DIPC   C4A10640   0.800  24.382   7.295  0.1180  0.1242  0.1391
    1DIPC   C1B10641   1.316  24.855   7.152  0.1773 -0.2761 -0.2023
    1DIPC   D2B10642   1.509  24.983   6.772 -0.1078 -0.0775  0.1926
    1DIPC   D3B10643   1.337  24.874   6.417  0.1945  0.0926 -0.0977
    1DIPC   C4B10644   1.043  24.563   6.369  0.2255 -0.5110 -0.1385
    1DIPC   NC310645  14.887   6.226   5.260 -0.0950 -0.3330 -0.1997
    1DIPC   PO410646  15.003   6.506   5.014 -0.1580 -0.1906  0.3692
    1DIPC   GL110647  14.862   6.489   4.661 -0.1278  0.4763  0.3099
    1DIPC   GL210648  14.646   6.571   4.580  0.1421  0.1163  0.0939
    1DIPC   C1A10649  15.017   6.247   4.232  0.1696  0.0904  0.0387
    1DIPC   D2A10650  15.176   5.963   3.987  0.0035  0.0015  0.1270
    1DIPC   D3A10651  15.308   6.414   3.888 -0.2584 -0.1996 -0.2672
    1DIPC   C4A10652  15.341   6.647   4.218  0.1851  0.0060  0.0037
    1DIPC   C1B10653  14.372   6.534   4.176  0.2743 -0.2030  0.1819
    1DIPC   D2B10654  14.240   6.371   3.820  0.4065 -0.2499  0.0350
    1DIPC   D3B10655  14.738   6.205   3.826  0.4697 -0.0410 -0.1647
    1DIPC   C4B10656  14.880   5.912   3.465  0.0899 -0.0205 -0.1070
    1DIPC   NC310657  13.709  11.663   5.892 -0.1988 -0.0901 -0.1831
    1DIPC   PO410658  13.649  12.061   6.182  0.0086 -0.0159  0.0865
    1DIPC   GL110659  13.526  12.197   5.748 -0.2385  0.1925 -0.3095
    1DIPC   GL210660  13.692  12.510   5.536  0.1000  0.2368  0.0016
    1DIPC   C1A10661  13.340  12.157   5.321  0.2280  0.1154 -0.0660
    1DIPC   D2A10662  13.170  11.913   4.955  0.1079  0.0432 -0.1692
    1DIPC   D3A10663  13.577  12.045   4.683 -0.0472 -0.1936  0.2272
    1DIPC   C4A10664  14.045  12.070   4.698 -0.2773 -0.0649  0.1385
    1DIPC   C1B10665  13.876  12.793   5.237  0.2032 -0.4911 -0.1816
    1DIPC   D2B10666  14.087  12.742   4.875 -0.1896  0.2155 -0.0356
    1DIPC   D3B10667  13.676  12.529   4.633  0.0554  0.0987 -0.0736
    1DIPC   C4B10668  13.774  12.382   4.300 -0.0090  0.2637 -0.2072
    1DIPC   NC310669  26.871  21.619   7.668  0.4206  0.2047  0.1542
    1DIPC   PO410670  26.711  21.254   7.707 -0.0188  0.1219  0.0617
    1DIPC   GL110671  26.710  21.173   7.387 -0.2050  0.0210  0.4534
    1DIPC   GL210672  26.934  21.418   7.191  0.1179  0.2503  0.2583
    1DIPC   C1A10673  26.455  20.885   7.187  0.1055  0.0127  0.2104
    1DIPC   D2A10674  26.099  20.800   7.013  0.3121 -0.1896  0.1189
    1DIPC   D3A10675  25.930  20.328   7.014  0.2889  0.0808 -0.2601
    1DIPC   C4A10676  25.935  20.184   6.623  0.1404  0.0853  0.0617
    1DIPC   C1B10677  26.603  21.268   6.875 -0.1671  0.3104 -0.2035
    1DIPC   D2B10678  26.446  20.969   6.597  0.0866  0.1516  0.0746
    1DIPC   D3B10679  26.896  20.987   6.484  0.2221 -0.3250 -0.1044
    1DIPC   C4B10680  27.058  20.999   6.066 -0.5441 -0.1339 -0.2779
    1DIPC   NC310681   5.328  23.649   7.505 -0.2781  0.1109  0.0617
    1DIPC   PO410682   5.297  23.379   7.097  0.0627  0.3178 -0.1133
    1DIPC   GL110683   5.388  23.205   6.720  0.0039  0.3279  0.1272
    1DIPC   GL210684   5.505  22.862   6.572  0.2580 -0.0943  0.0182
    1DIPC   C1A10685   5.642  23.239   6.293 -0.0329 -0.1329 -0.0123
    1DIPC   D2A10686   5.768  23.501   5.889 -0.2419 -0.0521 -0.0431
    1DIPC   D3A10687   5.517  23.210   5.803  0.1237  0.2939 -0.0459
    1DIPC   C4A10688   5.647  22.943   5.428  0.3373  0.0053 -0.1291
    1DIPC   C1B10689   5.856  22.873   6.846 -0.3424 -0.0026 -0.1675
    1DIPC   D2B10690   6.271  22.878   6.817  0.0835 -0.0581 -0.0238
    1DIPC   D3B10691   6.458  22.715   6.509  0.1323  0.2734 -0.1571
    1DIPC   C4B10692   6.773  22.436   6.367 -0.0657 -0.3859  0.1625
    1DIPC   NC310693  13.455  20.237   6.617 -0.0084  0.2382  0.1298
    1DIPC   PO410694  13.903  20.538   6.670  0.0857 -0.0338  0.0106
    1DIPC   GL110695  13.776  20.512   6.269  0.2720  0.1075 -0.1981
    1DIPC   GL210696  13.530  20.567   6.077 -0.1462 -0.2856  0.0589
    1DIPC   C1A10697  14.024  20.503   5.886  0.1687 -0.0226  0.0762
    1DIPC   D2A10698  14.053  20.578   5.427  0.0727  0.2810 -0.2904
    1DIPC   D3A10699  14.246  20.230   5.095  0.0931  0.1413  0.0403
    1DIPC   C4A10700  14.720  20.140   5.190  0.0206  0.2548  0.0169
    1DIPC   C1B10701  13.108  20.393   5.702  0.0033 -0.0158 -0.1826
    1DIPC   D2B10702  12.849  20.298   5.370  0.1151 -0.0017 -0.1327
    1DIPC   D3B10703  12.819  20.603   5.065  0.0360 -0.1314 -0.3449
    1DIPC   C4B10704  12.402  20.467   4.767 -0.2486 -0.1392  0.2969
    1DIPC   NC310705  12.592   7.286   5.689  0.2933  0.1209 -0.0628
    1DIPC   PO410706  12.979   7.377   5.666 -0.0475  0.0248 -0.1085
    1DIPC   GL110707  12.947   7.129   5.320 -0.0528  0.0545 -0.3167
    1DIPC   GL210708  12.674   7.205   5.208  0.0706  0.0562  0.3009
    1DIPC   C1A10709  12.957   7.067   4.785 -0.0141 -0.0571  0.1614
    1DIPC   D2A10710  12.957   6.998   4.321  0.4382  0.0753 -0.1122
    1DIPC   D3A10711  13.084   7.267   4.099 -0.1310  0.0615 -0.0471
    1DIPC   C4A10712  13.395   7.027   4.139  0.0653  0.1355  0.2308
    1DIPC   C1B10713  12.694   7.532   4.939  0.1216  0.0142 -0.1968
    1DIPC   D2B10714  12.840   7.475   4.488 -0.3385  0.2207  0.0770
    1DIPC   D3B10715  13.267   7.394   4.528  0.1820  0.1907  0.2242
    1DIPC   C4B10716  13.426   6.993   4.617 -0.2844 -0.2476  0.3463
    1DIPC   NC310717  22.088  27.703   6.953 -0.3190 -0.0604 -0.1468
    1DIPC   PO410718  22.321  27.428   7.158 -0.0764  0.1120  0.1551
    1DIPC   GL110719  22.105  27.225   6.709  0.2732 -0.0623 -0.0593
    1DIPC   GL210720  22.361  27.008   6.733 -0.1681  0.2216  0.0439
    1DIPC   C1A10721  22.010  27.269   6.319 -0.1455 -0.1827 -0.2498
    1DIPC   D2A10722  21.924  27.286   5.855  0.2144 -0.2825 -0.0799
    1DIPC   D3A10723  21.779  26.971   5.584  0.0499  0.0815  0.1141
    1DIPC   C4A10724  21.631  27.005   5.170  0.1500  0.0266 -0.1605
    1DIPC   C1B10725  22.650  26.929   6.360  0.0840 -0.3336  0.2686
    1DIPC   D2B10726  23.043  27.040   6.145 -0.1607  0.0034  0.0381
    1DIPC   D3B10727  23.009  27.308   6.537 -0.1186  0.1159  0.3021
    1DIPC   C4B10728  23.073  27.692   6.607  0.0167  0.0876  0.0133
    1DIPC   NC310729   5.463  27.978   8.143 -0.1865  0.0870  0.2306
    1DIPC   PO410730   5.699  28.049   7.726 -0.2056  0.0672 -0.0586
    1DIPC   GL110731   5.799  27.941   7.308 -0.0257 -0.2101  0.0159
    1DIPC   GL210732   5.960  27.604   7.243 -0.1574  0.1190  0.0778
    1DIPC   C1A10733   5.723  28.010   6.843 -0.1542  0.0045  0.0119
    1DIPC   D2A10734   5.852  28.055   6.457 -0.0045  0.0305  0.3777
    1DIPC   D3A10735   5.725  27.961   6.008 -0.0448 -0.2755  0.1720
    1DIPC   C4A10736   5.998  27.898   5.758 -0.0864 -0.1350  0.0104
    1DIPC   C1B10737   5.943  27.575   6.858  0.0074 -0.0943 -0.1194
    1DIPC   D2B10738   6.191  27.673   6.460  0.2718 -0.0139 -0.4105
    1DIPC   D3B10739   6.586  27.589   6.335 -0.0831  0.0390 -0.0302
    1DIPC   C4B10740   6.731  27.180   6.304 -0.4354  0.3237 -0.2748
    1DIPC   NC310741   8.027  17.466   5.954 -0.2336 -0.0986  0.0009
    1DIPC   PO410742   8.469  17.559   6.153  0.0067  0.0262  0.3045
    1DIPC   GL110743   8.660  17.452   5.687  0.0178  0.2148 -0.0888
    1DIPC   GL210744   8.431  17.725   5.615 -0.0341  0.1603 -0.0007
    1DIPC   C1A10745   8.899  17.480   5.335 -0.0278  0.2768  0.0641
    1DIPC   D2A10746   8.780  17.624   4.964 -0.0150 -0.1714 -0.0298
    1DIPC   D3A10747   8.763  17.301   4.632 -0.0267 -0.0477 -0.1528
    1DIPC   C4A10748   9.008  17.408   4.226 -0.2508 -0.1508 -0.0549
    1DIPC   C1B10749   8.279  17.794   5.191 -0.0710  0.1272  0.2591
    1DIPC   D2B10750   8.057  17.938   4.748 -0.3782 -0.2912 -0.1598
    1DIPC   D3B10751   8.401  17.707   4.547  0.0413  0.1190  0.0231
    1DIPC   C4B10752   8.735  17.799   4.460  0.0005 -0.1399  0.1449
    1DIPC   NC310753  13.900  19.453   6.491  0.0925  0.0280 -0.3885
    1DIPC   PO410754  13.587  19.764   6.623 -0.0499  0.4584 -0.3524
    1DIPC   GL110755  13.509  19.901   6.233 -0.2266  0.0757 -0.0557
    1DIPC   GL210756  13.318  20.098   6.156 -0.4909 -0.2165 -0.2221
    1DIPC   C1A10757  13.512  19.677   5.861  0.0592  0.4021  0.1767
    1DIPC   D2A10758  13.719  19.622   5.484  0.0815 -0.1637 -0.2114
    1DIPC   D3A10759  14.008  19.779   5.243  0.2310  0.2199 -0.1429
    1DIPC   C4A10760  14.073  19.840   4.764  0.1744  0.1783  0.0472
    1DIPC   C1B10761  13.561  20.178   5.765 -0.0675 -0.0039  0.0810
    1DIPC   D2B10762  13.724  20.247   5.457  0.0495  0.0767  0.0883
    1DIPC   D3B10763  13.319  20.463   5.273  0.0669 -0.2929  0.0373
    1DIPC   C4B10764  13.303  20.729   4.932 -0.0829 -0.0173  0.1877
    1DIPC   NC310765   4.367   0.038   7.912 -0.0519 -0.0946 -0.1113
    1DIPC   PO410766   4.833   0.336   7.870  0.1564  0.1046 -0.2120
    1DIPC   GL110767   4.829   0.555   7.467 -0.0260  0.3816 -0.0212
    1DIPC   GL210768   4.924   0.338   7.332 -0.2251  0.0412 -0.0839
    1DIPC   C1A10769   4.822   0.899   7.195 -0.0605  0.1563 -0.1818
    1DIPC   D2A10770   4.917   1.198   6.918  0.2575  0.1434  0.0894
    1DIPC   D3A10771   5.247   1.156   6.589 -0.2441 -0.2384 -0.0518
    1DIPC   C4A10772   5.622   1.011   6.579 -0.1729 -0.3738  0.1386
    1DIPC   C1B10773   4.823   0.521   6.828  0.0916  0.1677  0.2177
    1DIPC   D2B10774   4.637   0.815   6.579  0.0983  0.2230 -0.0524
    1DIPC   D3B10775   4.806   0.360   6.328  0.0977 -0.1851  0.1347
    1DIPC   C4B10776   4.933   0.028   6.540 -0.1436  0.0839  0.2158
    1DIPC   NC310777  25.823  15.136   7.198 -0.0147  0.2555 -0.0042
    1DIPC   PO410778  25.926  14.860   6.881  0.1178 -0.1256  0.2737
    1DIPC   GL110779  26.273  14.827   6.640 -0.2580  0.1263  0.0851
    1DIPC   GL210780  26.607  14.989   6.730  0.1409 -0.0504  0.2592
    1DIPC   C1A10781  26.382  14.868   6.203  0.0528  0.1852  0.0635
    1DIPC   D2A10782  26.450  15.109   5.827 -0.0713  0.0505 -0.1452
    1DIPC   D3A10783  26.223  14.978   5.468  0.0049 -0.1802  0.0215
    1DIPC   C4A10784  25.702  14.894   5.562  0.2701 -0.0464 -0.0491
    1DIPC   C1B10785  26.804  15.127   6.333 -0.0704  0.0583 -0.1285
    1DIPC   D2B10786  26.930  15.185   5.932  0.2896 -0.3315  0.1284
    1DIPC   D3B10787  26.691  15.549   5.871  0.1118 -0.2072 -0.2965
    1DIPC   C4B10788  26.843  15.754   5.494  0.1412 -0.2216  0.0220
    1DIPC   NC310789  16.993  14.439   6.400 -0.0688  0.1834 -0.0164
    1DIPC   PO410790  17.296  14.738   6.009 -0.3794 -0.0008 -0.1479
    1DIPC   GL110791  17.204  14.897   5.634  0.0624  0.0461  0.1585
    1DIPC   GL210792  17.543  14.909   5.604  0.0335 -0.0214  0.0384
    1DIPC   C1A10793  16.849  14.855   5.508 -0.3029  0.0081 -0.2342
    1DIPC   D2A10794  16.383  15.004   5.460 -0.0222  0.0599  0.2460
    1DIPC   D3A10795  16.491  15.274   5.082 -0.0292  0.0219  0.0549
    1DIPC   C4A10796  16.229  15.557   4.902  0.1482 -0.3881  0.1607
    1DIPC   C1B10797  17.411  15.098   5.203 -0.0779 -0.0267  0.1090
    1DIPC   D2B10798  17.066  15.112   4.979  0.2115  0.0982 -0.2852
    1DIPC   D3B10799  16.835  15.480   4.716  0.2157 -0.2306 -0.1182
    1DIPC   C4B10800  17.046  15.893   4.697 -0.0532  0.1724  0.2549
    1DIPC   NC310801  19.587  26.782   7.436 -0.0698  0.2167 -0.1704
    1DIPC   PO410802  19.224  26.677   7.330  0.1393 -0.0149 -0.1300
    1DIPC   GL110803  19.231  26.701   7.016 -0.0010 -0.0773 -0.1207
    1DIPC   GL210804  19.110  26.452   6.775 -0.0795  0.0138  0.0304
    1DIPC   C1A10805  19.252  26.939   6.649  0.0532  0.1283  0.1360
    1DIPC   D2A10806  19.347  27.210   6.398 -0.1676  0.0307 -0.1190
    1DIPC   D3A10807  19.182  26.857   6.058 -0.0741  0.0303 -0.1017
    1DIPC   C4A10808  19.349  26.342   6.158  0.2807  0.0801 -0.3634
    1DIPC   C1B10809  18.902  26.577   6.488  0.0572 -0.0141  0.3749
    1DIPC   D2B10810  18.804  26.337   6.202  0.0029 -0.1339 -0.0353
    1DIPC   D3B10811  19.015  26.018   6.056 -0.1478 -0.3075 -0.1321
    1DIPC   C4B10812  18.959  25.595   5.812 -0.0029 -0.2816  0.0601
    1DIPC   NC310813  10.660  28.433   7.585 -0.0515  0.0915  0.0071
    1DIPC   PO410814  10.540  28.728   7.293  0.3222 -0.2675  0.1265
    1DIPC   GL110815  10.477  28.535   6.984 -0.0517  0.2381 -0.0801
    1DIPC   GL210816  10.303  28.722   6.823 -0.2890  0.0967  0.1783
    1DIPC   C1A10817  10.284  28.319   6.518 -0.2364 -0.2810 -0.0456
    1DIPC   D2A10818  10.212  28.410   6.032  0.1127 -0.0685 -0.0909
    1DIPC   D3A10819  10.162  27.938   5.997 -0.0145  0.0006 -0.1403
    1DIPC   C4A10820   9.805  27.683   5.842  0.0868 -0.1191 -0.2724
    1DIPC   C1B10821  10.386  28.765   6.366  0.1631  0.0995 -0.2502
    1DIPC   D2B10822  10.615  28.791   5.975 -0.0988 -0.0542 -0.0634
    1DIPC   D3B10823  11.087  28.618   5.995  0.1072 -0.0054  0.1615
    1DIPC   C4B10824  11.510  28.939   5.889 -0.0596  0.0260  0.2609
    1DIPC   NC310825   1.482  18.466   8.158  0.2803 -0.1531 -0.1397
    1DIPC   PO410826   1.267  18.280   7.842 -0.3459 -0.1427  0.0353
    1DIPC   GL110827   1.167  18.223   7.388  0.0878 -0.3439  0.0971
    1DIPC   GL210828   0.869  18.196   7.349  0.2483 -0.1163 -0.2152
    1DIPC   C1A10829   1.119  17.820   7.085 -0.1211 -0.1026 -0.1845
    1DIPC   D2A10830   1.002  17.566   6.678 -0.0651 -0.0934  0.1120
    1DIPC   D3A10831   1.021  17.991   6.572  0.1339 -0.0694 -0.1978
    1DIPC   C4A10832   0.825  18.301   6.182  0.1112 -0.0678 -0.0257
    1DIPC   C1B10833   0.986  18.356   6.945 -0.1454  0.1324  0.1505
    1DIPC   D2B10834   0.745  18.378   6.683  0.2040 -0.0373 -0.1030
    1DIPC   D3B10835   0.444  18.488   6.428 -0.0703 -0.1518 -0.3287
    1DIPC   C4B10836   0.383  18.201   6.047 -0.0228 -0.1308  0.1291
    1DIPC   NC310837   3.377  16.408   7.072  0.0818 -0.1562  0.1460
    1DIPC   PO410838   3.850  16.317   7.093  0.0251 -0.0669  0.1805
    1DIPC   GL110839   3.714  16.254   6.678  0.1283 -0.0579  0.3147
    1DIPC   GL210840   3.387  16.148   6.636 -0.1384 -0.2895 -0.1490
    1DIPC   C1A10841   3.843  16.379   6.284  0.0252 -0.0144 -0.0278
    1DIPC   D2A10842   3.896  16.184   5.843 -0.1416 -0.0327 -0.1291
    1DIPC   D3A10843   3.929  15.808   5.859  0.4286 -0.3635 -0.1858
    1DIPC   C4A10844   3.721  15.550   6.204  0.0410  0.2775 -0.0012
    1DIPC   C1B10845   3.502  16.042   6.219  0.2338  0.2876  0.1753
    1DIPC   D2B10846   3.420  16.042   5.829  0.0231  0.2752  0.2304
    1DIPC   D3B10847   3.053  16.042   5.608  0.0992  0.0921 -0.3184
    1DIPC   C4B10848   3.247  16.162   5.229 -0.1849  0.1658 -0.1804
    1DIPC   NC310849  25.160  14.297   7.204 -0.2602 -0.3580  0.2966
    1DIPC   PO410850  25.661  14.324   7.124 -0.2481  0.0548  0.0146
    1DIPC   GL110851  25.810  14.341   6.722 -0.2712 -0.5210 -0.0745
    1DIPC   GL210852  25.785  13.985   6.499 -0.0501 -0.3478 -0.3957
    1DIPC   C1A10853  25.869  14.534   6.329 -0.1931  0.0348  0.0081
    1DIPC   D2A10854  25.946  14.655   5.928  0.1610  0.2270  0.0873
    1DIPC   D3A10855  26.290  14.369   5.921 -0.1959  0.1841  0.0691
    1DIPC   C4A10856  26.448  14.426   5.487  0.2753 -0.1556 -0.1874
    1DIPC   C1B10857  25.393  14.242   6.497 -0.1783  0.1529  0.4323
    1DIPC   D2B10858  25.308  14.528   6.233 -0.0975  0.0951  0.0006
    1DIPC   D3B10859  25.044  14.793   6.373 -0.0478 -0.2155 -0.0537
    1DIPC   C4B10860  24.685  14.572   6.249  0.0765 -0.1045 -0.0608
    1DIPC   NC310861   9.093  12.203   5.885  0.2911  0.0241 -0.3292
    1DIPC   PO410862   9.475  12.340   5.778 -0.1017  0.0215  0.1820
    1DIPC   GL110863   9.369  12.040   5.476  0.1544 -0.1767 -0.0685
    1DIPC   GL210864   9.031  11.873   5.430 -0.0278 -0.0606  0.0477
    1DIPC   C1A10865   9.480  11.726   5.117  0.1096  0.1064  0.1247
    1DIPC   D2A10866   9.342  11.823   4.797  0.0683  0.1360  0.1427
    1DIPC   D3A10867   9.459  11.768   4.464 -0.2152 -0.0638 -0.1340
    1DIPC   C4A10868   9.419  11.639   4.024 -0.3232 -0.1774  0.1297
    1DIPC   C1B10869   8.930  11.533   5.054 -0.0209  0.2122  0.0319
    1DIPC   D2B10870   8.923  11.370   4.611 -0.2256 -0.2569 -0.0799
    1DIPC   D3B10871   9.276  11.258   4.396 -0.3017 -0.0184  0.1236
    1DIPC   C4B10872   9.172  11.226   3.983 -0.1879 -0.0803  0.0424
    1DIPC   NC310873  13.600  18.028   6.450 -0.1683  0.1031 -0.0120
    1DIPC   PO410874  13.952  18.385   6.562 -0.2219 -0.1377 -0.2744
    1DIPC   GL110875  13.871  18.244   6.056  0.1570  0.0994  0.0481
    1DIPC   GL210876  14.260  18.378   5.881 -0.1014  0.2384  0.1298
    1DIPC   C1A10877  13.906  18.207   5.598 -0.0896  0.0255  0.1006
    1DIPC   D2A10878  14.167  18.175   5.295  0.0984 -0.4982 -0.2517
    1DIPC   D3A10879  13.960  18.348   4.969 -0.0352  0.3479  0.1258
    1DIPC   C4A10880  14.111  18.753   5.133  0.1566  0.1335 -0.1352
    1DIPC   C1B10881  14.535  18.559   5.490  0.0989  0.2622 -0.0171
    1DIPC   D2B10882  14.903  18.615   5.143  0.0596  0.0179 -0.1865
    1DIPC   D3B10883  15.140  18.719   4.890 -0.4178 -0.4211  0.1829
    1DIPC   C4B10884  15.450  19.094   4.894  0.2074  0.3383  0.0297
    1DIPC   NC310885   0.600   8.035   7.331  0.0668 -0.2213 -0.0677
    1DIPC   PO410886   0.959   7.767   7.471 -0.0892  0.0330  0.1264
    1DIPC   GL110887   0.953   7.620   6.953 -0.2605  0.3079  0.1253
    1DIPC   GL210888   1.079   7.728   6.705  0.0633 -0.2487  0.1028
    1DIPC   C1A10889   0.846   7.221   6.663 -0.0026 -0.1181  0.2523
    1DIPC   D2A10890   0.776   6.821   6.329 -0.3240 -0.2579 -0.6144
    1DIPC   D3A10891   0.646   6.839   5.910 -0.2822 -0.1186  0.0180
    1DIPC   C4A10892   0.603   7.360   5.872 -0.1417  0.0712 -0.0055
    1DIPC   C1B10893   1.447   7.480   6.454  0.0840  0.0701  0.0723
    1DIPC   D2B10894   1.780   7.628   6.779 -0.0897 -0.1383 -0.1505
    1DIPC   D3B10895   1.563   7.977   6.602 -0.1656 -0.1272  0.1609
    1DIPC   C4B10896   1.696   7.936   6.260 -0.0472  0.0350  0.3445
    1DIPC   NC310897  26.443  12.111   6.746 -0.0322  0.2110 -0.0972
    1DIPC   PO410898  26.890  12.102   6.807 -0.1642 -0.0499  0.0067
    1DIPC   GL110899  26.781  12.309   6.444  0.0990  0.0336 -0.1047
    1DIPC   GL210900  26.631  12.560   6.459 -0.0215 -0.0080 -0.1989
    1DIPC   C1A10901  27.060  12.336   6.146  0.0281  0.1757  0.1776
    1DIPC   D2A10902  27.231  12.439   5.758 -0.2267  0.2386 -0.0626
    1DIPC   D3A10903  26.890  12.744   5.965  0.3098 -0.0714 -0.0032
    1DIPC   C4A10904  26.498  12.872   5.660  0.0956 -0.1005  0.1809
    1DIPC   C1B10905  26.444  12.823   6.161  0.2528 -0.1372 -0.2428
    1DIPC   D2B10906  26.051  12.657   5.899 -0.3483  0.0798  0.1201
    1DIPC   D3B10907  26.033  12.703   5.429  0.0045 -0.2324 -0.2536
    1DIPC   C4B10908  26.395  12.606   5.219  0.1022 -0.0129  0.1431
    1DIPC   NC310909  16.078  18.745   6.759  0.0128  0.0726 -0.0088
    1DIPC   PO410910  15.942  18.576   6.326  0.0600 -0.0921  0.2288
    1DIPC   GL110911  16.048  18.667   5.889 -0.1305  0.2353  0.0869
    1DIPC   GL210912  16.101  18.386   5.765 -0.1447  0.1436 -0.0936
    1DIPC   C1A10913  15.849  18.934   5.623 -0.2162  0.2660  0.0595
    1DIPC   D2A10914  15.543  19.249   5.757 -0.1075  0.0004 -0.2983
    1DIPC   D3A10915  15.163  19.249   5.548 -0.2155 -0.0839 -0.1240
    1DIPC   C4A10916  14.924  19.377   5.129  0.2502 -0.0079 -0.1511
    1DIPC   C1B10917  16.009  18.483   5.234 -0.0236  0.2042  0.0082
    1DIPC   D2B10918  15.882  18.721   4.912  0.2359  0.1145 -0.0903
    1DIPC   D3B10919  16.235  18.979   4.789  0.1402 -0.2102  0.2219
    1DIPC   C4B10920  16.233  19.383   4.814 -0.0154  0.3877 -0.1755
    1DIPC   NC310921   6.275   2.572   8.181 -0.1902 -0.2112 -0.0471
    1DIPC   PO410922   6.018   2.834   7.885 -0.0936 -0.0910  0.1681
    1DIPC   GL110923   6.104   2.638   7.597 -0.0006  0.0507  0.2299
    1DIPC   GL210924   5.772   2.564   7.404  0.1671 -0.0608  0.1296
    1DIPC   C1A10925   6.309   2.812   7.216  0.0248  0.3421  0.2918
    1DIPC   D2A10926   6.267   2.987   6.812 -0.0053 -0.0393  0.1298
    1DIPC   D3A10927   6.549   3.306   6.801  0.1878  0.0828  0.2002
    1DIPC   C4A10928   6.751   3.391   6.337  0.0798 -0.1381 -0.0752
    1DIPC   C1B10929   6.027   2.375   7.207 -0.1966  0.1452 -0.0677
    1DIPC   D2B10930   6.125   1.970   6.970 -0.0173 -0.3802 -0.2943
    1DIPC   D3B10931   5.670   2.098   6.886 -0.1196 -0.0817 -0.2174
    1DIPC   C4B10932   5.557   2.404   6.920 -0.1283 -0.0929 -0.2666
    1DIPC   NC310933   1.486  23.958   7.904  0.0099  0.0030  0.4107
    1DIPC   PO410934   1.325  23.612   7.725 -0.0895 -0.1142 -0.0969
    1DIPC   GL110935   1.195  23.934   7.469  0.0220 -0.1222 -0.1302
    1DIPC   GL210936   0.864  23.868   7.205 -0.0748 -0.0513 -0.1102
    1DIPC   C1A10937   1.281  23.947   7.018  0.3585 -0.1747  0.0634
    1DIPC   D2A10938   1.603  23.894   6.719  0.0742  0.2945  0.0712
    1DIPC   D3A10939   1.795  24.075   7.181 -0.1366  0.3951 -0.1485
    1DIPC   C4A10940   1.776  24.575   7.193 -0.2032  0.2098  0.4831
    1DIPC   C1B10941   0.813  23.879   6.767  0.1775  0.0190 -0.2131
    1DIPC   D2B10942   0.698  24.162   6.430  0.0268  0.1824 -0.3413
    1DIPC   D3B10943   0.558  24.389   6.086 -0.2374  0.1637 -0.1235
    1DIPC   C4B10944   0.617  24.208   5.652 -0.1042 -0.0724  0.1474
    1DIPC   NC310945  12.377  27.005   7.696 -0.5161 -0.3376  0.1359
    1DIPC   PO410946  12.526  26.784   7.226 -0.0221 -0.0713 -0.0382
    1DIPC   GL110947  12.399  27.030   6.810 -0.0352  0.1435 -0.0232
    1DIPC   GL210948  11.999  27.087   6.725 -0.1253 -0.1166  0.1395
    1DIPC   C1A10949  12.394  27.470   6.637 -0.0576 -0.1350 -0.2262
    1DIPC   D2A10950  12.048  27.643   6.428 -0.1505 -0.2756  0.0354
    1DIPC   D3A10951  12.042  27.512   5.984  0.1417 -0.0668 -0.0768
    1DIPC   C4A10952  11.965  27.770   5.720  0.2731  0.1762 -0.0396
    1DIPC   C1B10953  12.023  27.106   6.311 -0.1199 -0.0591  0.0413
    1DIPC   D2B10954  12.029  26.968   5.854  0.1645  0.1028 -0.0293
    1DIPC   D3B10955  11.826  26.787   5.477  0.4815  0.0648 -0.0886
    1DIPC   C4B10956  11.550  26.511   5.358 -0.0591 -0.2461  0.2536
    1DIPC   NC310957  10.536  14.598   6.075  0.1743  0.5499  0.1233
    1DIPC   PO410958  10.662  14.567   5.676 -0.3111 -0.0467  0.0445
    1DIPC   GL110959  10.345  14.238   5.455 -0.1356  0.1692 -0.1689
    1DIPC   GL210960  10.589  14.068   5.263 -0.1453  0.3156 -0.0507
    1DIPC   C1A10961  10.086  14.003   5.130 -0.1036 -0.0524  0.1918
    1DIPC   D2A10962   9.647  14.017   5.031 -0.2426 -0.0790 -0.0204
    1DIPC   D3A10963   9.639  14.437   5.283  0.1496  0.1960  0.2603
    1DIPC   C4A10964   9.580  14.764   5.002  0.1913  0.2541 -0.2173
    1DIPC   C1B10965  10.908  13.973   4.885  0.3893  0.2267 -0.2780
    1DIPC   D2B10966  10.759  13.765   4.492  0.0434 -0.1419  0.1586
    1DIPC   D3B10967  11.166  13.807   4.372 -0.0393 -0.0587  0.0861
    1DIPC   C4B10968  11.343  14.105   4.615 -0.1511  0.0923  0.1179
    1DIPC   NC310969  10.055  20.058   7.403 -0.0116 -0.2760 -0.3037
    1DIPC   PO410970  10.115  19.654   7.207  0.0727  0.2540 -0.0101
    1DIPC   GL110971  10.175  19.534   6.785  0.0104 -0.1974 -0.2226
    1DIPC   GL210972  10.540  19.565   6.657 -0.1747  0.4753 -0.0822
    1DIPC   C1A10973  10.249  19.207   6.526 -0.0622 -0.3135 -0.2020
    1DIPC   D2A10974  10.185  18.966   6.154  0.1614  0.2450  0.0296
    1DIPC   D3A10975  10.139  18.975   5.795 -0.1704  0.0578  0.0275
    1DIPC   C4A10976  10.125  18.646   5.522  0.0580 -0.4310 -0.1741
    1DIPC   C1B10977  10.837  19.513   6.405 -0.4031 -0.0759 -0.1772
    1DIPC   D2B10978  11.322  19.286   6.232  0.0239 -0.1647  0.1043
    1DIPC   D3B10979  11.034  19.367   5.991 -0.0464 -0.1058  0.0457
    1DIPC   C4B10980  10.928  19.084   5.764 -0.0013  0.2327 -0.1140
    1DIPC   NC310981  22.255  10.988   7.423  0.1164  0.0336 -0.0984
    1DIPC   PO410982  21.909  10.859   7.121 -0.0227  0.0725  0.2250
    1DIPC   GL110983  21.895  10.909   6.644  0.0792 -0.0105 -0.0778
    1DIPC   GL210984  21.655  11.028   6.557  0.1130  0.0562 -0.2193
    1DIPC   C1A10985  21.911  11.053   6.135 -0.0295 -0.4519 -0.0235
    1DIPC   D2A10986  21.700  10.953   5.826  0.1903  0.1499 -0.0729
    1DIPC   D3A10987  21.439  11.063   5.451  0.0352 -0.2956  0.0043
    1DIPC   C4A10988  21.383  10.807   5.010  0.0338 -0.0270 -0.4546
    1DIPC   C1B10989  21.472  10.806   6.223 -0.0029 -0.1850 -0.3559
    1DIPC   D2B10990  21.355  10.420   6.107 -0.0561  0.0336 -0.1262
    1DIPC   D3B10991  21.777  10.379   6.323 -0.1862 -0.2475  0.2450
    1DIPC   C4B10992  22.046  10.591   6.154  0.2136  0.1620 -0.0347
    1DIPC   NC310993  10.479   4.494   7.319  0.0454 -0.1446  0.1458
    1DIPC   PO410994  10.331   4.482   6.830  0.0614  0.2125  0.1393
    1DIPC   GL110995  10.129   4.549   6.402  0.1513  0.1910  0.1181
    1DIPC   GL210996   9.973   4.903   6.409  0.1473  0.2311  0.3167
    1DIPC   C1A10997  10.158   4.414   5.926  0.0618 -0.0768 -0.3524
    1DIPC   D2A10998  10.010   4.213   5.528  0.3148  0.0775 -0.0966
    1DIPC   D3A10999   9.929   3.891   5.280 -0.0494 -0.2494  0.1243
    1DIPC   C4A11000   9.799   3.926   4.867  0.1084  0.2710  0.0419
    1DIPC   C1B11001  10.056   4.945   5.952  0.0690  0.0031 -0.0196
    1DIPC   D2B11002  10.296   4.849   5.547  0.0454  0.3508 -0.1877
    1DIPC   D3B11003  10.190   5.184   5.352 -0.0810  0.0569  0.3200
    1DIPC   C4B11004  10.483   5.221   5.181  0.1457 -0.0345 -0.0460
    1DIPC   NC311005   3.504   0.007   7.264 -0.1940  0.1844  0.0249
    1DIPC   PO411006   3.190  -0.241   7.257  0.0914  0.2324 -0.1070
    1DIPC   GL111007   2.880  -0.273   6.988 -0.3013 -0.1307  0.0585
    1DIPC   GL211008   2.760   0.005   6.748  0.3018 -0.0399 -0.4194
    1DIPC   C1A11009   2.416  -0.203   7.027  0.1886  0.0082 -0.3503
    1DIPC   D2A11010   2.065  -0.481   7.024 -0.0070  0.1588  0.1280
    1DIPC   D3A11011   1.753  -0.153   7.065 -0.1047 -0.2110  0.0149
    1DIPC   C4A11012   1.357  -0.319   6.764  0.2746 -0.1082  0.3159
    1DIPC   C1B11013   2.381   0.037   6.497  0.0702  0.0933 -0.1428
    1DIPC   D2B11014   2.145   0.410   6.455  0.1048 -0.0426  0.2284
    1DIPC   D3B11015   2.574   0.539   6.438 -0.4392  0.1245 -0.0542
    1DIPC   C4B11016   2.730   0.719   6.028  0.1762 -0.5561  0.1735
    1DIPC   NC311017  10.339  11.374   6.347 -0.0811  0.2909 -0.0060
    1DIPC   PO411018  10.250  11.036   6.065 -0.2108  0.0818 -0.0429
    1DIPC   GL111019  10.347  11.074   5.601  0.1253  0.1216 -0.2166
    1DIPC   GL211020  10.053  11.049   5.451 -0.0368 -0.0094 -0.0837
    1DIPC   C1A11021  10.478  10.960   5.160 -0.0380 -0.1920  0.0604
    1DIPC   D2A11022  10.673  10.480   5.100  0.0180 -0.1137 -0.0286
    1DIPC   D3A11023  10.546  10.223   4.711  0.0411 -0.3304 -0.0250
    1DIPC   C4A11024  10.916  10.118   4.439 -0.2820 -0.2321  0.2569
    1DIPC   C1B11025  10.051  11.085   4.971  0.2104 -0.0267 -0.2088
    1DIPC   D2B11026  10.228  11.097   4.579  0.0438 -0.0842 -0.1178
    1DIPC   D3B11027  10.395  11.444   4.408  0.0284 -0.1976  0.3415
    1DIPC   C4B11028  10.440  11.843   4.601  0.0091 -0.2341  0.0524
    1DIPC   NC311029  21.586  24.688   7.415 -0.2379 -0.0550 -0.0734
    1DIPC   PO411030  21.509  24.984   7.209 -0.3224  0.1758 -0.0156
    1DIPC   GL111031  21.724  24.888   6.878  0.2878 -0.2431 -0.0072
    1DIPC   GL211032  21.805  25.093   6.622  0.2440  0.1267  0.0440
    1DIPC   C1A11033  21.918  24.628   6.588  0.1543 -0.0806  0.0048
    1DIPC   D2A11034  21.664  24.359   6.464 -0.1271 -0.1185  0.4986
    1DIPC   D3A11035  21.653  24.761   6.172  0.1598  0.1250 -0.0630
    1DIPC   C4A11036  21.618  24.728   5.673 -0.0925  0.1896 -0.2810
    1DIPC   C1B11037  21.974  25.187   6.180  0.1615 -0.0857 -0.3410
    1DIPC   D2B11038  21.937  25.403   5.645  0.0268 -0.1997 -0.3230
    1DIPC   D3B11039  22.388  25.237   5.555  0.0304 -0.0573  0.1839
    1DIPC   C4B11040  22.659  24.939   5.791 -0.1630  0.0238  0.0499
    1DIPC   NC311041   6.850   3.191   8.110 -0.0970 -0.3546 -0.0320
    1DIPC   PO411042   7.042   3.103   7.749  0.1199  0.2785  0.0380
    1DIPC   GL111043   6.800   3.154   7.350  0.0130  0.3180 -0.1688
    1DIPC   GL211044   6.701   3.386   7.293 -0.0146  0.0151 -0.2661
    1DIPC   C1A11045   6.773   2.894   6.949  0.0712 -0.0492  0.1021
    1DIPC   D2A11046   6.776   2.872   6.489  0.3496 -0.1727  0.0528
    1DIPC   D3A11047   6.325   2.704   6.418  0.1300  0.1181  0.2138
    1DIPC   C4A11048   6.323   2.419   6.141  0.0029 -0.0043  0.0389
    1DIPC   C1B11049   6.319   3.490   7.183  0.2936 -0.3633  0.2512
    1DIPC   D2B11050   5.982   3.858   7.152  0.0294 -0.0171  0.1583
    1DIPC   D3B11051   5.708   3.882   6.792 -0.2385 -0.1169 -0.3336
    1DIPC   C4B11052   5.846   3.831   6.443 -0.1250 -0.0848  0.3982
    1DIPC   NC311053   4.500   9.313   7.332  0.2074 -0.0034 -0.0514
    1DIPC   PO411054   4.115   9.294   7.086 -0.3049  0.4030  0.0517
    1DIPC   GL111055   3.861   9.148   6.747  0.0057  0.2748 -0.2562
    1DIPC   GL211056   3.656   9.425   6.590  0.1967  0.1909 -0.2601
    1DIPC   C1A11057   3.581   8.898   6.407  0.2015 -0.0031 -0.0916
    1DIPC   D2A11058   3.463   8.708   6.119  0.4862 -0.2174  0.1652
    1DIPC   D3A11059   3.842   8.747   5.934  0.0435 -0.3017 -0.0626
    1DIPC   C4A11060   4.005   9.166   5.715  0.2479  0.0506 -0.1098
    1DIPC   C1B11061   3.619   9.414   6.166 -0.4707 -0.0876 -0.1392
    1DIPC   D2B11062   3.638   9.573   5.747  0.4258  0.2597 -0.0896
    1DIPC   D3B11063   3.455   9.297   5.516  0.3541  0.0064  0.2857
    1DIPC   C4B11064   3.597   9.037   5.293  0.0548 -0.2078  0.0428
    1DIPC   NC311065  22.350  25.116   7.516  0.0965 -0.5651  0.3478
    1DIPC   PO411066  21.998  24.944   7.482  0.0861 -0.2892  0.1840
    1DIPC   GL111067  22.059  25.131   7.132  0.1815  0.3599 -0.2383
    1DIPC   GL211068  22.299  25.308   7.035  0.0873  0.0616 -0.2508
    1DIPC   C1A11069  22.250  24.887   6.792  0.1133  0.0561 -0.0783
    1DIPC   D2A11070  22.339  24.849   6.296  0.0695  0.0441 -0.0426
    1DIPC   D3A11071  22.118  24.784   5.887  0.0150 -0.0464 -0.0628
    1DIPC   C4A11072  22.133  24.802   5.461  0.1475 -0.0502  0.2472
    1DIPC   C1B11073  22.308  25.332   6.467 -0.3026 -0.4014 -0.0254
    1DIPC   D2B11074  22.385  25.317   6.030 -0.1414  0.2132  0.0360
    1DIPC   D3B11075  22.554  25.646   5.717  0.1153 -0.1780 -0.0660
    1DIPC   C4B11076  22.258  25.684   5.372  0.0628 -0.1745  0.1723
    1DIPC   NC311077  18.866  10.100   5.791  0.0127 -0.1354 -0.1908
    1DIPC   PO411078  18.339  10.057   5.794  0.2351 -0.1135  0.2085
    1DIPC   GL111079  18.517  10.392   5.503 -0.0775  0.0017 -0.0539
    1DIPC   GL211080  18.696  10.604   5.718  0.1434  0.3800  0.0143
    1DIPC   C1A11081  18.784  10.383   5.076 -0.3069  0.1144  0.1078
    1DIPC   D2A11082  18.950  10.490   4.654  0.1949  0.1128 -0.2022
    1DIPC   D3A11083  18.664  10.755   4.500 -0.3082  0.2125 -0.0755
    1DIPC   C4A11084  18.715  10.881   3.949 -0.0061  0.1926 -0.2220
    1DIPC   C1B11085  18.846  10.855   5.318  0.3021 -0.2102 -0.0133
    1DIPC   D2B11086  18.690  11.021   4.871 -0.3096  0.1862  0.0395
    1DIPC   D3B11087  19.042  11.373   4.734 -0.0031 -0.2712 -0.1607
    1DIPC   C4B11088  18.884  11.755   4.489 -0.0960  0.1754 -0.0080
    1DIPC   NC311089   8.419  23.029   7.494 -0.1030  0.1962  0.3594
    1DIPC   PO411090   8.230  22.789   7.142  0.0199  0.4820  0.1497
    1DIPC   GL111091   7.992  22.808   6.736 -0.0184  0.1225 -0.3301
    1DIPC   GL211092   7.654  22.683   6.489  0.1995 -0.0199 -0.1127
    1DIPC   C1A11093   7.862  23.044   6.327 -0.2501 -0.0823  0.1146
    1DIPC   D2A11094   7.849  23.096   5.956 -0.0613 -0.1835  0.0536
    1DIPC   D3A11095   8.180  23.251   5.759 -0.1482 -0.2753 -0.1664
    1DIPC   C4A11096   8.362  23.521   5.867  0.0837 -0.0616  0.0995
    1DIPC   C1B11097   7.415  22.927   6.181  0.0534  0.0750 -0.3646
    1DIPC   D2B11098   7.354  23.018   5.780  0.1207 -0.1508  0.0522
    1DIPC   D3B11099   6.985  23.061   5.676  0.0338  0.2351 -0.1840
    1DIPC   C4B11100   6.764  22.705   5.381  0.3721  0.0859  0.2790
    1DIPC   NC311101   4.677   3.211   7.840  0.0785  0.0466 -0.3744
    1DIPC   PO411102   4.484   3.298   7.509 -0.0711  0.2387  0.3290
    1DIPC   GL111103   4.670   3.208   7.167 -0.1940 -0.3640  0.0843
    1DIPC   GL211104   4.584   3.524   7.013  0.1244 -0.1350  0.0445
    1DIPC   C1A11105   4.990   3.257   6.750  0.0762  0.2293 -0.3540
    1DIPC   D2A11106   5.060   3.344   6.246  0.2766 -0.1414 -0.0586
    1DIPC   D3A11107   5.402   3.089   6.255 -0.0164  0.0511 -0.0235
    1DIPC   C4A11108   5.565   3.059   5.857 -0.1286  0.0373  0.1517
    1DIPC   C1B11109   4.483   3.402   6.581  0.8363 -0.0561  0.1801
    1DIPC   D2B11110   4.577   3.084   6.389  0.0087  0.1080 -0.0229
    1DIPC   D3B11111   4.417   2.680   6.207 -0.2135 -0.3611 -0.4798
    1DIPC   C4B11112   4.107   2.839   5.947  0.2683 -0.2174 -0.0432
    1DIPC   NC311113  20.696  23.741   6.759 -0.2831  0.0643  0.2077
    1DIPC   PO411114  20.256  23.568   6.731 -0.1114 -0.1552  0.1000
    1DIPC   GL111115  20.019  23.685   6.460  0.0102 -0.3690  0.4044
    1DIPC   GL211116  20.043  24.010   6.340  0.4486  0.0766 -0.0076
    1DIPC   C1A11117  20.126  23.621   5.981 -0.0286 -0.0280 -0.1361
    1DIPC   D2A11118  20.293  23.544   5.581 -0.3629 -0.1902  0.1019
    1DIPC   D3A11119  20.073  23.585   5.234  0.2741  0.0347 -0.2588
    1DIPC   C4A11120  20.074  23.216   4.942 -0.1483  0.2568  0.0755
    1DIPC   C1B11121  19.846  24.270   6.071  0.3187  0.1991  0.0725
    1DIPC   D2B11122  19.805  24.419   5.673 -0.0135  0.0946 -0.3755
    1DIPC   D3B11123  19.419  24.653   5.557 -0.0054  0.1201 -0.1366
    1DIPC   C4B11124  19.547  25.001   5.197 -0.1636 -0.0577  0.0736
    1DIPC   NC311125  25.825  23.561   7.524  0.0627 -0.2011  0.1100
    1DIPC   PO411126  26.043  23.988   7.664  0.3564  0.1462 -0.1843
    1DIPC   GL111127  25.964  23.972   7.200 -0.1395 -0.1266 -0.1889
    1DIPC   GL211128  25.685  23.842   7.121  0.0967  0.3162 -0.0088
    1DIPC   C1A11129  26.237  24.158   6.859 -0.0367  0.2474  0.1893
    1DIPC   D2A11130  26.496  24.529   6.717  0.2887  0.3589 -0.0885
    1DIPC   D3A11131  26.300  24.663   7.064 -0.1998 -0.0512 -0.2629
    1DIPC   C4A11132  26.441  24.754   7.465  0.3381 -0.0854 -0.2385
    1DIPC   C1B11133  25.722  23.770   6.699 -0.1473 -0.0720 -0.1219
    1DIPC   D2B11134  25.616  23.571   6.246  0.0643  0.0107  0.1203
    1DIPC   D3B11135  25.840  23.141   6.202  0.3250 -0.0138 -0.2572
    1DIPC   C4B11136  26.081  22.841   5.971  0.2185 -0.0245  0.4737
    1DIPC   NC311137  27.258  25.429   8.120  0.0852 -0.0986  0.3062
    1DIPC   PO411138  26.908  25.160   7.963  0.0485  0.0886  0.3646
    1DIPC   GL111139  26.579  25.280   7.618  0.1088  0.0350  0.0306
    1DIPC   GL211140  26.839  25.368   7.452 -0.0253 -0.0997 -0.2117
    1DIPC   C1A11141  26.496  25.225   7.121 -0.3694  0.0255 -0.1184
    1DIPC   D2A11142  26.259  25.371   6.769  0.0913 -0.0726  0.1476
    1DIPC   D3A11143  26.277  24.901   6.541 -0.1308 -0.2681 -0.0027
    1DIPC   C4A11144  26.318  24.883   6.068 -0.1748 -0.3116 -0.2492
    1DIPC   C1B11145  26.921  25.476   7.082 -0.0379  0.0631 -0.2144
    1DIPC   D2B11146  27.144  25.595   6.735 -0.0829  0.0624  0.1307
    1DIPC   D3B11147  27.121  25.482   6.292  0.1918 -0.1480  0.2755
    1DIPC   C4B11148  27.490  25.380   6.055  0.1079  0.0698 -0.2137
    1DIPC   NC311149   2.009  23.052   7.897  0.1658 -0.1605 -0.1265
    1DIPC   PO411150   2.125  23.306   7.530 -0.0164  0.0023 -0.2281
    1DIPC   GL111151   2.186  23.211   7.155  0.0686  0.0193 -0.0995
    1DIPC   GL211152   2.498  23.226   7.079  0.1729  0.4440  0.2177
    1DIPC   C1A11153   2.071  23.073   6.723  0.0765  0.0169  0.2544
    1DIPC   D2A11154   1.687  22.813   6.636  0.1146 -0.0983 -0.0127
    1DIPC   D3A11155   1.660  23.136   6.322  0.1601 -0.1317  0.2883
    1DIPC   C4A11156   1.550  23.616   6.250 -0.3169  0.3347 -0.1445
    1DIPC   C1B11157   2.773  23.117   6.807 -0.1807  0.1921  0.2477
    1DIPC   D2B11158   2.945  22.921   6.479 -0.1040  0.1743  0.2529
    1DIPC   D3B11159   3.172  22.563   6.360 -0.0668  0.3374 -0.2085
    1DIPC   C4B11160   3.378  22.670   6.004 -0.1983 -0.2172  0.0976
    1DIPC   NC311161  23.692   9.615   7.163 -0.3407  0.0713 -0.1566
    1DIPC   PO411162  23.973   9.939   6.895 -0.0114  0.1125 -0.0176
    1DIPC   GL111163  24.017   9.949   6.381  0.2740 -0.3831 -0.3101
    1DIPC   GL211164  24.250   9.881   6.137  0.1280  0.1669 -0.2085
    1DIPC   C1A11165  23.770   9.949   5.929 -0.0464  0.0581 -0.2402
    1DIPC   D2A11166  23.888   9.967   5.453  0.3615 -0.2050  0.0075
    1DIPC   D3A11167  24.105  10.026   5.028 -0.1257  0.3436 -0.3141
    1DIPC   C4A11168  24.311   9.669   4.780 -0.0268 -0.3163 -0.1528
    1DIPC   C1B11169  24.249   9.745   5.782 -0.0689  0.4072 -0.0193
    1DIPC   D2B11170  24.547   9.451   5.722  0.2207  0.0966 -0.0623
    1DIPC   D3B11171  24.907   9.185   5.983  0.0267  0.0557  0.0770
    1DIPC   C4B11172  25.315   9.383   6.020 -0.1942 -0.0770  0.0727
    1DIPC   NC311173  26.320   6.590   8.358 -0.0780  0.1023 -0.0438
    1DIPC   PO411174  26.621   6.156   8.241  0.3331  0.1082 -0.2629
    1DIPC   GL111175  26.670   6.484   7.910  0.1167 -0.3323  0.0327
    1DIPC   GL211176  26.866   6.417   7.632  0.1564  0.1996 -0.4820
    1DIPC   C1A11177  26.790   6.865   7.740  0.1534 -0.2037 -0.0317
    1DIPC   D2A11178  26.881   7.153   7.415 -0.2871  0.1851  0.0151
    1DIPC   D3A11179  27.207   7.121   7.054  0.0893 -0.1496  0.0470
    1DIPC   C4A11180  27.165   6.877   6.685 -0.0487  0.1532 -0.0829
    1DIPC   C1B11181  26.566   6.068   7.497  0.2405  0.2226 -0.1224
    1DIPC   D2B11182  26.223   5.830   7.403  0.0955 -0.2897  0.0632
    1DIPC   D3B11183  26.103   6.137   7.125 -0.0100 -0.1595 -0.4538
    1DIPC   C4B11184  25.719   6.478   7.044 -0.1969  0.0267 -0.0729
    1DIPC   NC311185  28.347  15.086   7.520  0.0370  0.1024  0.1683
    1DIPC   PO411186  28.332  14.790   7.089  0.1362  0.4213 -0.2481
    1DIPC   GL111187  28.235  14.541   6.766  0.1043  0.1407  0.3604
    1DIPC   GL211188  28.125  14.776   6.648 -0.2365 -0.0415  0.0089
    1DIPC   C1A11189  27.949  14.408   6.388  0.1529  0.1589 -0.0257
    1DIPC   D2A11190  27.823  14.500   5.974  0.0485  0.2354 -0.2798
    1DIPC   D3A11191  28.174  14.153   5.972 -0.2644  0.1265  0.1601
    1DIPC   C4A11192  28.567  13.964   6.019  0.0270 -0.0420 -0.0652
    1DIPC   C1B11193  28.206  14.764   6.166 -0.1363 -0.0755  0.1046
    1DIPC   D2B11194  28.165  14.716   5.699  0.1797  0.1002 -0.1640
    1DIPC   D3B11195  27.690  14.683   5.533  0.0907  0.0229  0.0032
    1DIPC   C4B11196  27.314  14.557   5.856  0.0865  0.1083 -0.0820
    1DIPC   NC311197   4.067  26.740   8.359 -0.5020  0.0371 -0.0406
    1DIPC   PO411198   4.324  27.000   8.008  0.1976 -0.2655  0.2639
    1DIPC   GL111199   4.702  26.936   7.689 -0.2982  0.1514 -0.1172
    1DIPC   GL211200   4.576  27.226   7.548 -0.1109 -0.1895 -0.0475
    1DIPC   C1A11201   4.707  26.669   7.419 -0.2234  0.2468 -0.0435
    1DIPC   D2A11202   4.690  26.288   7.139  0.1212 -0.0600 -0.0133
    1DIPC   D3A11203   4.955  26.019   7.305  0.1819 -0.1379 -0.0979
    1DIPC   C4A11204   5.348  26.250   7.369 -0.0853 -0.0948 -0.3298
    1DIPC   C1B11205   4.208  27.184   7.226 -0.0287 -0.0790 -0.1095
    1DIPC   D2B11206   4.009  27.036   6.817  0.1471  0.2872  0.0659
    1DIPC   D3B11207   4.318  26.874   6.560 -0.0264  0.0125 -0.0140
    1DIPC   C4B11208   4.715  27.090   6.500 -0.2663 -0.1430 -0.1707
    1DIPC   NC311209  24.282   2.063   7.540  0.0745  0.1144  0.0629
    1DIPC   PO411210  24.180   1.832   7.176 -0.2791 -0.1490 -0.0355
    1DIPC   GL111211  24.493   2.042   7.025 -0.0739 -0.2950  0.3270
    1DIPC   GL211212  24.859   2.021   6.844  0.2651 -0.0840 -0.1810
    1DIPC   C1A11213  24.630   2.480   6.703  0.0548  0.0808 -0.0324
    1DIPC   D2A11214  24.829   2.817   6.371  0.1723 -0.2859 -0.1267
    1DIPC   D3A11215  24.565   2.923   6.076 -0.1703  0.1153  0.1850
    1DIPC   C4A11216  24.565   3.112   5.645  0.2548  0.0105  0.0960
    1DIPC   C1B11217  24.898   2.093   6.443  0.2947  0.0312 -0.0275
    1DIPC   D2B11218  24.582   2.340   6.199  0.1956 -0.4046 -0.0178
    1DIPC   D3B11219  24.949   2.464   6.023 -0.0661 -0.5205  0.0132
    1DIPC   C4B11220  25.057   2.208   5.646  0.0338  0.1361 -0.1539
    1DIPC   NC311221   8.682   0.622   7.548  0.0082 -0.3592 -0.1448
    1DIPC   PO411222   8.427   0.340   7.182  0.1328 -0.0132 -0.2879
    1DIPC   GL111223   8.318   0.477   6.802 -0.0892 -0.0096 -0.4852
    1DIPC   GL211224   8.404   0.741   6.646 -0.0519 -0.0765 -0.0874
    1DIPC   C1A11225   8.368   0.248   6.373  0.1727 -0.0077 -0.0935
    1DIPC   D2A11226   8.472   0.261   5.967  0.0277 -0.1343 -0.0466
    1DIPC   D3A11227   8.168   0.328   5.662 -0.0993  0.0034  0.0248
    1DIPC   C4A11228   7.792   0.347   5.654 -0.0330  0.0703 -0.0076
    1DIPC   C1B11229   8.466   0.719   6.184  0.1872 -0.2784  0.2645
    1DIPC   D2B11230   8.426   1.086   5.920 -0.3386  0.1766 -0.2442
    1DIPC   D3B11231   8.325   0.861   5.552 -0.0095 -0.0364 -0.0182
    1DIPC   C4B11232   8.612   0.532   5.512  0.3566 -0.1316 -0.0623
    1DIPC   NC311233  21.285  19.014   6.458 -0.1108  0.1464 -0.1054
    1DIPC   PO411234  20.940  18.918   6.142 -0.0355  0.0237 -0.1668
    1DIPC   GL111235  21.078  19.103   5.790 -0.1036  0.0346 -0.0913
    1DIPC   GL211236  21.140  19.406   5.832 -0.2037  0.0847 -0.0115
    1DIPC   C1A11237  21.003  18.971   5.327  0.0753  0.0796 -0.2338
    1DIPC   D2A11238  21.187  19.004   4.910  0.2577 -0.2480  0.1971
    1DIPC   D3A11239  20.963  18.725   4.894  0.0373 -0.0404  0.0070
    1DIPC   C4A11240  20.582  18.638   4.713 -0.5093 -0.1381  0.0954
    1DIPC   C1B11241  20.993  19.700   5.597 -0.0622  0.2479  0.0537
    1DIPC   D2B11242  21.128  20.122   5.475 -0.0765  0.2470  0.2167
    1DIPC   D3B11243  20.958  20.486   5.239 -0.1622 -0.0902 -0.0235
    1DIPC   C4B11244  20.949  20.610   4.741  0.2264 -0.0328 -0.0941
    1DIPC   NC311245  19.863  18.867   6.216 -0.0657 -0.1014  0.4119
    1DIPC   PO411246  20.017  18.877   5.774 -0.0667 -0.0615  0.0485
    1DIPC   GL111247  20.158  18.931   5.270 -0.2703 -0.0193  0.1576
    1DIPC   GL211248  20.536  18.894   5.241  0.0408  0.0057 -0.0055
    1DIPC   C1A11249  20.234  19.029   4.869 -0.0100 -0.3394  0.1560
    1DIPC   D2A11250  20.167  19.286   4.397 -0.3653 -0.1297  0.0572
    1DIPC   D3A11251  20.054  18.834   4.401 -0.0691  0.0211  0.2718
    1DIPC   C4A11252  19.812  18.761   4.707 -0.4826 -0.0100  0.3004
    1DIPC   C1B11253  20.709  19.225   4.982 -0.1196 -0.3130  0.0377
    1DIPC   D2B11254  20.869  19.234   4.598 -0.0476  0.3990  0.0916
    1DIPC   D3B11255  20.588  19.061   4.486  0.0153 -0.1530 -0.1383
    1DIPC   C4B11256  20.718  18.703   4.215  0.0912  0.4767 -0.2553
    1DIPC   NC311257   3.020   3.915   8.029  0.0027  0.1556 -0.0964
    1DIPC   PO411258   3.251   3.679   7.700 -0.0466 -0.2552 -0.2644
    1DIPC   GL111259   3.037   3.533   7.326  0.2985  0.1280  0.1775
    1DIPC   GL211260   2.812   3.469   7.367  0.0707 -0.1580  0.0068
    1DIPC   C1A11261   3.139   3.336   6.973  0.1002 -0.0534 -0.1848
    1DIPC   D2A11262   3.138   3.492   6.613  0.0566 -0.1461  0.0231
    1DIPC   D3A11263   2.883   3.193   6.500 -0.0373  0.0946  0.0597
    1DIPC   C4A11264   2.544   3.311   6.301 -0.1756  0.0490  0.2097
    1DIPC   C1B11265   2.636   3.459   6.948  0.0393  0.1133 -0.2581
    1DIPC   D2B11266   2.343   3.727   6.804 -0.3098  0.0774  0.1846
    1DIPC   D3B11267   2.740   3.794   6.555 -0.0774  0.0571  0.2676
    1DIPC   C4B11268   2.617   3.753   6.095 -0.0207 -0.0233 -0.6706
    1DIPC   NC311269  26.088  17.093   7.555 -0.0445 -0.1336 -0.0367
    1DIPC   PO411270  26.431  17.361   7.419 -0.0314 -0.1108 -0.0565
    1DIPC   GL111271  26.582  17.580   7.147 -0.1595 -0.2768  0.4163
    1DIPC   GL211272  26.803  17.422   6.869 -0.2105  0.2765 -0.0703
    1DIPC   C1A11273  26.621  17.941   6.872  0.1077  0.0217 -0.3505
    1DIPC   D2A11274  26.879  18.244   6.549 -0.1270  0.1010  0.0467
    1DIPC   D3A11275  27.015  18.552   6.611  0.1513 -0.0329  0.1460
    1DIPC   C4A11276  27.092  18.949   6.475  0.2717 -0.1709  0.3045
    1DIPC   C1B11277  26.779  17.021   6.510 -0.1511  0.2115 -0.1450
    1DIPC   D2B11278  26.646  16.895   6.081 -0.0190  0.1854 -0.1627
    1DIPC   D3B11279  26.747  17.076   5.813 -0.1380  0.4192  0.4303
    1DIPC   C4B11280  26.528  17.241   5.430  0.0618 -0.1504 -0.2309
    1DIPC   NC311281   9.349  25.908   7.179  0.1229 -0.0177  0.0577
    1DIPC   PO411282   9.779  25.780   7.013  0.1887 -0.2051 -0.0670
    1DIPC   GL111283   9.647  26.068   6.739 -0.1230 -0.2886  0.1962
    1DIPC   GL211284   9.382  26.330   6.811  0.0149 -0.0764  0.0264
    1DIPC   C1A11285   9.737  26.271   6.411  0.0362  0.2595 -0.1480
    1DIPC   D2A11286   9.995  26.447   6.113  0.1609 -0.3939 -0.0269
    1DIPC   D3A11287  10.145  26.307   5.818 -0.0406 -0.0452  0.1370
    1DIPC   C4A11288   9.961  26.413   5.355  0.0337  0.0053 -0.1675
    1DIPC   C1B11289   9.550  26.771   7.065 -0.1529 -0.0662 -0.2967
    1DIPC   D2B11290   9.923  27.055   7.079 -0.1283 -0.1830  0.0428
    1DIPC   D3B11291  10.253  26.685   6.906 -0.0681 -0.1389  0.3460
    1DIPC   C4B11292  10.168  26.477   6.577  0.0577  0.1763  0.6953
    1DIPC   NC311293   8.449   1.909   7.602  0.1156 -0.2030  0.0764
    1DIPC   PO411294   8.218   2.319   7.766 -0.2759  0.0944  0.0643
    1DIPC   GL111295   8.027   2.318   7.335  0.0286  0.1606 -0.1266
    1DIPC   GL211296   8.029   2.052   7.281 -0.1741 -0.1693 -0.0750
    1DIPC   C1A11297   7.899   2.567   6.935 -0.0775 -0.0597  0.2332
    1DIPC   D2A11298   8.044   2.728   6.586  0.2644  0.0523 -0.0160
    1DIPC   D3A11299   7.574   2.845   6.447 -0.1780 -0.0552 -0.0009
    1DIPC   C4A11300   7.221   2.774   6.711  0.0511 -0.3411 -0.2319
    1DIPC   C1B11301   7.727   1.793   7.245 -0.0286 -0.1848  0.3006
    1DIPC   D2B11302   7.386   1.797   7.095  0.1606  0.0885  0.1829
    1DIPC   D3B11303   7.104   1.994   6.738  0.1543 -0.0732  0.2199
    1DIPC   C4B11304   7.290   1.861   6.350 -0.0913  0.2447  0.1052
    1DIPC   NC311305  11.429   0.959   6.641  0.0301 -0.0236  0.2617
    1DIPC   PO411306  11.098   0.978   6.440 -0.1691  0.4469  0.3070
    1DIPC   GL111307  11.297   0.604   6.312  0.0894  0.2402  0.1529
    1DIPC   GL211308  11.587   0.728   6.160 -0.0894 -0.0464  0.1446
    1DIPC   C1A11309  11.188   0.355   6.124 -0.0302  0.0243  0.0454
    1DIPC   D2A11310  10.968   0.409   5.727 -0.1630  0.2482 -0.1116
    1DIPC   D3A11311  10.798   0.679   6.006  0.3400  0.0926 -0.0656
    1DIPC   C4A11312  10.455   0.857   6.375 -0.0330 -0.0614  0.3517
    1DIPC   C1B11313  11.428   0.677   5.767 -0.1855  0.2507 -0.2183
    1DIPC   D2B11314  11.309   0.620   5.320 -0.1676  0.0795  0.0976
    1DIPC   D3B11315  11.295   0.186   5.441  0.0742  0.2304  0.0736
    1DIPC   C4B11316  11.456  -0.075   5.090  0.3024 -0.1832 -0.0527
    1DIPC   NC311317  19.054  28.443   7.189 -0.1582  0.0297 -0.2425
    1DIPC   PO411318  18.682  28.723   7.394 -0.0754 -0.1932  0.0602
    1DIPC   GL111319  18.689  28.769   7.002  0.0485 -0.3532 -0.2511
    1DIPC   GL211320  18.757  28.464   6.832 -0.0147  0.1554  0.2033
    1DIPC   C1A11321  18.697  28.850   6.526  0.2773  0.1563 -0.0615
    1DIPC   D2A11322  18.633  29.110   6.121 -0.0857  0.0939 -0.1960
    1DIPC   D3A11323  18.505  29.357   6.506 -0.4018  0.1506 -0.1314
    1DIPC   C4A11324  18.276  29.164   6.822 -0.2498  0.0687 -0.2773
    1DIPC   C1B11325  18.535  28.422   6.410 -0.1489  0.0057  0.0295
    1DIPC   D2B11326  18.256  28.493   6.007 -0.2466 -0.1105 -0.2708
    1DIPC   D3B11327  18.302  28.497   5.521  0.0478  0.4100 -0.0246
    1DIPC   C4B11328  18.001  28.603   5.176 -0.0553  0.0057 -0.1021
    1DIPC   NC311329  18.435  12.388   6.182 -0.0635 -0.1867 -0.1520
    1DIPC   PO411330  18.682  12.742   6.323 -0.0252 -0.0160 -0.0276
    1DIPC   GL111331  18.785  13.028   6.137  0.2632  0.1770 -0.1719
    1DIPC   GL211332  18.534  13.215   5.971  0.0032  0.3125  0.1673
    1DIPC   C1A11333  19.176  13.294   5.937  0.3488  0.0123  0.0175
    1DIPC   D2A11334  19.382  13.652   5.945 -0.4296  0.0127 -0.0421
    1DIPC   D3A11335  19.176  13.829   5.660  0.2272  0.3416 -0.0665
    1DIPC   C4A11336  18.806  13.617   5.784 -0.2458 -0.0512  0.3068
    1DIPC   C1B11337  18.468  13.020   5.524 -0.1779  0.0039  0.1022
    1DIPC   D2B11338  18.650  12.912   5.106 -0.1796 -0.0377 -0.0916
    1DIPC   D3B11339  18.242  12.928   4.929 -0.1248 -0.0117  0.1772
    1DIPC   C4B11340  18.060  12.641   4.830  0.2622  0.0393  0.2386
    1DIPC   NC311341  14.464  18.265   6.682  0.2136 -0.1786 -0.1373
    1DIPC   PO411342  14.698  18.414   6.274 -0.3594  0.1345  0.3216
    1DIPC   GL111343  14.923  18.657   5.990 -0.1025 -0.0755  0.2646
    1DIPC   GL211344  14.740  18.880   6.026 -0.0517 -0.2026  0.0670
    1DIPC   C1A11345  15.265  18.738   5.691 -0.1594 -0.0139  0.0050
    1DIPC   D2A11346  15.555  18.513   5.563  0.1036  0.0509  0.0441
    1DIPC   D3A11347  15.468  18.771   5.246  0.0110 -0.1426 -0.1416
    1DIPC   C4A11348  15.827  19.155   5.156 -0.1663  0.1112  0.2139
    1DIPC   C1B11349  14.676  19.045   5.572  0.1753  0.4097  0.1596
    1DIPC   D2B11350  14.556  18.985   5.154 -0.0069  0.1253  0.1020
    1DIPC   D3B11351  14.326  19.385   5.126 -0.0055 -0.4345  0.1434
    1DIPC   C4B11352  14.534  19.687   5.109  0.2286  0.1693  0.2241
    1DIPC   NC311353   0.698   3.199   7.948  0.0021  0.0281 -0.1819
    1DIPC   PO411354   1.041   3.036   8.120 -0.1169 -0.4078  0.1572
    1DIPC   GL111355   1.251   3.035   7.709  0.0781 -0.0102  0.0431
    1DIPC   GL211356   1.111   3.367   7.415 -0.1099 -0.1569  0.4070
    1DIPC   C1A11357   1.246   2.769   7.340 -0.1204  0.0979  0.1179
    1DIPC   D2A11358   1.515   2.740   7.064  0.1787  0.2380 -0.0423
    1DIPC   D3A11359   1.503   3.093   6.785  0.3262  0.0497  0.5159
    1DIPC   C4A11360   1.219   3.202   6.490  0.0204  0.0615  0.0912
    1DIPC   C1B11361   1.139   3.489   6.904  0.0760  0.4345 -0.0750
    1DIPC   D2B11362   1.481   3.606   6.587 -0.0472  0.0544  0.0400
    1DIPC   D3B11363   1.464   3.383   6.114  0.1783 -0.0238 -0.0389
    1DIPC   C4B11364   1.701   3.358   5.865  0.1961  0.2795 -0.1067
    1DIPC   NC311365  28.833   9.854   7.310  0.0986  0.2917 -0.0038
    1DIPC   PO411366  28.502   9.574   7.156 -0.0957 -0.2357  0.1394
    1DIPC   GL111367  28.478   9.576   6.632 -0.0234 -0.4268 -0.0932
    1DIPC   GL211368  28.738   9.594   6.532 -0.1139 -0.0037 -0.0750
    1DIPC   C1A11369  28.215   9.407   6.370 -0.2223  0.1598  0.2177
    1DIPC   D2A11370  28.399   9.147   5.955  0.1112 -0.0150  0.3900
    1DIPC   D3A11371  28.881   9.144   6.001  0.0876 -0.0254 -0.1025
    1DIPC   C4A11372  29.186   9.066   5.660 -0.3137  0.0942 -0.0631
    1DIPC   C1B11373  29.103   9.259   6.436  0.3134 -0.0350  0.0998
    1DIPC   D2B11374  29.313   8.989   6.137  0.2317  0.0968  0.0547
    1DIPC   D3B11375  29.751   8.928   6.171  0.0273 -0.0022 -0.1267
    1DIPC   C4B11376  30.193   8.830   6.119  0.2651  0.0042  0.3658
    1DIPC   NC311377  12.925  23.181   7.390 -0.2742 -0.1371  0.0947
    1DIPC   PO411378  13.146  22.992   7.046 -0.0379 -0.0885  0.1210
    1DIPC   GL111379  13.066  22.840   6.679  0.1633  0.0050  0.0038
    1DIPC   GL211380  13.378  22.954   6.432 -0.0080 -0.2320 -0.1526
    1DIPC   C1A11381  12.913  22.522   6.321 -0.0328  0.3330 -0.1499
    1DIPC   D2A11382  13.080  22.190   6.069 -0.0476 -0.1121 -0.1754
    1DIPC   D3A11383  12.777  22.444   5.783 -0.1326  0.2842  0.1394
    1DIPC   C4A11384  12.604  22.872   5.969  0.1631 -0.0908 -0.1272
    1DIPC   C1B11385  13.073  23.107   6.214 -0.0998  0.1084  0.0154
    1DIPC   D2B11386  12.800  23.263   5.769 -0.0713  0.1727 -0.1812
    1DIPC   D3B11387  13.195  23.496   5.833  0.0932 -0.0002 -0.4844
    1DIPC   C4B11388  13.408  23.891   5.648 -0.2564 -0.2312 -0.0801
    1DIPC   NC311389   5.553  20.996   7.987  0.1016 -0.2171  0.4911
    1DIPC   PO411390   5.412  20.764   7.576 -0.0780  0.0540  0.1268
    1DIPC   GL111391   5.588  20.848   7.044  0.0922 -0.4548 -0.1198
    1DIPC   GL211392   5.911  21.072   7.025  0.0452 -0.1635 -0.0083
    1DIPC   C1A11393   5.668  20.642   6.694  0.0248  0.1822  0.0718
    1DIPC   D2A11394   5.627  20.693   6.338 -0.2383 -0.2343 -0.1887
    1DIPC   D3A11395   5.367  20.329   6.208  0.0975  0.3285 -0.0085
    1DIPC   C4A11396   5.199  20.195   5.791 -0.2293 -0.2952  0.3500
    1DIPC   C1B11397   5.772  21.140   6.585  0.0359  0.0333  0.1056
    1DIPC   D2B11398   5.456  21.175   6.265 -0.0420  0.4734 -0.0429
    1DIPC   D3B11399   5.527  20.946   5.856 -0.1954  0.1387 -0.3942
    1DIPC   C4B11400   5.533  20.567   5.709  0.0456 -0.2036  0.2398
    1DIPC   NC311401  11.482  28.238   7.281 -0.0292  0.1921  0.1620
    1DIPC   PO411402  11.061  28.059   7.222 -0.2110  0.1313 -0.1110
    1DIPC   GL111403  11.177  28.120   6.819  0.3418 -0.2988 -0.0133
    1DIPC   GL211404  11.031  28.427   6.746  0.2650 -0.3839  0.0159
    1DIPC   C1A11405  11.403  28.287   6.539  0.0124  0.1792  0.3540
    1DIPC   D2A11406  11.211  28.169   6.127 -0.1921 -0.0103 -0.0040
    1DIPC   D3A11407  11.040  27.826   5.805  0.1997 -0.2256  0.2626
    1DIPC   C4A11408  10.977  27.779   5.400  0.3946 -0.0734 -0.0903
    1DIPC   C1B11409  10.826  28.454   6.373 -0.0967  0.3933  0.2977
    1DIPC   D2B11410  10.567  28.166   6.205  0.0649  0.0177 -0.1108
    1DIPC   D3B11411  10.752  28.312   5.772 -0.0020  0.1192  0.2870
    1DIPC   C4B11412  10.887  28.239   5.255 -0.1470  0.0279 -0.1720
    1DIPC   NC311413  25.739  18.466   7.678  0.2041 -0.1821  0.0012
    1DIPC   PO411414  25.636  18.196   7.287  0.0287  0.1704 -0.2744
    1DIPC   GL111415  25.630  18.353   6.874  0.0103 -0.2139 -0.2045
    1DIPC   GL211416  25.594  18.697   6.735  0.2612  0.1320 -0.0507
    1DIPC   C1A11417  25.983  18.523   6.506  0.1070  0.0008 -0.1447
    1DIPC   D2A11418  26.235  18.713   6.248  0.0891 -0.1658 -0.0829
    1DIPC   D3A11419  26.034  18.816   5.930  0.3366 -0.1841 -0.1194
    1DIPC   C4A11420  25.985  18.498   5.604 -0.3041  0.0836  0.0182
    1DIPC   C1B11421  25.752  18.965   6.458  0.1730 -0.2430  0.2696
    1DIPC   D2B11422  25.869  19.217   6.212 -0.1827  0.0198  0.0896
    1DIPC   D3B11423  25.915  19.294   5.826  0.1995 -0.0023 -0.2761
    1DIPC   C4B11424  25.958  19.003   5.443  0.0164 -0.3118 -0.0975
    1DIPC   NC311425  23.507  16.009   6.877  0.0566  0.0137 -0.4061
    1DIPC   PO411426  23.341  16.244   6.613 -0.3420  0.0898  0.3370
    1DIPC   GL111427  23.405  16.394   6.226  0.0568  0.2466  0.2332
    1DIPC   GL211428  23.063  16.333   6.146  0.2407 -0.3235 -0.0516
    1DIPC   C1A11429  23.339  16.538   5.829 -0.1944 -0.3305 -0.2653
    1DIPC   D2A11430  23.265  16.447   5.366  0.2412 -0.0740 -0.0259
    1DIPC   D3A11431  23.590  16.220   5.275 -0.0995 -0.2780 -0.0144
    1DIPC   C4A11432  23.923  16.047   5.512 -0.2516  0.1775 -0.1927
    1DIPC   C1B11433  22.803  16.282   5.719 -0.0661  0.0184 -0.3309
    1DIPC   D2B11434  22.496  16.415   5.487  0.0906  0.1986  0.1050
    1DIPC   D3B11435  22.749  16.479   5.179 -0.3371  0.1235  0.0835
    1DIPC   C4B11436  22.914  16.269   4.776  0.0445  0.2105 -0.0251
    1DIPC   NC311437   8.877  17.318   6.136  0.0185 -0.1461  0.2089
    1DIPC   PO411438   8.496  17.073   6.041  0.2924 -0.0686  0.3168
    1DIPC   GL111439   8.391  17.026   5.623  0.1069  0.1953  0.1626
    1DIPC   GL211440   8.155  17.136   5.610 -0.1965 -0.1763  0.1399
    1DIPC   C1A11441   8.219  16.900   5.187  0.1417  0.0631 -0.2876
    1DIPC   D2A11442   8.101  16.834   4.819 -0.3419 -0.0039 -0.1895
    1DIPC   D3A11443   7.650  16.695   4.784  0.0579 -0.1502 -0.3483
    1DIPC   C4A11444   7.504  16.652   4.398 -0.3465 -0.2226  0.2135
    1DIPC   C1B11445   8.447  17.331   5.223 -0.1486 -0.1376  0.4161
    1DIPC   D2B11446   8.355  17.314   4.860 -0.0211  0.0468 -0.1946
    1DIPC   D3B11447   7.951  17.361   5.014  0.1506  0.1203 -0.1046
    1DIPC   C4B11448   7.611  17.106   5.017 -0.0935 -0.0465  0.3795
    1DIPC   NC311449  25.035  12.625   7.107  0.2146 -0.0052  0.0082
    1DIPC   PO411450  25.286  12.730   6.797  0.2953 -0.2681  0.2222
    1DIPC   GL111451  25.468  12.915   6.388  0.2136 -0.0235  0.1027
    1DIPC   GL211452  25.793  12.872   6.316 -0.0922 -0.0380  0.1465
    1DIPC   C1A11453  25.481  12.706   5.952 -0.0287  0.1317  0.2809
    1DIPC   D2A11454  25.492  12.719   5.515  0.0260 -0.0443 -0.1799
    1DIPC   D3A11455  25.269  12.318   5.639 -0.1426 -0.1839 -0.0557
    1DIPC   C4A11456  25.397  12.214   5.987 -0.3259 -0.0468 -0.1103
    1DIPC   C1B11457  25.814  13.118   5.909  0.0582 -0.1240 -0.0746
    1DIPC   D2B11458  25.803  13.216   5.649  0.0496 -0.1634  0.2568
    1DIPC   D3B11459  26.003  13.180   5.321 -0.3209 -0.1223 -0.0617
    1DIPC   C4B11460  26.288  13.068   5.129  0.3161  0.0648 -0.1099
    1DIPC   NC311461  13.169  19.405   6.687 -0.0778 -0.0124 -0.0810
    1DIPC   PO411462  13.006  19.852   6.656  0.0575  0.0954 -0.0374
    1DIPC   GL111463  12.980  19.693   6.226 -0.2798  0.2923 -0.1447
    1DIPC   GL211464  12.925  19.321   6.231 -0.1651 -0.0336 -0.0259
    1DIPC   C1A11465  12.908  19.870   5.767  0.3014 -0.2022 -0.0172
    1DIPC   D2A11466  12.826  19.778   5.360 -0.0842 -0.0171 -0.1054
    1DIPC   D3A11467  13.312  19.941   5.416  0.2781 -0.0097  0.1785
    1DIPC   C4A11468  13.589  19.980   5.045  0.4912 -0.1432  0.1708
    1DIPC   C1B11469  13.130  19.398   5.760  0.2052  0.0712 -0.0834
    1DIPC   D2B11470  13.211  19.461   5.363  0.1678  0.4562 -0.1990
    1DIPC   D3B11471  12.846  19.256   5.281 -0.0433  0.1652 -0.7218
    1DIPC   C4B11472  12.638  18.825   5.459 -0.0104  0.4112 -0.0362
    1DIPC   NC311473   3.807  28.131   7.793 -0.0158  0.1749  0.1634
    1DIPC   PO411474   3.660  28.427   7.426 -0.0501  0.0630 -0.0463
    1DIPC   GL111475   3.515  28.345   7.037  0.2128  0.3803  0.3466
    1DIPC   GL211476   3.304  28.148   6.940 -0.1168  0.0398  0.0672
    1DIPC   C1A11477   3.540  28.597   6.622 -0.1420  0.0627 -0.1221
    1DIPC   D2A11478   3.474  28.518   6.161  0.0717 -0.1694  0.5257
    1DIPC   D3A11479   3.725  28.129   6.243 -0.2279  0.0089 -0.1990
    1DIPC   C4A11480   3.661  28.061   6.646 -0.1551  0.1095 -0.0041
    1DIPC   C1B11481   3.244  28.115   6.465 -0.1202  0.1322  0.3043
    1DIPC   D2B11482   3.283  27.778   6.125 -0.1814  0.2630  0.1595
    1DIPC   D3B11483   3.539  27.727   5.790  0.3149  0.2791  0.0496
    1DIPC   C4B11484   3.884  27.416   5.878  0.4114 -0.2645  0.0444
    1DIPC   NC311485   6.133  25.681   7.464 -0.3184 -0.0241  0.0216
    1DIPC   PO411486   5.680  25.546   7.681  0.0441 -0.0285  0.0525
    1DIPC   GL111487   5.550  25.726   7.355 -0.1817 -0.0572  0.1149
    1DIPC   GL211488   5.765  25.976   7.280  0.0307 -0.2979  0.1332
    1DIPC   C1A11489   5.379  25.932   6.951  0.1818 -0.0429 -0.0560
    1DIPC   D2A11490   5.129  26.375   6.909 -0.0031  0.1470  0.0284
    1DIPC   D3A11491   5.253  26.728   7.195  0.0570 -0.0767  0.0283
    1DIPC   C4A11492   5.695  26.642   7.312 -0.0098 -0.2761  0.0922
    1DIPC   C1B11493   5.756  26.292   6.963 -0.1709  0.0824 -0.2245
    1DIPC   D2B11494   5.526  26.618   6.746 -0.2613 -0.1037  0.2483
    1DIPC   D3B11495   5.225  26.763   6.354 -0.3021  0.1874 -0.0269
    1DIPC   C4B11496   5.371  27.084   6.024  0.0273 -0.1496  0.0674
    1DIPC   NC311497   4.238  27.513   7.952 -0.1216 -0.4073 -0.1231
    1DIPC   PO411498   4.365  28.006   7.944 -0.2280 -0.1792  0.1313
    1DIPC   GL111499   4.586  28.112   7.581  0.2879 -0.0179 -0.3964
    1DIPC   GL211500   4.613  28.429   7.420  0.0571 -0.2729 -0.1080
    1DIPC   C1A11501   4.506  28.063   7.063 -0.0718 -0.0746  0.4181
    1DIPC   D2A11502   4.786  28.081   6.689 -0.0185  0.1417 -0.1376
    1DIPC   D3A11503   4.548  28.523   6.880  0.1020 -0.0307 -0.3150
    1DIPC   C4A11504   4.721  28.874   7.081  0.2740  0.1389  0.1926
    1DIPC   C1B11505   4.243  28.691   7.216 -0.0325  0.1798  0.1034
    1DIPC   D2B11506   3.865  28.669   7.040 -0.0751  0.1485  0.1803
    1DIPC   D3B11507   4.122  28.503   6.674 -0.0317 -0.0392 -0.0372
    1DIPC   C4B11508   4.194  28.133   6.712  0.0114  0.0710 -0.1385
    1DIPC   NC311509   4.268  15.098   6.832 -0.1472  0.1774  0.0267
    1DIPC   PO411510   3.949  15.415   6.973 -0.3649 -0.2080 -0.2265
    1DIPC   GL111511   3.802  15.108   6.616 -0.0703  0.0582  0.1800
    1DIPC   GL211512   3.885  14.797   6.682  0.2850  0.1205 -0.0191
    1DIPC   C1A11513   3.833  15.064   6.150 -0.2897 -0.1977 -0.2794
    1DIPC   D2A11514   3.527  15.204   5.865  0.1997  0.5482  0.1185
    1DIPC   D3A11515   3.185  14.890   5.803 -0.2022  0.3512 -0.0829
    1DIPC   C4A11516   3.228  14.484   5.697 -0.0021  0.2694 -0.1139
    1DIPC   C1B11517   3.929  14.591   6.262  0.1454  0.2384 -0.2401
    1DIPC   D2B11518   3.645  14.382   6.025 -0.2683 -0.4290  0.2202
    1DIPC   D3B11519   3.767  14.631   5.710 -0.1512 -0.2802  0.2656
    1DIPC   C4B11520   3.596  14.561   5.319 -0.3031  0.0749  0.2498
    1DIPC   NC311521  26.081  10.758   7.342  0.0592  0.0399 -0.0872
    1DIPC   PO411522  26.075  10.576   6.948 -0.0680  0.1858 -0.1648
    1DIPC   GL111523  25.883  10.646   6.558 -0.3907  0.2965 -0.4370
    1DIPC   GL211524  26.127  10.466   6.490  0.1254 -0.4616  0.0212
    1DIPC   C1A11525  25.889  10.747   6.153 -0.0626 -0.2564 -0.0753
    1DIPC   D2A11526  25.974  10.818   5.788  0.3260 -0.1763  0.2491
    1DIPC   D3A11527  26.177  11.187   5.862  0.0697  0.1489  0.1559
    1DIPC   C4A11528  26.091  11.551   5.924  0.1291  0.3814  0.2320
    1DIPC   C1B11529  26.310  10.175   6.387  0.1356  0.2818  0.2010
    1DIPC   D2B11530  26.442   9.712   6.322  0.2236  0.0726  0.0049
    1DIPC   D3B11531  26.218   9.821   5.972 -0.1854 -0.0158  0.1230
    1DIPC   C4B11532  26.117  10.326   5.866 -0.1402 -0.0484 -0.0254
    1DIPC   NC311533  28.002   3.633   8.546  0.0198  0.0071 -0.2710
    1DIPC   PO411534  27.664   3.625   8.261 -0.4087 -0.1670  0.2226
    1DIPC   GL111535  27.839   3.652   7.849 -0.0065 -0.2604 -0.0976
    1DIPC   GL211536  28.131   3.595   7.682 -0.0881 -0.1597 -0.0903
    1DIPC   C1A11537  27.651   3.769   7.345 -0.3764  0.1471 -0.0147
    1DIPC   D2A11538  27.439   3.513   7.146  0.0960  0.0392  0.3010
    1DIPC   D3A11539  27.432   3.215   6.915  0.0062 -0.0008 -0.2116
    1DIPC   C4A11540  27.588   3.293   6.462 -0.0808 -0.1755 -0.0850
    1DIPC   C1B11541  28.041   4.067   7.649  0.2235  0.0431  0.2408
    1DIPC   D2B11542  27.650   4.277   7.421 -0.0302  0.2392 -0.0639
    1DIPC   D3B11543  27.534   4.724   7.344 -0.2035  0.0193 -0.0386
    1DIPC   C4B11544  27.687   4.877   6.867  0.0939 -0.1313 -0.2370
    1DIPC   NC311545  11.358   4.970   6.446  0.0271  0.1539  0.3333
    1DIPC   PO411546  11.758   4.698   6.449 -0.1629 -0.3288  0.0349
    1DIPC   GL111547  11.583   4.551   6.052  0.0528 -0.1011  0.2506
    1DIPC   GL211548  11.607   4.828   5.880 -0.1504 -0.1132 -0.1159
    1DIPC   C1A11549  11.707   4.483   5.599 -0.2513 -0.0524 -0.0444
    1DIPC   D2A11550  11.742   4.320   5.221  0.1841 -0.1372 -0.0113
    1DIPC   D3A11551  11.519   4.084   4.889 -0.1375  0.2262  0.2384
    1DIPC   C4A11552  11.142   3.823   4.730 -0.0606 -0.1634 -0.2044
    1DIPC   C1B11553  11.233   4.711   5.630 -0.0596 -0.0294 -0.2729
    1DIPC   D2B11554  10.885   4.811   5.582 -0.0664  0.1250 -0.1365
    1DIPC   D3B11555  10.994   4.820   5.233 -0.2053  0.1394  0.0312
    1DIPC   C4B11556  10.896   4.988   4.812  0.2748  0.3339 -0.2105
    1DIPC   NC311557   1.921  22.369   7.286  0.0953 -0.0350  0.2183
    1DIPC   PO411558   1.745  22.619   7.684 -0.2129  0.0784  0.0709
    1DIPC   GL111559   1.624  22.787   7.285  0.1958 -0.1629  0.0696
    1DIPC   GL211560   1.269  22.862   7.247  0.0541 -0.2231  0.0531
    1DIPC   C1A11561   1.630  23.200   7.081  0.0832  0.0137  0.0404
    1DIPC   D2A11562   1.590  23.320   6.774 -0.4996  0.0400  0.3771
    1DIPC   D3A11563   1.186  23.516   6.721  0.2269 -0.1293 -0.1807
    1DIPC   C4A11564   1.183  23.872   6.394  0.0226 -0.1236 -0.2688
    1DIPC   C1B11565   1.369  22.540   6.961 -0.0067 -0.3542 -0.0153
    1DIPC   D2B11566   1.691  22.386   6.807 -0.3201 -0.1950  0.0347
    1DIPC   D3B11567   1.866  21.993   6.875 -0.3287 -0.4034 -0.0250
    1DIPC   C4B11568   1.656  21.685   6.576  0.2922 -0.3262 -0.2387
    1DIPC   NC311569  24.108  11.388   6.977  0.1371 -0.1593 -0.1715
    1DIPC   PO411570  23.623  11.339   6.773 -0.2045 -0.0563  0.4359
    1DIPC   GL111571  23.599  11.074   6.429  0.0248 -0.0715  0.2251
    1DIPC   GL211572  23.803  10.808   6.301 -0.0307 -0.5939 -0.1908
    1DIPC   C1A11573  23.360  11.048   6.007 -0.0587  0.0831 -0.2409
    1DIPC   D2A11574  23.416  11.147   5.602  0.0287 -0.1109  0.0416
    1DIPC   D3A11575  22.964  11.045   5.670 -0.2792 -0.0313 -0.3209
    1DIPC   C4A11576  22.679  11.021   5.399  0.1109 -0.1884 -0.0953
    1DIPC   C1B11577  23.825  10.772   5.814 -0.0485  0.0761 -0.3687
    1DIPC   D2B11578  23.857  10.470   5.492  0.3321 -0.1579 -0.1154
    1DIPC   D3B11579  23.610  10.741   5.131  0.1480 -0.2721 -0.0078
    1DIPC   C4B11580  23.914  10.883   4.820  0.1556 -0.2945 -0.0912
    1DIPC   NC311581   6.292  24.231   7.725 -0.2284  0.2143 -0.0154
    1DIPC   PO411582   6.282  24.202   7.229  0.1818 -0.0372 -0.2453
    1DIPC   GL111583   6.396  23.948   6.896 -0.0996  0.0222  0.1194
    1DIPC   GL211584   6.728  23.920   6.750  0.0187  0.0128 -0.0187
    1DIPC   C1A11585   6.265  23.977   6.477  0.2843 -0.2675  0.0688
    1DIPC   D2A11586   6.126  24.270   6.125 -0.0771 -0.3449 -0.1313
    1DIPC   D3A11587   6.342  23.972   5.923  0.1903  0.3222  0.0401
    1DIPC   C4A11588   6.127  23.684   5.602  0.3516  0.1247 -0.0973
    1DIPC   C1B11589   6.839  23.977   6.238 -0.4505 -0.1123 -0.1377
    1DIPC   D2B11590   6.821  24.215   5.845 -0.1004 -0.1579 -0.2598
    1DIPC   D3B11591   6.849  23.864   5.578  0.1229  0.0780 -0.0869
    1DIPC   C4B11592   7.171  24.031   5.290 -0.6370 -0.2802 -0.2593
    1DIPC   NC311593  23.750  21.603   6.785  0.2188  0.3140 -0.0132
    1DIPC   PO411594  23.273  21.694   6.861 -0.2038 -0.0251 -0.1593
    1DIPC   GL111595  23.366  21.707   6.408  0.1440 -0.2652 -0.1187
    1DIPC   GL211596  23.051  21.558   6.436  0.2449 -0.0101  0.0481
    1DIPC   C1A11597  23.467  21.756   5.978 -0.1521  0.1307 -0.2932
    1DIPC   D2A11598  23.626  21.886   5.623 -0.2663 -0.0688  0.0762
    1DIPC   D3A11599  23.504  21.983   5.214  0.0091  0.0328 -0.2440
    1DIPC   C4A11600  23.247  22.327   5.244 -0.3499 -0.0401 -0.0192
    1DIPC   C1B11601  22.623  21.436   6.325 -0.2057 -0.0763 -0.1163
    1DIPC   D2B11602  22.258  21.096   6.305  0.2315  0.2940  0.0196
    1DIPC   D3B11603  22.271  20.936   5.915  0.2322  0.1475 -0.1238
    1DIPC   C4B11604  21.956  20.669   5.711  0.2204 -0.2163  0.0280
    1DIPC   NC311605  10.626   4.438   6.403  0.0359  0.1172 -0.1870
    1DIPC   PO411606  10.906   3.968   6.428  0.2209  0.0695 -0.0342
    1DIPC   GL111607  10.766   4.065   5.907 -0.1378 -0.4778 -0.1890
    1DIPC   GL211608  10.512   4.117   5.744 -0.0215  0.0902  0.1589
    1DIPC   C1A11609  10.967   4.265   5.570 -0.0580 -0.2370  0.0355
    1DIPC   D2A11610  11.255   4.418   5.243  0.1506  0.3576 -0.2370
    1DIPC   D3A11611  11.194   4.544   4.840 -0.2321 -0.2044  0.0793
    1DIPC   C4A11612  11.270   4.301   4.418 -0.3449 -0.1454  0.1973
    1DIPC   C1B11613  10.476   4.415   5.389  0.0911  0.1693  0.3499
    1DIPC   D2B11614  10.617   4.589   4.958  0.0077  0.1056  0.0912
    1DIPC   D3B11615  10.402   5.078   4.731 -0.0176  0.1511 -0.2454
    1DIPC   C4B11616  10.649   5.320   4.519  0.1729 -0.0110  0.0027
    1DIPC   NC311617   6.663   8.878   6.896 -0.2663  0.0260  0.1760
    1DIPC   PO411618   7.013   8.574   6.766 -0.0492  0.0515 -0.0853
    1DIPC   GL111619   6.727   8.474   6.489 -0.1509  0.2479 -0.0821
    1DIPC   GL211620   6.485   8.412   6.679  0.2583  0.0013 -0.0612
    1DIPC   C1A11621   6.704   8.677   6.096  0.1135  0.1532 -0.1601
    1DIPC   D2A11622   6.649   8.695   5.716 -0.2438  0.1939 -0.0490
    1DIPC   D3A11623   6.325   8.627   5.402 -0.1157 -0.0204  0.1259
    1DIPC   C4A11624   6.066   8.260   5.083 -0.1530  0.0570  0.1147
    1DIPC   C1B11625   6.400   8.231   6.184  0.3097  0.1488  0.0417
    1DIPC   D2B11626   6.133   7.946   6.001  0.1209 -0.1455  0.1230
    1DIPC   D3B11627   5.721   7.785   5.927 -0.3256 -0.3060 -0.0916
    1DIPC   C4B11628   5.631   7.676   5.610 -0.3674 -0.0676  0.1206
    1DIPC   NC311629   6.266  15.434   7.216 -0.0321  0.1870  0.1917
    1DIPC   PO411630   6.334  15.701   6.906 -0.1500 -0.1671  0.0711
    1DIPC   GL111631   6.122  15.982   6.564 -0.1536 -0.1434  0.2127
    1DIPC   GL211632   6.096  16.359   6.565 -0.2224  0.1370  0.0767
    1DIPC   C1A11633   5.897  16.066   6.172  0.0178 -0.0132 -0.1858
    1DIPC   D2A11634   5.572  15.943   6.144 -0.0245 -0.0501 -0.0691
    1DIPC   D3A11635   5.263  16.361   6.201 -0.0715 -0.2428  0.1919
    1DIPC   C4A11636   5.133  16.744   6.214 -0.2360 -0.1265 -0.0183
    1DIPC   C1B11637   6.006  16.528   6.247 -0.0126 -0.1370  0.0178
    1DIPC   D2B11638   5.876  16.949   6.089 -0.0383  0.1367 -0.0174
    1DIPC   D3B11639   5.603  16.611   5.950  0.1668 -0.0580  0.0867
    1DIPC   C4B11640   5.652  16.297   5.552 -0.1303  0.1307  0.0710
    1DIPC   NC311641  27.113  16.456   7.841 -0.0741  0.3017 -0.2263
    1DIPC   PO411642  27.463  16.348   7.610 -0.0540 -0.3397 -0.0949
    1DIPC   GL111643  27.611  16.283   7.278  0.4795 -0.2379  0.0738
    1DIPC   GL211644  27.436  16.346   7.048  0.0453 -0.0264 -0.2110
    1DIPC   C1A11645  27.826  16.095   6.883 -0.1306 -0.2996 -0.2874
    1DIPC   D2A11646  27.977  16.150   6.558  0.1623 -0.0036 -0.0623
    1DIPC   D3A11647  27.605  16.353   6.437  0.3053  0.0963 -0.2755
    1DIPC   C4A11648  27.574  16.490   6.003 -0.1934 -0.1052  0.2212
    1DIPC   C1B11649  27.188  16.389   6.806 -0.0159 -0.0280  0.2894
    1DIPC   D2B11650  26.759  16.505   6.722  0.1045 -0.2657 -0.3135
    1DIPC   D3B11651  26.732  16.455   6.327  0.3012  0.0072  0.4584
    1DIPC   C4B11652  26.466  16.376   6.106  0.1021  0.2181 -0.0001
    1DIPC   NC311653  26.652  24.451   8.234  0.1834  0.0969 -0.2526
    1DIPC   PO411654  26.995  24.652   7.884 -0.0935  0.0861 -0.0723
    1DIPC   GL111655  27.068  24.807   7.508  0.1874 -0.2295  0.1970
    1DIPC   GL211656  27.372  24.761   7.297  0.0391  0.0468 -0.1126
    1DIPC   C1A11657  26.935  24.991   7.097 -0.0061 -0.2262  0.0402
    1DIPC   D2A11658  26.750  25.147   6.690 -0.1747 -0.0955 -0.0861
    1DIPC   D3A11659  26.757  24.820   6.352  0.0711  0.1408 -0.0242
    1DIPC   C4A11660  27.098  25.014   6.111 -0.1344 -0.1621 -0.0495
    1DIPC   C1B11661  27.383  24.408   7.089  0.3594  0.0120 -0.1136
    1DIPC   D2B11662  27.422  24.353   6.696  0.2495 -0.2378 -0.3101
    1DIPC   D3B11663  27.020  24.538   6.730  0.2860 -0.2178  0.1981
    1DIPC   C4B11664  26.856  24.495   7.142  0.0731 -0.3441 -0.2405
    1DIPC   NC311665   5.017   8.777   6.834  0.2450 -0.0434  0.3058
    1DIPC   PO411666   4.952   9.232   7.036  0.0444 -0.2443 -0.1895
    1DIPC   GL111667   4.957   9.186   6.525  0.0404 -0.0863 -0.0117
    1DIPC   GL211668   4.871   8.861   6.377 -0.1287 -0.7213  0.1214
    1DIPC   C1A11669   4.990   9.323   6.174  0.3851 -0.2231 -0.2986
    1DIPC   D2A11670   5.030   9.627   5.868 -0.0809 -0.1522 -0.2771
    1DIPC   D3A11671   4.689   9.644   5.616  0.0197  0.0521 -0.1964
    1DIPC   C4A11672   4.471   9.388   5.219 -0.1587 -0.4670 -0.0060
    1DIPC   C1B11673   4.818   8.531   6.153 -0.0046  0.1340  0.0416
    1DIPC   D2B11674   4.922   8.145   5.890 -0.4343 -0.1920 -0.3628
    1DIPC   D3B11675   4.733   8.455   5.677 -0.2068  0.1935 -0.1907
    1DIPC   C4B11676   4.844   8.668   5.313 -0.0729 -0.3896 -0.2633
    1DIPC   NC311677  18.846  15.649   6.378 -0.1146 -0.2428  0.2440
    1DIPC   PO411678  18.688  16.052   6.432  0.2625  0.0040  0.2144
    1DIPC   GL111679  18.794  16.138   6.023  0.1816 -0.3713  0.0681
    1DIPC   GL211680  18.510  16.134   5.785 -0.2334  0.0145 -0.1615
    1DIPC   C1A11681  19.030  16.002   5.639 -0.1190  0.0084  0.5292
    1DIPC   D2A11682  19.264  16.231   5.392  0.1893  0.2062  0.1165
    1DIPC   D3A11683  19.581  16.430   5.719 -0.0526 -0.1199  0.0193
    1DIPC   C4A11684  19.972  16.353   5.569  0.2229 -0.0614 -0.1165
    1DIPC   C1B11685  18.635  15.712   5.424  0.1573 -0.0090  0.0247
    1DIPC   D2B11686  18.754  15.404   5.118 -0.1907  0.0274 -0.1549
    1DIPC   D3B11687  18.373  15.331   4.783 -0.0539 -0.0708  0.0322
    1DIPC   C4B11688  18.343  15.602   4.336  0.3156 -0.2022 -0.1088
    1DIPC   NC311689  14.723   7.783   5.836  0.2964  0.3058 -0.2425
    1DIPC   PO411690  14.549   7.923   5.374 -0.4145 -0.0111 -0.1907
    1DIPC   GL111691  14.772   7.902   5.151 -0.1309  0.1292  0.0144
    1DIPC   GL211692  15.212   7.926   5.217  0.1961 -0.3506 -0.1367
    1DIPC   C1A11693  14.919   7.863   4.760  0.0191 -0.0070  0.3719
    1DIPC   D2A11694  14.947   7.989   4.395  0.0241  0.1220 -0.0509
    1DIPC   D3A11695  15.235   8.167   4.481  0.3491 -0.0349 -0.1545
    1DIPC   C4A11696  15.540   8.316   4.260  0.0260 -0.0513  0.4029
    1DIPC   C1B11697  15.528   7.938   4.923 -0.0372  0.0024  0.0399
    1DIPC   D2B11698  15.836   7.965   4.581  0.0831  0.2110  0.1293
    1DIPC   D3B11699  15.927   8.274   4.892 -0.0452 -0.1677  0.2097
    1DIPC   C4B11700  15.581   8.475   4.755  0.0093  0.1780  0.0138
    1DIPC   NC311701  21.748  19.877   6.318  0.2317  0.1667  0.3536
    1DIPC   PO411702  21.318  20.063   6.234 -0.1542  0.0538 -0.1860
    1DIPC   GL111703  21.423  19.875   5.806 -0.0475 -0.0856 -0.1568
    1DIPC   GL211704  21.737  19.934   5.754 -0.0104 -0.2662  0.1012
    1DIPC   C1A11705  21.486  19.635   5.439 -0.0223  0.1698  0.1890
    1DIPC   D2A11706  21.147  19.442   5.195 -0.0612 -0.0625 -0.0047
    1DIPC   D3A11707  21.080  19.638   4.815  0.0031  0.1382  0.2555
    1DIPC   C4A11708  21.272  19.815   4.520 -0.1092  0.2955  0.2144
    1DIPC   C1B11709  21.721  20.282   5.429 -0.0515  0.0993 -0.1834
    1DIPC   D2B11710  21.679  20.586   5.174  0.2317  0.0206  0.1003
    1DIPC   D3B11711  21.304  20.833   4.995  0.0244  0.1145  0.1243
    1DIPC   C4B11712  21.275  20.915   4.474  0.2311 -0.0770 -0.1227
    1DIPC   NC311713  17.422  28.625   6.750  0.0473  0.1469 -0.1067
    1DIPC   PO411714  17.519  29.018   6.474 -0.1914 -0.1068 -0.2282
    1DIPC   GL111715  17.246  28.786   6.160  0.2020  0.1419  0.2228
    1DIPC   GL211716  17.103  29.050   6.039  0.1214  0.1693  0.0707
    1DIPC   C1A11717  17.384  28.461   5.953  0.1041 -0.3220  0.1084
    1DIPC   D2A11718  17.499  28.076   5.940 -0.2140  0.0792  0.0262
    1DIPC   D3A11719  17.679  27.794   5.602  0.2038  0.3198 -0.1178
    1DIPC   C4A11720  17.922  28.131   5.272 -0.0573  0.0188  0.1988
    1DIPC   C1B11721  17.325  29.129   5.668 -0.0358  0.0101  0.0235
    1DIPC   D2B11722  17.234  29.012   5.181 -0.3352  0.0650 -0.0562
    1DIPC   D3B11723  16.967  29.382   5.070  0.0248  0.1531  0.2468
    1DIPC   C4B11724  16.766  29.564   5.353 -0.0353 -0.0649  0.0753
    1DIPC   NC311725  18.060  10.303   6.693  0.2600  0.0578  0.1110
    1DIPC   PO411726  18.104  10.404   6.208 -0.1092  0.0288 -0.0168
    1DIPC   GL111727  18.207  10.625   5.858 -0.1846  0.0698  0.3392
    1DIPC   GL211728  18.257  10.982   5.842  0.0526 -0.0504 -0.3078
    1DIPC   C1A11729  18.358  10.821   5.356  0.0961  0.0182  0.0580
    1DIPC   D2A11730  18.415  10.639   4.960 -0.0681 -0.1840  0.0638
    1DIPC   D3A11731  18.187  10.868   4.692  0.0165 -0.3253 -0.0186
    1DIPC   C4A11732  18.427  11.270   4.460  0.2310 -0.0224 -0.1755
    1DIPC   C1B11733  18.490  11.286   5.585  0.0041 -0.3532  0.0079
    1DIPC   D2B11734  18.337  11.687   5.377 -0.0934 -0.2199  0.0755
    1DIPC   D3B11735  18.627  11.979   5.203  0.1226 -0.0918 -0.1993
    1DIPC   C4B11736  18.584  12.011   4.830  0.1675  0.1071  0.2721
    1DIPC   NC311737  20.068   2.803   7.320 -0.3743  0.2021 -0.0225
    1DIPC   PO411738  20.365   2.634   6.910  0.0877  0.1071  0.2195
    1DIPC   GL111739  20.127   2.643   6.466  0.4515 -0.1775  0.0346
    1DIPC   GL211740  20.385   2.778   6.217 -0.0267 -0.0758 -0.1191
    1DIPC   C1A11741  19.811   2.428   6.267 -0.0474 -0.4931 -0.2568
    1DIPC   D2A11742  19.488   2.068   6.185  0.4144  0.0764 -0.0504
    1DIPC   D3A11743  19.734   1.836   5.874  0.0287  0.1107 -0.0877
    1DIPC   C4A11744  19.589   1.861   5.407  0.0512  0.1834  0.0009
    1DIPC   C1B11745  20.408   2.439   5.893 -0.2622 -0.3629 -0.0763
    1DIPC   D2B11746  20.628   2.145   5.537 -0.1246 -0.2626 -0.0459
    1DIPC   D3B11747  20.430   1.983   5.331  0.3071  0.1770  0.0628
    1DIPC   C4B11748  20.019   1.889   5.193  0.0498  0.5855 -0.2008
    1DIPC   NC311749  17.594   1.096   6.919  0.1598  0.1984 -0.0426
    1DIPC   PO411750  17.386   1.348   6.533 -0.0055  0.3383 -0.5195
    1DIPC   GL111751  17.676   1.464   6.336 -0.0534  0.0306 -0.0118
    1DIPC   GL211752  17.781   1.761   6.360 -0.2331  0.0879 -0.0599
    1DIPC   C1A11753  17.918   1.369   5.976  0.1320  0.0403  0.2414
    1DIPC   D2A11754  17.975   1.308   5.534  0.2926  0.0025  0.0743
    1DIPC   D3A11755  17.884   0.927   5.619  0.0619 -0.1163  0.2126
    1DIPC   C4A11756  17.856   0.897   5.959 -0.2543  0.0968  0.0663
    1DIPC   C1B11757  17.914   1.894   5.939  0.3233  0.0258  0.0273
    1DIPC   D2B11758  18.185   2.071   5.635 -0.1044 -0.1577 -0.2138
    1DIPC   D3B11759  18.179   1.811   5.378 -0.1938  0.0202 -0.0454
    1DIPC   C4B11760  18.237   1.630   4.977 -0.4501  0.0923 -0.0282
    1DIPC   NC311761   2.730  25.848   7.912  0.3812  0.2347  0.0205
    1DIPC   PO411762   2.322  26.112   7.720  0.1503 -0.0874 -0.1031
    1DIPC   GL111763   2.416  26.026   7.281 -0.3340 -0.2973 -0.0902
    1DIPC   GL211764   2.089  26.126   7.124 -0.0093  0.0480 -0.1463
    1DIPC   C1A11765   2.616  26.189   7.000  0.0353 -0.1372 -0.2312
    1DIPC   D2A11766   2.943  26.365   6.980 -0.1137 -0.0338  0.0324
    1DIPC   D3A11767   3.136  26.014   7.119  0.0708 -0.1554  0.0201
    1DIPC   C4A11768   3.365  25.671   6.824  0.1448 -0.1966 -0.0283
    1DIPC   C1B11769   1.995  26.134   6.682  0.0363  0.1103  0.0267
    1DIPC   D2B11770   2.012  25.976   6.196 -0.1272 -0.3401 -0.0794
    1DIPC   D3B11771   2.072  25.488   6.231 -0.0469 -0.0279 -0.2927
    1DIPC   C4B11772   1.750  25.236   6.301  0.1031 -0.0577 -0.1422
    1DIPC   NC311773   3.917  25.267   7.638  0.1491  0.1438  0.1354
    1DIPC   PO411774   4.281  25.072   7.487  0.0228  0.1388 -0.0958
    1DIPC   GL111775   4.546  25.176   7.195  0.1117 -0.0277 -0.1473
    1DIPC   GL211776   4.608  24.777   7.092  0.0154  0.2630 -0.0925
    1DIPC   C1A11777   4.626  25.297   6.735 -0.0918  0.6029  0.2845
    1DIPC   D2A11778   4.860  25.212   6.305  0.0936  0.1417  0.2672
    1DIPC   D3A11779   4.724  25.065   5.912 -0.1592  0.0261  0.0928
    1DIPC   C4A11780   4.456  25.249   5.619  0.4850  0.3604  0.0944
    1DIPC   C1B11781   4.294  24.871   6.825 -0.4230 -0.2524  0.0384
    1DIPC   D2B11782   4.268  24.653   6.321 -0.2468  0.0380  0.2395
    1DIPC   D3B11783   3.905  24.595   6.252  0.0104  0.1954  0.0964
    1DIPC   C4B11784   3.866  24.620   5.870  0.0034  0.0422 -0.0652
    1DIPC   NC311785  22.059  11.901   7.068 -0.1706 -0.1856  0.0637
    1DIPC   PO411786  22.383  11.837   6.900 -0.4931 -0.2282  0.0507
    1DIPC   GL111787  22.274  11.622   6.513  0.0803  0.0801  0.2141
    1DIPC   GL211788  22.087  11.375   6.471  0.2279 -0.2099  0.0812
    1DIPC   C1A11789  22.459  11.598   6.164  0.0621  0.0200  0.0213
    1DIPC   D2A11790  22.472  11.306   5.795 -0.1502  0.0808  0.1415
    1DIPC   D3A11791  22.768  11.497   5.500 -0.1656  0.1053  0.2839
    1DIPC   C4A11792  22.879  11.781   5.157 -0.1564 -0.0356  0.2122
    1DIPC   C1B11793  21.858  11.548   6.152  0.1968 -0.4085  0.1369
    1DIPC   D2B11794  21.607  11.890   6.093  0.1480  0.0383  0.1173
    1DIPC   D3B11795  21.670  12.049   5.605  0.0649  0.0495 -0.1207
    1DIPC   C4B11796  21.393  12.078   5.224  0.0927 -0.1339 -0.0983
    1DIPC   NC311797   9.610  18.035   6.989 -0.0889  0.1122  0.1159
    1DIPC   PO411798   9.541  18.049   6.422 -0.3310  0.0289 -0.1289
    1DIPC   GL111799   9.623  18.156   5.986 -0.0829  0.0102 -0.0511
    1DIPC   GL211800   9.362  18.049   5.888  0.0733  0.0570  0.1471
    1DIPC   C1A11801   9.920  18.241   5.667  0.1735  0.3080 -0.2774
    1DIPC   D2A11802   9.871  18.178   5.283 -0.1026 -0.0875  0.1200
    1DIPC   D3A11803  10.182  18.327   5.110  0.0469 -0.1434 -0.1218
    1DIPC   C4A11804  10.455  18.396   4.727 -0.0216  0.3233  0.0122
    1DIPC   C1B11805   9.380  18.238   5.488 -0.3307  0.0437 -0.3580
    1DIPC   D2B11806   9.458  18.399   5.069 -0.2512 -0.1706 -0.3657
    1DIPC   D3B11807   9.463  17.998   4.905  0.0322 -0.2021 -0.1044
    1DIPC   C4B11808   9.300  17.725   5.184 -0.1003  0.0728 -0.2539
    1DIPC   NC311809  18.384  17.052   6.262  0.2127 -0.0176  0.0574
    1DIPC   PO411810  17.996  17.022   6.084  0.1921  0.0530  0.1168
    1DIPC   GL111811  17.912  17.083   5.744  0.3734 -0.2392 -0.0218
    1DIPC   GL211812  17.610  16.853   5.768  0.0029 -0.0310 -0.2632
    1DIPC   C1A11813  17.992  17.102   5.367 -0.0337 -0.0249  0.1525
    1DIPC   D2A11814  18.114  17.240   4.805  0.1457  0.2050  0.0723
    1DIPC   D3A11815  17.907  17.497   5.133 -0.0463  0.1180  0.0722
    1DIPC   C4A11816  17.871  17.842   5.148  0.1718  0.0830  0.1748
    1DIPC   C1B11817  17.383  17.022   5.464 -0.1506  0.0582 -0.3324
    1DIPC   D2B11818  17.036  17.273   5.565 -0.2865  0.1350 -0.2491
    1DIPC   D3B11819  16.858  16.934   5.484 -0.0532 -0.1340 -0.0714
    1DIPC   C4B11820  17.026  16.829   5.028  0.1216 -0.1685 -0.0457
    1DIPC   NC311821  20.653   1.449   7.159 -0.0870 -0.0299  0.1095
    1DIPC   PO411822  20.457   1.821   7.035  0.2891  0.0757 -0.2927
    1DIPC   GL111823  20.276   2.077   6.854 -0.1922  0.1565  0.3200
    1DIPC   GL211824  20.012   2.215   6.722  0.0275  0.1204 -0.1753
    1DIPC   C1A11825  20.280   2.105   6.310  0.0237 -0.2913  0.2539
    1DIPC   D2A11826  20.209   1.993   5.968  0.0766 -0.2441 -0.1956
    1DIPC   D3A11827  20.184   1.712   5.696 -0.2254 -0.0834 -0.0734
    1DIPC   C4A11828  19.911   1.493   5.445 -0.0294 -0.0760  0.2938
    1DIPC   C1B11829  19.843   1.811   6.429  0.1754 -0.0083 -0.3732
    1DIPC   D2B11830  19.637   1.474   6.620  0.3005  0.1888  0.2386
    1DIPC   D3B11831  19.301   1.128   6.421 -0.4873  0.2867  0.2491
    1DIPC   C4B11832  19.420   0.786   6.462 -0.4132 -0.3387 -0.0250
    1DIPC   NC311833  28.509  18.742   7.843  0.0640  0.1709 -0.0444
    1DIPC   PO411834  28.367  19.238   7.751  0.2369 -0.1033  0.1275
    1DIPC   GL111835  28.164  19.535   7.523 -0.1630 -0.3859  0.2973
    1DIPC   GL211836  27.868  19.595   7.545 -0.0943 -0.3094  0.1435
    1DIPC   C1A11837  27.996  19.400   7.098 -0.2080 -0.1295  0.0689
    1DIPC   D2A11838  27.943  19.588   6.696 -0.1901  0.2285 -0.1012
    1DIPC   D3A11839  27.996  19.199   6.561  0.0230 -0.0305 -0.2933
    1DIPC   C4A11840  28.094  19.183   6.177  0.0669  0.1297  0.1441
    1DIPC   C1B11841  27.974  19.895   7.179  0.1068  0.2299  0.0100
    1DIPC   D2B11842  28.083  20.029   6.723  0.0923  0.0296 -0.2599
    1DIPC   D3B11843  27.671  19.979   6.469 -0.0260  0.0303 -0.0205
    1DIPC   C4B11844  27.353  19.717   6.644 -0.1656 -0.1539  0.0968
    1DIPC   NC311845   7.087  18.658   6.516 -0.0404  0.2204  0.1012
    1DIPC   PO411846   6.714  18.772   6.685 -0.1606 -0.0483 -0.1637
    1DIPC   GL111847   6.664  18.668   6.253 -0.0748 -0.0618 -0.0383
    1DIPC   GL211848   6.496  18.283   6.183  0.0221 -0.1913  0.0972
    1DIPC   C1A11849   6.414  18.678   5.819  0.4921 -0.1013 -0.2039
    1DIPC   D2A11850   6.204  19.001   5.529 -0.0569  0.0663 -0.0477
    1DIPC   D3A11851   6.354  19.206   5.772 -0.0853  0.0677  0.2117
    1DIPC   C4A11852   6.427  19.064   6.105 -0.1844  0.2884  0.3309
    1DIPC   C1B11853   6.816  18.384   5.916 -0.0663 -0.0887  0.1094
    1DIPC   D2B11854   6.889  18.270   5.485 -0.0010  0.0463 -0.2184
    1DIPC   D3B11855   6.515  18.232   5.304 -0.3219  0.2354  0.0365
    1DIPC   C4B11856   6.297  18.184   4.869 -0.0514  0.0530  0.0518
    1CHOL   ROH11857  21.399   5.047   6.093  0.0596 -0.1062  0.1413
    1CHOL    R111858  21.287   4.991   5.839 -0.0147 -0.0784  0.1672
    1CHOL    R211859  21.425   5.030   5.603 -0.1533  0.1397  0.1172
    1CHOL    R311860  21.361   4.770   5.560  0.0330  0.1070  0.0314
    1CHOL    R411861  21.373   4.889   5.292  0.0467  0.1797  0.0644
    1CHOL    R511862  21.206   4.776   5.377  0.0915  0.0491 -0.0198
    1CHOL    C111863  21.282   4.562   5.071  0.3380  0.1724 -0.0469
    1CHOL    C211864  21.670   4.611   4.794 -0.0435  0.1330 -0.2822
    1CHOL   ROH11865  18.265  22.891   3.435 -0.2342  0.0315  0.1164
    1CHOL    R111866  18.347  22.847   3.702 -0.0401  0.0271  0.0590
    1CHOL    R211867  18.281  22.619   3.843 -0.1213  0.1134  0.1747
    1CHOL    R311868  18.550  22.603   3.880 -0.0982 -0.1080 -0.0618
    1CHOL    R411869  18.435  22.454   4.105 -0.0292  0.2223  0.1885
    1CHOL    R511870  18.578  22.618   4.117  0.1412  0.0959 -0.1032
    1CHOL    C111871  18.777  22.344   4.293  0.0458  0.0777 -0.0254
    1CHOL    C211872  19.096  22.178   4.478 -0.3107 -0.1943  0.3731
    1CHOL   ROH11873  18.768   1.612   6.182 -0.3921 -0.0857  0.0833
    1CHOL    R111874  18.922   1.498   5.973 -0.2649 -0.0494  0.1557
    1CHOL    R211875  18.914   1.228   5.913 -0.2032 -0.0458  0.1242
    1CHOL    R311876  18.856   1.319   5.663 -0.0769 -0.0267  0.1016
    1CHOL    R411877  18.956   1.047   5.621 -0.0595 -0.0229  0.1306
    1CHOL    R511878  19.029   1.229   5.525 -0.0092 -0.0175  0.1810
    1CHOL    C111879  18.927   1.028   5.217  0.1429  0.0084  0.1131
    1CHOL    C211880  19.043   0.762   4.773  0.0789  0.2315 -0.3460
    1CHOL   ROH11881  12.715   5.085   5.273 -0.1122 -0.1841 -0.0169
    1CHOL    R111882  12.605   4.984   5.033  0.0365 -0.3275 -0.0269
    1CHOL    R211883  12.572   5.140   4.807 -0.3713 -0.2944  0.0466
    1CHOL    R311884  12.716   4.942   4.688  0.0383  0.0612 -0.0781
    1CHOL    R411885  12.531   5.036   4.480 -0.3311 -0.3385  0.0557
    1CHOL    R511886  12.557   4.830   4.548  0.2092 -0.3007  0.0067
    1CHOL    C111887  12.642   4.789   4.178  0.0769 -0.0304 -0.0560
    1CHOL    C211888  12.460   4.551   4.162  0.2266 -0.1847 -0.0107
    1CHOL   ROH11889   3.934  11.862   3.756 -0.0505 -0.0887  0.0491
    1CHOL    R111890   3.998  11.765   4.014 -0.0545 -0.0599  0.0610
    1CHOL    R211891   4.257  11.753   4.108 -0.0540 -0.0630  0.0611
    1CHOL    R311892   4.155  11.897   4.315 -0.0450 -0.0308  0.0431
    1CHOL    R411893   4.396  11.769   4.424 -0.0047  0.0394  0.0345
    1CHOL    R511894   4.194  11.760   4.508  0.0113  0.0238  0.0703
    1CHOL    C111895   4.381  11.914   4.802  0.0325  0.1292  0.0022
    1CHOL    C211896   4.363  11.886   5.203  0.3472 -0.1180 -0.1091
    1CHOL   ROH11897   1.073   0.013   6.482  0.3454 -0.0827 -0.2965
    1CHOL    R111898   0.945   0.258   6.542  0.0185 -0.2217 -0.4039
    1CHOL    R211899   1.081   0.499   6.550 -0.1764 -0.1223  0.0625
    1CHOL    R311900   0.889   0.576   6.373  0.1443 -0.1481 -0.3131
    1CHOL    R411901   1.014   0.826   6.460 -0.3894 -0.0753  0.3742
    1CHOL    R511902   0.802   0.779   6.465 -0.3625 -0.3876 -0.2162
    1CHOL    C111903   0.795   1.089   6.242 -0.2124 -0.0721  0.2031
    1CHOL    C211904   0.961   1.224   6.040  0.0898  0.0072  0.0325
    1CHOL   ROH11905  27.339  24.667   4.318 -0.1998  0.0860 -0.1872
    1CHOL    R111906  27.290  24.623   4.593 -0.0681 -0.0093 -0.1786
    1CHOL    R211907  27.475  24.684   4.789 -0.0788  0.1771 -0.2251
    1CHOL    R311908  27.269  24.826   4.894 -0.2142 -0.0737 -0.1448
    1CHOL    R411909  27.419  24.729   5.127  0.0979  0.2486 -0.2043
    1CHOL    R511910  27.206  24.702   5.090  0.1044 -0.0800 -0.0411
    1CHOL    C111911  27.193  24.888   5.423  0.0738  0.0548 -0.1168
    1CHOL    C211912  27.322  24.758   5.742 -0.0123 -0.2403 -0.0291
    1CHOL   ROH11913  15.157   7.443   4.986  0.2450  0.0857  0.0654
    1CHOL    R111914  15.297   7.414   4.743  0.1160  0.0114 -0.0009
    1CHOL    R211915  15.216   7.535   4.508  0.0084 -0.0368  0.0130
    1CHOL    R311916  15.469   7.634   4.508  0.0208 -0.0642 -0.1438
    1CHOL    R411917  15.365   7.697   4.241 -0.1941  0.0816 -0.0311
    1CHOL    R511918  15.550   7.590   4.287 -0.1649  0.0373 -0.2352
    1CHOL    C111919  15.689   7.883   4.086 -0.3004  0.1247 -0.2042
    1CHOL    C211920  16.059   7.883   3.961 -0.2654 -0.0124 -0.0521
    1CHOL   ROH11921   2.789   3.729   4.844 -0.0390 -0.0147 -0.1052
    1CHOL    R111922   2.877   3.586   5.072 -0.0243 -0.2040 -0.2264
    1CHOL    R211923   2.783   3.638   5.326  0.3998 -0.0216 -0.0910
    1CHOL    R311924   2.726   3.372   5.325 -0.1351  0.0811 -0.0486
    1CHOL    R411925   2.816   3.428   5.598  0.4912 -0.1493 -0.2003
    1CHOL    R511926   2.895   3.275   5.464 -0.0600 -0.2869 -0.3845
    1CHOL    C111927   2.783   3.056   5.755  0.0422 -0.1272 -0.2242
    1CHOL    C211928   2.834   2.938   6.071 -0.1637 -0.3024 -0.1508
    1CHOL   ROH11929  26.723  19.298   6.781  0.0729  0.2081  0.1058
    1CHOL    R111930  26.809  19.499   6.601  0.0491  0.2083  0.0953
    1CHOL    R211931  26.852  19.449   6.332  0.0490  0.2005  0.0982
    1CHOL    R311932  26.680  19.657   6.300  0.0281  0.1825  0.0903
    1CHOL    R411933  26.883  19.696   6.092 -0.1524  0.0124 -0.1269
    1CHOL    R511934  26.820  19.842   6.241 -0.0124  0.1328 -0.1813
    1CHOL    C111935  26.739  20.035   5.922 -0.2890 -0.1142 -0.2654
    1CHOL    C211936  26.887  20.413   5.882  0.3194  0.1608 -0.2269
    1CHOL   ROH11937   5.717  15.819   3.030 -0.0360 -0.1238  0.0657
    1CHOL    R111938   5.930  15.933   3.179 -0.0380 -0.1178  0.0644
    1CHOL    R211939   6.045  15.805   3.395  0.0170 -0.1474  0.0186
    1CHOL    R311940   6.275  15.846   3.255 -0.0104 -0.0687 -0.0031
    1CHOL    R411941   6.363  15.798   3.531  0.0425 -0.2294 -0.0455
    1CHOL    R511942   6.415  15.969   3.405  0.0195 -0.1566  0.0423
    1CHOL    C111943   6.764  15.833   3.478  0.0316 -0.2033 -0.1031
    1CHOL    C211944   7.079  15.589   3.608 -0.2541  0.0893  0.1366
    1CHOL   ROH11945  10.761   2.181   6.015 -0.1945  0.2148  0.0873
    1CHOL    R111946  10.702   2.175   5.738 -0.0576 -0.0297  0.0607
    1CHOL    R211947  10.616   1.947   5.609 -0.4645 -0.0347  0.3228
    1CHOL    R311948  10.411   2.107   5.530 -0.0988  0.2995  0.0050
    1CHOL    R411949  10.483   1.955   5.290 -0.3417 -0.2516  0.2637
    1CHOL    R511950  10.469   2.172   5.307  0.1230 -0.1774 -0.0891
    1CHOL    C111951  10.213   2.110   5.031  0.0733 -0.0641 -0.0691
    1CHOL    C211952  10.049   2.029   4.752 -0.0558  0.2995  0.1643
    1CHOL   ROH11953   8.320  19.904   5.903  0.0336  0.1738 -0.0191
    1CHOL    R111954   8.502  20.040   5.734 -0.0330  0.1493 -0.1117
    1CHOL    R211955   8.744  19.931   5.658  0.0193  0.2141 -0.0414
    1CHOL    R311956   8.652  19.983   5.407 -0.0094  0.0032 -0.0762
    1CHOL    R411957   8.945  19.983   5.381 -0.0074  0.1217 -0.0782
    1CHOL    R511958   8.809  20.142   5.319 -0.0832  0.0178 -0.1840
    1CHOL    C111959   8.976  20.063   4.985 -0.0499 -0.1300 -0.1323
    1CHOL    C211960   9.354  20.292   4.889  0.1331 -0.2507 -0.0665
    1CHOL   ROH11961  24.623  26.932   3.886  0.0409 -0.0696  0.0144
    1CHOL    R111962  24.630  26.791   4.131 -0.0098 -0.0087  0.0512
    1CHOL    R211963  24.738  26.899   4.362  0.0201  0.0161  0.0255
    1CHOL    R311964  24.495  26.836   4.466 -0.0024  0.1210  0.0373
    1CHOL    R411965  24.669  26.868   4.699 -0.0145  0.1991  0.0360
    1CHOL    R511966  24.545  26.696   4.653 -0.0483  0.2030  0.1118
    1CHOL    C111967  24.401  26.792   4.993 -0.0553  0.4041  0.0533
    1CHOL    C211968  24.544  26.889   5.276  0.0295  0.0307  0.1279
    1CHOL   ROH11969   8.626  25.221   4.084  0.0129 -0.0421 -0.0853
    1CHOL    R111970   8.621  25.075   4.327  0.0416  0.0772 -0.0142
    1CHOL    R211971   8.848  24.962   4.438  0.0495  0.1385  0.0123
    1CHOL    R311972   8.772  25.105   4.656  0.0746  0.2371 -0.0406
    1CHOL    R411973   8.890  24.861   4.765 -0.1334  0.1588  0.0445
    1CHOL    R511974   8.693  24.941   4.811 -0.1000  0.3130 -0.0383
    1CHOL    C111975   8.843  24.935   5.161 -0.2163  0.2629  0.0136
    1CHOL    C211976   8.476  24.776   5.377  0.1480 -0.1294  0.0245
    1CHOL   ROH11977  14.452  20.936   3.925  0.0527  0.0805  0.1670
    1CHOL    R111978  14.431  20.818   4.182 -0.0110 -0.1093  0.0772
    1CHOL    R211979  14.377  20.966   4.410  0.2053 -0.2339  0.2161
    1CHOL    R311980  14.174  20.789   4.438  0.0168 -0.0389  0.1117
    1CHOL    R411981  14.226  20.884   4.709  0.1760 -0.3246  0.1768
    1CHOL    R511982  14.220  20.677   4.644 -0.0636 -0.2632  0.0074
    1CHOL    C111983  13.947  20.670   4.911 -0.0181 -0.1942  0.0559
    1CHOL    C211984  13.726  20.901   5.134 -0.2680  0.1934  0.1506
    1CHOL   ROH11985  19.555   4.844   5.887  0.0605 -0.1190 -0.0059
    1CHOL    R111986  19.711   4.923   5.665  0.2201 -0.1883  0.0799
    1CHOL    R211987  19.903   4.760   5.552 -0.0656 -0.4375 -0.0638
    1CHOL    R311988  19.764   4.809   5.323  0.0254  0.0371 -0.0280
    1CHOL    R411989  20.029   4.723   5.232 -0.1208 -0.3452 -0.0965
    1CHOL    R511990  19.925   4.906   5.175  0.2047 -0.0995  0.0766
    1CHOL    C111991  19.972   4.748   4.832 -0.0674  0.1539 -0.0820
    1CHOL    C211992  19.889   4.559   4.586  0.2637  0.2772 -0.0452
    1CHOL   ROH11993   1.554  18.197   7.009 -0.1364 -0.2071 -0.0267
    1CHOL    R111994   1.554  18.346   6.768 -0.0929 -0.1580  0.0020
    1CHOL    R211995   1.448  18.247   6.532 -0.0592 -0.1087 -0.0402
    1CHOL    R311996   1.304  18.478   6.539 -0.0535 -0.1076 -0.0100
    1CHOL    R411997   1.337  18.419   6.254  0.2555  0.1308 -0.0216
    1CHOL    R511998   1.388  18.606   6.355  0.1546  0.0428  0.1877
    1CHOL    C111999   1.138  18.735   6.098  0.4441  0.2715  0.0176
    1CHOL    C212000   0.989  18.869   6.010  0.0137 -0.2992  0.2377
    1CHOL   ROH12001  11.546   4.550   3.306 -0.0844 -0.0501 -0.0039
    1CHOL    R112002  11.565   4.311   3.457  0.0401 -0.0543 -0.0260
    1CHOL    R212003  11.611   4.311   3.729  0.0036 -0.0540 -0.0213
    1CHOL    R312004  11.386   4.158   3.734  0.0950 -0.1931 -0.0655
    1CHOL    R412005  11.503   4.128   4.002 -0.1161  0.1599  0.0774
    1CHOL    R512006  11.447   3.967   3.865  0.1071 -0.0214  0.1892
    1CHOL    C112007  11.228   3.878   4.165 -0.0999  0.1540  0.0934
    1CHOL    C212008  11.069   3.670   4.269  0.1199  0.0441 -0.1514
    1CHOL   ROH12009  17.344   2.196   2.842  0.0160 -0.0265  0.0653
    1CHOL    R112010  17.201   2.344   3.037  0.0903  0.0945  0.0286
    1CHOL    R212011  17.052   2.224   3.236 -0.1040  0.2178 -0.0373
    1CHOL    R312012  17.206   2.378   3.400 -0.0073  0.0492  0.0333
    1CHOL    R412013  16.990   2.278   3.572 -0.0019  0.0265  0.0145
    1CHOL    R512014  17.049   2.486   3.544  0.0735  0.0191  0.1408
    1CHOL    C112015  17.098   2.454   3.920  0.1483 -0.2431  0.1110
    1CHOL    C212016  16.923   2.689   4.266 -0.0218  0.0470  0.2117
    1CHOL   ROH12017  21.586  26.768   3.657  0.2448 -0.0286  0.0488
    1CHOL    R112018  21.752  26.824   3.879  0.1370  0.0594  0.1083
    1CHOL    R212019  21.827  27.081   3.949  0.0477  0.0935  0.0848
    1CHOL    R312020  21.723  27.011   4.190 -0.0404  0.1219  0.0551
    1CHOL    R412021  21.867  27.262   4.240  0.0964  0.0309  0.1172
    1CHOL    R512022  21.892  27.074   4.348 -0.0349  0.0016  0.0971
    1CHOL    C112023  21.792  27.303   4.636  0.0421  0.0211  0.1082
    1CHOL    C212024  22.062  27.491   4.669  0.2057  0.5125 -0.0117
    1CHOL   ROH12025  20.579  28.427   3.743  0.0706  0.1398  0.0849
    1CHOL    R112026  20.401  28.461   3.960  0.0351  0.1790  0.0482
    1CHOL    R212027  20.481  28.434   4.223 -0.0523  0.0370  0.0548
    1CHOL    R312028  20.375  28.683   4.248  0.0978  0.0976  0.1196
    1CHOL    R412029  20.369  28.572   4.520 -0.2556 -0.1031  0.0464
    1CHOL    R512030  20.200  28.657   4.410 -0.0912  0.0961 -0.0722
    1CHOL    C112031  20.204  28.886   4.716 -0.2327 -0.1276  0.1023
    1CHOL    C212032  19.991  28.856   4.954 -0.2907 -0.1655 -0.2545
    1CHOL   ROH12033  22.536  23.341   4.120 -0.1042  0.0693  0.1088
    1CHOL    R112034  22.653  23.194   4.332 -0.0680  0.0914  0.1029
    1CHOL    R212035  22.524  23.150   4.572 -0.0660  0.0314  0.0898
    1CHOL    R312036  22.578  22.889   4.516  0.0229  0.0515  0.0755
    1CHOL    R412037  22.530  22.896   4.806 -0.3500 -0.0448  0.0199
    1CHOL    R512038  22.705  22.814   4.705 -0.2120 -0.0004  0.2176
    1CHOL    C112039  22.584  22.503   4.890 -0.4319 -0.0702 -0.0342
    1CHOL    C212040  22.730  22.298   5.190 -0.1905 -0.0851  0.0933
    1CHOL   ROH12041  17.192   7.939   5.368 -0.0010 -0.3020 -0.1381
    1CHOL    R112042  17.380   7.893   5.161 -0.0544 -0.1855 -0.2138
    1CHOL    R212043  17.304   7.840   4.901 -0.1215 -0.0286 -0.2288
    1CHOL    R312044  17.468   8.049   4.844 -0.1298  0.0009 -0.1442
    1CHOL    R412045  17.456   7.893   4.595 -0.0222  0.0323 -0.1688
    1CHOL    R512046  17.636   7.955   4.702 -0.0679  0.0427 -0.0980
    1CHOL    C112047  17.699   8.121   4.364  0.0280  0.0954 -0.0545
    1CHOL    C212048  17.793   8.086   3.999  0.3216  0.1528 -0.0539
    1CHOL   ROH12049   2.306  23.738   7.281 -0.0805 -0.1611  0.1137
    1CHOL    R112050   2.125  23.739   7.064 -0.0159  0.0065  0.0587
    1CHOL    R212051   2.190  23.841   6.815  0.1477 -0.0375  0.0825
    1CHOL    R312052   2.111  23.595   6.730 -0.0401  0.0328  0.0485
    1CHOL    R412053   2.171  23.743   6.484  0.1740 -0.0134  0.0736
    1CHOL    R512054   1.985  23.639   6.531  0.0656  0.1484  0.0069
    1CHOL    C112055   2.085  23.455   6.211  0.0130  0.0670  0.0364
    1CHOL    C212056   2.015  23.222   5.821  0.0521 -0.2676 -0.0716
    1CHOL   ROH12057  17.995   0.823   3.274  0.3084  0.4737 -0.0215
    1CHOL    R112058  17.931   1.013   3.473 -0.1315  0.2665  0.0458
    1CHOL    R212059  17.723   0.977   3.652 -0.0147 -0.3086  0.0853
    1CHOL    R312060  17.917   1.021   3.837 -0.0729  0.1293  0.0510
    1CHOL    R412061  17.666   1.044   3.986 -0.1072 -0.4417  0.0970
    1CHOL    R512062  17.826   1.192   3.979 -0.4353 -0.0720  0.0699
    1CHOL    C112063  17.814   1.125   4.354 -0.2153 -0.1081  0.0716
    1CHOL    C212064  17.514   1.281   4.567 -0.0011  0.2279  0.0380
    1CHOL   ROH12065  20.632  27.165   3.409 -0.2702 -0.3422 -0.1340
    1CHOL    R112066  20.603  27.124   3.688  0.0086 -0.1375 -0.0701
    1CHOL    R212067  20.381  27.003   3.798 -0.0038  0.1716  0.2668
    1CHOL    R312068  20.566  26.839   3.911 -0.0483  0.0370  0.1474
    1CHOL    R412069  20.401  26.930   4.135  0.1087  0.0892  0.2431
    1CHOL    R512070  20.618  26.943   4.120  0.1105 -0.0373  0.1464
    1CHOL    C112071  20.586  26.735   4.438  0.1327 -0.0850  0.1171
    1CHOL    C212072  20.661  26.709   4.803  0.2088 -0.0126 -0.0172
    1CHOL   ROH12073  28.100  28.208   7.660 -0.2520 -0.1377  0.0710
    1CHOL    R112074  28.090  28.322   7.401 -0.0135 -0.1393  0.0592
    1CHOL    R212075  28.288  28.281   7.213  0.0703 -0.2913  0.1809
    1CHOL    R312076  28.080  28.199   7.058  0.1018 -0.1437  0.0564
    1CHOL    R412077  28.289  28.274   6.867  0.1651 -0.0071  0.1723
    1CHOL    R512078  28.084  28.347   6.870  0.1702  0.0134  0.1767
    1CHOL    C112079  28.094  28.193   6.521  0.2503  0.2970  0.0504
    1CHOL    C212080  27.865  28.213   6.148  0.2574  0.3047 -0.0061
    1CHOL   ROH12081  26.093  26.533   4.404 -0.0829 -0.1354  0.0017
    1CHOL    R112082  26.033  26.652   4.654 -0.0140  0.0134 -0.0513
    1CHOL    R212083  25.935  26.507   4.867 -0.1493  0.1760 -0.0026
    1CHOL    R312084  26.147  26.616   4.998 -0.0752  0.0623 -0.0253
    1CHOL    R412085  25.940  26.585   5.204 -0.0731  0.1716 -0.0024
    1CHOL    R512086  26.048  26.768   5.154  0.0211  0.1159 -0.0138
    1CHOL    C112087  26.142  26.734   5.522  0.0408  0.0624 -0.0235
    1CHOL    C212088  25.971  26.646   5.797  0.3704 -0.0012  0.1953
    1CHOL   ROH12089  16.990   8.454   2.213 -0.0559  0.1236 -0.1827
    1CHOL    R112090  16.839   8.345   2.426 -0.0913  0.1936 -0.1709
    1CHOL    R212091  16.956   8.210   2.637 -0.1522 -0.0339 -0.2760
    1CHOL    R312092  16.820   8.392   2.787  0.1092  0.0555 -0.1409
    1CHOL    R412093  16.885   8.176   2.974 -0.2442 -0.2076 -0.3127
    1CHOL    R512094  16.687   8.259   2.935 -0.1147  0.1321 -0.2698
    1CHOL    C112095  16.715   8.327   3.310 -0.0528 -0.2247 -0.2072
    1CHOL    C212096  16.597   8.539   3.598  0.0956  0.1294 -0.0696
    1CHOL   ROH12097  12.646  21.364   6.581 -0.0910  0.0054  0.1307
    1CHOL    R112098  12.535  21.494   6.355 -0.0870 -0.0072  0.1204
    1CHOL    R212099  12.606  21.429   6.096  0.0199  0.0690  0.1244
    1CHOL    R312100  12.338  21.398   6.065  0.0428 -0.0542  0.0488
    1CHOL    R412101  12.417  21.576   5.846  0.0334 -0.1385 -0.0098
    1CHOL    R512102  12.261  21.613   5.993 -0.0263 -0.1276 -0.0854
    1CHOL    C112103  12.056  21.633   5.672  0.0626 -0.3747 -0.1589
    1CHOL    C212104  12.046  21.895   5.346  0.3086 -0.0090  0.0655
    1CHOL   ROH12105  13.764   6.982   2.542  0.0128 -0.0963  0.0248
    1CHOL    R112106  13.687   7.025   2.810  0.0065  0.0326  0.0032
    1CHOL    R212107  13.556   6.834   2.960 -0.1447  0.1625  0.0421
    1CHOL    R312108  13.760   6.875   3.134 -0.1373  0.0728  0.0545
    1CHOL    R412109  13.530   6.810   3.304 -0.1396  0.0431  0.0343
    1CHOL    R512110  13.659   6.986   3.321 -0.1173  0.0185  0.0957
    1CHOL    C112111  13.708   6.834   3.667 -0.1297 -0.1107  0.0412
    1CHOL    C212112  13.376   6.721   3.816 -0.1049 -0.0211  0.0479
    1CHOL   ROH12113  21.285   1.094   6.422  0.0255 -0.0157  0.0046
    1CHOL    R112114  21.239   1.161   6.151  0.0448  0.0176  0.0101
    1CHOL    R212115  21.126   0.985   5.971  0.1397  0.0098 -0.0394
    1CHOL    R312116  20.952   1.190   5.930  0.0703 -0.0471 -0.0331
    1CHOL    R412117  20.972   1.056   5.669  0.2071  0.0320 -0.0690
    1CHOL    R512118  21.003   1.268   5.709  0.1106  0.0362  0.0033
    1CHOL    C112119  20.719   1.290   5.455  0.1811 -0.0085 -0.0803
    1CHOL    C212120  20.463   1.489   5.303  0.2903 -0.1516  0.0388
    1CHOL   ROH12121  13.842   0.363   6.172  0.3050  0.0427  0.0159
    1CHOL    R112122  13.920   0.187   5.965  0.2128  0.0435 -0.0184
    1CHOL    R212123  13.803   0.191   5.715  0.1910  0.1294 -0.0010
    1CHOL    R312124  14.061   0.217   5.631  0.1931  0.0341 -0.0294
    1CHOL    R412125  13.922   0.089   5.406  0.1019  0.1139 -0.0316
    1CHOL    R512126  14.103   0.018   5.505  0.0903  0.0254 -0.0597
    1CHOL    C112127  14.233   0.054   5.149  0.0519  0.0154 -0.0761
    1CHOL    C212128  14.229   0.128   4.666  0.0841 -0.0534 -0.1078
    1CHOL   ROH12129  17.038   4.701   2.319 -0.0107  0.0543  0.0239
    1CHOL    R112130  16.826   4.748   2.501  0.0207  0.0236  0.0681
    1CHOL    R212131  16.734   4.553   2.674 -0.0039 -0.0300 -0.0081
    1CHOL    R312132  16.783   4.744   2.862  0.0586 -0.1244  0.0726
    1CHOL    R412133  16.545   4.603   2.960 -0.1495  0.0721 -0.1200
    1CHOL    R512134  16.565   4.817   2.930  0.0783  0.0660 -0.0539
    1CHOL    C112135  16.482   4.810   3.302 -0.1757  0.0431 -0.1094
    1CHOL    C212136  16.305   5.058   3.489 -0.0813  0.0288  0.3345
    1CHOL   ROH12137   0.284  16.764   7.163  0.0352  0.0018 -0.1332
    1CHOL    R112138   0.175  16.794   6.904 -0.0599 -0.2663 -0.1270
    1CHOL    R212139   0.280  16.968   6.717 -0.4192 -0.0929 -0.1757
    1CHOL    R312140   0.288  16.745   6.561 -0.0027 -0.1190 -0.1302
    1CHOL    R412141   0.342  16.968   6.377 -0.3157 -0.0594 -0.1577
    1CHOL    R512142   0.188  16.815   6.355 -0.0596 -0.3244 -0.1749
    1CHOL    C112143   0.385  16.759   6.032  0.1354 -0.0640 -0.1045
    1CHOL    C212144   0.407  17.115   5.867 -0.0922  0.0109  0.2684
    1CHOL   ROH12145  18.308   1.769   3.101 -0.0306  0.0071 -0.0597
    1CHOL    R112146  18.428   1.809   3.354 -0.1311  0.1234 -0.0296
    1CHOL    R212147  18.354   2.015   3.523 -0.3733  0.0520 -0.0468
    1CHOL    R312148  18.319   1.812   3.701 -0.2208  0.0161 -0.0559
    1CHOL    R412149  18.372   2.048   3.866 -0.2099  0.0127 -0.0509
    1CHOL    R512150  18.477   1.857   3.874 -0.1455  0.0427 -0.1296
    1CHOL    C112151  18.350   1.877   4.233  0.0284 -0.0439 -0.0619
    1CHOL    C212152  18.125   2.047   4.524 -0.1450 -0.0699  0.0301
    1CHOL   ROH12153   6.837   1.480   4.877  0.2975  0.2037  0.0846
    1CHOL    R112154   6.969   1.486   5.128  0.3218  0.0321  0.0779
    1CHOL    R212155   6.860   1.376   5.355  0.0774  0.3690  0.1347
    1CHOL    R312156   7.097   1.243   5.366 -0.2022 -0.1506  0.1848
    1CHOL    R412157   7.009   1.263   5.646  0.0255  0.5213  0.2210
    1CHOL    R512158   7.202   1.326   5.565  0.1223 -0.0425 -0.0264
    1CHOL    C112159   7.319   1.073   5.825 -0.2672  0.1221  0.3184
    1CHOL    C212160   7.303   1.003   6.166 -0.1873 -0.2693 -0.0661
    1CHOL   ROH12161   5.310  11.312   5.198  0.3202 -0.2429 -0.1990
    1CHOL    R112162   5.041  11.225   5.191  0.2311  0.0206 -0.1875
    1CHOL    R212163   4.921  11.131   4.961  0.1299  0.1263 -0.1805
    1CHOL    R312164   4.866  10.915   5.117 -0.0772  0.1867 -0.1685
    1CHOL    R412165   4.675  10.898   4.895  0.0715  0.2214 -0.3008
    1CHOL    R512166   4.627  10.895   5.108 -0.0810  0.2914 -0.3330
    1CHOL    C112167   4.479  10.560   5.003 -0.1569  0.3336 -0.3595
    1CHOL    C212168   4.309  10.546   4.734  0.0642  0.0832  0.0127
    1CHOL   ROH12169   5.446  17.784   6.854 -0.2890  0.0359  0.1092
    1CHOL    R112170   5.425  17.718   6.580  0.0618  0.0463  0.0757
    1CHOL    R212171   5.217  17.806   6.422  0.0362 -0.2910 -0.0791
    1CHOL    R312172   5.419  17.898   6.264  0.0134  0.0966  0.1033
    1CHOL    R412173   5.181  17.900   6.091  0.1448 -0.3703 -0.1148
    1CHOL    R512174   5.372  17.803   6.048  0.3837 -0.0089  0.0580
    1CHOL    C112175   5.349  18.040   5.750  0.1866 -0.0529  0.0357
    1CHOL    C212176   5.327  18.193   5.406  0.0760  0.0898 -0.2032
    1CHOL   ROH12177  16.814  26.512   4.245 -0.1226  0.2126  0.1341
    1CHOL    R112178  16.685  26.261   4.266 -0.0838  0.1842  0.0371
    1CHOL    R212179  16.600  26.158   4.508  0.0295  0.0286  0.0108
    1CHOL    R312180  16.361  26.140   4.379 -0.0230  0.0778  0.0996
    1CHOL    R412181  16.371  25.902   4.551  0.1721 -0.1377 -0.1963
    1CHOL    R512182  16.334  25.906   4.336  0.0702  0.1140 -0.1798
    1CHOL    C112183  16.014  25.737   4.455  0.2059 -0.1884 -0.2336
    1CHOL    C212184  15.894  25.371   4.513  0.1411 -0.0745  0.2256
    1CHOL   ROH12185  13.929  17.546   3.393  0.0895  0.0265 -0.0812
    1CHOL    R112186  14.111  17.343   3.471  0.1365  0.1186  0.0526
    1CHOL    R212187  14.281  17.371   3.687 -0.1445  0.1456  0.2756
    1CHOL    R312188  14.166  17.137   3.765 -0.0822  0.0307  0.0345
    1CHOL    R412189  14.448  17.109   3.839 -0.0896  0.0681  0.0852
    1CHOL    R512190  14.332  16.970   3.719 -0.0076  0.1324 -0.0732
    1CHOL    C112191  14.438  16.738   4.002  0.0009 -0.0850 -0.2521
    1CHOL    C212192  14.233  16.416   3.905 -0.0479 -0.0606 -0.2915
    1CHOL   ROH12193  20.731  27.454   6.739 -0.2010  0.1439  0.1274
    1CHOL    R112194  20.728  27.545   6.471 -0.1814  0.1981  0.1448
    1CHOL    R212195  20.959  27.588   6.325 -0.1696  0.1791  0.1516
    1CHOL    R312196  20.839  27.421   6.147 -0.2059  0.2375  0.1221
    1CHOL    R412197  21.044  27.561   5.991 -0.0393  0.0674  0.1932
    1CHOL    R512198  20.832  27.547   5.944 -0.0259  0.2100  0.0997
    1CHOL    C112199  20.981  27.389   5.630  0.0025  0.0572  0.1898
    1CHOL    C212200  21.197  27.137   5.405  0.0092 -0.1294 -0.2223
    1CHOL   ROH12201  19.447  15.163   5.986 -0.0058 -0.0648  0.0710
    1CHOL    R112202  19.627  15.219   5.775  0.0216 -0.1981  0.0576
    1CHOL    R212203  19.596  15.114   5.521 -0.1088 -0.1276  0.0443
    1CHOL    R312204  19.609  15.375   5.447  0.1268 -0.1262  0.0852
    1CHOL    R412205  19.707  15.226   5.214  0.0237 -0.1819  0.0723
    1CHOL    R512206  19.810  15.389   5.316  0.1566 -0.2837  0.1094
    1CHOL    C112207  19.784  15.536   4.965  0.3223 -0.2122  0.1269
    1CHOL    C212208  19.630  15.433   4.597  0.0494 -0.1408  0.0975
    1CHOL   ROH12209  14.560   5.070   5.464 -0.0652 -0.0579  0.0179
    1CHOL    R112210  14.553   4.907   5.233 -0.0779 -0.0486  0.0138
    1CHOL    R212211  14.477   5.003   4.986 -0.0585 -0.0337  0.0226
    1CHOL    R312212  14.717   4.901   4.908 -0.0711 -0.0623  0.0150
    1CHOL    R412213  14.571   4.950   4.658  0.0137  0.2053  0.0014
    1CHOL    R512214  14.663   4.762   4.720 -0.0752  0.1102 -0.1210
    1CHOL    C112215  14.850   4.823   4.393  0.0439  0.3176 -0.0183
    1CHOL    C212216  14.876   5.132   4.120 -0.0518 -0.0132 -0.0640
    1CHOL   ROH12217   7.161  21.015   6.152 -0.0751 -0.4213 -0.0885
    1CHOL    R112218   7.157  21.043   5.870  0.1915  0.1152 -0.0515
    1CHOL    R212219   6.935  20.983   5.718  0.5582 -0.3479 -0.4329
    1CHOL    R312220   6.969  21.237   5.627 -0.1635 -0.0162  0.1091
    1CHOL    R412221   6.833  21.096   5.408  0.7538 -0.1625 -0.4325
    1CHOL    R512222   7.019  21.209   5.394  0.4115  0.5664  0.1303
    1CHOL    C112223   6.806  21.400   5.141  0.1902  0.2568  0.0765
    1CHOL    C212224   6.455  21.517   5.076  0.0016 -0.1927  0.1178
    1CHOL   ROH12225   1.958   8.392   6.503  0.2070 -0.1649  0.0704
    1CHOL    R112226   2.072   8.345   6.248  0.1140 -0.1597  0.0259
    1CHOL    R212227   1.919   8.299   6.023  0.0269 -0.1232  0.0679
    1CHOL    R312228   2.064   8.505   5.921  0.0180 -0.1304  0.0448
    1CHOL    R412229   2.032   8.319   5.697  0.2317 -0.2531  0.1302
    1CHOL    R512230   2.220   8.400   5.772  0.1489 -0.1487  0.2016
    1CHOL    C112231   2.234   8.524   5.412  0.3426 -0.3353  0.1448
    1CHOL    C212232   2.062   8.629   5.061  0.0072 -0.0224  0.0196
    1CHOL   ROH12233  28.207  15.687   4.457 -0.0281  0.0841  0.0130
    1CHOL    R112234  28.360  15.673   4.695  0.1079 -0.0625 -0.0809
    1CHOL    R212235  28.247  15.621   4.941  0.2033  0.0854 -0.0078
    1CHOL    R312236  28.433  15.423   4.948 -0.0078 -0.1214 -0.1033
    1CHOL    R412237  28.357  15.465   5.229  0.6146  0.4072  0.0191
    1CHOL    R512238  28.559  15.468   5.147  0.4642  0.0512 -0.4208
    1CHOL    C112239  28.596  15.188   5.403  0.6561  0.4006 -0.0549
    1CHOL    C212240  28.641  14.731   5.396  0.1489 -0.1443  0.0563
    1CHOL   ROH12241  19.212   8.940   2.473 -0.0235 -0.0545 -0.1504
    1CHOL    R112242  19.134   8.839   2.725  0.0280  0.0544 -0.0891
    1CHOL    R212243  18.908   8.683   2.761  0.0553  0.0258  0.0186
    1CHOL    R312244  19.084   8.511   2.875  0.1083  0.1178  0.0728
    1CHOL    R412245  18.827   8.448   3.001  0.1403  0.0574  0.0773
    1CHOL    R512246  19.013   8.496   3.103  0.1119  0.1472  0.0694
    1CHOL    C112247  18.946   8.149   3.248  0.2396  0.1620  0.1623
    1CHOL    C212248  19.002   7.745   3.437 -0.0422  0.1843  0.3557
    1CHOL   ROH12249  19.958   9.777   5.374  0.1644  0.1120 -0.0037
    1CHOL    R112250  20.046   9.779   5.105  0.0998 -0.0009 -0.0270
    1CHOL    R212251  20.171   9.562   4.988  0.1913 -0.0061  0.0733
    1CHOL    R312252  19.975   9.591   4.802  0.1292 -0.2240  0.1026
    1CHOL    R412253  20.224   9.604   4.649  0.0860 -0.0657  0.0494
    1CHOL    R512254  20.063   9.750   4.646 -0.0345 -0.1990  0.0354
    1CHOL    C112255  20.071   9.655   4.277 -0.0338 -0.3049  0.0629
    1CHOL    C212256  20.258   9.633   4.051 -0.0055  0.3780  0.5223
    1CHOL   ROH12257  20.510   6.102   2.576 -0.1543 -0.0521 -0.0449
    1CHOL    R112258  20.491   6.108   2.859 -0.1028  0.0665 -0.0445
    1CHOL    R212259  20.492   6.344   3.003 -0.2963  0.1361 -0.1611
    1CHOL    R312260  20.261   6.243   3.106 -0.1822 -0.0323 -0.0625
    1CHOL    R412261  20.382   6.395   3.326 -0.4154  0.4461 -0.2463
    1CHOL    R512262  20.317   6.187   3.332 -0.1378  0.3574  0.0331
    1CHOL    C112263  20.101   6.330   3.612 -0.3778  0.4686 -0.2034
    1CHOL    C212264  20.057   6.312   4.009 -0.1032  0.3470  0.3530
    1CHOL   ROH12265   5.372   8.770   6.371 -0.1772  0.0935 -0.1053
    1CHOL    R112266   5.369   8.575   6.166 -0.0321 -0.0141 -0.0076
    1CHOL    R212267   5.231   8.610   5.930 -0.0940 -0.2530 -0.0117
    1CHOL    R312268   5.473   8.556   5.818 -0.0577 -0.0965 -0.0103
    1CHOL    R412269   5.279   8.512   5.602 -0.0251 -0.2362 -0.0067
    1CHOL    R512270   5.430   8.371   5.671  0.0684 -0.1308 -0.0018
    1CHOL    C112271   5.534   8.404   5.306  0.0491 -0.0795 -0.0024
    1CHOL    C212272   5.628   8.030   5.212  0.1219 -0.4153  0.1521
    1CHOL   ROH12273   6.885   2.382   4.399  0.0975  0.2168  0.0016
    1CHOL    R112274   6.835   2.454   4.668  0.0124  0.0322  0.0370
    1CHOL    R212275   6.756   2.271   4.859  0.1622 -0.1402 -0.0633
    1CHOL    R312276   6.971   2.369   4.994  0.0663 -0.0169  0.0016
    1CHOL    R412277   6.743   2.416   5.172  0.0131 -0.3288  0.0200
    1CHOL    R512278   6.888   2.564   5.104 -0.1202 -0.1549  0.1103
    1CHOL    C112279   6.937   2.592   5.482 -0.1638 -0.3229  0.1294
    1CHOL    C212280   6.962   2.936   5.619 -0.0406 -0.0179  0.4346
    1CHOL   ROH12281   4.718  18.001   6.274 -0.2388  0.3635  0.0872
    1CHOL    R112282   4.468  18.068   6.158 -0.1455  0.1493 -0.2511
    1CHOL    R212283   4.420  18.047   5.886  0.0670 -0.4011 -0.2623
    1CHOL    R312284   4.210  17.896   5.968 -0.0037 -0.2255 -0.1102
    1CHOL    R412285   4.130  17.997   5.705 -0.0535 -0.2850 -0.1054
    1CHOL    R512286   4.017  18.014   5.890  0.0411 -0.1329 -0.0678
    1CHOL    C112287   3.764  17.825   5.676 -0.1902 -0.0522  0.1288
    1CHOL    C212288   3.592  17.967   5.302  0.0099  0.2018 -0.1058
    1CHOL   ROH12289  18.813   5.304   5.666 -0.0472 -0.2438 -0.1214
    1CHOL    R112290  18.881   5.184   5.419  0.1598 -0.1693 -0.1030
    1CHOL    R212291  18.792   5.283   5.176  0.0788 -0.2947 -0.1277
    1CHOL    R312292  19.057   5.285   5.116  0.0936  0.0482 -0.0707
    1CHOL    R412293  18.921   5.293   4.856  0.1285 -0.4941 -0.1149
    1CHOL    R512294  19.073   5.150   4.918  0.3461 -0.1789  0.0998
    1CHOL    C112295  19.245   5.301   4.613  0.1712 -0.2883 -0.0540
    1CHOL    C212296  19.390   5.429   4.294 -0.0029 -0.3693  0.1964
    1CHOL   ROH12297  26.918   5.416   7.742 -0.0447  0.0579 -0.0802
    1CHOL    R112298  26.865   5.557   7.503 -0.1287  0.1409 -0.0154
    1CHOL    R212299  26.848   5.432   7.256  0.1144  0.2636 -0.1087
    1CHOL    R312300  26.606   5.555   7.247 -0.0358 -0.0276 -0.1055
    1CHOL    R412301  26.739   5.634   6.999  0.0255  0.4840  0.1007
    1CHOL    R512302  26.650   5.767   7.147 -0.2441  0.1681  0.2188
    1CHOL    C112303  26.448   5.868   6.840 -0.1671  0.3391  0.2257
    1CHOL    C212304  26.322   6.106   6.619 -0.2174 -0.0128  0.1434
    1CHOL   ROH12305  24.679   9.021   3.612  0.1649  0.0999  0.0891
    1CHOL    R112306  24.420   9.030   3.727  0.0724  0.1561 -0.1185
    1CHOL    R212307  24.332   8.841   3.908 -0.1596  0.1083 -0.2851
    1CHOL    R312308  24.282   9.059   4.062 -0.1951  0.0520 -0.2156
    1CHOL    R412309  24.113   8.847   4.175  0.1492 -0.1431 -0.0166
    1CHOL    R512310  24.048   9.045   4.110 -0.1344 -0.1970  0.0653
    1CHOL    C112311  23.938   9.056   4.476  0.2957 -0.3423  0.2050
    1CHOL    C212312  23.968   8.762   4.722  0.0515 -0.1229  0.0244
    1CHOL   ROH12313   6.321   9.267   3.435  0.1101  0.1716  0.1109
    1CHOL    R112314   6.354   9.316   3.712  0.1164  0.1315  0.1174
    1CHOL    R212315   6.472   9.134   3.883  0.1425  0.1177  0.0834
    1CHOL    R312316   6.633   9.344   3.945  0.1229  0.1245  0.1111
    1CHOL    R412317   6.712   9.133   4.132  0.1673  0.0907  0.0592
    1CHOL    R512318   6.652   9.336   4.183  0.1471  0.0744  0.1087
    1CHOL    C112319   7.002   9.329   4.335  0.1634  0.0815  0.0711
    1CHOL    C212320   7.263   9.247   4.660 -0.1732 -0.0051  0.2830
    1CHOL   ROH12321  23.967   5.602   3.536 -0.2015 -0.0523 -0.1221
    1CHOL    R112322  23.744   5.464   3.644 -0.1157 -0.0632  0.0433
    1CHOL    R212323  23.771   5.243   3.807  0.0199  0.0677  0.2003
    1CHOL    R312324  23.615   5.389   3.976  0.0092  0.1298  0.1377
    1CHOL    R412325  23.606   5.116   4.083 -0.0124  0.1643  0.2265
    1CHOL    R512326  23.435   5.241   4.032 -0.0028  0.1552  0.1683
    1CHOL    C112327  23.364   5.178   4.402 -0.0413  0.2790  0.1830
    1CHOL    C212328  23.352   5.308   4.759 -0.0847  0.0935  0.0320
    1CHOL   ROH12329  20.500   3.765   6.180  0.2904 -0.2074  0.0207
    1CHOL    R112330  20.443   3.669   5.920  0.1003 -0.1069  0.0230
    1CHOL    R212331  20.305   3.820   5.733  0.1223  0.0407  0.1159
    1CHOL    R312332  20.523   3.767   5.579  0.0187 -0.0853  0.0117
    1CHOL    R412333  20.320   3.863   5.391  0.0655  0.2415  0.1380
    1CHOL    R512334  20.432   3.677   5.377 -0.1328  0.1380 -0.0179
    1CHOL    C112335  20.532   3.839   5.046 -0.0650  0.2403  0.0532
    1CHOL    C212336  20.487   3.770   4.641 -0.0372 -0.0439  0.3616
    1CHOL   ROH12337  17.554  22.697   4.836  0.0885  0.1772 -0.1328
    1CHOL    R112338  17.307  22.619   4.951  0.1608  0.0364 -0.0701
    1CHOL    R212339  17.241  22.677   5.213  0.1628  0.0633 -0.0717
    1CHOL    R312340  17.020  22.786   5.099  0.0696 -0.1212 -0.0698
    1CHOL    R412341  16.966  22.794   5.387  0.1091 -0.0638 -0.0704
    1CHOL    R512342  16.838  22.707   5.233  0.1434 -0.1973 -0.0188
    1CHOL    C112343  16.598  22.965   5.380 -0.0093 -0.3111 -0.0679
    1CHOL    C212344  16.536  22.968   5.746  0.0365  0.0679 -0.2034
    1CHOL   ROH12345  25.805   3.833   7.292 -0.0770 -0.0726  0.0265
    1CHOL    R112346  25.877   3.929   7.036  0.0928 -0.3693 -0.0389
    1CHOL    R212347  25.838   3.782   6.805 -0.3500 -0.3828  0.0523
    1CHOL    R312348  25.705   4.005   6.724  0.1854 -0.0718 -0.0253
    1CHOL    R412349  25.813   3.888   6.477 -0.4924 -0.7520 -0.0639
    1CHOL    R512350  25.841   4.093   6.547  0.2276 -0.7052 -0.3514
    1CHOL    C112351  25.675   4.159   6.210 -0.0727 -0.6751 -0.2043
    1CHOL    C212352  25.622   4.077   5.827 -0.0078 -0.2372 -0.1509
    1CHOL   ROH12353   5.983  11.166   3.536  0.1473  0.0526  0.0405
    1CHOL    R112354   5.942  11.227   3.810  0.1319  0.2385 -0.0020
    1CHOL    R212355   5.892  11.484   3.899 -0.2554  0.2491 -0.2263
    1CHOL    R312356   5.674  11.368   4.012 -0.0403 -0.0050 -0.0563
    1CHOL    R412357   5.723  11.606   4.175 -0.3278  0.1904 -0.2439
    1CHOL    R512358   5.703  11.402   4.247  0.0085  0.2033 -0.0899
    1CHOL    C112359   5.420  11.569   4.440 -0.1681 -0.0822 -0.0945
    1CHOL    C212360   5.177  11.457   4.721 -0.2192 -0.2745  0.2642
    1CHOL   ROH12361   1.731   3.505   4.821  0.0545 -0.0629 -0.1920
    1CHOL    R112362   1.677   3.548   5.096 -0.1665 -0.0284 -0.2376
    1CHOL    R212363   1.869   3.519   5.292 -0.3621 -0.1817 -0.0520
    1CHOL    R312364   1.795   3.773   5.357 -0.2297 -0.1249 -0.1285
    1CHOL    R412365   1.986   3.697   5.565 -0.1540 -0.0836 -0.2034
    1CHOL    R512366   1.784   3.773   5.595 -0.0995  0.0028 -0.1289
    1CHOL    C112367   1.984   4.038   5.784  0.0915  0.0268 -0.3635
    1CHOL    C212368   2.230   4.201   5.991  0.0572 -0.3794 -0.1890
    1CHOL   ROH12369  15.715   2.014   2.822  0.2400  0.0573  0.0340
    1CHOL    R112370  15.595   1.972   3.075  0.0802 -0.1056 -0.0664
    1CHOL    R212371  15.714   1.819   3.272  0.0357 -0.0949 -0.0302
    1CHOL    R312372  15.678   2.043   3.422 -0.2201 -0.1661  0.0205
    1CHOL    R412373  15.742   1.833   3.617  0.0815 -0.1261 -0.0327
    1CHOL    R512374  15.569   1.966   3.620 -0.0868 -0.3439  0.0262
    1CHOL    C112375  15.725   2.052   3.958 -0.1319 -0.2111  0.0135
    1CHOL    C212376  15.435   2.268   4.254  0.1321  0.0639  0.0322
    1CHOL   ROH12377  13.974   1.732   3.436 -0.0001 -0.1764  0.0741
    1CHOL    R112378  14.220   1.812   3.552  0.0111 -0.1355  0.0230
    1CHOL    R212379  14.264   2.069   3.646 -0.0612 -0.1649  0.1428
    1CHOL    R312380  14.331   1.939   3.875  0.0795 -0.2604  0.0490
    1CHOL    R412381  14.441   2.208   3.908  0.0735 -0.2666  0.1066
    1CHOL    R512382  14.549   2.020   3.928  0.1019 -0.2658 -0.0368
    1CHOL    C112383  14.607   2.167   4.275  0.2840 -0.4156 -0.0025
    1CHOL    C212384  14.880   2.229   4.488 -0.0221 -0.0172 -0.0854
    1CHOL   ROH12385  19.373   7.701   5.595  0.3431 -0.2877 -0.1312
    1CHOL    R112386  19.256   7.623   5.350  0.2966 -0.3325 -0.0965
    1CHOL    R212387  19.244   7.360   5.267  0.0320 -0.3859  0.0784
    1CHOL    R312388  18.979   7.411   5.244  0.0884 -0.1168  0.0129
    1CHOL    R412389  19.031   7.199   5.048 -0.1032 -0.2368  0.1000
    1CHOL    R512390  18.935   7.391   5.009  0.1055 -0.1522  0.0167
    1CHOL    C112391  18.658   7.154   4.898 -0.1287  0.1027  0.0512
    1CHOL    C212392  18.714   6.957   4.590 -0.3022  0.0737  0.0176
    1CHOL   ROH12393  16.213   6.011   5.242 -0.0537  0.1089  0.1020
    1CHOL    R112394  16.127   5.939   4.982  0.1288 -0.1297  0.1037
    1CHOL    R212395  16.012   6.121   4.808 -0.1707 -0.3860  0.0254
    1CHOL    R312396  16.208   6.035   4.641  0.0270 -0.0805  0.0929
    1CHOL    R412397  16.022   6.182   4.468 -0.1635 -0.3931  0.0242
    1CHOL    R512398  16.093   5.979   4.439  0.1804 -0.2849  0.0602
    1CHOL    C112399  16.213   6.138   4.113  0.0262 -0.1105  0.0869
    1CHOL    C212400  16.218   6.330   3.828  0.2183  0.1123  0.0395
    1CHOL   ROH12401   0.920  17.785   4.469  0.2045 -0.1502 -0.0689
    1CHOL    R112402   0.926  17.663   4.724  0.1569 -0.1360 -0.0600
    1CHOL    R212403   1.162  17.609   4.858  0.1290  0.0362  0.0684
    1CHOL    R312404   1.043  17.752   5.057 -0.0793 -0.0361 -0.0021
    1CHOL    R412405   1.222  17.566   5.195  0.0517  0.1661  0.0988
    1CHOL    R512406   1.009  17.593   5.232  0.0129 -0.0319  0.0179
    1CHOL    C112407   1.146  17.674   5.579 -0.1888  0.1741  0.0504
    1CHOL    C212408   1.294  17.988   5.973 -0.0636 -0.2550  0.1009
    1CHOL   ROH12409  19.231   6.202   5.698  0.0707 -0.0328  0.1102
    1CHOL    R112410  19.413   6.264   5.490  0.0369  0.0124  0.0944
    1CHOL    R212411  19.427   6.118   5.255  0.0993 -0.0262  0.1241
    1CHOL    R312412  19.392   6.362   5.140 -0.0161 -0.0645  0.0755
    1CHOL    R412413  19.505   6.195   4.928  0.0344 -0.0637  0.0992
    1CHOL    R512414  19.581   6.387   4.996 -0.0396 -0.0153  0.0511
    1CHOL    C112415  19.518   6.468   4.628 -0.1117 -0.1215  0.0390
    1CHOL    C212416  19.538   6.498   4.197  0.0798  0.0445  0.0799
    1CHOL   ROH12417  17.248   1.530   6.073  0.1178  0.1119  0.1319
    1CHOL    R112418  17.437   1.684   5.928  0.2204 -0.1267  0.0053
    1CHOL    R212419  17.576   1.584   5.711 -0.2572 -0.2252 -0.2712
    1CHOL    R312420  17.475   1.803   5.587 -0.0222  0.0757  0.0463
    1CHOL    R412421  17.700   1.720   5.419 -0.3959 -0.2141 -0.3252
    1CHOL    R512422  17.667   1.918   5.503  0.0860 -0.2130 -0.1120
    1CHOL    C112423  17.677   2.006   5.132 -0.2559  0.0748 -0.0586
    1CHOL    C212424  17.854   1.933   4.880  0.1835  0.0129 -0.1089
    1CHOL   ROH12425  24.579  26.488   3.744 -0.0820 -0.1423 -0.1135
    1CHOL    R112426  24.531  26.343   3.982 -0.0385 -0.1565 -0.1121
    1CHOL    R212427  24.735  26.254   4.146 -0.0058 -0.1785 -0.1581
    1CHOL    R312428  24.597  26.389   4.337  0.0401 -0.1814 -0.1243
    1CHOL    R412429  24.778  26.213   4.486  0.0386 -0.2132 -0.1687
    1CHOL    R512430  24.562  26.227   4.511  0.0472 -0.1903 -0.1345
    1CHOL    C112431  24.674  26.317   4.864  0.1076 -0.2363 -0.1431
    1CHOL    C212432  24.600  26.347   5.281 -0.0183  0.0411 -0.3327
    1CHOL   ROH12433   4.183  19.459   6.700 -0.0059  0.2658  0.1011
    1CHOL    R112434   4.014  19.614   6.533 -0.0279  0.1305 -0.0036
    1CHOL    R212435   4.102  19.839   6.399 -0.0849  0.1075 -0.0768
    1CHOL    R312436   4.004  19.708   6.182  0.0152 -0.0206 -0.0468
    1CHOL    R412437   4.076  19.973   6.082 -0.3639  0.0856 -0.0661
    1CHOL    R512438   3.883  19.876   6.061 -0.2473 -0.1716 -0.0049
    1CHOL    C112439   3.969  19.929   5.693 -0.4324 -0.0473 -0.0318
    1CHOL    C212440   3.800  19.967   5.367 -0.0112 -0.0497  0.1328
    1CHOL   ROH12441  19.135  12.621   5.893  0.1504  0.0796 -0.0299
    1CHOL    R112442  19.070  12.762   5.657  0.1837  0.1426 -0.0020
    1CHOL    R212443  18.918  12.993   5.658  0.0446  0.0537  0.0235
    1CHOL    R312444  19.131  13.094   5.522  0.0536  0.2382  0.1718
    1CHOL    R412445  18.909  13.276   5.459 -0.0908 -0.0152 -0.0690
    1CHOL    R512446  19.037  13.173   5.316  0.1407  0.0759  0.0686
    1CHOL    C112447  19.103  13.535   5.216 -0.1609  0.1180  0.0164
    1CHOL    C212448  19.206  13.820   5.019  0.1213 -0.1610  0.0345
    1CHOL   ROH12449   9.424   0.486   6.788 -0.0929  0.1447 -0.0203
    1CHOL    R112450   9.412   0.541   6.511 -0.1242 -0.0108 -0.0513
    1CHOL    R212451   9.588   0.429   6.329 -0.0563 -0.0059  0.0100
    1CHOL    R312452   9.359   0.351   6.205 -0.0105 -0.2079  0.0494
    1CHOL    R412453   9.568   0.312   6.004 -0.0468  0.3004 -0.1044
    1CHOL    R512454   9.384   0.426   5.979 -0.2289  0.0671  0.1093
    1CHOL    C112455   9.342   0.170   5.699  0.0017  0.2893 -0.1341
    1CHOL    C212456   8.991   0.324   5.264 -0.0749 -0.0838 -0.0221
    1CHOL   ROH12457  18.413  18.796   5.696  0.0696  0.0608 -0.0945
    1CHOL    R112458  18.349  18.734   5.427  0.0630 -0.0283 -0.0737
    1CHOL    R212459  18.201  18.512   5.357 -0.0876  0.0355  0.0145
    1CHOL    R312460  18.046  18.695   5.229  0.0610  0.0873 -0.0913
    1CHOL    R412461  17.999  18.443   5.086 -0.0587  0.0762 -0.0163
    1CHOL    R512462  18.061  18.633   4.998  0.0817  0.0033 -0.0637
    1CHOL    C112463  17.735  18.575   4.807  0.0977  0.1486 -0.1335
    1CHOL    C212464  18.080  18.477   4.478  0.0149  0.1322  0.0166
    1CHOL   ROH12465  24.357   0.985   6.809 -0.0479 -0.2746 -0.0473
    1CHOL    R112466  24.345   1.014   6.527 -0.0184 -0.2563 -0.0477
    1CHOL    R212467  24.448   1.234   6.395 -0.1391 -0.1711 -0.0127
    1CHOL    R312468  24.584   1.046   6.255  0.0102 -0.0727  0.0003
    1CHOL    R412469  24.571   1.277   6.075  0.0553 -0.0208  0.0805
    1CHOL    R512470  24.509   1.073   6.029  0.1511 -0.0174 -0.0360
    1CHOL    C112471  24.771   1.125   5.757  0.3087  0.1590  0.1470
    1CHOL    C212472  24.963   0.899   5.449  0.1412  0.0186 -0.1464
    1CHOL   ROH12473  25.844   1.656   4.188  0.0157 -0.2534  0.1469
    1CHOL    R112474  25.673   1.528   4.374 -0.1866 -0.0267  0.1233
    1CHOL    R212475  25.768   1.403   4.602 -0.3753 -0.2185  0.1010
    1CHOL    R312476  25.589   1.566   4.726 -0.1272  0.0401  0.1303
    1CHOL    R412477  25.747   1.449   4.944 -0.4032 -0.3719  0.1204
    1CHOL    R512478  25.530   1.447   4.926 -0.4076  0.0303  0.0455
    1CHOL    C112479  25.567   1.628   5.260 -0.1867 -0.2184  0.1593
    1CHOL    C212480  25.357   1.807   5.618  0.1243  0.0706  0.1381
    1CHOL   ROH12481  14.327   2.778   2.854 -0.2072  0.1381 -0.1549
    1CHOL    R112482  14.415   2.836   3.116 -0.2985 -0.0584 -0.0776
    1CHOL    R212483  14.510   3.085   3.189  0.0054 -0.2036  0.0541
    1CHOL    R312484  14.319   3.066   3.382 -0.1588  0.0050 -0.0828
    1CHOL    R412485  14.528   3.233   3.501 -0.0468 -0.2562  0.0820
    1CHOL    R512486  14.443   3.052   3.587 -0.3243 -0.1618  0.0058
    1CHOL    C112487  14.360   3.301   3.864 -0.2315 -0.0911 -0.0303
    1CHOL    C212488  14.357   3.112   4.168 -0.0768 -0.1124  0.0507
    1CHOL   ROH12489  23.696  26.470   3.975  0.0785  0.0445  0.0569
    1CHOL    R112490  23.631  26.293   4.186  0.0738 -0.0045  0.0145
    1CHOL    R212491  23.726  26.327   4.443 -0.0337  0.0080  0.0523
    1CHOL    R312492  23.462  26.317   4.508 -0.0536 -0.1079 -0.0431
    1CHOL    R412493  23.602  26.311   4.765 -0.1403 -0.1189  0.0058
    1CHOL    R512494  23.453  26.168   4.695 -0.0629 -0.1590 -0.0829
    1CHOL    C112495  23.282  26.292   5.014 -0.2209 -0.3016 -0.1108
    1CHOL    C212496  23.545  26.136   5.269 -0.3326  0.2652 -0.0713
    1CHOL   ROH12497   8.153  19.072   6.029 -0.1005 -0.1983  0.0883
    1CHOL    R112498   8.184  18.878   5.825  0.0061 -0.2195  0.1235
    1CHOL    R212499   8.275  18.942   5.572 -0.0737 -0.2070  0.0959
    1CHOL    R312500   8.458  18.748   5.624  0.0704 -0.0682  0.1124
    1CHOL    R412501   8.456  18.772   5.332 -0.1404 -0.2759  0.0944
    1CHOL    R512502   8.428  18.589   5.447  0.0390 -0.2111  0.2443
    1CHOL    C112503   8.734  18.491   5.241 -0.0441 -0.1857  0.1089
    1CHOL    C212504   8.909  18.549   4.944 -0.1849 -0.2037  0.0791
    1CHOL   ROH12505  25.722  28.320   7.077  0.1326 -0.3878  0.2228
    1CHOL    R112506  25.583  28.214   6.854 -0.0044 -0.1066  0.1683
    1CHOL    R212507  25.510  28.369   6.637  0.2089  0.0927  0.2235
    1CHOL    R312508  25.644  28.178   6.497 -0.0330 -0.0313  0.1582
    1CHOL    R412509  25.516  28.343   6.292  0.1284  0.1478  0.2189
    1CHOL    R512510  25.500  28.127   6.313 -0.1143  0.1673  0.1728
    1CHOL    C112511  25.645  28.149   5.961 -0.1455  0.0636  0.1550
    1CHOL    C212512  25.353  27.991   5.742  0.3347  0.0809  0.0841
    1CHOL   ROH12513   6.001   5.904   3.889  0.0421 -0.0811 -0.0309
    1CHOL    R112514   5.928   5.897   4.162  0.0285 -0.1091 -0.0352
    1CHOL    R212515   6.113   5.884   4.366  0.0187 -0.1306 -0.0271
    1CHOL    R312516   5.983   6.104   4.456  0.0146 -0.1394 -0.0115
    1CHOL    R412517   6.184   6.047   4.662  0.1059 -0.0681 -0.0817
    1CHOL    R512518   5.969   6.072   4.693  0.1141 -0.1020 -0.0008
    1CHOL    C112519   6.102   6.349   4.920  0.1529 -0.0400 -0.0988
    1CHOL    C212520   6.244   6.796   5.089 -0.2392 -0.3239 -0.0945
    1CHOL   ROH12521  23.975   4.721   6.683 -0.1421  0.0074  0.0010
    1CHOL    R112522  24.162   4.717   6.470 -0.1189 -0.0075  0.0218
    1CHOL    R212523  24.109   4.595   6.228 -0.1061  0.0064  0.0132
    1CHOL    R312524  24.174   4.839   6.127 -0.0661  0.0016  0.0266
    1CHOL    R412525  24.157   4.663   5.893 -0.1628  0.0313  0.0097
    1CHOL    R512526  24.326   4.790   5.948 -0.1176 -0.0174 -0.0126
    1CHOL    C112527  24.246   4.932   5.603 -0.1582  0.0415  0.0204
    1CHOL    C212528  24.259   4.973   5.162  0.2420 -0.2845  0.2894
    1CHOL   ROH12529   9.729   4.282   6.277 -0.0162  0.0372 -0.0897
    1CHOL    R112530   9.692   4.221   6.003  0.0370 -0.0922 -0.0699
    1CHOL    R212531   9.771   3.981   5.892 -0.0082 -0.1790  0.0719
    1CHOL    R312532   9.512   3.972   5.809  0.0090 -0.1364  0.0149
    1CHOL    R412533   9.643   3.749   5.670 -0.0043 -0.1484  0.0382
    1CHOL    R512534   9.526   3.908   5.579  0.0433 -0.1310  0.0191
    1CHOL    C112535   9.326   3.604   5.464  0.0141 -0.0906 -0.0350
    1CHOL    C212536   9.276   3.762   5.062 -0.1753 -0.2323 -0.1982
    1CHOL   ROH12537  18.096   9.103   5.324  0.0400 -0.1191  0.0632
    1CHOL    R112538  18.314   9.164   5.154  0.0192  0.0404  0.0925
    1CHOL    R212539  18.410   8.986   4.966  0.1589  0.1201  0.0904
    1CHOL    R312540  18.370   9.194   4.795  0.0410  0.1066  0.1008
    1CHOL    R412541  18.537   9.006   4.645  0.0751  0.1632  0.0596
    1CHOL    R512542  18.578   9.218   4.679  0.0072  0.1808  0.0505
    1CHOL    C112543  18.572   9.213   4.298 -0.0843  0.1755  0.0514
    1CHOL    C212544  18.624   9.272   3.962 -0.2099  0.0359  0.0133
    1CHOL   ROH12545   8.100   0.660   4.353 -0.0501 -0.1720 -0.0582
    1CHOL    R112546   8.176   0.678   4.625 -0.1175  0.0295 -0.0523
    1CHOL    R212547   8.404   0.557   4.723 -0.2345 -0.0399  0.1252
    1CHOL    R312548   8.461   0.808   4.811 -0.0798  0.0045 -0.0898
    1CHOL    R412549   8.613   0.630   4.989 -0.2911  0.0458  0.1481
    1CHOL    R512550   8.473   0.786   5.050 -0.2018  0.2177 -0.0581
    1CHOL    C112551   8.789   0.907   5.226 -0.1788  0.1373 -0.0404
    1CHOL    C212552   8.789   0.997   5.636  0.0381  0.3230  0.4108
    1CHOL   ROH12553   4.762   4.793   7.080  0.1462  0.0586  0.0220
    1CHOL    R112554   4.732   4.798   6.799  0.0291  0.0388  0.0334
    1CHOL    R212555   4.491   4.746   6.674 -0.0248  0.0298  0.1359
    1CHOL    R312556   4.535   4.987   6.557 -0.0719  0.0220  0.1029
    1CHOL    R412557   4.523   4.798   6.334  0.0944 -0.0265  0.1382
    1CHOL    R512558   4.684   4.939   6.376  0.0205  0.0440  0.1741
    1CHOL    C112559   4.583   5.055   6.026  0.1196 -0.0666  0.1087
    1CHOL    C212560   4.835   4.898   5.782 -0.3366  0.0827 -0.1722
    1CHOL   ROH12561  23.312  26.386   6.848 -0.2283  0.3061 -0.0911
    1CHOL    R112562  23.456  26.407   6.606  0.0961 -0.0312  0.0630
    1CHOL    R212563  23.602  26.197   6.500 -0.3130 -0.4037  0.2047
    1CHOL    R312564  23.451  26.246   6.280  0.0324  0.0106  0.0444
    1CHOL    R412565  23.709  26.159   6.174 -0.0645 -0.6208  0.3074
    1CHOL    R512566  23.603  26.342   6.122  0.4426 -0.3415  0.2126
    1CHOL    C112567  23.629  26.182   5.777  0.4045 -0.3584  0.2168
    1CHOL    C212568  23.678  26.502   5.596  0.2057  0.0953 -0.0009
    1CHOL   ROH12569  23.742  15.728   6.518 -0.0077 -0.1692  0.1365
    1CHOL    R112570  23.780  15.596   6.270 -0.0185 -0.1167  0.1068
    1CHOL    R212571  23.572  15.540   6.098 -0.0282 -0.0953  0.1114
    1CHOL    R312572  23.727  15.674   5.919 -0.0508 -0.0488  0.1266
    1CHOL    R412573  23.534  15.526   5.754 -0.0048 -0.0903  0.1087
    1CHOL    R512574  23.751  15.522   5.735 -0.0021 -0.0354  0.1215
    1CHOL    C112575  23.657  15.644   5.386 -0.0123 -0.0438  0.1214
    1CHOL    C212576  23.454  15.506   4.995 -0.2147 -0.1301 -0.0801
    1CHOL   ROH12577  25.160  28.099   4.049 -0.3283  0.3170 -0.0103
    1CHOL    R112578  25.051  28.149   4.305 -0.3119  0.1801  0.0249
    1CHOL    R212579  24.813  28.037   4.390 -0.1640 -0.1011  0.0930
    1CHOL    R312580  24.964  27.952   4.599  0.0018  0.0629  0.0414
    1CHOL    R412581  24.687  27.920   4.690  0.0751 -0.0706  0.2069
    1CHOL    R512582  24.846  28.028   4.793  0.0668  0.0590  0.0796
    1CHOL    C112583  24.756  27.772   5.060  0.3699  0.1011  0.2247
    1CHOL    C212584  24.427  27.843   5.212  0.2079  0.0397 -0.3366
    1CHOL   ROH12585  24.046  28.592   6.903 -0.0466  0.0459  0.0612
    1CHOL    R112586  23.987  28.737   6.668 -0.1309 -0.1934 -0.0679
    1CHOL    R212587  24.152  28.936   6.570 -0.4120  0.0523 -0.0506
    1CHOL    R312588  24.143  28.788   6.343  0.0294 -0.1004  0.0223
    1CHOL    R412589  24.264  29.042   6.261 -0.5154  0.1496 -0.0558
    1CHOL    R512590  24.091  28.946   6.171 -0.2640 -0.3055 -0.0856
    1CHOL    C112591  24.321  28.964   5.868 -0.1612  0.0627  0.0097
    1CHOL    C212592  24.224  29.249   5.652 -0.2225 -0.2608  0.3013
    1CHOL   ROH12593   4.511   7.979   3.818 -0.1347 -0.2039 -0.1433
    1CHOL    R112594   4.520   8.074   4.085 -0.1654 -0.0741 -0.1876
    1CHOL    R212595   4.298   8.073   4.250 -0.1538 -0.1199 -0.1694
    1CHOL    R312596   4.462   7.935   4.416 -0.0621  0.0472 -0.1190
    1CHOL    R412597   4.303   8.106   4.594 -0.3332 -0.1635 -0.1617
    1CHOL    R512598   4.520   8.093   4.587 -0.3153  0.0901 -0.0715
    1CHOL    C112599   4.460   7.995   4.951 -0.3516 -0.0318 -0.1099
    1CHOL    C212600   4.439   8.339   5.267 -0.2016 -0.1432 -0.3338
    1CHOL   ROH12601  22.658  17.867   5.818  0.0773  0.2225 -0.0365
    1CHOL    R112602  22.709  17.942   5.550 -0.0157  0.2879 -0.0367
    1CHOL    R212603  22.662  17.774   5.337  0.3059  0.1772 -0.0298
    1CHOL    R312604  22.515  17.984   5.245 -0.0530 -0.0814 -0.0670
    1CHOL    R412605  22.596  17.838   5.003  0.2998  0.0805 -0.0472
    1CHOL    R512606  22.626  18.051   5.043 -0.1045  0.1386 -0.0232
    1CHOL    C112607  22.420  18.072   4.723 -0.0405 -0.2187 -0.0923
    1CHOL    C212608  22.424  18.301   4.481 -0.2231 -0.2501 -0.1083
    1CHOL   ROH12609  15.938  26.908   6.427  0.0184 -0.0427  0.0215
    1CHOL    R112610  15.691  26.827   6.315  0.0244 -0.1618  0.0896
    1CHOL    R212611  15.523  27.003   6.182 -0.1652 -0.2080  0.2502
    1CHOL    R312612  15.542  26.819   5.983 -0.1115 -0.0944  0.1502
    1CHOL    R412613  15.281  26.945   5.942 -0.0499 -0.0158  0.0854
    1CHOL    R512614  15.320  26.732   5.960 -0.1150 -0.0298 -0.0216
    1CHOL    C112615  15.158  26.739   5.615  0.0676  0.2030 -0.1045
    1CHOL    C212616  14.881  26.602   5.487 -0.0254  0.1899  0.0791
    1CHOL   ROH12617  18.222   3.476   5.972 -0.2906  0.0056  0.0174
    1CHOL    R112618  18.220   3.361   5.713 -0.3139 -0.0347  0.0375
    1CHOL    R212619  17.992   3.344   5.559 -0.2619  0.2118 -0.0492
    1CHOL    R312620  18.144   3.473   5.375 -0.0359 -0.0040 -0.0220
    1CHOL    R412621  17.962   3.306   5.217 -0.3750  0.3370 -0.0554
    1CHOL    R512622  18.180   3.310   5.203 -0.3440 -0.0472 -0.0670
    1CHOL    C112623  18.088   3.405   4.845 -0.2283  0.2072 -0.0334
    1CHOL    C212624  17.938   3.210   4.610 -0.0665  0.0594  0.1961
    1CHOL   ROH12625  19.724   5.674   2.430  0.0368  0.0053  0.1558
    1CHOL    R112626  19.527   5.770   2.609 -0.0381  0.0091  0.0730
    1CHOL    R212627  19.408   5.609   2.800 -0.0626  0.0308  0.0782
    1CHOL    R312628  19.492   5.804   2.970 -0.1531  0.0910  0.0544
    1CHOL    R412629  19.355   5.609   3.141  0.0911 -0.0376  0.1026
    1CHOL    R512630  19.315   5.823   3.130 -0.0977 -0.0715  0.1354
    1CHOL    C112631  19.404   5.791   3.500  0.0955 -0.0209  0.0945
    1CHOL    C212632  19.163   5.885   3.788  0.2420 -0.0563 -0.0946
    1CHOL   ROH12633  15.081  28.057   5.824  0.1251  0.0786 -0.0417
    1CHOL    R112634  15.015  27.925   5.583  0.0862  0.0968 -0.0409
    1CHOL    R212635  15.140  27.982   5.343  0.1217  0.0396 -0.0348
    1CHOL    R312636  15.187  27.714   5.341  0.0158  0.0202 -0.0251
    1CHOL    R412637  15.238  27.800   5.066  0.2500  0.0282  0.0167
    1CHOL    R512638  15.104  27.640   5.129  0.1383  0.0748 -0.0942
    1CHOL    C112639  15.339  27.442   4.903  0.2251  0.0038  0.0559
    1CHOL    C212640  15.414  27.090   4.706  0.0338  0.0507  0.3776
    1CHOL   ROH12641  23.890   6.280   6.362  0.0101  0.3260  0.0512
    1CHOL    R112642  24.055   6.222   6.140 -0.0570  0.2226  0.0276
    1CHOL    R212643  24.100   6.403   5.936  0.0286  0.1970  0.0226
    1CHOL    R312644  24.361   6.357   5.995  0.0092  0.0316 -0.0136
    1CHOL    R412645  24.367   6.511   5.745  0.0741  0.0285 -0.0116
    1CHOL    R512646  24.464   6.319   5.782 -0.0423 -0.0329 -0.0265
    1CHOL    C112647  24.768   6.531   5.690  0.0821 -0.2249 -0.0655
    1CHOL    C212648  25.123   6.529   5.474  0.1216  0.0402 -0.1445
    1CHOL   ROH12649  18.656  25.041   3.865  0.1564 -0.0181  0.0949
    1CHOL    R112650  18.454  25.016   4.061  0.1174  0.0476  0.0635
    1CHOL    R212651  18.424  24.789   4.216 -0.0311  0.0242  0.0030
    1CHOL    R312652  18.440  24.966   4.421  0.0452 -0.0357  0.0496
    1CHOL    R412653  18.273  24.748   4.524  0.0402 -0.0425  0.0296
    1CHOL    R512654  18.222  24.960   4.522  0.0690 -0.0340  0.1023
    1CHOL    C112655  18.199  24.891   4.896  0.1535 -0.1376  0.0888
    1CHOL    C212656  18.227  25.036   5.210  0.0245  0.1218 -0.1829
    1CHOL   ROH12657   3.419   0.532   7.018 -0.2275 -0.3640  0.0034
    1CHOL    R112658   3.580   0.571   6.788 -0.1450 -0.3447  0.0656
    1CHOL    R212659   3.550   0.421   6.558 -0.0920 -0.2926  0.0314
    1CHOL    R312660   3.526   0.665   6.440 -0.0101 -0.2674  0.0634
    1CHOL    R412661   3.658   0.497   6.239 -0.3570 -0.3844 -0.0844
    1CHOL    R512662   3.729   0.690   6.314 -0.1129 -0.4395 -0.1483
    1CHOL    C112663   3.699   0.771   5.942 -0.4344 -0.4142 -0.1219
    1CHOL    C212664   3.617   1.079   5.758  0.3769  0.1379 -0.2304
    1CHOL   ROH12665   8.743   6.967   6.120 -0.1752  0.1349  0.0586
    1CHOL    R112666   8.926   6.961   5.904 -0.1061  0.0634  0.1184
    1CHOL    R212667   8.975   6.732   5.757 -0.0713  0.0187  0.1989
    1CHOL    R312668   8.911   6.892   5.547  0.0046 -0.0375  0.1325
    1CHOL    R412669   9.127   6.721   5.447  0.0898 -0.0195  0.2782
    1CHOL    R512670   9.121   6.939   5.441  0.0510 -0.0208  0.2297
    1CHOL    C112671   9.155   6.865   5.069  0.2550 -0.0945  0.2620
    1CHOL    C212672   9.054   6.904   4.678 -0.0590  0.1212 -0.0038
    1CHOL   ROH12673  17.746  11.147   5.804  0.0612 -0.1767 -0.0545
    1CHOL    R112674  17.884  11.298   5.608  0.3022 -0.3417 -0.0146
    1CHOL    R212675  18.062  11.184   5.430 -0.1320 -0.6468 -0.2644
    1CHOL    R312676  17.905  11.304   5.245  0.0226 -0.0467 -0.0315
    1CHOL    R412677  18.150  11.236   5.100 -0.2873 -0.6888 -0.3138
    1CHOL    R512678  18.057  11.432   5.111  0.2902 -0.3962 -0.0842
    1CHOL    C112679  18.053  11.379   4.734 -0.2326 -0.1499 -0.1240
    1CHOL    C212680  18.215  11.748   4.579  0.2255  0.1931 -0.0684
    1CHOL   ROH12681  13.520   3.598   5.603  0.0807 -0.0053 -0.0758
    1CHOL    R112682  13.668   3.675   5.374  0.0843  0.0805 -0.0458
    1CHOL    R212683  13.925   3.586   5.327  0.0732  0.0646 -0.0968
    1CHOL    R312684  13.820   3.508   5.089  0.0497  0.1898 -0.1276
    1CHOL    R412685  14.108   3.535   5.038  0.0462  0.1554 -0.1298
    1CHOL    R512686  13.946   3.629   4.925  0.0627  0.2344 -0.0803
    1CHOL    C112687  14.115   3.432   4.646  0.0085  0.3260 -0.1778
    1CHOL    C212688  14.336   3.611   4.382  0.0083  0.1233  0.1528
    1CHOL   ROH12689  24.506  20.301   6.586 -0.1690 -0.2082 -0.1929
    1CHOL    R112690  24.511  20.348   6.307 -0.0902 -0.1417 -0.1803
    1CHOL    R212691  24.520  20.603   6.199 -0.1564 -0.1138 -0.1174
    1CHOL    R312692  24.737  20.505   6.069 -0.0704  0.0062 -0.0656
    1CHOL    R412693  24.603  20.675   5.871 -0.2736 -0.2831 -0.1863
    1CHOL    R512694  24.661  20.467   5.845 -0.0619 -0.2488 -0.0285
    1CHOL    C112695  24.856  20.626   5.559 -0.2610 -0.2692 -0.1777
    1CHOL    C212696  24.825  20.591   5.232 -0.0176 -0.1574 -0.1002
    1CHOL   ROH12697  15.250  27.312   3.385 -0.0056  0.0148  0.0056
    1CHOL    R112698  15.354  27.503   3.566 -0.0602  0.0848 -0.0358
    1CHOL    R212699  15.220  27.581   3.794 -0.0406  0.0254 -0.0019
    1CHOL    R312700  15.452  27.510   3.916  0.0340  0.1597 -0.0634
    1CHOL    R412701  15.290  27.631   4.129 -0.0126 -0.0141 -0.0019
    1CHOL    R512702  15.493  27.687   4.073 -0.0635  0.1470 -0.0246
    1CHOL    C112703  15.548  27.593   4.438  0.0735  0.0889 -0.0596
    1CHOL    C212704  15.791  27.687   4.759  0.0589  0.1939  0.0581
    1CHOL   ROH12705  18.286  17.749   3.424 -0.1208  0.1869  0.0152
    1CHOL    R112706  18.280  17.917   3.652 -0.0154  0.1715  0.0300
    1CHOL    R212707  18.128  17.859   3.875 -0.0825  0.2666  0.0100
    1CHOL    R312708  18.366  17.887   4.004 -0.0726  0.0733  0.0360
    1CHOL    R412709  18.164  17.967   4.202 -0.0428  0.0205  0.0884
    1CHOL    R512710  18.338  18.083   4.139  0.0088 -0.0089  0.1746
    1CHOL    C112711  18.408  18.055   4.513 -0.0103 -0.3043  0.1584
    1CHOL    C212712  18.408  18.239   4.804  0.0067 -0.1020 -0.3653
    1CHOL   ROH12713   9.298  19.019   5.804  0.0483 -0.2119 -0.1690
    1CHOL    R112714   9.413  19.173   5.596 -0.0254 -0.1280 -0.1476
    1CHOL    R212715   9.669  19.128   5.502 -0.0108 -0.0003 -0.1611
    1CHOL    R312716   9.543  19.110   5.262 -0.0069 -0.0157 -0.1629
    1CHOL    R412717   9.819  19.184   5.196 -0.0018 -0.0158 -0.1601
    1CHOL    R512718   9.638  19.287   5.132 -0.0040 -0.0196 -0.1702
    1CHOL    C112719   9.788  19.199   4.792  0.0072 -0.0391 -0.1613
    1CHOL    C212720  10.179  18.947   4.695  0.1950 -0.0199  0.3165
    1CHOL   ROH12721   7.166  14.980   2.493 -0.0176 -0.0275 -0.0256
    1CHOL    R112722   7.186  15.163   2.708 -0.2942 -0.0329  0.0093
    1CHOL    R212723   7.030  15.144   2.935 -0.1607 -0.4126  0.0821
    1CHOL    R312724   7.270  15.147   3.061 -0.0966  0.0444 -0.0345
    1CHOL    R412725   7.073  15.136   3.278  0.0304 -0.6552  0.0548
    1CHOL    R512726   7.234  15.282   3.256 -0.3299 -0.2368  0.1186
    1CHOL    C112727   7.325  15.135   3.596  0.2018 -0.3674 -0.0706
    1CHOL    C212728   7.549  15.063   3.789  0.2030 -0.0334  0.2421
    1CHOL   ROH12729  17.241   4.058   4.038  0.0991  0.0286  0.0431
    1CHOL    R112730  17.468   3.908   3.960  0.1771  0.0876  0.1518
    1CHOL    R212731  17.552   3.891   3.697  0.0137 -0.2967  0.1105
    1CHOL    R312732  17.788   3.977   3.801  0.0069  0.1014 -0.1853
    1CHOL    R412733  17.863   3.813   3.568  0.0270 -0.6232  0.3260
    1CHOL    R512734  17.936   3.791   3.773  0.0572  0.0477  0.3977
    1CHOL    C112735  18.266   3.849   3.590  0.0284 -0.4397  0.1739
    1CHOL    C212736  18.363   3.807   3.121  0.2357  0.1495 -0.3525
    1CHOL   ROH12737  20.192   7.290   5.764 -0.2080 -0.1746  0.0514
    1CHOL    R112738  20.350   7.141   5.583 -0.0659 -0.0033  0.0310
    1CHOL    R212739  20.243   6.944   5.420  0.1269 -0.1235  0.0469
    1CHOL    R312740  20.361   7.089   5.223 -0.0583  0.0076  0.0299
    1CHOL    R412741  20.296   6.833   5.097  0.0697 -0.0075 -0.0031
    1CHOL    R512742  20.491   6.930   5.101  0.0036  0.1289 -0.0639
    1CHOL    C112743  20.437   6.905   4.724 -0.1375  0.1831 -0.0483
    1CHOL    C212744  20.432   6.662   4.393  0.0107 -0.1177 -0.1515
    1CHOL   ROH12745  20.862   8.356   5.316 -0.0564  0.1722  0.0558
    1CHOL    R112746  20.907   8.478   5.065  0.2565  0.0435  0.0448
    1CHOL    R212747  21.119   8.409   4.902  0.1442 -0.4516  0.0869
    1CHOL    R312748  20.923   8.371   4.718  0.0762 -0.0487  0.0652
    1CHOL    R412749  21.172   8.373   4.563  0.1040 -0.6227  0.0975
    1CHOL    R512750  20.996   8.496   4.527  0.3766 -0.2353  0.0553
    1CHOL    C112751  21.020   8.316   4.192  0.0164 -0.3441  0.0834
    1CHOL    C212752  21.153   8.186   4.013 -0.0830  0.1476 -0.0610
    1CHOL   ROH12753  25.132  11.649   3.566 -0.0153  0.1372  0.0850
    1CHOL    R112754  25.110  11.555   3.832 -0.0153  0.0887  0.0683
    1CHOL    R212755  25.109  11.725   4.050 -0.0695  0.0539  0.0973
    1CHOL    R312756  24.877  11.596   4.109 -0.0462 -0.0070  0.0566
    1CHOL    R412757  24.969  11.705   4.366 -0.0449 -0.1104  0.0984
    1CHOL    R512758  24.916  11.497   4.324 -0.0171 -0.0986  0.0086
    1CHOL    C112759  24.669  11.573   4.604 -0.0087 -0.2632  0.0609
    1CHOL    C212760  24.538  11.568   5.013  0.1557 -0.1919  0.1007
    1CHOL   ROH12761  25.558   0.788   7.014 -0.0406 -0.1548 -0.0207
    1CHOL    R112762  25.547   0.608   6.796 -0.0239 -0.0143 -0.1393
    1CHOL    R212763  25.318   0.469   6.729  0.0685 -0.2216 -0.0407
    1CHOL    R312764  25.360   0.580   6.485 -0.2589  0.0033 -0.0014
    1CHOL    R412765  25.222   0.328   6.428  0.0860 -0.1736 -0.0688
    1CHOL    R512766  25.411   0.395   6.343 -0.0669  0.1693 -0.1537
    1CHOL    C112767  25.206   0.352   6.024 -0.2111  0.0655 -0.0483
    1CHOL    C212768  25.096   0.440   5.800 -0.1130 -0.2927 -0.1863
    1CHOL   ROH12769   8.340   9.816   3.405  0.3101  0.2036  0.2142
    1CHOL    R112770   8.282   9.883   3.674  0.0944  0.1575  0.1808
    1CHOL    R212771   8.049   9.803   3.800  0.0974 -0.0611  0.0517
    1CHOL    R312772   8.221   9.702   3.984  0.0917  0.1093  0.1527
    1CHOL    R412773   7.955   9.631   4.085  0.0918  0.0162  0.0967
    1CHOL    R512774   8.112   9.737   4.194  0.0035  0.1467  0.1022
    1CHOL    C112775   8.063   9.436   4.424  0.0833  0.2211  0.2178
    1CHOL    C212776   7.772   9.236   4.526  0.2878  0.2608 -0.0113
    1CHOL   ROH12777   6.537  24.115   4.216  0.0104 -0.1273 -0.0646
    1CHOL    R112778   6.609  24.271   4.442  0.0438  0.0605 -0.2005
    1CHOL    R212779   6.504  24.523   4.488 -0.1827 -0.0143 -0.2369
    1CHOL    R312780   6.437  24.415   4.728  0.1319  0.0205 -0.1306
    1CHOL    R412781   6.426  24.704   4.772 -0.1309  0.0133 -0.2416
    1CHOL    R512782   6.538  24.559   4.890  0.1138  0.1860 -0.2759
    1CHOL    C112783   6.318  24.707   5.163  0.1946  0.0619 -0.1446
    1CHOL    C212784   5.960  24.893   5.372 -0.1687  0.0231 -0.0020
    1CHOL   ROH12785   1.069  14.497   3.928  0.4741 -0.2212 -0.2002
    1CHOL    R112786   1.223  14.363   4.125  0.2321 -0.2626 -0.0355
    1CHOL    R212787   1.366  14.498   4.319  0.2598 -0.2916 -0.0425
    1CHOL    R312788   1.224  14.338   4.488  0.0081 -0.0516 -0.0159
    1CHOL    R412789   1.460  14.419   4.642  0.0687 -0.2715  0.0206
    1CHOL    R512790   1.392  14.215   4.607 -0.1725 -0.2095  0.0860
    1CHOL    C112791   1.382  14.223   4.989 -0.2789 -0.0344  0.0824
    1CHOL    C212792   1.340  14.425   5.279  0.0179  0.1133  0.1045
    1CHOL   ROH12793  22.120  25.101   3.659  0.1687  0.1775 -0.0580
    1CHOL    R112794  22.181  25.179   3.925 -0.0922  0.2479 -0.0144
    1CHOL    R212795  21.991  25.275   4.099 -0.3493 -0.0891 -0.0927
    1CHOL    R312796  22.083  25.076   4.260 -0.0951  0.0364 -0.0793
    1CHOL    R412797  21.913  25.240   4.434 -0.1628 -0.0721 -0.0475
    1CHOL    R512798  22.121  25.183   4.471 -0.0943  0.1256 -0.1259
    1CHOL    C112799  21.955  25.033   4.780  0.1840  0.0554 -0.0086
    1CHOL    C212800  22.144  25.167   5.117  0.1047 -0.0149  0.1419
    1CHOL   ROH12801  10.954  15.246   5.188 -0.0593  0.0837  0.0468
    1CHOL    R112802  10.952  15.384   4.940 -0.0889 -0.0784 -0.0439
    1CHOL    R212803  11.066  15.633   4.907 -0.3160  0.0122 -0.1546
    1CHOL    R312804  11.199  15.510   4.705 -0.1101  0.0086 -0.0205
    1CHOL    R412805  11.324  15.774   4.726 -0.1900  0.0431  0.0451
    1CHOL    R512806  11.240  15.684   4.546 -0.0137 -0.0074 -0.0151
    1CHOL    C112807  11.599  15.741   4.430  0.0767  0.0578  0.2873
    1CHOL    C212808  11.964  15.849   4.415 -0.1731  0.3048  0.0697
    1CHOL   ROH12809   8.832   0.393   6.847 -0.2444  0.1197 -0.0804
    1CHOL    R112810   8.946   0.271   6.618 -0.0879  0.1748 -0.0326
    1CHOL    R212811   8.809   0.087   6.464  0.1174 -0.0012 -0.0075
    1CHOL    R312812   8.873   0.257   6.262 -0.0212  0.0130 -0.0403
    1CHOL    R412813   8.812   0.002   6.129 -0.1298  0.0303 -0.0196
    1CHOL    R512814   8.993   0.121   6.106 -0.1409  0.0223 -0.1415
    1CHOL    C112815   8.873   0.113   5.744 -0.4038  0.0620 -0.0575
    1CHOL    C212816   8.716  -0.062   5.545 -0.3031  0.2845 -0.0613
    1CHOL   ROH12817  28.600   3.202   7.682  0.0749  0.1618  0.0767
    1CHOL    R112818  28.490   3.116   7.436  0.1785  0.0109  0.0822
    1CHOL    R212819  28.317   3.271   7.287  0.0781 -0.1624  0.0142
    1CHOL    R312820  28.498   3.227   7.090  0.1437 -0.0736  0.0541
    1CHOL    R412821  28.257   3.317   6.950  0.1490 -0.1324  0.0059
    1CHOL    R512822  28.370   3.134   6.910  0.2195 -0.0898  0.0077
    1CHOL    C112823  28.393   3.301   6.568  0.2518 -0.0315  0.0385
    1CHOL    C212824  28.077   3.202   6.441  0.0424  0.0387  0.3062
    1CHOL   ROH12825   5.348   3.707   4.692  0.0932 -0.3058 -0.0175
    1CHOL    R112826   5.370   3.861   4.929  0.1890 -0.2377 -0.0699
    1CHOL    R212827   5.160   4.008   5.031  0.3186  0.0510 -0.1993
    1CHOL    R312828   5.214   3.866   5.257  0.0755  0.0717 -0.1264
    1CHOL    R412829   5.039   4.084   5.346  0.0985  0.1601 -0.3084
    1CHOL    R512830   5.234   4.032   5.428  0.0086  0.0924 -0.1410
    1CHOL    C112831   5.019   3.996   5.741 -0.2579  0.2431 -0.3036
    1CHOL    C212832   4.647   4.104   5.737  0.0374  0.0347  0.0844
    1CHOL   ROH12833  11.332  16.482   3.084 -0.2090  0.0998  0.0932
    1CHOL    R112834  11.428  16.466   3.349 -0.1056  0.0741  0.0549
    1CHOL    R212835  11.520  16.687   3.488 -0.1083  0.0724  0.0628
    1CHOL    R312836  11.338  16.607   3.672 -0.0210 -0.0081  0.1147
    1CHOL    R412837  11.484  16.823   3.804 -0.2174  0.1982 -0.0032
    1CHOL    R512838  11.452  16.622   3.881 -0.0225  0.2066  0.1004
    1CHOL    C112839  11.291  16.826   4.161 -0.1990  0.1958  0.0071
    1CHOL    C212840  11.024  16.976   4.285 -0.0536  0.0927 -0.0647
    1CHOL   ROH12841  10.290   3.129   6.252 -0.1415  0.1729  0.0281
    1CHOL    R112842  10.417   3.190   6.006 -0.0916 -0.2093 -0.0474
    1CHOL    R212843  10.362   3.053   5.772 -0.5461 -0.1441  0.0089
    1CHOL    R312844  10.314   3.303   5.676  0.0341 -0.0322 -0.0269
    1CHOL    R412845  10.362   3.139   5.438 -0.3535 -0.1864 -0.0024
    1CHOL    R512846  10.463   3.324   5.490  0.0874 -0.4077 -0.0333
    1CHOL    C112847  10.317   3.422   5.152  0.3034 -0.1060 -0.0427
    1CHOL    C212848  10.076   3.462   4.987  0.1601  0.0566 -0.1502
    1CHOL   ROH12849  28.298   2.182   7.316  0.0717  0.0435  0.1686
    1CHOL    R112850  28.507   2.134   7.132 -0.0164  0.0633  0.0638
    1CHOL    R212851  28.502   2.231   6.873 -0.0820  0.1971  0.1179
    1CHOL    R312852  28.744   2.334   6.942 -0.0155  0.0748  0.0752
    1CHOL    R412853  28.755   2.310   6.650 -0.1181  0.1497  0.0590
    1CHOL    R512854  28.899   2.229   6.793 -0.1063  0.0465 -0.0044
    1CHOL    C112855  29.129   2.453   6.586 -0.0767  0.0074 -0.0154
    1CHOL    C212856  29.534   2.495   6.570 -0.0008  0.1167 -0.0034
    1CHOL   ROH12857  26.916  28.238   7.396 -0.1596  0.1931 -0.2102
    1CHOL    R112858  27.047  28.256   7.146 -0.0686  0.2266 -0.1596
    1CHOL    R212859  26.920  28.202   6.907  0.0709  0.0718 -0.1969
    1CHOL    R312860  27.010  28.450   6.840 -0.0840  0.1213 -0.2262
    1CHOL    R412861  26.941  28.324   6.584  0.4167 -0.1300 -0.2558
    1CHOL    R512862  27.132  28.416   6.637  0.2540  0.1013 -0.0309
    1CHOL    C112863  27.038  28.628   6.334  0.4728 -0.2009 -0.3178
    1CHOL    C212864  26.825  28.752   6.166  0.0272 -0.1059  0.0286
    1CHOL   ROH12865  12.679   1.719   3.111 -0.1852 -0.1631 -0.0264
    1CHOL    R112866  12.810   1.835   3.334 -0.4185  0.0250  0.0172
    1CHOL    R212867  12.723   1.799   3.593 -0.3474 -0.2546  0.0078
    1CHOL    R312868  12.979   1.717   3.633 -0.1684  0.2503 -0.0322
    1CHOL    R412869  12.868   1.748   3.903 -0.2409 -0.1162 -0.0188
    1CHOL    R512870  13.051   1.838   3.826 -0.4202  0.3037  0.0294
    1CHOL    C112871  13.193   1.641   4.120 -0.0110  0.4384 -0.0719
    1CHOL    C212872  13.177   1.525   4.410  0.1594  0.1737  0.2284
    1CHOL   ROH12873  17.836   4.390   5.694 -0.0172 -0.0110 -0.0790
    1CHOL    R112874  17.771   4.244   5.461 -0.0185  0.0122 -0.0931
    1CHOL    R212875  17.654   4.362   5.240 -0.0479  0.0279 -0.0686
    1CHOL    R312876  17.865   4.252   5.109 -0.0456  0.0682 -0.0994
    1CHOL    R412877  17.705   4.377   4.898 -0.2492 -0.2034 -0.1124
    1CHOL    R512878  17.773   4.170   4.904 -0.1072 -0.1556  0.0136
    1CHOL    C112879  17.934   4.283   4.577 -0.3642 -0.3004 -0.1668
    1CHOL    C212880  17.921   4.133   4.289  0.0704 -0.0676 -0.1789
    1CHOL   ROH12881   7.311  10.002   6.041  0.1545  0.1175 -0.0925
    1CHOL    R112882   7.145  10.006   5.812 -0.0100  0.1527  0.0249
    1CHOL    R212883   7.212   9.876   5.577 -0.1334  0.2618 -0.0772
    1CHOL    R312884   6.968   9.760   5.609 -0.0731  0.1724  0.0582
    1CHOL    R412885   6.991   9.806   5.320 -0.3092  0.2948  0.0645
    1CHOL    R512886   6.828   9.871   5.450 -0.2304  0.1893  0.2111
    1CHOL    C112887   6.633   9.657   5.202 -0.3548  0.2301  0.2741
    1CHOL    C212888   6.370   9.618   5.004 -0.0095  0.2186 -0.0420
    1CHOL   ROH12889  25.690  22.180   5.363  0.0225 -0.0680  0.0389
    1CHOL    R112890  25.647  22.460   5.377  0.0679 -0.0577 -0.0211
    1CHOL    R212891  25.623  22.595   5.616 -0.0259 -0.0204 -0.0508
    1CHOL    R312892  25.822  22.748   5.513  0.0546 -0.0723  0.0264
    1CHOL    R412893  25.675  22.928   5.693 -0.0861  0.0187 -0.1762
    1CHOL    R512894  25.721  22.964   5.483  0.0773 -0.0866 -0.1598
    1CHOL    C112895  25.893  23.265   5.641 -0.0453 -0.0072 -0.1769
    1CHOL    C212896  25.971  23.526   5.800 -0.0140  0.1699 -0.0588
    1CHOL   ROH12897  22.845   4.173   6.722  0.1859 -0.1982  0.0509
    1CHOL    R112898  22.915   4.300   6.479 -0.0212 -0.0398  0.0713
    1CHOL    R212899  23.126   4.215   6.323 -0.0461  0.1696 -0.0760
    1CHOL    R312900  22.936   4.206   6.128 -0.1389  0.1370  0.0146
    1CHOL    R412901  23.171   4.326   5.998 -0.0758 -0.2011 -0.2121
    1CHOL    R512902  22.969   4.409   6.004 -0.0048 -0.0125 -0.2075
    1CHOL    C112903  23.019   4.382   5.627 -0.1799 -0.4477 -0.2064
    1CHOL    C212904  23.084   4.509   5.305  0.3870  0.1732  0.1646
    1CHOL   ROH12905  24.036  11.848   3.203 -0.0329  0.2684 -0.1038
    1CHOL    R112906  24.090  11.866   3.480 -0.1267  0.1101 -0.0745
    1CHOL    R212907  24.215  12.085   3.593  0.0265 -0.0477  0.0598
    1CHOL    R312908  23.996  12.086   3.754 -0.0365  0.0884 -0.0244
    1CHOL    R412909  24.219  12.158   3.931 -0.0575 -0.0159  0.0545
    1CHOL    R512910  24.074  11.997   3.962 -0.1608  0.0632  0.0157
    1CHOL    C112911  24.015  12.201   4.279 -0.1656  0.1305 -0.0275
    1CHOL    C212912  23.714  12.438   4.522  0.0894 -0.2058  0.3105
    1CHOL   ROH12913  20.151   3.371   3.161  0.1166 -0.0327  0.0114
    1CHOL    R112914  19.951   3.394   3.360  0.0710 -0.0024 -0.0395
    1CHOL    R212915  20.007   3.474   3.619  0.0039  0.0767 -0.0549
    1CHOL    R312916  19.815   3.659   3.568 -0.0129  0.0381 -0.1422
    1CHOL    R412917  19.820   3.636   3.860 -0.2523 -0.0862 -0.1378
    1CHOL    R512918  19.645   3.616   3.732 -0.1415 -0.0890 -0.3000
    1CHOL    C112919  19.531   3.905   3.953 -0.4175 -0.2173 -0.2680
    1CHOL    C212920  19.476   4.161   4.238 -0.1412  0.0669  0.0959
    1CHOL   ROH12921   4.378   7.161   6.735 -0.3317  0.0547  0.0071
    1CHOL    R112922   4.330   7.164   6.457 -0.3195  0.0950  0.0057
    1CHOL    R212923   4.121   7.304   6.343 -0.2116  0.2502  0.0013
    1CHOL    R312924   4.318   7.414   6.193 -0.1261  0.1085  0.0074
    1CHOL    R412925   4.107   7.345   6.000 -0.1816  0.2645  0.0017
    1CHOL    R512926   4.317   7.285   5.990 -0.2205  0.1088  0.0044
    1CHOL    C112927   4.285   7.472   5.659 -0.0837  0.1399  0.0076
    1CHOL    C212928   4.250   7.598   5.257 -0.1274 -0.0118 -0.2105
    1CHOL   ROH12929  15.993  25.804   6.432  0.0334 -0.2181 -0.0523
    1CHOL    R112930  15.979  25.954   6.193 -0.1641 -0.2653 -0.0718
    1CHOL    R212931  16.204  26.021   6.045 -0.2373  0.0910 -0.0269
    1CHOL    R312932  16.066  25.903   5.843  0.0002 -0.1636 -0.0477
    1CHOL    R412933  16.265  26.070   5.709 -0.0772 -0.0425 -0.0192
    1CHOL    R512934  16.050  26.072   5.675 -0.0635 -0.2724 -0.1548
    1CHOL    C112935  16.171  25.988   5.323  0.2390 -0.3593 -0.0343
    1CHOL    C212936  15.975  25.970   4.917 -0.1486  0.0334  0.0812
    1CHOL   ROH12937  15.499   8.109   2.261  0.0161 -0.1546 -0.0154
    1CHOL    R112938  15.428   8.038   2.525  0.0440 -0.0613  0.0167
    1CHOL    R212939  15.554   7.836   2.665  0.0461 -0.0210  0.0668
    1CHOL    R312940  15.591   8.031   2.851  0.0816  0.0360  0.0015
    1CHOL    R412941  15.730   7.796   2.960  0.2321  0.1038 -0.0246
    1CHOL    R512942  15.578   7.916   3.060  0.2425  0.0731  0.0370
    1CHOL    C112943  15.867   7.956   3.306  0.3738  0.2299 -0.1390
    1CHOL    C212944  15.992   7.649   3.531  0.3041  0.0809 -0.0335
    1CHOL   ROH12945  15.965   2.304   6.147  0.0963 -0.0584  0.0085
    1CHOL    R112946  15.868   2.190   5.907  0.0944 -0.1183  0.0383
    1CHOL    R212947  15.618   2.074   5.889  0.0328  0.0204  0.0292
    1CHOL    R312948  15.588   2.248   5.682  0.1888 -0.0641 -0.0668
    1CHOL    R412949  15.384   2.043   5.636 -0.0834  0.1543  0.1180
    1CHOL    R512950  15.535   2.109   5.494 -0.0384 -0.1170  0.0310
    1CHOL    C112951  15.220   2.188   5.295 -0.0046  0.1530  0.0798
    1CHOL    C212952  14.997   2.148   4.970 -0.1581 -0.0200 -0.1097
    1CHOL   ROH12953  12.381  24.692   4.039 -0.2315 -0.1353  0.0749
    1CHOL    R112954  12.337  24.690   4.319 -0.0830 -0.0289  0.0993
    1CHOL    R212955  12.458  24.508   4.487 -0.1455 -0.0861  0.0771
    1CHOL    R312956  12.540  24.731   4.618  0.1118 -0.1219 -0.0169
    1CHOL    R412957  12.577  24.513   4.811 -0.4047 -0.0624  0.1754
    1CHOL    R512958  12.466  24.698   4.844 -0.1364  0.1521 -0.0488
    1CHOL    C112959  12.725  24.726   5.123 -0.3143 -0.0822  0.1445
    1CHOL    C212960  12.804  24.711   5.558 -0.1072 -0.2773  0.1366
    1CHOL   ROH12961   4.222  22.977   6.628  0.3710  0.0598 -0.1050
    1CHOL    R112962   4.195  23.195   6.450  0.2219  0.0709 -0.0710
    1CHOL    R212963   4.145  23.162   6.180  0.1966  0.0811 -0.0683
    1CHOL    R312964   3.936  23.329   6.231  0.1128 -0.0413 -0.0112
    1CHOL    R412965   3.990  23.363   5.945 -0.0511 -0.0848 -0.0504
    1CHOL    R512966   3.979  23.521   6.095 -0.0792 -0.0500 -0.0878
    1CHOL    C112967   3.704  23.636   5.857 -0.2740 -0.2962  0.0135
    1CHOL    C212968   3.513  23.595   5.510 -0.1377  0.1114  0.1020
    1CHOL   ROH12969  13.203  13.964   5.680  0.0619  0.1887  0.0399
    1CHOL    R112970  13.002  14.025   5.490 -0.0494  0.0171  0.0999
    1CHOL    R212971  13.051  14.180   5.267 -0.2720  0.1404  0.1336
    1CHOL    R312972  12.948  13.966   5.135 -0.0561  0.0586  0.0941
    1CHOL    R412973  12.897  14.194   4.958 -0.1030  0.0071  0.0419
    1CHOL    R512974  12.750  14.050   5.030 -0.0519 -0.0819 -0.0293
    1CHOL    C112975  12.710  14.000   4.654  0.1979 -0.1473 -0.0486
    1CHOL    C212976  12.640  14.145   4.280  0.0507  0.1827  0.0558
    1CHOL   ROH12977  17.499  10.362   5.117 -0.0674 -0.1434 -0.0731
    1CHOL    R112978  17.471  10.303   4.841 -0.1038 -0.0326 -0.0928
    1CHOL    R212979  17.448  10.499   4.649  0.0032  0.0450 -0.0213
    1CHOL    R312980  17.658  10.369   4.536 -0.0714 -0.0327 -0.0746
    1CHOL    R412981  17.562  10.551   4.327  0.0709  0.1675  0.0212
    1CHOL    R512982  17.592  10.336   4.308 -0.0744  0.1520 -0.1057
    1CHOL    C112983  17.827  10.460   4.034  0.0399  0.1659 -0.0041
    1CHOL    C212984  17.793  10.568   3.630 -0.2596 -0.1453  0.1643
    1CHOL   ROH12985  11.863  14.870   5.261 -0.1080  0.1667  0.0932
    1CHOL    R112986  11.903  14.934   4.988 -0.0388  0.0352  0.0732
    1CHOL    R212987  12.136  15.050   4.895 -0.0138 -0.0249  0.0775
    1CHOL    R312988  12.135  14.837   4.725  0.0176 -0.1022  0.1707
    1CHOL    R412989  12.342  15.015   4.620 -0.1137 -0.0385  0.0018
    1CHOL    R512990  12.173  14.933   4.509 -0.1248 -0.1732  0.1091
    1CHOL    C112991  12.461  14.796   4.300 -0.1423 -0.1190  0.0453
    1CHOL    C212992  12.670  14.986   3.958  0.1379  0.1069  0.1139
    1CHOL   ROH12993  12.822  28.248   6.145  0.1854 -0.2316 -0.2079
    1CHOL    R112994  12.646  28.244   5.924  0.0231 -0.1222 -0.0829
    1CHOL    R212995  12.729  28.180   5.668 -0.1178  0.2136 -0.2173
    1CHOL    R312996  12.529  27.997   5.683  0.0279  0.0477 -0.2636
    1CHOL    R412997  12.576  28.032   5.396 -0.0362  0.2087 -0.2609
    1CHOL    R512998  12.385  28.051   5.500 -0.0402  0.0153 -0.2228
    1CHOL    C112999  12.298  27.773   5.253  0.1480  0.0502 -0.3298
    1CHOL    C213000  11.998  27.554   5.092  0.2850 -0.3178  0.0711
    1CHOL   ROH13001  21.379   6.338   5.914 -0.1870 -0.2198 -0.0289
    1CHOL    R113002  21.300   6.429   5.658 -0.0930 -0.3824 -0.1182
    1CHOL    R213003  21.341   6.689   5.573 -0.5043 -0.2944 -0.0756
    1CHOL    R313004  21.463   6.566   5.363 -0.0340 -0.0721  0.0561
    1CHOL    R413005  21.303   6.779   5.242 -0.0990 -0.2188 -0.1061
    1CHOL    R513006  21.299   6.568   5.189  0.2300 -0.2040 -0.1997
    1CHOL    C113007  21.396   6.717   4.852  0.5788  0.0339 -0.0004
    1CHOL    C213008  21.560   6.704   4.577 -0.0982 -0.1723 -0.0795
    1CHOL   ROH13009   4.984  16.397   3.590 -0.0154 -0.2185 -0.1390
    1CHOL    R113010   5.179  16.274   3.754  0.0127 -0.0797 -0.0665
    1CHOL    R213011   5.243  16.369   4.006 -0.0830  0.0201 -0.0783
    1CHOL    R313012   5.186  16.114   4.081  0.0254  0.0121 -0.0216
    1CHOL    R413013   5.310  16.235   4.317 -0.0117  0.1135 -0.0535
    1CHOL    R513014   5.370  16.050   4.219  0.0592  0.1172 -0.0175
    1CHOL    C113015   5.296  15.918   4.569  0.1315  0.1604  0.0141
    1CHOL    C213016   5.088  15.887   4.927 -0.1845  0.1450 -0.3045
    1CHOL   ROH13017  20.843  10.121   5.325  0.0551  0.1620  0.1625
    1CHOL    R113018  20.816  10.309   5.114 -0.0365  0.0675  0.0903
    1CHOL    R213019  21.033  10.432   4.995 -0.0976  0.1121  0.0321
    1CHOL    R313020  20.922  10.333   4.767 -0.0671 -0.0217  0.0734
    1CHOL    R413021  21.039  10.589   4.687  0.0772 -0.1316 -0.0934
    1CHOL    R513022  20.833  10.525   4.655  0.0555 -0.0656 -0.1091
    1CHOL    C113023  20.938  10.588   4.294  0.2077 -0.3991 -0.1276
    1CHOL    C213024  20.984  10.787   4.020  0.1438  0.0521 -0.0487
    1CHOL   ROH13025   6.651  11.853   5.748 -0.3119 -0.0996  0.0894
    1CHOL    R113026   6.627  11.894   5.469 -0.3836  0.3215  0.1517
    1CHOL    R213027   6.537  11.696   5.297  0.0968  0.3902 -0.1861
    1CHOL    R313028   6.358  11.887   5.223 -0.3587  0.1049  0.1259
    1CHOL    R413029   6.320  11.671   5.029  0.2763  0.3627 -0.3326
    1CHOL    R513030   6.359  11.881   4.984 -0.2236  0.5771  0.0991
    1CHOL    C113031   6.026  11.836   4.804 -0.0469  0.0788 -0.1251
    1CHOL    C213032   5.821  12.028   4.499  0.1094 -0.1392 -0.0304
    1CHOL   ROH13033   5.395  10.035   3.280 -0.0561 -0.0379 -0.1121
    1CHOL    R113034   5.300   9.997   3.544 -0.0208  0.1587 -0.0698
    1CHOL    R213035   5.347   9.765   3.687 -0.1827  0.1806  0.0169
    1CHOL    R313036   5.446   9.937   3.872  0.0138  0.1763 -0.0816
    1CHOL    R413037   5.455   9.676   4.003 -0.3838  0.2479  0.1073
    1CHOL    R513038   5.362   9.857   4.081 -0.1540  0.4381 -0.0419
    1CHOL    C113039   5.612   9.786   4.360 -0.3165  0.2831  0.0674
    1CHOL    C213040   5.442   9.558   4.728 -0.0032  0.0577 -0.1100
    1CHOL   ROH13041  11.351  20.419   4.097  0.0256  0.4257  0.3143
    1CHOL    R113042  11.483  20.352   4.339 -0.0830  0.3410  0.3518
    1CHOL    R213043  11.347  20.296   4.572 -0.2076 -0.0947  0.1884
    1CHOL    R313044  11.492  20.067   4.565  0.1042  0.1021  0.0500
    1CHOL    R413045  11.505  20.154   4.845 -0.1865 -0.1547  0.1443
    1CHOL    R513046  11.674  20.107   4.715 -0.0412  0.1966  0.2008
    1CHOL    C113047  11.734  19.855   4.996  0.1184 -0.0052 -0.0113
    1CHOL    C213048  11.872  19.458   5.006 -0.0052 -0.1277  0.1487
    1CHOL   ROH13049  15.706   5.354   5.174 -0.2142  0.0925 -0.0748
    1CHOL    R113050  15.794   5.271   4.918 -0.1610  0.0314 -0.0365
    1CHOL    R213051  15.662   5.079   4.769 -0.1919  0.0769 -0.0634
    1CHOL    R313052  15.661   5.273   4.579 -0.0417  0.0580 -0.0845
    1CHOL    R413053  15.679   5.023   4.429 -0.3361  0.0146 -0.0611
    1CHOL    R513054  15.813   5.193   4.412 -0.1624 -0.1203 -0.1142
    1CHOL    C113055  15.688   5.172   4.052 -0.2792 -0.0394 -0.0797
    1CHOL    C213056  15.865   5.217   3.718 -0.3213  0.2306 -0.0609
    1CHOL   ROH13057  19.778   8.727   5.409 -0.1052  0.1956  0.0822
    1CHOL    R113058  19.854   8.781   5.142 -0.1698  0.1455  0.0535
    1CHOL    R213059  20.034   8.624   5.003 -0.1282  0.1767  0.0732
    1CHOL    R313060  19.833   8.611   4.821 -0.1519  0.0394  0.1081
    1CHOL    R413061  20.060   8.483   4.688 -0.0961  0.1642  0.0813
    1CHOL    R513062  19.940   8.647   4.610 -0.2083  0.0857  0.0867
    1CHOL    C113063  19.887   8.388   4.335 -0.0997  0.0280  0.1187
    1CHOL    C213064  19.628   8.345   4.011 -0.0796 -0.1933 -0.0057
    1CHOL   ROH13065   7.165  20.011   6.169  0.2011  0.0173  0.1255
    1CHOL    R113066   7.248  20.027   5.898 -0.0275 -0.0941  0.0464
    1CHOL    R213067   7.102  19.916   5.691 -0.2916 -0.0359  0.1954
    1CHOL    R313068   7.116  20.168   5.590 -0.2072 -0.0642  0.1360
    1CHOL    R413069   7.053  19.998   5.359 -0.2723 -0.0937  0.1781
    1CHOL    R513070   7.218  20.140   5.375 -0.2234 -0.1479  0.1399
    1CHOL    C113071   7.037  20.282   5.071 -0.1818 -0.1541  0.1122
    1CHOL    C213072   6.955  20.275   4.700 -0.0488  0.0260 -0.0061
    1CHOL   ROH13073   9.054  27.591   4.339 -0.1579 -0.1594  0.2016
    1CHOL    R113074   8.962  27.752   4.553 -0.0952 -0.0810  0.1704
    1CHOL    R213075   8.694  27.786   4.610 -0.0794 -0.0352  0.2180
    1CHOL    R313076   8.769  27.702   4.857 -0.0353  0.0368  0.2290
    1CHOL    R413077   8.480  27.746   4.879 -0.0375  0.0258  0.2601
    1CHOL    R513078   8.634  27.830   5.008 -0.0213  0.0710  0.2140
    1CHOL    C113079   8.426  27.644   5.267  0.0282  0.1288  0.2951
    1CHOL    C213080   8.476  27.599   5.577 -0.0017 -0.2274 -0.1946
    1CHOL   ROH13081  21.636  22.080   3.518 -0.1313  0.0426  0.0833
    1CHOL    R113082  21.510  21.932   3.724 -0.0925 -0.0010  0.0759
    1CHOL    R213083  21.486  21.657   3.715  0.0434 -0.0115  0.0978
    1CHOL    R313084  21.605  21.672   3.959 -0.0055  0.0662  0.1172
    1CHOL    R413085  21.374  21.493   3.998  0.0229  0.0113  0.1024
    1CHOL    R513086  21.422  21.672   4.114 -0.0423  0.0502  0.0792
    1CHOL    C113087  21.421  21.411   4.392 -0.0351  0.0976  0.1233
    1CHOL    C213088  20.942  21.389   4.348  0.1425  0.0990 -0.3301
    1CHOL   ROH13089  24.999  15.384   3.815  0.1578  0.0522  0.1324
    1CHOL    R113090  24.839  15.326   4.041  0.0584  0.1495  0.0877
    1CHOL    R213091  24.938  15.331   4.299  0.0037  0.0356  0.1116
    1CHOL    R313092  24.731  15.502   4.341  0.1295  0.1965  0.0856
    1CHOL    R413093  24.834  15.444   4.609 -0.0084  0.0420  0.1055
    1CHOL    R513094  24.628  15.423   4.542 -0.0043  0.2295  0.0306
    1CHOL    C113095  24.580  15.671   4.829  0.1028  0.1967  0.0775
    1CHOL    C213096  24.600  15.539   5.223  0.0180 -0.0876 -0.1568
    1CHOL   ROH13097  22.611  11.086   3.315  0.0751 -0.4096  0.0306
    1CHOL    R113098  22.684  10.964   3.560  0.3538 -0.1174  0.1002
    1CHOL    R213099  22.841  11.092   3.749  0.1014  0.3347  0.0244
    1CHOL    R313100  22.634  11.031   3.914  0.2284 -0.0150  0.0626
    1CHOL    R413101  22.863  11.065   4.093  0.1904  0.4523  0.0276
    1CHOL    R513102  22.730  10.893   4.083  0.5070  0.2004  0.0836
    1CHOL    C113103  22.681  10.993   4.448  0.3613  0.1925  0.0654
    1CHOL    C213104  22.752  10.933   4.842 -0.1075  0.0057 -0.0689
    1CHOL   ROH13105  14.716  24.503   3.453  0.1000 -0.2087 -0.0272
    1CHOL    R113106  14.743  24.641   3.699  0.3609  0.0523 -0.1973
    1CHOL    R213107  14.598  24.573   3.925  0.2602  0.5765 -0.0959
    1CHOL    R313108  14.845  24.559   4.038  0.2520  0.2918 -0.1033
    1CHOL    R413109  14.660  24.568   4.265  0.2551  0.3089 -0.0961
    1CHOL    R513110  14.830  24.699   4.231  0.3720  0.1867 -0.0131
    1CHOL    C113111  14.928  24.551   4.569  0.2445 -0.1143 -0.1030
    1CHOL    C213112  15.000  24.492   5.002  0.1202 -0.1903 -0.1931
    1CHOL   ROH13113  24.867   0.222   4.038  0.2758  0.1420  0.1014
    1CHOL    R113114  24.820   0.053   4.260  0.1101  0.0709  0.0141
    1CHOL    R213115  24.895   0.122   4.517  0.0622 -0.0804  0.0686
    1CHOL    R313116  24.633   0.073   4.572  0.0166  0.0373 -0.0392
    1CHOL    R413117  24.760   0.102   4.835 -0.1027  0.1011  0.0119
    1CHOL    R513118  24.638  -0.066   4.767 -0.1299  0.1165  0.0223
    1CHOL    C113119  24.435   0.045   5.071 -0.2417  0.3172 -0.1222
    1CHOL    C213120  24.410  -0.086   5.412 -0.0530 -0.0554 -0.1356
    1CHOL   ROH13121  20.105  12.887   5.941 -0.0371 -0.0884 -0.0644
    1CHOL    R113122  19.992  12.907   5.682 -0.1569  0.1026 -0.0005
    1CHOL    R213123  19.970  13.147   5.547  0.1083  0.1569  0.0415
    1CHOL    R313124  20.104  13.013   5.352 -0.1862 -0.0155 -0.0482
    1CHOL    R413125  19.996  13.250   5.218  0.2765  0.2849  0.0937
    1CHOL    R513126  19.970  13.043   5.157 -0.1550  0.3649 -0.0166
    1CHOL    C113127  20.136  13.185   4.844  0.0979  0.1976  0.0400
    1CHOL    C213128  20.198  13.166   4.497  0.1865 -0.0993  0.3213
    1CHOL   ROH13129  13.401  27.684   6.312 -0.1898 -0.4026  0.0506
    1CHOL    R113130  13.515  27.644   6.056 -0.0743 -0.1560  0.0599
    1CHOL    R213131  13.412  27.462   5.875  0.0847 -0.0761 -0.1121
    1CHOL    R313132  13.407  27.678   5.710  0.0358  0.0436  0.0437
    1CHOL    R413133  13.348  27.450   5.535  0.0858  0.1518 -0.1220
    1CHOL    R513134  13.504  27.599   5.506  0.0536  0.2104 -0.0152
    1CHOL    C113135  13.307  27.646   5.183  0.0405  0.3971  0.0186
    1CHOL    C213136  13.426  27.677   4.809  0.2178 -0.1428  0.0511
    1CHOL   ROH13137  22.910   6.520   6.192 -0.1900 -0.0511  0.0172
    1CHOL    R113138  22.961   6.397   5.942 -0.0957 -0.1636  0.0903
    1CHOL    R213139  23.113   6.518   5.746 -0.2449 -0.1276 -0.0051
    1CHOL    R313140  23.254   6.286   5.758  0.0023  0.0181  0.1302
    1CHOL    R413141  23.288   6.379   5.482 -0.1734 -0.1394  0.0478
    1CHOL    R513142  23.217   6.183   5.545  0.0444 -0.1768  0.2117
    1CHOL    C113143  23.522   6.080   5.340  0.1005 -0.0096  0.2056
    1CHOL    C213144  23.769   6.014   5.071  0.2287 -0.1466  0.1339
    1CHOL   ROH13145  24.577   7.950   6.591  0.0296 -0.1704 -0.0201
    1CHOL    R113146  24.758   7.829   6.410 -0.1772 -0.4059 -0.0726
    1CHOL    R213147  24.675   7.705   6.176 -0.3751  0.2676 -0.3791
    1CHOL    R313148  24.854   7.875   6.062  0.2689 -0.0508  0.0844
    1CHOL    R413149  24.813   7.664   5.863 -0.3474  0.4696 -0.3959
    1CHOL    R513150  25.004   7.732   5.943 -0.1340 -0.3230 -0.1282
    1CHOL    C113151  25.061   7.799   5.572  0.2733  0.2884  0.0295
    1CHOL    C213152  25.343   8.109   5.500 -0.0243 -0.1836 -0.0216
    1CHOL   ROH13153  25.741  27.375   7.166 -0.1140 -0.0741  0.1294
    1CHOL    R113154  25.899  27.377   6.931 -0.1211  0.0585  0.1244
    1CHOL    R213155  25.966  27.146   6.794  0.1542  0.0990  0.1772
    1CHOL    R313156  25.857  27.279   6.583 -0.0161 -0.0794  0.1511
    1CHOL    R413157  25.987  27.044   6.465  0.0383 -0.0775  0.2236
    1CHOL    R513158  26.017  27.252   6.407 -0.0944 -0.0992  0.0868
    1CHOL    C113159  25.897  27.109   6.075 -0.1889 -0.3477  0.2262
    1CHOL    C213160  26.202  27.149   5.822  0.0578  0.1797  0.0257
    1CHOL   ROH13161   2.845  13.341   6.870  0.2181 -0.1206  0.0600
    1CHOL    R113162   2.744  13.209   6.641  0.1452 -0.1104  0.0869
    1CHOL    R213163   2.816  13.282   6.384 -0.0973  0.0382  0.0605
    1CHOL    R313164   2.881  13.019   6.363  0.0816  0.0917 -0.0861
    1CHOL    R413165   2.877  13.117   6.087 -0.1883  0.1968 -0.0489
    1CHOL    R513166   2.768  12.945   6.165 -0.0079  0.0854 -0.0342
    1CHOL    C113167   2.974  12.774   5.894 -0.0735  0.3393 -0.2502
    1CHOL    C213168   3.090  12.675   5.506  0.0047  0.0898 -0.0072
    1CHOL   ROH13169  28.523   3.449   4.656 -0.2601  0.0222  0.0110
    1CHOL    R113170  28.631   3.445   4.918 -0.0228 -0.0941 -0.0843
    1CHOL    R213171  28.628   3.665   5.083  0.3170 -0.0980 -0.0506
    1CHOL    R313172  28.506   3.494   5.256  0.3217 -0.0165  0.0314
    1CHOL    R413173  28.586   3.724   5.421  0.2041  0.0949 -0.0972
    1CHOL    R513174  28.634   3.514   5.458  0.2509  0.1429  0.0520
    1CHOL    C113175  28.448   3.597   5.780  0.1425  0.2837 -0.0475
    1CHOL    C213176  28.526   3.624   6.158  0.0646  0.0889 -0.2272
    1CHOL   ROH13177  19.190  14.802   3.352  0.2554  0.0302 -0.0361
    1CHOL    R113178  19.315  14.756   3.602  0.1691 -0.0934 -0.0148
    1CHOL    R213179  19.342  14.954   3.793  0.3338 -0.1185 -0.0123
    1CHOL    R313180  19.218  14.772   3.952  0.1251  0.0039 -0.0307
    1CHOL    R413181  19.371  14.941   4.137  0.2724 -0.1484 -0.0081
    1CHOL    R513182  19.379  14.723   4.123  0.0546 -0.1597 -0.0078
    1CHOL    C113183  19.271  14.762   4.487  0.0409 -0.0510 -0.0228
    1CHOL    C213184  19.332  14.997   4.806  0.5010 -0.0626  0.2646
    1CHOL   ROH13185  19.651   8.997   2.439  0.1365  0.1920  0.0573
    1CHOL    R113186  19.622   9.088   2.705  0.1186  0.0163  0.1163
    1CHOL    R213187  19.619   8.916   2.921  0.1812 -0.1211  0.0089
    1CHOL    R313188  19.820   9.076   3.011  0.1349 -0.1141  0.1014
    1CHOL    R413189  19.737   8.920   3.246  0.0450 -0.1306  0.0594
    1CHOL    R513190  19.751   9.138   3.232  0.0385 -0.1289  0.0765
    1CHOL    C113191  19.994   9.074   3.520 -0.0777 -0.1294  0.1757
    1CHOL    C213192  20.019   9.178   3.856 -0.4486 -0.0085 -0.0561
    1CHOL   ROH13193  21.282  24.391   4.546 -0.0209  0.1084 -0.1345
    1CHOL    R113194  21.526  24.262   4.482 -0.0354  0.0308 -0.0335
    1CHOL    R213195  21.757  24.300   4.628 -0.0909 -0.0623  0.0757
    1CHOL    R313196  21.753  24.029   4.646 -0.1887 -0.0633  0.0493
    1CHOL    R413197  22.025  24.105   4.725 -0.0914 -0.1778 -0.1480
    1CHOL    R513198  21.970  23.962   4.570 -0.2690 -0.1414 -0.1250
    1CHOL    C113199  22.177  23.737   4.799 -0.1831 -0.2460 -0.3028
    1CHOL    C213200  22.523  23.610   4.664  0.1264  0.3004 -0.1732
    1CHOL   ROH13201  28.687   3.628   7.371 -0.2440  0.2425 -0.0636
    1CHOL    R113202  28.737   3.635   7.093 -0.0453  0.2379 -0.0287
    1CHOL    R213203  28.540   3.687   6.907  0.0551  0.0816 -0.1796
    1CHOL    R313204  28.713   3.881   6.826 -0.0129  0.1854 -0.0811
    1CHOL    R413205  28.554   3.817   6.587  0.1998  0.0389 -0.1916
    1CHOL    R513206  28.771   3.818   6.602  0.1931  0.1867 -0.0310
    1CHOL    C113207  28.724   4.075   6.324  0.2199  0.1114 -0.1061
    1CHOL    C213208  28.662   4.067   5.900 -0.0445  0.0439 -0.1748
    1CHOL   ROH13209   6.866  26.249   7.370  0.0457  0.2226 -0.0392
    1CHOL    R113210   6.881  26.243   7.088 -0.0934  0.2716 -0.0491
    1CHOL    R213211   6.910  26.472   6.935  0.1088  0.2787 -0.0061
    1CHOL    R313212   7.124  26.339   6.834 -0.0934  0.0435 -0.1367
    1CHOL    R413213   7.094  26.575   6.662  0.2495  0.2476  0.0762
    1CHOL    R513214   7.104  26.367   6.597 -0.0678  0.2862 -0.1113
    1CHOL    C113215   7.403  26.511   6.408  0.1416  0.0088  0.0014
    1CHOL    C213216   7.445  26.537   6.116  0.0991  0.0529 -0.1476
    1CHOL   ROH13217  25.327  20.988   6.488 -0.0318 -0.1183 -0.0275
    1CHOL    R113218  25.365  21.052   6.215  0.0982  0.0434  0.0265
    1CHOL    R213219  25.606  21.144   6.116  0.2474 -0.2106  0.1390
    1CHOL    R313220  25.579  20.936   5.944 -0.0174 -0.0445 -0.0278
    1CHOL    R413221  25.718  21.142   5.789  0.1677 -0.0651  0.1099
    1CHOL    R513222  25.535  21.039   5.732  0.0417  0.1767  0.0651
    1CHOL    C113223  25.759  20.945   5.437 -0.1272  0.1755 -0.0637
    1CHOL    C213224  25.888  20.832   5.011  0.0798 -0.1506 -0.0177
    1CHOL   ROH13225  16.909  11.343   5.293  0.1022  0.0005  0.0148
    1CHOL    R113226  16.921  11.457   5.034  0.1132 -0.1264 -0.0411
    1CHOL    R213227  16.994  11.313   4.810 -0.0751 -0.2864  0.0031
    1CHOL    R313228  16.757  11.405   4.714 -0.0316 -0.1388  0.0330
    1CHOL    R413229  16.935  11.397   4.481 -0.0660 -0.2755  0.0036
    1CHOL    R513230  16.820  11.569   4.550  0.0547 -0.1909  0.0093
    1CHOL    C113231  16.678  11.533   4.198 -0.0199 -0.1306  0.0319
    1CHOL    C213232  16.562  11.661   3.837 -0.1201 -0.1971  0.2897
    1CHOL   ROH13233  17.615  23.868   5.983  0.0910 -0.0100 -0.0174
    1CHOL    R113234  17.563  23.948   5.717  0.1483  0.1367  0.0141
    1CHOL    R213235  17.739  24.102   5.571  0.3240 -0.0387  0.0326
    1CHOL    R313236  17.718  23.899   5.391  0.0385  0.0365 -0.0235
    1CHOL    R413237  17.924  24.077   5.280  0.2440 -0.1917 -0.0054
    1CHOL    R513238  17.745  24.006   5.178  0.1372  0.0634  0.0036
    1CHOL    C113239  18.012  23.871   4.942 -0.0706 -0.2102 -0.0801
    1CHOL    C213240  18.349  23.886   4.694 -0.3683 -0.0044  0.3646
    1CHOL   ROH13241  17.769   0.958   5.132  0.0310  0.1512 -0.1337
    1CHOL    R113242  17.544   0.962   4.961 -0.0754 -0.1028 -0.0054
    1CHOL    R213243  17.292   0.881   5.043 -0.0333  0.0436  0.2801
    1CHOL    R313244  17.220   1.127   4.953 -0.0659 -0.0857 -0.0659
    1CHOL    R413245  16.969   0.976   4.964 -0.0883 -0.0334  0.4115
    1CHOL    R513246  17.048   1.084   4.793 -0.2199 -0.3276  0.1542
    1CHOL    C113247  16.713   1.262   4.835 -0.1510 -0.1996  0.1633
    1CHOL    C213248  16.328   1.312   4.876 -0.3536  0.0252  0.2202
    1CHOL   ROH13249   3.664   3.729   6.898 -0.0397  0.0590 -0.2314
    1CHOL    R113250   3.670   3.520   6.708  0.1845  0.0930 -0.2646
    1CHOL    R213251   3.904   3.428   6.594  0.3627 -0.1117  0.2446
    1CHOL    R313252   3.816   3.187   6.684 -0.0818 -0.0484  0.0053
    1CHOL    R413253   3.976   3.123   6.448  0.1956 -0.1344  0.2074
    1CHOL    R513254   3.770   3.062   6.485  0.0520  0.1052 -0.1266
    1CHOL    C113255   3.935   2.720   6.447 -0.3188 -0.0881 -0.0390
    1CHOL    C213256   3.765   2.447   6.193  0.2660  0.1420 -0.0695
    1CHOL   ROH13257   6.661  13.809   5.961  0.2012 -0.3173 -0.1519
    1CHOL    R113258   6.640  13.747   5.686  0.1548 -0.1647 -0.1837
    1CHOL    R213259   6.431  13.838   5.528  0.1038 -0.1153 -0.0876
    1CHOL    R313260   6.634  13.933   5.373  0.0515  0.0124 -0.0786
    1CHOL    R413261   6.394  13.962   5.207  0.0251 -0.0722 -0.0617
    1CHOL    R513262   6.578  13.860   5.152  0.0737  0.0266 -0.0903
    1CHOL    C113263   6.561  14.123   4.875 -0.0698  0.0727 -0.0382
    1CHOL    C213264   6.465  13.834   4.568 -0.0545 -0.0834 -0.0139
    1CHOL   ROH13265  27.413   1.332   7.458  0.2004  0.0353 -0.0287
    1CHOL    R113266  27.332   1.106   7.308  0.2266 -0.0155  0.0342
    1CHOL    R213267  27.131   1.116   7.119  0.0993 -0.1320  0.1627
    1CHOL    R313268  27.321   1.010   6.957  0.0530 -0.0378  0.0440
    1CHOL    R413269  27.086   1.041   6.785 -0.0216  0.0026  0.1472
    1CHOL    R513270  27.201   0.858   6.816  0.0176  0.0037  0.0268
    1CHOL    C113271  27.239   0.897   6.438 -0.1353  0.1692  0.0267
    1CHOL    C213272  27.229   0.687   6.159 -0.1527 -0.1098  0.1704
    1CHOL   ROH13273  22.605  27.721   3.475 -0.0335 -0.2176  0.1298
    1CHOL    R113274  22.610  27.738   3.757 -0.0129 -0.3665  0.1379
    1CHOL    R213275  22.757  27.564   3.914  0.4253 -0.1262 -0.0001
    1CHOL    R313276  22.862  27.794   4.014 -0.0752  0.0690  0.1148
    1CHOL    R413277  22.866  27.606   4.239  0.8095 -0.2481 -0.1068
    1CHOL    R513278  22.778  27.805   4.238  0.2169 -0.4706  0.2771
    1CHOL    C113279  23.029  27.845   4.523  0.5633 -0.1359 -0.0610
    1CHOL    C213280  23.098  27.769   4.882  0.2386 -0.1397  0.2647
    1CHOL   ROH13281   0.107   4.901   7.436  0.0053  0.1361 -0.0018
    1CHOL    R113282   0.366   4.871   7.325  0.0381  0.0989  0.0850
    1CHOL    R213283   0.431   4.667   7.150  0.0784  0.0664  0.1399
    1CHOL    R313284   0.513   4.873   6.993  0.1452  0.0334  0.1310
    1CHOL    R413285   0.658   4.639   6.891 -0.0093 -0.0435  0.0738
    1CHOL    R513286   0.745   4.829   6.953  0.1125 -0.0925  0.0631
    1CHOL    C113287   0.867   4.816   6.592  0.0024 -0.1385  0.0268
    1CHOL    C213288   1.094   4.839   6.343 -0.3062 -0.0610  0.0768
    1CHOL   ROH13289   5.383   1.582   5.007  0.1695 -0.1570  0.2035
    1CHOL    R113290   5.341   1.447   5.253  0.0683 -0.2383  0.1432
    1CHOL    R213291   5.171   1.543   5.448  0.1775 -0.1679  0.2113
    1CHOL    R313292   5.060   1.295   5.426 -0.0604 -0.0538  0.0961
    1CHOL    R413293   5.065   1.350   5.714  0.1097 -0.2506  0.1248
    1CHOL    R513294   5.147   1.175   5.614 -0.0957 -0.2602 -0.0217
    1CHOL    C113295   4.900   1.006   5.850 -0.1531 -0.1917 -0.0337
    1CHOL    C213296   4.991   0.834   6.191 -0.1394 -0.1042 -0.0110
    1CHOL   ROH13297   4.331  14.990   6.391  0.0099 -0.0851 -0.1010
    1CHOL    R113298   4.386  14.878   6.136 -0.0084 -0.1012 -0.0982
    1CHOL    R213299   4.194  14.859   5.938  0.0194  0.0342 -0.1398
    1CHOL    R313300   4.380  14.992   5.791  0.1342 -0.0718 -0.0914
    1CHOL    R413301   4.251  14.810   5.601  0.0555  0.0228 -0.1317
    1CHOL    R513302   4.465  14.827   5.639  0.0601 -0.1154 -0.0863
    1CHOL    C113303   4.458  14.906   5.266  0.1843 -0.0833 -0.0815
    1CHOL    C213304   4.505  14.923   4.899  0.2323 -0.1917  0.1925
    1CHOL   ROH13305  16.748  15.445   6.127  0.1372  0.1398 -0.1096
    1CHOL    R113306  16.903  15.386   5.898  0.1690 -0.1169 -0.0248
    1CHOL    R213307  16.793  15.358   5.647  0.2434 -0.0749 -0.0606
    1CHOL    R313308  16.977  15.546   5.580  0.4908 -0.3075 -0.0517
    1CHOL    R413309  16.929  15.398   5.332 -0.1591  0.1265 -0.2157
    1CHOL    R513310  17.122  15.435   5.425  0.0632 -0.3616 -0.4387
    1CHOL    C113311  17.182  15.599   5.086 -0.1612  0.0253 -0.2976
    1CHOL    C213312  17.374  15.438   4.838 -0.1341  0.0080 -0.2630
    1CHOL   ROH13313  27.169  20.798   4.314  0.0330  0.2327  0.1537
    1CHOL    R113314  27.028  20.835   4.557  0.1467  0.1451  0.2360
    1CHOL    R213315  26.795  20.699   4.616  0.0463  0.2845  0.2014
    1CHOL    R313316  26.931  20.628   4.840  0.0759 -0.0204  0.0904
    1CHOL    R413317  26.654  20.664   4.929  0.1951  0.4112  0.2826
    1CHOL    R513318  26.831  20.759   5.014  0.4088  0.0862  0.2030
    1CHOL    C113319  26.700  20.577   5.322  0.3098  0.1986  0.2256
    1CHOL    C213320  26.375  20.395   5.365 -0.0960 -0.4295  0.2201
    1CHOL   ROH13321   8.027  25.168   6.853  0.0238  0.3686  0.0003
    1CHOL    R113322   7.857  25.153   6.627  0.0044  0.0293  0.0320
    1CHOL    R213323   7.859  25.344   6.427 -0.2684 -0.0763 -0.0726
    1CHOL    R313324   7.899  25.129   6.266 -0.0222 -0.1165  0.0372
    1CHOL    R413325   7.918  25.361   6.087 -0.3180 -0.1764 -0.0865
    1CHOL    R513326   7.789  25.187   6.061 -0.1144 -0.3518  0.0144
    1CHOL    C113327   7.990  25.168   5.738 -0.1158 -0.2727  0.0084
    1CHOL    C213328   8.194  25.201   5.399 -0.3319 -0.0427 -0.0502
    1CHOL   ROH13329  15.585   2.473   2.604 -0.1057  0.0870  0.0037
    1CHOL    R113330  15.609   2.457   2.885 -0.0838 -0.0008 -0.0035
    1CHOL    R213331  15.463   2.618   3.056  0.0638  0.0705  0.0514
    1CHOL    R313332  15.389   2.380   3.165 -0.1096  0.1015  0.0062
    1CHOL    R413333  15.299   2.581   3.358 -0.0524  0.1437 -0.0014
    1CHOL    R513334  15.425   2.408   3.400 -0.1636  0.0623  0.0225
    1CHOL    C113335  15.134   2.337   3.636 -0.2828  0.2156 -0.0746
    1CHOL    C213336  14.927   2.378   3.947 -0.2553 -0.0444 -0.2323
    1CHOL   ROH13337  18.835  24.052   3.691  0.1621  0.1590  0.1826
    1CHOL    R113338  18.854  23.949   3.954  0.0555  0.0227  0.1377
    1CHOL    R213339  18.654  23.797   4.069 -0.0113  0.0043 -0.0046
    1CHOL    R313340  18.856  23.619   4.109 -0.0606 -0.0567 -0.0252
    1CHOL    R413341  18.669  23.572   4.331 -0.0531  0.0042 -0.0018
    1CHOL    R513342  18.883  23.614   4.347 -0.0365 -0.0601 -0.0265
    1CHOL    C113343  18.868  23.274   4.521 -0.1232 -0.0532 -0.0196
    1CHOL    C213344  19.068  23.115   4.791  0.1723  0.2281 -0.0857
    1CHOL   ROH13345  26.034   5.411   7.617  0.2390 -0.0343  0.0781
    1CHOL    R113346  26.183   5.366   7.380  0.1121  0.0149 -0.0120
    1CHOL    R213347  26.069   5.269   7.148 -0.0128  0.0665  0.0289
    1CHOL    R313348  26.180   5.491   7.038 -0.0692  0.0882  0.0145
    1CHOL    R413349  26.122   5.316   6.810 -0.0958  0.0869  0.0182
    1CHOL    R513350  26.314   5.407   6.858 -0.0965  0.1133 -0.0196
    1CHOL    C113351  26.258   5.552   6.510 -0.1970  0.1190 -0.0014
    1CHOL    C213352  26.195   5.298   6.104 -0.2188 -0.3088  0.0370
    1CHOL   ROH13353  10.242   8.716   5.576 -0.2289 -0.0462  0.0490
    1CHOL    R113354  10.036   8.696   5.384 -0.1622  0.1572 -0.0468
    1CHOL    R213355  10.031   8.850   5.154  0.2018  0.0230 -0.1515
    1CHOL    R313356  10.010   8.608   5.032 -0.1124 -0.0279 -0.0051
    1CHOL    R413357   9.891   8.797   4.842  0.3150  0.0533 -0.2072
    1CHOL    R513358   9.799   8.616   4.920 -0.0333  0.2481 -0.1444
    1CHOL    C113359   9.790   8.540   4.546  0.0859  0.0232 -0.1021
    1CHOL    C213360   9.875   8.463   4.142  0.0571 -0.2512  0.2466
    1CHOL   ROH13361   4.384  27.633   4.608  0.0577 -0.0741 -0.1192
    1CHOL    R113362   4.422  27.460   4.828 -0.0102 -0.0494 -0.0882
    1CHOL    R213363   4.668  27.348   4.889 -0.0282 -0.0305  0.0073
    1CHOL    R313364   4.621  27.459   5.133 -0.1156 -0.0101 -0.0178
    1CHOL    R413365   4.756  27.205   5.191 -0.0276  0.0442  0.0431
    1CHOL    R513366   4.566  27.273   5.273 -0.0716 -0.0140 -0.0015
    1CHOL    C113367   4.764  27.226   5.596 -0.1093  0.1068  0.0404
    1CHOL    C213368   4.902  27.244   5.949  0.1325  0.1226  0.0373
    1CHOL   ROH13369  21.590   6.942   2.580  0.2214  0.2481  0.0386
    1CHOL    R113370  21.473   6.851   2.822  0.1766  0.0341 -0.0612
    1CHOL    R213371  21.593   6.889   3.068  0.0280  0.0097  0.0152
    1CHOL    R313372  21.353   7.002   3.130 -0.0953 -0.2137 -0.0411
    1CHOL    R413373  21.450   6.888   3.383  0.0938  0.1256  0.0463
    1CHOL    R513374  21.256   6.851   3.289  0.1140 -0.1883  0.1156
    1CHOL    C113375  21.142   6.993   3.624  0.0162 -0.0168  0.0116
    1CHOL    C213376  21.065   7.170   3.948 -0.2373 -0.1368  0.0259
    1CHOL   ROH13377  28.634  18.039   4.642  0.0686 -0.2202  0.1210
    1CHOL    R113378  28.507  18.177   4.854  0.1007 -0.0634  0.0407
    1CHOL    R213379  28.295  18.071   4.995  0.0251  0.0984  0.0619
    1CHOL    R313380  28.453  18.124   5.209  0.0236  0.1197  0.0561
    1CHOL    R413381  28.180  18.160   5.309  0.0370  0.2098  0.0341
    1CHOL    R513382  28.343  18.304   5.322  0.0648  0.1720  0.0043
    1CHOL    C113383  28.263  18.262   5.693  0.0428  0.2946  0.0124
    1CHOL    C213384  28.340  17.912   5.996 -0.1006 -0.0461 -0.1063
    1CHOL   ROH13385  22.638   2.981   6.779 -0.2827 -0.0389  0.0582
    1CHOL    R113386  22.560   3.027   6.510 -0.2490 -0.0110  0.0533
    1CHOL    R213387  22.716   3.170   6.332 -0.2200 -0.0063  0.0845
    1CHOL    R313388  22.691   2.947   6.180 -0.2169  0.0091  0.0607
    1CHOL    R413389  22.826   3.139   6.006 -0.3641  0.0854  0.0258
    1CHOL    R513390  22.644   3.028   5.961 -0.3502  0.0307  0.0950
    1CHOL    C113391  22.866   2.910   5.674 -0.4450  0.1534 -0.0307
    1CHOL    C213392  23.129   3.024   5.350  0.0399  0.2795  0.0388
    1CHOL   ROH13393  12.672  22.070   3.628  0.0921  0.2754  0.1058
    1CHOL    R113394  12.675  21.989   3.900 -0.0320  0.3106  0.1178
    1CHOL    R213395  12.908  21.925   4.033 -0.1166  0.0987  0.1626
    1CHOL    R313396  12.820  22.111   4.210  0.0393  0.2120  0.1247
    1CHOL    R413397  12.947  21.905   4.376 -0.0139  0.1999  0.1581
    1CHOL    R513398  12.744  21.983   4.398  0.0313  0.3169  0.1963
    1CHOL    C113399  12.886  22.068   4.742  0.1924  0.3653  0.1198
    1CHOL    C213400  12.797  21.818   4.933 -0.0173  0.1257 -0.0682
    1CHOL   ROH13401  16.057  13.136   2.489 -0.0932  0.1281  0.0351
    1CHOL    R113402  16.197  13.100   2.732 -0.0788  0.0686  0.0183
    1CHOL    R213403  16.079  12.995   2.959 -0.1052  0.1490  0.0436
    1CHOL    R313404  16.286  12.820   2.947 -0.2026  0.0347  0.0251
    1CHOL    R413405  16.119  12.725   3.170 -0.2930  0.0570 -0.0363
    1CHOL    R513406  16.333  12.769   3.177 -0.2705 -0.0665  0.0157
    1CHOL    C113407  16.337  12.402   3.282 -0.4939 -0.1039 -0.1003
    1CHOL    C213408  16.334  12.353   3.697 -0.1243 -0.3886 -0.1193
    1CHOL   ROH13409   7.077  15.444   5.467 -0.1038 -0.0368 -0.1162
    1CHOL    R113410   6.974  15.608   5.261 -0.0215  0.0630 -0.0796
    1CHOL    R213411   7.135  15.768   5.104  0.0634  0.0140 -0.0526
    1CHOL    R313412   7.013  15.636   4.900 -0.0123  0.1163 -0.0729
    1CHOL    R413413   7.162  15.853   4.770  0.3190 -0.1140 -0.0658
    1CHOL    R513414   6.950  15.809   4.747  0.2768  0.1520 -0.1503
    1CHOL    C113415   7.063  15.778   4.384  0.3969 -0.0925 -0.0925
    1CHOL    C213416   6.813  15.683   4.076  0.2779  0.0289 -0.2000
    1CHOL   ROH13417  17.047  23.079   3.660  0.0571 -0.1153  0.0521
    1CHOL    R113418  16.952  23.244   3.869 -0.0179 -0.1521  0.0476
    1CHOL    R213419  16.975  23.173   4.136  0.0659 -0.1098  0.0531
    1CHOL    R313420  17.096  23.415   4.156 -0.0844 -0.0290  0.0076
    1CHOL    R413421  17.019  23.347   4.431  0.2049 -0.1530  0.0583
    1CHOL    R513422  16.970  23.531   4.324 -0.0177 -0.1591  0.1476
    1CHOL    C113423  17.159  23.675   4.623  0.1450 -0.1021  0.0186
    1CHOL    C213424  17.058  23.553   4.904 -0.3271  0.0124 -0.2243
    1CHOL   ROH13425  19.593  15.144   3.074 -0.2300  0.2345  0.0225
    1CHOL    R113426  19.653  15.034   3.328 -0.3444  0.1752  0.0236
    1CHOL    R213427  19.894  15.076   3.455 -0.2334 -0.2070 -0.0526
    1CHOL    R313428  19.735  15.161   3.659 -0.0376  0.0970 -0.0181
    1CHOL    R413429  19.973  15.049   3.791 -0.2061 -0.3565 -0.0700
    1CHOL    R513430  19.765  14.995   3.830 -0.3103  0.0326 -0.0254
    1CHOL    C113431  19.869  15.112   4.177 -0.0063 -0.1583 -0.0477
    1CHOL    C213432  19.776  14.940   4.545 -0.2107 -0.2345  0.3225
    1CHOL   ROH13433  12.673  21.022   3.531  0.1417 -0.0267 -0.1157
    1CHOL    R113434  12.732  20.979   3.804 -0.0626  0.1553 -0.0396
    1CHOL    R213435  12.932  20.808   3.888 -0.3535 -0.0676  0.2318
    1CHOL    R313436  13.018  21.027   4.024 -0.0973 -0.0523  0.0522
    1CHOL    R413437  13.100  20.799   4.190 -0.3103 -0.0115  0.2093
    1CHOL    R513438  12.982  20.971   4.254 -0.1167  0.1619  0.1008
    1CHOL    C113439  13.278  21.000   4.493 -0.0447  0.0354  0.0276
    1CHOL    C213440  13.716  20.862   4.508  0.3129  0.0441  0.2716
    1CHOL   ROH13441   3.400   5.122   7.158  0.0196  0.0324  0.0178
    1CHOL    R113442   3.130   5.066   7.095  0.0343 -0.0100 -0.0108
    1CHOL    R213443   3.028   5.093   6.839 -0.0152  0.2564  0.0308
    1CHOL    R313444   2.952   4.835   6.877  0.1075  0.1729 -0.2683
    1CHOL    R413445   2.799   4.924   6.643  0.0064  0.3962 -0.1163
    1CHOL    R513446   2.718   4.834   6.824  0.0953  0.1355 -0.2053
    1CHOL    C113447   2.594   4.583   6.565  0.1342  0.3991 -0.4827
    1CHOL    C213448   2.277   4.599   6.456 -0.1654  0.0794 -0.1769
    1CHOL   ROH13449   9.342   6.786   3.704  0.0321 -0.0546 -0.0166
    1CHOL    R113450   9.546   6.724   3.891  0.0120 -0.0531  0.0072
    1CHOL    R213451   9.779   6.870   3.909  0.1192 -0.1966 -0.1333
    1CHOL    R313452   9.708   6.890   4.171  0.1583  0.0540 -0.1404
    1CHOL    R413453  10.001   6.881   4.175  0.1452 -0.4087 -0.1452
    1CHOL    R513454   9.865   6.752   4.287 -0.0570 -0.1367 -0.0735
    1CHOL    C113455  10.062   6.906   4.575  0.1973 -0.2970 -0.1589
    1CHOL    C213456  10.350   6.712   4.872 -0.2274  0.0070  0.0094
    1CHOL   ROH13457  26.348  27.491   4.306 -0.1574  0.0029  0.0148
    1CHOL    R113458  26.317  27.565   4.577 -0.1745 -0.0393  0.0236
    1CHOL    R213459  26.488  27.740   4.705 -0.0382 -0.2485  0.1280
    1CHOL    R313460  26.258  27.872   4.763  0.0748 -0.0275  0.0879
    1CHOL    R413461  26.423  27.901   5.004  0.0655 -0.1852  0.1174
    1CHOL    R513462  26.219  27.825   4.995 -0.0094  0.0079  0.0829
    1CHOL    C113463  26.170  28.119   5.232  0.2321  0.0593  0.0736
    1CHOL    C213464  26.003  28.470   5.304 -0.3209 -0.0619 -0.3040
    1CHOL   ROH13465  18.174  11.648   2.564 -0.1667  0.2092 -0.0497
    1CHOL    R113466  18.060  11.616   2.821 -0.0764  0.0935 -0.0235
    1CHOL    R213467  18.123  11.404   2.986 -0.0245  0.0144 -0.1443
    1CHOL    R313468  18.182  11.601   3.164  0.0449 -0.0703 -0.0724
    1CHOL    R413469  18.030  11.403   3.319 -0.1001 -0.0345 -0.1652
    1CHOL    R513470  17.987  11.616   3.302  0.0212 -0.0041 -0.1121
    1CHOL    C113471  18.031  11.588   3.680 -0.0790 -0.1424 -0.1099
    1CHOL    C213472  17.710  11.516   3.762  0.4372 -0.0276 -0.0732
    1CHOL   ROH13473   1.084   5.628   4.958 -0.0344 -0.0789  0.1074
    1CHOL    R113474   1.192   5.682   5.214  0.3029  0.0071 -0.0466
    1CHOL    R213475   1.393   5.868   5.254  0.0080  0.4093 -0.3066
    1CHOL    R313476   1.217   5.971   5.435  0.0880 -0.0464  0.0477
    1CHOL    R413477   1.465   6.120   5.479 -0.1162  0.3741 -0.2279
    1CHOL    R513478   1.350   6.013   5.630  0.3099  0.0465 -0.1243
    1CHOL    C113479   1.342   6.364   5.779 -0.1134 -0.0741  0.1505
    1CHOL    C213480   1.315   6.697   5.982 -0.1071 -0.1590 -0.1245
    1CHOL   ROH13481  11.918   2.381   5.789 -0.1258  0.3900  0.1915
    1CHOL    R113482  11.733   2.517   5.624 -0.2378  0.1189  0.0875
    1CHOL    R213483  11.777   2.557   5.354 -0.1741  0.1254  0.1008
    1CHOL    R313484  11.533   2.439   5.330 -0.0142 -0.1992  0.0140
    1CHOL    R413485  11.582   2.561   5.068 -0.1797  0.0742  0.1034
    1CHOL    R513486  11.406   2.590   5.194 -0.2254 -0.2655  0.1304
    1CHOL    C113487  11.240   2.451   4.880 -0.0330 -0.2602  0.0235
    1CHOL    C213488  11.246   2.432   4.519  0.0862 -0.1775 -0.3319
    1CHOL   ROH13489  11.659   5.494   5.658 -0.2056  0.1262 -0.0706
    1CHOL    R113490  11.617   5.224   5.585  0.0417  0.0704 -0.0146
    1CHOL    R213491  11.454   5.151   5.374 -0.0082 -0.1265  0.0930
    1CHOL    R313492  11.676   5.017   5.292  0.0882  0.1013 -0.0279
    1CHOL    R413493  11.459   4.910   5.126  0.0499 -0.3041  0.2629
    1CHOL    R513494  11.598   4.795   5.247  0.3264 -0.0380  0.2144
    1CHOL    C113495  11.670   4.645   4.904  0.1743 -0.1936  0.2484
    1CHOL    C213496  11.692   4.492   4.572 -0.2357  0.0976 -0.0242
    1CHOL   ROH13497  27.405   0.422   4.858  0.0706 -0.2910 -0.2806
    1CHOL    R113498  27.400   0.281   5.103  0.0360 -0.2888 -0.2818
    1CHOL    R213499  27.480   0.018   5.125  0.1880 -0.2343 -0.2341
    1CHOL    R313500  27.642   0.117   5.319  0.0268 -0.1351 -0.1532
    1CHOL    R413501  27.579  -0.156   5.406  0.2925 -0.2371 -0.2704
    1CHOL    R513502  27.553   0.027   5.522  0.0647 -0.3074 -0.2110
    1CHOL    C113503  27.790  -0.164   5.753  0.2022 -0.1458 -0.2157
    1CHOL    C213504  28.125  -0.369   5.762  0.0040  0.2525 -0.1193
    1CHOL   ROH13505  18.942   3.944   5.940  0.2044 -0.1615  0.2919
    1CHOL    R113506  19.001   3.999   5.669 -0.1520 -0.0724  0.2276
    1CHOL    R213507  19.224   3.895   5.541 -0.0977  0.2931  0.0185
    1CHOL    R313508  19.039   3.806   5.363 -0.1285 -0.0262  0.2006
    1CHOL    R413509  19.279   3.856   5.203 -0.3016  0.1772 -0.0044
    1CHOL    R513510  19.079   3.935   5.166 -0.4285 -0.0800  0.0970
    1CHOL    C113511  19.138   3.750   4.838 -0.4491 -0.1901  0.1532
    1CHOL    C213512  19.264   3.785   4.412 -0.1511  0.2461  0.3252
    1CHOL   ROH13513  10.784  22.957   4.602 -0.0504 -0.0018 -0.1563
    1CHOL    R113514  10.778  22.803   4.840 -0.0599  0.0213 -0.1410
    1CHOL    R213515  10.755  22.528   4.839 -0.1707  0.0272 -0.1117
    1CHOL    R313516  10.980  22.541   4.990 -0.1311 -0.0461 -0.1646
    1CHOL    R413517  10.844  22.298   5.081 -0.1726 -0.0094 -0.1461
    1CHOL    R513518  10.912  22.463   5.206 -0.0971 -0.0387 -0.1540
    1CHOL    C113519  11.107  22.176   5.364 -0.1366 -0.0994 -0.2159
    1CHOL    C213520  11.195  21.858   5.529  0.1669 -0.0439  0.0507
    1CHOL   ROH13521  20.583  23.739   6.232 -0.1253 -0.1329  0.0957
    1CHOL    R113522  20.579  23.765   5.950 -0.0415 -0.1554  0.0925
    1CHOL    R213523  20.657  23.997   5.821 -0.1794 -0.1009  0.1081
    1CHOL    R313524  20.822  23.828   5.687  0.0078  0.0222  0.1781
    1CHOL    R413525  20.762  24.041   5.495 -0.0130  0.0170  0.1760
    1CHOL    R513526  20.737  23.827   5.463  0.1397  0.0041  0.1261
    1CHOL    C113527  20.978  23.909   5.179  0.2598  0.2014  0.2812
    1CHOL    C213528  20.912  23.681   4.922  0.2360  0.0701 -0.2612
    1CHOL   ROH13529  15.152  24.737   6.238  0.0445 -0.0943  0.1746
    1CHOL    R113530  15.075  24.956   6.076  0.1689 -0.1016  0.1036
    1CHOL    R213531  15.137  24.972   5.807  0.0044 -0.3214  0.0504
    1CHOL    R313532  14.868  25.007   5.780  0.0200 -0.0499  0.2143
    1CHOL    R413533  14.983  25.116   5.533 -0.0156 -0.2154  0.1173
    1CHOL    R513534  14.847  25.218   5.669  0.1725 -0.0458  0.1869
    1CHOL    C113535  14.642  25.232   5.348 -0.0126  0.1013  0.3101
    1CHOL    C213536  14.769  25.239   4.932  0.1053  0.1415 -0.0233
    1CHOL   ROH13537  17.738  10.577   2.400 -0.0923  0.0000  0.0467
    1CHOL    R113538  17.830  10.577   2.667  0.0134  0.0218  0.0111
    1CHOL    R213539  17.662  10.534   2.882  0.0726  0.1717  0.0903
    1CHOL    R313540  17.842  10.340   2.943 -0.0098  0.0883  0.0692
    1CHOL    R413541  17.693  10.384   3.192  0.0587  0.1747  0.0930
    1CHOL    R513542  17.910  10.390   3.167  0.0563  0.0686  0.0528
    1CHOL    C113543  17.881  10.114   3.429 -0.0268  0.0981  0.0749
    1CHOL    C213544  18.018  10.026   3.667 -0.1260  0.0120  0.1351
    1CHOL   ROH13545  17.449   6.325   5.184  0.2243  0.0528  0.0871
    1CHOL    R113546  17.522   6.246   4.922  0.1526  0.0690  0.0623
    1CHOL    R213547  17.372   6.314   4.699 -0.0016 -0.0627  0.1265
    1CHOL    R313548  17.609   6.413   4.611 -0.1116  0.0892 -0.0042
    1CHOL    R413549  17.453   6.368   4.368 -0.1143 -0.2942  0.0587
    1CHOL    R513550  17.653   6.293   4.409 -0.0296 -0.0616  0.0993
    1CHOL    C113551  17.722   6.493   4.092 -0.2826 -0.2864 -0.1034
    1CHOL    C213552  17.702   6.346   3.812  0.2033  0.0800  0.0386
    1CHOL   ROH13553  13.865   5.871   5.214 -0.1319 -0.2821 -0.1363
    1CHOL    R113554  13.777   5.772   4.964  0.0216 -0.0984 -0.2650
    1CHOL    R213555  13.887   5.855   4.725  0.3298 -0.0944 -0.1236
    1CHOL    R313556  13.924   5.588   4.686  0.1279 -0.1130 -0.2007
    1CHOL    R413557  14.031   5.714   4.444  0.2229 -0.1196 -0.1667
    1CHOL    R513558  13.881   5.555   4.453  0.1005 -0.0113 -0.2120
    1CHOL    C113559  14.149   5.381   4.244 -0.0290 -0.1517 -0.2641
    1CHOL    C213560  14.385   5.192   3.922 -0.2140 -0.2346 -0.0716
    1CHOL   ROH13561  14.269  25.780   5.892 -0.1283 -0.1156 -0.0305
    1CHOL    R113562  14.109  25.874   5.678  0.0375 -0.0493 -0.1277
    1CHOL    R213563  14.140  25.783   5.418 -0.0316 -0.2777 -0.0595
    1CHOL    R313564  13.874  25.728   5.440 -0.1145  0.0949 -0.0673
    1CHOL    R413565  13.925  25.738   5.151  0.0060 -0.3992 -0.0700
    1CHOL    R513566  13.773  25.851   5.261  0.1070 -0.0380 -0.2878
    1CHOL    C113567  13.550  25.661   5.017 -0.0498 -0.1201 -0.0834
    1CHOL    C213568  13.340  25.966   4.962 -0.1343 -0.0144  0.2849
    1CHOL   ROH13569  16.660   4.899   5.607  0.3675  0.1887 -0.0039
    1CHOL    R113570  16.708   4.745   5.374  0.2301  0.1199  0.0131
    1CHOL    R213571  16.506   4.663   5.205  0.1441  0.1504  0.1112
    1CHOL    R313572  16.658   4.785   5.016  0.1134  0.0508  0.0192
    1CHOL    R413573  16.479   4.611   4.864  0.0304  0.0091  0.1400
    1CHOL    R513574  16.696   4.616   4.850  0.0356 -0.0319  0.0770
    1CHOL    C113575  16.606   4.696   4.488 -0.0648 -0.1667  0.0703
    1CHOL    C213576  16.527   4.572   4.154  0.0719 -0.1427 -0.4237
    1CHOL   ROH13577  13.536   3.538   2.536  0.1488 -0.0247  0.0100
    1CHOL    R113578  13.690   3.612   2.762  0.1264  0.0764 -0.0065
    1CHOL    R213579  13.691   3.868   2.864 -0.0854  0.0647  0.0360
    1CHOL    R313580  13.624   3.742   3.095  0.0687 -0.0371  0.0263
    1CHOL    R413581  13.653   4.024   3.170 -0.2439 -0.0131  0.0568
    1CHOL    R513582  13.753   3.854   3.263 -0.0476  0.0878  0.0314
    1CHOL    C113583  13.568   3.996   3.565 -0.1915 -0.1539  0.0598
    1CHOL    C213584  13.567   3.891   3.968 -0.1282  0.2492 -0.0269
    1CHOL   ROH13585  15.391  11.829   2.910  0.2640 -0.0555 -0.0043
    1CHOL    R113586  15.545  11.793   3.146  0.1347 -0.0165  0.0869
    1CHOL    R213587  15.554  11.981   3.347 -0.0462 -0.0220  0.1009
    1CHOL    R313588  15.480  11.772   3.503 -0.0731 -0.0519  0.0486
    1CHOL    R413589  15.562  11.980   3.693 -0.0197 -0.1186  0.1004
    1CHOL    R513590  15.636  11.775   3.685 -0.0578 -0.1309  0.0379
    1CHOL    C113591  15.497  11.782   4.040 -0.0295 -0.2029  0.0511
    1CHOL    C213592  15.499  11.807   4.394  0.0741  0.0738 -0.1144
    1CHOL   ROH13593   9.142   5.742   3.346 -0.0446  0.0434  0.1878
    1CHOL    R113594   9.284   5.819   3.578 -0.0126  0.0442  0.1676
    1CHOL    R213595   9.162   5.849   3.824  0.0404 -0.0550  0.2050
    1CHOL    R313596   9.355   5.675   3.904  0.1258 -0.0018  0.1188
    1CHOL    R413597   9.301   5.839   4.141  0.0978 -0.0909  0.1789
    1CHOL    R513598   9.495   5.803   4.049  0.0988  0.0147  0.1328
    1CHOL    C113599   9.562   5.669   4.400  0.2116 -0.0620  0.0827
    1CHOL    C213600   9.870   5.877   4.469 -0.0568 -0.2450  0.2672
    1CHOL   ROH13601  18.946  10.261   2.745 -0.0054 -0.0444 -0.0860
    1CHOL    R113602  18.980  10.084   2.963  0.0350 -0.0195 -0.0718
    1CHOL    R213603  18.991  10.170   3.225  0.0377  0.0062 -0.0801
    1CHOL    R313604  18.790   9.990   3.259  0.0674 -0.0215 -0.0519
    1CHOL    R413605  18.874  10.060   3.531  0.1240 -0.0442 -0.0649
    1CHOL    R513606  18.859   9.859   3.447  0.1277 -0.0357 -0.0842
    1CHOL    C113607  18.618   9.827   3.741  0.2020 -0.0996 -0.0297
    1CHOL    C213608  18.630   9.776   4.144 -0.0398 -0.0958  0.1854
    1CHOL   ROH13609  26.522   3.095   4.461  0.2556  0.1163 -0.0269
    1CHOL    R113610  26.416   3.073   4.723  0.3047  0.1008 -0.0077
    1CHOL    R213611  26.357   2.830   4.840  0.2328  0.0967 -0.0483
    1CHOL    R313612  26.518   2.923   5.038  0.3157 -0.0110 -0.0645
    1CHOL    R413613  26.388   2.688   5.154  0.1315  0.1064 -0.0338
    1CHOL    R513614  26.393   2.888   5.239  0.2957  0.1118 -0.0561
    1CHOL    C113615  26.557   2.693   5.522  0.1503  0.0110 -0.0406
    1CHOL    C213616  26.482   2.413   5.748  0.0043  0.0088  0.1526
    1CHOL   ROH13617  22.378   5.296   3.566  0.3125 -0.1032  0.0422
    1CHOL    R113618  22.451   5.296   3.840  0.1229 -0.0586  0.0949
    1CHOL    R213619  22.503   5.528   3.980  0.0731 -0.0335  0.0849
    1CHOL    R313620  22.314   5.430   4.149 -0.0690  0.0381 -0.0321
    1CHOL    R413621  22.489   5.592   4.319 -0.0029 -0.2035  0.1137
    1CHOL    R513622  22.433   5.384   4.351 -0.1882 -0.1676 -0.0130
    1CHOL    C113623  22.304   5.536   4.676 -0.1806 -0.2353  0.0206
    1CHOL    C213624  22.314   5.506   5.055  0.4653 -0.0139  0.0591
    1CHOL   ROH13625  25.625   5.563   4.340  0.0446 -0.1895  0.0298
    1CHOL    R113626  25.652   5.667   4.603  0.0816 -0.0873 -0.0149
    1CHOL    R213627  25.443   5.672   4.783  0.1393 -0.1179  0.0448
    1CHOL    R313628  25.619   5.539   4.942  0.2458  0.0173  0.0435
    1CHOL    R413629  25.448   5.686   5.129  0.0069 -0.2460  0.0539
    1CHOL    R513630  25.666   5.691   5.120  0.0127  0.0078  0.1219
    1CHOL    C113631  25.617   5.569   5.478  0.0296 -0.1938  0.0581
    1CHOL    C213632  25.760   5.582   5.772  0.0651 -0.4131 -0.0294
    1CHOL   ROH13633   1.537  10.492   6.844 -0.0970  0.0767 -0.3396
    1CHOL    R113634   1.673  10.537   6.600 -0.0638 -0.0416 -0.3443
    1CHOL    R213635   1.916  10.668   6.588 -0.1331  0.0909 -0.3910
    1CHOL    R313636   1.994  10.444   6.456  0.0264  0.0251 -0.1881
    1CHOL    R413637   2.237  10.605   6.478 -0.0784  0.1942 -0.2904
    1CHOL    R513638   2.153  10.521   6.295  0.0000 -0.0148 -0.2306
    1CHOL    C113639   2.497  10.356   6.290  0.1031  0.1925 -0.0414
    1CHOL    C213640   2.622  10.013   6.159  0.3737  0.0354  0.2054
    1CHOL   ROH13641  21.956   6.881   2.813 -0.0063 -0.0137  0.0412
    1CHOL    R113642  22.072   6.761   3.042  0.0373  0.0093  0.0317
    1CHOL    R213643  22.325   6.826   3.132  0.0212  0.0815  0.0280
    1CHOL    R313644  22.195   6.874   3.365  0.0134  0.0300  0.0336
    1CHOL    R413645  22.478   6.912   3.430  0.0146 -0.0179  0.0596
    1CHOL    R513646  22.338   6.781   3.533 -0.0051 -0.0321  0.0154
    1CHOL    C113647  22.445   7.006   3.823  0.0035 -0.1241  0.0833
    1CHOL    C213648  22.589   7.026   4.150 -0.0581 -0.1492 -0.3852
    1CHOL   ROH13649  22.358   1.030   6.490  0.1472 -0.1663 -0.0465
    1CHOL    R113650  22.383   0.892   6.244  0.0603 -0.1327 -0.0756
    1CHOL    R213651  22.195   0.913   6.042  0.0784  0.0403 -0.0820
    1CHOL    R313652  22.411   0.982   5.892  0.1342 -0.0749 -0.0540
    1CHOL    R413653  22.204   0.913   5.697  0.1318  0.0277 -0.0799
    1CHOL    R513654  22.406   0.831   5.707  0.0854 -0.0739 -0.0496
    1CHOL    C113655  22.412   0.978   5.355  0.2156 -0.0876 -0.0524
    1CHOL    C213656  22.682   1.053   5.096 -0.1838 -0.1654 -0.1113
    1CHOL   ROH13657  19.638   1.706   3.367 -0.0899 -0.0903  0.0346
    1CHOL    R113658  19.613   1.882   3.588 -0.2143 -0.0983  0.0270
    1CHOL    R213659  19.413   1.856   3.777 -0.0551 -0.3802  0.1578
    1CHOL    R313660  19.623   1.854   3.950  0.0641 -0.0392  0.0278
    1CHOL    R413661  19.386   1.896   4.119  0.1016 -0.2895  0.1614
    1CHOL    R513662  19.565   2.020   4.114 -0.0574 -0.0480  0.0005
    1CHOL    C113663  19.566   1.917   4.481  0.3047  0.0834  0.0413
    1CHOL    C213664  19.229   1.675   4.689  0.0671 -0.2711  0.1277
    1CHOL   ROH13665   7.931  17.247   2.896 -0.1191 -0.2373 -0.1042
    1CHOL    R113666   8.073  17.089   3.083 -0.1519 -0.1504 -0.0038
    1CHOL    R213667   8.348  17.093   3.104 -0.1407 -0.2656 -0.0713
    1CHOL    R313668   8.295  17.148   3.365 -0.0584 -0.0192 -0.1054
    1CHOL    R413669   8.551  17.005   3.370 -0.2574 -0.3778 -0.0192
    1CHOL    R513670   8.372  16.955   3.484 -0.3275 -0.0518  0.0198
    1CHOL    C113671   8.620  17.006   3.769 -0.2480 -0.2118 -0.0209
    1CHOL    C213672   8.831  16.918   4.104 -0.2063 -0.3144 -0.3241
    1CHOL   ROH13673  11.572  22.593   3.633 -0.1045  0.1340 -0.0200
    1CHOL    R113674  11.537  22.480   3.890  0.0149  0.3282  0.0846
    1CHOL    R213675  11.652  22.240   3.964 -0.4677  0.0501 -0.0124
    1CHOL    R313676  11.751  22.387   4.170  0.2471 -0.0976 -0.2230
    1CHOL    R413677  11.746  22.112   4.271 -0.6355 -0.0209  0.0102
    1CHOL    R513678  11.656  22.287   4.366  0.0549  0.3983 -0.0489
    1CHOL    C113679  11.894  22.176   4.643 -0.0620 -0.2005 -0.1744
    1CHOL    C213680  11.931  22.271   5.048 -0.4447 -0.0392  0.2682
    1DPPC   NC313681  25.927   7.309   4.109  0.0620 -0.1457 -0.4611
    1DPPC   PO413682  25.440   7.272   4.031  0.0577 -0.3358 -0.4969
    1DPPC   GL113683  24.937   7.190   4.004  0.3355 -0.1227  0.1031
    1DPPC   GL213684  24.766   7.513   3.858 -0.2714  0.0201 -0.0159
    1DPPC   C1A13685  24.483   7.166   4.260 -0.0099 -0.3465 -0.3627
    1DPPC   C2A13686  24.135   7.500   4.171  0.0651  0.1758 -0.0966
    1DPPC   C3A13687  23.839   7.679   4.364 -0.0438  0.0854 -0.2902
    1DPPC   C4A13688  23.620   7.987   4.418 -0.2674 -0.2616  0.0173
    1DPPC   C1B13689  24.609   7.634   4.210 -0.2198  0.0172 -0.1753
    1DPPC   C2B13690  24.348   7.530   4.592  0.1624  0.0130  0.0591
    1DPPC   C3B13691  23.964   7.363   4.694  0.0112 -0.1064  0.1339
    1DPPC   C4B13692  23.718   7.174   5.016 -0.0961  0.2061 -0.0268
    1DPPC   NC313693  20.021   5.277   2.217 -0.1933 -0.0530 -0.0182
    1DPPC   PO413694  20.247   5.529   2.449 -0.0391 -0.0938 -0.0787
    1DPPC   GL113695  20.141   5.693   2.839 -0.0730  0.2737  0.0707
    1DPPC   GL213696  19.951   5.911   2.905  0.0104  0.0899 -0.0423
    1DPPC   C1A13697  20.384   5.724   3.140  0.3024 -0.2553 -0.2166
    1DPPC   C2A13698  20.515   5.753   3.574 -0.0537 -0.2305  0.1252
    1DPPC   C3A13699  20.598   6.029   3.788 -0.3055 -0.1003 -0.0745
    1DPPC   C4A13700  20.688   6.206   4.148  0.2465  0.2751 -0.1948
    1DPPC   C1B13701  19.828   6.040   3.292 -0.2645 -0.1260 -0.0653
    1DPPC   C2B13702  19.619   6.202   3.739  0.1657 -0.1286 -0.1856
    1DPPC   C3B13703  19.189   6.404   3.844  0.2525 -0.0694  0.0384
    1DPPC   C4B13704  18.742   6.368   3.772  0.2524 -0.1017  0.2006
    1DPPC   NC313705  24.783  28.549   3.300 -0.1286 -0.1227 -0.0554
    1DPPC   PO413706  24.772  28.173   3.301 -0.1874  0.0288  0.1981
    1DPPC   GL113707  24.545  28.236   3.677 -0.1716 -0.1271  0.1698
    1DPPC   GL213708  24.728  27.902   3.853  0.0072  0.0851  0.2479
    1DPPC   C1A13709  24.555  28.351   4.143  0.0514  0.2877  0.1007
    1DPPC   C2A13710  24.578  28.448   4.480 -0.2357  0.1655  0.0908
    1DPPC   C3A13711  24.488  28.378   4.935  0.2392 -0.2557 -0.0601
    1DPPC   C4A13712  24.667  28.266   5.210 -0.0964 -0.1280 -0.1523
    1DPPC   C1B13713  24.352  27.867   4.191 -0.0563  0.1020 -0.2728
    1DPPC   C2B13714  24.151  27.608   4.480  0.1473  0.2827 -0.1466
    1DPPC   C3B13715  23.971  27.509   4.976  0.1157 -0.0745 -0.1576
    1DPPC   C4B13716  23.840  27.555   5.370 -0.1602  0.3422 -0.1593
    1DPPC   NC313717  21.772  16.159   2.124 -0.3065 -0.1357  0.2288
    1DPPC   PO413718  21.647  16.259   2.604  0.1349 -0.0292 -0.1140
    1DPPC   GL113719  21.774  16.207   3.049  0.0286  0.1404  0.2347
    1DPPC   GL213720  22.121  16.082   2.919  0.0657  0.2833 -0.0556
    1DPPC   C1A13721  21.750  15.915   3.357 -0.2651 -0.1578  0.2920
    1DPPC   C2A13722  21.828  15.898   3.833 -0.1712  0.1132 -0.0885
    1DPPC   C3A13723  21.712  15.781   4.297 -0.0681  0.0293 -0.1683
    1DPPC   C4A13724  21.756  15.601   4.784  0.0911  0.0336  0.2031
    1DPPC   C1B13725  22.373  16.145   3.296 -0.2051  0.0380 -0.1853
    1DPPC   C2B13726  22.386  15.922   3.775  0.2739 -0.0681 -0.0592
    1DPPC   C3B13727  22.410  15.863   4.154 -0.1393 -0.2782 -0.2871
    1DPPC   C4B13728  22.121  15.792   4.520  0.3060 -0.0890 -0.0664
    1DPPC   NC313729  12.754  26.669   3.152 -0.0169 -0.4515 -0.2818
    1DPPC   PO413730  12.813  26.490   2.864 -0.2166  0.0698  0.3962
    1DPPC   GL113731  13.025  26.222   3.365  0.4975  0.1992 -0.1790
    1DPPC   GL213732  12.855  26.341   3.586  0.1178  0.0514 -0.2328
    1DPPC   C1A13733  13.313  26.000   3.611 -0.0627  0.2078  0.1910
    1DPPC   C2A13734  13.335  25.888   4.080  0.2223  0.0949  0.0037
    1DPPC   C3A13735  13.491  25.956   4.444 -0.0645  0.0378 -0.1353
    1DPPC   C4A13736  13.802  26.164   4.870  0.2163  0.0506  0.0969
    1DPPC   C1B13737  12.917  26.174   3.947 -0.0862 -0.0967  0.1730
    1DPPC   C2B13738  13.247  26.355   4.197 -0.2464  0.2571 -0.3188
    1DPPC   C3B13739  13.307  26.403   4.649  0.1125 -0.0367  0.3160
    1DPPC   C4B13740  13.577  26.638   4.882  0.1221  0.3465 -0.1406
    1DPPC   NC313741  18.772  10.399   1.974  0.0589 -0.1781 -0.0576
    1DPPC   PO413742  18.696  10.103   2.291  0.1067 -0.0302  0.0195
    1DPPC   GL113743  18.589   9.688   2.488  0.1873 -0.2838 -0.1254
    1DPPC   GL213744  18.449   9.418   2.371 -0.1991 -0.2170 -0.1499
    1DPPC   C1A13745  18.591   9.598   2.991  0.0338  0.0610  0.0013
    1DPPC   C2A13746  18.675   9.356   3.377  0.1416  0.1098  0.1631
    1DPPC   C3A13747  18.948   9.074   3.660 -0.1751 -0.2137 -0.0298
    1DPPC   C4A13748  19.140   9.131   4.150  0.3177 -0.1806  0.0168
    1DPPC   C1B13749  18.225   9.425   2.667  0.0166 -0.1694  0.0494
    1DPPC   C2B13750  18.154   9.350   3.162 -0.1355  0.2954 -0.2248
    1DPPC   C3B13751  17.894   9.069   3.472 -0.0523 -0.2467 -0.2989
    1DPPC   C4B13752  17.566   8.768   3.425  0.1148  0.2830 -0.1481
    1DPPC   NC313753   3.128  13.051   3.400  0.2659  0.4018  0.2177
    1DPPC   PO413754   3.277  12.660   3.220  0.1499 -0.0205 -0.0878
    1DPPC   GL113755   3.388  12.517   3.671  0.0404 -0.1092 -0.1310
    1DPPC   GL213756   3.241  12.405   3.833 -0.2085  0.0040  0.1036
    1DPPC   C1A13757   3.605  12.739   4.009 -0.1492  0.1035 -0.0156
    1DPPC   C2A13758   3.717  12.738   4.430  0.1223  0.0336  0.1523
    1DPPC   C3A13759   3.994  12.843   4.743  0.0689  0.0757 -0.1371
    1DPPC   C4A13760   4.069  12.830   5.199 -0.3596 -0.2307 -0.2241
    1DPPC   C1B13761   3.348  12.358   4.294 -0.1626  0.0360 -0.0914
    1DPPC   C2B13762   3.524  12.121   4.691  0.0173  0.0140 -0.1425
    1DPPC   C3B13763   3.864  11.956   5.054 -0.1364 -0.1685 -0.1431
    1DPPC   C4B13764   3.902  11.783   5.437 -0.0951 -0.2722  0.2204
    1DPPC   NC313765   6.391  21.701   3.323  0.0739  0.1207 -0.1468
    1DPPC   PO413766   6.014  21.872   3.411  0.0230  0.0971 -0.0714
    1DPPC   GL113767   6.158  21.786   3.816  0.0588  0.1316 -0.0509
    1DPPC   GL213768   6.221  22.063   4.027 -0.1892  0.1981  0.2540
    1DPPC   C1A13769   6.503  21.537   3.999  0.0136 -0.0433  0.2976
    1DPPC   C2A13770   6.974  21.420   4.081 -0.1642 -0.0024 -0.0690
    1DPPC   C3A13771   7.231  21.299   4.361 -0.2447 -0.2051  0.0444
    1DPPC   C4A13772   7.359  21.138   4.667 -0.1498 -0.0763 -0.2529
    1DPPC   C1B13773   6.238  21.939   4.426  0.1773  0.0224  0.1687
    1DPPC   C2B13774   6.190  22.146   4.853  0.3984  0.0288 -0.0505
    1DPPC   C3B13775   6.001  21.831   5.105 -0.2212  0.1168  0.1566
    1DPPC   C4B13776   5.743  21.910   5.469 -0.1020  0.2246 -0.3589
    1DPPC   NC313777  26.096   3.439   3.842 -0.0964 -0.2414  0.0252
    1DPPC   PO413778  25.726   3.605   3.676  0.1069 -0.1622 -0.1275
    1DPPC   GL113779  25.622   3.420   4.066 -0.2105 -0.0317  0.0359
    1DPPC   GL213780  25.873   3.268   4.312 -0.0036 -0.2556 -0.3758
    1DPPC   C1A13781  25.468   3.577   4.427  0.0183  0.3197  0.1352
    1DPPC   C2A13782  25.267   3.775   4.661  0.0527  0.2054 -0.0293
    1DPPC   C3A13783  25.275   4.226   4.964 -0.1859  0.0875 -0.2624
    1DPPC   C4A13784  25.435   4.391   5.246 -0.3088 -0.1937  0.2389
    1DPPC   C1B13785  26.079   3.389   4.636  0.0624 -0.1562  0.2397
    1DPPC   C2B13786  26.053   3.555   5.019  0.1704  0.3304  0.0065
    1DPPC   C3B13787  26.195   3.378   5.419 -0.2976  0.0897  0.0342
    1DPPC   C4B13788  25.899   3.319   5.743  0.3929  0.1635 -0.1158
    1DPPC   NC313789   5.321   1.888   4.492 -0.1466 -0.3486 -0.1173
    1DPPC   PO413790   5.214   1.381   4.505 -0.0967 -0.0082 -0.0166
    1DPPC   GL113791   5.266   1.054   4.944  0.3043  0.0446  0.0672
    1DPPC   GL213792   5.243   0.794   4.875 -0.1840  0.1601  0.2441
    1DPPC   C1A13793   5.407   0.915   5.302  0.0886  0.0944  0.3115
    1DPPC   C2A13794   5.332   0.744   5.782 -0.0665 -0.0866  0.0427
    1DPPC   C3A13795   5.418   0.582   6.124  0.0536  0.3737  0.1286
    1DPPC   C4A13796   5.793   0.481   6.420  0.1640 -0.0944 -0.6017
    1DPPC   C1B13797   5.470   0.421   5.171  0.0265  0.0050  0.2294
    1DPPC   C2B13798   5.467   0.286   5.607 -0.0421 -0.0400 -0.0570
    1DPPC   C3B13799   5.663   0.126   6.000 -0.0582 -0.1412  0.2935
    1DPPC   C4B13800   6.007   0.110   6.199 -0.1227  0.2037  0.1178
    1DPPC   NC313801  25.987   1.649   3.717  0.4269 -0.2293  0.0066
    1DPPC   PO413802  26.281   1.391   3.802  0.2058 -0.4356  0.1741
    1DPPC   GL113803  26.341   1.563   4.241 -0.1397  0.1207  0.0313
    1DPPC   GL213804  26.310   1.865   4.172 -0.1413 -0.0926 -0.1835
    1DPPC   C1A13805  26.251   1.452   4.736 -0.3794 -0.0497  0.0667
    1DPPC   C2A13806  26.159   1.119   4.908 -0.2440 -0.1709  0.1484
    1DPPC   C3A13807  26.320   0.992   5.320  0.0035 -0.2885  0.3673
    1DPPC   C4A13808  26.118   0.903   5.661  0.1399  0.3168  0.1834
    1DPPC   C1B13809  26.047   1.896   4.588 -0.0542 -0.0427 -0.0334
    1DPPC   C2B13810  25.839   2.026   4.907 -0.3234  0.1727 -0.0217
    1DPPC   C3B13811  25.846   2.042   5.361 -0.0031  0.1513  0.0407
    1DPPC   C4B13812  25.731   2.190   5.670  0.3432 -0.1004  0.2091
    1DPPC   NC313813   2.559  13.348   2.999 -0.1358 -0.0071  0.0429
    1DPPC   PO413814   2.625  13.073   3.438 -0.1132  0.1175  0.1305
    1DPPC   GL113815   2.544  12.912   3.875  0.1129 -0.1875  0.0917
    1DPPC   GL213816   2.416  12.728   3.914 -0.3980 -0.1802  0.0859
    1DPPC   C1A13817   2.483  12.985   4.317 -0.0124  0.0825  0.0224
    1DPPC   C2A13818   2.439  12.754   4.747 -0.0090  0.0189  0.1088
    1DPPC   C3A13819   2.663  12.419   5.091  0.2930 -0.0180  0.1201
    1DPPC   C4A13820   2.910  12.340   5.246  0.2954 -0.3034 -0.2697
    1DPPC   C1B13821   2.256  12.498   4.304 -0.1215 -0.1582 -0.2694
    1DPPC   C2B13822   2.117  12.400   4.759 -0.3139  0.1890  0.0581
    1DPPC   C3B13823   1.853  12.262   5.042 -0.1068  0.3266 -0.1996
    1DPPC   C4B13824   1.624  12.435   5.355  0.2026  0.0683 -0.4538
    1DPPC   NC313825   7.308  20.885   2.687 -0.1542  0.1052 -0.2205
    1DPPC   PO413826   7.056  20.594   2.922  0.1921 -0.0768 -0.1807
    1DPPC   GL113827   6.948  20.688   3.356  0.1995  0.1406 -0.0701
    1DPPC   GL213828   7.160  20.578   3.469 -0.0319  0.1041  0.0205
    1DPPC   C1A13829   6.703  20.676   3.691 -0.0307 -0.0082  0.1763
    1DPPC   C2A13830   6.522  20.436   3.921 -0.2719 -0.4188  0.5534
    1DPPC   C3A13831   6.498  20.378   4.228 -0.0077  0.4532 -0.0929
    1DPPC   C4A13832   6.412  20.086   4.638 -0.4142 -0.4321 -0.0351
    1DPPC   C1B13833   7.095  20.406   3.868 -0.0122  0.2283 -0.2747
    1DPPC   C2B13834   6.993  20.247   4.223 -0.1820  0.0208 -0.1342
    1DPPC   C3B13835   7.362  20.319   4.413  0.1491 -0.0076 -0.0436
    1DPPC   C4B13836   7.292  20.622   4.833 -0.0715 -0.1919 -0.1453
    1DPPC   NC313837  14.469  24.355   2.656 -0.2774 -0.0261  0.0167
    1DPPC   PO413838  14.431  24.673   3.005 -0.1537 -0.0194 -0.0400
    1DPPC   GL113839  14.436  24.895   3.376  0.1321 -0.1393  0.2411
    1DPPC   GL213840  14.684  25.092   3.457  0.0003 -0.0205 -0.1331
    1DPPC   C1A13841  14.282  25.093   3.841 -0.2758  0.3286  0.0926
    1DPPC   C2A13842  14.013  24.800   4.224  0.0292 -0.0749  0.0015
    1DPPC   C3A13843  14.179  24.668   4.670  0.0645  0.2269 -0.1748
    1DPPC   C4A13844  14.106  24.412   4.988  0.0005 -0.2850 -0.2472
    1DPPC   C1B13845  14.740  25.095   3.881 -0.0981  0.1098 -0.2123
    1DPPC   C2B13846  14.569  25.156   4.257  0.3534  0.0113 -0.2901
    1DPPC   C3B13847  14.410  25.097   4.613 -0.1792 -0.3598 -0.0479
    1DPPC   C4B13848  14.209  24.954   5.144  0.0369  0.1282 -0.0168
    1DPPC   NC313849   4.208  18.679   3.302  0.3557 -0.1157  0.1683
    1DPPC   PO413850   4.577  18.690   3.330  0.0766 -0.1490 -0.1933
    1DPPC   GL113851   4.572  18.502   3.654  0.0308 -0.1152 -0.0737
    1DPPC   GL213852   4.843  18.561   3.845 -0.2709  0.1759  0.1504
    1DPPC   C1A13853   4.420  18.683   4.035 -0.1632  0.1392  0.0700
    1DPPC   C2A13854   4.514  18.763   4.432 -0.0612 -0.2705  0.0030
    1DPPC   C3A13855   4.940  18.727   4.675  0.1275 -0.3181 -0.0039
    1DPPC   C4A13856   5.218  18.576   4.914  0.3593 -0.2230 -0.0488
    1DPPC   C1B13857   4.968  18.554   4.196  0.1374 -0.0947 -0.0540
    1DPPC   C2B13858   5.286  18.430   4.463  0.0602  0.5000  0.1663
    1DPPC   C3B13859   5.663  18.562   4.701 -0.0891  0.1020 -0.1532
    1DPPC   C4B13860   6.065  18.643   4.699  0.2747  0.2336  0.1122
    1DPPC   NC313861  18.386  28.490   2.947 -0.1424  0.2056 -0.0600
    1DPPC   PO413862  18.011  28.374   2.848 -0.2080 -0.1063 -0.1644
    1DPPC   GL113863  17.844  28.489   3.305 -0.2328  0.1293 -0.2628
    1DPPC   GL213864  18.139  28.412   3.366  0.0353  0.0386  0.0418
    1DPPC   C1A13865  17.696  28.477   3.733 -0.3676 -0.0673  0.1093
    1DPPC   C2A13866  17.464  28.404   4.159  0.0609 -0.1192 -0.1091
    1DPPC   C3A13867  17.314  28.487   4.557 -0.2831 -0.0683  0.3943
    1DPPC   C4A13868  17.407  28.600   4.985 -0.2298 -0.2865  0.4464
    1DPPC   C1B13869  18.202  28.519   3.813  0.1734 -0.2125 -0.0544
    1DPPC   C2B13870  18.303  28.525   4.242  0.1423  0.0323 -0.2750
    1DPPC   C3B13871  18.289  28.719   4.663 -0.1129  0.0944  0.1522
    1DPPC   C4B13872  18.257  29.105   5.017  0.0948 -0.3015  0.0980
    1DPPC   NC313873  19.290  13.921   2.089  0.0133  0.2853 -0.3306
    1DPPC   PO413874  18.878  13.775   2.254  0.0725  0.1713  0.0391
    1DPPC   GL113875  18.752  13.592   2.769 -0.3577 -0.0163  0.0639
    1DPPC   GL213876  18.855  13.389   2.880 -0.1672 -0.2343  0.2690
    1DPPC   C1A13877  18.510  13.647   3.113 -0.1682  0.0996  0.2419
    1DPPC   C2A13878  18.471  13.618   3.569 -0.2490  0.0283  0.0285
    1DPPC   C3A13879  18.242  13.637   3.929 -0.0457  0.2222  0.2840
    1DPPC   C4A13880  17.919  13.549   4.240 -0.1305  0.2201  0.0272
    1DPPC   C1B13881  18.988  13.472   3.315 -0.2184  0.0754  0.1728
    1DPPC   C2B13882  19.010  13.517   3.728  0.6059  0.1140 -0.0796
    1DPPC   C3B13883  18.695  13.532   4.113  0.4803  0.1318  0.0143
    1DPPC   C4B13884  18.458  13.667   4.412  0.1342  0.2478 -0.0961
    1DPPC   NC313885  13.186  28.473   2.918 -0.1170  0.3559  0.0780
    1DPPC   PO413886  13.551  28.209   2.747 -0.0874  0.3150  0.0033
    1DPPC   GL113887  13.524  28.062   3.118 -0.0627  0.2525 -0.2670
    1DPPC   GL213888  13.811  27.883   3.060 -0.1338 -0.0707 -0.1165
    1DPPC   C1A13889  13.323  27.895   3.389 -0.2916  0.4896  0.1763
    1DPPC   C2A13890  12.868  27.810   3.479  0.1681 -0.1744  0.0312
    1DPPC   C3A13891  12.579  27.614   3.618  0.1258  0.3505  0.1402
    1DPPC   C4A13892  12.569  27.532   4.097  0.1866 -0.0633 -0.2062
    1DPPC   C1B13893  13.777  27.644   3.515 -0.1843 -0.0366  0.1483
    1DPPC   C2B13894  13.504  27.680   3.789 -0.3311  0.2470  0.3630
    1DPPC   C3B13895  13.149  27.732   3.913 -0.1754  0.0170  0.1285
    1DPPC   C4B13896  12.823  27.925   4.190  0.0061  0.1034  0.3098
    1DPPC   NC313897  16.647   1.042   2.235 -0.2521  0.0567 -0.0542
    1DPPC   PO413898  16.625   0.754   2.596 -0.1484  0.1753  0.2923
    1DPPC   GL113899  16.556   0.543   3.001  0.0789  0.1460 -0.0170
    1DPPC   GL213900  16.359   0.271   3.060 -0.0490 -0.2215  0.0606
    1DPPC   C1A13901  16.412   0.568   3.410 -0.0727  0.1017  0.0083
    1DPPC   C2A13902  16.323   0.627   3.801  0.0905  0.1267 -0.3807
    1DPPC   C3A13903  16.311   0.636   4.183  0.0541 -0.0377  0.1891
    1DPPC   C4A13904  16.228   1.028   4.446  0.1921  0.0973 -0.1189
    1DPPC   C1B13905  16.063   0.070   3.360  0.1239 -0.0233 -0.2310
    1DPPC   C2B13906  16.127   0.047   3.858 -0.1854 -0.0284  0.2516
    1DPPC   C3B13907  16.120   0.116   4.280  0.0284 -0.3546 -0.1512
    1DPPC   C4B13908  16.003   0.122   4.691 -0.0764 -0.0686  0.2885
    1DPPC   NC313909  11.724  27.215   3.404  0.1307  0.0262 -0.0766
    1DPPC   PO413910  11.453  26.840   3.364  0.1335  0.0082  0.2068
    1DPPC   GL113911  11.556  26.886   3.709  0.3705  0.1407  0.0958
    1DPPC   GL213912  11.599  26.620   3.906 -0.1508  0.1306  0.0161
    1DPPC   C1A13913  11.500  27.152   4.027 -0.2664 -0.0485  0.0563
    1DPPC   C2A13914  11.741  27.393   4.195 -0.2805  0.0736 -0.1567
    1DPPC   C3A13915  12.076  27.508   4.319  0.2044  0.1456 -0.1405
    1DPPC   C4A13916  12.358  27.516   4.720  0.3867  0.1825  0.2791
    1DPPC   C1B13917  12.020  26.457   3.998  0.3867  0.1924  0.0040
    1DPPC   C2B13918  12.472  26.449   4.409  0.0482 -0.1639  0.0919
    1DPPC   C3B13919  12.863  26.277   4.476 -0.0525 -0.0835  0.0394
    1DPPC   C4B13920  12.903  26.178   4.826  0.1434 -0.2217 -0.3857
    1DPPC   NC313921  12.979  24.115   3.442 -0.0757 -0.0502  0.0036
    1DPPC   PO413922  12.569  24.037   3.265  0.0072 -0.0840  0.2611
    1DPPC   GL113923  12.517  24.226   3.797 -0.2156 -0.0658  0.1314
    1DPPC   GL213924  12.202  24.117   3.727 -0.2339  0.0571 -0.2253
    1DPPC   C1A13925  12.516  24.139   4.138 -0.3137 -0.0277 -0.0772
    1DPPC   C2A13926  12.498  24.068   4.616  0.0337 -0.1291 -0.1762
    1DPPC   C3A13927  12.479  23.865   4.986  0.0320 -0.1107 -0.1780
    1DPPC   C4A13928  12.473  23.529   5.320 -0.3103 -0.0710 -0.0721
    1DPPC   C1B13929  12.038  24.320   4.035  0.3952  0.0261  0.0805
    1DPPC   C2B13930  11.879  24.565   4.249  0.2082 -0.2321  0.0957
    1DPPC   C3B13931  11.622  24.750   4.474  0.4039 -0.1112  0.1520
    1DPPC   C4B13932  11.331  24.944   4.390  0.0533  0.4575  0.0392
    1DPPC   NC313933   5.427   0.754   3.914  0.2830  0.1867  0.2413
    1DPPC   PO413934   5.787   0.731   4.178 -0.1085  0.3158  0.2036
    1DPPC   GL113935   5.893   0.841   4.615  0.0289  0.2769  0.2493
    1DPPC   GL213936   5.671   1.041   4.680  0.0581  0.1978 -0.0452
    1DPPC   C1A13937   5.888   0.776   5.046  0.2427 -0.3180 -0.2880
    1DPPC   C2A13938   5.851   0.755   5.436  0.0206 -0.3093 -0.1641
    1DPPC   C3A13939   5.626   1.089   5.759  0.0751  0.1520 -0.3466
    1DPPC   C4A13940   5.409   1.111   6.125 -0.1776  0.0143 -0.0468
    1DPPC   C1B13941   5.713   1.210   5.081  0.5410  0.1651  0.2844
    1DPPC   C2B13942   5.842   1.327   5.438 -0.1390 -0.0811 -0.0306
    1DPPC   C3B13943   6.052   1.554   5.782  0.1030  0.1163  0.2024
    1DPPC   C4B13944   6.268   1.936   5.871 -0.0060 -0.0821 -0.1316
    1DPPC   NC313945  22.429  15.061   2.186  0.1564 -0.1674  0.0967
    1DPPC   PO413946  22.556  15.096   2.677  0.3669  0.2799  0.1671
    1DPPC   GL113947  22.310  15.129   3.051  0.2696 -0.0638 -0.1613
    1DPPC   GL213948  22.377  15.082   3.357 -0.0486 -0.0606 -0.2373
    1DPPC   C1A13949  21.926  15.307   3.181 -0.2859  0.0022 -0.2328
    1DPPC   C2A13950  21.650  15.346   3.388 -0.1498 -0.0341  0.3879
    1DPPC   C3A13951  21.518  15.069   3.616  0.0471  0.0354  0.1768
    1DPPC   C4A13952  21.128  14.804   3.769 -0.0521 -0.3484  0.1959
    1DPPC   C1B13953  22.048  14.926   3.550 -0.1983  0.2851  0.0428
    1DPPC   C2B13954  21.868  14.821   3.941  0.0543 -0.3476  0.2328
    1DPPC   C3B13955  21.896  14.634   4.386 -0.0579  0.0490 -0.2248
    1DPPC   C4B13956  21.820  14.460   4.694 -0.1400  0.2459  0.1127
    1DPPC   NC313957  16.849   1.937   2.055  0.1985  0.0951  0.2606
    1DPPC   PO413958  16.614   1.678   2.440 -0.2250 -0.0012  0.0152
    1DPPC   GL113959  16.436   1.755   2.878  0.4427  0.1715 -0.0594
    1DPPC   GL213960  16.210   1.863   2.975 -0.1266  0.0680 -0.0020
    1DPPC   C1A13961  16.468   1.413   3.277  0.0294 -0.1356  0.1760
    1DPPC   C2A13962  16.365   1.526   3.717  0.0338  0.0436 -0.2222
    1DPPC   C3A13963  16.340   1.370   4.060 -0.0352  0.1500 -0.1247
    1DPPC   C4A13964  16.607   1.340   4.339  0.1476 -0.0873 -0.2159
    1DPPC   C1B13965  16.209   1.870   3.411 -0.0872 -0.2712 -0.2145
    1DPPC   C2B13966  16.179   1.969   3.802 -0.0900  0.1513  0.0383
    1DPPC   C3B13967  16.289   1.874   4.167  0.0450  0.2324  0.0692
    1DPPC   C4B13968  16.111   1.569   4.486 -0.1173 -0.1149 -0.1247
    1DPPC   NC313969  26.330  20.561   3.604 -0.1121  0.1264  0.0462
    1DPPC   PO413970  26.316  20.949   3.593 -0.0126 -0.2087 -0.2068
    1DPPC   GL113971  26.110  20.893   4.005  0.0830 -0.0257  0.1230
    1DPPC   GL213972  25.996  20.560   4.093  0.0283  0.2278 -0.0784
    1DPPC   C1A13973  25.798  20.988   4.376  0.1152  0.5540  0.1329
    1DPPC   C2A13974  25.538  20.912   4.638  0.2313  0.0643  0.0713
    1DPPC   C3A13975  25.349  20.823   5.063 -0.1431 -0.1932 -0.1479
    1DPPC   C4A13976  25.111  20.960   5.390 -0.1401 -0.1483  0.2836
    1DPPC   C1B13977  25.915  20.182   4.278  0.0704  0.1713  0.3495
    1DPPC   C2B13978  25.867  20.030   4.711 -0.1799 -0.1324  0.0790
    1DPPC   C3B13979  25.496  19.825   4.812 -0.1794  0.1161  0.1142
    1DPPC   C4B13980  25.080  19.753   4.778  0.0588 -0.0226  0.1690
    1DPPC   NC313981  22.603   8.143   2.788 -0.0077 -0.0622  0.0765
    1DPPC   PO413982  22.666   7.673   2.482  0.3903  0.1768  0.0571
    1DPPC   GL113983  22.375   7.301   2.599 -0.2121  0.2548  0.3175
    1DPPC   GL213984  22.461   7.041   2.757 -0.1856 -0.2827  0.1785
    1DPPC   C1A13985  21.991   7.363   2.729 -0.3328  0.1762  0.2635
    1DPPC   C2A13986  21.863   7.363   3.126  0.2068 -0.1264  0.1378
    1DPPC   C3A13987  21.717   7.313   3.427  0.0714 -0.0081 -0.4219
    1DPPC   C4A13988  21.513   7.369   3.734 -0.2633  0.0746  0.3894
    1DPPC   C1B13989  22.349   7.323   3.076  0.3805  0.0809 -0.3442
    1DPPC   C2B13990  22.223   7.404   3.475  0.2675 -0.1208 -0.1123
    1DPPC   C3B13991  21.946   7.722   3.706  0.0607  0.1756 -0.2036
    1DPPC   C4B13992  22.031   8.103   3.894 -0.1136  0.0130  0.2708
    1DPPC   NC313993  22.875   0.408   2.638  0.3259  0.1024  0.2069
    1DPPC   PO413994  22.744   0.032   2.574 -0.0995  0.5848 -0.1597
    1DPPC   GL113995  23.193   0.050   2.899  0.3969  0.1622 -0.2049
    1DPPC   GL213996  23.275   0.367   3.072  0.2774 -0.0411 -0.2005
    1DPPC   C1A13997  23.418  -0.048   3.312  0.1895  0.0434 -0.1467
    1DPPC   C2A13998  23.470   0.108   3.692 -0.1142  0.0588 -0.4272
    1DPPC   C3A13999  23.341   0.047   4.078  0.1761 -0.3106 -0.1300
    1DPPC   C4A14000  23.236  -0.066   4.410  0.5705 -0.2037  0.0952
    1DPPC   C1B14001  23.008   0.406   3.504  0.0732 -0.1158  0.0602
    1DPPC   C2B14002  22.671   0.538   3.878 -0.3859 -0.0018  0.3480
    1DPPC   C3B14003  22.435   0.488   4.179 -0.1639  0.0076 -0.1240
    1DPPC   C4B14004  22.367   0.537   4.699 -0.2077 -0.1300 -0.2048
    1DPPC   NC314005  18.565   1.571   2.624 -0.2636  0.0084 -0.0262
    1DPPC   PO414006  18.973   1.450   2.712 -0.0851 -0.0957  0.2501
    1DPPC   GL114007  18.871   1.729   3.068 -0.0858  0.2267  0.0513
    1DPPC   GL214008  19.146   1.932   3.245  0.0048 -0.2138 -0.0899
    1DPPC   C1A14009  18.827   1.554   3.451 -0.1393  0.0376  0.0339
    1DPPC   C2A14010  18.942   1.641   3.884 -0.6581  0.1886  0.2631
    1DPPC   C3A14011  18.829   1.691   4.350 -0.1539 -0.2444 -0.2826
    1DPPC   C4A14012  18.581   1.901   4.673  0.2555 -0.3487 -0.1155
    1DPPC   C1B14013  18.924   2.044   3.551 -0.0405 -0.2015 -0.1321
    1DPPC   C2B14014  18.911   2.127   4.099 -0.2009  0.1742 -0.0514
    1DPPC   C3B14015  19.023   2.129   4.520 -0.1543 -0.0842 -0.5422
    1DPPC   C4B14016  19.200   2.059   4.965 -0.0695  0.0533 -0.2175
    1DPPC   NC314017  24.349   0.949   3.193 -0.2046 -0.2206  0.1041
    1DPPC   PO414018  24.804   0.879   3.075  0.0811 -0.2701 -0.0557
    1DPPC   GL114019  24.778   1.118   3.469 -0.1307 -0.1649  0.1214
    1DPPC   GL214020  24.983   1.282   3.652 -0.0636  0.2875 -0.3839
    1DPPC   C1A14021  24.464   1.243   3.862 -0.0433  0.0378  0.0676
    1DPPC   C2A14022  24.297   1.262   4.219 -0.1199  0.0895  0.0345
    1DPPC   C3A14023  23.882   1.263   4.570  0.3518 -0.2627 -0.1890
    1DPPC   C4A14024  23.421   1.346   4.674  0.0518 -0.1285 -0.0110
    1DPPC   C1B14025  24.931   1.328   4.127 -0.0082 -0.0908  0.0915
    1DPPC   C2B14026  24.801   1.079   4.345  0.0138 -0.2520 -0.1141
    1DPPC   C3B14027  24.664   1.094   4.773  0.0949 -0.0103  0.3436
    1DPPC   C4B14028  24.632   1.231   5.201  0.0049 -0.1088  0.1084
    1DPPC   NC314029   7.909   8.931   2.455  0.1629 -0.0155 -0.1277
    1DPPC   PO414030   7.918   9.314   2.770 -0.0326  0.0273  0.4984
    1DPPC   GL114031   7.797   9.614   3.076  0.2719 -0.2209  0.2378
    1DPPC   GL214032   7.934   9.454   3.245  0.0435  0.0382  0.0604
    1DPPC   C1A14033   7.787   9.919   3.409 -0.1479  0.1027  0.1798
    1DPPC   C2A14034   7.797  10.242   3.709 -0.2061 -0.4688 -0.0391
    1DPPC   C3A14035   7.994  10.398   4.065  0.0255 -0.0626 -0.2518
    1DPPC   C4A14036   8.318  10.679   4.085 -0.3334  0.0892 -0.0296
    1DPPC   C1B14037   8.050   9.317   3.667  0.1900 -0.0046 -0.3553
    1DPPC   C2B14038   8.243   9.027   4.006 -0.1083  0.0274  0.0795
    1DPPC   C3B14039   8.305   8.561   4.158  0.1324  0.3302  0.3780
    1DPPC   C4B14040   8.228   8.390   4.623  0.2736 -0.1915  0.0523
    1DPPC   NC314041   0.237  20.820   3.822  0.2616 -0.0597 -0.2197
    1DPPC   PO414042  -0.234  20.705   3.888 -0.3102  0.0942  0.1578
    1DPPC   GL114043  -0.092  20.428   3.982 -0.3193  0.1031  0.0347
    1DPPC   GL214044  -0.236  20.208   4.174  0.0188  0.4414  0.2428
    1DPPC   C1A14045   0.146  20.465   4.374 -0.1131  0.0165 -0.2670
    1DPPC   C2A14046   0.084  20.227   4.757 -0.0225 -0.0209 -0.0443
    1DPPC   C3A14047   0.050  19.938   5.102 -0.2174 -0.0183  0.0580
    1DPPC   C4A14048   0.338  19.902   5.408 -0.1162  0.1529  0.1910
    1DPPC   C1B14049  -0.438  20.076   4.516  0.1778  0.0458  0.1278
    1DPPC   C2B14050  -0.586  20.022   4.799 -0.0339 -0.0068  0.0868
    1DPPC   C3B14051  -0.503  19.882   5.214 -0.0134  0.0052 -0.0997
    1DPPC   C4B14052  -0.143  19.904   5.555  0.5365  0.0333  0.0154
    1DPPC   NC314053  15.483  22.599   2.857  0.1483 -0.2007  0.0424
    1DPPC   PO414054  15.778  22.888   2.970  0.0978  0.0407  0.0530
    1DPPC   GL114055  15.930  22.578   3.195  0.2949  0.0466 -0.0180
    1DPPC   GL214056  15.611  22.606   3.358  0.0956 -0.1531 -0.0014
    1DPPC   C1A14057  16.074  22.751   3.613 -0.0322  0.1335  0.0708
    1DPPC   C2A14058  16.270  22.757   4.129  0.0050 -0.1546 -0.0730
    1DPPC   C3A14059  16.109  22.881   4.441 -0.0614 -0.2504  0.0081
    1DPPC   C4A14060  16.006  22.956   4.913 -0.0997  0.0486 -0.0293
    1DPPC   C1B14061  15.631  22.660   3.862  0.3529 -0.1503  0.2694
    1DPPC   C2B14062  15.855  22.447   4.218  0.0370  0.1573 -0.0898
    1DPPC   C3B14063  16.137  22.309   4.367  0.2106 -0.1554 -0.0089
    1DPPC   C4B14064  16.526  22.436   4.521 -0.2476 -0.0533 -0.0246
    1DPPC   NC314065   4.682   1.261   3.981 -0.0005  0.0528  0.1083
    1DPPC   PO414066   4.797   0.928   4.251  0.0758  0.1475 -0.0573
    1DPPC   GL114067   4.779   0.517   4.469  0.2219 -0.1196 -0.3678
    1DPPC   GL214068   4.626   0.259   4.658 -0.2143  0.0258  0.0099
    1DPPC   C1A14069   4.780   0.615   4.964  0.2869 -0.0814  0.0133
    1DPPC   C2A14070   4.973   0.576   5.401  0.2431 -0.1219 -0.0121
    1DPPC   C3A14071   4.938   0.489   5.839  0.0838  0.1478  0.0677
    1DPPC   C4A14072   5.104   0.126   6.012  0.0138 -0.2846 -0.0931
    1DPPC   C1B14073   4.533  -0.085   4.884 -0.0286 -0.2989 -0.0877
    1DPPC   C2B14074   4.559  -0.322   5.116  0.0788  0.0763  0.2046
    1DPPC   C3B14075   4.796  -0.508   5.472 -0.0746  0.2134  0.0278
    1DPPC   C4B14076   4.768  -0.779   5.867 -0.3670  0.1134 -0.0844
    1DPPC   NC314077  28.367  16.156   3.796  0.1609 -0.2676  0.0198
    1DPPC   PO414078  28.424  15.851   4.013  0.0718  0.4420 -0.2043
    1DPPC   GL114079  28.736  15.655   4.328 -0.0739 -0.2423  0.0341
    1DPPC   GL214080  28.707  15.388   4.446  0.1530 -0.0277  0.4220
    1DPPC   C1A14081  28.811  15.825   4.822  0.3717  0.2164  0.2980
    1DPPC   C2A14082  28.827  15.890   5.297 -0.0633  0.0550 -0.0987
    1DPPC   C3A14083  28.878  16.073   5.716  0.1559 -0.0141 -0.1802
    1DPPC   C4A14084  28.904  16.017   6.247  0.0702 -0.0724 -0.2124
    1DPPC   C1B14085  28.928  15.328   4.864 -0.0345  0.0728  0.1714
    1DPPC   C2B14086  29.085  15.470   5.263  0.0151  0.0680 -0.0128
    1DPPC   C3B14087  28.954  15.297   5.695 -0.0109  0.0713 -0.1216
    1DPPC   C4B14088  29.068  14.977   6.050  0.2589 -0.4331  0.2098
    1DPPC   NC314089  15.685  10.787   1.749  0.0274 -0.1355 -0.0829
    1DPPC   PO414090  16.119  10.762   1.861 -0.2919  0.1442 -0.0744
    1DPPC   GL114091  16.316  10.656   2.204 -0.0161  0.1486 -0.2661
    1DPPC   GL214092  16.680  10.790   2.396 -0.0111 -0.0113 -0.0549
    1DPPC   C1A14093  16.220  10.750   2.630  0.0459  0.3342  0.1996
    1DPPC   C2A14094  16.448  10.684   3.056  0.1351 -0.0491  0.1761
    1DPPC   C3A14095  16.432  10.824   3.455  0.5273  0.3339 -0.0778
    1DPPC   C4A14096  16.539  11.078   3.851  0.0037 -0.1737  0.2176
    1DPPC   C1B14097  16.619  10.419   2.584 -0.0116  0.1864  0.1297
    1DPPC   C2B14098  16.783  10.283   2.863 -0.1344  0.1399  0.0934
    1DPPC   C3B14099  16.912   9.897   3.130 -0.1700 -0.2257 -0.1016
    1DPPC   C4B14100  17.066   9.579   3.325  0.0038  0.2185 -0.1657
    1DPPC   NC314101  12.072  27.425   3.007 -0.0314  0.2328 -0.2877
    1DPPC   PO414102  12.064  26.987   3.147  0.2480  0.0233  0.0708
    1DPPC   GL114103  12.246  26.956   3.569 -0.3303  0.1977  0.0693
    1DPPC   GL214104  12.388  26.603   3.541  0.0911 -0.1308 -0.1896
    1DPPC   C1A14105  12.433  27.099   3.918 -0.2703 -0.1646 -0.2883
    1DPPC   C2A14106  12.548  27.105   4.349  0.0769 -0.1396 -0.0282
    1DPPC   C3A14107  12.763  27.209   4.733 -0.4029 -0.4009  0.0064
    1DPPC   C4A14108  12.899  27.596   4.789 -0.0909 -0.1462 -0.0631
    1DPPC   C1B14109  12.628  26.653   3.905 -0.3453 -0.2271  0.0397
    1DPPC   C2B14110  12.856  26.752   4.257  0.1163  0.0192  0.0751
    1DPPC   C3B14111  13.257  26.894   4.389 -0.1631 -0.0455  0.1523
    1DPPC   C4B14112  13.654  26.929   4.308 -0.0917 -0.0470 -0.0702
    1DPPC   NC314113  20.931  20.455   2.171 -0.3185 -0.1304  0.0369
    1DPPC   PO414114  20.925  20.118   2.504  0.0341  0.0430 -0.3234
    1DPPC   GL114115  20.553  20.003   2.825  0.1186  0.3643 -0.1484
    1DPPC   GL214116  20.609  20.074   3.086 -0.3472 -0.0635  0.0731
    1DPPC   C1A14117  20.053  19.873   2.856  0.0500 -0.0013 -0.0703
    1DPPC   C2A14118  19.822  19.917   3.212 -0.2931 -0.0177 -0.1955
    1DPPC   C3A14119  19.841  20.084   3.685 -0.1925 -0.0158  0.0533
    1DPPC   C4A14120  19.829  20.375   3.946  0.0405  0.0627  0.2235
    1DPPC   C1B14121  20.273  20.331   3.149  0.1993  0.0173  0.2953
    1DPPC   C2B14122  20.127  20.836   3.147  0.0265 -0.0250  0.3771
    1DPPC   C3B14123  19.780  20.978   3.272  0.1176 -0.0261  0.1870
    1DPPC   C4B14124  19.375  20.949   3.558 -0.1339 -0.2684  0.1847
    1DPPC   NC314125  17.119  10.090   1.803  0.0862  0.0532 -0.1340
    1DPPC   PO414126  17.396   9.818   1.767 -0.2547 -0.1736 -0.0171
    1DPPC   GL114127  17.104   9.814   2.203 -0.3716 -0.2059 -0.3246
    1DPPC   GL214128  16.898  10.074   2.263  0.3199  0.3079  0.0840
    1DPPC   C1A14129  17.006   9.753   2.664 -0.1422 -0.2055 -0.1852
    1DPPC   C2A14130  16.998   9.320   2.897  0.0561  0.0370 -0.3419
    1DPPC   C3A14131  17.231   8.965   3.035 -0.1339  0.0699  0.0791
    1DPPC   C4A14132  17.210   8.527   3.098  0.2411  0.2428  0.2478
    1DPPC   C1B14133  17.209  10.226   2.590  0.1422  0.1421  0.0916
    1DPPC   C2B14134  17.211  10.304   3.069 -0.0921 -0.1242 -0.0886
    1DPPC   C3B14135  17.153  10.538   3.393  0.0943  0.1197  0.0546
    1DPPC   C4B14136  16.860  10.541   3.776  0.4207  0.2480 -0.1510
    1DPPC   NC314137  11.661  10.845   2.136 -0.1958  0.0730  0.0351
    1DPPC   PO414138  11.465  11.196   2.365 -0.1638 -0.1389 -0.3692
    1DPPC   GL114139  11.519  10.995   2.724 -0.0939 -0.0083 -0.0161
    1DPPC   GL214140  11.712  10.763   2.649 -0.0607 -0.2774  0.0182
    1DPPC   C1A14141  11.673  11.032   3.180 -0.0530  0.4967  0.0120
    1DPPC   C2A14142  12.039  11.120   3.458  0.0409  0.0613 -0.3271
    1DPPC   C3A14143  12.375  11.238   3.754 -0.0525  0.1255  0.0030
    1DPPC   C4A14144  12.840  11.263   3.768 -0.2398 -0.1070 -0.1374
    1DPPC   C1B14145  11.744  10.551   3.063  0.5756 -0.2362  0.0956
    1DPPC   C2B14146  11.698  10.689   3.519 -0.0714  0.0227  0.3557
    1DPPC   C3B14147  12.001  10.615   3.730 -0.1581  0.2380 -0.0362
    1DPPC   C4B14148  12.082  10.914   4.006  0.1914  0.1004 -0.2902
    1DPPC   NC314149  23.568   6.470   2.180  0.0600 -0.1178  0.0389
    1DPPC   PO414150  23.296   6.467   2.507  0.0285 -0.0145  0.0154
    1DPPC   GL114151  23.064   6.341   2.826  0.0474  0.0714 -0.2838
    1DPPC   GL214152  22.716   6.550   2.673 -0.1006 -0.0813 -0.2095
    1DPPC   C1A14153  22.775   6.493   3.235 -0.1363 -0.0887  0.1278
    1DPPC   C2A14154  22.702   6.489   3.780  0.0072 -0.2406  0.1367
    1DPPC   C3A14155  22.282   6.580   4.033  0.1003  0.1680  0.4022
    1DPPC   C4A14156  22.074   6.900   4.332  0.0487  0.0818 -0.0511
    1DPPC   C1B14157  22.823   6.951   3.083 -0.0118 -0.0677 -0.1410
    1DPPC   C2B14158  22.972   6.877   3.586 -0.3483  0.0756  0.0244
    1DPPC   C3B14159  23.055   7.067   3.879 -0.4908  0.1660 -0.0626
    1DPPC   C4B14160  23.122   7.143   4.332 -0.0303  0.1909 -0.2277
    1DPPC   NC314161   2.109  13.976   3.474  0.1553 -0.0933 -0.0385
    1DPPC   PO414162   2.153  13.545   3.338 -0.0193 -0.0684  0.1385
    1DPPC   GL114163   2.157  13.602   3.770 -0.3325  0.2265 -0.1954
    1DPPC   GL214164   2.363  13.854   3.878 -0.0507  0.1519  0.0858
    1DPPC   C1A14165   2.174  13.320   4.087  0.1444 -0.0651 -0.1498
    1DPPC   C2A14166   2.232  13.430   4.596 -0.1769  0.2451  0.3130
    1DPPC   C3A14167   2.256  13.609   4.935  0.1660  0.3652  0.0727
    1DPPC   C4A14168   2.015  13.781   5.316 -0.0017  0.0230  0.3354
    1DPPC   C1B14169   2.132  13.823   4.245  0.3041  0.1058 -0.0687
    1DPPC   C2B14170   2.138  13.958   4.588  0.1265  0.2285  0.1593
    1DPPC   C3B14171   1.773  13.919   4.734  0.0411  0.2854  0.0441
    1DPPC   C4B14172   1.523  13.764   4.877 -0.1062  0.1452 -0.0685
    1DPPC   NC314173   9.912  17.072   2.651 -0.4457 -0.0560 -0.7256
    1DPPC   PO414174   9.626  17.182   2.395 -0.0728 -0.0312  0.1791
    1DPPC   GL114175   9.316  17.044   2.716  0.1333  0.0051  0.1742
    1DPPC   GL214176   9.449  17.166   2.974  0.0468  0.3073  0.3435
    1DPPC   C1A14177   8.941  17.354   2.809  0.0221  0.0705  0.0896
    1DPPC   C2A14178   8.799  17.467   3.150 -0.1174  0.0385 -0.1332
    1DPPC   C3A14179   8.631  17.449   3.598  0.1622  0.1403 -0.2218
    1DPPC   C4A14180   8.245  17.403   3.785 -0.0988  0.1678  0.2668
    1DPPC   C1B14181   9.150  17.093   3.188  0.0348 -0.0644 -0.2552
    1DPPC   C2B14182   9.105  17.079   3.665 -0.3026  0.1548  0.2297
    1DPPC   C3B14183   9.402  16.972   4.011  0.1412 -0.0733  0.1801
    1DPPC   C4B14184   9.233  16.669   4.179 -0.0409  0.1657 -0.0096
    1DPPC   NC314185  16.176   0.465   2.658  0.2093  0.0342 -0.0614
    1DPPC   PO414186  16.136   0.785   2.432 -0.2546 -0.0874  0.1706
    1DPPC   GL114187  16.115   1.019   2.810  0.1978 -0.1381 -0.1529
    1DPPC   GL214188  16.102   1.369   2.729  0.0187  0.1996  0.0907
    1DPPC   C1A14189  16.305   0.991   3.150  0.2896  0.1623 -0.0500
    1DPPC   C2A14190  16.113   0.974   3.522  0.2045 -0.1300  0.1613
    1DPPC   C3A14191  16.050   0.996   3.949 -0.2227 -0.0355 -0.0288
    1DPPC   C4A14192  15.799   1.169   4.328 -0.2903  0.2933 -0.1795
    1DPPC   C1B14193  15.987   1.395   3.244 -0.1126  0.0420 -0.0259
    1DPPC   C2B14194  15.838   1.342   3.701 -0.0155 -0.0409  0.0129
    1DPPC   C3B14195  15.845   1.580   4.034 -0.3244  0.1305 -0.3548
    1DPPC   C4B14196  15.680   1.793   4.385  0.1982  0.0488 -0.1591
    1DPPC   NC314197  28.425   2.648   3.647 -0.0920 -0.1798 -0.1024
    1DPPC   PO414198  28.231   2.319   3.935 -0.2611 -0.0507 -0.0980
    1DPPC   GL114199  28.422   2.233   4.376 -0.4079  0.1742  0.0364
    1DPPC   GL214200  28.058   2.290   4.517  0.1422 -0.2183  0.1365
    1DPPC   C1A14201  28.572   2.081   4.746  0.0599 -0.2306  0.1345
    1DPPC   C2A14202  28.653   1.940   5.124 -0.0920 -0.0480 -0.0795
    1DPPC   C3A14203  28.897   1.663   5.293  0.1139  0.0525  0.5448
    1DPPC   C4A14204  29.018   1.420   5.657 -0.3076  0.1327  0.1860
    1DPPC   C1B14205  28.130   2.191   4.887 -0.1893  0.0320 -0.2514
    1DPPC   C2B14206  28.177   1.975   5.216  0.0430 -0.2766 -0.1549
    1DPPC   C3B14207  28.060   1.771   5.719 -0.3480  0.1111 -0.0398
    1DPPC   C4B14208  27.926   1.550   6.055  0.1938  0.0343  0.0995
    1DPPC   NC314209  25.989  26.620   3.936 -0.0628  0.1319 -0.1136
    1DPPC   PO414210  26.325  26.344   3.965 -0.3198  0.1029  0.0465
    1DPPC   GL114211  26.356  26.086   4.256 -0.1927  0.4410  0.1252
    1DPPC   GL214212  26.117  25.755   4.240  0.0022 -0.0083 -0.0581
    1DPPC   C1A14213  26.242  26.191   4.704 -0.1845 -0.0364  0.0235
    1DPPC   C2A14214  26.142  26.072   5.080  0.0489 -0.2534  0.1700
    1DPPC   C3A14215  26.306  25.856   5.464  0.2399 -0.0092  0.0771
    1DPPC   C4A14216  26.417  25.787   5.833 -0.2598  0.0783  0.1752
    1DPPC   C1B14217  26.156  25.729   4.703 -0.3021  0.0599 -0.1514
    1DPPC   C2B14218  25.936  25.647   5.091  0.2451  0.1514 -0.0667
    1DPPC   C3B14219  25.904  25.616   5.584  0.0376  0.0384 -0.1121
    1DPPC   C4B14220  25.920  25.826   5.882 -0.0264 -0.0089 -0.0852
    1DPPC   NC314221  16.480   2.538   2.359  0.0960  0.2178  0.4350
    1DPPC   PO414222  16.493   2.159   2.617  0.2199 -0.4413  0.0291
    1DPPC   GL114223  16.875   1.984   2.881 -0.0840 -0.2138 -0.1384
    1DPPC   GL214224  16.887   1.551   2.971 -0.5196  0.2109 -0.1707
    1DPPC   C1A14225  16.739   1.825   3.345  0.0778 -0.0415  0.2174
    1DPPC   C2A14226  16.698   1.923   3.734 -0.0928  0.1888  0.3030
    1DPPC   C3A14227  16.636   2.254   4.105  0.0973 -0.0416  0.1569
    1DPPC   C4A14228  16.482   2.459   4.375  0.0256  0.0630 -0.0228
    1DPPC   C1B14229  16.952   1.376   3.397  0.0301 -0.1395  0.1049
    1DPPC   C2B14230  16.839   1.426   3.845 -0.0201  0.6441 -0.0315
    1DPPC   C3B14231  16.917   1.744   4.175 -0.0607  0.0084 -0.0039
    1DPPC   C4B14232  16.692   1.824   4.510 -0.0894 -0.1309  0.0667
    1DPPC   NC314233  25.336  18.603   3.277  0.2455  0.1973 -0.0440
    1DPPC   PO414234  24.910  18.399   3.092 -0.1105  0.1968  0.0476
    1DPPC   GL114235  25.039  18.267   3.503 -0.0094  0.2918  0.0825
    1DPPC   GL214236  24.755  18.123   3.665 -0.3376 -0.1466 -0.1016
    1DPPC   C1A14237  25.004  18.447   3.970 -0.2396 -0.4418 -0.2520
    1DPPC   C2A14238  25.155  18.811   4.085  0.0480 -0.2046 -0.0770
    1DPPC   C3A14239  25.402  18.944   4.420 -0.0108  0.1473 -0.1254
    1DPPC   C4A14240  25.559  19.389   4.559 -0.2444  0.0161 -0.1883
    1DPPC   C1B14241  24.655  17.942   4.007 -0.1311  0.2788 -0.0870
    1DPPC   C2B14242  24.593  17.827   4.440 -0.1785 -0.2771 -0.2051
    1DPPC   C3B14243  24.555  17.368   4.637  0.0257 -0.2453  0.0673
    1DPPC   C4B14244  24.601  16.980   4.623 -0.1067  0.1037  0.0457
    1DPPC   NC314245  24.927   8.593   2.640 -0.0414  0.2745  0.0252
    1DPPC   PO414246  25.115   8.454   3.057 -0.0332  0.3532  0.2847
    1DPPC   GL114247  24.869   8.496   3.478  0.3877 -0.1392  0.0521
    1DPPC   GL214248  24.502   8.582   3.461 -0.3376 -0.1211 -0.0142
    1DPPC   C1A14249  24.761   8.538   3.905 -0.1971  0.0821 -0.3048
    1DPPC   C2A14250  24.443   8.378   4.195  0.1601 -0.0897  0.0331
    1DPPC   C3A14251  24.337   8.456   4.535  0.0313 -0.1112  0.1290
    1DPPC   C4A14252  24.474   8.403   4.993 -0.1817  0.0117 -0.2958
    1DPPC   C1B14253  24.219   8.430   3.669  0.1582  0.0782 -0.1031
    1DPPC   C2B14254  24.070   8.044   4.063 -0.1413 -0.0376 -0.2600
    1DPPC   C3B14255  24.255   7.956   4.359  0.1326 -0.2858 -0.1136
    1DPPC   C4B14256  24.635   7.958   4.569  0.0732  0.2251 -0.0401
    1DPPC   NC314257  27.351   4.382   4.317  0.0601  0.0294  0.0896
    1DPPC   PO414258  27.585   4.792   4.296 -0.0423  0.1444  0.3253
    1DPPC   GL114259  27.567   4.909   4.669  0.0018 -0.0184 -0.1456
    1DPPC   GL214260  27.496   5.134   4.689  0.0198  0.2385  0.1848
    1DPPC   C1A14261  27.669   4.843   5.086 -0.3324 -0.0176 -0.0891
    1DPPC   C2A14262  27.568   4.468   5.363  0.0650 -0.0497 -0.2454
    1DPPC   C3A14263  27.749   4.377   5.810 -0.0715 -0.4165 -0.2688
    1DPPC   C4A14264  27.775   4.100   6.174 -0.0058 -0.0363 -0.0678
    1DPPC   C1B14265  27.148   5.073   5.042  0.1092 -0.2841  0.1303
    1DPPC   C2B14266  27.351   5.118   5.452 -0.1622  0.0143  0.0298
    1DPPC   C3B14267  27.313   5.411   5.824  0.2187 -0.0167 -0.3831
    1DPPC   C4B14268  26.916   5.532   6.061 -0.3127 -0.0393 -0.0155
    1DPPC   NC314269  12.433   9.088   1.961  0.1479  0.1656 -0.2304
    1DPPC   PO414270  12.253   8.582   2.039 -0.2146 -0.1730  0.1479
    1DPPC   GL114271  12.460   8.595   2.447  0.2886  0.0250  0.0570
    1DPPC   GL214272  12.383   8.542   2.651 -0.0170  0.0875 -0.3683
    1DPPC   C1A14273  12.855   8.608   2.784  0.0591 -0.1913  0.0449
    1DPPC   C2A14274  13.315   8.661   3.042 -0.0632 -0.2998  0.1817
    1DPPC   C3A14275  13.744   8.699   2.812 -0.2209  0.2428 -0.0563
    1DPPC   C4A14276  14.218   8.741   2.876 -0.0591 -0.1596 -0.0675
    1DPPC   C1B14277  12.370   8.496   3.128  0.0556 -0.2240 -0.0863
    1DPPC   C2B14278  12.089   8.588   3.483 -0.1623  0.2596  0.1247
    1DPPC   C3B14279  11.850   8.683   3.709  0.0350  0.1575 -0.0311
    1DPPC   C4B14280  11.491   8.957   3.859 -0.0031  0.1270 -0.2929
    1DPPC   NC314281  28.607  27.683   4.146  0.0335 -0.0253 -0.0390
    1DPPC   PO414282  28.978  27.325   4.199 -0.0052  0.1248 -0.0325
    1DPPC   GL114283  29.197  27.034   4.358  0.0529 -0.1831  0.1951
    1DPPC   GL214284  29.261  27.290   4.626  0.3072  0.2521  0.1610
    1DPPC   C1A14285  29.354  26.804   4.656  0.0078  0.1850  0.0247
    1DPPC   C2A14286  29.298  26.454   4.904  0.0974 -0.0601 -0.0967
    1DPPC   C3A14287  29.235  26.305   5.329 -0.0495 -0.1646 -0.0745
    1DPPC   C4A14288  28.867  26.188   5.545  0.0414 -0.1574  0.3604
    1DPPC   C1B14289  29.147  27.120   5.038  0.0323  0.1000  0.0312
    1DPPC   C2B14290  29.150  27.074   5.482  0.1766 -0.1896  0.1824
    1DPPC   C3B14291  29.370  26.963   5.871  0.0785  0.1474  0.0296
    1DPPC   C4B14292  29.590  26.794   6.173 -0.0086 -0.1539  0.2013
    1DPPC   NC314293  21.681  22.018   3.031 -0.4215  0.0902  0.3086
    1DPPC   PO414294  22.070  22.117   3.172  0.1419 -0.0109 -0.0685
    1DPPC   GL114295  22.152  22.113   3.652 -0.1152  0.1362 -0.0114
    1DPPC   GL214296  22.323  22.386   3.814 -0.1470  0.0414  0.1224
    1DPPC   C1A14297  21.961  22.128   3.998  0.0023 -0.1632 -0.1641
    1DPPC   C2A14298  21.682  22.016   4.333  0.0385 -0.2199  0.2265
    1DPPC   C3A14299  21.458  21.920   4.621 -0.0229  0.0140 -0.1629
    1DPPC   C4A14300  21.122  21.725   4.872  0.0441  0.0020  0.2620
    1DPPC   C1B14301  22.341  22.533   4.235 -0.1829 -0.0949 -0.1607
    1DPPC   C2B14302  22.210  22.573   4.577  0.2583  0.3472 -0.0948
    1DPPC   C3B14303  22.019  22.686   4.875  0.1844 -0.1696  0.0445
    1DPPC   C4B14304  22.039  22.923   5.208 -0.3098  0.0648  0.1011
    1DPPC   NC314305  17.942   9.910   1.754 -0.0633 -0.4545  0.0840
    1DPPC   PO414306  18.277   9.688   1.936  0.2893 -0.4880  0.0431
    1DPPC   GL114307  18.053   9.822   2.279  0.0468  0.2712  0.1962
    1DPPC   GL214308  17.841  10.052   2.271 -0.0109  0.2124  0.2612
    1DPPC   C1A14309  17.774   9.515   2.435  0.0330  0.0616 -0.1426
    1DPPC   C2A14310  17.672   9.341   2.859 -0.2453  0.0284  0.0538
    1DPPC   C3A14311  17.520   9.449   3.213  0.0331  0.0536  0.0877
    1DPPC   C4A14312  17.319   9.185   3.523 -0.0443  0.1119 -0.0470
    1DPPC   C1B14313  17.660  10.048   2.607 -0.2288 -0.1495  0.0636
    1DPPC   C2B14314  17.460   9.795   2.851  0.0151 -0.1376  0.1248
    1DPPC   C3B14315  17.441   9.922   3.326 -0.0057 -0.1307 -0.1930
    1DPPC   C4B14316  17.466  10.140   3.711  0.0256 -0.2129  0.0831
    1DPPC   NC314317  19.438   2.506   2.609  0.0083 -0.0612  0.1433
    1DPPC   PO414318  19.033   2.418   2.314 -0.0037 -0.2562  0.0835
    1DPPC   GL114319  18.895   2.515   2.729  0.0843 -0.1637  0.0059
    1DPPC   GL214320  19.105   2.396   2.959  0.3735  0.1533 -0.1188
    1DPPC   C1A14321  18.581   2.745   3.010 -0.4991 -0.3270 -0.4320
    1DPPC   C2A14322  18.316   2.888   3.356 -0.3457 -0.0353 -0.1817
    1DPPC   C3A14323  17.929   2.934   3.560 -0.1330  0.0579 -0.1633
    1DPPC   C4A14324  17.745   3.026   3.977  0.0800 -0.0568 -0.2197
    1DPPC   C1B14325  19.028   2.651   3.271 -0.1293 -0.1841  0.1151
    1DPPC   C2B14326  18.838   3.048   3.386  0.2046 -0.4307 -0.0320
    1DPPC   C3B14327  18.675   3.439   3.481  0.0661  0.0573 -0.0701
    1DPPC   C4B14328  18.748   3.826   3.669  0.1841  0.1453 -0.0378
    1DPPC   NC314329  24.225   4.255   2.803 -0.1927  0.1073  0.0163
    1DPPC   PO414330  24.040   4.648   2.850 -0.1626 -0.0295 -0.1806
    1DPPC   GL114331  24.139   4.739   3.282 -0.2686 -0.0577 -0.0595
    1DPPC   GL214332  23.959   4.524   3.552  0.2835 -0.1094  0.1434
    1DPPC   C1A14333  24.138   4.913   3.788 -0.3212 -0.2246 -0.0600
    1DPPC   C2A14334  24.168   5.134   4.113 -0.2733 -0.3245 -0.1661
    1DPPC   C3A14335  24.152   5.438   4.204 -0.0409 -0.0409 -0.1913
    1DPPC   C4A14336  23.940   5.805   4.101  0.1018 -0.1670 -0.1915
    1DPPC   C1B14337  23.788   4.665   3.893  0.4896 -0.0307  0.1697
    1DPPC   C2B14338  23.652   4.690   4.356 -0.1292 -0.0583  0.0396
    1DPPC   C3B14339  23.493   4.758   4.711  0.0500  0.1117 -0.1050
    1DPPC   C4B14340  23.445   4.775   5.156 -0.1983 -0.1274 -0.0089
    1DPPC   NC314341  13.931   4.265   1.421 -0.2662 -0.1837  0.0101
    1DPPC   PO414342  14.051   4.502   1.781  0.3862  0.0642  0.1332
    1DPPC   GL114343  13.877   4.456   2.224 -0.2182  0.0998  0.0088
    1DPPC   GL214344  13.699   4.698   2.417  0.0408  0.1053 -0.1831
    1DPPC   C1A14345  13.918   4.288   2.632  0.0171 -0.2458 -0.0692
    1DPPC   C2A14346  14.132   4.208   3.034 -0.0057  0.2272 -0.1387
    1DPPC   C3A14347  14.199   4.095   3.421 -0.0365  0.4213 -0.1018
    1DPPC   C4A14348  14.039   3.906   3.812  0.2024 -0.1403  0.0473
    1DPPC   C1B14349  13.838   4.760   2.761 -0.0367  0.1067 -0.2879
    1DPPC   C2B14350  13.922   4.616   3.169 -0.2063  0.1173 -0.0742
    1DPPC   C3B14351  13.889   4.393   3.642 -0.1558  0.2031  0.2212
    1DPPC   C4B14352  13.884   4.345   4.087 -0.0649 -0.0276 -0.3185
    1DPPC   NC314353   5.941   4.621   3.196 -0.1467 -0.2336 -0.1567
    1DPPC   PO414354   6.008   5.080   3.446 -0.1807  0.0530 -0.0077
    1DPPC   GL114355   6.033   5.359   3.754  0.1335  0.3277 -0.0814
    1DPPC   GL214356   6.364   5.564   3.961 -0.1225 -0.0211  0.2407
    1DPPC   C1A14357   5.971   5.347   4.202 -0.1750  0.0466  0.0040
    1DPPC   C2A14358   6.021   5.518   4.623 -0.3700 -0.1557 -0.1887
    1DPPC   C3A14359   5.916   5.675   5.003  0.2824  0.0681  0.1576
    1DPPC   C4A14360   5.938   5.993   5.241 -0.3026  0.3368  0.0645
    1DPPC   C1B14361   6.478   5.350   4.233  0.0317  0.4982  0.3809
    1DPPC   C2B14362   6.395   5.165   4.567 -0.0261  0.0322  0.0556
    1DPPC   C3B14363   6.463   4.865   4.963  0.0851  0.3604 -0.3649
    1DPPC   C4B14364   6.324   4.727   5.317 -0.3424  0.0079 -0.3426
    1DPPC   NC314365  18.304   6.468   1.375  0.0073 -0.1084 -0.1353
    1DPPC   PO414366  18.396   6.174   1.741  0.3842 -0.2305 -0.0624
    1DPPC   GL114367  18.554   6.313   2.106 -0.2340 -0.2071 -0.1441
    1DPPC   GL214368  18.665   5.969   2.255 -0.1632  0.1992  0.1900
    1DPPC   C1A14369  18.423   6.205   2.574  0.0032  0.0120  0.4723
    1DPPC   C2A14370  18.490   6.088   3.043 -0.2714 -0.0115 -0.0075
    1DPPC   C3A14371  18.443   6.012   3.450  0.0016 -0.1144 -0.0405
    1DPPC   C4A14372  18.626   5.745   3.704  0.0847  0.1493  0.2847
    1DPPC   C1B14373  18.592   5.744   2.666 -0.1578  0.3437  0.1240
    1DPPC   C2B14374  18.807   5.624   3.093  0.1348 -0.1680 -0.1388
    1DPPC   C3B14375  19.038   5.438   3.443  0.3670  0.0714 -0.2676
    1DPPC   C4B14376  19.155   5.424   3.842  0.1020 -0.0755 -0.1539
    1DPPC   NC314377  11.486  16.343   2.612 -0.0363 -0.3387 -0.0240
    1DPPC   PO414378  11.801  16.052   2.453 -0.1325  0.1226 -0.2591
    1DPPC   GL114379  11.842  15.920   2.843  0.0508  0.1079  0.2257
    1DPPC   GL214380  11.690  16.112   3.044 -0.1745 -0.0730  0.1647
    1DPPC   C1A14381  12.002  15.778   3.200  0.0080 -0.2156 -0.0036
    1DPPC   C2A14382  11.890  15.674   3.532  0.1935  0.2502 -0.0866
    1DPPC   C3A14383  11.832  15.615   4.010  0.0268  0.0128  0.0610
    1DPPC   C4A14384  11.920  15.376   4.437  0.0742  0.0058 -0.1300
    1DPPC   C1B14385  11.417  15.867   3.213  0.0640 -0.1227  0.1807
    1DPPC   C2B14386  11.384  15.621   3.544  0.1491 -0.3683 -0.0727
    1DPPC   C3B14387  11.595  15.236   3.768  0.2273  0.1323 -0.0175
    1DPPC   C4B14388  11.886  15.034   4.052 -0.2708 -0.1207  0.2038
    1DPPC   NC314389  17.962   0.482   2.885 -0.0072 -0.2160  0.1100
    1DPPC   PO414390  18.303   0.774   2.624 -0.1028 -0.0971 -0.0901
    1DPPC   GL114391  18.503   0.744   3.086 -0.0900 -0.2299  0.1194
    1DPPC   GL214392  18.526   0.433   3.300  0.1109  0.0327  0.1438
    1DPPC   C1A14393  18.436   0.894   3.535  0.3089 -0.1575 -0.2569
    1DPPC   C2A14394  18.411   0.929   3.904 -0.1276 -0.1462  0.1764
    1DPPC   C3A14395  18.314   0.901   4.286  0.3017 -0.1904  0.0393
    1DPPC   C4A14396  18.091   0.702   4.699  0.2699 -0.1010 -0.1448
    1DPPC   C1B14397  18.601   0.460   3.738  0.2596 -0.1425  0.0031
    1DPPC   C2B14398  18.714   0.479   4.134 -0.0395  0.0376 -0.1241
    1DPPC   C3B14399  18.829   0.719   4.269  0.0285 -0.0977  0.1291
    1DPPC   C4B14400  18.590   0.976   4.676  0.0519  0.2173 -0.0034
    1DPPC   NC314401   3.372   8.642   3.340 -0.0988  0.1398  0.2050
    1DPPC   PO414402   3.625   8.336   3.632  0.2518 -0.3104 -0.1179
    1DPPC   GL114403   3.814   8.302   3.895  0.0652  0.1540  0.4971
    1DPPC   GL214404   4.116   8.423   3.868 -0.1072  0.2137  0.0611
    1DPPC   C1A14405   3.775   8.288   4.290  0.2521  0.1350 -0.0056
    1DPPC   C2A14406   3.869   8.285   4.660 -0.0123  0.0007 -0.1315
    1DPPC   C3A14407   4.017   8.526   4.998  0.0918  0.0156 -0.5264
    1DPPC   C4A14408   3.906   8.661   5.407 -0.1661 -0.3435  0.1573
    1DPPC   C1B14409   4.206   8.532   4.293  0.0714  0.3683  0.0195
    1DPPC   C2B14410   4.366   8.678   4.718  0.0322 -0.0120 -0.3978
    1DPPC   C3B14411   4.362   8.862   5.139  0.0297  0.1288 -0.3348
    1DPPC   C4B14412   4.453   8.974   5.503 -0.1077 -0.1801  0.1764
    1DPPC   NC314413   1.550  12.230   3.814  0.0559 -0.0812  0.1790
    1DPPC   PO414414   1.930  12.018   3.505 -0.1909 -0.2297 -0.0872
    1DPPC   GL114415   2.195  11.968   3.891 -0.0680  0.3185 -0.1218
    1DPPC   GL214416   1.985  12.045   4.163  0.0801 -0.2305 -0.1739
    1DPPC   C1A14417   2.471  11.951   4.228 -0.0653 -0.1290  0.0088
    1DPPC   C2A14418   2.349  11.870   4.577  0.0123  0.2535 -0.0935
    1DPPC   C3A14419   2.045  11.799   4.880  0.0976  0.1566  0.0000
    1DPPC   C4A14420   1.885  11.823   5.346 -0.2688 -0.4277  0.0983
    1DPPC   C1B14421   1.834  11.846   4.446 -0.0665 -0.1693  0.0746
    1DPPC   C2B14422   1.581  11.598   4.715 -0.1881  0.0119  0.3898
    1DPPC   C3B14423   1.659  11.324   5.055  0.0075 -0.1445  0.0283
    1DPPC   C4B14424   1.759  11.006   5.363  0.2340  0.0193  0.0417
    1DPPC   NC314425   2.352   9.613   2.994 -0.1273 -0.1405  0.0265
    1DPPC   PO414426   2.404   9.238   3.234  0.0078 -0.0493  0.1871
    1DPPC   GL114427   2.676   9.165   3.494 -0.1913  0.0713  0.1102
    1DPPC   GL214428   2.918   9.370   3.515 -0.1280  0.1423  0.1511
    1DPPC   C1A14429   2.889   8.996   3.848  0.2081  0.1325  0.1587
    1DPPC   C2A14430   3.154   9.101   4.150  0.1550  0.1095  0.0030
    1DPPC   C3A14431   3.061   9.109   4.560 -0.3392  0.0954  0.0123
    1DPPC   C4A14432   3.029   8.998   5.070  0.2178  0.1057 -0.0099
    1DPPC   C1B14433   2.795   9.467   3.942 -0.0731 -0.0598 -0.0638
    1DPPC   C2B14434   2.778   9.488   4.415  0.3046 -0.1686 -0.0909
    1DPPC   C3B14435   2.707   9.480   4.890  0.3158  0.0807  0.1652
    1DPPC   C4B14436   2.700   9.316   5.281  0.3631 -0.0539  0.0398
    1DPPC   NC314437   2.563  14.608   3.465  0.1414  0.1771  0.0420
    1DPPC   PO414438   2.571  14.131   3.464 -0.0102  0.1286  0.0375
    1DPPC   GL114439   2.790  14.306   3.809 -0.4653 -0.0391  0.2678
    1DPPC   GL214440   2.678  14.673   3.927 -0.5146  0.0960  0.0848
    1DPPC   C1A14441   2.941  14.240   4.119  0.1012  0.1343  0.2011
    1DPPC   C2A14442   3.234  14.034   4.279  0.1089  0.1106 -0.1689
    1DPPC   C3A14443   3.541  14.015   4.642  0.1158 -0.0730  0.2171
    1DPPC   C4A14444   3.634  14.163   5.100 -0.0420 -0.1026  0.2311
    1DPPC   C1B14445   2.778  14.582   4.406 -0.2367  0.2672 -0.0845
    1DPPC   C2B14446   3.063  14.302   4.621  0.1072 -0.0739  0.0343
    1DPPC   C3B14447   3.071  13.917   4.949 -0.0612  0.4859 -0.2196
    1DPPC   C4B14448   2.738  13.642   5.133  0.0855  0.2050  0.4513
    1DPPC   NC314449  10.385  28.094   3.238  0.1496  0.1502 -0.3468
    1DPPC   PO414450  10.567  28.458   3.348  0.0391 -0.1903 -0.0086
    1DPPC   GL114451  10.172  28.434   3.631 -0.1725 -0.1610 -0.1237
    1DPPC   GL214452  10.172  28.676   3.850  0.0033 -0.0270  0.0961
    1DPPC   C1A14453   9.837  28.362   4.045 -0.1374 -0.1193  0.1120
    1DPPC   C2A14454   9.740  28.491   4.379 -0.1228  0.1220 -0.3010
    1DPPC   C3A14455   9.732  28.799   4.665 -0.0835 -0.2070  0.0834
    1DPPC   C4A14456   9.521  28.850   5.038 -0.3548 -0.4098  0.0064
    1DPPC   C1B14457  10.203  28.693   4.317  0.0682 -0.2347  0.4341
    1DPPC   C2B14458  10.262  28.551   4.683  0.0813 -0.2910  0.1028
    1DPPC   C3B14459  10.581  28.449   4.944  0.0452 -0.0237 -0.0640
    1DPPC   C4B14460  10.924  28.707   5.064 -0.2693 -0.0391  0.0447
    1DPPC   NC314461  23.515  18.257   2.814 -0.0952 -0.0857 -0.0201
    1DPPC   PO414462  23.188  17.963   2.693 -0.1175 -0.4379 -0.2751
    1DPPC   GL114463  23.191  17.904   3.135 -0.1641  0.3241  0.1253
    1DPPC   GL214464  23.472  17.958   3.216  0.1900  0.0857  0.0141
    1DPPC   C1A14465  22.992  17.873   3.521 -0.0210  0.1246 -0.0243
    1DPPC   C2A14466  22.834  18.175   3.807  0.3594  0.3572 -0.0322
    1DPPC   C3A14467  22.799  18.459   4.130 -0.2213 -0.0876 -0.1478
    1DPPC   C4A14468  22.736  18.762   4.490  0.0887  0.2129 -0.0936
    1DPPC   C1B14469  23.317  18.348   3.460  0.0944  0.1398  0.1544
    1DPPC   C2B14470  23.311  18.548   3.846 -0.0612 -0.2197  0.0915
    1DPPC   C3B14471  23.184  18.783   4.145  0.0657 -0.2208  0.1800
    1DPPC   C4B14472  23.266  18.626   4.656  0.0128  0.0277  0.0092
    1DPPC   NC314473  24.054   6.913   2.930  0.2774  0.1627  0.0538
    1DPPC   PO414474  24.214   7.196   3.209 -0.1190 -0.1577 -0.1811
    1DPPC   GL114475  23.858   7.150   3.426  0.2210  0.0890 -0.2469
    1DPPC   GL214476  23.882   6.871   3.433 -0.0773  0.2102 -0.2229
    1DPPC   C1A14477  23.490   7.281   3.758 -0.1847 -0.3640  0.0926
    1DPPC   C2A14478  23.387   7.486   4.122 -0.2852  0.0040 -0.3488
    1DPPC   C3A14479  23.417   7.591   4.558 -0.3291  0.1451  0.0096
    1DPPC   C4A14480  23.439   7.683   4.964  0.0340  0.0164  0.2595
    1DPPC   C1B14481  23.555   6.774   3.735  0.0183 -0.1873  0.1084
    1DPPC   C2B14482  23.300   6.691   4.134 -0.1704 -0.0775  0.1016
    1DPPC   C3B14483  22.908   6.642   4.261 -0.0414 -0.2078  0.0923
    1DPPC   C4B14484  22.629   6.248   4.198  0.1397  0.0689  0.1324
    1DPPC   NC314485  12.636  15.188   2.152 -0.2265 -0.0017 -0.1408
    1DPPC   PO414486  13.104  15.385   2.341 -0.0915  0.0546  0.1279
    1DPPC   GL114487  13.279  15.196   2.719 -0.0248  0.1350 -0.1517
    1DPPC   GL214488  12.920  15.230   2.900 -0.0506  0.1343 -0.0336
    1DPPC   C1A14489  13.536  15.229   3.070  0.1902  0.0086  0.1123
    1DPPC   C2A14490  13.634  15.324   3.536 -0.1342  0.0045 -0.1539
    1DPPC   C3A14491  13.617  15.363   3.924 -0.2071 -0.0749  0.1585
    1DPPC   C4A14492  13.966  15.449   4.270  0.0345 -0.3409  0.0352
    1DPPC   C1B14493  13.128  15.043   3.244  0.3605 -0.4174  0.1034
    1DPPC   C2B14494  13.406  14.791   3.294  0.0799 -0.0603  0.1536
    1DPPC   C3B14495  13.577  14.471   3.504  0.0135  0.0880 -0.3118
    1DPPC   C4B14496  13.595  14.195   3.769 -0.0402  0.0327  0.2363
    1DPPC   NC314497  19.220  26.768   3.330 -0.0566 -0.0516 -0.0133
    1DPPC   PO414498  18.963  26.390   3.342 -0.0490 -0.3849  0.0039
    1DPPC   GL114499  19.111  26.385   3.802 -0.0164 -0.2507 -0.1339
    1DPPC   GL214500  19.293  26.667   3.844  0.0821 -0.2364  0.1398
    1DPPC   C1A14501  19.168  26.375   4.257  0.0902 -0.0226 -0.0054
    1DPPC   C2A14502  19.054  26.589   4.559  0.4495  0.2732 -0.0593
    1DPPC   C3A14503  19.165  26.630   4.918  0.1417  0.0242  0.2461
    1DPPC   C4A14504  19.213  27.076   5.012 -0.0529  0.1153  0.1500
    1DPPC   C1B14505  19.359  26.828   4.243 -0.1630  0.0156  0.0049
    1DPPC   C2B14506  19.494  26.863   4.624  0.1346  0.1644 -0.0607
    1DPPC   C3B14507  19.696  26.898   4.994  0.3417  0.0554 -0.0185
    1DPPC   C4B14508  19.669  26.823   5.411  0.0665  0.0467  0.1064
    1DPPC   NC314509   9.877   2.233   2.696 -0.1054  0.1995 -0.0616
    1DPPC   PO414510  10.166   1.915   2.821 -0.1010  0.1433 -0.1359
    1DPPC   GL114511  10.394   1.990   3.177 -0.0442 -0.0134  0.0503
    1DPPC   GL214512  10.665   1.725   3.109  0.0412  0.1404 -0.0411
    1DPPC   C1A14513  10.534   2.064   3.582 -0.0422 -0.0604  0.1489
    1DPPC   C2A14514  10.542   2.311   3.948 -0.0629 -0.1204  0.0430
    1DPPC   C3A14515  10.718   2.436   4.331  0.0260 -0.1300  0.1635
    1DPPC   C4A14516  10.802   2.812   4.509  0.1412  0.0062  0.0001
    1DPPC   C1B14517  10.476   1.507   3.386  0.0160  0.0329  0.2980
    1DPPC   C2B14518  10.379   1.585   3.887  0.0189 -0.0513  0.0602
    1DPPC   C3B14519  10.438   1.401   4.282 -0.1325 -0.2323 -0.2970
    1DPPC   C4B14520  10.447   1.061   4.341  0.1956 -0.0652 -0.0168
    1DPPC   NC314521  18.650  12.558   1.947  0.3251 -0.0639 -0.1905
    1DPPC   PO414522  18.547  12.817   2.422  0.1597 -0.1148  0.3151
    1DPPC   GL114523  18.338  12.616   2.841 -0.1443  0.2468 -0.0737
    1DPPC   GL214524  18.051  12.769   2.976  0.5126  0.0453  0.1485
    1DPPC   C1A14525  18.483  12.484   3.227 -0.0572  0.1971 -0.0218
    1DPPC   C2A14526  18.640  12.242   3.661 -0.0479  0.0709 -0.1110
    1DPPC   C3A14527  18.837  12.074   3.950 -0.3451  0.0732  0.1690
    1DPPC   C4A14528  19.235  11.796   4.054  0.1009 -0.2467  0.2203
    1DPPC   C1B14529  17.960  12.558   3.328  0.1765  0.2254  0.0759
    1DPPC   C2B14530  18.073  12.514   3.761 -0.0698  0.2481  0.3279
    1DPPC   C3B14531  18.189  12.093   3.958 -0.2765 -0.1302  0.0459
    1DPPC   C4B14532  18.452  12.117   4.284  0.0730  0.0028 -0.3368
    1DPPC   NC314533  13.946  17.801   2.981 -0.2808  0.1219 -0.2505
    1DPPC   PO414534  14.119  18.059   2.747  0.2881 -0.0600  0.0232
    1DPPC   GL114535  14.209  18.249   3.150 -0.4944 -0.1884 -0.4331
    1DPPC   GL214536  14.139  18.009   3.367  0.2544  0.1201  0.0185
    1DPPC   C1A14537  14.198  18.543   3.585  0.1003  0.4056  0.0461
    1DPPC   C2A14538  14.060  18.552   3.996  0.0543 -0.0747 -0.1049
    1DPPC   C3A14539  13.971  18.406   4.447 -0.1748  0.0220  0.1700
    1DPPC   C4A14540  14.089  17.969   4.663 -0.1323 -0.0337  0.4642
    1DPPC   C1B14541  14.135  18.055   3.810 -0.0075 -0.1374 -0.1936
    1DPPC   C2B14542  14.334  18.147   4.211 -0.2191  0.4758 -0.0215
    1DPPC   C3B14543  14.652  18.192   4.425 -0.0737  0.3725  0.0851
    1DPPC   C4B14544  14.983  18.210   4.764  0.0452  0.0878 -0.1326
    1DPPC   NC314545  28.646  19.178   3.801  0.1908  0.0279 -0.1279
    1DPPC   PO414546  28.399  18.912   4.067  0.2740  0.2696  0.1334
    1DPPC   GL114547  28.143  19.077   4.411  0.4371  0.0399  0.1556
    1DPPC   GL214548  27.869  19.014   4.467  0.0645 -0.0290 -0.0283
    1DPPC   C1A14549  28.367  19.110   4.756 -0.1740 -0.1064  0.2670
    1DPPC   C2A14550  28.341  19.236   5.152  0.2441 -0.1990  0.1196
    1DPPC   C3A14551  28.351  19.211   5.528  0.0614 -0.0800  0.0472
    1DPPC   C4A14552  28.557  19.203   5.905  0.4170  0.1905 -0.0300
    1DPPC   C1B14553  27.908  19.001   4.889 -0.0785  0.1450  0.1691
    1DPPC   C2B14554  27.914  19.039   5.247  0.1995 -0.0245 -0.1177
    1DPPC   C3B14555  27.898  19.381   5.580  0.0224  0.0113  0.1309
    1DPPC   C4B14556  27.827  19.588   5.951  0.0449  0.1456 -0.6231
    1DPPC   NC314557  19.131   9.573   1.659  0.0142 -0.0407  0.1605
    1DPPC   PO414558  19.225   9.396   2.009  0.2809  0.0800  0.2049
    1DPPC   GL114559  19.089   9.498   2.384  0.0553  0.1301 -0.0283
    1DPPC   GL214560  19.116   9.790   2.579  0.2885 -0.0492  0.0262
    1DPPC   C1A14561  18.863   9.267   2.749 -0.2081 -0.0598 -0.0959
    1DPPC   C2A14562  18.549   9.037   2.933  0.0828  0.0023  0.0541
    1DPPC   C3A14563  18.546   8.805   3.312 -0.2549 -0.2169 -0.0348
    1DPPC   C4A14564  18.819   8.559   3.539 -0.2973 -0.1486 -0.0039
    1DPPC   C1B14565  19.089   9.636   3.029  0.2455  0.1461 -0.2068
    1DPPC   C2B14566  19.236   9.504   3.459  0.0090 -0.0591  0.1669
    1DPPC   C3B14567  19.440   9.202   3.716 -0.0654 -0.3322  0.0778
    1DPPC   C4B14568  19.622   8.780   3.724  0.1281 -0.1045 -0.0676
    1DPPC   NC314569  14.682  12.062   1.674  0.1570 -0.2992  0.2149
    1DPPC   PO414570  14.737  11.726   2.078 -0.3622  0.1358 -0.0992
    1DPPC   GL114571  14.874  11.549   2.437 -0.0235  0.1317  0.2037
    1DPPC   GL214572  14.644  11.266   2.512  0.0618  0.0186  0.0241
    1DPPC   C1A14573  14.949  11.448   2.858 -0.2105 -0.0182  0.1577
    1DPPC   C2A14574  15.107  11.443   3.223  0.0119  0.1602 -0.0464
    1DPPC   C3A14575  15.140  11.534   3.742 -0.0012  0.4565 -0.2130
    1DPPC   C4A14576  15.095  11.453   4.153 -0.1398  0.0311  0.4396
    1DPPC   C1B14577  14.721  11.033   2.881 -0.0729  0.0251 -0.3069
    1DPPC   C2B14578  14.683  10.827   3.313  0.2399 -0.2781  0.2626
    1DPPC   C3B14579  14.825  10.626   3.659  0.1150 -0.0000 -0.0674
    1DPPC   C4B14580  14.549  10.593   3.986  0.4974  0.0094 -0.0560
    1DPPC   NC314581  28.138  18.446   3.686 -0.0289  0.0381  0.1543
    1DPPC   PO414582  28.480  18.395   4.052 -0.1560  0.0332  0.2627
    1DPPC   GL114583  28.391  18.500   4.456 -0.1024  0.0883 -0.1107
    1DPPC   GL214584  28.610  18.793   4.497 -0.0572 -0.3626 -0.2269
    1DPPC   C1A14585  28.060  18.485   4.697  0.0574  0.2475  0.0277
    1DPPC   C2A14586  27.769  18.440   5.026  0.1401  0.1365 -0.1022
    1DPPC   C3A14587  27.830  18.415   5.491 -0.0917  0.2104 -0.1807
    1DPPC   C4A14588  27.741  18.467   5.947  0.1639 -0.0551 -0.0215
    1DPPC   C1B14589  28.473  18.672   4.954  0.0968  0.1565  0.2207
    1DPPC   C2B14590  28.306  18.769   5.327 -0.1366 -0.1005 -0.4039
    1DPPC   C3B14591  27.987  18.879   5.711  0.0925 -0.0282  0.0628
    1DPPC   C4B14592  27.696  19.044   5.928 -0.1876  0.1663  0.0013
    1DPPC   NC314593  16.178  10.279   1.808  0.1880 -0.1841  0.1001
    1DPPC   PO414594  16.664  10.195   1.815  0.0837  0.0899 -0.0697
    1DPPC   GL114595  16.422  10.079   2.204 -0.0252 -0.0494 -0.0501
    1DPPC   GL214596  16.118   9.864   2.297 -0.2303 -0.2206  0.2867
    1DPPC   C1A14597  16.492   9.883   2.683 -0.0196  0.1226 -0.2022
    1DPPC   C2A14598  16.572   9.593   2.961 -0.1193 -0.0923  0.1018
    1DPPC   C3A14599  16.497   9.470   3.369  0.0632 -0.1734 -0.3065
    1DPPC   C4A14600  16.701   9.136   3.481 -0.2470  0.0503 -0.2534
    1DPPC   C1B14601  16.127   9.514   2.608  0.3959  0.1419  0.0049
    1DPPC   C2B14602  16.061   9.479   2.996 -0.0077  0.1311  0.2354
    1DPPC   C3B14603  16.049   9.868   3.320  0.0097 -0.1418  0.3736
    1DPPC   C4B14604  15.931  10.040   3.738  0.1577  0.0428  0.0323
    1DPPC   NC314605   3.889  15.332   2.647  0.1203  0.1496  0.1321
    1DPPC   PO414606   3.834  15.728   2.747 -0.2813 -0.2150  0.0748
    1DPPC   GL114607   3.910  15.444   3.220 -0.0657  0.2072  0.0526
    1DPPC   GL214608   3.830  15.112   3.314  0.1567 -0.2076 -0.0780
    1DPPC   C1A14609   3.914  15.418   3.704  0.2019  0.1061  0.0588
    1DPPC   C2A14610   4.204  15.307   4.086 -0.0474 -0.1848  0.0890
    1DPPC   C3A14611   4.309  15.412   4.534 -0.1639  0.0798 -0.1097
    1DPPC   C4A14612   4.122  15.176   4.948  0.4621 -0.0198 -0.2606
    1DPPC   C1B14613   4.140  14.917   3.661  0.3592 -0.1799  0.0967
    1DPPC   C2B14614   4.590  14.806   3.758 -0.3306 -0.2742 -0.1652
    1DPPC   C3B14615   4.738  14.499   3.984 -0.1173 -0.1782  0.2960
    1DPPC   C4B14616   4.577  14.364   4.336  0.1279  0.0480  0.1047
    1DPPC   NC314617  12.501   5.993   2.202 -0.0458 -0.3182  0.1859
    1DPPC   PO414618  12.854   5.945   2.143  0.4176 -0.2084  0.2460
    1DPPC   GL114619  13.143   6.133   2.372 -0.0568  0.0634 -0.0392
    1DPPC   GL214620  13.487   5.963   2.436  0.2496  0.1517  0.1938
    1DPPC   C1A14621  13.161   6.401   2.728  0.0448 -0.2009 -0.2884
    1DPPC   C2A14622  13.208   6.425   3.112  0.0278 -0.0002 -0.2879
    1DPPC   C3A14623  13.002   6.592   3.414  0.2224  0.2225 -0.1061
    1DPPC   C4A14624  12.936   6.965   3.729 -0.2371 -0.1058  0.2988
    1DPPC   C1B14625  13.297   5.948   2.785  0.1624  0.4363 -0.0827
    1DPPC   C2B14626  13.112   5.958   3.198 -0.0357  0.1647  0.0548
    1DPPC   C3B14627  12.861   5.537   3.311 -0.0972 -0.3282 -0.1878
    1DPPC   C4B14628  12.636   5.084   3.429  0.1607  0.1535 -0.3152
    1DPPC   NC314629   9.469   1.339   2.625 -0.1577  0.3053 -0.0090
    1DPPC   PO414630   9.874   1.103   2.958  0.0196 -0.1913  0.2579
    1DPPC   GL114631  10.158   0.959   3.304  0.0260  0.2823  0.2063
    1DPPC   GL214632  10.401   1.054   3.316 -0.1253  0.1698 -0.0586
    1DPPC   C1A14633  10.154   0.718   3.730  0.1753  0.0884  0.0286
    1DPPC   C2A14634  10.080   0.650   4.219 -0.0444  0.0441  0.2171
    1DPPC   C3A14635   9.829   0.586   4.532  0.1507 -0.2716  0.1160
    1DPPC   C4A14636   9.912   0.483   4.952  0.0269  0.2656  0.0282
    1DPPC   C1B14637  10.421   1.138   3.772 -0.1010  0.0864 -0.4021
    1DPPC   C2B14638  10.088   1.167   4.037 -0.1649  0.1739 -0.5393
    1DPPC   C3B14639   9.835   1.083   4.432 -0.1400  0.0048 -0.0670
    1DPPC   C4B14640   9.514   1.136   4.717  0.1164 -0.3094 -0.0393
    1DPPC   NC314641  26.055  18.042   3.368 -0.0719  0.1156  0.0180
    1DPPC   PO414642  25.634  17.856   3.599 -0.2688  0.2649  0.0760
    1DPPC   GL114643  25.371  18.071   3.832 -0.4216 -0.0407 -0.0932
    1DPPC   GL214644  25.559  18.228   4.014 -0.2008 -0.0955 -0.2275
    1DPPC   C1A14645  25.107  17.973   4.194 -0.2019 -0.1542  0.1123
    1DPPC   C2A14646  25.008  18.019   4.634 -0.0086 -0.0441 -0.0959
    1DPPC   C3A14647  24.953  18.109   5.089  0.1700  0.1056 -0.1138
    1DPPC   C4A14648  24.702  18.023   5.463  0.1606  0.0685 -0.0740
    1DPPC   C1B14649  25.387  18.392   4.335  0.3720 -0.1168 -0.1229
    1DPPC   C2B14650  25.000  18.616   4.577 -0.0818  0.2254  0.0328
    1DPPC   C3B14651  24.697  18.693   4.884 -0.0089 -0.0583 -0.2364
    1DPPC   C4B14652  24.467  19.054   5.201  0.1903  0.1118  0.0822
    1DPPC   NC314653  25.410  11.542   3.103 -0.0521  0.3993 -0.2063
    1DPPC   PO414654  25.716  11.459   3.438 -0.0554  0.0603 -0.0185
    1DPPC   GL114655  25.616  11.668   3.807  0.1716  0.1922 -0.1731
    1DPPC   GL214656  25.895  11.790   3.958 -0.0104 -0.1239 -0.0727
    1DPPC   C1A14657  25.551  11.503   4.218 -0.1217 -0.2529  0.1066
    1DPPC   C2A14658  25.697  11.295   4.562 -0.1374 -0.1765 -0.2568
    1DPPC   C3A14659  25.605  11.089   4.891  0.0626 -0.4101  0.0244
    1DPPC   C4A14660  25.180  10.818   4.865 -0.2249  0.0403 -0.0110
    1DPPC   C1B14661  25.979  11.741   4.443 -0.3117  0.1856  0.0847
    1DPPC   C2B14662  25.933  11.703   4.885  0.0514  0.0460  0.0724
    1DPPC   C3B14663  25.654  11.585   5.158  0.0537  0.0195 -0.2444
    1DPPC   C4B14664  25.316  11.242   5.294  0.1733 -0.1634 -0.0618
    1DPPC   NC314665  24.749   8.812   3.104  0.3326  0.0155  0.0356
    1DPPC   PO414666  24.460   8.600   2.914  0.0731  0.2689 -0.1696
    1DPPC   GL114667  23.999   8.695   3.263 -0.0851 -0.0013 -0.0620
    1DPPC   GL214668  24.084   9.083   3.305 -0.6009  0.2624  0.0311
    1DPPC   C1A14669  23.680   8.508   3.410  0.2164  0.1265 -0.1540
    1DPPC   C2A14670  23.288   8.648   3.760 -0.1849 -0.1417  0.2140
    1DPPC   C3A14671  23.029   8.969   4.074  0.1638 -0.1289  0.3336
    1DPPC   C4A14672  22.671   9.205   4.092  0.2257 -0.0584  0.2015
    1DPPC   C1B14673  23.844   8.918   3.645 -0.2407  0.2851 -0.2698
    1DPPC   C2B14674  23.614   8.801   4.081 -0.1415  0.1428  0.1959
    1DPPC   C3B14675  23.444   8.921   4.288 -0.1345  0.0090  0.0513
    1DPPC   C4B14676  23.253   9.262   4.392 -0.1334 -0.0474  0.3835
    1DPPC   NC314677  23.244   1.285   3.121  0.1927 -0.2148  0.2829
    1DPPC   PO414678  23.536   1.572   3.327 -0.0676  0.2373 -0.4351
    1DPPC   GL114679  23.762   1.744   3.664 -0.1673  0.0387  0.0588
    1DPPC   GL214680  23.804   2.107   3.802 -0.3637  0.0853  0.0429
    1DPPC   C1A14681  23.983   1.606   3.969 -0.1777  0.1634 -0.2227
    1DPPC   C2A14682  24.049   1.765   4.418  0.0301 -0.1182  0.1143
    1DPPC   C3A14683  24.353   2.022   4.740 -0.0002  0.0110  0.0690
    1DPPC   C4A14684  24.535   1.741   5.035  0.2060  0.1111  0.0783
    1DPPC   C1B14685  23.694   2.237   4.203  0.1104 -0.1353  0.1246
    1DPPC   C2B14686  23.411   2.373   4.563 -0.0692  0.0906  0.3785
    1DPPC   C3B14687  23.344   2.754   4.779  0.0975  0.0780  0.0528
    1DPPC   C4B14688  23.379   3.167   4.912 -0.0922  0.2932  0.0102
    1DPPC   NC314689  15.203   4.258   1.883 -0.1185  0.0176 -0.0520
    1DPPC   PO414690  14.795   4.220   1.872 -0.0018 -0.0991 -0.2050
    1DPPC   GL114691  14.385   4.330   2.152  0.0739  0.1129 -0.2804
    1DPPC   GL214692  14.265   4.093   2.284 -0.0305 -0.0669 -0.0502
    1DPPC   C1A14693  14.329   4.665   2.449  0.3405  0.2834 -0.1991
    1DPPC   C2A14694  14.427   4.698   2.896  0.0821  0.1021 -0.0663
    1DPPC   C3A14695  14.428   4.559   3.330  0.2150 -0.2539  0.0272
    1DPPC   C4A14696  14.588   4.341   3.671 -0.2724 -0.4469 -0.1251
    1DPPC   C1B14697  14.437   4.213   2.665  0.1531  0.0968 -0.2681
    1DPPC   C2B14698  14.654   4.163   3.020  0.0602 -0.0359 -0.3185
    1DPPC   C3B14699  14.926   4.224   3.329  0.0605 -0.0632  0.0675
    1DPPC   C4B14700  14.966   4.032   3.757 -0.2472 -0.1777  0.3292
    1DPPC   NC314701  22.234  11.184   2.031  0.0234  0.3014 -0.0280
    1DPPC   PO414702  21.950  11.194   2.436 -0.0282 -0.0510 -0.2132
    1DPPC   GL114703  22.040  11.084   2.932  0.2101  0.0734 -0.2381
    1DPPC   GL214704  22.012  10.672   2.806 -0.0355  0.0606 -0.0612
    1DPPC   C1A14705  22.129  10.978   3.270 -0.2720  0.3567 -0.1040
    1DPPC   C2A14706  22.201  11.032   3.750 -0.1195 -0.1384  0.0735
    1DPPC   C3A14707  22.226  10.887   4.163  0.0536 -0.1186 -0.0912
    1DPPC   C4A14708  22.380  10.622   4.585  0.3465  0.0316 -0.1009
    1DPPC   C1B14709  21.990  10.453   3.143 -0.1730 -0.0829 -0.0380
    1DPPC   C2B14710  21.851  10.473   3.610  0.0102  0.0948 -0.1509
    1DPPC   C3B14711  21.874  10.333   4.068 -0.2198  0.1390 -0.1177
    1DPPC   C4B14712  21.961  10.269   4.507  0.0131 -0.1344  0.0448
    1DPPC   NC314713  22.539  24.237   3.544 -0.0987  0.1108 -0.1022
    1DPPC   PO414714  22.075  24.295   3.374 -0.0623 -0.0012  0.1510
    1DPPC   GL114715  22.115  24.605   3.662  0.0336 -0.0196  0.0360
    1DPPC   GL214716  22.411  24.598   3.870 -0.3616 -0.1563 -0.0620
    1DPPC   C1A14717  21.843  24.788   3.922 -0.2586  0.1156 -0.1797
    1DPPC   C2A14718  21.666  24.773   4.381 -0.1242 -0.0597  0.1458
    1DPPC   C3A14719  21.581  24.730   4.825  0.2349  0.3685 -0.0376
    1DPPC   C4A14720  21.539  25.045   5.212 -0.2941  0.1918  0.0687
    1DPPC   C1B14721  22.511  24.428   4.242  0.2284  0.1166 -0.0689
    1DPPC   C2B14722  22.678  24.556   4.636  0.0164  0.0247  0.4523
    1DPPC   C3B14723  22.888  24.453   5.001  0.0690  0.0496 -0.1075
    1DPPC   C4B14724  23.339  24.491   5.176  0.1180  0.1782 -0.2101
    1DPPC   NC314725  14.011   5.247   1.130 -0.0667 -0.1998 -0.2746
    1DPPC   PO414726  14.070   5.568   1.472  0.2094 -0.1039  0.1686
    1DPPC   GL114727  14.119   5.513   1.903  0.2365  0.1829 -0.2738
    1DPPC   GL214728  13.935   5.403   2.121 -0.2559  0.1029  0.1884
    1DPPC   C1A14729  14.195   5.782   2.304  0.0393  0.2358  0.1131
    1DPPC   C2A14730  14.334   5.604   2.631 -0.0580 -0.1923 -0.0001
    1DPPC   C3A14731  14.524   5.661   2.993  0.1458  0.1651  0.2847
    1DPPC   C4A14732  14.568   5.454   3.424 -0.0821 -0.0124  0.0052
    1DPPC   C1B14733  14.045   5.163   2.440  0.1566 -0.2283 -0.0949
    1DPPC   C2B14734  14.218   5.123   2.840 -0.2561  0.1287  0.0782
    1DPPC   C3B14735  14.216   5.096   3.271  0.4493  0.1422  0.3299
    1DPPC   C4B14736  13.971   4.881   3.593  0.0268  0.1422 -0.1011
    1DPPC   NC314737  19.978   9.956   1.944  0.2606  0.0822  0.2528
    1DPPC   PO414738  20.128   9.600   2.023  0.0652 -0.0937  0.2281
    1DPPC   GL114739  20.269   9.478   2.384 -0.1831 -0.0378  0.1161
    1DPPC   GL214740  20.501   9.286   2.272  0.3299  0.0290 -0.0725
    1DPPC   C1A14741  20.205   9.435   2.841  0.0990 -0.0170 -0.1400
    1DPPC   C2A14742  20.183   9.492   3.245 -0.2281  0.0698 -0.1065
    1DPPC   C3A14743  19.848   9.553   3.517  0.2833 -0.0654 -0.2096
    1DPPC   C4A14744  19.722   9.564   3.945 -0.3741 -0.0463  0.0023
    1DPPC   C1B14745  20.543   9.124   2.692 -0.0096  0.0703 -0.2847
    1DPPC   C2B14746  20.285   8.988   3.111 -0.0093 -0.1777  0.0713
    1DPPC   C3B14747  20.204   8.679   3.365 -0.2869  0.2787 -0.3450
    1DPPC   C4B14748  19.849   8.341   3.581 -0.0809 -0.3053 -0.0221
    1DPPC   NC314749  17.849   0.982   2.499 -0.0747 -0.2956  0.0431
    1DPPC   PO414750  17.580   0.793   2.848 -0.0931  0.3054  0.0290
    1DPPC   GL114751  17.420   0.764   3.117 -0.1619 -0.0619  0.2472
    1DPPC   GL214752  17.559   0.509   3.262  0.1008 -0.2166  0.0761
    1DPPC   C1A14753  17.177   0.878   3.512  0.0045  0.0587  0.2323
    1DPPC   C2A14754  17.106   0.898   3.875 -0.0768 -0.1130  0.0497
    1DPPC   C3A14755  17.062   1.161   4.213  0.2543 -0.1492  0.0351
    1DPPC   C4A14756  17.074   1.491   4.563  0.0620  0.1855  0.0926
    1DPPC   C1B14757  17.535   0.517   3.746  0.3297  0.0858  0.1332
    1DPPC   C2B14758  17.463   0.597   4.107  0.2703  0.3583  0.0300
    1DPPC   C3B14759  17.340   0.821   4.459  0.1291  0.2716  0.1016
    1DPPC   C4B14760  17.052   0.585   4.646 -0.1628  0.1271  0.0601
    1DPPC   NC314761  26.802  19.158   3.609 -0.3502  0.0255 -0.1383
    1DPPC   PO414762  27.249  19.139   3.734  0.2839  0.1582 -0.3374
    1DPPC   GL114763  27.021  19.254   4.053 -0.2439  0.1705 -0.1758
    1DPPC   GL214764  27.316  19.179   4.259 -0.1344  0.1710  0.0870
    1DPPC   C1A14765  26.916  19.417   4.443  0.1834 -0.2020 -0.0495
    1DPPC   C2A14766  27.004  19.293   4.785 -0.0740 -0.0119  0.1978
    1DPPC   C3A14767  26.902  19.161   5.225  0.0090 -0.4038 -0.0996
    1DPPC   C4A14768  26.698  19.026   5.618  0.0676  0.3232  0.3608
    1DPPC   C1B14769  27.467  19.279   4.668  0.1010 -0.2026 -0.3613
    1DPPC   C2B14770  27.453  19.171   5.048  0.5162  0.0284 -0.0867
    1DPPC   C3B14771  27.413  18.840   5.230  0.4281 -0.0253 -0.0159
    1DPPC   C4B14772  27.437  18.716   5.593  0.1454  0.0665 -0.0114
    1DPPC   NC314773  20.183  25.280   2.818  0.0961 -0.0129  0.0794
    1DPPC   PO414774  20.413  24.872   2.771 -0.0428 -0.1147 -0.1653
    1DPPC   GL114775  20.510  24.698   3.119  0.1441 -0.1772  0.2828
    1DPPC   GL214776  20.368  25.022   3.247  0.1330 -0.0556  0.0327
    1DPPC   C1A14777  20.210  24.609   3.517 -0.1703 -0.0043  0.1611
    1DPPC   C2A14778  20.276  24.569   3.925  0.2655  0.0881  0.0530
    1DPPC   C3A14779  20.001  24.343   4.295  0.1363  0.3809  0.0166
    1DPPC   C4A14780  19.647  24.195   4.457  0.2394  0.2074  0.1503
    1DPPC   C1B14781  20.523  24.951   3.698  0.4193 -0.3381 -0.0218
    1DPPC   C2B14782  20.674  24.836   4.086  0.2841 -0.1125 -0.1328
    1DPPC   C3B14783  20.747  25.122   4.537 -0.2991 -0.2118 -0.1548
    1DPPC   C4B14784  20.829  25.380   4.796 -0.1787 -0.1009  0.0061
    1DPPC   NC314785  21.523   5.692   2.425  0.1273  0.0138 -0.2142
    1DPPC   PO414786  21.902   5.528   2.399 -0.0522  0.0093 -0.2994
    1DPPC   GL114787  22.073   5.601   2.802 -0.1546 -0.4488 -0.1484
    1DPPC   GL214788  22.224   5.349   3.041  0.0934 -0.1738  0.0994
    1DPPC   C1A14789  22.154   5.834   3.101  0.0913  0.0467 -0.1609
    1DPPC   C2A14790  22.204   5.799   3.577 -0.0305  0.0439  0.0889
    1DPPC   C3A14791  21.936   5.641   3.892  0.0604  0.1172  0.3595
    1DPPC   C4A14792  21.899   5.742   4.311  0.0702 -0.3009  0.1457
    1DPPC   C1B14793  21.892   5.477   3.347  0.1587  0.0445  0.0112
    1DPPC   C2B14794  21.743   5.261   3.644  0.0407 -0.0834  0.3461
    1DPPC   C3B14795  21.807   5.104   4.044 -0.0758  0.0357 -0.3428
    1DPPC   C4B14796  21.888   5.229   4.449 -0.2634  0.1348 -0.1245
    1DPPC   NC314797  27.966   5.702   4.309  0.0158  0.1975  0.2666
    1DPPC   PO414798  28.164   5.518   4.383 -0.4289 -0.1506  0.4257
    1DPPC   GL114799  27.941   5.399   4.689  0.1611  0.0608  0.4671
    1DPPC   GL214800  27.813   5.658   4.784 -0.0308 -0.0253  0.0910
    1DPPC   C1A14801  27.693   5.350   5.136 -0.3609 -0.0220 -0.1444
    1DPPC   C2A14802  27.747   5.570   5.547 -0.0113 -0.1223 -0.1519
    1DPPC   C3A14803  28.039   5.805   5.762  0.0939 -0.0513 -0.1276
    1DPPC   C4A14804  28.058   6.117   6.110  0.0818 -0.0198 -0.2008
    1DPPC   C1B14805  28.136   5.592   5.137 -0.1644 -0.3278 -0.1632
    1DPPC   C2B14806  28.384   5.740   5.428  0.2272  0.1376 -0.0176
    1DPPC   C3B14807  28.588   5.754   5.786 -0.0765  0.3484 -0.2357
    1DPPC   C4B14808  28.939   5.897   5.756  0.2287 -0.4336 -0.2081
    1DPPC   NC314809  20.716  28.393   3.214  0.1008 -0.0684 -0.0260
    1DPPC   PO414810  20.234  28.224   3.352 -0.1752 -0.2501  0.1851
    1DPPC   GL114811  20.035  28.315   3.626 -0.3149 -0.0015 -0.2147
    1DPPC   GL214812  20.127  28.067   3.822  0.4231  0.1001  0.1456
    1DPPC   C1A14813  19.841  28.470   4.040 -0.0384 -0.1152 -0.1683
    1DPPC   C2A14814  19.728  28.648   4.411 -0.3836  0.1100  0.2687
    1DPPC   C3A14815  19.656  29.099   4.627  0.3247 -0.1161 -0.3123
    1DPPC   C4A14816  19.568  29.446   4.606 -0.1408 -0.1350  0.2186
    1DPPC   C1B14817  20.016  28.030   4.155  0.0038 -0.3613 -0.0088
    1DPPC   C2B14818  20.015  28.143   4.594  0.0766 -0.0488 -0.2239
    1DPPC   C3B14819  19.781  28.397   4.866  0.1707  0.2596  0.0176
    1DPPC   C4B14820  19.413  28.395   5.243 -0.0549 -0.0001  0.3181
    1DPPC   NC314821  14.649   8.424   2.085 -0.1920  0.1366  0.1958
    1DPPC   PO414822  14.720   8.766   2.133 -0.2268 -0.1563  0.1313
    1DPPC   GL114823  14.882   8.645   2.460  0.4533 -0.0855  0.1834
    1DPPC   GL214824  15.104   8.376   2.490 -0.1666  0.0535  0.1282
    1DPPC   C1A14825  14.769   8.424   2.839 -0.1630 -0.0524  0.0960
    1DPPC   C2A14826  14.713   8.363   3.262 -0.0703 -0.0958  0.1214
    1DPPC   C3A14827  14.643   8.458   3.702  0.1430 -0.0723  0.3754
    1DPPC   C4A14828  14.719   8.735   3.901 -0.1812  0.0030  0.1298
    1DPPC   C1B14829  15.228   8.396   2.828 -0.0685 -0.1417  0.4058
    1DPPC   C2B14830  15.141   8.101   3.176 -0.0967  0.0860  0.1208
    1DPPC   C3B14831  15.393   7.857   3.506 -0.2260 -0.1489 -0.1207
    1DPPC   C4B14832  15.496   7.484   3.748  0.0800  0.0931 -0.1719
    1DPPC   NC314833  14.276   1.834   2.457  0.2469  0.1304  0.0274
    1DPPC   PO414834  13.948   2.133   2.249 -0.2887 -0.1485  0.0204
    1DPPC   GL114835  13.949   2.079   2.724  0.1264 -0.0849  0.0455
    1DPPC   GL214836  13.693   1.981   2.931  0.3258 -0.0726 -0.1087
    1DPPC   C1A14837  14.299   2.089   3.010 -0.0313 -0.2284 -0.1043
    1DPPC   C2A14838  14.386   2.376   3.265 -0.0355 -0.1146 -0.1766
    1DPPC   C3A14839  14.692   2.640   3.532 -0.0979  0.0932 -0.0722
    1DPPC   C4A14840  14.731   2.840   3.948 -0.0667 -0.2695  0.0938
    1DPPC   C1B14841  13.798   2.184   3.325  0.1387  0.0768 -0.1162
    1DPPC   C2B14842  13.969   2.428   3.626  0.2755  0.0448 -0.1905
    1DPPC   C3B14843  14.234   2.675   3.879  0.0634 -0.0230 -0.0578
    1DPPC   C4B14844  14.512   2.623   4.304  0.0330 -0.1700 -0.1907
    1DPPC   NC314845  19.550   8.893   1.985  0.0008  0.2643  0.2000
    1DPPC   PO414846  19.577   8.496   1.851 -0.1691 -0.1377 -0.1620
    1DPPC   GL114847  19.443   8.539   2.298  0.0296 -0.0631 -0.0451
    1DPPC   GL214848  19.146   8.362   2.342  0.1564  0.2272 -0.0305
    1DPPC   C1A14849  19.582   8.515   2.666  0.0335 -0.1214  0.3613
    1DPPC   C2A14850  19.534   8.444   3.155 -0.0424  0.0064  0.0152
    1DPPC   C3A14851  19.336   8.369   3.530 -0.1744 -0.2092  0.0286
    1DPPC   C4A14852  19.217   8.120   3.747 -0.2557 -0.0446 -0.1765
    1DPPC   C1B14853  19.262   8.067   2.750 -0.0228  0.0520  0.1191
    1DPPC   C2B14854  19.408   7.993   3.224  0.1252  0.0509  0.0251
    1DPPC   C3B14855  19.564   7.811   3.562  0.0478  0.0232  0.1384
    1DPPC   C4B14856  19.992   7.722   3.584  0.1600  0.1571  0.0414
    1DPPC   NC314857   5.100  20.298   3.035 -0.3285 -0.0177 -0.0019
    1DPPC   PO414858   4.918  19.862   3.017  0.0473  0.3487 -0.1420
    1DPPC   GL114859   4.741  20.092   3.366  0.1420 -0.1101  0.0818
    1DPPC   GL214860   4.426  20.082   3.438 -0.1248 -0.1867  0.2541
    1DPPC   C1A14861   4.865  20.253   3.803  0.1858 -0.0818 -0.1957
    1DPPC   C2A14862   4.829  20.182   4.212 -0.0264 -0.2099 -0.2050
    1DPPC   C3A14863   4.664  20.214   4.626  0.0510  0.2228 -0.0294
    1DPPC   C4A14864   4.720  20.132   5.095  0.1970  0.0160 -0.4103
    1DPPC   C1B14865   4.623  19.724   3.826  0.2808  0.0516 -0.2298
    1DPPC   C2B14866   4.795  19.646   4.217 -0.5308  0.1575  0.2913
    1DPPC   C3B14867   5.007  19.606   4.491 -0.3776 -0.1832  0.0562
    1DPPC   C4B14868   4.812  19.706   4.886 -0.0139 -0.0160 -0.0008
    1DPPC   NC314869  16.699   3.557   1.646  0.1969  0.0551  0.1765
    1DPPC   PO414870  16.605   3.646   2.124 -0.5012  0.2433  0.1354
    1DPPC   GL114871  16.850   3.884   2.391  0.1662  0.0839  0.0048
    1DPPC   GL214872  16.751   4.237   2.327  0.0478  0.1868  0.2016
    1DPPC   C1A14873  17.072   3.924   2.777 -0.1163  0.0687  0.0097
    1DPPC   C2A14874  16.943   4.124   3.148  0.1487 -0.4113  0.0251
    1DPPC   C3A14875  16.611   4.151   3.459  0.1032 -0.3105  0.0382
    1DPPC   C4A14876  16.484   4.495   3.651  0.1363 -0.1128  0.0345
    1DPPC   C1B14877  16.559   4.087   2.764 -0.1026 -0.1016  0.1870
    1DPPC   C2B14878  16.235   4.195   2.988  0.1908 -0.1165 -0.0826
    1DPPC   C3B14879  16.106   4.380   3.319 -0.0733 -0.0108  0.4321
    1DPPC   C4B14880  15.808   4.352   3.637 -0.2295 -0.0742  0.1731
    1DPPC   NC314881   3.572  19.008   3.528  0.0263 -0.0989  0.1149
    1DPPC   PO414882   3.686  18.648   3.409  0.3904 -0.0895  0.2088
    1DPPC   GL114883   3.811  18.415   3.732  0.1906 -0.2175 -0.2849
    1DPPC   GL214884   4.115  18.339   3.886 -0.2572  0.3978  0.0287
    1DPPC   C1A14885   3.727  18.108   4.087  0.1469  0.0314 -0.2705
    1DPPC   C2A14886   3.871  17.965   4.509  0.2169  0.2553  0.3572
    1DPPC   C3A14887   4.196  17.879   4.765 -0.0031 -0.0902  0.1507
    1DPPC   C4A14888   4.538  17.729   4.997 -0.2409 -0.0817  0.1640
    1DPPC   C1B14889   4.111  18.441   4.342 -0.0488  0.1431  0.2352
    1DPPC   C2B14890   4.242  18.564   4.790  0.0318 -0.2256  0.0835
    1DPPC   C3B14891   4.199  18.693   5.142 -0.0029  0.0812 -0.0942
    1DPPC   C4B14892   4.146  18.980   5.304  0.1416 -0.3954 -0.1531
    1DPPC   NC314893  24.154   5.915   3.108  0.1184  0.2353 -0.1062
    1DPPC   PO414894  23.703   6.059   2.952  0.0614  0.0516  0.0459
    1DPPC   GL114895  23.606   5.845   3.313  0.2634  0.1699 -0.1170
    1DPPC   GL214896  23.420   5.596   3.314 -0.2979 -0.0871  0.0448
    1DPPC   C1A14897  23.405   5.834   3.759 -0.0586 -0.2219  0.1985
    1DPPC   C2A14898  23.346   5.778   4.163 -0.0944 -0.0320 -0.1349
    1DPPC   C3A14899  23.677   5.562   4.494  0.3623 -0.0161  0.0220
    1DPPC   C4A14900  23.806   5.157   4.618 -0.0482 -0.5410  0.1369
    1DPPC   C1B14901  23.266   5.262   3.529 -0.0499  0.2978  0.2381
    1DPPC   C2B14902  22.986   5.081   3.747 -0.1943  0.2705  0.0815
    1DPPC   C3B14903  22.838   5.129   4.111  0.4567 -0.1425 -0.1532
    1DPPC   C4B14904  22.940   5.465   4.380 -0.0064  0.0592 -0.0013
    1DPPC   NC314905  18.951  14.155   2.560 -0.2776 -0.0132 -0.0095
    1DPPC   PO414906  19.380  13.956   2.587 -0.0351  0.2172  0.0796
    1DPPC   GL114907  19.238  13.800   3.002 -0.5289 -0.0898 -0.4260
    1DPPC   GL214908  18.971  13.921   3.121  0.0836 -0.0187  0.2063
    1DPPC   C1A14909  19.416  13.774   3.341  0.2792 -0.0482  0.0214
    1DPPC   C2A14910  19.471  13.794   3.805  0.1097 -0.2504  0.1878
    1DPPC   C3A14911  19.430  13.677   4.285  0.3104 -0.0313 -0.2901
    1DPPC   C4A14912  19.799  13.605   4.588 -0.1628  0.0663 -0.1863
    1DPPC   C1B14913  18.855  13.940   3.559  0.2206 -0.2281 -0.0068
    1DPPC   C2B14914  19.016  13.940   3.983  0.0508  0.0132  0.1349
    1DPPC   C3B14915  18.899  13.857   4.465  0.3115 -0.1151 -0.2954
    1DPPC   C4B14916  18.826  13.607   4.826 -0.1417 -0.2595  0.0899
    1DPPC   NC314917   5.620   1.169   4.180 -0.0983 -0.1906 -0.1691
    1DPPC   PO414918   6.059   1.235   4.343 -0.0146 -0.1070  0.0711
    1DPPC   GL114919   6.165   1.196   4.793  0.1347  0.1996  0.3035
    1DPPC   GL214920   6.350   0.974   4.728 -0.0014 -0.2245  0.2788
    1DPPC   C1A14921   6.349   1.466   5.053  0.1100  0.1440  0.1330
    1DPPC   C2A14922   6.444   1.619   5.528  0.0683  0.0317  0.1782
    1DPPC   C3A14923   6.689   1.597   5.787 -0.0148 -0.4039  0.1115
    1DPPC   C4A14924   7.096   1.763   5.833 -0.1371  0.1880 -0.0369
    1DPPC   C1B14925   6.305   1.019   5.233  0.0284  0.1033 -0.5739
    1DPPC   C2B14926   6.411   1.003   5.724  0.2226  0.0179  0.2124
    1DPPC   C3B14927   6.708   1.051   6.039 -0.3315 -0.1143  0.1869
    1DPPC   C4B14928   7.008   1.375   6.137 -0.1081  0.1360 -0.1554
    1DPPC   NC314929  14.377  17.164   2.272  0.2611  0.3594 -0.1934
    1DPPC   PO414930  14.116  16.994   2.573  0.0433  0.1171  0.0964
    1DPPC   GL114931  14.098  16.956   2.970  0.0272 -0.0331  0.0413
    1DPPC   GL214932  14.172  17.268   2.996 -0.0563 -0.3816  0.2890
    1DPPC   C1A14933  14.144  16.664   3.318  0.0028  0.0053 -0.0235
    1DPPC   C2A14934  13.911  16.248   3.558  0.2617  0.0561  0.1186
    1DPPC   C3A14935  13.525  16.395   3.899  0.0156  0.0138 -0.0404
    1DPPC   C4A14936  13.111  16.421   3.962  0.0916  0.0890 -0.0689
    1DPPC   C1B14937  14.531  17.017   3.281  0.0371 -0.0460  0.0618
    1DPPC   C2B14938  14.942  17.025   3.563  0.3002 -0.0241  0.1694
    1DPPC   C3B14939  15.370  17.202   3.826 -0.1860  0.2693  0.1155
    1DPPC   C4B14940  15.730  17.229   4.137  0.2494 -0.2308 -0.0204
    1DPPC   NC314941  28.390  23.908   3.394 -0.3739 -0.0798 -0.1304
    1DPPC   PO414942  27.979  23.881   3.686  0.2802 -0.0579 -0.2057
    1DPPC   GL114943  27.661  23.894   3.944  0.0881 -0.0731 -0.2893
    1DPPC   GL214944  27.627  24.249   4.121  0.2391 -0.0829  0.0177
    1DPPC   C1A14945  27.223  23.836   4.267  0.0988 -0.1952 -0.0337
    1DPPC   C2A14946  27.258  23.766   4.710 -0.2209 -0.1210 -0.3088
    1DPPC   C3A14947  26.989  23.840   5.167 -0.1574  0.2296 -0.0967
    1DPPC   C4A14948  26.806  23.555   5.422  0.0859  0.0639  0.4076
    1DPPC   C1B14949  27.540  24.176   4.567 -0.1743  0.2542  0.1758
    1DPPC   C2B14950  27.403  24.174   5.070  0.0540  0.0405 -0.0341
    1DPPC   C3B14951  27.569  24.358   5.452 -0.1767  0.1042  0.0217
    1DPPC   C4B14952  27.796  24.534   5.799 -0.1054 -0.3017  0.1583
    1DPPC   NC314953   6.468   5.280   3.519 -0.4095  0.3498 -0.0798
    1DPPC   PO414954   6.832   5.505   3.388 -0.2379 -0.3844 -0.0645
    1DPPC   GL114955   6.902   5.567   3.768 -0.0770 -0.1135  0.0045
    1DPPC   GL214956   6.907   5.302   3.932  0.0100  0.3897  0.5052
    1DPPC   C1A14957   6.968   6.029   4.043  0.2106  0.0127 -0.1087
    1DPPC   C2A14958   7.077   6.187   4.384 -0.1679  0.0095 -0.0078
    1DPPC   C3A14959   7.052   6.533   4.708 -0.2136  0.0678 -0.3582
    1DPPC   C4A14960   7.416   6.457   4.926 -0.0486 -0.1021 -0.1230
    1DPPC   C1B14961   7.004   5.476   4.262  0.1467  0.2041  0.0388
    1DPPC   C2B14962   7.263   5.549   4.581 -0.1335  0.1918  0.0625
    1DPPC   C3B14963   7.386   5.544   5.024 -0.0182 -0.0794 -0.0038
    1DPPC   C4B14964   7.154   5.703   5.453  0.1654  0.0273  0.0642
    1DPPC   NC314965  27.666  26.068   3.835  0.1675 -0.0797  0.2194
    1DPPC   PO414966  27.890  25.676   3.910  0.1755  0.1655  0.1472
    1DPPC   GL114967  27.797  25.555   4.362  0.0321 -0.1008  0.0573
    1DPPC   GL214968  28.000  25.759   4.442 -0.0500  0.0375  0.1639
    1DPPC   C1A14969  27.642  25.537   4.801 -0.1617  0.1784  0.0899
    1DPPC   C2A14970  27.302  25.301   5.077 -0.1244 -0.0638 -0.1595
    1DPPC   C3A14971  27.195  25.510   5.506  0.2553 -0.2000  0.1692
    1DPPC   C4A14972  26.969  25.672   5.796  0.1725 -0.1254 -0.0811
    1DPPC   C1B14973  28.170  26.136   4.713 -0.0552 -0.1997 -0.0212
    1DPPC   C2B14974  28.121  26.272   5.163  0.2571  0.3831 -0.4700
    1DPPC   C3B14975  28.278  26.206   5.573  0.1058  0.1994 -0.2347
    1DPPC   C4B14976  28.545  26.364   5.932  0.3577  0.0272 -0.2248
    1DPPC   NC314977   8.909  27.376   3.436 -0.0186 -0.0492  0.2964
    1DPPC   PO414978   9.004  27.830   3.544  0.3404 -0.0550 -0.4000
    1DPPC   GL114979   9.089  28.098   3.813 -0.2855  0.0811 -0.1599
    1DPPC   GL214980   9.224  28.441   3.832 -0.1462 -0.0946 -0.0636
    1DPPC   C1A14981   9.142  28.253   4.367  0.4818 -0.0159  0.2063
    1DPPC   C2A14982   9.392  28.368   4.682 -0.0329 -0.1885 -0.0164
    1DPPC   C3A14983   9.328  28.395   5.090  0.2295 -0.0132 -0.0057
    1DPPC   C4A14984   9.664  28.558   5.394  0.2904 -0.2964 -0.1470
    1DPPC   C1B14985   9.362  28.710   4.149 -0.1905  0.1580 -0.1553
    1DPPC   C2B14986   9.177  28.829   4.565  0.0215  0.2172  0.2793
    1DPPC   C3B14987   9.016  28.798   4.956 -0.3711 -0.1301 -0.1915
    1DPPC   C4B14988   9.141  28.664   5.415  0.0736  0.0762 -0.4267
    1DPPC   NC314989  16.625  13.756   1.769  0.0219 -0.1780  0.1511
    1DPPC   PO414990  16.489  13.358   1.906 -0.4817  0.1551 -0.1081
    1DPPC   GL114991  16.567  13.247   2.401 -0.1290  0.4286  0.3029
    1DPPC   GL214992  16.501  13.443   2.668  0.1739 -0.0972 -0.0532
    1DPPC   C1A14993  16.373  12.688   2.459  0.0505 -0.0359 -0.1065
    1DPPC   C2A14994  16.108  12.444   2.697 -0.4567  0.4307  0.1281
    1DPPC   C3A14995  15.865  12.272   2.990 -0.1632 -0.1310  0.2785
    1DPPC   C4A14996  15.865  12.391   3.442  0.2544 -0.1636  0.2646
    1DPPC   C1B14997  16.533  13.277   3.138  0.0279 -0.2015 -0.0659
    1DPPC   C2B14998  16.724  13.275   3.495  0.0618 -0.0587 -0.0284
    1DPPC   C3B14999  16.578  13.480   3.833 -0.2931  0.0475  0.1360
    1DPPC   C4B15000  16.887  13.524   4.182  0.1030 -0.0196 -0.1103
    1DPPC   NC315001   3.694   9.285   3.081  0.0189  0.2959 -0.0529
    1DPPC   PO415002   3.866   9.653   3.108 -0.1992 -0.1197 -0.0613
    1DPPC   GL115003   4.012   9.780   3.656  0.2277 -0.1185  0.3384
    1DPPC   GL215004   4.334   9.586   3.852  0.1202 -0.0236  0.1481
    1DPPC   C1A15005   3.860   9.801   3.990 -0.2472  0.2915  0.0345
    1DPPC   C2A15006   3.682   9.817   4.364 -0.0547  0.1698 -0.0112
    1DPPC   C3A15007   3.645   9.798   4.804  0.0420 -0.2592 -0.2857
    1DPPC   C4A15008   3.646   9.878   5.286 -0.0616  0.1519  0.2201
    1DPPC   C1B15009   4.130   9.385   4.194  0.1215  0.0378 -0.1351
    1DPPC   C2B15010   4.031   9.513   4.583 -0.0050  0.0307 -0.3087
    1DPPC   C3B15011   4.112   9.668   4.989 -0.0735 -0.0236  0.0667
    1DPPC   C4B15012   4.272  10.008   5.182  0.0404 -0.1274 -0.1600
    1DPPC   NC315013  20.689   5.856   2.220 -0.0667  0.1347 -0.2073
    1DPPC   PO415014  21.033   5.785   2.392  0.1021  0.0034 -0.0773
    1DPPC   GL115015  20.769   5.713   2.788  0.1028  0.1531 -0.2974
    1DPPC   GL215016  20.592   5.365   2.927  0.0426  0.3124 -0.3731
    1DPPC   C1A15017  20.911   5.828   3.273  0.0550 -0.3998 -0.1074
    1DPPC   C2A15018  21.067   5.873   3.691  0.6071  0.0553  0.2838
    1DPPC   C3A15019  21.164   6.129   4.042  0.3403  0.3843  0.0477
    1DPPC   C4A15020  21.444   6.175   4.407  0.0963  0.1667 -0.0129
    1DPPC   C1B15021  20.305   5.299   3.342  0.3136  0.0187 -0.0371
    1DPPC   C2B15022  20.261   5.355   3.830  0.2126  0.1922  0.0324
    1DPPC   C3B15023  20.192   5.208   4.193 -0.2362  0.3452 -0.0969
    1DPPC   C4B15024  20.207   5.160   4.642  0.0572  0.0048 -0.1410
    1DPPC   NC315025   4.213  28.049   4.319 -0.0032 -0.1367 -0.2062
    1DPPC   PO415026   3.860  27.726   4.281 -0.0011  0.1111  0.2946
    1DPPC   GL115027   3.830  27.695   4.722  0.1536  0.2672  0.2761
    1DPPC   GL215028   3.887  27.449   4.722  0.2761  0.0712  0.2304
    1DPPC   C1A15029   4.078  27.787   5.037  0.0151  0.2116 -0.0448
    1DPPC   C2A15030   4.195  27.589   5.307  0.0416  0.1652 -0.4472
    1DPPC   C3A15031   4.217  27.237   5.609 -0.2148  0.3591  0.1625
    1DPPC   C4A15032   4.440  26.896   5.843  0.0018  0.0899  0.3482
    1DPPC   C1B15033   3.873  27.272   5.053  0.0090 -0.0148  0.0452
    1DPPC   C2B15034   3.942  26.940   5.226 -0.1976  0.0136 -0.0536
    1DPPC   C3B15035   3.856  26.898   5.631  0.1363  0.0804 -0.2798
    1DPPC   C4B15036   3.949  26.812   6.054  0.1374  0.1219 -0.0243
    1DPPC   NC315037  14.890  10.115   2.046 -0.3707  0.0134  0.2864
    1DPPC   PO415038  14.530  10.312   1.979  0.0568 -0.0709  0.3291
    1DPPC   GL115039  14.703  10.527   2.307 -0.2487 -0.3911 -0.0866
    1DPPC   GL215040  14.697  10.768   2.302  0.0531  0.1449  0.0086
    1DPPC   C1A15041  14.821  10.303   2.736 -0.1586  0.3393  0.1748
    1DPPC   C2A15042  14.940  10.431   3.134 -0.1560 -0.2154 -0.0381
    1DPPC   C3A15043  15.277  10.543   3.535 -0.0308  0.1656  0.0319
    1DPPC   C4A15044  15.394  10.868   3.827 -0.0767  0.0275 -0.1803
    1DPPC   C1B15045  15.080  10.762   2.640 -0.2890  0.0602 -0.2501
    1DPPC   C2B15046  15.245  10.966   2.995 -0.4624  0.2474  0.1503
    1DPPC   C3B15047  15.169  10.969   3.400  0.3351 -0.5812  0.1576
    1DPPC   C4B15048  14.962  11.095   3.687  0.0263 -0.1314 -0.1828
    1DPPC   NC315049  15.872   6.857   1.783  0.1232 -0.1096 -0.0305
    1DPPC   PO415050  16.152   7.239   1.762 -0.1317  0.3060  0.3134
    1DPPC   GL115051  16.183   7.583   2.057  0.2748  0.1684 -0.2077
    1DPPC   GL215052  16.534   7.597   2.110 -0.1552  0.0799  0.1347
    1DPPC   C1A15053  16.071   7.693   2.508  0.4859  0.0167 -0.0296
    1DPPC   C2A15054  16.165   7.616   2.946  0.0931 -0.2864  0.1445
    1DPPC   C3A15055  16.284   7.252   3.264 -0.3381 -0.1442  0.2383
    1DPPC   C4A15056  16.312   7.250   3.707 -0.0983 -0.1720  0.1859
    1DPPC   C1B15057  16.467   7.420   2.437 -0.2746 -0.0844  0.0801
    1DPPC   C2B15058  16.548   7.261   2.821 -0.0534  0.0634  0.0560
    1DPPC   C3B15059  16.798   7.143   3.292 -0.2301  0.1270  0.1049
    1DPPC   C4B15060  17.010   6.960   3.590 -0.0019  0.0762 -0.1227
    1DPPC   NC315061  27.059  24.326   3.393 -0.2138 -0.3320 -0.2989
    1DPPC   PO415062  26.794  24.567   3.506  0.2016  0.0108 -0.2472
    1DPPC   GL115063  26.689  24.540   3.895 -0.0689 -0.1190 -0.0188
    1DPPC   GL215064  26.867  24.734   4.161 -0.2108 -0.2270 -0.2696
    1DPPC   C1A15065  26.509  24.289   4.236  0.1167  0.1151  0.4049
    1DPPC   C2A15066  26.373  24.317   4.596  0.1160 -0.0276 -0.3341
    1DPPC   C3A15067  26.392  24.277   5.088 -0.0448  0.1204  0.0151
    1DPPC   C4A15068  26.516  24.027   5.507  0.2534 -0.0236  0.1776
    1DPPC   C1B15069  26.738  24.649   4.571 -0.2264 -0.1623  0.4198
    1DPPC   C2B15070  26.637  24.717   4.979 -0.0132 -0.3268 -0.0784
    1DPPC   C3B15071  26.725  24.739   5.390  0.0858 -0.2026  0.0529
    1DPPC   C4B15072  26.780  24.662   5.833 -0.1076  0.0288  0.0573
    1DPPC   NC315073  27.073  22.692   3.444 -0.3120 -0.0463  0.3376
    1DPPC   PO415074  26.822  22.533   3.752  0.3212  0.1222 -0.1632
    1DPPC   GL115075  26.791  22.584   4.129 -0.1988 -0.2365 -0.0016
    1DPPC   GL215076  26.712  22.223   4.245  0.2761 -0.0868  0.2983
    1DPPC   C1A15077  27.028  22.575   4.511 -0.0818 -0.2414  0.0603
    1DPPC   C2A15078  27.051  22.706   4.942  0.0554 -0.0786 -0.0356
    1DPPC   C3A15079  27.219  23.081   5.183  0.2415 -0.3773  0.1519
    1DPPC   C4A15080  27.566  23.111   5.393 -0.0654  0.2542 -0.1994
    1DPPC   C1B15081  26.591  22.460   4.600  0.1256 -0.0549 -0.1781
    1DPPC   C2B15082  26.540  22.783   4.975 -0.0119  0.2381 -0.0772
    1DPPC   C3B15083  26.714  23.081   5.275 -0.0766  0.0295 -0.0548
    1DPPC   C4B15084  27.035  23.131   5.649 -0.2144  0.1997  0.2320
    1DPPC   NC315085  13.935   1.062   2.609  0.1304 -0.1975 -0.0911
    1DPPC   PO415086  13.863   0.838   3.054 -0.3614  0.1699 -0.0620
    1DPPC   GL115087  13.802   0.968   3.527  0.0735  0.0260 -0.0576
    1DPPC   GL215088  13.886   1.370   3.729  0.0160 -0.1110 -0.0911
    1DPPC   C1A15089  13.748   0.792   3.997  0.0986 -0.2917  0.0109
    1DPPC   C2A15090  13.644   0.786   4.473  0.0795  0.0758 -0.1184
    1DPPC   C3A15091  13.559   0.705   4.932 -0.0816  0.0770  0.0615
    1DPPC   C4A15092  13.541   0.997   5.288 -0.0159  0.0417 -0.3079
    1DPPC   C1B15093  14.039   1.585   4.029  0.3310 -0.0270  0.0590
    1DPPC   C2B15094  14.339   1.511   4.262 -0.0963 -0.2462  0.1959
    1DPPC   C3B15095  14.824   1.667   4.240  0.1013 -0.2024  0.3861
    1DPPC   C4B15096  15.067   1.896   3.907  0.0982 -0.1175 -0.0761
    1DPPC   NC315097  27.056   2.228   3.886 -0.0568 -0.0489 -0.1826
    1DPPC   PO415098  27.487   1.896   4.090  0.1483 -0.2184  0.0440
    1DPPC   GL115099  27.586   2.228   4.400  0.1897 -0.1284 -0.2722
    1DPPC   GL215100  27.360   2.461   4.446 -0.2295 -0.2455  0.2690
    1DPPC   C1A15101  27.651   2.386   4.843 -0.1172  0.0392 -0.0945
    1DPPC   C2A15102  27.738   2.171   5.275  0.1539  0.1920  0.2084
    1DPPC   C3A15103  27.995   2.216   5.586 -0.0117 -0.0891  0.0821
    1DPPC   C4A15104  28.236   2.238   5.941  0.3136 -0.3776  0.0028
    1DPPC   C1B15105  27.312   2.757   4.819 -0.1767  0.1852 -0.0275
    1DPPC   C2B15106  27.375   2.564   5.219 -0.0213 -0.1747  0.1841
    1DPPC   C3B15107  27.445   2.448   5.611  0.0667 -0.1481 -0.2597
    1DPPC   C4B15108  27.721   2.493   5.916  0.0429  0.0712  0.1916
    1DPPC   NC315109  15.191   7.144   1.492  0.1450 -0.0633 -0.0886
    1DPPC   PO415110  15.284   7.620   1.516 -0.1086 -0.2759  0.0169
    1DPPC   GL115111  15.256   7.673   1.971 -0.4169  0.1598 -0.2511
    1DPPC   GL215112  15.258   7.269   1.958  0.1020 -0.0678 -0.0136
    1DPPC   C1A15113  15.158   7.626   2.352  0.0390 -0.0893  0.0731
    1DPPC   C2A15114  14.967   7.905   2.686  0.0574 -0.0239 -0.2252
    1DPPC   C3A15115  14.705   7.836   2.990 -0.1370 -0.0475 -0.3603
    1DPPC   C4A15116  14.445   7.900   3.290 -0.1257  0.0797 -0.1383
    1DPPC   C1B15117  15.183   6.999   2.274 -0.1133  0.1105 -0.2317
    1DPPC   C2B15118  15.097   6.836   2.686 -0.2905 -0.0159  0.1802
    1DPPC   C3B15119  15.164   6.523   3.013  0.0661  0.0882 -0.0077
    1DPPC   C4B15120  15.112   6.367   3.412 -0.2770  0.1088  0.0509
    1DPPC   NC315121   6.543   1.324   4.427  0.0258 -0.5164  0.1705
    1DPPC   PO415122   6.722   1.771   4.206  0.2072 -0.3674 -0.1220
    1DPPC   GL115123   6.896   1.848   4.500 -0.0832  0.0321  0.0020
    1DPPC   GL215124   7.250   1.846   4.383 -0.1652 -0.1232 -0.0558
    1DPPC   C1A15125   7.140   1.894   4.886 -0.0723  0.2477 -0.0159
    1DPPC   C2A15126   7.407   1.762   5.341  0.2685 -0.0443  0.0639
    1DPPC   C3A15127   7.596   1.577   5.638 -0.4240  0.1376  0.0863
    1DPPC   C4A15128   7.540   1.463   6.043 -0.0693 -0.2871  0.2466
    1DPPC   C1B15129   7.601   1.816   4.809  0.2654  0.4188  0.0658
    1DPPC   C2B15130   7.891   1.535   5.134 -0.0130 -0.1500  0.0030
    1DPPC   C3B15131   7.990   1.271   5.432 -0.1291  0.2669  0.1685
    1DPPC   C4B15132   7.921   1.160   5.868  0.2319 -0.0073  0.1535
    1DPPC   NC315133  21.772   4.212   2.454 -0.0526 -0.2982 -0.2463
    1DPPC   PO415134  21.510   4.272   2.771  0.3078 -0.0297  0.0904
    1DPPC   GL115135  21.488   4.046   3.153 -0.0725  0.3765  0.2897
    1DPPC   GL215136  21.432   3.775   3.136  0.0724  0.1093  0.0128
    1DPPC   C1A15137  21.679   4.141   3.526 -0.0046 -0.0008  0.2455
    1DPPC   C2A15138  21.607   4.000   3.975 -0.2204 -0.0061  0.1394
    1DPPC   C3A15139  21.421   4.031   4.316 -0.0265  0.1963  0.0244
    1DPPC   C4A15140  21.254   4.333   4.593 -0.3026  0.1414 -0.0308
    1DPPC   C1B15141  21.407   3.758   3.557  0.0796 -0.0436 -0.3623
    1DPPC   C2B15142  21.090   3.828   4.018 -0.1082 -0.0379  0.0937
    1DPPC   C3B15143  20.927   3.678   4.278  0.0838  0.0894  0.0777
    1DPPC   C4B15144  21.001   3.837   4.730  0.0766 -0.1112 -0.1688
    1DPPC   NC315145  16.486   4.789   1.566 -0.1690 -0.1565  0.1155
    1DPPC   PO415146  16.823   4.581   1.853 -0.2304  0.0915  0.1836
    1DPPC   GL115147  16.483   4.650   2.164 -0.2589  0.1606  0.2474
    1DPPC   GL215148  16.248   4.902   2.142 -0.1133  0.0250 -0.2047
    1DPPC   C1A15149  16.279   4.533   2.513 -0.3248  0.0388  0.0958
    1DPPC   C2A15150  16.085   4.732   2.764  0.0850 -0.0932  0.2171
    1DPPC   C3A15151  16.021   4.871   3.140 -0.2776  0.3533  0.0668
    1DPPC   C4A15152  15.733   4.919   3.304 -0.2745  0.0141 -0.0578
    1DPPC   C1B15153  16.396   5.073   2.550  0.1969 -0.2697 -0.3544
    1DPPC   C2B15154  16.206   5.300   2.908 -0.0270  0.1098  0.0022
    1DPPC   C3B15155  15.970   5.387   3.236  0.0802  0.0234  0.0368
    1DPPC   C4B15156  15.559   5.471   3.364 -0.3143  0.0381 -0.2497
    1DPPC   NC315157   5.989   6.259   3.515 -0.2215  0.0984  0.1923
    1DPPC   PO415158   5.577   6.197   3.679  0.0485 -0.3118  0.0449
    1DPPC   GL115159   5.799   6.350   3.981 -0.2299  0.1666  0.0879
    1DPPC   GL215160   6.013   6.395   4.010  0.1131 -0.4626 -0.0827
    1DPPC   C1A15161   5.716   6.788   4.266 -0.0044  0.3579  0.0313
    1DPPC   C2A15162   5.540   7.120   4.414 -0.4634  0.1792  0.0510
    1DPPC   C3A15163   5.778   7.405   4.677  0.0262  0.2819 -0.0249
    1DPPC   C4A15164   5.828   7.563   5.100 -0.3557  0.0066  0.0243
    1DPPC   C1B15165   6.335   6.456   4.421  0.1303 -0.0874 -0.0529
    1DPPC   C2B15166   6.657   6.251   4.725  0.0552 -0.3523 -0.0052
    1DPPC   C3B15167   6.459   6.013   5.052  0.2162  0.3302  0.0048
    1DPPC   C4B15168   6.669   5.688   5.350 -0.1834 -0.2831  0.0941
    1DPPC   NC315169  14.519   3.802   2.007 -0.0374  0.1011  0.3327
    1DPPC   PO415170  14.317   3.519   1.967  0.1340  0.1312 -0.1904
    1DPPC   GL115171  14.383   3.473   2.410  0.0247 -0.1463 -0.1057
    1DPPC   GL215172  14.067   3.681   2.436  0.1621  0.0008 -0.3801
    1DPPC   C1A15173  14.650   3.500   2.797  0.0594 -0.1184 -0.0575
    1DPPC   C2A15174  14.913   3.297   3.029 -0.0497  0.1074  0.0156
    1DPPC   C3A15175  14.959   3.061   3.491 -0.1020 -0.0139  0.0106
    1DPPC   C4A15176  15.191   2.816   3.782 -0.0500  0.2714 -0.0762
    1DPPC   C1B15177  14.196   3.665   2.916 -0.2080 -0.1320 -0.1152
    1DPPC   C2B15178  14.525   3.700   3.216 -0.0576 -0.0717 -0.4048
    1DPPC   C3B15179  14.555   3.767   3.673  0.2273  0.1094 -0.1875
    1DPPC   C4B15180  14.503   4.017   4.023  0.1616  0.3583 -0.0358
    1DPPC   NC315181  18.270  28.028   2.550  0.0470 -0.1619  0.2474
    1DPPC   PO415182  18.580  27.716   2.803 -0.0829 -0.1063 -0.1125
    1DPPC   GL115183  18.459  27.568   3.145 -0.2503 -0.1626  0.1578
    1DPPC   GL215184  18.359  27.262   3.289 -0.1781  0.0201 -0.0897
    1DPPC   C1A15185  18.050  27.619   3.398  0.1845  0.3481  0.0794
    1DPPC   C2A15186  17.783  27.434   3.766  0.0624 -0.3026 -0.1756
    1DPPC   C3A15187  17.469  27.357   4.114 -0.2348  0.4540  0.1733
    1DPPC   C4A15188  17.477  27.261   4.495 -0.1344 -0.1818 -0.3559
    1DPPC   C1B15189  18.388  27.537   3.754 -0.0763 -0.2154  0.0675
    1DPPC   C2B15190  18.448  27.753   4.170 -0.1230  0.2092  0.0329
    1DPPC   C3B15191  18.291  27.955   4.484 -0.1422 -0.2718  0.0679
    1DPPC   C4B15192  18.283  28.271   4.779 -0.1687  0.0488 -0.1098
    1DPPC   NC315193   0.143  18.417   3.681  0.1225 -0.3195 -0.0007
    1DPPC   PO415194   0.423  18.461   4.033  0.0352 -0.1896 -0.2997
    1DPPC   GL115195   0.234  18.574   4.409 -0.3599  0.0494  0.3072
    1DPPC   GL215196   0.310  18.906   4.365  0.2498  0.0199  0.0692
    1DPPC   C1A15197   0.063  18.490   4.800 -0.1403 -0.0688  0.3039
    1DPPC   C2A15198  -0.073  18.473   5.212 -0.0471 -0.0317 -0.2645
    1DPPC   C3A15199  -0.143  18.313   5.612 -0.0369 -0.0391 -0.3218
    1DPPC   C4A15200  -0.147  18.372   6.072  0.2086 -0.0626 -0.1989
    1DPPC   C1B15201   0.081  19.031   4.747  0.1863 -0.1742  0.2636
    1DPPC   C2B15202  -0.135  19.003   5.127  0.0869  0.2584  0.0769
    1DPPC   C3B15203  -0.081  18.861   5.559 -0.1957 -0.0026  0.0254
    1DPPC   C4B15204   0.199  18.819   6.059  0.0754  0.0993  0.1291
    1DPPC   NC315205   6.685   6.462   3.294  0.0168  0.1485 -0.0115
    1DPPC   PO415206   6.315   6.461   3.073  0.3102  0.0102 -0.0596
    1DPPC   GL115207   6.339   6.634   3.614 -0.0071  0.0144 -0.0778
    1DPPC   GL215208   6.589   6.475   3.821 -0.4231  0.0426  0.3339
    1DPPC   C1A15209   6.293   6.844   4.111 -0.1843 -0.2400 -0.1813
    1DPPC   C2A15210   6.153   6.906   4.493 -0.2413 -0.0889  0.1381
    1DPPC   C3A15211   5.879   6.719   4.702 -0.0242 -0.1695  0.0337
    1DPPC   C4A15212   5.424   6.823   4.751 -0.1208  0.0749  0.0040
    1DPPC   C1B15213   6.416   6.105   4.100 -0.3069 -0.0080  0.1566
    1DPPC   C2B15214   6.618   5.820   4.305 -0.0917 -0.0741 -0.0292
    1DPPC   C3B15215   6.672   5.677   4.614 -0.1260  0.0815 -0.0899
    1DPPC   C4B15216   6.395   5.525   4.957  0.3194 -0.1006  0.1635
    1DPPC   NC315217  19.421   3.258   2.228 -0.2363 -0.1029 -0.1395
    1DPPC   PO415218  19.670   3.408   2.498 -0.0408  0.3435 -0.1007
    1DPPC   GL115219  19.700   3.520   2.862  0.0253 -0.1535 -0.1805
    1DPPC   GL215220  19.689   3.247   2.982 -0.1839 -0.1894  0.1538
    1DPPC   C1A15221  19.497   3.788   3.209  0.2460  0.2351 -0.0159
    1DPPC   C2A15222  19.253   3.945   3.499 -0.1297 -0.1754 -0.0641
    1DPPC   C3A15223  19.227   4.368   3.819  0.0149  0.0920 -0.3077
    1DPPC   C4A15224  19.208   4.606   4.182  0.0555  0.3008  0.0389
    1DPPC   C1B15225  19.477   3.296   3.296 -0.1139  0.1335  0.2121
    1DPPC   C2B15226  19.225   3.370   3.454 -0.2210  0.0870  0.0135
    1DPPC   C3B15227  19.139   3.490   3.795 -0.2712 -0.1939  0.0459
    1DPPC   C4B15228  18.808   3.600   4.172  0.2492 -0.1332 -0.0845
    1DPPC   NC315229  12.578  23.469   3.130  0.0078  0.1709 -0.2089
    1DPPC   PO415230  12.969  23.730   3.075  0.1515 -0.1266 -0.2334
    1DPPC   GL115231  13.083  23.535   3.477  0.1138 -0.0577 -0.0328
    1DPPC   GL215232  13.411  23.310   3.571 -0.0403 -0.0152 -0.0004
    1DPPC   C1A15233  12.912  23.397   3.874 -0.1838  0.0523 -0.1142
    1DPPC   C2A15234  12.778  23.222   4.298 -0.1488 -0.0267  0.0507
    1DPPC   C3A15235  12.707  23.014   4.616 -0.0097  0.1793  0.0101
    1DPPC   C4A15236  12.777  22.612   4.823  0.1006  0.1096  0.0843
    1DPPC   C1B15237  13.388  23.393   4.011 -0.2617 -0.2789  0.1585
    1DPPC   C2B15238  13.323  23.254   4.473 -0.1258  0.3598  0.1828
    1DPPC   C3B15239  13.191  23.004   4.783  0.2265 -0.0828 -0.0336
    1DPPC   C4B15240  13.354  23.062   5.142 -0.1372 -0.3179  0.1687
    1DPPC   NC315241   2.971   3.032   4.062 -0.3857  0.1991  0.0465
    1DPPC   PO415242   3.252   3.426   4.196 -0.1502  0.2215  0.0999
    1DPPC   GL115243   3.293   3.334   4.670 -0.1803 -0.0527  0.0904
    1DPPC   GL215244   3.416   3.514   4.843  0.1030 -0.3350  0.0813
    1DPPC   C1A15245   3.086   3.115   5.025 -0.0248 -0.0247 -0.1016
    1DPPC   C2A15246   2.910   2.826   5.243 -0.1845 -0.0374  0.1127
    1DPPC   C3A15247   2.907   2.581   5.698 -0.0290  0.0721  0.0096
    1DPPC   C4A15248   2.962   2.328   6.078  0.0625  0.0349 -0.0815
    1DPPC   C1B15249   3.316   3.559   5.243 -0.4728 -0.0768  0.0472
    1DPPC   C2B15250   3.251   3.815   5.597 -0.2833  0.3127 -0.0153
    1DPPC   C3B15251   2.913   3.912   5.754 -0.0429 -0.1566 -0.1876
    1DPPC   C4B15252   2.689   4.234   5.740 -0.2059 -0.0573  0.2114
    1DPPC   NC315253  14.764   1.156   2.260 -0.4206  0.1089  0.1754
    1DPPC   PO415254  14.331   1.313   2.422  0.2255 -0.1239 -0.0233
    1DPPC   GL115255  14.395   1.485   2.880  0.2415  0.2447  0.0111
    1DPPC   GL215256  14.172   1.314   3.126  0.0620 -0.0731 -0.1103
    1DPPC   C1A15257  14.599   1.505   3.308  0.1512 -0.1072 -0.1901
    1DPPC   C2A15258  14.730   1.583   3.711 -0.0771  0.1281 -0.1576
    1DPPC   C3A15259  15.034   1.359   3.924 -0.1071 -0.1097  0.0945
    1DPPC   C4A15260  15.346   1.526   4.140  0.2501 -0.1426  0.0123
    1DPPC   C1B15261  14.275   1.126   3.471 -0.2736 -0.2490 -0.1706
    1DPPC   C2B15262  14.345   1.128   3.847  0.1571 -0.0733  0.1892
    1DPPC   C3B15263  14.686   1.033   4.148  0.0091 -0.2285  0.1097
    1DPPC   C4B15264  15.129   1.037   4.343  0.3280 -0.1048 -0.4849
    1DPPC   NC315265  19.370   1.455   3.051 -0.0350 -0.2978  0.0704
    1DPPC   PO415266  19.855   1.595   2.947  0.0335  0.1140  0.0279
    1DPPC   GL115267  20.018   1.930   3.100  0.0236 -0.0834  0.1104
    1DPPC   GL215268  20.196   1.802   3.291 -0.1170 -0.2433  0.1484
    1DPPC   C1A15269  19.987   2.248   3.433  0.1329  0.0687  0.0875
    1DPPC   C2A15270  19.805   2.308   3.832  0.0439  0.1742  0.1531
    1DPPC   C3A15271  19.567   2.676   3.963 -0.3101 -0.1181  0.1141
    1DPPC   C4A15272  19.699   2.964   4.339  0.1509 -0.0813  0.2004
    1DPPC   C1B15273  20.127   1.900   3.741 -0.1338  0.1327 -0.0760
    1DPPC   C2B15274  20.131   1.948   4.151  0.3317 -0.2266 -0.1427
    1DPPC   C3B15275  19.957   2.346   4.334 -0.2819 -0.2032 -0.0024
    1DPPC   C4B15276  19.591   2.435   4.553  0.2079 -0.1983  0.0274
    1DPPC   NC315277  12.461  17.665   3.052  0.2042  0.0156 -0.1941
    1DPPC   PO415278  12.637  17.245   2.728 -0.3150 -0.3474  0.0087
    1DPPC   GL115279  12.759  17.160   3.114  0.0580 -0.1913 -0.5579
    1DPPC   GL215280  13.090  17.134   3.251  0.0590 -0.1963  0.1956
    1DPPC   C1A15281  12.666  16.904   3.426  0.0128 -0.0662 -0.0610
    1DPPC   C2A15282  12.695  16.811   3.904 -0.0502  0.2477  0.0092
    1DPPC   C3A15283  12.726  16.717   4.260  0.2417 -0.1003 -0.4277
    1DPPC   C4A15284  12.608  16.564   4.606 -0.3216 -0.0761 -0.0833
    1DPPC   C1B15285  13.105  16.812   3.593  0.2151  0.0861 -0.0818
    1DPPC   C2B15286  13.369  16.884   3.916 -0.1068  0.2582 -0.3356
    1DPPC   C3B15287  13.616  16.756   4.246 -0.1807  0.0344  0.2372
    1DPPC   C4B15288  13.741  16.811   4.687 -0.0247 -0.0511 -0.0493
    1DPPC   NC315289  19.511   5.397   1.955  0.1301  0.0298 -0.0103
    1DPPC   PO415290  19.283   5.788   1.988 -0.0538  0.1207 -0.0265
    1DPPC   GL115291  19.105   5.702   2.297 -0.2430 -0.0380  0.1747
    1DPPC   GL215292  18.852   5.468   2.257  0.0590  0.0569  0.1562
    1DPPC   C1A15293  19.072   5.981   2.610  0.1914 -0.0392 -0.2147
    1DPPC   C2A15294  18.946   6.319   2.909  0.2407  0.0491  0.1651
    1DPPC   C3A15295  18.926   6.619   3.310  0.0403 -0.1331 -0.2234
    1DPPC   C4A15296  19.006   6.924   3.514 -0.1989 -0.0435  0.1101
    1DPPC   C1B15297  19.009   5.384   2.658 -0.0389  0.0389  0.1419
    1DPPC   C2B15298  19.202   5.166   2.923  0.2054 -0.2821  0.0036
    1DPPC   C3B15299  19.463   5.144   3.241 -0.0799  0.2115 -0.2334
    1DPPC   C4B15300  19.414   4.775   3.565  0.2068  0.3773 -0.1259
    1DPPC   NC315301  22.185  27.982   2.838 -0.1603  0.1763 -0.2345
    1DPPC   PO415302  22.400  28.136   3.216 -0.4547  0.1092  0.1585
    1DPPC   GL115303  22.614  28.265   3.548  0.0274 -0.0705  0.1172
    1DPPC   GL215304  22.921  28.178   3.661 -0.1912  0.3450 -0.1221
    1DPPC   C1A15305  22.568  28.227   4.030 -0.3296 -0.3204  0.0249
    1DPPC   C2A15306  22.634  28.343   4.360  0.0940 -0.0867 -0.0038
    1DPPC   C3A15307  22.358  28.471   4.752 -0.1172 -0.2781 -0.1844
    1DPPC   C4A15308  22.085  28.566   5.139 -0.1733  0.0524 -0.0038
    1DPPC   C1B15309  23.042  28.272   4.079 -0.1694 -0.5942 -0.0528
    1DPPC   C2B15310  23.108  28.378   4.559 -0.1302 -0.1286  0.1805
    1DPPC   C3B15311  23.301  28.332   4.884  0.0106 -0.3095 -0.0201
    1DPPC   C4B15312  23.486  28.505   5.257  0.0594  0.0278  0.1967
    1DPPC   NC315313  27.678   3.882   3.844  0.0442 -0.2460  0.2094
    1DPPC   PO415314  27.318   3.586   3.814 -0.0062  0.0745 -0.0617
    1DPPC   GL115315  27.162   3.344   4.272  0.0647  0.2417 -0.0012
    1DPPC   GL215316  26.913   3.388   4.427 -0.0990  0.0367  0.1077
    1DPPC   C1A15317  26.978   2.904   4.451  0.2689 -0.0676  0.0918
    1DPPC   C2A15318  26.805   2.701   4.740 -0.0393 -0.1048 -0.0229
    1DPPC   C3A15319  26.765   2.430   5.009  0.0185 -0.0396  0.0391
    1DPPC   C4A15320  26.945   2.228   5.447  0.4624  0.0647  0.2506
    1DPPC   C1B15321  26.868   3.225   4.891  0.1376  0.0259 -0.0868
    1DPPC   C2B15322  26.961   2.902   5.167  0.1281 -0.0306 -0.1893
    1DPPC   C3B15323  27.043   2.713   5.633  0.1126 -0.0882 -0.0880
    1DPPC   C4B15324  27.012   2.433   5.945 -0.1648  0.5316  0.0888
    1DPPC   NC315325  27.749  28.495   4.168 -0.0805 -0.0869  0.2216
    1DPPC   PO415326  27.268  28.497   4.029  0.0304 -0.0751 -0.0337
    1DPPC   GL115327  26.997  28.258   4.372  0.0422  0.0210  0.3152
    1DPPC   GL215328  27.100  28.410   4.716  0.0214  0.2805 -0.1448
    1DPPC   C1A15329  26.558  28.280   4.651 -0.0259 -0.1745  0.3199
    1DPPC   C2A15330  26.535  28.499   4.998 -0.4555 -0.1534 -0.0307
    1DPPC   C3A15331  26.756  28.958   5.035  0.3026  0.0718  0.2353
    1DPPC   C4A15332  26.499  29.406   5.166  0.5260 -0.1342  0.2114
    1DPPC   C1B15333  27.106  28.563   5.046 -0.0745  0.3390  0.1755
    1DPPC   C2B15334  27.016  28.877   5.416 -0.1421  0.1043  0.0281
    1DPPC   C3B15335  27.139  29.207   5.642  0.0318  0.0959  0.1578
    1DPPC   C4B15336  27.474  29.115   5.968  0.0545 -0.1723  0.0139
    1DPPC   NC315337  11.081   2.460   2.583  0.0356 -0.1989  0.1724
    1DPPC   PO415338  11.175   2.813   2.466 -0.1308  0.0450 -0.1449
    1DPPC   GL115339  11.340   2.785   2.957 -0.0250  0.0749 -0.3159
    1DPPC   GL215340  11.289   2.518   3.030  0.0887  0.2079 -0.1853
    1DPPC   C1A15341  11.806   2.792   3.066 -0.1093 -0.1133 -0.2582
    1DPPC   C2A15342  11.950   2.969   3.477  0.0787  0.0847  0.2467
    1DPPC   C3A15343  12.032   3.297   3.658  0.2739  0.1370  0.1346
    1DPPC   C4A15344  12.247   3.616   3.562 -0.1833  0.1370  0.1773
    1DPPC   C1B15345  11.624   2.292   3.228 -0.0253  0.2562  0.0795
    1DPPC   C2B15346  11.887   2.094   3.507 -0.3706 -0.1530 -0.0091
    1DPPC   C3B15347  11.878   2.160   3.912  0.1933 -0.0649  0.0203
    1DPPC   C4B15348  12.109   2.350   4.164  0.0594 -0.0777 -0.1905
    1DPPC   NC315349  22.032  10.376   2.129 -0.1494 -0.0580  0.0121
    1DPPC   PO415350  21.724  10.462   2.428  0.1447 -0.0874  0.1328
    1DPPC   GL115351  21.678  10.270   2.784 -0.1968 -0.0695 -0.1380
    1DPPC   GL215352  21.382  10.487   2.778 -0.1825 -0.0578 -0.0412
    1DPPC   C1A15353  21.836   9.976   3.103 -0.3878 -0.0312  0.0129
    1DPPC   C2A15354  21.690   9.506   3.259  0.0372 -0.0045  0.5749
    1DPPC   C3A15355  21.518   9.399   3.779 -0.2260 -0.1934  0.0720
    1DPPC   C4A15356  21.159   9.252   4.003 -0.0711 -0.0065 -0.1067
    1DPPC   C1B15357  21.516  10.428   3.261  0.0254 -0.0542  0.1691
    1DPPC   C2B15358  21.435  10.327   3.756 -0.0941 -0.2650  0.1500
    1DPPC   C3B15359  21.191  10.277   4.045  0.1582  0.0798  0.0444
    1DPPC   C4B15360  20.793  10.108   4.209 -0.2105 -0.0944  0.0672
    1DPPC   NC315361  25.596  19.446   2.586  0.1753 -0.1514 -0.2687
    1DPPC   PO415362  25.546  19.305   3.116  0.1890  0.2918  0.2129
    1DPPC   GL115363  25.498  19.255   3.511 -0.0776  0.1765 -0.1221
    1DPPC   GL215364  25.494  19.479   3.718 -0.0970 -0.1777 -0.0546
    1DPPC   C1A15365  25.571  18.880   3.775  0.0630 -0.0063 -0.5308
    1DPPC   C2A15366  25.755  18.764   4.202  0.1509 -0.0075  0.0937
    1DPPC   C3A15367  25.762  18.534   4.622  0.3243 -0.0302  0.1521
    1DPPC   C4A15368  25.419  18.299   4.840  0.3734 -0.1676  0.0254
    1DPPC   C1B15369  25.394  19.273   4.029  0.3796  0.3989  0.4230
    1DPPC   C2B15370  25.004  19.217   4.308 -0.1171  0.4157  0.2152
    1DPPC   C3B15371  24.784  19.294   4.730  0.0285 -0.2885  0.4085
    1DPPC   C4B15372  24.701  19.530   5.049  0.1924 -0.2652  0.0350
    1DPPC   NC315373  21.487   5.130   2.423  0.1848  0.0317 -0.1369
    1DPPC   PO415374  21.169   5.293   2.581  0.0649 -0.1117 -0.0610
    1DPPC   GL115375  21.122   5.309   2.982  0.0637  0.1528  0.2372
    1DPPC   GL215376  21.060   4.935   3.082  0.1162  0.1679 -0.0799
    1DPPC   C1A15377  20.849   5.303   3.364 -0.0920  0.1026  0.2303
    1DPPC   C2A15378  20.883   5.352   3.737 -0.0390  0.2044 -0.1367
    1DPPC   C3A15379  20.816   5.628   4.078  0.0408  0.0658  0.2838
    1DPPC   C4A15380  20.549   5.601   4.365 -0.0745  0.2139  0.0934
    1DPPC   C1B15381  21.180   4.941   3.530 -0.0087 -0.0235  0.0788
    1DPPC   C2B15382  21.313   5.004   3.765  0.2932 -0.0402 -0.1343
    1DPPC   C3B15383  21.201   5.077   4.059 -0.1239 -0.0259  0.0904
    1DPPC   C4B15384  21.095   5.393   4.453  0.0684 -0.0893  0.2135
    1DPPC   NC315385   0.824  26.961   3.665  0.0307  0.1459 -0.0501
    1DPPC   PO415386   0.454  26.742   3.990 -0.1325  0.3274  0.3125
    1DPPC   GL115387   0.013  26.573   4.274 -0.2003 -0.0730 -0.2845
    1DPPC   GL215388  -0.154  26.852   4.367 -0.0914  0.0345  0.0284
    1DPPC   C1A15389  -0.035  26.346   4.621 -0.0487 -0.3194 -0.3100
    1DPPC   C2A15390  -0.298  26.052   4.952 -0.1665 -0.1714  0.2002
    1DPPC   C3A15391  -0.278  25.821   5.431 -0.0858 -0.0304 -0.3267
    1DPPC   C4A15392  -0.240  25.838   5.902  0.0564 -0.1882 -0.1391
    1DPPC   C1B15393  -0.030  26.777   4.807 -0.0819  0.1958  0.2102
    1DPPC   C2B15394   0.091  26.673   5.208 -0.2573 -0.1949  0.0980
    1DPPC   C3B15395   0.187  26.638   5.730 -0.1352  0.1937  0.2316
    1DPPC   C4B15396   0.272  26.551   6.192 -0.2460  0.0664 -0.3741
    1DPPC   NC315397  21.818   6.521   2.364 -0.0256 -0.0635  0.0903
    1DPPC   PO415398  21.497   6.661   2.039 -0.2759 -0.3972 -0.0106
    1DPPC   GL115399  21.111   6.593   2.524  0.2225  0.0759  0.1283
    1DPPC   GL215400  20.988   6.325   2.530 -0.1810  0.0639 -0.3706
    1DPPC   C1A15401  21.013   7.060   2.750  0.0733 -0.1369 -0.2455
    1DPPC   C2A15402  20.905   7.210   3.206  0.0608  0.0746  0.3290
    1DPPC   C3A15403  20.655   7.270   3.566  0.0472  0.0501 -0.1118
    1DPPC   C4A15404  20.417   7.140   4.003 -0.3784 -0.0723  0.0282
    1DPPC   C1B15405  20.998   6.181   2.933  0.2066 -0.1219  0.0506
    1DPPC   C2B15406  20.843   6.291   3.406 -0.2678  0.2124 -0.1648
    1DPPC   C3B15407  20.882   6.410   3.721 -0.2556  0.4086  0.0884
    1DPPC   C4B15408  20.843   6.719   4.031  0.3458  0.0012  0.0544
    1DPPC   NC315409  17.720   2.289   2.484  0.1206  0.1498  0.0786
    1DPPC   PO415410  17.594   1.844   2.565  0.0398 -0.0904  0.1194
    1DPPC   GL115411  17.807   1.949   2.915 -0.0190 -0.0037  0.1052
    1DPPC   GL215412  17.985   2.126   2.876 -0.0251 -0.0691  0.1501
    1DPPC   C1A15413  17.879   1.992   3.375 -0.1705  0.1693  0.1385
    1DPPC   C2A15414  17.873   2.080   3.815 -0.1269  0.0868  0.0487
    1DPPC   C3A15415  17.918   2.248   4.152  0.1101 -0.0385  0.0852
    1DPPC   C4A15416  17.646   2.252   4.537 -0.0519 -0.2578 -0.1214
    1DPPC   C1B15417  18.138   2.395   3.239 -0.0398  0.0637  0.1205
    1DPPC   C2B15418  18.214   2.549   3.733  0.0359 -0.0018  0.0890
    1DPPC   C3B15419  18.316   2.862   4.021 -0.2836  0.2514 -0.0823
    1DPPC   C4B15420  18.438   2.876   4.479  0.2369  0.2178 -0.0696
    1DPPC   NC315421  19.010  27.676   3.058  0.0147 -0.0033  0.1216
    1DPPC   PO415422  18.867  27.284   3.121 -0.0427 -0.1109  0.1912
    1DPPC   GL115423  18.797  27.402   3.526 -0.2251  0.2502  0.3934
    1DPPC   GL215424  18.799  27.734   3.504  0.0351  0.1254  0.3570
    1DPPC   C1A15425  18.832  27.348   3.902 -0.0144  0.2366  0.0151
    1DPPC   C2A15426  18.742  27.408   4.322  0.1220 -0.1248 -0.0690
    1DPPC   C3A15427  18.345  27.491   4.617 -0.1738  0.1151  0.4158
    1DPPC   C4A15428  18.133  27.776   4.904 -0.2107  0.0128  0.4474
    1DPPC   C1B15429  18.698  27.934   3.822  0.0022 -0.0396 -0.0083
    1DPPC   C2B15430  18.576  28.192   4.029  0.1641  0.0335  0.0037
    1DPPC   C3B15431  18.703  28.310   4.451 -0.1375 -0.3064 -0.1985
    1DPPC   C4B15432  18.842  28.259   4.894  0.1006 -0.1133  0.2480
    1DPPC   NC315433  26.641   4.259   4.075  0.0636 -0.2303  0.2745
    1DPPC   PO415434  26.900   4.517   4.172 -0.1472  0.0112 -0.1427
    1DPPC   GL115435  26.812   4.325   4.589 -0.1953 -0.3063  0.1248
    1DPPC   GL215436  26.946   4.071   4.495  0.0492  0.2650 -0.0596
    1DPPC   C1A15437  26.692   4.219   4.981 -0.1137 -0.0726 -0.0533
    1DPPC   C2A15438  26.655   4.134   5.395  0.0501  0.1081 -0.0204
    1DPPC   C3A15439  26.467   4.184   5.802  0.2594  0.2006 -0.2138
    1DPPC   C4A15440  26.125   4.257   6.003 -0.2734 -0.0993  0.2056
    1DPPC   C1B15441  26.934   3.773   4.848 -0.2067 -0.0242 -0.1482
    1DPPC   C2B15442  27.044   3.586   5.261  0.2877  0.2116 -0.0743
    1DPPC   C3B15443  26.927   3.624   5.698 -0.1912 -0.1381 -0.1487
    1DPPC   C4B15444  26.455   3.656   5.766 -0.0463  0.0473  0.0571
    1DPPC   NC315445  24.525  26.022   2.848 -0.2219 -0.1009 -0.0551
    1DPPC   PO415446  24.434  25.735   3.108  0.0500  0.3513 -0.1826
    1DPPC   GL115447  24.326  25.751   3.530 -0.2640  0.1515 -0.1207
    1DPPC   GL215448  24.002  25.675   3.707  0.2973 -0.0256  0.0895
    1DPPC   C1A15449  24.509  25.822   3.914  0.2179  0.3438 -0.2129
    1DPPC   C2A15450  24.679  25.743   4.377 -0.0685 -0.0309  0.3650
    1DPPC   C3A15451  24.585  25.694   4.779 -0.0242 -0.2949  0.0276
    1DPPC   C4A15452  24.472  25.830   5.156  0.0457 -0.0686 -0.3546
    1DPPC   C1B15453  23.739  25.830   4.071  0.3173  0.1741 -0.3563
    1DPPC   C2B15454  23.757  25.833   4.491  0.2131 -0.1372  0.2677
    1DPPC   C3B15455  23.530  25.758   4.902  0.0207 -0.0600  0.1957
    1DPPC   C4B15456  23.075  25.860   5.008 -0.2478  0.1390 -0.2970
    1DPPC   NC315457   1.247   5.032   4.418 -0.2082  0.0999 -0.2955
    1DPPC   PO415458   1.260   5.395   4.459 -0.1055  0.2614  0.2261
    1DPPC   GL115459   1.484   5.299   4.771  0.1281 -0.1148  0.0530
    1DPPC   GL215460   1.209   5.059   4.934 -0.4338 -0.2734 -0.1338
    1DPPC   C1A15461   1.627   5.377   5.137 -0.0687  0.1539 -0.2598
    1DPPC   C2A15462   1.680   5.576   5.528  0.1642  0.0834  0.2691
    1DPPC   C3A15463   1.981   5.562   5.882 -0.0569 -0.1621 -0.1258
    1DPPC   C4A15464   2.371   5.459   5.764 -0.1033  0.0974  0.2275
    1DPPC   C1B15465   0.897   5.305   5.279 -0.1075 -0.2802 -0.0152
    1DPPC   C2B15466   0.711   5.279   5.731 -0.0345  0.4599  0.1002
    1DPPC   C3B15467   0.489   5.492   5.915  0.0135  0.0688 -0.0782
    1DPPC   C4B15468   0.365   5.486   6.231  0.0680 -0.0061  0.2638
    1DPPC   NC315469   7.607  11.171   2.370  0.0410  0.0664 -0.0200
    1DPPC   PO415470   7.503  10.916   2.664  0.3182 -0.0502 -0.1023
    1DPPC   GL115471   7.786  10.842   2.953  0.0690 -0.2625  0.2589
    1DPPC   GL215472   8.026  10.594   2.812  0.2172 -0.1120  0.1908
    1DPPC   C1A15473   8.088  11.171   3.186  0.0488  0.0345 -0.0178
    1DPPC   C2A15474   8.404  11.327   3.345  0.2160 -0.0905 -0.0099
    1DPPC   C3A15475   8.858  11.209   3.403 -0.1039  0.1201 -0.0719
    1DPPC   C4A15476   9.165  10.966   3.552 -0.2792 -0.1295 -0.0165
    1DPPC   C1B15477   8.369  10.809   3.077  0.0113  0.0428 -0.1654
    1DPPC   C2B15478   8.663  10.713   3.404  0.1322 -0.0557  0.1658
    1DPPC   C3B15479   8.975  10.657   3.885  0.3496  0.1193 -0.1465
    1DPPC   C4B15480   9.356  10.754   4.175  0.0516 -0.1810 -0.3022
    1DPPC   NC315481  11.026   9.005   2.039 -0.3618  0.0828  0.2885
    1DPPC   PO415482  11.010   9.189   2.462 -0.0468  0.1895 -0.0518
    1DPPC   GL115483  10.797   9.548   2.729 -0.0712  0.3130  0.1628
    1DPPC   GL215484  10.947   9.799   2.696  0.2117 -0.1013  0.1068
    1DPPC   C1A15485  10.468   9.669   3.034 -0.2063 -0.0015  0.0857
    1DPPC   C2A15486  10.436   9.728   3.473 -0.0035 -0.1196 -0.1954
    1DPPC   C3A15487  10.297   9.702   3.913 -0.0846 -0.0163  0.0215
    1DPPC   C4A15488   9.844   9.666   4.081  0.0155  0.2445  0.0377
    1DPPC   C1B15489  10.926   9.933   3.116 -0.2943  0.2273 -0.0738
    1DPPC   C2B15490  10.903   9.827   3.596 -0.0700 -0.0379  0.1725
    1DPPC   C3B15491  10.995   9.580   3.880 -0.1497 -0.0753 -0.0551
    1DPPC   C4B15492  11.064   9.183   4.018  0.3318  0.1513 -0.0060
    1DPPC   NC315493   3.587  11.345   3.199  0.0079  0.2726  0.1378
    1DPPC   PO415494   3.684  11.683   3.335 -0.1452 -0.1149  0.0104
    1DPPC   GL115495   3.514  12.032   3.567  0.0506  0.1591 -0.0075
    1DPPC   GL215496   3.267  11.909   3.867 -0.3218 -0.0489  0.1953
    1DPPC   C1A15497   3.777  12.219   3.964 -0.4812  0.0637  0.3019
    1DPPC   C2A15498   3.863  12.305   4.294 -0.0423 -0.1670  0.1270
    1DPPC   C3A15499   3.992  12.298   4.705 -0.1624 -0.0952  0.2806
    1DPPC   C4A15500   4.326  12.405   5.051  0.1455 -0.1326  0.0219
    1DPPC   C1B15501   3.500  11.868   4.212  0.1283  0.0756 -0.0730
    1DPPC   C2B15502   3.711  11.741   4.526  0.0611  0.0881 -0.2025
    1DPPC   C3B15503   3.953  11.498   4.875  0.1814  0.0512  0.0674
    1DPPC   C4B15504   4.020  11.219   5.314 -0.2031 -0.0059 -0.2013
    1DPPC   NC315505  17.986   9.009   1.325 -0.1547  0.2419  0.0875
    1DPPC   PO415506  18.001   8.892   1.828  0.1780  0.0204 -0.1980
    1DPPC   GL115507  18.093   8.974   2.239  0.2049  0.2189  0.1828
    1DPPC   GL215508  18.383   8.920   2.400 -0.2694  0.3171  0.0373
    1DPPC   C1A15509  18.011   9.000   2.644  0.1516  0.1105  0.0482
    1DPPC   C2A15510  18.086   8.857   3.055 -0.0069  0.1437 -0.0938
    1DPPC   C3A15511  18.133   8.666   3.499  0.1677 -0.1115  0.0651
    1DPPC   C4A15512  18.318   8.456   3.860 -0.1239 -0.1616  0.1579
    1DPPC   C1B15513  18.431   8.585   2.747 -0.1426  0.2043 -0.1539
    1DPPC   C2B15514  18.321   8.402   3.148 -0.2146  0.0079  0.1075
    1DPPC   C3B15515  18.490   8.099   3.371 -0.2157  0.0503 -0.4105
    1DPPC   C4B15516  18.691   8.126   3.752  0.2093 -0.1720  0.2027
    1DPPC   NC315517  19.383  25.124   3.001 -0.0765 -0.1626  0.0778
    1DPPC   PO415518  19.709  24.865   2.931 -0.0191  0.0737  0.0624
    1DPPC   GL115519  19.846  25.033   3.301  0.1202 -0.3822  0.0675
    1DPPC   GL215520  19.553  25.089   3.500 -0.0134 -0.2593  0.1038
    1DPPC   C1A15521  20.019  24.990   3.682  0.1284  0.1352 -0.1474
    1DPPC   C2A15522  20.126  24.981   4.090  0.1375  0.2430 -0.0167
    1DPPC   C3A15523  20.249  24.752   4.515 -0.2416  0.0692  0.1495
    1DPPC   C4A15524  20.130  24.365   4.863 -0.3380  0.3655 -0.1307
    1DPPC   C1B15525  19.605  25.212   3.929  0.0542  0.1165 -0.2729
    1DPPC   C2B15526  19.816  25.219   4.436 -0.0218 -0.1175  0.0467
    1DPPC   C3B15527  19.920  24.978   4.807  0.2830  0.0134 -0.0012
    1DPPC   C4B15528  19.800  24.597   5.137 -0.1417  0.1695  0.0655
    1DPPC   NC315529  15.524   3.871   1.255 -0.2913  0.0712 -0.0050
    1DPPC   PO415530  15.472   3.846   1.669 -0.3104 -0.3832  0.0407
    1DPPC   GL115531  15.422   3.741   2.129 -0.1055 -0.0787 -0.0977
    1DPPC   GL215532  15.364   3.463   2.193  0.2462  0.1204  0.0675
    1DPPC   C1A15533  15.550   3.781   2.580  0.1045  0.1156 -0.0103
    1DPPC   C2A15534  15.559   3.964   3.083  0.0557 -0.2729 -0.1341
    1DPPC   C3A15535  15.379   4.044   3.459  0.0195  0.2063  0.0997
    1DPPC   C4A15536  15.464   4.151   3.869 -0.0642  0.2930 -0.0477
    1DPPC   C1B15537  15.190   3.422   2.615 -0.0278 -0.1329 -0.3540
    1DPPC   C2B15538  15.311   3.040   2.851 -0.0363  0.2274  0.0141
    1DPPC   C3B15539  15.380   3.052   3.285 -0.1145  0.0785  0.0363
    1DPPC   C4B15540  15.390   3.254   3.639  0.1646 -0.0483 -0.2181
    1DPPC   NC315541  19.142  28.561   2.465 -0.0026 -0.0744  0.0119
    1DPPC   PO415542  18.908  28.465   2.908  0.1019 -0.1828 -0.0244
    1DPPC   GL115543  18.890  28.521   3.352  0.2628  0.0809 -0.0264
    1DPPC   GL215544  18.635  28.389   3.552  0.0695  0.4355  0.0608
    1DPPC   C1A15545  19.111  28.444   3.737  0.2042 -0.1916 -0.4069
    1DPPC   C2A15546  19.077  28.471   4.166 -0.0774  0.0000 -0.1635
    1DPPC   C3A15547  19.223  28.722   4.500  0.0471  0.2990  0.1675
    1DPPC   C4A15548  19.157  29.107   4.680 -0.0300  0.0494 -0.1038
    1DPPC   C1B15549  18.649  28.682   3.870 -0.2706 -0.0356  0.0121
    1DPPC   C2B15550  18.798  28.888   4.262 -0.0577 -0.2495 -0.0964
    1DPPC   C3B15551  18.792  28.741   4.681  0.0215  0.0140  0.2164
    1DPPC   C4B15552  19.088  28.644   4.969  0.0141  0.2294  0.0147
    1DPPC   NC315553  14.394   6.933   1.607  0.0047 -0.0708  0.1136
    1DPPC   PO415554  14.352   6.545   1.626  0.2039  0.0135  0.1172
    1DPPC   GL115555  14.565   6.564   2.044 -0.1024 -0.1788 -0.1573
    1DPPC   GL215556  14.474   6.337   2.306 -0.0089  0.0242  0.3460
    1DPPC   C1A15557  14.599   6.776   2.487  0.3512  0.0003 -0.2040
    1DPPC   C2A15558  14.610   6.623   2.901  0.0231  0.1079 -0.1475
    1DPPC   C3A15559  14.561   6.341   3.308  0.3066 -0.0140  0.1951
    1DPPC   C4A15560  14.350   5.962   3.514  0.1345 -0.0198 -0.2749
    1DPPC   C1B15561  14.121   6.169   2.622  0.0036  0.0842  0.2905
    1DPPC   C2B15562  14.157   6.030   3.068 -0.1964  0.0700  0.0404
    1DPPC   C3B15563  14.029   5.640   3.149 -0.3770  0.0353  0.0328
    1DPPC   C4B15564  13.669   5.449   3.293 -0.0841 -0.0981 -0.1486
    1DPPC   NC315565   9.416   3.453   3.108  0.3501  0.0979 -0.1118
    1DPPC   PO415566   9.869   3.595   3.256  0.1184 -0.2316 -0.1180
    1DPPC   GL115567   9.828   3.720   3.717  0.3431 -0.0255  0.0237
    1DPPC   GL215568   9.976   3.951   3.870 -0.0587  0.1273 -0.3011
    1DPPC   C1A15569   9.877   3.490   4.095 -0.0752 -0.4708 -0.0183
    1DPPC   C2A15570   9.975   3.282   4.503 -0.1969 -0.3142  0.1677
    1DPPC   C3A15571  10.396   3.131   4.697  0.2646 -0.0207 -0.0412
    1DPPC   C4A15572  10.594   3.112   4.990 -0.3798  0.3393 -0.4350
    1DPPC   C1B15573  10.403   4.136   3.905 -0.0863 -0.1506 -0.3939
    1DPPC   C2B15574  10.759   4.137   4.177 -0.0949 -0.1085  0.1976
    1DPPC   C3B15575  10.753   4.192   4.665  0.0948  0.0413 -0.1869
    1DPPC   C4B15576  10.858   3.997   5.106 -0.1456 -0.0952  0.0973
    1DPPC   NC315577  26.075  24.442   3.605 -0.0136 -0.0817  0.3421
    1DPPC   PO415578  26.351  24.834   3.441  0.1640  0.0010  0.0917
    1DPPC   GL115579  26.243  24.854   3.923 -0.0677 -0.0487 -0.0190
    1DPPC   GL215580  26.216  25.161   4.071 -0.1418  0.0390 -0.0469
    1DPPC   C1A15581  26.219  24.713   4.373 -0.0414 -0.1842  0.1220
    1DPPC   C2A15582  26.139  24.739   4.752  0.1179  0.4097  0.0176
    1DPPC   C3A15583  26.259  24.897   5.207 -0.1128 -0.3211 -0.1935
    1DPPC   C4A15584  26.098  24.825   5.544 -0.2069 -0.1892  0.0776
    1DPPC   C1B15585  26.080  25.199   4.459  0.3543 -0.0857  0.0599
    1DPPC   C2B15586  25.874  25.146   4.905 -0.1549 -0.0083 -0.0943
    1DPPC   C3B15587  25.789  25.160   5.322  0.2251  0.0547  0.1594
    1DPPC   C4B15588  25.673  25.187   5.654  0.0363 -0.2285 -0.0429
    1DPPC   NC315589  16.618   8.705   1.698  0.0350  0.0657  0.1132
    1DPPC   PO415590  16.292   8.527   1.883  0.0509 -0.0642 -0.3930
    1DPPC   GL115591  16.318   8.578   2.213  0.0690 -0.0379 -0.0712
    1DPPC   GL215592  16.559   8.855   2.232 -0.0360 -0.2959 -0.0862
    1DPPC   C1A15593  16.365   8.509   2.572 -0.0373 -0.0671 -0.1630
    1DPPC   C2A15594  16.267   8.630   3.001 -0.0219  0.0329 -0.0705
    1DPPC   C3A15595  16.123   8.426   3.297  0.0731 -0.0455  0.1347
    1DPPC   C4A15596  16.172   8.274   3.649 -0.1040 -0.0350  0.0775
    1DPPC   C1B15597  16.482   9.187   2.598  0.1295  0.0327 -0.2558
    1DPPC   C2B15598  16.382   9.125   3.061  0.1294 -0.0889  0.0353
    1DPPC   C3B15599  16.265   8.922   3.460  0.0033  0.1667 -0.0635
    1DPPC   C4B15600  15.993   8.804   3.657 -0.1928  0.1403 -0.0366
    1DPPC   NC315601  21.189  27.491   3.207  0.1085  0.2718  0.0174
    1DPPC   PO415602  20.993  27.930   3.174  0.1192  0.0222  0.1132
    1DPPC   GL115603  20.910  28.074   3.529  0.2317  0.0394  0.0927
    1DPPC   GL215604  21.107  28.260   3.807 -0.0676  0.1330 -0.2341
    1DPPC   C1A15605  20.640  27.988   3.955  0.0257 -0.0846 -0.1085
    1DPPC   C2A15606  20.498  27.973   4.371 -0.2030  0.0085  0.1487
    1DPPC   C3A15607  20.464  28.050   4.800 -0.1579 -0.2951 -0.1006
    1DPPC   C4A15608  20.269  28.321   5.010 -0.0838 -0.2125  0.1109
    1DPPC   C1B15609  20.953  28.233   4.247  0.4419 -0.0491  0.0388
    1DPPC   C2B15610  20.817  28.365   4.598 -0.1969 -0.1728 -0.0669
    1DPPC   C3B15611  20.661  28.618   4.902 -0.0907 -0.2227  0.0918
    1DPPC   C4B15612  20.779  28.710   5.254  0.0007  0.0364 -0.0956
    1DPPC   NC315613   7.077  14.440   2.148 -0.3006 -0.0733 -0.0364
    1DPPC   PO415614   6.804  14.085   2.336  0.0199  0.0315 -0.1132
    1DPPC   GL115615   7.030  14.226   2.664  0.3011  0.2106  0.0866
    1DPPC   GL215616   7.333  14.324   2.578 -0.3786  0.1199 -0.0086
    1DPPC   C1A15617   7.045  14.660   2.862 -0.0317 -0.2467  0.1444
    1DPPC   C2A15618   7.119  14.710   3.356  0.3147  0.3330 -0.1134
    1DPPC   C3A15619   6.959  14.847   3.701  0.0259 -0.3493 -0.3924
    1DPPC   C4A15620   6.918  15.208   3.966 -0.1550 -0.0350 -0.1605
    1DPPC   C1B15621   7.416  14.330   3.011  0.0303  0.2957 -0.0540
    1DPPC   C2B15622   7.417  14.260   3.455  0.1913  0.0836 -0.0548
    1DPPC   C3B15623   7.186  14.163   3.577 -0.0940  0.2539  0.0004
    1DPPC   C4B15624   6.717  13.987   3.632  0.0088 -0.0161 -0.1445
    1DPPC   NC315625  21.734   6.091   1.851  0.0045  0.1219 -0.4233
    1DPPC   PO415626  21.836   6.020   2.283  0.1736 -0.0229  0.3549
    1DPPC   GL115627  21.865   6.008   2.694 -0.0175  0.1265 -0.3437
    1DPPC   GL215628  21.595   6.238   2.750  0.0206  0.6323  0.2172
    1DPPC   C1A15629  21.891   6.290   3.113 -0.1957  0.0319  0.0273
    1DPPC   C2A15630  21.845   6.538   3.445 -0.0785  0.3786 -0.0633
    1DPPC   C3A15631  21.863   6.901   3.696  0.1103  0.2108 -0.0931
    1DPPC   C4A15632  21.973   7.234   3.900  0.0240 -0.1527  0.3025
    1DPPC   C1B15633  21.412   6.387   3.160  0.1669  0.1082  0.1005
    1DPPC   C2B15634  21.361   6.393   3.558 -0.1444 -0.0814 -0.1895
    1DPPC   C3B15635  21.394   6.618   3.911 -0.0760 -0.1749  0.1554
    1DPPC   C4B15636  21.597   6.996   4.102 -0.3133  0.1815  0.1390
    1DPPC   NC315637   5.647  22.220   3.270 -0.3667 -0.3933 -0.1989
    1DPPC   PO415638   5.745  22.316   3.662  0.2549 -0.0150  0.0119
    1DPPC   GL115639   5.733  22.143   4.082  0.2433 -0.1502  0.2063
    1DPPC   GL215640   5.560  21.872   4.137 -0.2669 -0.0839  0.0233
    1DPPC   C1A15641   5.709  22.307   4.410 -0.0269  0.0730 -0.0308
    1DPPC   C2A15642   5.671  22.240   4.839  0.0917 -0.0215  0.1098
    1DPPC   C3A15643   5.403  22.361   5.213  0.1315 -0.0934  0.0380
    1DPPC   C4A15644   5.211  22.031   5.485  0.0340  0.0371  0.0040
    1DPPC   C1B15645   5.325  21.952   4.493 -0.2472  0.0889  0.3572
    1DPPC   C2B15646   5.063  22.191   4.801  0.2136 -0.2133  0.0988
    1DPPC   C3B15647   4.875  22.623   4.907 -0.1692 -0.0562 -0.0092
    1DPPC   C4B15648   4.455  22.780   4.959 -0.0286  0.2339 -0.0951
    1DPPC   NC315649  26.876  26.497   3.993 -0.1330  0.1321  0.0304
    1DPPC   PO415650  27.291  26.656   4.167  0.0664  0.5885  0.0755
    1DPPC   GL115651  27.236  26.518   4.531 -0.3946 -0.1758  0.0827
    1DPPC   GL215652  27.020  26.361   4.480  0.0169  0.2013  0.0611
    1DPPC   C1A15653  27.171  26.549   4.907 -0.2415  0.1290  0.0707
    1DPPC   C2A15654  27.081  26.515   5.286 -0.0752  0.0177  0.0229
    1DPPC   C3A15655  26.985  26.731   5.506  0.0594 -0.4400  0.0161
    1DPPC   C4A15656  27.045  27.053   5.706 -0.3616 -0.2457 -0.0326
    1DPPC   C1B15657  26.781  26.172   4.708 -0.0092 -0.1877  0.2050
    1DPPC   C2B15658  26.606  26.254   5.133 -0.1979  0.2821  0.1065
    1DPPC   C3B15659  26.341  26.347   5.447  0.2981 -0.2451  0.3477
    1DPPC   C4B15660  26.273  26.256   5.781 -0.3036 -0.1464  0.0998
    1DPPC   NC315661  13.419  28.468   2.318 -0.0070 -0.0139  0.0001
    1DPPC   PO415662  13.563  28.761   2.713 -0.1372  0.1413  0.0512
    1DPPC   GL115663  13.724  28.540   3.149 -0.0743  0.1399 -0.1177
    1DPPC   GL215664  13.461  28.651   3.254  0.0059 -0.0574 -0.0807
    1DPPC   C1A15665  13.825  28.174   3.467 -0.0752  0.2739 -0.1685
    1DPPC   C2A15666  13.839  28.069   3.864 -0.2596  0.2764  0.1870
    1DPPC   C3A15667  13.984  27.900   4.230 -0.1980 -0.0617  0.2668
    1DPPC   C4A15668  13.872  27.778   4.648  0.0640 -0.0980 -0.1934
    1DPPC   C1B15669  13.600  28.618   3.619 -0.0736  0.0622  0.0540
    1DPPC   C2B15670  13.786  28.545   3.928  0.1395  0.0778  0.0681
    1DPPC   C3B15671  13.848  28.364   4.229 -0.2618 -0.0311 -0.0616
    1DPPC   C4B15672  13.972  28.307   4.609 -0.0185 -0.1473 -0.2161
    1DPPC   NC315673  15.524   9.825   1.502 -0.1171  0.0289  0.0099
    1DPPC   PO415674  15.388   9.885   1.938  0.0765  0.0691  0.0172
    1DPPC   GL115675  15.624   9.702   2.218  0.0755 -0.0116 -0.1533
    1DPPC   GL215676  15.761   9.458   2.246 -0.2555  0.1724  0.1988
    1DPPC   C1A15677  15.733   9.822   2.612  0.0512 -0.0665  0.2611
    1DPPC   C2A15678  15.645   9.827   2.965 -0.2434  0.1552 -0.1403
    1DPPC   C3A15679  15.542   9.718   3.524  0.1421 -0.6035  0.1070
    1DPPC   C4A15680  15.589   9.743   4.017  0.2538 -0.3019 -0.0717
    1DPPC   C1B15681  15.499   9.336   2.584 -0.3515  0.0408  0.0646
    1DPPC   C2B15682  15.563   9.358   3.119  0.0883  0.2420  0.1036
    1DPPC   C3B15683  15.244   9.311   3.380 -0.0926 -0.1112 -0.2805
    1DPPC   C4B15684  14.989   9.098   3.766  0.0782 -0.2467 -0.3606
    1DPPC   NC315685   8.938   0.355   2.921 -0.0514  0.1478  0.0724
    1DPPC   PO415686   8.800  -0.204   3.004 -0.1703  0.0585 -0.2051
    1DPPC   GL115687   8.923  -0.287   3.403  0.1370 -0.0208 -0.1659
    1DPPC   GL215688   8.756  -0.416   3.597 -0.0376 -0.0893 -0.5365
    1DPPC   C1A15689   9.049   0.050   3.697 -0.0649  0.1861 -0.0613
    1DPPC   C2A15690   9.023   0.226   4.154  0.1244  0.3929 -0.0026
    1DPPC   C3A15691   9.160   0.637   4.244 -0.0518  0.1310  0.0835
    1DPPC   C4A15692   9.282   1.029   4.276 -0.1486  0.3001  0.3186
    1DPPC   C1B15693   8.796  -0.259   4.021  0.0924  0.1423  0.0032
    1DPPC   C2B15694   8.782  -0.268   4.469  0.0274 -0.0455  0.0973
    1DPPC   C3B15695   8.918  -0.581   4.828  0.0012  0.1327  0.3573
    1DPPC   C4B15696   9.183  -0.987   4.979  0.2093 -0.1464 -0.0574
    1DPPC   NC315697  17.011   7.040   1.253  0.2545  0.1054 -0.0684
    1DPPC   PO415698  17.284   6.814   1.388 -0.0451 -0.4792 -0.0397
    1DPPC   GL115699  17.336   6.829   1.905 -0.0582 -0.1841  0.1981
    1DPPC   GL215700  17.737   6.957   2.030 -0.0427  0.0365  0.1739
    1DPPC   C1A15701  17.382   6.921   2.422 -0.0180 -0.0081  0.0015
    1DPPC   C2A15702  17.530   6.682   2.763  0.1897  0.2804 -0.0084
    1DPPC   C3A15703  17.474   6.359   2.964 -0.1370 -0.0654  0.0497
    1DPPC   C4A15704  17.329   6.254   3.338 -0.0095 -0.2297  0.1363
    1DPPC   C1B15705  17.888   7.003   2.413 -0.1489 -0.0323 -0.0663
    1DPPC   C2B15706  18.154   6.935   2.747  0.1722  0.2332 -0.1035
    1DPPC   C3B15707  18.227   6.581   3.045 -0.2024  0.0035 -0.0610
    1DPPC   C4B15708  18.469   6.528   3.404 -0.1337  0.0158 -0.0272
    1DPPC   NC315709  24.547   4.771   2.859  0.1004  0.3695  0.1427
    1DPPC   PO415710  24.836   4.543   3.231  0.2940  0.0231 -0.4019
    1DPPC   GL115711  24.716   4.491   3.687 -0.2366 -0.2211 -0.1002
    1DPPC   GL215712  24.425   4.457   3.767  0.0426  0.3036  0.2497
    1DPPC   C1A15713  24.889   4.321   4.081 -0.3532 -0.3134  0.1559
    1DPPC   C2A15714  24.858   3.965   4.364 -0.1663  0.0359 -0.0526
    1DPPC   C3A15715  24.745   4.027   4.821 -0.1089 -0.2266  0.1961
    1DPPC   C4A15716  24.808   4.227   5.182  0.2302  0.0378  0.4031
    1DPPC   C1B15717  24.199   4.568   4.211 -0.0158 -0.1230 -0.0810
    1DPPC   C2B15718  24.182   4.826   4.569  0.0457 -0.1255  0.1770
    1DPPC   C3B15719  23.934   4.681   4.912  0.0109 -0.0399 -0.1128
    1DPPC   C4B15720  23.894   4.685   5.332  0.1392  0.2066 -0.1222
    1DPPC   NC315721   2.094  23.284   3.713 -0.2229 -0.1188  0.4835
    1DPPC   PO415722   2.508  23.472   3.806  0.1357  0.1623 -0.2136
    1DPPC   GL115723   2.317  23.413   4.219 -0.0424  0.0789  0.0657
    1DPPC   GL215724   2.150  23.159   4.208  0.1242 -0.0647  0.3623
    1DPPC   C1A15725   2.344  23.367   4.657  0.0918 -0.0569  0.0307
    1DPPC   C2A15726   2.549  23.427   5.061  0.1707 -0.1020 -0.2758
    1DPPC   C3A15727   2.765  23.374   5.430 -0.1326  0.4220  0.1060
    1DPPC   C4A15728   3.042  23.635   5.635  0.1996  0.0526  0.2592
    1DPPC   C1B15729   1.867  23.033   4.543  0.2415  0.0143 -0.1671
    1DPPC   C2B15730   1.870  22.810   4.859 -0.0339  0.0195  0.0445
    1DPPC   C3B15731   1.477  22.625   4.964 -0.1395 -0.1412 -0.0441
    1DPPC   C4B15732   1.283  22.250   4.889 -0.2244 -0.2811 -0.3102
    1DPPC   NC315733  19.260  16.248   2.343  0.1025 -0.0252  0.1517
    1DPPC   PO415734  19.387  16.031   2.694  0.1380  0.2115  0.0689
    1DPPC   GL115735  19.379  15.844   3.178 -0.0235  0.1325  0.1504
    1DPPC   GL215736  19.032  15.817   3.264 -0.0018 -0.0328  0.1397
    1DPPC   C1A15737  19.517  15.880   3.627 -0.2518 -0.2199  0.2584
    1DPPC   C2A15738  19.450  15.868   3.997 -0.3444 -0.1468  0.1876
    1DPPC   C3A15739  19.109  15.975   4.346 -0.4146  0.1221  0.0418
    1DPPC   C4A15740  18.664  16.069   4.430 -0.1450 -0.0187 -0.1750
    1DPPC   C1B15741  19.236  16.200   3.480 -0.0987 -0.1811  0.1286
    1DPPC   C2B15742  19.373  16.318   3.907 -0.2550  0.1315 -0.1953
    1DPPC   C3B15743  19.586  16.328   4.271  0.2976 -0.2708 -0.2220
    1DPPC   C4B15744  19.592  15.954   4.580  0.1506  0.0733 -0.0587
    1DPPC   NC315745  17.356   2.583   2.286  0.0743 -0.0086  0.0285
    1DPPC   PO415746  16.930   2.785   2.289  0.0531 -0.0158 -0.0079
    1DPPC   GL115747  17.081   2.714   2.709 -0.0206  0.0506 -0.2318
    1DPPC   GL215748  16.768   2.510   2.821 -0.2962 -0.1319 -0.2256
    1DPPC   C1A15749  17.330   2.774   3.129  0.0682 -0.1570 -0.0790
    1DPPC   C2A15750  17.402   2.847   3.444  0.0198 -0.1445  0.0619
    1DPPC   C3A15751  17.251   2.918   3.800 -0.2723  0.1385 -0.2220
    1DPPC   C4A15752  17.004   3.128   4.071 -0.1277 -0.0901  0.0715
    1DPPC   C1B15753  16.799   2.667   3.174 -0.0489  0.1067  0.4564
    1DPPC   C2B15754  16.917   2.960   3.439  0.0168 -0.1903  0.0249
    1DPPC   C3B15755  17.031   3.391   3.643 -0.1921  0.1582 -0.0259
    1DPPC   C4B15756  16.930   3.618   4.016  0.2939  0.1960  0.1653
    1DPPC   NC315757   9.406  27.775   3.300 -0.2768  0.0865 -0.1176
    1DPPC   PO415758   9.405  27.399   3.480 -0.4583  0.1006  0.1088
    1DPPC   GL115759   9.683  27.603   3.791 -0.0552 -0.4114 -0.2903
    1DPPC   GL215760   9.876  27.429   3.859 -0.1623  0.1381  0.1150
    1DPPC   C1A15761   9.943  27.890   4.078 -0.0899 -0.1801 -0.2755
    1DPPC   C2A15762   9.984  28.097   4.523 -0.1697 -0.0405 -0.0309
    1DPPC   C3A15763   9.925  28.316   4.906  0.0260 -0.0708  0.2761
    1DPPC   C4A15764  10.084  28.716   5.113  0.0350  0.0449  0.2432
    1DPPC   C1B15765   9.833  27.385   4.245 -0.0610  0.3828 -0.3085
    1DPPC   C2B15766   9.852  27.426   4.649 -0.0742  0.0835  0.1505
    1DPPC   C3B15767   9.952  27.476   5.076 -0.0130 -0.1991  0.0756
    1DPPC   C4B15768   9.810  27.363   5.441  0.0420  0.1252  0.1003
    1DPPC   NC315769  20.166   1.996   2.606 -0.0738 -0.2160 -0.1429
    1DPPC   PO415770  19.910   2.401   2.760  0.2600 -0.0263 -0.1425
    1DPPC   GL115771  19.659   2.475   3.064  0.0912  0.1138 -0.1414
    1DPPC   GL215772  19.769   2.722   3.192  0.3924 -0.2067 -0.0953
    1DPPC   C1A15773  19.449   2.322   3.416 -0.2809  0.1419 -0.0055
    1DPPC   C2A15774  19.221   2.405   3.834  0.0472 -0.0923  0.1946
    1DPPC   C3A15775  19.163   2.609   4.317 -0.4645 -0.2137  0.4444
    1DPPC   C4A15776  19.351   2.918   4.673  0.0251  0.2265 -0.3836
    1DPPC   C1B15777  19.441   2.835   3.434 -0.0959 -0.1612 -0.1452
    1DPPC   C2B15778  19.157   2.955   3.745 -0.1158  0.2852 -0.0098
    1DPPC   C3B15779  19.110   3.077   4.151 -0.1222 -0.4474  0.1119
    1DPPC   C4B15780  19.009   3.310   4.545  0.2370 -0.0355 -0.2913
    1DPPC   NC315781  24.906  27.659   3.314  0.2195 -0.0597  0.3719
    1DPPC   PO415782  24.923  27.318   3.596 -0.2596 -0.1132 -0.2211
    1DPPC   GL115783  24.905  27.479   3.982 -0.0839  0.0025  0.0674
    1DPPC   GL215784  25.076  27.633   4.136  0.1295  0.1163  0.2617
    1DPPC   C1A15785  24.582  27.404   4.230  0.2745 -0.2511 -0.0816
    1DPPC   C2A15786  24.505  27.372   4.696  0.3761 -0.2903  0.2284
    1DPPC   C3A15787  24.476  27.340   5.059 -0.0104 -0.0718 -0.2107
    1DPPC   C4A15788  24.249  27.220   5.503  0.2458 -0.0413 -0.0044
    1DPPC   C1B15789  25.043  27.488   4.536  0.0549  0.0344  0.3491
    1DPPC   C2B15790  25.246  27.607   4.871 -0.2029 -0.0997 -0.0857
    1DPPC   C3B15791  25.296  27.603   5.401  0.0517  0.0464 -0.0011
    1DPPC   C4B15792  25.613  27.470   5.707 -0.0506  0.0605  0.1564
    1DPPC   NC315793  25.212   3.180   2.919  0.1390 -0.3251 -0.0198
    1DPPC   PO415794  24.975   3.082   3.248 -0.1491 -0.1501  0.0428
    1DPPC   GL115795  25.148   2.870   3.668 -0.0309 -0.0340 -0.0347
    1DPPC   GL215796  25.243   3.014   3.897 -0.0473 -0.0114 -0.0561
    1DPPC   C1A15797  25.031   2.593   3.967  0.0828 -0.1052  0.0411
    1DPPC   C2A15798  25.121   2.604   4.460 -0.1456 -0.1868 -0.2506
    1DPPC   C3A15799  25.152   2.574   4.906 -0.0113 -0.3190 -0.1354
    1DPPC   C4A15800  24.976   2.596   5.302  0.1037 -0.2262 -0.0232
    1DPPC   C1B15801  25.320   3.092   4.287 -0.2207  0.0409  0.1158
    1DPPC   C2B15802  25.294   3.058   4.666  0.1101 -0.2119  0.0006
    1DPPC   C3B15803  25.528   2.831   5.076  0.0461  0.2425 -0.2026
    1DPPC   C4B15804  25.533   2.475   5.302 -0.4302 -0.0612 -0.1005
    1DPPC   NC315805  15.881   3.853   1.937  0.0887  0.1213 -0.1164
    1DPPC   PO415806  16.222   3.837   1.842  0.0082 -0.3671  0.2577
    1DPPC   GL115807  16.100   3.587   2.250  0.0919 -0.0771  0.0453
    1DPPC   GL215808  15.892   3.604   2.360 -0.4721  0.0123 -0.2281
    1DPPC   C1A15809  16.119   3.269   2.642  0.1126  0.0299 -0.1560
    1DPPC   C2A15810  16.074   3.301   3.064  0.0435  0.0061  0.0587
    1DPPC   C3A15811  16.109   3.406   3.536 -0.1464 -0.1875 -0.1429
    1DPPC   C4A15812  16.046   3.425   4.007 -0.0375 -0.0903  0.0838
    1DPPC   C1B15813  16.019   3.760   2.846 -0.0931 -0.2727  0.0953
    1DPPC   C2B15814  16.049   3.875   3.317 -0.1508  0.3840  0.0425
    1DPPC   C3B15815  16.173   4.014   3.725  0.1339  0.0066  0.1654
    1DPPC   C4B15816  16.031   4.267   4.101  0.0889  0.1206  0.0479
    1DPPC   NC315817  16.745  11.422   1.846 -0.0755  0.1649  0.1701
    1DPPC   PO415818  16.404  11.677   1.966  0.0288  0.0509  0.0106
    1DPPC   GL115819  16.359  11.837   2.412  0.1430  0.1566 -0.2163
    1DPPC   GL215820  16.078  12.032   2.327 -0.3254  0.0951 -0.2247
    1DPPC   C1A15821  16.352  12.007   2.803 -0.1018  0.2784 -0.2858
    1DPPC   C2A15822  16.289  11.893   3.220 -0.3068  0.2159  0.0521
    1DPPC   C3A15823  16.148  11.926   3.707  0.1739 -0.1654 -0.2568
    1DPPC   C4A15824  15.921  12.170   3.980 -0.0814 -0.0041  0.0006
    1DPPC   C1B15825  15.868  11.912   2.666  0.0160  0.1922  0.2262
    1DPPC   C2B15826  15.999  11.585   2.956 -0.0632 -0.0965  0.0134
    1DPPC   C3B15827  15.947  11.539   3.375 -0.0953  0.1276  0.0027
    1DPPC   C4B15828  16.126  11.399   3.739 -0.1125 -0.3222 -0.1296
    1DPPC   NC315829   8.125  17.578   2.527 -0.1043 -0.2097  0.1349
    1DPPC   PO415830   8.109  17.159   2.443  0.0543  0.0126  0.2039
    1DPPC   GL115831   7.978  16.842   2.623  0.2090  0.1173 -0.0466
    1DPPC   GL215832   8.219  16.659   2.732  0.2456 -0.1017 -0.2040
    1DPPC   C1A15833   7.717  16.728   2.957  0.1554  0.0639  0.0386
    1DPPC   C2A15834   7.865  16.741   3.382 -0.0297 -0.3622  0.0218
    1DPPC   C3A15835   8.000  16.529   3.799  0.1774 -0.0284  0.2497
    1DPPC   C4A15836   8.092  16.167   4.026 -0.0728 -0.0338  0.0590
    1DPPC   C1B15837   8.320  16.561   3.177  0.1898  0.1932 -0.2059
    1DPPC   C2B15838   8.469  16.488   3.673  0.3142 -0.1195  0.1878
    1DPPC   C3B15839   8.514  16.497   4.096  0.0518 -0.0624 -0.0323
    1DPPC   C4B15840   8.829  16.521   4.393 -0.2514  0.1048 -0.1657
    1DPPC   NC315841   5.088   9.401   3.194 -0.0931 -0.1165 -0.2540
    1DPPC   PO415842   5.474   9.629   3.054  0.1975  0.0453  0.0723
    1DPPC   GL115843   5.586   9.481   3.417  0.0866 -0.2544  0.0009
    1DPPC   GL215844   5.749   9.090   3.433  0.1272  0.0641  0.0401
    1DPPC   C1A15845   5.847   9.533   3.710 -0.2789  0.2309 -0.0547
    1DPPC   C2A15846   5.907   9.297   4.050  0.0149 -0.0631 -0.3109
    1DPPC   C3A15847   6.234   9.280   4.376  0.3177  0.3104  0.1391
    1DPPC   C4A15848   6.235   9.048   4.752  0.1345  0.1240  0.0527
    1DPPC   C1B15849   5.965   8.797   3.707  0.0728 -0.1292 -0.1570
    1DPPC   C2B15850   6.176   8.774   4.092 -0.0571 -0.1776 -0.2110
    1DPPC   C3B15851   6.504   8.785   4.405 -0.2899 -0.1241 -0.2876
    1DPPC   C4B15852   6.709   9.189   4.712 -0.1572 -0.1617 -0.0473
    1DPPC   NC315853  11.909  22.438   3.261 -0.2008  0.0077  0.0996
    1DPPC   PO415854  12.292  22.425   3.121 -0.1442 -0.1410 -0.2831
    1DPPC   GL115855  12.486  22.496   3.488 -0.0515  0.2711  0.1339
    1DPPC   GL215856  12.227  22.744   3.578  0.1401 -0.0377 -0.1743
    1DPPC   C1A15857  12.561  22.466   3.946 -0.3267 -0.1180  0.1898
    1DPPC   C2A15858  12.715  22.554   4.282 -0.2756 -0.1844 -0.2198
    1DPPC   C3A15859  13.091  22.773   4.339 -0.0069 -0.0876 -0.2391
    1DPPC   C4A15860  13.470  22.755   4.309  0.1785  0.2157 -0.2960
    1DPPC   C1B15861  12.054  22.633   3.939 -0.1016  0.1833  0.1870
    1DPPC   C2B15862  12.192  22.640   4.224 -0.0785 -0.0094  0.0003
    1DPPC   C3B15863  12.208  23.035   4.466 -0.2517  0.0238 -0.0319
    1DPPC   C4B15864  12.341  23.276   4.816  0.0563  0.2724 -0.3984
    1DPPC   NC315865  22.459   1.225   2.680 -0.0727  0.1364 -0.0386
    1DPPC   PO415866  22.069   0.953   2.716 -0.0179 -0.4509 -0.0726
    1DPPC   GL115867  22.077   1.009   3.148 -0.1770 -0.1493  0.1581
    1DPPC   GL215868  22.398   1.064   3.186 -0.0685 -0.2148 -0.1414
    1DPPC   C1A15869  22.210   0.720   3.574 -0.0075  0.2818 -0.1777
    1DPPC   C2A15870  22.214   0.975   4.043  0.3909  0.1361  0.2055
    1DPPC   C3A15871  22.016   1.161   4.345 -0.0932  0.0690  0.1751
    1DPPC   C4A15872  21.663   1.411   4.537 -0.1195 -0.2245 -0.0725
    1DPPC   C1B15873  22.175   1.234   3.568 -0.1154 -0.3038  0.0190
    1DPPC   C2B15874  22.101   1.485   3.945 -0.0607  0.2411  0.1571
    1DPPC   C3B15875  22.486   1.450   4.257 -0.3633 -0.0087 -0.2280
    1DPPC   C4B15876  22.587   1.856   4.600  0.1650  0.3010 -0.1448
    1DPPC   NC315877  13.881   6.254   1.599  0.2766  0.0588 -0.0775
    1DPPC   PO415878  13.555   6.307   1.996 -0.0341 -0.1110 -0.0105
    1DPPC   GL115879  13.413   6.595   2.293  0.1768  0.1319 -0.3069
    1DPPC   GL215880  13.639   6.515   2.439 -0.3130  0.2016 -0.0696
    1DPPC   C1A15881  13.206   6.950   2.551 -0.1873 -0.1764 -0.0236
    1DPPC   C2A15882  13.351   7.365   2.939 -0.1797  0.2050  0.1548
    1DPPC   C3A15883  13.491   7.574   3.356 -0.0270 -0.0614  0.0732
    1DPPC   C4A15884  13.424   7.352   3.694  0.0212  0.0427  0.0508
    1DPPC   C1B15885  13.636   6.377   2.840 -0.2002 -0.0499 -0.1500
    1DPPC   C2B15886  13.669   6.053   3.134 -0.1305 -0.1333 -0.0803
    1DPPC   C3B15887  13.711   5.871   3.515 -0.0089 -0.0318  0.0075
    1DPPC   C4B15888  13.695   5.768   3.996  0.0005 -0.0889  0.0066
    1DPPC   NC315889   0.671   1.855   3.638 -0.0792 -0.0276  0.2226
    1DPPC   PO415890   0.483   1.730   3.961 -0.0511  0.0113  0.0737
    1DPPC   GL115891   0.375   1.768   4.358 -0.2232  0.1193 -0.2957
    1DPPC   GL215892   0.080   1.929   4.398  0.2422 -0.0386 -0.1439
    1DPPC   C1A15893   0.300   1.946   4.896  0.0379 -0.0220  0.2156
    1DPPC   C2A15894   0.206   2.145   5.304 -0.1682 -0.0308  0.1962
    1DPPC   C3A15895   0.194   2.246   5.664 -0.0142  0.2611  0.0804
    1DPPC   C4A15896   0.095   2.337   6.118 -0.0152 -0.0982 -0.4817
    1DPPC   C1B15897  -0.124   1.596   4.507 -0.0345 -0.1606 -0.2949
    1DPPC   C2B15898  -0.189   1.313   4.832  0.4280 -0.0878 -0.1140
    1DPPC   C3B15899  -0.068   1.128   5.290  0.1981 -0.3683  0.3551
    1DPPC   C4B15900   0.096   0.836   5.566  0.0334 -0.0414 -0.1284
    1DPPC   NC315901  20.794  26.131   2.977 -0.0448 -0.0831 -0.3204
    1DPPC   PO415902  20.904  26.288   3.343 -0.0633 -0.1967 -0.2717
    1DPPC   GL115903  21.182  26.354   3.646 -0.1750 -0.2903  0.1450
    1DPPC   GL215904  21.561  26.270   3.512 -0.0957  0.0407  0.0992
    1DPPC   C1A15905  21.353  26.363   3.974  0.1320 -0.0087  0.1286
    1DPPC   C2A15906  21.553  26.576   4.357 -0.2810  0.1305 -0.0992
    1DPPC   C3A15907  21.500  26.847   4.679 -0.5253 -0.1135 -0.3473
    1DPPC   C4A15908  21.248  26.732   5.038 -0.1720 -0.1702 -0.1319
    1DPPC   C1B15909  21.546  25.884   3.794  0.1749 -0.3352  0.0051
    1DPPC   C2B15910  21.567  25.609   4.192  0.0675  0.0107  0.0939
    1DPPC   C3B15911  21.469  25.208   4.198  0.0267  0.1067 -0.3695
    1DPPC   C4B15912  21.143  24.921   4.334 -0.2471 -0.1409  0.0594
    1DPPC   NC315913  15.890   8.829   1.710 -0.0408 -0.1223  0.2160
    1DPPC   PO415914  15.792   8.340   1.738 -0.0060 -0.1755  0.2147
    1DPPC   GL115915  16.011   8.148   2.064  0.1365 -0.4380  0.2032
    1DPPC   GL215916  16.342   8.082   2.184 -0.1625  0.1041 -0.0766
    1DPPC   C1A15917  15.936   8.191   2.517 -0.1532  0.2503 -0.1845
    1DPPC   C2A15918  16.173   8.112   2.890 -0.0795 -0.1047 -0.2889
    1DPPC   C3A15919  16.400   7.963   3.279  0.0818 -0.0997 -0.2001
    1DPPC   C4A15920  16.503   7.747   3.577  0.0111  0.0753 -0.1725
    1DPPC   C1B15921  16.557   7.918   2.512 -0.0646 -0.2045 -0.0153
    1DPPC   C2B15922  16.593   7.742   2.846  0.0928 -0.1516  0.1114
    1DPPC   C3B15923  16.881   7.715   3.208 -0.1888 -0.0773  0.0927
    1DPPC   C4B15924  16.991   7.959   3.552 -0.2658  0.0654  0.2194
    1DPPC   NC315925  12.204  16.966   2.673 -0.0789  0.0542 -0.1474
    1DPPC   PO415926  12.149  17.236   3.018 -0.0909 -0.1936  0.1555
    1DPPC   GL115927  12.158  17.187   3.426  0.1243  0.3330  0.0465
    1DPPC   GL215928  11.877  17.342   3.628  0.1986  0.0998  0.0653
    1DPPC   C1A15929  12.393  17.163   3.747  0.0890  0.0433  0.0203
    1DPPC   C2A15930  12.577  17.383   4.152 -0.2699 -0.3196 -0.0713
    1DPPC   C3A15931  12.840  17.579   4.337 -0.2760 -0.0621  0.0631
    1DPPC   C4A15932  13.326  17.582   4.215  0.0607  0.0872 -0.0734
    1DPPC   C1B15933  11.981  17.330   4.039  0.1456 -0.0540 -0.0174
    1DPPC   C2B15934  11.703  17.013   4.262 -0.2566  0.2622 -0.0506
    1DPPC   C3B15935  11.690  16.499   4.384  0.3988 -0.0645 -0.1235
    1DPPC   C4B15936  11.623  16.202   4.635 -0.0434 -0.1254 -0.0774
    1DPPC   NC315937  16.394  28.779   2.261  0.1749  0.0833  0.0166
    1DPPC   PO415938  16.626  28.574   2.641 -0.2652 -0.0606  0.1407
    1DPPC   GL115939  16.674  28.742   2.970 -0.0173  0.1486 -0.1028
    1DPPC   GL215940  16.448  28.664   3.186  0.0120 -0.1384  0.1205
    1DPPC   C1A15941  16.959  28.708   3.311  0.0713 -0.2751 -0.0520
    1DPPC   C2A15942  16.785  28.473   3.648 -0.1734 -0.0895  0.0355
    1DPPC   C3A15943  16.453  28.428   3.989 -0.1086 -0.2650  0.1551
    1DPPC   C4A15944  16.010  28.463   4.050  0.1773 -0.1191 -0.0678
    1DPPC   C1B15945  16.592  28.967   3.505  0.0053  0.1652 -0.2885
    1DPPC   C2B15946  16.642  28.883   3.950 -0.0893  0.1296  0.1591
    1DPPC   C3B15947  16.625  28.729   4.379  0.1245 -0.0772  0.0137
    1DPPC   C4B15948  16.834  28.448   4.687  0.1019  0.0319  0.1996
    1DPPC   NC315949  21.971   5.059   2.678 -0.1933 -0.3773 -0.1335
    1DPPC   PO415950  21.853   4.694   2.647 -0.1727  0.1608 -0.0372
    1DPPC   GL115951  21.763   4.784   3.082 -0.3495 -0.1627 -0.1094
    1DPPC   GL215952  21.582   4.590   3.229 -0.1606 -0.0072 -0.1269
    1DPPC   C1A15953  21.522   5.122   3.211  0.0412 -0.0380  0.2687
    1DPPC   C2A15954  21.328   5.407   3.446  0.2516  0.1692  0.0054
    1DPPC   C3A15955  21.371   5.510   3.845 -0.3191  0.2736  0.4383
    1DPPC   C4A15956  21.475   5.697   4.166  0.0299 -0.1064  0.1098
    1DPPC   C1B15957  21.728   4.750   3.672 -0.0704 -0.0618  0.0461
    1DPPC   C2B15958  21.921   4.386   3.896  0.1477  0.1833 -0.1402
    1DPPC   C3B15959  21.892   4.389   4.281 -0.1629  0.0041 -0.0234
    1DPPC   C4B15960  21.805   4.076   4.665  0.2082  0.0026 -0.0287
    1DPPC   NC315961  21.933  20.743   2.434 -0.0452 -0.0638  0.1074
    1DPPC   PO415962  21.458  20.658   2.557  0.0454 -0.2494 -0.0952
    1DPPC   GL115963  21.326  20.545   2.998 -0.2784  0.1441  0.5324
    1DPPC   GL215964  21.093  20.338   3.148  0.0890 -0.0665 -0.1489
    1DPPC   C1A15965  21.468  20.799   3.321  0.1448  0.0661  0.3393
    1DPPC   C2A15966  21.458  20.807   3.851  0.1016  0.1331 -0.0379
    1DPPC   C3A15967  21.196  20.544   4.103  0.3947  0.0528 -0.1447
    1DPPC   C4A15968  21.040  20.206   4.394  0.3100 -0.1971  0.0422
    1DPPC   C1B15969  21.330  20.413   3.561 -0.2835 -0.1201  0.1490
    1DPPC   C2B15970  21.584  20.229   3.770 -0.0574  0.0929  0.0098
    1DPPC   C3B15971  21.551  20.242   4.284 -0.1373 -0.2205 -0.0935
    1DPPC   C4B15972  21.409  20.361   4.644  0.2814  0.1868 -0.0693
    1DPPC   NC315973   6.183  28.650   4.104  0.1063 -0.1125  0.1575
    1DPPC   PO415974   5.828  28.897   4.216  0.0210 -0.1295  0.0022
    1DPPC   GL115975   5.650  28.980   4.614  0.1265  0.1777  0.0059
    1DPPC   GL215976   5.562  29.267   4.646  0.2782  0.1381 -0.1183
    1DPPC   C1A15977   5.556  28.825   4.949  0.1551  0.2218 -0.3374
    1DPPC   C2A15978   5.537  28.782   5.330 -0.3195 -0.2108  0.0667
    1DPPC   C3A15979   5.367  28.630   5.705 -0.2124 -0.0784 -0.2005
    1DPPC   C4A15980   5.281  28.240   5.885  0.1314 -0.2831 -0.0821
    1DPPC   C1B15981   5.933  29.128   4.948  0.3303 -0.1907 -0.0205
    1DPPC   C2B15982   5.963  29.028   5.409 -0.0028 -0.2318 -0.1062
    1DPPC   C3B15983   6.300  28.919   5.756 -0.0404  0.0406  0.1431
    1DPPC   C4B15984   6.302  28.508   5.937 -0.1001 -0.1594  0.1832
    1DPPC   NC315985  12.771  18.504   2.959  0.0705 -0.0216  0.2602
    1DPPC   PO415986  12.394  18.319   3.071  0.3693  0.0636  0.2344
    1DPPC   GL115987  12.087  18.424   3.340 -0.0800 -0.0461 -0.2136
    1DPPC   GL215988  11.892  18.177   3.450  0.1525  0.2917 -0.2633
    1DPPC   C1A15989  11.923  18.431   3.848 -0.3407 -0.2168  0.1414
    1DPPC   C2A15990  11.800  18.090   4.207  0.0178  0.2415 -0.1585
    1DPPC   C3A15991  11.759  17.689   4.406  0.0424 -0.3149  0.1042
    1DPPC   C4A15992  12.002  17.373   4.536  0.0082  0.2530  0.1781
    1DPPC   C1B15993  12.193  18.009   3.700  0.0694 -0.2545  0.1803
    1DPPC   C2B15994  12.278  17.837   4.061  0.3601  0.2066  0.2845
    1DPPC   C3B15995  12.362  17.750   4.466  0.0827  0.2759  0.0311
    1DPPC   C4B15996  12.582  17.932   4.786  0.2354  0.1155  0.0075
    1DPPC   NC315997  18.448  11.907   2.217  0.1456 -0.2461 -0.0480
    1DPPC   PO415998  18.276  12.195   1.975  0.2437 -0.1971 -0.1934
    1DPPC   GL115999  18.124  12.139   2.470 -0.3779 -0.0173  0.0665
    1DPPC   GL216000  17.748  11.956   2.608 -0.0016  0.1163  0.1361
    1DPPC   C1A16001  18.101  12.169   2.951 -0.0108  0.0538 -0.1820
    1DPPC   C2A16002  18.086  12.110   3.377 -0.0346  0.3608 -0.0776
    1DPPC   C3A16003  17.744  12.064   3.695  0.1363  0.1050 -0.0993
    1DPPC   C4A16004  17.728  11.900   4.145 -0.3358  0.2189  0.1512
    1DPPC   C1B16005  17.644  11.882   3.012  0.1329 -0.3318 -0.2515
    1DPPC   C2B16006  17.485  11.748   3.380 -0.3325  0.0386  0.1416
    1DPPC   C3B16007  17.228  11.762   3.695  0.1474 -0.3111  0.2360
    1DPPC   C4B16008  16.952  11.449   3.795  0.1630 -0.3691 -0.5211
    1DPPC   NC316009  18.610   0.859   2.251  0.0093  0.2402  0.1217
    1DPPC   PO416010  18.327   1.184   2.362 -0.1630  0.0664 -0.4068
    1DPPC   GL116011  18.309   1.227   2.841  0.0685  0.0648  0.0173
    1DPPC   GL216012  17.966   1.247   2.913  0.0402  0.1418 -0.0928
    1DPPC   C1A16013  18.333   1.272   3.241 -0.0023 -0.0312  0.2108
    1DPPC   C2A16014  18.422   1.349   3.640  0.0266  0.1970 -0.0250
    1DPPC   C3A16015  18.303   1.381   4.058  0.3108 -0.1409 -0.1591
    1DPPC   C4A16016  18.453   1.404   4.539 -0.1213  0.0869  0.3845
    1DPPC   C1B16017  17.832   1.541   3.230 -0.0139 -0.1794  0.2878
    1DPPC   C2B16018  17.869   1.595   3.687 -0.3177 -0.1461 -0.1067
    1DPPC   C3B16019  17.884   1.672   4.117 -0.0202  0.0181 -0.2534
    1DPPC   C4B16020  18.007   1.588   4.544 -0.0349 -0.1017  0.1456
    1DPPC   NC316021  27.361  20.053   3.197  0.0209  0.1519 -0.2974
    1DPPC   PO416022  27.193  20.058   3.655  0.0171  0.0122  0.1986
    1DPPC   GL116023  27.133  20.056   4.135  0.2940  0.0543  0.2377
    1DPPC   GL216024  26.956  20.363   4.180 -0.1907  0.0177 -0.2489
    1DPPC   C1A16025  26.808  19.852   4.414 -0.0710 -0.2200 -0.1666
    1DPPC   C2A16026  26.585  19.691   4.786 -0.1478  0.0095  0.0287
    1DPPC   C3A16027  26.449  19.536   5.198  0.0216  0.1915 -0.1412
    1DPPC   C4A16028  26.217  19.461   5.496  0.5511  0.1274  0.0149
    1DPPC   C1B16029  27.128  20.318   4.557 -0.0896  0.2021  0.3641
    1DPPC   C2B16030  26.877  20.153   4.901 -0.0320  0.1043 -0.1263
    1DPPC   C3B16031  26.724  19.957   5.242 -0.1743 -0.0352  0.2070
    1DPPC   C4B16032  26.404  19.890   5.545 -0.1556  0.0980 -0.0747
    1DPPC   NC316033  22.883  10.545   2.360  0.0092 -0.0929 -0.0993
    1DPPC   PO416034  22.713  10.747   2.668 -0.1919  0.0566  0.1246
    1DPPC   GL116035  22.525  10.543   3.005  0.0914 -0.3703  0.2912
    1DPPC   GL216036  22.391  10.183   2.993  0.1526  0.3799 -0.0495
    1DPPC   C1A16037  22.460  10.532   3.381 -0.1155  0.3109 -0.4050
    1DPPC   C2A16038  22.306  10.549   3.769  0.1789 -0.0257  0.2676
    1DPPC   C3A16039  22.448  10.417   4.168  0.0455  0.2201  0.1198
    1DPPC   C4A16040  22.560  10.058   4.412  0.2061  0.1737 -0.0068
    1DPPC   C1B16041  22.239  10.055   3.414  0.0789  0.3032  0.0996
    1DPPC   C2B16042  22.229  10.050   3.856  0.2453  0.0060 -0.2007
    1DPPC   C3B16043  22.118   9.900   4.279  0.0779  0.2971  0.0385
    1DPPC   C4B16044  22.149   9.817   4.690  0.1582 -0.0014  0.0866
    1DPPC   NC316045  25.444  25.177   3.522 -0.3295 -0.3579  0.0768
    1DPPC   PO416046  25.108  25.001   3.381  0.1314 -0.2643 -0.1685
    1DPPC   GL116047  25.135  24.974   3.842  0.0642  0.1439  0.2259
    1DPPC   GL216048  25.372  24.854   3.894 -0.2016 -0.0014  0.0411
    1DPPC   C1A16049  25.084  25.010   4.311  0.2029  0.1187  0.0472
    1DPPC   C2A16050  25.417  25.115   4.611 -0.3111  0.1796  0.2372
    1DPPC   C3A16051  25.378  25.028   4.989 -0.2584  0.0162 -0.1081
    1DPPC   C4A16052  25.296  24.755   5.233 -0.1959  0.3500  0.0114
    1DPPC   C1B16053  25.685  24.980   4.118  0.3252 -0.1234 -0.0829
    1DPPC   C2B16054  25.721  24.752   4.441 -0.0078 -0.2065  0.0055
    1DPPC   C3B16055  25.640  24.571   4.823  0.1579  0.1786  0.1864
    1DPPC   C4B16056  25.759  24.573   5.197  0.1963 -0.0181 -0.2333
    1DPPC   NC316057  28.421   0.879   3.693 -0.2165  0.0863  0.0649
    1DPPC   PO416058  28.532   0.750   4.047  0.0926 -0.0555  0.0527
    1DPPC   GL116059  28.905   0.966   4.308  0.0700  0.0333  0.2354
    1DPPC   GL216060  28.687   0.866   4.546  0.0409 -0.1523 -0.0673
    1DPPC   C1A16061  29.088   1.257   4.497  0.1191  0.3162 -0.0544
    1DPPC   C2A16062  29.295   1.378   4.857  0.2022 -0.2040 -0.0798
    1DPPC   C3A16063  29.433   1.615   5.196  0.1253 -0.1079 -0.4794
    1DPPC   C4A16064  29.382   1.868   5.558  0.0154  0.0420  0.1331
    1DPPC   C1B16065  28.690   0.634   5.014 -0.0634 -0.1749  0.1152
    1DPPC   C2B16066  28.583   0.534   5.523  0.0229 -0.2572  0.2240
    1DPPC   C3B16067  28.665   0.194   5.801 -0.0620  0.0183  0.4085
    1DPPC   C4B16068  28.466  -0.048   6.037  0.3503  0.0843 -0.0169
    1DPPC   NC316069  12.021  13.066   2.408 -0.0440  0.2648  0.1190
    1DPPC   PO416070  11.714  13.095   2.718  0.0448 -0.0404  0.1353
    1DPPC   GL116071  11.830  13.280   3.162  0.0109  0.1833  0.0085
    1DPPC   GL216072  11.745  12.944   3.262  0.0714  0.3977  0.4137
    1DPPC   C1A16073  11.642  13.415   3.543  0.0100 -0.1092 -0.2243
    1DPPC   C2A16074  11.474  13.389   4.010 -0.1850  0.1749 -0.0818
    1DPPC   C3A16075  11.582  13.357   4.547  0.1232  0.0826  0.2866
    1DPPC   C4A16076  11.165  13.561   4.855  0.2060  0.0200 -0.2519
    1DPPC   C1B16077  11.335  12.661   3.405 -0.0095  0.2420 -0.0706
    1DPPC   C2B16078  11.089  12.445   3.590 -0.1297  0.1870  0.1005
    1DPPC   C3B16079  10.859  12.350   3.853 -0.1967  0.0720  0.1100
    1DPPC   C4B16080  10.622  12.298   4.289 -0.1916  0.0673 -0.0038
    1DPPC   NC316081  20.532  27.164   2.878 -0.3764 -0.0029 -0.0606
    1DPPC   PO416082  21.009  26.985   3.063 -0.1194 -0.1057  0.1070
    1DPPC   GL116083  21.067  27.020   3.489 -0.0825  0.0194  0.2220
    1DPPC   GL216084  21.283  27.172   3.598  0.1961  0.0857  0.0067
    1DPPC   C1A16085  21.161  26.806   3.860  0.2758  0.2407  0.1461
    1DPPC   C2A16086  21.122  26.868   4.286 -0.0322  0.0254  0.2799
    1DPPC   C3A16087  21.036  26.969   4.666 -0.3294  0.2168  0.0761
    1DPPC   C4A16088  20.883  27.065   5.027 -0.0670 -0.0308  0.0861
    1DPPC   C1B16089  21.373  27.296   3.946  0.0952  0.0355 -0.1152
    1DPPC   C2B16090  21.368  27.337   4.438  0.2064 -0.1104  0.0945
    1DPPC   C3B16091  21.217  27.384   4.796 -0.2699 -0.2087  0.1483
    1DPPC   C4B16092  21.086  27.561   5.135  0.0903 -0.0561 -0.1522
    1DPPC   NC316093  13.185  18.110   3.085  0.1890 -0.0448 -0.1961
    1DPPC   PO416094  12.948  17.714   3.161  0.1584  0.1768 -0.1820
    1DPPC   GL116095  12.765  17.517   3.429 -0.1491 -0.0323 -0.1217
    1DPPC   GL216096  12.526  17.636   3.617 -0.1985  0.3393 -0.0799
    1DPPC   C1A16097  12.908  17.387   3.762  0.1284 -0.0991  0.0185
    1DPPC   C2A16098  13.058  17.165   4.188  0.1656  0.1978  0.3050
    1DPPC   C3A16099  12.846  17.011   4.626  0.1167 -0.0577 -0.1230
    1DPPC   C4A16100  12.957  16.770   4.932 -0.2458  0.2328  0.2781
    1DPPC   C1B16101  12.779  17.870   3.940 -0.3497  0.0374 -0.0340
    1DPPC   C2B16102  12.671  18.076   4.251 -0.2685  0.3219  0.1284
    1DPPC   C3B16103  12.255  18.182   4.477  0.1624  0.2895  0.0797
    1DPPC   C4B16104  11.896  18.397   4.635  0.0575  0.1673  0.2584
    1DPPC   NC316105  22.817   5.120   2.195  0.0992  0.2250 -0.0332
    1DPPC   PO416106  22.737   4.977   2.659  0.1265  0.0305  0.0036
    1DPPC   GL116107  22.605   4.930   2.994 -0.1162 -0.2700  0.0983
    1DPPC   GL216108  22.272   4.819   2.964 -0.1546 -0.0450 -0.1094
    1DPPC   C1A16109  22.565   4.746   3.410  0.4261 -0.0408 -0.0207
    1DPPC   C2A16110  22.649   4.733   3.927  0.4630  0.0804  0.3938
    1DPPC   C3A16111  22.650   4.660   4.377  0.0342 -0.0311 -0.1741
    1DPPC   C4A16112  22.537   4.498   4.797 -0.0009  0.2077 -0.0071
    1DPPC   C1B16113  22.125   4.905   3.364 -0.2359 -0.1359 -0.1221
    1DPPC   C2B16114  22.196   4.846   3.804  0.1504  0.1716  0.2752
    1DPPC   C3B16115  22.227   4.894   4.223 -0.0671 -0.0646 -0.0327
    1DPPC   C4B16116  22.084   4.724   4.561  0.1154  0.1954 -0.4478
    1DPPC   NC316117  17.125   1.722   2.482 -0.1457  0.0288 -0.1246
    1DPPC   PO416118  17.065   1.152   2.526  0.0396  0.1526  0.2056
    1DPPC   GL116119  17.132   1.115   2.972  0.0228  0.0541  0.0390
    1DPPC   GL216120  16.864   0.927   3.108  0.3611 -0.0963  0.1219
    1DPPC   C1A16121  17.432   1.292   3.427  0.1524 -0.0500 -0.0679
    1DPPC   C2A16122  17.331   1.405   3.850  0.1952 -0.0197 -0.0392
    1DPPC   C3A16123  17.373   1.576   4.194  0.0346  0.0688  0.1477
    1DPPC   C4A16124  17.471   1.791   4.569 -0.3307  0.1014  0.0724
    1DPPC   C1B16125  16.662   0.989   3.531  0.2609  0.0315  0.0738
    1DPPC   C2B16126  16.642   0.940   3.916 -0.1840 -0.2372 -0.0236
    1DPPC   C3B16127  16.705   0.863   4.422 -0.1172 -0.1697 -0.1754
    1DPPC   C4B16128  16.610   0.700   4.821  0.1210  0.0927  0.0055
    1DPPC   NC316129  18.531  24.060   3.053 -0.1500  0.0173 -0.0305
    1DPPC   PO416130  18.579  24.635   3.082  0.1314  0.2193  0.2525
    1DPPC   GL116131  18.465  24.366   3.502 -0.2650 -0.4390 -0.2575
    1DPPC   GL216132  18.390  24.670   3.632 -0.0205  0.0223 -0.0590
    1DPPC   C1A16133  18.431  24.265   4.001 -0.0053 -0.1076  0.3883
    1DPPC   C2A16134  18.756  24.218   4.336 -0.0072 -0.3415 -0.1692
    1DPPC   C3A16135  18.674  24.465   4.611 -0.0524 -0.1243 -0.1145
    1DPPC   C4A16136  18.925  24.914   4.711 -0.0844  0.0723  0.4213
    1DPPC   C1B16137  17.998  24.690   3.856 -0.2045  0.1723 -0.0647
    1DPPC   C2B16138  17.819  24.707   4.290  0.1486  0.2261  0.0641
    1DPPC   C3B16139  17.793  24.541   4.732  0.2404 -0.3721 -0.1475
    1DPPC   C4B16140  17.940  24.616   5.233 -0.0590 -0.1407 -0.2500
    1DPPC   NC316141   6.420  10.550   2.803  0.0964 -0.0778 -0.4032
    1DPPC   PO416142   6.168  10.207   2.853  0.1136  0.0446 -0.0004
    1DPPC   GL116143   6.085   9.996   3.066  0.0844 -0.0053 -0.3992
    1DPPC   GL216144   5.874   9.909   3.161  0.1148 -0.0970  0.2221
    1DPPC   C1A16145   6.291   9.791   3.459  0.1748  0.1168 -0.2374
    1DPPC   C2A16146   6.282   9.758   3.979  0.1057  0.0182 -0.0905
    1DPPC   C3A16147   6.165   9.762   4.386  0.1627 -0.1213 -0.0385
    1DPPC   C4A16148   5.978   9.498   4.718  0.3247 -0.1876  0.2812
    1DPPC   C1B16149   5.853  10.085   3.568  0.3078 -0.4239 -0.4612
    1DPPC   C2B16150   5.828  10.198   3.988 -0.0122  0.2180  0.0174
    1DPPC   C3B16151   5.883  10.220   4.440  0.1166 -0.3067 -0.2493
    1DPPC   C4B16152   5.972   9.960   4.812 -0.0940 -0.2322 -0.2114
    1DPPC   NC316153  26.682   0.063   3.522 -0.2082  0.0598  0.2139
    1DPPC   PO416154  26.889   0.502   3.569 -0.0246 -0.0063 -0.0769
    1DPPC   GL116155  26.909   0.394   3.915 -0.1098  0.2509  0.0851
    1DPPC   GL216156  27.149   0.545   4.018  0.0712  0.0934 -0.2378
    1DPPC   C1A16157  26.745   0.378   4.308 -0.1940 -0.1567 -0.2052
    1DPPC   C2A16158  26.958   0.420   4.707  0.3529  0.2047 -0.2462
    1DPPC   C3A16159  26.960   0.493   5.198  0.2852 -0.0107  0.2747
    1DPPC   C4A16160  26.988   0.773   5.676  0.3384 -0.1403  0.1823
    1DPPC   C1B16161  26.983   0.825   4.337  0.0386 -0.1099  0.1543
    1DPPC   C2B16162  26.834   1.208   4.410 -0.1451 -0.1516 -0.4753
    1DPPC   C3B16163  26.767   1.372   4.781 -0.1042 -0.3464 -0.2217
    1DPPC   C4B16164  26.593   1.424   5.151 -0.0123 -0.0418 -0.1827
    1DPPC   NC316165   5.861  15.587   2.488 -0.1023  0.1584  0.1604
    1DPPC   PO416166   5.822  15.129   2.362 -0.0457 -0.0398 -0.2622
    1DPPC   GL116167   6.226  15.244   2.640  0.1073  0.3128 -0.2631
    1DPPC   GL216168   6.176  15.549   2.864 -0.1549  0.0911  0.0902
    1DPPC   C1A16169   6.580  15.298   3.037 -0.1246 -0.4466 -0.1053
    1DPPC   C2A16170   6.647  15.353   3.469 -0.1932 -0.1054  0.2157
    1DPPC   C3A16171   6.460  15.465   3.845 -0.1131  0.1921 -0.1266
    1DPPC   C4A16172   6.213  15.328   4.180 -0.0497 -0.2523  0.1411
    1DPPC   C1B16173   6.134  15.365   3.305  0.1351 -0.2537 -0.1291
    1DPPC   C2B16174   6.194  14.995   3.589 -0.0528 -0.1345 -0.1075
    1DPPC   C3B16175   6.501  14.931   3.928  0.2643  0.2007 -0.1264
    1DPPC   C4B16176   6.803  14.855   4.255 -0.0977 -0.1228  0.1325
    1DPPC   NC316177  26.234  25.288   3.501 -0.2055  0.1784  0.0537
    1DPPC   PO416178  25.999  25.428   3.707  0.3640 -0.1084  0.1185
    1DPPC   GL116179  25.698  25.489   4.025 -0.2168  0.0407  0.3319
    1DPPC   GL216180  25.392  25.355   3.973  0.0727 -0.0495 -0.0202
    1DPPC   C1A16181  25.612  25.589   4.403 -0.0211  0.1462 -0.0025
    1DPPC   C2A16182  25.513  25.561   4.859  0.1381 -0.2329  0.1105
    1DPPC   C3A16183  25.356  25.511   5.230 -0.2234  0.2408 -0.3588
    1DPPC   C4A16184  25.169  25.159   5.480  0.0450 -0.1273 -0.3324
    1DPPC   C1B16185  25.135  25.504   4.334 -0.0960 -0.0429  0.1911
    1DPPC   C2B16186  25.046  25.379   4.838  0.3496 -0.3231 -0.0635
    1DPPC   C3B16187  24.853  25.425   5.223  0.0224  0.0534 -0.2096
    1DPPC   C4B16188  24.860  25.488   5.648  0.0649  0.0428 -0.0583
    1DPPC   NC316189  26.720  20.169   3.751  0.1791  0.1955  0.1629
    1DPPC   PO416190  26.323  20.080   3.753 -0.2786  0.3340 -0.0846
    1DPPC   GL116191  26.429  20.136   4.155 -0.0817 -0.1070  0.4913
    1DPPC   GL216192  26.496  20.483   4.090 -0.1205 -0.1993  0.0615
    1DPPC   C1A16193  26.518  20.268   4.583 -0.0483 -0.2734 -0.0485
    1DPPC   C2A16194  26.292  20.025   4.998 -0.0682 -0.3203 -0.2053
    1DPPC   C3A16195  25.937  20.067   5.234 -0.0836 -0.3042  0.0356
    1DPPC   C4A16196  25.885  20.412   5.499 -0.2428  0.0873  0.3477
    1DPPC   C1B16197  26.388  20.829   4.477  0.0224  0.2769  0.2187
    1DPPC   C2B16198  26.507  21.102   4.801 -0.2077 -0.0545  0.1610
    1DPPC   C3B16199  26.309  21.337   5.202  0.0811  0.1199 -0.0205
    1DPPC   C4B16200  26.282  21.325   5.690  0.2647  0.1975  0.0157
    1DPPC   NC316201  14.833  28.086   2.019  0.0239  0.0075 -0.0376
    1DPPC   PO416202  14.537  27.921   2.410 -0.1710  0.2966  0.1877
    1DPPC   GL116203  14.422  28.287   2.710 -0.1680 -0.2443  0.0695
    1DPPC   GL216204  14.130  28.274   2.966  0.3690  0.3579  0.2245
    1DPPC   C1A16205  14.596  28.738   3.045 -0.3457 -0.1892  0.1703
    1DPPC   C2A16206  14.683  28.787   3.484  0.0131  0.0922  0.1980
    1DPPC   C3A16207  14.583  28.684   3.932 -0.1505 -0.0561 -0.0564
    1DPPC   C4A16208  14.241  28.648   4.257  0.0280  0.1502  0.2055
    1DPPC   C1B16209  14.312  28.397   3.314  0.1786 -0.1742 -0.0329
    1DPPC   C2B16210  14.205  28.408   3.702 -0.0284 -0.0682 -0.3155
    1DPPC   C3B16211  14.396  28.149   4.107 -0.1253  0.1213  0.0259
    1DPPC   C4B16212  14.381  28.053   4.514  0.0515  0.0932 -0.0997
    1DPPC   NC316213   0.472  27.618   3.982  0.2886 -0.2174  0.1922
    1DPPC   PO416214   0.189  27.932   4.130 -0.1610 -0.0352 -0.2615
    1DPPC   GL116215   0.343  27.945   4.464  0.2819 -0.2460  0.0386
    1DPPC   GL216216   0.139  27.694   4.698  0.3747 -0.1231 -0.4098
    1DPPC   C1A16217   0.254  28.084   4.892 -0.0621  0.0133  0.2331
    1DPPC   C2A16218   0.433  28.416   5.154  0.2399  0.4702 -0.1229
    1DPPC   C3A16219   0.608  28.503   5.638  0.0319 -0.0326 -0.0368
    1DPPC   C4A16220   1.020  28.587   5.986  0.1891 -0.0657  0.1222
    1DPPC   C1B16221   0.144  27.691   5.163 -0.2161  0.5305  0.3037
    1DPPC   C2B16222  -0.117  27.713   5.480 -0.1476  0.3413 -0.1564
    1DPPC   C3B16223  -0.445  27.679   5.760 -0.0560  0.0869 -0.1453
    1DPPC   C4B16224  -0.783  27.769   6.063 -0.0356  0.0139  0.2248
    1DPPC   NC316225  22.994  23.390   2.908  0.0259 -0.2064 -0.3115
    1DPPC   PO416226  23.119  23.349   3.358 -0.3223  0.0277  0.0854
    1DPPC   GL116227  23.058  23.301   3.746  0.0525  0.1615 -0.1037
    1DPPC   GL216228  23.061  23.596   4.010  0.1712  0.0144  0.1673
    1DPPC   C1A16229  23.071  23.114   4.115 -0.5238 -0.1325 -0.6036
    1DPPC   C2A16230  23.108  23.121   4.594  0.1236  0.2426 -0.0865
    1DPPC   C3A16231  22.873  23.219   4.944 -0.1439  0.0052  0.3340
    1DPPC   C4A16232  22.749  23.541   5.259  0.0388  0.0028 -0.0900
    1DPPC   C1B16233  22.950  23.604   4.393  0.1493  0.2505 -0.0651
    1DPPC   C2B16234  22.999  23.772   4.785 -0.1679 -0.0544 -0.0235
    1DPPC   C3B16235  22.841  24.024   5.156  0.0450  0.0821  0.2337
    1DPPC   C4B16236  22.752  24.431   5.489 -0.3278 -0.1825 -0.3292
    1DPPC   NC316237  11.361  20.379   3.048  0.1914  0.0967 -0.1621
    1DPPC   PO416238  11.310  20.022   3.138  0.1927 -0.0259 -0.1604
    1DPPC   GL116239  11.216  20.059   3.498  0.0149 -0.1258 -0.2600
    1DPPC   GL216240  11.394  20.196   3.660 -0.0923 -0.1950 -0.0572
    1DPPC   C1A16241  11.007  20.035   3.916  0.0785  0.2391  0.2201
    1DPPC   C2A16242  10.978  20.012   4.367  0.0348  0.1171 -0.1073
    1DPPC   C3A16243  10.980  19.775   4.730  0.0174  0.2078  0.0292
    1DPPC   C4A16244  10.916  19.324   4.859 -0.3261 -0.1358 -0.2493
    1DPPC   C1B16245  11.461  19.921   4.096 -0.2949  0.3492  0.3010
    1DPPC   C2B16246  11.320  19.598   4.370 -0.1522  0.0569  0.0401
    1DPPC   C3B16247  11.377  19.545   4.752  0.0395  0.0117 -0.0684
    1DPPC   C4B16248  11.183  19.591   5.244  0.1624 -0.3217  0.1513
    1DPPC   NC316249  21.367   8.412   1.456 -0.3268 -0.2071 -0.0959
    1DPPC   PO416250  21.341   8.085   1.810 -0.0365  0.0673  0.0916
    1DPPC   GL116251  21.430   8.069   2.266 -0.3300 -0.2297  0.0296
    1DPPC   GL216252  21.762   8.101   2.434  0.2402 -0.1558  0.0671
    1DPPC   C1A16253  21.458   8.514   2.499 -0.4471 -0.1167 -0.0482
    1DPPC   C2A16254  21.526   8.703   2.756 -0.1976  0.0470 -0.2653
    1DPPC   C3A16255  21.694   8.728   3.123  0.2158 -0.3155  0.2323
    1DPPC   C4A16256  21.417   8.956   3.516 -0.1425  0.1690 -0.0777
    1DPPC   C1B16257  21.691   7.782   2.783 -0.1370 -0.0181  0.0451
    1DPPC   C2B16258  21.653   7.834   3.255 -0.1879  0.3477 -0.0213
    1DPPC   C3B16259  21.506   7.906   3.567  0.1283  0.0424  0.0241
    1DPPC   C4B16260  21.468   7.840   3.870  0.1730 -0.0849 -0.2646
    1DPPC   NC316261  10.969  21.509   2.800  0.3169 -0.3768 -0.1257
    1DPPC   PO416262  11.111  21.307   3.153  0.1661 -0.1295  0.3164
    1DPPC   GL116263  11.121  21.508   3.605  0.0327 -0.0790  0.1413
    1DPPC   GL216264  11.290  21.828   3.713 -0.0675  0.0586 -0.1601
    1DPPC   C1A16265  11.363  21.330   3.966 -0.2682  0.3023  0.0655
    1DPPC   C2A16266  11.489  21.169   4.380  0.0283  0.2163 -0.0488
    1DPPC   C3A16267  11.994  21.080   4.494  0.1422 -0.4987  0.1209
    1DPPC   C4A16268  12.354  20.917   4.639  0.2143  0.3585 -0.0631
    1DPPC   C1B16269  11.383  21.758   4.173  0.1179 -0.0564 -0.0973
    1DPPC   C2B16270  11.802  21.564   4.300  0.1043 -0.0799 -0.0955
    1DPPC   C3B16271  12.035  21.629   4.653 -0.1305 -0.0042  0.3804
    1DPPC   C4B16272  12.341  21.786   4.789 -0.0950 -0.3653 -0.1267
    1DPPC   NC316273   6.796   2.223   3.909 -0.1957  0.1028  0.2702
    1DPPC   PO416274   6.726   2.651   3.966  0.1011 -0.0250  0.0777
    1DPPC   GL116275   6.676   2.934   4.311 -0.0762  0.0986  0.1295
    1DPPC   GL216276   7.089   3.053   4.283 -0.0861 -0.2362 -0.0826
    1DPPC   C1A16277   6.651   2.858   4.796 -0.1256  0.1583 -0.1188
    1DPPC   C2A16278   6.695   3.011   5.180 -0.0940  0.0353  0.0244
    1DPPC   C3A16279   6.485   3.102   5.467 -0.0535 -0.1801  0.1344
    1DPPC   C4A16280   6.086   3.245   5.645  0.2546  0.0792 -0.1417
    1DPPC   C1B16281   7.219   2.736   4.620 -0.0843 -0.0035  0.0728
    1DPPC   C2B16282   7.245   2.855   5.046 -0.1274  0.0143  0.2438
    1DPPC   C3B16283   7.395   2.769   5.471 -0.1850  0.0091 -0.1519
    1DPPC   C4B16284   7.646   2.489   5.586  0.4117 -0.0582  0.2116
    1DPPC   NC316285  17.185  25.979   2.791 -0.1884 -0.0875 -0.1629
    1DPPC   PO416286  17.478  25.793   2.928 -0.0316 -0.1005  0.3224
    1DPPC   GL116287  17.424  25.998   3.275 -0.0850  0.1599  0.0333
    1DPPC   GL216288  17.219  26.315   3.188 -0.0366 -0.0376 -0.0939
    1DPPC   C1A16289  17.165  25.825   3.629 -0.0316  0.4313  0.1088
    1DPPC   C2A16290  17.165  25.687   4.069  0.2667 -0.1055  0.0808
    1DPPC   C3A16291  17.461  25.868   4.388 -0.1881 -0.2321  0.0507
    1DPPC   C4A16292  17.823  25.758   4.641  0.0825 -0.1517 -0.1284
    1DPPC   C1B16293  17.351  26.386   3.595 -0.0239  0.1454 -0.1697
    1DPPC   C2B16294  17.440  26.457   3.991 -0.1163  0.0244  0.0935
    1DPPC   C3B16295  17.706  26.278   4.354 -0.3347  0.3179  0.0338
    1DPPC   C4B16296  17.593  26.310   4.802 -0.1295  0.2407  0.0859
    1DPPC   NC316297   7.277  21.427   3.074 -0.1914  0.3254 -0.2163
    1DPPC   PO416298   6.860  21.091   3.052  0.1006  0.1153  0.2845
    1DPPC   GL116299   6.753  21.280   3.484  0.1053 -0.0351  0.0596
    1DPPC   GL216300   7.064  21.479   3.589 -0.0744  0.0513 -0.1286
    1DPPC   C1A16301   6.660  21.136   3.827 -0.0477  0.3859  0.1178
    1DPPC   C2A16302   6.464  21.096   4.223 -0.2574 -0.0262  0.1835
    1DPPC   C3A16303   6.262  21.094   4.563 -0.1317  0.1006 -0.0389
    1DPPC   C4A16304   6.434  21.017   4.961  0.2272 -0.1744  0.1148
    1DPPC   C1B16305   7.486  21.485   3.842 -0.0446  0.0753 -0.0025
    1DPPC   C2B16306   7.626  21.148   4.080 -0.4011  0.0986  0.1648
    1DPPC   C3B16307   7.605  20.723   3.908 -0.1780 -0.1130  0.2598
    1DPPC   C4B16308   7.564  20.423   3.724  0.0789  0.1503 -0.0213
    1DPPC   NC316309  22.722  26.663   2.793  0.0254  0.2909 -0.0053
    1DPPC   PO416310  22.908  26.847   3.245 -0.1953  0.1380  0.0449
    1DPPC   GL116311  22.597  26.800   3.503  0.0333  0.0135  0.0902
    1DPPC   GL216312  22.544  27.132   3.650  0.0906 -0.1443  0.0098
    1DPPC   C1A16313  22.311  26.622   3.839 -0.2204 -0.1042  0.5953
    1DPPC   C2A16314  22.144  26.635   4.253  0.0359  0.1493 -0.2057
    1DPPC   C3A16315  22.018  26.640   4.605 -0.0234 -0.1368  0.1834
    1DPPC   C4A16316  21.799  26.545   4.995 -0.1865 -0.0718 -0.4097
    1DPPC   C1B16317  22.406  27.033   4.071 -0.1846 -0.2397 -0.1409
    1DPPC   C2B16318  22.308  27.026   4.565 -0.1821  0.3551  0.1393
    1DPPC   C3B16319  22.612  27.077   5.051  0.1796 -0.1799  0.1118
    1DPPC   C4B16320  22.727  27.382   5.347 -0.0911 -0.0371 -0.1942
    1DPPC   NC316321  10.762   2.762   2.845  0.2534  0.0010  0.0458
    1DPPC   PO416322  10.376   2.971   2.944  0.0494 -0.1224  0.1004
    1DPPC   GL116323  10.318   3.061   3.337 -0.2589  0.0379  0.1810
    1DPPC   GL216324  10.600   3.190   3.325  0.1224  0.0353 -0.0386
    1DPPC   C1A16325  10.102   3.166   3.700  0.0588  0.0043 -0.1359
    1DPPC   C2A16326  10.251   3.166   4.055  0.1075 -0.3121  0.0917
    1DPPC   C3A16327  10.672   3.155   4.092 -0.0806 -0.1066 -0.1206
    1DPPC   C4A16328  11.165   3.027   4.321 -0.0555  0.0769  0.2994
    1DPPC   C1B16329  10.856   3.328   3.625  0.1865 -0.3359 -0.0736
    1DPPC   C2B16330  11.147   3.383   3.898 -0.3190 -0.1180 -0.1403
    1DPPC   C3B16331  11.521   3.504   4.059 -0.0509 -0.0033 -0.2583
    1DPPC   C4B16332  11.648   3.732   4.405 -0.3083 -0.2003 -0.0156
    1DPPC   NC316333  11.031   0.952   2.408 -0.0223 -0.0599  0.2531
    1DPPC   PO416334  11.254   1.228   2.685  0.0939 -0.2313 -0.0553
    1DPPC   GL116335  11.435   1.156   3.111  0.0560 -0.0979 -0.3573
    1DPPC   GL216336  11.532   0.776   3.240 -0.2092 -0.1449 -0.1037
    1DPPC   C1A16337  11.436   1.286   3.458  0.1500  0.0860  0.1365
    1DPPC   C2A16338  11.364   1.392   3.862 -0.0260  0.0813  0.3334
    1DPPC   C3A16339  11.415   1.766   4.138  0.0419  0.1659  0.1387
    1DPPC   C4A16340  11.604   2.038   4.301 -0.0574 -0.1233 -0.1963
    1DPPC   C1B16341  11.607   0.819   3.624 -0.0020  0.0470 -0.0175
    1DPPC   C2B16342  11.552   0.947   3.991 -0.1495  0.2799  0.2628
    1DPPC   C3B16343  11.310   0.820   4.426  0.1883 -0.4168  0.2006
    1DPPC   C4B16344  11.146   0.700   4.856 -0.1726  0.0470 -0.0231
    1DPPC   NC316345  26.087  27.524   3.832  0.1635 -0.0393  0.0725
    1DPPC   PO416346  25.824  27.758   3.643  0.0396  0.0110  0.2428
    1DPPC   GL116347  25.580  27.757   3.992 -0.1836 -0.2480  0.2238
    1DPPC   GL216348  25.549  27.513   4.202  0.0234 -0.0645 -0.0628
    1DPPC   C1A16349  25.438  27.857   4.457  0.0022 -0.0104 -0.3620
    1DPPC   C2A16350  25.422  28.109   4.746 -0.1413 -0.0305 -0.1356
    1DPPC   C3A16351  25.680  28.039   5.042 -0.0398 -0.2643 -0.1050
    1DPPC   C4A16352  25.701  28.081   5.409  0.0192 -0.1470 -0.2453
    1DPPC   C1B16353  25.543  27.333   4.514  0.2150 -0.0935  0.0375
    1DPPC   C2B16354  25.787  27.616   4.790 -0.2733  0.1458  0.0271
    1DPPC   C3B16355  25.803  27.539   5.213 -0.0520 -0.1051  0.3210
    1DPPC   C4B16356  26.278  27.646   5.461  0.2159  0.1123 -0.0372
    1DPPC   NC316357  17.780  24.368   2.533 -0.2521  0.1390  0.3814
    1DPPC   PO416358  18.128  24.178   2.798 -0.0118  0.0314 -0.0143
    1DPPC   GL116359  17.984  24.151   3.269 -0.3023  0.0037  0.0580
    1DPPC   GL216360  18.124  23.871   3.329 -0.3242  0.1423  0.1055
    1DPPC   C1A16361  17.904  24.263   3.722 -0.3102 -0.0816  0.2306
    1DPPC   C2A16362  17.789  24.183   4.110 -0.2342 -0.0442  0.0833
    1DPPC   C3A16363  17.455  24.314   4.348  0.1452  0.1442 -0.2734
    1DPPC   C4A16364  17.060  24.151   4.542 -0.3209  0.1153 -0.0366
    1DPPC   C1B16365  18.202  23.868   3.744 -0.0249  0.0394 -0.1486
    1DPPC   C2B16366  18.177  23.831   4.231 -0.1329  0.1212  0.0316
    1DPPC   C3B16367  17.851  23.872   4.468 -0.0725 -0.2748  0.0405
    1DPPC   C4B16368  17.567  23.996   4.703  0.2138  0.1771 -0.0743
    1DPPC   NC316369   7.140  17.633   3.040 -0.2129  0.0542 -0.1708
    1DPPC   PO416370   7.186  17.891   2.704  0.2909  0.3015  0.0571
    1DPPC   GL116371   7.494  18.104   2.943  0.1693 -0.2698  0.0059
    1DPPC   GL216372   7.479  17.992   3.260 -0.0945 -0.2381 -0.1465
    1DPPC   C1A16373   7.931  18.043   3.122  0.0634 -0.1226 -0.2182
    1DPPC   C2A16374   8.085  17.963   3.617  0.1466 -0.2349  0.2347
    1DPPC   C3A16375   8.369  17.829   4.060 -0.1915  0.0036 -0.0815
    1DPPC   C4A16376   8.520  17.398   4.185 -0.1194  0.0593 -0.1434
    1DPPC   C1B16377   7.617  17.817   3.657 -0.0567  0.2925 -0.2392
    1DPPC   C2B16378   7.763  17.590   3.926  0.0996  0.0825  0.0386
    1DPPC   C3B16379   8.041  17.375   4.243  0.0963  0.1267 -0.0940
    1DPPC   C4B16380   7.861  17.065   4.513  0.0271 -0.1754  0.1797
    1DPPC   NC316381  28.266  25.501   3.619  0.1610 -0.1426 -0.0230
    1DPPC   PO416382  28.558  25.602   3.937  0.2115  0.0378 -0.2348
    1DPPC   GL116383  28.452  25.820   4.251 -0.1530 -0.2391  0.0021
    1DPPC   GL216384  28.697  25.918   4.463  0.0544 -0.0638  0.1171
    1DPPC   C1A16385  28.372  25.641   4.676  0.2032  0.3273  0.0600
    1DPPC   C2A16386  28.348  25.565   5.054 -0.0187 -0.1528  0.1526
    1DPPC   C3A16387  28.111  25.319   5.330 -0.0914 -0.0460 -0.0230
    1DPPC   C4A16388  28.053  25.075   5.671 -0.5505  0.0659 -0.3014
    1DPPC   C1B16389  28.810  25.598   4.822 -0.1852 -0.2038 -0.1352
    1DPPC   C2B16390  28.789  25.364   5.278  0.1077  0.1561  0.3396
    1DPPC   C3B16391  28.876  25.290   5.793  0.1023 -0.0873 -0.0537
    1DPPC   C4B16392  28.890  25.353   6.284 -0.2304 -0.2182  0.3913
    1DPPC   NC316393  28.714  26.109   3.986 -0.1177  0.1632 -0.0022
    1DPPC   PO416394  29.032  25.714   4.060  0.2498  0.0671 -0.1169
    1DPPC   GL116395  29.199  25.792   4.481  0.2695  0.0720 -0.0641
    1DPPC   GL216396  29.193  26.105   4.520  0.0585 -0.4362  0.0700
    1DPPC   C1A16397  29.304  25.496   4.851 -0.0868 -0.0245  0.2536
    1DPPC   C2A16398  29.366  25.303   5.236  0.0284 -0.2221  0.2214
    1DPPC   C3A16399  29.612  24.973   5.311  0.1035 -0.0894 -0.2215
    1DPPC   C4A16400  29.672  24.721   5.689 -0.2591  0.1114  0.0246
    1DPPC   C1B16401  29.103  26.009   4.925  0.0532  0.0095  0.1117
    1DPPC   C2B16402  29.075  25.814   5.256  0.1573  0.3850  0.4163
    1DPPC   C3B16403  29.181  25.716   5.636  0.2020  0.1907  0.1731
    1DPPC   C4B16404  29.470  25.962   5.799 -0.0666 -0.0661 -0.1656
    1DPPC   NC316405  20.800   4.918   2.632  0.3200 -0.0004  0.2426
    1DPPC   PO416406  20.362   5.007   2.522 -0.2513 -0.0305  0.3276
    1DPPC   GL116407  20.126   5.168   2.882  0.0859 -0.1249  0.0288
    1DPPC   GL216408  19.825   5.303   2.796  0.1631 -0.3036 -0.0420
    1DPPC   C1A16409  19.947   4.971   3.286  0.0711  0.2404  0.0746
    1DPPC   C2A16410  19.805   5.105   3.647  0.0336  0.5523  0.1468
    1DPPC   C3A16411  19.738   5.428   3.948  0.0864 -0.3436  0.2138
    1DPPC   C4A16412  19.680   5.829   4.055 -0.1782  0.1229  0.1073
    1DPPC   C1B16413  19.841   5.446   3.153 -0.1878  0.0803 -0.2519
    1DPPC   C2B16414  19.837   5.561   3.484  0.3414  0.0432  0.2273
    1DPPC   C3B16415  20.051   5.830   3.678  0.0638 -0.3613  0.3053
    1DPPC   C4B16416  20.231   5.846   4.063  0.2559  0.0106  0.1069
    1DPPC   NC316417  26.886   3.750   4.083 -0.0226 -0.1865 -0.0686
    1DPPC   PO416418  26.623   3.348   4.023  0.2631  0.0732  0.0132
    1DPPC   GL116419  26.374   3.525   4.271 -0.2582 -0.0521  0.0655
    1DPPC   GL216420  26.417   3.840   4.400 -0.0376  0.1757  0.3617
    1DPPC   C1A16421  26.493   3.538   4.750 -0.0367  0.2010 -0.1979
    1DPPC   C2A16422  26.580   3.529   5.205  0.0965 -0.0281 -0.1314
    1DPPC   C3A16423  26.737   3.244   5.482 -0.1447  0.1490  0.0230
    1DPPC   C4A16424  27.085   3.183   5.562 -0.2755 -0.0475  0.0029
    1DPPC   C1B16425  26.316   3.965   4.880  0.1757 -0.1169  0.2483
    1DPPC   C2B16426  26.281   3.892   5.298  0.0230  0.0506  0.0438
    1DPPC   C3B16427  25.880   3.736   5.467 -0.2125 -0.1231  0.0959
    1DPPC   C4B16428  25.573   3.429   5.406 -0.1213  0.0133  0.0434
    1DPPC   NC316429   5.029  26.621   3.898  0.0284 -0.1153 -0.1336
    1DPPC   PO416430   5.049  27.092   3.974 -0.0956  0.3857  0.0357
    1DPPC   GL116431   5.179  27.156   4.334 -0.2218  0.1546  0.1268
    1DPPC   GL216432   5.478  27.038   4.584  0.1185 -0.2960 -0.0334
    1DPPC   C1A16433   5.100  27.260   4.745 -0.3727  0.1324 -0.2249
    1DPPC   C2A16434   5.214  27.473   5.159 -0.2020  0.4213 -0.2674
    1DPPC   C3A16435   5.257  27.245   5.568 -0.0935  0.2776 -0.1361
    1DPPC   C4A16436   5.541  26.896   5.619 -0.0746  0.0658 -0.1158
    1DPPC   C1B16437   5.375  26.899   5.095 -0.0814 -0.1036  0.3894
    1DPPC   C2B16438   5.029  26.829   5.380  0.1938 -0.0354  0.0643
    1DPPC   C3B16439   4.931  26.637   5.734  0.1605 -0.0384 -0.0714
    1DPPC   C4B16440   4.981  26.305   6.051 -0.1296 -0.0989  0.1459
    1DPPC   NC316441  13.995  20.507   3.014  0.1309 -0.1422  0.0254
    1DPPC   PO416442  14.371  20.496   2.985 -0.0582  0.0308 -0.2784
    1DPPC   GL116443  14.629  20.263   3.393  0.3068 -0.3001 -0.0054
    1DPPC   GL216444  14.804  19.991   3.259  0.1592 -0.2677 -0.0629
    1DPPC   C1A16445  14.712  19.886   3.840  0.3253  0.0404 -0.1527
    1DPPC   C2A16446  14.672  19.787   4.284  0.2600  0.0377  0.2069
    1DPPC   C3A16447  14.401  19.551   4.562 -0.1137  0.2483 -0.0476
    1DPPC   C4A16448  14.125  19.180   4.745  0.0673 -0.3689 -0.0410
    1DPPC   C1B16449  15.086  20.279   3.695  0.0769  0.0997  0.1340
    1DPPC   C2B16450  14.960  20.328   4.143 -0.1270 -0.3187 -0.0362
    1DPPC   C3B16451  14.579  20.385   4.393 -0.2729 -0.0955 -0.0436
    1DPPC   C4B16452  14.530  20.094   4.696 -0.1145  0.0310 -0.0070
    1DPPC   NC316453  26.716   9.977   3.246  0.0527 -0.1843 -0.2960
    1DPPC   PO416454  26.530   9.663   3.474  0.2054  0.3669  0.0911
    1DPPC   GL116455  26.492   9.795   3.936 -0.1640  0.0519 -0.1014
    1DPPC   GL216456  26.508   9.508   4.155 -0.1287 -0.2827  0.0453
    1DPPC   C1A16457  26.183   9.996   4.216 -0.3332  0.1110 -0.2281
    1DPPC   C2A16458  26.006  10.018   4.687 -0.2688 -0.0503 -0.2314
    1DPPC   C3A16459  25.944   9.749   5.012  0.1984  0.0727 -0.1988
    1DPPC   C4A16460  25.755   9.436   4.978  0.0107  0.4474  0.2075
    1DPPC   C1B16461  26.306   9.637   4.573 -0.0814  0.0891  0.2327
    1DPPC   C2B16462  26.395   9.518   5.061 -0.0168 -0.0860 -0.3480
    1DPPC   C3B16463  26.385   9.493   5.599  0.5074 -0.1144 -0.0032
    1DPPC   C4B16464  26.380   9.127   5.889 -0.0295 -0.0063  0.2908
    1DPPC   NC316465  14.072  14.370   2.465  0.2504  0.3582 -0.0489
    1DPPC   PO416466  13.878  14.801   2.494 -0.0705 -0.0114  0.0730
    1DPPC   GL116467  14.078  14.810   2.875  0.0744  0.1228  0.4289
    1DPPC   GL216468  13.797  14.711   3.023  0.1843 -0.2228 -0.1571
    1DPPC   C1A16469  14.260  14.691   3.148  0.0822  0.0300  0.2575
    1DPPC   C2A16470  14.375  14.787   3.585 -0.1856  0.1188 -0.2164
    1DPPC   C3A16471  14.254  15.101   4.033 -0.1849 -0.0133  0.0567
    1DPPC   C4A16472  14.456  15.387   4.338 -0.1896  0.5935  0.0455
    1DPPC   C1B16473  13.930  14.888   3.449  0.0280  0.1735  0.1182
    1DPPC   C2B16474  13.759  14.867   3.835 -0.0780 -0.1067  0.1928
    1DPPC   C3B16475  13.386  14.574   4.100 -0.2810 -0.0639  0.0248
    1DPPC   C4B16476  13.336  14.676   4.527 -0.0829  0.0919  0.3174
    1DPPC   NC316477   2.984  11.971   2.812  0.0231  0.2778  0.1308
    1DPPC   PO416478   2.786  11.858   3.141  0.2519 -0.2943  0.2001
    1DPPC   GL116479   2.827  11.798   3.651 -0.1654  0.0300 -0.0828
    1DPPC   GL216480   2.647  12.078   3.756 -0.1630 -0.1226 -0.1456
    1DPPC   C1A16481   2.998  11.591   4.085 -0.2664 -0.1126 -0.0424
    1DPPC   C2A16482   3.076  11.848   4.488  0.3370  0.1800  0.1000
    1DPPC   C3A16483   3.124  11.953   4.914 -0.0294 -0.4606 -0.2504
    1DPPC   C4A16484   3.298  12.024   5.305  0.2279 -0.1671  0.0384
    1DPPC   C1B16485   2.878  12.138   4.092  0.1545  0.2155  0.4775
    1DPPC   C2B16486   2.752  12.177   4.638 -0.0662  0.2423  0.2739
    1DPPC   C3B16487   2.622  11.968   4.965 -0.3990  0.0808 -0.3742
    1DPPC   C4B16488   2.402  11.615   5.200  0.1111  0.1850  0.1603
    1DPPC   NC316489  15.167  11.506   1.945  0.2004  0.1641  0.0781
    1DPPC   PO416490  15.554  11.246   2.132 -0.1308 -0.3905 -0.1036
    1DPPC   GL116491  15.545  11.148   2.614 -0.0203 -0.0615 -0.0940
    1DPPC   GL216492  15.528  11.475   2.621  0.2352  0.1274 -0.1634
    1DPPC   C1A16493  15.779  10.910   2.856  0.2129 -0.1667  0.1442
    1DPPC   C2A16494  15.967  10.654   3.082  0.1755  0.2310 -0.5406
    1DPPC   C3A16495  16.189  10.403   3.425 -0.2193 -0.1706 -0.1282
    1DPPC   C4A16496  16.369  10.334   3.810 -0.3451  0.0244  0.0935
    1DPPC   C1B16497  15.585  11.307   3.119  0.1355 -0.0891  0.2290
    1DPPC   C2B16498  15.658  11.133   3.495 -0.2463 -0.3156 -0.0688
    1DPPC   C3B16499  16.065  10.912   3.747  0.0553 -0.4631 -0.0351
    1DPPC   C4B16500  16.230  10.789   4.127  0.1397  0.1915 -0.0552
    1DPPC   NC316501   7.032  10.689   2.628  0.0843  0.0487  0.1634
    1DPPC   PO416502   7.341  10.377   2.554 -0.2802  0.0219  0.2960
    1DPPC   GL116503   7.367  10.398   2.949 -0.0715  0.1137 -0.2337
    1DPPC   GL216504   7.604  10.390   3.018  0.1216  0.0073 -0.0411
    1DPPC   C1A16505   7.384  10.216   3.398  0.0181  0.2875 -0.0994
    1DPPC   C2A16506   7.357   9.986   3.729 -0.3291 -0.2364 -0.0458
    1DPPC   C3A16507   7.581  10.018   4.156  0.3678  0.0850  0.0754
    1DPPC   C4A16508   7.650   9.880   4.529 -0.3483 -0.3894  0.2288
    1DPPC   C1B16509   7.912  10.485   3.296  0.2095 -0.2362 -0.1931
    1DPPC   C2B16510   8.103  10.818   3.500  0.2100  0.0987 -0.0207
    1DPPC   C3B16511   8.521  11.039   3.735 -0.0193  0.1926 -0.3969
    1DPPC   C4B16512   8.705  11.198   4.166  0.2632 -0.1463  0.0593
    1DPPC   NC316513  15.249   9.377   1.968  0.2314 -0.2114 -0.1615
    1DPPC   PO416514  15.487   9.013   1.976 -0.0829  0.0225  0.0288
    1DPPC   GL116515  15.168   8.990   2.212 -0.2815 -0.2769 -0.1464
    1DPPC   GL216516  15.011   9.250   2.438 -0.0145 -0.1658  0.4228
    1DPPC   C1A16517  15.265   8.925   2.633 -0.0503 -0.0746  0.0274
    1DPPC   C2A16518  15.229   8.883   3.032  0.1443 -0.1641  0.0680
    1DPPC   C3A16519  14.941   8.787   3.365 -0.1540  0.0544 -0.1658
    1DPPC   C4A16520  15.154   8.429   3.598  0.1792 -0.0435 -0.1323
    1DPPC   C1B16521  15.011   9.342   2.915 -0.1770 -0.0567  0.2179
    1DPPC   C2B16522  14.678   9.382   3.187 -0.1017  0.1685  0.3493
    1DPPC   C3B16523  14.570   9.596   3.597 -0.0199  0.1016 -0.1412
    1DPPC   C4B16524  14.566   9.761   3.978  0.0091  0.1633 -0.1480
    1DPPC   NC316525  26.463   0.895   3.546 -0.0606 -0.0584  0.2032
    1DPPC   PO416526  26.436   0.515   3.751 -0.1556  0.0137  0.0124
    1DPPC   GL116527  26.262   0.551   4.204  0.3292 -0.0968  0.1098
    1DPPC   GL216528  25.970   0.395   4.277  0.2314 -0.2466 -0.0789
    1DPPC   C1A16529  26.488   0.760   4.555  0.0860 -0.1151 -0.0234
    1DPPC   C2A16530  26.593   0.918   4.872  0.3034 -0.0148 -0.0884
    1DPPC   C3A16531  26.832   0.962   5.219 -0.2168  0.2334  0.1164
    1DPPC   C4A16532  26.733   1.193   5.587  0.2661 -0.3538  0.1237
    1DPPC   C1B16533  25.914   0.089   4.579  0.2341  0.1255 -0.1692
    1DPPC   C2B16534  26.030   0.102   5.042  0.0351 -0.0208  0.1167
    1DPPC   C3B16535  26.329   0.006   5.347  0.0792 -0.0341 -0.1453
    1DPPC   C4B16536  26.654   0.017   5.740  0.1053 -0.0556  0.0199
    1DPPC   NC316537  25.515  25.913   3.801  0.0302  0.1392 -0.0217
    1DPPC   PO416538  25.674  26.278   3.563 -0.0832  0.0928 -0.2494
    1DPPC   GL116539  25.765  26.197   4.094 -0.2406  0.1901  0.0049
    1DPPC   GL216540  25.483  26.479   4.138 -0.0657 -0.1451  0.0238
    1DPPC   C1A16541  25.830  26.076   4.440 -0.1117  0.2767  0.1073
    1DPPC   C2A16542  25.702  26.025   4.838  0.0070  0.0030 -0.2091
    1DPPC   C3A16543  25.630  26.092   5.224 -0.1340  0.0794  0.1495
    1DPPC   C4A16544  25.825  26.260   5.560 -0.2553 -0.0352  0.0689
    1DPPC   C1B16545  25.137  26.515   4.332  0.0751 -0.3189  0.1128
    1DPPC   C2B16546  25.056  26.551   4.667  0.2500  0.0274 -0.3072
    1DPPC   C3B16547  24.934  26.682   5.103 -0.2936 -0.2889 -0.0074
    1DPPC   C4B16548  25.015  26.447   5.498  0.1773 -0.1283 -0.0645
    1DPPC   NC316549  27.260   1.364   3.990 -0.1917 -0.1099  0.2717
    1DPPC   PO416550  27.620   1.421   4.155  0.0727  0.1728  0.1066
    1DPPC   GL116551  27.743   1.448   4.612 -0.0011  0.1901 -0.0266
    1DPPC   GL216552  27.743   1.790   4.568 -0.0193  0.4673 -0.0482
    1DPPC   C1A16553  27.790   1.185   5.045  0.1599 -0.2941  0.3818
    1DPPC   C2A16554  27.796   1.034   5.422  0.2526 -0.0692 -0.0351
    1DPPC   C3A16555  27.963   0.972   5.779  0.1280 -0.0044  0.1690
    1DPPC   C4A16556  27.680   0.704   5.971 -0.1062  0.3349 -0.1288
    1DPPC   C1B16557  27.666   1.767   5.026 -0.1824  0.0939 -0.1792
    1DPPC   C2B16558  27.817   1.620   5.352 -0.0363 -0.3214  0.1838
    1DPPC   C3B16559  27.735   1.430   5.655  0.1326  0.3321  0.1140
    1DPPC   C4B16560  27.450   1.502   5.986  0.1353  0.1406 -0.0320
    1DPPC   NC316561  26.093  25.922   3.770  0.0493 -0.0075 -0.2647
    1DPPC   PO416562  26.463  25.606   3.768 -0.0639 -0.1748 -0.0960
    1DPPC   GL116563  26.585  25.543   4.150 -0.2076  0.0459 -0.1860
    1DPPC   GL216564  26.765  25.254   4.195  0.0835 -0.2705  0.0135
    1DPPC   C1A16565  26.637  25.689   4.583 -0.0211 -0.2182 -0.1096
    1DPPC   C2A16566  26.576  25.774   4.971 -0.4113 -0.1470 -0.0464
    1DPPC   C3A16567  26.825  25.893   5.380  0.0782  0.0693 -0.0365
    1DPPC   C4A16568  26.777  26.176   5.734  0.0675  0.1715  0.0376
    1DPPC   C1B16569  26.573  25.116   4.559  0.2165 -0.3413 -0.0731
    1DPPC   C2B16570  26.348  25.312   4.887 -0.0839 -0.1769  0.2625
    1DPPC   C3B16571  26.272  25.351   5.327 -0.2594  0.0556  0.1982
    1DPPC   C4B16572  26.256  25.318   5.767  0.0856  0.0801 -0.1662
    1DPPC   NC316573   1.270  20.050   3.734 -0.2142  0.1782  0.1557
    1DPPC   PO416574   0.759  20.045   3.762  0.1139  0.1242 -0.0669
    1DPPC   GL116575   0.935  20.140   4.192 -0.1887  0.2256  0.1006
    1DPPC   GL216576   0.820  20.479   4.325  0.0288  0.1436  0.3091
    1DPPC   C1A16577   1.015  20.041   4.695  0.3029  0.2252 -0.0998
    1DPPC   C2A16578   1.069  20.262   5.056  0.3475  0.0151  0.1748
    1DPPC   C3A16579   1.256  20.472   5.393  0.1927 -0.1589 -0.3135
    1DPPC   C4A16580   1.448  20.780   5.631  0.1826 -0.0543  0.1749
    1DPPC   C1B16581   0.682  20.420   4.769 -0.1822  0.1319 -0.1712
    1DPPC   C2B16582   0.399  20.382   5.114 -0.3253  0.1681  0.1647
    1DPPC   C3B16583   0.141  20.343   5.489 -0.0565  0.1513  0.1665
    1DPPC   C4B16584  -0.045  20.366   5.853  0.1193  0.0834 -0.1053
    1DPPC   NC316585  25.946   0.374   3.660 -0.0328  0.3672 -0.2858
    1DPPC   PO416586  25.463   0.515   3.826 -0.1669 -0.1336 -0.0816
    1DPPC   GL116587  25.374   0.153   3.957  0.1295 -0.0241 -0.4752
    1DPPC   GL216588  25.437  -0.165   3.749 -0.1905  0.2903 -0.0528
    1DPPC   C1A16589  25.353   0.128   4.393 -0.0174  0.1114  0.0309
    1DPPC   C2A16590  25.356   0.068   4.758 -0.1926 -0.3278  0.0826
    1DPPC   C3A16591  25.143  -0.021   5.074 -0.3124 -0.2013 -0.3163
    1DPPC   C4A16592  24.876  -0.219   5.304 -0.0502  0.0152 -0.2229
    1DPPC   C1B16593  25.187  -0.288   4.222 -0.2148 -0.1866 -0.3000
    1DPPC   C2B16594  25.053  -0.353   4.602  0.0919 -0.2078 -0.0539
    1DPPC   C3B16595  25.124  -0.457   4.980  0.0036  0.0245  0.0514
    1DPPC   C4B16596  25.135  -0.761   5.314 -0.2239 -0.0580  0.1557
    1DPPC   NC316597  24.210  26.368   2.719  0.4437 -0.1227  0.2202
    1DPPC   PO416598  24.417  26.564   2.958 -0.1941 -0.2265 -0.4549
    1DPPC   GL116599  24.149  26.606   3.363  0.0335  0.0949 -0.2048
    1DPPC   GL216600  23.962  26.254   3.461  0.0423 -0.0709 -0.0369
    1DPPC   C1A16601  24.134  26.714   3.802 -0.3003  0.0379 -0.1048
    1DPPC   C2A16602  24.158  26.557   4.217  0.1183 -0.0294 -0.2076
    1DPPC   C3A16603  24.068  26.513   4.702 -0.1578  0.1818 -0.3373
    1DPPC   C4A16604  23.984  26.495   5.182  0.1401 -0.4879  0.0340
    1DPPC   C1B16605  24.093  26.172   3.869 -0.3027 -0.0539  0.1728
    1DPPC   C2B16606  24.204  26.023   4.274  0.1532  0.1749 -0.1458
    1DPPC   C3B16607  24.174  26.004   4.760  0.2623 -0.1249  0.0933
    1DPPC   C4B16608  23.995  25.964   5.106 -0.0495  0.0455  0.2019
    1DPPC   NC316609  23.478  27.482   3.162 -0.0608  0.0241 -0.2507
    1DPPC   PO416610  23.753  27.727   3.015  0.0044 -0.1732  0.1284
    1DPPC   GL116611  23.649  27.933   3.376  0.3303  0.2505  0.0240
    1DPPC   GL216612  23.652  28.279   3.314  0.5708 -0.1011  0.1482
    1DPPC   C1A16613  23.598  27.961   3.773  0.3186 -0.2937 -0.5403
    1DPPC   C2A16614  23.390  27.900   4.199 -0.0189  0.1990 -0.0059
    1DPPC   C3A16615  23.515  27.876   4.608 -0.2580 -0.2174 -0.1107
    1DPPC   C4A16616  23.645  27.919   5.064  0.2606 -0.1426 -0.0227
    1DPPC   C1B16617  23.398  28.418   3.665 -0.0470 -0.1560  0.1300
    1DPPC   C2B16618  23.510  28.451   4.087  0.0465  0.0412 -0.0029
    1DPPC   C3B16619  23.592  28.401   4.473  0.2491 -0.0508  0.0680
    1DPPC   C4B16620  23.794  28.361   4.891  0.1182  0.1767  0.1247
    1DPPC   NC316621  20.181   2.934   2.818 -0.1994  0.2901 -0.1074
    1DPPC   PO416622  20.519   3.153   2.975  0.1027 -0.1227  0.0629
    1DPPC   GL116623  20.585   3.083   3.470 -0.0256  0.0053  0.0999
    1DPPC   GL216624  20.883   3.000   3.347  0.1744  0.0813  0.1918
    1DPPC   C1A16625  20.399   3.143   3.892 -0.0133  0.2041 -0.2616
    1DPPC   C2A16626  20.063   3.331   4.128  0.0379 -0.2033  0.1042
    1DPPC   C3A16627  20.079   3.513   4.351 -0.0041  0.0501  0.1278
    1DPPC   C4A16628  19.895   3.861   4.352  0.3277 -0.0158 -0.1398
    1DPPC   C1B16629  21.063   3.065   3.687  0.0193 -0.1919 -0.1257
    1DPPC   C2B16630  21.326   3.215   3.837 -0.2011  0.0786  0.1124
    1DPPC   C3B16631  21.417   3.495   4.188 -0.1048  0.0056  0.0120
    1DPPC   C4B16632  21.461   3.608   4.554  0.0161  0.0492  0.1838
    1DPPC   NC316633  10.612  21.019   2.890  0.1009  0.2797  0.0056
    1DPPC   PO416634  10.384  21.144   3.214 -0.0823  0.1131 -0.1443
    1DPPC   GL116635  10.583  21.107   3.481 -0.0291  0.2074  0.0836
    1DPPC   GL216636  10.865  20.980   3.517  0.1482  0.4452 -0.0932
    1DPPC   C1A16637  10.792  21.248   3.911 -0.0594 -0.0541  0.0546
    1DPPC   C2A16638  10.939  21.301   4.333  0.0098  0.0802 -0.1200
    1DPPC   C3A16639  11.136  21.424   4.707  0.2777  0.3201  0.1840
    1DPPC   C4A16640  11.056  21.761   5.007 -0.3309  0.3699  0.0785
    1DPPC   C1B16641  10.914  20.578   3.712  0.1947 -0.1664 -0.2238
    1DPPC   C2B16642  10.829  20.453   4.134  0.1843  0.0634  0.0521
    1DPPC   C3B16643  10.861  20.462   4.487 -0.3277  0.0370 -0.2465
    1DPPC   C4B16644  10.806  20.220   4.824  0.3470 -0.1492 -0.2902
    1DPPC   NC316645   3.167  14.827   2.848 -0.1185  0.0520  0.0739
    1DPPC   PO416646   3.608  14.744   2.868 -0.2360  0.0602  0.1361
    1DPPC   GL116647   3.889  14.637   3.203 -0.1592  0.2628  0.0086
    1DPPC   GL216648   4.275  14.656   3.240 -0.1628  0.0208 -0.3362
    1DPPC   C1A16649   3.730  14.626   3.582  0.1764 -0.0352  0.0523
    1DPPC   C2A16650   3.884  14.571   3.975  0.3426 -0.3352 -0.0475
    1DPPC   C3A16651   4.240  14.617   4.114 -0.1438  0.2839 -0.1241
    1DPPC   C4A16652   4.519  14.896   4.325  0.0912  0.0606  0.0440
    1DPPC   C1B16653   4.263  14.461   3.649  0.1935  0.2909 -0.0494
    1DPPC   C2B16654   4.228  14.140   4.018 -0.0252 -0.0591  0.0432
    1DPPC   C3B16655   4.227  13.832   4.305 -0.3758  0.2448 -0.2036
    1DPPC   C4B16656   3.991  13.717   4.640 -0.0624 -0.0846  0.1481
    1DPPC   NC316657   9.125   2.663   2.600 -0.1993 -0.0996  0.1086
    1DPPC   PO416658   9.472   2.480   2.962 -0.0051  0.0562  0.0587
    1DPPC   GL116659   9.663   2.341   3.312  0.0120 -0.0957  0.1374
    1DPPC   GL216660   9.866   2.110   3.194  0.2911  0.4624 -0.2055
    1DPPC   C1A16661   9.692   2.187   3.718  0.1102  0.3639 -0.1133
    1DPPC   C2A16662  10.046   2.155   4.055 -0.0400  0.2041  0.0177
    1DPPC   C3A16663  10.209   2.413   4.363 -0.1045 -0.0751  0.1561
    1DPPC   C4A16664  10.304   2.812   4.336  0.0411  0.1564  0.0179
    1DPPC   C1B16665  10.029   1.805   3.565  0.1639  0.1280  0.0767
    1DPPC   C2B16666   9.974   1.361   3.605 -0.0061 -0.1212  0.0400
    1DPPC   C3B16667   9.763   1.004   3.697  0.1032 -0.0266  0.0376
    1DPPC   C4B16668   9.622   0.758   3.988  0.0592 -0.0149 -0.0533
    1DPPC   NC316669  23.606   1.023   2.632  0.2828  0.4791 -0.0633
    1DPPC   PO416670  23.458   0.864   3.004  0.3265  0.1472  0.1126
    1DPPC   GL116671  23.334   0.770   3.439  0.0905  0.0011 -0.5948
    1DPPC   GL216672  23.499   0.615   3.689  0.0761 -0.3991 -0.1742
    1DPPC   C1A16673  23.095   0.933   3.792 -0.2800  0.1455 -0.0135
    1DPPC   C2A16674  22.880   0.931   4.122  0.0354 -0.0499  0.1168
    1DPPC   C3A16675  22.502   0.972   4.467  0.2152 -0.0349  0.2187
    1DPPC   C4A16676  22.137   1.068   4.797 -0.1851  0.3719 -0.1837
    1DPPC   C1B16677  23.153   0.484   4.015  0.0530  0.2148  0.2896
    1DPPC   C2B16678  22.949   0.386   4.365  0.0872 -0.0799 -0.2698
    1DPPC   C3B16679  22.823   0.301   4.906 -0.0760  0.2151 -0.0827
    1DPPC   C4B16680  22.981   0.655   5.209 -0.1027 -0.0557 -0.1191
    1DPPC   NC316681   3.205   9.608   2.655  0.2380 -0.1406  0.0529
    1DPPC   PO416682   3.330   9.639   3.106  0.1618  0.2281  0.1290
    1DPPC   GL116683   3.516   9.801   3.446  0.0136 -0.1518 -0.0420
    1DPPC   GL216684   3.562  10.039   3.546  0.0955 -0.0939  0.1000
    1DPPC   C1A16685   3.384   9.627   3.851  0.0893 -0.2501 -0.1095
    1DPPC   C2A16686   3.258   9.628   4.253  0.2762  0.0092  0.1864
    1DPPC   C3A16687   3.210   9.547   4.741  0.0962 -0.0857  0.2558
    1DPPC   C4A16688   3.282   9.629   5.105  0.2522  0.1197 -0.1404
    1DPPC   C1B16689   3.406  10.074   3.957 -0.0989 -0.0259  0.0258
    1DPPC   C2B16690   3.342  10.172   4.222  0.1403 -0.2361 -0.1795
    1DPPC   C3B16691   3.320  10.133   4.638 -0.1636  0.0524  0.1413
    1DPPC   C4B16692   3.266  10.099   5.145  0.0606  0.0971 -0.1530
    1DPPC   NC316693  17.037  10.626   2.029  0.0527 -0.0936 -0.0052
    1DPPC   PO416694  17.441  10.683   1.863 -0.0590 -0.1967  0.0374
    1DPPC   GL116695  17.417  10.897   2.253  0.1771  0.0090 -0.0729
    1DPPC   GL216696  17.481  11.128   2.256 -0.1464  0.1051 -0.2169
    1DPPC   C1A16697  17.215  10.805   2.629  0.1195 -0.1824  0.0887
    1DPPC   C2A16698  17.320  10.843   3.025  0.3296 -0.1516 -0.1945
    1DPPC   C3A16699  17.446  10.941   3.489 -0.1642  0.0436  0.0243
    1DPPC   C4A16700  17.323  10.634   3.894 -0.1269 -0.0636  0.0352
    1DPPC   C1B16701  17.683  11.007   2.676 -0.1554  0.0642 -0.1436
    1DPPC   C2B16702  17.846  10.977   3.051  0.1006 -0.0885 -0.0930
    1DPPC   C3B16703  18.155  10.793   3.320  0.3204  0.1899  0.1660
    1DPPC   C4B16704  18.306  10.710   3.734  0.1933  0.3395  0.3615
    1DPPC   NC316705  18.449  25.044   2.859 -0.2446  0.0277 -0.1672
    1DPPC   PO416706  18.904  25.064   2.972 -0.0926 -0.3432  0.0475
    1DPPC   GL116707  19.003  25.008   3.463  0.0345 -0.4356 -0.0121
    1DPPC   GL216708  18.868  24.790   3.438 -0.2039  0.0417 -0.1344
    1DPPC   C1A16709  19.149  24.979   3.871 -0.0175 -0.0236 -0.1519
    1DPPC   C2A16710  19.280  25.093   4.325 -0.0187 -0.0151  0.2789
    1DPPC   C3A16711  19.305  25.263   4.809  0.0994 -0.0961  0.1674
    1DPPC   C4A16712  19.071  25.677   4.942 -0.3678 -0.1755 -0.2235
    1DPPC   C1B16713  18.847  24.578   3.881  0.0859  0.0634  0.1734
    1DPPC   C2B16714  19.003  24.649   4.267  0.1043 -0.0583 -0.1204
    1DPPC   C3B16715  19.175  24.407   4.567  0.0508 -0.0940  0.0550
    1DPPC   C4B16716  19.399  24.230   4.919  0.2215  0.0115  0.0795
    1DPPC   NC316717   0.585   3.276   4.066 -0.0536 -0.1353  0.0770
    1DPPC   PO416718   0.174   3.139   4.128  0.1271  0.1405  0.0521
    1DPPC   GL116719  -0.076   2.879   4.508  0.3436 -0.1132  0.0290
    1DPPC   GL216720   0.012   2.502   4.503  0.2042  0.0991 -0.0436
    1DPPC   C1A16721  -0.048   2.958   4.937 -0.2293 -0.0055 -0.3786
    1DPPC   C2A16722  -0.221   3.025   5.285  0.1475 -0.0786  0.0987
    1DPPC   C3A16723  -0.409   3.035   5.699 -0.1976 -0.3743 -0.2454
    1DPPC   C4A16724  -0.458   3.168   6.033  0.1819  0.2269  0.0927
    1DPPC   C1B16725   0.054   2.459   4.935  0.1357 -0.3226 -0.0810
    1DPPC   C2B16726   0.186   2.671   5.325 -0.0662 -0.0937 -0.2640
    1DPPC   C3B16727   0.320   2.792   5.744  0.1698 -0.0700  0.0883
    1DPPC   C4B16728   0.563   2.563   6.088  0.1222  0.0686 -0.2024
    1DPPC   NC316729  26.013   9.619   3.299 -0.1021  0.1346  0.0544
    1DPPC   PO416730  26.260   9.180   3.314 -0.0322 -0.1735  0.0225
    1DPPC   GL116731  26.426   9.209   3.729  0.1881 -0.0146  0.1579
    1DPPC   GL216732  26.183   9.473   3.743  0.1658  0.1433 -0.0561
    1DPPC   C1A16733  26.589   9.013   4.055 -0.0278  0.2965  0.1023
    1DPPC   C2A16734  26.881   8.881   4.442 -0.2090  0.0485 -0.1085
    1DPPC   C3A16735  27.079   8.795   4.838 -0.0666 -0.1280 -0.0311
    1DPPC   C4A16736  26.894   8.745   5.310 -0.1736 -0.0934 -0.4812
    1DPPC   C1B16737  26.046   9.502   4.183  0.2343 -0.1830 -0.1990
    1DPPC   C2B16738  25.641   9.629   4.468  0.1799 -0.1277  0.2594
    1DPPC   C3B16739  25.452   9.987   4.809 -0.2397  0.0521 -0.1533
    1DPPC   C4B16740  25.064  10.280   4.959 -0.0525 -0.0506 -0.0815
    1DPPC   NC316741  18.808   7.711   1.968  0.1428  0.0567  0.2268
    1DPPC   PO416742  18.587   7.604   1.615 -0.3052 -0.1287 -0.3410
    1DPPC   GL116743  18.319   7.689   2.020  0.0587 -0.2010  0.1608
    1DPPC   GL216744  18.451   8.019   2.151  0.0507 -0.0881  0.2190
    1DPPC   C1A16745  18.069   7.440   2.452  0.2056 -0.2116 -0.3679
    1DPPC   C2A16746  18.108   7.408   2.948  0.1750  0.1394  0.3709
    1DPPC   C3A16747  18.306   7.212   3.335 -0.3328  0.1612  0.0294
    1DPPC   C4A16748  18.547   7.043   3.588 -0.1333  0.0366 -0.0699
    1DPPC   C1B16749  18.020   7.989   2.311  0.3756  0.5595 -0.1700
    1DPPC   C2B16750  17.808   7.851   2.622  0.2432  0.0534 -0.0099
    1DPPC   C3B16751  17.865   7.873   3.071 -0.3271 -0.3047 -0.2654
    1DPPC   C4B16752  18.104   7.658   3.401 -0.0407  0.0968  0.0454
    1DPPC   NC316753  26.339   8.748   2.887 -0.0972  0.1875 -0.2333
    1DPPC   PO416754  26.376   8.633   3.231  0.0252 -0.3779 -0.1527
    1DPPC   GL116755  26.351   8.613   3.633 -0.1515 -0.1192 -0.1281
    1DPPC   GL216756  26.189   8.772   3.750  0.0383  0.0906  0.0906
    1DPPC   C1A16757  26.569   8.461   3.962  0.2359  0.2009 -0.0291
    1DPPC   C2A16758  26.845   8.416   4.215  0.3311  0.3081  0.1571
    1DPPC   C3A16759  27.194   8.422   4.503 -0.1013  0.0111  0.1628
    1DPPC   C4A16760  27.486   8.334   4.809  0.1218 -0.0780  0.0707
    1DPPC   C1B16761  26.161   8.582   4.213 -0.1985  0.0284  0.1387
    1DPPC   C2B16762  26.047   8.651   4.603 -0.1412  0.0569 -0.1024
    1DPPC   C3B16763  25.634   8.533   4.781 -0.2919  0.0040  0.1157
    1DPPC   C4B16764  25.296   8.788   4.837  0.1503  0.0586 -0.3575
    1DPPC   NC316765   8.316   4.773   2.941  0.1844  0.0483  0.3169
    1DPPC   PO416766   8.503   4.471   3.090 -0.0109  0.0239 -0.1912
    1DPPC   GL116767   8.560   4.450   3.524 -0.0743 -0.1253 -0.0411
    1DPPC   GL216768   8.317   4.300   3.697  0.1801 -0.0008 -0.1912
    1DPPC   C1A16769   8.530   4.767   3.916 -0.0987  0.2717 -0.0084
    1DPPC   C2A16770   8.493   4.832   4.364 -0.1053 -0.1120 -0.1170
    1DPPC   C3A16771   8.625   4.831   4.796 -0.1817 -0.0861 -0.2117
    1DPPC   C4A16772   8.620   5.021   5.318 -0.1183 -0.1781  0.0291
    1DPPC   C1B16773   8.177   4.495   4.103 -0.4841  0.1639  0.0760
    1DPPC   C2B16774   8.243   4.435   4.517 -0.2412 -0.1606  0.0376
    1DPPC   C3B16775   8.162   4.504   4.941 -0.2602 -0.1420 -0.2797
    1DPPC   C4B16776   7.969   4.634   5.218  0.3342 -0.1533  0.0918
    1DPPC   NC316777   2.993  23.270   3.833 -0.0987 -0.0038  0.0398
    1DPPC   PO416778   3.009  22.854   4.045 -0.0242  0.5163  0.1893
    1DPPC   GL116779   2.754  22.730   4.362  0.2183  0.0463 -0.2864
    1DPPC   GL216780   2.742  23.116   4.453  0.0305  0.0727  0.1066
    1DPPC   C1A16781   2.703  22.570   4.756 -0.0902  0.3297  0.0747
    1DPPC   C2A16782   2.500  22.468   5.083 -0.2175  0.2373  0.1488
    1DPPC   C3A16783   2.432  22.415   5.468 -0.4075 -0.4136  0.0322
    1DPPC   C4A16784   2.371  22.088   5.854 -0.1158  0.0208  0.1036
    1DPPC   C1B16785   2.971  23.095   4.898 -0.0975  0.2339 -0.1694
    1DPPC   C2B16786   2.799  22.885   5.246 -0.0415  0.0455  0.1503
    1DPPC   C3B16787   2.513  22.926   5.461  0.1814  0.2549 -0.1439
    1DPPC   C4B16788   2.118  22.966   5.444  0.0268  0.0568 -0.1236
    1DPPC   NC316789   2.050   0.976   4.301  0.3641 -0.1957 -0.2934
    1DPPC   PO416790   1.759   1.304   4.051  0.0411 -0.1210  0.1933
    1DPPC   GL116791   1.678   1.256   4.437  0.1614  0.1071 -0.1402
    1DPPC   GL216792   1.790   1.400   4.725 -0.1305 -0.0735 -0.0004
    1DPPC   C1A16793   1.413   1.037   4.796 -0.2270  0.1319 -0.2087
    1DPPC   C2A16794   1.317   0.932   5.320 -0.0416  0.0008 -0.1122
    1DPPC   C3A16795   1.364   1.005   5.711  0.0679  0.0508 -0.0554
    1DPPC   C4A16796   1.404   1.303   5.811  0.0134 -0.2018  0.1132
    1DPPC   C1B16797   1.875   1.408   5.096 -0.0371  0.0439  0.0387
    1DPPC   C2B16798   1.911   1.621   5.418 -0.1749  0.0576  0.1568
    1DPPC   C3B16799   2.015   1.548   5.802  0.0455  0.2624  0.2334
    1DPPC   C4B16800   2.318   1.424   6.125 -0.0387  0.1566  0.4125
    1DPPC   NC316801   3.052  20.252   3.501 -0.2802  0.1809  0.0174
    1DPPC   PO416802   3.481  20.359   3.637 -0.4046 -0.0421  0.0081
    1DPPC   GL116803   3.756  20.084   3.866 -0.0867 -0.2347 -0.1346
    1DPPC   GL216804   4.036  20.201   3.691 -0.1421  0.2868  0.3327
    1DPPC   C1A16805   3.941  20.033   4.286 -0.1268 -0.4653 -0.0760
    1DPPC   C2A16806   3.866  20.196   4.665 -0.1357 -0.0173  0.0689
    1DPPC   C3A16807   3.810  20.336   5.044  0.2598  0.1615 -0.1607
    1DPPC   C4A16808   3.853  20.439   5.464 -0.1934  0.1575  0.0044
    1DPPC   C1B16809   4.295  20.171   3.981  0.0869 -0.0494 -0.2339
    1DPPC   C2B16810   4.447  19.883   4.370  0.2724  0.2268  0.3529
    1DPPC   C3B16811   4.319  19.936   4.844  0.1290  0.1127  0.0683
    1DPPC   C4B16812   4.252  20.206   5.196  0.3159 -0.1112  0.0942
    1DPPC   NC316813  19.582  27.996   2.464 -0.2336  0.1777  0.0900
    1DPPC   PO416814  19.511  27.743   2.745 -0.0110  0.1633 -0.1711
    1DPPC   GL116815  19.542  27.760   3.160 -0.0384  0.0754  0.0233
    1DPPC   GL216816  19.886  27.734   3.289 -0.0126 -0.0070  0.1408
    1DPPC   C1A16817  19.615  28.075   3.424 -0.1608 -0.1680  0.2012
    1DPPC   C2A16818  19.545  28.102   3.803  0.2048  0.0831 -0.0171
    1DPPC   C3A16819  19.502  28.086   4.235  0.1872  0.0477 -0.0791
    1DPPC   C4A16820  19.242  28.201   4.596 -0.0376  0.1627  0.1769
    1DPPC   C1B16821  19.791  27.670   3.652 -0.0456  0.1263 -0.0170
    1DPPC   C2B16822  19.615  27.625   4.183  0.2032  0.1121  0.2685
    1DPPC   C3B16823  19.519  27.737   4.578 -0.1035  0.1798  0.0131
    1DPPC   C4B16824  19.395  27.920   4.988  0.1787 -0.1234  0.0978
    1DPPC   NC316825  22.880  28.128   3.151  0.1376  0.1785 -0.0686
    1DPPC   PO416826  23.105  27.850   3.351 -0.0009  0.0153 -0.0899
    1DPPC   GL116827  23.304  27.551   3.682  0.0299 -0.1300 -0.1954
    1DPPC   GL216828  23.626  27.479   3.669 -0.0485  0.1107 -0.0656
    1DPPC   C1A16829  23.324  27.418   4.067  0.0292 -0.0917  0.3071
    1DPPC   C2A16830  23.269  27.200   4.510  0.1757 -0.1097 -0.1141
    1DPPC   C3A16831  23.074  27.210   4.850 -0.3064 -0.1599  0.0079
    1DPPC   C4A16832  23.137  27.103   5.233 -0.2462 -0.0248 -0.1892
    1DPPC   C1B16833  23.776  27.602   4.163  0.0319  0.1138 -0.2788
    1DPPC   C2B16834  23.727  27.373   4.505 -0.1116 -0.0065  0.0332
    1DPPC   C3B16835  23.510  27.341   4.929  0.1196 -0.0119 -0.3625
    1DPPC   C4B16836  23.347  27.597   5.283  0.1711  0.2905  0.0984
    1DPPC   NC316837   3.119  12.193   3.408  0.0642  0.0747 -0.0407
    1DPPC   PO416838   2.845  12.590   3.583  0.1179  0.2993  0.2671
    1DPPC   GL116839   3.089  12.840   3.938  0.2513 -0.2048 -0.0789
    1DPPC   GL216840   3.297  13.129   3.807 -0.3975 -0.0680  0.1736
    1DPPC   C1A16841   3.017  13.140   4.357 -0.2202  0.0886  0.1047
    1DPPC   C2A16842   3.257  13.034   4.654  0.0459  0.0065  0.0539
    1DPPC   C3A16843   3.577  12.976   4.861 -0.0759 -0.1305 -0.2394
    1DPPC   C4A16844   3.902  13.229   4.995  0.2352  0.0954 -0.0842
    1DPPC   C1B16845   3.495  13.205   4.198 -0.0750 -0.0893  0.1152
    1DPPC   C2B16846   3.673  13.386   4.595 -0.1096 -0.1572 -0.0963
    1DPPC   C3B16847   3.465  13.526   4.922  0.2195 -0.0194  0.0039
    1DPPC   C4B16848   3.835  13.738   5.131 -0.2262  0.0355  0.3368
    1DPPC   NC316849  20.228  14.901   3.004 -0.2545 -0.2319  0.0802
    1DPPC   PO416850  20.112  15.297   2.685 -0.2059  0.3577 -0.3836
    1DPPC   GL116851  20.083  15.424   3.153 -0.1037 -0.1386 -0.1788
    1DPPC   GL216852  19.826  15.548   3.410 -0.2890 -0.0766  0.0672
    1DPPC   C1A16853  20.366  15.405   3.533  0.0546  0.0372  0.3644
    1DPPC   C2A16854  20.511  15.314   3.979  0.2464  0.1471 -0.0849
    1DPPC   C3A16855  20.425  14.953   4.223 -0.1000 -0.1917 -0.3736
    1DPPC   C4A16856  20.233  14.675   4.470  0.1983 -0.0919  0.0629
    1DPPC   C1B16857  19.982  15.512   3.834 -0.0737 -0.0622 -0.0545
    1DPPC   C2B16858  20.166  15.498   4.293 -0.1176 -0.0114  0.0992
    1DPPC   C3B16859  20.128  15.265   4.652 -0.1057 -0.0626  0.0041
    1DPPC   C4B16860  20.074  14.921   4.965  0.1520  0.0217  0.1083
    1DPPC   NC316861  10.298   0.230   2.969  0.1486  0.1241 -0.1137
    1DPPC   PO416862  10.543   0.550   3.126  0.3809  0.1312 -0.1187
    1DPPC   GL116863  10.579   0.562   3.509  0.0745 -0.0425  0.0253
    1DPPC   GL216864  10.735   0.352   3.653 -0.1216 -0.2745 -0.0113
    1DPPC   C1A16865  10.594   0.684   3.990 -0.2560 -0.1079 -0.1625
    1DPPC   C2A16866  10.868   0.640   4.323 -0.2403 -0.2341 -0.0764
    1DPPC   C3A16867  10.794   0.313   4.692  0.2725  0.2271 -0.0777
    1DPPC   C4A16868  10.876   0.338   5.140  0.4446  0.0364 -0.1052
    1DPPC   C1B16869  10.439   0.217   3.984 -0.1776 -0.0858 -0.1097
    1DPPC   C2B16870  10.447   0.318   4.356  0.5234  0.4199  0.0083
    1DPPC   C3B16871  10.263   0.174   4.678  0.0253  0.0176 -0.0346
    1DPPC   C4B16872  10.433   0.119   5.121  0.0048  0.0035  0.0846
    1DPPC   NC316873  16.090   1.809   2.498  0.0252 -0.3817  0.0716
    1DPPC   PO416874  15.913   2.163   2.343  0.1378  0.1035 -0.0134
    1DPPC   GL116875  16.062   2.352   2.742 -0.0056  0.2417  0.2303
    1DPPC   GL216876  16.234   2.549   2.775  0.2017  0.1942  0.1501
    1DPPC   C1A16877  15.997   2.271   3.161 -0.0294 -0.1641  0.3120
    1DPPC   C2A16878  15.901   2.430   3.584 -0.0666  0.0972  0.2112
    1DPPC   C3A16879  15.648   2.562   3.977 -0.0471 -0.0901 -0.0231
    1DPPC   C4A16880  15.630   2.748   4.398 -0.0665  0.2046 -0.2808
    1DPPC   C1B16881  16.323   2.844   3.019  0.0654  0.0337  0.0489
    1DPPC   C2B16882  16.390   3.046   3.428 -0.1004 -0.0601 -0.0618
    1DPPC   C3B16883  16.610   3.164   3.801 -0.0799  0.3168  0.1678
    1DPPC   C4B16884  16.522   3.344   4.122 -0.1503 -0.2437  0.1015
    1DPPC   NC316885  19.194  11.618   2.197  0.3884 -0.2418 -0.2054
    1DPPC   PO416886  18.858  11.759   2.465  0.1172 -0.0907 -0.0850
    1DPPC   GL116887  18.745  11.475   2.748  0.1253 -0.0955 -0.0822
    1DPPC   GL216888  18.631  11.162   2.752  0.1744  0.2980  0.3266
    1DPPC   C1A16889  18.994  11.186   3.083 -0.0517  0.0170  0.2646
    1DPPC   C2A16890  18.927  11.197   3.545 -0.1608 -0.1262 -0.1846
    1DPPC   C3A16891  19.054  11.380   3.837 -0.0004  0.1678  0.1762
    1DPPC   C4A16892  18.874  11.370   4.200  0.1098  0.4840  0.3973
    1DPPC   C1B16893  18.518  11.164   3.164  0.1081 -0.1306 -0.2050
    1DPPC   C2B16894  18.454  11.199   3.545  0.1049 -0.3492 -0.3263
    1DPPC   C3B16895  18.324  11.314   3.974 -0.0688 -0.0088 -0.2647
    1DPPC   C4B16896  17.977  11.382   4.198 -0.0228  0.0803 -0.1277
    1DPPC   NC316897  27.176  17.487   3.597  0.1358  0.0657 -0.1067
    1DPPC   PO416898  26.840  17.753   3.631 -0.3170 -0.3169  0.2595
    1DPPC   GL116899  26.623  17.889   4.053 -0.0499  0.0060 -0.1088
    1DPPC   GL216900  26.278  17.715   4.137 -0.0136 -0.2092 -0.1335
    1DPPC   C1A16901  26.599  17.868   4.463 -0.2640  0.1325 -0.0138
    1DPPC   C2A16902  26.444  17.881   4.814 -0.0158 -0.1269  0.1077
    1DPPC   C3A16903  26.136  17.632   5.114  0.0484 -0.1341 -0.2633
    1DPPC   C4A16904  26.057  17.375   5.407 -0.0611  0.0715 -0.2101
    1DPPC   C1B16905  25.925  17.988   4.368 -0.3649 -0.0885  0.0395
    1DPPC   C2B16906  25.949  18.065   4.868  0.1767  0.0718 -0.0740
    1DPPC   C3B16907  25.942  17.967   5.387 -0.2442 -0.1631 -0.0656
    1DPPC   C4B16908  25.918  17.761   5.758  0.3647 -0.0484  0.2581
    1DPPC   NC316909   8.019   1.661   3.799  0.0173  0.0908 -0.0961
    1DPPC   PO416910   8.412   1.421   3.736  0.2066 -0.2463 -0.1504
    1DPPC   GL116911   8.360   0.965   3.934 -0.0832  0.4213 -0.1570
    1DPPC   GL216912   8.401   1.008   4.303 -0.1129 -0.1769 -0.0484
    1DPPC   C1A16913   8.618   0.569   4.226  0.0221  0.0114  0.2595
    1DPPC   C2A16914   8.489   0.207   4.293 -0.0960  0.0581 -0.0345
    1DPPC   C3A16915   8.588   0.126   4.638  0.1344  0.0381 -0.0538
    1DPPC   C4A16916   8.975   0.383   4.754  0.2023  0.1966 -0.0865
    1DPPC   C1B16917   8.799   0.913   4.531 -0.3457  0.0942  0.0629
    1DPPC   C2B16918   9.124   0.837   4.734  0.2256 -0.0539  0.0997
    1DPPC   C3B16919   9.453   0.831   5.113 -0.0634 -0.0406 -0.0557
    1DPPC   C4B16920   9.740   0.887   5.425 -0.0480  0.2633 -0.0463
    1DPPC   NC316921   5.673  14.032   2.903 -0.0297 -0.1278 -0.2866
    1DPPC   PO416922   5.334  13.684   2.961  0.0197  0.2256  0.2384
    1DPPC   GL116923   5.251  13.184   3.275  0.0780 -0.0214 -0.1705
    1DPPC   GL216924   5.416  12.892   3.238  0.0709 -0.0466 -0.2815
    1DPPC   C1A16925   5.291  13.229   3.762 -0.0763  0.0191  0.3018
    1DPPC   C2A16926   5.094  13.189   4.073  0.5533  0.1514  0.0631
    1DPPC   C3A16927   5.181  12.854   4.448  0.5190  0.1384 -0.0455
    1DPPC   C4A16928   5.115  12.416   4.749 -0.2358  0.0833  0.1411
    1DPPC   C1B16929   5.425  12.749   3.646 -0.3422  0.2996  0.2388
    1DPPC   C2B16930   5.537  12.980   4.111 -0.0424  0.4494  0.2896
    1DPPC   C3B16931   5.685  13.040   4.481  0.0556  0.2630 -0.0199
    1DPPC   C4B16932   6.161  13.288   4.506 -0.2001  0.3544 -0.3201
    1DPPC   NC316933  22.535  23.363   3.578 -0.0107 -0.1008 -0.1805
    1DPPC   PO416934  22.702  23.776   3.726 -0.0939  0.3665 -0.3173
    1DPPC   GL116935  22.752  24.056   4.000 -0.0516 -0.1595 -0.2253
    1DPPC   GL216936  22.471  23.940   4.146 -0.0081  0.2757 -0.0321
    1DPPC   C1A16937  22.999  24.247   4.425 -0.0452 -0.0981 -0.4259
    1DPPC   C2A16938  23.320  24.266   4.735  0.3323 -0.0140 -0.2445
    1DPPC   C3A16939  23.511  24.024   5.143  0.2298  0.0055  0.0199
    1DPPC   C4A16940  23.760  23.999   5.561 -0.3219  0.0277  0.4772
    1DPPC   C1B16941  22.549  24.086   4.585 -0.0735  0.0577 -0.1593
    1DPPC   C2B16942  22.438  24.257   4.965 -0.1543 -0.3279  0.1778
    1DPPC   C3B16943  22.208  24.293   5.353  0.4562 -0.1590  0.1076
    1DPPC   C4B16944  22.366  24.418   5.787  0.1311  0.2057 -0.0123
    1DPPC   NC316945  25.038   0.291   3.588  0.0501 -0.2495  0.0425
    1DPPC   PO416946  24.718   0.113   3.480 -0.2168 -0.1072 -0.1380
    1DPPC   GL116947  24.402   0.077   3.781 -0.2112  0.1843 -0.1410
    1DPPC   GL216948  24.330  -0.241   3.861 -0.0136  0.0322  0.0301
    1DPPC   C1A16949  24.346   0.300   4.182  0.1354  0.0623  0.0896
    1DPPC   C2A16950  24.108   0.318   4.507 -0.1117 -0.0745 -0.3005
    1DPPC   C3A16951  23.928   0.265   4.934  0.0505  0.2798  0.1985
    1DPPC   C4A16952  23.979   0.653   5.359 -0.2186  0.1148 -0.1022
    1DPPC   C1B16953  24.219  -0.127   4.303  0.1461 -0.0977 -0.0742
    1DPPC   C2B16954  24.125  -0.169   4.707  0.1622  0.0941  0.2132
    1DPPC   C3B16955  23.987  -0.180   5.178  0.1868  0.0565 -0.3344
    1DPPC   C4B16956  23.904  -0.072   5.599  0.0187 -0.0767 -0.0630
    1DPPC   NC316957  17.564  28.707   2.451 -0.0631 -0.3542  0.0808
    1DPPC   PO416958  17.859  28.835   2.813  0.0323  0.1269 -0.1819
    1DPPC   GL116959  17.813  28.947   3.178 -0.1315 -0.2091  0.1313
    1DPPC   GL216960  18.040  29.196   3.351 -0.0016  0.0187 -0.4332
    1DPPC   C1A16961  17.815  28.960   3.735  0.1492  0.3510  0.2110
    1DPPC   C2A16962  17.805  28.742   4.162 -0.0255  0.0137  0.0277
    1DPPC   C3A16963  17.800  28.692   4.606  0.0150 -0.0569  0.1187
    1DPPC   C4A16964  17.772  28.967   5.033  0.0336 -0.4126  0.0167
    1DPPC   C1B16965  18.094  29.388   3.697 -0.1242 -0.2532 -0.1027
    1DPPC   C2B16966  17.951  29.452   4.163  0.0124 -0.1758  0.0874
    1DPPC   C3B16967  17.710  29.201   4.467 -0.0480 -0.1400 -0.0390
    1DPPC   C4B16968  17.440  29.323   4.851  0.2255  0.1258 -0.0359
    1DPPC   NC316969  20.528  27.907   3.089  0.0177 -0.1358  0.2905
    1DPPC   PO416970  20.335  27.551   3.063 -0.1092  0.0692 -0.1971
    1DPPC   GL116971  20.329  27.597   3.512 -0.4756  0.2537 -0.0405
    1DPPC   GL216972  20.115  27.277   3.486 -0.1793 -0.0655 -0.0699
    1DPPC   C1A16973  20.391  27.541   3.888  0.3353 -0.3813 -0.2352
    1DPPC   C2A16974  20.219  27.461   4.240 -0.0819  0.1484  0.0840
    1DPPC   C3A16975  20.145  27.646   4.644 -0.2685  0.0501  0.0066
    1DPPC   C4A16976  19.893  27.796   4.945 -0.2206 -0.1694 -0.1394
    1DPPC   C1B16977  19.973  27.286   3.894 -0.2385 -0.1743  0.3602
    1DPPC   C2B16978  19.743  27.216   4.314  0.3830 -0.2300 -0.3053
    1DPPC   C3B16979  19.747  27.274   4.692 -0.1143  0.0908 -0.1802
    1DPPC   C4B16980  20.067  27.293   5.010 -0.0411 -0.0752 -0.1460
    1DPPC   NC316981  20.456  14.171   2.381 -0.1949 -0.0321  0.3064
    1DPPC   PO416982  20.156  14.436   2.699 -0.0271  0.0532  0.0494
    1DPPC   GL116983  20.433  14.412   3.123  0.3499 -0.3808  0.0369
    1DPPC   GL216984  20.211  14.574   3.378 -0.0319  0.1472 -0.0240
    1DPPC   C1A16985  20.568  14.263   3.516  0.4253 -0.0193  0.1548
    1DPPC   C2A16986  20.784  13.910   3.727 -0.0236 -0.3106 -0.0834
    1DPPC   C3A16987  20.844  13.770   4.048  0.1792  0.2101  0.0979
    1DPPC   C4A16988  21.143  13.976   4.322 -0.0308  0.0083 -0.1685
    1DPPC   C1B16989  20.238  14.664   3.843  0.0467  0.0040  0.1130
    1DPPC   C2B16990  19.842  14.568   4.118  0.2734  0.0449  0.1050
    1DPPC   C3B16991  19.792  14.454   4.464 -0.1386  0.0821  0.1247
    1DPPC   C4B16992  20.027  14.107   4.730  0.1838  0.3490 -0.2892
    1DPPC   NC316993  20.895   3.051   2.729 -0.0647 -0.0069  0.1129
    1DPPC   PO416994  20.780   2.644   2.889 -0.0990 -0.1054  0.0374
    1DPPC   GL116995  20.677   2.507   3.356  0.2339 -0.1699  0.1645
    1DPPC   GL216996  20.467   2.263   3.490  0.0692  0.1619  0.0988
    1DPPC   C1A16997  20.650   2.694   3.735 -0.0486  0.1704  0.3145
    1DPPC   C2A16998  20.679   2.770   4.166  0.2535  0.1493 -0.2193
    1DPPC   C3A16999  20.790   2.674   4.596 -0.1228  0.0481  0.2820
    1DPPC   C4A17000  21.071   2.554   5.065 -0.1655  0.1624  0.2838
    1DPPC   C1B17001  20.244   2.426   3.935 -0.0764  0.1495 -0.2789
    1DPPC   C2B17002  20.093   2.793   4.114  0.0508 -0.4262  0.3264
    1DPPC   C3B17003  20.346   3.036   4.411  0.3730  0.0584  0.1822
    1DPPC   C4B17004  20.530   3.332   4.435  0.0000 -0.1752  0.0872
    1DPPC   NC317005  14.505   4.664   1.732  0.1096 -0.0036 -0.0296
    1DPPC   PO417006  14.920   4.637   2.128  0.1556 -0.0513  0.1521
    1DPPC   GL117007  14.887   4.357   2.407  0.1245  0.2686 -0.0287
    1DPPC   GL217008  14.752   3.993   2.393 -0.0735 -0.2381  0.1040
    1DPPC   C1A17009  14.909   4.700   2.770  0.1352  0.0604 -0.0092
    1DPPC   C2A17010  15.207   4.913   3.027 -0.1830 -0.0272  0.0082
    1DPPC   C3A17011  15.243   4.948   3.390 -0.4996  0.3062 -0.0043
    1DPPC   C4A17012  15.240   5.118   3.774 -0.1256  0.1516  0.1262
    1DPPC   C1B17013  15.021   3.872   2.595 -0.0515  0.1976 -0.0522
    1DPPC   C2B17014  15.057   3.745   3.015 -0.0324 -0.2486 -0.0628
    1DPPC   C3B17015  15.008   3.571   3.448 -0.1180 -0.0685  0.2702
    1DPPC   C4B17016  14.885   3.449   3.827 -0.2278 -0.0660  0.3508
    1DPPC   NC317017  13.629  21.917   3.040 -0.1910 -0.0995 -0.1773
    1DPPC   PO417018  13.950  21.694   3.192 -0.0881  0.0200  0.1148
    1DPPC   GL117019  13.895  21.734   3.624  0.1003 -0.1118 -0.0402
    1DPPC   GL217020  14.196  21.935   3.638  0.0898  0.5590  0.0801
    1DPPC   C1A17021  14.059  21.547   3.976 -0.1801  0.0932  0.1835
    1DPPC   C2A17022  14.481  21.357   4.184  0.2126  0.0147  0.2857
    1DPPC   C3A17023  14.836  21.148   4.317  0.0800  0.2498 -0.0797
    1DPPC   C4A17024  15.015  20.721   4.414 -0.3372 -0.0159 -0.0888
    1DPPC   C1B17025  14.181  21.977   4.056  0.0133 -0.3439 -0.1662
    1DPPC   C2B17026  13.984  22.144   4.475 -0.0533 -0.1195 -0.2410
    1DPPC   C3B17027  13.723  22.492   4.630 -0.0243 -0.0409  0.2003
    1DPPC   C4B17028  13.699  22.799   4.928 -0.1474  0.2196 -0.1158
    1DPPC   NC317029  25.506   4.673   3.197 -0.0643 -0.2193  0.0153
    1DPPC   PO417030  25.842   4.491   3.554 -0.2371  0.0252  0.2345
    1DPPC   GL117031  25.933   4.626   3.972 -0.0324 -0.2632  0.1707
    1DPPC   GL217032  26.271   4.672   3.999 -0.1222 -0.1329 -0.1173
    1DPPC   C1A17033  25.816   4.688   4.456 -0.3492  0.1294 -0.1810
    1DPPC   C2A17034  25.458   4.610   4.575  0.2548 -0.1231 -0.0870
    1DPPC   C3A17035  24.952   4.450   4.543  0.1195 -0.0462  0.1796
    1DPPC   C4A17036  24.555   4.576   4.796 -0.3052 -0.2192 -0.0810
    1DPPC   C1B17037  26.317   4.789   4.452 -0.1626  0.2778 -0.2626
    1DPPC   C2B17038  26.445   4.650   4.843 -0.1724 -0.1438  0.0626
    1DPPC   C3B17039  26.274   4.368   5.199  0.2746 -0.0490  0.1885
    1DPPC   C4B17040  25.976   4.222   5.498  0.4107 -0.0231 -0.1915
    1DPPC   NC317041  23.976  28.183   2.971 -0.0432  0.1593  0.0690
    1DPPC   PO417042  24.070  28.630   2.773 -0.1864 -0.0207  0.3948
    1DPPC   GL117043  23.900  28.691   3.214  0.1140 -0.0456 -0.1329
    1DPPC   GL217044  24.017  28.899   3.423  0.1920 -0.5141  0.3471
    1DPPC   C1A17045  23.961  28.436   3.645  0.2089  0.1209 -0.1108
    1DPPC   C2A17046  24.017  28.271   3.988  0.1018  0.0982 -0.1875
    1DPPC   C3A17047  24.078  28.252   4.433  0.0058  0.0484  0.0399
    1DPPC   C4A17048  24.177  28.024   4.749  0.1959  0.0382  0.0067
    1DPPC   C1B17049  23.861  28.831   3.921 -0.0606  0.2285  0.0884
    1DPPC   C2B17050  23.762  28.870   4.374 -0.2176  0.3821 -0.2632
    1DPPC   C3B17051  23.602  28.789   4.788 -0.0853 -0.1508 -0.0762
    1DPPC   C4B17052  23.187  28.806   5.034 -0.0979  0.1965  0.3002
    1DPPC   NC317053  16.705   7.620   1.603 -0.2075 -0.2599  0.0623
    1DPPC   PO417054  17.151   7.411   1.519  0.2548  0.1316 -0.0195
    1DPPC   GL117055  17.062   7.457   1.928 -0.3200 -0.1371  0.0227
    1DPPC   GL217056  17.370   7.482   2.103  0.0236 -0.0446  0.2704
    1DPPC   C1A17057  16.921   7.184   2.305 -0.0907 -0.0316 -0.1617
    1DPPC   C2A17058  16.732   6.873   2.416  0.2039 -0.0282  0.1459
    1DPPC   C3A17059  16.459   6.498   2.479 -0.0672  0.3227  0.1325
    1DPPC   C4A17060  16.382   6.181   2.798  0.1934 -0.0585 -0.2282
    1DPPC   C1B17061  17.549   7.452   2.466  0.1163  0.0374 -0.0542
    1DPPC   C2B17062  17.608   7.164   2.827 -0.1966  0.0379 -0.0785
    1DPPC   C3B17063  17.872   6.906   3.177  0.2385 -0.0105 -0.3153
    1DPPC   C4B17064  17.978   6.675   3.552 -0.3059  0.1100 -0.2323
    1DPPC   NC317065  26.423   1.834   3.650  0.0072  0.1544  0.0696
    1DPPC   PO417066  26.588   2.224   3.847 -0.0078 -0.1398 -0.1198
    1DPPC   GL117067  26.725   2.203   4.259  0.0532  0.3501  0.1729
    1DPPC   GL217068  26.924   2.345   4.345  0.4625  0.1420  0.1587
    1DPPC   C1A17069  26.587   1.881   4.647 -0.1923 -0.1399 -0.0648
    1DPPC   C2A17070  26.717   1.949   5.068  0.2794  0.1842 -0.0216
    1DPPC   C3A17071  26.767   1.788   5.465 -0.1373  0.1597 -0.0508
    1DPPC   C4A17072  26.975   1.496   5.844 -0.1145 -0.0853  0.0017
    1DPPC   C1B17073  27.053   2.098   4.634 -0.0944 -0.0416 -0.0146
    1DPPC   C2B17074  27.240   2.053   5.091  0.0015 -0.3696  0.1699
    1DPPC   C3B17075  27.254   1.871   5.528 -0.0147  0.3378  0.0506
    1DPPC   C4B17076  27.583   1.920   5.722  0.0321 -0.0345  0.2068
    1DPPC   NC317077   0.288  28.429   4.190 -0.1209  0.0925  0.0806
    1DPPC   PO417078   0.390  28.896   4.215 -0.2816 -0.0651  0.1788
    1DPPC   GL117079   0.581  29.136   4.541  0.2343  0.0542 -0.0532
    1DPPC   GL217080   0.860  28.928   4.497 -0.0597 -0.0376  0.3906
    1DPPC   C1A17081   0.674  29.354   4.935  0.0046 -0.1380  0.2124
    1DPPC   C2A17082   0.685  29.393   5.429 -0.0932 -0.0328  0.1864
    1DPPC   C3A17083   0.528  29.602   5.852  0.0812  0.1865 -0.0065
    1DPPC   C4A17084   0.402  29.989   5.933 -0.2493 -0.0930 -0.0030
    1DPPC   C1B17085   1.016  29.004   4.957  0.1686  0.3730 -0.0521
    1DPPC   C2B17086   1.156  29.321   5.289 -0.1820  0.2458  0.1564
    1DPPC   C3B17087   1.100  29.404   5.668 -0.2175 -0.2339 -0.1219
    1DPPC   C4B17088   1.037  29.628   5.957  0.1223 -0.1779  0.1526
    1DPPC   NC317089  24.164   0.263   2.771 -0.0041  0.1035  0.0724
    1DPPC   PO417090  24.256   0.476   3.128  0.0204 -0.0806  0.3537
    1DPPC   GL117091  24.214   0.559   3.504  0.1958  0.1473  0.0239
    1DPPC   GL217092  24.641   0.622   3.551 -0.1155  0.2682 -0.2971
    1DPPC   C1A17093  23.983   0.428   3.841  0.1767 -0.0483 -0.1866
    1DPPC   C2A17094  23.711   0.520   4.118  0.1879 -0.1087  0.0625
    1DPPC   C3A17095  23.620   0.436   4.461 -0.2649  0.0645  0.0359
    1DPPC   C4A17096  23.284   0.328   4.759 -0.1441 -0.3445 -0.1061
    1DPPC   C1B17097  24.541   0.736   4.019 -0.2284  0.1045 -0.1937
    1DPPC   C2B17098  24.492   0.687   4.467  0.0005 -0.2016  0.1843
    1DPPC   C3B17099  24.473   0.481   4.912 -0.3838 -0.1101 -0.2102
    1DPPC   C4B17100  24.527   0.744   5.293  0.0613 -0.0512 -0.0822
    1DPPC   NC317101  19.947  27.226   3.029 -0.1301 -0.1210 -0.2612
    1DPPC   PO417102  20.188  26.860   3.164  0.1242  0.1580  0.1297
    1DPPC   GL117103  19.832  26.906   3.452  0.2292 -0.2351 -0.0702
    1DPPC   GL217104  19.560  27.227   3.426  0.0926  0.2006 -0.0460
    1DPPC   C1A17105  19.796  26.784   3.928  0.2912 -0.0441  0.2491
    1DPPC   C2A17106  19.923  26.744   4.352  0.1494  0.1918  0.0339
    1DPPC   C3A17107  20.024  26.783   4.683  0.0546 -0.1698  0.0929
    1DPPC   C4A17108  20.274  26.771   5.112 -0.0302 -0.2107 -0.2131
    1DPPC   C1B17109  19.484  27.153   3.852 -0.3000 -0.2421  0.0845
    1DPPC   C2B17110  19.299  27.269   4.172  0.0804 -0.0549 -0.0871
    1DPPC   C3B17111  19.236  27.347   4.533 -0.0642  0.2963 -0.0208
    1DPPC   C4B17112  19.116  27.528   4.963  0.0132 -0.3062  0.1144
    1DPPC   NC317113  18.088  13.017   2.505 -0.0333 -0.0884  0.1442
    1DPPC   PO417114  17.683  12.857   2.371  0.1228  0.0322  0.0243
    1DPPC   GL117115  17.596  12.968   2.745  0.3477  0.2374  0.0175
    1DPPC   GL217116  17.290  13.019   2.754 -0.1597  0.0360  0.1310
    1DPPC   C1A17117  17.631  12.898   3.265 -0.0224  0.2144 -0.0599
    1DPPC   C2A17118  17.654  12.757   3.641 -0.0221 -0.3439 -0.1542
    1DPPC   C3A17119  17.453  12.669   3.996  0.2508  0.0577 -0.2113
    1DPPC   C4A17120  17.536  12.790   4.450 -0.0657  0.0409 -0.2828
    1DPPC   C1B17121  17.224  13.165   3.080 -0.0555 -0.2115  0.0242
    1DPPC   C2B17122  17.208  12.958   3.440  0.2836 -0.1519  0.5929
    1DPPC   C3B17123  17.020  12.936   3.848 -0.0673  0.0986 -0.3163
    1DPPC   C4B17124  17.081  13.045   4.286 -0.2121  0.2483 -0.0072
    1DPPC   NC317125   2.781  10.546   3.093  0.4559  0.0978 -0.0530
    1DPPC   PO417126   2.722  10.207   3.410  0.0520 -0.1274 -0.0851
    1DPPC   GL117127   3.031  10.393   3.673 -0.2633  0.1117 -0.0274
    1DPPC   GL217128   2.769  10.568   3.819  0.0238 -0.0749  0.2035
    1DPPC   C1A17129   3.305  10.606   3.837  0.0664  0.2784 -0.3709
    1DPPC   C2A17130   3.409  10.677   4.209 -0.0206 -0.3975  0.1302
    1DPPC   C3A17131   3.384  10.653   4.660 -0.2198 -0.0321  0.2354
    1DPPC   C4A17132   3.471  10.624   5.062  0.1848  0.0566 -0.1067
    1DPPC   C1B17133   2.863  10.503   4.275  0.0321 -0.3077  0.2860
    1DPPC   C2B17134   2.901  10.524   4.690  0.1343 -0.0744  0.0750
    1DPPC   C3B17135   2.996  10.544   5.140  0.0331  0.1086  0.1687
    1DPPC   C4B17136   3.089  10.848   5.417 -0.1328 -0.2071 -0.0353
    1DPPC   NC317137  16.999  28.232   2.463  0.3160  0.1962  0.1084
    1DPPC   PO417138  17.226  28.414   2.547 -0.0780 -0.0386  0.0177
    1DPPC   GL117139  17.490  28.227   2.966 -0.1444  0.0095  0.0544
    1DPPC   GL217140  17.350  28.290   3.340  0.0005  0.0651  0.0267
    1DPPC   C1A17141  17.699  27.974   3.292  0.2601 -0.1944 -0.0123
    1DPPC   C2A17142  17.571  27.876   3.759 -0.0680  0.2176 -0.0387
    1DPPC   C3A17143  17.365  27.896   4.184 -0.2091 -0.1316 -0.1207
    1DPPC   C4A17144  17.378  27.777   4.556 -0.0946 -0.1658 -0.1617
    1DPPC   C1B17145  17.151  28.246   3.769 -0.2234  0.0710 -0.0674
    1DPPC   C2B17146  16.949  28.372   4.168  0.2740 -0.0427  0.0147
    1DPPC   C3B17147  16.515  28.188   4.411  0.1788 -0.2224  0.3991
    1DPPC   C4B17148  16.194  28.348   4.455  0.2562 -0.0203  0.0310
    1DPPC   NC317149  24.467  27.633   3.555 -0.1149 -0.2630  0.0757
    1DPPC   PO417150  24.390  27.215   3.463 -0.0832 -0.0482 -0.1903
    1DPPC   GL117151  24.027  27.180   3.714 -0.5899  0.1773  0.3068
    1DPPC   GL217152  24.165  27.450   3.943  0.0492 -0.0609  0.2289
    1DPPC   C1A17153  23.681  27.036   4.019 -0.2027 -0.2457  0.0750
    1DPPC   C2A17154  23.734  26.833   4.325 -0.1317  0.3506 -0.0438
    1DPPC   C3A17155  23.683  26.818   4.696  0.2597 -0.1287 -0.2362
    1DPPC   C4A17156  23.492  26.751   5.101 -0.1186  0.0930 -0.3955
    1DPPC   C1B17157  24.147  27.092   4.218  0.1219 -0.2245  0.2226
    1DPPC   C2B17158  24.121  27.103   4.699  0.1064  0.1052 -0.0253
    1DPPC   C3B17159  23.970  27.033   5.119  0.2228  0.3439  0.2469
    1DPPC   C4B17160  23.704  27.076   5.482  0.2627  0.0352  0.0678
    1DPPC   NC317161  21.979  27.084   3.024  0.1773 -0.0483 -0.1114
    1DPPC   PO417162  21.613  27.044   3.233  0.4605 -0.1710  0.1090
    1DPPC   GL117163  21.830  27.307   3.539  0.0817  0.0649  0.0430
    1DPPC   GL217164  21.649  27.529   3.562  0.1581  0.1454 -0.0897
    1DPPC   C1A17165  22.144  27.471   3.841 -0.2281  0.4377 -0.1353
    1DPPC   C2A17166  22.346  27.506   4.262 -0.0972 -0.0068 -0.1534
    1DPPC   C3A17167  22.390  27.905   4.550  0.0643 -0.2234  0.0708
    1DPPC   C4A17168  22.700  28.118   4.814 -0.3164  0.0767 -0.0644
    1DPPC   C1B17169  21.752  27.760   3.867 -0.2196 -0.0192  0.0135
    1DPPC   C2B17170  21.743  27.731   4.285  0.2266 -0.4914 -0.3268
    1DPPC   C3B17171  21.567  27.883   4.745  0.0317  0.3785  0.0359
    1DPPC   C4B17172  21.693  28.296   4.936  0.0254 -0.1332  0.0575
    1DPPC   NC317173  24.235  27.015   3.053 -0.1921  0.0217 -0.1683
    1DPPC   PO417174  23.823  27.079   3.197  0.0908  0.1842  0.0924
    1DPPC   GL117175  23.461  26.990   3.581 -0.0033 -0.3146  0.0171
    1DPPC   GL217176  23.131  27.081   3.580 -0.0082  0.2070 -0.1307
    1DPPC   C1A17177  23.299  26.704   3.854  0.2497 -0.1977  0.0218
    1DPPC   C2A17178  23.208  26.685   4.231  0.0498 -0.0154 -0.2246
    1DPPC   C3A17179  23.122  26.686   4.648 -0.0920 -0.0132 -0.0666
    1DPPC   C4A17180  22.867  26.645   5.050 -0.1002  0.1563 -0.1102
    1DPPC   C1B17181  22.952  27.141   3.958 -0.3057  0.0927  0.2448
    1DPPC   C2B17182  22.784  27.160   4.393 -0.0300  0.2736 -0.1886
    1DPPC   C3B17183  22.679  27.474   4.678 -0.0148 -0.1449 -0.3078
    1DPPC   C4B17184  22.469  27.572   5.034  0.1664 -0.0707  0.2835
    1DPPC   NC317185  27.869  21.896   4.137 -0.0023  0.0971 -0.0344
    1DPPC   PO417186  27.458  21.865   3.961 -0.0828 -0.0292 -0.1412
    1DPPC   GL117187  27.297  21.850   4.400  0.0277  0.3591 -0.1805
    1DPPC   GL217188  27.503  21.638   4.434 -0.2545  0.3634 -0.0838
    1DPPC   C1A17189  27.111  22.136   4.709  0.1491 -0.3012  0.1946
    1DPPC   C2A17190  26.986  22.219   5.109  0.1921 -0.1128 -0.0689
    1DPPC   C3A17191  26.959  22.529   5.514  0.1435  0.1425  0.1988
    1DPPC   C4A17192  26.763  22.723   5.926 -0.1023  0.1219 -0.2883
    1DPPC   C1B17193  27.432  21.619   4.910 -0.2254  0.1986  0.3706
    1DPPC   C2B17194  27.341  21.285   5.300  0.0840  0.0182  0.1822
    1DPPC   C3B17195  27.409  21.234   5.693 -0.0085  0.0698  0.0752
    1DPPC   C4B17196  27.574  20.957   5.905 -0.1476 -0.2072  0.1976
    1DPPC   NC317197  25.646  27.083   3.324  0.0780  0.0394 -0.1683
    1DPPC   PO417198  26.045  27.000   3.633 -0.0199 -0.1838 -0.2988
    1DPPC   GL117199  25.884  27.093   4.055  0.0624 -0.0177 -0.0759
    1DPPC   GL217200  25.612  26.980   4.129  0.1363 -0.2871 -0.0430
    1DPPC   C1A17201  25.995  27.153   4.533  0.0296 -0.0113  0.2221
    1DPPC   C2A17202  25.816  27.110   4.875  0.2078 -0.1171 -0.2870
    1DPPC   C3A17203  25.384  27.186   5.141  0.0939  0.2849 -0.3009
    1DPPC   C4A17204  25.137  27.005   5.498  0.2369 -0.1730  0.0681
    1DPPC   C1B17205  25.565  26.725   4.547  0.1779  0.0530 -0.0638
    1DPPC   C2B17206  25.489  26.697   4.986  0.1734 -0.0232 -0.1765
    1DPPC   C3B17207  25.442  26.674   5.406  0.1523  0.1415 -0.0137
    1DPPC   C4B17208  25.468  26.448   5.808  0.1678  0.2109 -0.1128
    1DPPC   NC317209  13.366  21.184   2.923  0.0547  0.0819  0.0384
    1DPPC   PO417210  13.835  20.974   2.826 -0.2516  0.1071 -0.0457
    1DPPC   GL117211  13.926  20.917   3.225 -0.3343  0.1623 -0.2279
    1DPPC   GL217212  13.851  21.196   3.368  0.0746 -0.0194  0.0726
    1DPPC   C1A17213  14.003  20.925   3.779 -0.0693 -0.0839  0.3001
    1DPPC   C2A17214  14.005  21.100   4.138 -0.2213  0.0236  0.1916
    1DPPC   C3A17215  13.841  21.356   4.498  0.1698  0.0100 -0.5004
    1DPPC   C4A17216  13.558  21.327   4.849 -0.1618  0.4350 -0.1576
    1DPPC   C1B17217  13.645  21.350   3.767 -0.0519 -0.0850  0.2379
    1DPPC   C2B17218  13.504  21.156   4.065  0.0899  0.0874 -0.0164
    1DPPC   C3B17219  13.573  20.770   4.053 -0.0103  0.0080  0.0500
    1DPPC   C4B17220  13.376  20.433   4.009  0.1804 -0.0587  0.3480
    1DPPC   NC317221  24.805   3.976   3.244 -0.0299 -0.2195  0.0986
    1DPPC   PO417222  24.476   3.728   3.310 -0.1657  0.1223  0.0996
    1DPPC   GL117223  24.285   3.878   3.701  0.0336 -0.1166  0.0624
    1DPPC   GL217224  23.995   4.072   3.803 -0.0499 -0.0271 -0.1504
    1DPPC   C1A17225  24.422   4.082   4.040 -0.0906  0.5158  0.0017
    1DPPC   C2A17226  24.396   4.201   4.485 -0.2017 -0.1031  0.1061
    1DPPC   C3A17227  24.158   4.203   4.858 -0.1790  0.3034  0.0338
    1DPPC   C4A17228  24.220   4.320   5.169  0.0847 -0.1409  0.2014
    1DPPC   C1B17229  23.933   4.072   4.284  0.0642 -0.0183  0.0431
    1DPPC   C2B17230  23.783   4.316   4.601  0.2416  0.0540 -0.1760
    1DPPC   C3B17231  23.577   4.285   5.018  0.2380 -0.0980 -0.4677
    1DPPC   C4B17232  23.497   4.352   5.475  0.1803 -0.1408  0.1481
    1DPPC   NC317233  27.642  19.241   3.455  0.2047 -0.2875 -0.1613
    1DPPC   PO417234  27.839  19.564   3.727 -0.5790  0.2027 -0.1924
    1DPPC   GL117235  27.777  19.712   4.145  0.0940 -0.0931 -0.0002
    1DPPC   GL217236  27.800  19.959   4.363  0.2437 -0.3232 -0.1358
    1DPPC   C1A17237  27.380  19.718   4.410  0.1573  0.2253  0.2163
    1DPPC   C2A17238  27.207  19.797   4.815 -0.0975 -0.0132 -0.2171
    1DPPC   C3A17239  27.068  19.620   5.197 -0.0051 -0.1558 -0.1188
    1DPPC   C4A17240  26.845  19.490   5.593 -0.0063  0.0366  0.2438
    1DPPC   C1B17241  27.618  20.057   4.744  0.1223 -0.3288 -0.1302
    1DPPC   C2B17242  27.391  20.180   5.041  0.2761 -0.2467  0.0628
    1DPPC   C3B17243  27.104  20.337   5.457  0.0398  0.1010  0.0636
    1DPPC   C4B17244  27.108  20.775   5.553  0.4130 -0.0906  0.1165
    1DPPC   NC317245  28.520   3.314   4.166 -0.1903 -0.0292 -0.2763
    1DPPC   PO417246  28.058   3.142   3.980  0.1582  0.1103 -0.0227
    1DPPC   GL117247  28.107   3.128   4.412  0.2851  0.0776 -0.0830
    1DPPC   GL217248  27.924   3.215   4.596  0.2276  0.0374  0.0658
    1DPPC   C1A17249  28.267   3.120   4.912  0.4059  0.1545  0.0608
    1DPPC   C2A17250  28.131   3.131   5.321 -0.1111  0.0184  0.0097
    1DPPC   C3A17251  28.058   3.343   5.690  0.1720 -0.5304 -0.4801
    1DPPC   C4A17252  27.981   3.615   6.098  0.1802 -0.3265  0.1057
    1DPPC   C1B17253  27.824   2.806   4.855 -0.0591 -0.3708 -0.0893
    1DPPC   C2B17254  27.846   2.658   5.292  0.1509  0.2130 -0.3392
    1DPPC   C3B17255  28.100   2.706   5.675 -0.2879  0.2016 -0.3983
    1DPPC   C4B17256  28.122   2.740   6.057  0.1080  0.1207 -0.1127
    1DPPC   NC317257   6.421  16.065   1.983 -0.4625  0.0729 -0.1520
    1DPPC   PO417258   5.930  15.928   2.136 -0.1798  0.0915 -0.1486
    1DPPC   GL117259   6.134  16.009   2.649 -0.1894 -0.2269 -0.0964
    1DPPC   GL217260   6.115  16.313   2.729 -0.2753 -0.1079 -0.1045
    1DPPC   C1A17261   6.586  15.817   2.852  0.2741  0.1005 -0.0939
    1DPPC   C2A17262   7.027  15.675   3.090  0.0235 -0.0493 -0.2858
    1DPPC   C3A17263   7.434  15.714   3.282  0.0419  0.0838 -0.2636
    1DPPC   C4A17264   7.846  15.846   3.260 -0.4940  0.2525  0.1320
    1DPPC   C1B17265   6.518  16.315   3.013  0.0170  0.1809  0.0387
    1DPPC   C2B17266   6.899  16.253   3.215 -0.0652  0.2691 -0.1729
    1DPPC   C3B17267   7.220  16.091   3.458 -0.1513 -0.0665 -0.1621
    1DPPC   C4B17268   7.624  16.016   3.730  0.2913 -0.2392 -0.4492
    1DPPC   NC317269  22.367  25.428   2.993 -0.0206  0.2796  0.0443
    1DPPC   PO417270  22.045  25.734   2.999  0.1438  0.0160 -0.1882
    1DPPC   GL117271  22.054  26.038   3.438  0.1875  0.3570  0.0600
    1DPPC   GL217272  22.061  26.394   3.428  0.1843  0.1347  0.0840
    1DPPC   C1A17273  22.069  25.911   3.887  0.0819 -0.1990  0.1625
    1DPPC   C2A17274  22.014  25.716   4.274  0.0426 -0.1030  0.0069
    1DPPC   C3A17275  21.865  25.695   4.621 -0.1175 -0.1510 -0.0349
    1DPPC   C4A17276  21.790  25.545   5.093 -0.3007  0.2169  0.0084
    1DPPC   C1B17277  21.875  26.382   3.880  0.1075  0.0463  0.0168
    1DPPC   C2B17278  21.896  26.201   4.262  0.2292 -0.0953 -0.1171
    1DPPC   C3B17279  21.855  26.209   4.625  0.1157 -0.3196  0.0752
    1DPPC   C4B17280  21.961  25.980   5.050 -0.2036 -0.3764 -0.2752
    1DPPC   NC317281  20.162   4.342   2.350  0.0893 -0.0293  0.0450
    1DPPC   PO417282  20.521   4.012   2.394 -0.1620  0.0064 -0.0528
    1DPPC   GL117283  20.325   3.898   2.819 -0.2570 -0.1180 -0.3532
    1DPPC   GL217284  20.475   3.712   3.047 -0.3405 -0.0080 -0.0549
    1DPPC   C1A17285  20.029   3.924   3.148  0.0215 -0.1328  0.1574
    1DPPC   C2A17286  20.030   4.058   3.418 -0.1161 -0.1498 -0.0699
    1DPPC   C3A17287  20.188   3.975   3.814  0.0286  0.2662 -0.0105
    1DPPC   C4A17288  20.426   3.641   4.007  0.1681  0.2822 -0.2607
    1DPPC   C1B17289  20.443   3.724   3.504 -0.0188  0.2403  0.2841
    1DPPC   C2B17290  20.721   4.007   3.858 -0.3168 -0.0433  0.1261
    1DPPC   C3B17291  20.902   4.245   4.266  0.0630 -0.1612 -0.2402
    1DPPC   C4B17292  20.916   4.669   4.321  0.0978 -0.0376  0.4546
    1DPPC   NC317293  25.780   5.395   3.801  0.1424  0.0825  0.2732
    1DPPC   PO417294  25.456   5.389   3.531 -0.2246  0.3603 -0.0967
    1DPPC   GL117295  25.326   5.280   3.922  0.0153  0.1828 -0.0233
    1DPPC   GL217296  24.941   5.516   3.773  0.0549 -0.0148  0.2426
    1DPPC   C1A17297  25.185   5.337   4.368  0.0150 -0.1490  0.0357
    1DPPC   C2A17298  25.275   5.144   4.692 -0.0895  0.1665  0.0656
    1DPPC   C3A17299  25.178   5.268   5.143  0.0462  0.3373  0.2392
    1DPPC   C4A17300  25.055   5.593   5.428 -0.2877  0.1280 -0.2271
    1DPPC   C1B17301  24.652   5.378   4.093 -0.1750  0.3514  0.0489
    1DPPC   C2B17302  24.632   5.125   4.428  0.3081 -0.0047  0.1054
    1DPPC   C3B17303  24.779   5.063   4.839 -0.3117 -0.2305  0.0882
    1DPPC   C4B17304  25.126   4.743   4.957  0.2141 -0.0650  0.2083
    1DPPC   NC317305  24.285   2.692   3.283  0.3656  0.1516 -0.1151
    1DPPC   PO417306  24.690   2.588   3.360  0.2068  0.0235 -0.1121
    1DPPC   GL117307  24.648   2.901   3.626 -0.1720  0.3102  0.0275
    1DPPC   GL217308  24.324   2.927   3.697 -0.0131  0.2703  0.0643
    1DPPC   C1A17309  24.758   3.054   4.001 -0.1264  0.2219 -0.1344
    1DPPC   C2A17310  24.618   3.050   4.410 -0.2584  0.1386  0.0370
    1DPPC   C3A17311  24.453   3.208   4.707 -0.0703 -0.0561 -0.2715
    1DPPC   C4A17312  24.327   3.358   5.266  0.0919  0.0527  0.3119
    1DPPC   C1B17313  24.218   3.105   4.098 -0.0575 -0.3140  0.4430
    1DPPC   C2B17314  24.058   3.222   4.390  0.0749  0.1225  0.0741
    1DPPC   C3B17315  23.919   3.397   4.779 -0.2635 -0.2959  0.0868
    1DPPC   C4B17316  23.809   3.855   4.859  0.1247 -0.0460 -0.0495
    1DPPC   NC317317  23.966  25.794   3.193 -0.1882 -0.0831 -0.0965
    1DPPC   PO417318  23.589  25.895   3.414 -0.0757  0.1349  0.0987
    1DPPC   GL117319  23.374  26.298   3.606  0.0618  0.0196  0.2828
    1DPPC   GL217320  22.966  26.368   3.602  0.2742 -0.0151  0.0471
    1DPPC   C1A17321  23.123  26.242   4.026  0.2072  0.1839 -0.1106
    1DPPC   C2A17322  22.948  26.248   4.412 -0.3058  0.0538 -0.0535
    1DPPC   C3A17323  22.764  26.186   4.870  0.0274 -0.1407 -0.3740
    1DPPC   C4A17324  22.684  25.982   5.313 -0.0060  0.1459 -0.2798
    1DPPC   C1B17325  22.798  26.605   3.920 -0.2569  0.0758  0.2764
    1DPPC   C2B17326  22.718  26.687   4.275 -0.0871  0.1014  0.2010
    1DPPC   C3B17327  22.547  26.558   4.622  0.0823  0.3458  0.0780
    1DPPC   C4B17328  22.278  26.360   4.938 -0.0184  0.1641  0.2092
    1DIPC   NC317329   5.597  17.775   3.362  0.2269  0.1030 -0.0108
    1DIPC   PO417330   5.189  17.708   3.373  0.0348  0.1235 -0.1258
    1DIPC   GL117331   5.146  17.636   3.783 -0.4046 -0.1037 -0.1024
    1DIPC   GL217332   4.865  17.600   3.843 -0.0490 -0.0658  0.2592
    1DIPC   C1A17333   5.455  17.723   3.974 -0.1357 -0.0333 -0.1900
    1DIPC   D2A17334   5.643  18.047   3.805 -0.1627 -0.3292  0.0041
    1DIPC   D3A17335   5.901  18.229   4.140 -0.0940  0.2779 -0.1469
    1DIPC   C4A17336   6.183  17.908   4.054  0.0225  0.2497  0.0443
    1DIPC   C1B17337   4.884  17.609   4.292 -0.1929 -0.0203  0.0643
    1DIPC   D2B17338   4.887  17.661   4.695 -0.2069 -0.1803 -0.2052
    1DIPC   D3B17339   4.831  17.363   5.017  0.0162 -0.0423 -0.2203
    1DIPC   C4B17340   4.785  17.302   5.395 -0.0671 -0.0719  0.0030
    1DIPC   NC317341   1.387  14.553   3.500 -0.0471 -0.0915  0.1462
    1DIPC   PO417342   1.775  14.370   3.396  0.1699 -0.0890 -0.2668
    1DIPC   GL117343   1.548  14.111   3.694  0.0931  0.2986  0.0418
    1DIPC   GL217344   1.816  14.029   3.824 -0.2388  0.0684 -0.1060
    1DIPC   C1A17345   1.368  13.929   4.004  0.2546  0.0203 -0.0211
    1DIPC   D2A17346   1.376  13.770   4.365  0.1408 -0.0515  0.0677
    1DIPC   D3A17347   0.991  13.925   4.717 -0.0260  0.1636  0.0729
    1DIPC   C4A17348   0.794  13.564   5.069 -0.0087 -0.3015  0.1464
    1DIPC   C1B17349   1.732  14.194   4.262 -0.0073 -0.0343  0.0630
    1DIPC   D2B17350   1.927  14.466   4.689  0.2925 -0.3349 -0.0610
    1DIPC   D3B17351   2.022  14.217   5.023 -0.4511 -0.0028 -0.4395
    1DIPC   C4B17352   1.900  14.298   5.477  0.1120 -0.0918  0.0283
    1DIPC   NC317353  12.359   7.546   1.992 -0.1872 -0.0954  0.2133
    1DIPC   PO417354  12.101   7.696   2.024 -0.2004 -0.0333  0.1896
    1DIPC   GL117355  11.988   7.543   2.381  0.1834 -0.0871  0.2418
    1DIPC   GL217356  11.852   7.843   2.473  0.1330  0.1741  0.0697
    1DIPC   C1A17357  11.845   7.457   2.801 -0.1404 -0.1623  0.2399
    1DIPC   D2A17358  11.930   7.510   3.201  0.0123 -0.2507  0.0034
    1DIPC   D3A17359  12.140   7.105   3.191 -0.2217 -0.0925 -0.0156
    1DIPC   C4A17360  12.340   7.001   3.631  0.1117 -0.1235 -0.0018
    1DIPC   C1B17361  11.783   7.985   2.905  0.2045 -0.3431 -0.2016
    1DIPC   D2B17362  12.003   8.028   3.232 -0.0624  0.2362  0.1592
    1DIPC   D3B17363  12.089   8.150   3.642 -0.0794  0.0210 -0.4392
    1DIPC   C4B17364  12.168   7.901   3.974  0.1017  0.2726  0.1780
    1DIPC   NC317365  17.653  14.142   2.069  0.0557 -0.2759  0.0674
    1DIPC   PO417366  17.670  14.528   2.343  0.0528 -0.1822 -0.3017
    1DIPC   GL117367  17.561  14.457   2.785  0.0278 -0.0561  0.0138
    1DIPC   GL217368  17.320  14.489   2.980 -0.1410 -0.2289 -0.0090
    1DIPC   C1A17369  17.694  14.129   3.021  0.1583  0.2113 -0.4294
    1DIPC   D2A17370  18.060  14.098   3.005 -0.0782  0.2113  0.2224
    1DIPC   D3A17371  17.892  13.738   3.260  0.2767  0.1448 -0.3321
    1DIPC   C4A17372  17.797  13.676   3.727  0.0355  0.0632  0.1696
    1DIPC   C1B17373  17.600  14.531   3.284 -0.1151 -0.1441 -0.0993
    1DIPC   D2B17374  17.608  14.593   3.705 -0.2248 -0.1167  0.1301
    1DIPC   D3B17375  18.013  14.563   3.858  0.0876 -0.0506 -0.2097
    1DIPC   C4B17376  18.264  14.446   4.255  0.0695  0.1772  0.2845
    1DIPC   NC317377  23.832  11.068   2.543  0.0532  0.0415 -0.2085
    1DIPC   PO417378  24.027  11.226   2.893 -0.2886  0.0372 -0.0625
    1DIPC   GL117379  23.718  10.985   3.032  0.0032  0.0858  0.2150
    1DIPC   GL217380  23.754  10.677   2.928 -0.3035 -0.0516  0.1247
    1DIPC   C1A17381  23.739  10.811   3.399 -0.1150 -0.1955  0.2424
    1DIPC   D2A17382  23.742  10.762   3.865 -0.0848 -0.0599 -0.1052
    1DIPC   D3A17383  23.625  10.296   4.067 -0.0837 -0.1019 -0.0286
    1DIPC   C4A17384  23.452  10.326   4.472 -0.0843 -0.1957 -0.3281
    1DIPC   C1B17385  23.490  10.405   3.151  0.3300  0.3442  0.0594
    1DIPC   D2B17386  23.588  10.326   3.554 -0.0785  0.1053 -0.1193
    1DIPC   D3B17387  23.241  10.062   3.667 -0.0956 -0.3924  0.0531
    1DIPC   C4B17388  23.165  10.124   4.156 -0.0518  0.0200 -0.0696
    1DIPC   NC317389   1.821   8.223   2.677  0.2198  0.0083  0.1670
    1DIPC   PO417390   2.078   8.470   3.029  0.1548 -0.0597 -0.1252
    1DIPC   GL117391   2.189   8.220   3.415  0.2030  0.0800 -0.1775
    1DIPC   GL217392   2.241   8.415   3.729  0.2186 -0.2341 -0.0212
    1DIPC   C1A17393   2.569   8.028   3.583 -0.1464  0.1135 -0.0758
    1DIPC   D2A17394   2.811   7.898   3.977 -0.3600 -0.0409 -0.2204
    1DIPC   D3A17395   2.988   7.435   4.083 -0.2394 -0.2297  0.2782
    1DIPC   C4A17396   2.848   7.329   4.513 -0.1474 -0.1885  0.1656
    1DIPC   C1B17397   2.310   8.070   3.992 -0.2670 -0.0256 -0.1703
    1DIPC   D2B17398   2.440   7.596   4.112 -0.2267 -0.1783  0.0522
    1DIPC   D3B17399   2.711   7.795   4.474  0.3950 -0.2481 -0.0353
    1DIPC   C4B17400   3.062   8.101   4.477  0.1588 -0.1695 -0.0339
    1DIPC   NC317401   3.059   1.141   4.034  0.1371 -0.2241 -0.0266
    1DIPC   PO417402   2.643   0.886   4.231  0.0089  0.3611  0.0695
    1DIPC   GL117403   2.831   0.819   4.662 -0.0377 -0.2451 -0.2197
    1DIPC   GL217404   2.616   0.821   4.923 -0.3936 -0.1394  0.2234
    1DIPC   C1A17405   3.086   0.780   5.087 -0.0626 -0.0608 -0.2001
    1DIPC   D2A17406   3.278   0.740   5.518 -0.0359 -0.1284  0.1531
    1DIPC   D3A17407   2.962   0.842   5.621 -0.1627  0.1905 -0.2790
    1DIPC   C4A17408   2.778   1.070   5.377  0.0888 -0.0741  0.2647
    1DIPC   C1B17409   2.320   1.015   5.173  0.0875 -0.1582  0.0673
    1DIPC   D2B17410   2.327   0.774   5.430  0.0193  0.2025 -0.1605
    1DIPC   D3B17411   2.362   1.010   5.854  0.0745 -0.0329 -0.0643
    1DIPC   C4B17412   2.134   0.918   6.265 -0.1104 -0.3176  0.0289
    1DIPC   NC317413   9.359   6.582   2.737  0.0560  0.3106 -0.0209
    1DIPC   PO417414   9.751   6.403   2.717 -0.1516 -0.1750 -0.1033
    1DIPC   GL117415  10.113   6.526   3.060 -0.0471 -0.2307  0.0060
    1DIPC   GL217416  10.401   6.329   2.887  0.2107 -0.1247  0.0980
    1DIPC   C1A17417  10.476   6.724   3.384  0.3954  0.1709 -0.2135
    1DIPC   D2A17418  10.401   6.693   3.850  0.0983  0.3260  0.1628
    1DIPC   D3A17419  10.814   6.781   3.849 -0.0889 -0.0006 -0.0456
    1DIPC   C4A17420  11.113   6.916   4.208 -0.2587  0.0781  0.0173
    1DIPC   C1B17421  10.577   6.254   3.183 -0.0403  0.0548 -0.1647
    1DIPC   D2B17422  10.412   6.249   3.570 -0.0724 -0.1774 -0.3389
    1DIPC   D3B17423  10.501   6.092   3.971 -0.2293 -0.0055 -0.1410
    1DIPC   C4B17424  10.241   6.099   4.285 -0.0726  0.2485 -0.1740
    1DIPC   NC317425   5.073  10.382   2.866 -0.1995  0.0802 -0.2675
    1DIPC   PO417426   4.636  10.247   3.042  0.1711 -0.1512  0.1644
    1DIPC   GL117427   4.661  10.147   3.416  0.1910 -0.3999 -0.5667
    1DIPC   GL217428   4.835   9.883   3.493 -0.0161  0.1426 -0.1035
    1DIPC   C1A17429   4.567  10.245   3.753 -0.0809  0.1611  0.1393
    1DIPC   D2A17430   4.476   9.996   4.025  0.2914  0.1678 -0.1916
    1DIPC   D3A17431   4.706  10.177   4.291 -0.0550 -0.3133  0.2207
    1DIPC   C4A17432   5.007  10.205   4.203  0.1546 -0.2402  0.1489
    1DIPC   C1B17433   4.888   9.773   3.928  0.3963 -0.0092  0.0753
    1DIPC   D2B17434   4.703   9.425   4.132  0.5485 -0.0506 -0.0558
    1DIPC   D3B17435   4.460   9.754   4.493  0.1635  0.0918 -0.0941
    1DIPC   C4B17436   4.169  10.016   4.454  0.1525 -0.0403 -0.3001
    1DIPC   NC317437   0.748  14.966   3.346  0.0331 -0.1410  0.0150
    1DIPC   PO417438   1.068  14.987   3.714 -0.1096  0.0755  0.0617
    1DIPC   GL117439   1.154  14.953   4.176 -0.1813 -0.0330 -0.2513
    1DIPC   GL217440   1.145  15.245   4.141  0.2688 -0.1505  0.2902
    1DIPC   C1A17441   1.103  14.866   4.607 -0.3105  0.2746 -0.1032
    1DIPC   D2A17442   0.884  14.923   5.055  0.4184 -0.0558  0.1855
    1DIPC   D3A17443   1.353  14.848   5.012  0.0866 -0.1781  0.1459
    1DIPC   C4A17444   1.654  14.638   5.018 -0.3121 -0.0523  0.0835
    1DIPC   C1B17445   0.946  15.334   4.578  0.0508 -0.1653 -0.0180
    1DIPC   D2B17446   1.153  15.344   5.013 -0.5234 -0.2028 -0.1873
    1DIPC   D3B17447   1.197  15.427   5.480 -0.1590 -0.3709 -0.2209
    1DIPC   C4B17448   0.991  15.230   5.782  0.0063 -0.1765  0.0969
    1DIPC   NC317449  26.089  10.909   3.467 -0.0724  0.0755 -0.2557
    1DIPC   PO417450  25.859  10.954   3.205 -0.0711  0.1224 -0.0282
    1DIPC   GL117451  25.612  10.939   3.602 -0.1792  0.1755  0.0511
    1DIPC   GL217452  25.358  11.191   3.632  0.1350  0.1498 -0.2261
    1DIPC   C1A17453  25.794  11.044   4.032  0.0411  0.1352 -0.0093
    1DIPC   D2A17454  26.100  11.282   4.277  0.2842  0.1098  0.3425
    1DIPC   D3A17455  26.272  11.372   4.741  0.0714 -0.0354  0.0598
    1DIPC   C4A17456  26.073  11.225   5.062  0.1753  0.2021 -0.3469
    1DIPC   C1B17457  25.159  11.116   3.996  0.0111  0.2495 -0.1896
    1DIPC   D2B17458  25.230  11.033   4.320  0.0611  0.4443 -0.0423
    1DIPC   D3B17459  25.556  10.749   4.382  0.3728 -0.0841 -0.2942
    1DIPC   C4B17460  25.573  10.486   4.878 -0.1141  0.1434 -0.1649
    1DIPC   NC317461   3.254  26.958   4.209  0.0581 -0.2704  0.0361
    1DIPC   PO417462   3.549  26.682   4.058  0.2846 -0.0899 -0.0953
    1DIPC   GL117463   3.523  26.742   4.557 -0.1363 -0.2076  0.5152
    1DIPC   GL217464   3.766  26.763   4.814 -0.0398  0.0168 -0.0845
    1DIPC   C1A17465   3.179  26.566   4.751  0.0372  0.0224  0.0443
    1DIPC   D2A17466   2.877  26.143   4.858 -0.1517  0.0481 -0.0332
    1DIPC   D3A17467   3.132  26.156   5.234  0.0709 -0.0165  0.2086
    1DIPC   C4A17468   3.439  25.849   5.228 -0.1911  0.0419  0.0457
    1DIPC   C1B17469   3.567  26.519   5.195  0.0228  0.0166 -0.0652
    1DIPC   D2B17470   3.183  26.629   5.440 -0.2818  0.0912  0.1035
    1DIPC   D3B17471   3.414  26.975   5.351  0.1252 -0.1639 -0.2449
    1DIPC   C4B17472   3.618  27.310   5.452 -0.0963  0.0494  0.0469
    1DIPC   NC317473   9.684  19.163   2.064 -0.0930  0.0753  0.0748
    1DIPC   PO417474   9.812  18.899   2.466  0.1403  0.0198 -0.0087
    1DIPC   GL117475   9.601  18.964   2.875  0.1118  0.1661 -0.1215
    1DIPC   GL217476   9.751  19.043   3.252  0.0424  0.0834 -0.0852
    1DIPC   C1A17477   9.353  18.497   3.096 -0.0074  0.0478 -0.0187
    1DIPC   D2A17478   9.487  18.107   3.329  0.2984 -0.6217 -0.1695
    1DIPC   D3A17479   9.489  18.107   3.770  0.1146 -0.1397  0.0607
    1DIPC   C4A17480   9.210  18.478   4.117 -0.1653  0.3112  0.3130
    1DIPC   C1B17481   9.483  18.874   3.467  0.3720 -0.1024  0.2644
    1DIPC   D2B17482   9.295  18.532   3.625 -0.1244  0.0244  0.4204
    1DIPC   D3B17483   9.010  18.191   3.425  0.0268 -0.1217 -0.0997
    1DIPC   C4B17484   9.081  17.752   3.447  0.0738  0.0728 -0.0842
    1DIPC   NC317485  25.565  11.920   3.380  0.3862 -0.1753  0.3369
    1DIPC   PO417486  25.084  12.003   3.193 -0.0631 -0.0411 -0.0762
    1DIPC   GL117487  24.970  12.111   3.573  0.3065 -0.1128  0.1072
    1DIPC   GL217488  25.270  12.085   3.755 -0.2766 -0.0035  0.1434
    1DIPC   C1A17489  24.720  12.074   3.936 -0.2447  0.1563  0.1679
    1DIPC   D2A17490  24.507  11.893   4.292 -0.2838 -0.1049  0.2070
    1DIPC   D3A17491  24.249  11.868   4.716 -0.2639  0.2142  0.0834
    1DIPC   C4A17492  24.495  12.182   5.001 -0.2140  0.1117 -0.1206
    1DIPC   C1B17493  25.436  12.068   4.248 -0.2076  0.0154  0.3052
    1DIPC   D2B17494  25.425  12.184   4.686  0.2830  0.1237 -0.2284
    1DIPC   D3B17495  25.501  11.755   4.642  0.1455  0.1167  0.1965
    1DIPC   C4B17496  25.202  11.342   4.678  0.0062  0.0600  0.0293
    1DIPC   NC317497   3.904   7.195   3.790 -0.0068  0.0338  0.3987
    1DIPC   PO417498   3.645   7.488   3.687 -0.2733 -0.0699 -0.0945
    1DIPC   GL117499   3.559   7.347   4.072  0.1333 -0.1691 -0.0462
    1DIPC   GL217500   3.642   7.191   4.291 -0.2085 -0.0561  0.1660
    1DIPC   C1A17501   3.320   7.492   4.485 -0.0898  0.0366 -0.0974
    1DIPC   D2A17502   3.070   7.698   4.850  0.2196 -0.1913 -0.1932
    1DIPC   D3A17503   3.097   8.174   4.965  0.0085  0.0001  0.1320
    1DIPC   C4A17504   3.055   8.531   5.221  0.0700  0.3190 -0.2596
    1DIPC   C1B17505   3.719   7.373   4.694 -0.0752 -0.0827 -0.2582
    1DIPC   D2B17506   3.848   7.435   5.066  0.0039  0.1859 -0.0913
    1DIPC   D3B17507   3.766   7.711   5.428 -0.0138  0.0295  0.0610
    1DIPC   C4B17508   3.407   8.012   5.426 -0.1099 -0.0182 -0.0233
    1DIPC   NC317509   9.188   1.072   3.126  0.1607  0.1417  0.5315
    1DIPC   PO417510   9.009   0.715   3.267 -0.2233  0.1142  0.1059
    1DIPC   GL117511   9.251   0.935   3.627 -0.1731 -0.4122  0.1176
    1DIPC   GL217512   8.940   1.167   3.592  0.1715 -0.2646 -0.1535
    1DIPC   C1A17513   9.364   1.292   3.861 -0.0852 -0.0215  0.2096
    1DIPC   D2A17514   9.425   1.519   4.395  0.1714  0.0046 -0.2898
    1DIPC   D3A17515   9.371   1.988   4.394 -0.2318 -0.2266  0.2594
    1DIPC   C4A17516   9.565   2.173   4.695  0.3066  0.5589 -0.1572
    1DIPC   C1B17517   8.897   0.999   3.945 -0.1828 -0.4418 -0.0186
    1DIPC   D2B17518   8.807   1.291   4.216 -0.0850  0.0504  0.0435
    1DIPC   D3B17519   8.752   1.734   4.107 -0.1932 -0.3019 -0.2416
    1DIPC   C4B17520   8.432   1.970   4.379  0.3412  0.1675 -0.3780
    1DIPC   NC317521  22.436  11.212   2.573  0.0262  0.2119  0.0745
    1DIPC   PO417522  22.598  11.613   2.697 -0.1230 -0.0037 -0.1622
    1DIPC   GL117523  22.375  11.453   3.075  0.3563  0.2891 -0.2988
    1DIPC   GL217524  22.067  11.487   3.192 -0.1856 -0.1393 -0.0408
    1DIPC   C1A17525  22.472  11.482   3.596  0.2157  0.1669  0.2693
    1DIPC   D2A17526  22.357  11.439   4.012 -0.0581  0.0342  0.1392
    1DIPC   D3A17527  22.101  11.799   4.256  0.1590  0.1034 -0.3126
    1DIPC   C4A17528  22.081  12.218   4.228  0.0525 -0.2030  0.2864
    1DIPC   C1B17529  21.935  11.472   3.556 -0.0003  0.0025 -0.1966
    1DIPC   D2B17530  21.604  11.334   3.724  0.0117  0.1680  0.0171
    1DIPC   D3B17531  21.695  11.068   4.042  0.2880  0.0897 -0.2128
    1DIPC   C4B17532  21.611  10.720   4.037  0.2980  0.0208 -0.0105
    1DIPC   NC317533   1.987  10.471   3.261  0.1610 -0.1095 -0.1368
    1DIPC   PO417534   1.536  10.614   3.348 -0.2200  0.2376  0.0826
    1DIPC   GL117535   1.722  10.401   3.693  0.0664  0.3646  0.1919
    1DIPC   GL217536   1.574  10.219   3.850 -0.1397  0.0811  0.0696
    1DIPC   C1A17537   2.007  10.567   3.944 -0.2925  0.0240  0.2186
    1DIPC   D2A17538   2.174  10.473   4.346  0.0461 -0.0402  0.2364
    1DIPC   D3A17539   1.963  10.820   4.530 -0.0717  0.2800  0.0902
    1DIPC   C4A17540   1.877  10.839   4.948  0.1724  0.0020  0.0399
    1DIPC   C1B17541   1.628  10.479   4.261 -0.3753  0.0570  0.1519
    1DIPC   D2B17542   1.601  10.481   4.665 -0.0683  0.0560  0.1143
    1DIPC   D3B17543   1.800  10.300   4.948 -0.2033 -0.0279  0.2733
    1DIPC   C4B17544   1.729  10.099   5.323  0.2107  0.0147  0.0097
    1DIPC   NC317545  23.744  20.839   3.141  0.2472  0.0047  0.0379
    1DIPC   PO417546  23.522  20.429   3.212  0.0770 -0.0877 -0.1304
    1DIPC   GL117547  23.447  20.276   3.666  0.1234  0.1359 -0.0419
    1DIPC   GL217548  23.185  20.078   3.882  0.3744  0.2228 -0.3173
    1DIPC   C1A17549  23.737  20.195   4.066 -0.0535 -0.1848 -0.4224
    1DIPC   D2A17550  23.724  20.046   4.569  0.1020 -0.0636 -0.0156
    1DIPC   D3A17551  23.970  19.722   4.710 -0.3781 -0.0060 -0.0830
    1DIPC   C4A17552  23.748  19.687   5.006 -0.1451  0.1382  0.3587
    1DIPC   C1B17553  23.458  19.792   3.987  0.1253 -0.0120 -0.2215
    1DIPC   D2B17554  23.490  19.564   4.492 -0.2202  0.0046  0.1426
    1DIPC   D3B17555  23.245  19.584   4.852 -0.0198 -0.0322 -0.3714
    1DIPC   C4B17556  23.373  19.412   5.197 -0.2570 -0.0836 -0.0676
    1DIPC   NC317557   2.081  14.877   3.898  0.1039  0.3651  0.1967
    1DIPC   PO417558   2.392  15.209   3.713  0.1944  0.0686  0.0051
    1DIPC   GL117559   2.552  15.231   4.112 -0.0139  0.2229 -0.3413
    1DIPC   GL217560   2.450  14.948   4.311 -0.5426 -0.3818 -0.1130
    1DIPC   C1A17561   2.416  15.350   4.546 -0.3078  0.2789 -0.1668
    1DIPC   D2A17562   2.335  15.181   5.006 -0.3007 -0.0704 -0.1299
    1DIPC   D3A17563   2.703  14.807   5.203  0.2311 -0.1616 -0.4524
    1DIPC   C4A17564   2.802  14.874   5.566 -0.1844  0.0141 -0.0280
    1DIPC   C1B17565   2.745  15.044   4.758  0.1193  0.0411  0.2000
    1DIPC   D2B17566   2.804  15.422   4.881  0.3311 -0.0287 -0.2463
    1DIPC   D3B17567   2.925  15.230   5.221 -0.0680 -0.1307 -0.0940
    1DIPC   C4B17568   3.296  15.119   5.232  0.2148  0.1347 -0.3359
    1DIPC   NC317569  26.785  16.948   3.382 -0.0101 -0.1057 -0.2253
    1DIPC   PO417570  26.922  17.117   3.723  0.0737  0.2385 -0.1510
    1DIPC   GL117571  26.698  17.284   4.016  0.0632  0.2048  0.0170
    1DIPC   GL217572  26.894  17.513   4.187 -0.2331 -0.2424  0.0692
    1DIPC   C1A17573  26.451  17.289   4.378 -0.0039  0.0393 -0.0021
    1DIPC   D2A17574  26.132  17.573   4.565 -0.0120 -0.3790 -0.0408
    1DIPC   D3A17575  25.963  17.295   4.218 -0.5070  0.1113  0.0689
    1DIPC   C4A17576  26.241  16.942   4.092 -0.1004  0.1978 -0.0269
    1DIPC   C1B17577  26.969  17.510   4.722 -0.0783 -0.0258  0.3123
    1DIPC   D2B17578  26.738  17.683   5.187  0.0677  0.1403 -0.2307
    1DIPC   D3B17579  26.477  17.393   4.918 -0.0489  0.2067  0.1791
    1DIPC   C4B17580  26.147  17.016   4.962  0.0453  0.0349  0.0357
    1DIPC   NC317581   6.145  24.624   4.024 -0.1456  0.2856  0.1648
    1DIPC   PO417582   6.099  24.233   3.915 -0.2718  0.2470  0.2136
    1DIPC   GL117583   6.044  24.143   4.352  0.0088  0.1855  0.1531
    1DIPC   GL217584   6.024  24.436   4.451  0.4057 -0.1733  0.0413
    1DIPC   C1A17585   6.223  23.809   4.561  0.1196  0.1105  0.1796
    1DIPC   D2A17586   6.695  23.806   4.633  0.3404 -0.3201  0.3007
    1DIPC   D3A17587   6.769  23.749   5.107 -0.1070  0.0655  0.0197
    1DIPC   C4A17588   6.576  23.507   5.371 -0.0724  0.0106  0.4007
    1DIPC   C1B17589   5.911  24.677   4.821  0.2276 -0.1897  0.0465
    1DIPC   D2B17590   6.093  25.061   4.931 -0.0639 -0.1430 -0.0506
    1DIPC   D3B17591   6.434  25.205   5.033 -0.1239 -0.2399  0.1004
    1DIPC   C4B17592   6.286  25.567   5.330 -0.0181 -0.1339  0.0085
    1DIPC   NC317593  10.898  24.342   3.300 -0.1431  0.0363  0.1164
    1DIPC   PO417594  10.956  24.126   3.736 -0.2701 -0.1964 -0.5072
    1DIPC   GL117595  10.909  24.040   4.148  0.2188  0.1621  0.1120
    1DIPC   GL217596  10.645  23.961   4.177  0.0501  0.0139 -0.0395
    1DIPC   C1A17597  11.193  24.030   4.513  0.1301  0.3708 -0.1901
    1DIPC   D2A17598  11.142  23.802   4.939  0.3449  0.1457 -0.0856
    1DIPC   D3A17599  11.250  24.200   5.005  0.2362 -0.2606 -0.1163
    1DIPC   C4A17600  11.196  24.483   4.663 -0.2057  0.2207 -0.1257
    1DIPC   C1B17601  10.766  24.194   4.571  0.1975  0.0789 -0.2251
    1DIPC   D2B17602  10.656  24.586   4.887 -0.1372 -0.0918 -0.1298
    1DIPC   D3B17603  10.724  24.997   5.048 -0.1399 -0.1853  0.0242
    1DIPC   C4B17604  10.957  25.100   4.734 -0.3474  0.1044  0.0667
    1DIPC   NC317605  16.268  14.648   2.156 -0.2561 -0.3725  0.1707
    1DIPC   PO417606  16.593  14.375   2.437 -0.1906 -0.0262  0.0013
    1DIPC   GL117607  16.493  14.561   2.797 -0.0418 -0.0521  0.1394
    1DIPC   GL217608  16.333  14.460   3.000  0.0505 -0.0902 -0.1089
    1DIPC   C1A17609  16.400  14.940   3.109  0.0097 -0.2962  0.2212
    1DIPC   D2A17610  16.540  15.180   3.413  0.1319  0.2153  0.1739
    1DIPC   D3A17611  16.622  14.897   3.655 -0.1252 -0.3049 -0.0476
    1DIPC   C4A17612  16.867  14.921   3.967  0.1143 -0.0906  0.1534
    1DIPC   C1B17613  16.508  14.416   3.544  0.1115  0.3421  0.1532
    1DIPC   D2B17614  16.382  14.570   3.952  0.0525 -0.0460 -0.1820
    1DIPC   D3B17615  16.013  14.376   4.010  0.1023  0.0130  0.1704
    1DIPC   C4B17616  15.992  13.860   3.912 -0.4107 -0.0677  0.0791
    1DIPC   NC317617   1.236  10.279   3.499  0.0846 -0.1122 -0.1262
    1DIPC   PO417618   0.843  10.074   3.530 -0.2243 -0.2030  0.1007
    1DIPC   GL117619   0.728   9.767   3.924 -0.2260 -0.1447  0.2357
    1DIPC   GL217620   0.962   9.509   4.117  0.1983  0.1774  0.1731
    1DIPC   C1A17621   0.592   9.633   4.468  0.3962  0.1910 -0.0284
    1DIPC   D2A17622   0.230   9.506   4.707  0.1738 -0.0970 -0.0359
    1DIPC   D3A17623   0.545   9.626   4.962 -0.1478  0.3474 -0.2221
    1DIPC   C4A17624   0.446   9.962   5.293 -0.1134 -0.0234  0.3205
    1DIPC   C1B17625   1.297   9.524   4.456 -0.1437 -0.1727  0.0395
    1DIPC   D2B17626   1.537   9.284   4.803  0.1010  0.2122  0.1649
    1DIPC   D3B17627   1.819   9.478   5.075 -0.1714 -0.0787  0.3378
    1DIPC   C4B17628   2.085   9.882   5.073 -0.0386 -0.0922 -0.2712
    1DIPC   NC317629   8.941  21.980   3.777  0.4272  0.3330 -0.0309
    1DIPC   PO417630   9.332  21.774   3.963 -0.0171  0.1987 -0.4136
    1DIPC   GL117631   9.639  21.558   4.272  0.1369 -0.3285  0.1340
    1DIPC   GL217632   9.836  21.257   4.189  0.1618  0.0663 -0.0182
    1DIPC   C1A17633   9.664  21.689   4.732 -0.2619  0.1360 -0.0882
    1DIPC   D2A17634   9.929  21.720   5.114 -0.0132 -0.1165 -0.2832
    1DIPC   D3A17635   9.706  21.770   5.450 -0.2150 -0.0571 -0.2070
    1DIPC   C4A17636   9.687  21.464   5.629  0.1243 -0.1381 -0.0313
    1DIPC   C1B17637  10.022  20.914   4.487  0.3091  0.3039  0.1568
    1DIPC   D2B17638  10.145  20.867   4.912 -0.1736  0.0017  0.2605
    1DIPC   D3B17639  10.594  20.676   4.894 -0.0905  0.3132  0.1051
    1DIPC   C4B17640  10.753  20.937   5.165  0.1240  0.1760 -0.3813
    1DIPC   NC317641  28.720   6.821   4.264 -0.0234 -0.2635 -0.0252
    1DIPC   PO417642  28.947   7.043   3.973  0.1661  0.0187  0.0964
    1DIPC   GL117643  28.927   7.340   4.411  0.1551  0.1499  0.2940
    1DIPC   GL217644  29.126   7.628   4.425  0.0746 -0.1479 -0.2358
    1DIPC   C1A17645  29.013   7.455   4.853  0.1691 -0.1093  0.2342
    1DIPC   D2A17646  29.122   7.739   5.157  0.2158 -0.0232  0.2962
    1DIPC   D3A17647  28.990   8.190   5.079 -0.0877 -0.0326  0.0062
    1DIPC   C4A17648  29.364   8.284   5.051  0.0446 -0.0948 -0.1223
    1DIPC   C1B17649  29.325   7.900   4.688  0.0078  0.0830  0.1426
    1DIPC   D2B17650  29.702   7.890   4.971 -0.0604  0.2462 -0.0950
    1DIPC   D3B17651  29.608   7.680   5.403 -0.0124 -0.1037 -0.4943
    1DIPC   C4B17652  29.928   7.635   5.728 -0.0071  0.2034 -0.0282
    1DIPC   NC317653   4.531  28.245   3.895  0.4791  0.1293 -0.1624
    1DIPC   PO417654   4.667  27.950   4.190 -0.3739  0.0177 -0.1993
    1DIPC   GL117655   4.694  28.143   4.527 -0.2146  0.4107  0.1247
    1DIPC   GL217656   4.438  28.153   4.743 -0.0203  0.1722 -0.0910
    1DIPC   C1A17657   4.834  28.485   4.651 -0.1180 -0.3421  0.0315
    1DIPC   D2A17658   5.183  28.609   4.671 -0.4711  0.0309  0.3353
    1DIPC   D3A17659   5.154  28.545   5.129 -0.0843 -0.2246 -0.1474
    1DIPC   C4A17660   5.325  28.240   5.401  0.1662 -0.1655  0.1933
    1DIPC   C1B17661   4.558  27.987   5.176  0.0160  0.3016  0.2143
    1DIPC   D2B17662   4.501  27.884   5.554  0.2835  0.0053  0.0578
    1DIPC   D3B17663   4.558  27.607   5.829  0.1679  0.0691  0.3049
    1DIPC   C4B17664   4.681  27.691   6.228 -0.3002 -0.1778  0.1709
    1DIPC   NC317665   2.888  19.146   3.777  0.3636  0.0211  0.0058
    1DIPC   PO417666   2.485  19.317   3.764  0.0491 -0.0322  0.0413
    1DIPC   GL117667   2.710  19.557   4.026  0.2417 -0.1854  0.3607
    1DIPC   GL217668   2.961  19.381   4.179  0.1412 -0.0131 -0.2566
    1DIPC   C1A17669   2.672  19.787   4.341 -0.1177  0.1973  0.0548
    1DIPC   D2A17670   2.990  19.923   4.481 -0.3937 -0.2320 -0.0659
    1DIPC   D3A17671   3.113  20.204   4.802  0.2206 -0.1899  0.1036
    1DIPC   C4A17672   2.838  20.178   5.287  0.2560  0.4562  0.1434
    1DIPC   C1B17673   2.777  19.237   4.503 -0.1534  0.4408 -0.3343
    1DIPC   D2B17674   2.950  19.170   4.893 -0.5741  0.3536  0.1914
    1DIPC   D3B17675   3.441  19.259   5.011 -0.0002 -0.2271 -0.0652
    1DIPC   C4B17676   3.639  19.134   5.405  0.0811 -0.0199 -0.3172
    1DIPC   NC317677  21.013   6.651   2.060  0.0585 -0.2681  0.0840
    1DIPC   PO417678  21.031   7.132   2.145  0.0780  0.1850 -0.1402
    1DIPC   GL117679  21.023   7.454   2.496 -0.1095  0.0401  0.0256
    1DIPC   GL217680  21.411   7.434   2.524 -0.3963  0.1832  0.2490
    1DIPC   C1A17681  20.796   7.606   2.846 -0.4127  0.0031 -0.1430
    1DIPC   D2A17682  20.852   7.703   3.221 -0.2551 -0.4208  0.3512
    1DIPC   D3A17683  20.347   7.686   3.123 -0.1892  0.1577 -0.0637
    1DIPC   C4A17684  20.206   7.288   3.335 -0.1157  0.2781  0.1902
    1DIPC   C1B17685  21.314   7.466   2.931  0.2117  0.1258  0.0826
    1DIPC   D2B17686  21.286   7.514   3.271  0.3111  0.1412  0.1092
    1DIPC   D3B17687  21.059   7.594   3.649 -0.2476 -0.0862 -0.0597
    1DIPC   C4B17688  20.897   7.965   3.642  0.0078 -0.0883  0.0177
    1DIPC   NC317689   6.310  14.018   2.219  0.1376  0.0640 -0.2216
    1DIPC   PO417690   6.051  13.960   2.588  0.1126  0.2073 -0.0745
    1DIPC   GL117691   6.260  14.035   2.939  0.0804 -0.0378 -0.4981
    1DIPC   GL217692   6.195  13.841   3.297  0.0927 -0.1473 -0.0624
    1DIPC   C1A17693   6.529  14.234   3.130 -0.1460  0.0467 -0.3049
    1DIPC   D2A17694   6.903  14.225   3.199  0.0107  0.0273  0.2437
    1DIPC   D3A17695   7.129  13.822   3.015 -0.4164 -0.3007 -0.1016
    1DIPC   C4A17696   7.478  13.827   3.192  0.2325  0.0027  0.1755
    1DIPC   C1B17697   6.128  13.785   3.725  0.2990 -0.1813 -0.0242
    1DIPC   D2B17698   6.013  13.883   4.217  0.0883 -0.2297  0.3192
    1DIPC   D3B17699   6.305  14.263   4.152  0.0726 -0.1289  0.0045
    1DIPC   C4B17700   6.423  14.412   4.547  0.0448  0.3364  0.1314
    1DIPC   NC317701   4.033  22.213   3.266  0.1993  0.2635  0.1156
    1DIPC   PO417702   3.592  22.268   3.516 -0.3697 -0.1759  0.0063
    1DIPC   GL117703   3.791  22.278   3.937  0.0253 -0.1522 -0.0175
    1DIPC   GL217704   3.740  22.616   3.922 -0.2735  0.0892 -0.0027
    1DIPC   C1A17705   3.698  22.039   4.378 -0.2382  0.0252 -0.0123
    1DIPC   D2A17706   3.485  21.949   4.674  0.2085  0.1905  0.0303
    1DIPC   D3A17707   3.357  21.745   5.018 -0.1132  0.3075 -0.0825
    1DIPC   C4A17708   3.469  21.336   5.101 -0.0061 -0.2661 -0.0692
    1DIPC   C1B17709   3.637  22.570   4.423 -0.1482  0.0034 -0.2090
    1DIPC   D2B17710   3.552  22.403   4.804  0.3068  0.1482  0.0170
    1DIPC   D3B17711   3.982  22.545   5.036  0.1148  0.2825 -0.3808
    1DIPC   C4B17712   3.820  22.919   5.399  0.2281 -0.2100 -0.0785
    1DIPC   NC317713  20.008  19.181   2.236  0.0775  0.2007 -0.2487
    1DIPC   PO417714  19.590  19.105   2.417 -0.1590  0.0563  0.3098
    1DIPC   GL117715  19.439  19.006   2.823 -0.2559 -0.1472  0.0685
    1DIPC   GL217716  19.165  18.780   2.909  0.1201  0.3445 -0.0070
    1DIPC   C1A17717  19.329  19.093   3.237  0.0742 -0.0045  0.0732
    1DIPC   D2A17718  19.332  19.381   3.627  0.0005  0.0566  0.4468
    1DIPC   D3A17719  19.303  19.146   3.973 -0.2567  0.0486 -0.0107
    1DIPC   C4A17720  19.501  19.231   4.325  0.0280  0.1170  0.2851
    1DIPC   C1B17721  19.282  18.631   3.307  0.0978  0.1890  0.2612
    1DIPC   D2B17722  19.588  18.368   3.482  0.0967 -0.1208 -0.0831
    1DIPC   D3B17723  19.472  18.370   3.947 -0.1367  0.2595  0.0341
    1DIPC   C4B17724  19.525  18.703   4.255  0.0244 -0.0077 -0.3437
    1DIPC   NC317725  10.765  23.034   3.583 -0.1795 -0.0287  0.4451
    1DIPC   PO417726  10.277  23.026   3.570  0.0600  0.0346  0.1312
    1DIPC   GL117727  10.342  22.978   3.981 -0.1291 -0.2301  0.0888
    1DIPC   GL217728  10.637  22.802   4.000  0.1030  0.1983 -0.2551
    1DIPC   C1A17729  10.170  23.004   4.369 -0.0366  0.0007  0.0453
    1DIPC   D2A17730  10.321  23.152   4.769  0.0838  0.0137 -0.2210
    1DIPC   D3A17731   9.979  23.407   5.023 -0.1248  0.2075 -0.1730
    1DIPC   C4A17732   9.684  23.072   5.232 -0.2186 -0.0125 -0.2495
    1DIPC   C1B17733  10.736  22.495   4.339 -0.2362  0.3290 -0.3263
    1DIPC   D2B17734  10.850  22.059   4.557 -0.0221 -0.1873 -0.0227
    1DIPC   D3B17735  11.318  22.091   4.630  0.0898 -0.0616 -0.0332
    1DIPC   C4B17736  11.586  21.781   4.656 -0.0046 -0.1324 -0.2025
    1DIPC   NC317737   9.693  24.098   3.326 -0.0496  0.0932 -0.2278
    1DIPC   PO417738   9.972  24.065   3.702 -0.0374 -0.0218 -0.0544
    1DIPC   GL117739   9.959  24.199   4.204 -0.2345 -0.3514  0.0767
    1DIPC   GL217740  10.228  24.299   4.371  0.0202  0.1839 -0.5616
    1DIPC   C1A17741   9.819  24.247   4.604  0.0167 -0.2096 -0.0314
    1DIPC   D2A17742   9.603  24.392   5.077 -0.1249  0.0824 -0.2691
    1DIPC   D3A17743   9.285  24.695   5.149  0.0291  0.3430  0.2231
    1DIPC   C4A17744   9.302  25.068   4.983 -0.0299  0.0183 -0.0033
    1DIPC   C1B17745  10.307  24.130   4.738 -0.3568 -0.1655  0.1734
    1DIPC   D2B17746  10.310  24.193   5.099  0.0268  0.0512  0.1091
    1DIPC   D3B17747  10.786  24.095   5.107  0.2097  0.3319  0.1273
    1DIPC   C4B17748  10.880  23.681   5.328  0.1959  0.0081 -0.0011
    1DIPC   NC317749  12.907  14.889   2.508 -0.1022 -0.0389  0.1253
    1DIPC   PO417750  13.094  14.466   2.325  0.1376 -0.1959 -0.0570
    1DIPC   GL117751  13.041  14.282   2.704  0.0715 -0.1527 -0.0955
    1DIPC   GL217752  12.895  14.564   2.874 -0.2790  0.1764  0.0071
    1DIPC   C1A17753  12.715  14.110   3.056  0.3150  0.1310  0.0297
    1DIPC   D2A17754  12.778  13.707   3.393  0.2100  0.1179  0.1262
    1DIPC   D3A17755  12.654  13.973   3.692 -0.3392 -0.4617  0.1813
    1DIPC   C4A17756  12.420  13.734   4.017 -0.2116  0.0740  0.3980
    1DIPC   C1B17757  12.987  14.500   3.279 -0.0882 -0.0419  0.3383
    1DIPC   D2B17758  13.127  14.291   3.573 -0.0739  0.1228  0.3259
    1DIPC   D3B17759  13.350  14.177   3.163  0.1632 -0.0257  0.0147
    1DIPC   C4B17760  13.117  13.868   3.027 -0.2753  0.0432  0.0005
    1DIPC   NC317761   1.769   0.399   3.746  0.0881  0.0215 -0.1249
    1DIPC   PO417762   1.401   0.311   3.796 -0.4050 -0.1816  0.0086
    1DIPC   GL117763   1.330   0.342   4.211 -0.1162 -0.3185  0.1706
    1DIPC   GL217764   1.395   0.317   4.586  0.1041  0.0783 -0.1619
    1DIPC   C1A17765   0.978   0.589   4.557  0.1278 -0.0639  0.0785
    1DIPC   D2A17766   0.988   0.875   4.952 -0.1244  0.1238 -0.1902
    1DIPC   D3A17767   0.803   1.081   4.776  0.0370  0.0378 -0.0686
    1DIPC   C4A17768   0.671   0.935   4.440  0.1314  0.1160  0.3053
    1DIPC   C1B17769   1.498   0.528   4.922  0.1073  0.0724 -0.1237
    1DIPC   D2B17770   1.853   0.842   4.952 -0.2025 -0.2229 -0.0556
    1DIPC   D3B17771   1.822   0.795   5.386  0.2493 -0.0111  0.0701
    1DIPC   C4B17772   1.899   1.119   5.577 -0.1546  0.1734 -0.0539
    1DIPC   NC317773  11.649  17.125   3.271  0.0788  0.1928  0.1854
    1DIPC   PO417774  11.223  17.142   3.064  0.2858  0.0009  0.0084
    1DIPC   GL117775  11.053  17.044   3.376 -0.2940 -0.1184  0.1298
    1DIPC   GL217776  10.911  16.753   3.313 -0.4964 -0.1141 -0.0884
    1DIPC   C1A17777  11.130  17.144   3.751 -0.1034 -0.2854  0.1425
    1DIPC   D2A17778  11.462  17.356   3.966  0.0734  0.1902  0.0921
    1DIPC   D3A17779  11.285  17.350   4.309  0.2082 -0.1584  0.2071
    1DIPC   C4A17780  11.278  17.813   4.434 -0.1508 -0.0128  0.0244
    1DIPC   C1B17781  10.851  16.672   3.663 -0.1176 -0.0503 -0.1055
    1DIPC   D2B17782  10.921  16.430   4.006  0.0831 -0.1818 -0.0196
    1DIPC   D3B17783  10.725  16.556   4.380 -0.0403  0.1108 -0.1881
    1DIPC   C4B17784  10.557  16.946   4.504  0.1570 -0.1076  0.1285
    1DIPC   NC317785   3.023   5.893   3.578  0.0673  0.3251 -0.1300
    1DIPC   PO417786   3.400   6.060   3.654 -0.1394  0.1844 -0.0398
    1DIPC   GL117787   3.477   5.988   4.104 -0.0134 -0.1424  0.4586
    1DIPC   GL217788   3.294   5.738   4.377 -0.1179 -0.1346 -0.2242
    1DIPC   C1A17789   3.722   6.074   4.376  0.0597  0.0293 -0.1110
    1DIPC   D2A17790   3.994   6.490   4.578  0.2398  0.0204 -0.0081
    1DIPC   D3A17791   4.387   6.431   4.759 -0.2626 -0.0951  0.1963
    1DIPC   C4A17792   4.667   6.565   5.061  0.0652  0.1505  0.0988
    1DIPC   C1B17793   3.512   5.848   4.816  0.2238 -0.0674 -0.1523
    1DIPC   D2B17794   3.629   5.784   5.272 -0.0624 -0.2107 -0.1124
    1DIPC   D3B17795   3.622   5.988   5.770  0.0410  0.2176  0.0643
    1DIPC   C4B17796   3.293   5.798   6.032  0.1885 -0.0124  0.0520
    1DIPC   NC317797  27.267  20.609   3.864 -0.0157  0.2786  0.0077
    1DIPC   PO417798  27.576  20.328   4.115 -0.1299  0.0634 -0.1057
    1DIPC   GL117799  27.653  20.622   4.430  0.0328 -0.0973 -0.0354
    1DIPC   GL217800  27.969  20.843   4.349  0.2081  0.3447  0.2018
    1DIPC   C1A17801  27.439  20.639   4.738  0.1718  0.0987  0.2122
    1DIPC   D2A17802  27.383  20.808   5.097  0.0380 -0.1222 -0.2551
    1DIPC   D3A17803  27.606  20.693   5.464  0.1549 -0.1021 -0.0649
    1DIPC   C4A17804  27.625  20.194   5.602  0.5282 -0.0077  0.2297
    1DIPC   C1B17805  27.903  20.963   4.843 -0.2203  0.2208 -0.2541
    1DIPC   D2B17806  27.774  21.130   5.250 -0.1160  0.0787 -0.0592
    1DIPC   D3B17807  27.755  21.600   5.338 -0.1871  0.1013 -0.1808
    1DIPC   C4B17808  28.106  21.937   5.306  0.0527  0.2663 -0.3992
    1DIPC   NC317809  28.120  23.085   3.744 -0.0920 -0.2864 -0.1566
    1DIPC   PO417810  27.597  23.094   3.881  0.1421  0.0437  0.3671
    1DIPC   GL117811  27.829  22.949   4.171  0.4046 -0.2211  0.2750
    1DIPC   GL217812  27.902  23.163   4.510  0.1016 -0.0005  0.3216
    1DIPC   C1A17813  28.239  22.816   4.401 -0.2272 -0.1238 -0.3124
    1DIPC   D2A17814  28.531  22.540   4.612  0.5211  0.0594 -0.0906
    1DIPC   D3A17815  29.099  22.601   4.493  0.0436 -0.0104  0.0602
    1DIPC   C4A17816  29.407  22.585   4.750 -0.0901  0.0532 -0.0380
    1DIPC   C1B17817  28.082  23.259   4.935 -0.2576  0.1667  0.0207
    1DIPC   D2B17818  28.362  23.238   5.286  0.0303 -0.3044 -0.2809
    1DIPC   D3B17819  28.574  22.832   5.189  0.0659 -0.2888 -0.0507
    1DIPC   C4B17820  28.922  22.779   5.417 -0.4635 -0.0104  0.1794
    1DIPC   NC317821  13.195  16.538   2.237  0.1247 -0.1084 -0.0438
    1DIPC   PO417822  13.255  16.091   2.341 -0.0635 -0.0134 -0.1132
    1DIPC   GL117823  13.146  15.999   2.744  0.0503  0.1534 -0.1115
    1DIPC   GL217824  13.164  15.681   2.804 -0.0371  0.0364 -0.3553
    1DIPC   C1A17825  12.898  16.173   3.054  0.3168  0.1832 -0.1740
    1DIPC   D2A17826  13.089  16.354   3.421  0.0276 -0.0144  0.1980
    1DIPC   D3A17827  12.664  16.416   3.495  0.0782 -0.0923 -0.4830
    1DIPC   C4A17828  12.465  16.152   3.798 -0.1848 -0.0343  0.1203
    1DIPC   C1B17829  13.126  15.631   3.195  0.0418  0.1982 -0.0559
    1DIPC   D2B17830  13.130  15.523   3.667  0.1502  0.2362  0.4220
    1DIPC   D3B17831  12.797  15.467   3.914  0.1108 -0.0745  0.4162
    1DIPC   C4B17832  12.408  15.641   3.668  0.1028  0.2772  0.4420
    1DIPC   NC317833   0.816   7.506   3.905  0.0783 -0.0201  0.3420
    1DIPC   PO417834   0.463   7.705   3.994  0.0597  0.0224 -0.0144
    1DIPC   GL117835   0.783   7.638   4.410  0.0652  0.0023 -0.1000
    1DIPC   GL217836   0.593   7.402   4.651  0.1804 -0.0015  0.1013
    1DIPC   C1A17837   1.053   7.513   4.729  0.0277  0.2719  0.1381
    1DIPC   D2A17838   1.263   7.141   5.057  0.0207  0.0583  0.0676
    1DIPC   D3A17839   1.142   7.584   5.191 -0.1066 -0.0732 -0.0962
    1DIPC   C4A17840   1.330   7.876   5.049 -0.2000 -0.0794 -0.1111
    1DIPC   C1B17841   0.511   7.222   5.073  0.2064 -0.1906  0.2395
    1DIPC   D2B17842   0.336   7.162   5.493 -0.1284  0.2304  0.0940
    1DIPC   D3B17843   0.227   6.771   5.685  0.0749 -0.1327 -0.2401
    1DIPC   C4B17844  -0.076   6.679   6.088  0.1515 -0.2299  0.1946
    1DIPC   NC317845  13.757  12.226   1.650  0.2865 -0.2131  0.3867
    1DIPC   PO417846  14.062  12.417   1.866 -0.1938  0.1054  0.0335
    1DIPC   GL117847  14.241  12.369   2.370  0.0721 -0.0463  0.1606
    1DIPC   GL217848  14.010  12.086   2.526  0.0726 -0.0056  0.1165
    1DIPC   C1A17849  14.282  12.445   2.855 -0.2358 -0.2737  0.0779
    1DIPC   D2A17850  14.418  12.734   3.121 -0.0935 -0.3944 -0.0882
    1DIPC   D3A17851  13.999  12.981   3.259  0.4290 -0.0403  0.2587
    1DIPC   C4A17852  13.939  13.423   3.355 -0.0760 -0.4227  0.0116
    1DIPC   C1B17853  13.966  11.876   2.924 -0.0157 -0.1330 -0.1263
    1DIPC   D2B17854  13.939  11.453   3.084 -0.2083 -0.1276 -0.0853
    1DIPC   D3B17855  14.114  11.347   3.508  0.3176 -0.1480 -0.1350
    1DIPC   C4B17856  14.398  11.058   3.740 -0.3546  0.0299 -0.0191
    1DIPC   NC317857  17.115   4.243   1.129 -0.1667 -0.2284  0.1529
    1DIPC   PO417858  17.143   4.106   1.503 -0.0854  0.0401  0.0479
    1DIPC   GL117859  17.184   4.246   2.040 -0.4177 -0.1124 -0.1429
    1DIPC   GL217860  17.360   4.029   2.135  0.1165 -0.1348 -0.2962
    1DIPC   C1A17861  17.293   4.330   2.553  0.0810 -0.0762  0.1082
    1DIPC   D2A17862  17.181   4.483   2.906  0.1996 -0.0108 -0.1881
    1DIPC   D3A17863  17.487   4.206   3.126 -0.4246 -0.0841  0.2712
    1DIPC   C4A17864  17.945   4.086   3.107 -0.0093 -0.1225  0.1154
    1DIPC   C1B17865  17.354   3.638   2.380  0.1937  0.0527 -0.2252
    1DIPC   D2B17866  16.950   3.414   2.549 -0.0411 -0.1689  0.0889
    1DIPC   D3B17867  17.258   3.128   2.500 -0.0783  0.3962  0.0306
    1DIPC   C4B17868  17.603   3.261   2.741  0.0667 -0.2574  0.2627
    1DIPC   NC317869  12.573  13.942   1.897  0.3026 -0.1902 -0.0176
    1DIPC   PO417870  12.640  13.928   2.308  0.3703 -0.0960  0.1468
    1DIPC   GL117871  12.552  14.226   2.628 -0.1362 -0.1721  0.2460
    1DIPC   GL217872  12.324  14.140   2.760 -0.3931 -0.3548  0.1775
    1DIPC   C1A17873  12.420  14.523   3.032 -0.1647 -0.0546 -0.1810
    1DIPC   D2A17874  12.192  14.675   3.417  0.1190  0.2238  0.0552
    1DIPC   D3A17875  12.514  14.389   3.495 -0.2007  0.0175 -0.0859
    1DIPC   C4A17876  12.700  14.469   3.840 -0.2076 -0.1350  0.0072
    1DIPC   C1B17877  12.026  13.821   2.663 -0.2149  0.1975 -0.0176
    1DIPC   D2B17878  12.095  13.405   2.758 -0.0309  0.2494 -0.0723
    1DIPC   D3B17879  12.210  12.992   2.913  0.0429 -0.1393 -0.3524
    1DIPC   C4B17880  12.215  12.910   3.397  0.1044 -0.1857  0.0806
    1DIPC   NC317881  16.158  22.086   3.057 -0.0416  0.1210 -0.0077
    1DIPC   PO417882  16.554  21.786   2.965  0.2530  0.0455 -0.2291
    1DIPC   GL117883  16.763  21.786   3.349  0.0483 -0.0383  0.1133
    1DIPC   GL217884  16.977  21.573   3.399  0.1100  0.1910  0.2001
    1DIPC   C1A17885  16.792  22.015   3.737 -0.3597 -0.1579 -0.0812
    1DIPC   D2A17886  17.138  22.151   3.906 -0.2515  0.1986  0.2548
    1DIPC   D3A17887  17.494  22.256   3.717 -0.2179 -0.3612 -0.0142
    1DIPC   C4A17888  17.937  22.280   3.923  0.2629 -0.3007 -0.3162
    1DIPC   C1B17889  17.276  21.765   3.613 -0.0305 -0.1857 -0.2093
    1DIPC   D2B17890  17.672  21.707   3.658 -0.0849 -0.0448 -0.0092
    1DIPC   D3B17891  17.777  21.951   3.292  0.2592  0.0382 -0.0321
    1DIPC   C4B17892  18.034  22.283   3.310  0.0637  0.1500  0.2997
    1DIPC   NC317893   3.236   7.143   3.748  0.1910 -0.0430  0.1432
    1DIPC   PO417894   3.250   6.917   4.150 -0.1795  0.4232  0.4461
    1DIPC   GL117895   3.202   6.948   4.569 -0.1383 -0.3078 -0.2702
    1DIPC   GL217896   3.339   7.187   4.905 -0.3143  0.0662  0.1300
    1DIPC   C1A17897   2.852   7.000   4.852 -0.0573  0.0739  0.1152
    1DIPC   D2A17898   2.780   7.338   5.131 -0.1200  0.0094 -0.1569
    1DIPC   D3A17899   2.773   7.380   5.515 -0.0637  0.0555 -0.1393
    1DIPC   C4A17900   2.413   7.282   5.702 -0.0583 -0.2393 -0.3669
    1DIPC   C1B17901   3.253   7.457   5.230  0.0574 -0.2737 -0.3119
    1DIPC   D2B17902   3.370   7.517   5.630  0.1497  0.3253 -0.2426
    1DIPC   D3B17903   3.121   7.220   5.862 -0.4593  0.3850 -0.0939
    1DIPC   C4B17904   3.285   6.885   6.053  0.3678 -0.0541  0.4922
    1DIPC   NC317905  15.075  28.835   2.361  0.2150  0.1578 -0.2227
    1DIPC   PO417906  14.837  28.402   2.430 -0.0220  0.1561 -0.1523
    1DIPC   GL117907  15.216  28.397   2.651 -0.0384 -0.2888  0.0759
    1DIPC   GL217908  15.050  28.597   2.887  0.0864 -0.0454  0.1682
    1DIPC   C1A17909  15.532  28.673   3.036  0.0605 -0.1791  0.3200
    1DIPC   D2A17910  15.593  28.936   3.377  0.1130 -0.0654  0.1810
    1DIPC   D3A17911  15.635  28.840   3.855  0.0203  0.0807 -0.1522
    1DIPC   C4A17912  15.502  29.047   4.235 -0.0617  0.0308 -0.0293
    1DIPC   C1B17913  15.219  28.198   3.117  0.2886 -0.1407 -0.0558
    1DIPC   D2B17914  15.092  27.773   3.186  0.1765 -0.1844 -0.3230
    1DIPC   D3B17915  14.921  27.930   3.604 -0.1957 -0.0124 -0.1669
    1DIPC   C4B17916  15.260  28.091   3.755  0.0527  0.2664  0.2109
    1DIPC   NC317917   2.748   5.124   3.546 -0.3265 -0.2044 -0.2154
    1DIPC   PO417918   2.989   5.073   3.890 -0.1748  0.0584 -0.0517
    1DIPC   GL117919   3.218   5.145   4.289  0.0154  0.1355  0.0951
    1DIPC   GL217920   3.411   4.849   4.389 -0.0966  0.0218 -0.0266
    1DIPC   C1A17921   3.210   5.203   4.722  0.0833  0.1497 -0.0553
    1DIPC   D2A17922   3.268   4.892   4.990 -0.2130  0.2362 -0.1490
    1DIPC   D3A17923   3.251   4.844   5.466  0.2402  0.0177 -0.0090
    1DIPC   C4A17924   3.198   4.437   5.578  0.2050 -0.0261  0.0820
    1DIPC   C1B17925   3.395   4.412   4.684  0.0128 -0.0214  0.1212
    1DIPC   D2B17926   3.480   4.079   4.970 -0.2142 -0.1195 -0.0612
    1DIPC   D3B17927   3.720   4.132   5.433 -0.2503 -0.1013  0.1186
    1DIPC   C4B17928   4.068   3.998   5.648 -0.1697  0.1276  0.0190
    1DIPC   NC317929   1.525  19.147   3.784  0.1452  0.2272 -0.2025
    1DIPC   PO417930   1.431  19.568   3.875 -0.0970 -0.1272  0.1553
    1DIPC   GL117931   1.330  19.808   4.224 -0.1522 -0.0254 -0.3814
    1DIPC   GL217932   1.430  20.210   4.243  0.0421  0.2691 -0.0084
    1DIPC   C1A17933   1.402  19.690   4.587 -0.0493 -0.1536  0.2062
    1DIPC   D2A17934   1.399  19.828   5.035  0.2145 -0.0875 -0.1880
    1DIPC   D3A17935   1.728  19.681   5.457  0.2032  0.1254  0.2145
    1DIPC   C4A17936   2.177  19.533   5.486  0.0522 -0.1024 -0.1890
    1DIPC   C1B17937   1.309  20.459   4.597 -0.0916  0.3289 -0.2688
    1DIPC   D2B17938   1.166  20.767   4.960 -0.0854 -0.1618 -0.2428
    1DIPC   D3B17939   1.297  21.176   4.928 -0.1681 -0.3632  0.0229
    1DIPC   C4B17940   1.074  21.363   5.288  0.2751 -0.1952 -0.1051
    1DIPC   NC317941  26.243   6.439   3.735 -0.0878 -0.3167 -0.3932
    1DIPC   PO417942  25.941   6.169   3.838  0.1615  0.0996 -0.1040
    1DIPC   GL117943  25.701   6.138   4.261  0.1089 -0.0703  0.0683
    1DIPC   GL217944  25.634   6.507   4.339 -0.3138  0.0376 -0.2638
    1DIPC   C1A17945  25.420   6.162   4.583  0.0649  0.3077  0.0387
    1DIPC   D2A17946  25.312   6.128   4.983  0.1586  0.1456 -0.2492
    1DIPC   D3A17947  25.033   5.986   5.043 -0.0669  0.2042  0.0897
    1DIPC   C4A17948  24.674   6.049   4.816 -0.1312 -0.3018  0.0285
    1DIPC   C1B17949  25.897   6.344   4.641 -0.2562  0.0357 -0.0138
    1DIPC   D2B17950  25.893   6.013   4.850  0.1397 -0.2161 -0.2662
    1DIPC   D3B17951  25.761   6.266   5.162 -0.0955  0.0056  0.0218
    1DIPC   C4B17952  25.730   6.675   5.064 -0.2159  0.2288 -0.1313
    1DIPC   NC317953  27.464   6.283   3.852 -0.4123 -0.2251 -0.2384
    1DIPC   PO417954  27.672   6.545   3.946 -0.1709 -0.0665  0.0899
    1DIPC   GL117955  27.723   6.667   4.425 -0.2819 -0.0688 -0.1121
    1DIPC   GL217956  27.492   6.513   4.654  0.1002 -0.1193  0.2855
    1DIPC   C1A17957  27.750   6.976   4.748 -0.0470  0.3460  0.1606
    1DIPC   D2A17958  27.677   7.127   5.182 -0.0729  0.2780  0.3238
    1DIPC   D3A17959  27.323   6.969   5.461 -0.1484 -0.1226  0.1286
    1DIPC   C4A17960  27.473   6.842   5.857  0.0859 -0.2951  0.2526
    1DIPC   C1B17961  27.363   6.742   5.035  0.1130  0.1119 -0.1654
    1DIPC   D2B17962  27.182   7.103   5.009  0.3561 -0.1464  0.2015
    1DIPC   D3B17963  27.003   7.413   5.440 -0.1289  0.0878  0.1679
    1DIPC   C4B17964  26.612   7.644   5.475  0.1377  0.1750  0.0859
    1DIPC   NC317965  28.311  12.821   3.597  0.1261  0.0131  0.2159
    1DIPC   PO417966  27.982  13.050   3.586 -0.1893 -0.1338 -0.1176
    1DIPC   GL117967  28.116  12.961   4.087 -0.4058  0.4300  0.0276
    1DIPC   GL217968  27.967  12.748   3.971 -0.0368  0.3661  0.3226
    1DIPC   C1A17969  27.879  12.890   4.534 -0.1758 -0.1043 -0.3485
    1DIPC   D2A17970  27.669  13.097   4.837  0.0845  0.0094  0.0452
    1DIPC   D3A17971  27.513  13.482   4.737  0.4959 -0.0908  0.0280
    1DIPC   C4A17972  27.453  13.861   4.938 -0.1300 -0.0369  0.0974
    1DIPC   C1B17973  28.154  12.440   4.389 -0.0848 -0.0792 -0.1832
    1DIPC   D2B17974  28.392  12.279   4.673 -0.3311  0.2217 -0.1784
    1DIPC   D3B17975  28.744  12.278   4.439 -0.2115  0.0910  0.2273
    1DIPC   C4B17976  28.977  12.603   4.191 -0.0371 -0.0650  0.0405
    1DIPC   NC317977  10.283  26.542   3.202 -0.3625 -0.0030  0.1640
    1DIPC   PO417978  10.602  26.810   3.341 -0.2185  0.0095 -0.0057
    1DIPC   GL117979  10.675  26.658   3.728 -0.0761  0.0750 -0.0003
    1DIPC   GL217980  11.047  26.602   3.782 -0.2427 -0.1036  0.2864
    1DIPC   C1A17981  10.591  26.748   4.127 -0.0193 -0.0045 -0.0638
    1DIPC   D2A17982  10.790  26.971   4.470  0.2496  0.0701  0.1021
    1DIPC   D3A17983  10.935  26.899   4.917 -0.1129 -0.1664 -0.0634
    1DIPC   C4A17984  11.350  26.865   5.029 -0.1735  0.1152 -0.0083
    1DIPC   C1B17985  11.162  26.791   4.108 -0.1615  0.0957 -0.2690
    1DIPC   D2B17986  11.547  26.784   4.425  0.4030  0.4021 -0.0108
    1DIPC   D3B17987  11.324  27.154   4.474  0.2903 -0.0291  0.0123
    1DIPC   C4B17988  11.561  27.524   4.637  0.1277  0.1566 -0.2575
    1DIPC   NC317989   5.366  26.283   3.844 -0.1569  0.1530 -0.0570
    1DIPC   PO417990   5.148  25.856   3.874  0.1795  0.0631 -0.2688
    1DIPC   GL117991   5.191  25.961   4.307 -0.2477  0.2055  0.4820
    1DIPC   GL217992   5.045  26.237   4.210  0.3582 -0.2084 -0.1313
    1DIPC   C1A17993   5.225  26.002   4.754 -0.2539 -0.2787  0.1487
    1DIPC   D2A17994   5.207  25.880   5.181  0.1151 -0.0278 -0.2137
    1DIPC   D3A17995   5.339  25.715   5.474 -0.1779  0.1282 -0.0881
    1DIPC   C4A17996   5.376  25.904   5.803  0.2598 -0.1235 -0.6296
    1DIPC   C1B17997   4.820  26.134   4.586 -0.2130  0.0047 -0.3857
    1DIPC   D2B17998   4.449  26.330   4.796  0.2184 -0.0160  0.0616
    1DIPC   D3B17999   4.131  26.000   4.931 -0.3264  0.0528  0.0068
    1DIPC   C4B18000   3.869  25.658   4.905  0.0076 -0.2008  0.1623
    1DIPC   NC318001   5.777   2.568   4.534 -0.0214 -0.1210  0.2109
    1DIPC   PO418002   5.886   2.066   4.525  0.1477  0.0542 -0.3062
    1DIPC   GL118003   5.731   2.267   4.923  0.1547  0.1699 -0.4501
    1DIPC   GL218004   5.395   2.088   4.890  0.0326 -0.0082  0.0932
    1DIPC   C1A18005   5.456   2.486   5.168  0.0522  0.0854  0.1612
    1DIPC   D2A18006   5.443   2.636   5.588 -0.1243  0.1249  0.0221
    1DIPC   D3A18007   5.255   2.936   5.469 -0.2234  0.2198  0.0754
    1DIPC   C4A18008   5.213   3.371   5.270  0.0812  0.0811 -0.1437
    1DIPC   C1B18009   5.408   2.036   5.285  0.0813  0.3132 -0.2991
    1DIPC   D2B18010   5.490   2.140   5.726  0.1295 -0.1831 -0.0331
    1DIPC   D3B18011   5.846   1.935   5.552 -0.0402 -0.0500  0.1284
    1DIPC   C4B18012   5.945   1.794   5.152  0.7161  0.3996  0.1312
    1DIPC   NC318013   5.370  22.563   3.401 -0.1263  0.2426  0.0252
    1DIPC   PO418014   5.123  22.901   3.574 -0.1298  0.4217 -0.1750
    1DIPC   GL118015   5.043  23.051   3.961  0.3895  0.2822  0.0079
    1DIPC   GL218016   4.801  22.802   4.078 -0.1215 -0.2415 -0.2313
    1DIPC   C1A18017   4.937  23.199   4.365 -0.1013  0.0094  0.0974
    1DIPC   D2A18018   5.003  23.089   4.684 -0.1853  0.1777 -0.2969
    1DIPC   D3A18019   5.449  23.097   4.562 -0.0001 -0.3300  0.2839
    1DIPC   C4A18020   5.537  23.228   4.229 -0.3409 -0.1519  0.0279
    1DIPC   C1B18021   5.039  22.684   4.418 -0.1775  0.1625 -0.0693
    1DIPC   D2B18022   5.321  22.640   4.678  0.3570  0.1649  0.1571
    1DIPC   D3B18023   5.343  22.914   5.031  0.1611 -0.1596  0.1923
    1DIPC   C4B18024   5.161  22.767   5.447  0.2727 -0.3057 -0.1306
    1DIPC   NC318025  11.365  14.192   2.112 -0.0413  0.0912 -0.0682
    1DIPC   PO418026  11.440  14.190   2.468  0.3662  0.0197 -0.1801
    1DIPC   GL118027  11.618  14.065   2.841  0.0882  0.1564 -0.1488
    1DIPC   GL218028  11.574  14.394   3.105  0.1023 -0.0133  0.2235
    1DIPC   C1A18029  11.769  13.759   3.085 -0.1093  0.0282 -0.3703
    1DIPC   D2A18030  11.759  13.880   3.506 -0.1255 -0.0960 -0.1892
    1DIPC   D3A18031  11.797  14.379   3.633 -0.2610  0.1180  0.2325
    1DIPC   C4A18032  12.188  14.595   3.919  0.0114 -0.2092 -0.1524
    1DIPC   C1B18033  11.953  14.417   3.072  0.3368 -0.0868  0.0771
    1DIPC   D2B18034  12.168  14.143   3.304  0.2094 -0.1518 -0.2379
    1DIPC   D3B18035  12.161  14.020   3.763  0.0034 -0.0566  0.0895
    1DIPC   C4B18036  12.064  14.174   4.183  0.1322  0.5030 -0.2481
    1DIPC   NC318037  11.880  26.627   3.393  0.1146 -0.0403 -0.1968
    1DIPC   PO418038  11.934  26.174   3.307  0.0732 -0.2184  0.1284
    1DIPC   GL118039  11.945  25.954   3.745  0.0781 -0.0289  0.1216
    1DIPC   GL218040  12.124  25.693   3.807 -0.0904  0.0773 -0.2708
    1DIPC   C1A18041  11.799  26.033   4.148  0.0233  0.1592 -0.2898
    1DIPC   D2A18042  11.873  26.243   4.614 -0.0401 -0.0165 -0.2786
    1DIPC   D3A18043  11.553  26.447   4.866  0.1544 -0.2848 -0.1773
    1DIPC   C4A18044  11.112  26.415   5.066  0.0073 -0.0028 -0.0256
    1DIPC   C1B18045  12.112  25.640   4.249 -0.1436  0.2030 -0.0134
    1DIPC   D2B18046  12.122  25.451   4.637  0.1705 -0.4111 -0.3603
    1DIPC   D3B18047  11.913  25.853   4.833  0.1013 -0.1696 -0.1135
    1DIPC   C4B18048  12.015  26.194   5.161 -0.2744  0.2877  0.0980
    1DIPC   NC318049  26.833  23.520   3.646 -0.0532 -0.1618  0.1766
    1DIPC   PO418050  26.446  23.590   3.783 -0.0189 -0.0142  0.1171
    1DIPC   GL118051  26.235  23.635   4.182  0.1082  0.2998 -0.0211
    1DIPC   GL218052  26.005  23.725   4.241  0.0714 -0.0873  0.2412
    1DIPC   C1A18053  26.407  23.812   4.539  0.2135  0.1641 -0.0302
    1DIPC   D2A18054  26.822  23.859   4.544  0.0782  0.0127 -0.0253
    1DIPC   D3A18055  26.773  23.515   4.362  0.0568  0.0396 -0.0050
    1DIPC   C4A18056  26.837  23.051   4.481 -0.2608 -0.1855 -0.3209
    1DIPC   C1B18057  25.803  23.800   4.622 -0.0797  0.0635 -0.0479
    1DIPC   D2B18058  25.590  23.797   5.037  0.0541  0.1102  0.0408
    1DIPC   D3B18059  25.746  23.828   5.413 -0.1350 -0.0855  0.1942
    1DIPC   C4B18060  25.917  24.174   5.441 -0.2524 -0.0603 -0.0787
    1DIPC   NC318061  22.486  13.971   2.077 -0.0709  0.0088  0.3834
    1DIPC   PO418062  22.257  14.180   2.450 -0.0650  0.1101 -0.2816
    1DIPC   GL118063  22.037  13.933   2.731 -0.0373 -0.0364 -0.1081
    1DIPC   GL218064  21.900  14.211   2.965  0.1775 -0.0314 -0.2138
    1DIPC   C1A18065  22.037  13.635   3.064  0.1070  0.0828  0.0160
    1DIPC   D2A18066  22.227  13.566   3.514 -0.1448 -0.0610 -0.0673
    1DIPC   D3A18067  22.111  13.869   3.884  0.2940  0.0438 -0.0822
    1DIPC   C4A18068  22.157  14.332   3.877  0.1969  0.3456 -0.2866
    1DIPC   C1B18069  21.532  14.098   3.196  0.0236  0.0123  0.0522
    1DIPC   D2B18070  21.136  13.952   3.292  0.1002  0.0986  0.1341
    1DIPC   D3B18071  21.290  14.019   3.692  0.0784 -0.1050  0.0343
    1DIPC   C4B18072  21.059  14.298   3.890 -0.1807  0.2865 -0.0519
    1DIPC   NC318073  11.997  18.976   2.851 -0.3685  0.1544 -0.2406
    1DIPC   PO418074  12.368  18.821   3.022  0.0136  0.1409 -0.2466
    1DIPC   GL118075  12.555  18.778   3.427  0.0296  0.2751 -0.0038
    1DIPC   GL218076  12.847  18.775   3.411 -0.2533  0.0067  0.2951
    1DIPC   C1A18077  12.338  19.039   3.798 -0.1350  0.0838 -0.0765
    1DIPC   D2A18078  11.988  19.193   3.962 -0.0824  0.0775  0.1498
    1DIPC   D3A18079  12.172  19.079   4.319  0.1707  0.1633  0.3611
    1DIPC   C4A18080  12.476  19.072   4.344  0.0076  0.0109  0.0108
    1DIPC   C1B18081  12.944  18.951   3.824 -0.1085 -0.2623  0.2592
    1DIPC   D2B18082  13.027  18.915   4.318 -0.0265 -0.1304 -0.2898
    1DIPC   D3B18083  13.280  18.628   4.689  0.1430 -0.0233 -0.3389
    1DIPC   C4B18084  13.682  18.742   4.867  0.1102 -0.0693 -0.1837
    1DIPC   NC318085   3.697  10.328   3.095  0.3566 -0.0470 -0.1515
    1DIPC   PO418086   4.072  10.242   2.968  0.1389 -0.1619 -0.1734
    1DIPC   GL118087   4.222  10.368   3.298 -0.1579  0.1181  0.0716
    1DIPC   GL218088   4.447  10.640   3.379  0.1462  0.1503  0.0288
    1DIPC   C1A18089   4.046  10.284   3.729  0.2486 -0.0331  0.2395
    1DIPC   D2A18090   3.857  10.404   4.162  0.0550  0.1812  0.2285
    1DIPC   D3A18091   3.811  10.464   4.583  0.0109 -0.0111  0.2754
    1DIPC   C4A18092   3.899  10.282   4.974  0.1005 -0.0493 -0.0716
    1DIPC   C1B18093   4.700  10.695   3.738  0.2986 -0.2304 -0.0738
    1DIPC   D2B18094   4.947  10.697   4.113 -0.0382 -0.0321 -0.0983
    1DIPC   D3B18095   5.042  11.044   3.866  0.0668  0.0077  0.1237
    1DIPC   C4B18096   5.011  11.317   4.162 -0.1239  0.2765 -0.1930
    1DIPC   NC318097   3.622  21.284   3.094 -0.0889 -0.1207  0.0489
    1DIPC   PO418098   3.221  21.244   3.367 -0.0083  0.0312 -0.3191
    1DIPC   GL118099   3.327  21.267   3.777 -0.0627  0.2431  0.1114
    1DIPC   GL218100   3.664  21.279   3.807  0.2180 -0.1295  0.2038
    1DIPC   C1A18101   3.121  21.186   4.153  0.1386  0.2533 -0.0665
    1DIPC   D2A18102   3.106  21.292   4.545  0.3079 -0.2244 -0.1464
    1DIPC   D3A18103   3.493  21.026   4.747  0.0408  0.1358 -0.0041
    1DIPC   C4A18104   3.862  21.125   4.916 -0.1416 -0.1840 -0.2092
    1DIPC   C1B18105   3.761  20.999   4.081 -0.0325 -0.0538  0.2733
    1DIPC   D2B18106   3.431  20.741   4.198 -0.1794  0.1840  0.2151
    1DIPC   D3B18107   3.829  20.472   4.109 -0.4047 -0.0186  0.0334
    1DIPC   C4B18108   4.272  20.488   4.406 -0.2582 -0.0255  0.2646
    1DIPC   NC318109  13.338   0.319   2.632  0.2755 -0.2619  0.0575
    1DIPC   PO418110  13.013   0.581   2.621  0.0003 -0.4756  0.0339
    1DIPC   GL118111  13.006   0.334   3.004 -0.1840 -0.0744 -0.0435
    1DIPC   GL218112  13.188   0.069   3.013 -0.2894 -0.0046  0.3994
    1DIPC   C1A18113  12.870   0.347   3.434 -0.0857 -0.4501 -0.0859
    1DIPC   D2A18114  12.828   0.160   3.967  0.1796 -0.3760  0.1507
    1DIPC   D3A18115  12.410   0.432   4.044 -0.0898 -0.2016 -0.1525
    1DIPC   C4A18116  12.217   0.597   3.628  0.0756 -0.2756 -0.0163
    1DIPC   C1B18117  13.408   0.229   3.385 -0.4538 -0.0427 -0.0522
    1DIPC   D2B18118  13.716   0.436   3.592  0.0752 -0.0146  0.1776
    1DIPC   D3B18119  13.666   0.135   3.965  0.0124  0.0907 -0.0818
    1DIPC   C4B18120  13.899   0.394   4.237 -0.2930 -0.0089  0.0893
    1DIPC   NC318121  28.480   6.292   4.144  0.1880 -0.0570  0.2993
    1DIPC   PO418122  28.151   6.159   4.385  0.0973 -0.2110 -0.1292
    1DIPC   GL118123  28.054   6.372   4.768 -0.0165 -0.2016 -0.0397
    1DIPC   GL218124  27.813   6.170   4.804  0.0760  0.0734  0.0453
    1DIPC   C1A18125  27.778   6.539   5.112 -0.0914  0.1535  0.1819
    1DIPC   D2A18126  27.619   6.547   5.481 -0.1280 -0.2004 -0.0670
    1DIPC   D3A18127  27.863   6.499   5.829  0.2210  0.1900 -0.0823
    1DIPC   C4A18128  28.154   6.763   5.956  0.0927  0.3698  0.1908
    1DIPC   C1B18129  27.786   5.950   5.220 -0.0404 -0.1439 -0.0077
    1DIPC   D2B18130  27.619   6.086   5.632  0.1435  0.1036  0.2349
    1DIPC   D3B18131  27.157   5.901   5.612  0.0068 -0.1809  0.1505
    1DIPC   C4B18132  26.980   6.099   5.959  0.1388 -0.3917  0.0246
    1DIPC   NC318133  11.141  28.523   3.242 -0.2564  0.1481  0.1639
    1DIPC   PO418134  11.329  28.209   3.010  0.1601 -0.0996 -0.2995
    1DIPC   GL118135  11.632  28.235   3.412  0.2350  0.1996 -0.0340
    1DIPC   GL218136  11.649  28.557   3.508  0.0449  0.0991  0.0148
    1DIPC   C1A18137  11.508  28.258   3.877 -0.1409 -0.2596  0.1091
    1DIPC   D2A18138  11.520  28.317   4.308 -0.1942 -0.1995  0.0882
    1DIPC   D3A18139  11.444  28.669   4.481  0.0649  0.1952  0.2320
    1DIPC   C4A18140  11.195  28.913   4.695  0.0856  0.0746  0.0778
    1DIPC   C1B18141  11.698  28.736   3.860  0.3018 -0.0780 -0.4080
    1DIPC   D2B18142  12.035  28.957   4.040 -0.1008  0.1997  0.2054
    1DIPC   D3B18143  12.022  28.846   4.424 -0.3325  0.1667  0.3600
    1DIPC   C4B18144  12.230  28.866   4.839 -0.0217  0.1840  0.0101
    1DIPC   NC318145  10.434   9.780   1.965 -0.0452  0.1911 -0.5077
    1DIPC   PO418146  10.579  10.146   2.087  0.1914 -0.1559  0.0669
    1DIPC   GL118147  10.419  10.370   2.501  0.1680 -0.2251 -0.0729
    1DIPC   GL218148  10.553  10.226   2.770 -0.2116 -0.2365  0.3439
    1DIPC   C1A18149  10.357  10.605   2.925 -0.0611  0.2779  0.1023
    1DIPC   D2A18150  10.460  10.897   3.201  0.3822 -0.0074 -0.1567
    1DIPC   D3A18151  10.335  10.790   3.551 -0.0849 -0.1412 -0.0253
    1DIPC   C4A18152  10.583  10.592   3.942 -0.1931  0.0413  0.2484
    1DIPC   C1B18153  10.399  10.193   3.187 -0.0244  0.1156 -0.2445
    1DIPC   D2B18154  10.333  10.234   3.668 -0.0418  0.1414  0.0279
    1DIPC   D3B18155   9.933  10.038   3.751 -0.0035  0.0894  0.1832
    1DIPC   C4B18156   9.652  10.267   4.005 -0.0126 -0.1896  0.0583
    1DIPC   NC318157   8.265  13.576   2.107  0.0085 -0.0329  0.1234
    1DIPC   PO418158   8.046  13.124   2.159  0.4120 -0.1846  0.1512
    1DIPC   GL118159   8.163  13.111   2.630 -0.0774  0.0810  0.3940
    1DIPC   GL218160   8.466  13.209   2.564 -0.0564 -0.3504  0.3671
    1DIPC   C1A18161   8.156  13.121   3.094  0.2629 -0.1684 -0.0300
    1DIPC   D2A18162   8.176  13.047   3.503  0.2514 -0.1038 -0.2213
    1DIPC   D3A18163   7.987  12.712   3.507  0.3484 -0.2862 -0.2732
    1DIPC   C4A18164   7.835  12.401   3.861 -0.4810  0.1350 -0.0055
    1DIPC   C1B18165   8.600  13.059   2.907  0.1978  0.0352 -0.0469
    1DIPC   D2B18166   8.994  12.873   3.267  0.3535  0.1271 -0.0976
    1DIPC   D3B18167   8.616  12.785   3.506  0.1640 -0.2060 -0.0547
    1DIPC   C4B18168   8.496  12.995   3.870 -0.0951 -0.1544  0.0576
    1DIPC   NC318169   1.774  19.050   3.280  0.0198  0.1239 -0.0871
    1DIPC   PO418170   1.988  18.969   3.639  0.2610  0.1309  0.2535
    1DIPC   GL118171   2.070  19.174   4.044 -0.1567 -0.2451  0.0220
    1DIPC   GL218172   1.790  19.320   4.183 -0.1034  0.0076  0.1324
    1DIPC   C1A18173   2.286  19.478   4.415  0.0780  0.0391  0.0270
    1DIPC   D2A18174   2.267  19.743   4.627  0.1071 -0.1052 -0.2400
    1DIPC   D3A18175   2.669  19.656   4.782 -0.1862 -0.0011  0.0125
    1DIPC   C4A18176   2.579  19.524   5.201 -0.1971  0.0286  0.0531
    1DIPC   C1B18177   1.829  19.405   4.615 -0.1704 -0.0317 -0.0827
    1DIPC   D2B18178   1.880  19.560   5.050 -0.0400 -0.1892 -0.1038
    1DIPC   D3B18179   1.995  20.049   5.134 -0.1082  0.1962  0.3988
    1DIPC   C4B18180   1.641  20.315   5.051  0.2298  0.0915 -0.3696
    1DIPC   NC318181   8.719  12.362   1.650  0.2025 -0.1588 -0.0841
    1DIPC   PO418182   8.629  12.658   1.831  0.0157  0.2635  0.0794
    1DIPC   GL118183   8.639  12.665   2.308  0.0406  0.0149 -0.2518
    1DIPC   GL218184   8.903  12.610   2.595 -0.4307  0.0542  0.0531
    1DIPC   C1A18185   8.368  12.547   2.633  0.2254 -0.0092  0.1165
    1DIPC   D2A18186   7.915  12.555   2.574  0.3800 -0.0417  0.0419
    1DIPC   D3A18187   7.575  12.868   2.749  0.0036  0.0351  0.2721
    1DIPC   C4A18188   7.179  12.904   2.748  0.0195 -0.1146  0.1637
    1DIPC   C1B18189   8.747  12.534   3.036  0.0340 -0.2628  0.3438
    1DIPC   D2B18190   8.325  12.636   3.136 -0.2211  0.0600 -0.1926
    1DIPC   D3B18191   7.896  12.595   3.078  0.1278  0.0419  0.4498
    1DIPC   C4B18192   7.576  12.882   3.311  0.0168 -0.2577 -0.0177
    1DIPC   NC318193   5.609  27.231   3.926 -0.1253  0.1605 -0.1004
    1DIPC   PO418194   5.886  27.255   4.231 -0.0270 -0.2040 -0.3574
    1DIPC   GL118195   5.949  26.909   4.498  0.1850  0.0986 -0.0691
    1DIPC   GL218196   6.188  27.006   4.780 -0.1437 -0.0493 -0.1593
    1DIPC   C1A18197   6.209  26.447   4.739  0.1509  0.0236  0.1562
    1DIPC   D2A18198   6.508  26.604   5.024  0.3327  0.0619 -0.0142
    1DIPC   D3A18199   6.347  26.619   5.489  0.1949 -0.1671 -0.0390
    1DIPC   C4A18200   6.483  26.302   5.729 -0.3243 -0.0089  0.0134
    1DIPC   C1B18201   6.088  27.021   5.206 -0.3225 -0.4228 -0.0434
    1DIPC   D2B18202   6.017  27.021   5.668 -0.0589 -0.3611  0.2889
    1DIPC   D3B18203   6.392  26.904   5.908 -0.0545  0.0006 -0.4364
    1DIPC   C4B18204   6.775  26.691   5.727  0.1773 -0.2302  0.5368
    1DIPC   NC318205   0.569  23.459   3.546 -0.0197 -0.2072  0.0528
    1DIPC   PO418206   0.428  23.445   4.000  0.1191  0.1208  0.0249
    1DIPC   GL118207   0.420  23.400   4.400 -0.0701  0.2228 -0.0892
    1DIPC   GL218208   0.182  23.564   4.641 -0.2179 -0.1676 -0.3849
    1DIPC   C1A18209   0.353  23.101   4.692  0.0448  0.1166 -0.2781
    1DIPC   D2A18210   0.134  22.917   4.914  0.2998  0.0831  0.0169
    1DIPC   D3A18211   0.515  22.881   5.208  0.2150 -0.0170 -0.0001
    1DIPC   C4A18212   0.613  22.865   5.651 -0.2430 -0.0835 -0.2291
    1DIPC   C1B18213   0.325  23.502   5.057 -0.3872  0.1621  0.2920
    1DIPC   D2B18214   0.119  23.314   5.261  0.0845  0.3159 -0.0311
    1DIPC   D3B18215  -0.107  23.200   5.709  0.0590 -0.0667 -0.1907
    1DIPC   C4B18216  -0.384  22.778   5.736  0.0939  0.0494 -0.0252
    1DIPC   NC318217  18.154  19.775   2.030 -0.1328 -0.1815 -0.3945
    1DIPC   PO418218  18.525  19.730   2.183  0.0215  0.2576 -0.1950
    1DIPC   GL118219  18.723  19.649   2.555 -0.0482 -0.2146 -0.0314
    1DIPC   GL218220  18.496  19.679   2.815  0.0161  0.6263  0.0233
    1DIPC   C1A18221  19.181  19.628   2.646  0.2406  0.1118 -0.3542
    1DIPC   D2A18222  19.538  19.989   2.844 -0.0911 -0.0747  0.0820
    1DIPC   D3A18223  19.379  20.096   3.310 -0.0644 -0.1975 -0.0447
    1DIPC   C4A18224  19.413  19.953   3.682  0.0204 -0.0131  0.0209
    1DIPC   C1B18225  18.511  19.599   3.225  0.0960 -0.3829  0.2014
    1DIPC   D2B18226  18.529  19.627   3.696 -0.3452  0.0077 -0.0725
    1DIPC   D3B18227  18.329  19.358   3.985 -0.0523  0.1558  0.3871
    1DIPC   C4B18228  18.578  19.153   4.309  0.0901 -0.1375  0.1380
    1DIPC   NC318229  24.488  12.711   2.895 -0.4243  0.1142 -0.2161
    1DIPC   PO418230  24.284  12.594   3.251  0.0415  0.0385  0.0218
    1DIPC   GL118231  24.155  12.669   3.655  0.1673  0.1507  0.0288
    1DIPC   GL218232  24.114  12.945   3.660  0.2019  0.2814 -0.0886
    1DIPC   C1A18233  23.877  12.581   3.982  0.1986 -0.1259  0.3375
    1DIPC   D2A18234  23.457  12.689   4.171  0.0667  0.0326  0.1796
    1DIPC   D3A18235  23.665  13.034   4.250  0.1711  0.3740  0.0556
    1DIPC   C4A18236  24.116  12.936   4.383  0.0926 -0.1935 -0.2452
    1DIPC   C1B18237  24.263  13.288   3.961 -0.0678 -0.4095  0.2240
    1DIPC   D2B18238  24.194  13.459   4.308  0.3235 -0.1326  0.0663
    1DIPC   D3B18239  23.861  13.705   4.495 -0.2531 -0.0021  0.0898
    1DIPC   C4B18240  23.531  13.395   4.578  0.1880  0.0903  0.1218
    1DIPC   NC318241  22.415   9.619   1.746  0.3057  0.5053 -0.0578
    1DIPC   PO418242  22.219   9.786   2.112 -0.2429  0.1913 -0.1001
    1DIPC   GL118243  22.485   9.810   2.584 -0.1263  0.1975 -0.0455
    1DIPC   GL218244  22.612   9.461   2.773 -0.1257  0.0069  0.1443
    1DIPC   C1A18245  22.235   9.726   2.925  0.0300 -0.1350 -0.2291
    1DIPC   D2A18246  22.174   9.560   3.407  0.1220  0.2427  0.3052
    1DIPC   D3A18247  22.009   9.527   3.843  0.1349 -0.2344  0.1425
    1DIPC   C4A18248  22.075   9.077   4.066 -0.1159 -0.1388  0.1120
    1DIPC   C1B18249  22.744   9.711   3.093  0.0833  0.1301 -0.0869
    1DIPC   D2B18250  22.833   9.685   3.472 -0.0738 -0.2005 -0.1657
    1DIPC   D3B18251  22.691  10.123   3.493  0.1964  0.0121 -0.1794
    1DIPC   C4B18252  22.860  10.468   3.806  0.1386  0.0268 -0.0761
    1DIPC   NC318253   4.878  21.830   3.495 -0.0258  0.1574  0.0342
    1DIPC   PO418254   5.081  22.174   3.459  0.0873 -0.1252 -0.1320
    1DIPC   GL118255   5.224  22.425   3.846  0.1895 -0.4208  0.0412
    1DIPC   GL218256   5.185  22.302   4.193  0.0711  0.4704  0.0317
    1DIPC   C1A18257   5.486  22.687   4.220 -0.0735  0.2036 -0.1092
    1DIPC   D2A18258   5.808  22.750   4.559 -0.0695  0.0668  0.2601
    1DIPC   D3A18259   5.889  22.730   5.034 -0.1697  0.2698 -0.1687
    1DIPC   C4A18260   5.877  22.426   5.316  0.2434  0.0839 -0.1195
    1DIPC   C1B18261   5.073  21.882   4.114 -0.0575 -0.1868 -0.1787
    1DIPC   D2B18262   4.918  21.466   3.931  0.1149  0.1692 -0.2003
    1DIPC   D3B18263   4.604  21.663   3.855  0.0758  0.0471  0.2353
    1DIPC   C4B18264   4.266  21.522   3.887 -0.2508 -0.0595  0.1688
    1DIPC   NC318265   1.523   4.665   4.038 -0.0265  0.0528 -0.2616
    1DIPC   PO418266   1.794   5.004   4.396 -0.0452  0.0531 -0.0003
    1DIPC   GL118267   1.912   4.883   4.811  0.1507  0.1171  0.0772
    1DIPC   GL218268   1.648   4.836   5.114  0.0272  0.1331 -0.0585
    1DIPC   C1A18269   2.144   4.748   5.161 -0.3456  0.1699  0.0585
    1DIPC   D2A18270   2.402   4.523   5.453 -0.2293 -0.0193 -0.2370
    1DIPC   D3A18271   2.316   4.963   5.578 -0.1640 -0.0212 -0.1506
    1DIPC   C4A18272   1.992   5.152   5.375 -0.2244 -0.0402  0.1915
    1DIPC   C1B18273   1.814   4.767   5.580  0.0591  0.0769  0.0555
    1DIPC   D2B18274   2.008   4.603   5.920  0.1170 -0.3547 -0.0568
    1DIPC   D3B18275   1.515   4.708   6.086  0.0819  0.1432  0.1132
    1DIPC   C4B18276   1.403   4.463   6.485 -0.0215 -0.0009 -0.0574
    1DIPC   NC318277   6.479  25.307   3.523 -0.0238  0.2268 -0.0643
    1DIPC   PO418278   6.635  25.718   3.794 -0.1639  0.1992  0.0715
    1DIPC   GL118279   6.772  25.970   4.160  0.3317  0.1417 -0.0097
    1DIPC   GL218280   6.871  25.845   4.440  0.1209 -0.3274  0.0358
    1DIPC   C1A18281   6.683  26.318   4.409 -0.2661 -0.2231 -0.1906
    1DIPC   D2A18282   6.741  26.179   4.788 -0.3128 -0.1881  0.2559
    1DIPC   D3A18283   6.864  26.281   5.204 -0.0928  0.1427  0.1652
    1DIPC   C4A18284   7.053  25.893   5.133  0.0185  0.1193  0.2448
    1DIPC   C1B18285   7.227  26.064   4.681 -0.0422 -0.1537  0.0271
    1DIPC   D2B18286   7.500  26.078   4.901 -0.0430 -0.0929 -0.1196
    1DIPC   D3B18287   7.377  26.370   5.233  0.1759  0.1234  0.1904
    1DIPC   C4B18288   7.473  26.712   4.929 -0.1539 -0.0697 -0.0943
    1DIPC   NC318289  12.532   5.153   1.663 -0.0315  0.1969 -0.0289
    1DIPC   PO418290  12.273   5.231   1.916  0.1548 -0.0925  0.0169
    1DIPC   GL118291  12.313   5.538   2.309  0.1597  0.0394  0.0854
    1DIPC   GL218292  12.673   5.537   2.402  0.0199  0.0708 -0.1224
    1DIPC   C1A18293  12.302   5.727   2.727  0.1117 -0.0172  0.1775
    1DIPC   D2A18294  12.418   5.707   3.172  0.0009  0.1430 -0.2107
    1DIPC   D3A18295  12.071   5.832   3.468 -0.2422  0.1829 -0.1995
    1DIPC   C4A18296  12.074   5.623   3.880 -0.0600  0.0358  0.0416
    1DIPC   C1B18297  12.851   5.617   2.727  0.3732 -0.3158 -0.0879
    1DIPC   D2B18298  13.238   5.451   3.001 -0.0795 -0.0113 -0.0181
    1DIPC   D3B18299  13.611   5.466   2.753 -0.3716 -0.4121  0.1552
    1DIPC   C4B18300  13.861   5.757   2.670  0.1261  0.1226 -0.0328
    1DIPC   NC318301   6.427  18.157   3.133  0.1459 -0.3711 -0.3408
    1DIPC   PO418302   6.784  17.986   3.176 -0.0706  0.0971 -0.1814
    1DIPC   GL118303   6.970  18.263   3.443  0.0987  0.0404 -0.0398
    1DIPC   GL218304   6.793  18.364   3.653 -0.1527 -0.1009  0.1480
    1DIPC   C1A18305   7.128  17.967   3.709 -0.0810  0.0484 -0.3436
    1DIPC   D2A18306   7.374  17.948   4.076 -0.2258  0.3776  0.2442
    1DIPC   D3A18307   7.458  17.906   4.404 -0.3222 -0.0187 -0.1180
    1DIPC   C4A18308   7.717  17.604   4.536 -0.3599  0.0470 -0.0386
    1DIPC   C1B18309   7.040  18.395   4.098  0.0563  0.0163 -0.1168
    1DIPC   D2B18310   7.236  18.351   4.478  0.1082 -0.1786  0.2570
    1DIPC   D3B18311   7.606  18.371   4.328  0.1690  0.2755  0.0096
    1DIPC   C4B18312   7.935  18.443   4.698 -0.2284  0.2090 -0.4541
    1DIPC   NC318313   9.399  14.125   1.971  0.0124 -0.3127 -0.4237
    1DIPC   PO418314   9.003  14.081   2.207  0.2801  0.2600  0.3766
    1DIPC   GL118315   9.093  13.865   2.534 -0.0839  0.1955 -0.2221
    1DIPC   GL218316   9.470  13.798   2.668 -0.0648  0.0524 -0.2915
    1DIPC   C1A18317   8.954  13.779   2.923  0.0934 -0.3252 -0.2373
    1DIPC   D2A18318   8.827  13.793   3.339  0.0689 -0.1296 -0.4169
    1DIPC   D3A18319   9.077  14.180   3.377 -0.2193  0.0698  0.2706
    1DIPC   C4A18320   8.748  14.357   3.536 -0.0052  0.2052 -0.3284
    1DIPC   C1B18321   9.413  13.636   3.007 -0.0533  0.0346 -0.1720
    1DIPC   D2B18322   9.413  13.784   3.467 -0.0935  0.1167  0.3337
    1DIPC   D3B18323   9.359  13.411   3.650 -0.0620 -0.1731  0.0617
    1DIPC   C4B18324   9.284  13.484   4.033  0.0863 -0.1436 -0.0882
    1DIPC   NC318325  14.065  18.550   2.650  0.2285 -0.2660 -0.1622
    1DIPC   PO418326  13.835  18.735   3.049 -0.1416 -0.0587  0.2561
    1DIPC   GL118327  13.615  18.726   3.353  0.2746  0.0500 -0.1238
    1DIPC   GL218328  13.320  18.938   3.421  0.0764 -0.0926  0.1248
    1DIPC   C1A18329  13.640  18.725   3.752  0.0557 -0.2379  0.0436
    1DIPC   D2A18330  13.450  18.909   4.042 -0.1222  0.1025 -0.1602
    1DIPC   D3A18331  13.437  19.058   4.509 -0.1324  0.0520 -0.1308
    1DIPC   C4A18332  13.185  19.215   4.742 -0.2971 -0.1431  0.1313
    1DIPC   C1B18333  13.586  19.251   3.669 -0.0256  0.0727 -0.1417
    1DIPC   D2B18334  13.736  19.436   4.055  0.3872 -0.0382  0.1113
    1DIPC   D3B18335  13.803  19.696   3.710 -0.1768 -0.0328 -0.0710
    1DIPC   C4B18336  13.534  19.661   3.352 -0.1775  0.0201  0.1093
    1DIPC   NC318337   6.524  20.743   3.015 -0.0154 -0.3900 -0.0116
    1DIPC   PO418338   6.547  20.305   2.953 -0.1345 -0.4471  0.1108
    1DIPC   GL118339   6.677  20.303   3.379  0.1441 -0.0112  0.4285
    1DIPC   GL218340   6.513  20.111   3.599  0.1588 -0.0102  0.2966
    1DIPC   C1A18341   7.036  20.113   3.537  0.2750  0.1369 -0.2630
    1DIPC   D2A18342   7.432  19.990   3.511  0.1219 -0.0615 -0.0836
    1DIPC   D3A18343   7.671  19.577   3.579 -0.3722  0.0631 -0.0615
    1DIPC   C4A18344   7.445  19.224   3.701  0.0277 -0.2469  0.1466
    1DIPC   C1B18345   6.850  19.867   3.946  0.2314  0.1675  0.1129
    1DIPC   D2B18346   6.749  19.706   4.399 -0.1809 -0.2384  0.1250
    1DIPC   D3B18347   6.952  19.234   4.393 -0.0713  0.0460 -0.1706
    1DIPC   C4B18348   6.921  19.002   4.767 -0.0797 -0.1167 -0.1495
    1DIPC   NC318349  21.259  18.758   2.090  0.2582  0.0044 -0.0346
    1DIPC   PO418350  21.507  18.392   2.358 -0.0690  0.1558  0.0399
    1DIPC   GL118351  21.542  18.632   2.801  0.0124 -0.0749 -0.3536
    1DIPC   GL218352  21.538  18.918   2.976 -0.2534 -0.1553 -0.1512
    1DIPC   C1A18353  21.427  18.457   3.194  0.0104 -0.1115  0.0041
    1DIPC   D2A18354  21.088  18.265   3.314  0.0094 -0.2980  0.1538
    1DIPC   D3A18355  20.979  18.613   3.033 -0.3959  0.0984  0.2355
    1DIPC   C4A18356  20.821  19.080   3.209  0.0690 -0.1856 -0.1713
    1DIPC   C1B18357  21.272  18.952   3.291  0.1246 -0.1449  0.1940
    1DIPC   D2B18358  21.195  18.672   3.622 -0.1667  0.2441  0.2650
    1DIPC   D3B18359  20.927  18.418   3.711 -0.1829 -0.0664  0.1464
    1DIPC   C4B18360  20.416  18.331   3.873 -0.1920 -0.1808 -0.0533
    1DIPC   NC318361   7.834   7.645   3.063 -0.1559 -0.1504 -0.2615
    1DIPC   PO418362   7.636   8.067   3.068  0.0723 -0.0254 -0.0005
    1DIPC   GL118363   7.592   7.926   3.506  0.0309 -0.2428  0.2223
    1DIPC   GL218364   7.758   7.678   3.593 -0.5396  0.0349 -0.1493
    1DIPC   C1A18365   7.288   7.810   3.783 -0.1682 -0.2945 -0.1530
    1DIPC   D2A18366   6.922   7.676   3.881 -0.1065 -0.0387 -0.0336
    1DIPC   D3A18367   7.045   7.326   3.685 -0.0381  0.0549 -0.0395
    1DIPC   C4A18368   7.302   7.414   3.386 -0.1060  0.1132 -0.0159
    1DIPC   C1B18369   7.718   7.703   4.023  0.1798  0.1521  0.0740
    1DIPC   D2B18370   7.433   7.896   4.246 -0.1587  0.0647  0.1497
    1DIPC   D3B18371   7.738   8.111   4.413 -0.3306  0.0973 -0.0767
    1DIPC   C4B18372   7.699   8.367   4.756  0.1941 -0.0282  0.3231
    1DIPC   NC318373   8.293  19.010   2.239 -0.1136  0.1691  0.0418
    1DIPC   PO418374   8.634  18.877   2.536  0.0690  0.0979 -0.1513
    1DIPC   GL118375   8.515  18.800   3.006  0.2565 -0.1035 -0.5555
    1DIPC   GL218376   8.430  18.414   3.045  0.0344  0.2028  0.0261
    1DIPC   C1A18377   8.757  18.682   3.407 -0.1668 -0.1829 -0.0056
    1DIPC   D2A18378   8.795  18.482   3.777  0.1296 -0.2844  0.2295
    1DIPC   D3A18379   8.835  18.216   4.210 -0.0481  0.1421  0.1798
    1DIPC   C4A18380   8.998  18.168   4.595 -0.0451 -0.1873  0.1108
    1DIPC   C1B18381   8.376  18.361   3.403  0.2278  0.1875 -0.0354
    1DIPC   D2B18382   8.323  18.326   3.848 -0.1465  0.0581 -0.2820
    1DIPC   D3B18383   7.970  18.335   3.964  0.4134 -0.0372 -0.0464
    1DIPC   C4B18384   7.917  17.974   4.217 -0.0963  0.0214  0.2928
    1DIPC   NC318385  11.241  13.129   2.580  0.1230  0.2376  0.0454
    1DIPC   PO418386  10.943  13.355   2.481  0.2177 -0.1520 -0.0002
    1DIPC   GL118387  10.827  13.291   2.824 -0.1475  0.2122 -0.0478
    1DIPC   GL218388  10.578  13.348   2.913 -0.2147 -0.0623 -0.2702
    1DIPC   C1A18389  10.955  13.505   3.261  0.2563 -0.1014  0.0173
    1DIPC   D2A18390  10.993  13.528   3.662  0.0664 -0.0837 -0.0855
    1DIPC   D3A18391  10.857  13.889   3.981  0.1056 -0.1189  0.0430
    1DIPC   C4A18392  10.580  14.246   3.944 -0.2921  0.0405 -0.1333
    1DIPC   C1B18393  10.457  13.351   3.338  0.1064  0.0212  0.2456
    1DIPC   D2B18394  10.302  13.062   3.615 -0.0647  0.1566  0.0272
    1DIPC   D3B18395  10.651  13.089   3.848  0.1852  0.0267 -0.2682
    1DIPC   C4B18396  10.815  12.875   4.056  0.2509  0.0411 -0.2257
    1DIPC   NC318397   4.298  23.102   3.075 -0.2100  0.0400 -0.0766
    1DIPC   PO418398   4.085  23.232   3.434  0.1059 -0.0882 -0.0533
    1DIPC   GL118399   4.250  22.972   3.801  0.1371 -0.0758  0.0286
    1DIPC   GL218400   4.291  22.575   3.761  0.0732  0.1894  0.1766
    1DIPC   C1A18401   4.059  22.917   4.228 -0.1900  0.1235  0.2170
    1DIPC   D2A18402   4.124  22.781   4.589 -0.0237  0.4242 -0.1991
    1DIPC   D3A18403   4.505  22.889   4.436  0.3074 -0.0906 -0.3696
    1DIPC   C4A18404   4.495  23.242   4.160  0.2120 -0.2771 -0.4454
    1DIPC   C1B18405   4.249  22.468   4.194  0.3483 -0.1986  0.2320
    1DIPC   D2B18406   4.027  22.295   4.579 -0.0993 -0.1952  0.1207
    1DIPC   D3B18407   3.991  21.866   4.676 -0.2448 -0.3249 -0.0110
    1DIPC   C4B18408   3.950  21.605   5.010 -0.4237 -0.1387 -0.2295
    1DIPC   NC318409  28.082   0.100   3.873  0.1768 -0.0577  0.2213
    1DIPC   PO418410  28.242  -0.286   4.033  0.0622  0.1738 -0.0198
    1DIPC   GL118411  28.290  -0.453   4.465  0.0124 -0.0056 -0.0809
    1DIPC   GL218412  28.245  -0.141   4.527 -0.1774 -0.1759  0.1620
    1DIPC   C1A18413  28.033  -0.584   4.762  0.1651  0.1424  0.0721
    1DIPC   D2A18414  27.579  -0.518   4.654 -0.1432 -0.0691  0.2385
    1DIPC   D3A18415  27.419  -0.122   4.522  0.1355 -0.1912 -0.3071
    1DIPC   C4A18416  26.881  -0.124   4.539  0.1334  0.0261 -0.2815
    1DIPC   C1B18417  28.478  -0.170   4.848  0.0918  0.2183  0.1610
    1DIPC   D2B18418  28.764  -0.401   4.962  0.2958  0.1658 -0.0677
    1DIPC   D3B18419  28.869  -0.642   5.280  0.1340  0.0016 -0.0686
    1DIPC   C4B18420  28.533  -0.738   5.569 -0.0679  0.2807 -0.0146
    1DIPC   NC318421  10.188  18.835   2.931  0.0682  0.0212 -0.1030
    1DIPC   PO418422  10.225  19.260   3.169  0.3706  0.2607  0.1790
    1DIPC   GL118423  10.250  19.087   3.539  0.2051 -0.1926 -0.2366
    1DIPC   GL218424  10.332  18.753   3.454  0.0329  0.2052  0.1006
    1DIPC   C1A18425   9.878  19.044   3.822 -0.1082  0.0887 -0.2223
    1DIPC   D2A18426   9.496  18.903   3.948  0.4961  0.2198 -0.2190
    1DIPC   D3A18427   9.405  19.020   4.412  0.1851  0.1244 -0.1250
    1DIPC   C4A18428   8.981  18.820   4.505  0.1540 -0.0150  0.0452
    1DIPC   C1B18429  10.292  18.734   3.944  0.0250  0.1593 -0.0963
    1DIPC   D2B18430  10.276  18.377   4.242 -0.0171  0.2041 -0.2490
    1DIPC   D3B18431  10.317  17.924   4.422  0.3091 -0.0249  0.1776
    1DIPC   C4B18432  10.147  17.930   4.863  0.0181  0.2472 -0.0649
    1DIPC   NC318433  14.765  15.641   2.227 -0.0228 -0.0364 -0.1730
    1DIPC   PO418434  14.717  15.309   2.430  0.2555 -0.0306 -0.0492
    1DIPC   GL118435  14.692  15.150   2.774  0.2402 -0.1013 -0.0590
    1DIPC   GL218436  14.759  14.897   2.808 -0.3391  0.4565 -0.1169
    1DIPC   C1A18437  14.451  15.137   3.073 -0.0253  0.0778  0.0339
    1DIPC   D2A18438  14.025  15.306   3.094 -0.0111 -0.0536  0.2694
    1DIPC   D3A18439  14.056  15.625   3.369 -0.1126 -0.1730 -0.0867
    1DIPC   C4A18440  14.113  15.394   3.694  0.1379 -0.0511  0.1427
    1DIPC   C1B18441  14.797  14.760   3.209  0.1723 -0.0894 -0.1667
    1DIPC   D2B18442  14.989  14.766   3.541  0.2409 -0.2576 -0.2083
    1DIPC   D3B18443  14.833  14.494   3.687  0.0039 -0.1462  0.1448
    1DIPC   C4B18444  15.120  14.355   4.001 -0.2805  0.2453 -0.2201
    1DIPC   NC318445   1.944  25.730   3.675  0.0240  0.0884 -0.1652
    1DIPC   PO418446   2.068  25.453   3.920  0.1566  0.0144 -0.4855
    1DIPC   GL118447   1.957  25.236   4.307  0.1439 -0.0350  0.3117
    1DIPC   GL218448   1.917  25.477   4.456  0.3698 -0.2240 -0.1670
    1DIPC   C1A18449   1.911  25.115   4.788 -0.2474  0.0363  0.0587
    1DIPC   D2A18450   2.111  24.887   5.119  0.0865 -0.1055 -0.0437
    1DIPC   D3A18451   1.848  25.105   5.312  0.1445 -0.2654  0.3033
    1DIPC   C4A18452   1.765  24.988   5.655 -0.0721  0.2462  0.1624
    1DIPC   C1B18453   2.076  25.553   4.817 -0.0544  0.2787 -0.0768
    1DIPC   D2B18454   2.162  25.523   5.285 -0.0214 -0.0250 -0.3229
    1DIPC   D3B18455   2.149  25.329   5.709  0.2233 -0.1800  0.2170
    1DIPC   C4B18456   2.514  25.264   5.991 -0.2000  0.1031 -0.2325
    1DIPC   NC318457   0.138  25.169   3.931 -0.1591  0.1151  0.0174
    1DIPC   PO418458  -0.021  24.795   4.215 -0.0146  0.0406  0.1234
    1DIPC   GL118459  -0.249  24.893   4.488  0.1610 -0.0327  0.0702
    1DIPC   GL218460  -0.240  25.158   4.826 -0.0715 -0.2734  0.3181
    1DIPC   C1A18461  -0.510  24.647   4.674  0.0601 -0.2496 -0.0585
    1DIPC   D2A18462  -0.930  24.473   4.544  0.1903  0.1481  0.0890
    1DIPC   D3A18463  -0.977  24.415   4.980 -0.0277  0.0178 -0.4919
    1DIPC   C4A18464  -0.665  24.516   5.478 -0.0224 -0.2459  0.0256
    1DIPC   C1B18465   0.122  25.061   4.928  0.0875  0.1274 -0.4351
    1DIPC   D2B18466   0.549  25.021   4.881  0.1170  0.3123 -0.2478
    1DIPC   D3B18467   0.957  24.773   4.829 -0.3052 -0.0808 -0.2093
    1DIPC   C4B18468   1.407  24.958   4.944 -0.1747 -0.0667 -0.0004
    1DIPC   NC318469  27.192   4.989   4.073 -0.3817 -0.0323  0.1147
    1DIPC   PO418470  26.945   5.333   3.905 -0.0460  0.0335  0.3735
    1DIPC   GL118471  26.835   5.219   4.318 -0.0730 -0.0245  0.0355
    1DIPC   GL218472  27.099   5.397   4.483 -0.0157 -0.3204 -0.0989
    1DIPC   C1A18473  26.769   5.063   4.746  0.0519  0.1032 -0.0841
    1DIPC   D2A18474  26.661   5.115   5.191  0.0652 -0.1524 -0.0190
    1DIPC   D3A18475  26.319   4.902   5.345 -0.0882  0.0663  0.3084
    1DIPC   C4A18476  26.114   4.675   5.692 -0.1217  0.0717  0.1022
    1DIPC   C1B18477  27.206   5.520   4.819  0.1413  0.1713 -0.3587
    1DIPC   D2B18478  27.067   5.468   5.311  0.5244 -0.2202 -0.0403
    1DIPC   D3B18479  26.886   5.255   5.613  0.1393  0.0048 -0.2501
    1DIPC   C4B18480  27.000   4.972   5.829 -0.3177 -0.0451 -0.2826
    1DIPC   NC318481   5.329  24.643   3.429 -0.0656 -0.1000  0.0863
    1DIPC   PO418482   5.235  24.683   3.918  0.1654  0.0250  0.0923
    1DIPC   GL118483   4.977  24.502   4.226 -0.0020  0.0159  0.0896
    1DIPC   GL218484   4.785  24.185   4.280  0.0301 -0.0213 -0.0617
    1DIPC   C1A18485   5.013  24.669   4.624 -0.3712 -0.3693  0.4188
    1DIPC   D2A18486   5.052  24.607   5.039  0.2109  0.1449  0.0714
    1DIPC   D3A18487   4.649  24.631   4.987 -0.1489 -0.1386 -0.0220
    1DIPC   C4A18488   4.381  24.981   5.217  0.1112 -0.1985  0.1324
    1DIPC   C1B18489   4.643  24.268   4.693 -0.0444  0.0609  0.1066
    1DIPC   D2B18490   4.773  24.185   5.188  0.2368  0.1397 -0.1024
    1DIPC   D3B18491   4.750  24.076   5.597  0.2827  0.1429 -0.0211
    1DIPC   C4B18492   5.056  24.221   5.786 -0.2233 -0.2474  0.2259
    1DIPC   NC318493  14.864  27.070   2.682 -0.0288 -0.0667  0.2251
    1DIPC   PO418494  14.941  27.474   2.750  0.0844  0.2284 -0.2244
    1DIPC   GL118495  14.787  27.431   3.143 -0.1005 -0.0454 -0.0876
    1DIPC   GL218496  14.512  27.249   3.150  0.1288  0.0930  0.1528
    1DIPC   C1A18497  14.810  27.443   3.611 -0.1696  0.0938  0.1726
    1DIPC   D2A18498  14.637  27.208   3.950  0.0966 -0.2191 -0.1123
    1DIPC   D3A18499  14.965  27.316   4.265  0.1918  0.0678 -0.1468
    1DIPC   C4A18500  14.882  26.956   4.509  0.1145 -0.0948 -0.0306
    1DIPC   C1B18501  14.519  26.997   3.486  0.0051  0.4206 -0.2500
    1DIPC   D2B18502  14.733  26.684   3.691  0.1651  0.0632 -0.6234
    1DIPC   D3B18503  15.101  26.955   3.963  0.1410 -0.0241  0.1412
    1DIPC   C4B18504  15.529  27.045   3.692 -0.2891  0.1565 -0.2327
    1DIPC   NC318505   2.557   9.678   3.436 -0.1808 -0.0858 -0.2949
    1DIPC   PO418506   2.232   9.970   3.350  0.3466  0.2026  0.1846
    1DIPC   GL118507   2.189  10.196   3.738  0.0045  0.2583 -0.2638
    1DIPC   GL218508   1.985   9.921   3.900  0.2446  0.1660  0.1577
    1DIPC   C1A18509   2.416  10.079   4.177 -0.4027  0.1878  0.0030
    1DIPC   D2A18510   2.451   9.817   4.645  0.0472 -0.3202  0.1184
    1DIPC   D3A18511   2.509  10.237   4.734 -0.1791 -0.3040  0.1104
    1DIPC   C4A18512   2.279  10.587   4.991  0.2318 -0.0303  0.0225
    1DIPC   C1B18513   2.201   9.553   4.017 -0.0881  0.1142  0.1203
    1DIPC   D2B18514   2.360   9.202   4.237  0.1950  0.1656 -0.2622
    1DIPC   D3B18515   2.479   9.019   4.684 -0.4235 -0.3965 -0.2088
    1DIPC   C4B18516   2.226   9.208   4.928  0.2211 -0.2628 -0.1955
    1DIPC   NC318517  12.027  25.166   3.334 -0.1006 -0.1237  0.0577
    1DIPC   PO418518  11.686  25.415   3.155  0.2707  0.3518  0.2686
    1DIPC   GL118519  11.709  25.470   3.628 -0.0486  0.1654  0.1441
    1DIPC   GL218520  11.922  25.193   3.923 -0.1788 -0.0617 -0.1415
    1DIPC   C1A18521  11.581  25.538   4.091  0.0187 -0.0497  0.0160
    1DIPC   D2A18522  11.641  25.548   4.468 -0.1602 -0.0493 -0.1420
    1DIPC   D3A18523  11.486  25.211   4.771 -0.0054 -0.1941  0.4143
    1DIPC   C4A18524  11.172  25.286   5.114  0.2381 -0.1345  0.2775
    1DIPC   C1B18525  11.940  25.085   4.285 -0.1752  0.1778 -0.0535
    1DIPC   D2B18526  12.013  24.951   4.635  0.1819 -0.1278 -0.3737
    1DIPC   D3B18527  12.016  24.510   4.685  0.3641  0.2426  0.0353
    1DIPC   C4B18528  12.154  24.273   4.959  0.1212 -0.0037  0.0330
    1DIPC   NC318529  14.264   8.661   1.866 -0.4036  0.1274 -0.2130
    1DIPC   PO418530  14.120   8.302   1.956 -0.3612  0.2617 -0.1008
    1DIPC   GL118531  14.166   8.091   2.355 -0.4809  0.0022 -0.2196
    1DIPC   GL218532  14.556   8.178   2.492 -0.1499 -0.1327 -0.0509
    1DIPC   C1A18533  14.211   7.788   2.628 -0.0682 -0.2332  0.5021
    1DIPC   D2A18534  14.324   7.563   2.857  0.0171  0.3052  0.0763
    1DIPC   D3A18535  14.471   7.359   3.261  0.1191  0.1260  0.0741
    1DIPC   C4A18536  14.609   6.915   3.398 -0.0767 -0.1405  0.1128
    1DIPC   C1B18537  14.338   8.220   2.854 -0.0987  0.0109  0.0657
    1DIPC   D2B18538  14.199   8.345   3.298 -0.0603 -0.0535 -0.2337
    1DIPC   D3B18539  13.969   8.162   3.616 -0.2249 -0.0188  0.0979
    1DIPC   C4B18540  14.129   8.312   4.015 -0.0591 -0.2334 -0.1618
    1DIPC   NC318541   4.654   6.108   3.344  0.0492  0.0560  0.1262
    1DIPC   PO418542   4.568   5.995   3.796  0.0666 -0.0239  0.1832
    1DIPC   GL118543   4.491   6.119   4.273  0.0615  0.2384  0.0833
    1DIPC   GL218544   4.524   6.540   4.293 -0.1066  0.0747 -0.0372
    1DIPC   C1A18545   4.237   5.991   4.586 -0.1252  0.0401 -0.0771
    1DIPC   D2A18546   4.009   5.962   4.867  0.3067 -0.0476 -0.0043
    1DIPC   D3A18547   4.016   6.408   5.054  0.2742 -0.1070 -0.3013
    1DIPC   C4A18548   3.790   6.335   5.449 -0.0061 -0.2272  0.4292
    1DIPC   C1B18549   4.866   6.402   4.508  0.0472 -0.0149 -0.0210
    1DIPC   D2B18550   5.145   6.408   4.840 -0.4022  0.0866  0.1537
    1DIPC   D3B18551   5.080   6.425   5.376 -0.3897 -0.1443 -0.0647
    1DIPC   C4B18552   4.823   6.287   5.597  0.0591 -0.2439  0.1212
    1DIPC   NC318553  26.494  16.188   3.776  0.1175  0.3859  0.1508
    1DIPC   PO418554  26.967  16.093   3.891  0.2402 -0.1488  0.1250
    1DIPC   GL118555  26.746  16.083   4.277 -0.2741  0.0240 -0.0083
    1DIPC   GL218556  26.883  16.389   4.379  0.4469  0.0870 -0.2959
    1DIPC   C1A18557  26.697  15.868   4.651 -0.2152  0.1306 -0.0916
    1DIPC   D2A18558  26.850  15.521   4.856  0.1990  0.0567 -0.0909
    1DIPC   D3A18559  26.654  15.238   5.139  0.1264  0.0367 -0.2746
    1DIPC   C4A18560  26.842  15.241   5.451  0.4469  0.0892 -0.2446
    1DIPC   C1B18561  26.806  16.536   4.849 -0.1321  0.1840 -0.0836
    1DIPC   D2B18562  26.831  16.953   5.076  0.2742  0.0864 -0.1104
    1DIPC   D3B18563  26.854  16.710   5.417  0.0073 -0.0458 -0.2552
    1DIPC   C4B18564  26.529  16.570   5.655 -0.3629 -0.0333  0.2837
    1DIPC   NC318565  16.968  19.646   2.632 -0.1295 -0.0919  0.2693
    1DIPC   PO418566  16.730  19.228   2.488 -0.0806 -0.1470  0.0567
    1DIPC   GL118567  16.781  19.350   2.940 -0.2506  0.1219  0.1065
    1DIPC   GL218568  16.585  19.588   3.005  0.0755  0.0027 -0.2972
    1DIPC   C1A18569  16.902  18.992   3.278  0.0581 -0.0220 -0.1394
    1DIPC   D2A18570  16.807  18.834   3.611 -0.0956  0.0031  0.1749
    1DIPC   D3A18571  16.535  18.734   3.882 -0.0342 -0.1235 -0.0659
    1DIPC   C4A18572  16.684  18.952   4.328  0.1043  0.0644 -0.2298
    1DIPC   C1B18573  16.422  19.296   3.377 -0.0461 -0.2196 -0.0336
    1DIPC   D2B18574  16.288  18.883   3.421 -0.0650  0.4162 -0.0897
    1DIPC   D3B18575  16.528  18.749   3.087 -0.0089 -0.0515 -0.2786
    1DIPC   C4B18576  16.865  18.482   3.184 -0.2967 -0.1632 -0.0962
    1DIPC   NC318577  21.108  20.887   2.321  0.0758  0.0801  0.2252
    1DIPC   PO418578  20.650  20.838   2.345 -0.0181 -0.0721 -0.1344
    1DIPC   GL118579  20.790  21.032   2.754  0.0677  0.2936  0.0114
    1DIPC   GL218580  20.478  21.230   2.826  0.0951  0.0349 -0.0514
    1DIPC   C1A18581  20.889  21.047   3.164 -0.0336 -0.3016 -0.4882
    1DIPC   D2A18582  21.027  20.855   3.571  0.2678 -0.1831 -0.2395
    1DIPC   D3A18583  21.059  21.073   3.951 -0.3527  0.0778 -0.0388
    1DIPC   C4A18584  20.831  20.943   4.181 -0.3430  0.1083  0.3241
    1DIPC   C1B18585  20.490  21.285   3.235  0.2581  0.0612 -0.1358
    1DIPC   D2B18586  20.717  21.591   3.321 -0.0654  0.3315 -0.0783
    1DIPC   D3B18587  21.009  21.418   3.556 -0.0027 -0.0281 -0.0340
    1DIPC   C4B18588  21.345  21.216   3.513 -0.0003  0.0679 -0.0782
    1DIPC   NC318589  12.469  20.197   3.015  0.3584 -0.0208 -0.0966
    1DIPC   PO418590  12.099  20.259   3.245  0.1988  0.5592  0.1809
    1DIPC   GL118591  11.987  20.350   3.595  0.2458 -0.1422 -0.4086
    1DIPC   GL218592  11.917  20.151   3.783  0.0239 -0.0448  0.3114
    1DIPC   C1A18593  11.691  20.668   3.740  0.1144  0.6522  0.2066
    1DIPC   D2A18594  11.556  21.107   3.538 -0.0650  0.4459 -0.4329
    1DIPC   D3A18595  11.814  21.105   3.943 -0.2382  0.0441 -0.3353
    1DIPC   C4A18596  11.688  20.788   4.203  0.0075 -0.1447 -0.1990
    1DIPC   C1B18597  11.939  20.218   4.235 -0.4013 -0.2248  0.0712
    1DIPC   D2B18598  12.013  20.580   4.546  0.1065  0.3099 -0.0424
    1DIPC   D3B18599  11.599  20.669   4.790  0.2740  0.1084  0.1743
    1DIPC   C4B18600  11.241  20.777   4.444  0.1451 -0.0270 -0.1980
    1DIPC   NC318601   9.170  25.259   3.571  0.1954 -0.0804 -0.0178
    1DIPC   PO418602   9.629  25.386   3.531  0.1554 -0.0963 -0.3315
    1DIPC   GL118603   9.391  25.442   3.959  0.1082  0.0053  0.0062
    1DIPC   GL218604   9.527  25.144   4.185 -0.3197  0.0042 -0.3856
    1DIPC   C1A18605   9.565  25.651   4.327  0.0103  0.3233 -0.2012
    1DIPC   D2A18606   9.727  25.338   4.750  0.2018  0.2102  0.1486
    1DIPC   D3A18607   9.945  25.712   4.743 -0.0956 -0.0290 -0.0405
    1DIPC   C4A18608   9.861  26.015   5.054 -0.0276 -0.3174  0.0748
    1DIPC   C1B18609   9.340  24.949   4.467 -0.1196  0.4161  0.3785
    1DIPC   D2B18610   9.298  24.576   4.672  0.1533 -0.1849  0.0064
    1DIPC   D3B18611   8.972  24.432   4.492  0.0111  0.2692  0.1494
    1DIPC   C4B18612   8.766  24.596   4.157 -0.1239 -0.2360  0.1700
    1DIPC   NC318613  15.701  21.539   2.516  0.0142 -0.1953  0.3684
    1DIPC   PO418614  15.938  21.600   2.894 -0.0942  0.2208  0.1134
    1DIPC   GL118615  15.976  21.633   3.325 -0.1198 -0.0960 -0.0379
    1DIPC   GL218616  16.276  21.466   3.374 -0.1763 -0.2045  0.1650
    1DIPC   C1A18617  15.810  21.731   3.749  0.0679  0.0249  0.0866
    1DIPC   D2A18618  15.967  21.945   4.013  0.0124 -0.0068 -0.2265
    1DIPC   D3A18619  15.926  21.847   4.486 -0.0696 -0.0086 -0.2092
    1DIPC   C4A18620  15.649  22.225   4.677 -0.0066 -0.0865 -0.0814
    1DIPC   C1B18621  16.068  21.269   3.721 -0.0236 -0.0844  0.0467
    1DIPC   D2B18622  16.059  21.268   4.175  0.2296  0.0900  0.0233
    1DIPC   D3B18623  15.632  21.464   4.294  0.1194  0.0269  0.0171
    1DIPC   C4B18624  15.341  21.245   4.416  0.1788  0.0126 -0.2367
    1DIPC   NC318625  10.240  25.027   2.952  0.2369  0.1728 -0.2954
    1DIPC   PO418626   9.996  25.031   3.359 -0.3257 -0.1503  0.3177
    1DIPC   GL118627  10.157  24.903   3.687  0.0152  0.1305 -0.1491
    1DIPC   GL218628  10.083  24.689   3.854 -0.0753 -0.2811 -0.0597
    1DIPC   C1A18629  10.477  24.819   4.107  0.1028  0.0515 -0.0675
    1DIPC   D2A18630  10.665  24.817   4.492  0.1866  0.0806  0.0609
    1DIPC   D3A18631  10.260  24.883   4.594  0.2153  0.1800 -0.0233
    1DIPC   C4A18632  10.059  25.131   4.277  0.1141 -0.1662 -0.0446
    1DIPC   C1B18633   9.774  24.695   4.286  0.3700  0.2162  0.1841
    1DIPC   D2B18634   9.746  24.771   4.777  0.1198 -0.0619 -0.1992
    1DIPC   D3B18635  10.059  24.571   4.954  0.1334  0.2736  0.1197
    1DIPC   C4B18636  10.015  24.570   5.390 -0.3572 -0.0203  0.0455
    1DIPC   NC318637   3.487   1.897   3.728  0.0476 -0.1042  0.0689
    1DIPC   PO418638   3.703   1.909   4.155  0.0269 -0.0057 -0.2285
    1DIPC   GL118639   3.751   1.724   4.577  0.2540  0.3760  0.0620
    1DIPC   GL218640   3.584   1.465   4.698 -0.1304 -0.1281 -0.2164
    1DIPC   C1A18641   3.830   1.841   4.954  0.1517 -0.0195 -0.2402
    1DIPC   D2A18642   3.878   2.082   5.336  0.2047 -0.0472  0.1175
    1DIPC   D3A18643   3.522   2.004   5.709 -0.0106 -0.1790  0.1008
    1DIPC   C4A18644   3.410   2.350   5.829  0.1920  0.0369 -0.3559
    1DIPC   C1B18645   3.871   1.213   4.932 -0.0230 -0.0838 -0.0417
    1DIPC   D2B18646   4.009   0.747   4.869  0.0514 -0.0322 -0.0768
    1DIPC   D3B18647   4.334   0.529   4.973 -0.2783 -0.1060 -0.0274
    1DIPC   C4B18648   4.418   0.593   5.411  0.0055 -0.0331 -0.1876
    1DIPC   NC318649  25.190   5.503   2.694 -0.1560 -0.1038 -0.1088
    1DIPC   PO418650  24.787   5.276   2.865  0.0867 -0.0864  0.0280
    1DIPC   GL118651  24.553   5.051   3.288  0.0322 -0.1679  0.2631
    1DIPC   GL218652  24.249   5.209   3.409 -0.2023  0.2919 -0.1304
    1DIPC   C1A18653  24.671   4.971   3.792 -0.2467 -0.2161 -0.1805
    1DIPC   D2A18654  24.638   4.743   4.145  0.4184  0.0228  0.0648
    1DIPC   D3A18655  24.973   4.876   4.219  0.0642  0.0499 -0.2253
    1DIPC   C4A18656  25.208   4.807   3.799 -0.1339  0.0823 -0.1528
    1DIPC   C1B18657  24.449   5.476   3.675  0.1913  0.0991 -0.1044
    1DIPC   D2B18658  24.575   5.823   3.971 -0.3548  0.3481 -0.0517
    1DIPC   D3B18659  24.495   5.822   4.423 -0.1768 -0.0139  0.1376
    1DIPC   C4B18660  24.361   5.482   4.635  0.1157 -0.1389 -0.3019
    1DIPC   NC318661  22.004   2.531   3.186  0.1249 -0.1311  0.0203
    1DIPC   PO418662  21.609   2.395   3.185 -0.1055  0.0526 -0.0522
    1DIPC   GL118663  21.400   2.600   3.495 -0.3013 -0.1973 -0.1634
    1DIPC   GL218664  21.566   2.824   3.503  0.1793 -0.0058 -0.0169
    1DIPC   C1A18665  21.115   2.541   3.737  0.0396 -0.0028 -0.0793
    1DIPC   D2A18666  21.186   2.465   4.151 -0.1916  0.1809 -0.0252
    1DIPC   D3A18667  21.236   1.952   4.175  0.2845 -0.3129 -0.0427
    1DIPC   C4A18668  20.909   1.669   4.013 -0.0471 -0.0211  0.0793
    1DIPC   C1B18669  21.556   2.740   3.959 -0.3498  0.2365  0.0298
    1DIPC   D2B18670  21.646   3.061   4.260  0.0393  0.0356 -0.1271
    1DIPC   D3B18671  22.041   3.250   4.424 -0.0522  0.1475  0.0921
    1DIPC   C4B18672  22.336   2.970   4.668  0.0471 -0.0099  0.4348
    1DIPC   NC318673   1.108  28.262   3.890 -0.2541 -0.1405  0.1708
    1DIPC   PO418674   1.552  28.304   4.190 -0.3043  0.1308  0.3162
    1DIPC   GL118675   1.456  28.334   4.648 -0.0647 -0.1103 -0.1614
    1DIPC   GL218676   1.705  28.299   4.718  0.1561 -0.2499 -0.2520
    1DIPC   C1A18677   1.209  28.523   4.891 -0.0672  0.0315  0.1862
    1DIPC   D2A18678   0.895  28.499   5.200 -0.0024  0.2515  0.2781
    1DIPC   D3A18679   0.878  28.929   5.415 -0.0313  0.4000 -0.1914
    1DIPC   C4A18680   0.818  29.079   5.839  0.1691 -0.0028 -0.0949
    1DIPC   C1B18681   1.939  28.240   5.042  0.2029  0.0391 -0.0221
    1DIPC   D2B18682   1.910  28.128   5.582  0.2074 -0.2739  0.2726
    1DIPC   D3B18683   1.565  28.324   5.781  0.1277  0.0635  0.0107
    1DIPC   C4B18684   1.315  27.957   5.856 -0.2705  0.1790 -0.4827
    1DIPC   NC318685   2.594   1.928   4.087 -0.0529 -0.0847 -0.0613
    1DIPC   PO418686   2.877   1.607   4.065  0.2176  0.0711 -0.1721
    1DIPC   GL118687   2.965   1.359   4.530 -0.1065 -0.0282  0.0694
    1DIPC   GL218688   2.823   1.301   4.884 -0.2904  0.1518  0.0051
    1DIPC   C1A18689   3.109   1.707   4.900  0.1666 -0.0198 -0.1897
    1DIPC   D2A18690   3.426   1.691   5.337 -0.2891 -0.5443  0.1989
    1DIPC   D3A18691   3.426   2.008   5.141  0.0463  0.0038 -0.1751
    1DIPC   C4A18692   3.291   2.489   5.286 -0.0726  0.0335  0.1593
    1DIPC   C1B18693   2.785   1.595   5.253 -0.1632 -0.5301 -0.1763
    1DIPC   D2B18694   2.443   1.928   5.308 -0.2676 -0.0418 -0.0976
    1DIPC   D3B18695   2.491   2.207   5.724  0.1853  0.0968  0.1151
    1DIPC   C4B18696   2.209   1.969   6.073 -0.0048  0.1467 -0.0985
    1DIPC   NC318697   2.183  21.810   3.214 -0.3698  0.3339 -0.0896
    1DIPC   PO418698   1.820  21.766   3.375 -0.1012  0.0880  0.1853
    1DIPC   GL118699   1.916  21.738   3.848 -0.2054 -0.0670 -0.1167
    1DIPC   GL218700   2.228  21.966   4.025  0.3637 -0.1304  0.1181
    1DIPC   C1A18701   2.113  21.433   4.211 -0.1810 -0.2231 -0.5060
    1DIPC   D2A18702   2.033  21.021   4.459 -0.0734 -0.0515 -0.3250
    1DIPC   D3A18703   1.831  21.083   4.935  0.2104 -0.1978  0.3529
    1DIPC   C4A18704   1.629  20.820   5.208  0.4222  0.1433 -0.2114
    1DIPC   C1B18705   2.241  21.802   4.448 -0.1062 -0.2729  0.0384
    1DIPC   D2B18706   2.000  21.502   4.780  0.2127 -0.3959 -0.1518
    1DIPC   D3B18707   1.665  21.378   4.558 -0.1257 -0.0052 -0.3551
    1DIPC   C4B18708   1.520  20.897   4.593 -0.1243 -0.3842 -0.0386
    1DIPC   NC318709  12.082  19.838   3.011  0.1945  0.0282  0.0392
    1DIPC   PO418710  12.494  19.712   3.064  0.1705 -0.1622  0.0778
    1DIPC   GL118711  12.345  19.935   3.491 -0.1557 -0.1054  0.0731
    1DIPC   GL218712  12.497  20.281   3.548  0.0828  0.2039  0.1060
    1DIPC   C1A18713  12.356  19.942   3.928  0.3343  0.0027 -0.4299
    1DIPC   D2A18714  12.439  20.185   4.250  0.1007 -0.2051 -0.1056
    1DIPC   D3A18715  12.215  19.930   4.603  0.2900  0.0047  0.2173
    1DIPC   C4A18716  12.455  19.984   5.010 -0.1983  0.0772  0.0283
    1DIPC   C1B18717  12.450  20.583   3.747  0.0862  0.1786 -0.1201
    1DIPC   D2B18718  12.217  20.645   4.102  0.1969  0.1539  0.1955
    1DIPC   D3B18719  12.580  20.732   4.259 -0.1588 -0.1039 -0.1319
    1DIPC   C4B18720  12.889  20.520   4.539  0.0443 -0.1594 -0.2021
    1DIPC   NC318721  21.520   9.568   1.380 -0.0367  0.0603  0.0404
    1DIPC   PO418722  21.739   9.341   1.674  0.1819  0.0349 -0.0950
    1DIPC   GL118723  21.664   8.994   2.041 -0.1435 -0.1882 -0.0713
    1DIPC   GL218724  21.371   8.931   2.147 -0.0991  0.1703 -0.2745
    1DIPC   C1A18725  21.873   8.722   2.343 -0.1605 -0.1151  0.1671
    1DIPC   D2A18726  22.134   8.552   2.719  0.0862 -0.0012  0.0020
    1DIPC   D3A18727  21.900   8.278   2.930  0.0924  0.2025 -0.0854
    1DIPC   C4A18728  21.754   8.295   3.442 -0.0399 -0.3317  0.1006
    1DIPC   C1B18729  21.607   9.194   2.525 -0.1866 -0.0594  0.0489
    1DIPC   D2B18730  21.866   9.023   2.737  0.2274 -0.1659  0.1114
    1DIPC   D3B18731  22.131   9.166   3.083 -0.2152  0.1723 -0.1607
    1DIPC   C4B18732  22.041   9.089   3.531 -0.1033  0.1461 -0.0808
    1DIPC   NC318733  24.958  23.316   4.157 -0.0376 -0.0150  0.1076
    1DIPC   PO418734  24.951  22.871   4.048 -0.0355 -0.1986  0.0531
    1DIPC   GL118735  24.818  22.493   4.337 -0.2464 -0.2266 -0.0372
    1DIPC   GL218736  25.224  22.534   4.332 -0.1703 -0.2143  0.2067
    1DIPC   C1A18737  24.396  22.492   4.592 -0.0787 -0.0276 -0.6174
    1DIPC   D2A18738  24.193  22.582   4.863  0.0179 -0.0550  0.0027
    1DIPC   D3A18739  24.462  22.412   5.322 -0.0054 -0.1328 -0.1471
    1DIPC   C4A18740  24.360  22.140   5.604 -0.0135 -0.0458  0.0500
    1DIPC   C1B18741  25.164  22.341   4.680 -0.0275 -0.0491 -0.3722
    1DIPC   D2B18742  25.227  21.944   4.892 -0.2014  0.0051 -0.2319
    1DIPC   D3B18743  25.673  21.808   4.925  0.0631 -0.2036 -0.1328
    1DIPC   C4B18744  26.056  21.771   4.743 -0.1613  0.3101  0.0332
    1DIPC   NC318745  21.358  11.001   2.299 -0.1053 -0.4258 -0.2432
    1DIPC   PO418746  20.923  10.883   2.136 -0.0152 -0.0642  0.0254
    1DIPC   GL118747  20.765  10.831   2.621 -0.0168 -0.1389 -0.0773
    1DIPC   GL218748  20.962  11.025   2.826  0.0993 -0.2186 -0.1019
    1DIPC   C1A18749  20.759  10.436   2.786  0.0397  0.5255  0.0315
    1DIPC   D2A18750  21.064  10.236   3.165 -0.0496 -0.3043  0.1269
    1DIPC   D3A18751  21.357   9.835   3.223 -0.1747  0.0125 -0.0857
    1DIPC   C4A18752  21.144   9.435   3.413 -0.0373 -0.2192  0.1244
    1DIPC   C1B18753  21.226  10.808   3.112  0.2420  0.1407 -0.2395
    1DIPC   D2B18754  21.663  10.940   3.288 -0.0094 -0.2282 -0.2172
    1DIPC   D3B18755  21.460  11.293   3.253  0.0607  0.2415  0.1088
    1DIPC   C4B18756  21.116  11.355   3.535  0.1155 -0.1089  0.0488
    1DIPC   NC318757  19.544  20.591   2.331 -0.0726  0.2637  0.1094
    1DIPC   PO418758  19.225  20.411   2.603 -0.1364 -0.0422 -0.2899
    1DIPC   GL118759  18.964  20.178   2.847  0.1936 -0.1821 -0.0039
    1DIPC   GL218760  18.634  20.171   3.005  0.0326 -0.0269 -0.0005
    1DIPC   C1A18761  19.029  19.840   3.119 -0.0508 -0.0707  0.2403
    1DIPC   D2A18762  18.975  19.805   3.524  0.0407 -0.1055 -0.1248
    1DIPC   D3A18763  18.780  19.988   3.844  0.3126 -0.0952  0.0331
    1DIPC   C4A18764  19.008  20.149   4.152  0.3940 -0.1203  0.0984
    1DIPC   C1B18765  18.818  20.233   3.336 -0.1688  0.1998 -0.1157
    1DIPC   D2B18766  19.063  20.330   3.609  0.0021  0.0524 -0.0325
    1DIPC   D3B18767  19.452  20.491   3.623  0.0199  0.0854  0.0307
    1DIPC   C4B18768  19.759  20.914   3.825 -0.2124  0.3018 -0.0965
    1DIPC   NC318769   2.641  28.196   4.194 -0.2261 -0.0761  0.0258
    1DIPC   PO418770   2.729  28.705   4.271  0.2574 -0.0552 -0.0070
    1DIPC   GL118771   2.505  28.790   4.614 -0.2548  0.0018 -0.2212
    1DIPC   GL218772   2.392  29.035   4.706  0.1050  0.0006 -0.2815
    1DIPC   C1A18773   2.498  28.488   5.011  0.2461  0.1077  0.0442
    1DIPC   D2A18774   2.371  28.385   5.351 -0.0737 -0.1086 -0.3357
    1DIPC   D3A18775   1.893  28.639   5.491 -0.2457 -0.1403  0.0916
    1DIPC   C4A18776   1.504  28.347   5.259  0.0646  0.1282  0.1722
    1DIPC   C1B18777   2.098  29.266   4.942 -0.2261 -0.1286  0.0635
    1DIPC   D2B18778   1.746  29.169   5.313 -0.5225  0.0204 -0.0228
    1DIPC   D3B18779   1.622  29.266   5.728 -0.0213 -0.1337  0.1404
    1DIPC   C4B18780   1.759  29.653   5.897 -0.0503 -0.0989 -0.3289
    1DIPC   NC318781   6.228  19.429   2.759 -0.1231 -0.3679  0.2734
    1DIPC   PO418782   5.970  19.813   2.918 -0.0600  0.0790 -0.2629
    1DIPC   GL118783   5.798  19.853   3.416 -0.1015 -0.1009  0.0989
    1DIPC   GL218784   6.082  19.709   3.630 -0.1169  0.1788  0.2540
    1DIPC   C1A18785   5.635  20.089   3.736  0.1595  0.1492 -0.1926
    1DIPC   D2A18786   5.313  20.383   3.904 -0.0169 -0.1191 -0.3629
    1DIPC   D3A18787   5.611  20.382   4.174 -0.1357 -0.1349 -0.3437
    1DIPC   C4A18788   5.978  20.151   4.402  0.5115  0.0832  0.1362
    1DIPC   C1B18789   5.987  19.319   4.004  0.0565  0.1086 -0.5678
    1DIPC   D2B18790   5.910  19.231   4.464 -0.0614  0.1281  0.0735
    1DIPC   D3B18791   5.798  19.085   4.803 -0.1815  0.0270 -0.1600
    1DIPC   C4B18792   5.973  18.829   5.132  0.0011  0.0474  0.1396
    1DIPC   NC318793  15.068   5.080   1.964  0.1354  0.0897 -0.1610
    1DIPC   PO418794  15.254   5.444   1.794  0.3519 -0.6550  0.3222
    1DIPC   GL118795  15.446   5.640   2.170  0.1849  0.3374  0.3594
    1DIPC   GL218796  15.719   5.764   2.253  0.1393  0.4949  0.0862
    1DIPC   C1A18797  15.395   5.400   2.446 -0.0368 -0.0927  0.2507
    1DIPC   D2A18798  15.134   5.036   2.429 -0.1462  0.3685 -0.1915
    1DIPC   D3A18799  15.383   4.718   2.573 -0.0966  0.2964  0.2062
    1DIPC   C4A18800  15.178   4.240   2.849  0.1619  0.0958  0.1794
    1DIPC   C1B18801  15.950   5.315   2.440  0.0877 -0.0773 -0.3608
    1DIPC   D2B18802  15.773   4.932   2.448 -0.0226 -0.0839 -0.1915
    1DIPC   D3B18803  15.612   5.145   2.860 -0.3852  0.2289  0.3202
    1DIPC   C4B18804  15.743   5.547   2.806 -0.1654  0.0550 -0.3127
    1DIPC   NC318805  23.114  17.451   2.887 -0.0638 -0.0281  0.0246
    1DIPC   PO418806  23.397  17.008   2.814  0.1476 -0.1960 -0.1282
    1DIPC   GL118807  23.356  17.085   3.275  0.0216  0.1398  0.2323
    1DIPC   GL218808  23.387  17.426   3.336 -0.0440 -0.0444 -0.0682
    1DIPC   C1A18809  23.220  16.693   3.523  0.3134  0.0630 -0.0547
    1DIPC   D2A18810  23.314  16.336   3.703 -0.1572 -0.1691  0.0628
    1DIPC   D3A18811  23.152  16.631   4.011  0.1127  0.1675 -0.3148
    1DIPC   C4A18812  22.780  16.682   4.229 -0.2853 -0.0935 -0.1066
    1DIPC   C1B18813  23.240  17.382   3.742 -0.0329 -0.0767  0.0277
    1DIPC   D2B18814  23.374  17.078   4.157 -0.0712 -0.1950 -0.2072
    1DIPC   D3B18815  23.576  17.427   4.393  0.1565  0.1127 -0.0251
    1DIPC   C4B18816  23.650  17.498   4.828  0.0398  0.4727  0.0367
    1DIPC   NC318817  13.168   4.978   1.870  0.1196 -0.2061  0.3009
    1DIPC   PO418818  12.905   4.855   1.690  0.1180  0.1951  0.2371
    1DIPC   GL118819  12.718   4.744   2.052 -0.1418  0.1619  0.0522
    1DIPC   GL218820  12.720   4.987   2.275  0.2034  0.0446  0.0834
    1DIPC   C1A18821  12.652   4.561   2.530 -0.3393  0.0766  0.2921
    1DIPC   D2A18822  12.525   4.731   2.942  0.0154  0.1209 -0.0873
    1DIPC   D3A18823  12.573   4.533   3.302  0.0864 -0.1176  0.0944
    1DIPC   C4A18824  12.399   4.605   3.697  0.0257 -0.0328 -0.1416
    1DIPC   C1B18825  12.905   5.087   2.638 -0.1834 -0.2277  0.1464
    1DIPC   D2B18826  12.928   5.093   3.015 -0.0468 -0.0688 -0.1331
    1DIPC   D3B18827  13.033   4.676   3.010 -0.1388 -0.3932 -0.1196
    1DIPC   C4B18828  12.843   4.274   2.917 -0.1189  0.0343  0.1974
    1DIPC   NC318829  15.097   2.315   2.332  0.2166 -0.2987  0.0090
    1DIPC   PO418830  14.662   2.122   2.231 -0.0069  0.1210 -0.3404
    1DIPC   GL118831  14.921   1.886   2.466  0.0614 -0.2252  0.0787
    1DIPC   GL218832  14.803   1.632   2.606 -0.2798  0.0258  0.0069
    1DIPC   C1A18833  15.333   1.745   2.617 -0.1706 -0.0186 -0.2065
    1DIPC   D2A18834  15.646   1.497   2.718 -0.0121 -0.2757 -0.0006
    1DIPC   D3A18835  15.512   1.438   3.081 -0.1701  0.0072 -0.0093
    1DIPC   C4A18836  15.358   1.516   3.556 -0.2235  0.0492 -0.0566
    1DIPC   C1B18837  14.781   1.904   2.981 -0.0749 -0.0435 -0.2395
    1DIPC   D2B18838  14.795   2.308   2.734 -0.0894 -0.1246 -0.1136
    1DIPC   D3B18839  15.167   2.147   2.833 -0.1693 -0.2904  0.0980
    1DIPC   C4B18840  15.183   1.904   3.301  0.0503 -0.3147 -0.2577
    1DIPC   NC318841  10.555  25.832   3.110  0.0670 -0.1541 -0.1903
    1DIPC   PO418842  10.335  25.865   3.498  0.1334 -0.0215  0.3342
    1DIPC   GL118843  10.259  25.894   3.883  0.0660 -0.2254  0.0945
    1DIPC   GL218844  10.225  26.255   4.014  0.3428 -0.0242 -0.1203
    1DIPC   C1A18845  10.226  25.632   4.240 -0.2150 -0.0309  0.3453
    1DIPC   D2A18846  10.494  25.282   4.424  0.0323  0.0431  0.0379
    1DIPC   D3A18847  10.293  25.338   4.865 -0.0348 -0.2861 -0.2458
    1DIPC   C4A18848  10.224  25.007   5.176  0.0037  0.0302 -0.0334
    1DIPC   C1B18849  10.187  26.635   4.363 -0.2302  0.1812  0.2321
    1DIPC   D2B18850  10.222  26.692   4.860 -0.0518  0.2658 -0.0939
    1DIPC   D3B18851  10.506  26.651   5.201  0.0970 -0.1757 -0.2153
    1DIPC   C4B18852  10.454  26.322   5.423 -0.1459  0.0905  0.1495
    1DIPC   NC318853   4.194  11.758   3.288  0.1320 -0.0706  0.2109
    1DIPC   PO418854   4.061  12.120   3.232 -0.0543  0.2388  0.2591
    1DIPC   GL118855   4.114  12.387   3.573 -0.0286  0.1951 -0.0426
    1DIPC   GL218856   4.129  12.774   3.437 -0.0523 -0.0302  0.1467
    1DIPC   C1A18857   4.090  12.615   3.925  0.1261 -0.0838  0.0473
    1DIPC   D2A18858   4.200  12.687   4.316  0.2268  0.1177  0.0937
    1DIPC   D3A18859   4.561  12.843   4.133 -0.2883  0.0397 -0.2156
    1DIPC   C4A18860   4.559  12.610   3.737 -0.0636 -0.0152 -0.3340
    1DIPC   C1B18861   4.375  13.117   3.708  0.0283 -0.0685  0.0474
    1DIPC   D2B18862   4.679  13.432   3.910  0.0742  0.0101  0.1681
    1DIPC   D3B18863   4.756  13.569   4.327  0.2035  0.3223  0.1161
    1DIPC   C4B18864   5.096  13.690   4.549 -0.1901  0.0547  0.0645
    1DIPC   NC318865  18.776  14.761   1.960 -0.1499  0.1896 -0.1087
    1DIPC   PO418866  18.954  14.710   2.415 -0.3508 -0.3983 -0.1162
    1DIPC   GL118867  18.754  14.871   2.791  0.0658  0.3103  0.0374
    1DIPC   GL218868  18.465  14.921   2.732  0.1258 -0.1174 -0.0509
    1DIPC   C1A18869  18.673  14.908   3.242 -0.0701 -0.2146  0.2917
    1DIPC   D2A18870  18.748  14.802   3.629 -0.0042  0.0440 -0.0718
    1DIPC   D3A18871  18.528  14.415   3.656  0.1273  0.0655  0.0478
    1DIPC   C4A18872  18.581  14.121   3.987  0.1467  0.3094  0.0196
    1DIPC   C1B18873  18.132  14.939   3.063  0.0120 -0.0197  0.3238
    1DIPC   D2B18874  18.279  15.126   3.475  0.1744  0.4438  0.2876
    1DIPC   D3B18875  18.368  14.897   3.894  0.1418 -0.0228 -0.0857
    1DIPC   C4B18876  18.175  14.955   4.236 -0.0895 -0.2211 -0.1250
    1DIPC   NC318877  13.681  11.396   1.795  0.1834 -0.1235 -0.0783
    1DIPC   PO418878  13.850  11.672   1.863 -0.0700  0.2419 -0.0561
    1DIPC   GL118879  13.849  11.631   2.299 -0.0243 -0.2697 -0.1148
    1DIPC   GL218880  13.644  11.591   2.525 -0.1259 -0.0607  0.2769
    1DIPC   C1A18881  14.190  11.517   2.511 -0.0793  0.0232 -0.1273
    1DIPC   D2A18882  14.435  11.591   2.868 -0.0309 -0.1235 -0.1255
    1DIPC   D3A18883  14.536  11.396   3.171  0.1506 -0.0640  0.1334
    1DIPC   C4A18884  14.622  11.540   3.549  0.3334  0.0946  0.1463
    1DIPC   C1B18885  13.572  11.138   2.723  0.0965  0.0479  0.1462
    1DIPC   D2B18886  13.283  10.915   3.048 -0.0075 -0.2008  0.0643
    1DIPC   D3B18887  13.662  11.070   3.272  0.3012  0.4112 -0.1768
    1DIPC   C4B18888  13.746  11.144   3.752 -0.3858 -0.1093 -0.1694
    1DIPC   NC318889  26.364  19.714   2.989 -0.1963  0.1773  0.1116
    1DIPC   PO418890  26.450  19.432   3.340  0.1243  0.0112 -0.0418
    1DIPC   GL118891  26.283  19.467   3.786  0.1039  0.1860  0.1085
    1DIPC   GL218892  25.983  19.708   3.893 -0.0543  0.1123 -0.1486
    1DIPC   C1A18893  26.418  19.572   4.134 -0.1816  0.2271 -0.4309
    1DIPC   D2A18894  26.412  19.298   4.460 -0.3063 -0.0465  0.0540
    1DIPC   D3A18895  26.543  19.174   4.831  0.1206  0.1641  0.1069
    1DIPC   C4A18896  26.284  19.011   5.016 -0.0368  0.1386  0.1240
    1DIPC   C1B18897  25.629  19.768   4.176  0.2237  0.0386  0.0004
    1DIPC   D2B18898  25.191  19.677   4.316 -0.0804 -0.2073 -0.3611
    1DIPC   D3B18899  25.043  20.110   4.448  0.2427  0.1823 -0.1830
    1DIPC   C4B18900  24.679  20.198   4.690 -0.0596  0.0529  0.1753
    1DIPC   NC318901   5.284   8.860   3.193  0.0655  0.3327 -0.2803
    1DIPC   PO418902   5.700   8.637   3.135 -0.1777 -0.0432 -0.2269
    1DIPC   GL118903   5.569   8.532   3.476  0.0527  0.0075  0.1454
    1DIPC   GL218904   5.506   8.180   3.559 -0.0671 -0.2290  0.1555
    1DIPC   C1A18905   5.396   8.562   3.847  0.0995 -0.1226  0.2770
    1DIPC   D2A18906   5.714   8.734   4.161  0.0291 -0.1856  0.0304
    1DIPC   D3A18907   5.977   8.586   4.594 -0.0619 -0.2715 -0.0465
    1DIPC   C4A18908   6.268   8.249   4.633 -0.0627  0.0903 -0.1909
    1DIPC   C1B18909   5.837   8.209   3.889 -0.2517 -0.0127 -0.0709
    1DIPC   D2B18910   5.936   8.231   4.285  0.0509  0.0238 -0.2883
    1DIPC   D3B18911   5.468   8.247   4.227 -0.3765  0.0354 -0.0458
    1DIPC   C4B18912   5.205   8.574   4.464  0.1131 -0.1911 -0.0498
    1DIPC   NC318913   9.255  26.468   3.538 -0.0068  0.0987  0.0475
    1DIPC   PO418914   9.663  26.696   3.647  0.0798 -0.1465  0.1419
    1DIPC   GL118915   9.651  26.929   4.020 -0.2832 -0.0706 -0.0358
    1DIPC   GL218916   9.386  27.157   4.147  0.0475 -0.0391 -0.2672
    1DIPC   C1A18917   9.792  26.962   4.444 -0.2321  0.1040 -0.1246
    1DIPC   D2A18918   9.854  26.994   4.960  0.0067 -0.4488 -0.0625
    1DIPC   D3A18919   9.947  26.935   5.372 -0.1402 -0.1875  0.0142
    1DIPC   C4A18920  10.381  27.104   5.369  0.0702  0.1324  0.1593
    1DIPC   C1B18921   9.334  27.256   4.582  0.1135 -0.2040  0.1280
    1DIPC   D2B18922   9.130  27.410   4.895  0.1075  0.1607  0.0741
    1DIPC   D3B18923   9.511  27.395   5.021 -0.0503  0.2018  0.1122
    1DIPC   C4B18924   9.482  27.717   5.411  0.1151 -0.0954  0.0233
    1DIPC   NC318925  27.160   7.689   3.819 -0.1157  0.1469 -0.0390
    1DIPC   PO418926  26.971   7.277   3.816  0.2942  0.3246  0.1617
    1DIPC   GL118927  27.078   7.267   4.188  0.0791 -0.1130 -0.1808
    1DIPC   GL218928  26.949   7.322   4.528 -0.2105 -0.0731  0.0353
    1DIPC   C1A18929  27.401   7.341   4.645  0.2836  0.1363 -0.1827
    1DIPC   D2A18930  27.404   7.536   5.155  0.3067 -0.0963 -0.0302
    1DIPC   D3A18931  27.736   7.667   5.424 -0.2196 -0.0736  0.0859
    1DIPC   C4A18932  27.928   7.695   5.913  0.0464  0.0276 -0.1700
    1DIPC   C1B18933  26.738   7.343   4.863 -0.0518 -0.0921  0.1489
    1DIPC   D2B18934  26.503   7.133   5.309  0.2287  0.1598  0.1761
    1DIPC   D3B18935  26.357   7.122   5.704 -0.1646 -0.0987  0.4206
    1DIPC   C4B18936  26.245   7.386   6.108 -0.0538  0.0009 -0.2624
    1DIPC   NC318937   8.816  24.465   3.359  0.0183 -0.0777  0.1168
    1DIPC   PO418938   9.235  24.143   3.536 -0.0390 -0.1817  0.4375
    1DIPC   GL118939   9.516  24.163   3.972 -0.2855  0.3636  0.1906
    1DIPC   GL218940   9.633  24.409   3.803 -0.2302  0.1156  0.0297
    1DIPC   C1A18941   9.420  24.142   4.360 -0.5591  0.1222  0.1592
    1DIPC   D2A18942   9.370  24.063   4.770 -0.3005 -0.2216 -0.0034
    1DIPC   D3A18943   8.994  24.093   4.815  0.1712  0.1933 -0.0265
    1DIPC   C4A18944   8.871  24.463   5.096  0.1167 -0.1607 -0.1410
    1DIPC   C1B18945   9.288  24.542   4.093  0.3351 -0.0987 -0.1386
    1DIPC   D2B18946   9.050  25.008   3.979 -0.0694 -0.1449 -0.2021
    1DIPC   D3B18947   8.961  25.426   4.319 -0.1627  0.1489  0.0708
    1DIPC   C4B18948   9.213  25.404   4.555  0.1457 -0.2469 -0.1353
    1DIPC   NC318949   9.937   2.725   3.094 -0.1787  0.2396 -0.1640
    1DIPC   PO418950  10.227   2.455   2.988  0.3666 -0.2861  0.2041
    1DIPC   GL118951  10.324   2.542   3.359  0.2816  0.0981 -0.0950
    1DIPC   GL218952  10.131   2.455   3.550 -0.1035 -0.3530 -0.2300
    1DIPC   C1A18953  10.560   2.771   3.646 -0.0903 -0.0317 -0.2853
    1DIPC   D2A18954  11.000   2.883   3.794  0.0904 -0.0174  0.3392
    1DIPC   D3A18955  11.098   2.602   4.077 -0.0095  0.0140 -0.0469
    1DIPC   C4A18956  11.144   2.233   4.053 -0.1810  0.3067 -0.0707
    1DIPC   C1B18957  10.136   2.695   3.894 -0.2112 -0.3013  0.0967
    1DIPC   D2B18958   9.853   2.973   4.145  0.2637  0.0409 -0.0397
    1DIPC   D3B18959   9.737   2.506   4.240  0.1063  0.1664  0.3687
    1DIPC   C4B18960   9.291   2.506   4.329  0.0357 -0.1764  0.5046
    1DIPC   NC318961  24.023   8.407   2.735  0.1136  0.0248 -0.0018
    1DIPC   PO418962  23.854   7.962   2.653  0.0060 -0.1524  0.2110
    1DIPC   GL118963  23.714   8.115   3.099  0.1520  0.0211 -0.1509
    1DIPC   GL218964  23.421   8.270   3.052 -0.0183  0.1554  0.0593
    1DIPC   C1A18965  23.879   8.066   3.539 -0.4215  0.2877 -0.2080
    1DIPC   D2A18966  23.603   7.953   3.924 -0.4140 -0.0753  0.2523
    1DIPC   D3A18967  23.760   8.375   3.918  0.0160 -0.1280  0.1489
    1DIPC   C4A18968  23.841   8.470   4.362 -0.3419  0.1007 -0.0113
    1DIPC   C1B18969  23.372   8.159   3.540 -0.0343  0.0812  0.0067
    1DIPC   D2B18970  23.062   8.112   3.939 -0.0772 -0.1654  0.1122
    1DIPC   D3B18971  23.332   8.309   4.181  0.0001  0.2342 -0.1732
    1DIPC   C4B18972  23.230   8.388   4.570 -0.0927  0.0775 -0.1918
    1DIPC   NC318973  17.547  23.112   2.764  0.0187 -0.0927  0.2390
    1DIPC   PO418974  17.742  22.840   2.525  0.0599  0.0409 -0.3257
    1DIPC   GL118975  17.788  22.648   2.898  0.1797  0.1367  0.0884
    1DIPC   GL218976  17.858  22.897   3.189  0.0446  0.0828 -0.1560
    1DIPC   C1A18977  17.524  22.466   3.240 -0.0213 -0.0746  0.0155
    1DIPC   D2A18978  17.224  22.200   3.309 -0.3625  0.3670 -0.0198
    1DIPC   D3A18979  17.142  22.579   3.598 -0.0297 -0.2453  0.1854
    1DIPC   C4A18980  17.363  22.664   3.902  0.2316  0.0433  0.2187
    1DIPC   C1B18981  17.755  22.735   3.625  0.0749 -0.2300 -0.0152
    1DIPC   D2B18982  17.808  22.839   4.038  0.0951 -0.3217  0.0114
    1DIPC   D3B18983  17.805  22.570   4.399 -0.2350 -0.1429  0.0769
    1DIPC   C4B18984  18.225  22.250   4.494  0.0640  0.3374 -0.1711
    1DIPC   NC318985  14.747   6.275   1.584 -0.1403  0.1430 -0.1208
    1DIPC   PO418986  15.112   5.910   1.460  0.3090  0.1883 -0.2110
    1DIPC   GL118987  15.036   5.876   1.919  0.1168 -0.3162 -0.0534
    1DIPC   GL218988  14.689   5.813   2.006  0.0029  0.1099 -0.0146
    1DIPC   C1A18989  14.925   6.146   2.267  0.1597  0.1403  0.0640
    1DIPC   D2A18990  15.117   6.242   2.584  0.1096 -0.0178 -0.1140
    1DIPC   D3A18991  15.579   6.354   2.662 -0.0729  0.0037 -0.1302
    1DIPC   C4A18992  15.650   6.702   2.487  0.0527 -0.0559 -0.1401
    1DIPC   C1B18993  14.749   5.616   2.331 -0.0599 -0.1021 -0.0257
    1DIPC   D2B18994  14.991   5.640   2.662 -0.0518 -0.1756  0.0781
    1DIPC   D3B18995  15.235   5.482   2.907  0.1581 -0.1372 -0.1379
    1DIPC   C4B18996  15.064   5.423   3.334 -0.2320  0.0864  0.0928
    1DIPC   NC318997  23.779  11.704   2.749 -0.2601 -0.0528 -0.0948
    1DIPC   PO418998  23.499  11.403   2.811  0.1260  0.0185  0.1830
    1DIPC   GL118999  23.268  11.292   3.207  0.1082 -0.0446 -0.0878
    1DIPC   GL219000  23.009  11.473   3.419 -0.0123 -0.3757 -0.1353
    1DIPC   C1A19001  23.382  11.279   3.705 -0.2663 -0.0084  0.1686
    1DIPC   D2A19002  23.388  11.125   4.017 -0.0143  0.2172  0.4258
    1DIPC   D3A19003  23.426  11.426   4.259 -0.0858 -0.0629  0.1286
    1DIPC   C4A19004  23.717  11.338   4.618  0.0105  0.0897 -0.1651
    1DIPC   C1B19005  22.897  11.635   3.756 -0.1407 -0.1816 -0.2030
    1DIPC   D2B19006  22.893  11.609   4.194 -0.3222  0.1914 -0.0737
    1DIPC   D3B19007  22.491  11.512   4.526  0.1653 -0.4430 -0.0580
    1DIPC   C4B19008  22.011  11.298   4.408 -0.0707 -0.0077 -0.0190
    1DIPC   NC319009   1.180  18.683   3.793  0.0691 -0.0876 -0.0860
    1DIPC   PO419010   1.128  18.550   4.162 -0.2558  0.1041  0.0155
    1DIPC   GL119011   1.115  18.535   4.669  0.1268 -0.3431  0.0523
    1DIPC   GL219012   1.149  18.158   4.786 -0.0555  0.1939  0.3045
    1DIPC   C1A19013   0.993  18.521   5.145 -0.5534 -0.0910  0.1745
    1DIPC   D2A19014   0.874  18.124   5.356 -0.0408  0.2387  0.1798
    1DIPC   D3A19015   0.748  17.969   5.782 -0.0577  0.0668 -0.2270
    1DIPC   C4A19016   0.442  17.607   5.915  0.0261 -0.2995 -0.1673
    1DIPC   C1B19017   1.405  18.056   5.135 -0.1108 -0.0876  0.1536
    1DIPC   D2B19018   1.395  18.332   5.439 -0.1865  0.1124 -0.0741
    1DIPC   D3B19019   1.013  18.389   5.715 -0.1810 -0.0532 -0.2024
    1DIPC   C4B19020   0.672  18.530   5.640 -0.1558  0.1111  0.0012
    1DIPC   NC319021   7.675  17.914   2.415  0.0624  0.1079 -0.4396
    1DIPC   PO419022   7.600  17.602   2.780 -0.2489  0.2147  0.1865
    1DIPC   GL119023   7.607  17.497   3.226 -0.1372 -0.2169 -0.1964
    1DIPC   GL219024   7.869  17.401   3.461 -0.0098  0.1021 -0.1009
    1DIPC   C1A19025   7.317  17.408   3.616  0.2248  0.0284  0.3674
    1DIPC   D2A19026   7.334  17.068   3.769 -0.3349  0.2364  0.1528
    1DIPC   D3A19027   7.809  17.049   3.796  0.1151  0.0530  0.0387
    1DIPC   C4A19028   8.177  16.971   4.016 -0.2999 -0.0609 -0.2437
    1DIPC   C1B19029   8.196  17.607   3.281 -0.0276  0.1347  0.3888
    1DIPC   D2B19030   8.556  17.892   3.134 -0.0841 -0.1016 -0.2644
    1DIPC   D3B19031   8.604  17.933   3.603  0.1524  0.0217 -0.0206
    1DIPC   C4B19032   8.926  17.800   3.902  0.0773  0.1208  0.0323
    1DIPC   NC319033   8.456  25.826   3.733  0.1825  0.1670 -0.1035
    1DIPC   PO419034   8.882  25.652   3.870 -0.1541  0.1333 -0.1034
    1DIPC   GL119035   8.642  25.778   4.226  0.0833 -0.0629 -0.0329
    1DIPC   GL219036   8.310  25.676   4.175  0.1285 -0.0696  0.1302
    1DIPC   C1A19037   8.534  26.012   4.624  0.1230 -0.2338  0.2521
    1DIPC   D2A19038   8.332  25.816   4.919  0.0798  0.0354  0.0769
    1DIPC   D3A19039   8.689  25.562   4.727  0.1713  0.2411  0.1409
    1DIPC   C4A19040   9.030  25.468   5.040 -0.1659  0.0363  0.4605
    1DIPC   C1B19041   8.125  25.524   4.521 -0.1699 -0.0885 -0.3054
    1DIPC   D2B19042   8.279  25.252   4.834  0.2303 -0.1505  0.0153
    1DIPC   D3B19043   7.874  25.446   4.971  0.0287 -0.0337 -0.0163
    1DIPC   C4B19044   7.863  25.800   5.096 -0.2537  0.0023 -0.0065
    1DIPC   NC319045  15.552  18.671   2.915 -0.3095  0.0726  0.0081
    1DIPC   PO419046  15.446  19.119   3.005  0.0048  0.1205  0.0236
    1DIPC   GL119047  15.448  18.822   3.413 -0.0739  0.1377 -0.1988
    1DIPC   GL219048  15.882  18.630   3.444  0.0609  0.3955 -0.0603
    1DIPC   C1A19049  15.227  18.809   3.825  0.1026 -0.1903  0.3488
    1DIPC   D2A19050  14.938  18.838   4.195  0.1520 -0.0920  0.3191
    1DIPC   D3A19051  15.139  18.527   4.434  0.0731 -0.2317  0.1126
    1DIPC   C4A19052  15.142  18.042   4.317  0.1238 -0.2848  0.1299
    1DIPC   C1B19053  16.003  18.561   3.940  0.2101 -0.3544  0.2097
    1DIPC   D2B19054  16.345  18.436   4.199 -0.0262  0.0416  0.2787
    1DIPC   D3B19055  16.740  18.428   4.452  0.4205  0.1345 -0.1654
    1DIPC   C4B19056  16.898  18.025   4.606  0.0340 -0.0765  0.1324
    1DIPC   NC319057   8.976  12.949   2.127 -0.0502 -0.1436 -0.0904
    1DIPC   PO419058   9.452  13.059   1.906 -0.0591 -0.2169  0.2469
    1DIPC   GL119059   9.504  13.064   2.402 -0.0032 -0.1221 -0.0839
    1DIPC   GL219060   9.404  13.290   2.617 -0.3141 -0.2740 -0.1716
    1DIPC   C1A19061   9.235  12.866   2.841 -0.0261 -0.3552  0.1742
    1DIPC   D2A19062   9.214  12.440   3.051  0.0996  0.1878 -0.0771
    1DIPC   D3A19063   9.290  12.587   3.564  0.0268 -0.0357  0.0977
    1DIPC   C4A19064   9.402  12.515   3.996 -0.0652 -0.4173 -0.2305
    1DIPC   C1B19065   9.043  13.339   2.710 -0.1117 -0.1097  0.0556
    1DIPC   D2B19066   9.030  13.377   3.236  0.1914 -0.2372  0.0410
    1DIPC   D3B19067   8.592  13.238   3.325 -0.0093  0.1339 -0.0794
    1DIPC   C4B19068   8.315  13.600   3.353  0.3629  0.0764  0.0881
    1DIPC   NC319069   0.926  17.932   3.569 -0.0003  0.0326 -0.2165
    1DIPC   PO419070   0.481  17.916   3.782 -0.2201  0.1171 -0.5535
    1DIPC   GL119071   0.562  18.059   4.282 -0.2810  0.1080 -0.0293
    1DIPC   GL219072   0.692  18.244   4.421  0.1574  0.0944  0.0482
    1DIPC   C1A19073   0.250  18.083   4.572 -0.1238 -0.2633 -0.4307
    1DIPC   D2A19074   0.037  17.883   5.025 -0.0642  0.0038 -0.2343
    1DIPC   D3A19075   0.064  17.479   5.257  0.1419 -0.1071 -0.2578
    1DIPC   C4A19076   0.043  17.434   5.666 -0.0153 -0.0227  0.0902
    1DIPC   C1B19077   0.602  18.677   4.713 -0.2009 -0.0637 -0.0539
    1DIPC   D2B19078   0.376  18.819   5.095  0.1159 -0.1627  0.2613
    1DIPC   D3B19079   0.438  18.297   5.070 -0.1757  0.0186 -0.0013
    1DIPC   C4B19080   0.662  18.074   4.883 -0.3482  0.0821  0.1238
    1DIPC   NC319081   2.306   4.910   4.416 -0.0396 -0.0188 -0.0913
    1DIPC   PO419082   2.540   5.088   4.031  0.2475  0.1285  0.4070
    1DIPC   GL119083   2.705   5.434   4.424 -0.0683  0.1143 -0.0794
    1DIPC   GL219084   2.802   5.661   4.337  0.3044 -0.1151  0.2133
    1DIPC   C1A19085   2.771   5.516   4.835  0.1797  0.0784 -0.0971
    1DIPC   D2A19086   3.214   5.592   5.067  0.1801  0.0629 -0.0471
    1DIPC   D3A19087   3.005   5.234   5.195 -0.0629 -0.0041  0.0697
    1DIPC   C4A19088   2.870   5.243   5.617 -0.0094 -0.3436 -0.0462
    1DIPC   C1B19089   2.530   5.859   4.600 -0.2312  0.3057 -0.1933
    1DIPC   D2B19090   2.348   6.206   4.781 -0.2802 -0.1387  0.2604
    1DIPC   D3B19091   2.594   6.558   4.746  0.0318 -0.4186  0.0006
    1DIPC   C4B19092   3.054   6.584   4.947 -0.2069 -0.1006  0.3358
    1DIPC   NC319093   3.847  16.714   2.953  0.0213 -0.1850  0.2764
    1DIPC   PO419094   3.669  16.525   3.261 -0.1336  0.2011 -0.3680
    1DIPC   GL119095   3.817  16.593   3.690  0.3922 -0.0072  0.3266
    1DIPC   GL219096   3.947  16.824   3.768 -0.0183  0.0097 -0.0682
    1DIPC   C1A19097   4.024  16.454   4.096 -0.1685  0.2007  0.0558
    1DIPC   D2A19098   3.843  16.360   4.497 -0.1816 -0.1917  0.3276
    1DIPC   D3A19099   4.248  16.411   4.771  0.0969 -0.1721  0.0643
    1DIPC   C4A19100   4.116  16.555   5.129 -0.1396 -0.2160 -0.0323
    1DIPC   C1B19101   3.976  17.167   4.063  0.0013 -0.2915 -0.1006
    1DIPC   D2B19102   4.032  17.432   4.445 -0.1352 -0.0075  0.0485
    1DIPC   D3B19103   4.266  17.853   4.174  0.0046  0.2313  0.1084
    1DIPC   C4B19104   4.126  17.819   3.726 -0.0290  0.1948  0.1343
    1DIPC   NC319105  28.777  19.931   3.709  0.2215 -0.0222 -0.1384
    1DIPC   PO419106  28.654  19.646   4.049  0.1532 -0.0843  0.0446
    1DIPC   GL119107  28.757  19.764   4.422  0.1524  0.1474  0.0726
    1DIPC   GL219108  29.040  19.594   4.463 -0.1155  0.3064 -0.3476
    1DIPC   C1A19109  28.563  19.631   4.812 -0.0576 -0.0430  0.0917
    1DIPC   D2A19110  28.715  19.500   5.162 -0.0650 -0.0444  0.0830
    1DIPC   D3A19111  28.997  19.398   5.593 -0.2992  0.0661  0.0797
    1DIPC   C4A19112  28.930  19.710   5.972 -0.0096 -0.3892  0.0081
    1DIPC   C1B19113  29.177  19.490   4.896  0.0506  0.3281 -0.0808
    1DIPC   D2B19114  29.267  19.264   5.193 -0.2450  0.1002 -0.2910
    1DIPC   D3B19115  29.538  19.464   5.547  0.0495  0.0077 -0.0850
    1DIPC   C4B19116  29.501  19.759   5.896  0.3729 -0.0581  0.0596
    1DIPC   NC319117  24.512  10.456   3.055  0.1974 -0.3226 -0.0237
    1DIPC   PO419118  24.735  10.843   3.116  0.0799 -0.1090  0.0567
    1DIPC   GL119119  24.581  10.760   3.529  0.2289 -0.1091 -0.0005
    1DIPC   GL219120  24.358  10.941   3.661 -0.0966 -0.0882  0.1547
    1DIPC   C1A19121  24.620  10.573   3.884 -0.0070 -0.2182 -0.0147
    1DIPC   D2A19122  24.465  10.451   4.297  0.2258  0.0607  0.0470
    1DIPC   D3A19123  24.292   9.956   4.411 -0.5731  0.0784  0.0089
    1DIPC   C4A19124  23.840   9.964   4.473  0.1168  0.2228 -0.2486
    1DIPC   C1B19125  24.320  10.931   4.098  0.0534 -0.0092  0.0611
    1DIPC   D2B19126  24.277  10.846   4.480  0.2107  0.1472 -0.1227
    1DIPC   D3B19127  24.107  10.347   4.676  0.0818  0.0850 -0.0134
    1DIPC   C4B19128  23.755  10.372   4.833 -0.0037  0.2121  0.1589
    1DIPC   NC319129  20.558  22.624   2.840 -0.3515  0.2780 -0.1362
    1DIPC   PO419130  20.236  22.359   2.870 -0.0139  0.3321  0.0374
    1DIPC   GL119131  20.301  22.473   3.272 -0.2181  0.1352 -0.3116
    1DIPC   GL219132  20.186  22.704   3.503  0.1442  0.0007  0.4640
    1DIPC   C1A19133  20.115  22.198   3.625 -0.1394 -0.2150 -0.0575
    1DIPC   D2A19134  20.028  22.173   4.099  0.2168 -0.2174  0.2590
    1DIPC   D3A19135  19.650  21.895   4.253  0.3737  0.1983 -0.1068
    1DIPC   C4A19136  19.778  21.552   4.575 -0.1132 -0.2945 -0.2360
    1DIPC   C1B19137  20.350  22.578   3.914 -0.0582 -0.2622 -0.1164
    1DIPC   D2B19138  20.620  22.738   4.190  0.0883 -0.0934 -0.0991
    1DIPC   D3B19139  20.336  22.508   4.427  0.1993  0.1534 -0.1473
    1DIPC   C4B19140  20.090  22.546   4.776 -0.0562  0.1972  0.1603
    1DIPC   NC319141   0.762  16.507   3.524 -0.0515 -0.1327  0.1741
    1DIPC   PO419142   0.584  16.561   3.992 -0.0900 -0.2618  0.0616
    1DIPC   GL119143   0.651  16.803   4.428 -0.2742 -0.1965 -0.0396
    1DIPC   GL219144   0.389  16.753   4.571  0.1345  0.3794 -0.0479
    1DIPC   C1A19145   0.725  17.059   4.713  0.1635 -0.1165  0.0002
    1DIPC   D2A19146   0.909  17.144   5.084  0.0371 -0.0114  0.1448
    1DIPC   D3A19147   0.763  16.762   5.252  0.0173 -0.2490  0.2150
    1DIPC   C4A19148   0.432  16.696   5.388  0.1187  0.0458 -0.2207
    1DIPC   C1B19149   0.268  16.436   4.815 -0.2437  0.0144  0.2555
    1DIPC   D2B19150   0.289  16.204   4.983 -0.0181  0.1733  0.1255
    1DIPC   D3B19151   0.382  16.011   5.427 -0.0076  0.4892  0.4069
    1DIPC   C4B19152   0.346  15.709   5.768  0.0748 -0.0400  0.0248
    1DIPC   NC319153  20.359  15.808   2.913 -0.0824  0.3088 -0.3168
    1DIPC   PO419154  20.722  15.834   2.723  0.0089 -0.1313 -0.5535
    1DIPC   GL119155  21.001  15.895   3.015  0.3679 -0.2416 -0.0389
    1DIPC   GL219156  21.311  16.074   3.121  0.1376 -0.0647  0.3356
    1DIPC   C1A19157  20.819  15.728   3.404 -0.3601 -0.1166 -0.1006
    1DIPC   D2A19158  20.913  15.837   3.825 -0.1013 -0.0650  0.0880
    1DIPC   D3A19159  21.034  16.105   4.262 -0.0976 -0.1283 -0.1167
    1DIPC   C4A19160  20.885  16.037   4.586 -0.1794 -0.1824 -0.0400
    1DIPC   C1B19161  21.354  15.773   3.531  0.1163 -0.0956  0.0779
    1DIPC   D2B19162  21.345  15.800   4.017 -0.0151 -0.0338  0.0983
    1DIPC   D3B19163  21.223  15.353   3.933  0.1754 -0.0147  0.0739
    1DIPC   C4B19164  20.873  15.320   3.690 -0.0766  0.0762  0.2062
    1DIPC   NC319165  22.319  11.951   2.933 -0.0690 -0.0394  0.3074
    1DIPC   PO419166  21.854  11.888   2.979  0.1730  0.0736 -0.2375
    1DIPC   GL119167  21.966  11.974   3.365 -0.0642  0.0323 -0.1603
    1DIPC   GL219168  22.236  12.197   3.383  0.2259 -0.2305 -0.0095
    1DIPC   C1A19169  21.865  12.004   3.833  0.0846  0.0099 -0.1326
    1DIPC   D2A19170  21.594  11.962   4.324 -0.0051  0.1299 -0.1317
    1DIPC   D3A19171  21.136  12.164   4.303  0.0376  0.1836  0.2192
    1DIPC   C4A19172  21.174  12.527   4.157 -0.0855 -0.0798  0.2147
    1DIPC   C1B19173  22.381  12.009   3.717 -0.0717 -0.0816  0.1259
    1DIPC   D2B19174  22.528  11.980   4.150  0.1754  0.2349  0.1473
    1DIPC   D3B19175  22.812  11.987   4.468 -0.1895 -0.0614  0.2420
    1DIPC   C4B19176  23.248  11.816   4.493 -0.0578 -0.1357  0.0067
    1DIPC   NC319177  12.666  11.942   1.992  0.0865 -0.1975  0.1359
    1DIPC   PO419178  12.608  12.454   2.113  0.0175  0.1629 -0.1708
    1DIPC   GL119179  12.791  12.166   2.453  0.0358 -0.1637 -0.3417
    1DIPC   GL219180  12.636  12.303   2.785 -0.2437  0.0666  0.0836
    1DIPC   C1A19181  12.967  11.896   2.768  0.0144 -0.0826 -0.1917
    1DIPC   D2A19182  12.978  11.762   3.175  0.1137  0.0989  0.0838
    1DIPC   D3A19183  12.578  11.579   3.379 -0.0033 -0.1551 -0.1424
    1DIPC   C4A19184  12.411  11.784   3.805  0.1249  0.3037 -0.1055
    1DIPC   C1B19185  12.583  12.121   3.161 -0.0495 -0.2107 -0.0654
    1DIPC   D2B19186  12.773  12.021   3.536 -0.0677 -0.3142 -0.2796
    1DIPC   D3B19187  12.805  12.194   3.977  0.0210  0.2478  0.0165
    1DIPC   C4B19188  12.370  12.199   4.110  0.0753 -0.1019 -0.0045
    1DIPC   NC319189   1.258  27.893   4.374 -0.0413  0.0797  0.1036
    1DIPC   PO419190   1.273  27.471   4.321 -0.3591 -0.0490 -0.1448
    1DIPC   GL119191   1.474  27.238   4.646  0.1012 -0.0972 -0.0897
    1DIPC   GL219192   1.625  27.465   4.739  0.2592 -0.1459 -0.0748
    1DIPC   C1A19193   1.335  26.911   4.862 -0.3192  0.0484 -0.0279
    1DIPC   D2A19194   1.602  26.786   5.234  0.2494 -0.0706  0.4217
    1DIPC   D3A19195   1.436  26.625   5.672 -0.0627 -0.2782 -0.1920
    1DIPC   C4A19196   1.253  26.906   6.002  0.0539 -0.0782  0.1481
    1DIPC   C1B19197   1.569  27.293   5.173 -0.0923 -0.2108  0.2988
    1DIPC   D2B19198   1.592  27.190   5.698  0.4627  0.1164  0.0063
    1DIPC   D3B19199   1.852  26.805   5.796  0.0591  0.0544  0.1784
    1DIPC   C4B19200   2.015  26.586   6.139 -0.3314 -0.1279 -0.0983
    1DIPC   NC319201   9.379  11.576   1.553  0.1654 -0.1120 -0.3836
    1DIPC   PO419202   8.995  11.553   1.713  0.1494 -0.1202  0.0078
    1DIPC   GL119203   9.112  11.612   2.116 -0.0037  0.0035 -0.0412
    1DIPC   GL219204   9.067  11.433   2.256  0.5149  0.6544  0.2158
    1DIPC   C1A19205   9.384  11.711   2.494  0.1140 -0.0212  0.0252
    1DIPC   D2A19206   9.643  11.541   2.801  0.1509  0.2999 -0.0661
    1DIPC   D3A19207   9.821  11.437   2.451 -0.0054  0.2282  0.0257
    1DIPC   C4A19208   9.535  11.169   2.256  0.0346 -0.0842  0.2123
    1DIPC   C1B19209   8.869  11.460   2.639 -0.0372 -0.1151 -0.0438
    1DIPC   D2B19210   8.774  11.573   3.076  0.0545 -0.1621 -0.0355
    1DIPC   D3B19211   8.500  11.834   3.306 -0.0118  0.0135  0.0431
    1DIPC   C4B19212   8.530  12.255   3.373 -0.1157 -0.3098  0.1049
    1DIPC   NC319213  17.676  25.503   3.239  0.1008  0.0157 -0.2804
    1DIPC   PO419214  18.151  25.527   3.267 -0.2438  0.0140 -0.2632
    1DIPC   GL119215  18.374  25.720   3.588 -0.3607  0.2958 -0.2002
    1DIPC   GL219216  18.603  25.521   3.703  0.1594 -0.0497 -0.0301
    1DIPC   C1A19217  18.211  25.990   3.906 -0.2951 -0.0910 -0.4366
    1DIPC   D2A19218  18.022  25.896   4.223  0.1005 -0.1399  0.2594
    1DIPC   D3A19219  18.107  26.188   4.645 -0.2241  0.2760 -0.3040
    1DIPC   C4A19220  18.055  26.142   5.061 -0.0605  0.0685 -0.1847
    1DIPC   C1B19221  18.372  25.489   4.107 -0.0275 -0.3483  0.1926
    1DIPC   D2B19222  18.139  25.451   4.450 -0.3595 -0.2209 -0.0705
    1DIPC   D3B19223  18.188  25.380   4.774  0.0347  0.2368  0.1505
    1DIPC   C4B19224  17.871  25.443   5.029  0.2813  0.0105  0.2388
    1DIPC   NC319225   1.461   6.608   4.077  0.1712  0.0663  0.1722
    1DIPC   PO419226   1.779   6.905   3.888  0.1126 -0.0757 -0.0484
    1DIPC   GL119227   1.719   7.058   4.240 -0.2867 -0.0429  0.6062
    1DIPC   GL219228   1.653   6.873   4.433 -0.1924  0.0329  0.3214
    1DIPC   C1A19229   1.915   7.226   4.567  0.0099 -0.1222  0.1756
    1DIPC   D2A19230   2.110   7.550   4.787 -0.1593  0.1916 -0.0100
    1DIPC   D3A19231   2.397   7.484   4.776  0.0772 -0.0506  0.0192
    1DIPC   C4A19232   2.559   7.770   5.037  0.0536 -0.1043 -0.2205
    1DIPC   C1B19233   1.687   6.979   4.926  0.0053 -0.0249 -0.1048
    1DIPC   D2B19234   1.942   7.153   5.172  0.0205  0.1930  0.2446
    1DIPC   D3B19235   2.173   7.525   5.335  0.0689 -0.0167  0.2446
    1DIPC   C4B19236   1.960   7.814   5.624 -0.2277 -0.0361 -0.0242
    1DIPC   NC319237   2.789   6.643   4.264  0.2808 -0.0620 -0.0151
    1DIPC   PO419238   2.401   6.743   4.059  0.0534 -0.0468  0.0003
    1DIPC   GL119239   2.205   6.795   4.331  0.2569  0.2289  0.2235
    1DIPC   GL219240   2.374   7.020   4.454 -0.2264  0.0880 -0.3422
    1DIPC   C1A19241   2.119   6.615   4.615 -0.1590  0.4325  0.1694
    1DIPC   D2A19242   2.115   6.647   5.052  0.1122 -0.0336 -0.1135
    1DIPC   D3A19243   2.250   6.299   5.292  0.1378 -0.2199  0.2363
    1DIPC   C4A19244   2.613   6.324   5.739 -0.3305 -0.1126 -0.0314
    1DIPC   C1B19245   2.358   7.014   4.872  0.1907  0.0699 -0.0699
    1DIPC   D2B19246   2.448   7.008   5.233 -0.1816 -0.0480 -0.3033
    1DIPC   D3B19247   2.193   6.839   5.490  0.0803  0.0550 -0.1958
    1DIPC   C4B19248   2.241   6.718   5.869  0.0740  0.0335  0.0903
    1DIPC   NC319249  23.051  20.463   3.483 -0.0884 -0.0057 -0.3864
    1DIPC   PO419250  23.287  20.868   3.390 -0.0487 -0.0590  0.1184
    1DIPC   GL119251  23.557  20.749   3.711 -0.0205 -0.0105 -0.0219
    1DIPC   GL219252  23.264  20.618   3.916 -0.0229 -0.1176 -0.2169
    1DIPC   C1A19253  23.819  20.794   4.109  0.0680 -0.0891  0.0599
    1DIPC   D2A19254  24.155  20.608   4.327 -0.0194 -0.0134  0.1726
    1DIPC   D3A19255  24.315  20.924   4.565  0.1757  0.2076 -0.2247
    1DIPC   C4A19256  24.048  20.928   4.962 -0.1236  0.1754  0.2048
    1DIPC   C1B19257  22.941  20.617   4.221  0.1672  0.0229 -0.1952
    1DIPC   D2B19258  22.727  20.995   4.083  0.0111 -0.0842  0.0645
    1DIPC   D3B19259  22.957  21.272   4.286  0.1180  0.1975  0.1515
    1DIPC   C4B19260  22.967  21.402   4.771  0.0397  0.0628  0.1257
    1DIPC   NC319261  24.203  23.343   3.475  0.0761 -0.0625  0.1976
    1DIPC   PO419262  23.791  23.531   3.593 -0.0894 -0.3693  0.3297
    1DIPC   GL119263  23.807  23.845   3.947  0.2103  0.2259 -0.0112
    1DIPC   GL219264  23.577  23.928   3.984 -0.1513 -0.0632 -0.1977
    1DIPC   C1A19265  23.904  23.733   4.379  0.0701 -0.2151  0.0818
    1DIPC   D2A19266  23.928  23.526   4.829 -0.0711 -0.0348 -0.2565
    1DIPC   D3A19267  23.805  23.636   5.178  0.0795 -0.2733  0.1298
    1DIPC   C4A19268  23.643  23.375   5.476 -0.2624  0.0031  0.3917
    1DIPC   C1B19269  23.334  23.906   4.337  0.1954  0.2012  0.0686
    1DIPC   D2B19270  23.478  23.721   4.759 -0.2398 -0.0431  0.1264
    1DIPC   D3B19271  23.324  23.529   5.103  0.3202  0.0578 -0.3600
    1DIPC   C4B19272  23.188  23.679   5.446 -0.1112  0.1111  0.0391
    1DIPC   NC319273   1.053  21.396   3.369  0.3281  0.1718 -0.5126
    1DIPC   PO419274   1.151  21.053   3.824  0.1927 -0.2448  0.2204
    1DIPC   GL119275   0.930  21.117   4.253 -0.0763 -0.0836 -0.3026
    1DIPC   GL219276   1.110  21.312   4.356  0.0072 -0.2330 -0.3850
    1DIPC   C1A19277   0.844  20.991   4.653 -0.1078 -0.0409 -0.1713
    1DIPC   D2A19278   0.746  21.237   4.948 -0.0244 -0.0775  0.1328
    1DIPC   D3A19279   0.736  20.769   5.146 -0.0813  0.3137 -0.1509
    1DIPC   C4A19280   0.449  20.672   5.651 -0.0736  0.1122 -0.1167
    1DIPC   C1B19281   1.204  21.661   4.654 -0.2614 -0.1834 -0.1489
    1DIPC   D2B19282   1.159  21.851   5.166 -0.2497 -0.0226 -0.0847
    1DIPC   D3B19283   1.123  22.182   5.335 -0.4375 -0.0169  0.1639
    1DIPC   C4B19284   0.898  22.468   5.648 -0.2795  0.2469 -0.0024
    1DIPC   NC319285   6.115  20.194   3.228  0.2364  0.1265 -0.0197
    1DIPC   PO419286   6.044  20.646   3.139  0.1203  0.0126  0.3065
    1DIPC   GL119287   6.265  20.602   3.449 -0.0136 -0.0008  0.2503
    1DIPC   GL219288   6.041  20.395   3.674  0.0975 -0.1214 -0.1974
    1DIPC   C1A19289   6.250  20.853   3.858 -0.1280 -0.2532 -0.0509
    1DIPC   D2A19290   6.096  20.669   4.246  0.1961 -0.1456 -0.3703
    1DIPC   D3A19291   6.077  20.680   4.700  0.0832  0.0815  0.0308
    1DIPC   C4A19292   6.071  20.305   4.933  0.0979 -0.3236  0.0781
    1DIPC   C1B19293   6.201  20.082   3.996 -0.2811  0.1764 -0.1006
    1DIPC   D2B19294   6.367  19.755   4.088  0.3474  0.0356  0.0704
    1DIPC   D3B19295   6.205  19.687   4.439 -0.0006  0.1118  0.0042
    1DIPC   C4B19296   6.014  19.801   4.791 -0.0641  0.1512  0.0977
    1DIPC   NC319297  13.499   1.186   3.104  0.0094 -0.0835 -0.0814
    1DIPC   PO419298  13.391   1.521   2.855  0.0748 -0.2838  0.0320
    1DIPC   GL119299  13.215   1.544   3.230 -0.0174 -0.0760  0.0964
    1DIPC   GL219300  13.221   1.213   3.508  0.3760  0.0870  0.1911
    1DIPC   C1A19301  13.523   1.590   3.607 -0.1646 -0.1817  0.1529
    1DIPC   D2A19302  13.659   1.981   3.693  0.2222  0.2254 -0.2340
    1DIPC   D3A19303  13.668   1.947   4.161 -0.0976 -0.0121 -0.1399
    1DIPC   C4A19304  13.595   1.853   4.555 -0.1809 -0.1166  0.4076
    1DIPC   C1B19305  13.416   1.133   3.819  0.1937 -0.2266 -0.1390
    1DIPC   D2B19306  13.244   1.079   4.265 -0.1732  0.3523  0.2012
    1DIPC   D3B19307  13.663   1.282   4.262 -0.0718  0.1228 -0.0739
    1DIPC   C4B19308  14.048   1.122   4.314  0.2388 -0.0349 -0.1594
    1DIPC   NC319309  24.527  22.603   3.952  0.1029  0.0163 -0.0141
    1DIPC   PO419310  24.307  22.944   3.774 -0.0241 -0.2207 -0.0296
    1DIPC   GL119311  24.286  23.002   4.212  0.1257 -0.0776  0.1372
    1DIPC   GL219312  24.508  23.198   4.318  0.0347 -0.0456  0.2422
    1DIPC   C1A19313  24.158  23.067   4.687  0.0374 -0.1238  0.0545
    1DIPC   D2A19314  24.416  23.354   4.908 -0.1279 -0.1708 -0.3340
    1DIPC   D3A19315  24.205  23.340   5.213 -0.1999 -0.0577 -0.0359
    1DIPC   C4A19316  23.901  23.124   5.135  0.2239  0.0022  0.1071
    1DIPC   C1B19317  24.631  22.979   4.702 -0.1452  0.0658  0.0188
    1DIPC   D2B19318  24.832  22.636   4.966  0.0753  0.1977  0.1350
    1DIPC   D3B19319  24.697  22.988   5.221  0.1199  0.0846 -0.2778
    1DIPC   C4B19320  24.399  23.078   5.601 -0.2501  0.0108 -0.3354
    1DIPC   NC319321  28.872  13.781   3.382  0.1170 -0.1940  0.1311
    1DIPC   PO419322  29.013  13.400   3.490  0.2801 -0.3678  0.2142
    1DIPC   GL119323  29.047  13.516   3.845  0.1176  0.0010  0.0298
    1DIPC   GL219324  29.132  13.208   3.973 -0.1311 -0.1400 -0.2250
    1DIPC   C1A19325  29.249  13.765   4.237 -0.2357 -0.2550 -0.2974
    1DIPC   D2A19326  29.373  13.673   4.674  0.0560  0.0215 -0.1500
    1DIPC   D3A19327  29.178  13.735   4.983  0.0758  0.0125  0.1287
    1DIPC   C4A19328  28.908  13.919   4.910  0.1381  0.2165  0.0005
    1DIPC   C1B19329  29.276  13.187   4.370 -0.3348  0.0191 -0.0511
    1DIPC   D2B19330  29.572  13.203   4.671  0.2059  0.2358 -0.1628
    1DIPC   D3B19331  29.099  13.212   4.787 -0.0933 -0.0712 -0.1777
    1DIPC   C4B19332  28.833  12.810   4.593  0.0132  0.0681  0.1594
    1DIPC   NC319333  26.110   4.897   3.399  0.0465  0.1965  0.0206
    1DIPC   PO419334  26.236   5.115   3.687 -0.0425 -0.2380  0.1921
    1DIPC   GL119335  26.290   5.187   4.115  0.0825 -0.0575  0.3050
    1DIPC   GL219336  26.004   5.218   4.216 -0.0065  0.0112 -0.1455
    1DIPC   C1A19337  26.379   5.248   4.539 -0.0222 -0.4000  0.0706
    1DIPC   D2A19338  26.606   5.533   4.773  0.1154  0.0441  0.0269
    1DIPC   D3A19339  26.465   5.633   5.241 -0.3593  0.1419 -0.4370
    1DIPC   C4A19340  26.062   5.814   5.398  0.1213  0.0430  0.0472
    1DIPC   C1B19341  25.854   5.211   4.575  0.4548  0.2453 -0.0074
    1DIPC   D2B19342  25.695   5.035   4.913  0.0661  0.3260 -0.4193
    1DIPC   D3B19343  25.988   4.713   4.976 -0.2326  0.0740  0.0076
    1DIPC   C4B19344  25.844   4.318   4.915  0.3302  0.2361  0.0780
    1DIPC   NC319345   8.475  22.782   3.969 -0.1168  0.0328  0.1669
    1DIPC   PO419346   8.818  22.422   3.996  0.3475 -0.0732  0.2993
    1DIPC   GL119347   8.936  22.549   4.386  0.0368  0.2082 -0.6018
    1DIPC   GL219348   9.249  22.594   4.521 -0.0520 -0.0973  0.1274
    1DIPC   C1A19349   8.818  22.702   4.816 -0.3529 -0.1172  0.1609
    1DIPC   D2A19350   8.385  22.537   4.834  0.0312 -0.1755 -0.0991
    1DIPC   D3A19351   8.279  22.819   5.091 -0.3434 -0.3392  0.0229
    1DIPC   C4A19352   8.098  22.905   5.340  0.2417 -0.3506 -0.1897
    1DIPC   C1B19353   9.292  22.161   4.648  0.3204 -0.1810 -0.1039
    1DIPC   D2B19354   9.099  21.789   4.804  0.1792 -0.3183 -0.0363
    1DIPC   D3B19355   8.969  21.376   4.680  0.0997  0.0225 -0.2712
    1DIPC   C4B19356   8.575  20.972   4.613 -0.1656  0.4433 -0.0633
    1DIPC   NC319357  19.360   7.324   1.502  0.1249  0.2965  0.0564
    1DIPC   PO419358  19.231   6.790   1.553  0.0304 -0.0533 -0.1383
    1DIPC   GL119359  19.026   6.780   2.024 -0.1500 -0.2184 -0.3581
    1DIPC   GL219360  18.722   6.804   2.143 -0.1488 -0.0321  0.2885
    1DIPC   C1A19361  19.339   6.727   2.331  0.2426 -0.2114  0.1260
    1DIPC   D2A19362  19.778   6.642   2.279  0.0230  0.1574 -0.0464
    1DIPC   D3A19363  19.630   6.725   2.715  0.0571  0.0655  0.2532
    1DIPC   C4A19364  19.695   7.130   2.975  0.1690 -0.0168  0.1344
    1DIPC   C1B19365  18.473   7.066   2.421  0.1250 -0.3645  0.1941
    1DIPC   D2B19366  18.610   7.298   2.767 -0.1957 -0.0090  0.0401
    1DIPC   D3B19367  18.509   7.638   2.581 -0.0704 -0.0423  0.1155
    1DIPC   C4B19368  18.311   7.946   2.744 -0.0324  0.0273  0.1470
    1DIPC   NC319369   8.373  10.863   2.029 -0.1208  0.3553  0.1662
    1DIPC   PO419370   8.087  11.303   2.148 -0.0558  0.2974 -0.1720
    1DIPC   GL119371   7.985  11.479   2.583  0.1722 -0.0467  0.1920
    1DIPC   GL219372   7.728  11.320   2.811  0.4991 -0.0349 -0.0325
    1DIPC   C1A19373   8.301  11.720   2.817  0.0462  0.2939 -0.2781
    1DIPC   D2A19374   8.271  12.160   2.947 -0.2593  0.1816 -0.2231
    1DIPC   D3A19375   8.035  12.170   3.363  0.1682 -0.0779  0.0407
    1DIPC   C4A19376   7.601  12.390   3.409  0.1666 -0.1140  0.0261
    1DIPC   C1B19377   7.577  11.314   3.175  0.0478  0.0261  0.3236
    1DIPC   D2B19378   7.604  11.516   3.561  0.1080 -0.0952  0.1938
    1DIPC   D3B19379   7.378  11.502   4.023  0.1228  0.0785 -0.2317
    1DIPC   C4B19380   7.292  11.865   4.232 -0.0805  0.1016  0.1316
    1DIPC   NC319381   2.497  17.920   2.638  0.1151 -0.1752  0.0159
    1DIPC   PO419382   2.441  17.870   3.200 -0.0621  0.0281 -0.3335
    1DIPC   GL119383   2.290  17.801   3.652  0.2986 -0.2063 -0.0386
    1DIPC   GL219384   2.367  17.975   3.843  0.0022  0.0946 -0.0682
    1DIPC   C1A19385   2.333  17.501   4.027  0.2768  0.0718 -0.2071
    1DIPC   D2A19386   2.457  17.589   4.470 -0.3512  0.1180  0.0127
    1DIPC   D3A19387   2.902  17.880   4.301 -0.1272  0.1113  0.0197
    1DIPC   C4A19388   3.306  17.869   4.380  0.0002 -0.0601  0.0543
    1DIPC   C1B19389   2.438  18.027   4.247  0.3370 -0.2773 -0.0993
    1DIPC   D2B19390   2.529  18.070   4.766  0.2584 -0.0192 -0.1355
    1DIPC   D3B19391   2.898  18.265   4.882  0.1172  0.1930 -0.2756
    1DIPC   C4B19392   2.801  18.661   4.889  0.2114  0.1998 -0.2159
    1DIPC   NC319393  27.334  15.236   3.808  0.0292  0.1429 -0.3458
    1DIPC   PO419394  27.837  15.334   3.672 -0.0415 -0.3000 -0.1593
    1DIPC   GL119395  27.873  15.141   4.083 -0.0400  0.0025  0.0526
    1DIPC   GL219396  27.940  15.215   4.420 -0.0458 -0.0510 -0.1562
    1DIPC   C1A19397  27.532  14.924   4.410 -0.1293  0.5945 -0.0898
    1DIPC   D2A19398  27.200  14.768   4.720 -0.0598  0.1654  0.2381
    1DIPC   D3A19399  26.863  14.596   4.444 -0.0680  0.0292  0.0515
    1DIPC   C4A19400  26.533  14.431   4.617 -0.1783  0.0782  0.2201
    1DIPC   C1B19401  28.001  15.200   4.849 -0.2348 -0.2953  0.0755
    1DIPC   D2B19402  27.800  15.369   5.118 -0.0821 -0.0167  0.0675
    1DIPC   D3B19403  27.640  15.211   5.495  0.1407  0.1084  0.0907
    1DIPC   C4B19404  27.268  14.954   5.477  0.0771 -0.1048 -0.2424
    1DIPC   NC319405  12.868  15.777   2.328  0.1195 -0.2265  0.0090
    1DIPC   PO419406  12.668  15.524   2.604  0.1223 -0.3342  0.4797
    1DIPC   GL119407  12.633  15.745   3.039  0.2320 -0.0548 -0.1061
    1DIPC   GL219408  12.475  15.508   3.197  0.1464  0.3900 -0.1762
    1DIPC   C1A19409  12.773  15.885   3.480 -0.3118 -0.0989  0.2302
    1DIPC   D2A19410  12.976  15.985   3.772  0.2101  0.1876  0.3070
    1DIPC   D3A19411  13.377  15.952   3.953 -0.0559  0.0889 -0.0041
    1DIPC   C4A19412  13.456  15.689   4.310 -0.0920  0.1995 -0.1749
    1DIPC   C1B19413  12.709  15.281   3.388  0.0081 -0.2025 -0.1057
    1DIPC   D2B19414  12.645  14.845   3.485 -0.0964  0.1397  0.0594
    1DIPC   D3B19415  13.050  14.798   3.679  0.0067  0.2182  0.0161
    1DIPC   C4B19416  13.239  15.000   3.865  0.0720 -0.1969  0.1258
    1DIPC   NC319417  18.543  16.479   2.823  0.1949 -0.1144 -0.0975
    1DIPC   PO419418  18.433  16.177   2.904  0.2104  0.0744  0.1387
    1DIPC   GL119419  18.527  15.787   3.129 -0.1544 -0.2523 -0.0923
    1DIPC   GL219420  18.562  15.414   3.173  0.1329  0.2344 -0.2031
    1DIPC   C1A19421  18.594  15.812   3.542  0.2217  0.0977 -0.3972
    1DIPC   D2A19422  18.456  15.947   3.957  0.2823  0.0557  0.1857
    1DIPC   D3A19423  18.836  15.724   4.069  0.0207 -0.2153  0.0814
    1DIPC   C4A19424  19.026  15.742   3.786  0.0662  0.0951 -0.0931
    1DIPC   C1B19425  18.153  15.616   3.384  0.1058 -0.3807  0.0837
    1DIPC   D2B19426  17.741  15.498   3.571 -0.1021 -0.0796  0.4223
    1DIPC   D3B19427  18.023  15.554   3.957  0.2039 -0.2283  0.1348
    1DIPC   C4B19428  18.470  15.423   3.909  0.2878 -0.2059 -0.3481
    1DIPC   NC319429  24.472  21.566   3.209  0.3334  0.0753 -0.0277
    1DIPC   PO419430  24.582  21.859   3.575 -0.0174 -0.0974 -0.0223
    1DIPC   GL119431  24.738  21.928   4.002 -0.3654 -0.2445 -0.2243
    1DIPC   GL219432  24.453  22.138   4.137 -0.2856 -0.0067 -0.2034
    1DIPC   C1A19433  24.861  21.967   4.505 -0.1357 -0.3762  0.0205
    1DIPC   D2A19434  24.739  22.132   4.817 -0.0463 -0.0906  0.4555
    1DIPC   D3A19435  24.300  22.037   4.827  0.0427  0.0333  0.3035
    1DIPC   C4A19436  23.842  21.766   4.771 -0.2640 -0.1676 -0.1766
    1DIPC   C1B19437  24.407  21.738   4.260 -0.0184  0.0350  0.0015
    1DIPC   D2B19438  24.241  21.382   4.620 -0.0351  0.1005 -0.1445
    1DIPC   D3B19439  24.628  21.606   4.702  0.5323  0.2606 -0.3898
    1DIPC   C4B19440  24.949  21.543   5.003  0.1030  0.0860 -0.0472
    1DIPC   NC319441   8.525  26.255   3.969 -0.3466  0.4269 -0.0133
    1DIPC   PO419442   8.886  26.128   3.548  0.0149  0.0590 -0.0004
    1DIPC   GL119443   9.061  26.115   3.997  0.1149 -0.0008 -0.1090
    1DIPC   GL219444   9.223  25.885   4.110  0.0421 -0.0222  0.0515
    1DIPC   C1A19445   8.990  26.379   4.374  0.3960 -0.0407 -0.2518
    1DIPC   D2A19446   9.105  26.381   4.767  0.1615  0.0159 -0.1443
    1DIPC   D3A19447   8.664  26.386   4.906 -0.1748  0.0794 -0.0164
    1DIPC   C4A19448   8.420  26.264   5.235  0.0335 -0.0717 -0.0213
    1DIPC   C1B19449   9.080  25.885   4.496  0.0675  0.2473 -0.0954
    1DIPC   D2B19450   8.936  25.962   4.946  0.0619 -0.2935  0.0675
    1DIPC   D3B19451   9.266  25.828   5.290 -0.1936 -0.1967 -0.1037
    1DIPC   C4B19452   9.528  25.576   5.172  0.0292 -0.1061  0.0491
    1DIPC   NC319453  20.654   4.667   1.823  0.0428  0.0072 -0.3486
    1DIPC   PO419454  20.585   4.585   2.279  0.1871 -0.0377  0.0557
    1DIPC   GL119455  20.540   4.427   2.724  0.1588 -0.0777 -0.1975
    1DIPC   GL219456  20.267   4.511   2.832  0.1653 -0.1566 -0.1010
    1DIPC   C1A19457  20.633   4.206   3.056 -0.0287 -0.0514 -0.0374
    1DIPC   D2A19458  20.515   4.290   3.534 -0.0361  0.3661  0.1946
    1DIPC   D3A19459  20.503   4.448   3.915 -0.0266  0.1898 -0.0204
    1DIPC   C4A19460  20.420   4.195   4.215  0.1332  0.0787  0.0160
    1DIPC   C1B19461  20.128   4.536   3.204  0.3995 -0.0190  0.0859
    1DIPC   D2B19462  20.140   4.648   3.640 -0.0739  0.0951  0.0734
    1DIPC   D3B19463  19.951   4.762   3.980  0.0015 -0.1656  0.0434
    1DIPC   C4B19464  20.260   4.746   4.323  0.1240  0.2682  0.0794
    1DIPC   NC319465   5.885   7.427   3.164 -0.1610  0.0343 -0.1371
    1DIPC   PO419466   5.618   6.969   3.250 -0.0747 -0.3260  0.0911
    1DIPC   GL119467   5.966   6.939   3.456  0.0673  0.0036 -0.0807
    1DIPC   GL219468   5.842   6.803   3.744 -0.0628 -0.1045 -0.0318
    1DIPC   C1A19469   6.314   7.187   3.730  0.0674 -0.2528 -0.2631
    1DIPC   D2A19470   6.618   7.296   4.052 -0.1589  0.0024  0.0992
    1DIPC   D3A19471   6.835   6.994   4.146 -0.4401 -0.0516  0.1555
    1DIPC   C4A19472   6.752   6.593   4.263 -0.4422 -0.1215 -0.2152
    1DIPC   C1B19473   5.893   7.184   3.965 -0.0032 -0.1833 -0.0069
    1DIPC   D2B19474   6.146   7.356   4.354  0.0379 -0.0888 -0.0100
    1DIPC   D3B19475   5.969   7.794   4.333  0.0822  0.0027  0.0813
    1DIPC   C4B19476   5.809   7.953   4.673  0.1790  0.0454  0.2448
    1DIPC   NC319477  10.208  12.580   1.738 -0.3818  0.2986 -0.3388
    1DIPC   PO419478  10.397  12.793   2.089 -0.1158 -0.0389 -0.0914
    1DIPC   GL119479  10.120  12.896   2.527  0.2627 -0.0212 -0.3921
    1DIPC   GL219480  10.409  12.930   2.787 -0.2764 -0.0979 -0.0459
    1DIPC   C1A19481   9.780  12.901   2.771 -0.2200 -0.0686 -0.1069
    1DIPC   D2A19482   9.616  13.151   3.016  0.1730 -0.2369 -0.0757
    1DIPC   D3A19483   9.559  12.961   3.452  0.3107 -0.1455  0.1390
    1DIPC   C4A19484   9.065  13.048   3.732  0.1078  0.1955  0.0299
    1DIPC   C1B19485  10.530  12.867   3.182  0.1667  0.2143  0.2832
    1DIPC   D2B19486  10.625  12.656   3.534 -0.1599  0.0095  0.1292
    1DIPC   D3B19487  10.405  12.591   3.901 -0.1239 -0.0205 -0.2248
    1DIPC   C4B19488  10.239  13.004   4.148 -0.1965  0.0403  0.0172
    1DIPC   NC319489   8.528  22.130   3.064  0.3300  0.1082 -0.3478
    1DIPC   PO419490   8.487  21.942   3.452  0.4211  0.0040  0.1089
    1DIPC   GL119491   8.115  21.841   3.629 -0.2122  0.2781  0.0142
    1DIPC   GL219492   7.826  22.056   3.729  0.0178 -0.0761  0.0898
    1DIPC   C1A19493   7.932  21.636   4.028 -0.0231  0.0094  0.0186
    1DIPC   D2A19494   7.649  21.521   4.374  0.0171  0.0236  0.1314
    1DIPC   D3A19495   7.667  21.627   4.788  0.1284 -0.1842  0.0891
    1DIPC   C4A19496   7.857  21.258   5.040 -0.1190 -0.0339  0.3344
    1DIPC   C1B19497   7.539  22.102   4.253 -0.1655  0.3538  0.0266
    1DIPC   D2B19498   7.134  22.296   4.370 -0.1776  0.3545  0.0623
    1DIPC   D3B19499   7.382  22.041   4.777 -0.0303  0.0916 -0.0900
    1DIPC   C4B19500   7.135  21.898   5.240 -0.0219 -0.2328 -0.2583
    1DIPC   NC319501  21.695  11.448   2.867  0.0436 -0.0671 -0.0386
    1DIPC   PO419502  21.298  11.416   2.781 -0.1667 -0.1032  0.2525
    1DIPC   GL119503  21.388  11.810   3.101  0.0218  0.1803  0.0139
    1DIPC   GL219504  21.054  11.910   3.217 -0.0317 -0.1028 -0.1149
    1DIPC   C1A19505  21.466  11.758   3.524 -0.1111  0.0204  0.0622
    1DIPC   D2A19506  21.187  11.751   3.941 -0.0481 -0.1619 -0.0787
    1DIPC   D3A19507  20.783  11.889   4.110  0.4014 -0.0544  0.0084
    1DIPC   C4A19508  20.508  11.637   4.264  0.0350  0.3192  0.1159
    1DIPC   C1B19509  20.895  11.893   3.564 -0.2405  0.0639  0.1819
    1DIPC   D2B19510  20.615  11.612   3.674 -0.1335  0.0555 -0.0548
    1DIPC   D3B19511  20.744  11.263   3.877 -0.0884  0.1180  0.0180
    1DIPC   C4B19512  21.157  11.234   4.147 -0.1066  0.3034  0.1198
    1DIPC   NC319513   9.353   6.911   3.117 -0.2160  0.2533  0.2604
    1DIPC   PO419514   8.889   6.853   3.104 -0.0106  0.0289 -0.2821
    1DIPC   GL119515   9.093   6.563   3.311  0.3745  0.1246  0.1167
    1DIPC   GL219516   9.240   6.239   3.264  0.2380 -0.2123 -0.0381
    1DIPC   C1A19517   8.998   6.410   3.665 -0.0091  0.0062 -0.0806
    1DIPC   D2A19518   9.181   6.302   4.109  0.3428  0.0567  0.1207
    1DIPC   D3A19519   8.738   6.580   4.099  0.0203 -0.2445  0.3106
    1DIPC   C4A19520   8.631   6.887   4.359 -0.0922  0.0026 -0.2420
    1DIPC   C1B19521   9.490   6.219   3.742 -0.1845 -0.0157 -0.0261
    1DIPC   D2B19522   9.686   6.282   4.121  0.0351 -0.0462  0.3469
    1DIPC   D3B19523  10.039   6.387   3.938  0.0861  0.2787  0.0864
    1DIPC   C4B19524  10.008   6.519   3.570  0.1617  0.0677  0.2121
    1DIPC   NC319525  23.956   2.612   2.703 -0.3216  0.0812  0.1483
    1DIPC   PO419526  23.827   2.724   3.121  0.0930  0.1941  0.0729
    1DIPC   GL119527  23.686   2.813   3.485  0.0821  0.1588 -0.1620
    1DIPC   GL219528  23.567   3.147   3.521  0.3842  0.0108 -0.0261
    1DIPC   C1A19529  23.861   2.682   3.848 -0.2664 -0.1534 -0.1088
    1DIPC   D2A19530  24.010   2.733   4.315  0.0782  0.1997 -0.1754
    1DIPC   D3A19531  23.798   2.950   4.685  0.1489  0.3201 -0.2729
    1DIPC   C4A19532  24.115   2.988   5.025 -0.1966 -0.0867 -0.0560
    1DIPC   C1B19533  23.724   3.161   3.947 -0.1692 -0.1500  0.2365
    1DIPC   D2B19534  23.519   3.049   4.318 -0.0580  0.0539  0.2402
    1DIPC   D3B19535  23.355   2.712   4.139 -0.2912 -0.5255 -0.2682
    1DIPC   C4B19536  23.429   2.420   3.720 -0.0723  0.2987 -0.1332
    1DIPC   NC319537   8.892  26.991   4.174  0.2657  0.1989  0.0399
    1DIPC   PO419538   8.475  26.808   4.133  0.0414  0.1701  0.1049
    1DIPC   GL119539   8.493  27.207   4.364  0.1458 -0.3107  0.0822
    1DIPC   GL219540   8.756  27.298   4.554 -0.0451  0.2476 -0.2537
    1DIPC   C1A19541   8.207  27.359   4.671  0.1104 -0.2596 -0.0287
    1DIPC   D2A19542   8.006  27.453   5.053 -0.1384  0.2562  0.0803
    1DIPC   D3A19543   8.091  27.330   5.450  0.0716 -0.0168 -0.2252
    1DIPC   C4A19544   8.544  27.081   5.601  0.0834  0.2168  0.0269
    1DIPC   C1B19545   8.578  27.108   4.858 -0.0457 -0.0298 -0.0716
    1DIPC   D2B19546   8.410  26.885   5.155  0.0364 -0.2630  0.1885
    1DIPC   D3B19547   8.727  26.721   5.295 -0.0272 -0.3787  0.0365
    1DIPC   C4B19548   8.681  26.416   5.633  0.0401 -0.0022  0.1803
    1DIPC   NC319549  11.010   0.327   3.169 -0.0474  0.0228 -0.0836
    1DIPC   PO419550  10.720   0.052   3.215 -0.4013 -0.0448  0.0525
    1DIPC   GL119551  10.786  -0.129   3.670 -0.1796 -0.1112 -0.0595
    1DIPC   GL219552  10.965  -0.540   3.674  0.0514 -0.1529 -0.3602
    1DIPC   C1A19553  10.620  -0.288   4.083 -0.0634 -0.1532  0.1138
    1DIPC   D2A19554  10.676  -0.136   4.516  0.0955 -0.3201  0.1040
    1DIPC   D3A19555  10.957   0.056   4.243  0.2777 -0.1713  0.0650
    1DIPC   C4A19556  11.133  -0.157   3.973  0.0402  0.2753 -0.0184
    1DIPC   C1B19557  11.000  -0.605   4.143 -0.0141 -0.1643  0.2332
    1DIPC   D2B19558  10.606  -0.654   4.468  0.3366 -0.0373 -0.1045
    1DIPC   D3B19559  11.036  -0.475   4.649 -0.0496 -0.0393 -0.3054
    1DIPC   C4B19560  11.281  -0.554   4.957 -0.0302  0.3154  0.0819
    1DIPC   NC319561  25.388  12.894   3.842 -0.3968 -0.1240  0.0377
    1DIPC   PO419562  25.478  12.557   3.701 -0.0180 -0.1224 -0.3065
    1DIPC   GL119563  25.609  12.490   4.151 -0.0979  0.1013 -0.1488
    1DIPC   GL219564  25.474  12.655   4.293  0.0734  0.0111 -0.0960
    1DIPC   C1A19565  25.874  12.322   4.463 -0.0744  0.1150  0.3165
    1DIPC   D2A19566  26.221  12.308   4.768 -0.0015 -0.0434 -0.0797
    1DIPC   D3A19567  25.939  12.185   5.105 -0.0254  0.3515  0.2445
    1DIPC   C4A19568  26.065  11.829   5.389 -0.2022  0.0058  0.1437
    1DIPC   C1B19569  25.559  12.946   4.661 -0.0358 -0.0721 -0.0194
    1DIPC   D2B19570  25.553  13.077   5.133  0.1878  0.0318 -0.1697
    1DIPC   D3B19571  25.697  13.421   4.887 -0.1184 -0.4428  0.4017
    1DIPC   C4B19572  26.157  13.599   4.921 -0.1792  0.4825  0.0547
    1DIPC   NC319573  24.112  19.414   2.783  0.1499 -0.2843  0.0141
    1DIPC   PO419574  23.768  19.566   3.038 -0.1561  0.0278 -0.1099
    1DIPC   GL119575  23.636  19.510   3.536  0.0564 -0.1223  0.0408
    1DIPC   GL219576  23.273  19.541   3.652  0.3020 -0.0435  0.1496
    1DIPC   C1A19577  23.819  19.139   3.859  0.1264 -0.1105  0.2095
    1DIPC   D2A19578  24.142  19.033   4.182 -0.0356  0.1778  0.4111
    1DIPC   D3A19579  23.955  19.518   4.281 -0.2927  0.0128 -0.0529
    1DIPC   C4A19580  24.043  19.820   3.917  0.1587 -0.1193 -0.2237
    1DIPC   C1B19581  23.379  19.291   4.011  0.0133  0.0757 -0.2397
    1DIPC   D2B19582  23.586  19.107   4.367 -0.1724  0.2682  0.0766
    1DIPC   D3B19583  23.859  19.230   4.781  0.0961 -0.0937 -0.0941
    1DIPC   C4B19584  24.238  19.048   4.746 -0.0792 -0.2791  0.0432
    1DIPC   NC319585  11.238  17.704   3.033  0.1206  0.1265 -0.1480
    1DIPC   PO419586  10.844  17.618   2.837  0.0292 -0.2845  0.0267
    1DIPC   GL119587  10.731  17.426   3.254  0.0759  0.0906 -0.1304
    1DIPC   GL219588  10.854  17.487   3.557 -0.2322  0.2162  0.2315
    1DIPC   C1A19589  10.514  17.063   3.526 -0.0588  0.4133 -0.0847
    1DIPC   D2A19590  10.431  16.640   3.454 -0.1499 -0.1674 -0.2440
    1DIPC   D3A19591  10.523  16.182   3.548  0.0825 -0.1351 -0.1252
    1DIPC   C4A19592  10.783  15.865   3.752  0.2354  0.0191 -0.1852
    1DIPC   C1B19593  10.673  17.389   3.900 -0.0616  0.3467 -0.0551
    1DIPC   D2B19594  10.615  17.099   4.046 -0.0236  0.2074  0.0138
    1DIPC   D3B19595  10.418  16.738   4.024 -0.1253 -0.1480  0.1105
    1DIPC   C4B19596  10.159  16.600   4.354 -0.1842 -0.1288 -0.0630
    1DIPC   NC319597   7.658   5.138   2.977 -0.1207  0.2778  0.1366
    1DIPC   PO419598   8.089   5.236   2.787 -0.0445 -0.1782 -0.1293
    1DIPC   GL119599   8.111   5.356   3.271 -0.1276 -0.0592 -0.1127
    1DIPC   GL219600   7.842   5.262   3.417 -0.0434 -0.5141  0.0539
    1DIPC   C1A19601   8.385   5.276   3.624  0.2029  0.1764  0.2931
    1DIPC   D2A19602   8.827   5.319   3.864 -0.0247  0.2708  0.1320
    1DIPC   D3A19603   8.690   5.671   3.709  0.3433  0.1625 -0.5617
    1DIPC   C4A19604   8.741   6.085   3.870  0.1470  0.2895 -0.4116
    1DIPC   C1B19605   7.871   5.422   3.860 -0.0388 -0.0398  0.1060
    1DIPC   D2B19606   7.899   5.465   4.270 -0.1684 -0.0889  0.0311
    1DIPC   D3B19607   8.147   5.135   4.541  0.2001  0.0708  0.2105
    1DIPC   C4B19608   8.356   5.258   4.957 -0.0007 -0.1605 -0.2618
    1DIPC   NC319609  25.487   0.974   3.644 -0.1660  0.3638 -0.2166
    1DIPC   PO419610  25.564   1.409   3.588  0.0271 -0.0115  0.0674
    1DIPC   GL119611  25.354   1.512   3.980  0.1122 -0.1827 -0.0918
    1DIPC   GL219612  25.075   1.739   3.918 -0.2445 -0.0513  0.0020
    1DIPC   C1A19613  25.252   1.337   4.472 -0.0908  0.0206  0.3125
    1DIPC   D2A19614  25.380   0.995   4.716 -0.0895  0.0818 -0.1373
    1DIPC   D3A19615  25.698   0.980   5.077  0.0637 -0.0417 -0.2217
    1DIPC   C4A19616  25.944   0.589   5.331 -0.0330 -0.0474  0.0205
    1DIPC   C1B19617  25.153   1.807   4.306 -0.1493 -0.0579 -0.1131
    1DIPC   D2B19618  25.089   1.656   4.793 -0.1348 -0.2507 -0.2824
    1DIPC   D3B19619  25.114   1.212   5.056  0.1978 -0.0507  0.0606
    1DIPC   C4B19620  25.196   1.294   5.499  0.2983 -0.0789  0.1057
    1DIPC   NC319621  13.352   2.257   2.161  0.4989 -0.0550  0.1442
    1DIPC   PO419622  13.007   2.021   2.372 -0.3882  0.0180  0.1140
    1DIPC   GL119623  13.178   2.162   2.755  0.2137 -0.1052 -0.0382
    1DIPC   GL219624  13.188   1.966   2.990  0.0638 -0.1032 -0.0512
    1DIPC   C1A19625  13.446   2.410   3.028 -0.1852 -0.2894  0.1442
    1DIPC   D2A19626  13.534   2.647   3.427  0.1427 -0.2724  0.2318
    1DIPC   D3A19627  13.728   2.803   3.118  0.2057  0.0626  0.1659
    1DIPC   C4A19628  13.960   2.505   3.000  0.2717  0.2498 -0.2101
    1DIPC   C1B19629  13.285   2.059   3.357 -0.0794  0.1174  0.0344
    1DIPC   D2B19630  13.236   2.270   3.721 -0.0554  0.0745  0.0144
    1DIPC   D3B19631  13.630   2.552   3.971  0.0996 -0.0003 -0.1557
    1DIPC   C4B19632  14.005   2.316   4.098 -0.0825 -0.0815  0.0415
    1DIPC   NC319633   7.156  19.253   2.290 -0.0094  0.0905  0.1994
    1DIPC   PO419634   7.240  19.402   2.685  0.0921  0.0646 -0.0673
    1DIPC   GL119635   7.361  19.496   2.993 -0.1831 -0.0189 -0.0971
    1DIPC   GL219636   7.407  19.220   3.193 -0.0145 -0.2786 -0.0386
    1DIPC   C1A19637   7.107  19.605   3.308 -0.0452  0.3199 -0.1571
    1DIPC   D2A19638   6.716  19.595   3.491  0.1096 -0.0468 -0.0081
    1DIPC   D3A19639   6.969  19.217   3.613 -0.0897 -0.0936 -0.0267
    1DIPC   C4A19640   7.029  19.396   3.955  0.2562  0.0872  0.2011
    1DIPC   C1B19641   7.594  18.905   3.448 -0.1561  0.4102 -0.0982
    1DIPC   D2B19642   7.899  18.511   3.455  0.1711  0.0925 -0.2130
    1DIPC   D3B19643   7.845  18.827   3.885  0.1453  0.3195 -0.1095
    1DIPC   C4B19644   8.082  18.684   4.288 -0.3148 -0.1861 -0.1353
    1DIPC   NC319645  13.409  27.431   2.095 -0.3491 -0.0245  0.1780
    1DIPC   PO419646  13.782  27.507   2.297  0.0491  0.0109 -0.0636
    1DIPC   GL119647  13.827  27.472   2.722 -0.0472  0.0724  0.0379
    1DIPC   GL219648  13.959  27.135   2.754 -0.2241 -0.0467  0.0893
    1DIPC   C1A19649  13.582  27.436   3.039  0.0348 -0.0962  0.0841
    1DIPC   D2A19650  13.565  27.185   3.457 -0.0643  0.3106 -0.5212
    1DIPC   D3A19651  13.256  27.391   3.459 -0.2172  0.1548 -0.1022
    1DIPC   C4A19652  13.068  27.573   3.070  0.3518  0.2497  0.5950
    1DIPC   C1B19653  14.049  27.332   3.169  0.1443  0.4308 -0.0798
    1DIPC   D2B19654  14.145  27.296   3.628  0.1799 -0.4944  0.2606
    1DIPC   D3B19655  13.960  27.459   3.925 -0.0485 -0.2717 -0.1938
    1DIPC   C4B19656  14.039  27.360   4.355 -0.1452 -0.0599  0.0986
    1DIPC   NC319657  22.017  28.445   3.178  0.1235  0.1705 -0.2108
    1DIPC   PO419658  21.611  28.719   3.217  0.0084  0.1110  0.3266
    1DIPC   GL119659  21.897  28.833   3.506 -0.0776  0.3028 -0.3162
    1DIPC   GL219660  21.851  29.182   3.504 -0.2079  0.0336 -0.2459
    1DIPC   C1A19661  21.846  28.871   3.982  0.0598 -0.1828 -0.0453
    1DIPC   D2A19662  21.726  28.849   4.349 -0.3063  0.1028 -0.2129
    1DIPC   D3A19663  21.898  28.650   4.665  0.1187 -0.0317 -0.1381
    1DIPC   C4A19664  21.712  28.805   4.980 -0.1434 -0.0433 -0.2674
    1DIPC   C1B19665  21.924  29.339   3.929  0.3034 -0.0792  0.0393
    1DIPC   D2B19666  22.001  29.481   4.418  0.2081 -0.1983  0.0802
    1DIPC   D3B19667  21.792  29.233   4.691  0.2680  0.1230  0.0354
    1DIPC   C4B19668  21.383  29.439   4.806 -0.3397 -0.1530 -0.2076
    1DIPC   NC319669   5.549  19.038   2.460 -0.1556  0.1625  0.0181
    1DIPC   PO419670   5.822  19.092   2.889 -0.0009  0.1553 -0.0629
    1DIPC   GL119671   5.915  19.038   3.305 -0.1459 -0.2511 -0.0595
    1DIPC   GL219672   5.783  19.276   3.546  0.0950 -0.3290 -0.0586
    1DIPC   C1A19673   5.941  18.791   3.738  0.1078  0.0653 -0.1019
    1DIPC   D2A19674   6.205  18.862   4.011 -0.2768 -0.1932  0.1722
    1DIPC   D3A19675   5.895  18.743   4.269 -0.0006  0.1695  0.0517
    1DIPC   C4A19676   5.548  18.542   4.068 -0.0020  0.4104 -0.2243
    1DIPC   C1B19677   5.566  19.072   4.019  0.0398 -0.1466 -0.3402
    1DIPC   D2B19678   5.449  18.917   4.465 -0.1140  0.0457 -0.0573
    1DIPC   D3B19679   5.308  19.106   4.805  0.3991  0.3376 -0.0147
    1DIPC   C4B19680   5.441  19.029   5.139 -0.0491  0.1455 -0.2693
    1DIPC   NC319681   2.619  26.082   4.401 -0.0813 -0.1378 -0.1937
    1DIPC   PO419682   2.443  26.419   4.038 -0.2571  0.0241 -0.0969
    1DIPC   GL119683   2.491  26.647   4.431 -0.3963  0.1028  0.0003
    1DIPC   GL219684   2.479  26.404   4.770 -0.0145 -0.2042  0.1890
    1DIPC   C1A19685   2.770  26.849   4.665 -0.0566  0.0113  0.0087
    1DIPC   D2A19686   3.043  27.074   4.968 -0.0638 -0.1314 -0.1483
    1DIPC   D3A19687   3.065  27.380   5.332 -0.2199 -0.2104  0.3009
    1DIPC   C4A19688   3.201  27.372   5.793 -0.1238  0.2458  0.0346
    1DIPC   C1B19689   2.535  26.225   5.196 -0.1306 -0.0628  0.1501
    1DIPC   D2B19690   2.700  26.412   5.631 -0.1344 -0.2199  0.0524
    1DIPC   D3B19691   2.998  26.024   5.657  0.2778  0.1223  0.2546
    1DIPC   C4B19692   3.227  25.927   6.067  0.0047 -0.3683  0.1226
    1DIPC   NC319693   9.138   2.295   3.352 -0.2652 -0.1389 -0.3433
    1DIPC   PO419694   8.655   2.161   3.349  0.1511 -0.1379  0.1926
    1DIPC   GL119695   8.826   2.257   3.836 -0.1146 -0.0421 -0.1138
    1DIPC   GL219696   9.108   2.368   3.875 -0.3025  0.1234 -0.1947
    1DIPC   C1A19697   8.969   2.131   4.264 -0.0669  0.0753 -0.1754
    1DIPC   D2A19698   8.992   1.729   4.615  0.1871  0.1747 -0.3320
    1DIPC   D3A19699   9.053   2.147   4.765  0.0456 -0.2157 -0.0085
    1DIPC   C4A19700   9.324   2.395   5.101 -0.0618 -0.3014  0.0201
    1DIPC   C1B19701   9.468   2.602   3.820  0.2346  0.0268 -0.2884
    1DIPC   D2B19702   9.689   2.853   3.528 -0.0664  0.1429 -0.2716
    1DIPC   D3B19703   9.462   3.311   3.569 -0.0130  0.0916 -0.0915
    1DIPC   C4B19704   9.376   3.609   3.952  0.1181 -0.2079 -0.1883
    1DIPC   NC319705  22.100  17.746   2.898 -0.0626 -0.0480 -0.0043
    1DIPC   PO419706  21.735  17.735   3.052  0.1519 -0.0451 -0.4043
    1DIPC   GL119707  21.435  17.902   3.233  0.3516 -0.0488  0.3022
    1DIPC   GL219708  21.119  17.759   3.358 -0.1754  0.0511 -0.1676
    1DIPC   C1A19709  21.365  18.156   3.682  0.1814 -0.0442  0.1450
    1DIPC   D2A19710  21.446  18.348   3.975  0.1879 -0.0193  0.0658
    1DIPC   D3A19711  21.464  18.109   4.366  0.1485  0.1107 -0.1506
    1DIPC   C4A19712  21.940  17.966   4.550 -0.0588  0.2205 -0.1079
    1DIPC   C1B19713  21.039  17.622   3.718 -0.5249  0.0016  0.3101
    1DIPC   D2B19714  21.263  17.743   4.018  0.0824  0.0483  0.1270
    1DIPC   D3B19715  20.939  18.031   4.054 -0.2346 -0.2013 -0.0381
    1DIPC   C4B19716  21.011  18.316   4.404 -0.0365  0.0769 -0.1351
    1DIPC   NC319717   3.312  19.129   3.125 -0.2283 -0.0425  0.1253
    1DIPC   PO419718   3.230  19.357   3.426  0.4644 -0.2605  0.4560
    1DIPC   GL119719   3.367  19.457   3.842 -0.0138 -0.3187 -0.0761
    1DIPC   GL219720   3.561  19.628   4.034  0.2041 -0.0209 -0.3718
    1DIPC   C1A19721   3.340  19.063   4.208 -0.0774  0.0479  0.2937
    1DIPC   D2A19722   3.085  18.835   4.442  0.1642  0.0109  0.1412
    1DIPC   D3A19723   3.312  18.864   4.792  0.3926  0.2484 -0.2506
    1DIPC   C4A19724   3.177  18.905   5.259  0.3808  0.1327 -0.1365
    1DIPC   C1B19725   3.555  19.815   4.480 -0.1675 -0.2109 -0.0794
    1DIPC   D2B19726   3.490  19.796   4.898 -0.2706  0.1281  0.2984
    1DIPC   D3B19727   3.789  19.653   4.943  0.2090 -0.3787  0.0455
    1DIPC   C4B19728   4.001  19.508   5.311 -0.0706 -0.1747  0.4359
    1DIPC   NC319729   0.991  18.056   4.042 -0.0132 -0.3275 -0.0005
    1DIPC   PO419730   1.142  17.722   4.025 -0.2511 -0.1779 -0.0158
    1DIPC   GL119731   1.423  17.932   4.383 -0.1083  0.1204  0.0405
    1DIPC   GL219732   1.492  18.251   4.368  0.0689  0.1510 -0.0885
    1DIPC   C1A19733   1.574  17.818   4.708 -0.0668  0.0854 -0.1940
    1DIPC   D2A19734   1.707  17.683   5.143 -0.2171 -0.0178 -0.1111
    1DIPC   D3A19735   1.644  17.857   5.560 -0.0822 -0.3800  0.0226
    1DIPC   C4A19736   2.005  18.148   5.598  0.0528 -0.1473  0.0061
    1DIPC   C1B19737   1.634  18.293   4.748  0.1842  0.2133 -0.1926
    1DIPC   D2B19738   1.926  18.248   5.096 -0.3117 -0.0025  0.0351
    1DIPC   D3B19739   2.070  17.919   4.752  0.0999 -0.1387  0.1318
    1DIPC   C4B19740   2.261  17.588   4.977  0.1082 -0.1535  0.1072
    1DIPC   NC319741  10.826   5.963   2.144 -0.2781 -0.2763 -0.0174
    1DIPC   PO419742  10.712   5.634   2.411  0.2419  0.3315  0.4489
    1DIPC   GL119743  10.884   5.546   2.799  0.4014 -0.1588  0.0030
    1DIPC   GL219744  10.697   5.339   2.980 -0.0281  0.1205  0.1690
    1DIPC   C1A19745  11.173   5.387   3.172  0.1267  0.4322 -0.5721
    1DIPC   D2A19746  11.212   5.020   3.464 -0.1020  0.0807 -0.0818
    1DIPC   D3A19747  11.550   4.984   3.735  0.2825 -0.2651  0.2118
    1DIPC   C4A19748  11.558   4.644   4.115 -0.1014  0.1119  0.0385
    1DIPC   C1B19749  10.720   5.324   3.441  0.2154  0.3429 -0.2857
    1DIPC   D2B19750  10.665   5.302   3.861 -0.2688 -0.0233 -0.0607
    1DIPC   D3B19751  10.748   4.854   3.788  0.2467 -0.0026  0.2201
    1DIPC   C4B19752  11.089   4.535   3.986 -0.1228  0.0741 -0.1565
    1DIPC   NC319753   0.887  12.522   3.435  0.1091  0.3887 -0.1013
    1DIPC   PO419754   1.093  12.241   3.642  0.4707 -0.5055  0.1490
    1DIPC   GL119755   1.178  12.031   4.075  0.4457 -0.1485  0.0302
    1DIPC   GL219756   1.226  12.365   4.187  0.3060  0.2675  0.0293
    1DIPC   C1A19757   0.883  11.928   4.364  0.1714  0.1438  0.0983
    1DIPC   D2A19758   0.728  11.557   4.668  0.0482 -0.0668 -0.1446
    1DIPC   D3A19759   1.125  11.461   4.831  0.0533  0.0894 -0.0060
    1DIPC   C4A19760   1.128  11.223   5.168 -0.1079 -0.0069 -0.0437
    1DIPC   C1B19761   0.993  12.422   4.569 -0.1239 -0.2000 -0.3115
    1DIPC   D2B19762   0.700  12.139   4.764  0.2489  0.2325  0.1780
    1DIPC   D3B19763   0.856  11.923   5.105 -0.1520 -0.4197 -0.0495
    1DIPC   C4B19764   0.751  11.514   5.199 -0.0877 -0.0465  0.1872
    1DIPC   NC319765   1.743  27.293   3.977  0.0890  0.1304 -0.0781
    1DIPC   PO419766   1.966  27.400   4.325 -0.1371 -0.3357  0.0251
    1DIPC   GL119767   2.137  27.357   4.769 -0.0187  0.0279  0.3452
    1DIPC   GL219768   2.397  27.234   4.634  0.1724  0.0318  0.1750
    1DIPC   C1A19769   2.019  27.129   5.171  0.0630 -0.2182  0.0631
    1DIPC   D2A19770   2.334  26.916   5.496 -0.0393  0.1091  0.1173
    1DIPC   D3A19771   2.068  26.637   5.174  0.0685 -0.2399  0.0043
    1DIPC   C4A19772   1.836  26.479   4.871 -0.0268 -0.0007  0.1633
    1DIPC   C1B19773   2.473  27.035   5.040 -0.1194  0.0463 -0.0850
    1DIPC   D2B19774   2.704  26.702   5.132  0.1849  0.5102 -0.2171
    1DIPC   D3B19775   2.861  26.954   5.427 -0.2983 -0.2141 -0.1891
    1DIPC   C4B19776   3.043  26.874   5.831  0.2135 -0.0987  0.1903
    1DIPC   NC319777  27.591  13.842   4.164 -0.1755 -0.0132  0.0886
    1DIPC   PO419778  27.435  14.251   4.033  0.0974  0.0130 -0.1762
    1DIPC   GL119779  27.504  14.352   4.384  0.1063  0.0071 -0.0842
    1DIPC   GL219780  27.221  14.025   4.482  0.3861  0.2671 -0.0509
    1DIPC   C1A19781  27.635  14.312   4.760  0.0532  0.0130 -0.2674
    1DIPC   D2A19782  27.753  14.399   5.150  0.1338 -0.3758 -0.0315
    1DIPC   D3A19783  27.596  14.859   5.105  0.0190  0.1862  0.0941
    1DIPC   C4A19784  27.157  15.130   5.058 -0.0179  0.1099 -0.4469
    1DIPC   C1B19785  26.992  14.163   4.845  0.0741 -0.1269  0.0882
    1DIPC   D2B19786  26.780  14.383   5.080 -0.0574 -0.1726 -0.1062
    1DIPC   D3B19787  26.762  14.815   5.320  0.1062  0.0030 -0.3643
    1DIPC   C4B19788  26.850  14.776   5.743  0.0180 -0.1826  0.1096
    1DIPC   NC319789   3.733   5.146   3.490  0.1039  0.0691  0.1445
    1DIPC   PO419790   3.985   5.279   3.914 -0.3553  0.2090 -0.1787
    1DIPC   GL119791   3.835   5.078   4.359  0.1282  0.2602  0.0759
    1DIPC   GL219792   3.697   5.234   4.582  0.1437  0.1444 -0.3403
    1DIPC   C1A19793   3.863   4.674   4.693  0.2873 -0.3538  0.3091
    1DIPC   D2A19794   3.767   4.507   5.051 -0.0995  0.1950  0.1923
    1DIPC   D3A19795   3.912   4.570   5.602 -0.0455  0.0448 -0.2305
    1DIPC   C4A19796   4.186   4.921   5.650 -0.0807  0.0541  0.2203
    1DIPC   C1B19797   3.716   5.280   5.103  0.3410 -0.1458  0.1754
    1DIPC   D2B19798   3.713   4.935   5.336  0.0582  0.0807 -0.2065
    1DIPC   D3B19799   3.665   5.244   5.635  0.0442  0.2620  0.2708
    1DIPC   C4B19800   3.293   5.521   5.610  0.1583  0.2237 -0.2776
    1DIPC   NC319801  18.170  17.152   2.914  0.0496  0.1637 -0.2356
    1DIPC   PO419802  17.735  17.331   2.885  0.1147  0.3237 -0.0269
    1DIPC   GL119803  17.561  17.355   3.287 -0.0369  0.1217  0.2126
    1DIPC   GL219804  17.358  17.235   3.549 -0.2457  0.1936  0.0037
    1DIPC   C1A19805  17.832  17.510   3.573  0.2863  0.0687 -0.1597
    1DIPC   D2A19806  17.803  17.422   4.042  0.1609  0.0196  0.1159
    1DIPC   D3A19807  17.647  17.831   4.280  0.4322 -0.0865 -0.0151
    1DIPC   C4A19808  17.249  17.965   4.240 -0.0337  0.0939 -0.0625
    1DIPC   C1B19809  17.327  17.441   3.933  0.2713  0.2656 -0.2328
    1DIPC   D2B19810  17.081  17.427   4.318  0.0078  0.1729  0.0244
    1DIPC   D3B19811  17.455  17.396   4.449 -0.1088  0.0383 -0.1397
    1DIPC   C4B19812  17.440  17.753   4.727  0.1331 -0.1760  0.1230
    1DIPC   NC319813   0.124  11.250   3.225  0.0905  0.0116  0.2639
    1DIPC   PO419814   0.459  11.106   3.535  0.0226  0.0029  0.0309
    1DIPC   GL119815   0.170  11.016   3.781 -0.1084  0.3034 -0.1757
    1DIPC   GL219816  -0.094  10.865   3.764 -0.0101  0.0947  0.0604
    1DIPC   C1A19817   0.106  11.196   4.129 -0.0084 -0.2796  0.0150
    1DIPC   D2A19818   0.108  11.435   4.485  0.1503  0.0043  0.1780
    1DIPC   D3A19819   0.346  11.336   4.841  0.1022  0.2624 -0.3264
    1DIPC   C4A19820   0.026  11.494   5.180 -0.1018 -0.1534  0.0238
    1DIPC   C1B19821  -0.166  10.718   4.140  0.1684  0.2075  0.0896
    1DIPC   D2B19822  -0.182  10.668   4.648  0.0141  0.2492  0.0771
    1DIPC   D3B19823   0.123  10.525   4.935 -0.1663 -0.0002  0.2013
    1DIPC   C4B19824   0.188  10.152   4.935 -0.0610 -0.0707 -0.0938
    1DIPC   NC319825  11.010  10.798   1.716 -0.1014  0.0839  0.0045
    1DIPC   PO419826  11.195  10.825   2.080 -0.0429 -0.1089 -0.1384
    1DIPC   GL119827  11.190  10.702   2.547  0.3429 -0.1745 -0.1243
    1DIPC   GL219828  10.891  10.602   2.770  0.1007  0.1735 -0.0456
    1DIPC   C1A19829  11.277  10.667   3.104 -0.0180  0.0118 -0.2661
    1DIPC   D2A19830  11.209  10.731   3.547 -0.4615 -0.1267 -0.0486
    1DIPC   D3A19831  11.404  10.823   3.982 -0.2391 -0.2810  0.1461
    1DIPC   C4A19832  11.663  11.136   3.862 -0.2892 -0.4233 -0.2257
    1DIPC   C1B19833  10.823  10.578   3.266 -0.0050 -0.0653 -0.0069
    1DIPC   D2B19834  10.838  10.303   3.567 -0.0285  0.1699  0.1273
    1DIPC   D3B19835  11.072  10.430   3.998  0.4310  0.2307 -0.0736
    1DIPC   C4B19836  11.251  10.045   4.069  0.0832 -0.1428  0.0727
    1DIPC   NC319837  28.008   4.531   3.577  0.2779  0.3635 -0.1262
    1DIPC   PO419838  27.745   4.380   3.940  0.0293 -0.0378 -0.0672
    1DIPC   GL119839  27.814   4.052   4.303 -0.1334 -0.1645 -0.2363
    1DIPC   GL219840  27.917   4.322   4.452  0.3566  0.0667 -0.1852
    1DIPC   C1A19841  27.674   3.800   4.695 -0.2130  0.0814 -0.1334
    1DIPC   D2A19842  27.579   3.993   5.132  0.0483 -0.0490 -0.1613
    1DIPC   D3A19843  27.234   4.085   5.149  0.0656 -0.2257 -0.0519
    1DIPC   C4A19844  27.244   4.100   5.604  0.1968  0.0684 -0.1554
    1DIPC   C1B19845  27.878   4.396   4.872 -0.0075  0.0938 -0.0644
    1DIPC   D2B19846  28.048   4.474   5.264  0.0946 -0.1623  0.0378
    1DIPC   D3B19847  28.179   4.162   5.494  0.3701 -0.1455 -0.2271
    1DIPC   C4B19848  28.215   4.178   5.998 -0.2961  0.1081 -0.1729
    1DIPC   NC319849   3.616   2.458   4.270 -0.1045  0.0068  0.1270
    1DIPC   PO419850   3.211   2.613   4.115  0.3463  0.4470  0.0513
    1DIPC   GL119851   3.217   2.635   4.483  0.0349  0.0469 -0.0104
    1DIPC   GL219852   2.940   2.807   4.566 -0.0844  0.3492  0.1110
    1DIPC   C1A19853   3.488   2.904   4.864 -0.0221 -0.0531  0.0839
    1DIPC   D2A19854   3.871   3.134   5.092 -0.0698  0.1920  0.2035
    1DIPC   D3A19855   3.784   2.677   5.197 -0.0401  0.2420  0.1010
    1DIPC   C4A19856   3.811   2.614   5.604  0.0281 -0.0351  0.4795
    1DIPC   C1B19857   2.636   2.626   4.833  0.0626  0.2354  0.1005
    1DIPC   D2B19858   2.646   2.371   5.241 -0.0212 -0.2126 -0.2826
    1DIPC   D3B19859   2.244   2.332   5.284 -0.2758  0.1067 -0.0554
    1DIPC   C4B19860   1.996   2.078   5.555 -0.3271 -0.3779  0.0374
    1DIPC   NC319861   9.063   5.325   3.037 -0.0142 -0.0571  0.4841
    1DIPC   PO419862   9.037   5.220   3.402 -0.1927  0.0476  0.4893
    1DIPC   GL119863   9.453   5.099   3.550  0.0102  0.1068 -0.1031
    1DIPC   GL219864   9.356   5.176   3.880  0.1118 -0.2476 -0.0280
    1DIPC   C1A19865   9.923   4.954   3.732  0.0953 -0.0391  0.0445
    1DIPC   D2A19866   9.975   4.902   4.178  0.1472 -0.0378  0.1995
    1DIPC   D3A19867  10.303   5.116   4.157 -0.4135 -0.3122  0.3627
    1DIPC   C4A19868  10.312   5.493   4.117 -0.0640 -0.0865  0.2405
    1DIPC   C1B19869   9.144   5.346   4.253 -0.2989  0.2451 -0.0926
    1DIPC   D2B19870   9.203   5.522   4.716  0.0715  0.1598 -0.1764
    1DIPC   D3B19871   9.238   5.964   4.815  0.2226  0.0569 -0.0312
    1DIPC   C4B19872   9.449   6.119   4.565  0.1173 -0.0974  0.0674
    1DIPC   NC319873  20.790  16.569   2.305  0.1265 -0.3524  0.1652
    1DIPC   PO419874  20.532  16.831   2.579 -0.0659 -0.1209  0.3463
    1DIPC   GL119875  20.438  16.756   2.978 -0.0057 -0.2710 -0.2297
    1DIPC   GL219876  20.666  16.884   3.060 -0.1480  0.0019 -0.0675
    1DIPC   C1A19877  20.413  16.979   3.443  0.0058  0.1233 -0.0041
    1DIPC   D2A19878  20.791  16.936   3.643  0.1611 -0.0843 -0.1063
    1DIPC   D3A19879  20.903  16.965   4.084 -0.0041  0.2646  0.2115
    1DIPC   C4A19880  20.749  16.799   4.394  0.0409  0.1199  0.2869
    1DIPC   C1B19881  20.615  16.511   3.335 -0.2777  0.0728 -0.1642
    1DIPC   D2B19882  20.920  16.302   3.518  0.2137  0.1254 -0.3317
    1DIPC   D3B19883  20.959  16.461   3.945  0.0460  0.0367  0.1455
    1DIPC   C4B19884  21.270  16.736   3.854  0.0353  0.2493 -0.1051
    1DIPC   NC319885  11.078  18.972   2.526  0.1038  0.4077 -0.3166
    1DIPC   PO419886  11.133  19.250   2.928  0.2376  0.1471 -0.0082
    1DIPC   GL119887  10.818  19.330   3.207  0.0160 -0.0134 -0.0996
    1DIPC   GL219888  10.964  19.586   3.549  0.0504  0.1025  0.0639
    1DIPC   C1A19889  10.694  19.162   3.651 -0.1636 -0.3081 -0.1089
    1DIPC   D2A19890  10.784  18.866   3.942  0.2048 -0.0340 -0.1849
    1DIPC   D3A19891  10.582  18.858   4.418  0.0333 -0.1002 -0.0145
    1DIPC   C4A19892  10.651  18.905   4.870  0.3847 -0.0424  0.0901
    1DIPC   C1B19893  10.987  19.521   4.062 -0.1446 -0.2603  0.1127
    1DIPC   D2B19894  10.975  19.196   4.384  0.3125  0.0129  0.4174
    1DIPC   D3B19895  11.213  18.883   4.459 -0.0950  0.1689  0.2723
    1DIPC   C4B19896  11.000  18.510   4.371  0.2139  0.1863 -0.0555
    1DIPC   NC319897   8.621  28.011   3.769 -0.0156 -0.3376  0.0258
    1DIPC   PO419898   8.476  27.573   3.643 -0.1766  0.2151  0.2506
    1DIPC   GL119899   8.189  27.801   3.927  0.0599  0.1282 -0.1234
    1DIPC   GL219900   7.954  28.095   4.027 -0.2458 -0.2233  0.0112
    1DIPC   C1A19901   8.249  27.792   4.383  0.0981  0.0665 -0.0632
    1DIPC   D2A19902   7.959  27.890   4.721  0.1537  0.0640  0.3074
    1DIPC   D3A19903   7.677  27.857   4.989  0.0657  0.2709  0.0979
    1DIPC   C4A19904   7.480  27.491   4.973  0.2273  0.1325 -0.1901
    1DIPC   C1B19905   7.943  28.267   4.461 -0.1739  0.0851  0.0129
    1DIPC   D2B19906   7.720  28.681   4.547  0.0598 -0.0137 -0.0678
    1DIPC   D3B19907   7.469  28.808   4.875  0.2059 -0.1403  0.2637
    1DIPC   C4B19908   7.269  29.200   5.047  0.1907 -0.0831 -0.3862
    1DIPC   NC319909   1.930  16.825   3.310  0.0219  0.1425 -0.0402
    1DIPC   PO419910   1.800  17.249   3.485 -0.3221 -0.1217  0.1247
    1DIPC   GL119911   1.860  17.083   3.961  0.0197  0.0891  0.2707
    1DIPC   GL219912   1.955  16.812   3.800  0.2152  0.0999 -0.0710
    1DIPC   C1A19913   2.176  17.107   4.349 -0.3989 -0.1595  0.1519
    1DIPC   D2A19914   2.533  17.177   4.717  0.0775 -0.1217 -0.2838
    1DIPC   D3A19915   2.791  17.145   4.445  0.1052  0.0655 -0.0784
    1DIPC   C4A19916   2.872  17.414   4.172  0.0360  0.2163 -0.0472
    1DIPC   C1B19917   2.076  16.652   4.177  0.0844 -0.2079  0.3370
    1DIPC   D2B19918   1.993  16.560   4.609  0.0616  0.1825 -0.0581
    1DIPC   D3B19919   2.301  16.751   4.952 -0.2007 -0.3127  0.3436
    1DIPC   C4B19920   2.268  17.029   5.307  0.3745  0.0589  0.0630
    1DIPC   NC319921  14.844  23.275   3.289 -0.1398  0.0083 -0.2055
    1DIPC   PO419922  14.431  23.433   3.278 -0.0450  0.1559  0.0563
    1DIPC   GL119923  14.382  23.371   3.664  0.4368 -0.1112  0.1300
    1DIPC   GL219924  14.362  23.558   3.844  0.0938 -0.0083 -0.0550
    1DIPC   C1A19925  14.256  23.102   4.004  0.1720  0.0199 -0.1747
    1DIPC   D2A19926  13.854  23.177   4.273 -0.2801 -0.0645  0.2085
    1DIPC   D3A19927  14.065  23.068   4.689 -0.1509  0.0306  0.1448
    1DIPC   C4A19928  13.836  23.269   5.017  0.2058  0.0760 -0.0418
    1DIPC   C1B19929  14.683  23.458   4.187  0.3257 -0.2759  0.0071
    1DIPC   D2B19930  15.103  23.321   4.297 -0.2341  0.0553  0.0734
    1DIPC   D3B19931  15.103  22.956   4.520  0.3358  0.0938  0.1106
    1DIPC   C4B19932  14.759  22.644   4.466 -0.0675  0.1830  0.2418
    1DIPC   NC319933  10.594  11.401   1.806  0.1290  0.2304 -0.1652
    1DIPC   PO419934  10.517  10.943   1.845  0.3261  0.1574  0.0490
    1DIPC   GL119935  10.391  11.152   2.306 -0.3651 -0.2940 -0.0799
    1DIPC   GL219936  10.169  10.889   2.508 -0.2898  0.0129  0.2096
    1DIPC   C1A19937  10.568  11.068   2.754 -0.1447  0.0238 -0.0002
    1DIPC   D2A19938  10.979  11.070   2.838 -0.0540  0.0525  0.1859
    1DIPC   D3A19939  11.123  11.151   3.253 -0.0922 -0.0429 -0.2585
    1DIPC   C4A19940  11.071  11.588   3.406 -0.0120 -0.0494 -0.1397
    1DIPC   C1B19941   9.752  10.997   2.734  0.0762  0.0984  0.4293
    1DIPC   D2B19942   9.316  11.057   2.863  0.1508  0.0754  0.1420
    1DIPC   D3B19943   9.207  11.451   3.102 -0.0604  0.0804  0.1613
    1DIPC   C4B19944   9.150  11.607   3.571 -0.2042 -0.3002  0.0179
    1DIPC   NC319945  23.094   7.389   2.144  0.1986 -0.3278  0.0231
    1DIPC   PO419946  23.318   7.298   2.472  0.1519  0.1168  0.3936
    1DIPC   GL119947  23.149   7.312   2.867 -0.1618  0.2740  0.0611
    1DIPC   GL219948  22.843   7.410   2.905 -0.1721  0.1858  0.0013
    1DIPC   C1A19949  23.142   7.276   3.365 -0.3182 -0.0736 -0.1449
    1DIPC   D2A19950  22.725   7.340   3.616 -0.2384  0.1266  0.0104
    1DIPC   D3A19951  22.617   7.765   3.650  0.0177  0.1457 -0.3016
    1DIPC   C4A19952  22.591   7.983   4.098  0.1618  0.1333 -0.3081
    1DIPC   C1B19953  22.820   7.782   3.234 -0.0201 -0.0954  0.3523
    1DIPC   D2B19954  22.861   8.223   3.370  0.0144  0.0623  0.2195
    1DIPC   D3B19955  22.500   8.262   3.734 -0.2117  0.2267  0.0270
    1DIPC   C4B19956  22.428   8.460   4.115 -0.1662  0.0492  0.2265
    1DIPC   NC319957  26.651  21.773   3.021 -0.0525  0.1474 -0.0768
    1DIPC   PO419958  26.768  21.716   3.413 -0.3161  0.1595  0.0479
    1DIPC   GL119959  26.693  21.662   3.699  0.4028 -0.0342 -0.1655
    1DIPC   GL219960  26.953  21.962   3.860 -0.0101 -0.1226 -0.3428
    1DIPC   C1A19961  26.309  21.818   4.080 -0.0163 -0.1030 -0.0305
    1DIPC   D2A19962  26.239  22.144   4.451 -0.1357 -0.1238 -0.0302
    1DIPC   D3A19963  26.565  21.851   4.706  0.2092  0.2273 -0.1269
    1DIPC   C4A19964  26.979  21.650   4.665 -0.0620  0.1281 -0.2040
    1DIPC   C1B19965  26.789  21.705   4.222 -0.1406 -0.2018 -0.1686
    1DIPC   D2B19966  26.653  21.346   4.374  0.3146  0.0118  0.0211
    1DIPC   D3B19967  26.253  21.435   4.426  0.0152  0.2238  0.1214
    1DIPC   C4B19968  26.038  21.171   4.722  0.0183  0.0252  0.1092
    1DIPC   NC319969  25.020  21.767   3.309  0.0816  0.0243 -0.1071
    1DIPC   PO419970  24.988  21.364   3.262  0.0059 -0.1147  0.4120
    1DIPC   GL119971  24.860  21.478   3.704 -0.0544  0.0044 -0.2847
    1DIPC   GL219972  24.613  21.440   3.898  0.1916 -0.2483 -0.0643
    1DIPC   C1A19973  25.067  21.559   4.092 -0.0507 -0.1641  0.0593
    1DIPC   D2A19974  25.234  21.621   4.384  0.2205  0.0565 -0.0017
    1DIPC   D3A19975  25.431  21.991   4.354  0.2912 -0.0986 -0.3096
    1DIPC   C4A19976  25.863  22.026   4.146  0.1065  0.0361  0.1881
    1DIPC   C1B19977  24.117  21.445   3.843  0.0580  0.0189 -0.1037
    1DIPC   D2B19978  23.790  21.224   3.794 -0.0397 -0.1244  0.2791
    1DIPC   D3B19979  24.020  20.901   3.577 -0.3008  0.5010  0.0503
    1DIPC   C4B19980  23.998  20.488   3.742  0.1806 -0.1451  0.0474
    1DIPC   NC319981  13.789  10.237   1.192  0.2331  0.2559 -0.2372
    1DIPC   PO419982  13.629  10.143   1.561  0.1673 -0.2566 -0.4346
    1DIPC   GL119983  13.661  10.125   2.049 -0.4329  0.3353  0.0778
    1DIPC   GL219984  13.467   9.924   2.190 -0.3568 -0.1765 -0.1102
    1DIPC   C1A19985  13.942  10.044   2.449 -0.1037  0.2993  0.1624
    1DIPC   D2A19986  14.430  10.080   2.525 -0.1109 -0.1395 -0.2991
    1DIPC   D3A19987  14.111  10.290   2.808 -0.2817 -0.2595  0.2548
    1DIPC   C4A19988  14.078  10.202   3.227 -0.2322  0.1888 -0.2648
    1DIPC   C1B19989  13.412   9.685   2.546 -0.1361  0.0512  0.1404
    1DIPC   D2B19990  13.293   9.617   3.038  0.1409  0.0844 -0.1821
    1DIPC   D3B19991  12.883   9.801   3.034  0.0079 -0.1753  0.1446
    1DIPC   C4B19992  12.725  10.130   3.315 -0.0372  0.0549  0.0756
    1DIPC   NC319993   5.272  24.138   3.949  0.0666 -0.2047  0.0584
    1DIPC   PO419994   5.538  23.847   3.969 -0.1230  0.0619  0.2059
    1DIPC   GL119995   5.498  24.081   4.438  0.0616 -0.0282  0.0853
    1DIPC   GL219996   5.238  24.043   4.679 -0.1314 -0.1803 -0.4009
    1DIPC   C1A19997   5.493  24.497   4.546  0.0547 -0.1698  0.0069
    1DIPC   D2A19998   5.390  24.917   4.355  0.0059 -0.0660 -0.0263
    1DIPC   D3A19999   5.496  24.937   4.796 -0.0429 -0.2407 -0.3120
    1DIPC   C4A20000   5.497  24.763   5.207  0.1536 -0.2039 -0.1008
    1DIPC   C1B20001   5.438  24.277   4.987 -0.2930 -0.0738 -0.1757
    1DIPC   D2B20002   5.391  24.371   5.449  0.2279 -0.0869 -0.3330
    1DIPC   D3B20003   5.280  24.818   5.677 -0.1926  0.0418 -0.2362
    1DIPC   C4B20004   5.669  25.007   5.858  0.0381 -0.2693 -0.1437
    1DIPC   NC320005  26.776  11.988   3.398 -0.1344  0.0123 -0.0683
    1DIPC   PO420006  26.582  11.626   3.400  0.0777  0.0665  0.3222
    1DIPC   GL120007  26.652  11.555   3.901  0.1130  0.3007  0.2798
    1DIPC   GL220008  26.602  11.271   4.023  0.1859  0.1987 -0.1101
    1DIPC   C1A20009  26.914  11.529   4.287 -0.1275 -0.1356  0.0616
    1DIPC   D2A20010  27.047  11.230   4.584 -0.1685  0.2864 -0.0844
    1DIPC   D3A20011  26.742  11.617   4.786  0.0617  0.0441  0.0232
    1DIPC   C4A20012  26.993  11.891   5.075 -0.0020  0.3118 -0.0726
    1DIPC   C1B20013  26.595  11.170   4.393 -0.0696  0.1377 -0.0115
    1DIPC   D2B20014  26.610  10.957   4.765  0.0364 -0.0638 -0.2387
    1DIPC   D3B20015  26.446  10.609   4.927  0.1625 -0.0828  0.3343
    1DIPC   C4B20016  26.062  10.389   4.960  0.1406 -0.0470 -0.0229
    1DIPC   NC320017  17.824  21.345   2.501  0.1896 -0.0930 -0.1376
    1DIPC   PO420018  17.698  20.762   2.536 -0.1091 -0.1042  0.5691
    1DIPC   GL120019  17.637  20.840   3.021  0.0741 -0.3913 -0.2345
    1DIPC   GL220020  17.747  21.106   3.152 -0.1727  0.0443  0.2226
    1DIPC   C1A20021  17.855  20.618   3.335  0.2499 -0.1607 -0.0755
    1DIPC   D2A20022  18.367  20.536   3.407  0.1059  0.2387  0.0766
    1DIPC   D3A20023  18.509  20.420   3.839 -0.3877 -0.2762  0.0928
    1DIPC   C4A20024  18.473  20.572   4.216  0.1239 -0.0774  0.0162
    1DIPC   C1B20025  17.810  21.058   3.577 -0.0550  0.1909 -0.1750
    1DIPC   D2B20026  17.623  20.906   3.950  0.0108 -0.4109 -0.0874
    1DIPC   D3B20027  17.533  20.933   4.381  0.0806  0.1216  0.2356
    1DIPC   C4B20028  17.269  20.786   4.730 -0.0823  0.1643  0.0411
    1DIPC   NC320029  11.862   0.128   2.967 -0.0608  0.0721  0.0226
    1DIPC   PO420030  11.483   0.325   3.045  0.0014  0.1292  0.2932
    1DIPC   GL120031  11.712   0.315   3.466  0.1376 -0.1240  0.2112
    1DIPC   GL220032  11.965   0.143   3.491 -0.2321  0.0158  0.3341
    1DIPC   C1A20033  11.825   0.431   3.816 -0.0756 -0.0176 -0.0442
    1DIPC   D2A20034  11.896   0.585   4.235 -0.0052 -0.0996  0.2308
    1DIPC   D3A20035  12.212   0.441   4.535 -0.0667  0.1446 -0.0012
    1DIPC   C4A20036  12.068   0.503   4.995  0.3022 -0.0861  0.1429
    1DIPC   C1B20037  12.393   0.082   3.684  0.1015  0.3003 -0.1973
    1DIPC   D2B20038  12.641  -0.255   3.782 -0.1239  0.0468  0.1579
    1DIPC   D3B20039  12.583  -0.729   3.643 -0.1070 -0.0991 -0.3243
    1DIPC   C4B20040  12.296  -0.986   3.962  0.1066  0.1187 -0.2108
    1DIPC   NC320041  21.988  19.371   2.240 -0.0684  0.0493  0.0526
    1DIPC   PO420042  21.725  19.411   2.634  0.0245  0.1393 -0.0440
    1DIPC   GL120043  21.869  19.277   3.111 -0.0135  0.1646  0.1572
    1DIPC   GL220044  22.201  19.329   3.263 -0.0756  0.5120  0.2545
    1DIPC   C1A20045  21.650  19.293   3.520  0.0237  0.4173  0.1820
    1DIPC   D2A20046  21.358  19.288   3.878 -0.2568 -0.0155 -0.1500
    1DIPC   D3A20047  21.655  19.709   4.036  0.1946 -0.0883 -0.0605
    1DIPC   C4A20048  21.833  19.641   4.395  0.0571 -0.0860  0.0045
    1DIPC   C1B20049  22.178  19.129   3.670  0.0045  0.0146  0.2153
    1DIPC   D2B20050  21.982  19.241   4.050 -0.3433  0.0364  0.1300
    1DIPC   D3B20051  21.947  19.176   4.496  0.1008  0.0059  0.0865
    1DIPC   C4B20052  22.248  18.875   4.728  0.3162  0.2698  0.0541
    1DIPC   NC320053   1.066   2.574   3.388  0.1337  0.2064 -0.0334
    1DIPC   PO420054   0.888   2.788   3.803  0.0430  0.0159 -0.3050
    1DIPC   GL120055   1.194   2.853   4.086 -0.2717  0.1930 -0.0725
    1DIPC   GL220056   1.302   3.189   4.257 -0.3507  0.3671 -0.0992
    1DIPC   C1A20057   1.280   2.811   4.561 -0.0782  0.2545 -0.0247
    1DIPC   D2A20058   0.924   2.713   4.854  0.1932 -0.3749 -0.0238
    1DIPC   D3A20059   1.051   2.988   5.201  0.1746  0.1410  0.0480
    1DIPC   C4A20060   0.752   3.129   5.595  0.1163 -0.0588  0.1253
    1DIPC   C1B20061   1.738   3.092   4.531  0.1570 -0.2172 -0.1943
    1DIPC   D2B20062   2.106   3.166   4.813 -0.0478 -0.2360  0.1082
    1DIPC   D3B20063   1.838   3.065   5.133 -0.0770 -0.1610 -0.1242
    1DIPC   C4B20064   1.932   2.980   5.644  0.0187 -0.0436  0.1369
    1DIPC   NC320065  15.204  26.934   2.084  0.1647 -0.1825 -0.1088
    1DIPC   PO420066  15.298  26.774   2.573  0.2793  0.0271 -0.0443
    1DIPC   GL120067  15.356  26.851   3.022  0.1746 -0.3042 -0.1242
    1DIPC   GL220068  15.674  26.916   3.130 -0.2491  0.2356  0.1423
    1DIPC   C1A20069  15.309  26.654   3.411  0.2942 -0.0125 -0.0672
    1DIPC   D2A20070  15.107  26.351   3.650  0.1578  0.1012  0.0606
    1DIPC   D3A20071  14.992  26.347   4.070 -0.1395  0.0494  0.2532
    1DIPC   C4A20072  15.266  26.152   4.421  0.1136  0.0946  0.0062
    1DIPC   C1B20073  16.020  26.860   3.506 -0.0186  0.2907 -0.0004
    1DIPC   D2B20074  16.067  27.262   3.661 -0.0261  0.2689 -0.0642
    1DIPC   D3B20075  15.870  27.013   4.007  0.2669  0.2178 -0.3758
    1DIPC   C4B20076  15.505  27.064   4.222  0.0721 -0.1887  0.0850
    1DIPC   NC320077  22.276   1.894   2.858 -0.2531 -0.1160  0.2027
    1DIPC   PO420078  22.378   2.249   3.040  0.0718 -0.0570 -0.4368
    1DIPC   GL120079  22.257   2.197   3.418 -0.0007 -0.0770 -0.2075
    1DIPC   GL220080  22.400   2.135   3.696  0.2585 -0.2623 -0.0127
    1DIPC   C1A20081  21.956   1.990   3.698 -0.2047 -0.0846 -0.0296
    1DIPC   D2A20082  21.799   1.795   4.217 -0.0484  0.0090 -0.0761
    1DIPC   D3A20083  21.565   1.873   4.558  0.0678 -0.1074 -0.2561
    1DIPC   C4A20084  21.784   1.892   4.915 -0.3081  0.0860  0.1334
    1DIPC   C1B20085  22.607   2.263   4.107 -0.1969 -0.2295  0.3299
    1DIPC   D2B20086  22.443   2.314   4.528  0.2629  0.0369 -0.2306
    1DIPC   D3B20087  21.986   2.242   4.548  0.0348 -0.0166 -0.3238
    1DIPC   C4B20088  21.612   2.279   4.296 -0.1472 -0.0946  0.1433
    1DIPC   NC320089   0.047  17.619   4.192 -0.1976 -0.1418 -0.1306
    1DIPC   PO420090   0.067  17.202   4.194 -0.0264  0.1765  0.0677
    1DIPC   GL120091  -0.044  16.982   4.516  0.0480  0.0333  0.2895
    1DIPC   GL220092  -0.141  16.612   4.529  0.2009 -0.0653 -0.3866
    1DIPC   C1A20093  -0.361  17.079   4.790 -0.3386  0.0471 -0.2377
    1DIPC   D2A20094  -0.573  16.979   5.240  0.0119 -0.1397 -0.2006
    1DIPC   D3A20095  -0.972  16.800   5.082  0.2703 -0.2069  0.1507
    1DIPC   C4A20096  -1.143  16.675   4.744 -0.4522  0.3381 -0.1283
    1DIPC   C1B20097  -0.083  16.732   5.023  0.1850  0.2012  0.1360
    1DIPC   D2B20098  -0.083  16.992   5.462 -0.0879 -0.2464 -0.2086
    1DIPC   D3B20099  -0.121  16.987   5.993 -0.1628 -0.2728  0.0302
    1DIPC   C4B20100   0.114  17.380   6.194  0.1249  0.3829  0.1081
    1DIPC   NC320101  16.684  26.017   2.781 -0.0122  0.2932  0.0837
    1DIPC   PO420102  16.734  25.540   2.704  0.2792  0.0006 -0.0373
    1DIPC   GL120103  16.684  25.407   3.124  0.3274  0.1894  0.0555
    1DIPC   GL220104  16.407  25.301   3.191 -0.0032  0.0341  0.1172
    1DIPC   C1A20105  16.732  25.545   3.595 -0.1053  0.0211  0.1770
    1DIPC   D2A20106  16.670  25.793   3.976  0.0801 -0.0130 -0.1069
    1DIPC   D3A20107  16.356  25.923   3.831 -0.0841 -0.2520  0.1876
    1DIPC   C4A20108  16.025  25.983   3.531  0.0431  0.1692 -0.0135
    1DIPC   C1B20109  16.274  25.451   3.599  0.2115  0.2735 -0.0566
    1DIPC   D2B20110  16.198  25.359   4.054  0.0267  0.4073 -0.0315
    1DIPC   D3B20111  16.502  25.438   4.316  0.0802 -0.2452 -0.1587
    1DIPC   C4B20112  16.862  25.734   4.438  0.0439  0.0148  0.0182
    1DIPC   NC320113   2.203  12.598   3.447  0.0282 -0.0274 -0.0603
    1DIPC   PO420114   1.869  12.591   3.737 -0.1336  0.1060  0.1944
    1DIPC   GL120115   1.623  12.882   4.009 -0.1357  0.1355  0.0900
    1DIPC   GL220116   1.880  12.936   4.141  0.1005 -0.1969  0.3061
    1DIPC   C1A20117   1.265  12.825   4.211  0.3327  0.1899  0.2098
    1DIPC   D2A20118   1.116  12.933   4.563 -0.2646  0.1056 -0.0691
    1DIPC   D3A20119   0.960  12.820   4.944 -0.0601 -0.2870  0.1132
    1DIPC   C4A20120   1.111  12.857   5.284  0.1194  0.0472  0.1607
    1DIPC   C1B20121   1.998  13.013   4.598  0.0144  0.0593  0.2881
    1DIPC   D2B20122   1.834  13.331   4.887 -0.0434  0.0118 -0.3340
    1DIPC   D3B20123   1.601  13.354   4.581 -0.1324 -0.0216 -0.3558
    1DIPC   C4B20124   1.595  13.175   4.418  0.1008 -0.0411  0.0031
    1DIPC   NC320125  28.397  21.560   3.068  0.0744  0.0576 -0.3256
    1DIPC   PO420126  28.627  21.684   3.539 -0.0777  0.0122  0.3941
    1DIPC   GL120127  28.748  21.554   3.950 -0.2362 -0.0582  0.0299
    1DIPC   GL220128  28.881  21.250   4.113 -0.1182  0.2791 -0.2823
    1DIPC   C1A20129  28.655  21.604   4.360  0.0100  0.0566  0.0448
    1DIPC   D2A20130  28.511  21.474   4.781 -0.0935  0.0882 -0.1791
    1DIPC   D3A20131  28.713  21.620   5.194 -0.1996  0.0493 -0.0716
    1DIPC   C4A20132  29.028  21.730   5.499 -0.0319  0.0376 -0.0275
    1DIPC   C1B20133  28.779  21.063   4.535  0.2345  0.1389  0.1549
    1DIPC   D2B20134  29.126  20.795   4.842  0.0184  0.0441  0.2938
    1DIPC   D3B20135  29.075  20.835   5.281 -0.0561  0.2842  0.0416
    1DIPC   C4B20136  29.400  21.155   5.440 -0.1115  0.0184 -0.3261
    1DIPC   NC320137  27.499  27.034   3.994 -0.0066  0.1186  0.1392
    1DIPC   PO420138  27.950  27.107   4.034 -0.2296 -0.1470  0.0538
    1DIPC   GL120139  28.066  27.215   4.492 -0.1929 -0.1207  0.1872
    1DIPC   GL220140  28.291  26.951   4.600  0.0801  0.1866 -0.0741
    1DIPC   C1A20141  28.110  27.236   5.019  0.1859  0.0834  0.2632
    1DIPC   D2A20142  28.221  27.249   5.527  0.0287 -0.0378 -0.2337
    1DIPC   D3A20143  27.899  27.202   5.842  0.3108 -0.1121  0.0741
    1DIPC   C4A20144  27.477  27.325   5.795 -0.0018 -0.0931  0.0656
    1DIPC   C1B20145  28.378  26.557   4.876  0.3344 -0.2396  0.0711
    1DIPC   D2B20146  28.540  26.415   5.238 -0.0742  0.0794 -0.5250
    1DIPC   D3B20147  28.294  26.752   5.300 -0.0983  0.1830 -0.0055
    1DIPC   C4B20148  27.905  26.679   5.514  0.1063 -0.2193  0.1564
    1DIPC   NC320149   5.926   3.376   3.939 -0.2025 -0.3229 -0.1679
    1DIPC   PO420150   6.257   3.580   3.852  0.2171 -0.0807 -0.2404
    1DIPC   GL120151   6.538   3.845   4.276  0.0680 -0.0574 -0.1111
    1DIPC   GL220152   6.272   4.118   4.478  0.0071  0.0432  0.2262
    1DIPC   C1A20153   6.604   3.909   4.792 -0.0250  0.2137  0.3101
    1DIPC   D2A20154   6.843   4.091   5.285  0.1668  0.0727  0.3890
    1DIPC   D3A20155   7.138   4.094   5.642 -0.1306 -0.0196  0.2428
    1DIPC   C4A20156   7.628   3.942   5.635 -0.2540 -0.1017  0.1842
    1DIPC   C1B20157   6.258   4.478   4.774 -0.0539  0.0941  0.1717
    1DIPC   D2B20158   6.332   4.247   5.162 -0.1319  0.0770 -0.1496
    1DIPC   D3B20159   6.001   4.244   5.372  0.1783 -0.0882  0.1501
    1DIPC   C4B20160   5.605   4.245   5.108  0.0904  0.0566 -0.1255
    1DIPC   NC320161   3.544   0.565   4.409 -0.2219  0.2363  0.3044
    1DIPC   PO420162   3.498   0.167   4.392 -0.0579 -0.1784 -0.0811
    1DIPC   GL120163   3.102   0.072   4.646  0.3190  0.1306  0.2794
    1DIPC   GL220164   3.187   0.409   4.701  0.2505 -0.0914 -0.0394
    1DIPC   C1A20165   2.790   0.225   4.927  0.1289 -0.1916 -0.2485
    1DIPC   D2A20166   2.739   0.487   5.284  0.0920 -0.0500 -0.2250
    1DIPC   D3A20167   2.606   0.391   5.685  0.1158  0.0873  0.0918
    1DIPC   C4A20168   2.805   0.202   6.072  0.1841 -0.3331 -0.1969
    1DIPC   C1B20169   3.228   0.236   5.143 -0.0537 -0.2019 -0.2157
    1DIPC   D2B20170   3.071   0.263   5.617 -0.0295  0.0581 -0.1271
    1DIPC   D3B20171   3.163  -0.081   5.856 -0.1355 -0.1592  0.1522
    1DIPC   C4B20172   3.471   0.088   6.259 -0.2427  0.1263  0.0755
    1DIPC   NC320173  17.783  18.864   2.237 -0.0268 -0.0882  0.1112
    1DIPC   PO420174  18.061  18.939   2.537  0.1923 -0.3921  0.0991
    1DIPC   GL120175  18.499  19.149   2.669  0.0590  0.0012 -0.2421
    1DIPC   GL220176  18.495  19.116   2.984  0.0445  0.0713  0.0405
    1DIPC   C1A20177  18.916  19.321   3.029 -0.1244 -0.0255  0.2418
    1DIPC   D2A20178  18.866  19.270   3.515 -0.1304 -0.0460 -0.0078
    1DIPC   D3A20179  18.804  18.912   3.335  0.0792 -0.2060 -0.0400
    1DIPC   C4A20180  18.414  18.641   3.444 -0.0024 -0.4504 -0.1899
    1DIPC   C1B20181  18.323  19.126   3.461 -0.1084  0.0489  0.2295
    1DIPC   D2B20182  18.563  18.913   3.825 -0.2316  0.3475  0.2253
    1DIPC   D3B20183  18.194  18.890   4.089  0.2347 -0.0727 -0.2604
    1DIPC   C4B20184  17.744  18.793   3.912 -0.3406  0.0181  0.2141
    1DIPC   NC320185  11.694   9.637   1.949 -0.0734 -0.2529  0.2656
    1DIPC   PO420186  12.080   9.424   2.141 -0.1252 -0.2563  0.0368
    1DIPC   GL120187  12.256   9.605   2.562  0.3324 -0.1588 -0.1006
    1DIPC   GL220188  12.103   9.766   2.870  0.0367  0.0203 -0.0202
    1DIPC   C1A20189  12.521   9.377   2.919  0.3229 -0.0984  0.1395
    1DIPC   D2A20190  12.629   8.966   3.105  0.2617  0.1097  0.0603
    1DIPC   D3A20191  12.386   8.954   3.382  0.1735  0.0717 -0.0124
    1DIPC   C4A20192  12.345   8.861   3.805 -0.0135  0.2492 -0.0083
    1DIPC   C1B20193  12.375   9.764   3.221  0.2102 -0.2286 -0.0377
    1DIPC   D2B20194  12.606   9.783   3.663 -0.3630  0.2326 -0.0782
    1DIPC   D3B20195  12.618   9.971   4.014 -0.0274  0.1691  0.1659
    1DIPC   C4B20196  12.339   9.979   4.415  0.0354 -0.0065  0.1248
    1DIPC   NC320197  11.512  10.428   2.340  0.1161  0.4036  0.2110
    1DIPC   PO420198  11.376   9.951   2.194  0.2472  0.0868  0.0121
    1DIPC   GL120199  11.515  10.087   2.657 -0.0368 -0.2555  0.0353
    1DIPC   GL220200  11.357  10.241   2.836 -0.3291 -0.0683  0.2895
    1DIPC   C1A20201  11.726   9.970   3.075  0.0784  0.2462  0.3186
    1DIPC   D2A20202  11.714  10.018   3.457 -0.0143  0.0661 -0.0408
    1DIPC   D3A20203  11.908   9.666   3.432  0.0107 -0.0622  0.2098
    1DIPC   C4A20204  12.270   9.402   3.510  0.2165  0.0521 -0.0363
    1DIPC   C1B20205  11.334  10.240   3.236 -0.0374  0.0443  0.1182
    1DIPC   D2B20206  11.385  10.278   3.640 -0.3014  0.2689  0.0425
    1DIPC   D3B20207  11.695  10.274   3.882 -0.2118  0.2095 -0.0019
    1DIPC   C4B20208  11.767  10.533   4.236 -0.2722 -0.1647  0.0331
    1DIPC   NC320209   8.301   9.302   2.435 -0.2059 -0.1281 -0.3460
    1DIPC   PO420210   8.335   8.838   2.657  0.3800  0.2021  0.0729
    1DIPC   GL120211   8.240   9.026   3.014 -0.1828  0.0856 -0.1003
    1DIPC   GL220212   7.978   8.921   3.169  0.2111  0.0881 -0.0197
    1DIPC   C1A20213   8.431   9.218   3.226 -0.2167  0.2224  0.0961
    1DIPC   D2A20214   8.550   9.387   3.678  0.0925 -0.0739 -0.2763
    1DIPC   D3A20215   8.824   9.785   3.748  0.1284 -0.1203  0.1470
    1DIPC   C4A20216   8.829   9.848   4.223 -0.0339 -0.0061 -0.2023
    1DIPC   C1B20217   7.937   8.777   3.707 -0.2151  0.0594  0.4307
    1DIPC   D2B20218   7.785   8.524   4.138 -0.1645  0.0685  0.5916
    1DIPC   D3B20219   7.919   8.777   4.528 -0.1886  0.0826  0.0405
    1DIPC   C4B20220   7.519   8.825   4.795  0.1511 -0.1619  0.2387
    1DIPC   NC320221   9.358   9.585   2.017 -0.1280 -0.0721  0.3644
    1DIPC   PO420222   9.000   9.865   2.210 -0.0611  0.1853  0.1206
    1DIPC   GL120223   9.258   9.830   2.652  0.1593  0.1768 -0.3115
    1DIPC   GL220224   9.459   9.988   2.698 -0.1529 -0.1511 -0.1921
    1DIPC   C1A20225   9.337   9.716   3.115  0.0951 -0.0540  0.0806
    1DIPC   D2A20226   9.375   9.807   3.562  0.4208  0.2067 -0.0110
    1DIPC   D3A20227   9.473  10.176   3.364  0.1465  0.0862  0.1097
    1DIPC   C4A20228   9.932  10.225   3.294 -0.0481  0.1204 -0.1467
    1DIPC   C1B20229   9.215  10.281   2.930  0.0673 -0.0100 -0.1294
    1DIPC   D2B20230   9.101  10.536   3.342  0.0620  0.1271  0.0472
    1DIPC   D3B20231   9.447  10.712   3.152  0.1022  0.2983 -0.1874
    1DIPC   C4B20232   9.544  11.143   3.346 -0.1994  0.0123 -0.1086
    1DIPC   NC320233  18.631  21.297   1.966 -0.0955 -0.3210  0.4426
    1DIPC   PO420234  18.421  21.115   2.439  0.2261  0.5102 -0.0114
    1DIPC   GL120235  18.575  21.237   2.817  0.1479  0.1380 -0.3789
    1DIPC   GL220236  18.879  21.247   2.824  0.2470 -0.0026 -0.0189
    1DIPC   C1A20237  18.303  21.077   3.253  0.0331 -0.1965  0.4854
    1DIPC   D2A20238  18.260  20.902   3.745 -0.1381  0.1766  0.1672
    1DIPC   D3A20239  17.983  20.533   3.893  0.4427 -0.2891  0.1174
    1DIPC   C4A20240  17.647  20.442   3.753  0.0781  0.0507 -0.6217
    1DIPC   C1B20241  18.833  21.122   3.302  0.1287 -0.1472 -0.1688
    1DIPC   D2B20242  18.739  20.829   3.647 -0.0143 -0.2873  0.0448
    1DIPC   D3B20243  18.991  20.596   4.021  0.2761 -0.1120 -0.1737
    1DIPC   C4B20244  19.450  20.585   4.127  0.0680 -0.2343  0.0422
    1DIPC   NC320245  20.455   8.195   1.490  0.1459 -0.0339 -0.0662
    1DIPC   PO420246  20.185   8.250   1.751 -0.0219  0.1662 -0.2863
    1DIPC   GL120247  20.270   8.158   2.126 -0.0028  0.1181 -0.1163
    1DIPC   GL220248  20.435   7.972   2.247 -0.3047  0.0588 -0.0666
    1DIPC   C1A20249  20.032   8.183   2.510  0.0365  0.6084  0.3727
    1DIPC   D2A20250  19.812   7.902   2.729  0.0159  0.1868 -0.1475
    1DIPC   D3A20251  19.472   7.640   2.636  0.1375  0.2463 -0.1824
    1DIPC   C4A20252  19.584   7.175   2.490 -0.0253 -0.0313  0.2181
    1DIPC   C1B20253  20.444   7.919   2.683  0.2520  0.2068 -0.0570
    1DIPC   D2B20254  20.661   8.117   2.984  0.1075 -0.1135  0.0554
    1DIPC   D3B20255  20.494   8.100   3.415 -0.1293  0.1316  0.1412
    1DIPC   C4B20256  20.459   7.709   3.672 -0.0150 -0.2143  0.1773
    1DIPC   NC320257  22.010  18.492   2.360 -0.3793 -0.0830  0.2320
    1DIPC   PO420258  22.240  18.173   2.655 -0.1211 -0.2502 -0.0920
    1DIPC   GL120259  22.248  18.157   3.133 -0.1849  0.2499  0.0274
    1DIPC   GL220260  21.953  18.198   3.231 -0.2286  0.1399 -0.0307
    1DIPC   C1A20261  22.111  17.890   3.542  0.0390  0.1256 -0.2290
    1DIPC   D2A20262  22.251  17.965   4.028  0.1329 -0.2195 -0.2958
    1DIPC   D3A20263  21.838  17.974   4.008 -0.1273 -0.3000  0.1551
    1DIPC   C4A20264  21.667  17.623   3.775 -0.0982  0.2207  0.0743
    1DIPC   C1B20265  21.904  18.345   3.684  0.0656 -0.1089  0.0467
    1DIPC   D2B20266  22.003  18.497   4.135  0.1566 -0.1860  0.1773
    1DIPC   D3B20267  22.270  18.774   4.216  0.2383  0.0791 -0.1350
    1DIPC   C4B20268  22.399  19.182   4.319  0.0378  0.2051  0.0260
    1DIPC   NC320269   4.320  14.600   2.781  0.0796  0.1399  0.2539
    1DIPC   PO420270   4.104  14.998   2.916  0.2752 -0.0691 -0.1965
    1DIPC   GL120271   4.330  15.179   3.227 -0.0286  0.1792 -0.0166
    1DIPC   GL220272   4.682  15.061   3.197 -0.0663  0.2472 -0.3634
    1DIPC   C1A20273   4.400  15.328   3.543  0.0063  0.0724 -0.0153
    1DIPC   D2A20274   4.698  15.256   3.910 -0.4145 -0.0845 -0.1076
    1DIPC   D3A20275   4.774  15.310   4.338 -0.0819  0.5100  0.1434
    1DIPC   C4A20276   5.160  15.262   4.381 -0.0817  0.0658  0.2532
    1DIPC   C1B20277   4.954  15.205   3.495 -0.5018  0.2611  0.1930
    1DIPC   D2B20278   5.384  15.296   3.246 -0.0064  0.1366 -0.2407
    1DIPC   D3B20279   5.619  15.583   3.461  0.3956 -0.0249  0.3374
    1DIPC   C4B20280   5.941  15.623   3.821 -0.1604 -0.1189  0.0917
    1DIPC   NC320281  23.023  14.824   2.578 -0.1000 -0.0337 -0.2073
    1DIPC   PO420282  23.187  15.168   2.854  0.1941 -0.2629 -0.0215
    1DIPC   GL120283  23.318  15.194   3.301  0.2846  0.0886 -0.0964
    1DIPC   GL220284  23.078  15.386   3.342  0.0539 -0.1201  0.0038
    1DIPC   C1A20285  22.985  14.982   3.788  0.0307 -0.2924  0.1133
    1DIPC   D2A20286  22.917  14.884   4.178 -0.1601 -0.1319 -0.0884
    1DIPC   D3A20287  22.694  15.120   4.599 -0.3118  0.1430  0.2779
    1DIPC   C4A20288  22.595  15.452   4.432 -0.0493  0.0992  0.0252
    1DIPC   C1B20289  22.701  15.389   3.659  0.0296  0.2008  0.1326
    1DIPC   D2B20290  22.397  15.162   3.905  0.0087  0.0631  0.2727
    1DIPC   D3B20291  22.318  14.880   4.292 -0.1595 -0.4554  0.2579
    1DIPC   C4B20292  22.380  14.388   4.296 -0.1292  0.0575  0.0422
    1DIPC   NC320293  24.279  15.732   3.093 -0.0776  0.0030  0.1436
    1DIPC   PO420294  23.925  15.993   3.099 -0.0013  0.0838  0.2960
    1DIPC   GL120295  23.660  15.913   3.447 -0.1754 -0.1332 -0.1461
    1DIPC   GL220296  23.346  15.948   3.402  0.2155  0.2623 -0.2553
    1DIPC   C1A20297  23.500  15.958   3.875  0.0025 -0.1617 -0.3185
    1DIPC   D2A20298  23.405  15.729   4.215  0.1330 -0.0672  0.1763
    1DIPC   D3A20299  23.693  16.105   4.300  0.0751  0.0229  0.0399
    1DIPC   C4A20300  24.034  16.263   4.118  0.2001  0.1837  0.3240
    1DIPC   C1B20301  23.049  15.784   3.768 -0.1090  0.0843  0.0821
    1DIPC   D2B20302  22.960  15.418   4.064 -0.0957  0.1168  0.0532
    1DIPC   D3B20303  23.155  15.249   4.465 -0.1032 -0.0898  0.2656
    1DIPC   C4B20304  23.155  14.941   4.766  0.1560 -0.1188  0.0711
    1DIPC   NC320305  25.394  23.061   4.080 -0.0488  0.3166  0.0459
    1DIPC   PO420306  25.493  23.467   3.964  0.2185  0.0461  0.0023
    1DIPC   GL120307  25.357  23.653   4.396  0.0484 -0.4466 -0.0304
    1DIPC   GL220308  25.316  23.503   4.720  0.1302 -0.0961 -0.0413
    1DIPC   C1A20309  25.336  24.047   4.702  0.0492  0.1681  0.0194
    1DIPC   D2A20310  25.453  24.228   5.110  0.1487 -0.0812  0.1711
    1DIPC   D3A20311  25.327  24.191   5.547  0.1744  0.2878 -0.0974
    1DIPC   C4A20312  25.639  23.951   5.889 -0.1948  0.1630  0.0079
    1DIPC   C1B20313  24.946  23.352   4.991  0.0445  0.4567 -0.0198
    1DIPC   D2B20314  24.658  23.500   5.383  0.1941  0.3161 -0.1391
    1DIPC   D3B20315  24.976  23.311   5.585  0.1229 -0.3187  0.0949
    1DIPC   C4B20316  25.403  23.545   5.584  0.1249  0.1178 -0.0650
    1DIPC   NC320317   6.960   4.991   3.517  0.0305  0.1536  0.0242
    1DIPC   PO420318   7.363   5.357   3.348 -0.1185  0.1896 -0.0935
    1DIPC   GL120319   7.411   5.523   3.765 -0.1358 -0.0683 -0.1603
    1DIPC   GL220320   7.398   5.295   3.947  0.0603 -0.3095 -0.2758
    1DIPC   C1A20321   7.445   5.769   4.210 -0.0341  0.0267  0.1015
    1DIPC   D2A20322   7.567   6.209   4.488 -0.2973  0.0116  0.0215
    1DIPC   D3A20323   7.539   6.364   4.017  0.2443  0.0084  0.2301
    1DIPC   C4A20324   7.330   6.031   3.704 -0.1223  0.1606 -0.1139
    1DIPC   C1B20325   7.473   5.153   4.336  0.2892  0.0256  0.1905
    1DIPC   D2B20326   7.438   5.078   4.757 -0.0489 -0.1421  0.0782
    1DIPC   D3B20327   7.820   5.333   4.864 -0.1197  0.1567  0.0322
    1DIPC   C4B20328   7.987   5.449   5.289  0.1801 -0.1119 -0.0519
    1DIPC   NC320329  26.057  14.584   3.737  0.2095  0.0320 -0.1130
    1DIPC   PO420330  25.781  14.693   3.488 -0.1774  0.0636  0.0787
    1DIPC   GL120331  25.705  14.310   3.930  0.2074  0.1960  0.1130
    1DIPC   GL220332  25.363  14.415   3.968  0.0064 -0.2327  0.0293
    1DIPC   C1A20333  25.838  14.380   4.348 -0.0835 -0.1522  0.0616
    1DIPC   D2A20334  26.106  14.639   4.588  0.1839  0.2531  0.1516
    1DIPC   D3A20335  26.190  14.939   4.353  0.0297  0.1417  0.1136
    1DIPC   C4A20336  26.075  15.332   4.241  0.0597  0.1329 -0.0060
    1DIPC   C1B20337  25.362  14.238   4.363  0.4290  0.1624 -0.0020
    1DIPC   D2B20338  25.628  14.152   4.720  0.3869  0.4196  0.0154
    1DIPC   D3B20339  25.862  13.945   5.089  0.1748  0.0431  0.0244
    1DIPC   C4B20340  25.899  14.323   5.374 -0.0737 -0.1182 -0.2781
    1DIPC   NC320341   2.040  21.289   3.637 -0.0602 -0.0209 -0.1265
    1DIPC   PO420342   2.392  21.574   3.637  0.1038 -0.2465  0.0937
    1DIPC   GL120343   2.518  21.551   4.064 -0.1402 -0.0377 -0.0064
    1DIPC   GL220344   2.822  21.583   4.197 -0.0666 -0.1339  0.3406
    1DIPC   C1A20345   2.508  21.331   4.475  0.2436  0.2640 -0.1642
    1DIPC   D2A20346   2.813  21.446   4.871  0.1857 -0.1766  0.1837
    1DIPC   D3A20347   2.415  21.654   4.953 -0.0405  0.0953  0.2279
    1DIPC   C4A20348   2.460  21.963   5.292 -0.0691 -0.2181  0.0158
    1DIPC   C1B20349   2.986  21.829   4.648 -0.1546  0.0284 -0.1289
    1DIPC   D2B20350   2.870  22.154   4.984 -0.0705 -0.3677 -0.2090
    1DIPC   D3B20351   2.941  21.711   5.266 -0.1097 -0.3066 -0.0094
    1DIPC   C4B20352   3.330  21.664   5.574 -0.1255  0.0365  0.1152
    1DIPC   NC320353   9.290   7.863   3.110  0.1433 -0.1508  0.4372
    1DIPC   PO420354   9.404   7.424   3.044 -0.5488 -0.1625  0.0468
    1DIPC   GL120355   9.509   7.592   3.418 -0.1468  0.1120 -0.0690
    1DIPC   GL220356   9.230   7.699   3.643 -0.3770  0.0359 -0.0865
    1DIPC   C1A20357   9.848   7.818   3.554 -0.0441 -0.1574 -0.1674
    1DIPC   D2A20358  10.156   8.054   3.667 -0.1260 -0.2024  0.2485
    1DIPC   D3A20359  10.241   8.491   3.727 -0.0833 -0.1398  0.1479
    1DIPC   C4A20360  10.475   8.746   3.410 -0.4275 -0.0971 -0.1198
    1DIPC   C1B20361   9.346   7.664   4.153  0.3346 -0.0469 -0.4419
    1DIPC   D2B20362   9.251   7.673   4.534 -0.2705  0.1808 -0.2407
    1DIPC   D3B20363   9.048   8.074   4.459 -0.2890  0.1368  0.0824
    1DIPC   C4B20364   8.773   8.397   4.620 -0.0713 -0.2676 -0.0130
    1DIPC   NC320365  10.493  19.524   2.777 -0.2053 -0.1123  0.0750
    1DIPC   PO420366  10.289  19.768   3.100  0.1210  0.2118  0.0797
    1DIPC   GL120367  10.474  19.688   3.485 -0.3144 -0.1720 -0.0353
    1DIPC   GL220368  10.609  19.977   3.553 -0.0751 -0.2080 -0.2653
    1DIPC   C1A20369  10.355  19.490   3.833 -0.1095  0.1312 -0.0372
    1DIPC   D2A20370  10.309  19.216   4.113 -0.1852  0.1155  0.1451
    1DIPC   D3A20371   9.933  19.121   4.311 -0.0680  0.0217 -0.4650
    1DIPC   C4A20372   9.606  19.445   4.369  0.1508  0.1182  0.1479
    1DIPC   C1B20373  10.538  19.876   4.056  0.0570 -0.3380 -0.0715
    1DIPC   D2B20374  10.609  19.582   4.373  0.0667 -0.1965  0.1642
    1DIPC   D3B20375  10.400  19.349   4.634  0.0124 -0.1519  0.0986
    1DIPC   C4B20376  10.160  19.531   4.832 -0.2166 -0.1058 -0.2501
    1DIPC   NC320377   8.785  23.455   3.497 -0.2830 -0.4189 -0.2331
    1DIPC   PO420378   8.479  23.235   3.557  0.4627  0.0368 -0.1913
    1DIPC   GL120379   8.322  23.468   3.895 -0.3556  0.1400 -0.1920
    1DIPC   GL220380   8.470  23.675   4.031 -0.0478 -0.2275 -0.0153
    1DIPC   C1A20381   8.125  23.344   4.360  0.1071 -0.0195 -0.0904
    1DIPC   D2A20382   7.840  23.560   4.709 -0.1122 -0.1603  0.0789
    1DIPC   D3A20383   7.380  23.437   4.838 -0.1223 -0.0527 -0.1681
    1DIPC   C4A20384   7.163  23.882   4.806 -0.2704 -0.1546  0.0248
    1DIPC   C1B20385   8.614  23.432   4.406  0.2335 -0.0546 -0.3376
    1DIPC   D2B20386   8.439  23.023   4.532 -0.0433 -0.0780  0.0978
    1DIPC   D3B20387   8.972  23.029   4.432  0.2235 -0.2949  0.1058
    1DIPC   C4B20388   9.284  23.032   4.850 -0.2489  0.0628 -0.1656
    1DIPC   NC320389  14.151  25.732   2.843 -0.1241 -0.0795 -0.2147
    1DIPC   PO420390  14.026  26.138   2.832  0.0758 -0.0353  0.0055
    1DIPC   GL120391  13.735  26.448   3.096  0.0828 -0.2135 -0.0918
    1DIPC   GL220392  13.345  26.468   3.045  0.0673 -0.0993  0.1829
    1DIPC   C1A20393  13.621  26.870   3.060  0.3691  0.0912  0.1440
    1DIPC   D2A20394  13.194  27.031   3.129  0.0323  0.0835 -0.3389
    1DIPC   D3A20395  12.939  26.978   3.498 -0.1106 -0.1207  0.0617
    1DIPC   C4A20396  12.946  27.294   3.853 -0.2225  0.0715 -0.1003
    1DIPC   C1B20397  13.415  26.676   3.454 -0.1957  0.1371 -0.1887
    1DIPC   D2B20398  13.445  26.758   3.909 -0.1301 -0.1202  0.0352
    1DIPC   D3B20399  13.395  27.215   3.994  0.4664  0.0447 -0.0796
    1DIPC   C4B20400  13.106  27.437   4.342 -0.2119 -0.5247  0.4487
    1DIPC   NC320401  25.232   7.709   3.952  0.1644 -0.3588  0.2502
    1DIPC   PO420402  25.370   8.184   3.810  0.2365  0.0001  0.0423
    1DIPC   GL120403  25.551   8.450   4.023 -0.0629 -0.1259  0.0431
    1DIPC   GL220404  25.304   8.303   4.343  0.0173 -0.2513 -0.1579
    1DIPC   C1A20405  25.641   8.714   4.291  0.0658 -0.0041 -0.0454
    1DIPC   D2A20406  25.726   9.044   4.582  0.0711  0.1586 -0.1136
    1DIPC   D3A20407  25.377   9.284   4.676  0.3008 -0.0257  0.1854
    1DIPC   C4A20408  24.999   9.171   4.701  0.0497 -0.0647  0.2736
    1DIPC   C1B20409  25.476   8.037   4.581  0.0163  0.0413  0.0751
    1DIPC   D2B20410  25.768   7.642   4.638 -0.2458  0.2334 -0.0734
    1DIPC   D3B20411  25.489   7.395   4.536  0.0630 -0.1391  0.1245
    1DIPC   C4B20412  25.257   7.206   4.883 -0.3564 -0.1273 -0.0572
    1DIPC   NC320413  12.541  25.462   3.002  0.2019 -0.1715  0.2407
    1DIPC   PO420414  12.437  25.416   3.503 -0.0127  0.3208  0.1867
    1DIPC   GL120415  12.519  25.253   3.873 -0.1125  0.1210  0.0819
    1DIPC   GL220416  12.364  25.217   4.132 -0.2133  0.2811  0.0781
    1DIPC   C1A20417  12.788  25.024   4.150 -0.1196  0.3953 -0.1126
    1DIPC   D2A20418  13.104  24.807   4.420 -0.0139  0.1641  0.0895
    1DIPC   D3A20419  13.334  24.638   4.728  0.3826  0.1488  0.0416
    1DIPC   C4A20420  13.772  24.747   4.991  0.2684  0.0865 -0.2128
    1DIPC   C1B20421  12.574  25.238   4.551 -0.4110 -0.2330 -0.2633
    1DIPC   D2B20422  12.706  25.247   5.020 -0.0574  0.1917  0.2445
    1DIPC   D3B20423  12.286  25.140   5.001 -0.1660  0.0338 -0.0678
    1DIPC   C4B20424  12.072  24.822   5.132  0.1504  0.2550 -0.0330
    1DIPC   NC320425  13.235   7.231   2.007 -0.1475 -0.2592 -0.2293
    1DIPC   PO420426  12.806   7.310   2.145  0.0109  0.0739  0.2933
    1DIPC   GL120427  12.788   7.218   2.499  0.1081  0.2723  0.1041
    1DIPC   GL220428  12.929   7.373   2.673 -0.0217 -0.2157  0.0619
    1DIPC   C1A20429  12.708   6.854   2.643  0.0238  0.1782 -0.0599
    1DIPC   D2A20430  12.749   6.765   3.014  0.1753 -0.1449 -0.0137
    1DIPC   D3A20431  12.421   6.677   3.233  0.1598 -0.2952  0.0730
    1DIPC   C4A20432  12.379   6.573   3.756 -0.1240  0.2153 -0.4780
    1DIPC   C1B20433  12.841   7.635   2.998  0.1725 -0.0482 -0.2720
    1DIPC   D2B20434  12.938   7.612   3.409 -0.0914 -0.1058  0.0697
    1DIPC   D3B20435  12.667   7.398   3.712  0.2455 -0.1388  0.0111
    1DIPC   C4B20436  12.583   7.650   4.026 -0.0240 -0.1766 -0.0453
    1DIPC   NC320437   5.461  28.155   3.953 -0.1656  0.2941 -0.0683
    1DIPC   PO420438   5.745  28.379   4.127 -0.1171  0.0619  0.2499
    1DIPC   GL120439   5.936  28.474   4.617 -0.2820  0.0632 -0.1435
    1DIPC   GL220440   6.091  28.698   4.599  0.3534  0.3270 -0.1867
    1DIPC   C1A20441   6.079  28.103   4.917 -0.2551 -0.0008 -0.1549
    1DIPC   D2A20442   6.017  27.613   5.133  0.0643  0.1258 -0.0635
    1DIPC   D3A20443   6.223  27.432   5.452 -0.1026 -0.2582 -0.0780
    1DIPC   C4A20444   6.491  27.124   5.460 -0.3008  0.0375  0.1969
    1DIPC   C1B20445   6.003  28.663   5.044 -0.1050 -0.0602 -0.2054
    1DIPC   D2B20446   6.216  28.572   5.366  0.6479 -0.2190 -0.2234
    1DIPC   D3B20447   6.697  28.582   5.310 -0.1035  0.3195 -0.0154
    1DIPC   C4B20448   6.856  28.792   5.768 -0.1484  0.0426 -0.1423
    1DIPC   NC320449   8.851  19.318   2.756 -0.1580  0.1588 -0.0902
    1DIPC   PO420450   9.357  19.426   2.895 -0.0265  0.3069  0.2265
    1DIPC   GL120451   9.264  19.229   3.253  0.0316 -0.3073 -0.1201
    1DIPC   GL220452   9.470  19.351   3.498 -0.1854 -0.0257 -0.0720
    1DIPC   C1A20453   9.044  19.023   3.631 -0.0572 -0.0441  0.0185
    1DIPC   D2A20454   8.958  18.890   3.955 -0.1509 -0.1809 -0.1340
    1DIPC   D3A20455   8.564  19.119   4.063 -0.3989 -0.1157  0.1482
    1DIPC   C4A20456   8.516  19.116   4.510  0.1783 -0.0261 -0.0223
    1DIPC   C1B20457   9.398  19.376   3.882  0.2285  0.1689 -0.2957
    1DIPC   D2B20458   9.264  19.645   4.110 -0.2765  0.1911 -0.0233
    1DIPC   D3B20459   9.019  19.741   4.370  0.0008 -0.2377  0.1895
    1DIPC   C4B20460   8.794  19.594   4.800  0.0192 -0.0352  0.0275
    1DIPC   NC320461  23.325  13.330   2.965 -0.3211 -0.3126  0.1707
    1DIPC   PO420462  23.693  13.288   3.322  0.2668  0.0719  0.1266
    1DIPC   GL120463  23.696  13.286   3.807  0.1426  0.2188  0.0944
    1DIPC   GL220464  23.807  13.616   3.922 -0.1128  0.1442 -0.2116
    1DIPC   C1A20465  23.236  13.272   4.030 -0.1887  0.0342  0.1578
    1DIPC   D2A20466  23.009  12.964   4.265  0.0021 -0.2467 -0.0152
    1DIPC   D3A20467  23.264  12.974   4.669 -0.0063  0.0224  0.1285
    1DIPC   C4A20468  23.010  12.923   5.004 -0.1660  0.0076  0.0273
    1DIPC   C1B20469  23.467  13.712   4.185 -0.1852 -0.1427  0.0788
    1DIPC   D2B20470  23.379  13.942   4.602 -0.2788 -0.0125 -0.1960
    1DIPC   D3B20471  23.734  14.140   4.768 -0.2413 -0.1338  0.0866
    1DIPC   C4B20472  23.469  14.487   5.052 -0.1065  0.2604 -0.2085
    1DIPC   NC320473  15.289  13.342   2.294 -0.0057  0.3604  0.2522
    1DIPC   PO420474  15.539  13.715   2.461  0.1412 -0.0831 -0.1724
    1DIPC   GL120475  15.782  13.643   2.929 -0.1293 -0.0450 -0.1188
    1DIPC   GL220476  16.079  13.507   3.067 -0.1865 -0.3067 -0.0691
    1DIPC   C1A20477  15.650  13.658   3.321 -0.1680  0.0487 -0.3742
    1DIPC   D2A20478  15.598  13.520   3.725  0.3131  0.0600  0.0543
    1DIPC   D3A20479  15.178  13.355   3.756  0.0363  0.1559 -0.2869
    1DIPC   C4A20480  15.162  12.891   3.769  0.0312  0.1843  0.0772
    1DIPC   C1B20481  16.051  13.363   3.596  0.0160 -0.0806  0.0410
    1DIPC   D2B20482  15.954  13.339   4.018 -0.1297 -0.0605  0.5061
    1DIPC   D3B20483  15.643  13.104   4.115  0.2369  0.0650 -0.2379
    1DIPC   C4B20484  15.276  12.937   4.348 -0.0049  0.0602 -0.3569
    1DIPC   NC320485   2.679  25.452   3.885 -0.0066 -0.4052 -0.1841
    1DIPC   PO420486   2.777  25.333   4.347 -0.1576 -0.0015  0.2293
    1DIPC   GL120487   2.855  25.610   4.715  0.1521  0.1727 -0.2201
    1DIPC   GL220488   2.608  25.729   4.908  0.0599  0.0766  0.0843
    1DIPC   C1A20489   2.940  25.405   5.129 -0.0069 -0.0119 -0.0993
    1DIPC   D2A20490   2.701  25.190   5.523  0.2900 -0.1667  0.0975
    1DIPC   D3A20491   2.574  24.752   5.451  0.2321  0.1467 -0.1251
    1DIPC   C4A20492   2.256  24.750   5.717 -0.0314 -0.0750 -0.1787
    1DIPC   C1B20493   2.671  25.736   5.344  0.3510  0.3330 -0.2859
    1DIPC   D2B20494   2.432  25.929   5.640  0.0704  0.0789 -0.0968
    1DIPC   D3B20495   1.897  25.800   5.727  0.0568  0.1842 -0.0347
    1DIPC   C4B20496   1.622  25.647   6.020  0.1992 -0.3150  0.1706
    1DIPC   NC320497   4.393   3.640   3.965 -0.0251  0.2173  0.0151
    1DIPC   PO420498   4.438   3.413   4.306 -0.1775  0.2144  0.1616
    1DIPC   GL120499   4.508   3.223   4.671 -0.2189  0.0992 -0.1778
    1DIPC   GL220500   4.443   2.934   4.583 -0.1846  0.0865  0.0047
    1DIPC   C1A20501   4.336   3.409   5.052  0.4630  0.1583 -0.2161
    1DIPC   D2A20502   4.158   3.491   5.543 -0.0027  0.2029  0.1804
    1DIPC   D3A20503   3.801   3.679   5.341 -0.1017 -0.2522  0.1534
    1DIPC   C4A20504   3.834   3.653   4.975 -0.2847 -0.0449 -0.1208
    1DIPC   C1B20505   4.296   2.910   5.013 -0.3501 -0.1180 -0.1242
    1DIPC   D2B20506   4.194   3.018   5.452 -0.1183  0.2599 -0.0673
    1DIPC   D3B20507   3.825   3.132   5.620  0.0600 -0.1115  0.1001
    1DIPC   C4B20508   3.473   3.046   5.377  0.0414  0.0688 -0.0561
    1DIPC   NC320509  21.418  20.113   2.735 -0.1168 -0.1109 -0.0784
    1DIPC   PO420510  21.654  20.143   3.092  0.0160  0.0522  0.1474
    1DIPC   GL120511  21.906  20.350   3.411 -0.1485 -0.1313  0.1155
    1DIPC   GL220512  22.115  20.698   3.309 -0.1470 -0.2906 -0.2607
    1DIPC   C1A20513  21.931  20.760   3.731 -0.0982  0.3643 -0.1121
    1DIPC   D2A20514  21.830  21.191   3.757 -0.2188 -0.2988  0.0629
    1DIPC   D3A20515  21.785  21.185   4.189 -0.0062 -0.0853  0.4076
    1DIPC   C4A20516  21.687  20.720   4.268 -0.2359 -0.0221 -0.0168
    1DIPC   C1B20517  22.411  20.598   3.684  0.2159  0.0464 -0.2715
    1DIPC   D2B20518  22.758  20.373   3.863  0.1635 -0.1851  0.1085
    1DIPC   D3B20519  22.439  20.278   4.133 -0.4897 -0.1687 -0.1433
    1DIPC   C4B20520  22.635  20.026   4.422 -0.0321  0.2748 -0.1041
    1DIPC   NC320521  20.531  28.545   2.516  0.1118  0.1493  0.1452
    1DIPC   PO420522  20.834  28.694   2.824  0.0984  0.0047  0.0951
    1DIPC   GL120523  20.646  28.891   3.223  0.1329  0.2629  0.0119
    1DIPC   GL220524  20.362  28.905   3.283  0.0016  0.1293 -0.0407
    1DIPC   C1A20525  20.646  28.917   3.703  0.2599 -0.0338  0.1219
    1DIPC   D2A20526  20.853  28.698   4.021 -0.3259  0.0467 -0.0411
    1DIPC   D3A20527  20.845  28.817   4.486  0.1614  0.2169 -0.0120
    1DIPC   C4A20528  20.632  29.148   4.568  0.2283 -0.3907  0.1089
    1DIPC   C1B20529  20.123  28.837   3.753 -0.1996  0.2941 -0.0683
    1DIPC   D2B20530  19.817  29.061   4.036 -0.1842 -0.1604 -0.0314
    1DIPC   D3B20531  20.127  29.137   4.345 -0.0251 -0.1640  0.0012
    1DIPC   C4B20532  20.479  29.150   4.111 -0.1306 -0.0290  0.3345
    1DIPC   NC320533  14.287  13.968   2.289  0.1890  0.0587 -0.1147
    1DIPC   PO420534  14.061  13.871   2.608 -0.0959  0.4446 -0.0143
    1DIPC   GL120535  14.110  14.209   2.963 -0.2122 -0.1784 -0.0271
    1DIPC   GL220536  13.844  14.234   3.168  0.1009  0.4635  0.0388
    1DIPC   C1A20537  14.364  14.223   3.334  0.0805  0.1392  0.2362
    1DIPC   D2A20538  14.298  14.141   3.748  0.0654 -0.0140 -0.0748
    1DIPC   D3A20539  14.034  14.428   3.723  0.1638 -0.0108  0.2606
    1DIPC   C4A20540  13.921  14.485   4.131 -0.0680 -0.0926  0.0461
    1DIPC   C1B20541  13.919  13.910   3.472 -0.1907 -0.2625 -0.2443
    1DIPC   D2B20542  13.763  13.575   3.783  0.3121 -0.3306  0.1906
    1DIPC   D3B20543  13.817  13.169   3.755  0.2719  0.1276  0.0725
    1DIPC   C4B20544  14.184  13.166   3.747  0.0401  0.0904 -0.1054
    1DIPC   NC320545  15.914  19.231   2.571  0.1248  0.0381 -0.2114
    1DIPC   PO420546  16.027  19.628   2.896 -0.1019  0.0183 -0.1548
    1DIPC   GL120547  16.178  19.693   3.327  0.1038  0.0946 -0.2099
    1DIPC   GL220548  16.367  20.028   3.243 -0.1578 -0.1390 -0.0718
    1DIPC   C1A20549  16.224  19.501   3.825  0.0330 -0.0258 -0.0105
    1DIPC   D2A20550  16.186  19.187   3.886  0.0135 -0.0003 -0.1321
    1DIPC   D3A20551  16.216  19.268   4.277 -0.1651  0.0890 -0.1726
    1DIPC   C4A20552  16.159  19.697   4.408  0.0401 -0.2543 -0.2435
    1DIPC   C1B20553  16.257  20.135   3.674  0.1019 -0.1354  0.2057
    1DIPC   D2B20554  16.062  19.993   4.031  0.2235  0.0273  0.2769
    1DIPC   D3B20555  15.897  20.169   4.435  0.0629  0.3002 -0.0665
    1DIPC   C4B20556  16.153  20.007   4.792 -0.0474  0.3955  0.0070
    1DIPC   NC320557   7.229   4.543   3.611  0.1425 -0.1321 -0.1401
    1DIPC   PO420558   7.503   4.852   3.395  0.3693  0.2114  0.1066
    1DIPC   GL120559   7.641   4.872   3.764 -0.0809 -0.1246 -0.0514
    1DIPC   GL220560   7.625   4.602   4.014  0.2397  0.1270  0.1457
    1DIPC   C1A20561   8.124   5.030   4.032 -0.2729  0.3432  0.1420
    1DIPC   D2A20562   8.476   5.324   4.185 -0.1407  0.0823 -0.0524
    1DIPC   D3A20563   8.728   5.244   4.543  0.1516  0.0276  0.1021
    1DIPC   C4A20564   8.726   5.539   4.667 -0.0334 -0.2086  0.0916
    1DIPC   C1B20565   7.882   4.739   4.387  0.1670  0.3247 -0.2047
    1DIPC   D2B20566   7.853   4.872   4.815 -0.0035  0.0938 -0.0110
    1DIPC   D3B20567   7.668   4.508   4.801 -0.2274 -0.1572  0.0827
    1DIPC   C4B20568   7.823   4.177   4.478  0.0991 -0.0091  0.1368
    1DIPC   NC320569   4.953  23.356   3.534  0.1237  0.1718 -0.0893
    1DIPC   PO420570   4.961  23.770   3.686  0.1881 -0.0371 -0.2005
    1DIPC   GL120571   4.872  23.584   4.033  0.0076 -0.0844  0.2380
    1DIPC   GL220572   5.094  23.788   4.224  0.1788  0.3199 -0.3150
    1DIPC   C1A20573   4.638  23.637   4.388 -0.3237 -0.2806 -0.0114
    1DIPC   D2A20574   4.769  23.762   4.870 -0.2278 -0.0510  0.1173
    1DIPC   D3A20575   4.639  23.412   4.880 -0.1240 -0.1283  0.1276
    1DIPC   C4A20576   4.765  23.071   5.179 -0.0733 -0.0190  0.1228
    1DIPC   C1B20577   5.174  23.556   4.674  0.1077  0.1318  0.1495
    1DIPC   D2B20578   5.177  23.400   5.023 -0.2005 -0.2476 -0.2561
    1DIPC   D3B20579   5.408  23.356   5.381 -0.0799  0.6921  0.1129
    1DIPC   C4B20580   5.672  23.628   5.422  0.0054 -0.2202  0.0259
    1DIPC   NC320581   0.361  24.409   4.257  0.1919 -0.1516 -0.4283
    1DIPC   PO420582   0.018  24.229   4.154  0.1471 -0.2617 -0.0638
    1DIPC   GL120583  -0.005  24.150   4.567 -0.5383  0.3203 -0.3007
    1DIPC   GL220584  -0.002  24.454   4.652  0.0019 -0.0408 -0.1182
    1DIPC   C1A20585   0.135  24.099   4.955  0.0027 -0.1711 -0.3447
    1DIPC   D2A20586   0.302  24.015   5.373 -0.0085  0.0355 -0.0761
    1DIPC   D3A20587   0.040  23.698   5.571 -0.0880  0.2665 -0.0265
    1DIPC   C4A20588  -0.107  23.662   6.064  0.0557  0.3934 -0.1740
    1DIPC   C1B20589  -0.121  24.627   5.011  0.1001  0.0107 -0.1262
    1DIPC   D2B20590  -0.473  24.897   5.203  0.3150  0.1541 -0.0088
    1DIPC   D3B20591  -0.362  24.911   5.633  0.0503  0.0827  0.1387
    1DIPC   C4B20592   0.029  24.782   5.862  0.0459 -0.0384  0.0770
    1DIPC   NC320593   9.646  14.285   2.481  0.2230 -0.1757  0.4332
    1DIPC   PO420594   9.606  14.709   2.665  0.0079  0.3312  0.2290
    1DIPC   GL120595   9.240  14.814   2.864  0.0395  0.1060  0.1296
    1DIPC   GL220596   8.929  14.745   2.816 -0.1279  0.0663 -0.2236
    1DIPC   C1A20597   9.117  15.214   2.891  0.2290  0.1525  0.3690
    1DIPC   D2A20598   8.725  15.357   3.014 -0.0917  0.3906  0.0055
    1DIPC   D3A20599   8.767  15.036   3.216  0.1739  0.0845  0.2576
    1DIPC   C4A20600   8.565  14.922   3.592 -0.1679 -0.1502  0.0555
    1DIPC   C1B20601   9.034  14.638   3.280  0.0912 -0.1244  0.4571
    1DIPC   D2B20602   9.519  14.446   3.285  0.2261  0.1893  0.0284
    1DIPC   D3B20603   9.432  14.241   3.691 -0.1078  0.4596  0.1598
    1DIPC   C4B20604   9.149  14.468   3.826  0.1745 -0.1854 -0.6651
    1DIPC   NC320605  27.531   6.971   4.100 -0.0795  0.0325  0.0010
    1DIPC   PO420606  27.520   7.444   4.035  0.1518 -0.2440  0.0969
    1DIPC   GL120607  27.367   7.668   4.326 -0.0252  0.2704 -0.1382
    1DIPC   GL220608  27.113   7.794   4.355  0.2446 -0.3203  0.0245
    1DIPC   C1A20609  27.536   7.893   4.652  0.0635 -0.2747  0.0716
    1DIPC   D2A20610  27.817   7.963   4.926  0.3045 -0.2817  0.1118
    1DIPC   D3A20611  27.713   8.217   5.372 -0.2225 -0.0307 -0.2401
    1DIPC   C4A20612  27.295   8.379   5.263 -0.1744 -0.0551  0.1450
    1DIPC   C1B20613  26.961   7.899   4.673 -0.1902  0.3235 -0.1080
    1DIPC   D2B20614  26.992   7.783   5.044  0.2054 -0.0931 -0.0833
    1DIPC   D3B20615  27.230   7.932   5.389 -0.0018 -0.0013  0.0830
    1DIPC   C4B20616  26.927   7.841   5.816 -0.3928  0.0755 -0.0877
    1DIPC   NC320617  21.119  13.387   2.284  0.2059 -0.0310 -0.1708
    1DIPC   PO420618  20.786  13.265   2.566 -0.2748  0.3952 -0.0504
    1DIPC   GL120619  20.505  13.186   2.917  0.1708 -0.1069  0.3664
    1DIPC   GL220620  20.725  13.059   3.130 -0.1546 -0.0864  0.4471
    1DIPC   C1A20621  20.326  13.094   3.334  0.1522  0.1610  0.1437
    1DIPC   D2A20622  20.271  13.147   3.843 -0.1067  0.0050  0.1154
    1DIPC   D3A20623  19.966  12.871   4.144 -0.2718  0.1917 -0.0090
    1DIPC   C4A20624  20.234  12.642   4.438  0.0533 -0.0656 -0.4870
    1DIPC   C1B20625  21.039  12.903   3.431  0.0146 -0.0108  0.3088
    1DIPC   D2B20626  21.364  12.722   3.724 -0.1282  0.1317 -0.3022
    1DIPC   D3B20627  21.393  12.990   4.104  0.2068 -0.3781  0.1090
    1DIPC   C4B20628  21.000  12.996   4.403 -0.2168  0.0477  0.0182
    1DIPC   NC320629   4.315   0.693   4.349 -0.2135 -0.4099 -0.0561
    1DIPC   PO420630   4.328   1.139   4.285 -0.1838  0.1101  0.3938
    1DIPC   GL120631   4.276   1.127   4.731  0.1298  0.0944 -0.2367
    1DIPC   GL220632   4.500   0.967   4.785 -0.0517 -0.0486 -0.1063
    1DIPC   C1A20633   4.235   1.051   5.219  0.0583  0.1055 -0.0776
    1DIPC   D2A20634   4.203   1.021   5.702  0.1003  0.1429 -0.0372
    1DIPC   D3A20635   3.974   1.345   5.567 -0.0730  0.1224  0.3332
    1DIPC   C4A20636   3.670   1.238   5.338 -0.1302 -0.2729  0.0478
    1DIPC   C1B20637   4.693   0.973   5.279 -0.1773  0.0104 -0.2136
    1DIPC   D2B20638   4.548   1.322   5.573  0.2263  0.0348  0.0594
    1DIPC   D3B20639   4.496   1.320   6.033 -0.0552  0.1792  0.3585
    1DIPC   C4B20640   4.421   0.851   6.070  0.0862 -0.1482 -0.0902
    1DIPC   NC320641   4.751   1.366   4.496 -0.0786  0.5468 -0.2227
    1DIPC   PO420642   4.735   1.755   4.401 -0.0551 -0.1257  0.3809
    1DIPC   GL120643   4.882   1.770   4.835 -0.3000 -0.3443  0.1663
    1DIPC   GL220644   4.899   1.460   4.979 -0.2692 -0.0087  0.1914
    1DIPC   C1A20645   4.828   1.825   5.283  0.2182  0.1383 -0.3270
    1DIPC   D2A20646   4.738   1.748   5.711 -0.2846  0.1658  0.0077
    1DIPC   D3A20647   5.156   1.816   5.979 -0.0526  0.7090  0.0015
    1DIPC   C4A20648   5.492   1.549   5.859 -0.0796 -0.1913  0.0252
    1DIPC   C1B20649   4.498   1.442   5.136 -0.0088  0.1571  0.1322
    1DIPC   D2B20650   4.163   1.671   5.264 -0.0295  0.1803  0.1747
    1DIPC   D3B20651   4.147   1.802   5.723  0.3438 -0.0493  0.2493
    1DIPC   C4B20652   3.913   1.859   6.072 -0.1967  0.2305 -0.0228
    1DIPC   NC320653  26.617  15.111   3.377 -0.2070 -0.0267 -0.1738
    1DIPC   PO420654  26.314  15.461   3.547  0.0196  0.0625  0.0682
    1DIPC   GL120655  26.421  15.725   3.987 -0.2079 -0.0927 -0.2401
    1DIPC   GL220656  26.631  15.545   4.272 -0.0467  0.3410 -0.0368
    1DIPC   C1A20657  26.299  15.913   4.337 -0.2460  0.1638  0.0076
    1DIPC   D2A20658  26.129  15.925   4.734 -0.2176 -0.2014  0.1599
    1DIPC   D3A20659  26.275  15.804   5.084  0.3127 -0.0702  0.0990
    1DIPC   C4A20660  26.353  15.525   5.483  0.0774 -0.3202 -0.0598
    1DIPC   C1B20661  26.421  15.439   4.684  0.0235  0.2507  0.0652
    1DIPC   D2B20662  26.160  15.223   5.036  0.0701 -0.2587  0.2615
    1DIPC   D3B20663  25.806  14.882   4.826 -0.1493 -0.0933 -0.0340
    1DIPC   C4B20664  25.693  14.868   4.322  0.1685 -0.1219  0.3226
    1DIPC   NC320665   1.876   2.365   3.673  0.0096 -0.5091  0.0274
    1DIPC   PO420666   1.962   2.846   3.621  0.2127  0.1505 -0.0643
    1DIPC   GL120667   1.948   2.924   4.081 -0.1068  0.3853  0.0089
    1DIPC   GL220668   1.675   2.760   4.142  0.2538  0.2712 -0.1669
    1DIPC   C1A20669   2.148   2.675   4.455 -0.2637 -0.0274  0.0430
    1DIPC   D2A20670   2.151   2.638   4.923  0.5413 -0.3197  0.2377
    1DIPC   D3A20671   1.803   2.540   5.374  0.2093 -0.2374  0.0275
    1DIPC   C4A20672   1.591   2.090   5.314  0.2127 -0.2748  0.1703
    1DIPC   C1B20673   1.704   2.585   4.588  0.1181 -0.3731 -0.0919
    1DIPC   D2B20674   1.492   2.290   4.734 -0.0032 -0.0301 -0.0984
    1DIPC   D3B20675   1.450   2.602   5.041  0.0332  0.0401  0.2572
    1DIPC   C4B20676   1.197   2.450   5.309  0.2187 -0.0688  0.2788
    1DIPC   NC320677  20.119  23.381   2.074  0.3091 -0.1498 -0.1875
    1DIPC   PO420678  20.151  23.229   2.553 -0.0894 -0.1634  0.0075
    1DIPC   GL120679  20.324  23.417   2.984  0.3674 -0.0316 -0.0309
    1DIPC   GL220680  20.162  23.619   3.243 -0.1587  0.1128 -0.0437
    1DIPC   C1A20681  20.655  23.620   3.277 -0.2666 -0.2863 -0.0841
    1DIPC   D2A20682  21.085  23.662   3.440 -0.1967  0.2625 -0.1145
    1DIPC   D3A20683  20.806  23.893   3.810 -0.1698  0.3458  0.1473
    1DIPC   C4A20684  20.759  23.765   4.246 -0.0353 -0.0219  0.3827
    1DIPC   C1B20685  20.260  23.243   3.485 -0.0561  0.1249 -0.0977
    1DIPC   D2B20686  20.457  23.058   3.800 -0.1881  0.3075 -0.1151
    1DIPC   D3B20687  20.222  23.421   3.979  0.3720 -0.0126  0.1104
    1DIPC   C4B20688  20.355  23.692   3.677  0.1187  0.1960 -0.2873
    1DIPC   NC320689   3.393  22.923   3.194 -0.0403  0.2257 -0.1421
    1DIPC   PO420690   3.429  23.120   3.563 -0.0089 -0.0877  0.0189
    1DIPC   GL120691   3.714  23.205   3.822 -0.0096 -0.0892  0.0108
    1DIPC   GL220692   3.546  23.053   4.072 -0.0739 -0.0867 -0.1938
    1DIPC   C1A20693   4.033  23.459   4.134  0.0599 -0.0343  0.1312
    1DIPC   D2A20694   4.178  23.876   4.069  0.2730 -0.3037 -0.1384
    1DIPC   D3A20695   4.057  24.261   4.335 -0.3695 -0.0219  0.2004
    1DIPC   C4A20696   3.818  24.111   4.763 -0.0588  0.0390  0.3014
    1DIPC   C1B20697   3.566  23.037   4.615  0.0915 -0.4097  0.0858
    1DIPC   D2B20698   3.677  22.956   4.929  0.2846 -0.2935  0.5075
    1DIPC   D3B20699   3.668  23.426   5.024  0.0842 -0.1794 -0.0871
    1DIPC   C4B20700   3.908  23.832   5.170  0.3773  0.1893 -0.1243
    1DIPC   NC320701   2.408  27.319   4.047 -0.2825 -0.0367 -0.1585
    1DIPC   PO420702   2.479  27.741   4.161  0.2203 -0.3459  0.1126
    1DIPC   GL120703   2.374  27.801   4.540 -0.2757  0.2703  0.3652
    1DIPC   GL220704   2.013  27.822   4.625  0.1175 -0.2315 -0.2021
    1DIPC   C1A20705   2.408  27.890   4.941  0.1212 -0.0874  0.3146
    1DIPC   D2A20706   2.301  27.875   5.407  0.2477 -0.3577 -0.0937
    1DIPC   D3A20707   2.346  28.046   5.845  0.1067 -0.0203 -0.3450
    1DIPC   C4A20708   2.137  27.751   6.165 -0.3822 -0.1099 -0.0026
    1DIPC   C1B20709   1.924  27.648   5.119  0.0646  0.0984 -0.0785
    1DIPC   D2B20710   2.059  27.447   5.569  0.0692 -0.1745 -0.1819
    1DIPC   D3B20711   1.729  27.695   5.899 -0.0764  0.1727 -0.0916
    1DIPC   C4B20712   1.832  28.131   6.131  0.0294 -0.0131  0.1015
    1DIPC   NC320713   3.820  28.487   3.621 -0.4773 -0.2482  0.3576
    1DIPC   PO420714   4.101  28.640   3.929  0.3359 -0.0344  0.1094
    1DIPC   GL120715   3.977  28.650   4.351 -0.1321 -0.0090 -0.2346
    1DIPC   GL220716   3.674  28.632   4.524 -0.2602  0.3299 -0.0427
    1DIPC   C1A20717   4.100  28.582   4.813  0.1669  0.2218  0.2206
    1DIPC   D2A20718   4.153  28.297   5.135  0.2511 -0.0154  0.1071
    1DIPC   D3A20719   3.999  28.637   5.282  0.0539  0.0382 -0.2526
    1DIPC   C4A20720   4.311  28.952   5.326  0.4282 -0.0968 -0.0943
    1DIPC   C1B20721   3.518  28.704   4.976  0.0497  0.0403 -0.1392
    1DIPC   D2B20722   3.389  28.588   5.397 -0.2955  0.1313 -0.0138
    1DIPC   D3B20723   3.758  28.526   5.686  0.1311 -0.4058  0.1892
    1DIPC   C4B20724   4.048  28.886   5.704  0.0098  0.0772 -0.0723
    1DIPC   NC320725  13.437  25.385   2.854 -0.2774 -0.0582 -0.1466
    1DIPC   PO420726  13.838  25.369   2.970  0.1542 -0.1278 -0.0072
    1DIPC   GL120727  14.054  25.523   3.253  0.1659  0.0550 -0.0163
    1DIPC   GL220728  13.947  25.377   3.568  0.2226  0.3004 -0.0391
    1DIPC   C1A20729  14.431  25.547   3.454 -0.1364 -0.0038 -0.0351
    1DIPC   D2A20730  14.561  25.510   3.855 -0.1859 -0.0017 -0.0328
    1DIPC   D3A20731  14.329  25.742   4.214  0.1374 -0.1697 -0.0026
    1DIPC   C4A20732  13.901  25.814   4.214  0.0440 -0.1665 -0.3439
    1DIPC   C1B20733  13.891  25.379   3.993 -0.0893  0.0182 -0.2422
    1DIPC   D2B20734  14.000  25.263   4.419  0.0553 -0.0601  0.0444
    1DIPC   D3B20735  13.915  25.656   4.659  0.3835  0.4117 -0.0812
    1DIPC   C4B20736  14.158  26.015   4.603 -0.2043  0.0418 -0.0045
    1DIPC   NC320737   1.641  15.492   3.417  0.3574  0.3384  0.0326
    1DIPC   PO420738   1.687  15.112   3.651 -0.1940  0.1175 -0.1999
    1DIPC   GL120739   1.669  15.164   4.074 -0.2098  0.3039  0.2120
    1DIPC   GL220740   2.034  15.279   4.229  0.0306 -0.3323  0.1509
    1DIPC   C1A20741   1.639  14.897   4.440 -0.0598 -0.1381 -0.0594
    1DIPC   D2A20742   2.112  14.906   4.622  0.1820  0.1858  0.2798
    1DIPC   D3A20743   2.047  14.592   4.247  0.0333 -0.0117  0.2831
    1DIPC   C4A20744   2.346  14.299   4.290  0.0730 -0.3423 -0.1861
    1DIPC   C1B20745   2.001  15.706   4.444  0.0845 -0.1769  0.1826
    1DIPC   D2B20746   1.711  16.099   4.580  0.0323 -0.4389  0.0646
    1DIPC   D3B20747   1.777  16.196   4.960  0.1652 -0.1766  0.0182
    1DIPC   C4B20748   2.203  16.240   5.056 -0.3032 -0.1983 -0.3727
    1DIPC   NC320749  20.616   0.674   2.484 -0.2885  0.1271  0.0204
    1DIPC   PO420750  20.494   0.883   2.860  0.2438  0.3013  0.0328
    1DIPC   GL120751  20.611   0.685   3.236  0.2261  0.0139 -0.1135
    1DIPC   GL220752  20.824   0.922   3.427  0.0918 -0.2117 -0.0315
    1DIPC   C1A20753  20.335   0.421   3.583  0.0021 -0.1942  0.1079
    1DIPC   D2A20754  19.893   0.197   3.414 -0.1895 -0.1371  0.3047
    1DIPC   D3A20755  19.565  -0.123   3.675 -0.0427 -0.1527  0.4397
    1DIPC   C4A20756  19.415  -0.380   3.322  0.1924 -0.2566  0.0862
    1DIPC   C1B20757  20.618   0.822   3.897 -0.0200 -0.0284 -0.0608
    1DIPC   D2B20758  20.540   0.739   4.360 -0.0786 -0.1371 -0.1337
    1DIPC   D3B20759  20.517   1.111   4.582  0.0789  0.0155  0.1109
    1DIPC   C4B20760  20.767   1.233   4.888 -0.2155  0.1485 -0.1592
    1DIPC   NC320761  17.221  16.507   2.617 -0.1076  0.2264 -0.2256
    1DIPC   PO420762  17.513  16.350   3.051 -0.1503  0.3282 -0.3579
    1DIPC   GL120763  17.847  16.200   3.325  0.2932  0.1245 -0.3859
    1DIPC   GL220764  18.242  16.220   3.376  0.1966  0.0828  0.0682
    1DIPC   C1A20765  17.885  16.016   3.772 -0.0088  0.1536 -0.2786
    1DIPC   D2A20766  17.961  16.062   4.262 -0.0455  0.1573  0.1758
    1DIPC   D3A20767  18.240  16.340   4.333 -0.0528  0.1405  0.0456
    1DIPC   C4A20768  18.650  16.566   4.474 -0.0590 -0.1707  0.1493
    1DIPC   C1B20769  18.365  16.408   3.844  0.1110  0.0949  0.2224
    1DIPC   D2B20770  18.347  16.803   4.095  0.1259 -0.0513 -0.3049
    1DIPC   D3B20771  18.723  17.070   4.309 -0.3587  0.1068 -0.2134
    1DIPC   C4B20772  18.564  17.564   4.461  0.0276 -0.0629  0.0840
    1DIPC   NC320773  19.521  13.072   2.244 -0.2155 -0.2299 -0.1485
    1DIPC   PO420774  19.464  12.946   2.679  0.1567  0.0021  0.2392
    1DIPC   GL120775  19.126  12.638   2.929 -0.1632  0.4165  0.1168
    1DIPC   GL220776  18.842  12.600   2.869  0.2597 -0.4356  0.1226
    1DIPC   C1A20777  18.940  12.338   3.294 -0.1878  0.0793 -0.1539
    1DIPC   D2A20778  18.993  12.568   3.685  0.1588 -0.0621 -0.0555
    1DIPC   D3A20779  18.759  12.491   4.148  0.1183  0.1169 -0.0490
    1DIPC   C4A20780  18.810  12.841   4.468  0.1631 -0.0522  0.2362
    1DIPC   C1B20781  18.961  12.942   3.243  0.1541 -0.1132 -0.0044
    1DIPC   D2B20782  19.065  13.066   3.677 -0.0873  0.0558 -0.1391
    1DIPC   D3B20783  18.843  13.042   4.014  0.0881 -0.1934  0.2446
    1DIPC   C4B20784  18.397  13.175   4.172 -0.0827 -0.0628  0.1596
    1DIPC   NC320785  14.771  23.627   2.895 -0.0173  0.1343  0.2465
    1DIPC   PO420786  15.179  23.594   3.134 -0.2063  0.1377  0.2364
    1DIPC   GL120787  15.256  23.349   3.531 -0.2726  0.3085 -0.0514
    1DIPC   GL220788  15.026  23.488   3.758  0.2256 -0.0223 -0.0653
    1DIPC   C1A20789  15.480  23.347   3.926 -0.1453 -0.1014  0.0147
    1DIPC   D2A20790  15.591  23.591   4.420  0.2171 -0.0649 -0.0856
    1DIPC   D3A20791  15.145  23.713   4.579 -0.2468 -0.0463  0.0925
    1DIPC   C4A20792  14.958  23.296   4.875  0.0125  0.0411  0.1824
    1DIPC   C1B20793  15.136  23.726   4.057 -0.1837 -0.1057 -0.1750
    1DIPC   D2B20794  15.306  24.108   4.211 -0.2048  0.2327  0.1466
    1DIPC   D3B20795  15.308  24.186   4.608  0.3094  0.0427  0.2240
    1DIPC   C4B20796  14.950  24.078   4.828  0.1488 -0.3241  0.3241
    1DIPC   NC320797   0.758  27.203   4.131  0.1966  0.1047 -0.4094
    1DIPC   PO420798   0.723  27.616   4.422  0.0395 -0.3369 -0.0798
    1DIPC   GL120799   0.865  27.956   4.661  0.2983  0.2697  0.3193
    1DIPC   GL220800   1.038  27.933   4.815 -0.3100 -0.1253  0.1511
    1DIPC   C1A20801   0.661  28.268   4.784 -0.0369  0.0476  0.1509
    1DIPC   D2A20802   0.321  28.546   4.688  0.1395  0.1563 -0.0934
    1DIPC   D3A20803   0.484  28.836   4.940  0.0236  0.0222  0.3697
    1DIPC   C4A20804   0.285  29.148   5.231  0.1746  0.1039 -0.0017
    1DIPC   C1B20805   1.084  28.006   5.231 -0.0665 -0.1138  0.1053
    1DIPC   D2B20806   0.977  28.161   5.626  0.2861 -0.0420 -0.0079
    1DIPC   D3B20807   0.743  28.134   6.087  0.0659 -0.2574  0.1167
    1DIPC   C4B20808   0.988  27.683   6.350  0.1039 -0.0404  0.0279
    1DIPC   NC320809  19.496  17.285   2.643  0.0332  0.3554  0.0939
    1DIPC   PO420810  19.594  17.788   2.680 -0.0922  0.3634  0.0906
    1DIPC   GL120811  19.678  17.648   3.168 -0.1532 -0.3389  0.0629
    1DIPC   GL220812  19.502  17.352   3.251 -0.0590 -0.2491  0.2570
    1DIPC   C1A20813  19.635  17.876   3.459 -0.2342  0.0689  0.1029
    1DIPC   D2A20814  19.739  17.994   3.810  0.0750  0.2180  0.1990
    1DIPC   D3A20815  20.119  17.992   4.050  0.0139  0.2717  0.0424
    1DIPC   C4A20816  20.107  17.652   4.291  0.0817  0.1938 -0.2198
    1DIPC   C1B20817  19.288  17.223   3.583 -0.0726  0.6158  0.3311
    1DIPC   D2B20818  19.139  17.029   3.937 -0.2573 -0.1759  0.0294
    1DIPC   D3B20819  19.212  17.137   4.266 -0.1970 -0.0926  0.1762
    1DIPC   C4B20820  19.044  16.876   4.726 -0.2282  0.0499 -0.0600
    1DIPC   NC320821   3.157  20.721   3.470  0.0704 -0.1422  0.0333
    1DIPC   PO420822   2.888  20.690   3.815 -0.0065  0.3324  0.0021
    1DIPC   GL120823   2.496  20.619   4.084  0.0302 -0.1446 -0.0631
    1DIPC   GL220824   2.177  20.342   3.975  0.1316 -0.1064  0.1334
    1DIPC   C1A20825   2.604  20.805   4.487 -0.2919 -0.0103 -0.1181
    1DIPC   D2A20826   2.667  20.932   4.896 -0.1921  0.3038  0.2979
    1DIPC   D3A20827   2.294  21.145   4.953 -0.1199 -0.0231  0.0800
    1DIPC   C4A20828   2.092  21.025   5.389  0.1081  0.1179  0.2463
    1DIPC   C1B20829   2.383  20.258   4.472 -0.0033 -0.0511  0.0560
    1DIPC   D2B20830   2.674  20.428   4.802 -0.0945  0.0147  0.1474
    1DIPC   D3B20831   2.478  20.098   4.948  0.1308 -0.0965  0.1617
    1DIPC   C4B20832   2.402  20.017   5.451  0.1565 -0.0715 -0.0741
    1DIPC   NC320833   3.083  27.569   3.491  0.1577  0.0886  0.3636
    1DIPC   PO420834   3.051  27.452   4.009 -0.1799  0.0054 -0.2703
    1DIPC   GL120835   3.175  27.343   4.443 -0.0827  0.1139 -0.0247
    1DIPC   GL220836   2.930  27.241   4.484  0.2694  0.2267 -0.0870
    1DIPC   C1A20837   3.391  27.364   4.879  0.0799 -0.1131  0.1035
    1DIPC   D2A20838   3.563  27.664   5.146  0.0570 -0.0275 -0.0310
    1DIPC   D3A20839   3.271  27.887   5.333 -0.0626 -0.0343 -0.0726
    1DIPC   C4A20840   2.970  27.808   5.655  0.2610 -0.2092  0.1322
    1DIPC   C1B20841   2.776  27.436   4.849 -0.0360 -0.2469  0.1389
    1DIPC   D2B20842   2.442  27.436   5.247  0.2528  0.0675  0.2920
    1DIPC   D3B20843   2.576  27.399   5.609 -0.3254 -0.1096 -0.3113
    1DIPC   C4B20844   2.332  27.292   5.936 -0.0760 -0.1413 -0.0213
    1DIPC   NC320845  26.084  23.248   3.881  0.2910 -0.2454 -0.2316
    1DIPC   PO420846  25.861  22.833   3.926  0.0183 -0.2489  0.0960
    1DIPC   GL120847  25.723  22.697   4.320  0.0140 -0.1841 -0.0817
    1DIPC   GL220848  25.749  22.399   4.452  0.1883  0.1452 -0.0301
    1DIPC   C1A20849  25.571  22.846   4.661 -0.3802 -0.2746 -0.0611
    1DIPC   D2A20850  25.408  22.650   5.047  0.0577  0.0575  0.5517
    1DIPC   D3A20851  25.396  23.149   5.208  0.2201 -0.0386  0.0162
    1DIPC   C4A20852  25.786  23.317   5.149  0.5594  0.4572  0.3825
    1DIPC   C1B20853  25.812  22.292   4.894  0.0205  0.0789  0.0969
    1DIPC   D2B20854  26.206  22.155   4.974  0.1738  0.1370 -0.1988
    1DIPC   D3B20855  26.182  22.462   5.261  0.3045 -0.3450  0.0217
    1DIPC   C4B20856  26.424  22.659   5.488  0.1531 -0.0107  0.1882
    1DIPC   NC320857   7.646   6.695   3.064  0.0132 -0.0136 -0.0098
    1DIPC   PO420858   7.871   7.089   2.962  0.2102  0.2583  0.2134
    1DIPC   GL120859   7.734   7.155   3.313 -0.0562 -0.0743 -0.0925
    1DIPC   GL220860   7.872   6.911   3.488  0.0443  0.1654 -0.1564
    1DIPC   C1A20861   7.606   7.269   3.777 -0.0017  0.2085  0.1456
    1DIPC   D2A20862   7.354   7.255   4.130  0.3795  0.0126  0.0426
    1DIPC   D3A20863   7.069   7.418   4.306  0.0763  0.0794  0.2873
    1DIPC   C4A20864   6.864   7.788   4.365 -0.1468 -0.0935  0.2145
    1DIPC   C1B20865   7.796   6.822   3.989 -0.0746 -0.0445  0.3360
    1DIPC   D2B20866   7.797   6.648   4.388  0.4610  0.3411 -0.0929
    1DIPC   D3B20867   7.657   7.067   4.640  0.0241  0.1962  0.0254
    1DIPC   C4B20868   7.627   7.587   4.616  0.1304 -0.2766  0.2213
    1DIPC   NC320869   7.606  26.004   3.867  0.0196 -0.1144 -0.0584
    1DIPC   PO420870   8.039  26.062   3.969 -0.0213 -0.0127  0.0761
    1DIPC   GL120871   8.090  26.107   4.369 -0.1087  0.2696  0.1002
    1DIPC   GL220872   8.301  26.427   4.404  0.2639  0.0825  0.1474
    1DIPC   C1A20873   7.720  25.809   4.547 -0.0464 -0.1774 -0.2407
    1DIPC   D2A20874   7.299  25.528   4.816 -0.1034  0.0482  0.1912
    1DIPC   D3A20875   7.315  25.412   5.190 -0.3175  0.1099 -0.0173
    1DIPC   C4A20876   6.836  25.433   5.253 -0.0399 -0.0867  0.0365
    1DIPC   C1B20877   8.280  26.715   4.719  0.2168 -0.0805  0.0030
    1DIPC   D2B20878   7.933  26.961   4.862  0.1928 -0.2158 -0.0560
    1DIPC   D3B20879   7.897  26.765   5.268  0.2615 -0.0088  0.1306
    1DIPC   C4B20880   8.233  26.644   5.530  0.0325 -0.3236 -0.1307
    1DIPC   NC320881  17.050  26.876   2.287  0.0237  0.0161  0.0379
    1DIPC   PO420882  16.712  26.790   2.605  0.0291 -0.2795  0.1482
    1DIPC   GL120883  16.953  26.929   2.975 -0.1610  0.0190  0.3455
    1DIPC   GL220884  17.195  27.204   3.061 -0.0869  0.1516  0.0162
    1DIPC   C1A20885  16.976  26.736   3.438 -0.0629  0.1526 -0.4211
    1DIPC   D2A20886  16.799  26.904   3.826  0.0144 -0.0200  0.0452
    1DIPC   D3A20887  16.529  26.863   3.503 -0.0510  0.0407 -0.3691
    1DIPC   C4A20888  16.529  27.099   3.219  0.4802 -0.2574 -0.1620
    1DIPC   C1B20889  16.931  27.221   3.468  0.0810 -0.0448  0.2379
    1DIPC   D2B20890  16.582  27.346   3.696  0.0531  0.2595  0.1721
    1DIPC   D3B20891  16.319  27.422   4.148 -0.1099 -0.0274  0.0503
    1DIPC   C4B20892  15.934  27.508   4.104 -0.0221 -0.1447 -0.1418
    1DIPC   NC320893   3.948  25.072   3.612 -0.0125  0.3752 -0.2078
    1DIPC   PO420894   4.367  24.940   3.623  0.1012  0.0006 -0.3112
    1DIPC   GL120895   4.518  24.795   4.004  0.2316 -0.2919  0.3548
    1DIPC   GL220896   4.824  24.984   4.078 -0.1343 -0.5124 -0.1577
    1DIPC   C1A20897   4.475  24.658   4.406 -0.0703  0.1054 -0.2730
    1DIPC   D2A20898   4.091  24.637   4.719 -0.0848  0.2096  0.0313
    1DIPC   D3A20899   4.280  24.172   4.975 -0.0449 -0.2119 -0.1692
    1DIPC   C4A20900   4.238  23.833   4.613  0.0849 -0.0441 -0.0276
    1DIPC   C1B20901   4.837  25.094   4.470  0.2750  0.2408 -0.2634
    1DIPC   D2B20902   4.967  25.062   4.876 -0.1388 -0.1409  0.0748
    1DIPC   D3B20903   4.787  25.305   5.104 -0.1842 -0.0483 -0.0347
    1DIPC   C4B20904   4.847  25.072   5.410  0.0544  0.1028  0.0254
    1DIPC   NC320905  21.207  28.374   2.868  0.1049  0.0162 -0.3171
    1DIPC   PO420906  21.271  28.368   3.344 -0.0070 -0.0969 -0.0086
    1DIPC   GL120907  21.330  28.706   3.663 -0.0844 -0.0344 -0.1079
    1DIPC   GL220908  21.415  28.944   3.617 -0.1407 -0.0103  0.1605
    1DIPC   C1A20909  21.328  28.839   4.103  0.0069  0.0578  0.1352
    1DIPC   D2A20910  21.495  29.296   4.212 -0.1004 -0.1504  0.4120
    1DIPC   D3A20911  21.191  29.229   4.446 -0.1444 -0.0548  0.0595
    1DIPC   C4A20912  21.335  28.802   4.645 -0.1600  0.5411 -0.1260
    1DIPC   C1B20913  21.437  29.347   3.732 -0.1461  0.0045 -0.0973
    1DIPC   D2B20914  21.282  29.709   3.652  0.0009 -0.0346 -0.1630
    1DIPC   D3B20915  21.086  30.044   3.868 -0.2562 -0.1135 -0.0237
    1DIPC   C4B20916  20.751  30.070   4.154 -0.0735 -0.2364  0.2804
    1DIPC   NC320917  12.273  10.380   1.909 -0.1105  0.1559  0.1601
    1DIPC   PO420918  12.654  10.152   2.100  0.0975 -0.1412 -0.0239
    1DIPC   GL120919  12.344  10.134   2.502  0.2309  0.2750 -0.2474
    1DIPC   GL220920  12.083  10.329   2.623  0.0320  0.5217  0.0964
    1DIPC   C1A20921  12.625  10.146   2.803 -0.2713 -0.2372  0.1177
    1DIPC   D2A20922  13.076  10.431   2.929 -0.0454 -0.2406  0.1446
    1DIPC   D3A20923  13.069  10.461   3.320  0.1650  0.1264 -0.2175
    1DIPC   C4A20924  13.376  10.718   3.535 -0.0827  0.1873  0.0657
    1DIPC   C1B20925  12.194  10.246   3.068 -0.1278  0.2703  0.0560
    1DIPC   D2B20926  12.257  10.100   3.513  0.0181  0.2977  0.4091
    1DIPC   D3B20927  12.411  10.422   3.628 -0.2141  0.2591  0.2077
    1DIPC   C4B20928  12.801  10.817   3.526 -0.1392  0.1851  0.2856
    1DIPC   NC320929  16.179  26.655   2.523  0.1032  0.1849 -0.0251
    1DIPC   PO420930  16.297  26.283   2.720 -0.1759 -0.4590  0.0676
    1DIPC   GL120931  16.336  26.214   3.157  0.2623 -0.1093  0.1719
    1DIPC   GL220932  16.470  25.863   3.328  0.0744 -0.1858 -0.1680
    1DIPC   C1A20933  16.298  26.385   3.524 -0.2191  0.1409 -0.3903
    1DIPC   D2A20934  16.238  26.490   4.052  0.1771 -0.0730 -0.2593
    1DIPC   D3A20935  16.263  26.884   4.291 -0.1516 -0.0520 -0.0852
    1DIPC   C4A20936  16.384  27.223   4.629 -0.2578  0.1889 -0.0907
    1DIPC   C1B20937  16.763  26.087   3.556 -0.0281  0.4938  0.3539
    1DIPC   D2B20938  16.808  26.377   3.777 -0.1777  0.0607  0.1878
    1DIPC   D3B20939  17.093  26.131   3.992  0.1216 -0.1506 -0.0800
    1DIPC   C4B20940  17.209  26.329   4.434 -0.4545 -0.2286  0.0552
    1DIPC   NC320941   6.033  23.786   3.694 -0.2008 -0.0489  0.1845
    1DIPC   PO420942   6.315  23.447   3.477  0.2885  0.3192 -0.2679
    1DIPC   GL120943   6.332  23.553   3.986  0.3067 -0.1822  0.0516
    1DIPC   GL220944   5.952  23.601   4.173 -0.1970  0.0220  0.2357
    1DIPC   C1A20945   6.389  23.357   4.404  0.0004  0.2741  0.0413
    1DIPC   D2A20946   6.522  23.375   4.857 -0.0334 -0.1909 -0.0492
    1DIPC   D3A20947   6.215  23.537   4.998 -0.0845  0.0237  0.1220
    1DIPC   C4A20948   6.393  24.010   4.995  0.1482  0.3567  0.3481
    1DIPC   C1B20949   5.719  23.605   4.515 -0.2289  0.2690 -0.2369
    1DIPC   D2B20950   5.543  23.754   4.931  0.4735 -0.0639  0.0470
    1DIPC   D3B20951   5.910  23.910   5.053 -0.2847 -0.1528  0.3842
    1DIPC   C4B20952   5.914  24.190   4.877 -0.0473 -0.3100  0.0376
    1DIPC   NC320953  11.496  15.501   2.670 -0.2237 -0.0106  0.0989
    1DIPC   PO420954  11.690  15.175   2.491 -0.2361 -0.1487  0.0413
    1DIPC   GL120955  11.511  15.070   3.002 -0.2221 -0.0861 -0.0434
    1DIPC   GL220956  11.625  15.322   3.146  0.0396  0.0387 -0.1260
    1DIPC   C1A20957  11.640  14.846   3.424  0.0562  0.0073 -0.0965
    1DIPC   D2A20958  11.376  14.715   3.744 -0.1708  0.0769  0.2100
    1DIPC   D3A20959  11.287  14.973   4.066  0.0927 -0.0594  0.1670
    1DIPC   C4A20960  11.408  15.306   4.215 -0.1526 -0.0136 -0.0509
    1DIPC   C1B20961  12.050  15.265   3.233 -0.5673 -0.1218  0.0288
    1DIPC   D2B20962  12.281  15.147   3.618  0.2685  0.0707 -0.1173
    1DIPC   D3B20963  12.289  15.366   4.076 -0.0865 -0.0959  0.2405
    1DIPC   C4B20964  12.424  15.817   4.139 -0.2803  0.0381 -0.1120
    1DIPC   NC320965   8.281   8.575   2.251 -0.1273 -0.1029  0.0685
    1DIPC   PO420966   8.306   8.365   2.603  0.0490  0.2634  0.0577
    1DIPC   GL120967   8.403   8.551   3.025 -0.2109 -0.1184 -0.2083
    1DIPC   GL220968   8.393   8.473   3.298  0.2198 -0.0115  0.1224
    1DIPC   C1A20969   8.807   8.857   3.161 -0.0628  0.1117 -0.2018
    1DIPC   D2A20970   8.912   9.013   3.533 -0.0815 -0.0652 -0.3080
    1DIPC   D3A20971   9.087   9.381   3.609 -0.0736  0.0168 -0.3534
    1DIPC   C4A20972   9.085   9.421   4.107  0.0116  0.2421  0.2633
    1DIPC   C1B20973   8.508   8.765   3.639  0.3190  0.0656 -0.1644
    1DIPC   D2B20974   8.763   9.037   4.000  0.0544  0.0337 -0.1227
    1DIPC   D3B20975   8.599   9.429   4.201 -0.1456  0.0532  0.2512
    1DIPC   C4B20976   8.644   9.615   4.609  0.2624  0.0754 -0.1304
    1DIPC   NC320977  11.605   2.704   2.227  0.2373 -0.0786 -0.3437
    1DIPC   PO420978  12.002   2.736   2.284 -0.2107 -0.2069  0.0610
    1DIPC   GL120979  12.122   2.579   2.580  0.0133 -0.1650 -0.0365
    1DIPC   GL220980  12.248   2.347   2.517  0.1568  0.2000 -0.0795
    1DIPC   C1A20981  12.267   2.593   3.059 -0.1287 -0.2205 -0.0654
    1DIPC   D2A20982  12.634   2.809   3.230  0.1243  0.0514  0.0315
    1DIPC   D3A20983  12.518   2.972   3.665 -0.4418  0.0017  0.1153
    1DIPC   C4A20984  12.453   2.650   4.026 -0.0957 -0.0774  0.3368
    1DIPC   C1B20985  12.038   2.173   2.888 -0.2638 -0.1157  0.0107
    1DIPC   D2B20986  12.104   1.825   2.977 -0.0959  0.3600  0.0673
    1DIPC   D3B20987  12.357   2.110   3.319  0.4648  0.0431  0.1457
    1DIPC   C4B20988  12.254   2.455   3.625  0.0100 -0.0234  0.0764
    1DIPC   NC320989   7.400   2.822   3.573  0.0256 -0.0203 -0.1776
    1DIPC   PO420990   7.257   2.741   3.976 -0.0676  0.2475 -0.0686
    1DIPC   GL120991   7.549   2.831   4.255 -0.1110 -0.0219  0.0322
    1DIPC   GL220992   7.756   3.121   4.142  0.2468  0.0792  0.2742
    1DIPC   C1A20993   7.706   2.786   4.657 -0.3362 -0.1319  0.1538
    1DIPC   D2A20994   7.712   2.670   5.040 -0.0711 -0.2631 -0.1756
    1DIPC   D3A20995   7.944   2.355   4.872  0.1196 -0.1224 -0.0445
    1DIPC   C4A20996   7.940   2.324   4.450  0.0207  0.2523 -0.3532
    1DIPC   C1B20997   8.038   2.780   4.166 -0.3734  0.0214  0.2873
    1DIPC   D2B20998   8.440   2.522   4.190  0.1459 -0.1224  0.0240
    1DIPC   D3B20999   8.810   2.516   4.491  0.1663  0.0756 -0.0701
    1DIPC   C4B21000   8.868   2.622   4.925  0.3424  0.0692  0.0544
    1DIPC   NC321001   3.746   6.426   3.672 -0.0866 -0.0961 -0.0012
    1DIPC   PO421002   3.707   6.784   4.012  0.0782  0.0574 -0.1260
    1DIPC   GL121003   3.635   6.717   4.362 -0.2453  0.2040  0.0404
    1DIPC   GL221004   3.400   6.438   4.196  0.4530  0.0455 -0.0179
    1DIPC   C1A21005   3.632   6.785   4.805 -0.2597 -0.0135  0.4431
    1DIPC   D2A21006   3.712   6.783   5.239 -0.1501  0.2389  0.3379
    1DIPC   D3A21007   3.383   7.045   5.450  0.1162 -0.2456  0.2168
    1DIPC   C4A21008   2.996   6.924   5.330  0.1539 -0.2692  0.1941
    1DIPC   C1B21009   3.345   6.358   4.638 -0.0771  0.1268 -0.0402
    1DIPC   D2B21010   3.478   6.310   5.004 -0.0239 -0.0150  0.1307
    1DIPC   D3B21011   3.235   6.060   5.178  0.4448 -0.2063 -0.0734
    1DIPC   C4B21012   3.149   5.997   5.612  0.1439 -0.3641  0.0256
    1DIPC   NC321013  16.618  24.995   2.631  0.1898  0.0200 -0.1461
    1DIPC   PO421014  16.482  24.642   2.909  0.3247  0.3867  0.0607
    1DIPC   GL121015  16.387  24.651   3.409  0.4073  0.3191 -0.1179
    1DIPC   GL221016  16.551  24.505   3.611  0.0635 -0.0660 -0.2747
    1DIPC   C1A21017  16.249  24.906   3.677 -0.1016  0.1741 -0.2506
    1DIPC   D2A21018  16.479  24.920   4.052  0.3551  0.0222 -0.0744
    1DIPC   D3A21019  16.706  25.052   3.563  0.1340  0.3448 -0.0085
    1DIPC   C4A21020  17.104  25.320   3.518  0.1837 -0.2794  0.4004
    1DIPC   C1B21021  16.776  24.181   3.631  0.0765  0.2937  0.1467
    1DIPC   D2B21022  16.940  23.940   3.327  0.1181 -0.1602 -0.0068
    1DIPC   D3B21023  17.019  23.483   3.417  0.0016 -0.2715 -0.0396
    1DIPC   C4B21024  17.452  23.324   3.500 -0.0086 -0.0843  0.0364
    1DIPC   NC321025  10.052   8.264   2.593  0.2212  0.1373  0.0417
    1DIPC   PO421026  10.425   8.144   2.676 -0.3579  0.1352 -0.1756
    1DIPC   GL121027  10.770   8.171   2.962  0.2043  0.0453 -0.0601
    1DIPC   GL221028  10.814   7.853   3.066  0.2870 -0.1306  0.0049
    1DIPC   C1A21029  10.948   8.464   3.298  0.3593 -0.1075 -0.2512
    1DIPC   D2A21030  11.287   8.744   3.390 -0.0904 -0.2435 -0.0094
    1DIPC   D3A21031  11.508   8.362   3.400 -0.0072  0.1117 -0.0689
    1DIPC   C4A21032  11.622   8.187   3.806 -0.1459 -0.3411  0.0877
    1DIPC   C1B21033  11.029   7.655   3.414 -0.1328  0.2948 -0.0453
    1DIPC   D2B21034  11.325   7.749   3.843  0.0659 -0.0133  0.0749
    1DIPC   D3B21035  11.067   8.018   4.088 -0.0426 -0.0036  0.2228
    1DIPC   C4B21036  10.815   7.882   4.339  0.0069  0.3144  0.0807
    1DIPC   NC321037   0.601   4.689   4.265  0.1929 -0.0561  0.5616
    1DIPC   PO421038   1.047   4.555   4.207  0.1333  0.3660  0.2500
    1DIPC   GL121039   1.287   4.450   4.623 -0.0341 -0.0200  0.0665
    1DIPC   GL221040   1.461   4.628   4.692  0.0908 -0.2146  0.0338
    1DIPC   C1A21041   1.419   4.157   4.922  0.1343  0.0387 -0.0499
    1DIPC   D2A21042   1.322   3.930   5.259  0.0658  0.0551  0.0255
    1DIPC   D3A21043   1.029   4.214   5.456  0.0712 -0.2006 -0.3991
    1DIPC   C4A21044   0.731   4.096   5.654  0.1154 -0.1501  0.2587
    1DIPC   C1B21045   1.794   4.439   4.660  0.1042 -0.2384  0.0719
    1DIPC   D2B21046   2.068   4.292   4.927  0.1818  0.0681  0.2219
    1DIPC   D3B21047   2.060   4.215   5.272 -0.1025 -0.2894  0.0646
    1DIPC   C4B21048   1.737   4.313   5.340 -0.2197 -0.0824  0.1853
    1DIPC   NC321049   5.227  12.449   2.728 -0.0959  0.3542 -0.0650
    1DIPC   PO421050   4.995  12.725   3.009  0.1134 -0.1059 -0.4418
    1DIPC   GL121051   5.237  12.455   3.264 -0.0545  0.1341 -0.2692
    1DIPC   GL221052   5.004  12.363   3.503  0.3004 -0.2096  0.2702
    1DIPC   C1A21053   5.566  12.241   3.569 -0.0963 -0.1634  0.0973
    1DIPC   D2A21054   5.793  11.980   3.856 -0.0288  0.1246  0.2883
    1DIPC   D3A21055   5.764  11.785   3.517 -0.1105  0.1982 -0.0316
    1DIPC   C4A21056   5.507  11.372   3.513  0.3287 -0.1315  0.0406
    1DIPC   C1B21057   4.951  12.110   3.794  0.2334 -0.2195 -0.1134
    1DIPC   D2B21058   4.805  11.750   4.017  0.3017 -0.0270  0.1040
    1DIPC   D3B21059   4.508  11.596   3.740  0.0561 -0.1133 -0.0123
    1DIPC   C4B21060   4.567  11.159   3.658  0.3730 -0.1400 -0.3750
    1DIPC   NC321061  25.762  16.459   3.328 -0.2871 -0.0004 -0.0838
    1DIPC   PO421062  26.099  16.470   3.682 -0.0431  0.0050 -0.0601
    1DIPC   GL121063  26.025  16.437   4.083  0.1422 -0.1550 -0.1466
    1DIPC   GL221064  26.405  16.484   4.244 -0.1909  0.1816  0.0497
    1DIPC   C1A21065  26.008  16.599   4.518  0.1935  0.0204 -0.3290
    1DIPC   D2A21066  25.790  16.666   4.946 -0.0611 -0.2475  0.7396
    1DIPC   D3A21067  25.734  16.286   4.994  0.0978 -0.1396 -0.0422
    1DIPC   C4A21068  25.224  16.178   5.044 -0.1403  0.1876 -0.3226
    1DIPC   C1B21069  26.420  16.332   4.606 -0.0176  0.2466  0.2793
    1DIPC   D2B21070  26.327  16.507   5.032 -0.0601  0.2065 -0.1306
    1DIPC   D3B21071  26.107  16.570   5.409 -0.1102  0.0883 -0.2641
    1DIPC   C4B21072  25.810  16.071   5.424 -0.3261 -0.0119  0.0445
    1DIPC   NC321073  24.147  21.958   3.297  0.1944 -0.0426 -0.2034
    1DIPC   PO421074  23.781  22.268   3.315 -0.0735  0.1598  0.0202
    1DIPC   GL121075  23.657  22.213   3.705 -0.2554 -0.0024  0.0143
    1DIPC   GL221076  23.443  22.578   3.822 -0.0152 -0.1220 -0.3688
    1DIPC   C1A21077  23.694  22.308   4.124 -0.0360  0.3080 -0.5793
    1DIPC   D2A21078  24.028  22.163   4.464  0.0987  0.0054  0.0172
    1DIPC   D3A21079  23.656  22.260   4.832  0.0987 -0.1526 -0.1056
    1DIPC   C4A21080  23.706  22.615   5.041 -0.2200  0.1092  0.0708
    1DIPC   C1B21081  23.471  22.834   4.177 -0.0667 -0.0517  0.1016
    1DIPC   D2B21082  23.776  22.718   4.464 -0.0429  0.1060 -0.2370
    1DIPC   D3B21083  23.709  23.178   4.537  0.1192 -0.1145  0.4607
    1DIPC   C4B21084  23.514  23.456   4.203  0.2617  0.2656 -0.2457
    1DIPC   NC321085   4.122  20.094   3.022  0.0550 -0.0866  0.1773
    1DIPC   PO421086   3.823  19.964   3.314 -0.1937 -0.0265  0.0298
    1DIPC   GL121087   3.912  19.647   3.687  0.3027 -0.3980  0.0313
    1DIPC   GL221088   4.206  19.437   3.712 -0.3206 -0.2405  0.0019
    1DIPC   C1A21089   3.853  19.253   4.024  0.0334 -0.2453  0.3675
    1DIPC   D2A21090   4.112  19.008   4.309 -0.0947  0.1202  0.1477
    1DIPC   D3A21091   4.219  19.100   4.746  0.1098 -0.1396 -0.0974
    1DIPC   C4A21092   4.388  19.399   4.977  0.0537 -0.1451  0.1281
    1DIPC   C1B21093   4.148  19.618   4.102  0.0165 -0.3068 -0.1230
    1DIPC   D2B21094   4.079  19.591   4.559 -0.1221 -0.2013 -0.3853
    1DIPC   D3B21095   3.722  19.219   4.542  0.2130 -0.0950  0.0002
    1DIPC   C4B21096   3.295  19.402   4.556 -0.1470 -0.1681  0.0721
    1DIPC   NC321097   0.624  10.576   3.431  0.0774  0.3860 -0.0289
    1DIPC   PO421098   0.172  10.595   3.427 -0.1769 -0.0025  0.2274
    1DIPC   GL121099   0.346  10.516   3.890 -0.2487 -0.1416  0.1425
    1DIPC   GL221100   0.238  10.252   4.028  0.0324  0.0330 -0.0593
    1DIPC   C1A21101   0.466  10.849   4.145  0.0981 -0.0650 -0.0939
    1DIPC   D2A21102   0.575  11.231   4.297  0.1199 -0.0825  0.0776
    1DIPC   D3A21103   0.445  11.599   4.205  0.1254 -0.0083  0.1167
    1DIPC   C4A21104   0.515  11.940   3.982 -0.0839 -0.1231 -0.1660
    1DIPC   C1B21105   0.213  10.465   4.437  0.3714 -0.0659 -0.1324
    1DIPC   D2B21106   0.327  10.875   4.621  0.3155 -0.3246  0.6873
    1DIPC   D3B21107   0.442  10.845   5.089 -0.0525  0.3960 -0.0613
    1DIPC   C4B21108   0.817  10.854   5.272  0.5360  0.0058  0.0370
    1DIPC   NC321109  14.848  20.304   2.857 -0.1178 -0.0557  0.0238
    1DIPC   PO421110  15.336  20.264   2.947 -0.1057  0.2182 -0.1938
    1DIPC   GL121111  15.492  20.037   3.276 -0.0634  0.0391  0.0183
    1DIPC   GL221112  15.706  19.753   3.353  0.2004 -0.1602  0.1444
    1DIPC   C1A21113  15.544  20.129   3.756 -0.2006 -0.0709  0.3761
    1DIPC   D2A21114  15.428  20.043   4.195  0.1270 -0.1549 -0.3973
    1DIPC   D3A21115  15.456  20.481   4.527 -0.2055 -0.1410 -0.0195
    1DIPC   C4A21116  15.727  20.887   4.295 -0.1838 -0.0771  0.3331
    1DIPC   C1B21117  15.778  19.417   3.641  0.0574 -0.3260  0.0696
    1DIPC   D2B21118  15.742  19.612   4.066  0.1508 -0.1784  0.2534
    1DIPC   D3B21119  15.545  19.671   4.457  0.0403  0.0375 -0.0968
    1DIPC   C4B21120  15.738  19.613   4.783 -0.1107  0.2521 -0.0771
    1DIPC   NC321121  20.311  24.313   2.714 -0.1760  0.0399 -0.1634
    1DIPC   PO421122  20.386  23.882   2.627  0.0585  0.0895 -0.1178
    1DIPC   GL121123  20.613  24.013   2.980 -0.0715 -0.0090 -0.1174
    1DIPC   GL221124  20.933  23.993   2.901 -0.1271 -0.2387  0.0632
    1DIPC   C1A21125  20.363  24.060   3.349  0.3439  0.1276  0.0006
    1DIPC   D2A21126  20.023  24.198   3.732  0.3132  0.2318 -0.2870
    1DIPC   D3A21127  20.332  24.039   4.029  0.0331  0.0115 -0.1933
    1DIPC   C4A21128  20.392  24.123   4.487  0.1321 -0.3715  0.1222
    1DIPC   C1B21129  20.874  24.078   3.388  0.0560  0.1728 -0.0090
    1DIPC   D2B21130  20.620  24.348   3.692 -0.1266  0.1029  0.1331
    1DIPC   D3B21131  20.898  24.561   3.563 -0.0678 -0.1817 -0.4136
    1DIPC   C4B21132  20.960  24.895   3.395 -0.0224 -0.2626 -0.2921
    1DIPC   NC321133  19.891  23.568   2.752 -0.0273 -0.1330  0.2038
    1DIPC   PO421134  19.427  23.656   2.901 -0.0503 -0.1480  0.1410
    1DIPC   GL121135  19.691  23.408   3.238 -0.3469  0.1581 -0.2504
    1DIPC   GL221136  19.817  23.089   3.380  0.2633  0.1263  0.0319
    1DIPC   C1A21137  19.821  23.566   3.716 -0.0969  0.0895  0.0606
    1DIPC   D2A21138  19.729  23.402   4.146 -0.3296 -0.1423  0.1790
    1DIPC   D3A21139  19.896  23.394   4.460  0.1842 -0.0622  0.0063
    1DIPC   C4A21140  19.728  22.958   4.716 -0.1350  0.2869  0.0905
    1DIPC   C1B21141  19.916  23.025   3.823  0.1703 -0.0457  0.1124
    1DIPC   D2B21142  20.184  22.937   4.260 -0.2714 -0.1119  0.2350
    1DIPC   D3B21143  20.435  22.976   4.648  0.1697  0.0515 -0.1338
    1DIPC   C4B21144  20.359  22.861   5.059 -0.0276  0.0542  0.0346
    1DIPC   NC321145  10.189  23.732   4.063  0.0873  0.2147 -0.0256
    1DIPC   PO421146  10.543  23.466   4.083 -0.2419 -0.0467  0.0290
    1DIPC   GL121147  10.776  23.540   4.441  0.2187  0.0077  0.3601
    1DIPC   GL221148  10.923  23.429   4.660  0.0563 -0.1196  0.0901
    1DIPC   C1A21149  10.604  23.712   4.847  0.0870  0.0305  0.3649
    1DIPC   D2A21150  10.409  23.638   5.198  0.3428  0.1987  0.2342
    1DIPC   D3A21151  10.647  23.295   5.128  0.0395 -0.0401 -0.0589
    1DIPC   C4A21152  10.558  22.922   5.257  0.1215 -0.1119 -0.0683
    1DIPC   C1B21153  11.117  23.308   5.048  0.1920  0.0433  0.2036
    1DIPC   D2B21154  11.371  22.980   4.983  0.1089  0.4419  0.1722
    1DIPC   D3B21155  11.624  22.940   5.331 -0.2311  0.0627 -0.0633
    1DIPC   C4B21156  12.036  22.891   5.192  0.5014  0.2443 -0.0853
    1DIPC   NC321157  11.298  27.470   2.522  0.1946 -0.0288 -0.1306
    1DIPC   PO421158  10.988  27.399   2.863 -0.0030 -0.2726 -0.0127
    1DIPC   GL121159  11.125  27.445   3.334 -0.0793 -0.2898  0.0585
    1DIPC   GL221160  11.188  27.276   3.566  0.1855 -0.0261 -0.2164
    1DIPC   C1A21161  10.941  27.673   3.695 -0.2318  0.3249  0.2386
    1DIPC   D2A21162  10.775  27.880   4.028 -0.0554  0.0179  0.0974
    1DIPC   D3A21163  10.502  28.102   3.762 -0.1905  0.0992  0.2085
    1DIPC   C4A21164  10.334  28.236   4.051 -0.0729  0.0559  0.0731
    1DIPC   C1B21165  10.827  27.178   3.773  0.1079 -0.2347 -0.4959
    1DIPC   D2B21166  10.759  27.381   4.161 -0.1082  0.1236  0.0702
    1DIPC   D3B21167  10.845  27.422   4.632 -0.0634 -0.0477 -0.0355
    1DIPC   C4B21168  11.166  27.394   4.876 -0.0209  0.1073  0.0407
    1DIPC   NC321169  17.122  20.719   2.223  0.1270 -0.2382 -0.2663
    1DIPC   PO421170  16.961  20.982   2.600 -0.0115 -0.2615  0.1054
    1DIPC   GL121171  16.961  20.928   3.071 -0.0574 -0.0243  0.4804
    1DIPC   GL221172  17.174  21.139   3.145  0.1113 -0.3775 -0.1248
    1DIPC   C1A21173  16.834  20.704   3.428  0.1139  0.0198  0.0692
    1DIPC   D2A21174  16.513  20.683   3.840 -0.3067  0.3309 -0.1188
    1DIPC   D3A21175  16.790  20.314   4.131 -0.0019  0.0889 -0.0951
    1DIPC   C4A21176  16.485  20.147   4.431 -0.1188  0.0427  0.3053
    1DIPC   C1B21177  17.361  21.234   3.495 -0.1982  0.2199 -0.0235
    1DIPC   D2B21178  17.334  21.401   3.936 -0.0930 -0.1736 -0.0519
    1DIPC   D3B21179  17.673  21.396   4.147  0.1607 -0.1314  0.0489
    1DIPC   C4B21180  17.600  21.592   4.578 -0.0258  0.2048  0.0288
    1DIPC   NC321181   7.536  27.359   3.611 -0.0907  0.0320 -0.0874
    1DIPC   PO421182   7.403  27.260   4.046  0.0584 -0.1216 -0.2812
    1DIPC   GL121183   7.248  27.543   4.387  0.1372  0.4265  0.1074
    1DIPC   GL221184   6.977  27.781   4.345 -0.0646  0.0949 -0.0544
    1DIPC   C1A21185   6.981  27.527   4.776 -0.3532  0.0514 -0.0998
    1DIPC   D2A21186   6.571  27.769   4.746  0.0030 -0.0749 -0.0319
    1DIPC   D3A21187   6.492  27.451   5.032 -0.0265  0.0110 -0.0124
    1DIPC   C4A21188   6.680  27.043   4.884 -0.3284 -0.0345 -0.1392
    1DIPC   C1B21189   6.927  28.083   4.676  0.1270  0.1454 -0.5084
    1DIPC   D2B21190   6.738  28.093   5.058  0.3084  0.0549  0.1743
    1DIPC   D3B21191   6.925  28.090   5.465  0.0555 -0.3948 -0.1788
    1DIPC   C4B21192   6.967  27.707   5.670 -0.3039 -0.1137 -0.2462
    1DIPC   NC321193  27.410   0.485   3.574  0.0792 -0.1753 -0.1125
    1DIPC   PO421194  27.695   0.286   3.593  0.1592 -0.1853 -0.3065
    1DIPC   GL121195  27.562   0.310   4.084 -0.3535  0.0095  0.0530
    1DIPC   GL221196  27.757   0.170   4.295 -0.0426 -0.1496 -0.0586
    1DIPC   C1A21197  27.471   0.618   4.367 -0.0790  0.2858 -0.3189
    1DIPC   D2A21198  27.352   1.109   4.512 -0.2149  0.1951 -0.0593
    1DIPC   D3A21199  27.193   0.926   4.798 -0.2624 -0.0784  0.1963
    1DIPC   C4A21200  27.360   0.841   5.186  0.0478 -0.0361 -0.0210
    1DIPC   C1B21201  27.790   0.112   4.790  0.5289  0.1878  0.1066
    1DIPC   D2B21202  27.902  -0.202   5.068 -0.0707 -0.1886  0.0847
    1DIPC   D3B21203  27.684  -0.634   5.103  0.1991 -0.1938  0.0528
    1DIPC   C4B21204  27.823  -1.028   5.034 -0.1258  0.0432 -0.1428
    1DIPC   NC321205  10.541   9.150   2.597 -0.0232 -0.0663 -0.0020
    1DIPC   PO421206  10.160   9.375   2.295 -0.1880  0.0457 -0.0891
    1DIPC   GL121207  10.083   9.533   2.739  0.4552 -0.0597 -0.0860
    1DIPC   GL221208   9.665   9.473   2.802  0.4121 -0.0621  0.1541
    1DIPC   C1A21209   9.870   9.730   3.221 -0.0559  0.2026  0.1172
    1DIPC   D2A21210   9.994   9.630   3.535 -0.0563  0.0981  0.2266
    1DIPC   D3A21211  10.253   9.215   3.550 -0.0127 -0.1813  0.2626
    1DIPC   C4A21212  10.663   9.263   3.647  0.0842  0.0488  0.3648
    1DIPC   C1B21213   9.927   9.244   3.098 -0.2855 -0.0059 -0.1017
    1DIPC   D2B21214  10.218   8.998   3.028  0.5142 -0.2486  0.0524
    1DIPC   D3B21215  10.633   9.203   3.097  0.2245  0.2171  0.0761
    1DIPC   C4B21216  10.879   9.479   3.249  0.0618 -0.1455  0.0507
    1DIPC   NC321217   4.533  15.813   2.398 -0.1948 -0.1338 -0.2062
    1DIPC   PO421218   4.810  15.609   2.785 -0.3334 -0.0738  0.3548
    1DIPC   GL121219   4.989  15.615   3.221  0.3485  0.0231 -0.0353
    1DIPC   GL221220   5.243  15.877   3.336 -0.1029  0.1146  0.2604
    1DIPC   C1A21221   4.761  15.698   3.540 -0.0328  0.3625 -0.2911
    1DIPC   D2A21222   4.710  16.068   3.971 -0.0595 -0.1616 -0.4489
    1DIPC   D3A21223   4.817  16.034   4.391  0.0232 -0.3395  0.0251
    1DIPC   C4A21224   4.525  15.957   4.711  0.0438  0.2062  0.0068
    1DIPC   C1B21225   5.244  15.749   3.753 -0.0014 -0.3211  0.0765
    1DIPC   D2B21226   5.019  15.645   4.056  0.1343 -0.1096 -0.0217
    1DIPC   D3B21227   4.508  15.704   4.121  0.0785  0.1241 -0.0834
    1DIPC   C4B21228   4.266  15.789   3.811 -0.0053 -0.0654 -0.3202
    1DIPC   NC321229   0.057   0.294   4.066 -0.1984  0.0760 -0.0861
    1DIPC   PO421230  -0.302   0.141   3.918 -0.0743 -0.2388  0.1409
    1DIPC   GL121231  -0.302   0.283   4.394 -0.0588 -0.1708 -0.1688
    1DIPC   GL221232   0.040   0.340   4.529  0.0867 -0.0870 -0.1101
    1DIPC   C1A21233  -0.603   0.323   4.776 -0.0330  0.1075 -0.0480
    1DIPC   D2A21234  -0.730   0.216   5.214 -0.1581 -0.1493  0.3502
    1DIPC   D3A21235  -0.608   0.063   5.540 -0.1596 -0.0786 -0.0543
    1DIPC   C4A21236  -0.260  -0.240   5.586  0.0383 -0.0257 -0.2733
    1DIPC   C1B21237   0.056   0.070   4.821 -0.1690 -0.2087 -0.0442
    1DIPC   D2B21238  -0.153   0.085   5.263  0.0431  0.0219 -0.0794
    1DIPC   D3B21239   0.198  -0.152   5.443  0.1250  0.0734 -0.1234
    1DIPC   C4B21240   0.314  -0.011   5.761 -0.0927  0.1142 -0.1450
    1DIPC   NC321241   7.896  24.623   3.642  0.2194  0.2031 -0.2302
    1DIPC   PO421242   8.322  24.548   3.461  0.1766 -0.0963  0.1771
    1DIPC   GL121243   8.409  24.258   3.741  0.1365  0.3660  0.1143
    1DIPC   GL221244   8.159  24.034   3.860  0.0171  0.0581 -0.1539
    1DIPC   C1A21245   8.516  24.172   4.225 -0.0964 -0.2752 -0.1302
    1DIPC   D2A21246   8.870  23.985   4.351 -0.2927  0.1568  0.1785
    1DIPC   D3A21247   8.578  23.834   4.703 -0.0811  0.0275  0.2292
    1DIPC   C4A21248   8.250  23.790   4.451 -0.0809 -0.0889  0.0602
    1DIPC   C1B21249   7.845  23.900   4.150  0.0810 -0.3150  0.1074
    1DIPC   D2B21250   7.710  23.989   4.504  0.4182 -0.2776  0.2278
    1DIPC   D3B21251   7.392  24.199   4.490  0.2705  0.1338  0.1504
    1DIPC   C4B21252   7.023  24.071   4.355 -0.0199 -0.0870  0.1049
    1DIPC   NC321253  20.273  21.072   1.988 -0.1427 -0.1901 -0.1464
    1DIPC   PO421254  19.994  21.295   2.347  0.1473  0.1861  0.1702
    1DIPC   GL121255  19.944  21.191   2.825  0.2605 -0.3358  0.0399
    1DIPC   GL221256  19.597  21.233   2.909  0.0699 -0.2035  0.1254
    1DIPC   C1A21257  20.024  21.383   3.075  0.0882 -0.4877  0.2130
    1DIPC   D2A21258  20.117  21.650   3.453  0.2666  0.1837  0.0303
    1DIPC   D3A21259  20.175  21.574   3.819 -0.2231  0.0973  0.0769
    1DIPC   C4A21260  19.886  21.382   4.080  0.2847 -0.1051  0.1041
    1DIPC   C1B21261  19.245  20.918   3.043 -0.0335 -0.1183 -0.0495
    1DIPC   D2B21262  19.308  20.520   3.078 -0.0046 -0.1606 -0.0815
    1DIPC   D3B21263  19.745  20.415   3.185 -0.1766  0.2840 -0.0515
    1DIPC   C4B21264  19.949  20.543   3.525 -0.1120 -0.2024  0.0679
    1DIPC   NC321265  14.974  17.796   2.028  0.1019 -0.1364  0.0309
    1DIPC   PO421266  15.058  17.712   2.456 -0.0817  0.1254  0.1998
    1DIPC   GL121267  14.931  17.654   2.917 -0.0593  0.1993  0.2174
    1DIPC   GL221268  14.985  17.932   3.175 -0.3907  0.0740  0.4510
    1DIPC   C1A21269  14.749  17.448   3.383 -0.1014 -0.2536  0.1717
    1DIPC   D2A21270  14.828  17.461   3.852  0.0352  0.3211  0.3079
    1DIPC   D3A21271  15.009  17.220   4.204 -0.0605 -0.2522  0.0317
    1DIPC   C4A21272  14.685  16.930   4.428 -0.0359 -0.0236  0.0604
    1DIPC   C1B21273  15.154  17.773   3.608 -0.0481 -0.2101 -0.1116
    1DIPC   D2B21274  15.224  17.672   4.018  0.1247 -0.3488  0.0983
    1DIPC   D3B21275  14.829  17.648   4.385  0.2806 -0.2885  0.2993
    1DIPC   C4B21276  14.785  17.355   4.727 -0.1280  0.2207 -0.0106
    1DIPC   NC321277  14.380  21.191   3.055  0.0917 -0.3387 -0.3883
    1DIPC   PO421278  14.776  21.123   3.316 -0.3109  0.2028  0.0999
    1DIPC   GL121279  14.879  21.275   3.783  0.3137 -0.0579  0.0895
    1DIPC   GL221280  15.305  21.283   3.853  0.0793 -0.0080 -0.0227
    1DIPC   C1A21281  15.037  21.622   4.128  0.2772 -0.1087 -0.4492
    1DIPC   D2A21282  14.813  21.764   4.551  0.2820  0.1662  0.1296
    1DIPC   D3A21283  14.943  21.409   4.727 -0.1223 -0.5386 -0.0147
    1DIPC   C4A21284  15.091  20.968   4.873  0.1025  0.2506 -0.2822
    1DIPC   C1B21285  15.635  21.153   3.826 -0.0261 -0.0821  0.0231
    1DIPC   D2B21286  15.804  20.819   3.602  0.0732  0.0967  0.3669
    1DIPC   D3B21287  15.884  20.454   3.939 -0.3496 -0.0088  0.2586
    1DIPC   C4B21288  16.185  20.699   4.290  0.3735  0.0585  0.0000
    1DIPC   NC321289  27.034  15.625   3.997  0.4529  0.0463 -0.1778
    1DIPC   PO421290  26.826  15.288   3.834 -0.1233  0.0022  0.0108
    1DIPC   GL121291  26.786  15.023   4.134  0.1259  0.1243 -0.0774
    1DIPC   GL221292  27.110  15.197   4.292 -0.0638 -0.1136 -0.1336
    1DIPC   C1A21293  26.656  15.031   4.503  0.2977  0.1018  0.1940
    1DIPC   D2A21294  26.427  14.855   4.902  0.0615 -0.0170  0.0405
    1DIPC   D3A21295  26.255  14.465   5.048 -0.2141  0.2096  0.1504
    1DIPC   C4A21296  26.342  13.985   5.148 -0.1625 -0.0632  0.0307
    1DIPC   C1B21297  27.459  15.317   4.701 -0.1321  0.2005 -0.1623
    1DIPC   D2B21298  27.758  15.630   4.688 -0.2363  0.0941  0.3267
    1DIPC   D3B21299  27.379  15.787   4.953  0.0142  0.0684  0.0916
    1DIPC   C4B21300  27.206  15.586   5.252  0.1314  0.2156  0.0302
    1DIPC   NC321301   9.026   8.727   1.823  0.2520 -0.2315 -0.3039
    1DIPC   PO421302   9.321   8.930   2.176 -0.1308 -0.2162  0.0939
    1DIPC   GL121303   9.238   8.911   2.634 -0.0438  0.1827  0.1911
    1DIPC   GL221304   9.254   9.132   2.838 -0.0331 -0.1673  0.1258
    1DIPC   C1A21305   9.286   8.626   3.005  0.1293  0.3349 -0.2916
    1DIPC   D2A21306   9.349   8.659   3.361  0.2152 -0.2370  0.0456
    1DIPC   D3A21307   8.944   8.440   3.640 -0.0056 -0.0293 -0.0344
    1DIPC   C4A21308   8.790   8.496   4.084  0.0694 -0.0260  0.1417
    1DIPC   C1B21309   9.296   9.149   3.189  0.2695 -0.0155 -0.0597
    1DIPC   D2B21310   9.655   9.296   3.512 -0.2111  0.3786 -0.0895
    1DIPC   D3B21311   9.753   9.252   3.851 -0.1496 -0.1050  0.3311
    1DIPC   C4B21312  10.053   9.005   3.961  0.1523  0.1155 -0.0370
    1DIPC   NC321313  27.003  28.115   3.858 -0.4243 -0.1138 -0.0256
    1DIPC   PO421314  26.685  27.761   3.761  0.1476 -0.1557  0.1428
    1DIPC   GL121315  26.862  27.588   4.190 -0.0541  0.0876  0.0130
    1DIPC   GL221316  26.892  27.779   4.286 -0.2852 -0.2283  0.0964
    1DIPC   C1A21317  26.786  27.334   4.529  0.1389 -0.1742  0.0159
    1DIPC   D2A21318  26.443  27.097   4.806 -0.0366  0.1803  0.3419
    1DIPC   D3A21319  26.565  27.399   5.068 -0.0138 -0.1713 -0.2782
    1DIPC   C4A21320  26.975  27.599   4.988 -0.1515 -0.1358  0.0886
    1DIPC   C1B21321  26.426  27.971   4.303  0.2613  0.1630 -0.0693
    1DIPC   D2B21322  25.967  27.756   4.293  0.0241 -0.1995 -0.0659
    1DIPC   D3B21323  25.891  28.087   4.588 -0.2651 -0.0235  0.1589
    1DIPC   C4B21324  26.071  28.424   4.799 -0.1693  0.3491 -0.1639
    1DIPC   NC321325  24.650  12.967   3.573  0.2437  0.0135 -0.0974
    1DIPC   PO421326  24.987  12.659   3.497  0.1231 -0.0795 -0.3276
    1DIPC   GL121327  24.881  12.715   3.942  0.0022 -0.2837  0.3048
    1DIPC   GL221328  25.083  12.475   4.039 -0.0671  0.7197  0.1518
    1DIPC   C1A21329  24.412  12.686   4.129  0.0152 -0.1203  0.1667
    1DIPC   D2A21330  24.390  12.362   4.523 -0.1617  0.2578 -0.0122
    1DIPC   D3A21331  24.105  12.582   4.820 -0.2614 -0.0648 -0.3602
    1DIPC   C4A21332  23.904  12.247   5.088 -0.4253  0.1301  0.1500
    1DIPC   C1B21333  24.870  12.225   4.328  0.0443 -0.0674  0.2328
    1DIPC   D2B21334  24.862  12.280   4.700 -0.0793  0.1233 -0.3566
    1DIPC   D3B21335  24.913  11.957   4.890  0.0627 -0.2674 -0.2966
    1DIPC   C4B21336  25.066  11.637   5.095  0.1877  0.2987 -0.3014
    1DIPC   NC321337  22.931  12.749   3.224 -0.1020  0.0357 -0.3232
    1DIPC   PO421338  22.709  12.314   3.187 -0.2837 -0.0842  0.3051
    1DIPC   GL121339  22.609  12.542   3.574  0.1992  0.0435 -0.1266
    1DIPC   GL221340  22.290  12.561   3.767  0.1215 -0.2193 -0.1112
    1DIPC   C1A21341  22.770  12.972   3.783  0.1011  0.0879  0.0176
    1DIPC   D2A21342  22.778  13.435   4.098 -0.0371 -0.1858  0.2201
    1DIPC   D3A21343  22.577  13.432   4.476 -0.3430  0.1950 -0.0114
    1DIPC   C4A21344  22.661  13.311   4.952  0.1203 -0.1015  0.3937
    1DIPC   C1B21345  22.582  12.515   4.187 -0.1309  0.0019 -0.0494
    1DIPC   D2B21346  22.458  12.357   4.622  0.1535 -0.1632 -0.0386
    1DIPC   D3B21347  22.147  12.056   4.740 -0.2635  0.1930  0.1854
    1DIPC   C4B21348  21.856  12.341   4.684  0.1322  0.0931  0.0259
    1DIPC   NC321349   1.521  11.085   3.254 -0.4150  0.3472  0.0699
    1DIPC   PO421350   1.432  11.343   3.692 -0.1664  0.1190  0.2129
    1DIPC   GL121351   1.259  11.415   4.123 -0.0655 -0.0141  0.0586
    1DIPC   GL221352   1.436  11.621   4.250 -0.0038 -0.0109 -0.1000
    1DIPC   C1A21353   1.039  11.218   4.429 -0.0761  0.0040  0.1132
    1DIPC   D2A21354   0.788  11.068   4.743  0.1724  0.1097  0.2424
    1DIPC   D3A21355   0.799  10.761   4.500  0.0017  0.1373  0.0092
    1DIPC   C4A21356   1.104  10.707   4.295  0.0402 -0.0318  0.2257
    1DIPC   C1B21357   1.391  12.068   4.554  0.1347 -0.0759 -0.0493
    1DIPC   D2B21358   1.403  12.018   4.988 -0.1476 -0.0217 -0.1882
    1DIPC   D3B21359   1.162  12.310   5.222 -0.3784 -0.1252 -0.0291
    1DIPC   C4B21360   0.842  12.377   5.522  0.1226 -0.2284  0.0380
    1DIPC   NC321361   3.828  20.446   3.194 -0.0051  0.1351  0.1264
    1DIPC   PO421362   4.164  20.513   3.298  0.3413 -0.3596  0.0753
    1DIPC   GL121363   4.186  20.685   3.711  0.1826  0.0021  0.1349
    1DIPC   GL221364   4.282  20.949   3.770  0.0223  0.1063 -0.2185
    1DIPC   C1A21365   4.573  20.646   4.017  0.1540  0.0111 -0.2787
    1DIPC   D2A21366   4.964  20.631   4.094 -0.0307 -0.0283 -0.1527
    1DIPC   D3A21367   5.182  20.474   4.405  0.0701 -0.0298  0.0604
    1DIPC   C4A21368   5.120  20.231   4.839  0.4971  0.0414 -0.0776
    1DIPC   C1B21369   4.252  20.963   4.279  0.0842  0.1282 -0.1831
    1DIPC   D2B21370   4.370  21.178   4.684  0.3619 -0.2091  0.0386
    1DIPC   D3B21371   4.819  21.254   4.720 -0.2973 -0.0787 -0.2003
    1DIPC   C4B21372   5.149  21.208   5.154 -0.1910  0.2200  0.1777
    1DIPC   NC321373  23.426  14.243   3.112 -0.2929  0.2107 -0.2980
    1DIPC   PO421374  23.266  13.837   3.094  0.1404  0.2258 -0.2036
    1DIPC   GL121375  23.034  14.071   3.420 -0.3467  0.1389  0.1799
    1DIPC   GL221376  23.169  14.278   3.535  0.0818  0.0157 -0.0184
    1DIPC   C1A21377  22.754  14.471   3.341  0.0501 -0.1674 -0.1324
    1DIPC   D2A21378  22.480  14.667   3.694 -0.2325  0.2303  0.1041
    1DIPC   D3A21379  22.646  14.273   3.814 -0.1061 -0.3680 -0.5172
    1DIPC   C4A21380  23.061  14.372   4.040  0.2797 -0.1762  0.1437
    1DIPC   C1B21381  23.542  14.356   3.812  0.2309  0.2072 -0.1245
    1DIPC   D2B21382  23.615  14.216   4.281 -0.1539 -0.3172  0.0962
    1DIPC   D3B21383  24.109  14.157   4.385 -0.0247 -0.0277 -0.2101
    1DIPC   C4B21384  24.188  14.331   4.771  0.0123 -0.1559  0.0186
    1DIPC   NC321385   3.304  18.288   3.384 -0.0363  0.2189 -0.3459
    1DIPC   PO421386   3.115  18.792   3.545  0.0747 -0.0202  0.0660
    1DIPC   GL121387   3.364  18.619   3.847 -0.0962 -0.0925 -0.2325
    1DIPC   GL221388   3.703  18.727   4.102  0.0850  0.2033 -0.1170
    1DIPC   C1A21389   3.331  18.414   4.236 -0.0373 -0.2636  0.2799
    1DIPC   D2A21390   3.286  18.370   4.620 -0.2102 -0.2361 -0.4217
    1DIPC   D3A21391   3.302  17.914   4.941  0.2321 -0.1400 -0.0101
    1DIPC   C4A21392   3.598  17.662   4.896 -0.0787 -0.3290  0.0210
    1DIPC   C1B21393   3.734  18.713   4.523 -0.1147  0.2068  0.0865
    1DIPC   D2B21394   3.808  18.837   4.905  0.2148  0.3337 -0.0904
    1DIPC   D3B21395   3.590  18.612   5.142  0.4515 -0.0086  0.1560
    1DIPC   C4B21396   3.295  18.384   5.156 -0.0026 -0.0044 -0.0552
    1DIPC   NC321397  11.540  14.702   2.597  0.2091  0.0701  0.0461
    1DIPC   PO421398  11.107  14.658   2.303 -0.2255 -0.1301  0.1928
    1DIPC   GL121399  11.125  14.459   2.786  0.2919  0.0544  0.3423
    1DIPC   GL221400  11.131  14.774   2.857 -0.0780 -0.0005  0.1592
    1DIPC   C1A21401  11.163  14.139   3.228  0.1213 -0.2258  0.1350
    1DIPC   D2A21402  11.332  13.786   3.311  0.0502  0.2586  0.3204
    1DIPC   D3A21403  11.341  13.824   3.828 -0.3810  0.2253  0.3316
    1DIPC   C4A21404  11.447  14.151   4.095 -0.1759 -0.0499 -0.0296
    1DIPC   C1B21405  11.173  14.628   3.292 -0.1107  0.0452 -0.0982
    1DIPC   D2B21406  10.927  14.336   3.584  0.1070 -0.0005  0.0918
    1DIPC   D3B21407  10.474  14.574   3.551 -0.5066 -0.0397 -0.0443
    1DIPC   C4B21408  10.273  14.849   3.853  0.0607 -0.0461  0.0046
    1DIPC   NC321409   9.522  23.738   3.648 -0.3404 -0.0207 -0.0730
    1DIPC   PO421410   9.805  23.440   4.017  0.1759  0.0247  0.1798
    1DIPC   GL121411   9.710  23.741   4.409  0.1145  0.5071  0.0775
    1DIPC   GL221412  10.098  23.775   4.560  0.0531  0.1775 -0.1144
    1DIPC   C1A21413   9.535  23.586   4.843 -0.0583 -0.1790  0.0450
    1DIPC   D2A21414   9.548  23.581   5.311  0.2307  0.0929  0.1136
    1DIPC   D3A21415   9.225  23.992   5.216  0.0872  0.0321 -0.0258
    1DIPC   C4A21416   8.715  23.963   5.168  0.1353 -0.0809  0.1395
    1DIPC   C1B21417   9.856  23.921   4.945 -0.2556  0.2428 -0.0051
    1DIPC   D2B21418   9.993  23.855   5.381  0.0687  0.0668  0.0800
    1DIPC   D3B21419  10.192  24.097   5.606  0.0788  0.1426 -0.0622
    1DIPC   C4B21420  10.612  24.307   5.507  0.1789  0.2522  0.1169
    1DIPC   NC321421   7.099  12.108   1.713  0.3736  0.1681  0.0542
    1DIPC   PO421422   6.981  11.775   1.978 -0.0949  0.2194  0.0094
    1DIPC   GL121423   7.045  11.765   2.464  0.1015 -0.2099  0.0622
    1DIPC   GL221424   7.347  11.544   2.620 -0.2246  0.5798  0.2631
    1DIPC   C1A21425   7.096  12.022   2.859  0.2861 -0.1016  0.1259
    1DIPC   D2A21426   7.251  12.539   3.078  0.0381  0.1560 -0.1217
    1DIPC   D3A21427   7.155  12.648   3.425  0.1360  0.1774 -0.2186
    1DIPC   C4A21428   7.482  12.757   3.801  0.2638  0.0208 -0.3580
    1DIPC   C1B21429   7.472  11.914   2.610 -0.0481  0.1757  0.3504
    1DIPC   D2B21430   7.563  12.252   2.821 -0.0866 -0.1103 -0.3391
    1DIPC   D3B21431   7.320  12.461   2.540  0.0316 -0.1085  0.0416
    1DIPC   C4B21432   6.883  12.461   2.706 -0.0840  0.2107  0.0483
    1DIPC   NC321433   4.462  13.358   2.826 -0.0807 -0.0610 -0.1055
    1DIPC   PO421434   4.164  13.587   2.903  0.0905  0.1395  0.0873
    1DIPC   GL121435   4.472  13.484   3.285 -0.2704 -0.2222 -0.0765
    1DIPC   GL221436   4.779  13.671   3.168  0.1441 -0.0748  0.0571
    1DIPC   C1A21437   4.823  13.262   3.433 -0.0848  0.0276  0.2184
    1DIPC   D2A21438   4.943  12.850   3.503 -0.1742 -0.3032  0.2930
    1DIPC   D3A21439   5.052  12.679   3.987  0.0047 -0.0516  0.2656
    1DIPC   C4A21440   4.915  12.386   4.227 -0.1021  0.1272 -0.0906
    1DIPC   C1B21441   4.959  13.710   3.599  0.1323 -0.2789  0.4138
    1DIPC   D2B21442   5.148  14.116   3.764 -0.4248  0.2622  0.1856
    1DIPC   D3B21443   4.730  13.977   4.109  0.2060 -0.2151 -0.0435
    1DIPC   C4B21444   4.523  13.934   4.639 -0.2308 -0.0083  0.1813
    1DIPC   NC321445  20.607  18.477   2.656 -0.2084 -0.4203 -0.2657
    1DIPC   PO421446  20.115  18.532   2.702  0.3381 -0.1741 -0.3701
    1DIPC   GL121447  20.200  18.483   3.024  0.2150 -0.2219 -0.1623
    1DIPC   GL221448  20.292  18.832   3.142 -0.1155  0.2209 -0.1627
    1DIPC   C1A21449  20.147  18.255   3.488 -0.3179  0.0322 -0.1603
    1DIPC   D2A21450  20.380  17.907   3.660 -0.0515 -0.2905 -0.3152
    1DIPC   D3A21451  20.726  18.013   3.540  0.0853 -0.0787  0.0928
    1DIPC   C4A21452  20.584  18.416   3.338 -0.1903 -0.1387  0.1795
    1DIPC   C1B21453  20.184  18.757   3.533  0.0752  0.3329 -0.0867
    1DIPC   D2B21454  19.830  18.907   3.867  0.0348 -0.3486 -0.1560
    1DIPC   D3B21455  20.020  18.518   3.957 -0.1807 -0.1655  0.0483
    1DIPC   C4B21456  19.804  18.226   4.280 -0.2892  0.0884 -0.0655
    1DIPC   NC321457   1.507   9.167   2.866 -0.1175 -0.0074 -0.1414
    1DIPC   PO421458   1.525   8.747   3.153 -0.2125 -0.4730 -0.0994
    1DIPC   GL121459   1.471   8.685   3.649  0.1252  0.6591  0.0925
    1DIPC   GL221460   1.799   8.589   3.590  0.2015  0.0046 -0.2224
    1DIPC   C1A21461   1.402   8.685   3.973  0.4374 -0.0470  0.0661
    1DIPC   D2A21462   1.332   8.482   4.339  0.0884  0.1499 -0.0128
    1DIPC   D3A21463   1.597   8.901   4.389  0.2177  0.0170 -0.0985
    1DIPC   C4A21464   1.959   9.018   4.537 -0.1545 -0.0726  0.0937
    1DIPC   C1B21465   1.913   8.755   3.920 -0.0798 -0.0144  0.0162
    1DIPC   D2B21466   2.224   8.646   4.186  0.0133 -0.0665  0.4217
    1DIPC   D3B21467   2.736   8.809   4.303 -0.2517 -0.2674  0.2807
    1DIPC   C4B21468   2.919   8.550   4.696 -0.1441 -0.0798 -0.1492
    1DIPC   NC321469  13.954  19.589   2.738 -0.2151 -0.1139 -0.1156
    1DIPC   PO421470  13.990  20.083   2.723  0.1473 -0.0592  0.2677
    1DIPC   GL121471  14.066  19.990   3.185  0.0126 -0.2655  0.2134
    1DIPC   GL221472  13.710  20.195   3.268 -0.2002  0.1333  0.2007
    1DIPC   C1A21473  14.245  20.078   3.720 -0.0137  0.2195  0.1852
    1DIPC   D2A21474  14.553  20.422   3.896  0.1429  0.1022 -0.0086
    1DIPC   D3A21475  14.909  20.751   3.830  0.0898  0.1639  0.0819
    1DIPC   C4A21476  15.360  20.688   3.893 -0.4440 -0.0835 -0.1219
    1DIPC   C1B21477  13.440  20.099   3.560 -0.0372  0.5272 -0.0750
    1DIPC   D2B21478  13.345  19.854   3.956  0.0595  0.0556 -0.0801
    1DIPC   D3B21479  13.765  20.024   4.059 -0.0810 -0.0629 -0.2923
    1DIPC   C4B21480  14.055  19.797   4.294  0.0623 -0.0224  0.2255
    1DIPC   NC321481  19.717  13.557   1.893 -0.1887  0.0253 -0.2787
    1DIPC   PO421482  19.624  13.599   2.352 -0.0456 -0.1690  0.0979
    1DIPC   GL121483  19.598  13.497   2.840  0.1537  0.1003 -0.0739
    1DIPC   GL221484  19.428  13.301   3.061  0.0022 -0.1786 -0.3743
    1DIPC   C1A21485  19.867  13.537   3.152 -0.2018  0.4863  0.0664
    1DIPC   D2A21486  19.954  13.477   3.572 -0.0587  0.6082 -0.0760
    1DIPC   D3A21487  19.891  13.579   3.996  0.1023  0.1345  0.1846
    1DIPC   C4A21488  19.826  13.949   4.214 -0.1645  0.0489 -0.1056
    1DIPC   C1B21489  19.504  13.272   3.498 -0.0319 -0.1228  0.0170
    1DIPC   D2B21490  19.485  13.229   3.901  0.2478  0.0879 -0.1819
    1DIPC   D3B21491  19.433  12.827   4.086  0.2313 -0.1209 -0.1920
    1DIPC   C4B21492  19.317  12.759   4.513  0.1279  0.0217 -0.0490
    1DIPC   NC321493   1.011  22.795   3.791  0.2439  0.0245  0.0823
    1DIPC   PO421494   0.932  22.434   3.974  0.0237 -0.0491  0.0271
    1DIPC   GL121495   0.994  22.616   4.392  0.0444 -0.0859 -0.2355
    1DIPC   GL221496   1.141  22.910   4.274  0.0117  0.2330 -0.2273
    1DIPC   C1A21497   1.061  22.661   4.737 -0.1923 -0.0531  0.1620
    1DIPC   D2A21498   0.979  22.682   5.235  0.2588  0.1138 -0.1806
    1DIPC   D3A21499   1.138  22.955   5.545 -0.0688  0.0310 -0.0566
    1DIPC   C4A21500   1.074  22.883   5.940 -0.0216  0.2911 -0.4055
    1DIPC   C1B21501   1.426  23.151   4.703  0.2169 -0.1215  0.0781
    1DIPC   D2B21502   1.317  23.103   5.154 -0.1801  0.3428 -0.2608
    1DIPC   D3B21503   1.645  23.262   5.349  0.1306  0.0612 -0.1871
    1DIPC   C4B21504   1.509  23.207   5.825 -0.1996 -0.0571  0.1606
    1DIPC   NC321505  28.049  17.519   4.029 -0.1547 -0.0715  0.3924
    1DIPC   PO421506  28.016  17.149   4.133 -0.0553 -0.1007 -0.1556
    1DIPC   GL121507  27.962  17.201   4.578 -0.1676  0.1838 -0.3810
    1DIPC   GL221508  27.920  17.590   4.537  0.2312  0.3014 -0.4277
    1DIPC   C1A21509  27.987  17.284   4.948 -0.1361  0.3777 -0.0800
    1DIPC   D2A21510  27.878  17.169   5.402 -0.1993 -0.1284 -0.1412
    1DIPC   D3A21511  27.973  16.708   5.629  0.2303  0.2084 -0.2775
    1DIPC   C4A21512  28.398  16.728   5.815  0.0989  0.0182 -0.0675
    1DIPC   C1B21513  28.283  17.571   4.732  0.1293  0.1951 -0.1103
    1DIPC   D2B21514  28.463  17.619   5.098 -0.3373  0.0214 -0.1077
    1DIPC   D3B21515  28.098  17.626   5.266 -0.1871  0.0123  0.0341
    1DIPC   C4B21516  28.129  17.687   5.623  0.0705 -0.3707  0.0103
    1DIPC   NC321517  15.196  24.774   2.688  0.2631  0.3675  0.2668
    1DIPC   PO421518  15.010  25.014   2.986 -0.3574  0.2341 -0.0780
    1DIPC   GL121519  15.197  25.198   3.300 -0.0417 -0.1917  0.3341
    1DIPC   GL221520  14.960  25.512   3.373 -0.0564  0.2482 -0.2285
    1DIPC   C1A21521  15.212  25.269   3.755 -0.1255  0.1969 -0.1489
    1DIPC   D2A21522  15.190  25.003   4.055 -0.1620  0.1348  0.0068
    1DIPC   D3A21523  15.322  24.584   4.195  0.1243  0.0776  0.1557
    1DIPC   C4A21524  15.608  24.474   3.956 -0.4726  0.3262 -0.3120
    1DIPC   C1B21525  14.989  25.711   3.667  0.2307 -0.0951 -0.1199
    1DIPC   D2B21526  15.075  25.857   4.108 -0.0170  0.3505  0.0219
    1DIPC   D3B21527  14.868  25.536   4.372  0.1695  0.0904  0.0662
    1DIPC   C4B21528  14.940  25.691   4.722 -0.2326 -0.1236 -0.3154
    1DIPC   NC321529   9.754   5.875   2.349 -0.1580  0.1182 -0.2103
    1DIPC   PO421530   9.799   5.510   2.596  0.0218  0.1163 -0.0858
    1DIPC   GL121531   9.949   5.938   2.883  0.3476  0.1945  0.0527
    1DIPC   GL221532   9.666   5.837   3.146 -0.1731  0.4454  0.1291
    1DIPC   C1A21533  10.216   5.941   3.191  0.0012  0.1897 -0.0878
    1DIPC   D2A21534  10.596   5.779   3.251 -0.0435  0.2819  0.1929
    1DIPC   D3A21535  10.405   5.668   3.669 -0.2173 -0.5272  0.0886
    1DIPC   C4A21536  10.154   5.400   3.631 -0.2815 -0.0027 -0.0431
    1DIPC   C1B21537   9.673   5.523   3.516 -0.3334 -0.1380  0.1002
    1DIPC   D2B21538   9.819   5.414   4.007 -0.0176  0.0102 -0.1160
    1DIPC   D3B21539  10.002   5.838   3.938  0.0924 -0.1078  0.2428
    1DIPC   C4B21540   9.908   5.991   3.603 -0.1118 -0.0399  0.3048
    1DIPC   NC321541   3.504  24.122   3.520 -0.0073  0.0557 -0.0559
    1DIPC   PO421542   3.404  24.519   3.576  0.0843 -0.0251  0.0524
    1DIPC   GL121543   3.483  24.504   4.065 -0.2478  0.0525  0.1346
    1DIPC   GL221544   3.422  24.322   4.337 -0.2295 -0.1568 -0.1137
    1DIPC   C1A21545   3.178  24.750   4.279  0.1763 -0.0161  0.1673
    1DIPC   D2A21546   2.689  24.788   4.356  0.1846 -0.0714  0.1112
    1DIPC   D3A21547   2.349  25.026   4.623  0.0223  0.2554  0.1081
    1DIPC   C4A21548   2.447  25.223   5.012  0.0106 -0.0077  0.3176
    1DIPC   C1B21549   3.552  24.517   4.682  0.1240 -0.0041  0.4296
    1DIPC   D2B21550   3.377  24.915   4.941 -0.0923 -0.0710 -0.0679
    1DIPC   D3B21551   2.961  24.999   4.737  0.0049  0.1645 -0.0772
    1DIPC   C4B21552   2.638  24.718   4.917 -0.1142 -0.1237 -0.0261
    1DIPC   NC321553  25.322  13.444   3.444  0.0412 -0.0398  0.0430
    1DIPC   PO421554  25.029  13.262   3.718  0.0161 -0.0034 -0.0593
    1DIPC   GL121555  24.923  13.247   4.160  0.1014  0.2165  0.4046
    1DIPC   GL221556  25.140  13.039   4.239 -0.1940 -0.1440 -0.0813
    1DIPC   C1A21557  24.688  13.286   4.530 -0.1635 -0.2478 -0.1302
    1DIPC   D2A21558  24.664  13.539   4.912 -0.3597  0.2779  0.0189
    1DIPC   D3A21559  24.483  13.147   5.097 -0.2992 -0.1409 -0.3565
    1DIPC   C4A21560  24.139  13.009   5.193 -0.0112  0.1428  0.1689
    1DIPC   C1B21561  24.946  12.776   4.497 -0.0031  0.1833  0.1231
    1DIPC   D2B21562  24.538  12.757   4.718 -0.1414 -0.2304 -0.1222
    1DIPC   D3B21563  24.611  12.679   5.194  0.2418 -0.3707  0.0915
    1DIPC   C4B21564  24.949  12.799   5.391  0.0555  0.0278  0.0127
    1DIPC   NC321565  23.236  20.221   2.764 -0.0529 -0.5503  0.2147
    1DIPC   PO421566  22.889  20.117   3.167 -0.1047  0.2374 -0.1302
    1DIPC   GL121567  22.641  19.988   3.444 -0.0116 -0.6319  0.1594
    1DIPC   GL221568  22.320  20.153   3.567 -0.1449  0.4181 -0.0131
    1DIPC   C1A21569  22.748  19.803   3.804  0.2000  0.0024 -0.0090
    1DIPC   D2A21570  23.014  19.686   4.222  0.1830 -0.0875 -0.0304
    1DIPC   D3A21571  23.158  19.930   4.452  0.0571 -0.2941  0.2746
    1DIPC   C4A21572  23.254  20.291   4.301  0.1519  0.1013 -0.1235
    1DIPC   C1B21573  22.021  20.110   3.918 -0.4854 -0.0382 -0.1156
    1DIPC   D2B21574  22.024  20.174   4.350  0.3274  0.2475  0.0580
    1DIPC   D3B21575  22.287  19.695   4.207  0.0031 -0.0989 -0.0262
    1DIPC   C4B21576  22.296  19.655   3.697 -0.1972  0.1236 -0.0008
    1DIPC   NC321577   3.243  28.599   4.318 -0.1811  0.0013 -0.0804
    1DIPC   PO421578   3.183  28.186   4.255  0.1320 -0.0170  0.2270
    1DIPC   GL121579   3.309  28.211   4.703 -0.3123  0.1791  0.0201
    1DIPC   GL221580   3.394  27.928   4.677 -0.2381 -0.2849  0.6337
    1DIPC   C1A21581   3.010  28.382   5.030 -0.2423 -0.0402 -0.1037
    1DIPC   D2A21582   2.911  28.678   5.306  0.2149 -0.1990 -0.0717
    1DIPC   D3A21583   2.705  28.782   5.695 -0.3509 -0.0673 -0.2735
    1DIPC   C4A21584   2.771  28.481   6.087  0.2925 -0.1547  0.1578
    1DIPC   C1B21585   3.020  27.872   4.893  0.1652  0.1285 -0.0023
    1DIPC   D2B21586   2.769  28.066   5.293 -0.2201 -0.0641  0.1326
    1DIPC   D3B21587   3.006  28.325   5.635  0.3167 -0.3464 -0.0249
    1DIPC   C4B21588   3.409  28.204   5.773  0.2014 -0.0546 -0.0716
    1DIPC   NC321589   8.537   7.167   2.875  0.1501  0.0204  0.0612
    1DIPC   PO421590   8.228   7.582   2.746  0.0076  0.0271 -0.2286
    1DIPC   GL121591   8.314   7.626   3.224 -0.1578  0.0323  0.1107
    1DIPC   GL221592   8.132   7.389   3.422  0.0374 -0.1888  0.1168
    1DIPC   C1A21593   8.250   7.938   3.485 -0.1709  0.1510 -0.0175
    1DIPC   D2A21594   8.433   8.237   3.759 -0.0100 -0.0908 -0.1960
    1DIPC   D3A21595   8.415   7.795   3.908 -0.2861 -0.0045 -0.1518
    1DIPC   C4A21596   8.133   7.772   4.379  0.1148  0.1107 -0.0599
    1DIPC   C1B21597   8.062   7.421   3.885  0.3343  0.1618 -0.0873
    1DIPC   D2B21598   7.951   7.235   4.227 -0.2457  0.0158 -0.1583
    1DIPC   D3B21599   8.236   7.102   4.685  0.1699  0.0918  0.1467
    1DIPC   C4B21600   8.466   6.826   4.830 -0.2345  0.2302  0.1235
    1DIPC   NC321601   3.157   4.592   3.999 -0.0580 -0.3199  0.1625
    1DIPC   PO421602   2.936   4.269   3.940  0.1218 -0.1405  0.0757
    1DIPC   GL121603   3.020   4.285   4.346 -0.1878  0.2095  0.1596
    1DIPC   GL221604   2.879   4.221   4.555  0.0870 -0.2860 -0.0073
    1DIPC   C1A21605   2.983   4.697   4.650  0.0519  0.1707 -0.0404
    1DIPC   D2A21606   2.725   4.987   4.695 -0.3539 -0.1008  0.1195
    1DIPC   D3A21607   2.389   5.119   4.953 -0.0240  0.0453 -0.0930
    1DIPC   C4A21608   2.508   5.359   5.283  0.2879 -0.1178  0.2011
    1DIPC   C1B21609   2.960   4.264   4.961 -0.1377  0.0976  0.0668
    1DIPC   D2B21610   3.062   4.037   5.209  0.0002  0.0733 -0.0718
    1DIPC   D3B21611   2.584   4.088   5.253  0.1672 -0.0056  0.1630
    1DIPC   C4B21612   2.440   3.868   5.606  0.1725  0.0214 -0.0408
    1DIPC   NC321613   4.776  22.515   3.662 -0.1029  0.0786 -0.3118
    1DIPC   PO421614   4.541  22.159   3.442  0.2630 -0.0052  0.0643
    1DIPC   GL121615   4.213  22.024   3.755  0.1615  0.4670 -0.0894
    1DIPC   GL221616   3.988  21.871   3.670  0.0873  0.0583  0.0040
    1DIPC   C1A21617   4.192  21.934   4.171 -0.1555 -0.2120 -0.0276
    1DIPC   D2A21618   4.342  21.638   4.398 -0.0500 -0.0668  0.4686
    1DIPC   D3A21619   4.761  21.726   4.473  0.1992 -0.2113  0.0468
    1DIPC   C4A21620   5.052  21.698   4.835  0.0699 -0.2323  0.0381
    1DIPC   C1B21621   3.815  21.631   4.074 -0.0458  0.0452 -0.3963
    1DIPC   D2B21622   3.417  21.622   4.232  0.1817  0.1223 -0.1931
    1DIPC   D3B21623   3.552  21.477   4.618 -0.0919 -0.1558  0.1410
    1DIPC   C4B21624   3.914  21.299   4.469  0.1544  0.1340  0.1177
    1DIPC   NC321625  14.320  12.017   2.016  0.0188 -0.0356  0.1360
    1DIPC   PO421626  14.687  12.336   2.120  0.3904  0.0927  0.1082
    1DIPC   GL121627  15.000  12.436   2.472 -0.0750  0.0993 -0.0212
    1DIPC   GL221628  15.104  12.059   2.490  0.2284  0.3426  0.1063
    1DIPC   C1A21629  14.846  12.513   2.943 -0.1592 -0.0350 -0.2028
    1DIPC   D2A21630  14.854  12.564   3.339  0.0940 -0.1351 -0.1338
    1DIPC   D3A21631  15.201  12.343   3.661 -0.0244  0.1946  0.1310
    1DIPC   C4A21632  15.589  12.523   3.910 -0.0146 -0.2083 -0.2965
    1DIPC   C1B21633  14.846  11.909   2.894  0.0670 -0.1460 -0.2711
    1DIPC   D2B21634  14.507  12.144   3.142 -0.2432  0.2372 -0.1531
    1DIPC   D3B21635  14.269  11.801   3.352  0.0085  0.1381  0.0364
    1DIPC   C4B21636  14.113  11.693   3.834  0.2987  0.1718 -0.0961
    1DIPC   NC321637  23.159  22.861   3.559  0.1897  0.2368 -0.1511
    1DIPC   PO421638  22.724  22.928   3.474  0.1664  0.2439  0.0287
    1DIPC   GL121639  22.641  22.912   3.828  0.0515  0.1929  0.0428
    1DIPC   GL221640  22.359  22.966   3.804 -0.0544 -0.0523 -0.0567
    1DIPC   C1A21641  22.800  22.701   4.122  0.1958  0.0331 -0.1188
    1DIPC   D2A21642  22.860  22.356   4.388  0.1448  0.0463 -0.3564
    1DIPC   D3A21643  22.943  22.217   4.744  0.1679 -0.0654 -0.1552
    1DIPC   C4A21644  22.821  21.900   4.964  0.0838  0.4657  0.0361
    1DIPC   C1B21645  22.144  22.982   4.237 -0.0303 -0.3765  0.1888
    1DIPC   D2B21646  21.801  22.954   4.540 -0.4566  0.0523  0.1617
    1DIPC   D3B21647  21.926  23.301   4.861 -0.1243  0.2528  0.2377
    1DIPC   C4B21648  22.337  23.331   5.031 -0.0325  0.0976  0.1048
    1DIPC   NC321649   9.127  14.864   2.292 -0.2004  0.4988 -0.3555
    1DIPC   PO421650   9.218  14.500   2.419 -0.1189  0.2530 -0.1132
    1DIPC   GL121651   8.801  14.315   2.625 -0.0058 -0.2731 -0.0629
    1DIPC   GL221652   8.761  14.250   2.932  0.0800 -0.1820 -0.3923
    1DIPC   C1A21653   8.473  14.013   2.679  0.0735  0.1146 -0.1230
    1DIPC   D2A21654   8.463  13.544   2.933 -0.1097  0.1025 -0.0385
    1DIPC   D3A21655   8.007  13.684   2.941 -0.0647  0.0763 -0.0691
    1DIPC   C4A21656   7.591  13.841   2.753  0.2407 -0.0096 -0.0011
    1DIPC   C1B21657   8.389  14.155   3.140  0.0005  0.0546 -0.0781
    1DIPC   D2B21658   8.036  14.069   3.327  0.0227  0.3857  0.0122
    1DIPC   D3B21659   7.941  14.422   3.033 -0.1248 -0.0531  0.0340
    1DIPC   C4B21660   7.824  14.272   2.615  0.1789 -0.1586 -0.2465
    1DIPC   NC321661  27.177  13.309   3.485  0.3359  0.0324 -0.0883
    1DIPC   PO421662  27.324  13.455   3.921  0.2058  0.0339 -0.0287
    1DIPC   GL121663  27.165  13.492   4.352  0.1820  0.0286 -0.2377
    1DIPC   GL221664  26.790  13.583   4.355 -0.0765  0.2472  0.0834
    1DIPC   C1A21665  27.066  13.122   4.492  0.0737 -0.0249  0.3146
    1DIPC   D2A21666  26.839  12.777   4.365  0.0349 -0.1015  0.1789
    1DIPC   D3A21667  27.073  12.600   4.689 -0.2075 -0.0410  0.0693
    1DIPC   C4A21668  27.196  12.837   4.989  0.0528 -0.3850 -0.3320
    1DIPC   C1B21669  26.620  13.221   4.646 -0.0611 -0.0142 -0.0653
    1DIPC   D2B21670  26.712  12.878   4.879  0.2684  0.0292 -0.4137
    1DIPC   D3B21671  26.823  12.944   5.323 -0.0080  0.1039 -0.0929
    1DIPC   C4B21672  27.085  13.297   5.411  0.0749  0.1931  0.2930
    1DIPC   NC321673   6.313   4.088   3.972 -0.2197  0.1384  0.0815
    1DIPC   PO421674   5.894   3.905   4.076 -0.0421  0.1848 -0.0986
    1DIPC   GL121675   6.024   3.707   4.374 -0.4078  0.2299 -0.0685
    1DIPC   GL221676   5.704   3.463   4.402  0.0345  0.0478 -0.0069
    1DIPC   C1A21677   6.271   3.578   4.730  0.0113 -0.2494 -0.0599
    1DIPC   D2A21678   6.555   3.459   4.947 -0.1899 -0.0177  0.0151
    1DIPC   D3A21679   7.049   3.727   4.941  0.1413 -0.2167 -0.2404
    1DIPC   C4A21680   7.392   3.784   5.200  0.2530 -0.0892 -0.1169
    1DIPC   C1B21681   5.781   3.471   4.808 -0.0988  0.2315 -0.2280
    1DIPC   D2B21682   5.999   3.268   5.090 -0.0431 -0.1545 -0.0474
    1DIPC   D3B21683   6.223   3.644   5.325  0.0178 -0.0861 -0.1203
    1DIPC   C4B21684   6.690   3.602   5.458 -0.0770 -0.0544 -0.3104
    1DIPC   NC321685  16.355  21.332   2.866 -0.3239 -0.5287 -0.4120
    1DIPC   PO421686  16.647  21.304   3.112  0.2475 -0.1240  0.1699
    1DIPC   GL121687  16.612  21.184   3.576 -0.1130  0.0869  0.2541
    1DIPC   GL221688  16.883  21.148   3.655  0.0116  0.1685  0.1892
    1DIPC   C1A21689  16.502  21.132   4.006 -0.0602 -0.3212 -0.0928
    1DIPC   D2A21690  16.498  21.120   4.493  0.0360 -0.5279 -0.4008
    1DIPC   D3A21691  16.025  21.110   4.654 -0.1658  0.0250  0.2337
    1DIPC   C4A21692  16.028  21.265   5.098  0.0771  0.3283  0.1421
    1DIPC   C1B21693  16.827  21.488   3.999 -0.0802  0.0224  0.1773
    1DIPC   D2B21694  17.053  21.696   4.218  0.2565 -0.1451 -0.1680
    1DIPC   D3B21695  17.166  21.288   4.455 -0.1397 -0.1445  0.0806
    1DIPC   C4B21696  16.957  20.873   4.370  0.0150  0.0693  0.0441
    1DIPC   NC321697   2.914  16.587   3.578  0.1198 -0.2649  0.1219
    1DIPC   PO421698   2.704  16.178   3.500  0.2413 -0.1364 -0.0133
    1DIPC   GL121699   2.826  16.179   3.880  0.3086  0.1416 -0.0524
    1DIPC   GL221700   2.918  16.429   4.024 -0.0413  0.3056 -0.0555
    1DIPC   C1A21701   3.128  15.930   4.024 -0.0284 -0.1400  0.2908
    1DIPC   D2A21702   3.489  15.983   4.438  0.2166  0.1562  0.1739
    1DIPC   D3A21703   3.440  15.482   4.609  0.1291 -0.1009 -0.2040
    1DIPC   C4A21704   3.214  15.176   4.718  0.0347  0.1294 -0.2672
    1DIPC   C1B21705   2.938  16.186   4.411  0.0331 -0.0666  0.1765
    1DIPC   D2B21706   2.847  16.284   4.853  0.3066 -0.0946 -0.0742
    1DIPC   D3B21707   3.052  16.621   5.016 -0.0086 -0.0505  0.0475
    1DIPC   C4B21708   2.935  16.964   5.027 -0.2676  0.2527 -0.2590
    1DIPC   NC321709  25.180   2.605   3.188  0.1602  0.0115 -0.2911
    1DIPC   PO421710  24.948   2.216   3.189 -0.2084  0.1039  0.0182
    1DIPC   GL121711  24.926   2.146   3.555  0.2543  0.4867  0.1573
    1DIPC   GL221712  25.233   2.273   3.654  0.0031  0.0558  0.1290
    1DIPC   C1A21713  24.800   2.138   3.979 -0.2266 -0.1108 -0.1269
    1DIPC   D2A21714  24.812   2.105   4.383  0.1217 -0.1827 -0.0191
    1DIPC   D3A21715  24.850   2.142   4.844  0.0197  0.1075 -0.3248
    1DIPC   C4A21716  24.650   2.189   5.269 -0.2801 -0.1490  0.1149
    1DIPC   C1B21717  25.307   2.242   4.035 -0.0919 -0.1854 -0.1079
    1DIPC   D2B21718  25.621   2.118   4.334  0.3416  0.1215  0.0699
    1DIPC   D3B21719  25.425   2.147   4.677  0.0467  0.0676  0.2251
    1DIPC   C4B21720  25.298   2.065   5.128 -0.3135 -0.1590  0.1500
    1DIPC   NC321721   2.918  21.630   3.709 -0.1099  0.1746 -0.0681
    1DIPC   PO421722   2.730  22.027   3.902  0.0487  0.1875  0.2959
    1DIPC   GL121723   2.834  22.207   4.269  0.3997 -0.1694  0.0095
    1DIPC   GL221724   2.491  22.306   4.399 -0.2876 -0.1790 -0.1579
    1DIPC   C1A21725   3.085  22.376   4.556  0.2330 -0.1474  0.0017
    1DIPC   D2A21726   3.198  22.655   4.627 -0.0956  0.0999 -0.0526
    1DIPC   D3A21727   3.188  22.560   5.050  0.0528  0.0827 -0.1736
    1DIPC   C4A21728   3.415  22.653   5.435 -0.0764 -0.2133  0.1132
    1DIPC   C1B21729   2.168  22.175   4.795 -0.0427 -0.2388 -0.1058
    1DIPC   D2B21730   1.995  21.936   5.059  0.2533 -0.0955 -0.0423
    1DIPC   D3B21731   1.608  22.122   5.286 -0.0986 -0.1792  0.2666
    1DIPC   C4B21732   1.420  22.584   5.429 -0.2523 -0.1819 -0.2978
    1DIPC   NC321733   6.300  27.586   4.209 -0.2301  0.3152 -0.0039
    1DIPC   PO421734   5.863  27.833   4.044 -0.2321  0.0942 -0.2385
    1DIPC   GL121735   5.559  27.800   4.392 -0.1465  0.2114 -0.4247
    1DIPC   GL221736   5.652  27.553   4.525  0.0562  0.3547  0.3450
    1DIPC   C1A21737   5.172  27.732   4.534  0.0382 -0.1373 -0.0360
    1DIPC   D2A21738   4.913  27.754   4.911 -0.0698  0.0628 -0.2386
    1DIPC   D3A21739   5.144  28.037   5.003 -0.0116 -0.0201  0.0271
    1DIPC   C4A21740   5.502  27.819   4.958  0.2083  0.2122 -0.1417
    1DIPC   C1B21741   5.668  27.312   4.938 -0.0163  0.1648  0.1506
    1DIPC   D2B21742   5.684  27.405   5.407 -0.2983  0.1800  0.2230
    1DIPC   D3B21743   5.401  27.738   5.528 -0.1327  0.1580  0.1190
    1DIPC   C4B21744   5.018  27.861   5.507  0.1092 -0.2028 -0.4980
    1DIPC   NC321745   5.643  10.928   3.113  0.1854 -0.0139 -0.1067
    1DIPC   PO421746   5.282  10.729   3.093  0.0589 -0.3493  0.1443
    1DIPC   GL121747   5.397  10.778   3.560 -0.1895  0.0580 -0.3214
    1DIPC   GL221748   5.490  10.460   3.718 -0.2967  0.0925  0.2100
    1DIPC   C1A21749   5.481  10.915   3.944 -0.0305  0.0621  0.1518
    1DIPC   D2A21750   5.472  10.886   4.338  0.3031  0.0637 -0.0086
    1DIPC   D3A21751   5.141  11.005   4.501  0.0596  0.0520 -0.2577
    1DIPC   C4A21752   4.862  10.559   4.616  0.2053  0.2412  0.0391
    1DIPC   C1B21753   5.456  10.438   4.163  0.1727 -0.0213  0.3917
    1DIPC   D2B21754   5.353  10.258   4.596  0.0680 -0.1260  0.2067
    1DIPC   D3B21755   5.529  10.224   4.933 -0.2941 -0.0436 -0.0695
    1DIPC   C4B21756   5.494   9.881   5.073  0.4448  0.0215  0.0802
    1DIPC   NC321757  23.874  17.218   3.384  0.0797 -0.1302 -0.1923
    1DIPC   PO421758  23.865  17.630   3.259 -0.1486 -0.1000 -0.1178
    1DIPC   GL121759  23.940  17.722   3.638 -0.1604 -0.0058 -0.0398
    1DIPC   GL221760  23.766  17.535   3.783 -0.4253 -0.1707 -0.3295
    1DIPC   C1A21761  24.160  17.997   3.896  0.0003 -0.0287 -0.0428
    1DIPC   D2A21762  24.194  18.115   4.303  0.2185 -0.1360  0.1993
    1DIPC   D3A21763  23.876  18.273   4.711  0.0293 -0.3137 -0.1954
    1DIPC   C4A21764  23.730  18.711   4.600 -0.3874 -0.2708  0.1503
    1DIPC   C1B21765  23.835  17.737   4.150  0.1068  0.1915 -0.4266
    1DIPC   D2B21766  23.732  17.871   4.519 -0.0344  0.1452 -0.0701
    1DIPC   D3B21767  23.368  17.959   4.755 -0.0168  0.0153  0.0378
    1DIPC   C4B21768  23.191  17.668   5.092  0.3066 -0.3582 -0.1493
    1DIPC   NC321769  23.031   3.578   2.611 -0.3066  0.3291  0.0622
    1DIPC   PO421770  22.609   3.480   2.586  0.1483  0.2227 -0.1048
    1DIPC   GL121771  22.338   3.699   2.855 -0.1469  0.0000 -0.0631
    1DIPC   GL221772  22.278   3.503   3.166 -0.1392  0.0667  0.2664
    1DIPC   C1A21773  22.438   4.052   3.074  0.1737  0.1554  0.1632
    1DIPC   D2A21774  22.680   4.410   3.089 -0.1550 -0.3248  0.0138
    1DIPC   D3A21775  22.904   4.095   3.200 -0.3871  0.2059 -0.0560
    1DIPC   C4A21776  22.652   3.898   3.510  0.1118 -0.3848  0.3238
    1DIPC   C1B21777  22.279   3.380   3.557  0.0252  0.1707 -0.2113
    1DIPC   D2B21778  22.356   3.368   4.074 -0.0510  0.1994 -0.2823
    1DIPC   D3B21779  22.799   3.338   4.210 -0.1547 -0.1382 -0.2336
    1DIPC   C4B21780  22.964   3.145   4.516  0.1752 -0.0012  0.1509
    1DIPC   NC321781   0.023  23.201   3.763  0.2195 -0.2435  0.1642
    1DIPC   PO421782  -0.287  22.918   3.607 -0.0675  0.0469 -0.1878
    1DIPC   GL121783   0.007  22.788   4.003  0.1753 -0.4169 -0.1594
    1DIPC   GL221784   0.047  23.028   4.205 -0.2152 -0.0934  0.0026
    1DIPC   C1A21785  -0.144  22.370   4.205 -0.1048  0.0769 -0.1772
    1DIPC   D2A21786  -0.275  22.079   4.589 -0.0103  0.0393  0.1250
    1DIPC   D3A21787  -0.420  22.037   5.016 -0.3335  0.0060  0.3628
    1DIPC   C4A21788  -0.550  22.389   5.179 -0.0724  0.0170  0.0827
    1DIPC   C1B21789  -0.109  23.193   4.498  0.3194 -0.1260 -0.1965
    1DIPC   D2B21790  -0.233  23.271   4.877 -0.1393 -0.0518 -0.1733
    1DIPC   D3B21791  -0.177  23.667   5.082  0.0376 -0.3431 -0.0518
    1DIPC   C4B21792  -0.418  23.619   5.656 -0.0121 -0.3042  0.0356
    1DIPC   NC321793   0.786   0.891   3.443  0.0759 -0.1964 -0.3595
    1DIPC   PO421794   0.734   1.294   3.715  0.1032 -0.0002  0.0299
    1DIPC   GL121795   0.900   1.332   4.140  0.2977 -0.4397 -0.0241
    1DIPC   GL221796   1.199   1.130   4.303  0.2857 -0.1860 -0.2237
    1DIPC   C1A21797   0.757   1.437   4.431  0.0100  0.0044 -0.1441
    1DIPC   D2A21798   0.835   1.810   4.615 -0.2334 -0.1259 -0.0218
    1DIPC   D3A21799   1.306   1.912   4.555 -0.0528  0.1561  0.1423
    1DIPC   C4A21800   1.498   1.755   4.997  0.0244 -0.3080 -0.1209
    1DIPC   C1B21801   1.126   1.472   4.800 -0.1525 -0.0106  0.0490
    1DIPC   D2B21802   1.078   1.326   5.178 -0.1991  0.0875  0.1028
    1DIPC   D3B21803   1.472   1.410   5.357  0.2035 -0.0143 -0.1869
    1DIPC   C4B21804   1.558   1.789   5.689  0.0593 -0.1082 -0.0933
    1DIPC   NC321805  13.344  23.536   2.777 -0.1688 -0.2029 -0.0945
    1DIPC   PO421806  13.467  23.639   3.132 -0.1033  0.0844 -0.1382
    1DIPC   GL121807  13.539  23.807   3.585  0.0678  0.2431 -0.2522
    1DIPC   GL221808  13.593  24.148   3.522 -0.0627  0.0292  0.1019
    1DIPC   C1A21809  13.862  23.475   3.827 -0.0552 -0.0506 -0.0265
    1DIPC   D2A21810  13.812  23.020   3.777  0.0448  0.2103 -0.0097
    1DIPC   D3A21811  14.088  22.672   3.725  0.0828 -0.3483 -0.2604
    1DIPC   C4A21812  14.340  22.440   3.955 -0.2538  0.3876 -0.0646
    1DIPC   C1B21813  13.810  24.249   3.898 -0.0436 -0.3574  0.0701
    1DIPC   D2B21814  13.988  23.863   4.150 -0.0681  0.1505  0.0331
    1DIPC   D3B21815  13.603  23.789   4.093  0.0218  0.0873 -0.0675
    1DIPC   C4B21816  13.407  24.058   4.411  0.2618 -0.2101 -0.0640
    1DIPC   NC321817   3.373   7.910   3.536  0.1840  0.1035  0.1023
    1DIPC   PO421818   3.022   8.243   3.261 -0.4591  0.1078 -0.1447
    1DIPC   GL121819   3.008   8.239   3.749 -0.2139 -0.2967 -0.1619
    1DIPC   GL221820   3.243   8.385   3.923 -0.2797  0.1254 -0.0874
    1DIPC   C1A21821   2.737   8.419   4.018  0.1312 -0.1041  0.1246
    1DIPC   D2A21822   2.567   8.282   4.432  0.0480 -0.3815  0.0152
    1DIPC   D3A21823   2.388   8.577   4.675  0.3564  0.0191 -0.3378
    1DIPC   C4A21824   2.544   8.754   5.061  0.0629  0.2530 -0.1956
    1DIPC   C1B21825   3.215   8.576   4.306 -0.0256 -0.1844 -0.4012
    1DIPC   D2B21826   3.427   8.479   4.542 -0.0637 -0.0878  0.0361
    1DIPC   D3B21827   3.410   8.784   4.837  0.0772 -0.0417  0.1969
    1DIPC   C4B21828   3.563   8.427   5.142 -0.2174 -0.2407  0.0635
    1DIPC   NC321829  27.962  22.626   3.801 -0.0998  0.2366  0.2531
    1DIPC   PO421830  27.669  22.440   4.060  0.0778  0.1592 -0.0493
    1DIPC   GL121831  27.615  22.501   4.436  0.1010 -0.0887  0.3047
    1DIPC   GL221832  27.702  22.204   4.526  0.1327  0.0475 -0.1465
    1DIPC   C1A21833  27.435  22.483   4.828  0.2795  0.1999  0.3016
    1DIPC   D2A21834  27.427  22.620   5.237  0.2998  0.0628 -0.1406
    1DIPC   D3A21835  27.820  22.440   5.251  0.0816 -0.0839 -0.2333
    1DIPC   C4A21836  27.976  22.741   5.516 -0.2530  0.0087 -0.1444
    1DIPC   C1B21837  27.981  22.367   4.769  0.1845 -0.0100 -0.2461
    1DIPC   D2B21838  28.100  22.804   4.906  0.1766 -0.1744  0.2726
    1DIPC   D3B21839  27.677  22.905   4.895  0.2125 -0.1479 -0.0069
    1DIPC   C4B21840  27.423  23.220   4.794 -0.0773 -0.3301 -0.0453
    1DIPC   NC321841  14.745  22.209   3.042 -0.1261 -0.0710  0.0825
    1DIPC   PO421842  14.914  22.716   3.167  0.0934  0.2838 -0.1804
    1DIPC   GL121843  15.014  22.851   3.634 -0.2015 -0.2558  0.0060
    1DIPC   GL221844  14.739  22.996   3.742  0.0677 -0.3212  0.0573
    1DIPC   C1A21845  15.209  22.849   4.062  0.2065  0.1577 -0.0845
    1DIPC   D2A21846  15.369  22.553   4.271  0.1400 -0.2077 -0.0544
    1DIPC   D3A21847  15.588  22.676   4.686 -0.0998  0.2647  0.1158
    1DIPC   C4A21848  15.603  22.708   5.077 -0.0569 -0.5207 -0.1135
    1DIPC   C1B21849  14.697  22.957   4.070  0.1177 -0.1508 -0.0833
    1DIPC   D2B21850  14.566  23.142   4.546 -0.1424 -0.0975  0.0022
    1DIPC   D3B21851  14.182  23.462   4.401  0.0384  0.1442  0.3208
    1DIPC   C4B21852  13.865  23.547   4.618 -0.0238  0.1652 -0.2023
    1DIPC   NC321853  10.680  18.126   2.670 -0.0383  0.0754  0.0535
    1DIPC   PO421854  10.269  18.309   2.877 -0.0899 -0.0208 -0.0482
    1DIPC   GL121855  10.658  18.317   3.180  0.1925 -0.1765  0.0095
    1DIPC   GL221856  10.852  18.011   3.211  0.0911 -0.3275 -0.1093
    1DIPC   C1A21857  11.069  18.415   3.351 -0.3297  0.0690 -0.0514
    1DIPC   D2A21858  11.202  18.626   3.751  0.2569  0.4753  0.1182
    1DIPC   D3A21859  11.360  18.142   3.947 -0.0270 -0.1916 -0.1558
    1DIPC   C4A21860  11.692  17.887   3.753  0.0746  0.0555 -0.4057
    1DIPC   C1B21861  10.675  17.926   3.597 -0.3045  0.0557 -0.3918
    1DIPC   D2B21862  10.497  17.871   4.012  0.1460 -0.0392 -0.3172
    1DIPC   D3B21863  10.234  17.547   3.894  0.2026 -0.1084  0.0018
    1DIPC   C4B21864  10.327  17.502   3.503 -0.0755 -0.1609  0.0473
    1DIPC   NC321865   1.177  24.155   3.950  0.1054  0.1386  0.1081
    1DIPC   PO421866   0.836  24.293   4.118  0.0649  0.2537 -0.2359
    1DIPC   GL121867   1.060  23.813   4.310 -0.0454  0.3142  0.0258
    1DIPC   GL221868   0.855  23.613   4.338  0.1281 -0.1503 -0.1739
    1DIPC   C1A21869   1.394  23.545   4.406  0.1642  0.0509 -0.1024
    1DIPC   D2A21870   1.828  23.574   4.298 -0.1083  0.0972 -0.3460
    1DIPC   D3A21871   1.814  23.519   4.728  0.1339 -0.0002 -0.1038
    1DIPC   C4A21872   2.060  23.586   5.042  0.0211 -0.0507  0.2506
    1DIPC   C1B21873   0.936  23.392   4.672 -0.2994 -0.1373  0.0855
    1DIPC   D2B21874   0.819  23.122   4.903  0.1371 -0.0507  0.3215
    1DIPC   D3B21875   0.799  23.299   5.278  0.1497  0.1226  0.1113
    1DIPC   C4B21876   1.191  23.476   5.550  0.3272  0.3687 -0.1538
    1DIPC   NC321877   8.017  23.293   3.353  0.2704  0.1837  0.0885
    1DIPC   PO421878   8.088  22.885   3.685  0.0792  0.0670 -0.0489
    1DIPC   GL121879   7.952  22.746   4.057  0.0142 -0.0346 -0.1939
    1DIPC   GL221880   7.616  22.815   4.150  0.1295  0.1906  0.3342
    1DIPC   C1A21881   7.992  22.875   4.580 -0.0117  0.3431 -0.2279
    1DIPC   D2A21882   7.848  22.659   4.915  0.1760  0.3115 -0.0464
    1DIPC   D3A21883   7.647  23.033   4.937  0.4293  0.2484 -0.2326
    1DIPC   C4A21884   7.578  23.228   5.398 -0.3826 -0.0656 -0.2387
    1DIPC   C1B21885   7.758  22.492   4.418  0.1083  0.4439  0.0739
    1DIPC   D2B21886   7.812  22.185   4.768 -0.0723  0.0641 -0.1301
    1DIPC   D3B21887   8.019  22.251   5.146 -0.0854  0.2282  0.5458
    1DIPC   C4B21888   8.381  22.096   5.301 -0.2529  0.2743 -0.3351
    1DIPC   NC321889  10.155  22.445   3.386 -0.1743  0.1237  0.1376
    1DIPC   PO421890   9.740  22.465   3.610  0.0321 -0.1186 -0.3587
    1DIPC   GL121891   9.799  22.090   3.987  0.1148  0.2760  0.0802
    1DIPC   GL221892  10.038  21.915   4.075  0.1721  0.2774  0.0944
    1DIPC   C1A21893   9.795  22.088   4.460  0.1719  0.0404 -0.0771
    1DIPC   D2A21894   9.792  22.180   4.887  0.0850 -0.0798 -0.0095
    1DIPC   D3A21895   9.466  22.568   4.952  0.0387  0.2345  0.4099
    1DIPC   C4A21896   9.313  22.709   5.396 -0.1546  0.0385 -0.2026
    1DIPC   C1B21897  10.142  21.631   4.309  0.0850  0.0073  0.1538
    1DIPC   D2B21898  10.216  21.364   4.702  0.2248 -0.0022 -0.4458
    1DIPC   D3B21899  10.709  21.234   4.794  0.0623  0.0438  0.3368
    1DIPC   C4B21900  10.987  21.313   5.222 -0.2855  0.1221 -0.0870
    1DIPC   NC321901  20.351  12.968   2.490 -0.3508 -0.0082 -0.0545
    1DIPC   PO421902  20.629  12.680   2.710 -0.0865 -0.1244  0.1026
    1DIPC   GL121903  20.361  12.442   2.858  0.3127 -0.4610  0.0411
    1DIPC   GL221904  20.076  12.694   2.981 -0.5000 -0.1816  0.4051
    1DIPC   C1A21905  19.779  12.339   2.981 -0.3862  0.1969 -0.2252
    1DIPC   D2A21906  19.413  12.182   3.046 -0.2948  0.1096  0.0482
    1DIPC   D3A21907  19.423  12.394   3.452 -0.0022  0.1651  0.1589
    1DIPC   C4A21908  19.399  12.770   3.377 -0.0632 -0.2425  0.0717
    1DIPC   C1B21909  20.069  12.464   3.388  0.1060  0.0838 -0.0499
    1DIPC   D2B21910  20.200  12.546   3.851  0.1680 -0.3717 -0.1032
    1DIPC   D3B21911  20.035  12.318   4.120  0.1032  0.0875  0.0313
    1DIPC   C4B21912  19.727  12.506   4.456 -0.2343 -0.0064 -0.1501
    1DIPC   NC321913   6.999   1.358   3.853 -0.2954 -0.0382  0.0631
    1DIPC   PO421914   6.750   1.082   4.060  0.4837  0.4008 -0.1401
    1DIPC   GL121915   6.824   0.935   4.507 -0.0647  0.4227 -0.2164
    1DIPC   GL221916   6.642   0.609   4.609 -0.2711  0.2403 -0.5123
    1DIPC   C1A21917   6.794   0.968   4.993 -0.2304  0.1383 -0.2865
    1DIPC   D2A21918   6.775   0.823   5.472 -0.1439 -0.1340  0.0364
    1DIPC   D3A21919   7.103   0.647   5.794  0.0938 -0.0294 -0.2021
    1DIPC   C4A21920   7.296   0.336   5.567 -0.2180  0.2280 -0.1391
    1DIPC   C1B21921   6.783   0.465   4.998 -0.1342 -0.1024 -0.2001
    1DIPC   D2B21922   6.774   0.278   5.387  0.0502  0.0119 -0.2397
    1DIPC   D3B21923   6.632   0.392   5.817  0.2642 -0.1382  0.2704
    1DIPC   C4B21924   6.934   0.333   6.146  0.2056 -0.2380 -0.1432
    1DIPC   NC321925  10.560  27.214   3.033 -0.0374 -0.0906  0.0208
    1DIPC   PO421926  10.207  27.076   3.169  0.2391  0.1165 -0.1500
    1DIPC   GL121927  10.193  26.996   3.643  0.1763  0.0369 -0.0497
    1DIPC   GL221928  10.129  26.714   3.907  0.1592 -0.0540 -0.0625
    1DIPC   C1A21929  10.265  27.124   4.094  0.1454 -0.0890 -0.0810
    1DIPC   D2A21930  10.312  27.245   4.497 -0.0701  0.0462  0.1208
    1DIPC   D3A21931  10.467  27.131   4.908 -0.1704  0.4006  0.1923
    1DIPC   C4A21932  10.515  27.525   5.106 -0.0858  0.4657 -0.2321
    1DIPC   C1B21933   9.721  26.519   4.257 -0.0745  0.1061 -0.1239
    1DIPC   D2B21934   9.742  26.432   4.758  0.0659 -0.0643 -0.2415
    1DIPC   D3B21935  10.010  26.283   4.619 -0.0307  0.1500 -0.3964
    1DIPC   C4B21936   9.884  25.995   4.211 -0.1587  0.0838  0.0743
    1DIPC   NC321937  15.775  20.029   2.880  0.1305  0.1102  0.0186
    1DIPC   PO421938  15.474  19.691   2.867 -0.2882  0.1441  0.0983
    1DIPC   GL121939  15.248  19.572   3.259 -0.0085  0.2512  0.0674
    1DIPC   GL221940  15.273  19.283   3.472 -0.1781 -0.3657  0.2435
    1DIPC   C1A21941  15.141  19.796   3.662 -0.1717  0.2030  0.0162
    1DIPC   D2A21942  15.108  19.641   4.188  0.0794  0.3571 -0.0617
    1DIPC   D3A21943  15.154  19.298   4.563  0.0568 -0.2837 -0.0028
    1DIPC   C4A21944  14.785  18.963   4.641  0.1669 -0.1505  0.1750
    1DIPC   C1B21945  15.338  19.401   3.864  0.0913 -0.1491 -0.1011
    1DIPC   D2B21946  15.421  19.136   4.213 -0.0836  0.1096 -0.1271
    1DIPC   D3B21947  15.800  19.155   4.490  0.3328 -0.3127 -0.2420
    1DIPC   C4B21948  16.062  18.819   4.340  0.0475  0.0497 -0.1177
    1DIPC   NC321949  13.074  12.561   2.323 -0.1854  0.2879  0.0405
    1DIPC   PO421950  13.083  12.262   2.069 -0.1173 -0.0704  0.1738
    1DIPC   GL121951  13.264  12.025   2.380  0.0901  0.2458 -0.1939
    1DIPC   GL221952  13.469  12.342   2.483  0.0003 -0.1212  0.1641
    1DIPC   C1A21953  13.460  11.966   2.759  0.1808  0.2768 -0.1375
    1DIPC   D2A21954  13.399  12.044   3.154  0.0384 -0.2181 -0.0726
    1DIPC   D3A21955  13.768  11.884   3.448  0.2029 -0.0235  0.0514
    1DIPC   C4A21956  13.645  11.629   3.873 -0.2848  0.0114  0.3542
    1DIPC   C1B21957  13.658  12.528   2.864 -0.1717  0.1073 -0.2100
    1DIPC   D2B21958  13.981  12.299   3.172 -0.0210  0.1537 -0.2770
    1DIPC   D3B21959  14.196  12.305   3.505 -0.0454 -0.2765  0.4226
    1DIPC   C4B21960  14.458  12.680   3.652 -0.0641  0.0765  0.2335
    1DIPC   NC321961  18.141  14.396   2.582 -0.1825 -0.1892  0.0919
    1DIPC   PO421962  18.568  14.430   2.535  0.0183 -0.0443  0.0366
    1DIPC   GL121963  18.560  14.418   2.883 -0.0626 -0.0450 -0.1694
    1DIPC   GL221964  18.515  14.080   2.892 -0.0958  0.0210  0.1269
    1DIPC   C1A21965  18.824  14.442   3.158 -0.0985  0.1771 -0.0607
    1DIPC   D2A21966  19.205  14.300   3.450 -0.4315  0.0691 -0.2343
    1DIPC   D3A21967  19.041  14.360   3.794  0.1087 -0.2550  0.1815
    1DIPC   C4A21968  18.964  14.418   4.303  0.0329 -0.2085  0.3113
    1DIPC   C1B21969  18.449  14.066   3.324  0.0463  0.2287  0.0259
    1DIPC   D2B21970  18.225  14.013   3.601 -0.1853  0.2682  0.2421
    1DIPC   D3B21971  17.918  14.232   3.445 -0.1543 -0.2226  0.0002
    1DIPC   C4B21972  18.167  14.627   3.409  0.1795  0.4379 -0.1897
    1DIPC   NC321973   5.141   4.854   3.249  0.0266 -0.0910 -0.1075
    1DIPC   PO421974   5.083   4.557   3.535  0.1139  0.3198  0.2118
    1DIPC   GL121975   5.288   4.780   3.998 -0.4939 -0.0130 -0.0153
    1DIPC   GL221976   5.091   5.062   4.232  0.3025 -0.0081  0.2008
    1DIPC   C1A21977   5.495   4.586   4.419  0.1867 -0.0366  0.0322
    1DIPC   D2A21978   5.456   4.311   4.689 -0.3229 -0.0975 -0.2499
    1DIPC   D3A21979   5.711   4.046   4.598  0.0319 -0.1493  0.1211
    1DIPC   C4A21980   5.968   3.880   4.963  0.2172 -0.1450  0.2688
    1DIPC   C1B21981   5.181   4.946   4.721  0.0383 -0.0367  0.1357
    1DIPC   D2B21982   5.396   4.719   4.939 -0.2176  0.2267  0.0190
    1DIPC   D3B21983   5.129   5.004   5.257  0.3231 -0.0961 -0.1193
    1DIPC   C4B21984   4.978   5.473   5.159  0.1051 -0.0411 -0.1414
    1DIPC   NC321985  18.914  22.680   2.367 -0.0544 -0.1611  0.2264
    1DIPC   PO421986  19.253  22.819   2.756  0.2806 -0.2059 -0.1312
    1DIPC   GL121987  19.341  22.994   3.238  0.0823  0.2788  0.2673
    1DIPC   GL221988  19.292  23.208   3.461  0.1939  0.2147 -0.1390
    1DIPC   C1A21989  19.315  22.577   3.464 -0.2317  0.1451 -0.0905
    1DIPC   D2A21990  19.493  22.214   3.566  0.0171  0.1304 -0.0843
    1DIPC   D3A21991  19.749  21.853   3.713 -0.2375  0.1752 -0.1650
    1DIPC   C4A21992  19.707  21.392   3.513  0.1223 -0.1689  0.1651
    1DIPC   C1B21993  19.403  22.919   3.877  0.5111 -0.0606  0.0657
    1DIPC   D2B21994  19.606  22.901   4.248  0.0141 -0.2871  0.2350
    1DIPC   D3B21995  19.814  22.474   4.379 -0.1593 -0.2400  0.1302
    1DIPC   C4B21996  19.659  22.177   4.722  0.1215 -0.1360  0.1913
    1DIPC   NC321997  11.294  24.505   3.495 -0.0681 -0.1707 -0.0798
    1DIPC   PO421998  11.642  24.339   3.316  0.1281  0.2476  0.2663
    1DIPC   GL121999  11.557  24.201   3.723  0.1991  0.2143  0.0495
    1DIPC   GL222000  11.368  23.895   3.874  0.1391 -0.1664  0.2809
    1DIPC   C1A22001  11.525  24.252   4.220 -0.0693  0.0836 -0.1700
    1DIPC   D2A22002  11.643  24.172   4.685 -0.1300 -0.1068 -0.0726
    1DIPC   D3A22003  11.542  24.607   4.958 -0.0493 -0.1140 -0.0924
    1DIPC   C4A22004  11.112  24.736   5.205  0.0213 -0.1916 -0.3081
    1DIPC   C1B22005  11.793  23.831   4.031  0.0397  0.2990 -0.1205
    1DIPC   D2B22006  12.000  23.942   4.430  0.1648 -0.0457  0.0718
    1DIPC   D3B22007  12.208  23.590   4.511 -0.0770 -0.0719 -0.0342
    1DIPC   C4B22008  12.380  23.584   4.192 -0.1813 -0.1925 -0.0250
    1DIPC   NC322009   0.556  18.862   3.671  0.2512  0.0043  0.4146
    1DIPC   PO422010   0.596  19.294   3.738 -0.1359  0.0073  0.1488
    1DIPC   GL122011   0.582  19.342   4.243  0.0403 -0.2367 -0.3653
    1DIPC   GL222012   0.752  19.673   4.338 -0.1610  0.3435  0.2062
    1DIPC   C1A22013   0.643  19.204   4.632 -0.0628 -0.0091  0.2531
    1DIPC   D2A22014   0.942  18.957   4.979  0.0362 -0.1298  0.0599
    1DIPC   D3A22015   1.157  19.199   4.724  0.2686 -0.1124  0.1500
    1DIPC   C4A22016   1.459  19.306   4.936  0.1324  0.0921  0.0423
    1DIPC   C1B22017   0.872  19.609   4.840  0.3787  0.1249  0.2125
    1DIPC   D2B22018   1.029  19.407   5.197 -0.1046 -0.0826  0.0175
    1DIPC   D3B22019   0.878  19.012   5.505  0.1590 -0.1486  0.3333
    1DIPC   C4B22020   0.439  19.012   5.656  0.2886  0.0047 -0.2348
    1DIPC   NC322021  17.337  14.999   2.782 -0.1501 -0.0111 -0.0773
    1DIPC   PO422022  16.980  15.227   2.515  0.2271  0.0885 -0.0287
    1DIPC   GL122023  16.898  14.968   2.907 -0.1626 -0.1857 -0.0319
    1DIPC   GL222024  16.938  15.185   3.122 -0.0441 -0.1329 -0.2165
    1DIPC   C1A22025  16.869  14.619   3.208 -0.0520 -0.0415  0.0085
    1DIPC   D2A22026  17.065  14.525   3.702 -0.2183 -0.1043  0.0691
    1DIPC   D3A22027  17.286  14.691   4.101 -0.0764  0.1198  0.0884
    1DIPC   C4A22028  17.723  14.442   4.198  0.0807  0.0901 -0.2713
    1DIPC   C1B22029  17.069  14.995   3.524  0.1327 -0.1148 -0.0498
    1DIPC   D2B22030  17.398  15.040   3.772  0.0308  0.2417  0.0371
    1DIPC   D3B22031  17.303  15.350   3.861  0.2759 -0.0827  0.1273
    1DIPC   C4B22032  17.532  15.749   3.987  0.0370 -0.1944 -0.0584
    1DIPC   NC322033  18.802   3.907   2.337  0.2341 -0.0903 -0.0107
    1DIPC   PO422034  19.081   3.711   2.086  0.0278 -0.2050  0.0479
    1DIPC   GL122035  18.895   3.344   2.414 -0.2463 -0.1276  0.2325
    1DIPC   GL222036  18.632   3.308   2.257  0.0455  0.1758 -0.0504
    1DIPC   C1A22037  18.829   3.223   2.855  0.0429  0.0083  0.0680
    1DIPC   D2A22038  18.447   3.281   3.057 -0.0683 -0.0880  0.1299
    1DIPC   D3A22039  18.028   3.529   2.898  0.3243  0.2052  0.0811
    1DIPC   C4A22040  17.955   3.534   2.488 -0.3378  0.2477 -0.0508
    1DIPC   C1B22041  18.421   3.450   2.595  0.1168  0.2336 -0.2694
    1DIPC   D2B22042  18.699   3.682   2.780 -0.3654  0.3087 -0.2765
    1DIPC   D3B22043  18.943   3.679   3.117  0.0279  0.1353 -0.0626
    1DIPC   C4B22044  18.862   3.978   3.184  0.0900  0.1608  0.3282
    1DIPC   NC322045   0.823  21.529   3.781  0.0500 -0.0229 -0.0048
    1DIPC   PO422046   0.983  21.612   3.990 -0.1069 -0.1189 -0.0103
    1DIPC   GL122047   0.784  21.721   4.298 -0.0990 -0.3394 -0.0448
    1DIPC   GL222048   0.911  22.003   4.319  0.1857 -0.2371 -0.1407
    1DIPC   C1A22049   0.567  21.751   4.611 -0.0862  0.1379  0.0140
    1DIPC   D2A22050   0.349  21.959   5.015 -0.1446  0.0684  0.1623
    1DIPC   D3A22051   0.582  21.667   5.228  0.0894 -0.1964  0.0973
    1DIPC   C4A22052   0.946  21.782   5.603 -0.0833 -0.2912  0.3858
    1DIPC   C1B22053   0.779  22.183   4.768  0.1010  0.2449 -0.1673
    1DIPC   D2B22054   0.663  22.312   5.166 -0.1341  0.0016  0.4070
    1DIPC   D3B22055   0.366  22.356   5.396 -0.2715 -0.2718 -0.3039
    1DIPC   C4B22056   0.557  22.145   5.752 -0.0861 -0.4042 -0.5092
    1DIPC   NC322057   5.788  17.273   3.164  0.0185  0.2729  0.1030
    1DIPC   PO422058   6.208  17.216   3.027  0.2693 -0.0241 -0.1543
    1DIPC   GL122059   6.471  17.107   3.282  0.1489 -0.2101  0.1343
    1DIPC   GL222060   6.353  16.760   3.257  0.0414  0.1790 -0.0780
    1DIPC   C1A22061   6.600  17.011   3.631  0.0849 -0.1842 -0.1713
    1DIPC   D2A22062   6.734  17.043   4.015 -0.1382  0.0294 -0.3634
    1DIPC   D3A22063   7.130  16.977   4.178 -0.0246 -0.1911  0.0196
    1DIPC   C4A22064   7.561  17.211   4.190  0.1074 -0.1872  0.0432
    1DIPC   C1B22065   6.566  16.486   3.574 -0.2657  0.1485  0.0985
    1DIPC   D2B22066   6.720  16.511   3.981  0.1597 -0.2712 -0.0945
    1DIPC   D3B22067   6.833  16.146   3.809 -0.0697 -0.1155 -0.0690
    1DIPC   C4B22068   7.171  16.066   3.936 -0.0191  0.1693  0.0570
    1DIPC   NC322069  15.424  12.551   2.174  0.2172 -0.3807  0.0052
    1DIPC   PO422070  15.597  12.942   2.284  0.1715 -0.0156 -0.0088
    1DIPC   GL122071  15.638  12.920   2.694 -0.2396 -0.0862 -0.2206
    1DIPC   GL222072  15.548  13.219   2.803  0.0465  0.0844 -0.0724
    1DIPC   C1A22073  15.630  12.723   3.075  0.2926 -0.2475  0.2777
    1DIPC   D2A22074  15.403  12.658   3.371 -0.3957 -0.1575  0.1105
    1DIPC   D3A22075  15.094  13.031   3.264 -0.2097  0.0431 -0.3094
    1DIPC   C4A22076  15.285  13.299   3.274 -0.1335 -0.2207  0.2611
    1DIPC   C1B22077  15.718  13.171   3.203  0.0343 -0.2012  0.2037
    1DIPC   D2B22078  15.616  13.043   3.612 -0.3440  0.0608  0.0148
    1DIPC   D3B22079  16.039  12.773   3.647  0.0878  0.0533 -0.1985
    1DIPC   C4B22080  16.390  12.940   3.658 -0.4777  0.1260 -0.3498
    1DIPC   NC322081  17.621  19.853   2.010  0.1212 -0.0750  0.5332
    1DIPC   PO422082  17.339  19.774   2.354  0.1465  0.2046  0.0326
    1DIPC   GL122083  17.549  19.504   2.814  0.2397 -0.0400  0.3957
    1DIPC   GL222084  17.288  19.432   2.959 -0.0541  0.1055 -0.1466
    1DIPC   C1A22085  17.700  19.701   3.144 -0.2939 -0.0288 -0.0114
    1DIPC   D2A22086  17.484  19.638   3.562  0.0341  0.0492  0.2542
    1DIPC   D3A22087  17.382  19.323   3.852 -0.1248  0.0702  0.1439
    1DIPC   C4A22088  17.073  19.288   4.144  0.0379  0.0756  0.3462
    1DIPC   C1B22089  17.117  19.452   3.329  0.2810  0.0922  0.1970
    1DIPC   D2B22090  17.045  19.784   3.359  0.0896  0.1703 -0.1333
    1DIPC   D3B22091  16.666  19.765   3.466 -0.4382 -0.2286 -0.0175
    1DIPC   C4B22092  16.761  19.379   3.752  0.0532 -0.0746 -0.2138
    1DIPC   NC322093  24.862   9.928   2.329  0.2039  0.3481 -0.0021
    1DIPC   PO422094  24.674   9.627   2.748  0.1609  0.1748  0.0508
    1DIPC   GL122095  24.154   9.500   2.904 -0.1061 -0.3518 -0.2060
    1DIPC   GL222096  24.209   9.650   3.217 -0.1568 -0.2092  0.1505
    1DIPC   C1A22097  23.734   9.716   2.958 -0.4286 -0.1507 -0.0717
    1DIPC   D2A22098  23.489   9.928   3.221 -0.0513 -0.3104 -0.0990
    1DIPC   D3A22099  23.105  10.046   3.187  0.0880 -0.3845 -0.0963
    1DIPC   C4A22100  22.960  10.461   3.260  0.1687 -0.2324  0.0446
    1DIPC   C1B22101  23.961   9.881   3.537  0.1759 -0.0919  0.1490
    1DIPC   D2B22102  23.682   9.831   3.885  0.1047  0.2792 -0.1785
    1DIPC   D3B22103  24.173   9.956   3.979 -0.0690 -0.1426 -0.0482
    1DIPC   C4B22104  24.575   9.962   3.706  0.2607 -0.2170 -0.2294
    1DIPC   NC322105  16.907  23.650   2.897 -0.1734 -0.2485 -0.1502
    1DIPC   PO422106  17.274  23.637   2.594 -0.2717  0.2271  0.0212
    1DIPC   GL122107  17.386  23.646   3.094  0.1561 -0.2935 -0.0907
    1DIPC   GL222108  17.483  23.595   3.095 -0.5766  0.2142  0.1028
    1DIPC   C1A22109  17.622  23.853   3.454  0.0032 -0.1867  0.1270
    1DIPC   D2A22110  17.675  23.691   3.782 -0.2936  0.0733 -0.0737
    1DIPC   D3A22111  17.243  23.744   3.763 -0.1443  0.0987  0.0052
    1DIPC   C4A22112  17.381  23.874   4.179  0.0825 -0.1458  0.0432
    1DIPC   C1B22113  17.857  23.407   3.236  0.4221 -0.1901  0.0016
    1DIPC   D2B22114  17.909  23.212   3.702 -0.1249 -0.0072  0.4400
    1DIPC   D3B22115  17.461  23.186   3.938 -0.2491  0.3508  0.2774
    1DIPC   C4B22116  17.379  22.972   4.316 -0.4091  0.1163 -0.2332
    1DIPC   NC322117  10.253   7.381   2.031  0.0942  0.0736 -0.2312
    1DIPC   PO422118  10.112   7.248   2.454 -0.1639  0.1885 -0.2383
    1DIPC   GL122119  10.398   7.316   2.798 -0.0164 -0.2710  0.3020
    1DIPC   GL222120  10.301   7.035   3.018 -0.1403 -0.0918  0.4105
    1DIPC   C1A22121  10.490   7.422   3.254 -0.4545 -0.1538  0.0933
    1DIPC   D2A22122  10.462   7.664   3.521  0.0714 -0.1584  0.2129
    1DIPC   D3A22123  10.592   7.855   3.876 -0.0230 -0.2932  0.0318
    1DIPC   C4A22124  10.187   7.879   4.155 -0.1319  0.0448  0.2289
    1DIPC   C1B22125  10.727   7.028   3.066 -0.0122 -0.0493  0.1596
    1DIPC   D2B22126  10.946   7.087   3.401 -0.0482  0.0604  0.0493
    1DIPC   D3B22127  10.645   7.197   3.649  0.0542 -0.1578  0.0371
    1DIPC   C4B22128  10.893   7.487   3.964  0.0584 -0.2771  0.0596
    1DIPC   NC322129  23.944  14.523   3.005 -0.0970  0.1352 -0.1877
    1DIPC   PO422130  24.334  14.425   3.255 -0.1047  0.1154 -0.0763
    1DIPC   GL122131  24.255  14.668   3.715  0.0767 -0.0731 -0.2171
    1DIPC   GL222132  24.230  14.954   3.693  0.1032 -0.2655  0.3441
    1DIPC   C1A22133  23.860  14.637   4.021  0.3416 -0.0000  0.3011
    1DIPC   D2A22134  23.490  14.730   4.272  0.0440  0.1215 -0.0397
    1DIPC   D3A22135  23.227  14.432   4.559  0.0792 -0.2874  0.0141
    1DIPC   C4A22136  23.054  14.287   4.867  0.2304  0.1296 -0.3538
    1DIPC   C1B22137  23.879  15.173   4.062 -0.1224  0.1143  0.0790
    1DIPC   D2B22138  23.780  15.104   4.393 -0.1570 -0.1412 -0.1696
    1DIPC   D3B22139  23.602  15.400   4.527  0.0694  0.3303  0.4408
    1DIPC   C4B22140  23.610  15.800   4.668  0.0485  0.2796 -0.1117
    1DIPC   NC322141  22.659   8.581   2.015 -0.0714  0.3092 -0.1719
    1DIPC   PO422142  22.754   8.578   2.478  0.1259  0.0278  0.0080
    1DIPC   GL122143  22.791   8.608   2.918 -0.2553  0.0630  0.3213
    1DIPC   GL222144  22.925   9.011   2.973 -0.0041  0.0582 -0.1251
    1DIPC   C1A22145  22.642   8.741   3.297  0.2984  0.2402 -0.0969
    1DIPC   D2A22146  22.805   8.638   3.649 -0.0902  0.2484  0.0413
    1DIPC   D3A22147  22.460   8.833   3.788  0.0017  0.1961 -0.3974
    1DIPC   C4A22148  22.020   8.603   3.787 -0.1583 -0.2201  0.0700
    1DIPC   C1B22149  22.620   9.265   3.252 -0.3477  0.0213  0.4396
    1DIPC   D2B22150  22.476   9.312   3.637  0.1210 -0.0859  0.1957
    1DIPC   D3B22151  22.521   9.633   3.866 -0.4035  0.1794 -0.0739
    1DIPC   C4B22152  22.789   9.920   3.947  0.0016 -0.3035  0.0263
    1DIPC   NC322153  26.359  10.691   2.850  0.3551 -0.3512 -0.0819
    1DIPC   PO422154  26.524  10.387   3.104  0.4641  0.0471 -0.0957
    1DIPC   GL122155  26.459  10.514   3.501 -0.1102  0.1674 -0.0038
    1DIPC   GL222156  26.457  10.720   3.703  0.0429 -0.2649  0.1642
    1DIPC   C1A22157  26.078  10.358   3.844 -0.0791  0.1564 -0.1997
    1DIPC   D2A22158  25.905  10.537   4.133 -0.0932 -0.1736 -0.0034
    1DIPC   D3A22159  25.599  10.522   3.805 -0.1514 -0.0889 -0.1559
    1DIPC   C4A22160  25.259  10.601   4.022  0.0827 -0.2994  0.3869
    1DIPC   C1B22161  26.304  10.837   4.130 -0.0037 -0.2074  0.4899
    1DIPC   D2B22162  26.075  10.874   4.544 -0.1325 -0.2642  0.0713
    1DIPC   D3B22163  26.256  10.448   4.515  0.0622  0.0743  0.2205
    1DIPC   C4B22164  26.683  10.252   4.662 -0.0706  0.1710 -0.1579
    1DIPC   NC322165   2.107  24.617   3.007 -0.0377 -0.0473  0.1703
    1DIPC   PO422166   1.903  24.473   3.349 -0.0026  0.2732  0.0871
    1DIPC   GL122167   2.067  24.286   3.790 -0.2433  0.1926  0.0956
    1DIPC   GL222168   2.341  24.448   4.073 -0.1102 -0.2403  0.1542
    1DIPC   C1A22169   2.207  23.897   4.154 -0.0222  0.2158  0.2200
    1DIPC   D2A22170   2.225  23.855   4.555 -0.0172 -0.0480  0.0179
    1DIPC   D3A22171   2.500  23.911   4.887  0.0414  0.2891  0.1276
    1DIPC   C4A22172   2.744  23.718   4.640 -0.4521 -0.1480  0.0683
    1DIPC   C1B22173   2.349  24.485   4.571 -0.1253 -0.0098 -0.1214
    1DIPC   D2B22174   2.190  24.361   4.959 -0.0764 -0.4379  0.0887
    1DIPC   D3B22175   2.077  24.103   5.258  0.2884  0.1329  0.0138
    1DIPC   C4B22176   1.879  24.165   5.648 -0.1435 -0.0526  0.0796
    1DIPC   NC322177   5.679  25.009   3.957  0.1208  0.0396  0.2866
    1DIPC   PO422178   6.134  25.097   3.925 -0.1196 -0.1306 -0.1972
    1DIPC   GL122179   6.284  25.451   4.152 -0.0934 -0.4287 -0.1260
    1DIPC   GL222180   6.149  25.713   4.208  0.2812  0.0159  0.1682
    1DIPC   C1A22181   6.401  25.478   4.585 -0.2563 -0.0723  0.1058
    1DIPC   D2A22182   6.630  25.715   4.898 -0.0090  0.2060 -0.0761
    1DIPC   D3A22183   6.375  26.086   5.099  0.0188  0.1499  0.0865
    1DIPC   C4A22184   6.154  26.155   5.452  0.0653 -0.0266  0.0406
    1DIPC   C1B22185   5.815  25.946   4.576  0.1075 -0.0875  0.0714
    1DIPC   D2B22186   5.721  26.027   5.091  0.2610 -0.1585  0.0624
    1DIPC   D3B22187   6.067  25.677   4.880 -0.3042  0.0123 -0.0422
    1DIPC   C4B22188   5.898  25.437   4.552  0.1340  0.0091  0.0342
    1DIPC   NC322189  20.756  19.807   2.124  0.1504  0.1955 -0.1182
    1DIPC   PO422190  20.712  19.516   2.580  0.1707 -0.0063  0.2033
    1DIPC   GL122191  20.490  19.442   3.004  0.0210 -0.3085 -0.0357
    1DIPC   GL222192  20.765  19.579   3.255  0.0920  0.2615 -0.2789
    1DIPC   C1A22193  20.335  19.300   3.500 -0.0688 -0.1670  0.3984
    1DIPC   D2A22194  20.121  19.354   3.920  0.2823  0.0093  0.1444
    1DIPC   D3A22195  20.354  19.028   3.971  0.0702  0.0271  0.4011
    1DIPC   C4A22196  20.694  18.840   3.705  0.0475 -0.1594 -0.0955
    1DIPC   C1B22197  20.751  19.387   3.729 -0.3125 -0.0826 -0.2061
    1DIPC   D2B22198  20.857  19.169   4.074  0.0866 -0.0212  0.2838
    1DIPC   D3B22199  21.000  19.562   4.237 -0.1530  0.0774 -0.1537
    1DIPC   C4B22200  21.175  19.914   3.984 -0.0197 -0.0021 -0.1867
    1DIPC   NC322201  11.354  19.563   3.222 -0.0597  0.1479  0.0960
    1DIPC   PO422202  11.716  19.504   2.966 -0.1023  0.0189  0.2193
    1DIPC   GL122203  11.837  19.382   3.502 -0.1347 -0.0023  0.0864
    1DIPC   GL222204  12.052  19.549   3.632  0.2239 -0.1926 -0.1393
    1DIPC   C1A22205  11.544  19.335   3.887 -0.1421 -0.0503  0.0888
    1DIPC   D2A22206  11.298  19.115   3.993  0.0152 -0.1782 -0.1032
    1DIPC   D3A22207  11.187  19.107   3.552 -0.1867  0.0264 -0.3457
    1DIPC   C4A22208  10.791  18.776   3.344 -0.3755 -0.0136 -0.4353
    1DIPC   C1B22209  11.913  19.662   4.077  0.0776 -0.1809  0.2037
    1DIPC   D2B22210  11.825  19.605   4.536  0.0597  0.1104 -0.2823
    1DIPC   D3B22211  11.677  19.189   4.492 -0.1977 -0.2747 -0.1675
    1DIPC   C4B22212  11.820  18.948   4.776  0.2974  0.3144  0.0240
    1DIPC   NC322213   5.962  26.827   3.968  0.1803  0.1717  0.1414
    1DIPC   PO422214   5.914  26.414   3.893  0.4187 -0.1025  0.0141
    1DIPC   GL122215   5.795  26.441   4.298 -0.1011 -0.0538  0.1431
    1DIPC   GL222216   5.526  26.323   4.425 -0.0182  0.0178 -0.1545
    1DIPC   C1A22217   5.695  26.604   4.816 -0.1927 -0.0179  0.0427
    1DIPC   D2A22218   5.730  26.582   5.278  0.0738  0.1326 -0.1538
    1DIPC   D3A22219   5.658  26.181   5.531  0.2921 -0.0326  0.3639
    1DIPC   C4A22220   5.853  25.771   5.534 -0.3119 -0.1117 -0.1396
    1DIPC   C1B22221   5.263  26.632   4.628  0.1650  0.1719 -0.1803
    1DIPC   D2B22222   5.262  26.449   5.075  0.1421  0.1526 -0.1342
    1DIPC   D3B22223   4.849  26.411   5.136  0.0811 -0.2482  0.0867
    1DIPC   C4B22224   4.806  26.756   4.899  0.0558 -0.0575 -0.0794
    1DIPC   NC322225  26.057  13.760   3.234  0.0316  0.0426 -0.0143
    1DIPC   PO422226  25.831  13.447   3.493  0.2411 -0.0052  0.0131
    1DIPC   GL122227  26.074  13.350   3.755  0.0448 -0.0848  0.0707
    1DIPC   GL222228  25.960  13.255   4.096 -0.2216  0.0824 -0.2970
    1DIPC   C1A22229  26.513  13.207   3.671  0.1266  0.0144 -0.3691
    1DIPC   D2A22230  26.726  13.188   4.110  0.0806  0.2909 -0.0619
    1DIPC   D3A22231  26.384  12.964   4.208  0.0529 -0.1428  0.2395
    1DIPC   C4A22232  26.385  12.775   4.524 -0.0288  0.1022  0.3750
    1DIPC   C1B22233  25.566  13.348   4.428 -0.0558 -0.0137  0.1523
    1DIPC   D2B22234  25.201  13.389   4.733 -0.0690 -0.2053  0.0184
    1DIPC   D3B22235  25.005  12.980   4.958  0.0008  0.0475 -0.3850
    1DIPC   C4B22236  25.158  12.549   4.976  0.1035  0.0473  0.2752
    1DIPC   NC322237  19.357  22.079   2.995  0.1324 -0.2168 -0.1193
    1DIPC   PO422238  19.295  21.718   3.107  0.2215 -0.0845  0.0541
    1DIPC   GL122239  19.318  21.712   3.536  0.0007 -0.0171  0.1572
    1DIPC   GL222240  19.181  21.418   3.588 -0.0069  0.0215  0.1802
    1DIPC   C1A22241  19.432  21.568   3.943 -0.0510  0.0815  0.0828
    1DIPC   D2A22242  19.444  21.198   4.163  0.0229  0.0682 -0.1087
    1DIPC   D3A22243  19.061  21.321   4.499 -0.1149  0.0404  0.0881
    1DIPC   C4A22244  19.263  21.671   4.535 -0.0689 -0.2771  0.1236
    1DIPC   C1B22245  18.940  21.320   3.987  0.0983  0.0496 -0.1740
    1DIPC   D2B22246  18.703  21.030   4.085 -0.2102 -0.2901  0.4817
    1DIPC   D3B22247  18.339  21.342   4.132  0.0966 -0.3398 -0.1535
    1DIPC   C4B22248  18.636  21.710   4.218  0.3619  0.0915 -0.0860
    1DIPC   NC322249  10.764  15.970   2.696  0.3499  0.0029  0.2258
    1DIPC   PO422250  10.993  15.582   2.547  0.3299 -0.0976  0.2260
    1DIPC   GL122251  11.087  15.539   2.987 -0.0418 -0.4635 -0.1229
    1DIPC   GL222252  11.031  15.270   3.072 -0.0696 -0.2446 -0.4322
    1DIPC   C1A22253  10.921  15.680   3.301  0.2828  0.0848 -0.1169
    1DIPC   D2A22254  10.902  16.131   3.261 -0.3357 -0.0900  0.0485
    1DIPC   D3A22255  11.219  16.117   3.637  0.2071  0.1931 -0.0073
    1DIPC   C4A22256  11.578  16.022   3.757 -0.1668 -0.1616 -0.0005
    1DIPC   C1B22257  11.223  15.122   3.445 -0.0750  0.2394  0.1860
    1DIPC   D2B22258  11.040  15.228   3.765  0.1343  0.1906 -0.2512
    1DIPC   D3B22259  10.835  14.894   3.758 -0.0641  0.0929 -0.4472
    1DIPC   C4B22260  11.039  14.488   4.033 -0.1686  0.0519 -0.2114
    1DIPC   NC322261  13.529  17.478   2.353 -0.1033 -0.1711 -0.0154
    1DIPC   PO422262  13.515  17.698   2.779 -0.0560  0.1016  0.3290
    1DIPC   GL122263  13.405  17.621   3.174 -0.1115 -0.3526 -0.0779
    1DIPC   GL222264  13.568  17.873   3.356 -0.2938 -0.0608  0.1109
    1DIPC   C1A22265  13.387  17.388   3.604  0.2625 -0.0629  0.2470
    1DIPC   D2A22266  13.689  17.214   3.965  0.0079 -0.0420  0.1150
    1DIPC   D3A22267  13.793  17.371   4.397 -0.1157  0.1006  0.1962
    1DIPC   C4A22268  13.673  17.651   4.654  0.2229  0.3169  0.2240
    1DIPC   C1B22269  13.733  17.684   3.853 -0.0307  0.2144  0.0739
    1DIPC   D2B22270  13.903  17.850   4.188  0.0725 -0.3441  0.0970
    1DIPC   D3B22271  14.189  17.660   4.071  0.2480 -0.2472 -0.1145
    1DIPC   C4B22272  14.307  17.575   4.422 -0.0794 -0.2009  0.0205
    1DIPC   NC322273  17.732  16.077   2.618 -0.0302 -0.0502 -0.3536
    1DIPC   PO422274  17.314  16.071   2.700 -0.0268  0.0244 -0.1470
    1DIPC   GL122275  17.060  16.049   3.053  0.2383  0.2709  0.0428
    1DIPC   GL222276  16.848  15.926   3.034  0.3085  0.0295  0.2120
    1DIPC   C1A22277  16.954  16.061   3.487 -0.3323  0.3832 -0.1232
    1DIPC   D2A22278  16.853  15.847   3.838 -0.0709 -0.2812 -0.1891
    1DIPC   D3A22279  16.507  15.815   4.105  0.4021 -0.0962 -0.2776
    1DIPC   C4A22280  16.445  15.502   4.406  0.1977 -0.0754 -0.2362
    1DIPC   C1B22281  16.732  15.641   3.347 -0.3564  0.1771  0.1907
    1DIPC   D2B22282  16.777  15.372   3.804  0.0177  0.0090  0.2392
    1DIPC   D3B22283  16.865  15.350   4.242 -0.2289 -0.0009 -0.1886
    1DIPC   C4B22284  17.122  15.044   4.459  0.2113 -0.0019 -0.1422
    1DIPC   NC322285   7.156  13.012   1.868  0.1637  0.0006 -0.0236
    1DIPC   PO422286   7.335  13.256   2.192  0.1931  0.1887 -0.1689
    1DIPC   GL122287   7.221  13.358   2.562  0.0421  0.0544  0.3179
    1DIPC   GL222288   6.910  13.392   2.686 -0.0743 -0.4817  0.1226
    1DIPC   C1A22289   7.447  13.300   2.937  0.2063  0.1516  0.0108
    1DIPC   D2A22290   7.765  13.339   3.274  0.4046  0.4955  0.0219
    1DIPC   D3A22291   7.692  13.218   3.694 -0.1672 -0.2239 -0.0546
    1DIPC   C4A22292   7.763  13.373   4.096 -0.2433  0.0278  0.2627
    1DIPC   C1B22293   6.882  13.322   3.085 -0.0913 -0.2639  0.0551
    1DIPC   D2B22294   7.140  13.215   3.352 -0.4575  0.0725  0.0013
    1DIPC   D3B22295   6.781  12.964   3.561  0.1139 -0.1653 -0.1085
    1DIPC   C4B22296   6.447  12.734   3.435 -0.0065  0.0163  0.2010
    1DIPC   NC322297   8.577  11.546   1.913 -0.2509  0.0008 -0.2055
    1DIPC   PO422298   8.735  11.954   2.069 -0.2265 -0.2267  0.1226
    1DIPC   GL122299   8.809  11.928   2.457 -0.0651  0.0186 -0.0128
    1DIPC   GL222300   8.652  12.141   2.568  0.1121 -0.0412  0.1988
    1DIPC   C1A22301   9.198  12.096   2.686  0.0364  0.1028  0.2456
    1DIPC   D2A22302   9.402  11.922   2.953 -0.0592 -0.0482 -0.2244
    1DIPC   D3A22303   9.504  12.136   3.357  0.1106 -0.1442  0.0678
    1DIPC   C4A22304   9.244  12.064   3.776 -0.5785  0.0819 -0.0844
    1DIPC   C1B22305   8.804  12.072   2.915 -0.1568 -0.1411 -0.3716
    1DIPC   D2B22306   8.996  11.998   3.280  0.2005  0.2649  0.3169
    1DIPC   D3B22307   8.769  11.902   3.684  0.1324 -0.1634  0.1176
    1DIPC   C4B22308   8.534  11.546   3.790  0.0457 -0.0062 -0.2203
    1DIPC   NC322309   4.792  21.169   2.656 -0.2776  0.0463 -0.0305
    1DIPC   PO422310   4.936  20.938   3.110 -0.2286 -0.2871 -0.3774
    1DIPC   GL122311   4.932  21.049   3.504  0.0545  0.0918  0.0498
    1DIPC   GL222312   5.077  21.287   3.501  0.3368 -0.2649 -0.2359
    1DIPC   C1A22313   4.833  21.019   3.922 -0.0681  0.0800  0.2351
    1DIPC   D2A22314   4.777  21.141   4.271  0.0923  0.1287  0.1083
    1DIPC   D3A22315   4.717  20.810   4.510 -0.0260  0.2471 -0.0609
    1DIPC   C4A22316   4.725  20.653   4.845 -0.1872  0.2123  0.0273
    1DIPC   C1B22317   5.289  20.993   3.828  0.2671 -0.1016 -0.1085
    1DIPC   D2B22318   5.730  20.897   3.981  0.2464  0.1716 -0.2811
    1DIPC   D3B22319   5.786  21.005   4.459  0.0087  0.1404 -0.2944
    1DIPC   C4B22320   5.596  21.162   4.862 -0.4657 -0.1956  0.0758
    1DIPC   NC322321  19.656  10.825   1.926  0.1607 -0.0782 -0.2837
    1DIPC   PO422322  19.748  10.432   2.283  0.4408  0.3477 -0.3517
    1DIPC   GL122323  19.710  10.369   2.679 -0.2279 -0.0765 -0.1620
    1DIPC   GL222324  19.530  10.204   2.776 -0.1958  0.1462 -0.3683
    1DIPC   C1A22325  19.889  10.486   3.022 -0.0925 -0.0170  0.0296
    1DIPC   D2A22326  20.353  10.438   3.084  0.1038 -0.2114  0.0796
    1DIPC   D3A22327  20.512  10.295   3.464 -0.1588 -0.2898 -0.1323
    1DIPC   C4A22328  20.902  10.284   3.666 -0.1744 -0.0208  0.0398
    1DIPC   C1B22329  19.446  10.024   3.176  0.0175 -0.0508  0.1237
    1DIPC   D2B22330  19.352  10.077   3.599  0.0673  0.0597 -0.0646
    1DIPC   D3B22331  19.739  10.111   3.774  0.1773 -0.2256  0.3423
    1DIPC   C4B22332  19.924  10.411   3.559 -0.1847  0.3408 -0.3449
    1DIPC   NC322333  16.785  20.508   2.775 -0.1406  0.0080  0.0333
    1DIPC   PO422334  16.738  20.024   2.860  0.3550  0.2825 -0.1264
    1DIPC   GL122335  16.955  20.228   3.189 -0.0102  0.3467 -0.0043
    1DIPC   GL222336  16.762  20.247   3.539  0.1853 -0.0501 -0.4913
    1DIPC   C1A22337  17.287  20.535   3.271 -0.0715 -0.4338 -0.1251
    1DIPC   D2A22338  17.378  20.737   3.480 -0.3344  0.0436 -0.1491
    1DIPC   D3A22339  17.093  20.707   3.844  0.2678  0.0520 -0.1596
    1DIPC   C4A22340  17.297  20.552   4.185  0.1234  0.1974 -0.4388
    1DIPC   C1B22341  17.169  20.174   3.728  0.3226 -0.2638  0.2459
    1DIPC   D2B22342  17.456  20.020   3.975  0.2316  0.2036  0.0596
    1DIPC   D3B22343  17.021  19.773   3.910  0.1681 -0.2337 -0.1570
    1DIPC   C4B22344  16.558  19.869   3.965  0.1884  0.1933 -0.2357
    1DIPC   NC322345  28.410   8.576   3.923 -0.2406 -0.0004 -0.2310
    1DIPC   PO422346  28.815   8.828   3.952 -0.0261 -0.0261 -0.0177
    1DIPC   GL122347  28.840   8.989   4.337 -0.0751  0.0188  0.2940
    1DIPC   GL222348  29.142   8.831   4.420 -0.2835  0.0081 -0.2397
    1DIPC   C1A22349  28.832   9.043   4.727  0.0503 -0.1925 -0.1049
    1DIPC   D2A22350  28.481   9.089   5.147  0.0686 -0.1176 -0.0196
    1DIPC   D3A22351  28.675   9.164   5.467  0.1572 -0.0369  0.1171
    1DIPC   C4A22352  28.589   9.558   5.642  0.2396  0.1071  0.2067
    1DIPC   C1B22353  29.224   8.725   4.839 -0.0559 -0.1190 -0.0236
    1DIPC   D2B22354  28.958   8.824   5.222  0.0944  0.1367  0.0431
    1DIPC   D3B22355  29.396   8.778   5.330  0.2532 -0.1049 -0.0052
    1DIPC   C4B22356  29.436   8.638   5.775 -0.3278 -0.0726 -0.1378
    1DIPC   NC322357   9.293  20.760   2.971  0.0264 -0.0633  0.0622
    1DIPC   PO422358   9.099  21.133   3.162  0.1002  0.1549  0.2454
    1DIPC   GL122359   9.004  20.630   3.342 -0.1562 -0.5035 -0.2469
    1DIPC   GL222360   8.636  20.549   3.369  0.0973 -0.1071 -0.0084
    1DIPC   C1A22361   9.074  20.452   3.701 -0.0361 -0.0663  0.0033
    1DIPC   D2A22362   9.098  20.280   4.087  0.4982  0.0575 -0.4136
    1DIPC   D3A22363   8.748  20.033   3.976 -0.1505  0.0755  0.0222
    1DIPC   C4A22364   8.524  19.925   4.399  0.0046 -0.0641 -0.0583
    1DIPC   C1B22365   8.527  20.558   3.872 -0.1894  0.0911 -0.0739
    1DIPC   D2B22366   8.292  20.258   4.080  0.1089  0.1067  0.2668
    1DIPC   D3B22367   8.620  20.566   4.327 -0.2787  0.1258  0.5054
    1DIPC   C4B22368   8.911  20.217   4.555 -0.2304 -0.2730  0.0214
    1DIPC   NC322369   8.521   3.351   3.166 -0.1935  0.1257  0.2945
    1DIPC   PO422370   8.910   3.473   2.958 -0.2099  0.0247 -0.2265
    1DIPC   GL122371   8.994   3.501   3.409  0.1870  0.4439  0.0518
    1DIPC   GL222372   8.868   3.219   3.536  0.1456 -0.0307 -0.0096
    1DIPC   C1A22373   9.030   3.795   3.669 -0.2543 -0.2755  0.1916
    1DIPC   D2A22374   8.906   4.198   3.773  0.1367 -0.1296 -0.0767
    1DIPC   D3A22375   8.633   4.292   4.144 -0.0146  0.1763 -0.1536
    1DIPC   C4A22376   8.779   4.442   4.468  0.0457  0.1843  0.0849
    1DIPC   C1B22377   8.877   3.379   3.901  0.0585 -0.0169 -0.0501
    1DIPC   D2B22378   8.828   3.205   4.345  0.0566  0.1820  0.2146
    1DIPC   D3B22379   8.997   2.918   4.424 -0.2473  0.0686  0.0134
    1DIPC   C4B22380   9.438   2.812   4.666 -0.2716  0.0522 -0.2424
    1DIPC   NC322381  13.885   0.267   2.551  0.2721 -0.1894  0.1404
    1DIPC   PO422382  14.171   0.645   2.496  0.0695  0.1563 -0.2255
    1DIPC   GL122383  14.402   0.930   2.828  0.0132 -0.1070 -0.4865
    1DIPC   GL222384  14.570   1.047   2.739 -0.1707 -0.4341  0.0007
    1DIPC   C1A22385  14.699   0.803   3.196  0.3023 -0.2557 -0.4246
    1DIPC   D2A22386  14.866   1.059   3.549  0.3707 -0.0640  0.1749
    1DIPC   D3A22387  14.986   0.753   3.850 -0.2032  0.1574  0.1315
    1DIPC   C4A22388  15.306   0.437   3.631 -0.1348  0.1645  0.1582
    1DIPC   C1B22389  14.888   1.262   2.959 -0.0990  0.3190 -0.0930
    1DIPC   D2B22390  15.146   1.116   3.172 -0.2189 -0.0848  0.3404
    1DIPC   D3B22391  15.135   0.689   3.232 -0.0635 -0.0445  0.3449
    1DIPC   C4B22392  15.464   0.525   3.089 -0.0855 -0.0657 -0.1404
    1DIPC   NC322393  10.451   1.639   2.541 -0.0532  0.1175 -0.0464
    1DIPC   PO422394  10.773   1.478   2.667 -0.2165 -0.2302 -0.0940
    1DIPC   GL122395  11.173   1.712   2.791  0.2500  0.0027 -0.1091
    1DIPC   GL222396  11.386   2.049   2.757 -0.0272 -0.2105  0.0468
    1DIPC   C1A22397  11.483   1.751   3.192  0.1520 -0.1146  0.1271
    1DIPC   D2A22398  11.814   1.528   3.405  0.0404 -0.1111  0.0712
    1DIPC   D3A22399  11.877   1.656   3.817 -0.1476  0.0435  0.1455
    1DIPC   C4A22400  11.813   1.360   4.133  0.1928  0.1207  0.2254
    1DIPC   C1B22401  11.073   2.010   3.171  0.0302  0.0701  0.2117
    1DIPC   D2B22402  10.878   2.437   3.280  0.0092 -0.0352  0.1432
    1DIPC   D3B22403  11.098   2.354   3.586 -0.0092  0.1192 -0.2066
    1DIPC   C4B22404  11.380   2.049   3.630 -0.2453 -0.1247  0.0830
    1DIPC   NC322405  13.181   3.957   1.873  0.0011 -0.1320  0.1287
    1DIPC   PO422406  13.142   3.711   2.281  0.0365  0.0884  0.0475
    1DIPC   GL122407  13.092   3.726   2.711  0.0175  0.2241 -0.1889
    1DIPC   GL222408  13.261   3.968   2.724 -0.1293 -0.0735 -0.2051
    1DIPC   C1A22409  12.725   3.597   2.963 -0.0607 -0.1166  0.2478
    1DIPC   D2A22410  12.664   3.354   3.336  0.2107 -0.3948 -0.0931
    1DIPC   D3A22411  12.753   3.600   3.621 -0.1387  0.0197 -0.2453
    1DIPC   C4A22412  12.584   4.051   3.736  0.3051 -0.1004  0.1327
    1DIPC   C1B22413  13.165   4.001   3.196 -0.0916  0.1552  0.1160
    1DIPC   D2B22414  13.043   4.116   3.583  0.1750  0.1404 -0.0296
    1DIPC   D3B22415  13.380   4.379   3.825  0.0890  0.1480  0.0642
    1DIPC   C4B22416  13.496   4.760   3.656  0.2923 -0.2493 -0.1402
    1DIPC   NC322417  12.547  11.486   1.574  0.0264 -0.0709 -0.0718
    1DIPC   PO422418  12.963  11.514   1.884  0.0543  0.2848  0.2292
    1DIPC   GL122419  12.911  11.663   2.283  0.3422 -0.0635 -0.0130
    1DIPC   GL222420  12.574  11.726   2.469 -0.0250 -0.3194  0.0746
    1DIPC   C1A22421  13.131  11.453   2.635 -0.2185  0.1326  0.1336
    1DIPC   D2A22422  13.396  11.519   2.954 -0.0427  0.0328 -0.2170
    1DIPC   D3A22423  13.330  11.542   3.511 -0.1864 -0.0968 -0.0285
    1DIPC   C4A22424  13.236  11.874   3.688 -0.0401 -0.0110  0.1726
    1DIPC   C1B22425  12.125  11.674   2.440 -0.0635 -0.1180  0.1874
    1DIPC   D2B22426  11.709  11.612   2.527 -0.2118 -0.1644  0.3426
    1DIPC   D3B22427  11.915  11.501   2.889  0.0754 -0.1685 -0.0313
    1DIPC   C4B22428  12.302  11.705   2.927 -0.1171  0.0057  0.1325
    1DIPC   NC322429  26.755   6.865   4.148 -0.1253 -0.1193  0.1336
    1DIPC   PO422430  26.450   6.800   4.017 -0.0381  0.0203  0.1704
    1DIPC   GL122431  26.179   6.926   4.377  0.1715  0.1894 -0.0446
    1DIPC   GL222432  26.242   7.184   4.634 -0.1229 -0.1646 -0.1515
    1DIPC   C1A22433  25.766   6.871   4.654 -0.1066  0.1164  0.0441
    1DIPC   D2A22434  25.707   7.154   4.969 -0.1363  0.2504  0.0352
    1DIPC   D3A22435  25.572   7.552   5.147  0.0238  0.1112 -0.0604
    1DIPC   C4A22436  25.227   7.514   5.270  0.0655 -0.0215  0.1181
    1DIPC   C1B22437  26.163   7.471   4.936  0.1918  0.2236  0.2407
    1DIPC   D2B22438  25.970   7.360   5.432 -0.2708  0.0702 -0.0585
    1DIPC   D3B22439  26.135   7.604   5.684 -0.1287 -0.1239  0.1598
    1DIPC   C4B22440  26.422   7.954   5.801  0.3037  0.0744  0.1007
    1DIPC   NC322441  28.396   4.256   4.313  0.0493 -0.1128 -0.2573
    1DIPC   PO422442  28.540   3.886   4.175 -0.3845  0.1947  0.0170
    1DIPC   GL122443  28.712   3.908   4.627 -0.4522 -0.2882  0.1883
    1DIPC   GL222444  28.443   3.991   4.793  0.1557  0.2700 -0.0534
    1DIPC   C1A22445  29.005   3.994   4.902 -0.0704 -0.1369  0.0292
    1DIPC   D2A22446  29.346   4.087   5.147  0.1861 -0.0175 -0.2168
    1DIPC   D3A22447  29.485   3.728   5.326  0.0949 -0.0183 -0.1210
    1DIPC   C4A22448  29.533   3.646   5.797  0.1909  0.1841 -0.1480
    1DIPC   C1B22449  28.539   4.228   5.140 -0.2117 -0.0909  0.0002
    1DIPC   D2B22450  28.601   4.426   5.597  0.1327  0.1259 -0.2404
    1DIPC   D3B22451  28.234   4.687   5.690 -0.1077 -0.0852  0.2295
    1DIPC   C4B22452  27.844   4.813   5.554 -0.1402  0.1391  0.1509
    1DIPC   NC322453  18.151  20.603   2.389  0.2023 -0.1425 -0.1298
    1DIPC   PO422454  17.995  20.221   2.122  0.0685  0.0913 -0.0495
    1DIPC   GL122455  17.663  20.140   2.537 -0.0806 -0.0692  0.5411
    1DIPC   GL222456  17.914  19.988   2.689  0.2129  0.1353 -0.3283
    1DIPC   C1A22457  17.610  20.298   2.997 -0.2953 -0.0692 -0.1681
    1DIPC   D2A22458  17.573  20.098   3.407  0.0838  0.0493 -0.3553
    1DIPC   D3A22459  17.924  20.034   3.675 -0.1329  0.0365  0.1967
    1DIPC   C4A22460  18.062  19.648   3.525  0.0041  0.0080  0.0402
    1DIPC   C1B22461  18.106  19.983   3.082  0.2273 -0.1452  0.0909
    1DIPC   D2B22462  18.405  20.061   3.514 -0.0728 -0.1549  0.5705
    1DIPC   D3B22463  18.306  19.988   3.978 -0.4714  0.1035  0.1389
    1DIPC   C4B22464  18.595  19.724   4.287  0.1895  0.1826  0.1747
    1DIPC   NC322465   4.648  17.747   3.437  0.1815  0.1717  0.0430
    1DIPC   PO422466   4.422  17.431   3.170  0.0456  0.0487 -0.0586
    1DIPC   GL122467   4.345  17.388   3.650  0.0604 -0.2996 -0.0519
    1DIPC   GL222468   4.408  17.061   3.705  0.1072  0.4125 -0.2512
    1DIPC   C1A22469   4.444  17.369   4.095 -0.0410 -0.0748  0.0008
    1DIPC   D2A22470   4.501  17.274   4.544 -0.3536 -0.0050  0.0172
    1DIPC   D3A22471   4.427  17.064   4.992 -0.4261 -0.0158  0.0187
    1DIPC   C4A22472   3.966  17.005   5.237 -0.1673  0.0387 -0.0170
    1DIPC   C1B22473   4.378  16.866   4.112  0.1119 -0.0294  0.0091
    1DIPC   D2B22474   4.556  16.748   4.541  0.0124 -0.1138 -0.0933
    1DIPC   D3B22475   4.481  16.368   4.292 -0.1684 -0.0629  0.2067
    1DIPC   C4B22476   4.172  16.005   4.293  0.0303  0.0129  0.1578
    1DIPC   NC322477   8.119  20.384   3.085  0.2878  0.1267 -0.3538
    1DIPC   PO422478   7.755  19.935   3.124 -0.0850 -0.0933 -0.4378
    1DIPC   GL122479   8.132  19.686   3.409  0.0828 -0.1955  0.0091
    1DIPC   GL222480   8.387  19.527   3.293 -0.0035  0.0388  0.0065
    1DIPC   C1A22481   8.362  19.716   3.785 -0.2735 -0.1275 -0.0211
    1DIPC   D2A22482   8.050  19.736   4.119  0.4851 -0.0962 -0.0999
    1DIPC   D3A22483   8.117  19.444   4.564 -0.2375 -0.3476 -0.1035
    1DIPC   C4A22484   7.874  19.057   4.690 -0.0354  0.0585 -0.4791
    1DIPC   C1B22485   8.508  19.131   3.516 -0.2865 -0.0810 -0.2611
    1DIPC   D2B22486   8.339  18.800   3.765  0.0285  0.1767  0.1704
    1DIPC   D3B22487   8.586  18.609   4.258  0.0756  0.1839  0.0989
    1DIPC   C4B22488   8.336  18.181   4.415  0.1143 -0.5051 -0.1154
    1DIPC   NC322489   9.393  12.618   2.241 -0.1024 -0.0507  0.5021
    1DIPC   PO422490   9.495  12.245   1.958 -0.2705 -0.0469 -0.2783
    1DIPC   GL122491   9.625  12.189   2.432 -0.1734 -0.0964  0.2578
    1DIPC   GL222492   9.777  11.995   2.511 -0.1520  0.0538  0.0242
    1DIPC   C1A22493   9.697  12.361   2.847  0.1050 -0.2421 -0.1917
    1DIPC   D2A22494   9.668  12.584   3.202  0.1756 -0.1695 -0.0806
    1DIPC   D3A22495   9.792  12.395   3.686 -0.2544 -0.0570  0.1052
    1DIPC   C4A22496   9.935  12.583   4.127  0.2095 -0.1340  0.1931
    1DIPC   C1B22497   9.932  11.885   2.933 -0.0089 -0.1893  0.1966
    1DIPC   D2B22498   9.658  11.685   3.304 -0.0747 -0.0777  0.2034
    1DIPC   D3B22499   9.793  11.871   3.672  0.0785  0.2276  0.1235
    1DIPC   C4B22500  10.078  11.629   4.070 -0.0708  0.0537  0.2996
    1DIPC   NC322501   9.132   4.396   2.958  0.0205 -0.0516 -0.0330
    1DIPC   PO422502   8.953   4.643   3.230 -0.0016 -0.1778 -0.0284
    1DIPC   GL122503   9.036   4.800   3.703  0.0438  0.0939  0.1063
    1DIPC   GL222504   9.463   4.674   3.924 -0.1686  0.0896  0.0146
    1DIPC   C1A22505   8.982   4.862   4.141  0.1900 -0.0282  0.0162
    1DIPC   D2A22506   9.103   4.857   4.546  0.0211 -0.1519  0.3340
    1DIPC   D3A22507   9.015   5.056   4.949 -0.0243 -0.0168 -0.0659
    1DIPC   C4A22508   9.397   5.217   5.075 -0.0145  0.1172  0.1374
    1DIPC   C1B22509   9.513   4.703   4.316  0.0652 -0.3919  0.2648
    1DIPC   D2B22510   9.738   4.437   4.630  0.1708  0.2576 -0.3324
    1DIPC   D3B22511   9.940   4.805   4.644 -0.1412  0.2486 -0.1035
    1DIPC   C4B22512   9.534   5.138   4.484  0.1646  0.1651  0.2889
    1DIPC   NC322513  26.493   7.489   3.715  0.1353  0.3676  0.1977
    1DIPC   PO422514  26.206   7.694   3.934 -0.0161  0.1651  0.0896
    1DIPC   GL122515  26.347   7.781   4.238 -0.1769  0.1070 -0.1456
    1DIPC   GL222516  26.537   7.670   4.490 -0.1403 -0.0486 -0.0800
    1DIPC   C1A22517  26.387   8.212   4.443 -0.1252  0.4619 -0.0936
    1DIPC   D2A22518  26.584   8.503   4.671  0.0460 -0.0863  0.2889
    1DIPC   D3A22519  26.890   8.311   4.930  0.0057 -0.1861  0.5070
    1DIPC   C4A22520  26.783   8.169   5.446  0.1502  0.0073 -0.2038
    1DIPC   C1B22521  26.463   7.874   4.823 -0.0920  0.0949 -0.1340
    1DIPC   D2B22522  26.460   8.152   5.116 -0.0827 -0.4179 -0.1192
    1DIPC   D3B22523  26.172   8.520   5.094  0.2409  0.1029 -0.1587
    1DIPC   C4B22524  25.780   8.490   5.239  0.0787 -0.1669  0.0475
    1DIPC   NC322525  27.646   8.956   3.542 -0.2783 -0.1474 -0.0491
    1DIPC   PO422526  27.288   9.210   3.541 -0.0394 -0.1857 -0.2821
    1DIPC   GL122527  27.471   9.372   3.974  0.1637  0.1637 -0.0383
    1DIPC   GL222528  27.445   9.729   4.010 -0.2161 -0.4199 -0.2215
    1DIPC   C1A22529  27.482   9.253   4.425  0.0240 -0.0552  0.0592
    1DIPC   D2A22530  27.208   9.356   4.714 -0.1701 -0.1033 -0.1115
    1DIPC   D3A22531  27.460   9.331   5.126  0.3207 -0.0517  0.1727
    1DIPC   C4A22532  27.364   8.927   5.293 -0.0846  0.2817  0.2053
    1DIPC   C1B22533  27.127   9.716   4.457  0.0759 -0.1892  0.0171
    1DIPC   D2B22534  26.801   9.789   4.733 -0.1899  0.2107 -0.0824
    1DIPC   D3B22535  26.702   9.382   4.648 -0.1155  0.2470  0.0200
    1DIPC   C4B22536  26.784   9.128   5.060  0.2877 -0.0008  0.0222
    1DIPC   NC322537   1.409   5.838   4.122  0.2280 -0.1024  0.0291
    1DIPC   PO422538   1.543   6.134   4.181  0.2878 -0.1672 -0.1628
    1DIPC   GL122539   1.457   5.924   4.679 -0.1282  0.2065 -0.0198
    1DIPC   GL222540   1.680   5.771   4.826  0.0189  0.0193 -0.0680
    1DIPC   C1A22541   1.372   6.290   4.997 -0.4092  0.1853  0.0798
    1DIPC   D2A22542   1.446   6.639   5.255 -0.0034 -0.0022 -0.1671
    1DIPC   D3A22543   1.565   6.907   5.431  0.0722 -0.1264  0.0844
    1DIPC   C4A22544   1.412   7.299   5.543 -0.3988  0.1320 -0.0620
    1DIPC   C1B22545   1.795   6.119   5.108  0.0690  0.3323 -0.0186
    1DIPC   D2B22546   1.849   6.472   5.517 -0.0762 -0.0053  0.0393
    1DIPC   D3B22547   1.784   6.683   5.851  0.1667 -0.1312 -0.1860
    1DIPC   C4B22548   1.841   7.131   5.741 -0.1049 -0.0260 -0.1480
    1DIPC   NC322549  25.283  14.616   3.531 -0.0904 -0.1605 -0.0193
    1DIPC   PO422550  25.130  14.330   3.312  0.1888  0.2582  0.1753
    1DIPC   GL122551  25.118  14.119   3.726  0.2156  0.1528  0.0091
    1DIPC   GL222552  25.081  13.723   3.789  0.1105 -0.0733 -0.2161
    1DIPC   C1A22553  24.880  14.123   4.088 -0.1016 -0.1151 -0.0307
    1DIPC   D2A22554  24.533  14.299   4.139 -0.0635 -0.5092 -0.0168
    1DIPC   D3A22555  24.306  13.921   4.045 -0.0277 -0.1576 -0.0158
    1DIPC   C4A22556  24.649  13.622   4.103 -0.1273 -0.1147  0.3178
    1DIPC   C1B22557  25.092  13.693   4.273  0.0254  0.0813  0.0191
    1DIPC   D2B22558  24.866  13.944   4.652  0.1823  0.0257  0.0184
    1DIPC   D3B22559  24.480  13.894   4.546 -0.1689 -0.1687  0.1126
    1DIPC   C4B22560  24.188  13.819   4.877 -0.0915 -0.0730 -0.2146
    1DIPC   NC322561  17.472  15.696   2.419 -0.2563  0.0122  0.1993
    1DIPC   PO422562  17.678  15.480   2.654 -0.0588 -0.0056 -0.3434
    1DIPC   GL122563  17.791  15.303   3.024 -0.0744  0.2135  0.1972
    1DIPC   GL222564  17.429  15.251   3.258 -0.0747  0.1556 -0.0053
    1DIPC   C1A22565  17.805  14.938   3.437 -0.0428  0.0492 -0.1317
    1DIPC   D2A22566  17.906  15.088   3.866  0.0271 -0.0431 -0.1115
    1DIPC   D3A22567  17.593  15.068   4.183 -0.1843  0.0399  0.1060
    1DIPC   C4A22568  17.351  15.491   4.358 -0.0203 -0.0034  0.2893
    1DIPC   C1B22569  17.249  15.628   3.336  0.0600 -0.1757  0.3098
    1DIPC   D2B22570  17.389  15.931   3.571 -0.1100  0.1353  0.0385
    1DIPC   D3B22571  17.391  16.283   3.896  0.0763  0.2574 -0.4828
    1DIPC   C4B22572  17.437  16.146   4.357  0.0147  0.2328  0.0184
    1DIPC   NC322573   0.417   9.538   3.554  0.2308 -0.0970 -0.0145
    1DIPC   PO422574   0.048   9.696   3.352  0.1125  0.0726 -0.0775
    1DIPC   GL122575   0.007   9.714   3.776 -0.0230  0.0846 -0.1147
    1DIPC   GL222576   0.222   9.654   4.082 -0.1162  0.1395 -0.1120
    1DIPC   C1A22577  -0.202  10.026   4.159  0.0511 -0.1222  0.0568
    1DIPC   D2A22578  -0.423  10.347   4.264  0.1279 -0.0357 -0.2608
    1DIPC   D3A22579  -0.216  10.187   4.598  0.0238  0.1039  0.4084
    1DIPC   C4A22580   0.196   9.931   4.492 -0.1404 -0.0691 -0.2863
    1DIPC   C1B22581  -0.058   9.563   4.344 -0.0848  0.2618  0.2779
    1DIPC   D2B22582  -0.373   9.401   4.634  0.1615 -0.0474 -0.3146
    1DIPC   D3B22583  -0.165   9.694   4.985  0.0022 -0.1759  0.2232
    1DIPC   C4B22584  -0.395   9.623   5.164  0.2472  0.2317 -0.1094
    1DIPC   NC322585  17.273  19.219   2.500  0.2013  0.0340  0.0793
    1DIPC   PO422586  17.482  18.956   2.648  0.2290 -0.2233 -0.0842
    1DIPC   GL122587  17.592  18.974   2.983 -0.0019  0.2759 -0.0916
    1DIPC   GL222588  17.445  18.791   3.185  0.2182  0.1144  0.0094
    1DIPC   C1A22589  17.645  19.250   3.304 -0.1437 -0.0687  0.1592
    1DIPC   D2A22590  17.912  19.203   3.713 -0.0390  0.1971 -0.0291
    1DIPC   D3A22591  17.851  19.322   4.162  0.1394  0.1506 -0.3848
    1DIPC   C4A22592  17.477  19.089   4.322 -0.0382  0.1027 -0.2566
    1DIPC   C1B22593  17.315  18.906   3.550 -0.1846  0.1529  0.0253
    1DIPC   D2B22594  17.200  18.866   3.973  0.0111  0.1384 -0.2529
    1DIPC   D3B22595  17.204  18.635   4.305 -0.1094 -0.3239 -0.0791
    1DIPC   C4B22596  17.604  18.478   4.315  0.3432 -0.1147 -0.0905
    1DIPC   NC322597  15.561  15.451   2.461 -0.1719 -0.1199 -0.1590
    1DIPC   PO422598  15.145  15.327   2.606 -0.3024 -0.0979 -0.4151
    1DIPC   GL122599  15.335  15.682   2.861  0.2036 -0.2185 -0.1099
    1DIPC   GL222600  15.719  15.625   2.953  0.0502 -0.1232 -0.1121
    1DIPC   C1A22601  15.099  16.046   3.206 -0.2386 -0.0319  0.1673
    1DIPC   D2A22602  14.898  16.044   3.549  0.0385  0.0559 -0.4236
    1DIPC   D3A22603  15.194  16.351   3.749  0.0143 -0.0266 -0.0665
    1DIPC   C4A22604  14.989  16.742   3.983  0.1399  0.0911  0.2266
    1DIPC   C1B22605  15.869  15.681   3.389  0.1846 -0.2630  0.1041
    1DIPC   D2B22606  15.825  15.647   3.809  0.2993 -0.0713 -0.0911
    1DIPC   D3B22607  15.674  15.163   3.848  0.2843 -0.3418 -0.2204
    1DIPC   C4B22608  15.380  15.065   4.125 -0.2603  0.2837 -0.1822
    1DIPC   NC322609  20.037  16.614   2.627  0.3302  0.1443 -0.1931
    1DIPC   PO422610  20.062  17.037   2.644 -0.0958 -0.3347  0.2895
    1DIPC   GL122611  19.852  17.088   3.011 -0.2624 -0.2932 -0.0288
    1DIPC   GL222612  19.976  16.783   3.257 -0.2258  0.0867  0.1388
    1DIPC   C1A22613  20.005  17.283   3.362 -0.1368  0.2243  0.0029
    1DIPC   D2A22614  19.983  17.574   3.663  0.4984  0.0109  0.0048
    1DIPC   D3A22615  19.641  17.309   3.901 -0.0421  0.0294 -0.1439
    1DIPC   C4A22616  19.717  17.249   4.374  0.1320  0.0686  0.0874
    1DIPC   C1B22617  19.924  16.852   3.691 -0.1640  0.1680  0.3152
    1DIPC   D2B22618  19.584  16.745   3.982 -0.0066 -0.2689 -0.1028
    1DIPC   D3B22619  19.441  16.731   3.577 -0.2135 -0.1695 -0.2873
    1DIPC   C4B22620  18.990  16.766   3.319  0.0490  0.2751  0.4464
    1DIPC   NC322621  24.261   7.834   2.836 -0.3425  0.1801  0.1506
    1DIPC   PO422622  24.507   7.593   3.050  0.0808  0.2102 -0.0728
    1DIPC   GL122623  24.365   7.768   3.444 -0.0071 -0.3451 -0.0181
    1DIPC   GL222624  24.281   7.504   3.659 -0.0081 -0.1673  0.0239
    1DIPC   C1A22625  24.518   7.979   3.851  0.3188 -0.1681  0.0725
    1DIPC   D2A22626  24.838   8.105   4.117 -0.0804  0.0158  0.1436
    1DIPC   D3A22627  25.068   7.830   4.367  0.7679  0.1328 -0.0209
    1DIPC   C4A22628  24.973   7.420   4.478  0.0223  0.0748  0.0776
    1DIPC   C1B22629  23.892   7.591   3.776 -0.0235  0.0578  0.2543
    1DIPC   D2B22630  23.508   7.660   3.438  0.0680  0.0540 -0.0437
    1DIPC   D3B22631  23.174   7.666   3.690  0.1817 -0.2215  0.0653
    1DIPC   C4B22632  22.851   7.532   4.081  0.1983  0.2238  0.0961
    1DIPC   NC322633   0.336   2.632   4.105 -0.1557 -0.2731  0.0888
    1DIPC   PO422634   0.387   2.220   4.154 -0.2653 -0.1572 -0.2305
    1DIPC   GL122635   0.481   2.349   4.521 -0.1611  0.1938 -0.2903
    1DIPC   GL222636   0.451   2.753   4.617 -0.0309 -0.3378  0.0472
    1DIPC   C1A22637   0.576   2.327   4.920  0.1150 -0.2971  0.0324
    1DIPC   D2A22638   0.765   2.597   5.323  0.1359  0.0600  0.0722
    1DIPC   D3A22639   0.791   2.278   5.526  0.1927  0.0031  0.1356
    1DIPC   C4A22640   1.124   2.213   5.763  0.0399 -0.0669 -0.2497
    1DIPC   C1B22641   0.415   2.944   4.992 -0.3069  0.1212 -0.0382
    1DIPC   D2B22642   0.645   3.269   5.109  0.0689 -0.0794  0.0966
    1DIPC   D3B22643   0.965   3.264   4.742 -0.2582  0.0038 -0.1287
    1DIPC   C4B22644   1.407   3.122   4.876 -0.2733  0.1052  0.0310
    1DIPC   NC322645  16.629  16.644   3.308  0.0954 -0.2877 -0.1386
    1DIPC   PO422646  16.586  16.402   2.989 -0.1874  0.1926  0.2476
    1DIPC   GL122647  16.395  16.100   3.214 -0.1204 -0.2606 -0.3421
    1DIPC   GL222648  16.529  16.206   3.559  0.0186  0.0564 -0.4454
    1DIPC   C1A22649  16.026  16.124   3.519  0.0162 -0.0704 -0.0487
    1DIPC   D2A22650  16.071  16.103   3.969 -0.1231 -0.3213 -0.0586
    1DIPC   D3A22651  16.335  16.306   4.208  0.1190  0.3845 -0.2368
    1DIPC   C4A22652  16.628  16.637   4.363  0.0533 -0.1793  0.1660
    1DIPC   C1B22653  16.830  16.399   3.908 -0.1465  0.2033  0.0209
    1DIPC   D2B22654  16.946  16.104   4.263 -0.0214 -0.2513  0.2644
    1DIPC   D3B22655  16.607  16.021   4.555 -0.1004 -0.2019  0.2349
    1DIPC   C4B22656  16.147  15.892   4.492 -0.2836 -0.3573  0.0357
    1DIPC   NC322657   8.588   7.999   2.833  0.2056 -0.1937 -0.0326
    1DIPC   PO422658   8.815   8.100   3.177 -0.0116  0.1104 -0.0973
    1DIPC   GL122659   8.833   8.000   3.563  0.2349  0.0261  0.1958
    1DIPC   GL222660   8.725   7.694   3.522  0.1778 -0.1761 -0.2065
    1DIPC   C1A22661   8.841   8.019   3.954 -0.0550 -0.0546  0.2003
    1DIPC   D2A22662   8.516   8.119   4.288  0.1850  0.0314  0.2883
    1DIPC   D3A22663   8.635   7.842   4.550  0.0322  0.2147  0.1151
    1DIPC   C4A22664   8.506   7.440   4.336 -0.1570 -0.1595  0.0948
    1DIPC   C1B22665   8.878   7.539   3.995 -0.0467  0.3473 -0.0095
    1DIPC   D2B22666   9.021   7.262   4.305 -0.3059  0.1301 -0.3185
    1DIPC   D3B22667   9.109   6.866   4.165  0.0127 -0.6416 -0.2565
    1DIPC   C4B22668   9.404   6.603   4.386  0.3824  0.2473  0.1797
    1DIPC   NC322669  11.289  11.684   2.192 -0.0251 -0.0379  0.2644
    1DIPC   PO422670  11.152  12.108   2.309 -0.0112 -0.0019  0.2675
    1DIPC   GL122671  10.962  11.859   2.662 -0.1042  0.3804  0.0066
    1DIPC   GL222672  11.079  11.614   2.666 -0.1441 -0.2577 -0.1485
    1DIPC   C1A22673  10.753  11.522   2.988  0.1011  0.2115  0.0133
    1DIPC   D2A22674  10.633  11.362   3.366 -0.1959  0.0418  0.0927
    1DIPC   D3A22675  10.563  11.471   3.864 -0.3508 -0.0777  0.1289
    1DIPC   C4A22676  10.557  11.815   4.109  0.0034 -0.1137  0.2146
    1DIPC   C1B22677  11.348  11.458   2.997  0.2534 -0.2978 -0.3247
    1DIPC   D2B22678  11.554  11.426   3.468 -0.1333  0.0363  0.2840
    1DIPC   D3B22679  11.153  11.273   3.794 -0.1224  0.1697  0.1450
    1DIPC   C4B22680  10.839  10.980   3.790  0.0677 -0.1109 -0.2800
    1DIPC   NC322681  17.246   4.677   1.699 -0.0621  0.1023 -0.0181
    1DIPC   PO422682  17.565   4.386   1.651 -0.1308  0.1053 -0.1432
    1DIPC   GL122683  17.621   4.505   2.051 -0.1068  0.0023  0.0687
    1DIPC   GL222684  17.921   4.295   2.178 -0.5212 -0.1335 -0.0089
    1DIPC   C1A22685  17.570   4.739   2.384  0.2287  0.2874 -0.1566
    1DIPC   D2A22686  17.253   4.932   2.690 -0.0169  0.0327 -0.0864
    1DIPC   D3A22687  17.072   4.954   3.160  0.1979  0.0995  0.4568
    1DIPC   C4A22688  16.934   4.630   3.330  0.0862 -0.0588  0.0527
    1DIPC   C1B22689  17.762   4.030   2.457 -0.2244 -0.5385  0.1721
    1DIPC   D2B22690  17.512   3.723   2.816 -0.0421 -0.2222  0.0720
    1DIPC   D3B22691  17.688   3.672   3.172 -0.0324  0.4030  0.3195
    1DIPC   C4B22692  18.031   3.431   3.386  0.0120 -0.0686 -0.5872
    1DIPC   NC322693  21.452  23.645   3.154  0.0157 -0.3149 -0.1967
    1DIPC   PO422694  21.404  24.081   2.992 -0.1521  0.1190 -0.2285
    1DIPC   GL122695  21.533  24.163   3.430  0.1125  0.0709  0.4385
    1DIPC   GL222696  21.776  23.872   3.468  0.0445 -0.3496  0.1087
    1DIPC   C1A22697  21.265  24.066   3.750  0.1870 -0.4514  0.1336
    1DIPC   D2A22698  21.132  24.066   4.147 -0.1342  0.1833 -0.4623
    1DIPC   D3A22699  20.759  24.358   4.203  0.0166 -0.2892  0.2026
    1DIPC   C4A22700  20.732  24.618   4.562  0.2135 -0.0108  0.0173
    1DIPC   C1B22701  21.541  23.684   3.798 -0.1480  0.1934 -0.3091
    1DIPC   D2B22702  21.263  23.561   4.144  0.1025 -0.1871  0.1837
    1DIPC   D3B22703  21.299  23.794   4.552 -0.0983 -0.0270  0.1907
    1DIPC   C4B22704  21.424  23.576   4.865 -0.0627 -0.0363  0.2236
    1DIPC   NC322705  27.295  18.360   3.764 -0.2731 -0.0436  0.0918
    1DIPC   PO422706  26.910  18.310   3.659 -0.1715  0.0726 -0.0069
    1DIPC   GL122707  26.746  18.348   4.093 -0.1944 -0.0771  0.1649
    1DIPC   GL222708  27.068  18.354   4.295 -0.0866 -0.0228 -0.2002
    1DIPC   C1A22709  26.627  18.659   4.323  0.1543 -0.2290  0.1428
    1DIPC   D2A22710  26.360  18.766   4.588  0.1845  0.1030 -0.1536
    1DIPC   D3A22711  25.978  19.029   4.562 -0.1806 -0.0940 -0.2177
    1DIPC   C4A22712  25.672  19.019   4.911 -0.1441  0.3286 -0.0095
    1DIPC   C1B22713  26.864  18.238   4.630  0.1321 -0.0246  0.1027
    1DIPC   D2B22714  26.846  18.140   5.067 -0.2544  0.1354  0.3589
    1DIPC   D3B22715  27.206  17.973   4.950  0.0062 -0.0855 -0.0407
    1DIPC   C4B22716  27.189  17.916   4.485 -0.0043 -0.0293  0.1135
    1DIPC   NC322717  19.944   6.905   1.813  0.0316  0.0026  0.0316
    1DIPC   PO422718  19.818   7.326   1.743  0.0259  0.3193  0.3918
    1DIPC   GL122719  19.998   7.241   2.118 -0.0666  0.0766  0.2551
    1DIPC   GL222720  20.019   7.545   2.358  0.3197 -0.1538 -0.3524
    1DIPC   C1A22721  20.097   6.986   2.474 -0.2540  0.1197  0.0251
    1DIPC   D2A22722  20.180   6.543   2.614  0.1363 -0.1377  0.0562
    1DIPC   D3A22723  19.928   6.333   2.697  0.1772 -0.2028 -0.1456
    1DIPC   C4A22724  19.873   6.552   3.065  0.0488 -0.0906 -0.0823
    1DIPC   C1B22725  20.004   7.447   2.757 -0.1346  0.0253 -0.0545
    1DIPC   D2B22726  19.734   7.594   3.104 -0.1339 -0.1099 -0.1790
    1DIPC   D3B22727  19.733   7.240   3.497 -0.0775  0.1643  0.2023
    1DIPC   C4B22728  19.811   7.323   3.919  0.0409 -0.0731  0.0723
    1DIPC   NC322729  23.674  24.068   3.454  0.0469  0.0861 -0.3175
    1DIPC   PO422730  23.929  24.296   3.713  0.1894  0.2962 -0.2452
    1DIPC   GL122731  23.871  24.410   4.091  0.1121 -0.4582  0.2852
    1DIPC   GL222732  23.952  24.747   4.104  0.0027  0.1114 -0.2062
    1DIPC   C1A22733  23.699  24.164   4.444 -0.1743 -0.1268  0.0738
    1DIPC   D2A22734  23.885  24.026   4.858  0.0261 -0.2128 -0.1100
    1DIPC   D3A22735  23.827  24.412   5.106  0.0839 -0.1898  0.2073
    1DIPC   C4A22736  23.735  24.501   5.506  0.1814  0.0705 -0.4331
    1DIPC   C1B22737  23.839  25.142   4.144  0.1385  0.0920  0.3731
    1DIPC   D2B22738  23.552  25.356   4.426 -0.1177  0.2851  0.1010
    1DIPC   D3B22739  23.412  25.472   4.074  0.1203 -0.0479 -0.0638
    1DIPC   C4B22740  23.153  25.198   3.726  0.1536 -0.0314 -0.0703
    1DIPC   NC322741  13.936   8.407   1.475 -0.4258  0.1008 -0.3077
    1DIPC   PO422742  13.738   8.630   1.832 -0.0823  0.0141 -0.1590
    1DIPC   GL122743  13.716   8.675   2.181  0.3223 -0.1348  0.1866
    1DIPC   GL222744  13.725   8.390   2.332 -0.1821  0.2256  0.0569
    1DIPC   C1A22745  13.938   8.961   2.449 -0.3233 -0.0527  0.0196
    1DIPC   D2A22746  13.907   9.291   2.710 -0.0353  0.0411 -0.0617
    1DIPC   D3A22747  14.165   9.218   3.001 -0.1054 -0.2546 -0.1887
    1DIPC   C4A22748  14.066   8.960   3.337  0.0681  0.0908 -0.3568
    1DIPC   C1B22749  13.808   8.180   2.737  0.0360  0.2810 -0.2664
    1DIPC   D2B22750  13.714   8.263   3.161 -0.5344 -0.0552 -0.1810
    1DIPC   D3B22751  13.715   8.639   3.336 -0.0503  0.0612 -0.1164
    1DIPC   C4B22752  13.372   8.813   3.575  0.2270  0.2752  0.1662
    1DIPC   NC322753  11.274   7.185   2.207  0.0591  0.0842  0.1527
    1DIPC   PO422754  11.353   6.769   2.009 -0.0132 -0.3615  0.1440
    1DIPC   GL122755  11.456   6.701   2.401  0.4722  0.0538  0.1020
    1DIPC   GL222756  11.625   6.957   2.627  0.2030  0.2666  0.0316
    1DIPC   C1A22757  11.270   6.506   2.624 -0.4293 -0.3989  0.2724
    1DIPC   D2A22758  11.482   6.241   3.023  0.1120 -0.1449 -0.0864
    1DIPC   D3A22759  11.906   6.135   3.145 -0.2348  0.1317 -0.2635
    1DIPC   C4A22760  12.228   6.230   2.836  0.0549 -0.0563  0.2575
    1DIPC   C1B22761  11.681   7.075   3.062 -0.0303  0.0090 -0.1328
    1DIPC   D2B22762  11.813   7.090   3.569 -0.0527 -0.2317 -0.0840
    1DIPC   D3B22763  11.863   6.652   3.424 -0.2211  0.1807 -0.2200
    1DIPC   C4B22764  11.979   6.256   3.656 -0.0035 -0.0043  0.1814
    1DIPC   NC322765  19.063  17.763   2.802  0.0688  0.0741  0.4062
    1DIPC   PO422766  18.599  17.688   3.027 -0.0042 -0.1767  0.1410
    1DIPC   GL122767  18.779  17.666   3.408  0.1625 -0.0001  0.0319
    1DIPC   GL222768  19.071  17.720   3.331 -0.0878  0.1893  0.0797
    1DIPC   C1A22769  18.788  17.768   3.757  0.1512 -0.1297  0.0309
    1DIPC   D2A22770  18.822  17.450   4.037 -0.3651 -0.0297  0.1369
    1DIPC   D3A22771  18.815  17.254   3.682 -0.0880 -0.0507 -0.2121
    1DIPC   C4A22772  18.644  16.908   3.725  0.3400 -0.0039  0.2189
    1DIPC   C1B22773  19.168  18.153   3.552 -0.1249 -0.3051 -0.2258
    1DIPC   D2B22774  19.047  18.563   3.711 -0.1529  0.0344 -0.2077
    1DIPC   D3B22775  19.061  18.465   4.186 -0.1458 -0.0535  0.3641
    1DIPC   C4B22776  19.307  18.184   4.386 -0.0149  0.0444 -0.1623
    1DIPC   NC322777  14.135  16.231   2.360 -0.0407  0.1679 -0.1200
    1DIPC   PO422778  14.418  15.925   2.575  0.0589 -0.1211  0.3408
    1DIPC   GL122779  14.333  15.738   2.976 -0.3501  0.0643 -0.2873
    1DIPC   GL222780  14.526  15.976   3.187  0.1471 -0.2248 -0.1808
    1DIPC   C1A22781  14.547  15.564   3.403 -0.3216  0.0700 -0.0460
    1DIPC   D2A22782  14.628  15.198   3.702  0.2050  0.3909  0.0482
    1DIPC   D3A22783  14.936  14.895   4.006  0.5509 -0.3853 -0.3028
    1DIPC   C4A22784  14.965  14.990   4.439 -0.3274  0.0220  0.2185
    1DIPC   C1B22785  14.355  15.971   3.609 -0.0326 -0.2438 -0.3374
    1DIPC   D2B22786  14.302  15.800   4.017 -0.1065 -0.0195  0.1701
    1DIPC   D3B22787  14.636  15.630   3.908  0.1101 -0.1086 -0.3503
    1DIPC   C4B22788  14.883  15.439   4.097  0.1739  0.2284 -0.0299
    1DIPC   NC322789  16.413   5.772   1.118 -0.1887 -0.0404 -0.0041
    1DIPC   PO422790  16.361   5.773   1.637 -0.0217  0.1713  0.0116
    1DIPC   GL122791  16.521   5.553   1.971 -0.1353 -0.0302 -0.3873
    1DIPC   GL222792  16.235   5.555   2.142  0.1569 -0.2170 -0.0975
    1DIPC   C1A22793  16.824   5.630   2.200  0.2608  0.0032  0.0289
    1DIPC   D2A22794  17.265   5.442   2.382 -0.0060 -0.1927  0.0307
    1DIPC   D3A22795  17.715   5.303   2.488  0.0503  0.3313  0.0149
    1DIPC   C4A22796  17.563   5.275   2.902 -0.1586 -0.3372  0.0012
    1DIPC   C1B22797  16.446   5.550   2.525  0.4685 -0.1428 -0.1539
    1DIPC   D2B22798  16.689   5.769   2.761  0.3219 -0.0412 -0.2401
    1DIPC   D3B22799  16.328   5.739   3.059 -0.0523 -0.2179  0.1114
    1DIPC   C4B22800  16.339   5.566   3.439 -0.2363 -0.1971  0.0104
    1DIPC   NC322801  12.150  28.563   2.828  0.2506 -0.0943  0.1817
    1DIPC   PO422802  12.008  28.497   3.207  0.4021 -0.1405  0.0217
    1DIPC   GL122803  12.158  28.561   3.619 -0.1299  0.2521  0.2079
    1DIPC   GL222804  12.089  28.288   3.711  0.0313 -0.2348 -0.2040
    1DIPC   C1A22805  12.300  28.559   4.098 -0.0864 -0.2303 -0.2511
    1DIPC   D2A22806  12.624  28.341   4.165  0.1347 -0.1708  0.0441
    1DIPC   D3A22807  12.856  28.279   4.529  0.0615  0.1404  0.1377
    1DIPC   C4A22808  13.138  28.008   4.576  0.0869  0.2335 -0.1562
    1DIPC   C1B22809  11.981  28.177   4.188  0.0157  0.0853 -0.0583
    1DIPC   D2B22810  12.036  28.400   4.542  0.3689  0.6554 -0.0001
    1DIPC   D3B22811  12.408  28.474   4.578  0.0354  0.0742 -0.0628
    1DIPC   C4B22812  12.401  28.388   5.075  0.0311 -0.1818 -0.1459
    1DIPC   NC322813  27.694   9.824   3.622 -0.0143 -0.1656  0.3039
    1DIPC   PO422814  27.901   9.375   3.695  0.1165  0.0779 -0.0298
    1DIPC   GL122815  28.117   9.501   3.979 -0.0160  0.1085  0.1951
    1DIPC   GL222816  27.852   9.502   4.262  0.2958  0.0118  0.0889
    1DIPC   C1A22817  28.268   9.775   4.339  0.4424 -0.0543 -0.1550
    1DIPC   D2A22818  28.274   9.884   4.730  0.2072  0.1233  0.0140
    1DIPC   D3A22819  27.904   9.950   4.647  0.2603 -0.1668 -0.1226
    1DIPC   C4A22820  27.524   9.700   4.748  0.0556 -0.0427  0.1112
    1DIPC   C1B22821  27.950   9.433   4.680  0.0432 -0.1940  0.0946
    1DIPC   D2B22822  28.111   9.070   4.781  0.3407  0.0777  0.1245
    1DIPC   D3B22823  27.907   9.141   5.209  0.2186 -0.1923 -0.2553
    1DIPC   C4B22824  28.201   9.288   5.503 -0.1642 -0.1251 -0.1723
    1DIPC   NC322825  19.465  10.813   2.497 -0.1294  0.3226 -0.3789
    1DIPC   PO422826  18.964  11.004   2.406 -0.0050  0.0078  0.2246
    1DIPC   GL122827  19.021  10.794   2.808  0.2818  0.1682 -0.0712
    1DIPC   GL222828  19.256  10.570   2.999 -0.1611  0.0004 -0.0027
    1DIPC   C1A22829  18.810  10.704   3.195  0.0498 -0.0373 -0.0254
    1DIPC   D2A22830  18.739  10.641   3.553  0.0376 -0.0435 -0.1818
    1DIPC   D3A22831  19.083  10.550   3.791  0.2039 -0.3852 -0.1041
    1DIPC   C4A22832  19.021  10.198   4.143 -0.0988  0.0904  0.1388
    1DIPC   C1B22833  19.440  10.579   3.420 -0.1484 -0.2724 -0.0107
    1DIPC   D2B22834  19.560  10.602   3.909  0.1261 -0.0823 -0.0366
    1DIPC   D3B22835  19.941  10.598   4.123 -0.3509 -0.1295  0.2039
    1DIPC   C4B22836  20.017  10.215   4.235  0.0685  0.1384  0.0225
    1DIPC   NC322837   4.154  10.749   2.972 -0.0624  0.0491 -0.1060
    1DIPC   PO422838   3.823  10.818   3.164  0.2887 -0.0371  0.2709
    1DIPC   GL122839   4.103  10.980   3.531  0.0955  0.1679 -0.2701
    1DIPC   GL222840   4.008  11.334   3.503  0.1343 -0.1248 -0.3190
    1DIPC   C1A22841   4.229  10.800   3.938  0.0200 -0.2407 -0.1743
    1DIPC   D2A22842   4.354  10.490   4.220  0.3244  0.1410  0.4108
    1DIPC   D3A22843   4.537  10.942   4.336  0.0523  0.2037 -0.2759
    1DIPC   C4A22844   4.514  11.330   4.293 -0.0495  0.1288 -0.1936
    1DIPC   C1B22845   4.171  11.290   3.981  0.0084  0.0027  0.2358
    1DIPC   D2B22846   4.003  11.320   4.323  0.1289  0.2621 -0.1458
    1DIPC   D3B22847   4.184  11.104   4.632 -0.2614  0.3168  0.1434
    1DIPC   C4B22848   3.920  10.831   4.926 -0.1043  0.1897  0.4363
    1DIPC   NC322849  25.488  10.434   3.374  0.0163 -0.1695 -0.1284
    1DIPC   PO422850  24.985  10.467   3.260  0.2063  0.2600  0.0837
    1DIPC   GL122851  24.991  10.284   3.645 -0.0033  0.2942 -0.3355
    1DIPC   GL222852  25.232  10.046   3.747 -0.0354  0.0241 -0.2035
    1DIPC   C1A22853  24.928  10.233   4.103 -0.0506  0.2109 -0.1185
    1DIPC   D2A22854  24.730  10.124   4.599 -0.0930 -0.1709  0.0084
    1DIPC   D3A22855  24.614  10.049   5.040  0.0117 -0.0506  0.2381
    1DIPC   C4A22856  24.706   9.816   5.347 -0.1676 -0.0587 -0.1298
    1DIPC   C1B22857  24.970   9.724   3.920  0.1145 -0.0079 -0.0610
    1DIPC   D2B22858  24.657   9.630   4.221  0.0284 -0.0652 -0.1177
    1DIPC   D3B22859  24.780   9.631   4.646  0.0992 -0.0257 -0.0898
    1DIPC   C4B22860  24.723   9.398   5.093  0.0597 -0.1147  0.0326
    1DIPC   NC322861  15.436  16.578   2.786 -0.0636  0.2504  0.0627
    1DIPC   PO422862  15.176  16.574   2.483  0.1052 -0.0780 -0.1765
    1DIPC   GL122863  14.951  16.706   2.834 -0.0037 -0.1364  0.1290
    1DIPC   GL222864  14.619  16.963   2.802  0.2611  0.0430  0.0598
    1DIPC   C1A22865  14.621  16.498   3.156 -0.2807  0.2527  0.0864
    1DIPC   D2A22866  14.644  16.593   3.521  0.1230  0.0437  0.4131
    1DIPC   D3A22867  14.683  16.236   3.938 -0.1469 -0.1413 -0.0556
    1DIPC   C4A22868  14.617  16.424   4.374  0.2710 -0.0105 -0.1335
    1DIPC   C1B22869  14.999  17.145   3.050  0.1184  0.1281 -0.1379
    1DIPC   D2B22870  15.309  17.401   3.258  0.0221 -0.0106  0.0316
    1DIPC   D3B22871  15.370  16.999   3.388 -0.0922  0.0295 -0.0440
    1DIPC   C4B22872  15.081  16.642   3.321  0.0187  0.0590  0.0170
    1DIPC   NC322873  25.375   8.598   3.579  0.1882 -0.0723  0.1641
    1DIPC   PO422874  25.136   8.904   3.439  0.1022 -0.2729 -0.0436
    1DIPC   GL122875  25.186   9.121   3.728  0.2864 -0.0141  0.2922
    1DIPC   GL222876  25.147   8.831   3.984 -0.0342  0.0908  0.0497
    1DIPC   C1A22877  24.798   9.145   4.059 -0.3336 -0.0756  0.2103
    1DIPC   D2A22878  24.571   8.983   4.424 -0.4364  0.1541  0.0171
    1DIPC   D3A22879  24.463   9.271   4.570  0.6341  0.0643  0.0041
    1DIPC   C4A22880  24.191   9.509   4.260  0.1560 -0.0125  0.0777
    1DIPC   C1B22881  24.958   8.708   4.433 -0.0649  0.1705  0.0953
    1DIPC   D2B22882  24.866   8.368   4.638 -0.0871 -0.1571 -0.2670
    1DIPC   D3B22883  24.804   8.715   4.874 -0.0245 -0.2055  0.0448
    1DIPC   C4B22884  24.471   8.914   4.941 -0.0751  0.2165 -0.0583
    1DIPC   NC322885  24.595  16.383   3.812  0.1606  0.1766  0.1891
    1DIPC   PO422886  24.477  16.091   3.411  0.1873  0.4489  0.0435
    1DIPC   GL122887  24.481  15.889   3.748  0.0164  0.0149 -0.4066
    1DIPC   GL222888  24.498  15.610   3.853 -0.0272  0.1936 -0.1596
    1DIPC   C1A22889  24.379  15.878   4.245 -0.0913  0.2324 -0.2183
    1DIPC   D2A22890  24.287  16.159   4.604 -0.0139  0.1155 -0.1327
    1DIPC   D3A22891  23.947  16.405   4.634  0.1606 -0.0296  0.0573
    1DIPC   C4A22892  23.625  16.265   4.808 -0.1183  0.0896  0.2979
    1DIPC   C1B22893  24.370  15.222   4.155  0.1885 -0.0944  0.1067
    1DIPC   D2B22894  24.202  15.153   4.567  0.0466  0.0491  0.0617
    1DIPC   D3B22895  24.387  15.202   4.950 -0.1390  0.2882 -0.0552
    1DIPC   C4B22896  24.742  15.083   4.962 -0.3123 -0.0231  0.1232
    1DIPC   NC322897   3.390  19.871   3.547  0.3854 -0.1182 -0.2403
    1DIPC   PO422898   3.155  19.969   3.903  0.0395 -0.1360  0.2558
    1DIPC   GL122899   3.236  20.275   4.072  0.1195 -0.0663 -0.3197
    1DIPC   GL222900   2.955  20.485   4.329 -0.0511 -0.2101 -0.1622
    1DIPC   C1A22901   3.428  20.333   4.431  0.0810  0.0626 -0.1650
    1DIPC   D2A22902   3.460  20.534   4.756  0.1028  0.1645 -0.2979
    1DIPC   D3A22903   3.865  20.703   4.635 -0.0636 -0.0578 -0.1248
    1DIPC   C4A22904   4.253  20.656   4.865 -0.1089  0.1193  0.0628
    1DIPC   C1B22905   3.089  20.800   4.589 -0.0141  0.1367  0.2827
    1DIPC   D2B22906   3.138  20.606   5.097  0.2518  0.2978 -0.0845
    1DIPC   D3B22907   3.091  21.070   5.246 -0.1867  0.2069  0.0198
    1DIPC   C4B22908   2.694  21.205   5.306  0.0360 -0.0378  0.1321
    1DIPC   NC322909  25.652   9.814   2.906  0.2477  0.3274  0.1960
    1DIPC   PO422910  25.748   9.990   3.217  0.1722 -0.0412  0.0031
    1DIPC   GL122911  25.679   9.796   3.652  0.4006 -0.2323 -0.2134
    1DIPC   GL222912  25.863   9.847   3.831  0.1449  0.2221  0.0261
    1DIPC   C1A22913  25.464   9.555   3.884  0.1888 -0.2157  0.0675
    1DIPC   D2A22914  25.452   9.193   4.195 -0.1228  0.0643  0.1247
    1DIPC   D3A22915  25.107   9.439   4.290 -0.1333  0.2643  0.3382
    1DIPC   C4A22916  25.189   9.829   4.361 -0.1067 -0.3048  0.0158
    1DIPC   C1B22917  25.650  10.086   4.104  0.1134 -0.1490  0.1148
    1DIPC   D2B22918  25.623  10.248   4.408 -0.0011 -0.1194 -0.1287
    1DIPC   D3B22919  25.246  10.335   4.480  0.3181  0.1080  0.4397
    1DIPC   C4B22920  24.927  10.526   4.526  0.2536  0.0117 -0.0032
    1DIPC   NC322921  22.710  17.981   2.520 -0.0845 -0.0071  0.2894
    1DIPC   PO422922  22.539  17.408   2.731 -0.1509 -0.1842  0.0679
    1DIPC   GL122923  22.437  17.321   3.113  0.1945  0.0115  0.0895
    1DIPC   GL222924  22.128  17.428   3.277  0.0701  0.0629  0.0747
    1DIPC   C1A22925  22.389  17.095   3.599  0.0830 -0.0756 -0.0163
    1DIPC   D2A22926  22.545  17.070   4.020  0.4391  0.2294 -0.0806
    1DIPC   D3A22927  22.887  17.043   3.864 -0.0667 -0.0326  0.2743
    1DIPC   C4A22928  22.838  17.263   3.462  0.1144  0.1252  0.0199
    1DIPC   C1B22929  22.497  17.630   3.547  0.2871  0.0281  0.0822
    1DIPC   D2B22930  22.669  17.549   3.945  0.1583  0.0733  0.0471
    1DIPC   D3B22931  22.643  17.811   4.298 -0.0037 -0.0647  0.2339
    1DIPC   C4B22932  22.899  17.756   4.672 -0.2554 -0.0635  0.2784
    1DIPC   NC322933   0.910  19.619   3.913  0.0931 -0.2072  0.1983
    1DIPC   PO422934   1.147  19.253   4.148 -0.0471 -0.0680  0.2599
    1DIPC   GL122935   1.445  18.929   4.239  0.3379 -0.3030  0.1298
    1DIPC   GL222936   1.722  18.753   4.244  0.3904 -0.0027 -0.0260
    1DIPC   C1A22937   1.537  18.819   4.708 -0.2151 -0.0937 -0.1393
    1DIPC   D2A22938   1.578  18.663   5.094  0.1664  0.1958  0.0250
    1DIPC   D3A22939   1.307  18.839   5.251  0.2422 -0.0595 -0.0249
    1DIPC   C4A22940   1.350  18.823   5.666  0.0588 -0.1655  0.1796
    1DIPC   C1B22941   2.036  18.963   4.489  0.0717 -0.1856 -0.1059
    1DIPC   D2B22942   2.459  18.991   4.751  0.0148 -0.0405 -0.0039
    1DIPC   D3B22943   2.476  18.626   4.459 -0.0981  0.2405 -0.0765
    1DIPC   C4B22944   2.839  18.359   4.417 -0.0941  0.1273  0.0903
    1DIPC   NC322945  14.863  24.494   2.974 -0.0770  0.0575  0.1447
    1DIPC   PO422946  14.633  24.141   3.088  0.1000  0.1272 -0.0725
    1DIPC   GL122947  14.322  24.077   3.360 -0.2598 -0.0281 -0.0141
    1DIPC   GL222948  14.158  24.420   3.402  0.1330  0.1438  0.0232
    1DIPC   C1A22949  14.254  24.103   3.793  0.3423 -0.0229  0.0745
    1DIPC   D2A22950  14.189  24.338   4.228  0.1741  0.2896  0.1402
    1DIPC   D3A22951  14.422  23.974   4.372 -0.1424  0.1574  0.0250
    1DIPC   C4A22952  14.759  24.074   4.342 -0.1681 -0.1895  0.0396
    1DIPC   C1B22953  14.139  24.646   3.767 -0.2798 -0.1913 -0.0197
    1DIPC   D2B22954  13.777  24.937   3.789 -0.0222  0.0350  0.3838
    1DIPC   D3B22955  13.510  24.981   4.132 -0.0258 -0.2833 -0.3122
    1DIPC   C4B22956  13.594  24.977   4.516 -0.0262  0.0070  0.2868
    1DIPC   NC322957  22.210   0.459   2.573  0.0961  0.0729 -0.0063
    1DIPC   PO422958  22.528   0.680   2.836  0.1572 -0.3697 -0.1096
    1DIPC   GL122959  22.621   0.589   3.225  0.2159  0.2443 -0.2816
    1DIPC   GL222960  22.441   0.315   3.387  0.1740  0.0799 -0.1373
    1DIPC   C1A22961  22.754   0.892   3.487  0.0346  0.1498 -0.1220
    1DIPC   D2A22962  22.588   1.172   3.794  0.0243  0.0140  0.1587
    1DIPC   D3A22963  22.632   1.642   3.773 -0.0874 -0.3085  0.0778
    1DIPC   C4A22964  22.855   1.839   4.187 -0.3456  0.0904  0.1208
    1DIPC   C1B22965  22.306   0.131   3.750 -0.1005  0.3929  0.2220
    1DIPC   D2B22966  22.196  -0.297   3.843  0.3217  0.0073  0.1087
    1DIPC   D3B22967  22.187  -0.245   4.317  0.1374 -0.0665  0.3539
    1DIPC   C4B22968  22.192   0.152   4.451 -0.2624  0.0614 -0.2447
    1DIPC   NC322969   8.193   3.451   3.766 -0.0688 -0.0271  0.1730
    1DIPC   PO422970   7.797   3.593   3.978  0.0524  0.1425  0.0032
    1DIPC   GL122971   7.957   3.576   4.387  0.2240  0.0249  0.1437
    1DIPC   GL222972   8.341   3.489   4.288  0.2351 -0.3352 -0.0359
    1DIPC   C1A22973   7.974   3.648   4.851  0.4175 -0.1556  0.2219
    1DIPC   D2A22974   8.125   3.736   5.297 -0.0190 -0.2176 -0.0028
    1DIPC   D3A22975   8.520   3.796   5.553 -0.1771  0.2029 -0.0822
    1DIPC   C4A22976   8.688   4.271   5.715  0.0790  0.1494  0.2073
    1DIPC   C1B22977   8.416   3.500   4.739 -0.0586 -0.3697  0.0260
    1DIPC   D2B22978   8.313   3.312   5.138  0.2200  0.0422 -0.1062
    1DIPC   D3B22979   8.102   3.010   4.908 -0.0962 -0.0869 -0.0264
    1DIPC   C4B22980   8.082   3.144   4.595  0.2650 -0.1846 -0.1089
    1DIPC   NC322981  22.447  24.118   3.052 -0.1638 -0.0323 -0.4140
    1DIPC   PO422982  22.257  23.777   3.338 -0.0843 -0.2320  0.1482
    1DIPC   GL122983  22.168  23.737   3.748  0.2897  0.1515  0.2226
    1DIPC   GL222984  22.159  24.137   3.792 -0.2495 -0.0713  0.0053
    1DIPC   C1A22985  22.060  23.580   4.089  0.2029 -0.1902 -0.0820
    1DIPC   D2A22986  22.129  23.431   4.441 -0.0839  0.1738 -0.0269
    1DIPC   D3A22987  21.666  23.489   4.447  0.1020 -0.0954  0.1390
    1DIPC   C4A22988  21.343  23.177   4.558 -0.1422 -0.3078  0.0356
    1DIPC   C1B22989  22.031  24.324   4.229  0.2846 -0.0511 -0.1583
    1DIPC   D2B22990  22.116  24.649   4.506 -0.1315  0.1262  0.2385
    1DIPC   D3B22991  22.026  24.591   4.972  0.5765 -0.0460 -0.0597
    1DIPC   C4B22992  21.678  24.517   5.229  0.1514 -0.0340 -0.1667
    1DIPC   NC322993  12.634  19.219   3.028 -0.1115 -0.2127  0.1508
    1DIPC   PO422994  12.991  19.619   3.055 -0.1110 -0.0497  0.3009
    1DIPC   GL122995  12.860  19.452   3.446  0.1766 -0.2366  0.1362
    1DIPC   GL222996  13.054  19.426   3.827  0.0772 -0.0982 -0.0203
    1DIPC   C1A22997  12.545  19.524   3.806 -0.0716 -0.1723 -0.0529
    1DIPC   D2A22998  12.414  19.545   4.290  0.1769 -0.1466  0.1268
    1DIPC   D3A22999  12.311  19.413   4.685 -0.1663 -0.0692  0.0411
    1DIPC   C4A23000  12.518  19.115   4.961  0.2414 -0.0513  0.1982
    1DIPC   C1B23001  12.888  19.380   4.169  0.0209  0.3987  0.1941
    1DIPC   D2B23002  12.825  19.498   4.597  0.1100  0.1566 -0.2211
    1DIPC   D3B23003  12.774  19.931   4.626  0.0176  0.1112 -0.1794
    1DIPC   C4B23004  13.101  20.092   4.905 -0.1191 -0.0174 -0.1771
    1DIPC   NC323005  12.368  17.207   2.266  0.0161 -0.1896 -0.1539
    1DIPC   PO423006  12.481  16.675   2.428 -0.0984  0.0626 -0.0477
    1DIPC   GL123007  12.593  16.743   2.883  0.5162 -0.2813 -0.0911
    1DIPC   GL223008  12.405  16.655   3.088 -0.1394 -0.1253 -0.2575
    1DIPC   C1A23009  12.944  16.654   3.089  0.0429 -0.2775  0.0429
    1DIPC   D2A23010  13.355  16.848   2.982  0.2371 -0.0626 -0.2282
    1DIPC   D3A23011  13.622  16.548   3.154 -0.0291 -0.1449 -0.0503
    1DIPC   C4A23012  13.459  16.170   3.169 -0.0091  0.1262  0.1439
    1DIPC   C1B23013  12.255  16.706   3.580 -0.2893  0.0442  0.0072
    1DIPC   D2B23014  11.940  16.880   3.750  0.0201  0.3354 -0.0054
    1DIPC   D3B23015  12.162  16.768   4.123  0.4597  0.0351 -0.0167
    1DIPC   C4B23016  12.259  17.007   4.365  0.1633  0.1332  0.0842
    1DIPC   NC323017  16.491  18.653   2.562  0.1896 -0.0804  0.1758
    1DIPC   PO423018  16.024  18.744   2.574  0.0052 -0.2569 -0.1829
    1DIPC   GL123019  16.081  18.562   2.966  0.2610 -0.5566 -0.1588
    1DIPC   GL223020  15.934  18.345   3.049  0.3487 -0.0711 -0.0872
    1DIPC   C1A23021  16.418  18.327   3.323  0.2971  0.0813  0.0405
    1DIPC   D2A23022  16.508  18.163   3.746  0.0942 -0.1775  0.0799
    1DIPC   D3A23023  16.844  18.346   3.900  0.0164 -0.0133  0.0530
    1DIPC   C4A23024  17.329  18.411   3.759 -0.0089  0.2310  0.1556
    1DIPC   C1B23025  16.016  18.154   3.466 -0.0049  0.0561 -0.2898
    1DIPC   D2B23026  16.162  17.762   3.659  0.1434 -0.0175 -0.4599
    1DIPC   D3B23027  16.147  17.605   4.084 -0.2960 -0.0506  0.0513
    1DIPC   C4B23028  16.315  17.363   4.387  0.2437 -0.0419 -0.0360
    1DIPC   NC323029  12.529  10.777   2.180 -0.0521 -0.1904 -0.1880
    1DIPC   PO423030  12.083  10.654   2.253  0.4177  0.2471  0.2402
    1DIPC   GL123031  12.182  11.053   2.360  0.1452  0.0191 -0.2617
    1DIPC   GL223032  11.969  11.166   2.551  0.0292  0.3565 -0.1689
    1DIPC   C1A23033  12.411  11.251   2.667  0.0456 -0.1429  0.0863
    1DIPC   D2A23034  12.643  11.393   2.913 -0.0812  0.1052  0.0618
    1DIPC   D3A23035  12.462  11.089   3.228  0.0629 -0.3265  0.1244
    1DIPC   C4A23036  12.594  10.574   3.133  0.1351  0.1930  0.0388
    1DIPC   C1B23037  12.095  10.922   2.863  0.2042 -0.0385  0.0949
    1DIPC   D2B23038  12.365  10.777   2.732 -0.3131  0.0786 -0.1698
    1DIPC   D3B23039  12.805  10.931   2.826  0.0096  0.2992  0.0832
    1DIPC   C4B23040  12.983  11.198   3.212 -0.1294 -0.1487  0.3351
    1DIPC   NC323041  12.319   8.137   2.251 -0.1746 -0.1042  0.1315
    1DIPC   PO423042  12.788   8.254   2.214  0.0058  0.2274  0.3175
    1DIPC   GL123043  12.603   8.100   2.670  0.0856 -0.0527  0.2058
    1DIPC   GL223044  12.247   8.095   2.773 -0.1244  0.3202 -0.3660
    1DIPC   C1A23045  12.645   8.091   3.125 -0.2838  0.0875 -0.1226
    1DIPC   D2A23046  12.645   7.953   3.645 -0.2032 -0.3120 -0.1021
    1DIPC   D3A23047  12.510   8.390   3.618  0.0174  0.0335  0.3117
    1DIPC   C4A23048  12.811   8.617   3.370 -0.0052  0.2784 -0.1059
    1DIPC   C1B23049  12.331   7.745   2.956 -0.4483  0.2275 -0.1399
    1DIPC   D2B23050  12.412   7.600   3.365  0.1684  0.0362 -0.0816
    1DIPC   D3B23051  12.601   7.226   3.199  0.0732 -0.2612 -0.1549
    1DIPC   C4B23052  13.098   7.094   3.298 -0.1848  0.2895  0.1950
    1DIPC   NC323053   2.063   1.844   3.547 -0.0524 -0.1103  0.0553
    1DIPC   PO423054   2.079   1.829   3.976  0.0475 -0.0682  0.2637
    1DIPC   GL123055   2.152   1.858   4.423 -0.3311 -0.1105  0.0251
    1DIPC   GL223056   2.288   2.197   4.558 -0.0287 -0.0622  0.1965
    1DIPC   C1A23057   2.155   1.697   4.758 -0.0597  0.1657 -0.5162
    1DIPC   D2A23058   2.417   1.462   4.987  0.0978 -0.2429 -0.0119
    1DIPC   D3A23059   2.408   1.441   5.513  0.2266 -0.0770  0.2830
    1DIPC   C4A23060   2.730   1.409   5.769 -0.0067  0.0453 -0.2130
    1DIPC   C1B23061   2.547   2.113   4.832  0.2904  0.0686 -0.4210
    1DIPC   D2B23062   2.974   2.244   4.837  0.1633 -0.2758  0.1101
    1DIPC   D3B23063   3.001   2.053   5.284  0.0416  0.1833 -0.3724
    1DIPC   C4B23064   3.018   1.946   5.669  0.0207  0.0128  0.1663
    1DIPC   NC323065  23.775   8.857   2.394  0.1767  0.2622 -0.0188
    1DIPC   PO423066  23.527   8.427   2.507 -0.4288 -0.3103  0.1289
    1DIPC   GL123067  23.282   8.688   2.775 -0.1591 -0.2593 -0.2299
    1DIPC   GL223068  23.647   8.736   2.923  0.1108  0.1046  0.1355
    1DIPC   C1A23069  23.205   8.767   3.293  0.3317 -0.0155  0.2391
    1DIPC   D2A23070  23.031   9.122   3.631  0.1398 -0.2223 -0.2787
    1DIPC   D3A23071  23.404   9.176   3.813 -0.0187  0.0194  0.0522
    1DIPC   C4A23072  23.701   9.348   4.161 -0.0339  0.0233 -0.2235
    1DIPC   C1B23073  23.546   9.118   3.264 -0.1166 -0.0777  0.0516
    1DIPC   D2B23074  23.776   9.454   3.347  0.0829  0.4196 -0.1619
    1DIPC   D3B23075  23.940   9.389   3.722 -0.3644 -0.0642 -0.1705
    1DIPC   C4B23076  24.388   9.520   3.663  0.0086  0.2188 -0.1562
    1DIPC   NC323077   4.223  25.704   3.963  0.2678 -0.0548  0.1519
    1DIPC   PO423078   4.461  25.344   3.937 -0.0452  0.0240 -0.1177
    1DIPC   GL123079   4.859  25.536   4.166  0.1986  0.0124 -0.0449
    1DIPC   GL223080   4.688  25.828   4.166  0.0042  0.0979  0.1146
    1DIPC   C1A23081   4.825  25.590   4.664 -0.1156 -0.1650  0.1186
    1DIPC   D2A23082   4.635  25.882   5.054  0.2196 -0.1650  0.0783
    1DIPC   D3A23083   4.683  26.053   5.572 -0.0157 -0.4047  0.0664
    1DIPC   C4A23084   5.072  26.212   5.549 -0.1098  0.1938 -0.3969
    1DIPC   C1B23085   4.431  25.847   4.552 -0.2529 -0.1411  0.0732
    1DIPC   D2B23086   4.262  25.537   4.638  0.0526  0.0582 -0.1192
    1DIPC   D3B23087   4.286  25.472   5.079 -0.0740  0.2017 -0.1157
    1DIPC   C4B23088   4.254  25.759   5.422 -0.0669  0.1249  0.0699
    1DIPC   NC323089   2.464  15.198   3.149 -0.1722  0.1172 -0.0235
    1DIPC   PO423090   2.864  14.922   3.240 -0.2956 -0.3732 -0.2831
    1DIPC   GL123091   2.838  15.037   3.579 -0.0237  0.1912  0.1939
    1DIPC   GL223092   3.042  14.936   3.711 -0.2704  0.1598 -0.2080
    1DIPC   C1A23093   3.026  15.395   3.866 -0.2627  0.3067 -0.0740
    1DIPC   D2A23094   3.483  15.530   4.006  0.1512 -0.0986 -0.1862
    1DIPC   D3A23095   3.356  15.140   4.203  0.1079 -0.0571 -0.0510
    1DIPC   C4A23096   2.979  15.072   4.236  0.0992  0.1357 -0.0879
    1DIPC   C1B23097   3.480  15.027   3.733  0.1519 -0.1419  0.3718
    1DIPC   D2B23098   3.809  15.048   3.988  0.1164 -0.2726  0.1008
    1DIPC   D3B23099   3.809  15.111   4.472 -0.2781 -0.2383  0.0270
    1DIPC   C4B23100   4.086  14.784   4.628  0.0608  0.2279  0.1064
    1DIPC   NC323101   6.419  19.834   3.146  0.1627 -0.1254 -0.0100
    1DIPC   PO423102   6.219  19.443   3.226  0.0849 -0.4098  0.2019
    1DIPC   GL123103   6.347  19.232   3.510  0.3738 -0.1795 -0.3750
    1DIPC   GL223104   6.554  19.099   3.364 -0.2144 -0.3324 -0.3155
    1DIPC   C1A23105   6.546  19.289   3.845 -0.1398  0.3476  0.0972
    1DIPC   D2A23106   6.496  19.283   4.215 -0.1903  0.0981  0.1313
    1DIPC   D3A23107   6.448  19.011   4.567 -0.0206  0.0150  0.0107
    1DIPC   C4A23108   6.447  19.138   5.101  0.0646 -0.2296 -0.0953
    1DIPC   C1B23109   6.670  18.825   3.675  0.0824  0.0202  0.2319
    1DIPC   D2B23110   6.781  18.808   4.115 -0.1197 -0.5529 -0.1346
    1DIPC   D3B23111   7.244  18.907   4.242 -0.2244 -0.3613  0.3328
    1DIPC   C4B23112   7.456  19.242   4.602  0.0323  0.1232 -0.0198
    1DIPC   NC323113  27.539  12.476   3.719  0.1822 -0.0171 -0.1371
    1DIPC   PO423114  27.178  12.264   3.495 -0.0857 -0.0637 -0.1168
    1DIPC   GL123115  27.051  12.467   3.865 -0.1468  0.1483  0.4105
    1DIPC   GL223116  27.253  12.646   4.102  0.0339  0.4661 -0.0821
    1DIPC   C1A23117  27.002  12.267   4.234 -0.0123 -0.4067 -0.3281
    1DIPC   D2A23118  26.974  12.011   4.571  0.1814 -0.2075 -0.3302
    1DIPC   D3A23119  26.547  11.885   4.449 -0.0682  0.3721 -0.1381
    1DIPC   C4A23120  26.318  12.066   4.140 -0.1708 -0.0892 -0.1181
    1DIPC   C1B23121  27.576  12.415   4.334  0.0437  0.2189  0.1363
    1DIPC   D2B23122  27.627  12.598   4.855 -0.0684 -0.1044 -0.0288
    1DIPC   D3B23123  27.407  12.214   4.810 -0.0636 -0.1043  0.1230
    1DIPC   C4B23124  27.444  11.787   4.710 -0.1332  0.2340  0.1526
    1DIPC   NC323125  21.870  14.449   2.472 -0.1071 -0.1321 -0.3042
    1DIPC   PO423126  21.597  14.778   2.270 -0.0396  0.2507 -0.0188
    1DIPC   GL123127  21.479  14.831   2.706  0.1396  0.0953  0.2578
    1DIPC   GL223128  21.334  14.593   2.932  0.0181 -0.0921 -0.0916
    1DIPC   C1A23129  21.380  15.088   3.053  0.0217  0.0537 -0.1582
    1DIPC   D2A23130  21.139  15.296   3.300  0.1153  0.1071  0.2626
    1DIPC   D3A23131  20.955  14.902   3.303 -0.0726 -0.0847 -0.2350
    1DIPC   C4A23132  20.617  14.908   3.568  0.0313  0.0360  0.1702
    1DIPC   C1B23133  21.775  14.733   3.114 -0.0003 -0.0100 -0.0964
    1DIPC   D2B23134  22.166  14.640   3.040 -0.0983 -0.1856  0.1213
    1DIPC   D3B23135  22.096  14.385   3.366 -0.3780  0.1621 -0.1271
    1DIPC   C4B23136  22.361  14.023   3.531 -0.1073  0.1148 -0.0119
    1DIPC   NC323137  21.417   2.062   2.848  0.1844 -0.0106  0.1117
    1DIPC   PO423138  21.321   1.865   3.260 -0.1697 -0.0273 -0.0405
    1DIPC   GL123139  21.469   1.960   3.595 -0.0694  0.3460 -0.4839
    1DIPC   GL223140  21.438   1.649   3.816 -0.0287  0.2493 -0.2449
    1DIPC   C1A23141  21.493   2.245   3.793  0.0303  0.1618  0.1602
    1DIPC   D2A23142  21.914   2.504   3.669 -0.1615  0.0073  0.0727
    1DIPC   D3A23143  22.042   2.262   4.070 -0.2886 -0.1609 -0.0099
    1DIPC   C4A23144  22.289   1.909   4.162 -0.0441  0.0034 -0.0953
    1DIPC   C1B23145  21.248   1.419   4.250 -0.1340 -0.0013  0.0595
    1DIPC   D2B23146  21.180   1.409   4.658 -0.3333 -0.5989  0.1595
    1DIPC   D3B23147  20.925   1.766   4.629  0.0835  0.0965  0.3775
    1DIPC   C4B23148  21.212   2.219   4.597 -0.1328  0.3492  0.3112
    1DIPC   NC323149  14.506   0.381   1.788 -0.0432 -0.3910  0.1092
    1DIPC   PO423150  14.692   0.234   2.234  0.2480  0.0425 -0.3579
    1DIPC   GL123151  14.838   0.303   2.704  0.1103  0.1371  0.0891
    1DIPC   GL223152  14.632   0.461   2.841  0.0333 -0.1016  0.1570
    1DIPC   C1A23153  15.121   0.165   3.100 -0.0689  0.1265 -0.0609
    1DIPC   D2A23154  15.145  -0.197   3.429  0.2124  0.0397 -0.1239
    1DIPC   D3A23155  15.156  -0.161   3.840 -0.0634  0.1326  0.0369
    1DIPC   C4A23156  14.953   0.126   4.095  0.0266 -0.0476 -0.2047
    1DIPC   C1B23157  14.549   0.315   3.236  0.1915 -0.2704  0.1717
    1DIPC   D2B23158  14.183   0.622   3.454 -0.1041  0.1515 -0.0740
    1DIPC   D3B23159  14.508   0.694   3.628 -0.2089 -0.0361  0.1907
    1DIPC   C4B23160  14.781   0.342   3.732 -0.2031 -0.1112  0.1813
    1DIPC   NC323161  27.301  10.800   3.281 -0.3862  0.3079  0.1653
    1DIPC   PO423162  27.226  11.159   3.356 -0.1594 -0.0205 -0.4636
    1DIPC   GL123163  27.289  11.074   3.808 -0.3163 -0.2722 -0.1154
    1DIPC   GL223164  27.106  11.192   3.911  0.0402 -0.0425 -0.5511
    1DIPC   C1A23165  27.530  11.231   4.096 -0.0524 -0.0100 -0.2323
    1DIPC   D2A23166  27.633  11.306   4.572 -0.1559 -0.1843  0.3741
    1DIPC   D3A23167  27.768  10.909   4.535  0.1099 -0.0169 -0.1905
    1DIPC   C4A23168  27.530  10.590   4.256  0.0567 -0.0040 -0.1878
    1DIPC   C1B23169  27.039  10.805   4.118 -0.2673  0.3389 -0.2204
    1DIPC   D2B23170  26.731  10.603   4.314  0.0861  0.0648  0.4581
    1DIPC   D3B23171  26.548  10.356   4.103 -0.2161  0.1048 -0.1296
    1DIPC   C4B23172  26.784  10.001   4.233 -0.0040 -0.1549  0.0019
    1DIPC   NC323173  15.562  23.873   3.249  0.2660 -0.0158 -0.1491
    1DIPC   PO423174  16.004  23.862   2.950  0.0518  0.0876 -0.3124
    1DIPC   GL123175  16.027  23.628   3.382 -0.1876 -0.2498  0.0037
    1DIPC   GL223176  16.057  24.019   3.478  0.0022  0.4119 -0.1567
    1DIPC   C1A23177  15.946  23.438   3.774  0.0253  0.1694 -0.0896
    1DIPC   D2A23178  15.916  23.106   3.999 -0.1196 -0.2229  0.0485
    1DIPC   D3A23179  15.624  23.045   4.346 -0.1592 -0.0514 -0.1879
    1DIPC   C4A23180  15.474  23.187   4.783  0.0724  0.0344  0.1083
    1DIPC   C1B23181  16.274  23.898   3.858  0.0998  0.3501  0.1498
    1DIPC   D2B23182  16.147  23.711   4.203 -0.2740  0.3086  0.2152
    1DIPC   D3B23183  16.018  23.350   4.522 -0.0055  0.2595  0.0633
    1DIPC   C4B23184  16.308  23.346   4.872 -0.2978  0.1531 -0.0862
    1DIPC   NC323185  17.438  24.968   3.012 -0.0260 -0.1703  0.1633
    1DIPC   PO423186  17.949  25.104   3.024 -0.1294  0.0140 -0.1642
    1DIPC   GL123187  17.920  25.074   3.446 -0.2367 -0.0305 -0.0104
    1DIPC   GL223188  18.151  25.273   3.712 -0.0350 -0.1311  0.0418
    1DIPC   C1A23189  17.639  25.065   3.700 -0.3010 -0.1179  0.0616
    1DIPC   D2A23190  17.320  25.191   3.924 -0.1239 -0.0445 -0.0269
    1DIPC   D3A23191  17.688  25.644   3.948  0.1621 -0.0820  0.1695
    1DIPC   C4A23192  17.724  26.038   3.783  0.1951  0.0016  0.0955
    1DIPC   C1B23193  17.931  25.156   4.087  0.2361  0.0401 -0.3309
    1DIPC   D2B23194  17.646  25.310   4.302 -0.2543 -0.0420 -0.2663
    1DIPC   D3B23195  17.185  25.343   4.414  0.1311  0.5986  0.1422
    1DIPC   C4B23196  16.889  25.126   4.205 -0.1075  0.0709  0.1003
    1DIPC   NC323197  23.672  12.507   2.939 -0.0300 -0.1242  0.0491
    1DIPC   PO423198  23.417  12.872   3.084 -0.1250  0.1411  0.1551
    1DIPC   GL123199  23.342  12.512   3.382 -0.1560  0.1002  0.0433
    1DIPC   GL223200  23.490  12.719   3.618  0.2196  0.1846 -0.5175
    1DIPC   C1A23201  23.517  12.275   3.810 -0.0982  0.0169  0.2767
    1DIPC   D2A23202  23.603  11.976   4.173  0.1289 -0.1026  0.2987
    1DIPC   D3A23203  23.189  12.202   4.112 -0.0873 -0.0058  0.1045
    1DIPC   C4A23204  23.117  12.473   4.529  0.2398 -0.2550  0.1187
    1DIPC   C1B23205  23.122  12.583   3.814  0.1538 -0.3956  0.1328
    1DIPC   D2B23206  22.917  12.158   3.726  0.0528  0.1014 -0.0295
    1DIPC   D3B23207  23.340  11.800   3.714  0.0131  0.0635 -0.1575
    1DIPC   C4B23208  23.753  11.623   3.883 -0.0668 -0.1030 -0.1313
    1DIPC   NC323209   7.275  26.374   3.551 -0.0554  0.1041  0.1144
    1DIPC   PO423210   7.271  26.352   3.967 -0.0017  0.4322 -0.0924
    1DIPC   GL123211   7.133  26.449   4.355 -0.0553 -0.2926 -0.0451
    1DIPC   GL223212   7.348  26.781   4.415 -0.2939 -0.0412  0.2489
    1DIPC   C1A23213   6.981  26.646   4.818  0.2515 -0.0326  0.1300
    1DIPC   D2A23214   7.006  26.736   5.255  0.0749  0.2254  0.0473
    1DIPC   D3A23215   7.249  26.779   5.611  0.1434  0.2509  0.0825
    1DIPC   C4A23216   7.532  27.090   5.919 -0.0928  0.2413 -0.3032
    1DIPC   C1B23217   7.812  26.591   4.610 -0.2284  0.1845 -0.0954
    1DIPC   D2B23218   8.112  26.283   4.843 -0.0010  0.4435 -0.0873
    1DIPC   D3B23219   7.916  26.256   5.362  0.2706  0.3312 -0.2364
    1DIPC   C4B23220   7.708  26.586   5.674  0.0622  0.0012  0.0642
    1DIPC   NC323221  24.320  24.694   3.429  0.2997 -0.0116  0.1273
    1DIPC   PO423222  24.462  24.252   3.572  0.0148 -0.1122  0.1113
    1DIPC   GL123223  24.845  24.328   3.990  0.0709  0.0376 -0.0235
    1DIPC   GL223224  24.890  24.578   4.050  0.2510 -0.2791 -0.1283
    1DIPC   C1A23225  25.014  24.011   4.330 -0.3124 -0.1044 -0.4132
    1DIPC   D2A23226  24.872  23.728   4.635 -0.0572 -0.0948  0.0357
    1DIPC   D3A23227  24.734  24.151   4.751 -0.1404  0.1046 -0.1154
    1DIPC   C4A23228  25.006  24.300   5.177 -0.0768  0.0746 -0.1334
    1DIPC   C1B23229  24.646  24.768   4.338 -0.0663 -0.1845  0.0002
    1DIPC   D2B23230  24.300  25.001   4.304 -0.0343  0.2346  0.4208
    1DIPC   D3B23231  23.996  25.146   4.595 -0.3351 -0.1629 -0.0566
    1DIPC   C4B23232  24.113  25.535   4.717 -0.0354 -0.0692 -0.0361
    1DIPC   NC323233  15.010  25.567   2.886 -0.1122 -0.1185 -0.1268
    1DIPC   PO423234  15.124  25.981   2.888 -0.0386 -0.0313 -0.3928
    1DIPC   GL123235  15.114  26.021   3.293 -0.1241 -0.1342 -0.2477
    1DIPC   GL223236  15.502  25.957   3.391 -0.1550  0.1014  0.2191
    1DIPC   C1A23237  14.694  26.104   3.475 -0.1108  0.0782  0.0959
    1DIPC   D2A23238  14.579  26.099   3.878 -0.3541 -0.2007  0.0978
    1DIPC   D3A23239  14.148  26.031   3.787 -0.0163  0.0420 -0.1043
    1DIPC   C4A23240  13.781  25.796   3.702  0.0679  0.3928  0.1008
    1DIPC   C1B23241  15.499  26.010   3.828 -0.1879  0.0598  0.0649
    1DIPC   D2B23242  15.891  26.119   3.989 -0.0440  0.2727  0.2072
    1DIPC   D3B23243  15.761  26.205   4.354  0.0017  0.1223  0.1076
    1DIPC   C4B23244  16.017  26.430   4.528  0.2147 -0.1617 -0.3763
    1DIPC   NC323245  28.251   8.724   3.208  0.1633  0.2940  0.2278
    1DIPC   PO423246  28.013   8.650   3.578 -0.1759  0.2369  0.1401
    1DIPC   GL123247  27.936   8.692   4.084 -0.2907  0.0338  0.0678
    1DIPC   GL223248  27.808   9.028   4.103 -0.1252  0.1524  0.4676
    1DIPC   C1A23249  27.815   8.789   4.514 -0.0642 -0.1252  0.0781
    1DIPC   D2A23250  27.564   8.880   4.803  0.3357  0.0033  0.1278
    1DIPC   D3A23251  27.764   8.656   5.148 -0.1533 -0.0282  0.2301
    1DIPC   C4A23252  28.098   8.716   5.394 -0.2801  0.0335  0.0591
    1DIPC   C1B23253  27.382   8.837   4.193  0.1235 -0.0757  0.1660
    1DIPC   D2B23254  27.145   8.603   3.919  0.1279 -0.2195  0.0061
    1DIPC   D3B23255  26.998   8.935   3.800  0.2006  0.0084 -0.1574
    1DIPC   C4B23256  27.028   9.199   4.082  0.0784 -0.3236 -0.3000
    1DIPC   NC323257   2.876  11.432   2.882  0.2111  0.0658  0.1362
    1DIPC   PO423258   3.120  11.200   3.100 -0.3432 -0.1706 -0.5484
    1DIPC   GL123259   3.121  11.293   3.620  0.1550  0.1661  0.2678
    1DIPC   GL223260   3.460  11.405   3.722 -0.1373  0.2909  0.0545
    1DIPC   C1A23261   2.904  11.122   3.962  0.1696 -0.0725  0.2310
    1DIPC   D2A23262   3.061  11.025   4.393  0.0382  0.0813 -0.0609
    1DIPC   D3A23263   3.242  11.374   4.650  0.0729 -0.0369  0.0597
    1DIPC   C4A23264   3.436  11.550   4.912 -0.0988  0.2060  0.2729
    1DIPC   C1B23265   3.451  11.260   4.187 -0.1015  0.0963 -0.3315
    1DIPC   D2B23266   3.646  11.072   4.579 -0.2015 -0.2238 -0.1472
    1DIPC   D3B23267   3.837  10.883   4.305 -0.1390  0.3013  0.1535
    1DIPC   C4B23268   3.762  10.904   3.853  0.2432  0.1303  0.1668
    1DIPC   NC323269  27.322  10.561   2.768  0.1708  0.1736  0.1966
    1DIPC   PO423270  27.471  10.432   3.019 -0.0719  0.1277  0.2230
    1DIPC   GL123271  27.465  10.307   3.516 -0.0442 -0.4001  0.1137
    1DIPC   GL223272  27.556  10.653   3.734 -0.0021  0.3245  0.0036
    1DIPC   C1A23273  27.240  10.336   3.988  0.0360  0.0853 -0.1499
    1DIPC   D2A23274  27.116  10.369   4.467  0.1164 -0.1845  0.2044
    1DIPC   D3A23275  27.177  10.707   4.635  0.2225 -0.0716 -0.1588
    1DIPC   C4A23276  27.497  10.778   5.002 -0.1002  0.0590 -0.1890
    1DIPC   C1B23277  27.881  10.857   3.993  0.2529  0.5714 -0.2276
    1DIPC   D2B23278  28.201  10.841   4.283 -0.0525 -0.0233  0.3144
    1DIPC   D3B23279  28.235  11.003   4.688  0.0377 -0.1850 -0.0562
    1DIPC   C4B23280  28.711  11.109   4.844 -0.3546 -0.0670  0.2779
    1DIPC   NC323281  10.567  21.615   3.392 -0.0436  0.0140 -0.1812
    1DIPC   PO423282  10.610  22.113   3.299  0.0663 -0.0444 -0.0263
    1DIPC   GL123283  10.789  21.998   3.741  0.0877 -0.0389  0.1988
    1DIPC   GL223284  10.652  22.347   3.863  0.1906 -0.2801 -0.0623
    1DIPC   C1A23285  10.977  22.047   4.061 -0.1425  0.2229 -0.2576
    1DIPC   D2A23286  11.204  22.377   4.243  0.2485 -0.1834  0.0838
    1DIPC   D3A23287  11.318  22.601   4.657 -0.2112  0.0971  0.0786
    1DIPC   C4A23288  11.740  22.719   4.694  0.1152 -0.0136 -0.0330
    1DIPC   C1B23289  10.428  22.152   4.201 -0.0510  0.0904 -0.1268
    1DIPC   D2B23290  10.308  22.116   4.552 -0.1387 -0.0235 -0.1727
    1DIPC   D3B23291  10.159  22.539   4.438 -0.0985 -0.0232 -0.3336
    1DIPC   C4B23292   9.766  22.690   4.302 -0.4348 -0.4601 -0.0127
    1DIPC   NC323293  19.227   1.103   2.523 -0.1051 -0.1490  0.1788
    1DIPC   PO423294  19.024   0.658   2.453  0.1607 -0.1638  0.0615
    1DIPC   GL123295  19.068   0.608   2.928  0.1736 -0.0207  0.0735
    1DIPC   GL223296  19.280   0.885   2.957  0.1414 -0.0361 -0.0078
    1DIPC   C1A23297  18.933   0.685   3.421  0.0262  0.3238  0.0311
    1DIPC   D2A23298  19.099   0.642   3.797  0.0503 -0.1513 -0.0066
    1DIPC   D3A23299  19.562   0.577   3.908 -0.0210 -0.2237  0.0657
    1DIPC   C4A23300  19.678   0.976   4.028  0.2036 -0.0589 -0.4070
    1DIPC   C1B23301  19.643   0.763   3.075  0.0924  0.0433 -0.0994
    1DIPC   D2B23302  20.031   0.798   3.213  0.2453  0.3130  0.0556
    1DIPC   D3B23303  19.920   0.800   3.585  0.2358  0.0705  0.0823
    1DIPC   C4B23304  20.082   0.622   3.963 -0.0097 -0.4411  0.1265
    1DIPC   NC323305  27.946  15.651   4.002 -0.0252 -0.2091  0.0785
    1DIPC   PO423306  27.942  16.059   4.117 -0.3031  0.1782 -0.2044
    1DIPC   GL123307  27.889  16.104   4.511 -0.3793  0.3103 -0.2213
    1DIPC   GL223308  28.078  16.160   4.731 -0.0143  0.0980 -0.0971
    1DIPC   C1A23309  27.596  16.219   4.884 -0.0471  0.3765 -0.4327
    1DIPC   D2A23310  27.558  16.306   5.279  0.0040  0.1094 -0.0597
    1DIPC   D3A23311  27.905  16.149   5.689  0.0091  0.0433  0.0776
    1DIPC   C4A23312  27.955  15.843   5.941 -0.0722 -0.0794 -0.1165
    1DIPC   C1B23313  27.820  15.858   5.137 -0.1128 -0.1847  0.0126
    1DIPC   D2B23314  27.704  15.738   5.488 -0.3318 -0.1374 -0.3363
    1DIPC   D3B23315  27.344  15.960   5.679  0.0654 -0.2701  0.1043
    1DIPC   C4B23316  27.240  16.448   5.656 -0.3781 -0.1230 -0.2605
    1DIPC   NC323317   7.800  21.074   2.673  0.0479  0.3065 -0.0862
    1DIPC   PO423318   7.781  21.175   3.116  0.0055  0.0277 -0.3621
    1DIPC   GL123319   7.732  20.906   3.481 -0.0315 -0.0345 -0.1663
    1DIPC   GL223320   8.038  21.097   3.800  0.1301 -0.0511  0.0171
    1DIPC   C1A23321   8.044  20.553   3.704 -0.1514 -0.1417  0.2501
    1DIPC   D2A23322   8.060  20.699   4.146 -0.1380  0.0088  0.2448
    1DIPC   D3A23323   8.243  20.571   4.610  0.0397  0.2650  0.0045
    1DIPC   C4A23324   8.301  20.820   5.023 -0.1858 -0.1676  0.1512
    1DIPC   C1B23325   8.136  21.233   4.248  0.0496  0.1297 -0.0960
    1DIPC   D2B23326   7.953  20.989   4.539 -0.0604 -0.1945  0.0595
    1DIPC   D3B23327   7.660  20.736   4.415  0.1030 -0.0210 -0.1030
    1DIPC   C4B23328   7.818  20.288   4.243  0.1203  0.2006 -0.0969
    1DIPC   NC323329   6.390   2.185   4.318  0.0162 -0.1693  0.2084
    1DIPC   PO423330   6.272   2.626   4.321 -0.2958  0.2323 -0.0949
    1DIPC   GL123331   6.254   2.504   4.758 -0.3577 -0.0727  0.0984
    1DIPC   GL223332   6.273   2.245   5.001  0.6386 -0.0745 -0.0720
    1DIPC   C1A23333   6.280   2.706   5.203 -0.0469 -0.5191  0.1917
    1DIPC   D2A23334   6.314   2.653   5.663 -0.1546 -0.2425  0.1908
    1DIPC   D3A23335   6.598   2.418   5.767 -0.0995 -0.2391  0.0642
    1DIPC   C4A23336   6.487   2.143   5.551  0.1964  0.0110  0.0915
    1DIPC   C1B23337   5.892   2.365   5.379  0.2497  0.0326 -0.2411
    1DIPC   D2B23338   5.885   2.442   5.817 -0.3480  0.0406 -0.0120
    1DIPC   D3B23339   5.946   2.851   6.081  0.1363  0.1239  0.1416
    1DIPC   C4B23340   5.815   2.932   6.494  0.2100  0.1608 -0.2362
    1DIPC   NC323341   9.652  10.062   1.588 -0.2524  0.0721 -0.0809
    1DIPC   PO423342   9.678  10.404   1.821 -0.0776 -0.1485 -0.1070
    1DIPC   GL123343   9.646  10.582   2.243 -0.0079  0.0627  0.3157
    1DIPC   GL223344   9.805  10.466   2.475 -0.1750 -0.0278  0.0788
    1DIPC   C1A23345   9.297  10.660   2.584 -0.0842  0.1623  0.2741
    1DIPC   D2A23346   8.839  10.678   2.883  0.0766  0.3663 -0.0126
    1DIPC   D3A23347   8.749  11.058   2.902  0.0010  0.1679  0.0857
    1DIPC   C4A23348   8.337  11.219   2.776 -0.0087 -0.0962 -0.1864
    1DIPC   C1B23349   9.742  10.453   2.898 -0.0658  0.0757 -0.0710
    1DIPC   D2B23350   9.973  10.797   3.194 -0.0559  0.1247  0.1764
    1DIPC   D3B23351   9.875  10.674   3.643  0.4099 -0.3337  0.2317
    1DIPC   C4B23352   9.440  10.536   3.664  0.1429  0.1556 -0.2817
    1DIPC   NC323353  23.497  15.605   3.017 -0.1038  0.0249 -0.0963
    1DIPC   PO423354  23.808  15.608   2.762  0.2854 -0.0001  0.1533
    1DIPC   GL123355  23.915  15.428   3.215 -0.1944 -0.2158  0.3352
    1DIPC   GL223356  24.243  15.474   3.480 -0.2997 -0.1660 -0.2636
    1DIPC   C1A23357  23.794  15.154   3.562 -0.0869  0.1249 -0.0219
    1DIPC   D2A23358  23.467  14.915   3.734  0.1689 -0.1463 -0.0835
    1DIPC   D3A23359  23.394  15.187   4.020  0.2366 -0.3768 -0.0573
    1DIPC   C4A23360  23.474  15.487   3.743 -0.1004  0.1480 -0.3289
    1DIPC   C1B23361  23.936  15.612   3.786 -0.0143 -0.0016 -0.3761
    1DIPC   D2B23362  23.932  15.651   4.201 -0.2060 -0.0593 -0.1585
    1DIPC   D3B23363  24.097  15.655   4.615  0.1670 -0.0160  0.0929
    1DIPC   C4B23364  23.913  15.471   4.888  0.2328  0.0004 -0.0872
    1DIPC   NC323365   8.516   9.953   2.073  0.0662  0.0319  0.3574
    1DIPC   PO423366   8.221  10.357   2.289 -0.3915 -0.0108 -0.0754
    1DIPC   GL123367   8.347  10.194   2.699 -0.1091 -0.0039 -0.0368
    1DIPC   GL223368   8.127  10.105   2.908 -0.0960 -0.2175  0.2226
    1DIPC   C1A23369   8.670  10.032   2.877 -0.1249  0.2555 -0.1266
    1DIPC   D2A23370   8.847  10.060   3.243  0.1696 -0.3022  0.0218
    1DIPC   D3A23371   8.808   9.669   3.224 -0.1433 -0.2409  0.0369
    1DIPC   C4A23372   8.941   9.533   2.797 -0.2975  0.1767 -0.1036
    1DIPC   C1B23373   8.367  10.279   3.250  0.2511 -0.1340 -0.1694
    1DIPC   D2B23374   8.283  10.399   3.669 -0.1857 -0.3611  0.2017
    1DIPC   D3B23375   8.627  10.323   4.027  0.0928  0.1211  0.1915
    1DIPC   C4B23376   8.775  10.551   4.324  0.0253 -0.0273  0.2398
    1DIPC   NC323377  28.735  15.416   3.813  0.1135  0.0155 -0.1544
    1DIPC   PO423378  29.061  15.489   4.025 -0.1914  0.3502 -0.1114
    1DIPC   GL123379  29.178  15.157   4.232  0.0370  0.0999 -0.0257
    1DIPC   GL223380  29.515  15.104   4.328  0.0116  0.0444 -0.0564
    1DIPC   C1A23381  28.827  14.946   4.544 -0.0584  0.1061 -0.2421
    1DIPC   D2A23382  28.909  14.606   4.767 -0.1355 -0.1724  0.2305
    1DIPC   D3A23383  28.496  14.393   4.740 -0.1935  0.1283 -0.1447
    1DIPC   C4A23384  28.134  14.237   4.580  0.2274  0.0345  0.0662
    1DIPC   C1B23385  29.387  15.024   4.661 -0.0014  0.0339  0.2581
    1DIPC   D2B23386  29.152  14.959   5.081  0.3688 -0.0342 -0.1742
    1DIPC   D3B23387  29.396  14.628   5.134 -0.1001  0.1072  0.0943
    1DIPC   C4B23388  29.762  14.578   5.388 -0.4282  0.0208 -0.0563
    1DIPC   NC323389   7.174   3.912   3.062 -0.3027 -0.0196 -0.1697
    1DIPC   PO423390   6.987   4.076   3.500  0.1542 -0.1211  0.5776
    1DIPC   GL123391   6.868   4.110   3.918  0.2612  0.0683 -0.0273
    1DIPC   GL223392   7.077   4.317   4.050  0.0093 -0.0449 -0.0874
    1DIPC   C1A23393   7.071   3.937   4.324  0.0456  0.1226 -0.1711
    1DIPC   D2A23394   7.134   4.175   4.710 -0.0727 -0.1484 -0.0272
    1DIPC   D3A23395   7.505   3.942   4.728  0.0826 -0.0484 -0.1781
    1DIPC   C4A23396   7.800   4.023   5.089 -0.0683 -0.0190  0.2774
    1DIPC   C1B23397   7.314   4.608   4.468 -0.0957 -0.0799 -0.1845
    1DIPC   D2B23398   7.204   4.620   4.865 -0.0357  0.3126 -0.4059
    1DIPC   D3B23399   7.461   4.812   5.193 -0.1524 -0.0706 -0.1555
    1DIPC   C4B23400   7.558   5.263   5.427  0.0572 -0.1094  0.4842
    1DIPC   NC323401  10.803  15.097   2.310  0.2534 -0.2276  0.0731
    1DIPC   PO423402  10.642  15.218   2.769  0.2132 -0.2402 -0.0892
    1DIPC   GL123403  10.543  15.551   3.018  0.1273 -0.0292  0.1349
    1DIPC   GL223404  10.145  15.591   2.987 -0.0114 -0.1258 -0.0235
    1DIPC   C1A23405  10.354  15.672   3.457  0.2328  0.1952  0.1560
    1DIPC   D2A23406  10.219  15.817   3.876  0.0597  0.0578  0.1271
    1DIPC   D3A23407  10.481  15.675   4.236 -0.0498  0.0100  0.1826
    1DIPC   C4A23408  10.772  15.910   4.302 -0.1875  0.0599 -0.4341
    1DIPC   C1B23409   9.974  15.313   3.330  0.0916  0.0391 -0.5350
    1DIPC   D2B23410   9.763  15.217   3.671 -0.4105  0.0194  0.2298
    1DIPC   D3B23411   9.465  15.269   3.982  0.5967 -0.1927 -0.1205
    1DIPC   C4B23412   9.276  15.078   4.262 -0.2648 -0.0411  0.0610
    1DIPC   NC323413   5.780  18.587   3.095 -0.1765  0.0320 -0.2717
    1DIPC   PO423414   5.988  18.184   3.420  0.1159 -0.0281  0.2332
    1DIPC   GL123415   6.286  17.844   3.582 -0.0578  0.0177  0.3857
    1DIPC   GL223416   6.566  17.940   3.644  0.1000  0.1619  0.1277
    1DIPC   C1A23417   6.381  17.430   3.759 -0.1622 -0.1369 -0.2305
    1DIPC   D2A23418   6.189  17.290   4.019 -0.4254 -0.1921  0.0478
    1DIPC   D3A23419   6.388  17.117   4.432 -0.0689  0.1200  0.3933
    1DIPC   C4A23420   6.750  16.783   4.461 -0.0111  0.1046 -0.2274
    1DIPC   C1B23421   6.725  17.968   4.094 -0.0960 -0.0944 -0.1226
    1DIPC   D2B23422   6.950  17.865   4.408  0.3942 -0.0991 -0.0124
    1DIPC   D3B23423   6.595  17.799   4.733  0.1913 -0.2088 -0.1902
    1DIPC   C4B23424   6.309  17.850   4.506  0.1944  0.0498 -0.1085
    1DIPC   NC323425   6.707  28.726   3.329 -0.0293  0.3955 -0.0014
    1DIPC   PO423426   6.442  28.961   3.621  0.0400  0.1900  0.4054
    1DIPC   GL123427   6.595  28.958   4.127  0.0700  0.1861  0.1138
    1DIPC   GL223428   6.792  28.855   4.348 -0.3841 -0.0012  0.1575
    1DIPC   C1A23429   6.429  29.004   4.694  0.0673 -0.1436 -0.1597
    1DIPC   D2A23430   6.397  28.954   5.060 -0.2131  0.5083 -0.0334
    1DIPC   D3A23431   6.299  29.444   5.062 -0.0466  0.2545 -0.1108
    1DIPC   C4A23432   6.334  29.463   5.456 -0.0542  0.1208 -0.0978
    1DIPC   C1B23433   6.983  29.045   4.650 -0.1143 -0.0163  0.0240
    1DIPC   D2B23434   6.999  28.825   4.999 -0.0374  0.0904 -0.0894
    1DIPC   D3B23435   6.857  28.553   4.772 -0.1474 -0.1427 -0.3087
    1DIPC   C4B23436   6.462  28.437   4.836  0.4256  0.0292  0.2297
    1DIPC   NC323437  20.884   1.189   2.958  0.0821  0.2045  0.0780
    1DIPC   PO423438  21.032   1.573   2.964  0.4949  0.3427 -0.1138
    1DIPC   GL123439  20.884   1.531   3.471 -0.0006 -0.0818 -0.0167
    1DIPC   GL223440  20.582   1.732   3.565  0.0055  0.0401 -0.0547
    1DIPC   C1A23441  20.611   1.273   3.621  0.0879 -0.1123 -0.1093
    1DIPC   D2A23442  20.268   1.134   3.855 -0.0837  0.0799 -0.1160
    1DIPC   D3A23443  19.915   1.450   4.081 -0.1187 -0.1480  0.2625
    1DIPC   C4A23444  19.697   1.342   4.569 -0.1866 -0.3993  0.0558
    1DIPC   C1B23445  20.432   1.594   3.934 -0.2199 -0.1558  0.0621
    1DIPC   D2B23446  20.515   1.629   4.374  0.2104  0.2048 -0.0552
    1DIPC   D3B23447  20.400   1.610   4.787 -0.2082 -0.4530  0.0881
    1DIPC   C4B23448  20.017   1.253   4.956 -0.2743 -0.1940 -0.0355
    1DIPC   NC323449   7.393  24.918   3.732 -0.3766 -0.1497  0.0109
    1DIPC   PO423450   7.718  25.062   3.870  0.0110  0.1894  0.1097
    1DIPC   GL123451   7.656  24.715   4.150  0.1161 -0.0848 -0.2569
    1DIPC   GL223452   7.834  24.452   4.093  0.3323 -0.2926 -0.2428
    1DIPC   C1A23453   7.448  24.738   4.438 -0.1920 -0.0075 -0.1321
    1DIPC   D2A23454   7.265  25.016   4.709  0.0433 -0.0575 -0.3164
    1DIPC   D3A23455   6.802  25.086   4.734  0.0019  0.0305  0.0332
    1DIPC   C4A23456   6.464  25.007   4.444 -0.2501  0.2134  0.3112
    1DIPC   C1B23457   7.891  24.485   4.562  0.1361  0.1261  0.1655
    1DIPC   D2B23458   7.676  24.517   4.953  0.0931  0.0025  0.1333
    1DIPC   D3B23459   7.665  24.080   5.013 -0.0888 -0.0954 -0.0657
    1DIPC   C4B23460   7.706  23.679   5.175  0.0794  0.2500  0.2063
    1DIPC   NC323461  12.458  24.471   3.321  0.1201  0.0797  0.0842
    1DIPC   PO423462  12.512  24.867   3.516  0.0809 -0.5403  0.1952
    1DIPC   GL123463  12.825  24.786   3.620  0.3049  0.1556  0.0610
    1DIPC   GL223464  12.869  24.511   3.689 -0.0309  0.1087  0.0080
    1DIPC   C1A23465  13.169  25.077   3.771  0.0105 -0.3749 -0.2184
    1DIPC   D2A23466  13.103  25.495   3.756  0.3633  0.0866  0.0884
    1DIPC   D3A23467  13.221  25.377   4.162 -0.1775 -0.1711 -0.1526
    1DIPC   C4A23468  13.558  25.467   4.399 -0.2388  0.1761  0.0370
    1DIPC   C1B23469  13.089  24.369   4.067 -0.0045  0.0669 -0.2164
    1DIPC   D2B23470  12.930  24.294   4.480  0.2556 -0.3575  0.0088
    1DIPC   D3B23471  12.989  24.148   4.818  0.3789 -0.1433  0.3069
    1DIPC   C4B23472  13.186  24.438   5.111 -0.2960  0.0400 -0.3777
    1DIPC   NC323473  18.917  21.817   2.361 -0.1766 -0.0103 -0.1933
    1DIPC   PO423474  18.823  21.888   2.780  0.1587  0.1600 -0.0957
    1DIPC   GL123475  18.820  21.890   3.154 -0.0543  0.0402  0.0990
    1DIPC   GL223476  18.836  22.287   3.096  0.0527 -0.1803 -0.0964
    1DIPC   C1A23477  18.453  21.941   3.404  0.3294  0.1050 -0.1236
    1DIPC   D2A23478  18.336  21.952   3.859 -0.0253  0.2620  0.2300
    1DIPC   D3A23479  18.013  21.803   4.085  0.0130  0.0201 -0.3588
    1DIPC   C4A23480  17.534  21.870   4.094 -0.0718 -0.3139 -0.4308
    1DIPC   C1B23481  18.929  22.250   3.587  0.3599  0.1551  0.0589
    1DIPC   D2B23482  19.055  22.542   3.954  0.0175  0.1969 -0.0625
    1DIPC   D3B23483  19.433  22.285   4.049 -0.0517 -0.1036  0.2496
    1DIPC   C4B23484  19.762  22.521   3.883  0.0749  0.0632  0.0516
    1DIPC   NC323485  22.885  18.880   2.417 -0.0988 -0.1297 -0.4455
    1DIPC   PO423486  22.328  18.965   2.484 -0.0290  0.1797  0.3357
    1DIPC   GL123487  22.010  18.831   2.841 -0.1843  0.4020 -0.0092
    1DIPC   GL223488  22.056  18.577   2.921  0.1166  0.0454  0.1718
    1DIPC   C1A23489  21.808  18.728   3.335  0.1453 -0.4332 -0.0145
    1DIPC   D2A23490  21.691  18.807   3.817 -0.1742 -0.2121 -0.2664
    1DIPC   D3A23491  21.263  18.861   4.102  0.2501 -0.1635 -0.2246
    1DIPC   C4A23492  21.405  19.263   4.393  0.0794  0.3893  0.3832
    1DIPC   C1B23493  22.344  18.660   3.228  0.1575 -0.0540 -0.0655
    1DIPC   D2B23494  22.706  18.927   3.303  0.1444  0.0785 -0.0444
    1DIPC   D3B23495  22.885  18.616   3.462  0.0964  0.1416  0.0977
    1DIPC   C4B23496  22.643  18.193   3.385  0.0610  0.4291 -0.0658
    1DIPC   NC323497   0.623  22.026   3.884  0.1680 -0.1500  0.2534
    1DIPC   PO423498   0.382  21.694   3.818 -0.2423 -0.0646 -0.2058
    1DIPC   GL123499   0.290  21.645   4.200  0.4118  0.0999 -0.2052
    1DIPC   GL223500   0.163  21.959   4.268  0.2983  0.4584 -0.2358
    1DIPC   C1A23501   0.147  21.577   4.717  0.4832  0.1045 -0.2515
    1DIPC   D2A23502   0.165  21.268   5.118  0.2123  0.0037  0.0321
    1DIPC   D3A23503  -0.228  21.055   5.138  0.1895  0.0662 -0.2267
    1DIPC   C4A23504  -0.490  21.002   4.851 -0.3434  0.0980 -0.2686
    1DIPC   C1B23505   0.199  22.199   4.675  0.3082  0.0956 -0.0421
    1DIPC   D2B23506  -0.005  22.379   5.034  0.0096  0.0105  0.1357
    1DIPC   D3B23507  -0.195  22.271   5.519  0.2359  0.0812 -0.3930
    1DIPC   C4B23508  -0.620  22.303   5.633  0.0230  0.0945 -0.1175
    1DIPC   NC323509  25.866  12.891   3.652  0.1441  0.0998  0.1954
    1DIPC   PO423510  26.204  12.706   3.404 -0.0240 -0.1140 -0.0253
    1DIPC   GL123511  26.244  12.699   3.842 -0.1324  0.0961 -0.0466
    1DIPC   GL223512  26.098  12.531   4.097  0.3127 -0.1379 -0.1634
    1DIPC   C1A23513  26.560  12.498   4.103  0.5157 -0.2616  0.4699
    1DIPC   D2A23514  26.635  12.366   4.504 -0.2313 -0.0602  0.2214
    1DIPC   D3A23515  26.696  12.332   4.935  0.1616  0.0697  0.1860
    1DIPC   C4A23516  26.461  11.974   5.111  0.1520  0.0630  0.3046
    1DIPC   C1B23517  25.917  12.818   4.301  0.1667  0.1817  0.3171
    1DIPC   D2B23518  26.117  13.162   4.612 -0.0967 -0.1166 -0.1618
    1DIPC   D3B23519  26.020  12.745   4.838  0.5224  0.0910  0.1123
    1DIPC   C4B23520  25.664  12.589   5.082 -0.5568 -0.3128 -0.0406
    1DIPC   NC323521  15.958  24.353   2.913  0.5904  0.1970  0.2655
    1DIPC   PO423522  15.436  24.447   2.968  0.1898  0.0030 -0.6109
    1DIPC   GL123523  15.250  24.637   3.252  0.2019  0.3017  0.1012
    1DIPC   GL223524  15.186  24.797   3.587 -0.3193  0.1678  0.2145
    1DIPC   C1A23525  15.183  24.341   3.659 -0.2316  0.2059  0.1428
    1DIPC   D2A23526  15.327  23.964   3.694 -0.0121  0.0425 -0.1061
    1DIPC   D3A23527  15.699  23.831   3.890 -0.2921 -0.2481 -0.0265
    1DIPC   C4A23528  15.788  24.063   4.391 -0.2220  0.0642  0.0662
    1DIPC   C1B23529  15.595  24.922   3.793  0.1776  0.0117 -0.0901
    1DIPC   D2B23530  15.637  25.244   4.121 -0.0038 -0.0927  0.1809
    1DIPC   D3B23531  15.825  24.911   4.292 -0.0922  0.0221 -0.1866
    1DIPC   C4B23532  16.161  24.975   4.411 -0.0630  0.2826  0.2688
    1DIPC   NC323533  27.146  27.376   3.815 -0.1919  0.0264  0.1110
    1DIPC   PO423534  26.978  26.917   3.738  0.1309 -0.3411 -0.2222
    1DIPC   GL123535  26.887  26.995   4.165  0.4538 -0.0782 -0.1372
    1DIPC   GL223536  27.147  27.140   4.300 -0.2292 -0.1210 -0.1214
    1DIPC   C1A23537  26.872  26.862   4.594 -0.0499  0.3240  0.0668
    1DIPC   D2A23538  26.674  26.660   4.846  0.0199 -0.0072 -0.3301
    1DIPC   D3A23539  26.546  26.836   5.278 -0.0742  0.0208 -0.0237
    1DIPC   C4A23540  26.194  27.198   5.273  0.2261  0.1978 -0.2416
    1DIPC   C1B23541  27.252  27.159   4.718  0.0444 -0.1283  0.2576
    1DIPC   D2B23542  27.018  27.036   5.070 -0.2137 -0.0774 -0.0183
    1DIPC   D3B23543  27.425  26.877   5.196  0.2608 -0.1364 -0.0293
    1DIPC   C4B23544  27.720  27.150   5.415 -0.0191  0.1044 -0.1763
    1DIPC   NC323545  28.837  12.994   3.203  0.0392 -0.0936  0.2170
    1DIPC   PO423546  28.567  13.230   3.360 -0.1338  0.0924  0.2857
    1DIPC   GL123547  28.607  13.190   3.782  0.1746  0.2457 -0.1647
    1DIPC   GL223548  28.326  13.349   3.868  0.0182 -0.0666  0.1733
    1DIPC   C1A23549  28.707  13.212   4.237  0.2037 -0.0537 -0.1181
    1DIPC   D2A23550  28.888  13.580   4.533 -0.1352  0.1361 -0.0955
    1DIPC   D3A23551  28.590  13.296   4.782  0.0772 -0.3395  0.0464
    1DIPC   C4A23552  28.682  13.121   5.058 -0.0707  0.2906  0.0246
    1DIPC   C1B23553  28.633  13.646   4.117 -0.0430 -0.0598  0.2515
    1DIPC   D2B23554  28.843  14.034   3.979  0.0205  0.1833 -0.3115
    1DIPC   D3B23555  28.796  14.452   3.986 -0.0455 -0.1511  0.0841
    1DIPC   C4B23556  29.129  14.657   4.293 -0.0735 -0.1038  0.2588
    1DIPC   NC323557   5.521   2.599   3.977  0.0512 -0.2417 -0.1678
    1DIPC   PO423558   5.800   2.975   4.204  0.0933 -0.0284 -0.2220
    1DIPC   GL123559   5.564   3.036   4.577  0.1141  0.0573  0.1215
    1DIPC   GL223560   5.286   3.177   4.651 -0.0277 -0.1147  0.0294
    1DIPC   C1A23561   5.565   2.995   5.017 -0.0589  0.0125  0.0580
    1DIPC   D2A23562   5.802   2.933   5.391 -0.2298 -0.1722  0.1285
    1DIPC   D3A23563   5.676   3.375   5.434  0.0580  0.1679  0.0101
    1DIPC   C4A23564   5.739   3.831   5.450 -0.1490 -0.1368  0.3782
    1DIPC   C1B23565   4.941   3.169   4.882  0.2616 -0.1116  0.4436
    1DIPC   D2B23566   4.710   3.071   5.246  0.1081  0.3400 -0.1323
    1DIPC   D3B23567   4.758   2.679   4.940  0.0203  0.1102 -0.1666
    1DIPC   C4B23568   5.002   2.291   5.071  0.5478  0.1867 -0.1743
    1DIPC   NC323569  10.666   7.754   2.569  0.2451  0.0153  0.2122
    1DIPC   PO423570  10.702   7.402   2.284  0.0888  0.1689 -0.1563
    1DIPC   GL123571  10.897   7.259   2.556 -0.3063  0.1980 -0.0088
    1DIPC   GL223572  10.973   7.425   2.840  0.1489 -0.0018 -0.0672
    1DIPC   C1A23573  11.192   7.003   2.883  0.0278 -0.0954  0.0449
    1DIPC   D2A23574  11.394   6.762   3.278 -0.0588  0.0544 -0.0153
    1DIPC   D3A23575  11.387   6.777   3.759 -0.1139 -0.0105  0.2638
    1DIPC   C4A23576  11.412   6.449   4.016  0.0829  0.1693 -0.1063
    1DIPC   C1B23577  11.402   7.469   3.101 -0.0128 -0.1545  0.0397
    1DIPC   D2B23578  11.402   7.264   3.431  0.0414  0.0410  0.1454
    1DIPC   D3B23579  11.345   7.283   3.868  0.2837 -0.0528  0.3370
    1DIPC   C4B23580  11.701   7.145   4.103  0.1200 -0.0119 -0.0883
    1DIPC   NC323581  27.544  11.580   3.524  0.0565  0.1612  0.2279
    1DIPC   PO423582  27.961  11.591   3.322 -0.0049 -0.0571  0.2098
    1DIPC   GL123583  28.016  11.420   3.776 -0.1933 -0.0344  0.3363
    1DIPC   GL223584  27.826  11.671   3.916  0.0028 -0.2175 -0.1684
    1DIPC   C1A23585  28.076  11.291   4.221  0.0313 -0.4160 -0.3398
    1DIPC   D2A23586  28.074  11.484   4.618  0.1903  0.1946  0.1608
    1DIPC   D3A23587  27.807  11.657   5.004  0.0345  0.0517 -0.2966
    1DIPC   C4A23588  27.710  11.513   5.394  0.0057 -0.0194  0.1887
    1DIPC   C1B23589  27.809  11.810   4.358 -0.1749  0.1089 -0.1619
    1DIPC   D2B23590  27.908  12.063   4.722  0.0012 -0.0265 -0.0155
    1DIPC   D3B23591  28.259  11.916   5.018 -0.2302 -0.0302  0.1966
    1DIPC   C4B23592  28.368  11.440   4.976  0.0706  0.2660 -0.1498
    1DIPC   NC323593  11.608  25.846   3.341 -0.0137  0.0264 -0.2209
    1DIPC   PO423594  11.161  25.993   3.388  0.2019 -0.0371  0.0366
    1DIPC   GL123595  10.967  26.109   3.764 -0.0476  0.2075  0.4024
    1DIPC   GL223596  10.706  26.018   3.911  0.1326  0.4094  0.1503
    1DIPC   C1A23597  10.910  26.318   4.162  0.2081  0.2249 -0.0340
    1DIPC   D2A23598  11.137  26.560   4.580 -0.3431  0.0523  0.0054
    1DIPC   D3A23599  10.905  26.132   4.646  0.3073  0.0602  0.0818
    1DIPC   C4A23600  10.859  25.986   5.088  0.0975 -0.2847 -0.1853
    1DIPC   C1B23601  10.536  26.121   4.339 -0.0056  0.1068 -0.1642
    1DIPC   D2B23602  10.420  25.954   4.718  0.0220  0.2589  0.0429
    1DIPC   D3B23603  10.419  26.210   4.956 -0.0332  0.4049  0.0732
    1DIPC   C4B23604  10.636  26.559   4.640  0.0192  0.0113 -0.0786
    1DIPC   NC323605   1.940  26.319   3.830 -0.0153  0.2869 -0.1639
    1DIPC   PO423606   1.603  26.482   4.155 -0.0306 -0.1134  0.0584
    1DIPC   GL123607   1.489  26.509   4.554  0.2369  0.0372 -0.1686
    1DIPC   GL223608   1.145  26.348   4.590  0.0042  0.0710  0.1560
    1DIPC   C1A23609   1.402  26.322   4.963 -0.1350 -0.1752 -0.2447
    1DIPC   D2A23610   1.566  26.186   5.410 -0.1363 -0.0221 -0.0454
    1DIPC   D3A23611   1.344  25.835   5.641  0.2831 -0.1322 -0.0817
    1DIPC   C4A23612   1.015  25.769   5.983 -0.0429  0.0066 -0.0068
    1DIPC   C1B23613   0.936  26.575   4.818  0.1969 -0.2142 -0.2317
    1DIPC   D2B23614   1.132  26.660   5.233 -0.1479  0.2096 -0.2066
    1DIPC   D3B23615   1.216  27.012   5.433 -0.2869 -0.1701  0.0109
    1DIPC   C4B23616   0.784  27.284   5.524 -0.1804 -0.0335  0.0882
    1DIPC   NC323617   1.127   8.151   3.366 -0.1637  0.2794  0.0085
    1DIPC   PO423618   1.266   7.851   3.680 -0.1064  0.0552  0.2467
    1DIPC   GL123619   1.241   7.765   4.199 -0.0218 -0.0980 -0.1818
    1DIPC   GL223620   1.072   8.021   4.126  0.0197  0.0854 -0.1712
    1DIPC   C1A23621   1.440   7.985   4.484  0.0875 -0.1886  0.0843
    1DIPC   D2A23622   1.456   8.272   4.779  0.2035 -0.2374  0.0061
    1DIPC   D3A23623   1.743   7.985   4.858 -0.2027 -0.1304 -0.1321
    1DIPC   C4A23624   1.968   8.040   5.211 -0.0721 -0.1359  0.1240
    1DIPC   C1B23625   0.976   8.064   4.538  0.0426  0.0178  0.1021
    1DIPC   D2B23626   0.990   8.472   4.937 -0.1630 -0.1459  0.0653
    1DIPC   D3B23627   0.800   8.524   4.589 -0.1076 -0.1034 -0.0035
    1DIPC   C4B23628   0.441   8.361   4.420 -0.0606 -0.2523 -0.2735
    1DIPC   NC323629  18.789  15.353   2.764 -0.1809 -0.0721  0.3140
    1DIPC   PO423630  19.256  15.408   2.823 -0.3235 -0.1110  0.1488
    1DIPC   GL123631  19.099  15.281   3.156 -0.0278  0.1700  0.0294
    1DIPC   GL223632  19.339  15.465   3.505 -0.1181 -0.1328 -0.1805
    1DIPC   C1A23633  18.908  15.293   3.635  0.0945  0.0797  0.0437
    1DIPC   D2A23634  18.840  15.043   4.036 -0.1361 -0.0406 -0.2515
    1DIPC   D3A23635  18.614  15.172   4.337  0.0189  0.0291 -0.3614
    1DIPC   C4A23636  18.799  15.047   4.739  0.1020 -0.0268  0.0049
    1DIPC   C1B23637  19.291  15.387   3.993 -0.0793  0.1163  0.3064
    1DIPC   D2B23638  19.124  15.269   4.428  0.0906 -0.0068  0.1213
    1DIPC   D3B23639  18.804  15.580   4.637 -0.1711  0.0171  0.0779
    1DIPC   C4B23640  18.971  16.012   4.881  0.1239  0.1668 -0.1282
    1DIPC   NC323641   9.780  21.625   3.725  0.1882  0.2744  0.1853
    1DIPC   PO423642   9.433  21.265   3.774 -0.1592 -0.0450  0.1389
    1DIPC   GL123643   9.282  21.156   4.137 -0.2594 -0.0216  0.0742
    1DIPC   GL223644   9.176  20.801   4.034 -0.2911 -0.0322  0.0727
    1DIPC   C1A23645   9.416  21.133   4.495 -0.0749 -0.2066  0.1399
    1DIPC   D2A23646   9.650  21.074   4.916  0.1313 -0.3218  0.2163
    1DIPC   D3A23647   9.582  21.010   5.401  0.3012  0.3261 -0.0482
    1DIPC   C4A23648   9.372  20.653   5.704 -0.4037  0.0784  0.0811
    1DIPC   C1B23649   9.067  20.697   4.412  0.3118 -0.1027  0.0327
    1DIPC   D2B23650   9.192  20.881   4.832 -0.1046  0.0053 -0.0446
    1DIPC   D3B23651   8.814  21.059   5.097  0.0727 -0.2020  0.3413
    1DIPC   C4B23652   8.758  21.505   5.154  0.1341 -0.1771  0.1645
    1DIPC   NC323653  21.241  22.058   2.397  0.0713 -0.0635  0.0965
    1DIPC   PO423654  21.156  22.028   2.901  0.0273  0.2988 -0.0784
    1DIPC   GL123655  21.191  22.101   3.288 -0.1784  0.0965  0.0561
    1DIPC   GL223656  21.034  21.898   3.447  0.3438 -0.2587  0.0002
    1DIPC   C1A23657  21.206  22.380   3.616  0.0613  0.0616  0.2512
    1DIPC   D2A23658  21.474  22.782   3.733 -0.3988  0.0426  0.0431
    1DIPC   D3A23659  21.877  22.796   3.913  0.1927 -0.0265 -0.0172
    1DIPC   C4A23660  21.845  22.528   4.261 -0.0375  0.2328  0.0968
    1DIPC   C1B23661  21.053  21.874   3.879  0.3214 -0.2493  0.2843
    1DIPC   D2B23662  21.002  21.919   4.271  0.1562 -0.1192 -0.1016
    1DIPC   D3B23663  20.459  22.008   4.302 -0.4221  0.0204 -0.1563
    1DIPC   C4B23664  20.220  21.643   4.433  0.1762 -0.1083  0.0001
    1DIPC   NC323665  17.262  12.573   2.492 -0.0490  0.0948 -0.2230
    1DIPC   PO423666  17.057  12.966   2.269 -0.5667 -0.1295  0.0765
    1DIPC   GL123667  16.781  12.830   2.641 -0.4339  0.4820 -0.1407
    1DIPC   GL223668  16.829  12.968   2.867 -0.1810 -0.2363 -0.0945
    1DIPC   C1A23669  16.643  12.414   2.849 -0.0866  0.1755 -0.0064
    1DIPC   D2A23670  16.906  12.287   3.156 -0.3742 -0.1018  0.1026
    1DIPC   D3A23671  17.075  11.935   3.230 -0.2788 -0.1561  0.1388
    1DIPC   C4A23672  17.144  11.636   2.978  0.1139 -0.0679 -0.2651
    1DIPC   C1B23673  16.801  12.755   3.240 -0.2367 -0.1865 -0.1592
    1DIPC   D2B23674  16.865  12.527   3.579 -0.1390  0.0516  0.1237
    1DIPC   D3B23675  16.747  12.092   3.644 -0.4093  0.2411  0.0390
    1DIPC   C4B23676  16.806  12.055   4.068 -0.2791  0.1274  0.1096
    1DIPC   NC323677  14.321  26.661   2.267  0.4477  0.3633 -0.1352
    1DIPC   PO423678  14.354  26.870   2.705  0.0882  0.0798 -0.1929
    1DIPC   GL123679  14.151  26.809   3.108 -0.1444 -0.0956 -0.0157
    1DIPC   GL223680  14.237  26.539   3.305 -0.1431  0.2475  0.1081
    1DIPC   C1A23681  13.916  26.858   3.508  0.0596  0.2512  0.1007
    1DIPC   D2A23682  13.887  26.949   3.884  0.1115 -0.1462  0.2301
    1DIPC   D3A23683  14.180  26.881   4.290  0.0239  0.1983 -0.1030
    1DIPC   C4A23684  14.546  26.722   4.203  0.2017  0.2017 -0.2153
    1DIPC   C1B23685  14.257  26.553   3.796  0.0539  0.2141  0.1088
    1DIPC   D2B23686  14.265  26.262   4.200  0.0002 -0.1442  0.3235
    1DIPC   D3B23687  14.648  26.077   4.400 -0.1994 -0.2755 -0.2335
    1DIPC   C4B23688  14.603  26.159   4.772  0.0278 -0.2098 -0.0746
    1DIPC   NC323689  24.510  18.651   2.908  0.1219 -0.0677 -0.2239
    1DIPC   PO423690  24.490  19.111   2.880 -0.0093 -0.2579  0.0133
    1DIPC   GL123691  24.522  19.033   3.286  0.1801 -0.1112 -0.1482
    1DIPC   GL223692  24.851  18.865   3.301 -0.0132  0.0133 -0.1041
    1DIPC   C1A23693  24.246  18.887   3.640  0.0627 -0.0896 -0.0032
    1DIPC   D2A23694  23.909  18.662   3.688 -0.1780 -0.0017 -0.1466
    1DIPC   D3A23695  23.753  18.645   4.084  0.0757 -0.1568 -0.2792
    1DIPC   C4A23696  23.458  18.277   4.327 -0.0792 -0.4901  0.0753
    1DIPC   C1B23697  25.022  19.132   3.681 -0.0790 -0.3584 -0.0509
    1DIPC   D2B23698  24.924  19.481   3.809 -0.1312 -0.1557 -0.1636
    1DIPC   D3B23699  24.574  19.412   3.566  0.1184  0.0790 -0.4847
    1DIPC   C4B23700  24.158  19.402   3.661 -0.2265  0.3661  0.1659
    1DIPC   NC323701  21.081  14.586   2.508  0.0656 -0.1258  0.2038
    1DIPC   PO423702  20.670  14.490   2.679  0.0641 -0.0160 -0.0829
    1DIPC   GL123703  20.980  14.252   2.893 -0.0524  0.0681 -0.0337
    1DIPC   GL223704  20.930  14.430   3.212 -0.2784  0.1424  0.0223
    1DIPC   C1A23705  20.662  13.979   3.073  0.2242  0.2227 -0.1266
    1DIPC   D2A23706  20.210  13.846   3.025  0.0640  0.0460 -0.0686
    1DIPC   D3A23707  20.379  13.606   3.324 -0.0448 -0.0884 -0.0321
    1DIPC   C4A23708  20.374  13.645   3.812  0.0936  0.1145  0.0528
    1DIPC   C1B23709  21.326  14.523   3.453  0.1459 -0.0960  0.2617
    1DIPC   D2B23710  21.650  14.434   3.725  0.1177 -0.0034 -0.0880
    1DIPC   D3B23711  21.783  14.059   3.580  0.1780  0.0897 -0.0212
    1DIPC   C4B23712  21.740  13.677   3.592  0.0599 -0.0507 -0.0601
    1DIPC   NC323713  21.436  23.268   2.312  0.0209  0.1215 -0.3173
    1DIPC   PO423714  21.084  23.242   2.524 -0.3547 -0.0893  0.0927
    1DIPC   GL123715  21.021  23.330   2.945  0.0979 -0.2352 -0.2367
    1DIPC   GL223716  21.097  23.025   2.967  0.1791  0.1506 -0.0749
    1DIPC   C1A23717  20.885  23.239   3.475  0.1250  0.0506 -0.1248
    1DIPC   D2A23718  20.827  23.375   3.826 -0.1272 -0.0585 -0.2605
    1DIPC   D3A23719  20.770  23.243   4.202  0.2150 -0.1680 -0.1954
    1DIPC   C4A23720  20.828  23.240   4.593 -0.0053 -0.0606 -0.2753
    1DIPC   C1B23721  21.104  22.760   3.330  0.1302  0.4267 -0.0718
    1DIPC   D2B23722  20.832  22.751   3.726  0.2276 -0.0905  0.0256
    1DIPC   D3B23723  21.084  23.005   3.920 -0.1700  0.1637 -0.1453
    1DIPC   C4B23724  21.347  23.228   3.663 -0.0811 -0.2052  0.0633
    1DIPC   NC323725   3.737   3.659   4.318  0.1805  0.0723  0.2156
    1DIPC   PO423726   3.952   3.776   3.946 -0.1601 -0.0165 -0.2510
    1DIPC   GL123727   4.278   3.886   4.354 -0.0229 -0.2673 -0.2330
    1DIPC   GL223728   4.197   3.692   4.623 -0.2416 -0.0569  0.1945
    1DIPC   C1A23729   4.699   3.958   4.599 -0.3178  0.0047  0.0516
    1DIPC   D2A23730   5.071   4.142   4.453  0.3938  0.2838  0.2556
    1DIPC   D3A23731   4.794   4.413   4.700 -0.0480  0.0714 -0.2636
    1DIPC   C4A23732   4.979   4.503   5.009  0.0887 -0.1623 -0.0049
    1DIPC   C1B23733   4.276   3.991   4.962  0.2117  0.0820 -0.1075
    1DIPC   D2B23734   4.598   4.157   5.096 -0.0043  0.0103  0.0451
    1DIPC   D3B23735   4.329   4.366   5.430  0.1789  0.3773 -0.1094
    1DIPC   C4B23736   4.468   4.596   5.849  0.2908 -0.0024 -0.0144
    1DIPC   NC323737  27.277  25.217   3.671 -0.1227 -0.1152  0.0118
    1DIPC   PO423738  27.238  25.091   4.034 -0.2185  0.0739  0.2674
    1DIPC   GL123739  27.392  25.192   4.448 -0.0023  0.1095  0.1199
    1DIPC   GL223740  27.108  25.119   4.558 -0.0768 -0.0960 -0.1304
    1DIPC   C1A23741  27.864  25.095   4.494  0.1167  0.1988  0.2674
    1DIPC   D2A23742  28.161  25.168   4.812 -0.1402 -0.1577  0.1200
    1DIPC   D3A23743  27.780  25.001   5.021 -0.0987  0.0177  0.0343
    1DIPC   C4A23744  27.869  24.827   5.291  0.0129 -0.3839  0.0787
    1DIPC   C1B23745  26.875  25.416   4.849  0.2776 -0.2395  0.0575
    1DIPC   D2B23746  26.773  25.408   5.253 -0.1321  0.0812 -0.0363
    1DIPC   D3B23747  26.863  25.199   5.742  0.1900 -0.1582 -0.0765
    1DIPC   C4B23748  26.635  25.304   6.186 -0.2880 -0.0630 -0.1492
    1DIPC   NC323749   1.176  26.284   4.074 -0.2998 -0.0384 -0.2209
    1DIPC   PO423750   1.001  26.776   4.131 -0.1428  0.4468  0.1486
    1DIPC   GL123751   0.955  27.083   4.619 -0.2007  0.1481  0.2307
    1DIPC   GL223752   1.062  27.433   4.780  0.0746  0.1938  0.4618
    1DIPC   C1A23753   0.848  27.018   4.994  0.3595  0.0811 -0.0757
    1DIPC   D2A23754   0.642  26.768   5.265 -0.0633  0.2573  0.1968
    1DIPC   D3A23755   0.880  26.707   5.645 -0.0371 -0.2033  0.0340
    1DIPC   C4A23756   0.624  26.423   5.778  0.1630  0.3759  0.0106
    1DIPC   C1B23757   1.152  27.487   5.199 -0.1993  0.1533  0.1574
    1DIPC   D2B23758   1.198  27.518   5.652 -0.0410 -0.3541  0.1985
    1DIPC   D3B23759   1.507  27.844   5.444 -0.0859  0.2711  0.0420
    1DIPC   C4B23760   1.522  27.895   4.970 -0.1573  0.0342 -0.1832
    1DIPC   NC323761   1.304  17.202   3.955 -0.1899 -0.0665  0.0246
    1DIPC   PO423762   0.917  16.925   3.734  0.2209  0.1811  0.3649
    1DIPC   GL123763   1.064  16.739   4.101  0.1376  0.4191 -0.0842
    1DIPC   GL223764   1.447  16.715   4.013  0.0025 -0.0302 -0.3230
    1DIPC   C1A23765   1.140  16.800   4.508 -0.0906 -0.0505 -0.1935
    1DIPC   D2A23766   1.499  16.609   4.717 -0.2313 -0.0028  0.1624
    1DIPC   D3A23767   1.757  16.681   5.052 -0.1572 -0.1371  0.0467
    1DIPC   C4A23768   1.694  16.768   5.450 -0.4478  0.1771 -0.1905
    1DIPC   C1B23769   1.650  16.958   4.422 -0.0337  0.1683  0.2552
    1DIPC   D2B23770   1.508  17.330   4.497  0.0200  0.0350 -0.3004
    1DIPC   D3B23771   1.392  17.088   4.951 -0.1565 -0.0757  0.1912
    1DIPC   C4B23772   1.187  16.705   5.051 -0.1270  0.2871  0.0705
    1DIPC   NC323773  15.123  21.310   3.062 -0.1121  0.0583 -0.1091
    1DIPC   PO423774  15.275  21.629   2.806 -0.0146  0.2462  0.1492
    1DIPC   GL123775  15.470  21.678   3.138 -0.1767  0.1136 -0.1699
    1DIPC   GL223776  15.322  21.680   3.404 -0.0901  0.3144  0.1905
    1DIPC   C1A23777  15.673  22.088   3.432 -0.2945  0.2457  0.0191
    1DIPC   D2A23778  16.076  22.289   3.626  0.2610  0.0480  0.0650
    1DIPC   D3A23779  16.332  21.967   3.538  0.1574  0.0504  0.3208
    1DIPC   C4A23780  16.422  21.684   3.798 -0.0596 -0.0584 -0.1492
    1DIPC   C1B23781  15.241  21.905   3.756 -0.0676  0.2480  0.2368
    1DIPC   D2B23782  15.332  22.300   3.774 -0.0500 -0.0707 -0.1391
    1DIPC   D3B23783  15.544  22.023   4.169  0.0537 -0.0171 -0.1973
    1DIPC   C4B23784  15.327  21.814   4.579 -0.0729  0.3737  0.0199
    1DIPC   NC323785  12.986  13.510   2.500 -0.1729 -0.3502  0.1947
    1DIPC   PO423786  13.079  13.149   2.496  0.0970 -0.3294  0.3748
    1DIPC   GL123787  12.885  12.805   2.710 -0.1034  0.1074  0.2016
    1DIPC   GL223788  13.136  12.390   2.820  0.1859  0.0177  0.0230
    1DIPC   C1A23789  12.585  12.680   3.093  0.1478 -0.2385  0.0283
    1DIPC   D2A23790  12.232  12.494   3.120 -0.1569 -0.1410 -0.2046
    1DIPC   D3A23791  12.401  12.294   3.590 -0.2420 -0.2343  0.1038
    1DIPC   C4A23792  12.297  12.643   3.905 -0.0640  0.0230  0.0060
    1DIPC   C1B23793  13.025  12.359   3.238 -0.1898 -0.0621  0.2087
    1DIPC   D2B23794  13.142  12.333   3.667 -0.0948  0.2045  0.1606
    1DIPC   D3B23795  13.538  12.696   3.807 -0.0848  0.1476  0.1469
    1DIPC   C4B23796  14.003  12.680   3.854 -0.4092 -0.2958 -0.2204
    1DIPC   NC323797  28.475  27.211   4.021  0.0460 -0.1092 -0.2634
    1DIPC   PO423798  28.116  27.576   4.146  0.3371 -0.4094  0.1934
    1DIPC   GL123799  28.329  27.853   4.525 -0.1730 -0.2304 -0.0152
    1DIPC   GL223800  28.217  27.683   4.779 -0.1148  0.1411 -0.0723
    1DIPC   C1A23801  28.489  28.083   4.938  0.3315 -0.3347 -0.5237
    1DIPC   D2A23802  28.310  28.505   5.231 -0.0895 -0.0993  0.0607
    1DIPC   D3A23803  28.055  28.146   5.438  0.0982 -0.0036  0.1401
    1DIPC   C4A23804  27.644  28.258   5.702 -0.1991  0.0266 -0.2684
    1DIPC   C1B23805  28.252  27.702   5.252 -0.2836  0.0359 -0.1405
    1DIPC   D2B23806  27.829  27.734   5.582  0.3586  0.0155  0.1191
    1DIPC   D3B23807  27.367  27.936   5.439 -0.1554 -0.0087 -0.2315
    1DIPC   C4B23808  27.099  27.848   5.797 -0.0873 -0.0105 -0.2008
    1DIPC   NC323809  27.637  21.424   3.821 -0.1576 -0.0072 -0.0684
    1DIPC   PO423810  27.852  21.416   4.177  0.0296 -0.0310  0.0311
    1DIPC   GL123811  28.019  21.483   4.517  0.2339 -0.2310 -0.0697
    1DIPC   GL223812  28.122  21.829   4.576  0.0507 -0.0215 -0.0325
    1DIPC   C1A23813  28.022  21.434   4.918  0.0067  0.0821 -0.2407
    1DIPC   D2A23814  28.253  21.351   5.220 -0.3985  0.0965  0.0298
    1DIPC   D3A23815  28.173  20.848   5.320 -0.1457 -0.2684  0.0543
    1DIPC   C4A23816  28.063  20.749   5.723 -0.0090 -0.0391  0.0154
    1DIPC   C1B23817  27.841  21.902   4.885 -0.0572  0.1079 -0.0222
    1DIPC   D2B23818  27.470  22.040   5.104  0.1776  0.1565  0.3864
    1DIPC   D3B23819  27.440  22.145   5.487 -0.1507  0.4225 -0.1204
    1DIPC   C4B23820  27.772  22.316   5.745  0.0768  0.2789  0.2631
    1DIPC   NC323821  15.128  19.351   2.749 -0.0446  0.3835  0.0617
    1DIPC   PO423822  14.698  19.403   2.683 -0.0508 -0.0807 -0.0371
    1DIPC   GL123823  14.616  19.506   3.110 -0.0909 -0.0869 -0.0849
    1DIPC   GL223824  14.741  19.305   3.354  0.1313 -0.0870 -0.0846
    1DIPC   C1A23825  14.387  19.721   3.465  0.1954  0.1524  0.0253
    1DIPC   D2A23826  14.317  19.573   3.860 -0.0752 -0.4345 -0.2835
    1DIPC   D3A23827  14.278  19.219   3.594  0.2072  0.0006 -0.0195
    1DIPC   C4A23828  14.043  19.020   3.828 -0.0698  0.0831  0.0205
    1DIPC   C1B23829  14.826  19.322   3.819 -0.3375 -0.0837 -0.0829
    1DIPC   D2B23830  14.563  19.237   4.161  0.1393  0.0305  0.0031
    1DIPC   D3B23831  14.199  19.206   4.252 -0.0728 -0.2127  0.0181
    1DIPC   C4B23832  13.903  18.883   4.388 -0.2410  0.1219  0.0903
    1DIPC   NC323833  11.361  25.137   2.948 -0.3143 -0.1649 -0.4726
    1DIPC   PO423834  11.084  24.834   3.127 -0.1236  0.3106 -0.2199
    1DIPC   GL123835  11.025  25.053   3.462 -0.0603 -0.0785  0.0772
    1DIPC   GL223836  11.251  25.422   3.435  0.2015  0.0140 -0.0412
    1DIPC   C1A23837  10.976  25.011   3.898  0.0212  0.1105 -0.2644
    1DIPC   D2A23838  10.987  24.595   4.057 -0.0840  0.0513 -0.0824
    1DIPC   D3A23839  11.419  24.692   3.965  0.0170 -0.2616 -0.1486
    1DIPC   C4A23840  11.458  25.052   3.902  0.1465  0.0521  0.2393
    1DIPC   C1B23841  11.151  25.447   3.879 -0.1726  0.0293 -0.0235
    1DIPC   D2B23842  11.148  25.425   4.319  0.1151 -0.0813  0.0904
    1DIPC   D3B23843  11.172  25.889   4.267 -0.1157  0.0479 -0.2434
    1DIPC   C4B23844  11.372  26.094   4.536 -0.0532  0.3803  0.2135
    1DIPC   NC323845   0.196   8.028   3.689 -0.2954  0.0065 -0.1797
    1DIPC   PO423846   0.022   8.379   3.762 -0.3244  0.0676  0.0505
    1DIPC   GL123847   0.001   8.380   4.167  0.0699  0.1012 -0.0696
    1DIPC   GL223848   0.026   8.077   4.301 -0.0205 -0.0351 -0.1233
    1DIPC   C1A23849  -0.070   8.444   4.677  0.0919 -0.1445  0.1625
    1DIPC   D2A23850  -0.365   8.549   5.072  0.1446 -0.2844 -0.0629
    1DIPC   D3A23851  -0.341   8.363   5.531 -0.1091 -0.1284 -0.2927
    1DIPC   C4A23852  -0.155   8.059   5.789 -0.0127  0.1613 -0.0782
    1DIPC   C1B23853  -0.057   7.905   4.703  0.2762 -0.0373  0.1831
    1DIPC   D2B23854  -0.250   7.915   5.155  0.2731 -0.1697  0.0661
    1DIPC   D3B23855  -0.222   7.635   5.432 -0.0155 -0.2680 -0.0458
    1DIPC   C4B23856   0.128   7.612   5.685  0.3481  0.0533  0.3865
    1DIPC   NC323857  25.211  20.866   2.876 -0.1814 -0.2459 -0.1064
    1DIPC   PO423858  25.045  20.795   3.239 -0.0767 -0.0623 -0.1412
    1DIPC   GL123859  25.067  20.513   3.643  0.2404 -0.2802 -0.0291
    1DIPC   GL223860  25.411  20.364   3.749 -0.1265  0.1825 -0.0519
    1DIPC   C1A23861  24.947  20.370   3.964  0.0630 -0.0461 -0.3416
    1DIPC   D2A23862  24.641  20.539   4.298  0.3802 -0.0567 -0.0241
    1DIPC   D3A23863  24.748  20.700   4.714  0.1463 -0.1524 -0.3757
    1DIPC   C4A23864  24.609  21.129   4.977  0.0641 -0.1229  0.2542
    1DIPC   C1B23865  25.423  20.233   4.111  0.3629 -0.0134  0.3073
    1DIPC   D2B23866  25.518  20.298   4.520  0.0333  0.1326 -0.1689
    1DIPC   D3B23867  25.893  20.527   4.601 -0.2205  0.2544  0.0359
    1DIPC   C4B23868  26.174  20.477   4.926 -0.0894 -0.0650 -0.1664
    1DIPC   NC323869  14.572  13.594   2.109  0.1555  0.0909 -0.3745
    1DIPC   PO423870  14.886  13.574   2.195  0.0459 -0.0733  0.1748
    1DIPC   GL123871  14.903  13.535   2.569  0.3567 -0.2165 -0.1730
    1DIPC   GL223872  15.168  13.518   2.778  0.0594 -0.2482  0.1512
    1DIPC   C1A23873  14.809  13.149   2.826 -0.0182 -0.0267 -0.2605
    1DIPC   D2A23874  14.605  13.203   3.213 -0.1754  0.1360 -0.0081
    1DIPC   D3A23875  14.727  13.148   3.612  0.2829 -0.1556  0.0599
    1DIPC   C4A23876  14.659  13.500   4.005  0.0354 -0.0428 -0.3283
    1DIPC   C1B23877  14.807  13.609   3.068 -0.0386 -0.2924  0.1537
    1DIPC   D2B23878  14.774  13.617   3.508  0.0563  0.1401 -0.1702
    1DIPC   D3B23879  14.806  14.039   3.709 -0.2494 -0.0011  0.3033
    1DIPC   C4B23880  14.713  14.042   4.048  0.0656 -0.2076 -0.1402
    1DIPC   NC323881  19.399  12.531   2.427  0.1243  0.4555 -0.1780
    1DIPC   PO423882  19.074  12.259   2.441 -0.3721 -0.1076 -0.0769
    1DIPC   GL123883  18.943  12.104   2.807 -0.2971 -0.0114 -0.0103
    1DIPC   GL223884  19.101  11.859   2.947  0.1791 -0.0317  0.2549
    1DIPC   C1A23885  18.642  11.867   3.098  0.4291 -0.1749  0.0463
    1DIPC   D2A23886  18.500  11.778   3.514  0.0992  0.0518 -0.1543
    1DIPC   D3A23887  18.983  11.682   3.439  0.1765  0.3238  0.0978
    1DIPC   C4A23888  19.219  11.993   3.590  0.2116  0.1609  0.1191
    1DIPC   C1B23889  19.433  11.616   3.071 -0.1582 -0.0448  0.0446
    1DIPC   D2B23890  19.779  11.313   2.973 -0.0984  0.2596 -0.4372
    1DIPC   D3B23891  19.441  11.035   3.231  0.0412  0.0628  0.1246
    1DIPC   C4B23892  19.362  11.007   3.675 -0.1034 -0.2452 -0.1398
    1DIPC   NC323893   1.536  24.821   3.590 -0.0765 -0.0297  0.0671
    1DIPC   PO423894   1.521  25.004   4.061 -0.2345  0.1931  0.4929
    1DIPC   GL123895   1.651  24.779   4.471  0.1843  0.0842 -0.1370
    1DIPC   GL223896   1.937  24.676   4.346 -0.2227  0.0383  0.1430
    1DIPC   C1A23897   1.803  24.605   4.832 -0.0016  0.2524  0.2739
    1DIPC   D2A23898   1.771  24.616   5.310  0.1487  0.0725 -0.1056
    1DIPC   D3A23899   1.272  24.756   5.408 -0.0115  0.3875 -0.1888
    1DIPC   C4A23900   1.007  24.382   5.337 -0.0702  0.1496 -0.2177
    1DIPC   C1B23901   1.923  24.202   4.483  0.0775  0.0271 -0.0514
    1DIPC   D2B23902   1.765  24.021   4.845  0.0035 -0.0148  0.1394
    1DIPC   D3B23903   1.432  23.862   4.779 -0.2933  0.1658 -0.1337
    1DIPC   C4B23904   1.210  23.678   5.041  0.1068  0.3151  0.1667
    1DIPC   NC323905  13.558  10.545   1.882 -0.0375 -0.1370  0.2272
    1DIPC   PO423906  13.659  10.916   1.994  0.0604  0.2146 -0.2381
    1DIPC   GL123907  13.852  10.575   2.261  0.1457  0.1140  0.0566
    1DIPC   GL223908  14.194  10.495   2.298 -0.1191 -0.1243 -0.0667
    1DIPC   C1A23909  13.790  10.604   2.654 -0.0343  0.0034  0.0776
    1DIPC   D2A23910  13.569  10.531   3.048 -0.1520 -0.4281  0.0655
    1DIPC   D3A23911  13.427  10.119   3.194 -0.1079  0.1937 -0.0415
    1DIPC   C4A23912  13.202   9.915   3.559 -0.0467  0.1997  0.0398
    1DIPC   C1B23913  14.470  10.629   2.760  0.0632 -0.1011  0.1252
    1DIPC   D2B23914  14.467  10.424   3.103 -0.1184  0.2239 -0.1268
    1DIPC   D3B23915  14.622  10.126   3.413 -0.1636 -0.1956 -0.1309
    1DIPC   C4B23916  14.237  10.133   3.741 -0.3365  0.1384 -0.1842
    1DIPC   NC323917  25.166  16.607   3.132  0.3219 -0.1285 -0.0859
    1DIPC   PO423918  25.048  16.419   3.626  0.2094 -0.0791  0.1171
    1DIPC   GL123919  25.077  16.482   3.938  0.1567 -0.2688 -0.4384
    1DIPC   GL223920  25.117  16.835   3.880 -0.2089 -0.2420 -0.0479
    1DIPC   C1A23921  25.166  16.356   4.296  0.2000  0.2036  0.2501
    1DIPC   D2A23922  25.368  16.456   4.638 -0.2571  0.1102  0.0756
    1DIPC   D3A23923  25.547  16.714   4.363  0.1335 -0.1780  0.1556
    1DIPC   C4A23924  25.821  17.044   4.591  0.1343 -0.3852  0.2442
    1DIPC   C1B23925  25.014  16.843   4.323  0.3221 -0.0841  0.1940
    1DIPC   D2B23926  24.871  16.561   4.662 -0.0495 -0.3083  0.0972
    1DIPC   D3B23927  24.624  16.518   4.286  0.0519 -0.0620 -0.0152
    1DIPC   C4B23928  24.238  16.684   4.317 -0.1775  0.1493 -0.1553
    1DIPC   NC323929  19.333  24.142   3.092  0.3088  0.4485 -0.1687
    1DIPC   PO423930  18.956  24.245   3.202  0.0247 -0.0921  0.2211
    1DIPC   GL123931  19.196  24.313   3.553 -0.0138 -0.0240  0.0224
    1DIPC   GL223932  19.472  24.079   3.658  0.0364  0.0604  0.1886
    1DIPC   C1A23933  19.240  24.267   4.088 -0.0459 -0.0672  0.2084
    1DIPC   D2A23934  19.225  23.916   4.297  0.0176 -0.0382  0.1240
    1DIPC   D3A23935  19.414  23.793   4.644 -0.0527 -0.0122  0.0447
    1DIPC   C4A23936  19.458  23.387   4.643  0.0311 -0.2247 -0.3095
    1DIPC   C1B23937  19.658  23.984   4.032 -0.1641 -0.1121 -0.0556
    1DIPC   D2B23938  19.964  23.844   4.287  0.0347  0.0192  0.0270
    1DIPC   D3B23939  20.000  23.902   4.686 -0.0059 -0.0677  0.2043
    1DIPC   C4B23940  19.735  23.698   4.963 -0.2208 -0.1714 -0.2286
    1DIPC   NC323941  16.197  23.235   3.101  0.2552  0.3911 -0.0053
    1DIPC   PO423942  16.557  23.158   3.258 -0.1247  0.3118  0.2222
    1DIPC   GL123943  16.439  23.239   3.606 -0.0155  0.4961  0.0580
    1DIPC   GL223944  16.553  22.970   3.767  0.3339  0.0091 -0.1093
    1DIPC   C1A23945  16.488  23.362   4.004 -0.1687 -0.1980  0.1747
    1DIPC   D2A23946  16.500  23.291   4.399  0.0627 -0.0496 -0.5017
    1DIPC   D3A23947  16.689  22.933   4.422 -0.2284  0.0780  0.2560
    1DIPC   C4A23948  17.004  22.735   4.598 -0.1086 -0.0626  0.0595
    1DIPC   C1B23949  16.890  22.646   4.027  0.0695  0.2751 -0.2773
    1DIPC   D2B23950  16.962  22.310   4.365  0.1738 -0.1166  0.2960
    1DIPC   D3B23951  17.351  22.403   4.372 -0.3828 -0.0445  0.1958
    1DIPC   C4B23952  17.726  22.117   4.555 -0.1978 -0.1691  0.0676
    1DIPC   NC323953   0.518  17.103   4.074  0.0361  0.0882  0.1872
    1DIPC   PO423954   0.549  17.543   4.103 -0.4261 -0.3976 -0.2839
    1DIPC   GL123955   0.403  17.345   4.497 -0.3533  0.2901 -0.2805
    1DIPC   GL223956   0.439  17.641   4.565 -0.2786 -0.1507 -0.1132
    1DIPC   C1A23957   0.263  17.122   4.887 -0.1358 -0.0830 -0.0588
    1DIPC   D2A23958   0.437  17.241   5.326 -0.1417 -0.0215 -0.2556
    1DIPC   D3A23959   0.811  17.323   5.591 -0.2300  0.0212 -0.1880
    1DIPC   C4A23960   1.257  17.138   5.464  0.1282  0.0212 -0.0980
    1DIPC   C1B23961   0.470  17.629   5.062 -0.2520  0.1335  0.1415
    1DIPC   D2B23962   0.588  17.695   5.416 -0.2093 -0.2410 -0.1691
    1DIPC   D3B23963   0.237  17.992   5.495 -0.1648 -0.1562 -0.0076
    1DIPC   C4B23964  -0.236  17.832   5.594 -0.3127  0.0516  0.1346
    1DIPC   NC323965  26.432   5.631   3.694 -0.1470  0.1681  0.0823
    1DIPC   PO423966  26.066   5.719   3.969  0.1515 -0.0817 -0.0077
    1DIPC   GL123967  26.103   5.721   4.389  0.0845 -0.0473  0.0904
    1DIPC   GL223968  26.303   5.971   4.515 -0.0585  0.0620  0.4515
    1DIPC   C1A23969  26.124   5.554   4.851  0.0548 -0.1827 -0.2280
    1DIPC   D2A23970  26.063   5.266   5.122 -0.1666  0.0629  0.0831
    1DIPC   D3A23971  25.887   5.127   5.543  0.1428  0.0494  0.0602
    1DIPC   C4A23972  25.499   4.904   5.442 -0.2883  0.0892 -0.2783
    1DIPC   C1B23973  26.379   6.012   4.876 -0.3183 -0.0333  0.0419
    1DIPC   D2B23974  26.354   6.343   5.190 -0.3027  0.1013  0.1067
    1DIPC   D3B23975  26.233   6.181   5.657  0.1706 -0.1886  0.0403
    1DIPC   C4B23976  25.778   6.103   5.683 -0.1570 -0.0369 -0.1590
    1DIPC   NC323977  20.664  11.800   2.344  0.0192 -0.0151  0.0369
    1DIPC   PO423978  20.581  11.414   2.703 -0.1399  0.1461 -0.4035
    1DIPC   GL123979  20.273  11.408   3.082  0.1874 -0.0460  0.1643
    1DIPC   GL223980  20.333  11.247   3.471 -0.0480 -0.1126 -0.1183
    1DIPC   C1A23981  19.885  11.485   3.408  0.0128 -0.0169  0.1415
    1DIPC   D2A23982  19.477  11.472   3.624  0.1459  0.0663  0.1839
    1DIPC   D3A23983  19.713  11.270   3.968  0.0311  0.1127  0.1815
    1DIPC   C4A23984  19.444  11.379   4.331 -0.3689 -0.1731  0.0450
    1DIPC   C1B23985  20.235  11.334   3.918  0.0603 -0.0749  0.0728
    1DIPC   D2B23986  20.093  11.180   4.293 -0.2682  0.0721 -0.0680
    1DIPC   D3B23987  20.019  11.571   4.514  0.0320  0.1751 -0.1011
    1DIPC   C4B23988  19.892  11.722   4.853 -0.2152  0.3001  0.1649
    1DIPC   NC323989  13.278   5.898   1.949 -0.1577  0.3182 -0.0549
    1DIPC   PO423990  13.443   5.454   1.920  0.0228  0.0905  0.1127
    1DIPC   GL123991  13.397   5.159   2.326  0.2807 -0.2368 -0.3759
    1DIPC   GL223992  13.195   4.823   2.333 -0.0150 -0.1863  0.0037
    1DIPC   C1A23993  13.400   5.012   2.762 -0.0634  0.0917 -0.0742
    1DIPC   D2A23994  13.560   4.906   3.187  0.2385  0.2350 -0.1043
    1DIPC   D3A23995  13.238   5.147   3.491  0.2147 -0.0555  0.0301
    1DIPC   C4A23996  13.265   5.628   3.618  0.0107  0.0991 -0.0173
    1DIPC   C1B23997  13.158   4.496   2.515  0.1394 -0.0802  0.0037
    1DIPC   D2B23998  13.497   4.345   2.868 -0.2072 -0.2964 -0.0222
    1DIPC   D3B23999  13.379   4.451   3.300  0.2461 -0.1850 -0.1485
    1DIPC   C4B24000  12.990   4.604   3.546  0.3643  0.1580  0.1018
    1DIPC   NC324001   1.165   1.683   3.745 -0.1465 -0.1151  0.0735
    1DIPC   PO424002   1.162   2.074   3.551 -0.1165 -0.1692  0.3413
    1DIPC   GL124003   1.201   2.343   3.926  0.1192 -0.0590 -0.0084
    1DIPC   GL224004   0.920   2.407   4.213  0.1933 -0.2041 -0.0981
    1DIPC   C1A24005   1.410   2.339   4.241 -0.0916  0.1602  0.1164
    1DIPC   D2A24006   1.842   2.213   4.213 -0.0712 -0.0329 -0.0765
    1DIPC   D3A24007   1.787   1.975   4.619  0.2728 -0.1784 -0.2655
    1DIPC   C4A24008   1.973   2.197   4.941  0.0785  0.0595 -0.0394
    1DIPC   C1B24009   1.010   2.268   4.642  0.1397  0.1827  0.1861
    1DIPC   D2B24010   0.977   1.967   5.049  0.0818  0.0902  0.0381
    1DIPC   D3B24011   1.125   1.846   5.395  0.2246 -0.0631  0.1913
    1DIPC   C4B24012   1.039   1.516   5.633 -0.2434 -0.0829  0.0960
    1DIPC   NC324013   3.194  16.247   2.897 -0.1186 -0.0691 -0.1603
    1DIPC   PO424014   3.173  16.254   3.292 -0.2055  0.0898  0.0183
    1DIPC   GL124015   3.396  16.273   3.623 -0.0435 -0.3436  0.2348
    1DIPC   GL224016   3.749  16.089   3.647  0.0916 -0.2292  0.2839
    1DIPC   C1A24017   3.531  16.320   4.031  0.0585 -0.1739 -0.2831
    1DIPC   D2A24018   3.378  16.529   4.297 -0.1300 -0.1781  0.4405
    1DIPC   D3A24019   3.328  16.363   4.668  0.1682  0.1583 -0.0189
    1DIPC   C4A24020   3.631  16.178   4.898 -0.2942  0.0658 -0.1808
    1DIPC   C1B24021   3.804  15.905   3.991 -0.0629 -0.0888  0.2791
    1DIPC   D2B24022   3.883  15.577   4.295 -0.0863  0.1750 -0.0568
    1DIPC   D3B24023   3.885  15.777   4.648  0.0136 -0.0710 -0.3218
    1DIPC   C4B24024   4.078  15.898   4.980  0.0344 -0.0779 -0.0279
    1DIPC   NC324025   4.548   7.777   3.319 -0.2362  0.3073 -0.1282
    1DIPC   PO424026   4.232   7.469   3.473  0.0340  0.0261 -0.1417
    1DIPC   GL124027   4.173   7.631   3.955 -0.0342 -0.3314  0.1287
    1DIPC   GL224028   3.838   7.745   4.036  0.0306  0.4250 -0.1970
    1DIPC   C1A24029   4.115   7.496   4.335 -0.3883 -0.1792 -0.0933
    1DIPC   D2A24030   4.159   7.685   4.757  0.1633  0.1626 -0.1079
    1DIPC   D3A24031   4.586   7.316   4.904  0.2211 -0.0494  0.0781
    1DIPC   C4A24032   4.717   6.920   4.656 -0.0689 -0.0110 -0.0215
    1DIPC   C1B24033   3.810   7.829   4.465  0.2158  0.6305  0.3447
    1DIPC   D2B24034   3.500   7.969   4.628 -0.0111  0.0280  0.2773
    1DIPC   D3B24035   3.668   7.925   4.970  0.0422 -0.0119 -0.3351
    1DIPC   C4B24036   4.036   8.051   5.129 -0.0328  0.2880 -0.0037
    1DIPC   NC324037   0.321   8.859   3.476 -0.1167  0.0593 -0.1224
    1DIPC   PO424038   0.686   9.060   3.410  0.1756  0.0475 -0.1154
    1DIPC   GL124039   0.851   8.910   3.832 -0.0136 -0.1095 -0.1599
    1DIPC   GL224040   1.065   9.147   3.832 -0.1036 -0.0929 -0.1486
    1DIPC   C1A24041   1.001   8.832   4.206 -0.2299 -0.0244 -0.0329
    1DIPC   D2A24042   1.143   8.928   4.678  0.1151  0.2333  0.0662
    1DIPC   D3A24043   1.543   8.779   4.886 -0.2813 -0.0524  0.1285
    1DIPC   C4A24044   1.842   9.011   5.261  0.0285  0.0666  0.1941
    1DIPC   C1B24045   1.395   9.205   4.074 -0.3593 -0.0966 -0.4272
    1DIPC   D2B24046   1.787   9.386   4.245 -0.0772 -0.0294 -0.0568
    1DIPC   D3B24047   2.031   9.541   4.575  0.1923 -0.0430 -0.1216
    1DIPC   C4B24048   2.022  10.043   4.509  0.2904  0.0186 -0.1636
    1DIPC   NC324049  21.779  12.337   3.124 -0.4698 -0.0452 -0.0647
    1DIPC   PO424050  22.048  12.770   3.240 -0.2727  0.0721  0.1852
    1DIPC   GL124051  21.950  12.990   3.636  0.0653  0.0384 -0.3220
    1DIPC   GL224052  21.620  13.156   3.656  0.0693  0.2223  0.2632
    1DIPC   C1A24053  21.994  12.800   4.082  0.3383 -0.0111 -0.0153
    1DIPC   D2A24054  22.150  12.872   4.433 -0.1548  0.1471 -0.1593
    1DIPC   D3A24055  21.786  13.220   4.467 -0.4485 -0.0407  0.1772
    1DIPC   C4A24056  21.439  13.115   4.665  0.0943  0.0353  0.1135
    1DIPC   C1B24057  21.825  13.306   3.977 -0.3162 -0.1792  0.2054
    1DIPC   D2B24058  22.135  13.449   4.192 -0.0729  0.0577 -0.0593
    1DIPC   D3B24059  22.366  13.259   3.884  0.1850 -0.3758 -0.1971
    1DIPC   C4B24060  22.487  12.997   4.148  0.0751  0.2175  0.2147
    1DIPC   NC324061   5.652   5.687   3.601  0.0269  0.0719 -0.0904
    1DIPC   PO424062   5.507   5.231   3.551  0.3285 -0.2600  0.2036
    1DIPC   GL124063   5.490   5.301   4.019 -0.1610  0.0106  0.0090
    1DIPC   GL224064   5.550   5.607   4.062  0.2177  0.0193 -0.0839
    1DIPC   C1A24065   5.426   5.323   4.443 -0.1884  0.0157 -0.0835
    1DIPC   D2A24066   5.462   5.415   4.890 -0.0076  0.2472 -0.4543
    1DIPC   D3A24067   5.705   5.163   5.154  0.3162  0.2617 -0.2553
    1DIPC   C4A24068   6.080   5.207   5.039  0.2496  0.1622  0.1864
    1DIPC   C1B24069   5.560   5.751   4.536 -0.0559  0.2500  0.1343
    1DIPC   D2B24070   5.189   5.831   4.637  0.0419  0.0067 -0.0378
    1DIPC   D3B24071   5.396   5.960   5.039  0.3313 -0.0086  0.4195
    1DIPC   C4B24072   5.517   5.704   5.318  0.3578 -0.0872 -0.1783
    1DIPC   NC324073   7.544  19.022   2.752 -0.1175 -0.0381 -0.0014
    1DIPC   PO424074   7.938  19.101   2.623  0.0581 -0.0687 -0.4250
    1DIPC   GL124075   7.915  18.876   3.050  0.0037  0.0920  0.4825
    1DIPC   GL224076   7.734  18.581   2.941 -0.1089  0.2429  0.0055
    1DIPC   C1A24077   8.141  18.942   3.329  0.0438 -0.0411  0.0643
    1DIPC   D2A24078   8.010  19.246   3.567  0.1448  0.0817  0.1083
    1DIPC   D3A24079   8.044  19.280   4.009 -0.1476 -0.1894  0.0010
    1DIPC   C4A24080   7.627  19.417   4.103 -0.2138 -0.3273 -0.0965
    1DIPC   C1B24081   7.403  18.535   3.210 -0.0908 -0.0282 -0.2263
    1DIPC   D2B24082   7.082  18.779   3.392  0.1706  0.2114 -0.1036
    1DIPC   D3B24083   7.253  18.774   3.710  0.1045  0.1376 -0.2180
    1DIPC   C4B24084   7.424  18.423   3.763  0.0702 -0.1247 -0.0843
    1DIPC   NC324085  11.358   4.780   1.917  0.1153  0.2595 -0.1347
    1DIPC   PO424086  11.210   4.790   2.290 -0.1566 -0.0924  0.0878
    1DIPC   GL124087  11.363   4.817   2.675 -0.1353  0.3708  0.1828
    1DIPC   GL224088  11.531   5.039   2.775 -0.1731  0.0942 -0.2250
    1DIPC   C1A24089  11.184   4.733   3.058  0.0774  0.3486 -0.0149
    1DIPC   D2A24090  11.027   4.570   3.437  0.2727 -0.0165  0.1516
    1DIPC   D3A24091  10.887   4.233   3.689  0.0001 -0.1895  0.0051
    1DIPC   C4A24092  10.868   3.846   3.749  0.0240 -0.2528 -0.0468
    1DIPC   C1B24093  11.702   5.076   3.113  0.0745  0.0374 -0.3729
    1DIPC   D2B24094  11.661   5.357   3.453 -0.0151  0.2717 -0.1492
    1DIPC   D3B24095  11.226   5.521   3.646 -0.0067 -0.0663  0.1956
    1DIPC   C4B24096  11.173   5.644   4.105 -0.3358 -0.0079 -0.1056
    1DIPC   NC324097   0.648  15.270   3.879 -0.1250  0.1289  0.3457
    1DIPC   PO424098   0.656  15.583   3.853  0.0544  0.0702  0.6019
    1DIPC   GL124099   0.806  15.806   4.185  0.0574  0.3022  0.0095
    1DIPC   GL224100   1.183  15.828   4.158  0.0641  0.0712 -0.1922
    1DIPC   C1A24101   0.766  16.208   4.473 -0.3024 -0.1884  0.2305
    1DIPC   D2A24102   0.801  16.458   4.870 -0.0624  0.0349  0.0280
    1DIPC   D3A24103   0.908  16.240   5.143 -0.1447  0.1155  0.0174
    1DIPC   C4A24104   0.940  15.827   4.948 -0.0278 -0.2931 -0.1200
    1DIPC   C1B24105   1.265  15.719   4.603  0.1926 -0.2474  0.0445
    1DIPC   D2B24106   1.601  15.353   4.577  0.2831  0.2155  0.2626
    1DIPC   D3B24107   1.794  15.091   4.941 -0.1865  0.1327  0.2630
    1DIPC   C4B24108   1.626  15.190   5.231 -0.1072  0.2398  0.1909
    1DIPC   NC324109   0.426   6.727   3.808 -0.0498 -0.0170 -0.0950
    1DIPC   PO424110   0.319   6.632   4.244 -0.0308  0.1541  0.1645
    1DIPC   GL124111   0.074   6.650   4.693 -0.1804  0.0596 -0.0137
    1DIPC   GL224112  -0.260   6.452   4.694 -0.2470 -0.2140  0.1063
    1DIPC   C1A24113   0.131   6.739   5.157  0.0493 -0.1881  0.0511
    1DIPC   D2A24114  -0.102   7.118   5.328 -0.3324  0.2874 -0.2172
    1DIPC   D3A24115  -0.153   7.029   4.870 -0.2436 -0.1420 -0.0981
    1DIPC   C4A24116  -0.507   7.275   4.720  0.0118  0.0268 -0.1659
    1DIPC   C1B24117  -0.428   6.547   5.060  0.1273 -0.1158  0.1028
    1DIPC   D2B24118  -0.726   6.698   5.413  0.1903 -0.2555  0.1839
    1DIPC   D3B24119  -0.621   7.014   5.114 -0.1552 -0.1894 -0.0372
    1DIPC   C4B24120  -0.662   6.827   4.714  0.0286  0.0131  0.2116
    1DIPC   NC324121  10.737  12.928   2.430 -0.0400  0.1376  0.0856
    1DIPC   PO424122  11.119  12.742   2.279 -0.1751  0.0199 -0.0378
    1DIPC   GL124123  11.276  12.614   2.576 -0.0918  0.0931 -0.2380
    1DIPC   GL224124  11.504  12.596   2.833  0.1906  0.1058  0.0110
    1DIPC   C1A24125  11.096  12.387   3.018  0.0324  0.0675  0.0383
    1DIPC   D2A24126  10.844  12.002   3.121 -0.5399 -0.0513 -0.2348
    1DIPC   D3A24127  10.581  12.387   3.116  0.0066  0.0957 -0.1254
    1DIPC   C4A24128  10.204  12.287   2.927 -0.0147  0.0186  0.1164
    1DIPC   C1B24129  11.699  12.380   3.132  0.2449  0.0638 -0.2231
    1DIPC   D2B24130  11.913  12.427   3.563  0.1973 -0.4581  0.0200
    1DIPC   D3B24131  11.634  12.641   3.768 -0.0165  0.3838 -0.0184
    1DIPC   C4B24132  11.325  12.974   3.813 -0.0835  0.1956 -0.1207
    1DIPC   NC324133   2.203   0.078   4.263  0.2339  0.0603 -0.0340
    1DIPC   PO424134   2.208  -0.247   4.135  0.0374 -0.0559  0.1303
    1DIPC   GL124135   1.914  -0.165   4.573  0.2365 -0.0220  0.0040
    1DIPC   GL224136   1.683  -0.052   4.554 -0.3578 -0.0266  0.0581
    1DIPC   C1A24137   2.013  -0.144   4.987 -0.0736 -0.2416 -0.0998
    1DIPC   D2A24138   2.356   0.093   5.188  0.0203  0.1254 -0.1465
    1DIPC   D3A24139   2.142   0.302   5.603  0.1081  0.1432  0.1321
    1DIPC   C4A24140   2.204   0.575   5.962 -0.0716 -0.1276  0.3640
    1DIPC   C1B24141   1.500  -0.002   4.973 -0.3347 -0.3297  0.0454
    1DIPC   D2B24142   1.331  -0.095   5.334 -0.2700  0.1146  0.1638
    1DIPC   D3B24143   1.385  -0.059   5.768 -0.0084 -0.0820 -0.3638
    1DIPC   C4B24144   1.277   0.285   6.104 -0.1611 -0.3601  0.0550
    1DIPC   NC324145  22.878  22.435   2.792  0.1888  0.3227  0.0618
    1DIPC   PO424146  22.939  22.429   3.233 -0.0758 -0.0540  0.0072
    1DIPC   GL124147  22.875  22.462   3.704  0.0590 -0.1245  0.1382
    1DIPC   GL224148  23.094  22.289   3.703  0.0381  0.0702 -0.1184
    1DIPC   C1A24149  22.683  22.072   3.988 -0.0464 -0.1436 -0.0329
    1DIPC   D2A24150  22.441  22.032   4.225  0.2202 -0.0303 -0.1674
    1DIPC   D3A24151  22.398  22.111   4.640  0.1814 -0.1695  0.1723
    1DIPC   C4A24152  22.031  22.213   4.842 -0.2543 -0.3041  0.2595
    1DIPC   C1B24153  23.237  22.016   4.023  0.0723 -0.0668  0.4386
    1DIPC   D2B24154  23.547  21.937   4.442  0.3653  0.3008  0.3594
    1DIPC   D3B24155  23.342  22.219   4.416  0.2008 -0.1839 -0.1074
    1DIPC   C4B24156  23.198  22.648   4.584 -0.0922 -0.0831 -0.0772
    1DIPC   NC324157   5.573  14.729   2.271  0.2184  0.2600  0.1623
    1DIPC   PO424158   6.049  14.504   2.310  0.0411  0.1169 -0.0294
    1DIPC   GL124159   6.027  14.454   2.739 -0.5271 -0.1033 -0.1919
    1DIPC   GL224160   5.984  14.763   2.811 -0.0259 -0.2261 -0.1023
    1DIPC   C1A24161   6.111  14.482   3.196  0.0839 -0.2523 -0.1693
    1DIPC   D2A24162   6.116  14.290   3.528 -0.0669  0.1138 -0.0807
    1DIPC   D3A24163   6.080  14.586   3.834 -0.0922  0.2846  0.0434
    1DIPC   C4A24164   6.115  14.848   4.274  0.0984  0.0582 -0.2080
    1DIPC   C1B24165   5.828  14.875   3.257  0.0459 -0.0026  0.4755
    1DIPC   D2B24166   5.645  15.053   3.577 -0.2560  0.2935 -0.0578
    1DIPC   D3B24167   5.800  15.177   3.984 -0.2129  0.0200  0.0326
    1DIPC   C4B24168   5.517  15.008   4.228 -0.2434 -0.2822 -0.0834
    1DIPC   NC324169  28.020  10.200   3.428  0.2434 -0.2461  0.0060
    1DIPC   PO424170  27.866  10.639   3.364 -0.1666  0.0459 -0.0336
    1DIPC   GL124171  27.950  10.363   3.899  0.0822  0.0562  0.0634
    1DIPC   GL224172  27.749  10.131   3.998 -0.0780 -0.1485 -0.3153
    1DIPC   C1A24173  27.947  10.445   4.385 -0.2159  0.3144 -0.0491
    1DIPC   D2A24174  28.180  10.443   4.740 -0.0882 -0.1982 -0.3103
    1DIPC   D3A24175  28.014  10.773   5.097 -0.0000  0.2905 -0.1050
    1DIPC   C4A24176  27.853  11.100   5.175  0.0445 -0.1934  0.1995
    1DIPC   C1B24177  27.531  10.087   4.355  0.2120  0.0193  0.0777
    1DIPC   D2B24178  27.580  10.359   4.718  0.2585  0.1080  0.3178
    1DIPC   D3B24179  27.342  10.060   4.970  0.3455 -0.2078 -0.1079
    1DIPC   C4B24180  27.349  10.001   5.366 -0.0592 -0.1986  0.0484
    1DIPC   NC324181   1.305   9.135   3.395 -0.0207  0.1252 -0.1117
    1DIPC   PO424182   1.542   9.552   3.324  0.1346 -0.1495 -0.1123
    1DIPC   GL124183   1.554   9.721   3.829  0.1295  0.1564 -0.0173
    1DIPC   GL224184   1.248   9.809   3.780 -0.0703 -0.0723  0.0027
    1DIPC   C1A24185   1.590   9.880   4.240 -0.1042 -0.2656  0.2440
    1DIPC   D2A24186   1.616   9.858   4.681 -0.0843 -0.0022  0.1448
    1DIPC   D3A24187   1.394   9.782   5.079  0.1968  0.1710  0.2161
    1DIPC   C4A24188   0.959   9.829   5.235  0.1339 -0.0484  0.1229
    1DIPC   C1B24189   1.119   9.947   4.173 -0.0724 -0.3679  0.2020
    1DIPC   D2B24190   1.217  10.205   4.454  0.0917  0.0314  0.0246
    1DIPC   D3B24191   1.063   9.960   4.712 -0.0496  0.1835 -0.2210
    1DIPC   C4B24192   1.008   9.498   4.806 -0.2983 -0.1652 -0.0816
    1DIPC   NC324193   6.236   8.873   3.126  0.2041 -0.1803 -0.1581
    1DIPC   PO424194   6.347   9.111   2.788 -0.2602  0.0250 -0.2332
    1DIPC   GL124195   6.732   9.040   3.142  0.2062 -0.0366 -0.1180
    1DIPC   GL224196   6.710   8.772   3.238  0.1669 -0.1292 -0.0836
    1DIPC   C1A24197   6.840   9.325   3.470 -0.0282 -0.3312 -0.1069
    1DIPC   D2A24198   7.133   9.289   3.770  0.0181 -0.3474  0.2184
    1DIPC   D3A24199   7.028   8.808   3.958 -0.0940  0.1595  0.2975
    1DIPC   C4A24200   6.646   8.646   3.945  0.2307  0.1623 -0.0522
    1DIPC   C1B24201   7.091   8.817   3.416 -0.1837  0.0446 -0.1240
    1DIPC   D2B24202   7.470   8.761   3.707 -0.0106  0.0324  0.2009
    1DIPC   D3B24203   7.346   8.343   3.550  0.1760  0.0095 -0.0204
    1DIPC   C4B24204   6.868   8.376   3.527  0.1652 -0.1541 -0.2721
    1DIPC   NC324205   7.421   0.031   3.638 -0.0010  0.1077 -0.2024
    1DIPC   PO424206   7.190  -0.359   3.661  0.1162 -0.1339  0.1661
    1DIPC   GL124207   7.160  -0.206   4.073 -0.0326  0.0100  0.0815
    1DIPC   GL224208   7.174  -0.422   4.342 -0.0547 -0.2395  0.1005
    1DIPC   C1A24209   7.327   0.115   4.309  0.1022 -0.0618 -0.1813
    1DIPC   D2A24210   7.382   0.444   4.562  0.0822 -0.3352 -0.0659
    1DIPC   D3A24211   7.182   0.759   4.804 -0.0067  0.0132 -0.0478
    1DIPC   C4A24212   7.207   0.777   5.236 -0.2189 -0.2744  0.2902
    1DIPC   C1B24213   7.297  -0.500   4.667 -0.0191 -0.2886 -0.0977
    1DIPC   D2B24214   7.174  -0.577   5.075  0.1133 -0.1173  0.0286
    1DIPC   D3B24215   7.179  -0.349   5.489 -0.2906  0.2624  0.0959
    1DIPC   C4B24216   7.529  -0.068   5.662  0.2339 -0.4341  0.1626
    1DIPC   NC324217   4.660  16.949   3.299  0.0186 -0.1104 -0.0991
    1DIPC   PO424218   4.875  17.282   3.433  0.1070  0.0321  0.2973
    1DIPC   GL124219   4.991  16.899   3.628 -0.0576 -0.0344 -0.0434
    1DIPC   GL224220   4.907  17.106   3.904 -0.1490  0.0472 -0.4571
    1DIPC   C1A24221   5.311  16.850   3.916 -0.2965 -0.3137  0.0886
    1DIPC   D2A24222   5.677  17.045   4.004 -0.2197 -0.1044  0.1544
    1DIPC   D3A24223   5.879  17.147   4.402 -0.2642  0.0194  0.2745
    1DIPC   C4A24224   5.884  17.605   4.383  0.0422  0.2259  0.0046
    1DIPC   C1B24225   4.928  17.055   4.276  0.2874 -0.2155 -0.1355
    1DIPC   D2B24226   4.960  16.911   4.719  0.2179 -0.0982  0.0180
    1DIPC   D3B24227   5.325  16.596   4.777 -0.1302  0.2883  0.1511
    1DIPC   C4B24228   5.748  16.790   4.781 -0.1127  0.2000 -0.0962
    1DIPC   NC324229  25.489  15.034   3.313 -0.1192  0.1365  0.1261
    1DIPC   PO424230  25.044  15.036   3.433  0.1089 -0.2597  0.0977
    1DIPC   GL124231  25.021  14.857   3.850  0.2091  0.0025  0.1555
    1DIPC   GL224232  24.855  14.596   3.795  0.0047 -0.0266 -0.3597
    1DIPC   C1A24233  25.210  14.847   4.257  0.0817  0.1140 -0.1955
    1DIPC   D2A24234  25.349  14.715   4.679 -0.0687 -0.5411  0.2164
    1DIPC   D3A24235  25.095  14.402   4.758  0.1656  0.0913  0.1719
    1DIPC   C4A24236  24.722  14.432   4.540 -0.0338 -0.1632 -0.2341
    1DIPC   C1B24237  24.681  14.825   4.175 -0.0076 -0.2130 -0.1393
    1DIPC   D2B24238  24.631  14.905   4.574 -0.0856 -0.0045  0.0673
    1DIPC   D3B24239  24.251  14.696   4.371  0.0484 -0.3419 -0.2307
    1DIPC   C4B24240  23.854  14.636   4.557 -0.2829 -0.0710 -0.2050
    1DIPC   NC324241  13.362  22.714   3.132 -0.2642  0.1370  0.0375
    1DIPC   PO424242  13.257  22.254   3.042 -0.3249  0.0220  0.1909
    1DIPC   GL124243  13.340  22.185   3.448 -0.1517  0.0003 -0.0513
    1DIPC   GL224244  13.205  21.926   3.632 -0.0195 -0.3146  0.0130
    1DIPC   C1A24245  13.673  22.202   3.667  0.0286 -0.0402 -0.3104
    1DIPC   D2A24246  13.767  22.345   4.117 -0.1403  0.1841  0.0815
    1DIPC   D3A24247  14.020  22.718   4.272 -0.1383 -0.0528  0.0365
    1DIPC   C4A24248  14.304  22.661   4.460 -0.0349  0.0438 -0.0349
    1DIPC   C1B24249  13.500  21.814   3.948  0.1096  0.1932 -0.1419
    1DIPC   D2B24250  13.757  21.765   4.271 -0.1107  0.1638  0.3026
    1DIPC   D3B24251  13.429  21.609   4.401  0.1846 -0.1470 -0.0407
    1DIPC   C4B24252  13.163  21.474   4.276  0.2395 -0.2053 -0.1127
    1DIPC   NC324253  15.915   6.520   1.241 -0.1454  0.3739  0.3224
    1DIPC   PO424254  15.740   6.376   1.586 -0.0730  0.2202  0.1507
    1DIPC   GL124255  15.639   6.374   2.054  0.0120  0.1035 -0.0770
    1DIPC   GL224256  15.437   6.145   2.194  0.0082 -0.0665 -0.0946
    1DIPC   C1A24257  16.005   6.410   2.390  0.1068 -0.0675  0.1237
    1DIPC   D2A24258  15.996   6.580   2.862 -0.0677 -0.3169  0.0560
    1DIPC   D3A24259  16.366   6.737   2.972 -0.3718  0.1151 -0.3851
    1DIPC   C4A24260  16.476   6.785   3.422 -0.2312  0.0177  0.2189
    1DIPC   C1B24261  15.427   5.907   2.627 -0.2542 -0.2253  0.3303
    1DIPC   D2B24262  15.280   5.924   3.076 -0.1967  0.0434  0.1936
    1DIPC   D3B24263  14.892   6.113   3.011 -0.0566 -0.3303  0.1070
    1DIPC   C4B24264  14.615   6.058   2.689 -0.0903  0.3206 -0.0556
    1DIPC   NC324265  25.751  16.231   2.861  0.1858 -0.1743  0.0847
    1DIPC   PO424266  25.403  16.124   3.234  0.2211  0.0492 -0.1040
    1DIPC   GL124267  25.321  16.033   3.634  0.0182 -0.3113 -0.1299
    1DIPC   GL224268  25.005  15.874   3.688 -0.2618  0.1137  0.1850
    1DIPC   C1A24269  25.531  16.061   4.039 -0.2854  0.2307 -0.0872
    1DIPC   D2A24270  25.713  16.197   4.367 -0.1415  0.0276  0.2291
    1DIPC   D3A24271  25.483  15.980   4.612 -0.1962 -0.0876  0.4812
    1DIPC   C4A24272  25.224  15.687   4.410  0.2248 -0.3252 -0.2915
    1DIPC   C1B24273  24.858  15.925   4.109  0.0431 -0.1455  0.2532
    1DIPC   D2B24274  24.746  15.985   4.538  0.0202 -0.2351  0.1905
    1DIPC   D3B24275  24.551  16.135   5.014 -0.1430 -0.1763 -0.0827
    1DIPC   C4B24276  24.836  16.489   5.267  0.1264  0.0654 -0.3609
    1DIPC   NC324277  13.818   2.420   1.860 -0.0162 -0.0420 -0.0941
    1DIPC   PO424278  13.576   2.708   2.136  0.0784  0.0902  0.4214
    1DIPC   GL124279  13.724   3.043   2.428  0.2124  0.3215 -0.2807
    1DIPC   GL224280  13.863   3.287   2.204  0.2379 -0.0268 -0.2187
    1DIPC   C1A24281  13.582   3.204   2.907  0.0845  0.1313 -0.1131
    1DIPC   D2A24282  13.520   3.166   3.390  0.0015 -0.0816  0.0102
    1DIPC   D3A24283  13.851   3.050   3.673 -0.0865  0.3505 -0.1290
    1DIPC   C4A24284  13.868   3.010   4.090 -0.0112  0.2605 -0.0732
    1DIPC   C1B24285  14.026   3.244   2.699 -0.2137  0.1611  0.2874
    1DIPC   D2B24286  13.969   3.326   3.126  0.0699  0.1630 -0.3572
    1DIPC   D3B24287  14.122   3.495   3.427 -0.0313 -0.0766 -0.0086
    1DIPC   C4B24288  13.741   3.506   3.723  0.1123 -0.2249 -0.1750
    1DIPC   NC324289   8.169  27.862   3.401  0.2170 -0.3770  0.0903
    1DIPC   PO424290   8.188  28.234   3.603 -0.0278  0.0492  0.2363
    1DIPC   GL124291   8.392  28.352   4.037  0.0955  0.1391  0.2035
    1DIPC   GL224292   8.568  28.188   4.242 -0.1120 -0.2747  0.1569
    1DIPC   C1A24293   8.298  28.621   4.316 -0.2336 -0.0066 -0.2467
    1DIPC   D2A24294   8.174  28.687   4.734 -0.2055  0.0734 -0.0912
    1DIPC   D3A24295   8.051  28.364   4.942 -0.0026 -0.0451 -0.3038
    1DIPC   C4A24296   7.669  28.385   5.195 -0.0162  0.3480  0.2339
    1DIPC   C1B24297   8.457  28.241   4.688  0.1241  0.0945  0.0933
    1DIPC   D2B24298   8.528  28.508   5.007 -0.0138  0.0304  0.0797
    1DIPC   D3B24299   8.342  28.190   5.270 -0.0082 -0.2502  0.2537
    1DIPC   C4B24300   8.003  27.917   5.334 -0.3503 -0.0579 -0.2222
    1DIPC   NC324301  18.043  18.110   2.670 -0.1185  0.2729 -0.2068
    1DIPC   PO424302  17.696  18.201   2.374  0.2210  0.1583 -0.2267
    1DIPC   GL124303  17.614  18.127   2.907 -0.0624 -0.1099  0.1895
    1DIPC   GL224304  17.604  17.821   3.038 -0.0655  0.1786 -0.0822
    1DIPC   C1A24305  17.384  18.290   3.267 -0.1122  0.3377 -0.1047
    1DIPC   D2A24306  17.002  18.103   3.507  0.4042 -0.1036  0.0126
    1DIPC   D3A24307  16.952  17.847   3.843  0.0245  0.2927 -0.2417
    1DIPC   C4A24308  16.710  17.638   4.111 -0.2458  0.4483 -0.0449
    1DIPC   C1B24309  17.827  17.939   3.337  0.0759 -0.0120  0.1865
    1DIPC   D2B24310  18.112  18.157   3.237  0.1955  0.1213 -0.0777
    1DIPC   D3B24311  17.918  18.563   3.256  0.0635 -0.1045 -0.4891
    1DIPC   C4B24312  17.980  18.886   3.269  0.1271  0.2609  0.0995
    1DIPC   NC324313  11.711   8.687   2.177  0.2426  0.0184 -0.1500
    1DIPC   PO424314  11.302   8.491   2.075 -0.0178 -0.0219 -0.0537
    1DIPC   GL124315  11.270   8.709   2.503 -0.0788  0.1242  0.0368
    1DIPC   GL224316  11.201   8.389   2.798  0.0571 -0.0862  0.2499
    1DIPC   C1A24317  11.625   8.694   2.809  0.0495  0.0030 -0.0519
    1DIPC   D2A24318  11.916   8.462   2.995 -0.0949 -0.0108  0.0407
    1DIPC   D3A24319  11.979   8.880   3.132  0.1119  0.0982 -0.0967
    1DIPC   C4A24320  12.246   9.015   2.788  0.2251  0.0819 -0.0830
    1DIPC   C1B24321  11.049   8.836   2.966  0.1561  0.0795  0.2616
    1DIPC   D2B24322  11.286   9.149   3.030  0.1106  0.1076 -0.0154
    1DIPC   D3B24323  11.171   9.201   3.536  0.3980 -0.0123  0.0337
    1DIPC   C4B24324  10.929   8.832   3.712 -0.0486  0.0708 -0.3718
    1DIPC   NC324325  23.939  18.105   3.187  0.2510 -0.0844 -0.0113
    1DIPC   PO424326  24.432  18.189   3.103 -0.0580 -0.0301  0.1150
    1DIPC   GL124327  24.461  18.455   3.381 -0.1714  0.2302  0.1304
    1DIPC   GL224328  24.235  18.335   3.555  0.2249 -0.2459 -0.0209
    1DIPC   C1A24329  24.696  18.732   3.690  0.1374 -0.1139 -0.2966
    1DIPC   D2A24330  24.630  19.023   4.037  0.0581  0.3188  0.0186
    1DIPC   D3A24331  24.668  18.862   4.420  0.0020  0.2342 -0.1167
    1DIPC   C4A24332  24.653  18.337   4.375  0.1116  0.0777 -0.1766
    1DIPC   C1B24333  24.300  18.529   3.921  0.1589 -0.3530  0.1207
    1DIPC   D2B24334  24.199  18.646   4.418 -0.1823 -0.0270  0.0941
    1DIPC   D3B24335  24.209  18.627   4.917  0.3381  0.3024  0.0496
    1DIPC   C4B24336  24.486  18.418   5.253 -0.0678 -0.1911  0.2417
    1DIPC   NC324337   3.352  25.887   4.001 -0.0670  0.1115 -0.0179
    1DIPC   PO424338   3.003  25.697   4.127 -0.0798  0.1363  0.0139
    1DIPC   GL124339   3.285  25.524   4.380  0.1139 -0.1705  0.0455
    1DIPC   GL224340   3.421  25.744   4.720  0.1985 -0.3110 -0.1804
    1DIPC   C1A24341   3.468  25.183   4.375 -0.0267 -0.1145  0.0845
    1DIPC   D2A24342   3.750  24.799   4.347  0.2208 -0.2756 -0.0563
    1DIPC   D3A24343   4.177  25.019   4.332 -0.1770  0.1447  0.3964
    1DIPC   C4A24344   4.428  25.057   4.720  0.1351  0.0667 -0.0418
    1DIPC   C1B24345   3.427  25.399   4.956  0.1392  0.2089  0.0775
    1DIPC   D2B24346   3.425  25.262   5.327 -0.0896  0.1347  0.0629
    1DIPC   D3B24347   3.786  25.545   5.347  0.2053 -0.4008 -0.1938
    1DIPC   C4B24348   3.734  25.789   5.805  0.0016  0.1727 -0.0320
    1DIPC   NC324349   1.654  22.188   3.513  0.2424 -0.1552 -0.3388
    1DIPC   PO424350   1.840  22.290   3.892  0.0783 -0.2336 -0.1633
    1DIPC   GL124351   1.786  22.033   4.254 -0.1062 -0.1643 -0.2494
    1DIPC   GL224352   1.458  22.179   4.389  0.0979 -0.1853 -0.1850
    1DIPC   C1A24353   1.688  21.984   4.735  0.2413 -0.0428  0.4467
    1DIPC   D2A24354   1.598  21.645   5.060  0.2281 -0.0459  0.0820
    1DIPC   D3A24355   1.471  21.724   5.532  0.1736  0.0327 -0.1565
    1DIPC   C4A24356   1.262  21.713   6.018 -0.1498  0.1045 -0.1649
    1DIPC   C1B24357   1.660  22.552   4.467  0.0410 -0.3543 -0.0791
    1DIPC   D2B24358   1.981  22.651   4.290 -0.0261 -0.4865 -0.0483
    1DIPC   D3B24359   2.296  22.778   4.556 -0.3119 -0.0099 -0.0057
    1DIPC   C4B24360   2.400  22.948   4.956  0.3279 -0.1328  0.0273
    1DIPC   NC324361  27.787  15.842   3.529  0.1184  0.1617  0.3431
    1DIPC   PO424362  27.443  15.713   3.778  0.1458 -0.1469  0.0527
    1DIPC   GL124363  27.462  15.937   4.255  0.1660  0.0299  0.2884
    1DIPC   GL224364  27.218  15.924   4.343  0.1220  0.1428  0.1276
    1DIPC   C1A24365  27.434  16.425   4.470  0.0801 -0.1247  0.4099
    1DIPC   D2A24366  27.243  16.652   4.761 -0.1899  0.0278 -0.0879
    1DIPC   D3A24367  26.992  16.980   4.612  0.0192 -0.3651  0.0786
    1DIPC   C4A24368  26.523  16.837   4.664  0.2818 -0.1530  0.1091
    1DIPC   C1B24369  27.109  16.139   4.753 -0.2106  0.1217  0.5108
    1DIPC   D2B24370  27.089  16.209   5.192  0.0271  0.2147 -0.3742
    1DIPC   D3B24371  26.679  16.086   5.166 -0.0583 -0.0891 -0.1568
    1DIPC   C4B24372  26.294  16.038   5.551  0.0600 -0.0322 -0.0559
    1DIPC   NC324373  13.705   7.714   2.258 -0.0940  0.2131 -0.0750
    1DIPC   PO424374  13.734   7.284   2.145  0.1699 -0.1463 -0.0183
    1DIPC   GL124375  13.826   7.452   2.709  0.1921  0.0527 -0.1336
    1DIPC   GL224376  13.606   7.732   2.775 -0.1466 -0.2180 -0.0353
    1DIPC   C1A24377  13.929   7.331   3.165 -0.1060 -0.2132  0.4346
    1DIPC   D2A24378  14.143   7.007   3.486 -0.0300 -0.0985 -0.2822
    1DIPC   D3A24379  14.403   6.938   3.836  0.0959 -0.1502 -0.0241
    1DIPC   C4A24380  14.713   7.176   3.878  0.0806  0.0213  0.0185
    1DIPC   C1B24381  13.866   7.798   3.106  0.1195 -0.1445 -0.2083
    1DIPC   D2B24382  14.054   7.639   3.587  0.0378  0.1678  0.2940
    1DIPC   D3B24383  14.481   7.597   3.731  0.0431 -0.0911 -0.1458
    1DIPC   C4B24384  14.780   8.004   3.610 -0.1615  0.2454  0.1808
    1DIPC   NC324385  25.453   6.343   3.871  0.3551  0.0588  0.1281
    1DIPC   PO424386  25.270   6.817   3.904 -0.0875 -0.2341  0.1910
    1DIPC   GL124387  24.913   6.491   3.938 -0.0800 -0.0433  0.1042
    1DIPC   GL224388  24.688   6.748   4.043  0.0948 -0.0473 -0.0287
    1DIPC   C1A24389  24.819   6.232   4.332 -0.0148 -0.1540  0.1453
    1DIPC   D2A24390  24.991   5.887   4.463  0.0034  0.0678 -0.0162
    1DIPC   D3A24391  24.854   5.570   4.772 -0.4044  0.0701  0.4886
    1DIPC   C4A24392  24.574   5.415   5.190 -0.2574  0.0044 -0.0061
    1DIPC   C1B24393  24.452   6.657   4.257  0.1133  0.0184  0.0409
    1DIPC   D2B24394  24.504   6.563   4.595 -0.0131  0.2450 -0.1471
    1DIPC   D3B24395  24.862   6.477   4.931  0.1720 -0.0083  0.1581
    1DIPC   C4B24396  25.234   6.624   4.793 -0.1360 -0.1761  0.2550
    1DIPC   NC324397  14.375  22.816   3.375  0.1508  0.0421 -0.3192
    1DIPC   PO424398  14.308  22.361   3.295  0.1135  0.0260 -0.2194
    1DIPC   GL124399  14.639  22.468   3.589 -0.0378  0.0461 -0.1485
    1DIPC   GL224400  14.831  22.194   3.591 -0.2245  0.2691  0.0848
    1DIPC   C1A24401  14.860  22.481   3.982  0.1010  0.0782 -0.3737
    1DIPC   D2A24402  15.047  22.165   4.366 -0.2377 -0.0082  0.2181
    1DIPC   D3A24403  15.093  22.304   4.733 -0.0851  0.2458 -0.3799
    1DIPC   C4A24404  15.040  22.685   4.973 -0.1409  0.0916 -0.1321
    1DIPC   C1B24405  14.708  21.993   4.004 -0.0451  0.2601  0.2480
    1DIPC   D2B24406  14.551  22.183   4.345 -0.0455  0.2442  0.0251
    1DIPC   D3B24407  14.549  22.280   4.732 -0.0190 -0.1368 -0.2539
    1DIPC   C4B24408  14.612  22.369   5.136  0.0402 -0.0625 -0.1290
    1DIPC   NC324409  13.307   9.811   1.744 -0.0055  0.1064 -0.2836
    1DIPC   PO424410  13.015   9.786   1.964 -0.1333  0.3199  0.1302
    1DIPC   GL124411  12.929   9.513   2.407 -0.0429  0.1245  0.1515
    1DIPC   GL224412  12.738   9.733   2.471  0.2411 -0.0887 -0.0804
    1DIPC   C1A24413  13.008   9.311   2.739  0.1833 -0.2474 -0.0628
    1DIPC   D2A24414  13.084   9.125   3.149 -0.0046  0.2498  0.0328
    1DIPC   D3A24415  12.833   9.412   3.298  0.1334  0.2937 -0.0481
    1DIPC   C4A24416  12.689   9.279   3.727  0.0461  0.0304 -0.0188
    1DIPC   C1B24417  13.115  10.098   2.574 -0.0925  0.1073  0.0775
    1DIPC   D2B24418  13.453  10.207   2.750 -0.0354  0.2383  0.1443
    1DIPC   D3B24419  13.385  10.453   2.393 -0.0642 -0.2394  0.1715
    1DIPC   C4B24420  13.234  10.749   2.555 -0.0885  0.0517  0.0461
    1DIPC   NC324421  18.092  24.672   3.161  0.1702  0.0665 -0.3908
    1DIPC   PO424422  17.735  24.541   3.049 -0.1619 -0.0689  0.0065
    1DIPC   GL124423  17.534  24.643   3.465  0.2479 -0.1851  0.0889
    1DIPC   GL224424  17.244  24.790   3.485  0.0330  0.0469  0.1510
    1DIPC   C1A24425  17.480  24.616   3.929  0.0361  0.1707 -0.1817
    1DIPC   D2A24426  17.337  24.862   4.314 -0.0635  0.2312 -0.0731
    1DIPC   D3A24427  17.004  24.672   4.461  0.0575  0.1206 -0.0108
    1DIPC   C4A24428  16.558  24.700   4.531  0.1437  0.1870 -0.3470
    1DIPC   C1B24429  17.006  24.728   3.850 -0.2174  0.0518 -0.1961
    1DIPC   D2B24430  16.690  24.483   4.118  0.2036  0.1609 -0.0249
    1DIPC   D3B24431  17.116  24.273   3.951 -0.1889 -0.1820  0.1983
    1DIPC   C4B24432  17.250  24.180   3.584 -0.1648 -0.0305  0.2897
    1DIPC   NC324433  22.344  16.898   2.769 -0.5129 -0.1363  0.0855
    1DIPC   PO424434  22.608  16.472   2.753 -0.0444  0.1227 -0.2446
    1DIPC   GL124435  22.175  16.533   3.074 -0.2163 -0.1346  0.1697
    1DIPC   GL224436  22.060  16.876   3.234 -0.0821 -0.0587 -0.0209
    1DIPC   C1A24437  21.979  16.364   3.435  0.1635 -0.0120 -0.1137
    1DIPC   D2A24438  21.506  16.256   3.627  0.3891  0.0396 -0.2553
    1DIPC   D3A24439  21.532  16.378   4.048  0.2002  0.1559  0.0067
    1DIPC   C4A24440  21.516  16.158   4.502  0.1800  0.0601  0.0521
    1DIPC   C1B24441  21.866  17.151   3.587  0.3274  0.0259  0.1700
    1DIPC   D2B24442  22.132  17.432   3.828 -0.1512  0.3161  0.2795
    1DIPC   D3B24443  22.020  17.597   4.264  0.0327 -0.1636  0.1046
    1DIPC   C4B24444  21.563  17.588   4.361  0.0808 -0.1709  0.0715
    1DIPC   NC324445  16.539  28.109   2.335  0.0382 -0.0901 -0.0658
    1DIPC   PO424446  16.119  28.405   2.378  0.2771 -0.4070 -0.2423
    1DIPC   GL124447  16.275  28.259   2.747 -0.1290  0.2218  0.1890
    1DIPC   GL224448  16.194  27.969   2.738 -0.1847  0.1512  0.0269
    1DIPC   C1A24449  16.074  28.363   3.181  0.0164 -0.1536 -0.3490
    1DIPC   D2A24450  16.141  28.498   3.597  0.1895 -0.1651 -0.0252
    1DIPC   D3A24451  16.372  28.157   3.531  0.0915  0.2161  0.0654
    1DIPC   C4A24452  16.544  28.163   3.153  0.2917  0.0495 -0.0545
    1DIPC   C1B24453  15.914  27.871   3.114 -0.1809  0.1299  0.0102
    1DIPC   D2B24454  15.584  27.986   3.393 -0.1339 -0.1732 -0.2113
    1DIPC   D3B24455  15.612  28.444   3.523 -0.2375 -0.0848 -0.0676
    1DIPC   C4B24456  15.553  28.348   4.001 -0.0255 -0.2546  0.0614
    1DIPC   NC324457   6.666   9.947   2.862 -0.1002 -0.5858  0.1696
    1DIPC   PO424458   6.859  10.294   2.862 -0.0636  0.2058 -0.0053
    1DIPC   GL124459   6.893  10.489   3.164  0.0867 -0.1111  0.2699
    1DIPC   GL224460   6.725  10.748   3.126  0.0665 -0.2204  0.0537
    1DIPC   C1A24461   6.939  10.375   3.617 -0.2330  0.2567 -0.0648
    1DIPC   D2A24462   6.965  10.245   4.087 -0.0247 -0.0769  0.1671
    1DIPC   D3A24463   6.608   9.994   4.248  0.0057 -0.1727  0.0997
    1DIPC   C4A24464   6.672   9.699   4.614  0.1004  0.3501  0.1409
    1DIPC   C1B24465   6.861  11.017   3.423 -0.1121 -0.0524 -0.0520
    1DIPC   D2B24466   7.187  11.216   3.613 -0.1863 -0.2630 -0.1744
    1DIPC   D3B24467   7.086  11.105   3.940 -0.1488 -0.1141  0.1179
    1DIPC   C4B24468   6.776  10.746   3.863  0.0414 -0.0139 -0.2269
    1DIPC   NC324469  10.889  14.576   1.828  0.3020  0.0224  0.0971
    1DIPC   PO424470  10.877  14.220   2.199 -0.1448  0.2651 -0.2715
    1DIPC   GL124471  10.901  14.006   2.625 -0.0895  0.0437  0.0425
    1DIPC   GL224472  10.767  14.130   2.915  0.3615  0.0114  0.2416
    1DIPC   C1A24473  11.156  13.738   2.898  0.2263 -0.2709  0.1654
    1DIPC   D2A24474  11.399  13.409   2.942 -0.0071 -0.0791  0.2005
    1DIPC   D3A24475  11.273  13.186   3.349 -0.0740  0.0311 -0.0289
    1DIPC   C4A24476  10.915  13.020   3.428  0.3081  0.0519 -0.1925
    1DIPC   C1B24477  10.720  14.487   3.134  0.0844  0.0567 -0.0306
    1DIPC   D2B24478  10.716  14.907   3.210 -0.3334 -0.0320 -0.0367
    1DIPC   D3B24479  10.455  15.127   3.447  0.0275  0.0725  0.0757
    1DIPC   C4B24480  10.526  15.307   3.872  0.0047 -0.1434 -0.4065
    1DIPC   NC324481  28.270   7.349   3.420 -0.1046  0.4055  0.1224
    1DIPC   PO424482  28.151   7.605   3.793  0.2745 -0.3568  0.3115
    1DIPC   GL124483  28.080   7.748   4.228  0.1055 -0.2407  0.1083
    1DIPC   GL224484  27.857   7.496   4.377  0.0582 -0.0834 -0.3133
    1DIPC   C1A24485  28.287   7.805   4.623  0.0817  0.1416  0.2107
    1DIPC   D2A24486  28.388   8.173   4.831  0.0746  0.0197 -0.1594
    1DIPC   D3A24487  28.172   8.190   5.246  0.0334  0.1129  0.2065
    1DIPC   C4A24488  28.277   7.907   5.603  0.0111  0.2146  0.1710
    1DIPC   C1B24489  27.838   7.459   4.859 -0.4178  0.1429 -0.0904
    1DIPC   D2B24490  28.199   7.664   5.174 -0.3374 -0.2274 -0.2263
    1DIPC   D3B24491  28.270   7.343   5.501  0.0167 -0.2447  0.0053
    1DIPC   C4B24492  27.908   7.113   5.566  0.2477 -0.1095 -0.0673
    1DIPC   NC324493   9.295   4.404   3.468  0.1976 -0.0964 -0.1175
    1DIPC   PO424494   9.689   4.410   3.149  0.1995 -0.0946 -0.0321
    1DIPC   GL124495   9.861   4.504   3.567  0.0211  0.1704 -0.1779
    1DIPC   GL224496  10.199   4.447   3.612  0.1232  0.0404 -0.1030
    1DIPC   C1A24497   9.909   4.402   4.041  0.0606 -0.0450 -0.1902
    1DIPC   D2A24498  10.218   4.155   4.396 -0.0745 -0.2216  0.0460
    1DIPC   D3A24499   9.966   3.809   4.452  0.0025 -0.0732  0.3290
    1DIPC   C4A24500   9.660   3.954   4.254 -0.0314  0.1225  0.1042
    1DIPC   C1B24501  10.316   4.605   3.930 -0.2012 -0.2592 -0.1514
    1DIPC   D2B24502  10.365   4.605   4.454  0.0371  0.0541  0.1006
    1DIPC   D3B24503  10.699   4.841   4.324  0.1321  0.1729 -0.0731
    1DIPC   C4B24504  11.020   4.753   4.433 -0.2040 -0.1305 -0.1832
    1DIPC   NC324505  13.195   3.123   2.421  0.4138  0.0403 -0.2021
    1DIPC   PO424506  13.079   2.584   2.425 -0.0656 -0.0008  0.0319
    1DIPC   GL124507  13.191   2.829   2.807 -0.2425  0.1468  0.1060
    1DIPC   GL224508  12.992   3.114   2.861 -0.2093  0.2868 -0.1308
    1DIPC   C1A24509  13.187   2.829   3.213  0.0521  0.0251  0.0555
    1DIPC   D2A24510  13.057   3.110   3.492  0.0992  0.0805  0.2780
    1DIPC   D3A24511  12.961   2.747   3.688  0.0940 -0.0580  0.2120
    1DIPC   C4A24512  13.047   2.672   4.141  0.0491  0.0523  0.0649
    1DIPC   C1B24513  13.193   3.419   3.119  0.3101  0.1771  0.1516
    1DIPC   D2B24514  13.263   3.635   3.525  0.0052  0.0792 -0.0172
    1DIPC   D3B24515  13.285   3.406   3.890 -0.1850  0.0862 -0.1285
    1DIPC   C4B24516  13.414   2.972   3.849  0.0397  0.1781 -0.0621
    1DIPC   NC324517   4.365   6.725   3.328 -0.0702  0.2503 -0.0822
    1DIPC   PO424518   4.117   6.787   3.701 -0.1513 -0.3403 -0.0924
    1DIPC   GL124519   4.580   6.978   3.791  0.0922 -0.3971  0.1075
    1DIPC   GL224520   4.544   7.326   3.840  0.2269 -0.0300 -0.1251
    1DIPC   C1A24521   4.882   6.779   4.052 -0.2028 -0.1887 -0.1582
    1DIPC   D2A24522   5.250   6.577   4.299  0.1836  0.4176  0.0181
    1DIPC   D3A24523   5.323   6.920   3.977  0.1409  0.1242  0.2153
    1DIPC   C4A24524   5.100   7.299   3.929  0.0349 -0.0621  0.0140
    1DIPC   C1B24525   4.602   7.192   4.241  0.1557  0.2359  0.0779
    1DIPC   D2B24526   5.077   7.076   4.417 -0.1817 -0.0159  0.0640
    1DIPC   D3B24527   5.083   7.227   4.808  0.1851 -0.0755 -0.3065
    1DIPC   C4B24528   5.094   6.860   5.130  0.1332  0.1341  0.0596
    1DIPC   NC324529  10.030  26.312   3.569 -0.0365  0.2573 -0.2431
    1DIPC   PO424530   9.620  26.192   3.438  0.3441 -0.0086 -0.1821
    1DIPC   GL124531   9.571  26.214   3.890  0.1293  0.1130 -0.0699
    1DIPC   GL224532   9.335  26.513   4.034 -0.2709 -0.1524  0.2591
    1DIPC   C1A24533   9.443  26.177   4.418 -0.1700  0.0278  0.0012
    1DIPC   D2A24534   9.497  25.966   4.802  0.2177  0.1041 -0.1649
    1DIPC   D3A24535   9.446  26.288   5.190  0.1729 -0.0627 -0.1765
    1DIPC   C4A24536   9.112  26.459   5.267 -0.0651 -0.0519 -0.1343
    1DIPC   C1B24537   9.358  26.732   4.462 -0.0347 -0.0515  0.0647
    1DIPC   D2B24538   9.431  26.829   4.791  0.1925  0.0544  0.1268
    1DIPC   D3B24539   9.018  26.930   4.902  0.1392 -0.1356  0.0312
    1DIPC   C4B24540   8.780  27.311   5.220 -0.3272  0.0262  0.1566
    1DIPC   NC324541  20.234  21.781   2.306 -0.1888 -0.3494 -0.1631
    1DIPC   PO424542  20.594  21.985   2.583 -0.1131 -0.1928  0.0152
    1DIPC   GL124543  20.709  22.152   3.021  0.3564  0.2662  0.1355
    1DIPC   GL224544  20.511  22.016   3.246  0.0204 -0.0673  0.1336
    1DIPC   C1A24545  20.696  22.343   3.527  0.0962 -0.1127  0.0037
    1DIPC   D2A24546  20.790  22.303   3.969  0.1709  0.3143  0.1617
    1DIPC   D3A24547  21.095  22.528   4.083  0.3056 -0.1111 -0.2785
    1DIPC   C4A24548  21.416  22.341   4.047  0.0568 -0.1262  0.2039
    1DIPC   C1B24549  20.588  21.895   3.779 -0.0463 -0.3302  0.1932
    1DIPC   D2B24550  20.656  21.533   3.935  0.1720 -0.1626  0.1720
    1DIPC   D3B24551  20.571  21.190   3.752  0.2838  0.2583 -0.1801
    1DIPC   C4B24552  20.125  21.105   3.595 -0.3853 -0.1260 -0.0599
    1DIPC   NC324553  24.874   3.532   3.450  0.0639 -0.2880 -0.5219
    1DIPC   PO424554  25.185   3.661   3.232 -0.1214 -0.2354  0.0602
    1DIPC   GL124555  25.227   3.686   3.746  0.4533 -0.0177 -0.0513
    1DIPC   GL224556  25.026   3.487   3.987 -0.2429  0.0333 -0.0130
    1DIPC   C1A24557  25.225   4.021   3.952  0.0767  0.1540  0.1875
    1DIPC   D2A24558  25.439   4.087   4.279 -0.0943 -0.0538  0.0616
    1DIPC   D3A24559  25.513   4.476   4.089  0.0434 -0.0077  0.0157
    1DIPC   C4A24560  25.491   4.927   4.179 -0.2500 -0.2724 -0.3308
    1DIPC   C1B24561  24.944   3.495   4.381  0.3232  0.0879  0.2239
    1DIPC   D2B24562  24.832   3.498   4.769  0.0673  0.1226 -0.4434
    1DIPC   D3B24563  25.170   3.460   5.051  0.2000 -0.3236  0.0515
    1DIPC   C4B24564  25.617   3.374   4.902  0.0667  0.0562 -0.0204
    1DIPC   NC324565  14.847  14.899   2.151 -0.0209 -0.1568  0.1686
    1DIPC   PO424566  14.922  14.459   2.508  0.1081 -0.0826 -0.3298
    1DIPC   GL124567  14.996  14.411   2.863 -0.0545 -0.1312  0.1299
    1DIPC   GL224568  15.220  14.512   3.126  0.3298  0.0446 -0.0348
    1DIPC   C1A24569  14.916  14.079   3.227 -0.1173  0.2578  0.2976
    1DIPC   D2A24570  15.225  13.824   3.524  0.0185  0.1997 -0.0557
    1DIPC   D3A24571  15.100  13.726   4.072 -0.0679 -0.1766 -0.2228
    1DIPC   C4A24572  15.227  13.412   4.401  0.6104 -0.1299 -0.1519
    1DIPC   C1B24573  15.325  14.304   3.521  0.1841  0.0108 -0.2074
    1DIPC   D2B24574  15.613  14.078   3.705  0.4176 -0.0573 -0.3735
    1DIPC   D3B24575  16.051  14.219   3.547 -0.2479 -0.0386  0.2375
    1DIPC   C4B24576  16.247  13.869   3.523  0.3852 -0.3139  0.1449
    1DIPC   NC324577   1.067  25.505   3.927  0.0070  0.0391 -0.0030
    1DIPC   PO424578   1.208  25.820   4.255 -0.1088  0.1023  0.3229
    1DIPC   GL124579   1.321  25.640   4.578 -0.1887  0.0564 -0.1235
    1DIPC   GL224580   1.269  25.891   4.783  0.3026  0.4216 -0.2038
    1DIPC   C1A24581   1.529  25.416   4.865 -0.1995 -0.2751 -0.2333
    1DIPC   D2A24582   1.616  25.556   5.274  0.4875  0.1371 -0.0668
    1DIPC   D3A24583   1.167  25.712   5.214 -0.3088 -0.1958 -0.0539
    1DIPC   C4A24584   0.806  25.574   5.467  0.0674 -0.1910 -0.1233
    1DIPC   C1B24585   1.726  25.935   4.931  0.1562  0.4027  0.2511
    1DIPC   D2B24586   2.091  26.027   5.263  0.1095 -0.0522 -0.0465
    1DIPC   D3B24587   2.082  26.277   5.686 -0.1164  0.2362  0.1781
    1DIPC   C4B24588   2.430  26.278   6.075  0.2236 -0.1283 -0.3443
    1DIPC   NC324589   6.245  13.099   2.312  0.1365 -0.0498 -0.1866
    1DIPC   PO424590   6.115  12.809   2.658  0.1230  0.1399 -0.2796
    1DIPC   GL124591   6.509  12.870   2.711 -0.3151  0.2792  0.3228
    1DIPC   GL224592   6.533  13.156   2.793  0.1020  0.1259  0.2700
    1DIPC   C1A24593   6.802  12.815   3.099  0.1526  0.1040  0.0367
    1DIPC   D2A24594   6.802  12.302   3.166  0.1464 -0.0638 -0.0857
    1DIPC   D3A24595   7.105  12.128   3.372 -0.1153 -0.0309 -0.0956
    1DIPC   C4A24596   7.409  11.843   3.224  0.0351 -0.1625 -0.0883
    1DIPC   C1B24597   6.432  13.197   3.250  0.1418 -0.1222 -0.0764
    1DIPC   D2B24598   6.167  13.337   3.483 -0.3390  0.2759  0.0292
    1DIPC   D3B24599   6.345  13.118   3.774  0.0770  0.1797 -0.0847
    1DIPC   C4B24600   6.058  12.835   4.203  0.2285 -0.0605  0.1078
    1DIPC   NC324601  28.140  13.541   3.453  0.3339 -0.0851  0.0633
    1DIPC   PO424602  27.984  13.816   3.762 -0.2893 -0.2636  0.0503
    1DIPC   GL124603  28.106  13.728   4.238  0.0377 -0.0674 -0.0473
    1DIPC   GL224604  28.216  13.384   4.358 -0.1916 -0.1967 -0.1849
    1DIPC   C1A24605  28.391  13.748   4.631 -0.1979 -0.1772  0.1061
    1DIPC   D2A24606  28.448  13.932   5.000 -0.3515 -0.1564 -0.0185
    1DIPC   D3A24607  28.634  13.622   5.229  0.0781 -0.2857  0.0879
    1DIPC   C4A24608  29.013  13.375   5.326 -0.3181  0.0106  0.2576
    1DIPC   C1B24609  28.092  13.381   4.816  0.1273 -0.0692 -0.0186
    1DIPC   D2B24610  28.184  13.371   5.285 -0.2422  0.0054  0.0857
    1DIPC   D3B24611  27.921  13.710   5.201  0.0017 -0.0855 -0.0322
    1DIPC   C4B24612  27.921  13.843   4.713  0.0928 -0.1601  0.2065
    1DIPC   NC324613  19.103  23.285   2.917  0.0227 -0.0440  0.1078
    1DIPC   PO424614  18.821  23.628   2.932  0.1765 -0.0115 -0.2477
    1DIPC   GL124615  18.816  23.634   3.322 -0.1543 -0.0709  0.0811
    1DIPC   GL224616  19.178  23.728   3.387 -0.1651  0.1502 -0.4704
    1DIPC   C1A24617  18.804  23.388   3.606  0.2806  0.1463 -0.0361
    1DIPC   D2A24618  18.880  22.988   3.708  0.3649 -0.2585  0.1826
    1DIPC   D3A24619  18.822  22.775   3.377  0.1628 -0.1731 -0.0513
    1DIPC   C4A24620  18.501  22.429   3.441 -0.1556 -0.3808 -0.1624
    1DIPC   C1B24621  19.320  23.619   3.828 -0.0408 -0.0972  0.1341
    1DIPC   D2B24622  19.252  23.319   4.147 -0.0680  0.2648 -0.0983
    1DIPC   D3B24623  19.070  22.940   4.266 -0.3212 -0.1706  0.0061
    1DIPC   C4B24624  18.619  23.098   4.121 -0.1390 -0.0832 -0.0847
    1DIPC   NC324625   9.914  15.250   2.220  0.1659 -0.0431  0.0493
    1DIPC   PO424626   9.908  15.400   2.584 -0.3751 -0.2440  0.0172
    1DIPC   GL124627   9.748  15.244   2.901  0.0784  0.2258 -0.1081
    1DIPC   GL224628   9.614  15.465   3.060  0.2270 -0.2181  0.0199
    1DIPC   C1A24629   9.565  14.992   3.230  0.2693  0.2334 -0.0380
    1DIPC   D2A24630   9.449  14.855   3.607 -0.0905 -0.2448  0.0393
    1DIPC   D3A24631   8.968  14.939   3.869 -0.2021  0.1849  0.1523
    1DIPC   C4A24632   8.954  14.733   4.149  0.1786 -0.0421  0.1580
    1DIPC   C1B24633   9.620  15.707   3.412 -0.1296  0.1525  0.1235
    1DIPC   D2B24634   9.746  15.720   3.829 -0.0071 -0.1902  0.1255
    1DIPC   D3B24635   9.641  16.182   3.860  0.1152  0.1391 -0.4007
    1DIPC   C4B24636   9.661  16.313   4.190 -0.1680 -0.1928 -0.0360
    1DIPC   NC324637  10.402  20.172   2.855  0.4175 -0.1551 -0.0376
    1DIPC   PO424638  10.567  20.595   3.072  0.2106  0.2900 -0.2993
    1DIPC   GL124639  10.396  20.588   3.513 -0.0067 -0.0276  0.1480
    1DIPC   GL224640  10.157  20.638   3.331  0.4082 -0.0614  0.1153
    1DIPC   C1A24641  10.339  20.757   3.859  0.0152 -0.1643  0.0927
    1DIPC   D2A24642  10.406  21.169   4.255 -0.0537  0.0007  0.1671
    1DIPC   D3A24643  10.530  20.802   4.448 -0.1712  0.0067 -0.1235
    1DIPC   C4A24644  10.354  20.362   4.644  0.0919  0.0737 -0.0278
    1DIPC   C1B24645   9.871  20.593   3.669 -0.0436 -0.1949 -0.1656
    1DIPC   D2B24646   9.718  20.726   3.992  0.1034  0.0491  0.2001
    1DIPC   D3B24647   9.527  20.698   4.391  0.2149 -0.0372 -0.0524
    1DIPC   C4B24648   9.751  20.590   4.816 -0.0486  0.0894 -0.1668
    1DIPC   NC324649   1.591   6.739   3.405 -0.6636 -0.0861 -0.0654
    1DIPC   PO424650   1.198   6.752   3.648 -0.0094  0.1539  0.0520
    1DIPC   GL124651   1.311   7.161   3.977  0.1508  0.0493 -0.1704
    1DIPC   GL224652   1.044   7.249   4.222 -0.0459  0.0070  0.1688
    1DIPC   C1A24653   1.430   7.417   4.437  0.3091  0.1944  0.2250
    1DIPC   D2A24654   1.600   7.465   4.872  0.1871 -0.1828  0.1810
    1DIPC   D3A24655   1.690   7.623   5.284  0.1573 -0.0647 -0.1047
    1DIPC   C4A24656   1.519   7.987   5.672 -0.3782  0.3035 -0.5116
    1DIPC   C1B24657   1.079   6.889   4.569 -0.1193 -0.0173  0.3316
    1DIPC   D2B24658   1.316   6.737   4.808  0.0886  0.0514  0.1069
    1DIPC   D3B24659   0.898   6.768   5.066  0.0130 -0.2859 -0.2422
    1DIPC   C4B24660   0.546   6.473   4.801  0.1510  0.2130  0.1224
    1DIPC   NC324661   9.955  15.858   2.505  0.1076 -0.0615  0.0890
    1DIPC   PO424662  10.262  16.104   2.821  0.1022 -0.1914 -0.1558
    1DIPC   GL124663  10.166  16.261   3.167 -0.2250 -0.4989  0.0402
    1DIPC   GL224664  10.011  16.014   3.379  0.2040  0.3734  0.0352
    1DIPC   C1A24665   9.736  16.457   3.370 -0.1473  0.2793 -0.1276
    1DIPC   D2A24666   9.432  16.600   3.692  0.0658  0.2069  0.0375
    1DIPC   D3A24667   9.572  16.895   3.385  0.3241 -0.4781 -0.1478
    1DIPC   C4A24668   9.871  17.239   3.540 -0.0029 -0.0707  0.0613
    1DIPC   C1B24669  10.095  16.360   3.669 -0.1870  0.2197  0.1003
    1DIPC   D2B24670   9.887  16.703   3.937 -0.3419  0.0342  0.1121
    1DIPC   D3B24671   9.849  17.180   4.134 -0.0126  0.3082  0.2325
    1DIPC   C4B24672   9.501  17.347   4.447 -0.0153 -0.0275  0.3483
    1DIPC   NC324673  20.488  17.304   2.477  0.1954  0.1024 -0.0348
    1DIPC   PO424674  20.819  17.610   2.516 -0.2940  0.4392  0.1129
    1DIPC   GL124675  20.805  17.442   2.986  0.0611  0.0414  0.2413
    1DIPC   GL224676  20.441  17.292   3.032 -0.3100  0.1045  0.2030
    1DIPC   C1A24677  21.015  17.174   3.288 -0.0866  0.2518 -0.2011
    1DIPC   D2A24678  21.108  16.733   3.318  0.0615  0.1102 -0.0089
    1DIPC   D3A24679  21.558  16.660   3.399 -0.0917 -0.0666 -0.0611
    1DIPC   C4A24680  21.854  16.697   3.782 -0.0182 -0.1303 -0.0031
    1DIPC   C1B24681  20.510  17.487   3.473 -0.3884  0.3702 -0.1716
    1DIPC   D2B24682  20.530  17.542   3.943  0.0304 -0.0188  0.0970
    1DIPC   D3B24683  20.835  17.473   4.254  0.0724 -0.2869 -0.1670
    1DIPC   C4B24684  21.060  17.741   4.485 -0.2009 -0.2141  0.0101
    1DIPC   NC324685  10.923   9.753   2.199 -0.1539 -0.1509 -0.3483
    1DIPC   PO424686  11.159   9.516   1.989  0.0249  0.0090  0.1241
    1DIPC   GL124687  11.376   9.515   2.397 -0.1499  0.0548  0.3760
    1DIPC   GL224688  11.496   9.213   2.544  0.0825  0.2058 -0.1520
    1DIPC   C1A24689  11.395   9.601   2.881 -0.0195 -0.2691 -0.0082
    1DIPC   D2A24690  11.339   9.714   3.285  0.1037 -0.1439 -0.0567
    1DIPC   D3A24691  11.444   9.695   3.715 -0.2283 -0.2555 -0.0671
    1DIPC   C4A24692  11.890   9.719   3.873 -0.0061 -0.1563  0.2231
    1DIPC   C1B24693  11.780   9.395   2.702 -0.2633 -0.3141 -0.0636
    1DIPC   D2B24694  11.899   9.372   3.066 -0.1453  0.1697  0.2504
    1DIPC   D3B24695  11.694   9.207   3.449 -0.2992  0.0538 -0.0062
    1DIPC   C4B24696  11.896   9.178   3.862  0.0946  0.0417 -0.1485
    1DIPC   NC324697   9.982  17.892   2.871  0.3131  0.1503  0.2958
    1DIPC   PO424698   9.866  17.540   2.871  0.0740  0.4910 -0.2440
    1DIPC   GL124699   9.839  17.692   3.307  0.0908  0.0384 -0.0643
    1DIPC   GL224700  10.009  18.030   3.321  0.2602 -0.0786 -0.2127
    1DIPC   C1A24701   9.786  17.747   3.678 -0.2246 -0.1156  0.1376
    1DIPC   D2A24702  10.034  18.061   3.975 -0.2610 -0.1804 -0.2212
    1DIPC   D3A24703   9.696  18.155   4.262  0.0370 -0.1562 -0.0634
    1DIPC   C4A24704   9.852  18.235   4.691 -0.0051  0.1466  0.3375
    1DIPC   C1B24705  10.288  18.266   3.611 -0.0806  0.0043  0.0255
    1DIPC   D2B24706  10.621  18.427   3.703  0.0686  0.0230 -0.2219
    1DIPC   D3B24707  10.828  18.247   3.976 -0.0100 -0.0395  0.0455
    1DIPC   C4B24708  10.793  18.052   4.370  0.0432 -0.1314 -0.1899
    1DIPC   NC324709   5.969  23.085   3.356 -0.1022 -0.2098  0.0913
    1DIPC   PO424710   5.916  22.682   3.422  0.2629 -0.4384  0.2171
    1DIPC   GL124711   6.031  22.687   3.916  0.0668 -0.1672 -0.1517
    1DIPC   GL224712   6.068  22.488   4.090  0.1408  0.1242 -0.1879
    1DIPC   C1A24713   6.052  23.051   4.223  0.2305 -0.1412  0.0056
    1DIPC   D2A24714   6.021  23.188   4.696  0.1982 -0.1459 -0.1081
    1DIPC   D3A24715   5.756  23.260   5.005 -0.0025 -0.0115  0.2596
    1DIPC   C4A24716   6.017  23.233   5.421  0.1190 -0.1132  0.0316
    1DIPC   C1B24717   6.214  22.457   4.499 -0.1295 -0.2557 -0.0013
    1DIPC   D2B24718   6.353  22.813   4.715 -0.4599  0.2260  0.1868
    1DIPC   D3B24719   6.405  22.567   5.113  0.0853  0.4364 -0.0288
    1DIPC   C4B24720   6.305  22.327   5.498  0.0382 -0.0387 -0.0810
    1DIPC   NC324721  22.666   2.998   2.713 -0.0576 -0.0458  0.0876
    1DIPC   PO424722  23.039   3.086   2.690  0.0292  0.0483 -0.1908
    1DIPC   GL124723  22.935   2.887   3.111  0.0360  0.3677  0.3335
    1DIPC   GL224724  22.699   3.089   3.322 -0.1225  0.3026  0.0970
    1DIPC   C1A24725  23.107   2.743   3.501 -0.0720 -0.1939 -0.0249
    1DIPC   D2A24726  22.964   2.696   3.880 -0.2321 -0.0684  0.1252
    1DIPC   D3A24727  22.642   3.042   3.800 -0.1951  0.2171  0.3251
    1DIPC   C4A24728  22.728   3.513   3.777  0.0558 -0.0867  0.0691
    1DIPC   C1B24729  23.064   3.255   3.511  0.2795 -0.1196  0.0910
    1DIPC   D2B24730  23.224   3.143   3.947 -0.0227  0.1349 -0.0403
    1DIPC   D3B24731  23.367   3.513   4.028 -0.2718  0.2677  0.0758
    1DIPC   C4B24732  23.231   3.855   3.863  0.2002  0.0315  0.1334
    1DIPC   NC324733  23.888  16.455   2.850  0.0028  0.0291  0.0212
    1DIPC   PO424734  23.733  16.795   3.141 -0.2310  0.0958 -0.1042
    1DIPC   GL124735  23.726  16.677   3.546 -0.2214  0.0444  0.0967
    1DIPC   GL224736  23.586  17.034   3.764 -0.1524 -0.1033  0.2581
    1DIPC   C1A24737  23.693  16.568   3.932  0.2535  0.1514 -0.3274
    1DIPC   D2A24738  23.609  16.689   4.333 -0.0064 -0.1874  0.0793
    1DIPC   D3A24739  23.605  16.985   4.659 -0.1998 -0.1464  0.2040
    1DIPC   C4A24740  23.604  16.784   5.060  0.2988  0.0505  0.2871
    1DIPC   C1B24741  23.895  17.058   4.141  0.3292  0.0381  0.1495
    1DIPC   D2B24742  24.052  17.203   4.501  0.0792 -0.0438  0.0020
    1DIPC   D3B24743  24.133  16.952   4.809 -0.0305 -0.3529 -0.0496
    1DIPC   C4B24744  24.447  16.629   4.948  0.2621 -0.1426 -0.1833
    1DIPC   NC324745  19.732  15.662   2.865  0.2189  0.0496  0.2185
    1DIPC   PO424746  19.916  15.989   3.132  0.0200  0.1620 -0.1949
    1DIPC   GL124747  20.162  15.929   3.503 -0.2533  0.1458  0.1088
    1DIPC   GL224748  20.450  16.014   3.380  0.0154 -0.2856 -0.1814
    1DIPC   C1A24749  20.419  15.847   3.835 -0.1129 -0.0806 -0.0217
    1DIPC   D2A24750  20.581  15.899   4.178 -0.1057  0.1615  0.1770
    1DIPC   D3A24751  20.872  15.617   4.314  0.1933  0.0304 -0.2423
    1DIPC   C4A24752  21.389  15.466   4.392  0.1145 -0.1390 -0.1445
    1DIPC   C1B24753  20.419  16.310   3.808  0.4246  0.1478 -0.0620
    1DIPC   D2B24754  20.511  16.390   4.271 -0.4311 -0.0572  0.0295
    1DIPC   D3B24755  20.391  16.751   3.936  0.0086 -0.1349 -0.1833
    1DIPC   C4B24756  20.186  17.107   4.070  0.1538 -0.1310  0.1001
    1DIPC   NC324757  20.369  10.850   2.267 -0.2855  0.0400 -0.0389
    1DIPC   PO424758  19.971  10.922   2.297 -0.2739 -0.0586  0.2845
    1DIPC   GL124759  19.959  10.904   2.737  0.0053  0.2492 -0.0116
    1DIPC   GL224760  20.308  10.999   2.765 -0.2220  0.2777 -0.4172
    1DIPC   C1A24761  19.986  10.949   3.189 -0.3020 -0.3717 -0.2178
    1DIPC   D2A24762  19.855  10.951   3.620  0.3715  0.1797 -0.0879
    1DIPC   D3A24763  20.241  10.796   3.667  0.0622 -0.0370  0.1038
    1DIPC   C4A24764  20.555  10.606   3.877  0.2792  0.2724 -0.1737
    1DIPC   C1B24765  20.533  10.940   3.148 -0.1398  0.0422  0.1868
    1DIPC   D2B24766  20.792  10.656   3.265  0.1203 -0.1223 -0.3102
    1DIPC   D3B24767  20.890  10.839   3.544 -0.1752 -0.1432 -0.1573
    1DIPC   C4B24768  21.351  10.862   3.672 -0.0986  0.0832 -0.2323
    1DIPC   NC324769  12.564  20.697   2.761  0.1319  0.1502  0.0754
    1DIPC   PO424770  12.956  20.486   2.707  0.0935 -0.1157 -0.1510
    1DIPC   GL124771  13.057  20.380   3.196 -0.3130  0.0111  0.3569
    1DIPC   GL224772  12.885  20.025   3.305 -0.0130  0.2441  0.2133
    1DIPC   C1A24773  13.021  20.433   3.653 -0.1726 -0.2637  0.2217
    1DIPC   D2A24774  12.840  20.309   4.021  0.3519 -0.2020 -0.0708
    1DIPC   D3A24775  13.141  20.153   4.367 -0.0750  0.0478  0.3771
    1DIPC   C4A24776  13.441  20.405   4.544 -0.1944  0.0898  0.0439
    1DIPC   C1B24777  12.955  19.948   3.635  0.0035  0.1812  0.0991
    1DIPC   D2B24778  12.858  19.834   4.116 -0.3085 -0.1419 -0.1696
    1DIPC   D3B24779  13.241  19.680   4.448  0.0567  0.0087 -0.0512
    1DIPC   C4B24780  13.565  19.901   4.502  0.1072 -0.1181  0.2545
    1DIPC   NC324781  12.236   6.621   1.038 -0.1073 -0.3292 -0.0777
    1DIPC   PO424782  12.258   6.843   1.586  0.1327 -0.1222  0.0374
    1DIPC   GL124783  12.194   6.609   1.955  0.0653  0.1942 -0.1509
    1DIPC   GL224784  11.865   6.481   2.090 -0.4300  0.2387 -0.4595
    1DIPC   C1A24785  12.334   6.604   2.324 -0.2233  0.1838  0.1684
    1DIPC   D2A24786  12.666   6.335   2.530 -0.0879 -0.3163  0.1816
    1DIPC   D3A24787  12.746   6.267   2.994  0.1699  0.2547 -0.1207
    1DIPC   C4A24788  12.400   6.182   3.288  0.1805  0.0915  0.1084
    1DIPC   C1B24789  11.908   6.507   2.543  0.1640  0.2624 -0.0619
    1DIPC   D2B24790  11.875   6.651   2.953  0.2989  0.0353  0.1409
    1DIPC   D3B24791  12.126   7.010   2.697  0.0343  0.1972  0.4122
    1DIPC   C4B24792  12.388   7.304   2.774 -0.3579 -0.1362  0.3895
    1DIPC   NC324793  15.440  17.761   3.014  0.2672  0.1046 -0.0882
    1DIPC   PO424794  15.470  18.193   2.997  0.0916  0.1631  0.0870
    1DIPC   GL124795  15.522  18.217   3.315  0.0100  0.2620 -0.2429
    1DIPC   GL224796  15.658  17.805   3.440  0.0399 -0.0473  0.2985
    1DIPC   C1A24797  15.602  18.344   3.718 -0.2607 -0.1189  0.0934
    1DIPC   D2A24798  15.438  18.322   4.077 -0.1159 -0.1940 -0.0434
    1DIPC   D3A24799  15.561  18.676   4.197 -0.1020 -0.1413 -0.1234
    1DIPC   C4A24800  15.714  18.981   3.838 -0.0729 -0.0543  0.3670
    1DIPC   C1B24801  15.680  17.707   3.918 -0.1246 -0.0029 -0.1445
    1DIPC   D2B24802  15.614  17.683   4.351 -0.2965  0.0887 -0.2839
    1DIPC   D3B24803  16.116  17.795   4.552  0.1624 -0.0501  0.1243
    1DIPC   C4B24804  16.480  17.981   4.330  0.1349 -0.0346  0.1321
    1DIPC   NC324805   0.710   5.503   4.559 -0.2685 -0.0484 -0.1957
    1DIPC   PO424806   0.637   5.123   4.555 -0.0173 -0.0071 -0.4552
    1DIPC   GL124807   0.909   4.758   4.713 -0.2739 -0.1177  0.0746
    1DIPC   GL224808   0.744   4.942   4.997  0.3090  0.2694 -0.4700
    1DIPC   C1A24809   1.193   4.590   5.175  0.0082  0.1788 -0.1258
    1DIPC   D2A24810   1.362   4.636   5.575 -0.3866  0.3272  0.0583
    1DIPC   D3A24811   1.339   5.131   5.429 -0.3840  0.0723  0.1584
    1DIPC   C4A24812   1.207   5.518   5.684 -0.2101  0.1129 -0.0909
    1DIPC   C1B24813   0.882   4.867   5.486 -0.2587  0.1578 -0.1374
    1DIPC   D2B24814   1.060   4.953   5.861  0.0392  0.0635  0.0522
    1DIPC   D3B24815   1.117   4.461   5.973 -0.0938 -0.1869  0.2193
    1DIPC   C4B24816   1.505   4.244   5.828  0.0942 -0.1979 -0.0486
    1DIPC   NC324817  15.620  16.612   2.335  0.1181  0.2270  0.1230
    1DIPC   PO424818  15.600  16.999   2.465  0.1825 -0.2557  0.0383
    1DIPC   GL124819  15.835  17.070   2.818 -0.1570  0.0357  0.1388
    1DIPC   GL224820  15.859  17.352   2.921  0.4221 -0.0797 -0.1806
    1DIPC   C1A24821  15.834  16.915   3.254 -0.3066  0.0004 -0.1163
    1DIPC   D2A24822  16.192  16.768   3.501  0.1439 -0.1168  0.1131
    1DIPC   D3A24823  16.427  16.684   3.883 -0.0361 -0.0065  0.1195
    1DIPC   C4A24824  16.178  16.995   4.081 -0.0221  0.1331 -0.3189
    1DIPC   C1B24825  16.166  17.423   3.255  0.0455  0.0857 -0.3949
    1DIPC   D2B24826  16.520  17.126   3.322  0.0516  0.2302  0.0283
    1DIPC   D3B24827  16.268  17.262   3.665 -0.0482 -0.2384 -0.3651
    1DIPC   C4B24828  15.817  17.276   3.627  0.2045 -0.1195  0.0998
    1DIPC   NC324829  20.094  11.746   1.715 -0.0574  0.2131 -0.4629
    1DIPC   PO424830  20.156  11.828   2.241 -0.0588 -0.1315 -0.1711
    1DIPC   GL124831  20.246  11.861   2.739  0.2024  0.1098  0.1078
    1DIPC   GL224832  20.505  11.893   2.808  0.1518 -0.0397  0.1848
    1DIPC   C1A24833  20.007  11.882   3.094  0.3644  0.0779  0.0668
    1DIPC   D2A24834  19.679  11.965   3.394  0.0890  0.2540  0.1291
    1DIPC   D3A24835  19.711  11.999   3.824 -0.0011 -0.1129 -0.1929
    1DIPC   C4A24836  19.902  11.729   4.038  0.2813  0.5005  0.1230
    1DIPC   C1B24837  20.530  11.930   3.219  0.0111 -0.2912 -0.0536
    1DIPC   D2B24838  20.201  11.858   3.548 -0.3008 -0.1519 -0.0505
    1DIPC   D3B24839  20.388  12.044   3.895  0.0969  0.0386 -0.1798
    1DIPC   C4B24840  20.779  12.300   3.861  0.2385 -0.0223  0.1946
    1DIPC   NC324841  23.286  23.769   3.612  0.0694 -0.3107  0.0507
    1DIPC   PO424842  23.007  24.119   3.542 -0.0671 -0.0762  0.1157
    1DIPC   GL124843  23.228  24.247   3.883 -0.0547 -0.2951  0.1436
    1DIPC   GL224844  23.484  24.384   3.769  0.1296  0.0456 -0.2036
    1DIPC   C1A24845  23.412  24.444   4.242  0.3218 -0.0113  0.1396
    1DIPC   D2A24846  23.664  24.675   4.586  0.0979  0.4576  0.2633
    1DIPC   D3A24847  23.603  24.876   4.904 -0.4647 -0.3125  0.0485
    1DIPC   C4A24848  23.815  25.259   5.081 -0.0194  0.1149 -0.0981
    1DIPC   C1B24849  23.397  24.714   3.848 -0.0755  0.0554  0.3029
    1DIPC   D2B24850  23.379  24.970   4.180 -0.1271 -0.1930 -0.0919
    1DIPC   D3B24851  23.036  25.282   4.280  0.2276 -0.2211  0.2196
    1DIPC   C4B24852  22.739  25.601   4.584 -0.3000  0.0668 -0.1571
    1DIPC   NC324853  26.842  14.438   3.845 -0.1119 -0.2879  0.1177
    1DIPC   PO424854  26.566  14.705   3.725 -0.1773 -0.1851  0.0718
    1DIPC   GL124855  26.350  14.184   3.774 -0.0521  0.1058  0.3448
    1DIPC   GL224856  26.097  13.993   3.636 -0.2250 -0.4199 -0.1375
    1DIPC   C1A24857  26.252  14.013   4.206 -0.4273 -0.0151  0.0758
    1DIPC   D2A24858  26.274  13.599   4.409  0.3831  0.1924 -0.0450
    1DIPC   D3A24859  26.602  13.893   4.709  0.2528  0.2036 -0.2718
    1DIPC   C4A24860  26.971  13.691   4.832 -0.2005  0.3399 -0.0626
    1DIPC   C1B24861  25.908  13.754   3.992 -0.1638  0.0657  0.0433
    1DIPC   D2B24862  25.568  13.832   4.237  0.1207  0.0297  0.0266
    1DIPC   D3B24863  25.839  13.787   4.473 -0.0063  0.1862  0.0320
    1DIPC   C4B24864  26.143  14.079   4.665 -0.0394  0.2580 -0.0485
    1DIPC   NC324865  19.977  25.931   3.198  0.0040 -0.0183  0.1553
    1DIPC   PO424866  19.497  25.941   3.143  0.0476  0.2459 -0.0624
    1DIPC   GL124867  19.158  25.994   3.503 -0.4022  0.2616  0.2180
    1DIPC   GL224868  18.819  25.961   3.566  0.1473  0.0636 -0.0524
    1DIPC   C1A24869  19.273  25.953   4.017 -0.0908 -0.3145  0.4082
    1DIPC   D2A24870  19.199  25.736   4.446  0.0815  0.0960 -0.0244
    1DIPC   D3A24871  19.317  26.105   4.724 -0.1117 -0.1203 -0.0139
    1DIPC   C4A24872  19.567  25.903   5.029 -0.0643  0.4356  0.1008
    1DIPC   C1B24873  18.761  25.932   3.995 -0.0256 -0.0059  0.0367
    1DIPC   D2B24874  18.493  25.883   4.361 -0.0199 -0.2976 -0.2396
    1DIPC   D3B24875  18.810  25.916   4.601  0.0961 -0.1729  0.1104
    1DIPC   C4B24876  18.872  26.125   5.059  0.0602 -0.1887 -0.0129
    1DIPC   NC324877   9.998  12.042   2.038 -0.3900 -0.2281  0.0497
    1DIPC   PO424878  10.472  12.062   2.183 -0.0084  0.3934  0.2166
    1DIPC   GL124879  10.288  11.935   2.617 -0.0378 -0.0999  0.1850
    1DIPC   GL224880  10.249  11.582   2.642  0.4087  0.0494 -0.0819
    1DIPC   C1A24881  10.368  11.834   3.139 -0.2255  0.1880  0.1186
    1DIPC   D2A24882  10.269  11.698   3.566  0.0141 -0.2115 -0.4129
    1DIPC   D3A24883  10.701  11.886   3.566 -0.1260 -0.3389 -0.0519
    1DIPC   C4A24884  10.998  11.853   3.831  0.0605  0.0438 -0.2742
    1DIPC   C1B24885  10.271  11.356   3.096 -0.0068 -0.0432  0.1255
    1DIPC   D2B24886  10.037  11.267   3.471  0.2314 -0.1338 -0.2636
    1DIPC   D3B24887  10.137  11.180   3.881 -0.4646  0.0720 -0.0528
    1DIPC   C4B24888  10.069  10.747   4.105  0.1594  0.0744 -0.2882
    1DIPC   NC324889  17.147   6.321   1.608  0.2654 -0.1366 -0.4560
    1DIPC   PO424890  17.559   6.036   1.808  0.1990 -0.0123  0.0728
    1DIPC   GL124891  17.124   6.131   2.033  0.2931  0.1797 -0.2389
    1DIPC   GL224892  17.061   6.434   2.081 -0.0784  0.0039  0.1962
    1DIPC   C1A24893  16.855   6.168   2.472 -0.0688  0.3743  0.2308
    1DIPC   D2A24894  16.857   6.343   2.935  0.1155  0.2920  0.1111
    1DIPC   D3A24895  16.471   6.254   3.338 -0.0611 -0.1054  0.3635
    1DIPC   C4A24896  16.079   6.357   3.310  0.1356 -0.0409 -0.1300
    1DIPC   C1B24897  17.076   6.598   2.545  0.0907  0.3473 -0.4262
    1DIPC   D2B24898  16.904   6.852   2.886 -0.0704 -0.0580  0.1580
    1DIPC   D3B24899  17.220   6.731   3.134  0.3516 -0.1537  0.0681
    1DIPC   C4B24900  17.465   6.852   3.506  0.2123  0.2630 -0.0852
    1DIPC   NC324901  28.598  11.377   2.772  0.1579  0.2562  0.2040
    1DIPC   PO424902  28.580  11.695   3.135 -0.3280  0.1346  0.1412
    1DIPC   GL124903  28.556  11.807   3.489  0.0769 -0.4218 -0.0886
    1DIPC   GL224904  28.240  11.904   3.639 -0.1867  0.1970  0.0729
    1DIPC   C1A24905  28.501  11.463   3.897  0.3821  0.2820  0.1713
    1DIPC   D2A24906  28.508  11.429   4.354 -0.0765  0.3597 -0.3796
    1DIPC   D3A24907  28.798  11.834   4.244 -0.0886  0.1650 -0.3587
    1DIPC   C4A24908  28.907  12.010   3.817 -0.1023  0.1377 -0.1035
    1DIPC   C1B24909  28.400  11.961   3.995  0.4587  0.0542  0.4512
    1DIPC   D2B24910  28.315  11.852   4.464  0.2262 -0.0532 -0.0298
    1DIPC   D3B24911  28.735  11.801   4.832 -0.1381 -0.1042  0.1275
    1DIPC   C4B24912  28.775  12.034   5.232 -0.1544  0.0441  0.2927
    1DIPC   NC324913   8.370   6.327   3.105  0.0564  0.0328 -0.2367
    1DIPC   PO424914   7.956   6.240   3.275 -0.1151 -0.0306  0.2489
    1DIPC   GL124915   8.056   6.472   3.621  0.0221 -0.0127  0.0930
    1DIPC   GL224916   8.253   6.408   3.856 -0.0329 -0.4187 -0.0574
    1DIPC   C1A24917   8.251   6.919   3.841  0.0407 -0.0345  0.0771
    1DIPC   D2A24918   8.543   7.171   3.908 -0.0916 -0.0820  0.1744
    1DIPC   D3A24919   8.867   7.013   3.711 -0.0546  0.0007  0.2855
    1DIPC   C4A24920   9.330   7.249   3.831 -0.1079  0.1798 -0.2416
    1DIPC   C1B24921   8.258   6.603   4.256 -0.1546 -0.0337 -0.1105
    1DIPC   D2B24922   8.203   6.429   4.657 -0.0466  0.2012 -0.2968
    1DIPC   D3B24923   8.026   6.101   4.752  0.2559 -0.1487 -0.2097
    1DIPC   C4B24924   7.800   5.747   4.655 -0.0467 -0.1451 -0.0436
    1DIPC   NC324925  28.402  24.562   3.688 -0.2927 -0.0471  0.0844
    1DIPC   PO424926  28.170  24.354   3.800 -0.0740 -0.4308  0.0431
    1DIPC   GL124927  28.130  24.095   4.227 -0.0467  0.0804  0.2673
    1DIPC   GL224928  28.432  23.986   4.347 -0.1009 -0.0858  0.3652
    1DIPC   C1A24929  28.032  23.975   4.677  0.1552  0.1377  0.0192
    1DIPC   D2A24930  28.222  23.699   5.065  0.1765  0.0138  0.0423
    1DIPC   D3A24931  27.918  23.521   5.366 -0.1133  0.0158  0.0075
    1DIPC   C4A24932  27.409  23.671   5.412 -0.1474 -0.0733  0.0679
    1DIPC   C1B24933  28.438  24.178   4.797 -0.2611 -0.2949  0.0585
    1DIPC   D2B24934  28.555  24.169   5.232 -0.2079  0.0087  0.0200
    1DIPC   D3B24935  28.773  24.410   5.470 -0.1330  0.0387  0.2993
    1DIPC   C4B24936  28.976  24.293   5.819  0.0318 -0.2961  0.0256
    1DIPC   NC324937  11.194   5.838   1.681 -0.0998  0.1844  0.2683
    1DIPC   PO424938  11.353   5.748   2.125 -0.1586  0.0210 -0.2833
    1DIPC   GL124939  11.239   5.848   2.482  0.1139  0.0926  0.0246
    1DIPC   GL224940  11.494   6.071   2.567 -0.3120  0.2575  0.1211
    1DIPC   C1A24941  11.385   5.718   2.901 -0.0007 -0.3760  0.3058
    1DIPC   D2A24942  11.529   5.753   3.216 -0.1121  0.2401  0.0440
    1DIPC   D3A24943  11.905   5.574   3.031 -0.3132  0.2477  0.2978
    1DIPC   C4A24944  12.179   5.325   3.384  0.1479 -0.1691 -0.2636
    1DIPC   C1B24945  11.816   5.894   2.690 -0.0580 -0.0523 -0.0936
    1DIPC   D2B24946  11.906   5.510   2.548 -0.1276 -0.1391  0.0913
    1DIPC   D3B24947  12.061   5.139   2.706 -0.0020  0.1086 -0.3331
    1DIPC   C4B24948  12.411   5.230   2.936 -0.0148 -0.2766  0.1949
    1DIPC   NC324949  16.493  15.379   2.236  0.0142  0.1234  0.0923
    1DIPC   PO424950  16.138  15.079   2.348 -0.1615 -0.0206  0.5196
    1DIPC   GL124951  16.238  15.249   2.789  0.0396 -0.0116  0.4856
    1DIPC   GL224952  15.978  15.221   3.060 -0.0714  0.3874 -0.2549
    1DIPC   C1A24953  16.287  15.606   3.124  0.2804 -0.0387  0.0616
    1DIPC   D2A24954  16.332  15.726   3.610  0.2941  0.0720  0.0422
    1DIPC   D3A24955  16.206  15.338   3.839 -0.3553 -0.2671 -0.0942
    1DIPC   C4A24956  16.446  15.093   4.136  0.2505 -0.0119  0.1812
    1DIPC   C1B24957  15.957  15.215   3.461  0.3335 -0.0237 -0.0933
    1DIPC   D2B24958  16.078  14.874   3.714  0.0080 -0.0236 -0.1604
    1DIPC   D3B24959  16.028  14.738   3.339  0.3753  0.0670 -0.3085
    1DIPC   C4B24960  15.694  14.475   3.127 -0.0134  0.5270 -0.2231
    1DIPC   NC324961  22.711   2.495   2.767  0.1655 -0.1366  0.4218
    1DIPC   PO424962  23.078   2.318   3.068  0.0590  0.0595 -0.2480
    1DIPC   GL124963  23.114   2.085   3.487 -0.0271 -0.2520 -0.2088
    1DIPC   GL224964  22.896   2.046   3.722 -0.2020  0.1423  0.1090
    1DIPC   C1A24965  23.348   1.881   3.899 -0.0147 -0.0909 -0.0431
    1DIPC   D2A24966  23.509   1.598   4.212  0.1132 -0.3300  0.3027
    1DIPC   D3A24967  23.295   1.875   4.532 -0.0042  0.0114 -0.0751
    1DIPC   C4A24968  23.056   1.659   4.858  0.0595 -0.1016  0.2560
    1DIPC   C1B24969  23.083   2.268   4.115 -0.1856  0.0508  0.3036
    1DIPC   D2B24970  22.972   2.562   4.442 -0.0631  0.2843 -0.1827
    1DIPC   D3B24971  22.560   2.754   4.238  0.0366 -0.1973 -0.0505
    1DIPC   C4B24972  22.352   2.617   3.821 -0.0745 -0.0571  0.4528
    1DIPC   NC324973  26.006  20.528   3.209 -0.0639 -0.0736  0.2100
    1DIPC   PO424974  25.877  20.799   3.544  0.0428 -0.0595  0.2850
    1DIPC   GL124975  25.633  20.822   3.785 -0.0425  0.0241 -0.2679
    1DIPC   GL224976  25.679  21.220   3.929  0.1856  0.0106  0.1964
    1DIPC   C1A24977  25.492  20.681   4.149 -0.3226 -0.1256  0.1648
    1DIPC   D2A24978  25.123  20.617   4.414  0.0971  0.0435  0.2109
    1DIPC   D3A24979  25.129  20.388   4.831 -0.0106 -0.2009  0.1345
    1DIPC   C4A24980  25.552  20.324   5.039  0.0197  0.0825 -0.2559
    1DIPC   C1B24981  25.291  21.097   4.246  0.1191 -0.0042 -0.1308
    1DIPC   D2B24982  25.030  21.194   4.678 -0.1699  0.2758 -0.1238
    1DIPC   D3B24983  24.774  21.162   4.298  0.1984 -0.1895  0.0507
    1DIPC   C4B24984  24.912  20.867   3.995  0.3419  0.0098  0.0406
    1DIPC   NC324985  15.208  14.835   2.618 -0.1134  0.0727  0.2877
    1DIPC   PO424986  15.642  15.014   2.679 -0.0508  0.0812  0.1908
    1DIPC   GL124987  15.410  15.173   3.055  0.1892 -0.0188  0.2297
    1DIPC   GL224988  15.317  14.996   3.177  0.1140 -0.1064  0.2469
    1DIPC   C1A24989  15.394  15.486   3.409 -0.3325 -0.0816  0.1510
    1DIPC   D2A24990  15.084  15.583   3.669 -0.1997  0.2227  0.1896
    1DIPC   D3A24991  15.366  15.542   4.047  0.0889 -0.0081  0.0214
    1DIPC   C4A24992  15.193  15.941   4.227  0.2193 -0.0195 -0.0101
    1DIPC   C1B24993  15.534  14.825   3.502  0.2386 -0.0166 -0.1708
    1DIPC   D2B24994  15.499  14.633   3.958  0.0729  0.2466 -0.2412
    1DIPC   D3B24995  15.906  14.882   4.244  0.2179  0.1951  0.1018
    1DIPC   C4B24996  16.264  14.717   4.457 -0.1474  0.2981  0.1381
    1DIPC   NC324997  28.761   5.015   3.979 -0.0865 -0.1856  0.3745
    1DIPC   PO424998  29.133   5.176   4.204 -0.1311 -0.0932 -0.3687
    1DIPC   GL124999  29.026   5.248   4.634 -0.0163 -0.0661  0.2124
    1DIPC   GL225000  28.985   5.665   4.624  0.0450  0.3531  0.7203
    1DIPC   C1A25001  29.006   5.162   5.048 -0.0955 -0.0102 -0.0189
    1DIPC   D2A25002  29.195   5.050   5.444  0.1962  0.2292 -0.1083
    1DIPC   D3A25003  28.808   4.909   5.608  0.1173 -0.0837  0.4252
    1DIPC   C4A25004  28.562   4.902   6.049 -0.0056  0.3151 -0.3526
    1DIPC   C1B25005  28.734   5.934   4.910 -0.1430 -0.1515  0.0582
    1DIPC   D2B25006  28.706   6.158   5.234 -0.1885  0.1366 -0.0873
    1DIPC   D3B25007  28.850   6.420   5.522 -0.2174 -0.1439  0.1267
    1DIPC   C4B25008  28.665   6.651   5.498 -0.2329  0.0953  0.0895
    1DIPC   NC325009  16.352  16.321   2.541  0.0194 -0.5609 -0.1783
    1DIPC   PO425010  15.957  16.464   2.751 -0.0264  0.0847  0.0192
    1DIPC   GL125011  15.773  16.399   3.164  0.3348  0.0278 -0.1523
    1DIPC   GL225012  15.686  16.138   3.106 -0.1332  0.2805  0.0603
    1DIPC   C1A25013  15.643  16.539   3.550  0.0830  0.2152 -0.0517
    1DIPC   D2A25014  15.472  16.743   3.844 -0.2563  0.4702 -0.0566
    1DIPC   D3A25015  15.934  16.605   4.055 -0.0445  0.1021 -0.1541
    1DIPC   C4A25016  15.862  16.365   4.400  0.3041  0.0998 -0.3302
    1DIPC   C1B25017  15.507  16.025   3.479  0.0791  0.1420  0.0018
    1DIPC   D2B25018  15.570  16.093   3.887 -0.3268 -0.1020  0.1921
    1DIPC   D3B25019  15.440  16.353   4.134 -0.0787  0.4951  0.0348
    1DIPC   C4B25020  15.639  16.787   4.393  0.0008 -0.4771 -0.0757
    1DIPC   NC325021   5.893  12.310   2.612  0.0519 -0.1167 -0.0215
    1DIPC   PO425022   6.015  12.010   2.797  0.0879  0.1281 -0.1062
    1DIPC   GL125023   6.252  12.172   3.160  0.0683  0.3533  0.0323
    1DIPC   GL225024   6.100  12.460   3.085  0.1847 -0.3177 -0.0698
    1DIPC   C1A25025   6.327  12.270   3.542  0.1485  0.0516 -0.1364
    1DIPC   D2A25026   6.672  12.344   3.648  0.2375  0.1571 -0.1143
    1DIPC   D3A25027   6.863  12.071   3.909  0.4199  0.1767 -0.0819
    1DIPC   C4A25028   6.700  11.927   4.369 -0.3070 -0.0892 -0.1332
    1DIPC   C1B25029   5.884  12.579   3.375  0.3115 -0.3353 -0.0735
    1DIPC   D2B25030   5.891  12.901   3.700 -0.1983 -0.1627  0.1160
    1DIPC   D3B25031   5.966  12.468   3.902 -0.0815  0.0759  0.2145
    1DIPC   C4B25032   5.551  12.422   4.081  0.1221 -0.2691  0.1364
    1DIPC   NC325033  22.954  25.852   2.853  0.0752 -0.1283  0.1091
    1DIPC   PO425034  22.939  25.532   3.065  0.0656  0.0404  0.0993
    1DIPC   GL125035  22.670  25.467   3.377 -0.0342 -0.1308  0.0003
    1DIPC   GL225036  22.536  25.125   3.382 -0.4038 -0.1261 -0.0533
    1DIPC   C1A25037  22.471  25.636   3.832 -0.0053  0.2774  0.3536
    1DIPC   D2A25038  22.517  25.444   4.207 -0.1158  0.1647 -0.1192
    1DIPC   D3A25039  22.834  25.752   4.133 -0.2987 -0.0221 -0.0561
    1DIPC   C4A25040  23.212  25.835   4.413  0.0775  0.1163 -0.0082
    1DIPC   C1B25041  22.658  25.106   3.845  0.0957 -0.1517 -0.1167
    1DIPC   D2B25042  22.583  24.932   4.296  0.1384 -0.0193  0.1527
    1DIPC   D3B25043  22.578  25.109   4.655 -0.3910  0.0834 -0.3138
    1DIPC   C4B25044  22.502  24.775   5.055 -0.3371 -0.1481 -0.0105
    1DIPC   NC325045  10.172   6.724   2.609  0.1468  0.0368 -0.0843
    1DIPC   PO425046   9.802   6.939   2.900 -0.2359 -0.0264 -0.0174
    1DIPC   GL125047   9.907   6.894   3.289 -0.0583 -0.0067  0.0398
    1DIPC   GL225048   9.676   7.121   3.493 -0.0809  0.1669 -0.0378
    1DIPC   C1A25049  10.127   7.085   3.653 -0.2336 -0.5950  0.0341
    1DIPC   D2A25050  10.366   7.226   4.050 -0.1430  0.0178  0.2349
    1DIPC   D3A25051  10.546   6.960   4.353 -0.0375 -0.0914  0.2107
    1DIPC   C4A25052  10.405   6.639   4.388 -0.0470  0.1668  0.2584
    1DIPC   C1B25053   9.845   7.390   3.857  0.1260  0.0807  0.2799
    1DIPC   D2B25054   9.867   7.375   4.299 -0.0116  0.2599 -0.1989
    1DIPC   D3B25055   9.861   7.791   4.564 -0.0125 -0.1363 -0.1063
    1DIPC   C4B25056   9.598   8.086   4.504  0.0695  0.0030  0.1811
    1DIPC   NC325057  27.223   5.624   3.672 -0.1832 -0.1619  0.1441
    1DIPC   PO425058  27.544   5.782   4.046 -0.1727  0.0536  0.3683
    1DIPC   GL125059  27.285   5.828   4.383  0.0146 -0.0812  0.0897
    1DIPC   GL225060  26.907   5.861   4.566  0.4200 -0.0881  0.1294
    1DIPC   C1A25061  27.346   5.972   4.842 -0.1803  0.0807 -0.1307
    1DIPC   D2A25062  27.377   6.247   5.053  0.0456  0.1660 -0.1000
    1DIPC   D3A25063  27.007   6.442   5.271  0.1243  0.0544  0.1455
    1DIPC   C4A25064  27.154   6.521   5.664  0.1032  0.1748 -0.0798
    1DIPC   C1B25065  26.857   5.999   5.076  0.1631 -0.1937 -0.0012
    1DIPC   D2B25066  26.688   6.132   5.504 -0.0006 -0.1869  0.2130
    1DIPC   D3B25067  26.581   5.774   5.794 -0.3357  0.2748  0.0118
    1DIPC   C4B25068  26.331   5.360   5.638 -0.2718  0.0284  0.0838
    1DIPC   NC325069  14.974  18.634   2.652 -0.0725  0.4080 -0.2073
    1DIPC   PO425070  14.527  18.411   2.714 -0.4750 -0.1153  0.1486
    1DIPC   GL125071  14.797  18.389   3.156 -0.1876  0.0259 -0.1429
    1DIPC   GL225072  15.135  18.544   3.110  0.1705  0.0646 -0.0147
    1DIPC   C1A25073  14.585  18.302   3.469  0.1876 -0.1756 -0.1791
    1DIPC   D2A25074  14.617  18.484   3.943  0.0648 -0.4562  0.0246
    1DIPC   D3A25075  14.517  18.881   3.853  0.0954  0.0572  0.0650
    1DIPC   C4A25076  14.763  18.809   3.474 -0.3863  0.2908  0.0957
    1DIPC   C1B25077  15.109  18.378   3.563 -0.0861 -0.0937  0.1858
    1DIPC   D2B25078  15.039  18.191   3.877  0.0043  0.1767 -0.3897
    1DIPC   D3B25079  14.674  17.976   3.924  0.0150  0.0564 -0.4330
    1DIPC   C4B25080  14.490  17.808   3.586 -0.0849 -0.1389 -0.0813
    1DIPC   NC325081  17.191  12.255   1.566  0.1157  0.1266  0.0730
    1DIPC   PO425082  17.289  12.145   1.931 -0.2492  0.2773  0.1677
    1DIPC   GL125083  17.291  11.957   2.361 -0.2472  0.4312 -0.0858
    1DIPC   GL225084  17.221  12.111   2.714 -0.2335  0.1244  0.0860
    1DIPC   C1A25085  17.158  11.486   2.532  0.1574 -0.2122  0.1425
    1DIPC   D2A25086  16.856  11.134   2.738  0.2545 -0.0889 -0.2827
    1DIPC   D3A25087  16.711  11.108   3.132  0.1044  0.3798  0.2637
    1DIPC   C4A25088  16.597  11.488   3.365  0.0536 -0.0597  0.1838
    1DIPC   C1B25089  16.802  11.950   2.638 -0.1767 -0.1844  0.2808
    1DIPC   D2B25090  16.584  11.542   2.812 -0.1604 -0.0394  0.0535
    1DIPC   D3B25091  16.330  11.190   2.808  0.1101 -0.1377  0.0781
    1DIPC   C4B25092  16.126  11.095   3.207  0.0145  0.0868 -0.1805
    1DIPC   NC325093  26.428   6.080   4.009  0.2393 -0.1987  0.0994
    1DIPC   PO425094  26.650   6.337   4.307  0.0380  0.0138  0.1981
    1DIPC   GL125095  26.457   6.568   4.646  0.0518 -0.0998  0.0892
    1DIPC   GL225096  26.635   6.806   4.610  0.0062 -0.2824 -0.1468
    1DIPC   C1A25097  26.259   6.779   4.960 -0.3241 -0.0906  0.0876
    1DIPC   D2A25098  26.039   6.862   5.403  0.1757  0.1265 -0.3304
    1DIPC   D3A25099  26.124   6.726   5.803  0.0449  0.3743  0.0892
    1DIPC   C4A25100  26.008   6.440   6.062 -0.0351 -0.3639  0.2925
    1DIPC   C1B25101  26.737   6.770   5.021  0.0100 -0.4213  0.2596
    1DIPC   D2B25102  26.654   6.652   5.543 -0.1010  0.2191 -0.0268
    1DIPC   D3B25103  26.920   7.009   5.803  0.2228  0.2927 -0.2364
    1DIPC   C4B25104  26.717   7.363   5.954 -0.0659 -0.0209 -0.0849
    1DIPC   NC325105   6.703  11.380   2.472  0.1702  0.3427 -0.0130
    1DIPC   PO425106   6.542  11.051   2.754 -0.0471 -0.0460 -0.0051
    1DIPC   GL125107   6.631  11.354   2.970 -0.2346  0.0646  0.0152
    1DIPC   GL225108   6.470  11.332   3.318 -0.0626  0.3068 -0.0758
    1DIPC   C1A25109   6.971  11.548   3.191  0.1161 -0.0991  0.1841
    1DIPC   D2A25110   7.066  11.656   3.523 -0.0464 -0.1453  0.1762
    1DIPC   D3A25111   6.641  11.893   3.412 -0.0775 -0.2864  0.0750
    1DIPC   C4A25112   6.295  11.812   3.777 -0.1003  0.1638 -0.2212
    1DIPC   C1B25113   6.618  11.329   3.702  0.1759  0.0713  0.1258
    1DIPC   D2B25114   6.811  11.516   3.973  0.1069 -0.0460 -0.1930
    1DIPC   D3B25115   6.925  11.426   4.386  0.2443 -0.1312 -0.1426
    1DIPC   C4B25116   7.195  11.611   4.651  0.2915 -0.0232 -0.3285
    1DIPC   NC325117   0.970  15.941   3.551  0.1770  0.0884 -0.1034
    1DIPC   PO425118   1.478  15.896   3.628 -0.0867 -0.1850  0.1899
    1DIPC   GL125119   1.576  16.119   4.003 -0.1172 -0.0167 -0.4071
    1DIPC   GL225120   1.884  16.175   4.084  0.3114  0.2200  0.0905
    1DIPC   C1A25121   1.393  16.328   4.309  0.2251  0.0486 -0.0052
    1DIPC   D2A25122   1.258  16.196   4.822  0.1124  0.1839  0.1059
    1DIPC   D3A25123   1.371  15.862   5.127 -0.1730 -0.1337 -0.4986
    1DIPC   C4A25124   1.703  15.694   4.922  0.2775  0.0249 -0.3041
    1DIPC   C1B25125   2.189  16.146   4.409  0.4661  0.0422  0.2230
    1DIPC   D2B25126   2.509  15.861   4.668 -0.0788 -0.0694  0.4000
    1DIPC   D3B25127   2.640  15.865   5.113  0.0028 -0.2380 -0.1156
    1DIPC   C4B25128   2.670  16.249   5.334 -0.1983 -0.0476 -0.4615
    1DIPC   NC325129   5.491  13.226   2.817 -0.0581  0.0644  0.1041
    1DIPC   PO425130   5.793  13.463   3.108  0.1456  0.4166 -0.4239
    1DIPC   GL125131   5.591  13.596   3.459 -0.1803 -0.0509  0.3772
    1DIPC   GL225132   5.725  13.941   3.428  0.0527  0.1072 -0.0620
    1DIPC   C1A25133   5.747  13.557   3.848  0.0033  0.1101 -0.2551
    1DIPC   D2A25134   5.975  13.382   4.056 -0.1115  0.1305  0.0319
    1DIPC   D3A25135   6.432  13.550   4.119  0.0263  0.2804  0.3098
    1DIPC   C4A25136   6.674  13.454   3.707 -0.3245 -0.1162  0.3317
    1DIPC   C1B25137   5.688  14.093   3.809  0.1422 -0.2413  0.0308
    1DIPC   D2B25138   5.392  14.085   4.184  0.3288  0.0399 -0.0672
    1DIPC   D3B25139   5.177  13.691   4.024 -0.1642  0.3298  0.0062
    1DIPC   C4B25140   5.438  13.427   4.237  0.1066  0.1679 -0.0029
    1DIPC   NC325141  25.230  15.664   3.279 -0.1147  0.0770 -0.4074
    1DIPC   PO425142  25.500  15.424   3.567 -0.0358 -0.0891 -0.0510
    1DIPC   GL125143  25.409  15.543   3.978 -0.1312 -0.0183  0.0259
    1DIPC   GL225144  25.436  15.306   4.172 -0.1154  0.2671 -0.1903
    1DIPC   C1A25145  25.744  15.660   4.344 -0.0187 -0.2000  0.1244
    1DIPC   D2A25146  25.836  15.419   4.734  0.1965  0.0919 -0.0745
    1DIPC   D3A25147  25.604  15.694   5.023 -0.0819 -0.0892  0.0725
    1DIPC   C4A25148  25.165  15.638   4.929  0.1655  0.1531 -0.1128
    1DIPC   C1B25149  25.392  15.231   4.615  0.0263  0.3660 -0.0803
    1DIPC   D2B25150  25.401  15.060   5.049  0.0922 -0.3174  0.2531
    1DIPC   D3B25151  25.223  14.790   5.301 -0.1866  0.2378 -0.1656
    1DIPC   C4B25152  25.470  14.393   5.132  0.0403 -0.0834  0.0009
    1DIPC   NC325153  12.809  12.937   2.157 -0.1875  0.1217 -0.0879
    1DIPC   PO425154  12.524  13.258   2.481 -0.2713  0.0189 -0.4389
    1DIPC   GL125155  12.672  13.187   2.895 -0.1461  0.1703 -0.0958
    1DIPC   GL225156  13.021  13.294   2.989 -0.0856 -0.2110 -0.1324
    1DIPC   C1A25157  12.639  13.144   3.413 -0.0274 -0.0877 -0.0362
    1DIPC   D2A25158  12.629  13.215   3.823 -0.1630  0.1371  0.0223
    1DIPC   D3A25159  12.969  13.448   3.938 -0.3483  0.3264 -0.1028
    1DIPC   C4A25160  12.858  13.684   4.285  0.2568 -0.0835  0.1601
    1DIPC   C1B25161  13.132  13.292   3.421  0.2023  0.0504 -0.0183
    1DIPC   D2B25162  13.139  13.024   3.707  0.0375 -0.0006 -0.0881
    1DIPC   D3B25163  13.380  13.215   4.021 -0.1188  0.0123  0.2066
    1DIPC   C4B25164  13.459  12.806   4.293  0.0685  0.3167 -0.0110
    1DIPC   NC325165  14.387   9.565   1.351  0.2467  0.0730  0.2142
    1DIPC   PO425166  14.625   9.856   1.667  0.3130  0.1626  0.1962
    1DIPC   GL125167  14.604   9.735   2.112  0.0487  0.0656  0.1167
    1DIPC   GL225168  14.783   9.494   2.092 -0.1171 -0.3999  0.0402
    1DIPC   C1A25169  14.718   9.658   2.624  0.3071 -0.2910 -0.0911
    1DIPC   D2A25170  14.603   9.866   3.046 -0.0378  0.1286  0.1202
    1DIPC   D3A25171  14.237   9.691   3.282  0.0391  0.1182  0.2090
    1DIPC   C4A25172  14.121   9.465   3.721  0.0440 -0.2741  0.1315
    1DIPC   C1B25173  14.265   9.557   2.390 -0.5070  0.2912 -0.0030
    1DIPC   D2B25174  14.172   9.751   2.786  0.0472  0.1079  0.3161
    1DIPC   D3B25175  13.803   9.836   2.938  0.0711 -0.1687 -0.0585
    1DIPC   C4B25176  13.728   9.739   3.281 -0.4492  0.1356 -0.0515
    1DIPC   NC325177   9.318  22.842   3.475 -0.4486 -0.2343 -0.0282
    1DIPC   PO425178   9.275  23.284   3.622 -0.0357  0.0249 -0.0273
    1DIPC   GL125179   9.308  23.342   4.047 -0.2835 -0.3064  0.0820
    1DIPC   GL225180   9.561  23.115   4.267 -0.2601 -0.1018 -0.0342
    1DIPC   C1A25181   9.198  23.547   4.413  0.5388 -0.3287  0.0247
    1DIPC   D2A25182   8.953  23.508   4.780  0.0973 -0.1463 -0.0026
    1DIPC   D3A25183   8.715  23.141   4.923 -0.3529 -0.1043 -0.0888
    1DIPC   C4A25184   8.892  22.916   5.252  0.0000  0.0728 -0.2526
    1DIPC   C1B25185   9.716  23.163   4.641 -0.1261 -0.1123 -0.0533
    1DIPC   D2B25186   9.983  22.834   4.856 -0.0728  0.1741 -0.0939
    1DIPC   D3B25187  10.334  22.561   5.074  0.2244  0.1558  0.1529
    1DIPC   C4B25188  10.315  22.098   5.124  0.1400 -0.0490  0.1246
    1DIPC   NC325189  12.920   1.632   2.679 -0.0563  0.1782  0.3417
    1DIPC   PO425190  12.606   1.289   2.615  0.3108  0.1242  0.1152
    1DIPC   GL125191  12.801   1.247   3.063  0.1032 -0.4007  0.0345
    1DIPC   GL225192  12.973   0.952   3.171  0.0252  0.0629  0.1451
    1DIPC   C1A25193  12.744   1.320   3.452 -0.0114 -0.1493  0.1180
    1DIPC   D2A25194  12.882   1.265   3.921  0.1244  0.0259  0.2963
    1DIPC   D3A25195  12.425   1.426   3.979  0.2787 -0.3577 -0.0665
    1DIPC   C4A25196  12.249   1.347   4.347  0.3028 -0.0214  0.3133
    1DIPC   C1B25197  12.745   0.800   3.509 -0.1349  0.0185  0.1986
    1DIPC   D2B25198  12.498   0.923   3.870 -0.0064 -0.1696  0.3802
    1DIPC   D3B25199  12.819   0.769   4.122  0.0015 -0.1327  0.1193
    1DIPC   C4B25200  12.718   0.451   4.404  0.0232 -0.0442 -0.0260
    1DIPC   NC325201   0.072   4.117   4.218  0.0554  0.1262  0.0583
    1DIPC   PO425202   0.037   3.555   4.333 -0.2078 -0.2584 -0.0348
    1DIPC   GL125203   0.171   3.491   4.684 -0.0385 -0.1850 -0.2335
    1DIPC   GL225204   0.487   3.371   4.591  0.3881  0.0287  0.2284
    1DIPC   C1A25205   0.161   3.442   5.206 -0.3119  0.0574 -0.1263
    1DIPC   D2A25206   0.298   3.334   5.530 -0.0373  0.0213  0.1528
    1DIPC   D3A25207   0.216   3.781   5.674 -0.1542 -0.1721  0.0177
    1DIPC   C4A25208   0.040   4.068   5.420  0.0290 -0.0746  0.1366
    1DIPC   C1B25209   0.633   3.741   4.808 -0.1270 -0.3127  0.2289
    1DIPC   D2B25210   0.918   4.007   5.022  0.1161  0.1397 -0.0308
    1DIPC   D3B25211   0.762   4.346   4.913  0.0800  0.1827 -0.0694
    1DIPC   C4B25212   0.543   4.530   5.270  0.0323 -0.3196  0.0297
    1DIPC   NC325213   1.331  12.958   3.224  0.2346 -0.0413  0.4300
    1DIPC   PO425214   0.938  13.006   3.546 -0.0065 -0.1560  0.0212
    1DIPC   GL125215   0.812  12.726   3.896  0.0973 -0.0518  0.2297
    1DIPC   GL225216   0.577  12.482   3.962 -0.0767  0.1141  0.2976
    1DIPC   C1A25217   0.700  12.776   4.316 -0.0761  0.0438  0.1461
    1DIPC   D2A25218   0.468  12.718   4.760  0.1469 -0.0224 -0.0607
    1DIPC   D3A25219   0.306  12.907   5.165  0.2136 -0.1423  0.2811
    1DIPC   C4A25220   0.640  12.796   5.331 -0.2520  0.2642  0.0459
    1DIPC   C1B25221   0.545  12.338   4.366 -0.0485  0.0451 -0.1536
    1DIPC   D2B25222   0.314  11.928   4.583  0.2180 -0.0128  0.0423
    1DIPC   D3B25223   0.185  12.298   4.826 -0.2351  0.2476  0.0621
    1DIPC   C4B25224   0.560  12.359   5.136 -0.0645 -0.0003 -0.0000
    1DIPC   NC325225   0.697   6.256   4.169 -0.2209  0.1916 -0.0211
    1DIPC   PO425226   0.943   5.886   4.362 -0.2783  0.3097 -0.1507
    1DIPC   GL125227   0.792   6.027   4.676 -0.0214  0.1939 -0.0307
    1DIPC   GL225228   0.550   5.959   4.762  0.1460  0.3846  0.0392
    1DIPC   C1A25229   0.899   6.173   5.104  0.0997  0.0903 -0.0243
    1DIPC   D2A25230   0.888   6.520   5.496 -0.2836  0.2893  0.0435
    1DIPC   D3A25231   1.100   6.886   5.563  0.2541 -0.1143 -0.1436
    1DIPC   C4A25232   0.909   7.219   5.495 -0.0353  0.0651 -0.2388
    1DIPC   C1B25233   0.320   6.007   5.107 -0.1439  0.1676 -0.0501
    1DIPC   D2B25234   0.430   6.374   5.362  0.2136  0.0521 -0.1556
    1DIPC   D3B25235   0.338   6.345   5.854  0.1753  0.3787  0.0352
    1DIPC   C4B25236   0.362   5.935   6.141  0.2382  0.1131 -0.0759
    1DIPC   NC325237  17.642  16.799   2.828 -0.1719 -0.0611  0.2481
    1DIPC   PO425238  17.341  17.026   2.925 -0.0692  0.0800  0.1965
    1DIPC   GL125239  17.508  16.826   3.308 -0.1195  0.1974  0.1756
    1DIPC   GL225240  17.921  16.804   3.304  0.3990  0.0073  0.0610
    1DIPC   C1A25241  17.697  16.924   3.789 -0.0101 -0.1618 -0.3492
    1DIPC   D2A25242  17.462  16.987   4.177  0.1034 -0.1313  0.1064
    1DIPC   D3A25243  17.598  16.609   4.201  0.2804 -0.2328  0.0175
    1DIPC   C4A25244  17.899  16.502   3.950  0.2900 -0.2059 -0.1061
    1DIPC   C1B25245  18.202  17.100   3.544  0.1340  0.2922 -0.0873
    1DIPC   D2B25246  18.305  17.387   3.839 -0.1573  0.1163 -0.0950
    1DIPC   D3B25247  18.198  17.207   4.260 -0.0504  0.0954  0.0944
    1DIPC   C4B25248  17.890  16.942   4.503 -0.0649  0.3279 -0.0874
    1DIPC   NC325249   4.352   9.790   3.163 -0.2925 -0.0937  0.0669
    1DIPC   PO425250   4.620   9.394   3.491  0.2197  0.2132 -0.1520
    1DIPC   GL125251   5.014   9.061   3.562  0.0038  0.3713 -0.0240
    1DIPC   GL225252   4.981   8.727   3.665  0.1649 -0.0028 -0.1962
    1DIPC   C1A25253   5.375   9.157   3.829 -0.3529  0.2381  0.0312
    1DIPC   D2A25254   5.446   9.269   4.286 -0.2174  0.0927 -0.0156
    1DIPC   D3A25255   5.105   9.521   4.371  0.0498  0.0915  0.0217
    1DIPC   C4A25256   5.066   9.869   4.747 -0.1824  0.3681 -0.3219
    1DIPC   C1B25257   4.993   8.946   4.077 -0.2966  0.1922  0.2117
    1DIPC   D2B25258   4.974   9.035   4.570 -0.2165 -0.1725 -0.1965
    1DIPC   D3B25259   4.823   9.027   5.006 -0.2336 -0.1152 -0.1064
    1DIPC   C4B25260   4.913   9.156   5.415  0.1006 -0.0555 -0.1969
    1DIPC   NC325261   3.469  17.088   3.283 -0.2343 -0.0772 -0.1457
    1DIPC   PO425262   3.062  17.066   3.511  0.1453 -0.1528 -0.1337
    1DIPC   GL125263   3.358  16.786   3.698 -0.0226 -0.1641  0.1855
    1DIPC   GL225264   3.502  17.008   3.782  0.0638  0.0819 -0.1069
    1DIPC   C1A25265   3.639  16.902   4.209 -0.2426  0.1120  0.0821
    1DIPC   D2A25266   4.013  16.898   4.486  0.1283  0.0670 -0.1204
    1DIPC   D3A25267   3.688  16.715   4.781  0.1700  0.2437  0.1711
    1DIPC   C4A25268   3.589  17.080   4.933  0.0188 -0.0011 -0.2511
    1DIPC   C1B25269   3.153  16.998   4.130  0.2516  0.1454 -0.1481
    1DIPC   D2B25270   3.238  16.902   4.575 -0.0484 -0.2560  0.0091
    1DIPC   D3B25271   2.855  16.696   4.582 -0.3988 -0.0693  0.1167
    1DIPC   C4B25272   2.549  16.742   4.313 -0.0769 -0.1263  0.2711
    1DIPC   NC325273   5.183  14.362   2.795  0.2114 -0.2369 -0.2383
    1DIPC   PO425274   4.787  14.663   2.886 -0.0773  0.0910 -0.1235
    1DIPC   GL125275   4.820  14.538   3.396  0.0698 -0.0294  0.0045
    1DIPC   GL225276   4.662  14.217   3.502 -0.1358  0.1134  0.1589
    1DIPC   C1A25277   5.165  14.640   3.656 -0.2103 -0.1866  0.1135
    1DIPC   D2A25278   5.055  14.929   3.985 -0.1898 -0.3349 -0.1713
    1DIPC   D3A25279   5.294  15.270   3.875  0.0253  0.0219  0.2408
    1DIPC   C4A25280   5.536  15.581   4.160 -0.0640 -0.2926 -0.1285
    1DIPC   C1B25281   4.346  13.924   3.501  0.0285 -0.0132 -0.0108
    1DIPC   D2B25282   4.233  13.627   3.752  0.0532  0.2384 -0.0041
    1DIPC   D3B25283   3.881  13.748   3.828 -0.0566 -0.0128 -0.1438
    1DIPC   C4B25284   3.763  13.632   4.207  0.1186 -0.0007 -0.1704
    1DIPC   NC325285   0.717  13.402   3.470 -0.1111 -0.2409 -0.1355
    1DIPC   PO425286   1.239  13.426   3.403 -0.0017 -0.0976 -0.1320
    1DIPC   GL125287   1.163  13.654   3.701  0.0339 -0.1754  0.0102
    1DIPC   GL225288   1.221  13.224   3.913 -0.1826  0.1845 -0.1707
    1DIPC   C1A25289   0.879  14.096   3.706 -0.3176 -0.1882  0.0349
    1DIPC   D2A25290   0.509  14.297   3.948  0.0703 -0.0642 -0.0077
    1DIPC   D3A25291   0.816  14.146   4.297  0.2346  0.1098 -0.2733
    1DIPC   C4A25292   0.856  13.796   4.190 -0.2658 -0.2406 -0.1046
    1DIPC   C1B25293   1.127  13.312   4.277 -0.3397  0.0129 -0.2708
    1DIPC   D2B25294   1.142  13.462   4.668 -0.2059  0.0655  0.2051
    1DIPC   D3B25295   1.266  13.301   5.062 -0.0829  0.0801  0.1885
    1DIPC   C4B25296   1.672  13.439   5.405  0.2045 -0.0407  0.0065
    1DIPC   NC325297  27.346  17.119   3.995  0.0788  0.2432 -0.0384
    1DIPC   PO425298  27.505  17.496   4.006 -0.0017  0.3791 -0.1509
    1DIPC   GL125299  27.448  17.487   4.459  0.1859 -0.0504 -0.2245
    1DIPC   GL225300  27.443  17.123   4.505  0.4169  0.0366  0.2693
    1DIPC   C1A25301  27.498  17.596   4.881 -0.0658  0.2324  0.3602
    1DIPC   D2A25302  27.495  17.408   5.259  0.3639  0.0782  0.2309
    1DIPC   D3A25303  27.212  17.739   5.526  0.0611 -0.2804  0.0350
    1DIPC   C4A25304  27.266  17.835   6.032  0.3984  0.2300 -0.1764
    1DIPC   C1B25305  27.442  17.060   4.960 -0.2106  0.3478 -0.0926
    1DIPC   D2B25306  27.381  16.760   5.236  0.3108 -0.1328  0.0762
    1DIPC   D3B25307  27.496  16.899   5.689 -0.0012 -0.2469  0.2577
    1DIPC   C4B25308  27.614  17.423   5.757 -0.0294 -0.0701 -0.2601
    1DIPC   NC325309   6.331   4.295   3.279 -0.2050 -0.0332  0.1602
    1DIPC   PO425310   6.632   4.454   3.665 -0.0492  0.1464  0.0855
    1DIPC   GL125311   6.580   4.486   4.092 -0.2961  0.0652 -0.1379
    1DIPC   GL225312   6.245   4.556   4.198  0.2275  0.1226 -0.1344
    1DIPC   C1A25313   6.742   4.412   4.469  0.2316  0.0204 -0.3274
    1DIPC   D2A25314   6.732   4.451   4.953 -0.4221 -0.1292 -0.0101
    1DIPC   D3A25315   6.805   4.713   5.269  0.3538  0.1760 -0.1907
    1DIPC   C4A25316   7.012   4.555   5.455  0.1846  0.0153 -0.1759
    1DIPC   C1B25317   5.986   4.830   4.387 -0.2229  0.1161  0.1971
    1DIPC   D2B25318   5.770   5.007   4.668  0.1425 -0.0770  0.2751
    1DIPC   D3B25319   5.878   4.699   4.981 -0.2176 -0.1103 -0.0319
    1DIPC   C4B25320   5.765   4.682   5.401  0.1058  0.1381  0.1769
    1DIPC   NC325321  16.792  13.898   2.518 -0.0704  0.1668  0.0778
    1DIPC   PO425322  16.421  13.994   2.742  0.2554 -0.0012  0.1549
    1DIPC   GL125323  16.622  13.853   3.047 -0.2660 -0.2066 -0.2567
    1DIPC   GL225324  16.873  13.654   2.984  0.1052  0.0552  0.0007
    1DIPC   C1A25325  16.760  13.940   3.528  0.2296  0.0726  0.1786
    1DIPC   D2A25326  16.813  13.939   3.900 -0.1238 -0.3380 -0.2022
    1DIPC   D3A25327  16.453  14.108   3.972  0.0674  0.0970  0.0807
    1DIPC   C4A25328  16.308  14.215   4.392 -0.0593  0.0360  0.1788
    1DIPC   C1B25329  17.062  13.581   3.370 -0.0943 -0.2258  0.0159
    1DIPC   D2B25330  17.068  13.506   3.748  0.1802 -0.4243  0.1827
    1DIPC   D3B25331  17.375  13.747   4.016  0.0077  0.2935 -0.0020
    1DIPC   C4B25332  17.563  13.948   4.422 -0.2811  0.2424 -0.0331
    1DIPC   NC325333  13.480  18.744   2.726  0.1676  0.0559  0.0219
    1DIPC   PO425334  13.232  18.586   2.986 -0.1462  0.3278 -0.1696
    1DIPC   GL125335  13.266  18.425   3.482  0.0167 -0.2072 -0.1187
    1DIPC   GL225336  13.670  18.289   3.568 -0.0238  0.2287 -0.3764
    1DIPC   C1A25337  13.193  18.307   3.795  0.2110 -0.0501 -0.0697
    1DIPC   D2A25338  13.182  18.129   4.158  0.0628  0.0798  0.0272
    1DIPC   D3A25339  12.994  18.429   4.280 -0.1178 -0.0321 -0.3068
    1DIPC   C4A25340  12.700  18.432   4.657 -0.1284 -0.0474  0.1405
    1DIPC   C1B25341  13.671  18.243   3.964  0.3113  0.0088  0.0160
    1DIPC   D2B25342  13.489  18.482   4.276 -0.0213  0.0915  0.0207
    1DIPC   D3B25343  13.474  18.151   4.542  0.1142 -0.1047 -0.1588
    1DIPC   C4B25344  13.054  17.979   4.619  0.0491 -0.2394  0.0596
    1DIPC   NC325345  24.491   2.149   3.372  0.1943 -0.1589  0.0559
    1DIPC   PO425346  24.211   1.913   3.452  0.1812 -0.2024 -0.1251
    1DIPC   GL125347  24.285   2.079   3.847  0.1598 -0.0784 -0.1448
    1DIPC   GL225348  24.370   2.457   3.725 -0.2617 -0.0917 -0.2519
    1DIPC   C1A25349  24.258   2.152   4.267 -0.0410 -0.1655  0.1785
    1DIPC   D2A25350  23.993   2.331   4.615 -0.0644 -0.0158  0.2037
    1DIPC   D3A25351  23.776   2.046   4.701 -0.0654 -0.1974 -0.2459
    1DIPC   C4A25352  23.996   2.024   5.135 -0.0125  0.0729  0.2650
    1DIPC   C1B25353  24.494   2.579   4.223 -0.1913 -0.1295 -0.0696
    1DIPC   D2B25354  24.574   2.485   4.658  0.2844 -0.0136  0.1834
    1DIPC   D3B25355  24.569   2.800   5.050  0.0266  0.0920 -0.0526
    1DIPC   C4B25356  24.896   3.078   5.131  0.0669 -0.0072  0.0126
    1DIPC   NC325357   8.016  28.803   3.052 -0.2059  0.0051 -0.0960
    1DIPC   PO425358   7.960  28.747   3.495 -0.0479 -0.2463 -0.1071
    1DIPC   GL125359   7.894  29.024   3.895  0.0505 -0.0802  0.1365
    1DIPC   GL225360   8.125  29.388   3.845 -0.1017  0.2444 -0.0106
    1DIPC   C1A25361   7.883  29.093   4.381  0.0399  0.2003 -0.1108
    1DIPC   D2A25362   7.907  29.074   4.786  0.1258  0.2061 -0.1491
    1DIPC   D3A25363   7.909  28.927   5.197 -0.1827  0.2906 -0.0246
    1DIPC   C4A25364   8.183  28.736   5.498  0.0734 -0.0326  0.2923
    1DIPC   C1B25365   8.585  29.252   3.800 -0.1928 -0.0367 -0.1077
    1DIPC   D2B25366   8.984  29.424   3.773  0.0062 -0.1617 -0.1322
    1DIPC   D3B25367   9.404  29.258   3.794  0.0100 -0.0280  0.0495
    1DIPC   C4B25368   9.595  28.722   3.713 -0.4339 -0.3063  0.0151
    1DIPC   NC325369   4.549   2.216   4.321 -0.2031 -0.2221  0.0722
    1DIPC   PO425370   4.340   2.566   4.318 -0.0888  0.4491 -0.0748
    1DIPC   GL125371   4.352   2.471   4.821 -0.0508 -0.0619 -0.1407
    1DIPC   GL225372   4.380   2.172   5.142  0.0269 -0.0044 -0.0669
    1DIPC   C1A25373   4.400   2.576   5.372  0.1916 -0.4059 -0.0984
    1DIPC   D2A25374   4.533   2.806   5.714 -0.1990  0.2983  0.0613
    1DIPC   D3A25375   4.828   3.153   5.747 -0.1217  0.0461 -0.0360
    1DIPC   C4A25376   4.656   3.611   5.860 -0.2997 -0.1186  0.0101
    1DIPC   C1B25377   4.461   2.113   5.577 -0.1866 -0.2661 -0.0975
    1DIPC   D2B25378   4.617   2.272   5.918 -0.0458 -0.0350 -0.1711
    1DIPC   D3B25379   4.990   2.171   5.638 -0.1792 -0.1136 -0.0647
    1DIPC   C4B25380   4.942   2.524   5.550 -0.0742 -0.2164  0.1269
    1DIPC   NC325381  27.991   5.016   4.403 -0.1454  0.2034  0.0359
    1DIPC   PO425382  28.409   4.957   4.366  0.1029  0.0973 -0.5343
    1DIPC   GL125383  28.562   5.058   4.690  0.1669  0.2433 -0.2464
    1DIPC   GL225384  28.456   5.336   4.740 -0.0525  0.0958 -0.0354
    1DIPC   C1A25385  28.627   4.758   5.027 -0.1801  0.1927  0.1284
    1DIPC   D2A25386  28.923   4.532   5.207 -0.2805 -0.0029 -0.1983
    1DIPC   D3A25387  29.162   4.618   5.716  0.0477 -0.0122 -0.0378
    1DIPC   C4A25388  29.212   4.257   6.016  0.1712  0.2611 -0.1788
    1DIPC   C1B25389  28.628   5.480   5.118 -0.1514  0.2721 -0.1937
    1DIPC   D2B25390  28.952   5.576   5.371  0.2698  0.1329 -0.0604
    1DIPC   D3B25391  28.911   5.406   5.723  0.1280 -0.3260  0.2799
    1DIPC   C4B25392  29.092   5.090   5.935 -0.0689  0.3434 -0.1857
    1DIPC   NC325393   8.365   2.517   3.154  0.1213  0.0445 -0.3563
    1DIPC   PO425394   8.316   2.948   3.394  0.2393 -0.1460  0.1208
    1DIPC   GL125395   8.497   2.953   3.745 -0.2891  0.3034 -0.2308
    1DIPC   GL225396   8.438   3.046   4.032 -0.1145  0.1709 -0.0163
    1DIPC   C1A25397   8.865   2.846   3.971  0.2029  0.0427  0.0231
    1DIPC   D2A25398   9.287   3.102   3.934  0.1519  0.2876 -0.0732
    1DIPC   D3A25399   9.475   3.223   4.367  0.2530 -0.0306 -0.2055
    1DIPC   C4A25400   9.511   3.622   4.601  0.0358 -0.0632  0.0324
    1DIPC   C1B25401   8.495   2.909   4.487  0.0973 -0.0260  0.0037
    1DIPC   D2B25402   8.591   3.059   4.812  0.2292 -0.0681 -0.0782
    1DIPC   D3B25403   8.390   2.612   4.922  0.0568  0.1500 -0.0996
    1DIPC   C4B25404   8.239   2.397   5.287 -0.0544 -0.1423 -0.1151
    1DIPC   NC325405  27.721  17.880   4.177 -0.1050  0.0565  0.1109
    1DIPC   PO425406  27.683  18.195   4.072  0.1164  0.1522 -0.0358
    1DIPC   GL125407  27.646  18.357   4.443  0.0744 -0.2810 -0.0005
    1DIPC   GL225408  27.680  18.050   4.693 -0.1003  0.0486  0.1478
    1DIPC   C1A25409  27.330  18.406   4.778  0.0688 -0.2046  0.1253
    1DIPC   D2A25410  27.300  18.301   5.312 -0.4292 -0.2571  0.2811
    1DIPC   D3A25411  27.323  18.194   5.728  0.2625  0.4910  0.2318
    1DIPC   C4A25412  27.035  18.447   6.026 -0.0176 -0.0725 -0.2407
    1DIPC   C1B25413  27.696  17.962   5.161 -0.0835 -0.0615 -0.1774
    1DIPC   D2B25414  27.726  17.928   5.580  0.3490 -0.0616 -0.5371
    1DIPC   D3B25415  27.813  17.894   6.035 -0.0218 -0.2158  0.0206
    1DIPC   C4B25416  27.893  17.572   6.189 -0.0705 -0.0236 -0.1337
    1DIPC   NC325417  22.964  21.230   3.299  0.1550 -0.2022  0.1298
    1DIPC   PO425418  22.545  21.067   3.266 -0.3315 -0.1724  0.3661
    1DIPC   GL125419  22.505  21.272   3.625  0.0779 -0.2802 -0.0798
    1DIPC   GL225420  22.492  21.596   3.654 -0.0477  0.1342  0.1550
    1DIPC   C1A25421  22.276  21.142   3.952 -0.1741  0.0114  0.1293
    1DIPC   D2A25422  22.223  20.783   4.306  0.3509  0.0818 -0.2936
    1DIPC   D3A25423  22.637  20.797   4.555  0.2262 -0.1007 -0.0242
    1DIPC   C4A25424  22.846  20.395   4.678 -0.0030 -0.5167  0.0863
    1DIPC   C1B25425  22.596  21.489   4.054  0.1147 -0.2709 -0.2096
    1DIPC   D2B25426  22.347  21.259   4.420  0.1316  0.0824 -0.2127
    1DIPC   D3B25427  22.538  21.664   4.516 -0.0957  0.0580 -0.0957
    1DIPC   C4B25428  22.999  21.754   4.402 -0.1691  0.1446 -0.1454
    1DIPC   NC325429   6.479   7.124   2.547 -0.2418  0.3650 -0.1213
    1DIPC   PO425430   6.360   7.421   2.966 -0.1706  0.1047  0.0580
    1DIPC   GL125431   6.314   7.532   3.379  0.2464  0.2208  0.1495
    1DIPC   GL225432   6.610   7.668   3.439  0.1381  0.0054  0.0968
    1DIPC   C1A25433   6.202   7.677   3.743 -0.2553 -0.1461 -0.1101
    1DIPC   D2A25434   6.430   7.731   4.084  0.2688  0.1022 -0.0776
    1DIPC   D3A25435   6.314   8.215   4.035 -0.0474  0.1209 -0.0336
    1DIPC   C4A25436   6.326   8.478   3.643  0.1676 -0.3399 -0.0864
    1DIPC   C1B25437   6.617   8.016   3.721  0.1200 -0.1517  0.1008
    1DIPC   D2B25438   6.774   8.156   4.014 -0.0541 -0.1409  0.2861
    1DIPC   D3B25439   7.170   8.313   3.999 -0.1572  0.1100  0.1709
    1DIPC   C4B25440   7.321   8.399   4.343  0.0112 -0.0175  0.1014
    1DIPC   NC325441  21.993  24.918   3.187 -0.2297 -0.2832 -0.2708
    1DIPC   PO425442  21.720  25.335   3.032 -0.2183  0.2309 -0.1928
    1DIPC   GL125443  21.642  25.207   3.487  0.3178 -0.3130 -0.0131
    1DIPC   GL225444  21.757  25.453   3.736 -0.1906 -0.2214  0.1487
    1DIPC   C1A25445  21.341  24.890   3.758 -0.0178 -0.0036  0.2685
    1DIPC   D2A25446  21.328  24.589   4.012 -0.1738  0.1158  0.2654
    1DIPC   D3A25447  21.680  24.257   3.895  0.0876 -0.0595  0.1134
    1DIPC   C4A25448  21.718  23.934   4.158  0.1229 -0.0117  0.0290
    1DIPC   C1B25449  21.329  25.431   3.764  0.0513  0.1602  0.0297
    1DIPC   D2B25450  21.032  25.216   3.943 -0.1867 -0.0723 -0.3016
    1DIPC   D3B25451  21.047  25.485   4.310 -0.2462 -0.2097  0.2119
    1DIPC   C4B25452  20.844  25.839   4.382 -0.3869 -0.0143 -0.3074
    1DIPC   NC325453   3.632   1.383   3.739  0.1641  0.0544  0.0902
    1DIPC   PO425454   3.545   1.002   4.086 -0.2781  0.2447  0.0928
    1DIPC   GL125455   3.317   1.027   4.574  0.0350 -0.2346 -0.1854
    1DIPC   GL225456   3.513   0.857   4.781 -0.0060  0.0140  0.3278
    1DIPC   C1A25457   3.286   1.244   5.019  0.0436  0.0083  0.0820
    1DIPC   D2A25458   3.181   1.287   5.463 -0.1444  0.0533 -0.1137
    1DIPC   D3A25459   3.185   1.102   5.940  0.1985 -0.3309 -0.0123
    1DIPC   C4A25460   3.469   1.157   6.251 -0.0223 -0.0373 -0.3347
    1DIPC   C1B25461   3.571   0.575   5.102  0.3408 -0.2491 -0.2450
    1DIPC   D2B25462   3.776   0.792   5.397  0.1171  0.0838 -0.0327
    1DIPC   D3B25463   3.976   0.508   5.560  0.1169 -0.1097 -0.2897
    1DIPC   C4B25464   4.149   0.490   5.917  0.1521 -0.1881  0.2053
    1DIPC   NC325465   4.727   5.566   3.769 -0.0959  0.1223  0.0660
    1DIPC   PO425466   5.138   5.670   3.792  0.4001 -0.0795  0.1019
    1DIPC   GL125467   5.064   5.544   4.202  0.1727  0.1728  0.1837
    1DIPC   GL225468   4.799   5.577   4.243  0.1632  0.0328  0.1431
    1DIPC   C1A25469   4.999   5.355   4.623 -0.1696  0.0848 -0.1738
    1DIPC   D2A25470   4.730   4.964   4.924 -0.0053  0.0275  0.0113
    1DIPC   D3A25471   4.468   5.341   5.003  0.3721 -0.2199  0.3489
    1DIPC   C4A25472   4.234   5.524   4.780  0.1701 -0.0560 -0.0127
    1DIPC   C1B25473   4.638   5.745   4.552 -0.0370 -0.4061 -0.0706
    1DIPC   D2B25474   4.714   6.027   4.751 -0.1919  0.0338 -0.3356
    1DIPC   D3B25475   4.479   5.926   5.018  0.1361  0.0794 -0.1681
    1DIPC   C4B25476   4.665   5.820   5.457  0.0621  0.1157 -0.1235
    1DIPC   NC325477   5.593  19.488   3.123 -0.3729 -0.0044  0.2714
    1DIPC   PO425478   5.236  19.450   3.220  0.2555  0.1359  0.0932
    1DIPC   GL125479   5.297  19.317   3.554 -0.2393  0.2448 -0.1792
    1DIPC   GL225480   5.050  19.385   3.794 -0.1380  0.0957 -0.0289
    1DIPC   C1A25481   5.531  19.616   3.776  0.0676 -0.1580  0.2408
    1DIPC   D2A25482   5.803  19.786   4.065  0.2956 -0.1295  0.0478
    1DIPC   D3A25483   5.574  19.478   4.275  0.0279  0.4216 -0.1146
    1DIPC   C4A25484   5.562  19.497   4.735  0.2006  0.3868  0.0375
    1DIPC   C1B25485   5.107  19.207   4.243  0.0496  0.0887 -0.0480
    1DIPC   D2B25486   4.830  19.218   4.707  0.0005 -0.1006 -0.1237
    1DIPC   D3B25487   4.472  19.393   4.445 -0.0516  0.0270 -0.2372
    1DIPC   C4B25488   4.461  19.265   4.069  0.0785  0.0731 -0.0267
    1DIPC   NC325489  11.421  23.376   3.263 -0.1492  0.1323 -0.2717
    1DIPC   PO425490  11.228  23.257   3.663  0.3025  0.0042 -0.1819
    1DIPC   GL125491  11.442  23.417   3.998 -0.0146 -0.1596  0.2966
    1DIPC   GL225492  11.309  23.590   4.240 -0.2165  0.2271  0.1253
    1DIPC   C1A25493  11.813  23.399   4.316 -0.0244 -0.2278  0.2830
    1DIPC   D2A25494  11.845  23.211   4.720  0.0865  0.2586 -0.3175
    1DIPC   D3A25495  11.445  23.100   4.442  0.2645 -0.0666  0.1079
    1DIPC   C4A25496  11.690  22.913   4.072  0.3494 -0.1375  0.2479
    1DIPC   C1B25497  11.525  23.633   4.707  0.0873 -0.1116  0.0671
    1DIPC   D2B25498  11.953  23.782   4.938  0.0512  0.2400 -0.0527
    1DIPC   D3B25499  11.685  23.975   5.177  0.1320  0.1047 -0.1739
    1DIPC   C4B25500  11.783  24.326   5.348  0.0221  0.0078 -0.1799
    1DIPC   NC325501   7.199  16.200   2.240 -0.0083 -0.1000  0.0916
    1DIPC   PO425502   6.856  15.848   2.233 -0.2025  0.1987 -0.1038
    1DIPC   GL125503   7.045  15.720   2.635 -0.1184 -0.1347  0.1888
    1DIPC   GL225504   7.066  16.029   2.697 -0.0999  0.2614 -0.4267
    1DIPC   C1A25505   7.453  15.591   2.812  0.0302  0.2897 -0.1237
    1DIPC   D2A25506   7.869  15.739   2.779  0.0879 -0.0720 -0.0706
    1DIPC   D3A25507   8.161  15.490   2.870  0.0211 -0.0558  0.0740
    1DIPC   C4A25508   8.301  15.072   2.758  0.1467  0.0353  0.0775
    1DIPC   C1B25509   7.433  16.115   3.009  0.0146  0.0053 -0.1351
    1DIPC   D2B25510   7.626  16.335   3.368  0.0880 -0.0590 -0.0629
    1DIPC   D3B25511   7.317  16.699   3.394 -0.2038  0.1722 -0.2864
    1DIPC   C4B25512   6.995  16.684   3.589  0.0053  0.0490 -0.0662
    1DIPC   NC325513   2.471  18.772   3.562  0.1495  0.2225  0.2125
    1DIPC   PO425514   2.323  18.539   3.871 -0.0164 -0.1548  0.2200
    1DIPC   GL125515   2.096  18.413   4.223  0.0135 -0.0564  0.3621
    1DIPC   GL225516   1.895  18.285   4.108 -0.0021  0.1183 -0.2101
    1DIPC   C1A25517   2.081  18.375   4.559 -0.0919  0.0581  0.3305
    1DIPC   D2A25518   2.098  18.669   4.942 -0.1932  0.2906 -0.0936
    1DIPC   D3A25519   2.426  18.420   5.170  0.2458 -0.0064 -0.0470
    1DIPC   C4A25520   2.434  18.010   5.263 -0.0324  0.3258  0.1600
    1DIPC   C1B25521   1.972  17.901   4.194 -0.3804  0.4419  0.1178
    1DIPC   D2B25522   1.961  17.529   4.484 -0.0432 -0.0272 -0.0833
    1DIPC   D3B25523   1.923  17.194   4.946  0.2533 -0.3226  0.2703
    1DIPC   C4B25524   1.815  17.245   5.451  0.0791  0.0299  0.1576
    1DIPC   NC325525  11.318  27.720   2.971 -0.2685 -0.0408 -0.0004
    1DIPC   PO425526  11.679  27.646   3.217 -0.0735 -0.2712  0.3561
    1DIPC   GL125527  11.562  27.640   3.656  0.1047  0.0825 -0.0831
    1DIPC   GL225528  11.827  27.900   3.807  0.0718 -0.1651 -0.0299
    1DIPC   C1A25529  11.355  27.643   3.967 -0.2637 -0.2292  0.3122
    1DIPC   D2A25530  11.207  27.629   4.334 -0.0867 -0.2276 -0.1127
    1DIPC   D3A25531  10.991  27.937   4.513 -0.0614 -0.4015  0.2107
    1DIPC   C4A25532  10.865  27.913   4.890 -0.2064  0.0779 -0.0741
    1DIPC   C1B25533  11.655  27.862   4.265 -0.1677  0.0938 -0.1262
    1DIPC   D2B25534  11.655  28.112   4.712  0.6185 -0.2221 -0.1311
    1DIPC   D3B25535  12.076  27.945   4.762  0.0180  0.0871 -0.0240
    1DIPC   C4B25536  12.359  27.943   4.449 -0.0052 -0.0665 -0.0266
    1CHOL   ROH25537   6.505  10.223   3.265 -0.3707  0.1622  0.0897
    1CHOL    R125538   6.375  10.328   3.493 -0.2011  0.1731  0.1827
    1CHOL    R225539   6.328  10.177   3.720 -0.2781  0.1023  0.1214
    1CHOL    R325540   6.459  10.381   3.843 -0.0425 -0.0847  0.1864
    1CHOL    R425541   6.288  10.266   4.052 -0.3082  0.1507  0.1046
    1CHOL    R525542   6.296  10.475   3.992  0.0190  0.1443  0.1119
    1CHOL    C125543   6.388  10.509   4.361 -0.1045  0.0031  0.1556
    1CHOL    C225544   6.177  10.650   4.678 -0.1272 -0.0777  0.2554
    1CHOL   ROH25545  22.770   0.115   6.606  0.2205  0.0340  0.0663
    1CHOL    R125546  22.988  -0.037   6.507  0.1938 -0.0099  0.0744
    1CHOL    R225547  22.954  -0.282   6.383  0.1538 -0.0290  0.1221
    1CHOL    R325548  23.097  -0.164   6.184  0.1495 -0.0818  0.0876
    1CHOL    R425549  23.095  -0.449   6.116  0.1154 -0.0935  0.1419
    1CHOL    R525550  23.271  -0.321   6.134  0.1293 -0.1081  0.1028
    1CHOL    C125551  23.311  -0.436   5.773  0.0890 -0.1805  0.1211
    1CHOL    C225552  23.685  -0.493   5.701  0.1695 -0.0872 -0.1319
    1CHOL   ROH25553   5.980  17.028   3.519 -0.0450 -0.0966 -0.0185
    1CHOL    R125554   6.038  16.820   3.702  0.1834 -0.0060  0.0142
    1CHOL    R225555   6.261  16.823   3.866  0.0869  0.3529  0.1403
    1CHOL    R325556   6.078  16.789   4.063  0.0282  0.0572  0.0392
    1CHOL    R425557   6.331  16.705   4.183  0.0387  0.0609  0.0457
    1CHOL    R525558   6.147  16.589   4.175  0.0936 -0.0299 -0.1417
    1CHOL    C125559   6.199  16.604   4.553 -0.0445 -0.3869 -0.1043
    1CHOL    C225560   6.282  16.805   4.899  0.1606 -0.1230  0.2667
    1CHOL   ROH25561   5.771  15.179   5.849 -0.0249 -0.2287 -0.0989
    1CHOL    R125562   5.896  15.188   5.595  0.0005 -0.1955 -0.0867
    1CHOL    R225563   6.148  15.084   5.549 -0.0396 -0.3015 -0.1066
    1CHOL    R325564   6.019  14.947   5.353 -0.0964 -0.1686 -0.1607
    1CHOL    R425565   6.283  15.006   5.241 -0.0961 -0.2090 -0.1538
    1CHOL    R525566   6.091  15.052   5.150 -0.0813 -0.1060 -0.1171
    1CHOL    C125567   6.241  14.832   4.877 -0.1824 -0.0304 -0.2321
    1CHOL    C225568   6.437  15.033   4.549  0.1160  0.1509 -0.0017
    1CHOL   ROH25569   2.043  11.486   3.881  0.3579 -0.1481 -0.1769
    1CHOL    R125570   2.083  11.511   4.161 -0.0976 -0.1761 -0.1023
    1CHOL    R225571   1.921  11.383   4.346 -0.0842 -0.6356 -0.3895
    1CHOL    R325572   2.158  11.287   4.437  0.0226 -0.1333 -0.1004
    1CHOL    R425573   1.995  11.317   4.677 -0.2271 -0.1960 -0.2623
    1CHOL    R525574   2.193  11.399   4.645 -0.3429  0.1277 -0.1715
    1CHOL    C125575   2.260  11.188   4.956 -0.2102  0.5316  0.0832
    1CHOL    C225576   2.220  11.183   5.407 -0.3461 -0.1205  0.1561
    1CHOL   ROH25577  14.381  26.766   6.156  0.0709 -0.0217  0.1199
    1CHOL    R125578  14.298  26.674   5.902 -0.0528 -0.0339  0.1659
    1CHOL    R225579  14.318  26.830   5.674 -0.0653 -0.0876  0.1390
    1CHOL    R325580  14.454  26.615   5.578 -0.1901 -0.1618  0.1188
    1CHOL    R425581  14.395  26.777   5.341  0.0323 -0.0059  0.1467
    1CHOL    R525582  14.349  26.566   5.369 -0.1491  0.0076  0.0475
    1CHOL    C125583  14.569  26.544   5.058 -0.0280 -0.0281  0.1322
    1CHOL    C225584  14.492  26.660   4.674 -0.1776 -0.1220  0.0243
    1CHOL   ROH25585  17.404  28.826   3.444 -0.1475 -0.1818 -0.0085
    1CHOL    R125586  17.291  28.933   3.681 -0.1338 -0.0545 -0.0574
    1CHOL    R225587  17.176  28.774   3.875 -0.1554  0.0505  0.0222
    1CHOL    R325588  17.351  28.903   4.038 -0.1352  0.1058 -0.0444
    1CHOL    R425589  17.136  28.814   4.216 -0.1485  0.2460  0.0004
    1CHOL    R525590  17.212  29.017   4.196 -0.1114  0.2177 -0.1078
    1CHOL    C125591  17.277  28.959   4.568 -0.1256  0.4121 -0.0747
    1CHOL    C225592  16.907  28.968   4.744 -0.0611  0.0142  0.6467
    1CHOL   ROH25593  21.761  26.189   6.419  0.1696 -0.0430  0.0780
    1CHOL    R125594  21.991  26.232   6.261  0.0720  0.1958 -0.0039
    1CHOL    R225595  22.083  26.046   6.078  0.3126  0.1987  0.1116
    1CHOL    R325596  22.068  26.256   5.906 -0.0463  0.0568 -0.0403
    1CHOL    R425597  22.188  26.040   5.749  0.2420  0.1135  0.0903
    1CHOL    R525598  22.268  26.241   5.776 -0.0499  0.2608 -0.0757
    1CHOL    C125599  22.235  26.233   5.396 -0.1361 -0.0693 -0.0648
    1CHOL    C225600  22.502  26.534   5.341  0.1070 -0.1302  0.2578
    1CHOL   ROH25601   6.312  18.350   3.814  0.0986 -0.0683 -0.0686
    1CHOL    R125602   6.474  18.409   4.038  0.0367 -0.0447 -0.0298
    1CHOL    R225603   6.371  18.503   4.277 -0.0373 -0.0915 -0.0438
    1CHOL    R325604   6.504  18.291   4.382 -0.0038 -0.0652 -0.0330
    1CHOL    R425605   6.543  18.507   4.576 -0.0687 -0.0580 -0.0260
    1CHOL    R525606   6.699  18.387   4.482 -0.0337 -0.0249 -0.0120
    1CHOL    C125607   6.768  18.309   4.849 -0.0556 -0.0136 -0.0054
    1CHOL    C225608   7.072  18.427   5.054 -0.2478 -0.0375  0.1077
    1CHOL   ROH25609   6.154  21.305   3.652  0.0294  0.0789  0.0571
    1CHOL    R125610   5.972  21.304   3.869 -0.1579  0.1647 -0.0968
    1CHOL    R225611   6.055  21.314   4.132 -0.3697 -0.0542 -0.0210
    1CHOL    R325612   5.888  21.528   4.144 -0.1534  0.1209 -0.0584
    1CHOL    R425613   5.978  21.488   4.421 -0.5159 -0.1966  0.0276
    1CHOL    R525614   5.771  21.501   4.351 -0.4292  0.0803 -0.2116
    1CHOL    C125615   5.776  21.791   4.599 -0.3978 -0.1151  0.0208
    1CHOL    C225616   5.560  21.684   4.871 -0.0274 -0.0160 -0.1354
    1CHOL   ROH25617  14.120  28.800   3.049 -0.0619  0.0840 -0.0100
    1CHOL    R125618  14.073  28.953   3.283 -0.1870 -0.0256  0.0387
    1CHOL    R225619  14.048  28.838   3.533  0.0685 -0.1147  0.0319
    1CHOL    R325620  14.244  29.015   3.598 -0.1469  0.1492 -0.0183
    1CHOL    R425621  14.158  28.902   3.854  0.2247 -0.1306 -0.0184
    1CHOL    R525622  14.170  29.114   3.803 -0.1372 -0.0814  0.0946
    1CHOL    C125623  14.407  29.105   4.102  0.1137  0.1078 -0.0948
    1CHOL    C225624  14.652  29.352   4.173  0.0249 -0.0733 -0.1240
    1CHOL   ROH25625  27.114  18.793   4.495 -0.1005 -0.1163 -0.1866
    1CHOL    R125626  27.060  18.839   4.768 -0.2053  0.0079 -0.2277
    1CHOL    R225627  26.836  18.737   4.895 -0.0643 -0.2502 -0.1808
    1CHOL    R325628  27.020  18.636   5.068  0.0792  0.1671 -0.0771
    1CHOL    R425629  26.761  18.586   5.197  0.1353 -0.1367 -0.0724
    1CHOL    R525630  26.933  18.688   5.285 -0.0288  0.2018 -0.1275
    1CHOL    C125631  26.890  18.404   5.535  0.3862  0.3211  0.0879
    1CHOL    C225632  26.728  18.058   5.718 -0.0690  0.2270 -0.1171
    1CHOL   ROH25633  28.333   2.680   4.617  0.1351  0.2073  0.1515
    1CHOL    R125634  28.475   2.635   4.857  0.1885 -0.1076  0.0668
    1CHOL    R225635  28.351   2.633   5.105  0.3157  0.0926  0.1369
    1CHOL    R325636  28.470   2.389   5.125 -0.1408 -0.1497  0.0255
    1CHOL    R425637  28.399   2.460   5.400  0.2306 -0.0130  0.0890
    1CHOL    R525638  28.596   2.401   5.328  0.0602 -0.4007 -0.0808
    1CHOL    C125639  28.538   2.130   5.591 -0.2476 -0.3019 -0.0433
    1CHOL    C225640  28.598   1.712   5.696 -0.0932  0.0073  0.0708
    1CHOL   ROH25641  20.709  26.306   3.860 -0.2397 -0.0796  0.0495
    1CHOL    R125642  20.802  26.442   4.090 -0.1560 -0.0598  0.0043
    1CHOL    R225643  20.765  26.344   4.346 -0.1850  0.0308  0.0353
    1CHOL    R325644  21.035  26.373   4.362 -0.1693 -0.0973  0.0062
    1CHOL    R425645  20.953  26.296   4.632 -0.2027  0.1360  0.0648
    1CHOL    R525646  21.072  26.470   4.577 -0.1139  0.0369 -0.0626
    1CHOL    C125647  21.316  26.295   4.813 -0.1980  0.0772  0.0546
    1CHOL    C225648  21.458  26.060   5.152 -0.1257  0.1477 -0.1133
    1CHOL   ROH25649   5.126   0.295   4.822 -0.0210  0.1266  0.0809
    1CHOL    R125650   5.013   0.118   5.011 -0.0810  0.0764 -0.0012
    1CHOL    R225651   5.072   0.131   5.281 -0.0415 -0.0984 -0.0016
    1CHOL    R325652   4.802   0.147   5.307 -0.0312  0.0148  0.0412
    1CHOL    R425653   4.899   0.087   5.577 -0.0174 -0.1361  0.0070
    1CHOL    R525654   4.747  -0.023   5.466 -0.0845 -0.0247 -0.0171
    1CHOL    C125655   4.544   0.076   5.773  0.0063 -0.0518  0.0522
    1CHOL    C225656   4.488   0.085   6.077  0.0321  0.1081  0.1347
    1CHOL   ROH25657  23.049   7.769   6.019 -0.0023 -0.0395 -0.0953
    1CHOL    R125658  22.964   7.699   5.759 -0.1059  0.0571 -0.0916
    1CHOL    R225659  22.841   7.879   5.588 -0.0472  0.1707 -0.0424
    1CHOL    R325660  23.039   7.804   5.418 -0.1173  0.0829 -0.0808
    1CHOL    R425661  22.825   7.897   5.243 -0.0833  0.1479 -0.0395
    1CHOL    R525662  22.925   7.705   5.233 -0.1720  0.1232 -0.0511
    1CHOL    C125663  23.002   7.837   4.884 -0.1699  0.0521 -0.0740
    1CHOL    C225664  23.070   7.921   4.490  0.0898  0.2722 -0.0687
    1CHOL   ROH25665  10.281  28.206   5.316 -0.0331  0.1386  0.0066
    1CHOL    R125666  10.375  28.019   5.126 -0.0664 -0.0020  0.1279
    1CHOL    R225667  10.206  27.855   4.982 -0.1134  0.1112  0.0583
    1CHOL    R325668  10.336  27.962   4.769  0.1365 -0.0695  0.1143
    1CHOL    R425669  10.233  27.705   4.672 -0.3344  0.1388  0.0237
    1CHOL    R525670  10.439  27.774   4.662 -0.1921 -0.2440  0.0862
    1CHOL    C125671  10.370  27.718   4.291 -0.2285 -0.0145  0.0560
    1CHOL    C225672  10.372  27.595   3.907  0.1922  0.2583 -0.2708
    1CHOL   ROH25673  19.282  27.628   3.546  0.0344  0.0603 -0.0968
    1CHOL    R125674  19.292  27.703   3.819  0.0103 -0.0408 -0.0680
    1CHOL    R225675  19.143  27.912   3.921  0.0757 -0.0164 -0.0243
    1CHOL    R325676  19.057  27.723   4.096 -0.0374 -0.0438 -0.1082
    1CHOL    R425677  19.002  27.977   4.230  0.3151 -0.0712  0.0995
    1CHOL    R525678  19.114  27.809   4.311  0.1777 -0.2537 -0.0770
    1CHOL    C125679  18.838  27.836   4.574  0.3482 -0.1288  0.0929
    1CHOL    C225680  18.633  27.847   4.888  0.4479 -0.0431  0.2916
    1CHOL   ROH25681  23.394   0.800   6.558  0.1462  0.0782 -0.2609
    1CHOL    R125682  23.347   0.893   6.295  0.1081 -0.0236 -0.2908
    1CHOL    R225683  23.551   0.958   6.121  0.0833  0.1802 -0.2486
    1CHOL    R325684  23.424   0.782   5.957  0.3265  0.0011 -0.2502
    1CHOL    R425685  23.603   0.932   5.780 -0.0188  0.3917 -0.2813
    1CHOL    R525686  23.388   0.904   5.755  0.0139  0.0105 -0.1933
    1CHOL    C125687  23.513   0.752   5.428  0.1502  0.3468 -0.3018
    1CHOL    C225688  23.521   0.622   5.112 -0.0350  0.0985 -0.3836
    1CHOL   ROH25689  22.114   5.914   6.165 -0.3228 -0.2214  0.1800
    1CHOL    R125690  22.109   5.745   5.938 -0.2213 -0.0393  0.0391
    1CHOL    R225691  22.235   5.810   5.701 -0.0514  0.1205  0.1696
    1CHOL    R325692  22.354   5.568   5.735 -0.1357  0.0618  0.0545
    1CHOL    R425693  22.443   5.658   5.470 -0.1800  0.1102  0.0593
    1CHOL    R525694  22.348   5.468   5.518 -0.2397  0.1333  0.0251
    1CHOL    C125695  22.675   5.342   5.368 -0.3336  0.0491 -0.1129
    1CHOL    C225696  22.779   5.003   5.156  0.2867  0.2211  0.2178
    1CHOL   ROH25697  19.726  14.007   2.999 -0.0249  0.0671  0.0272
    1CHOL    R125698  19.809  14.122   3.245  0.0607  0.1410 -0.0373
    1CHOL    R225699  19.822  13.978   3.480  0.0149  0.2472  0.0229
    1CHOL    R325700  20.077  14.069   3.484  0.0628  0.1234 -0.0410
    1CHOL    R425701  20.016  14.008   3.764  0.2270 -0.2092 -0.0633
    1CHOL    R525702  20.092  14.197   3.686  0.2595 -0.1369  0.1214
    1CHOL    C125703  20.369  14.111   3.934  0.3956 -0.5914 -0.1736
    1CHOL    C225704  20.208  14.206   4.279 -0.2958 -0.2498  0.3058
    1CHOL   ROH25705   0.655  27.575   4.981 -0.0495 -0.0832  0.0664
    1CHOL    R125706   0.696  27.717   5.223  0.0402 -0.0933  0.0570
    1CHOL    R225707   0.560  27.949   5.284  0.1347 -0.0428  0.0736
    1CHOL    R325708   0.495  27.813   5.510  0.1208 -0.0139  0.0874
    1CHOL    R425709   0.362  28.073   5.539  0.0004 -0.0622 -0.0201
    1CHOL    R525710   0.497  27.980   5.682 -0.0046  0.0311  0.0468
    1CHOL    C125711   0.186  28.017   5.899 -0.0908 -0.0463 -0.0617
    1CHOL    C225712  -0.083  27.926   6.104 -0.5430 -0.1168 -0.0313
    1CHOL   ROH25713   2.681  24.098   4.139 -0.2403  0.1498 -0.0027
    1CHOL    R125714   2.868  24.140   4.347 -0.2748  0.1642  0.0230
    1CHOL    R225715   2.928  24.391   4.444 -0.2474  0.1699 -0.0303
    1CHOL    R325716   2.863  24.280   4.683 -0.3098  0.2468 -0.0094
    1CHOL    R425717   3.067  24.482   4.748 -0.1897  0.1534 -0.0499
    1CHOL    R525718   3.071  24.270   4.803 -0.3068  0.1535 -0.0116
    1CHOL    C125719   3.086  24.430   5.149 -0.2147  0.2155 -0.0416
    1CHOL    C225720   3.053  24.849   5.306  0.0874  0.1834 -0.0732
    1CHOL   ROH25721  22.811  22.916   6.755 -0.1179 -0.0171 -0.0451
    1CHOL    R125722  22.930  22.930   6.499 -0.2518  0.0192 -0.1067
    1CHOL    R225723  22.817  23.073   6.291 -0.2221  0.2799  0.0473
    1CHOL    R325724  23.062  23.191   6.283 -0.0952  0.0189 -0.0107
    1CHOL    R425725  22.965  23.202   6.006 -0.2505  0.3358  0.0584
    1CHOL    R525726  23.155  23.120   6.074 -0.2984  0.0759 -0.1199
    1CHOL    C125727  23.280  23.388   5.833 -0.1480  0.1235  0.0105
    1CHOL    C225728  23.067  23.194   5.455 -0.0947 -0.0864 -0.0978
    1CHOL   ROH25729  21.540   7.711   5.675 -0.0288 -0.0453 -0.0218
    1CHOL    R125730  21.439   7.670   5.414 -0.1491 -0.0705  0.0298
    1CHOL    R225731  21.524   7.464   5.251 -0.2045 -0.0659  0.0037
    1CHOL    R325732  21.259   7.407   5.238 -0.2055 -0.0987  0.1266
    1CHOL    R425733  21.385   7.209   5.065 -0.2610 -0.0445  0.0137
    1CHOL    R525734  21.222   7.343   5.011 -0.3101 -0.0514  0.1259
    1CHOL    C125735  21.055   7.007   4.944 -0.2951 -0.0629  0.1348
    1CHOL    C225736  20.902   7.028   4.509 -0.1845  0.0310  0.1735
    1CHOL   ROH25737   2.216  25.713   6.934  0.0983  0.0911  0.1599
    1CHOL    R125738   2.276  25.736   6.658 -0.0040  0.0827  0.1366
    1CHOL    R225739   2.484  25.891   6.564  0.0567 -0.0393  0.0656
    1CHOL    R325740   2.559  25.660   6.442 -0.1430 -0.0751  0.0081
    1CHOL    R425741   2.660  25.872   6.267  0.0834 -0.1182  0.0864
    1CHOL    R525742   2.534  25.704   6.208 -0.0663  0.0182  0.0177
    1CHOL    C125743   2.833  25.643   5.980 -0.0885 -0.1977  0.0445
    1CHOL    C225744   3.192  25.520   5.773  0.1215 -0.0327  0.0520
    1CHOL   ROH25745   8.399  11.570   4.318 -0.0061 -0.0128 -0.0264
    1CHOL    R125746   8.191  11.746   4.243 -0.2094 -0.1334  0.2452
    1CHOL    R225747   8.137  11.809   3.980 -0.2041  0.2864  0.3483
    1CHOL    R325748   7.886  11.728   4.045 -0.1322 -0.1521  0.1222
    1CHOL    R425749   7.849  11.907   3.816 -0.2589  0.1682  0.3687
    1CHOL    R525750   7.749  11.921   4.009 -0.3700 -0.2604  0.3633
    1CHOL    C125751   7.446  11.887   3.781 -0.2232 -0.3122  0.1684
    1CHOL    C225752   7.350  12.269   3.789  0.3028 -0.3101 -0.1690
    1CHOL   ROH25753  26.499   6.964   6.179 -0.0830  0.2243 -0.0818
    1CHOL    R125754  26.758   6.909   6.279 -0.1405  0.0396 -0.0298
    1CHOL    R225755  26.835   6.657   6.361 -0.3025 -0.0407 -0.1082
    1CHOL    R325756  27.038   6.696   6.185 -0.2338 -0.0791 -0.0373
    1CHOL    R425757  27.087   6.430   6.296 -0.3236 -0.0865 -0.0298
    1CHOL    R525758  27.228   6.595   6.289 -0.2897 -0.1180  0.0218
    1CHOL    C125759  27.424   6.335   6.092 -0.2714 -0.1492  0.0826
    1CHOL    C225760  27.590   6.219   6.354 -0.2463  0.1344  0.1082
    1CHOL   ROH25761  10.949   1.362   3.142 -0.0022  0.3528 -0.1027
    1CHOL    R125762  10.972   1.421   3.418 -0.0593  0.1740 -0.0572
    1CHOL    R225763  11.076   1.660   3.510 -0.0892  0.1217  0.1215
    1CHOL    R325764  10.841   1.673   3.646 -0.1171  0.0192  0.0819
    1CHOL    R425765  11.035   1.800   3.824 -0.2090  0.1412  0.0966
    1CHOL    R525766  10.902   1.636   3.874 -0.1340  0.0795  0.0957
    1CHOL    C125767  10.791   1.894   4.133 -0.3049  0.0564  0.0450
    1CHOL    C225768  10.397   1.981   4.370  0.0012  0.2033 -0.0997
    1CHOL   ROH25769   9.896   9.895   5.512 -0.2301  0.1013  0.0305
    1CHOL    R125770   9.794   9.705   5.329 -0.0369  0.1056 -0.0851
    1CHOL    R225771   9.532   9.616   5.338  0.0640 -0.2088 -0.1014
    1CHOL    R325772   9.531   9.694   5.077 -0.0682 -0.0254 -0.0474
    1CHOL    R425773   9.313   9.499   5.097  0.2406 -0.3931 -0.1749
    1CHOL    R525774   9.479   9.494   4.955  0.2470 -0.0285 -0.1859
    1CHOL    C125775   9.185   9.504   4.713  0.2194 -0.3283 -0.1671
    1CHOL    C225776   8.951   9.190   4.803  0.1109 -0.1277  0.3167
    1CHOL   ROH25777  20.148  20.268   4.256  0.1589  0.0026 -0.1526
    1CHOL    R125778  20.275  20.241   4.508  0.1170  0.1105 -0.1185
    1CHOL    R225779  20.443  20.030   4.567 -0.0514  0.0210  0.0700
    1CHOL    R325780  20.617  20.229   4.632  0.0991 -0.0583 -0.0867
    1CHOL    R425781  20.737  19.985   4.743  0.0701 -0.0967 -0.1590
    1CHOL    R525782  20.695  20.171   4.851  0.2474 -0.0687 -0.1449
    1CHOL    C125783  21.072  20.146   4.906  0.2820 -0.2397 -0.4395
    1CHOL    C225784  21.459  19.963   5.022 -0.1609  0.0639 -0.0772
    1CHOL   ROH25785  16.291   8.732   5.205  0.5352  0.0572  0.0439
    1CHOL    R125786  16.136   8.813   4.982  0.1554 -0.0300  0.2665
    1CHOL    R225787  16.246   8.857   4.733 -0.1361  0.5546  0.2210
    1CHOL    R325788  16.056   8.679   4.654  0.2229  0.1803  0.1629
    1CHOL    R425789  16.064   8.880   4.440 -0.3028  0.3705  0.3078
    1CHOL    R525790  15.888   8.815   4.550 -0.1259 -0.1107  0.3285
    1CHOL    C125791  15.780   8.727   4.195 -0.0624 -0.0882  0.3038
    1CHOL    C225792  15.524   8.794   3.980  0.1097 -0.0500  0.2224
    1CHOL   ROH25793  16.868  26.187   6.315  0.1003 -0.0459  0.0520
    1CHOL    R125794  16.961  26.339   6.096  0.0064 -0.0827 -0.0137
    1CHOL    R225795  17.225  26.336   6.013  0.0147  0.0657  0.0079
    1CHOL    R325796  17.115  26.272   5.773  0.0768 -0.1262  0.0284
    1CHOL    R425797  17.397  26.329   5.714  0.0064  0.2125 -0.0013
    1CHOL    R525798  17.223  26.419   5.618 -0.1152 -0.0244 -0.0116
    1CHOL    C125799  17.393  26.265   5.313  0.0598  0.1175  0.0125
    1CHOL    C225800  17.405  26.639   5.065  0.0213  0.0190  0.0263
    1CHOL   ROH25801  11.178   0.568   3.538 -0.1579 -0.0679 -0.0028
    1CHOL    R125802  11.172   0.460   3.800 -0.1166 -0.0640 -0.0005
    1CHOL    R225803  11.377   0.305   3.901 -0.0031  0.1113  0.0434
    1CHOL    R325804  11.373   0.489   4.102 -0.1964  0.1173  0.0363
    1CHOL    R425805  11.532   0.266   4.208  0.2011  0.3688 -0.0228
    1CHOL    R525806  11.358   0.358   4.302  0.0991  0.1025  0.0513
    1CHOL    C125807  11.619   0.416   4.574  0.1386  0.5245 -0.0680
    1CHOL    C225808  11.731   0.137   4.770 -0.2264  0.0622 -0.0530
    1CHOL   ROH25809   1.105   2.203   6.359  0.0661 -0.1694 -0.3843
    1CHOL    R125810   1.275   2.418   6.289 -0.0031 -0.0911 -0.3155
    1CHOL    R225811   1.459   2.401   6.084  0.0465  0.0138 -0.2828
    1CHOL    R325812   1.332   2.625   5.996 -0.0252 -0.0224 -0.2711
    1CHOL    R425813   1.529   2.563   5.787  0.1108  0.1523 -0.1931
    1CHOL    R525814   1.505   2.753   5.890 -0.0405  0.1042 -0.1412
    1CHOL    C125815   1.450   2.867   5.530  0.0810  0.1988 -0.1300
    1CHOL    C225816   1.526   3.199   5.458  0.2112 -0.0438  0.1280
    1CHOL   ROH25817  24.357  27.129   7.145  0.0564  0.1449 -0.1890
    1CHOL    R125818  24.394  26.892   6.994  0.2672  0.0535  0.0022
    1CHOL    R225819  24.260  26.843   6.757  0.1329 -0.3562  0.1520
    1CHOL    R325820  24.512  26.806   6.661  0.1136 -0.0844 -0.0174
    1CHOL    R425821  24.340  26.665   6.472  0.1388 -0.1392  0.0142
    1CHOL    R525822  24.512  26.583   6.577  0.2719 -0.0400 -0.1309
    1CHOL    C125823  24.623  26.526   6.216  0.1243  0.2424 -0.2251
    1CHOL    C225824  24.590  26.573   5.769  0.0315  0.0945 -0.3363
    1CHOL   ROH25825  25.614  17.713   4.086  0.1298  0.0796  0.0067
    1CHOL    R125826  25.487  17.720   4.338  0.0063  0.2213 -0.0574
    1CHOL    R225827  25.575  17.572   4.554 -0.3806 -0.0326 -0.0598
    1CHOL    R325828  25.579  17.813   4.678  0.0082 -0.0759  0.0251
    1CHOL    R425829  25.510  17.622   4.890 -0.1299 -0.0519 -0.0066
    1CHOL    R525830  25.399  17.802   4.836  0.0790  0.1142  0.1181
    1CHOL    C125831  25.476  17.879   5.201  0.3807 -0.1038  0.1040
    1CHOL    C225832  25.414  17.594   5.516  0.2014  0.1136 -0.2468
    1CHOL   ROH25833  22.294   8.641   5.849 -0.0273  0.1889  0.0087
    1CHOL    R125834  22.459   8.625   5.620  0.0216  0.1626  0.0463
    1CHOL    R225835  22.370   8.523   5.379  0.0779  0.1240  0.0448
    1CHOL    R325836  22.456   8.762   5.282  0.0888  0.1126  0.0246
    1CHOL    R425837  22.382   8.607   5.044  0.2068  0.0429  0.0276
    1CHOL    R525838  22.573   8.706   5.081  0.1815  0.0764  0.0856
    1CHOL    C125839  22.470   8.881   4.759  0.2919 -0.0152 -0.0013
    1CHOL    C225840  22.431   8.844   4.370 -0.0283 -0.1069 -0.0265
    1CHOL   ROH25841   8.065   4.062   6.599  0.0617  0.1098 -0.1062
    1CHOL    R125842   8.269   3.923   6.459  0.1074  0.1491 -0.0777
    1CHOL    R225843   8.513   3.864   6.573  0.0250  0.0133  0.0270
    1CHOL    R325844   8.451   3.610   6.498  0.0049  0.0760 -0.1757
    1CHOL    R425845   8.714   3.587   6.624 -0.1606 -0.1006  0.1562
    1CHOL    R525846   8.659   3.517   6.425  0.0606  0.0196  0.0459
    1CHOL    C125847   8.772   3.188   6.583 -0.2875 -0.1081  0.0409
    1CHOL    C225848   8.799   2.974   6.323 -0.4275  0.1217 -0.1334
    1CHOL   ROH25849  15.369   4.275   5.586 -0.1805 -0.0133 -0.1212
    1CHOL    R125850  15.476   4.273   5.323  0.0042 -0.0846 -0.0472
    1CHOL    R225851  15.648   4.076   5.234 -0.1399 -0.2559  0.0467
    1CHOL    R325852  15.465   4.050   5.036 -0.0294 -0.0294 -0.0889
    1CHOL    R425853  15.718   3.973   4.912 -0.0166 -0.2601  0.0742
    1CHOL    R525854  15.579   4.123   4.838  0.1845 -0.1026  0.0050
    1CHOL    C125855  15.587   3.889   4.538  0.1589 -0.0499 -0.0371
    1CHOL    C225856  15.774   3.829   4.184  0.0063  0.0175  0.0184
    1CHOL   ROH25857   9.480   2.255   6.625 -0.0095  0.0842 -0.0009
    1CHOL    R125858   9.376   2.086   6.424  0.0415  0.0293  0.0180
    1CHOL    R225859   9.105   2.069   6.369  0.0534  0.0037 -0.0366
    1CHOL    R325860   9.186   2.128   6.116  0.1058 -0.0549 -0.0335
    1CHOL    R425861   8.901   2.066   6.090  0.0900  0.0302 -0.0637
    1CHOL    R525862   9.064   1.976   5.978  0.0773 -0.0353 -0.0296
    1CHOL    C125863   8.857   2.120   5.691  0.1606 -0.0095 -0.0767
    1CHOL    C225864   8.573   1.955   5.603 -0.2107  0.1236 -0.0564
    1CHOL   ROH25865  24.299   6.947   3.663  0.0124  0.2504 -0.0741
    1CHOL    R125866  24.166   7.087   3.870  0.1168  0.1380  0.0694
    1CHOL    R225867  23.890   7.090   3.894  0.1319  0.1694  0.1763
    1CHOL    R325868  23.944   7.002   4.146  0.2090 -0.0015  0.1034
    1CHOL    R425869  23.655   7.045   4.143  0.2129  0.0787  0.2393
    1CHOL    R525870  23.797   7.128   4.286  0.2935 -0.0447  0.2388
    1CHOL    C125871  23.568   6.938   4.525  0.3326 -0.1346  0.2076
    1CHOL    C225872  23.321   6.605   4.626 -0.1978  0.0134  0.3648
    1CHOL   ROH25873  16.330  24.003   6.025 -0.3265 -0.1701  0.0684
    1CHOL    R125874  16.393  24.085   5.761 -0.3367 -0.0679  0.0967
    1CHOL    R225875  16.632  24.021   5.639 -0.2082  0.2444  0.1729
    1CHOL    R325876  16.470  23.921   5.445 -0.0176  0.0517  0.1093
    1CHOL    R425877  16.729  23.963   5.312 -0.0143  0.3632  0.2079
    1CHOL    R525878  16.535  24.040   5.247 -0.0837  0.1329  0.1365
    1CHOL    C125879  16.633  23.836   4.940  0.2773  0.2514  0.1687
    1CHOL    C225880  16.634  23.708   4.614 -0.0453  0.0896  0.1417
    1CHOL   ROH25881  21.941  28.512   6.729  0.2064 -0.0444  0.1225
    1CHOL    R125882  21.980  28.347   6.502  0.3484  0.0113  0.1082
    1CHOL    R225883  21.838  28.381   6.268  0.1158 -0.2628  0.2160
    1CHOL    R325884  22.086  28.393   6.157  0.0202  0.1828  0.0228
    1CHOL    R425885  21.914  28.286   5.944  0.0477 -0.3030  0.2096
    1CHOL    R525886  22.098  28.197   6.018  0.3043  0.1104  0.1305
    1CHOL    C125887  22.190  28.243   5.651 -0.0822  0.0919  0.0247
    1CHOL    C225888  22.419  28.209   5.262 -0.0938 -0.1954  0.0289
    1CHOL   ROH25889  20.760  25.627   3.914  0.0941  0.1116  0.0730
    1CHOL    R125890  20.520  25.584   4.057  0.0893  0.1665  0.0823
    1CHOL    R225891  20.475  25.356   4.208 -0.0558  0.0583 -0.1179
    1CHOL    R325892  20.424  25.536   4.405  0.1272 -0.0813  0.0602
    1CHOL    R425893  20.276  25.295   4.483 -0.2857  0.0504 -0.2832
    1CHOL    R525894  20.195  25.497   4.463  0.0338  0.2039 -0.0989
    1CHOL    C125895  20.112  25.428   4.829 -0.2478 -0.0849 -0.2123
    1CHOL    C225896  19.754  25.443   5.023  0.2155 -0.0395  0.1519
    1CHOL   ROH25897  13.081  16.728   5.791 -0.2105  0.2135  0.0547
    1CHOL    R125898  13.254  16.760   5.570  0.0037  0.1402  0.2078
    1CHOL    R225899  13.179  16.893   5.339  0.0655 -0.3128 -0.0910
    1CHOL    R325900  13.402  17.039   5.389 -0.2086  0.1011 -0.0288
    1CHOL    R425901  13.397  17.008   5.097  0.2722 -0.4829  0.0118
    1CHOL    R525902  13.563  16.958   5.230  0.1506  0.0068  0.3677
    1CHOL    C125903  13.734  17.212   5.002  0.1352 -0.1933  0.1299
    1CHOL    C225904  14.146  17.472   4.941 -0.1323 -0.0857 -0.1119
    1CHOL   ROH25905  18.791  16.219   3.249 -0.0526 -0.1581  0.0583
    1CHOL    R125906  18.734  16.356   3.490  0.0065 -0.0068 -0.0124
    1CHOL    R225907  18.786  16.247   3.739 -0.2225  0.0157  0.0468
    1CHOL    R325908  18.923  16.478   3.776  0.0348 -0.1284  0.0222
    1CHOL    R425909  18.937  16.342   4.035 -0.2950 -0.0287  0.0986
    1CHOL    R525910  18.868  16.545   3.999 -0.0293  0.0424 -0.0425
    1CHOL    C125911  19.153  16.615   4.242 -0.0958 -0.1900  0.1056
    1CHOL    C225912  19.168  16.413   4.543  0.1817 -0.0908  0.0288
    1CHOL   ROH25913   9.823  26.865   6.654 -0.0288  0.0240 -0.1314
    1CHOL    R125914   9.822  27.003   6.407 -0.0929  0.0565 -0.1132
    1CHOL    R225915   9.811  26.872   6.164  0.1171  0.0746 -0.1363
    1CHOL    R325916   9.596  27.034   6.123 -0.0394 -0.1385 -0.1775
    1CHOL    R425917   9.697  26.975   5.854  0.0864 -0.0092 -0.1532
    1CHOL    R525918   9.661  27.172   5.938 -0.1367 -0.0546 -0.1461
    1CHOL    C125919   9.429  27.186   5.635 -0.0785 -0.2580 -0.2016
    1CHOL    C225920   9.250  27.063   5.322 -0.0078  0.5164 -0.3924
    1CHOL   ROH25921  19.333   2.546   6.361  0.2518 -0.1317  0.0454
    1CHOL    R125922  19.291   2.492   6.087  0.1412 -0.0163  0.0387
    1CHOL    R225923  19.387   2.655   5.886  0.1562  0.0101  0.0648
    1CHOL    R325924  19.498   2.424   5.795  0.0208 -0.0115 -0.0479
    1CHOL    R425925  19.457   2.587   5.554  0.3104  0.2118  0.0540
    1CHOL    R525926  19.387   2.384   5.587  0.1192  0.2442 -0.1525
    1CHOL    C125927  19.602   2.331   5.276  0.2733  0.3091 -0.0581
    1CHOL    C225928  19.691   2.164   4.960  0.0232 -0.2148 -0.0897
    1CHOL   ROH25929  16.229  28.655   5.866 -0.0551 -0.0659  0.0673
    1CHOL    R125930  16.227  28.888   5.706  0.1019 -0.0637  0.0666
    1CHOL    R225931  16.222  28.880   5.430  0.1254 -0.0608  0.0637
    1CHOL    R325932  16.004  29.039   5.461  0.2168  0.0689  0.0439
    1CHOL    R425933  16.024  28.997   5.172  0.0284 -0.2033  0.0729
    1CHOL    R525934  16.012  29.189   5.274  0.1763 -0.1049 -0.0964
    1CHOL    C125935  15.704  29.214   5.051  0.0578 -0.1646  0.0596
    1CHOL    C225936  15.576  29.247   4.665  0.0865 -0.1265 -0.0839
    1CHOL   ROH25937  14.656   3.792   5.581  0.1763  0.0700  0.0054
    1CHOL    R125938  14.533   3.705   5.341  0.0070 -0.0788  0.1423
    1CHOL    R225939  14.628   3.777   5.090 -0.3626  0.0432  0.0278
    1CHOL    R325940  14.631   3.508   5.051 -0.0748  0.0436  0.0312
    1CHOL    R425941  14.643   3.622   4.782 -0.5244  0.0549  0.0136
    1CHOL    R525942  14.500   3.475   4.854 -0.2616 -0.1227  0.1818
    1CHOL    C125943  14.655   3.279   4.565 -0.3484  0.0621  0.0085
    1CHOL    C225944  14.844   3.191   4.231 -0.3805 -0.0549  0.0173
    1CHOL   ROH25945  13.999   2.807   6.029  0.1789  0.1741  0.0427
    1CHOL    R125946  14.105   2.804   5.767  0.1379  0.1273  0.0275
    1CHOL    R225947  14.375   2.785   5.716  0.1074 -0.1684 -0.0139
    1CHOL    R325948  14.300   2.573   5.564 -0.1527 -0.0399 -0.0703
    1CHOL    R425949  14.490   2.721   5.397  0.1089 -0.2628  0.0045
    1CHOL    R525950  14.288   2.662   5.341  0.0291  0.0277 -0.0600
    1CHOL    C125951  14.486   2.486   5.067 -0.1345 -0.1971 -0.0378
    1CHOL    C225952  14.386   2.300   4.761 -0.0416 -0.1895 -0.2338
    1CHOL   ROH25953  16.606  13.208   5.561  0.3147  0.1817 -0.0581
    1CHOL    R125954  16.464  13.285   5.328  0.1945 -0.0410 -0.0614
    1CHOL    R225955  16.532  13.506   5.178 -0.1577  0.0807 -0.0551
    1CHOL    R325956  16.538  13.326   4.974  0.1415  0.0897 -0.0574
    1CHOL    R425957  16.521  13.588   4.843 -0.2274  0.0715 -0.0545
    1CHOL    R525958  16.389  13.417   4.811  0.0289 -0.1276 -0.0785
    1CHOL    C125959  16.520  13.467   4.456  0.0129  0.0747 -0.0562
    1CHOL    C225960  16.276  13.650   4.277  0.0165  0.0214  0.3887
    1CHOL   ROH25961  12.721   3.790   5.648  0.1864 -0.1754 -0.0218
    1CHOL    R125962  12.590   3.826   5.400  0.0926  0.2717  0.0828
    1CHOL    R225963  12.637   4.044   5.237  0.6197  0.1927  0.1030
    1CHOL    R325964  12.688   3.853   5.050 -0.0778  0.0625  0.0174
    1CHOL    R425965  12.613   4.090   4.895  0.6385  0.3797  0.1264
    1CHOL    R525966  12.525   3.891   4.879 -0.0318  0.6575  0.0896
    1CHOL    C125967  12.648   3.937   4.521 -0.0054  0.3665  0.0596
    1CHOL    C225968  12.500   4.070   4.246  0.1195  0.0765  0.0649
    1CHOL   ROH25969  25.092   0.573   4.202  0.0884 -0.0248  0.0760
    1CHOL    R125970  25.143   0.602   4.479  0.1060 -0.0023  0.0713
    1CHOL    R225971  24.954   0.697   4.656  0.1684  0.1710  0.0525
    1CHOL    R325972  25.008   0.465   4.788  0.0036  0.1575  0.0972
    1CHOL    R425973  24.941   0.657   4.999  0.0643  0.2205  0.0538
    1CHOL    R525974  25.121   0.535   4.987 -0.0047  0.1162  0.1138
    1CHOL    C125975  24.984   0.416   5.323 -0.1510  0.2365  0.0966
    1CHOL    C225976  24.748   0.291   5.481  0.0761  0.1197  0.1639
    1CHOL   ROH25977  10.284  13.765   2.939  0.0737  0.0386  0.1128
    1CHOL    R125978  10.106  13.781   3.159  0.0375  0.0306  0.0839
    1CHOL    R225979   9.911  13.590   3.207  0.0196  0.0382  0.0356
    1CHOL    R325980  10.029  13.580   3.452 -0.0240  0.0120  0.0555
    1CHOL    R425981   9.805  13.392   3.469 -0.1551  0.1629  0.0615
    1CHOL    R525982   9.846  13.557   3.605 -0.0651  0.1661  0.0328
    1CHOL    C125983   9.854  13.266   3.852 -0.2979  0.2107  0.0952
    1CHOL    C225984   9.907  12.891   3.730 -0.2021  0.1067 -0.1919
    1CHOL   ROH25985  21.653   1.920   6.231  0.2257  0.1334  0.0630
    1CHOL    R125986  21.848   2.010   6.047  0.1048  0.1193 -0.0739
    1CHOL    R225987  21.947   1.849   5.845  0.0840  0.0515 -0.0354
    1CHOL    R325988  21.869   2.056   5.686 -0.0805 -0.0654 -0.1089
    1CHOL    R425989  22.096   1.934   5.545  0.0587  0.1163 -0.0296
    1CHOL    R525990  22.074   2.144   5.599 -0.1514  0.1085 -0.0937
    1CHOL    C125991  22.110   2.176   5.221 -0.1104  0.0441 -0.0952
    1CHOL    C225992  22.307   2.005   4.964 -0.1009 -0.0426  0.3845
    1CHOL   ROH25993   6.790   4.925   4.328 -0.1390  0.1082  0.0501
    1CHOL    R125994   6.961   5.005   4.539 -0.0787 -0.0512  0.0634
    1CHOL    R225995   6.898   5.212   4.711  0.0799 -0.0221  0.0896
    1CHOL    R325996   6.941   5.024   4.902 -0.0702 -0.0822  0.0652
    1CHOL    R425997   6.945   5.279   5.046  0.1893 -0.0995  0.0902
    1CHOL    R525998   7.099   5.125   5.051  0.0459 -0.2454  0.0542
    1CHOL    C125999   7.012   5.141   5.422  0.1120 -0.2010  0.0677
    1CHOL    C226000   7.322   4.963   5.685 -0.0125 -0.3183  0.3477
    1CHOL   ROH26001  19.911  16.346   3.546  0.2998  0.0262  0.0160
    1CHOL    R126002  19.872  16.283   3.820  0.2151  0.2333  0.0543
    1CHOL    R226003  19.953  16.042   3.930 -0.2173  0.1279  0.1642
    1CHOL    R326004  20.084  16.204   4.105  0.1113 -0.0212  0.0624
    1CHOL    R426005  20.078  15.943   4.236 -0.4914  0.0801  0.2633
    1CHOL    R526006  20.010  16.131   4.320 -0.0937  0.3034  0.1071
    1CHOL    C126007  20.274  16.036   4.578 -0.3427 -0.0879  0.2254
    1CHOL    C226008  20.123  15.818   4.812  0.1845 -0.2305 -0.2382
    1CHOL   ROH26009   7.401   6.447   6.125  0.3941 -0.1334  0.0662
    1CHOL    R126010   7.358   6.441   5.845  0.1994 -0.0233  0.0919
    1CHOL    R226011   7.433   6.226   5.688 -0.0605 -0.0328 -0.0211
    1CHOL    R326012   7.172   6.233   5.611 -0.1101  0.1761  0.1530
    1CHOL    R426013   7.323   6.190   5.362 -0.3033  0.0519  0.0496
    1CHOL    R526014   7.176   6.347   5.400 -0.1555  0.1735  0.1485
    1CHOL    C126015   7.014   6.176   5.100 -0.4913  0.2974  0.2542
    1CHOL    C226016   7.036   5.950   4.831  0.2873  0.1296  0.0396
    1CHOL   ROH26017   6.125  20.796   6.620  0.2648  0.0398 -0.2113
    1CHOL    R126018   6.216  20.814   6.352  0.1076  0.0312 -0.2662
    1CHOL    R226019   6.099  20.673   6.146 -0.0563  0.0747 -0.2050
    1CHOL    R326020   6.077  20.919   6.033 -0.0588  0.0873 -0.1765
    1CHOL    R426021   5.969  20.736   5.831 -0.0577  0.1114 -0.1971
    1CHOL    R526022   6.127  20.883   5.801 -0.0597  0.1154 -0.1806
    1CHOL    C126023   5.874  21.004   5.542 -0.0610  0.1444 -0.1658
    1CHOL    C226024   5.528  20.896   5.311  0.3385  0.0494  0.3030
    1CHOL   ROH26025   5.536  14.721   5.884  0.1635 -0.2332 -0.1352
    1CHOL    R126026   5.483  14.889   5.663  0.2693 -0.1235 -0.0793
    1CHOL    R226027   5.647  14.899   5.441  0.2219 -0.2305 -0.1197
    1CHOL    R326028   5.417  14.844   5.307  0.1307  0.0299 -0.0743
    1CHOL    R426029   5.615  14.896   5.097  0.1776 -0.2759 -0.1147
    1CHOL    R526030   5.421  14.993   5.119  0.2999 -0.0188 -0.1125
    1CHOL    C126031   5.380  14.842   4.771  0.0661 -0.0579 -0.0693
    1CHOL    C226032   5.331  14.550   4.545 -0.1027  0.1377 -0.1248
    1CHOL   ROH26033  27.308   3.517   4.696 -0.0420 -0.1132  0.0295
    1CHOL    R126034  27.454   3.336   4.858  0.0808 -0.0502 -0.0090
    1CHOL    R226035  27.594   3.416   5.082 -0.1220 -0.0264  0.1117
    1CHOL    R326036  27.445   3.224   5.204  0.0279 -0.2724 -0.0799
    1CHOL    R426037  27.685   3.247   5.370 -0.2158  0.1363  0.2381
    1CHOL    R526038  27.604   3.065   5.283  0.1971 -0.0075  0.1337
    1CHOL    C126039  27.597   2.970   5.652 -0.1300  0.0002  0.1318
    1CHOL    C226040  27.730   3.109   5.982  0.2266  0.1365  0.1686
    1CHOL   ROH26041  27.192   1.606   4.478 -0.1118  0.0383  0.0629
    1CHOL    R126042  27.284   1.606   4.746  0.0533 -0.0398  0.0066
    1CHOL    R226043  27.111   1.601   4.963  0.1843  0.0874  0.1062
    1CHOL    R326044  27.259   1.385   5.034  0.0625 -0.0289  0.0186
    1CHOL    R426045  27.130   1.473   5.283  0.4272  0.2137  0.1465
    1CHOL    R526046  27.343   1.440   5.252  0.3728 -0.0068 -0.0950
    1CHOL    C126047  27.280   1.195   5.537  0.4543  0.1780  0.0877
    1CHOL    C226048  27.366   1.057   5.837 -0.0455 -0.0592 -0.0361
    1CHOL   ROH26049  23.243  14.484   6.119 -0.1523 -0.1100 -0.2038
    1CHOL    R126050  23.159  14.576   5.865 -0.1412  0.1149 -0.1282
    1CHOL    R226051  23.183  14.840   5.786  0.0658  0.1417  0.0246
    1CHOL    R326052  23.316  14.732   5.576 -0.0835  0.1536 -0.0774
    1CHOL    R426053  23.264  15.009   5.496  0.1027  0.2463  0.0953
    1CHOL    R526054  23.213  14.830   5.383 -0.0729  0.3445  0.0092
    1CHOL    C126055  23.436  15.006   5.129 -0.0163  0.3185  0.0407
    1CHOL    C226056  23.666  15.004   4.865  0.2719  0.2075  0.0540
    1CHOL   ROH26057   0.974  24.117   4.681  0.0584 -0.0522  0.0185
    1CHOL    R126058   0.845  24.322   4.828  0.0531  0.0597 -0.1398
    1CHOL    R226059   0.573  24.365   4.816  0.0179 -0.1231  0.0168
    1CHOL    R326060   0.589  24.341   5.086  0.2438  0.2327  0.0423
    1CHOL    R426061   0.405  24.565   5.043 -0.3670 -0.2644 -0.1351
    1CHOL    R526062   0.584  24.566   5.167 -0.2802  0.3378 -0.2287
    1CHOL    C126063   0.323  24.658   5.429 -0.3792 -0.0128 -0.1995
    1CHOL    C226064   0.120  24.943   5.409 -0.2162 -0.2665  0.1370
    1CHOL   ROH26065  15.994  23.147   5.880 -0.0747 -0.0397  0.3293
    1CHOL    R126066  15.769  23.251   5.744 -0.0723 -0.1028  0.2766
    1CHOL    R226067  15.541  23.334   5.876  0.0051  0.1552  0.2548
    1CHOL    R326068  15.585  23.565   5.740  0.0649 -0.0230 -0.0370
    1CHOL    R426069  15.298  23.567   5.798  0.0843  0.1726  0.0533
    1CHOL    R526070  15.390  23.591   5.602  0.0339 -0.1014 -0.0079
    1CHOL    C126071  15.198  23.919   5.625  0.1864  0.0155 -0.3379
    1CHOL    C226072  14.985  24.133   5.404 -0.1817 -0.0820  0.0203
    1CHOL   ROH26073  16.012  24.873   6.339 -0.0728  0.2837 -0.0819
    1CHOL    R126074  16.106  25.006   6.107 -0.0340  0.0945 -0.1765
    1CHOL    R226075  16.198  24.870   5.885 -0.0704 -0.0897 -0.0833
    1CHOL    R326076  16.013  25.021   5.755 -0.0288 -0.1283 -0.1880
    1CHOL    R426077  16.151  24.873   5.543  0.1067 -0.1081 -0.1087
    1CHOL    R526078  16.123  25.089   5.554  0.0625 -0.1156 -0.1319
    1CHOL    C126079  15.950  25.017   5.222  0.2489 -0.1549 -0.2217
    1CHOL    C226080  15.874  24.934   4.829  0.2158 -0.1764 -0.0626
    1CHOL   ROH26081  17.385  27.730   2.976 -0.0045 -0.1671  0.0004
    1CHOL    R126082  17.163  27.852   3.103 -0.0652 -0.1290 -0.1401
    1CHOL    R226083  16.982  27.709   3.255 -0.0312 -0.0561 -0.0319
    1CHOL    R326084  17.044  27.893   3.445 -0.1245  0.1443 -0.1907
    1CHOL    R426085  16.805  27.757   3.548  0.1951 -0.2048  0.1327
    1CHOL    R526086  16.831  27.972   3.522 -0.1813 -0.1652 -0.0082
    1CHOL    C126087  16.760  27.957   3.897  0.2390 -0.1036  0.0794
    1CHOL    C226088  16.759  27.739   4.147 -0.1023 -0.1510  0.0816
    1CHOL   ROH26089  19.068   7.254   2.226  0.1567 -0.0483 -0.1433
    1CHOL    R126090  19.000   7.204   2.496  0.1316  0.1374 -0.1142
    1CHOL    R226091  19.001   6.950   2.605 -0.1874  0.1728 -0.0242
    1CHOL    R326092  19.166   7.063   2.788 -0.0059  0.0217 -0.0904
    1CHOL    R426093  19.143   6.784   2.872 -0.1267  0.0105 -0.1551
    1CHOL    R526094  19.106   6.959   2.995  0.0546  0.0012 -0.0823
    1CHOL    C126095  19.382   6.794   3.200  0.0788 -0.2259 -0.2934
    1CHOL    C226096  19.519   6.675   3.524 -0.0429 -0.3737  0.0363
    1CHOL   ROH26097  16.211  27.641   6.108  0.1398 -0.1158 -0.0508
    1CHOL    R126098  16.089  27.554   5.868  0.0944 -0.1431 -0.0177
    1CHOL    R226099  16.231  27.521   5.632  0.0340 -0.0795 -0.0641
    1CHOL    R326100  16.125  27.271   5.641  0.1222 -0.1182 -0.0439
    1CHOL    R426101  16.234  27.295   5.371  0.0018 -0.0616 -0.0821
    1CHOL    R526102  16.031  27.238   5.424  0.0440 -0.1348 -0.0064
    1CHOL    C126103  16.137  26.928   5.228  0.0656 -0.0876 -0.0735
    1CHOL    C226104  16.143  26.777   4.839 -0.1562  0.0967  0.2107
    1CHOL   ROH26105   4.673  22.277   4.096  0.3381  0.1077  0.0164
    1CHOL    R126106   4.706  22.230   4.373  0.2638  0.2095  0.0429
    1CHOL    R226107   4.571  22.374   4.566 -0.0878  0.0191 -0.0564
    1CHOL    R326108   4.496  22.127   4.651  0.2749 -0.0992 -0.0578
    1CHOL    R426109   4.471  22.297   4.888 -0.0731 -0.1036 -0.0798
    1CHOL    R526110   4.583  22.111   4.874  0.2326  0.0651 -0.0257
    1CHOL    C126111   4.341  22.021   5.155  0.2761 -0.2858 -0.0947
    1CHOL    C226112   4.221  22.095   5.609 -0.2107  0.0955 -0.0034
    1CHOL   ROH26113  25.113   6.925   4.339 -0.0836  0.0018 -0.0237
    1CHOL    R126114  24.885   6.894   4.504 -0.1567  0.1357 -0.0972
    1CHOL    R226115  24.887   6.952   4.774 -0.1192 -0.1599 -0.0278
    1CHOL    R326116  24.676   7.110   4.709  0.1077  0.2071  0.1000
    1CHOL    R426117  24.627   7.031   4.987 -0.1947 -0.2649 -0.0804
    1CHOL    R526118  24.489   7.008   4.820 -0.0962  0.2060 -0.2356
    1CHOL    C126119  24.278   7.226   5.051 -0.0257  0.0185  0.0090
    1CHOL    C226120  24.129   7.147   5.307 -0.0686  0.0009  0.4347
    1CHOL   ROH26121  10.985   0.920   3.255 -0.1943 -0.1258  0.0766
    1CHOL    R126122  10.867   0.959   3.509 -0.1147  0.0796  0.0837
    1CHOL    R226123  11.009   0.932   3.744 -0.0723  0.1420  0.0664
    1CHOL    R326124  10.917   1.183   3.791  0.0668  0.2176 -0.0553
    1CHOL    R426125  11.053   1.106   4.040 -0.1419  0.1892  0.0492
    1CHOL    R526126  10.848   1.179   4.021 -0.0812  0.3230 -0.0973
    1CHOL    C126127  10.991   1.444   4.256 -0.0518  0.2877 -0.0751
    1CHOL    C226128  11.348   1.330   4.381 -0.1318  0.0376 -0.0552
    1CHOL   ROH26129  17.018  24.696   6.340 -0.0745  0.0631 -0.1153
    1CHOL    R126130  16.997  24.813   6.083  0.0669  0.1226 -0.1016
    1CHOL    R226131  17.215  24.910   5.945  0.2095 -0.2478 -0.1476
    1CHOL    R326132  17.124  24.743   5.750 -0.1315 -0.0800 -0.1378
    1CHOL    R426133  17.231  24.975   5.606  0.1199 -0.1922 -0.1406
    1CHOL    R526134  17.032  24.890   5.585 -0.0159  0.0914 -0.0537
    1CHOL    C126135  17.155  24.858   5.226 -0.2523 -0.0022 -0.1274
    1CHOL    C226136  17.100  24.974   4.823  0.1031 -0.2491  0.0727
    1CHOL   ROH26137   5.163  16.969   5.160 -0.1724  0.0840 -0.2091
    1CHOL    R126138   5.368  17.078   4.998 -0.2020  0.1526 -0.2003
    1CHOL    R226139   5.345  17.324   4.874 -0.0867  0.3648  0.1893
    1CHOL    R326140   5.580  17.374   5.002  0.0589 -0.0314  0.0920
    1CHOL    R426141   5.563  17.579   4.794  0.1138  0.2478  0.3506
    1CHOL    R526142   5.729  17.442   4.828  0.0042  0.0313  0.0665
    1CHOL    C126143   5.911  17.775   4.867  0.3672 -0.1923  0.3532
    1CHOL    C226144   5.853  18.033   4.607 -0.2254 -0.0189 -0.2683
    1CHOL   ROH26145  21.323   3.122   6.178 -0.2905 -0.0967  0.0258
    1CHOL    R126146  21.245   3.013   5.929 -0.0527 -0.2272  0.0085
    1CHOL    R226147  21.210   3.168   5.703 -0.3202 -0.2749  0.0331
    1CHOL    R326148  21.385   2.991   5.594  0.0295  0.0630  0.0160
    1CHOL    R426149  21.240   3.103   5.365 -0.5895 -0.5275  0.0513
    1CHOL    R526150  21.264   2.892   5.412  0.0323 -0.4498  0.2597
    1CHOL    C126151  21.422   2.899   5.065 -0.4179 -0.3573  0.0458
    1CHOL    C226152  21.553   3.119   4.738  0.3395 -0.0394 -0.1691
    1CHOL   ROH26153   4.883  21.269   6.386 -0.0330 -0.1716  0.1961
    1CHOL    R126154   4.876  21.282   6.103  0.0372 -0.1243  0.1960
    1CHOL    R226155   5.075  21.174   5.945  0.0480 -0.1511  0.2248
    1CHOL    R326156   4.867  21.044   5.828  0.0409 -0.0786  0.1567
    1CHOL    R426157   5.089  21.012   5.640 -0.0112  0.1534  0.0574
    1CHOL    R526158   4.891  21.091   5.595 -0.0396  0.1580  0.1948
    1CHOL    C126159   4.901  20.797   5.352 -0.0523  0.3990 -0.1039
    1CHOL    C226160   5.104  20.468   5.298  0.3236 -0.5120  0.0076
    1CHOL   ROH26161  14.224  27.686   2.856 -0.0701 -0.1437  0.1200
    1CHOL    R126162  14.323  27.808   3.091 -0.0710 -0.0072  0.0514
    1CHOL    R226163  14.174  27.826   3.323 -0.0472  0.0604  0.0688
    1CHOL    R326164  14.391  27.706   3.433  0.0011  0.1661  0.0876
    1CHOL    R426165  14.237  27.803   3.663 -0.0437  0.0994  0.0702
    1CHOL    R526166  14.447  27.844   3.621 -0.0669  0.1924  0.0816
    1CHOL    C126167  14.477  27.678   3.963  0.0038  0.2213  0.0886
    1CHOL    C226168  14.801  27.821   4.170 -0.1508 -0.1189  0.0434
    1CHOL   ROH26169   7.264  10.855   3.196 -0.0316  0.1277  0.0662
    1CHOL    R126170   7.250  10.680   3.418 -0.0034  0.0679  0.0204
    1CHOL    R226171   7.466  10.633   3.584  0.0082  0.0426 -0.0078
    1CHOL    R326172   7.291  10.707   3.779  0.0155 -0.0266  0.0266
    1CHOL    R426173   7.516  10.584   3.923  0.1632  0.1816 -0.0088
    1CHOL    R526174   7.305  10.531   3.941  0.2035  0.0282  0.0773
    1CHOL    C126175   7.381  10.626   4.302  0.2603  0.1975  0.0229
    1CHOL    C226176   7.544  10.403   4.469  0.0459  0.2307  0.3390
    1CHOL   ROH26177  22.161   1.992   6.538  0.0585 -0.0200  0.1680
    1CHOL    R126178  22.286   2.043   6.289  0.0983 -0.0712  0.1792
    1CHOL    R226179  22.529   1.931   6.218  0.0133 -0.2305  0.1701
    1CHOL    R326180  22.390   1.848   6.000 -0.0343 -0.0985  0.1458
    1CHOL    R426181  22.628   1.980   5.891  0.0601 -0.1968  0.1875
    1CHOL    R526182  22.420   2.023   5.839  0.0745 -0.0631  0.1925
    1CHOL    C126183  22.555   1.929   5.495  0.0429 -0.0532  0.1749
    1CHOL    C226184  22.685   1.726   5.171  0.1668  0.0243  0.2279
    1CHOL   ROH26185  21.197   7.944   2.788  0.0423 -0.3607  0.1524
    1CHOL    R126186  21.233   8.038   3.052  0.0832 -0.1767  0.0831
    1CHOL    R226187  21.331   8.290   3.109  0.0522 -0.1199 -0.1066
    1CHOL    R326188  21.104   8.310   3.257  0.0798 -0.0610 -0.0714
    1CHOL    R426189  21.295   8.491   3.387  0.1055 -0.0201 -0.1708
    1CHOL    R526190  21.183   8.330   3.482  0.1195  0.0176 -0.0929
    1CHOL    C126191  21.061   8.627   3.689  0.1625  0.0933 -0.1752
    1CHOL    C226192  20.918   8.982   3.670  0.0992  0.2044  0.1610
    1CHOL   ROH26193  16.476  11.378   5.608  0.1576 -0.2706 -0.1369
    1CHOL    R126194  16.375  11.393   5.343  0.2153 -0.2151 -0.1565
    1CHOL    R226195  16.268  11.625   5.238 -0.0405 -0.2687 -0.0296
    1CHOL    R326196  16.451  11.582   5.042  0.0752  0.0872 -0.0056
    1CHOL    R426197  16.193  11.579   4.904  0.1110 -0.2856 -0.0617
    1CHOL    R526198  16.346  11.424   4.895  0.3627 -0.0376 -0.0798
    1CHOL    C126199  16.321  11.512   4.525  0.3076  0.0386 -0.0578
    1CHOL    C226200  16.259  11.288   4.245 -0.2136 -0.0295  0.0847
    1CHOL   ROH26201  16.113   9.031   2.092  0.1947  0.1988  0.0489
    1CHOL    R126202  16.045   9.079   2.363  0.0070  0.1193  0.0170
    1CHOL    R226203  15.810   8.990   2.475  0.0222 -0.0903 -0.1203
    1CHOL    R326204  15.977   8.878   2.658  0.0178  0.0365 -0.0359
    1CHOL    R426205  15.736   8.950   2.811 -0.0865 -0.0773 -0.1413
    1CHOL    R526206  15.942   9.007   2.857 -0.1355  0.0508 -0.0696
    1CHOL    C126207  15.850   8.822   3.178 -0.1539  0.0491 -0.0744
    1CHOL    C226208  15.532   8.902   3.404  0.1160  0.1419  0.2408
    1CHOL   ROH26209  25.401  24.368   4.276 -0.0403  0.1016 -0.0012
    1CHOL    R126210  25.227  24.550   4.404 -0.0828  0.0267  0.0484
    1CHOL    R226211  25.010  24.468   4.554 -0.0082 -0.0672  0.1055
    1CHOL    R326212  25.124  24.622   4.746 -0.0216 -0.0219  0.0773
    1CHOL    R426213  24.836  24.667   4.777 -0.0188  0.0837 -0.0354
    1CHOL    R526214  24.990  24.820   4.752  0.0387  0.0247 -0.0514
    1CHOL    C126215  24.843  24.927   5.087 -0.0375  0.2144 -0.1439
    1CHOL    C226216  24.673  24.950   5.377 -0.0574  0.1436 -0.4423
    1CHOL   ROH26217  15.131   9.777   2.371 -0.2438  0.1283  0.2449
    1CHOL    R126218  15.219   9.784   2.640 -0.1753  0.1421  0.2223
    1CHOL    R226219  15.174  10.001   2.805 -0.2174  0.1114  0.2510
    1CHOL    R326220  15.065   9.812   2.968 -0.0999  0.0550  0.2660
    1CHOL    R426221  15.159  10.022   3.150 -0.1506  0.0894  0.2554
    1CHOL    R526222  15.207   9.810   3.160 -0.0553  0.1087  0.2349
    1CHOL    C126223  15.046   9.857   3.503 -0.0014  0.0237  0.2721
    1CHOL    C226224  15.071   9.632   3.778  0.0707 -0.2519  0.0226
    1CHOL   ROH26225  25.676  23.307   4.371 -0.0872  0.0905  0.0210
    1CHOL    R126226  25.837  23.271   4.601  0.0498 -0.1840 -0.1132
    1CHOL    R226227  26.100  23.189   4.587  0.0914 -0.0182 -0.3801
    1CHOL    R326228  26.144  23.414   4.733  0.0367 -0.2183 -0.0461
    1CHOL    R426229  26.404  23.277   4.726  0.1116 -0.0628 -0.3948
    1CHOL    R526230  26.297  23.344   4.904  0.1629 -0.4019 -0.2306
    1CHOL    C126231  26.622  23.539   4.945  0.0717 -0.2764 -0.0899
    1CHOL    C226232  26.944  23.341   4.884 -0.1706  0.0150 -0.4483
    1CHOL   ROH26233   4.567  18.042   3.810  0.3331  0.3547 -0.0285
    1CHOL    R126234   4.704  18.126   4.042  0.2152  0.1996  0.0998
    1CHOL    R226235   4.577  18.252   4.252  0.1395  0.2262  0.0374
    1CHOL    R326236   4.691  18.053   4.399 -0.1027  0.1096  0.0732
    1CHOL    R426237   4.657  18.276   4.588  0.1577  0.1860  0.0363
    1CHOL    R526238   4.842  18.168   4.546  0.0325 -0.0456  0.0592
    1CHOL    C126239   4.810  18.103   4.921 -0.0592  0.0531  0.0692
    1CHOL    C226240   4.774  18.429   5.199  0.0438  0.2265  0.0379
    1CHOL   ROH26241  21.615   9.095   5.351  0.1248  0.0065 -0.1234
    1CHOL    R126242  21.584   9.266   5.128  0.0769 -0.1512 -0.2406
    1CHOL    R226243  21.517   9.173   4.876 -0.1194 -0.3177 -0.1350
    1CHOL    R326244  21.316   9.354   4.898 -0.0188 -0.2047 -0.1484
    1CHOL    R426245  21.308   9.267   4.618 -0.0646 -0.2057 -0.1380
    1CHOL    R526246  21.320   9.473   4.690  0.0478 -0.2141 -0.1480
    1CHOL    C126247  20.998   9.493   4.487  0.0618 -0.0344 -0.1523
    1CHOL    C226248  20.678   9.627   4.394  0.1412  0.1281  0.1197
    1CHOL   ROH26249   2.767  12.579   4.324  0.1431  0.3383  0.0930
    1CHOL    R126250   2.992  12.622   4.490  0.0916  0.2022  0.2003
    1CHOL    R226251   2.971  12.651   4.764 -0.0096  0.1161  0.2025
    1CHOL    R326252   3.153  12.450   4.767 -0.0820  0.0505  0.2086
    1CHOL    R426253   3.232  12.623   4.989 -0.1703 -0.1066  0.3657
    1CHOL    R526254   3.359  12.556   4.826 -0.0829 -0.0549  0.4116
    1CHOL    C126255   3.555  12.418   5.123 -0.3319 -0.2979  0.4664
    1CHOL    C226256   3.469  12.490   5.416  0.0787 -0.1642 -0.2243
    1CHOL   ROH26257  23.561   2.993   6.751 -0.2716  0.0426  0.0307
    1CHOL    R126258  23.655   2.990   6.484 -0.1825 -0.0345  0.0628
    1CHOL    R226259  23.609   2.779   6.311 -0.3938  0.0505  0.0163
    1CHOL    R326260  23.508   2.975   6.151 -0.0913  0.2071  0.0082
    1CHOL    R426261  23.644   2.791   5.968 -0.4205 -0.0524  0.0093
    1CHOL    R526262  23.675   3.006   5.983 -0.0551 -0.0950 -0.0201
    1CHOL    C126263  23.570   2.981   5.617 -0.1522  0.0347 -0.0024
    1CHOL    C226264  23.670   2.941   5.211  0.0367 -0.2751  0.1522
    1CHOL   ROH26265  12.938  26.486   6.334 -0.1935 -0.3116 -0.0095
    1CHOL    R126266  12.830  26.557   6.082 -0.0411 -0.1117 -0.0200
    1CHOL    R226267  12.985  26.660   5.878  0.1282 -0.1818  0.0739
    1CHOL    R326268  12.878  26.455   5.736 -0.0233 -0.0259 -0.0436
    1CHOL    R426269  12.913  26.669   5.540  0.2160  0.0340  0.0584
    1CHOL    R526270  12.729  26.560   5.581  0.1059  0.1782 -0.0343
    1CHOL    C126271  12.770  26.481   5.210  0.1250  0.3062 -0.0608
    1CHOL    C226272  12.459  26.379   4.935  0.2214 -0.1544  0.0471
    1CHOL   ROH26273  20.943   2.102   3.568 -0.1578 -0.1340 -0.0747
    1CHOL    R126274  20.897   2.111   3.847 -0.1013 -0.1582 -0.0643
    1CHOL    R226275  20.724   2.292   3.963  0.1072 -0.0025  0.0132
    1CHOL    R326276  20.612   2.068   4.069 -0.1119  0.0848 -0.0301
    1CHOL    R426277  20.574   2.276   4.274  0.2178  0.0445  0.0694
    1CHOL    R526278  20.666   2.080   4.302 -0.0004 -0.0757 -0.0490
    1CHOL    C126279  20.382   2.056   4.555  0.0762  0.1538  0.0615
    1CHOL    C226280  20.206   2.139   4.815  0.0438 -0.1109  0.0908
    1CHOL   ROH26281  16.453   3.542   2.609  0.0858 -0.2209  0.0322
    1CHOL    R126282  16.513   3.509   2.883  0.2063 -0.0832  0.0221
    1CHOL    R226283  16.699   3.667   3.015  0.0721  0.1556 -0.0784
    1CHOL    R326284  16.492   3.712   3.185  0.0744 -0.0283 -0.0217
    1CHOL    R426285  16.717   3.643   3.359  0.1898  0.1546 -0.0833
    1CHOL    R526286  16.521   3.550   3.358  0.2636 -0.0172 -0.0352
    1CHOL    C126287  16.534   3.673   3.719  0.2606 -0.0186 -0.0330
    1CHOL    C226288  16.601   3.971   3.989  0.0004 -0.1250  0.0917
    1CHOL   ROH26289  11.062  20.394   6.478  0.0991  0.0733  0.0054
    1CHOL    R126290  11.210  20.494   6.259  0.2115 -0.0138  0.0387
    1CHOL    R226291  11.284  20.335   6.044  0.1022 -0.0443  0.0108
    1CHOL    R326292  11.160  20.530   5.900  0.2766  0.0900  0.0425
    1CHOL    R426293  11.362  20.420   5.718  0.2825  0.0732  0.0849
    1CHOL    R526294  11.336  20.630   5.772  0.3773  0.0547  0.1651
    1CHOL    C126295  11.292  20.653   5.394  0.5511  0.2678  0.1577
    1CHOL    C226296  11.594  20.500   5.230  0.1610  0.1549  0.1433
    1CHOL   ROH26297  27.403   4.425   4.795 -0.2099 -0.0674 -0.1185
    1CHOL    R126298  27.262   4.602   4.964 -0.0356  0.0156 -0.0563
    1CHOL    R226299  26.986   4.606   4.980 -0.0350  0.2320  0.0024
    1CHOL    R326300  27.032   4.573   5.245 -0.0010  0.1443 -0.0152
    1CHOL    R426301  26.750   4.650   5.229  0.0070  0.1692  0.0524
    1CHOL    R526302  26.904   4.745   5.350  0.0284  0.1175  0.0596
    1CHOL    C126303  26.657   4.644   5.623  0.0633  0.0504  0.0649
    1CHOL    C226304  26.504   4.922   5.779  0.2625 -0.3793 -0.3196
    1CHOL   ROH26305  16.908  14.240   2.948  0.0006  0.0166 -0.0870
    1CHOL    R126306  16.996  14.132   3.194  0.1377 -0.0443 -0.1620
    1CHOL    R226307  17.243  14.011   3.224  0.3010  0.2586 -0.2458
    1CHOL    R326308  17.272  14.191   3.425  0.0577  0.1563 -0.1152
    1CHOL    R426309  17.461  13.976   3.489  0.2846  0.3176 -0.2246
    1CHOL    R526310  17.307  14.056   3.620  0.1647  0.0580 -0.1998
    1CHOL    C126311  17.616  14.125   3.833  0.0469  0.2560 -0.0898
    1CHOL    C226312  17.991  14.039   4.063 -0.2688  0.0161  0.3184
    1CHOL   ROH26313  13.757  26.262   3.540  0.0791  0.2401 -0.0280
    1CHOL    R126314  13.676  26.355   3.795  0.1708  0.2204  0.0085
    1CHOL    R226315  13.726  26.214   4.027  0.0995  0.1171 -0.0395
    1CHOL    R326316  13.839  26.448   4.106  0.2691  0.0163  0.0198
    1CHOL    R426317  13.828  26.284   4.349 -0.1830  0.0866  0.0600
    1CHOL    R526318  13.750  26.486   4.325  0.0621  0.1711 -0.0865
    1CHOL    C126319  13.995  26.544   4.612 -0.1883 -0.0258  0.1735
    1CHOL    C226320  14.082  26.703   4.929 -0.1780 -0.0712 -0.1973
    1CHOL   ROH26321  17.816  26.760   6.374  0.0554  0.0345  0.0201
    1CHOL    R126322  18.012  26.793   6.172  0.2220  0.0722  0.1818
    1CHOL    R226323  17.948  26.803   5.903  0.4826 -0.3648  0.0849
    1CHOL    R326324  18.085  27.037   5.912  0.1134 -0.1387 -0.0477
    1CHOL    R426325  18.123  26.938   5.638  0.3836 -0.2943  0.0569
    1CHOL    R526326  18.280  26.997   5.779  0.2326  0.0656  0.0712
    1CHOL    C126327  18.354  27.237   5.492 -0.0209 -0.0409 -0.0838
    1CHOL    C226328  18.330  27.368   5.106 -0.0100 -0.1808  0.2142
    1CHOL   ROH26329   1.707  12.438   4.273  0.0100  0.0047  0.0357
    1CHOL    R126330   1.631  12.631   4.465  0.0784  0.0920 -0.0231
    1CHOL    R226331   1.484  12.567   4.690 -0.1366  0.2488 -0.1121
    1CHOL    R326332   1.690  12.688   4.820 -0.0931  0.0455  0.0126
    1CHOL    R426333   1.462  12.712   5.003 -0.1210  0.0939 -0.0381
    1CHOL    R526334   1.589  12.874   4.931  0.0023  0.0500  0.0869
    1CHOL    C126335   1.643  12.911   5.306 -0.0711 -0.1871  0.1220
    1CHOL    C226336   1.500  13.028   5.549  0.3538 -0.0213 -0.0462
    1CHOL   ROH26337   9.524   4.777   6.153  0.1225  0.2392 -0.1112
    1CHOL    R126338   9.535   4.718   5.877  0.0649  0.1489 -0.0946
    1CHOL    R226339   9.634   4.897   5.690  0.1531  0.0352 -0.1565
    1CHOL    R326340   9.795   4.688   5.624  0.0266 -0.0786 -0.1092
    1CHOL    R426341   9.759   4.836   5.373  0.1977 -0.0517 -0.1225
    1CHOL    R526342   9.722   4.623   5.405  0.0403 -0.0284 -0.1299
    1CHOL    C126343   9.982   4.604   5.127  0.1051 -0.2093 -0.0584
    1CHOL    C226344  10.201   4.292   4.945 -0.2482  0.0058 -0.2485
    1CHOL   ROH26345  16.331   6.936   2.105  0.0218 -0.0300 -0.0471
    1CHOL    R126346  16.148   6.932   2.321  0.2253 -0.1248  0.1292
    1CHOL    R226347  16.224   6.979   2.582  0.3991  0.2611  0.0206
    1CHOL    R326348  16.029   7.168   2.571  0.0721 -0.0674  0.0021
    1CHOL    R426349  16.042   7.091   2.854  0.3107  0.0957  0.0303
    1CHOL    R526350  15.864   7.092   2.728  0.2563 -0.2647  0.1008
    1CHOL    C126351  15.752   7.333   3.001 -0.0478 -0.3089  0.0186
    1CHOL    C226352  15.633   7.414   3.208  0.0521 -0.0737  0.0471
    1CHOL   ROH26353   0.260  16.230   4.323 -0.1840  0.0238 -0.0831
    1CHOL    R126354   0.238  15.998   4.483 -0.1459 -0.0177 -0.1350
    1CHOL    R226355   0.389  15.770   4.436 -0.0682  0.0272 -0.1571
    1CHOL    R326356   0.459  15.803   4.696 -0.1242  0.0051 -0.1411
    1CHOL    R426357   0.525  15.524   4.637  0.0622  0.0740 -0.1896
    1CHOL    R526358   0.401  15.595   4.801 -0.0001 -0.0496 -0.1952
    1CHOL    C126359   0.670  15.412   4.999  0.0854  0.0804 -0.1935
    1CHOL    C226360   0.689  15.317   5.434  0.2913  0.1141 -0.0704
    1CHOL   ROH26361  24.252  24.018   4.076  0.0564  0.0777 -0.0678
    1CHOL    R126362  24.244  24.147   4.328  0.0298  0.0514 -0.0556
    1CHOL    R226363  24.408  24.359   4.392 -0.0565  0.1168 -0.0567
    1CHOL    R326364  24.173  24.481   4.453 -0.1027  0.0097 -0.0159
    1CHOL    R426365  24.348  24.539   4.681 -0.0646  0.1469 -0.0765
    1CHOL    R526366  24.149  24.450   4.689 -0.0186  0.0458 -0.0012
    1CHOL    C126367  24.093  24.758   4.906 -0.1126  0.0638 -0.0498
    1CHOL    C226368  24.183  24.879   5.256  0.0302 -0.2312  0.3611
    1CHOL   ROH26369   7.279  21.062   3.693 -0.1252 -0.0323 -0.1805
    1CHOL    R126370   7.111  20.893   3.846 -0.0611 -0.0566 -0.1330
    1CHOL    R226371   7.180  20.803   4.098  0.0255 -0.0582 -0.1479
    1CHOL    R326372   6.940  20.910   4.167  0.0373 -0.0797 -0.0819
    1CHOL    R426373   6.979  20.688   4.355  0.1009 -0.0637 -0.0932
    1CHOL    R526374   6.806  20.722   4.227  0.0682 -0.0812 -0.0404
    1CHOL    C126375   6.637  20.723   4.569  0.1558 -0.0872  0.0005
    1CHOL    C226376   6.555  20.508   4.967  0.0287 -0.2444 -0.0681
    1CHOL   ROH26377   0.043  14.377   5.162  0.0577  0.0596 -0.0131
    1CHOL    R126378   0.192  14.253   5.368 -0.0514 -0.0738 -0.0137
    1CHOL    R226379   0.237  13.981   5.375 -0.0268 -0.0736 -0.1862
    1CHOL    R326380   0.498  14.057   5.391 -0.0428 -0.0563  0.0262
    1CHOL    R426381   0.495  13.780   5.487 -0.1003 -0.0659  0.0010
    1CHOL    R526382   0.578  13.953   5.591 -0.1937 -0.0682  0.0825
    1CHOL    C126383   0.890  13.734   5.568 -0.1581 -0.0454  0.3094
    1CHOL    C226384   1.096  13.360   5.496 -0.0832 -0.4359 -0.0976
    1CHOL   ROH26385  18.058  14.957   5.844 -0.0211  0.1341 -0.0147
    1CHOL    R126386  18.103  14.981   5.565 -0.0906  0.2285 -0.0178
    1CHOL    R226387  18.007  14.796   5.383  0.1148  0.1286 -0.0251
    1CHOL    R326388  17.898  15.016   5.266 -0.1828  0.0104  0.0171
    1CHOL    R426389  17.887  14.810   5.059 -0.0444 -0.0040  0.0256
    1CHOL    R526390  17.975  15.008   5.040 -0.2717  0.0956 -0.0169
    1CHOL    C126391  17.716  15.025   4.761 -0.4165 -0.1923  0.0947
    1CHOL    C226392  17.830  14.848   4.549 -0.4232  0.1253 -0.0074
    1CHOL   ROH26393  15.853   3.439   5.736  0.0533  0.2275 -0.3079
    1CHOL    R126394  15.959   3.277   5.529  0.1240  0.2421 -0.2828
    1CHOL    R226395  15.880   3.015   5.490  0.2682  0.1894 -0.2165
    1CHOL    R326396  15.830   3.102   5.238  0.1932  0.1040 -0.2320
    1CHOL    R426397  15.933   2.829   5.204  0.3629  0.1584 -0.1797
    1CHOL    R526398  16.008   3.009   5.107  0.2428  0.1866 -0.2253
    1CHOL    C126399  15.917   2.802   4.800  0.3477  0.0603 -0.1728
    1CHOL    C226400  16.060   2.605   4.601  0.1150 -0.3559  0.0303
    1CHOL   ROH26401  20.944   3.991   3.361  0.3530  0.0416 -0.1069
    1CHOL    R126402  21.105   4.188   3.485  0.2816  0.0348 -0.0016
    1CHOL    R226403  21.000   4.383   3.651  0.1826  0.0316 -0.0584
    1CHOL    R326404  21.186   4.288   3.825  0.0749  0.0221  0.0525
    1CHOL    R426405  21.164   4.573   3.889 -0.0176  0.0026  0.1058
    1CHOL    R526406  21.347   4.464   3.843  0.0340  0.0449  0.2103
    1CHOL    C126407  21.434   4.594   4.191 -0.2356 -0.0232  0.3055
    1CHOL    C226408  21.565   4.777   4.308 -0.2234 -0.0690 -0.0388
    1CHOL   ROH26409  12.167   1.361   6.008 -0.0972  0.1427  0.2722
    1CHOL    R126410  12.190   1.438   5.736 -0.0684  0.0137  0.2355
    1CHOL    R226411  12.083   1.289   5.529 -0.1118 -0.0494  0.2954
    1CHOL    R326412  11.962   1.524   5.466 -0.0391 -0.0408  0.1950
    1CHOL    R426413  11.908   1.348   5.237  0.0908 -0.0483  0.1744
    1CHOL    R526414  11.997   1.547   5.230  0.1197 -0.0632  0.2180
    1CHOL    C126415  11.693   1.603   5.008  0.2770 -0.0395  0.0096
    1CHOL    C226416  11.789   1.616   4.647  0.1048  0.1038  0.2640
    1CHOL   ROH26417   0.807  25.921   4.534 -0.1153 -0.0006 -0.2502
    1CHOL    R126418   0.755  26.063   4.773 -0.1286 -0.1038 -0.1903
    1CHOL    R226419   0.738  25.939   5.020  0.0321 -0.1911 -0.2160
    1CHOL    R326420   0.928  26.121   5.088 -0.0589 -0.0898 -0.2329
    1CHOL    R426421   0.826  26.021   5.344  0.1062 -0.2172 -0.2296
    1CHOL    R526422   0.840  26.229   5.283 -0.0489 -0.1976 -0.1741
    1CHOL    C126423   1.056  26.239   5.597  0.0639 -0.1373 -0.2535
    1CHOL    C226424   1.151  26.391   6.014 -0.2360 -0.1256  0.0112
    1CHOL   ROH26425  16.490   2.272   3.164 -0.3029  0.0553 -0.1013
    1CHOL    R126426  16.416   2.322   3.432 -0.1488  0.0491 -0.0557
    1CHOL    R226427  16.569   2.479   3.602 -0.1169  0.1611 -0.1753
    1CHOL    R326428  16.335   2.614   3.634 -0.1732  0.0319 -0.0442
    1CHOL    R426429  16.505   2.705   3.855 -0.0971  0.1567 -0.1677
    1CHOL    R526430  16.304   2.623   3.872 -0.0343  0.0467 -0.0311
    1CHOL    C126431  16.249   2.964   4.033 -0.1384  0.0328 -0.0403
    1CHOL    C226432  16.102   3.016   4.342  0.1029  0.0180 -0.1084
    1CHOL   ROH26433   6.287  24.970   6.788  0.0963 -0.1707 -0.0540
    1CHOL    R126434   6.478  25.044   6.592  0.1366  0.1268  0.0920
    1CHOL    R226435   6.431  25.018   6.321  0.4013 -0.0056  0.0581
    1CHOL    R326436   6.498  25.282   6.318 -0.0489  0.1185  0.0688
    1CHOL    R426437   6.455  25.212   6.036  0.6478 -0.1203 -0.0025
    1CHOL    R526438   6.632  25.306   6.121  0.3237  0.2394  0.3245
    1CHOL    C126439   6.532  25.572   5.867  0.3687 -0.0708 -0.0277
    1CHOL    C226440   6.605  25.848   5.524 -0.1397  0.1494 -0.1932
    1CHOL   ROH26441  27.508  27.529   7.466 -0.0831  0.0934  0.1436
    1CHOL    R126442  27.594  27.407   7.225 -0.1536  0.0527  0.1388
    1CHOL    R226443  27.423  27.268   7.060 -0.2393  0.1736  0.1237
    1CHOL    R326444  27.518  27.438   6.871 -0.1217  0.1254  0.1381
    1CHOL    R426445  27.314  27.279   6.732 -0.0855  0.1383  0.0706
    1CHOL    R526446  27.521  27.308   6.670 -0.0512  0.0913  0.1612
    1CHOL    C126447  27.340  27.446   6.364  0.1144  0.0722  0.0531
    1CHOL    C226448  27.047  27.406   6.023  0.2774 -0.3159  0.0669
    1CHOL   ROH26449  22.502  27.570   6.628 -0.2091 -0.1759  0.1979
    1CHOL    R126450  22.481  27.543   6.347 -0.1266 -0.0966  0.1839
    1CHOL    R226451  22.654  27.386   6.199 -0.0716 -0.0359  0.1894
    1CHOL    R326452  22.424  27.271   6.111 -0.0348 -0.0336  0.0862
    1CHOL    R426453  22.600  27.275   5.877  0.1102 -0.1137  0.1840
    1CHOL    R526454  22.397  27.354   5.889  0.1076 -0.0858  0.0452
    1CHOL    C126455  22.352  27.102   5.606  0.2508 -0.1565  0.0840
    1CHOL    C226456  22.209  27.302   5.434 -0.3776  0.1960 -0.2374
    1CHOL   ROH26457   4.133   6.946   4.221  0.1878 -0.3200 -0.0789
    1CHOL    R126458   4.242   6.940   4.483  0.1505 -0.3158 -0.0642
    1CHOL    R226459   4.146   7.099   4.688  0.0866 -0.3584 -0.0656
    1CHOL    R326460   4.122   6.862   4.817  0.1248 -0.3697 -0.0865
    1CHOL    R426461   4.187   7.053   5.028 -0.1920 -0.3268 -0.0242
    1CHOL    R526462   4.291   6.867   4.985 -0.0320 -0.2570  0.0702
    1CHOL    C126463   4.188   6.804   5.347 -0.3184 -0.3189 -0.0198
    1CHOL    C226464   4.256   6.869   5.645 -0.3191 -0.4325  0.1696
    1CHOL   ROH26465   5.682   7.780   3.799 -0.3248  0.1820  0.0167
    1CHOL    R126466   5.507   7.806   4.020 -0.1899 -0.0373  0.1540
    1CHOL    R226467   5.416   7.589   4.165  0.0140 -0.1728  0.0882
    1CHOL    R326468   5.517   7.728   4.376  0.0907 -0.2499  0.1025
    1CHOL    R426469   5.327   7.540   4.496 -0.1164 -0.0598  0.0704
    1CHOL    R526470   5.331   7.756   4.524  0.0795 -0.0614  0.0526
    1CHOL    C126471   5.370   7.642   4.886 -0.1204 -0.0664  0.0734
    1CHOL    C226472   5.425   7.335   5.168  0.0124  0.1671 -0.0512
    1CHOL   ROH26473  11.235   1.178   5.997  0.0009  0.1849 -0.0418
    1CHOL    R126474  11.220   1.113   5.722 -0.0172  0.1539 -0.0337
    1CHOL    R226475  11.060   0.909   5.626  0.0078  0.1176  0.0040
    1CHOL    R326476  10.961   1.105   5.466 -0.0427  0.0829 -0.0068
    1CHOL    R426477  10.863   0.854   5.348 -0.0249  0.0471  0.0414
    1CHOL    R526478  10.974   1.012   5.245 -0.0606  0.0514  0.0033
    1CHOL    C126479  10.655   1.005   5.035 -0.0914 -0.0265  0.0531
    1CHOL    C226480  10.575   0.742   4.766 -0.0546 -0.1585  0.1199
    1CHOL   ROH26481   9.941  19.606   3.477  0.1578  0.0747 -0.1139
    1CHOL    R126482   9.842  19.679   3.732  0.1178  0.0446 -0.1200
    1CHOL    R226483   9.921  19.552   3.965  0.0643  0.0005 -0.1230
    1CHOL    R326484   9.983  19.804   4.044  0.0743 -0.0168 -0.0761
    1CHOL    R426485  10.056  19.635   4.272 -0.3410 -0.0114  0.0651
    1CHOL    R526486   9.926  19.809   4.276 -0.2635  0.0528 -0.1572
    1CHOL    C126487  10.193  19.921   4.525 -0.5678 -0.0347  0.2185
    1CHOL    C226488  10.504  19.853   4.744 -0.0224  0.2660 -0.0714
    1CHOL   ROH26489  21.842   3.792   6.336 -0.0211  0.1497 -0.0584
    1CHOL    R126490  21.976   3.863   6.097 -0.0351  0.1782 -0.0578
    1CHOL    R226491  22.019   3.684   5.891  0.0708  0.1674 -0.0261
    1CHOL    R326492  21.895   3.874   5.742 -0.0096  0.0838 -0.0666
    1CHOL    R426493  21.972   3.666   5.550 -0.1536 -0.0452  0.0138
    1CHOL    R526494  22.019   3.878   5.537 -0.1423 -0.0565 -0.1518
    1CHOL    C126495  21.828   3.833   5.210 -0.3598 -0.2474 -0.0011
    1CHOL    C226496  21.845   3.534   4.981 -0.1122  0.2131 -0.0995
    1CHOL   ROH26497  20.657  11.791   5.756  0.2999 -0.0077 -0.1152
    1CHOL    R126498  20.680  11.722   5.483  0.1733 -0.0408 -0.1175
    1CHOL    R226499  20.462  11.649   5.329  0.0958 -0.0061 -0.0205
    1CHOL    R326500  20.550  11.848   5.167  0.0749 -0.0445 -0.0800
    1CHOL    R426501  20.353  11.701   5.006  0.0047 -0.0525  0.0020
    1CHOL    R526502  20.559  11.748   4.949 -0.0021 -0.0876 -0.0664
    1CHOL    C126503  20.373  11.919   4.664 -0.0683 -0.1156 -0.0407
    1CHOL    C226504  20.301  12.012   4.421  0.2160  0.1281  0.0913
    1CHOL   ROH26505   8.316  24.273   6.421  0.1829 -0.3711  0.1410
    1CHOL    R126506   8.337  24.273   6.139  0.0974 -0.1322  0.1321
    1CHOL    R226507   8.510  24.107   6.003  0.0498 -0.0254 -0.0627
    1CHOL    R326508   8.285  24.033   5.870  0.0067  0.0968 -0.0588
    1CHOL    R426509   8.502  23.990   5.677 -0.0043 -0.1235 -0.0263
    1CHOL    R526510   8.321  24.107   5.645  0.0830 -0.0005 -0.0799
    1CHOL    C126511   8.285  23.852   5.363 -0.0762 -0.0662 -0.0015
    1CHOL    C226512   8.143  23.918   4.913 -0.0005 -0.0890  0.3488
    1CHOL   ROH26513   7.890  13.232   5.354 -0.3005 -0.1376  0.0756
    1CHOL    R126514   7.746  13.163   5.120 -0.1423 -0.1452 -0.0220
    1CHOL    R226515   7.799  13.276   4.874 -0.1104  0.0031  0.0476
    1CHOL    R326516   7.822  13.016   4.796  0.1202  0.0507 -0.0513
    1CHOL    R426517   7.804  13.167   4.546 -0.0435  0.1215  0.0092
    1CHOL    R526518   7.679  12.998   4.605  0.1188 -0.0136 -0.0409
    1CHOL    C126519   7.828  12.860   4.282  0.2119  0.2353 -0.1061
    1CHOL    C226520   7.939  12.919   4.018  0.1652  0.1266  0.1516
    1CHOL   ROH26521  23.110   4.616   3.312  0.0296  0.0425  0.1705
    1CHOL    R126522  23.013   4.561   3.572 -0.0635 -0.0540  0.1168
    1CHOL    R226523  22.847   4.347   3.628  0.0405 -0.1656  0.0059
    1CHOL    R326524  23.039   4.288   3.812 -0.0111 -0.0731  0.0898
    1CHOL    R426525  22.791   4.182   3.926 -0.0248 -0.1238  0.0165
    1CHOL    R526526  22.930   4.319   4.023 -0.1012 -0.0634  0.0427
    1CHOL    C126527  22.937   4.030   4.272 -0.1113 -0.0126  0.1014
    1CHOL    C226528  22.781   4.216   4.493  0.1260  0.1297 -0.3139
    1CHOL   ROH26529  13.910   1.361   5.934 -0.0927  0.1762  0.0663
    1CHOL    R126530  13.989   1.324   5.664 -0.1927  0.1392  0.0417
    1CHOL    R226531  13.821   1.376   5.451 -0.1805  0.3788  0.0888
    1CHOL    R326532  14.027   1.533   5.369 -0.0132  0.1587  0.0770
    1CHOL    R426533  13.855   1.506   5.133 -0.0788  0.3727  0.0967
    1CHOL    R526534  14.068   1.464   5.144 -0.1216  0.1324  0.0640
    1CHOL    C126535  14.068   1.730   4.870  0.1374  0.1624  0.0903
    1CHOL    C226536  13.956   1.535   4.595  0.0454 -0.5719 -0.1743
    1CHOL   ROH26537  20.366   5.445   6.169 -0.2221 -0.1186 -0.0460
    1CHOL    R126538  20.278   5.527   5.913 -0.1116  0.0374 -0.0358
    1CHOL    R226539  20.267   5.793   5.837  0.2612  0.0663 -0.0052
    1CHOL    R326540  20.419   5.706   5.629  0.1388 -0.1252 -0.0166
    1CHOL    R426541  20.251   5.917   5.515  0.5081  0.2072  0.0346
    1CHOL    R526542  20.272   5.714   5.440  0.1679  0.1913 -0.0317
    1CHOL    C126543  20.384   5.908   5.132  0.5368  0.1093  0.0471
    1CHOL    C226544  20.257   5.895   4.727  0.0448  0.0018 -0.0919
    1CHOL   ROH26545  16.759   9.814   5.071 -0.2078  0.1220  0.1138
    1CHOL    R126546  16.817   9.699   4.819  0.0888  0.1813  0.1527
    1CHOL    R226547  16.620   9.637   4.634  0.2596 -0.2185  0.1022
    1CHOL    R326548  16.772   9.792   4.470  0.0296  0.0351  0.1193
    1CHOL    R426549  16.622   9.616   4.290  0.3125 -0.2108  0.1011
    1CHOL    R526550  16.838   9.644   4.294  0.2792  0.1361  0.1183
    1CHOL    C126551  16.765   9.749   3.934  0.1273  0.0317  0.1165
    1CHOL    C226552  16.864   9.952   3.671  0.0228  0.0050  0.0901
    1CHOL   ROH26553  18.712  22.425   5.961  0.0933 -0.2252 -0.0431
    1CHOL    R126554  18.750  22.311   5.705 -0.1345 -0.2192 -0.0820
    1CHOL    R226555  18.545  22.283   5.522 -0.2364  0.0646 -0.0152
    1CHOL    R326556  18.715  22.419   5.359 -0.1296 -0.1031 -0.0468
    1CHOL    R426557  18.490  22.344   5.187 -0.2745  0.1772  0.0109
    1CHOL    R526558  18.701  22.304   5.150 -0.3277 -0.0592 -0.0610
    1CHOL    C126559  18.618  22.507   4.838 -0.1966  0.0854 -0.0034
    1CHOL    C226560  18.782  22.697   4.602 -0.1260 -0.3742 -0.0172
    1CHOL   ROH26561  13.300   0.739   3.522  0.0187  0.0466  0.1275
    1CHOL    R126562  13.215   0.685   3.786  0.0132  0.0543  0.1272
    1CHOL    R226563  13.191   0.428   3.885 -0.0858  0.0543  0.1016
    1CHOL    R326564  13.354   0.523   4.081 -0.0347 -0.0333  0.1022
    1CHOL    R426565  13.218   0.293   4.202  0.0501 -0.1342  0.0122
    1CHOL    R526566  13.227   0.496   4.282  0.0396 -0.1791  0.1318
    1CHOL    C126567  13.386   0.304   4.571  0.1771 -0.3262 -0.0393
    1CHOL    C226568  13.066   0.310   4.786 -0.0203  0.0415  0.0232
    1CHOL   ROH26569  14.694   7.621   2.189  0.0261 -0.0822 -0.0563
    1CHOL    R126570  14.695   7.561   2.465  0.2876  0.1422 -0.0053
    1CHOL    R226571  14.656   7.305   2.562 -0.1251  0.2963  0.2487
    1CHOL    R326572  14.892   7.352   2.690  0.1694 -0.0969 -0.1184
    1CHOL    R426573  14.759   7.145   2.850 -0.1893  0.4637  0.3676
    1CHOL    R526574  14.837   7.335   2.923  0.3965  0.4012 -0.0121
    1CHOL    C126575  15.040   7.095   3.138  0.0496  0.1920  0.0923
    1CHOL    C226576  15.243   7.189   3.399 -0.1443 -0.1395  0.0974
    1CHOL   ROH26577   7.015   8.999   5.960  0.1118  0.1246  0.3278
    1CHOL    R126578   7.131   8.803   5.792  0.0745  0.1236  0.3038
    1CHOL    R226579   7.171   8.843   5.521 -0.0074  0.1128  0.2918
    1CHOL    R326580   7.427   8.776   5.582  0.0152  0.1299  0.2182
    1CHOL    R426581   7.420   8.783   5.290 -0.1072 -0.0144  0.2147
    1CHOL    R526582   7.490   8.618   5.414 -0.0641  0.0421  0.2685
    1CHOL    C126583   7.806   8.686   5.212 -0.1441 -0.0724  0.1009
    1CHOL    C226584   8.082   8.683   4.963 -0.0014 -0.0158  0.0852
    1CHOL   ROH26585  20.537   4.885   3.085  0.0550  0.1118 -0.1056
    1CHOL    R126586  20.495   4.824   3.358  0.1351  0.0961 -0.0954
    1CHOL    R226587  20.703   4.793   3.538  0.1887  0.1581 -0.1383
    1CHOL    R326588  20.567   4.981   3.679  0.1603  0.1173 -0.1132
    1CHOL    R426589  20.765   4.877   3.867  0.1501  0.1095 -0.1194
    1CHOL    R526590  20.550   4.891   3.899  0.1518  0.0813 -0.1329
    1CHOL    C126591  20.673   5.104   4.191  0.1010  0.0430 -0.0848
    1CHOL    C226592  20.685   5.132   4.558 -0.0361 -0.0210  0.1648
    1CHOL   ROH26593   2.502  11.538   3.955  0.2091 -0.0190 -0.1478
    1CHOL    R126594   2.493  11.483   4.233  0.0193  0.0874 -0.1315
    1CHOL    R226595   2.671  11.312   4.357 -0.2065 -0.0441  0.0174
    1CHOL    R326596   2.715  11.527   4.518 -0.0764 -0.0281 -0.0378
    1CHOL    R426597   2.758  11.295   4.691 -0.3571 -0.0137  0.0590
    1CHOL    R526598   2.624  11.462   4.730 -0.2227  0.1233 -0.0513
    1CHOL    C126599   2.850  11.487   5.036 -0.3228  0.0190  0.0314
    1CHOL    C226600   2.733  11.310   5.454  0.2415  0.0087 -0.0846
    1CHOL   ROH26601  11.139  16.659   4.642  0.0977 -0.0934  0.1728
    1CHOL    R126602  11.098  16.885   4.807  0.0732 -0.0179  0.0650
    1CHOL    R226603  11.257  17.111   4.793  0.1043 -0.0373  0.0161
    1CHOL    R326604  11.019  17.237   4.757  0.1266 -0.0312 -0.1115
    1CHOL    R426605  11.211  17.453   4.801  0.1316 -0.0276 -0.2105
    1CHOL    R526606  11.026  17.421   4.910  0.1105  0.0637 -0.2304
    1CHOL    C126607  10.961  17.771   4.772  0.1685 -0.0160 -0.4622
    1CHOL    C226608  10.852  18.094   4.930  0.3183  0.0212  0.1884
    1CHOL   ROH26609  28.392   1.407   7.471 -0.1720 -0.0269  0.1289
    1CHOL    R126610  28.557   1.552   7.293 -0.1438  0.0143  0.1885
    1CHOL    R226611  28.589   1.480   7.028  0.0331 -0.0239  0.2203
    1CHOL    R326612  28.511   1.737   6.982 -0.0626 -0.0690  0.1264
    1CHOL    R426613  28.533   1.617   6.715  0.4024 -0.0399  0.1419
    1CHOL    R526614  28.629   1.801   6.784  0.1907  0.0173  0.2989
    1CHOL    C126615  28.427   1.938   6.491  0.5275 -0.0915  0.0082
    1CHOL    C226616  28.550   2.028   6.251  0.1536  0.0421  0.2080
    1CHOL   ROH26617  20.424  25.489   6.446 -0.0415 -0.3028 -0.1917
    1CHOL    R126618  20.449  25.576   6.178  0.0723 -0.0878 -0.1137
    1CHOL    R226619  20.378  25.418   5.963  0.1584  0.0844 -0.2716
    1CHOL    R326620  20.225  25.633   5.897  0.1904  0.1410 -0.1641
    1CHOL    R426621  20.242  25.475   5.650 -0.1453  0.0698 -0.1460
    1CHOL    R526622  20.291  25.686   5.673 -0.0190  0.0525 -0.2496
    1CHOL    C126623  20.019  25.709   5.406 -0.2921  0.1143  0.0280
    1CHOL    C226624  20.071  25.901   5.140 -0.1026  0.0832 -0.1797
    1CHOL   ROH26625  14.062  11.078   2.334  0.0365 -0.2234 -0.0791
    1CHOL    R126626  14.119  10.954   2.582 -0.0322 -0.0427  0.0290
    1CHOL    R226627  14.214  11.095   2.800 -0.0196  0.1055 -0.0685
    1CHOL    R326628  14.000  10.982   2.925 -0.0701  0.2674 -0.0071
    1CHOL    R426629  14.217  10.971   3.123  0.0504 -0.1274 -0.1562
    1CHOL    R526630  14.094  10.804   3.055 -0.1920  0.0631 -0.1955
    1CHOL    C126631  14.018  10.794   3.428  0.0438 -0.1110 -0.1497
    1CHOL    C226632  14.295  10.607   3.539 -0.1215  0.1810  0.0519
    1CHOL   ROH26633  12.986  28.276   3.327 -0.1759 -0.1563  0.0123
    1CHOL    R126634  13.140  28.351   3.553 -0.0354 -0.1351 -0.0883
    1CHOL    R226635  13.055  28.303   3.812  0.0304  0.0692 -0.0268
    1CHOL    R326636  13.296  28.180   3.833 -0.0466 -0.0887 -0.0542
    1CHOL    R426637  13.199  28.200   4.109 -0.0164 -0.0590 -0.0485
    1CHOL    R526638  13.391  28.269   4.034  0.0233 -0.1740 -0.0503
    1CHOL    C126639  13.509  28.023   4.301 -0.1157 -0.2820 -0.0868
    1CHOL    C226640  13.540  27.661   4.287 -0.3347  0.0832  0.0001
    1CHOL   ROH26641  15.985   0.601   3.203 -0.0275  0.0008  0.0384
    1CHOL    R126642  15.810   0.554   3.421 -0.0424  0.0370  0.0342
    1CHOL    R226643  15.887   0.413   3.646 -0.0900 -0.0176  0.0181
    1CHOL    R326644  15.802   0.637   3.775 -0.0092 -0.0011  0.0432
    1CHOL    R426645  15.879   0.451   3.989  0.1899  0.0592  0.0189
    1CHOL    R526646  15.687   0.553   3.969  0.1615  0.0297  0.1576
    1CHOL    C126647  15.794   0.683   4.311  0.4286  0.1195  0.0430
    1CHOL    C226648  15.556   0.838   4.682 -0.2474  0.1575  0.2143
    1CHOL   ROH26649   0.513   5.487   5.096 -0.0225  0.2801 -0.0161
    1CHOL    R126650   0.623   5.700   5.247 -0.1732  0.2415  0.1519
    1CHOL    R226651   0.516   5.782   5.488 -0.0580 -0.2238  0.3767
    1CHOL    R326652   0.769   5.741   5.577  0.0959  0.0064  0.0652
    1CHOL    R426653   0.669   5.965   5.738  0.0039 -0.2479  0.3566
    1CHOL    R526654   0.853   5.961   5.622 -0.1175  0.0696  0.1502
    1CHOL    C126655   0.996   6.032   5.968  0.1844 -0.0459  0.0526
    1CHOL    C226656   0.783   6.326   6.146  0.0462 -0.1049 -0.1965
    1CHOL   ROH26657  26.101   2.441   7.163  0.1650  0.2763  0.0905
    1CHOL    R126658  26.137   2.320   6.910  0.0862  0.1711  0.1266
    1CHOL    R226659  26.207   2.465   6.684  0.0615  0.0749  0.0471
    1CHOL    R326660  26.409   2.284   6.671  0.0265  0.0362  0.0809
    1CHOL    R426661  26.379   2.381   6.396 -0.0058 -0.0781  0.0529
    1CHOL    R526662  26.376   2.173   6.461 -0.0281 -0.0452  0.1373
    1CHOL    C126663  26.668   2.161   6.216 -0.0778 -0.2035  0.0880
    1CHOL    C226664  26.657   1.952   5.908  0.1872 -0.1096 -0.1337
    1CHOL   ROH26665   1.931   5.687   7.399 -0.3086 -0.0699  0.0047
    1CHOL    R126666   1.804   5.551   7.185  0.0079 -0.1008 -0.1694
    1CHOL    R226667   1.573   5.644   7.066 -0.0783 -0.3613 -0.2119
    1CHOL    R326668   1.720   5.625   6.839  0.0754  0.0441 -0.1559
    1CHOL    R426669   1.451   5.696   6.747  0.0205 -0.2491 -0.2322
    1CHOL    R526670   1.571   5.527   6.680  0.2942 -0.0270 -0.3225
    1CHOL    C126671   1.518   5.707   6.348  0.2223  0.1969 -0.1915
    1CHOL    C226672   1.525   5.740   5.990 -0.0599 -0.0308 -0.2642
    1CHOL   ROH26673   1.621   7.494   3.959 -0.0717  0.0100 -0.1238
    1CHOL    R126674   1.841   7.634   4.067 -0.0396 -0.0075 -0.1669
    1CHOL    R226675   1.815   7.880   4.189  0.0175  0.0387 -0.2487
    1CHOL    R326676   1.942   7.756   4.395 -0.0152  0.0760 -0.2053
    1CHOL    R426677   2.010   8.040   4.426 -0.0111  0.0791 -0.2518
    1CHOL    R526678   2.150   7.874   4.416 -0.0145  0.0732 -0.1984
    1CHOL    C126679   2.242   8.017   4.757 -0.0583  0.1375 -0.2129
    1CHOL    C226680   2.493   8.243   5.072  0.0522 -0.1495 -0.2567
    1CHOL   ROH26681  10.741   1.197   5.942 -0.0651  0.1376 -0.0769
    1CHOL    R126682  10.553   1.259   5.739  0.0068  0.0954 -0.1582
    1CHOL    R226683  10.584   1.474   5.568  0.0324  0.1041 -0.1490
    1CHOL    R326684  10.554   1.284   5.376  0.1589  0.0934 -0.1573
    1CHOL    R426685  10.552   1.538   5.230 -0.2378  0.1077 -0.1247
    1CHOL    R526686  10.401   1.380   5.219 -0.0494 -0.0760 -0.0596
    1CHOL    C126687  10.506   1.396   4.853 -0.2764  0.0998 -0.1183
    1CHOL    C226688  10.773   1.687   4.698  0.2941  0.3183  0.1135
    1CHOL   ROH26689  28.585  27.329   4.528 -0.0942 -0.2313 -0.0140
    1CHOL    R126690  28.683  27.244   4.780 -0.0899 -0.1325  0.0172
    1CHOL    R226691  28.624  27.376   5.015 -0.1376 -0.0785 -0.0288
    1CHOL    R326692  28.541  27.130   5.094 -0.0806 -0.0759  0.0430
    1CHOL    R426693  28.651  27.252   5.336 -0.1616  0.0484  0.0237
    1CHOL    R526694  28.706  27.058   5.252 -0.0868  0.0310  0.1024
    1CHOL    C126695  28.589  26.948   5.598 -0.1222  0.1246  0.1216
    1CHOL    C226696  28.350  26.800   5.826  0.1658 -0.1559 -0.1359
    1CHOL   ROH26697   2.715  13.348   3.981  0.0360 -0.0930  0.1895
    1CHOL    R126698   2.747  13.503   4.216  0.1146  0.0241  0.1021
    1CHOL    R226699   2.780  13.777   4.209 -0.1268  0.0519 -0.0348
    1CHOL    R326700   2.569  13.775   4.380  0.0266 -0.0667  0.1585
    1CHOL    R426701   2.738  13.996   4.474 -0.0945  0.1459 -0.1065
    1CHOL    R526702   2.664  13.829   4.593  0.1716  0.1318  0.0475
    1CHOL    C126703   2.514  14.121   4.788  0.0684  0.0893  0.0331
    1CHOL    C226704   2.440  14.560   4.796  0.1259 -0.2377 -0.1196
    1CHOL   ROH26705  25.252  25.991   4.197 -0.3934 -0.0643 -0.1236
    1CHOL    R126706  25.302  25.933   4.470 -0.2295 -0.2032 -0.1815
    1CHOL    R226707  25.278  26.123   4.669  0.2510 -0.2037 -0.1115
    1CHOL    R326708  25.113  25.938   4.781  0.0600  0.0272 -0.0031
    1CHOL    R426709  25.170  26.128   4.997  0.3983  0.0054 -0.0643
    1CHOL    R526710  25.196  25.912   5.004  0.1251 -0.0317 -0.0331
    1CHOL    C126711  24.952  25.957   5.293  0.3044  0.3438  0.0650
    1CHOL    C226712  25.270  26.031   5.558  0.2017  0.0031 -0.4695
    1CHOL   ROH26713  12.627   3.249   5.521 -0.1710 -0.1853  0.0479
    1CHOL    R126714  12.406   3.372   5.394 -0.0231 -0.0261 -0.0611
    1CHOL    R226715  12.421   3.478   5.139  0.1410 -0.1608 -0.1123
    1CHOL    R326716  12.208   3.314   5.093 -0.0102  0.0227 -0.0779
    1CHOL    R426717  12.219   3.489   4.858  0.1730 -0.0678 -0.1319
    1CHOL    R526718  12.046   3.455   4.987  0.1298  0.1369 -0.1381
    1CHOL    C126719  11.902   3.342   4.652  0.0498  0.1585 -0.1110
    1CHOL    C226720  11.700   3.029   4.421  0.1903 -0.0012  0.0890
    1CHOL   ROH26721  22.918  28.597   3.313  0.0036  0.3451 -0.0976
    1CHOL    R126722  22.933  28.696   3.578 -0.0664  0.2658 -0.0641
    1CHOL    R226723  22.750  28.876   3.680 -0.1993  0.0893  0.0007
    1CHOL    R326724  22.725  28.689   3.876 -0.0536  0.0046 -0.0581
    1CHOL    R426725  22.746  28.945   4.018 -0.1676 -0.0254  0.0259
    1CHOL    R526726  22.869  28.767   4.051 -0.0578  0.0281 -0.0611
    1CHOL    C126727  22.719  28.810   4.400 -0.0125 -0.1718 -0.0145
    1CHOL    C226728  22.795  28.761   4.708  0.0799 -0.1254  0.2432
    1CHOL   ROH26729  25.090  11.366   6.425 -0.0689  0.0735 -0.0270
    1CHOL    R126730  25.294  11.428   6.240 -0.0086  0.0696  0.0375
    1CHOL    R226731  25.249  11.444   5.968  0.1097 -0.0814  0.0074
    1CHOL    R326732  25.360  11.691   5.997 -0.0073 -0.0199 -0.0598
    1CHOL    R426733  25.431  11.608   5.724  0.4416 -0.2725  0.1211
    1CHOL    R526734  25.569  11.675   5.879  0.1844 -0.0797  0.2746
    1CHOL    C126735  25.642  11.934   5.609  0.5249 -0.3259  0.1242
    1CHOL    C226736  25.790  12.293   5.599 -0.0146  0.5331 -0.3574
    1CHOL   ROH26737  26.948   3.514   7.436 -0.0212 -0.0819 -0.1496
    1CHOL    R126738  26.896   3.435   7.169  0.0674 -0.1509 -0.1466
    1CHOL    R226739  26.848   3.617   6.966 -0.1986 -0.2097 -0.1389
    1CHOL    R326740  27.051   3.483   6.843 -0.0205  0.0689 -0.1577
    1CHOL    R426741  26.935   3.652   6.633 -0.2568 -0.0674 -0.1404
    1CHOL    R526742  26.967   3.437   6.624  0.0320 -0.0278 -0.1578
    1CHOL    C126743  27.177   3.547   6.325 -0.1237  0.2770 -0.1589
    1CHOL    C226744  27.222   3.223   6.095 -0.0781 -0.3114 -0.1863
    1CHOL   ROH26745  13.121  23.835   3.830  0.0124 -0.1221 -0.2285
    1CHOL    R126746  13.088  23.846   4.111  0.0265  0.0322 -0.2323
    1CHOL    R226747  12.851  23.781   4.236  0.0772 -0.0387 -0.1775
    1CHOL    R326748  13.008  23.610   4.377  0.1929  0.1466 -0.0777
    1CHOL    R426749  12.775  23.656   4.549  0.0547 -0.0734 -0.1961
    1CHOL    R526750  12.984  23.683   4.605  0.0055  0.1575 -0.0976
    1CHOL    C126751  12.878  23.424   4.864  0.1500  0.0804 -0.1133
    1CHOL    C226752  12.950  23.332   5.257 -0.4472  0.1723 -0.0098
    1CHOL   ROH26753   0.255   9.962   6.409  0.1847  0.1579  0.0066
    1CHOL    R126754   0.312   9.873   6.146  0.0934  0.0957  0.0068
    1CHOL    R226755   0.273   9.611   6.067  0.0289  0.0830  0.0699
    1CHOL    R326756   0.125   9.727   5.870 -0.0122  0.0683  0.0929
    1CHOL    R426757   0.272   9.513   5.735  0.0505  0.1425  0.0525
    1CHOL    R526758   0.268   9.723   5.678 -0.0184  0.1481  0.0890
    1CHOL    C126759   0.133   9.565   5.358  0.0245  0.1635  0.0641
    1CHOL    C226760   0.136   9.277   5.140  0.1765  0.2869 -0.0993
    1CHOL   ROH26761   9.117  13.706   5.436  0.0986 -0.0144  0.0084
    1CHOL    R126762   9.092  13.686   5.155 -0.0278 -0.0386  0.0200
    1CHOL    R226763   9.306  13.629   4.989 -0.0862  0.0048 -0.0795
    1CHOL    R326764   9.143  13.430   4.901 -0.0791 -0.0426  0.0157
    1CHOL    R426765   9.356  13.446   4.701 -0.1759 -0.0280 -0.0737
    1CHOL    R526766   9.141  13.455   4.663 -0.1885 -0.0808  0.0160
    1CHOL    C126767   9.232  13.152   4.450 -0.2213 -0.0916  0.0190
    1CHOL    C226768   9.396  12.996   4.070 -0.2135  0.0765 -0.0691
    1CHOL   ROH26769   3.268  14.437   3.748  0.0214  0.1014  0.0103
    1CHOL    R126770   3.373  14.575   3.971  0.0782  0.0256  0.0310
    1CHOL    R226771   3.223  14.629   4.197  0.0674  0.1470 -0.0042
    1CHOL    R326772   3.428  14.504   4.324 -0.0568 -0.0104  0.0453
    1CHOL    R426773   3.325  14.697   4.520  0.0946  0.1270 -0.0085
    1CHOL    R526774   3.531  14.678   4.453  0.0858 -0.0739  0.0177
    1CHOL    C126775   3.577  14.620   4.828 -0.0062 -0.0326  0.0354
    1CHOL    C226776   3.659  15.023   4.922  0.1996 -0.3124  0.1135
    1CHOL   ROH26777  17.765  26.537   3.326 -0.0236 -0.0921 -0.0564
    1CHOL    R126778  17.905  26.434   3.550 -0.0430 -0.0973 -0.0469
    1CHOL    R226779  18.110  26.573   3.674  0.0667 -0.1785 -0.1386
    1CHOL    R326780  17.958  26.533   3.896  0.0867 -0.0043 -0.0922
    1CHOL    R426781  18.219  26.622   3.998  0.1986 -0.2171 -0.1765
    1CHOL    R526782  18.111  26.442   4.057  0.0500 -0.1138 -0.1166
    1CHOL    C126783  18.141  26.614   4.396  0.2942 -0.0759 -0.1548
    1CHOL    C226784  18.183  26.699   4.796 -0.0904  0.1450 -0.0067
    1CHOL   ROH26785  20.503   0.120   5.626 -0.0402  0.0719 -0.0063
    1CHOL    R126786  20.548   0.335   5.447 -0.0121  0.1453  0.0890
    1CHOL    R226787  20.530   0.306   5.173  0.1383  0.2308  0.0723
    1CHOL    R326788  20.356   0.515   5.196  0.0642  0.1734  0.0489
    1CHOL    R426789  20.361   0.453   4.909 -0.0928 -0.0150  0.0782
    1CHOL    R526790  20.397   0.648   5.001 -0.1139  0.0644 -0.0692
    1CHOL    C126791  20.100   0.734   4.777 -0.2967 -0.2120  0.0597
    1CHOL    C226792  20.007   0.929   4.413 -0.0028 -0.0081  0.3027
    1CHOL   ROH26793   0.690  27.323   7.123 -0.0556 -0.0561  0.0207
    1CHOL    R126794   0.576  27.381   6.870  0.1747 -0.0968 -0.0963
    1CHOL    R226795   0.622  27.224   6.647  0.1044 -0.3388  0.0467
    1CHOL    R326796   0.351  27.215   6.637  0.0927  0.0198 -0.0978
    1CHOL    R426797   0.438  27.113   6.377  0.1015 -0.3846  0.0687
    1CHOL    R526798   0.297  27.275   6.412  0.3013 -0.1548 -0.1925
    1CHOL    C126799   0.076  27.039   6.210  0.0889 -0.0745 -0.0541
    1CHOL    C226800  -0.096  27.297   5.831 -0.0579  0.0221  0.1402
    1CHOL   ROH26801  22.631  16.884   3.221  0.0027 -0.2361 -0.0073
    1CHOL    R126802  22.578  16.658   3.383  0.0275 -0.1403  0.1385
    1CHOL    R226803  22.613  16.660   3.657 -0.0362  0.0595  0.1535
    1CHOL    R326804  22.354  16.577   3.658 -0.0143 -0.0054  0.1424
    1CHOL    R426805  22.441  16.553   3.937 -0.0085 -0.0608  0.1243
    1CHOL    R526806  22.350  16.397   3.816  0.0285 -0.0458  0.0898
    1CHOL    C126807  22.098  16.414   4.101  0.0279 -0.1915  0.0969
    1CHOL    C226808  21.873  16.540   4.452 -0.1416  0.1698  0.0057
    1CHOL   ROH26809  19.713  24.385   3.320 -0.1039 -0.0494 -0.0282
    1CHOL    R126810  19.726  24.570   3.534  0.0222 -0.1312  0.0355
    1CHOL    R226811  19.523  24.597   3.720  0.0094 -0.0089  0.0008
    1CHOL    R326812  19.724  24.554   3.898 -0.0644 -0.2500  0.0311
    1CHOL    R426813  19.516  24.693   4.052  0.0938  0.0501 -0.0138
    1CHOL    R526814  19.726  24.751   4.034  0.1784 -0.2275  0.0021
    1CHOL    C126815  19.701  24.709   4.412  0.0739 -0.1419  0.0062
    1CHOL    C226816  19.450  24.770   4.712  0.3140  0.0666 -0.1084
    1CHOL   ROH26817  21.932   0.508   6.398 -0.0444 -0.0210 -0.1066
    1CHOL    R126818  21.860   0.462   6.128 -0.0865  0.1478 -0.1253
    1CHOL    R226819  22.003   0.566   5.916  0.0831 -0.0011 -0.0871
    1CHOL    R326820  22.012   0.307   5.836 -0.2785  0.0016 -0.1496
    1CHOL    R426821  22.045   0.462   5.589  0.0766  0.0223 -0.0938
    1CHOL    R526822  21.897   0.306   5.626 -0.1842  0.2355 -0.2041
    1CHOL    C126823  22.078   0.158   5.324 -0.2668  0.0386 -0.1565
    1CHOL    C226824  22.186   0.146   4.942 -0.0897  0.1587  0.1318
    1CHOL   ROH26825  21.679   1.402   3.426  0.0948 -0.0943 -0.0971
    1CHOL    R126826  21.588   1.216   3.619  0.2248 -0.1847 -0.1225
    1CHOL    R226827  21.759   1.056   3.765  0.3676  0.2053  0.1434
    1CHOL    R326828  21.628   1.164   3.977 -0.0869  0.0535 -0.0469
    1CHOL    R426829  21.703   0.894   4.065  0.2909  0.1955  0.1244
    1CHOL    R526830  21.503   0.981   4.068  0.1180 -0.1484 -0.1472
    1CHOL    C126831  21.546   0.901   4.439 -0.1804  0.0474 -0.0653
    1CHOL    C226832  21.678   0.961   4.793 -0.0618 -0.0872  0.1181
    1CHOL   ROH26833  21.712  28.393   3.622 -0.0630 -0.1897 -0.0368
    1CHOL    R126834  21.693  28.266   3.874 -0.1005 -0.2629 -0.0775
    1CHOL    R226835  21.726  28.402   4.112  0.0204 -0.3651 -0.0409
    1CHOL    R326836  21.482  28.296   4.169 -0.0353 -0.2367 -0.0315
    1CHOL    R426837  21.592  28.371   4.430  0.1036 -0.4599 -0.0137
    1CHOL    R526838  21.515  28.175   4.373 -0.0464 -0.3816 -0.1091
    1CHOL    C126839  21.286  28.254   4.667  0.0996 -0.3945  0.0110
    1CHOL    C226840  21.161  28.472   4.950  0.1776  0.5445  0.2293
    1CHOL   ROH26841  21.383  22.891   5.525 -0.1512  0.1373  0.0079
    1CHOL    R126842  21.607  23.028   5.417 -0.1517  0.0731 -0.0766
    1CHOL    R226843  21.590  23.287   5.322 -0.1065  0.0897 -0.0429
    1CHOL    R326844  21.795  23.329   5.496 -0.0152  0.0015 -0.1272
    1CHOL    R426845  21.812  23.551   5.306 -0.2097  0.1835  0.0650
    1CHOL    R526846  21.972  23.414   5.360 -0.1274  0.1893 -0.1583
    1CHOL    C126847  22.133  23.745   5.460 -0.1840  0.1552  0.0486
    1CHOL    C226848  22.391  23.808   5.232  0.1071 -0.1561 -0.1710
    1CHOL   ROH26849   7.420   3.573   4.265 -0.2145  0.1129  0.1733
    1CHOL    R126850   7.382   3.457   4.520 -0.1342  0.0316  0.1491
    1CHOL    R226851   7.553   3.268   4.625 -0.0592  0.0544  0.0662
    1CHOL    R326852   7.566   3.442   4.834 -0.0735  0.0004  0.1126
    1CHOL    R426853   7.671   3.190   4.941 -0.0929 -0.0342  0.0574
    1CHOL    R526854   7.509   3.310   5.025 -0.0980 -0.0491  0.0728
    1CHOL    C126855   7.751   3.309   5.320 -0.1260 -0.1364  0.0958
    1CHOL    C226856   7.948   2.953   5.379 -0.0947  0.1057  0.0791
    1CHOL   ROH26857  28.179   4.971   4.969  0.2381 -0.0755  0.1149
    1CHOL    R126858  28.208   4.981   5.250  0.3947 -0.0066  0.0973
    1CHOL    R226859  28.402   5.133   5.374  0.1111  0.4821 -0.0297
    1CHOL    R326860  28.190   5.237   5.509 -0.0731 -0.0382  0.1047
    1CHOL    R426861  28.416   5.267   5.693  0.0030  0.5840 -0.0669
    1CHOL    R526862  28.225   5.171   5.736  0.2707  0.0900  0.0943
    1CHOL    C126863  28.225   5.442   6.004 -0.2328  0.1549  0.0377
    1CHOL    C226864  28.289   5.301   6.348 -0.0452  0.0726 -0.2125
    1CHOL   ROH26865  17.539  12.670   5.727 -0.1640 -0.0188 -0.1180
    1CHOL    R126866  17.470  12.504   5.509 -0.1501 -0.0599 -0.0914
    1CHOL    R226867  17.393  12.604   5.263 -0.2030 -0.1056 -0.0949
    1CHOL    R326868  17.594  12.445   5.172 -0.1752 -0.0679 -0.0989
    1CHOL    R426869  17.428  12.498   4.936 -0.1051  0.0226 -0.1267
    1CHOL    R526870  17.489  12.303   5.011 -0.1259 -0.0057 -0.1860
    1CHOL    C126871  17.637  12.287   4.660 -0.0222  0.1325 -0.1489
    1CHOL    C226872  17.451  12.278   4.388 -0.0075  0.1669  0.2447
    1CHOL   ROH26873  17.741  12.443   2.650 -0.1078 -0.1879 -0.0926
    1CHOL    R126874  17.660  12.472   2.920 -0.1721 -0.0697 -0.1247
    1CHOL    R226875  17.398  12.525   2.992 -0.2398 -0.3026 -0.2005
    1CHOL    R326876  17.430  12.304   3.147 -0.0148 -0.1512 -0.0231
    1CHOL    R426877  17.312  12.504   3.326 -0.2550 -0.1325 -0.1922
    1CHOL    R526878  17.495  12.390   3.361 -0.1307  0.0907 -0.0801
    1CHOL    C126879  17.292  12.284   3.666 -0.0531  0.1089 -0.0208
    1CHOL    C226880  17.287  12.147   3.989 -0.0996  0.2359 -0.0617
    1CHOL   ROH26881  21.892   4.790   6.499  0.1905  0.2381 -0.1249
    1CHOL    R126882  21.863   4.902   6.241 -0.0606  0.0864 -0.1649
    1CHOL    R226883  22.030   4.839   6.031 -0.0635  0.2072 -0.2026
    1CHOL    R326884  21.797   4.779   5.905 -0.0423 -0.1496 -0.0840
    1CHOL    R426885  22.004   4.734   5.703 -0.0785  0.3876 -0.2604
    1CHOL    R526886  21.827   4.860   5.682 -0.3416  0.0724 -0.0523
    1CHOL    C126887  21.770   4.616   5.393 -0.0673  0.1577 -0.1827
    1CHOL    C226888  21.782   4.300   5.158 -0.1398 -0.1039 -0.0480
    1CHOL   ROH26889  24.285  24.343   6.898  0.0990  0.1315  0.1159
    1CHOL    R126890  24.297  24.485   6.653 -0.0240  0.0343  0.0514
    1CHOL    R226891  24.515  24.641   6.581 -0.1314  0.1501 -0.0431
    1CHOL    R326892  24.510  24.486   6.358 -0.0577  0.0456  0.0281
    1CHOL    R426893  24.627  24.739   6.270 -0.1470  0.0429 -0.0820
    1CHOL    R526894  24.456  24.637   6.181 -0.1000 -0.0599 -0.0467
    1CHOL    C126895  24.688  24.651   5.879 -0.0869 -0.1174 -0.0379
    1CHOL    C226896  24.872  24.562   5.573 -0.3281  0.3799 -0.0100
    1CHOL   ROH26897   8.149  14.205   5.444  0.1694 -0.1592 -0.0514
    1CHOL    R126898   8.133  14.157   5.165  0.1033 -0.0714 -0.0639
    1CHOL    R226899   8.313  14.264   4.985  0.1383 -0.1158 -0.0616
    1CHOL    R326900   8.344  14.005   4.910 -0.0134 -0.1131 -0.1349
    1CHOL    R426901   8.351  14.156   4.659  0.1509 -0.0440 -0.0835
    1CHOL    R526902   8.221  13.987   4.705  0.0294  0.0285 -0.1709
    1CHOL    C126903   8.402  13.849   4.399  0.0158  0.0005 -0.1652
    1CHOL    C226904   8.507  13.730   4.067 -0.2821  0.2533 -0.1506
    1CHOL   ROH26905   5.159  12.667   6.427  0.1724 -0.1854 -0.0113
    1CHOL    R126906   5.075  12.660   6.157  0.0708 -0.0782  0.0171
    1CHOL    R226907   5.223  12.539   5.957 -0.0031  0.0013 -0.0878
    1CHOL    R326908   4.991  12.404   5.913 -0.0197  0.0184 -0.0537
    1CHOL    R426909   5.176  12.304   5.708 -0.0239 -0.0822 -0.0057
    1CHOL    R526910   4.978  12.386   5.674 -0.0087 -0.0662 -0.0475
    1CHOL    C126911   4.932  12.040   5.521 -0.0516 -0.1148  0.0743
    1CHOL    C226912   4.701  11.826   5.642  0.1404 -0.1414 -0.0720
    1CHOL   ROH26913  23.589   8.520   4.997 -0.0960 -0.0035  0.1199
    1CHOL    R126914  23.656   8.272   4.878 -0.0501  0.0513  0.0297
    1CHOL    R226915  23.902   8.223   4.765 -0.0155  0.1139  0.0744
    1CHOL    R326916  23.902   8.010   4.933 -0.0506  0.0414 -0.0170
    1CHOL    R426917  24.181   8.036   4.846 -0.0417  0.0533  0.0239
    1CHOL    R526918  24.057   7.856   4.835 -0.0552  0.0699 -0.0654
    1CHOL    C126919  24.343   7.726   5.051 -0.0898 -0.0501 -0.0914
    1CHOL    C226920  24.741   7.529   4.930 -0.2913  0.0391  0.2388
    1CHOL   ROH26921   3.861  13.122   3.896  0.0015 -0.0710  0.0496
    1CHOL    R126922   4.060  13.080   4.092 -0.0515 -0.1194  0.0924
    1CHOL    R226923   4.225  13.283   4.183  0.1046 -0.2016 -0.0145
    1CHOL    R326924   4.132  13.204   4.427  0.0211  0.0184  0.0280
    1CHOL    R426925   4.346  13.395   4.487  0.2923 -0.2318 -0.0767
    1CHOL    R526926   4.328  13.192   4.564  0.0285 -0.1855  0.0093
    1CHOL    C126927   4.330  13.387   4.892  0.3231 -0.0426 -0.0730
    1CHOL    C226928   4.611  13.521   5.068  0.0362 -0.1485  0.1016
    1CHOL   ROH26929  18.261  23.119   6.408  0.1146 -0.1211  0.1252
    1CHOL    R126930  18.236  23.134   6.127  0.0025  0.0211  0.1410
    1CHOL    R226931  18.284  23.367   5.985  0.1687  0.0378  0.2171
    1CHOL    R326932  18.455  23.208   5.846 -0.0470 -0.0766  0.0772
    1CHOL    R426933  18.421  23.446   5.678 -0.0172 -0.0583  0.1076
    1CHOL    R526934  18.392  23.239   5.617 -0.2048 -0.0354  0.1278
    1CHOL    C126935  18.662  23.343   5.368 -0.3282 -0.2215 -0.0875
    1CHOL    C226936  18.750  23.525   5.007  0.0267  0.1336 -0.3579
    1CHOL   ROH26937  19.496   8.103   5.323 -0.0356  0.1249 -0.1110
    1CHOL    R126938  19.293   7.981   5.169 -0.0264  0.0553 -0.0654
    1CHOL    R226939  19.198   8.092   4.935 -0.0876  0.0019 -0.0548
    1CHOL    R326940  19.260   7.848   4.832 -0.0500  0.0060 -0.0467
    1CHOL    R426941  19.056   7.955   4.650  0.0022  0.0327 -0.1166
    1CHOL    R526942  19.051   7.762   4.752 -0.0343  0.0174 -0.1242
    1CHOL    C126943  19.032   7.647   4.388  0.0901  0.0543 -0.1450
    1CHOL    C226944  18.933   7.333   4.082 -0.0448  0.2110  0.2821
    1CHOL   ROH26945  21.265   5.805   2.849  0.1625  0.2985 -0.0923
    1CHOL    R126946  21.388   5.747   3.097  0.1918  0.1086 -0.1495
    1CHOL    R226947  21.619   5.874   3.181  0.0865  0.1982  0.0126
    1CHOL    R326948  21.469   5.930   3.401  0.0232 -0.1766  0.0702
    1CHOL    R426949  21.742   6.004   3.476 -0.0932  0.2884  0.0493
    1CHOL    R526950  21.610   5.870   3.585  0.1698 -0.0082  0.0136
    1CHOL    C126951  21.674   6.132   3.855 -0.2571 -0.0110  0.1249
    1CHOL    C226952  21.758   6.354   4.077 -0.1698  0.0257 -0.0504
    1CHOL   ROH26953   3.602  28.183   5.111 -0.0121  0.0955  0.0431
    1CHOL    R126954   3.697  28.133   5.373 -0.0096  0.2098  0.0645
    1CHOL    R226955   3.864  27.921   5.432 -0.1799  0.1097  0.1933
    1CHOL    R326956   4.022  28.116   5.538  0.0062  0.0559  0.0192
    1CHOL    R426957   4.051  27.887   5.721 -0.0797  0.1341  0.1318
    1CHOL    R526958   3.994  28.092   5.775  0.0901  0.2057  0.0454
    1CHOL    C126959   4.308  28.050   5.989  0.1533  0.0977 -0.0675
    1CHOL    C226960   4.397  28.106   6.238 -0.1207  0.0358  0.4066
    1CHOL   ROH26961  28.278  19.635   4.392  0.2402 -0.0874  0.2007
    1CHOL    R126962  28.046  19.569   4.540  0.1881 -0.1245  0.1036
    1CHOL    R226963  28.057  19.484   4.804  0.0902 -0.1057  0.1138
    1CHOL    R326964  27.882  19.689   4.842  0.0318 -0.1380  0.0249
    1CHOL    R426965  27.838  19.510   5.070  0.1430 -0.0101  0.1487
    1CHOL    R526966  27.686  19.585   4.932  0.0865 -0.1464  0.1359
    1CHOL    C126967  27.546  19.718   5.260  0.1190  0.0153  0.0854
    1CHOL    C226968  27.453  19.653   5.614  0.0204 -0.1705  0.0788
    1CHOL   ROH26969  17.392   1.696   3.027  0.0613 -0.2735  0.0372
    1CHOL    R126970  17.356   1.885   3.235  0.2755 -0.1481 -0.0365
    1CHOL    R226971  17.198   1.834   3.456  0.1341  0.1547 -0.0664
    1CHOL    R326972  17.424   1.901   3.592  0.1950 -0.1279 -0.0209
    1CHOL    R426973  17.209   1.921   3.791  0.1630  0.1791 -0.0732
    1CHOL    R526974  17.354   2.075   3.741  0.3849 -0.0139 -0.0582
    1CHOL    C126975  17.427   2.034   4.113  0.2371 -0.0720 -0.0344
    1CHOL    C226976  17.128   2.147   4.328  0.0057 -0.3257  0.2561
    1CHOL   ROH26977   7.289  14.955   4.133 -0.0298 -0.0411  0.0394
    1CHOL    R126978   7.228  14.682   4.085 -0.0620 -0.0151 -0.0733
    1CHOL    R226979   7.383  14.521   3.923 -0.0377  0.0126 -0.0812
    1CHOL    R326980   7.389  14.361   4.143 -0.1342 -0.0615 -0.1321
    1CHOL    R426981   7.542  14.214   3.940  0.0243  0.0446 -0.0858
    1CHOL    R526982   7.373  14.139   4.055 -0.0270 -0.0353 -0.2160
    1CHOL    C126983   7.640  13.886   4.157 -0.0301 -0.0065 -0.1363
    1CHOL    C226984   7.919  13.719   4.394 -0.0106 -0.1025  0.3161
    1CHOL   ROH26985  10.315   3.676   3.580 -0.1414 -0.1934 -0.0198
    1CHOL    R126986  10.339   3.562   3.839  0.0285 -0.1240 -0.0051
    1CHOL    R226987  10.544   3.629   4.012 -0.0206  0.1357 -0.0525
    1CHOL    R326988  10.338   3.683   4.182 -0.0533 -0.0698 -0.0224
    1CHOL    R426989  10.574   3.661   4.355  0.0418  0.3322 -0.0742
    1CHOL    R526990  10.386   3.553   4.377  0.1887  0.0769  0.0266
    1CHOL    C126991  10.398   3.731   4.714  0.0474  0.2537 -0.0585
    1CHOL    C226992  10.651   3.625   4.863 -0.0293 -0.1483 -0.1011
    1CHOL   ROH26993  17.090   0.269   3.163  0.1830  0.0928 -0.0562
    1CHOL    R126994  17.100   0.404   3.412  0.1386  0.1966 -0.1075
    1CHOL    R226995  16.873   0.478   3.551  0.1045  0.1860 -0.1324
    1CHOL    R326996  16.991   0.339   3.752  0.1508  0.2918 -0.0893
    1CHOL    R426997  16.763   0.471   3.878 -0.0441  0.0077 -0.1859
    1CHOL    R526998  16.970   0.481   3.944 -0.1005  0.2281 -0.0794
    1CHOL    C126999  16.810   0.337   4.258 -0.0872  0.0032 -0.1766
    1CHOL    C227000  16.479   0.339   4.509  0.1159 -0.1262  0.1832
    1CHOL   ROH27001  25.104  17.236   5.776 -0.0471  0.1119  0.0400
    1CHOL    R127002  24.928  17.264   5.556 -0.1418  0.0429  0.1060
    1CHOL    R227003  24.706  17.427   5.563 -0.0020  0.2378  0.0703
    1CHOL    R327004  24.817  17.535   5.339 -0.0296 -0.0714 -0.0984
    1CHOL    R427005  24.535  17.618   5.330  0.0635  0.2790  0.0555
    1CHOL    R527006  24.646  17.515   5.173 -0.1833  0.0164  0.0456
    1CHOL    C127007  24.541  17.831   4.985  0.0759  0.0126 -0.1115
    1CHOL    C227008  24.531  18.141   4.822 -0.0543  0.1635  0.0751
    1CHOL   ROH27009   2.181   5.533   4.559  0.0189  0.3019 -0.0658
    1CHOL    R127010   2.158   5.514   4.841 -0.0375  0.0608 -0.0868
    1CHOL    R227011   2.314   5.664   5.014 -0.0851 -0.0832  0.0657
    1CHOL    R327012   2.073   5.738   5.115 -0.1050 -0.1794  0.0963
    1CHOL    R427013   2.267   5.828   5.314 -0.0749  0.0835 -0.0207
    1CHOL    R527014   2.093   5.702   5.350  0.0111 -0.0188  0.1211
    1CHOL    C127015   2.014   5.993   5.584 -0.0876  0.0902 -0.0422
    1CHOL    C227016   1.814   6.104   5.848 -0.2308  0.1699 -0.1418
    1CHOL   ROH27017  18.357  27.981   3.487  0.3093  0.0533  0.0545
    1CHOL    R127018  18.150  28.056   3.665  0.1791  0.0266 -0.0843
    1CHOL    R227019  18.046  27.883   3.854  0.1843  0.0628 -0.0516
    1CHOL    R327020  18.109  28.085   4.026 -0.0151  0.1834 -0.1161
    1CHOL    R427021  17.858  27.974   4.130  0.1867 -0.1662  0.0283
    1CHOL    R527022  17.898  28.183   4.082 -0.1354 -0.1096 -0.0271
    1CHOL    C127023  17.808  28.216   4.451  0.0012 -0.1863  0.0144
    1CHOL    C227024  17.791  28.231   4.797  0.3227  0.3631  0.0771
    1CHOL   ROH27025  25.707   1.485   6.998 -0.0321  0.4121  0.0183
    1CHOL    R127026  25.725   1.377   6.737 -0.1626  0.3703  0.0267
    1CHOL    R227027  25.754   1.535   6.512 -0.0141  0.3220  0.0152
    1CHOL    R327028  25.970   1.376   6.467 -0.1797  0.0912  0.0073
    1CHOL    R427029  25.898   1.480   6.203  0.1118  0.4421  0.0510
    1CHOL    R527030  25.924   1.271   6.257 -0.1851  0.3481 -0.1281
    1CHOL    C127031  26.185   1.300   5.981  0.0294  0.2954  0.0644
    1CHOL    C227032  26.443   1.528   5.745  0.2198 -0.1517  0.0128
    1CHOL   ROH27033  21.897   3.767   3.395  0.0115 -0.1044  0.1256
    1CHOL    R127034  22.096   3.894   3.551  0.0125 -0.0630  0.0917
    1CHOL    R227035  22.066   3.942   3.822  0.0244 -0.0146  0.0881
    1CHOL    R327036  22.303   3.809   3.838  0.0317  0.0009  0.0958
    1CHOL    R427037  22.243   3.889   4.114 -0.0038 -0.0541  0.0975
    1CHOL    R527038  22.427   3.929   4.004  0.0035 -0.0224  0.1296
    1CHOL    C127039  22.567   3.733   4.300 -0.0134 -0.0625  0.1102
    1CHOL    C227040  22.521   3.440   4.603  0.1556 -0.2662 -0.0895
    1CHOL   ROH27041  27.060  25.597   4.415 -0.3052 -0.0083 -0.0074
    1CHOL    R127042  27.226  25.695   4.622 -0.2153 -0.2118  0.0196
    1CHOL    R227043  27.196  25.948   4.730  0.2062 -0.0897 -0.1279
    1CHOL    R327044  27.182  25.811   4.965 -0.1671  0.0519 -0.0607
    1CHOL    R427045  27.264  26.081   5.042  0.4451 -0.0824 -0.1812
    1CHOL    R527046  27.364  25.895   5.094  0.0084 -0.3007 -0.0649
    1CHOL    C127047  27.290  26.030   5.443  0.2336  0.0548 -0.1492
    1CHOL    C227048  27.332  26.186   5.697  0.0070  0.1253 -0.4205
    1CHOL   ROH27049   5.926   1.806   6.475 -0.0347 -0.0742  0.2513
    1CHOL    R127050   6.053   1.599   6.330 -0.0390  0.0164  0.1162
    1CHOL    R227051   6.062   1.339   6.420  0.1104 -0.0088  0.0335
    1CHOL    R327052   5.953   1.284   6.176 -0.0086  0.0253  0.0785
    1CHOL    R427053   6.047   1.024   6.277  0.3547  0.0600 -0.1504
    1CHOL    R527054   6.097   1.115   6.085  0.1143  0.2380 -0.1330
    1CHOL    C127055   5.936   0.790   5.966  0.3853  0.1321 -0.2152
    1CHOL    C227056   5.984   0.442   5.820 -0.1248 -0.1059  0.1506
    1CHOL   ROH27057  23.728  18.152   3.686 -0.1462 -0.0373 -0.0231
    1CHOL    R127058  23.579  18.072   3.912 -0.0298 -0.1244  0.0239
    1CHOL    R227059  23.308  18.020   3.901 -0.0707  0.0425  0.1766
    1CHOL    R327060  23.382  17.782   4.010 -0.1273 -0.0867 -0.0599
    1CHOL    R427061  23.093  17.800   4.059 -0.0744  0.0674  0.2068
    1CHOL    R527062  23.249  17.764   4.208  0.0351 -0.1419  0.0460
    1CHOL    C127063  23.038  17.449   4.254 -0.1293 -0.0393  0.0024
    1CHOL    C227064  22.738  17.374   4.439 -0.1801 -0.0935 -0.0782
    1CHOL   ROH27065  17.965  13.271   3.002  0.3004 -0.0337  0.0402
    1CHOL    R127066  18.107  13.211   3.239  0.1845 -0.0331  0.1101
    1CHOL    R227067  18.037  13.315   3.485  0.0209 -0.0905  0.0862
    1CHOL    R327068  18.034  13.054   3.559  0.0496 -0.1024  0.0469
    1CHOL    R427069  17.964  13.201   3.803  0.3140 -0.1224  0.1453
    1CHOL    R527070  18.123  13.054   3.781  0.2717 -0.1492 -0.0371
    1CHOL    C127071  17.918  12.889   4.057  0.5111 -0.1521  0.1429
    1CHOL    C227072  17.989  13.092   4.461 -0.0084  0.1102 -0.3204
    1CHOL   ROH27073  13.240   8.043   2.578  0.2437  0.1517  0.0413
    1CHOL    R127074  13.119   8.057   2.834  0.1174  0.1116 -0.0153
    1CHOL    R227075  13.230   7.940   3.058 -0.0617 -0.0415 -0.0023
    1CHOL    R327076  13.206   8.190   3.161  0.0203 -0.0697  0.0856
    1CHOL    R427077  13.267   8.020   3.392  0.0894 -0.1483  0.0075
    1CHOL    R527078  13.099   8.157   3.373  0.1036 -0.1164  0.1200
    1CHOL    C127079  13.266   8.302   3.684  0.2543 -0.2371  0.0956
    1CHOL    C227080  12.973   8.502   3.838 -0.0323  0.1434 -0.0053
    1CHOL   ROH27081   6.769   7.839   6.102  0.0987  0.0354 -0.0955
    1CHOL    R127082   6.649   7.833   5.846  0.2126 -0.1136 -0.1473
    1CHOL    R227083   6.562   8.062   5.717 -0.1760 -0.2310 -0.1075
    1CHOL    R327084   6.722   7.971   5.516  0.0891  0.1365 -0.0718
    1CHOL    R427085   6.509   8.122   5.381 -0.2047 -0.2993 -0.1153
    1CHOL    R527086   6.569   7.916   5.340  0.2562 -0.1730 -0.1267
    1CHOL    C127087   6.628   8.073   4.997  0.0274  0.0059 -0.0862
    1CHOL    C227088   6.431   7.775   4.777  0.0136  0.4982  0.1262
    1CHOL   ROH27089  22.485  26.130   3.673 -0.2314  0.1993  0.0203
    1CHOL    R127090  22.563  26.121   3.945 -0.1817  0.1745  0.0043
    1CHOL    R227091  22.406  26.225   4.148 -0.2210  0.0002  0.0554
    1CHOL    R327092  22.433  25.976   4.252 -0.0244 -0.0096 -0.0122
    1CHOL    R427093  22.337  26.139   4.475 -0.3467 -0.1647 -0.0120
    1CHOL    R527094  22.514  26.013   4.474 -0.2022  0.0161  0.0572
    1CHOL    C127095  22.323  25.856   4.764 -0.2354 -0.2697 -0.1146
    1CHOL    C227096  22.249  25.535   4.840  0.0159 -0.0027  0.2633
    1CHOL   ROH27097  28.474  20.738   4.375  0.0724  0.2969  0.1098
    1CHOL    R127098  28.542  20.538   4.564  0.0099  0.0964 -0.0775
    1CHOL    R227099  28.674  20.595   4.799  0.1323 -0.1832 -0.0822
    1CHOL    R327100  28.463  20.465   4.912  0.0908 -0.1398 -0.1053
    1CHOL    R427101  28.651  20.509   5.133 -0.0320  0.0656 -0.0248
    1CHOL    R527102  28.564  20.318   5.072  0.0365 -0.0032  0.0643
    1CHOL    C127103  28.440  20.335   5.433 -0.1669  0.2515 -0.0130
    1CHOL    C227104  28.245  20.289   5.764 -0.3174 -0.2498  0.4992
    1CHOL   ROH27105   7.004   1.366   4.380 -0.1562  0.2647  0.0610
    1CHOL    R127106   7.225   1.306   4.545 -0.1354  0.1238 -0.0172
    1CHOL    R227107   7.288   1.453   4.770  0.0329  0.0794 -0.0332
    1CHOL    R327108   7.279   1.211   4.892 -0.0739  0.0807 -0.0384
    1CHOL    R427109   7.449   1.375   5.065  0.0162 -0.0055 -0.0464
    1CHOL    R527110   7.499   1.180   4.981 -0.0824 -0.0270 -0.0543
    1CHOL    C127111   7.533   1.102   5.353 -0.0936 -0.0536 -0.0590
    1CHOL    C227112   7.617   0.816   5.577 -0.1829  0.2399 -0.1766
    1CHOL   ROH27113  15.774  10.256   2.165 -0.0148  0.2760 -0.0838
    1CHOL    R127114  15.935  10.335   2.384  0.0874  0.1008 -0.0963
    1CHOL    R227115  15.873  10.270   2.645  0.0439  0.1554 -0.1022
    1CHOL    R327116  16.125  10.169   2.646 -0.0555 -0.1040 -0.1167
    1CHOL    R427117  16.059  10.205   2.929  0.0676  0.1909 -0.1080
    1CHOL    R527118  16.235  10.283   2.826  0.1204 -0.0642 -0.2373
    1CHOL    C127119  16.404  10.072   3.095 -0.0115 -0.0322 -0.1250
    1CHOL    C227120  16.655  10.274   3.371 -0.4296  0.0024 -0.1109
    1CHOL   ROH27121   8.177   3.986   4.218 -0.0706  0.0692 -0.0164
    1CHOL    R127122   8.269   3.898   4.471  0.0155 -0.0014 -0.0722
    1CHOL    R227123   8.474   4.023   4.607 -0.0333  0.0432 -0.0487
    1CHOL    R327124   8.291   4.037   4.807 -0.0057 -0.1496 -0.0072
    1CHOL    R427125   8.540   4.130   4.929 -0.0220 -0.0664 -0.0138
    1CHOL    R527126   8.411   3.971   5.003  0.0751 -0.1765 -0.0600
    1CHOL    C127127   8.406   4.204   5.305  0.0103 -0.3111  0.0455
    1CHOL    C227128   8.075   4.218   5.530 -0.0810 -0.1393 -0.0751
    1CHOL   ROH27129   6.452  19.490   4.779 -0.0074  0.2083 -0.0022
    1CHOL    R127130   6.691  19.545   4.919 -0.0507  0.1614  0.0912
    1CHOL    R227131   6.941  19.510   4.805 -0.0125  0.0861  0.1975
    1CHOL    R327132   6.975  19.770   4.879  0.0234  0.0853  0.1848
    1CHOL    R427133   7.238  19.686   4.784  0.0152  0.0404  0.2027
    1CHOL    R527134   7.193  19.776   4.977  0.0195  0.0580  0.1953
    1CHOL    C127135   7.443  20.031   4.842  0.0649  0.0132  0.1937
    1CHOL    C227136   7.572  20.338   5.156 -0.1952 -0.1575  0.0596
    1CHOL   ROH27137  16.123   7.062   4.814  0.0942 -0.1995 -0.0284
    1CHOL    R127138  16.313   6.970   4.626 -0.0681 -0.1786 -0.2057
    1CHOL    R227139  16.335   7.079   4.372  0.0353  0.1912 -0.0470
    1CHOL    R327140  16.595   7.112   4.445  0.1019 -0.2886 -0.0304
    1CHOL    R427141  16.605   7.059   4.157 -0.0388  0.2585 -0.1464
    1CHOL    R527142  16.715   6.953   4.312 -0.1357 -0.1944 -0.3704
    1CHOL    C127143  17.005   7.079   4.099 -0.0194 -0.1526 -0.1887
    1CHOL    C227144  17.410   7.181   3.994 -0.0302  0.0350  0.1064
    1CHOL   ROH27145  20.866  27.567   3.512 -0.2232 -0.0044 -0.0832
    1CHOL    R127146  20.961  27.465   3.759 -0.1457  0.1957 -0.0291
    1CHOL    R227147  20.890  27.576   4.002 -0.4908  0.0783 -0.0723
    1CHOL    R327148  20.813  27.321   4.059 -0.0209 -0.0782 -0.0964
    1CHOL    R427149  20.765  27.470   4.307 -0.3502 -0.1752 -0.0988
    1CHOL    R527150  20.883  27.288   4.286  0.0044  0.0419 -0.0860
    1CHOL    C127151  20.621  27.170   4.538  0.1729 -0.4699 -0.1369
    1CHOL    C227152  20.369  27.168   4.631  0.0314  0.0034  0.1919
    1CHOL   ROH27153  17.885   5.543   5.232  0.0214 -0.2971  0.1414
    1CHOL    R127154  17.903   5.363   5.013 -0.0220 -0.0767 -0.0474
    1CHOL    R227155  17.750   5.392   4.785  0.0098  0.2184 -0.0379
    1CHOL    R327156  17.992   5.384   4.661  0.0199  0.2623 -0.0199
    1CHOL    R427157  17.798   5.411   4.443  0.0229  0.0729 -0.0447
    1CHOL    R527158  17.952   5.259   4.461  0.0867  0.1486  0.0385
    1CHOL    C127159  18.052   5.415   4.128  0.0400  0.0293 -0.0318
    1CHOL    C227160  18.101   5.640   3.830 -0.2004  0.1060 -0.0148
    1CHOL   ROH27161   2.119   9.933   5.618  0.0581 -0.0942 -0.0016
    1CHOL    R127162   2.346  10.030   5.480  0.1432 -0.1523  0.0951
    1CHOL    R227163   2.575   9.878   5.444  0.0285 -0.3062 -0.0284
    1CHOL    R327164   2.534   9.938   5.182  0.0812 -0.0414  0.0226
    1CHOL    R427165   2.822   9.892   5.203  0.0611 -0.1337  0.0147
    1CHOL    R527166   2.725  10.068   5.120  0.1196 -0.0302  0.1723
    1CHOL    C127167   2.928   9.956   4.817  0.1296  0.2153  0.0876
    1CHOL    C227168   2.869   9.992   4.425 -0.0662  0.0758 -0.2569
    1CHOL   ROH27169  18.384  13.196   2.850  0.0199 -0.0590 -0.1251
    1CHOL    R127170  18.523  13.068   3.061 -0.0567 -0.0370 -0.0605
    1CHOL    R227171  18.544  13.178   3.313 -0.0104  0.0682 -0.1081
    1CHOL    R327172  18.442  12.938   3.391 -0.1414  0.1562 -0.0044
    1CHOL    R427173  18.551  13.055   3.636  0.0706  0.1278 -0.0868
    1CHOL    R527174  18.596  12.857   3.555 -0.1131  0.0791 -0.0698
    1CHOL    C127175  18.459  12.758   3.897 -0.0056  0.2453  0.0231
    1CHOL    C227176  18.315  12.677   4.218 -0.2483  0.2494  0.1734
    1CHOL   ROH27177  19.585  26.387   3.515  0.0253  0.0978 -0.1034
    1CHOL    R127178  19.575  26.257   3.766  0.2216 -0.0599 -0.1740
    1CHOL    R227179  19.800  26.217   3.922  0.2669  0.3504 -0.1260
    1CHOL    R327180  19.652  26.344   4.112 -0.0814 -0.0649 -0.1012
    1CHOL    R427181  19.859  26.203   4.262  0.2864  0.4085 -0.1267
    1CHOL    R527182  19.644  26.190   4.295  0.2972 -0.1471 -0.1425
    1CHOL    C127183  19.754  26.313   4.638 -0.0292  0.0521 -0.1039
    1CHOL    C227184  20.005  26.367   5.048 -0.0643 -0.2360  0.2177
    1CHOL   ROH27185  17.812   4.431   2.735 -0.1238  0.0471 -0.0846
    1CHOL    R127186  17.818   4.558   2.988  0.0230 -0.0416 -0.0406
    1CHOL    R227187  17.704   4.807   3.032  0.2894  0.0720  0.0487
    1CHOL    R327188  17.572   4.675   3.230  0.1542  0.1425  0.0045
    1CHOL    R427189  17.534   4.959   3.291  0.3241  0.1622  0.0170
    1CHOL    R527190  17.612   4.807   3.426  0.1904  0.1006  0.0237
    1CHOL    C127191  17.311   4.925   3.628  0.2171  0.2809 -0.0430
    1CHOL    C227192  17.167   5.270   3.790  0.3085 -0.0964  0.1946
    1CHOL   ROH27193  23.586   1.289   3.756  0.0676  0.1066 -0.0137
    1CHOL    R127194  23.511   1.082   3.934  0.1232  0.0698 -0.0337
    1CHOL    R227195  23.633   1.047   4.180  0.0183  0.1830  0.0318
    1CHOL    R327196  23.377   1.060   4.271 -0.0407  0.0033 -0.1012
    1CHOL    R427197  23.522   0.907   4.476  0.0299  0.3192  0.1015
    1CHOL    R527198  23.340   0.846   4.373  0.1340  0.0444  0.0627
    1CHOL    C127199  23.217   0.837   4.734 -0.0189  0.2299  0.0173
    1CHOL    C227200  22.837   0.786   4.702 -0.3001 -0.1766 -0.0061
    1CHOL   ROH27201   5.159  13.876   6.004 -0.2245 -0.0388 -0.0614
    1CHOL    R127202   5.143  13.817   5.728 -0.3004 -0.0594 -0.0524
    1CHOL    R227203   4.915  13.864   5.578 -0.2264  0.2590 -0.0683
    1CHOL    R327204   5.087  14.003   5.420 -0.0076 -0.0204 -0.0856
    1CHOL    R427205   4.857  13.942   5.247 -0.2589  0.5761  0.0091
    1CHOL    R527206   5.067  13.898   5.205 -0.3676  0.1369 -0.1379
    1CHOL    C127207   4.984  14.119   4.905 -0.0724  0.4986  0.0378
    1CHOL    C227208   4.959  14.162   4.521 -0.1639  0.1199  0.2292
    1CHOL   ROH27209  23.089  20.354   6.184 -0.0809 -0.2356 -0.0515
    1CHOL    R127210  23.240  20.402   5.948 -0.0023 -0.3043 -0.0162
    1CHOL    R227211  23.216  20.246   5.722 -0.1841 -0.1632 -0.0977
    1CHOL    R327212  23.168  20.484   5.601  0.1225 -0.0378  0.0184
    1CHOL    R427213  23.261  20.310   5.385 -0.1804 -0.0833 -0.0819
    1CHOL    R527214  23.342  20.505   5.438  0.1131 -0.2164 -0.0169
    1CHOL    C127215  23.243  20.572   5.076  0.1096  0.0811  0.0362
    1CHOL    C227216  23.232  20.698   4.691 -0.0491  0.1340  0.2100
    1CHOL   ROH27217  24.541   3.423   3.791  0.1126  0.0935 -0.0535
    1CHOL    R127218  24.528   3.583   4.023  0.0360  0.0566 -0.0321
    1CHOL    R227219  24.293   3.625   4.162  0.0315 -0.1439  0.0233
    1CHOL    R327220  24.439   3.535   4.373  0.1474 -0.0544 -0.0184
    1CHOL    R427221  24.235   3.709   4.493  0.1690 -0.0625  0.0275
    1CHOL    R527222  24.450   3.723   4.522  0.1792 -0.0107 -0.0766
    1CHOL    C127223  24.339   3.674   4.883  0.3578  0.0689 -0.0093
    1CHOL    C227224  24.106   3.834   5.222 -0.1222  0.2022 -0.3071
    1CHOL   ROH27225  15.804  26.442   3.324 -0.1737  0.2384 -0.0432
    1CHOL    R127226  15.707  26.388   3.584 -0.0328  0.0655 -0.0250
    1CHOL    R227227  15.782  26.536   3.805 -0.0363  0.0195  0.0065
    1CHOL    R327228  15.513  26.565   3.837 -0.0435 -0.1640  0.1312
    1CHOL    R427229  15.623  26.590   4.107  0.0823  0.0580  0.0627
    1CHOL    R527230  15.466  26.454   4.043  0.1477 -0.0940  0.2157
    1CHOL    C127231  15.279  26.648   4.313  0.1446 -0.0920  0.2125
    1CHOL    C227232  14.937  26.466   4.560  0.3225  0.0412  0.0513
    1CHOL   ROH27233  21.015  24.878   6.308 -0.1185  0.1141 -0.0031
    1CHOL    R127234  21.097  24.984   6.058  0.0331  0.0388  0.0131
    1CHOL    R227235  21.180  24.824   5.849  0.0309 -0.0346  0.0643
    1CHOL    R327236  20.988  24.958   5.712  0.1510  0.0481 -0.0239
    1CHOL    R427237  21.188  24.887   5.509  0.0821 -0.2621  0.0215
    1CHOL    R527238  21.109  25.086   5.550  0.2613 -0.1660 -0.1106
    1CHOL    C127239  21.011  25.050   5.183  0.2242 -0.3167 -0.0862
    1CHOL    C227240  21.150  24.935   4.809 -0.0170 -0.1624 -0.3481
    1CHOL   ROH27241  12.545  13.695   2.754  0.2129  0.2212  0.2202
    1CHOL    R127242  12.494  13.671   3.032  0.0813  0.0256  0.1822
    1CHOL    R227243  12.242  13.703   3.141  0.0455  0.0476  0.0964
    1CHOL    R327244  12.293  13.457   3.247 -0.1054 -0.0586 -0.0721
    1CHOL    R427245  12.136  13.596   3.452  0.2728  0.0265  0.1684
    1CHOL    R527246  12.329  13.500   3.480  0.2014 -0.2022 -0.0899
    1CHOL    C127247  12.121  13.304   3.733  0.2633 -0.0856  0.0521
    1CHOL    C227248  11.904  13.074   3.841  0.4300 -0.2661  0.0445
    1CHOL   ROH27249  18.883  26.860   3.670  0.1542  0.0016  0.0323
    1CHOL    R127250  18.798  26.775   3.927 -0.2058  0.0910 -0.0520
    1CHOL    R227251  18.912  26.871   4.160 -0.1124 -0.2728  0.0496
    1CHOL    R327252  18.654  26.931   4.223 -0.0216  0.3155 -0.0746
    1CHOL    R427253  18.803  26.970   4.473 -0.0602 -0.3244  0.0851
    1CHOL    R527254  18.626  26.846   4.444 -0.3777  0.1369 -0.1735
    1CHOL    C127255  18.497  27.084   4.713  0.0557  0.1980 -0.0107
    1CHOL    C227256  18.725  27.300   4.815 -0.6325 -0.0597  0.2646
    1CHOL   ROH27257  20.018   9.055   2.211  0.2307 -0.2536 -0.0041
    1CHOL    R127258  20.163   8.939   2.425  0.2261 -0.1961  0.0300
    1CHOL    R227259  20.050   8.889   2.672  0.2314 -0.0953  0.0518
    1CHOL    R327260  20.141   8.637   2.627  0.1994 -0.1229  0.1379
    1CHOL    R427261  20.040   8.632   2.902 -0.0484 -0.0869  0.0528
    1CHOL    R527262  20.238   8.571   2.835 -0.0035 -0.1462  0.2292
    1CHOL    C127263  20.119   8.245   2.994 -0.2414 -0.1080  0.1341
    1CHOL    C227264  19.888   8.057   3.214 -0.3654 -0.0079 -0.0603
    1CHOL   ROH27265  12.795  18.259   3.416 -0.0771 -0.0808 -0.1016
    1CHOL    R127266  12.671  18.284   3.669 -0.1484 -0.0666 -0.1378
    1CHOL    R227267  12.728  18.492   3.843  0.0329 -0.2239 -0.0046
    1CHOL    R327268  12.458  18.529   3.836  0.0757  0.1026 -0.0961
    1CHOL    R427269  12.529  18.546   4.120 -0.0136 -0.0950 -0.0623
    1CHOL    R527270  12.378  18.416   4.032 -0.1375  0.1200 -0.1721
    1CHOL    C127271  12.160  18.612   4.276 -0.0006  0.2866 -0.1817
    1CHOL    C227272  12.292  18.732   4.683  0.2256  0.1652 -0.5074
    1CHOL   ROH27273  19.194   1.617   6.385  0.0826  0.1302  0.0239
    1CHOL    R127274  19.321   1.610   6.133 -0.0500  0.1478 -0.0436
    1CHOL    R227275  19.490   1.405   6.056  0.1367  0.2969 -0.0335
    1CHOL    R327276  19.322   1.389   5.843  0.0330  0.0046  0.0648
    1CHOL    R427277  19.581   1.298   5.740  0.0409  0.0952  0.0049
    1CHOL    R527278  19.456   1.456   5.657 -0.1108 -0.0581 -0.0632
    1CHOL    C127279  19.476   1.221   5.357 -0.1122 -0.2967  0.1195
    1CHOL    C227280  19.362   1.234   5.017 -0.1808  0.1703  0.1759
    1CHOL   ROH27281   8.984  16.963   5.837  0.1454  0.3400 -0.0159
    1CHOL    R127282   8.983  17.006   5.557  0.2170 -0.0020 -0.0743
    1CHOL    R227283   8.993  16.799   5.374 -0.1511 -0.2580  0.1752
    1CHOL    R327284   8.768  16.917   5.277  0.0481  0.0237  0.0473
    1CHOL    R427285   8.881  16.772   5.048 -0.0731 -0.2113  0.1449
    1CHOL    R527286   8.828  16.983   5.054  0.2203 -0.1359  0.0483
    1CHOL    C127287   8.606  16.867   4.767  0.1594  0.0801  0.0071
    1CHOL    C227288   8.444  16.936   4.461 -0.0900 -0.0654 -0.0067
    1CHOL   ROH27289  15.603   1.070   5.901  0.0493 -0.0207 -0.0091
    1CHOL    R127290  15.439   1.180   5.698  0.2492  0.0516 -0.1333
    1CHOL    R227291  15.518   1.191   5.433  0.2913 -0.3557 -0.1444
    1CHOL    R327292  15.282   1.063   5.391  0.0690 -0.0028 -0.0209
    1CHOL    R427293  15.364   1.156   5.126  0.3261 -0.5446 -0.1416
    1CHOL    R527294  15.172   1.193   5.223  0.3539 -0.0542 -0.2523
    1CHOL    C127295  15.053   1.014   4.908  0.1375 -0.3233 -0.0239
    1CHOL    C227296  14.761   0.828   4.679 -0.3181 -0.1010 -0.1653
    1CHOL   ROH27297   0.846  10.316   3.972  0.1116 -0.0056 -0.0058
    1CHOL    R127298   0.703  10.343   4.215  0.1174  0.0386 -0.0074
    1CHOL    R227299   0.672  10.134   4.394  0.0435  0.0456 -0.0124
    1CHOL    R327300   0.778  10.313   4.569  0.1019  0.0063 -0.0069
    1CHOL    R427301   0.598  10.150   4.731 -0.1216  0.2024 -0.0543
    1CHOL    R527302   0.598  10.366   4.717  0.0678  0.1997 -0.1158
    1CHOL    C127303   0.654  10.327   5.092 -0.1629  0.2568 -0.0735
    1CHOL    C227304   0.473  10.455   5.359 -0.0517  0.1075 -0.1587
    1CHOL   ROH27305   7.242  18.590   6.058  0.0473 -0.2379 -0.0404
    1CHOL    R127306   7.289  18.556   5.781  0.0826 -0.1672 -0.0428
    1CHOL    R227307   7.145  18.691   5.588  0.1130 -0.1124 -0.0256
    1CHOL    R327308   7.392  18.767   5.503  0.1267 -0.0981  0.0250
    1CHOL    R427309   7.214  18.828   5.278  0.1408  0.0638  0.0569
    1CHOL    R527310   7.396  18.708   5.271  0.1230  0.0402 -0.0113
    1CHOL    C127311   7.486  18.979   5.018  0.1699  0.1798  0.1524
    1CHOL    C227312   7.500  18.724   4.751 -0.0225 -0.0038  0.1639
    1CHOL   ROH27313   3.505   8.792   3.899 -0.0517 -0.0303 -0.1254
    1CHOL    R127314   3.669   8.724   4.120  0.0478  0.0346 -0.1789
    1CHOL    R227315   3.858   8.898   4.223 -0.1869  0.2225 -0.0604
    1CHOL    R327316   3.726   8.851   4.456 -0.1196 -0.1295 -0.0865
    1CHOL    R427317   3.978   8.978   4.537 -0.2537  0.1034 -0.0038
    1CHOL    R527318   3.898   8.788   4.611 -0.0290 -0.0587 -0.1542
    1CHOL    C127319   3.924   8.981   4.939 -0.2294 -0.2963  0.0046
    1CHOL    C227320   3.994   9.281   5.241  0.0518 -0.1728  0.1061
    1CHOL   ROH27321   6.938   3.806   7.106 -0.0488 -0.0359 -0.0119
    1CHOL    R127322   6.755   3.704   6.916  0.0623 -0.0329 -0.1237
    1CHOL    R227323   6.509   3.822   6.868 -0.0363 -0.1968 -0.0570
    1CHOL    R327324   6.597   3.823   6.611  0.0058  0.0954 -0.0436
    1CHOL    R427325   6.305   3.847   6.590 -0.0461 -0.5120 -0.0805
    1CHOL    R527326   6.431   3.699   6.491  0.2854 -0.2085 -0.1229
    1CHOL    C127327   6.269   3.862   6.186 -0.0124 -0.4212 -0.0816
    1CHOL    C227328   6.346   3.959   5.727 -0.0641  0.1108 -0.2585
    1CHOL   ROH27329  20.085   9.955   2.479  0.3417  0.1208  0.0831
    1CHOL    R127330  20.056  10.067   2.737  0.1047  0.1059  0.0678
    1CHOL    R227331  19.899   9.952   2.934  0.0738 -0.0167 -0.0120
    1CHOL    R327332  20.128   9.965   3.079 -0.0113  0.1616  0.1057
    1CHOL    R427333  19.917   9.935   3.278 -0.0614 -0.0557 -0.0078
    1CHOL    R527334  20.069  10.090   3.274 -0.2035  0.0707  0.0955
    1CHOL    C127335  20.142   9.938   3.615 -0.2198  0.0889  0.1051
    1CHOL    C227336  20.325  10.082   3.900 -0.1056  0.1137 -0.0944
    1CHOL   ROH27337  18.853   0.092   3.037  0.2206  0.0200 -0.1946
    1CHOL    R127338  18.962   0.183   3.282  0.1906 -0.0068 -0.1719
    1CHOL    R227339  18.856   0.115   3.527  0.1321  0.0070 -0.1979
    1CHOL    R327340  19.110   0.032   3.578  0.1079 -0.0395 -0.1455
    1CHOL    R427341  19.014   0.140   3.833  0.1438  0.1869 -0.2173
    1CHOL    R527342  19.197   0.197   3.729  0.1636  0.0506 -0.2689
    1CHOL    C127343  19.345   0.078   4.059  0.1279  0.2480 -0.1794
    1CHOL    C227344  19.191   0.396   4.223  0.2798  0.0859  0.2187
    1CHOL   ROH27345  11.446  12.068   2.702  0.2581 -0.1477 -0.0450
    1CHOL    R127346  11.364  11.961   2.951  0.3040 -0.2683 -0.0800
    1CHOL    R227347  11.541  11.905   3.155  0.3134 -0.0963 -0.0344
    1CHOL    R327348  11.376  12.065   3.300  0.0933 -0.2905 -0.0658
    1CHOL    R427349  11.587  11.986   3.488  0.0202 -0.2142  0.0373
    1CHOL    R527350  11.372  11.964   3.517  0.0190 -0.3921 -0.1171
    1CHOL    C127351  11.459  12.183   3.818 -0.3571 -0.4651  0.0496
    1CHOL    C227352  11.279  12.554   4.058  0.1706  0.2751  0.0391
    1CHOL   ROH27353  18.050   8.442   2.083 -0.0961 -0.0050  0.1238
    1CHOL    R127354  18.056   8.488   2.363 -0.0194 -0.2507  0.1641
    1CHOL    R227355  17.837   8.581   2.503  0.1332  0.0080  0.2354
    1CHOL    R327356  17.881   8.360   2.655 -0.2443 -0.2048  0.0527
    1CHOL    R427357  17.760   8.554   2.839  0.3551 -0.0262  0.2850
    1CHOL    R527358  17.948   8.447   2.868  0.1451 -0.4883  0.0585
    1CHOL    C127359  17.758   8.332   3.178  0.1298 -0.2457  0.1424
    1CHOL    C227360  17.971   8.208   3.501  0.2437  0.1945  0.0970
    1W        W27361  25.137  27.459   2.804  0.0739 -0.0973 -0.1843
    1W        W27362  23.919  15.904   9.766 -0.0836 -0.1309 -0.2319
    1W        W27363  27.612   0.562   0.323  0.0848 -0.0925 -0.1412
    1W        W27364   7.117  22.820   1.857  0.2126 -0.3187 -0.0150
    1W        W27365  11.240  15.349   2.138 -0.1785 -0.3154  0.1434
    1W        W27366   2.182  26.869   9.641  0.2141  0.2099  0.1313
    1W        W27367  15.778   2.402   7.157  0.0774  0.1054 -0.1149
    1W        W27368   1.160  21.964   8.933 -0.2327 -0.0353  0.0074
    1W        W27369  27.288   7.372   0.866  0.5816  0.3267  0.1435
    1W        W27370  24.580  10.533   0.602 -0.0258  0.0097  0.0363
    1W        W27371  26.782  10.893   2.106  0.2368  0.1055 -0.0216
    1W        W27372  28.296  27.642   3.669 -0.1435 -0.0874  0.2065
    1W        W27373  22.897  13.135   2.662 -0.1017  0.1398 -0.1239
    1W        W27374  15.339  27.708   7.235  0.4013 -0.2315  0.1811
    1W        W27375  23.564  27.928   9.828 -0.0387  0.0642 -0.1381
    1W        W27376  20.046  20.877   0.293 -0.0773 -0.0732  0.0034
    1W        W27377  10.127  10.902   6.536  0.0295 -0.0098  0.1458
    1W        W27378  17.584   1.333   9.160 -0.1334  0.0251 -0.1798
    1W        W27379  26.521  26.729   3.795 -0.0722 -0.1395 -0.1860
    1W        W27380  25.171  17.012   9.845 -0.1407 -0.1373  0.1786
    1W        W27381   9.978  23.236   0.638  0.2053 -0.2739 -0.1288
    1W        W27382  20.122  28.282   7.392 -0.1190 -0.0696  0.0607
    1W        W27383  20.844  16.536   0.219  0.0282  0.0532  0.5046
    1W        W27384  10.487   9.681   0.953  0.0720  0.2210 -0.0794
    1W        W27385  27.773  23.782   3.189 -0.2983  0.0508  0.1692
    1W        W27386   5.029  16.458   2.318 -0.1278 -0.1179 -0.3497
    1W        W27387   0.618   9.574   1.659 -0.0881  0.0377  0.0519
    1W        W27388   0.271  16.912   1.757  0.2558  0.0712 -0.2349
    1W        W27389   9.600   0.532   9.519 -0.0518 -0.1610 -0.0820
    1W        W27390  28.862   4.582   3.368  0.3324  0.3839 -0.1626
    1W        W27391  18.213  12.552   1.634 -0.0992  0.2650  0.0397
    1W        W27392   7.886  17.166   0.602  0.0770  0.0507 -0.0937
    1W        W27393   0.951  22.763   0.195  0.1871 -0.1452  0.0466
    1W        W27394   4.656  24.772   1.294 -0.0880 -0.0128 -0.0306
    1W        W27395   1.429   8.279   1.830  0.0020  0.0169  0.0052
    1W        W27396   0.487   9.253   6.876  0.1234  0.0976  0.0747
    1W        W27397  20.724  19.465   7.338 -0.0144 -0.0360  0.2074
    1W        W27398  17.987  21.022   2.167  0.0360 -0.0019  0.0626
    1W        W27399   1.020  28.364   4.449  0.0064 -0.1312 -0.2666
    1W        W27400  17.325  28.148   0.740  0.2081  0.2777 -0.2559
    1W        W27401  12.585   0.060   1.394  0.1174  0.0774 -0.0840
    1W        W27402   9.763  18.988   9.817 -0.0307 -0.0667 -0.1045
    1W        W27403   6.316   1.486   3.921  0.0725 -0.0387  0.1576
    1W        W27404   9.477   0.117   1.748 -0.2199  0.0950  0.3029
    1W        W27405  11.031  13.007   1.422  0.1634  0.2137  0.0020
    1W        W27406  11.505  12.030   8.488  0.2276  0.2084 -0.0427
    1W        W27407  18.478   5.048   1.225 -0.1657 -0.0313  0.2494
    1W        W27408  13.667  19.803   0.181 -0.1188 -0.1376  0.1698
    1W        W27409  18.650  18.817   1.703  0.0360 -0.2688  0.1315
    1W        W27410   2.168  16.042   8.417  0.1679 -0.0769 -0.0574
    1W        W27411  14.334  23.937   0.337 -0.1076 -0.0030  0.2356
    1W        W27412  13.889  15.503   8.764 -0.0979  0.2334 -0.0036
    1W        W27413   8.110  23.260   2.651 -0.3178  0.2319  0.0024
    1W        W27414  23.488   0.641   9.426 -0.0590  0.0614 -0.1584
    1W        W27415   9.032  19.009   8.239 -0.1755 -0.1018  0.2062
    1W        W27416  19.593   3.216   8.947 -0.0668  0.0622  0.0191
    1W        W27417  18.622  19.330   0.781 -0.2957  0.2249 -0.0305
    1W        W27418   2.784  15.617   7.269 -0.0568  0.0123 -0.0760
    1W        W27419   2.709  16.443   3.077 -0.2369  0.1329 -0.2342
    1W        W27420  22.173  26.213   2.925 -0.3911  0.4291  0.1719
    1W        W27421  10.704  28.618   0.174 -0.0541 -0.1223 -0.1567
    1W        W27422   8.337  14.435   8.187  0.0939  0.0413 -0.0230
    1W        W27423  18.505   0.610   9.922  0.0491  0.0112 -0.0231
    1W        W27424  20.162  14.167   6.908 -0.2053  0.1184 -0.1296
    1W        W27425  12.959  25.990   8.724 -0.3229  0.1821  0.1772
    1W        W27426  15.029   6.475   1.967  0.1263 -0.0103 -0.2406
    1W        W27427  10.772   5.841   0.197  0.3281  0.1696  0.0305
    1W        W27428  12.207  21.586   9.040 -0.0407 -0.0440  0.0453
    1W        W27429  14.553  16.511   9.792 -0.1239  0.1512 -0.0181
    1W        W27430   6.577   0.684   2.441 -0.2132 -0.0479  0.2847
    1W        W27431  24.850   5.817  10.000 -0.2904 -0.3066 -0.2290
    1W        W27432  14.630  19.475   1.543 -0.1489 -0.1422 -0.2715
    1W        W27433  18.368  19.220   9.078 -0.2464 -0.2989  0.1697
    1W        W27434  21.997   2.750   7.375 -0.1170  0.0274 -0.0750
    1W        W27435  18.705   4.508   9.614 -0.2553 -0.0887 -0.1192
    1W        W27436  10.356  17.554   6.530  0.0150 -0.2012  0.4946
    1W        W27437  15.993  15.545   0.402 -0.2099 -0.1643  0.0321
    1W        W27438  10.753  17.789   0.492 -0.0924  0.1649 -0.1461
    1W        W27439   1.261   0.347   8.983  0.3111 -0.1467  0.1412
    1W        W27440  21.141  11.383   9.882 -0.2146  0.1450 -0.0048
    1W        W27441  12.588  27.503   1.362 -0.0194 -0.0548  0.0529
    1W        W27442  11.137   5.540   9.458  0.0391 -0.1577 -0.0765
    1W        W27443  26.276  16.567   9.735 -0.0537 -0.0573 -0.0950
    1W        W27444  26.539  28.852   0.999 -0.2185  0.0027  0.2568
    1W        W27445  10.573   1.281   8.098  0.0687 -0.2576 -0.1177
    1W        W27446  19.265   7.001   1.112  0.0273 -0.0041  0.0044
    1W        W27447  17.328  15.770   8.374  0.0882  0.2582 -0.1510
    1W        W27448  14.952  27.418   1.160 -0.0252 -0.0108  0.0391
    1W        W27449   9.775   6.646   8.179 -0.1413  0.2239  0.2935
    1W        W27450   0.298   6.411   8.551 -0.2703 -0.2655  0.0366
    1W        W27451  10.601  10.192   7.805 -0.0281 -0.0039 -0.0856
    1W        W27452   6.861   9.694   0.788 -0.3195 -0.2365  0.1841
    1W        W27453   6.623  23.792   7.860  0.0783 -0.0225  0.2150
    1W        W27454  23.730  20.712   0.388 -0.0732 -0.3287 -0.0667
    1W        W27455   4.973  14.558   9.189  0.0069  0.1305  0.0177
    1W        W27456  19.840  24.606   7.808 -0.0035 -0.1874  0.1325
    1W        W27457   1.412  23.917   0.485  0.2734 -0.0719 -0.1252
    1W        W27458   7.789   9.073   1.429 -0.1015  0.0878  0.0182
    1W        W27459   8.620  16.084   7.977  0.0822  0.0766  0.1315
    1W        W27460  20.508  26.680   1.965 -0.3386 -0.5203  0.2864
    1W        W27461  17.362  18.505   6.265  0.2559 -0.3641  0.0722
    1W        W27462  27.979  10.429   7.905 -0.0981 -0.2244 -0.1626
    1W        W27463   9.166  18.662   7.357  0.1909  0.2340 -0.1462
    1W        W27464  17.290  19.979   2.803 -0.0170 -0.1616  0.0255
    1W        W27465   2.451  14.686   0.226  0.3426  0.2770 -0.0135
    1W        W27466  26.967  16.925   8.511  0.1620 -0.0449  0.0281
    1W        W27467  19.620   7.245   0.791 -0.1782  0.3043  0.1816
    1W        W27468  17.449  11.019   7.863 -0.0362  0.0604 -0.0005
    1W        W27469  10.473   3.002   6.986 -0.2310  0.0689 -0.0699
    1W        W27470   2.232   1.949   1.883  0.0937 -0.0917 -0.2321
    1W        W27471   1.560   9.370   2.374  0.1098  0.2028  0.2195
    1W        W27472   4.977  23.814   1.448 -0.1977  0.3694 -0.2756
    1W        W27473  22.958   6.425   0.924  0.0908  0.1421 -0.0337
    1W        W27474  22.427  18.913   9.792  0.0500  0.2980  0.1676
    1W        W27475  23.971   3.525   9.108  0.1554 -0.1240  0.1063
    1W        W27476   6.715  21.403   1.593  0.1474 -0.2376 -0.4529
    1W        W27477   1.845   0.481   4.318  0.2407  0.4028  0.0038
    1W        W27478   0.595   6.367   1.441  0.0177  0.2349  0.0523
    1W        W27479   1.052   9.812   0.104 -0.1988  0.1267  0.2395
    1W        W27480  10.184  21.044   0.256  0.0508 -0.0237 -0.1479
    1W        W27481  21.790  25.843   0.910 -0.0113  0.0856 -0.3333
    1W        W27482  19.533  12.101   6.887  0.0817  0.0468  0.0897
    1W        W27483   5.573  27.956   0.673 -0.0686 -0.3019 -0.1398
    1W        W27484  13.444  26.763   0.230  0.0739 -0.3652 -0.2690
    1W        W27485  11.925  17.284   7.450  0.0758 -0.0899 -0.2039
    1W        W27486   2.010  12.000   2.670 -0.1239 -0.2467 -0.0180
    1W        W27487  15.553  22.622   8.274 -0.3474 -0.2196  0.0075
    1W        W27488   3.453   3.000   8.887 -0.2106  0.1457  0.1384
    1W        W27489   7.569  10.304   1.204 -0.0909 -0.0965  0.1041
    1W        W27490   2.681  14.275   1.621 -0.2136  0.2251  0.2638
    1W        W27491  11.639  17.203   8.993  0.2784 -0.0673  0.1670
    1W        W27492  28.867  13.366   1.266 -0.3048  0.0854 -0.0117
    1W        W27493  21.693  16.012   6.653 -0.1607 -0.0586 -0.1037
    1W        W27494  16.818  28.084   1.913 -0.1496  0.3950  0.1763
    1W        W27495  20.454  25.340   1.717 -0.1775  0.0313  0.1908
    1W        W27496  17.127  26.938   9.551 -0.0984  0.3820  0.1865
    1W        W27497  12.729  17.945   1.567  0.2470 -0.0264  0.2302
    1W        W27498  12.924   5.658   7.063  0.1791  0.0514 -0.2011
    1W        W27499  17.462   7.296   0.101 -0.2190 -0.2636 -0.2027
    1W        W27500   4.960  17.014   2.185  0.1081  0.0577 -0.2301
    1W        W27501   0.326  24.284   3.074  0.1638 -0.1751 -0.1837
    1W        W27502  16.381   1.902   0.560 -0.1197 -0.2177 -0.1191
    1W        W27503  14.405  13.903   9.881  0.0516  0.1377  0.2462
    1W        W27504   6.460   8.726   8.315  0.1431  0.1472 -0.0509
    1W        W27505   3.953   4.550   8.501 -0.2238 -0.1523  0.1070
    1W        W27506   5.074   5.960   9.228 -0.2911 -0.0262  0.0059
    1W        W27507  15.978   5.951   1.333 -0.3322 -0.0675  0.0121
    1W        W27508  13.830  11.987   7.164 -0.0943 -0.2528 -0.1773
    1W        W27509   8.255   5.568   7.913 -0.0071 -0.1109 -0.2833
    1W        W27510   7.791   6.485   6.852 -0.0172  0.1354 -0.1753
    1W        W27511   6.640  13.860   1.828 -0.2190  0.1680 -0.3137
    1W        W27512  22.764  12.695   2.752  0.3376 -0.1723  0.3766
    1W        W27513   4.520  25.887   1.332  0.1566  0.0318 -0.5245
    1W        W27514   8.001  13.270   8.165  0.2025 -0.1111  0.0096
    1W        W27515  10.265   8.140   8.301 -0.1410  0.0546 -0.2682
    1W        W27516  26.500  10.960   7.502  0.0232 -0.2980  0.1196
    1W        W27517  22.855  16.056   6.629 -0.5553 -0.1540  0.0244
    1W        W27518  21.903  26.912   0.686 -0.1039  0.1761 -0.2366
    1W        W27519   6.785  20.817   2.587  0.0338 -0.0527  0.1887
    1W        W27520  19.868  19.612   6.292 -0.0379 -0.0955  0.0506
    1W        W27521  17.458  21.085   2.234  0.3344 -0.3318 -0.0703
    1W        W27522  11.950  22.667   2.805 -0.1936 -0.0153  0.1509
    1W        W27523   1.029   7.623   9.026 -0.1230  0.0017 -0.3874
    1W        W27524  18.303  26.885   1.395 -0.0691  0.1133 -0.3287
    1W        W27525  10.826  21.701   1.919 -0.0193 -0.1815  0.1110
    1W        W27526  11.624   2.460   7.365 -0.2193  0.0345 -0.0870
    1W        W27527  28.813  26.656   8.294 -0.1094 -0.0950  0.2259
    1W        W27528  19.867  10.827   1.354 -0.1655 -0.2156 -0.0080
    1W        W27529  22.738  13.308   1.489 -0.1244 -0.1600  0.2085
    1W        W27530  23.663  13.149   2.609 -0.2190  0.0076 -0.2511
    1W        W27531  26.577  13.957   9.506  0.1078  0.0687 -0.2082
    1W        W27532  12.292  15.919   2.495 -0.1118 -0.3011  0.0099
    1W        W27533  20.613  25.848   1.560 -0.2038 -0.1032 -0.2183
    1W        W27534   2.794   2.461   3.811  0.0316 -0.0765  0.2435
    1W        W27535   8.417  13.234   7.396 -0.0580  0.0707 -0.0241
    1W        W27536  25.555   4.633   8.782  0.1819 -0.1713 -0.0592
    1W        W27537  23.981  18.364   7.671 -0.0916  0.1007 -0.1571
    1W        W27538  22.385  24.540   1.497  0.0114  0.0215 -0.0318
    1W        W27539  12.369   1.252   8.181 -0.0103  0.1632 -0.3551
    1W        W27540   4.428   0.551   8.123 -0.1968  0.2322  0.0801
    1W        W27541   8.090  23.412   2.194 -0.1823  0.0452 -0.1651
    1W        W27542   3.262   4.818   8.546 -0.0807  0.1785  0.0610
    1W        W27543   8.398   2.702   9.294 -0.0607 -0.1249 -0.0572
    1W        W27544  17.125   7.790   6.021 -0.2221 -0.2734  0.0728
    1W        W27545  14.613  20.382   9.273 -0.1836  0.1125  0.2033
    1W        W27546  21.342  24.647   9.397 -0.0672  0.4873  0.0965
    1W        W27547  12.739  16.557   6.595 -0.1964 -0.2759  0.0958
    1W        W27548  21.657   8.702   0.564  0.1837  0.2122 -0.1493
    1W        W27549   1.565  25.493   4.089  0.0234 -0.3118  0.1374
    1W        W27550   1.097   7.031   1.389  0.2192 -0.2046  0.2120
    1W        W27551  25.052  10.973   7.906 -0.0975 -0.0517  0.2016
    1W        W27552   5.316  14.393   7.151 -0.0439  0.5320  0.0308
    1W        W27553  11.394   7.980   6.186  0.1362  0.0418 -0.0766
    1W        W27554   8.313  20.363   1.143  0.2006  0.2890 -0.0589
    1W        W27555  28.586  26.201   0.507  0.1335  0.1201 -0.2784
    1W        W27556   9.245   5.968   8.586  0.3360  0.2527  0.0993
    1W        W27557  27.567   1.059   2.602 -0.0567 -0.2557 -0.0996
    1W        W27558   6.749   6.466   0.139  0.2639  0.0644 -0.2138
    1W        W27559  15.363  13.894   8.257 -0.2236  0.1295  0.0386
    1W        W27560  14.955   0.326   0.120 -0.1974  0.1459 -0.1763
    1W        W27561  28.745  28.643   4.347 -0.0462 -0.0320  0.0535
    1W        W27562  28.064   9.145   3.281  0.1339  0.1884  0.2584
    1W        W27563  20.518  22.072   0.926  0.1741  0.4320  0.0290
    1W        W27564   6.736  17.565   9.303 -0.1541  0.0477  0.0180
    1W        W27565  25.404   0.937   8.245 -0.1081  0.0689  0.0259
    1W        W27566  20.846  27.313   8.650 -0.1426  0.1447  0.0812
    1W        W27567  26.857  14.338   2.365  0.4286  0.2238  0.1325
    1W        W27568  14.068   7.382   8.174  0.0596 -0.2478 -0.1826
    1W        W27569   5.730   3.701   9.572 -0.1059 -0.1211  0.0727
    1W        W27570  28.684   3.420   1.075  0.1625  0.4319  0.1483
    1W        W27571  13.370  27.849   7.293 -0.4032  0.3424  0.1267
    1W        W27572  12.172  11.322   8.745 -0.4311 -0.3455 -0.0313
    1W        W27573  18.356  26.712   9.921  0.0842 -0.1054  0.2561
    1W        W27574  26.292   6.920   9.934 -0.1543 -0.2855 -0.0087
    1W        W27575  18.137  21.820   8.755 -0.1245  0.4240 -0.0217
    1W        W27576  25.111  12.973   9.639 -0.0960  0.0515 -0.2453
    1W        W27577  10.915  11.260   6.830 -0.0681 -0.1545  0.1332
    1W        W27578   5.585  10.963   8.993 -0.2089 -0.2592 -0.2772
    1W        W27579  10.238  16.575   7.149  0.3314 -0.2078  0.0019
    1W        W27580  13.015   7.687   9.235 -0.2561 -0.1049 -0.2867
    1W        W27581  10.365  12.429   1.253 -0.2542 -0.1024  0.0537
    1W        W27582  28.648   1.091   3.278 -0.0725  0.2363  0.1777
    1W        W27583  25.196  13.377   2.944 -0.0397  0.0883  0.0357
    1W        W27584  24.146  16.878   7.788 -0.0202 -0.0444  0.1058
    1W        W27585   0.699  27.941   3.647 -0.2009  0.2246 -0.1804
    1W        W27586  18.740   4.708   6.517 -0.1590 -0.0909 -0.3597
    1W        W27587  27.755  18.407   2.828 -0.0456 -0.1986  0.1355
    1W        W27588  28.396   0.195   0.088  0.0597  0.0750 -0.1583
    1W        W27589  15.699  15.956   0.970  0.1700  0.1353 -0.0547
    1W        W27590   9.236  13.857   9.114  0.0298 -0.3025  0.0295
    1W        W27591   7.986  27.430   3.558 -0.0114  0.3195 -0.0537
    1W        W27592  22.712  12.701   7.978 -0.0181 -0.2274 -0.1032
    1W        W27593  22.808  25.428   2.538  0.1216  0.0293 -0.2054
    1W        W27594  11.527   3.775   0.212 -0.1077 -0.0514  0.0165
    1W        W27595   2.760  25.384   0.914  0.2039  0.1138 -0.2504
    1W        W27596  14.186  26.940   6.862  0.1341  0.1534 -0.0650
    1W        W27597  25.286  12.215   9.057 -0.1223 -0.1561  0.0203
    1W        W27598   1.744  21.206   9.677 -0.1158 -0.1843 -0.2415
    1W        W27599  16.112  27.811   9.654  0.0686  0.0120  0.0185
    1W        W27600  26.675   0.997   8.323  0.2341 -0.0317 -0.0878
    1W        W27601  24.148  19.310   1.216 -0.2475  0.3837 -0.1114
    1W        W27602   7.330   7.923   1.450  0.3972 -0.1675 -0.1346
    1W        W27603  26.130  28.790   1.322  0.0082  0.0263  0.0228
    1W        W27604  10.372  11.555   9.580 -0.2877 -0.0065 -0.2543
    1W        W27605  23.015   8.804   9.804 -0.0729 -0.4119  0.1150
    1W        W27606  15.248   6.427   1.508 -0.1725 -0.0602 -0.1292
    1W        W27607  18.877  24.784   1.842  0.1563 -0.3240 -0.0277
    1W        W27608   1.874  10.623   8.361 -0.0171 -0.2471  0.2246
    1W        W27609  18.236  16.491   0.213 -0.0302 -0.1995  0.2842
    1W        W27610  13.154  14.920   1.456  0.0138 -0.0926 -0.1818
    1W        W27611   1.741   5.488   1.606  0.1491  0.1256  0.0970
    1W        W27612  14.683  20.362   7.100 -0.0939 -0.2123  0.0879
    1W        W27613  15.479   0.924   6.915 -0.1411 -0.2541 -0.0738
    1W        W27614   8.171  17.567   1.541 -0.2273  0.0992 -0.1950
    1W        W27615  14.370  17.597   0.716  0.2028 -0.1775 -0.2752
    1W        W27616  21.876  24.707   9.303  0.0778  0.0703  0.0274
    1W        W27617  24.370  22.086   0.663  0.1916 -0.0471  0.0631
    1W        W27618   9.291  13.730   1.706  0.0931 -0.1971  0.0920
    1W        W27619  15.545  18.684   8.855 -0.0770 -0.2332  0.2362
    1W        W27620  13.441   7.949   6.861 -0.0933 -0.1675  0.3695
    1W        W27621   4.019   9.638   1.207 -0.2861  0.0575  0.1936
    1W        W27622  14.325   2.381   1.976  0.1466 -0.2599  0.1795
    1W        W27623   7.179   8.283   1.018  0.0828  0.4490 -0.1420
    1W        W27624   9.021  18.776   9.638  0.1157  0.1211 -0.2547
    1W        W27625  17.672  24.299   1.307  0.0926  0.1309 -0.0757
    1W        W27626  21.146   5.175   9.162 -0.0755  0.0831 -0.0270
    1W        W27627  28.124  24.947   3.596  0.0678 -0.0306 -0.1972
    1W        W27628   5.291   1.816   3.046 -0.0444  0.3149 -0.0114
    1W        W27629  14.871  10.715   1.786  0.0735  0.2708 -0.5935
    1W        W27630  26.116   7.901   9.852 -0.2419 -0.0885  0.0804
    1W        W27631  26.576  27.368   9.804 -0.0913  0.0068  0.2417
    1W        W27632   0.684  13.388   3.990 -0.0630 -0.1156  0.0772
    1W        W27633  20.569   2.414   7.753  0.4478  0.0094 -0.0551
    1W        W27634   0.035  28.115   8.780  0.3031  0.0349 -0.0022
    1W        W27635   4.683  18.076   0.102  0.0330 -0.0574 -0.2959
    1W        W27636   3.667  21.178   8.062  0.1248 -0.0766 -0.1415
    1W        W27637  15.975   5.511   6.062 -0.1080  0.0344  0.0501
    1W        W27638  14.209  26.280   9.218  0.3137 -0.0216 -0.0901
    1W        W27639   6.569  23.030   2.592 -0.0351 -0.2527  0.0252
    1W        W27640  24.142   6.882   2.432  0.2900  0.1477  0.2107
    1W        W27641  16.150  11.478   0.645 -0.2899  0.1378  0.1328
    1W        W27642   5.847  22.925   0.267 -0.2472 -0.1870  0.0632
    1W        W27643  15.959  20.316   3.309  0.0002  0.0587 -0.1347
    1W        W27644   5.999  11.312   8.884  0.0586 -0.0019  0.1752
    1W        W27645  21.254   5.239   9.972 -0.0126 -0.0827  0.0409
    1W        W27646   5.337   5.088   9.090  0.1449 -0.1413 -0.1240
    1W        W27647  23.964   7.609   3.178  0.4715 -0.0829 -0.2468
    1W        W27648  18.129  12.376   8.114  0.1813 -0.3120  0.2043
    1W        W27649   1.993   5.978   0.671 -0.2760 -0.0968  0.0781
    1W        W27650   4.588  23.588   8.698  0.2141 -0.0766 -0.0232
    1W        W27651   7.009  11.444   9.259 -0.2800 -0.1932 -0.0324
    1W        W27652  13.853   9.513   7.333 -0.1300  0.0556  0.2405
    1W        W27653  16.890  10.453   0.350 -0.0268 -0.0803 -0.1020
    1W        W27654  16.064  17.269   8.646 -0.1161 -0.2137 -0.3447
    1W        W27655   4.966   4.561   7.498  0.0730  0.1939  0.1473
    1W        W27656  27.784  23.683   1.572 -0.1499  0.0806 -0.3492
    1W        W27657   5.172  16.303   0.988 -0.0988  0.7225 -0.1456
    1W        W27658  13.900   4.150   8.115 -0.0537 -0.1119 -0.1015
    1W        W27659  14.964   9.671   6.621  0.2301  0.3160 -0.1492
    1W        W27660   5.453   2.367   3.142 -0.0071 -0.3136  0.0509
    1W        W27661  11.025  20.546   7.734  0.2061 -0.1439  0.1211
    1W        W27662  24.138  21.774   1.923  0.0869  0.3029 -0.0050
    1W        W27663  14.133  15.054   1.672  0.1778  0.1243  0.2711
    1W        W27664   9.932  13.213   1.281  0.0611  0.1397  0.1280
    1W        W27665   1.769  13.827   0.242 -0.3965  0.0962 -0.3431
    1W        W27666   9.069  14.575   1.152  0.4200  0.1658  0.0562
    1W        W27667  26.558   2.996   9.849  0.1081  0.3500  0.2054
    1W        W27668  22.153  16.194   6.444  0.2227 -0.4961  0.0731
    1W        W27669  26.793  23.683   9.891  0.0085  0.1878  0.2410
    1W        W27670  23.320  18.375   9.955 -0.3251  0.0290 -0.1525
    1W        W27671  12.072  15.235   9.475  0.0589 -0.2404  0.0236
    1W        W27672   8.929  13.979   8.543  0.0023  0.0518 -0.0917
    1W        W27673  10.176  20.770   1.391 -0.1476  0.0590 -0.1535
    1W        W27674   7.604   0.184   3.063  0.3154  0.1274  0.0764
    1W        W27675   0.454   2.680   3.285  0.0131 -0.1630  0.1364
    1W        W27676  23.510  10.325   0.840 -0.2356  0.0234  0.0611
    1W        W27677  21.005  24.986   9.338  0.1024  0.1809 -0.1339
    1W        W27678   4.087  15.399   9.389 -0.0581 -0.3026 -0.0853
    1W        W27679  26.970  13.807   1.585  0.0797  0.0997  0.1618
    1W        W27680  24.623   8.741   8.741  0.0336 -0.3669  0.1218
    1W        W27681   8.705   2.179   9.442  0.2724  0.0208 -0.1411
    1W        W27682  12.464  25.632   0.821 -0.1792 -0.2744 -0.0538
    1W        W27683   5.433  19.583   0.129  0.0610 -0.1351  0.0396
    1W        W27684  24.904  23.171   9.880  0.0140  0.0203  0.0854
    1W        W27685  24.905   5.158   8.806 -0.0185 -0.1374 -0.3310
    1W        W27686  12.914  25.183   9.126  0.0441  0.0646  0.2049
    1W        W27687  17.138  22.543   1.186 -0.1684 -0.0213 -0.1795
    1W        W27688  13.897   8.098   6.181  0.0463 -0.1092  0.0323
    1W        W27689  11.620  21.895   2.365 -0.1447 -0.2088 -0.0801
    1W        W27690   7.962  20.124   8.448  0.1761 -0.0577  0.2076
    1W        W27691   4.141  15.289   8.249  0.0472 -0.2281 -0.0789
    1W        W27692   8.015  15.109   8.538  0.1739 -0.0189 -0.0868
    1W        W27693   9.274  10.570   1.587  0.2499  0.0550  0.0707
    1W        W27694   6.705  20.591   8.301  0.1615 -0.2782 -0.0554
    1W        W27695  15.804  12.317   0.374 -0.1021 -0.4644  0.1434
    1W        W27696  14.895  27.748   8.423  0.1283  0.1976  0.3665
    1W        W27697   5.234   3.673   9.521 -0.1736 -0.0225  0.0199
    1W        W27698   7.706   2.226   9.514  0.0035  0.2689 -0.2752
    1W        W27699  28.193  22.571   2.367  0.2573 -0.1764  0.3264
    1W        W27700   8.073   7.961   6.910  0.3462 -0.2237 -0.1548
    1W        W27701  16.838  19.573   7.743  0.0555 -0.1099  0.1003
    1W        W27702   2.559  28.444   8.899  0.0760  0.1246 -0.0019
    1W        W27703  21.262  11.184   7.675  0.0402  0.2582 -0.4880
    1W        W27704   1.491  13.017   1.484 -0.3021  0.1057  0.2281
    1W        W27705  14.460  26.299   2.673  0.0222 -0.2135 -0.2892
    1W        W27706   4.721  19.457   1.927 -0.2028  0.2313  0.2226
    1W        W27707  24.219   4.862   1.009  0.0219  0.3965  0.0883
    1W        W27708   0.187  27.960   0.902 -0.2148  0.0970  0.1286
    1W        W27709  20.328  11.475   6.769 -0.0402 -0.0283  0.3199
    1W        W27710  14.227  27.398   8.571 -0.0211  0.0676 -0.1071
    1W        W27711  15.865  22.854   6.343 -0.1538  0.0378 -0.0867
    1W        W27712  16.899   8.257   6.684  0.3397 -0.4349  0.2428
    1W        W27713   7.477  17.579   0.732  0.0126 -0.0073 -0.0826
    1W        W27714   3.951   4.803   3.792  0.3206  0.0228  0.2895
    1W        W27715  25.349  17.498   9.838  0.0538 -0.1707 -0.0516
    1W        W27716  17.825  23.523   9.553 -0.0137 -0.0416  0.1635
    1W        W27717  16.338  19.056   2.784  0.1167  0.0329  0.1289
    1W        W27718  14.173  20.072   9.443 -0.1061 -0.1240  0.3241
    1W        W27719  10.399   5.349   8.956  0.3500  0.2643  0.1712
    1W        W27720  10.892   7.188   9.583 -0.0199 -0.0214  0.0810
    1W        W27721  25.158  16.112   7.418 -0.1819 -0.0309 -0.1059
    1W        W27722   5.746  12.898   0.650 -0.0612 -0.0167 -0.0180
    1W        W27723  14.268   3.312   7.784 -0.2298  0.2365  0.1036
    1W        W27724  28.643  23.709   3.021 -0.0582 -0.1417 -0.0746
    1W        W27725  27.605  25.604   7.842  0.0315 -0.2679  0.1526
    1W        W27726   3.639   3.168   1.659 -0.1724  0.0832  0.2523
    1W        W27727   2.462  22.518   8.521 -0.0281 -0.1905  0.0073
    1W        W27728  17.589  20.482   1.367 -0.2789 -0.1765  0.0487
    1W        W27729  19.998  17.521   1.417  0.2460  0.1499  0.1476
    1W        W27730   2.755  26.985   4.146 -0.0462 -0.0035  0.3582
    1W        W27731  17.399  16.665   6.710 -0.4993 -0.1281 -0.1391
    1W        W27732   3.888  26.623   1.118  0.1882  0.2369  0.0263
    1W        W27733  19.893  15.409   1.580  0.2757 -0.0865 -0.1335
    1W        W27734   3.291  19.066   8.364  0.1388 -0.0506  0.2901
    1W        W27735  10.877  21.029   0.796  0.1889 -0.0466  0.2721
    1W        W27736  14.241   1.778   1.940  0.1547 -0.0475 -0.1398
    1W        W27737  11.594  19.349   0.801 -0.1368  0.1953  0.1056
    1W        W27738   0.086   0.501   2.354  0.0114 -0.1997 -0.0658
    1W        W27739   7.029  23.513   2.125  0.4987 -0.0607 -0.3328
    1W        W27740   2.389  13.642   1.640  0.0984 -0.1015  0.0482
    1W        W27741  19.547  22.436   2.774  0.0192 -0.1038  0.1641
    1W        W27742   3.686  11.267   1.802 -0.1302  0.0288  0.1419
    1W        W27743  23.884  28.644   8.152  0.0076  0.0040 -0.1518
    1W        W27744  27.392  24.867   3.370  0.2956  0.1876  0.0566
    1W        W27745  18.572  10.420   1.489 -0.1089 -0.0766 -0.0714
    1W        W27746  20.073  11.321   1.967 -0.0287 -0.0009 -0.1608
    1W        W27747  15.265  22.097   8.357 -0.3605  0.1806  0.0840
    1W        W27748  16.447  15.879   7.875 -0.3211 -0.0953  0.2509
    1W        W27749  28.431   9.355   1.509  0.0406  0.0893  0.0269
    1W        W27750  16.626   2.231   6.996 -0.0377 -0.1251 -0.2413
    1W        W27751  18.036  11.220   1.388 -0.0768  0.3278  0.0375
    1W        W27752  17.560  20.781   0.842 -0.1385  0.1623  0.1341
    1W        W27753  22.763  17.963   9.382  0.0317  0.4465  0.2736
    1W        W27754  14.641   5.749   1.507  0.1238 -0.1380 -0.0506
    1W        W27755   1.572   4.597   8.472  0.1994 -0.0748  0.0601
    1W        W27756  17.935   5.979   9.300  0.0053 -0.1452 -0.1613
    1W        W27757   8.976  13.703   1.257 -0.0938  0.0982 -0.2682
    1W        W27758  15.696   6.763   7.789 -0.1687  0.1303 -0.1548
    1W        W27759   5.223  15.733   8.344  0.0776  0.1705  0.3647
    1W        W27760  12.158  11.709   1.843 -0.1118  0.4759  0.1693
    1W        W27761  14.894  18.012   8.840  0.0219  0.3419 -0.0840
    1W        W27762  12.655   5.272   7.268  0.0384 -0.1704 -0.1465
    1W        W27763  13.784  24.194   0.367 -0.4665  0.2375  0.1965
    1W        W27764   9.927   3.048   9.428 -0.3187 -0.0083 -0.0713
    1W        W27765  14.049  20.097   8.513 -0.3214 -0.0151 -0.2703
    1W        W27766   3.125  20.063   9.098 -0.3396  0.0951 -0.0493
    1W        W27767   1.412  11.448   8.607 -0.3003 -0.1187  0.2212
    1W        W27768   5.835   2.936   0.663 -0.0986 -0.0368  0.0506
    1W        W27769  17.030   1.338   7.904 -0.0585 -0.2870  0.0287
    1W        W27770  27.826  19.347   0.653  0.2731 -0.1547 -0.0212
    1W        W27771   8.768   4.367   9.343  0.4572 -0.1241  0.0271
    1W        W27772  26.839  11.892   7.669  0.1586  0.0279  0.1963
    1W        W27773  17.148  25.333   1.432 -0.3321  0.1822  0.0161
    1W        W27774  22.135   0.089   8.311  0.2728  0.2767  0.0235
    1W        W27775   5.270  12.043   8.433  0.1061 -0.0434  0.4467
    1W        W27776   4.891  23.364   7.549  0.3451 -0.0454  0.1244
    1W        W27777  26.726  16.619   0.000 -0.2504 -0.1412 -0.4687
    1W        W27778  19.467  11.841   9.737  0.0087 -0.1581 -0.0660
    1W        W27779  23.673   2.703   7.235 -0.3898 -0.0015 -0.0368
    1W        W27780  17.395  11.121   8.837 -0.3402 -0.4017  0.0470
    1W        W27781  12.636  25.165   0.969  0.1394  0.0130 -0.0169
    1W        W27782  16.148  15.965   2.815  0.1768 -0.1292 -0.0075
    1W        W27783  14.322  13.886   1.766  0.0682 -0.4375  0.0005
    1W        W27784  12.496  20.210   2.386  0.0394 -0.1067  0.1127
    1W        W27785   1.337  18.831   3.190 -0.1945 -0.0328  0.0784
    1W        W27786  15.726  19.004   9.228  0.3210  0.0036  0.1358
    1W        W27787  14.514   5.159   0.152 -0.1685 -0.2729 -0.1543
    1W        W27788  22.931  17.073   1.412  0.0266  0.0412  0.1105
    1W        W27789   0.502   4.745   3.392 -0.4274  0.0288 -0.2158
    1W        W27790  20.255   1.471   1.463 -0.3706 -0.2432 -0.0545
    1W        W27791   7.799   9.710   9.264  0.1961 -0.1191  0.1498
    1W        W27792   7.308   8.451   7.185  0.2453 -0.0425 -0.0593
    1W        W27793   0.931  21.810   1.483  0.0318  0.0223 -0.1011
    1W        W27794   9.315  18.181   8.864  0.2547  0.0379 -0.2584
    1W        W27795  22.809   8.895   8.700  0.2465  0.1151  0.0661
    1W        W27796  14.399  27.776   8.256  0.1262 -0.1165  0.0837
    1W        W27797   5.075  28.214   1.867 -0.1122 -0.3513  0.3173
    1W        W27798   3.843  27.489   3.826 -0.0982 -0.0675 -0.0668
    1W        W27799  23.036   4.918   9.193 -0.3726 -0.2045 -0.0754
    1W        W27800  24.058   3.051   1.436  0.0407  0.0937 -0.0260
    1W        W27801  22.747   2.006   2.754  0.1952 -0.1707  0.0765
    1W        W27802  16.196  23.060   6.820  0.0734  0.2941 -0.1385
    1W        W27803  14.381   5.303   7.772 -0.0360 -0.1594  0.0477
    1W        W27804  22.993  15.308   9.219 -0.0354  0.0446  0.1756
    1W        W27805  23.842   1.885   0.084 -0.1458  0.2147  0.0746
    1W        W27806   9.062   4.734   7.650  0.2022  0.0769  0.0951
    1W        W27807  23.921  16.013   8.219  0.2681  0.0017 -0.1093
    1W        W27808  17.828  28.782   9.220 -0.1444  0.0462  0.3747
    1W        W27809  11.610  14.513   0.025  0.1860 -0.1898 -0.1327
    1W        W27810  16.757   2.762   0.614 -0.2980  0.0664 -0.0809
    1W        W27811  19.308  24.839   8.818 -0.1376  0.2424  0.0069
    1W        W27812   1.452  21.622   3.719  0.2241 -0.2285 -0.0864
    1W        W27813   5.127   7.234   9.104 -0.0176  0.2445  0.0415
    1W        W27814   3.224  21.578   8.469 -0.0434 -0.1627 -0.0822
    1W        W27815  23.286   7.175   8.842  0.0511  0.3483  0.0602
    1W        W27816   3.508  25.512   8.063 -0.2960  0.2304  0.2492
    1W        W27817   7.931  17.628   2.076  0.0116  0.1967 -0.0565
    1W        W27818   5.324  18.883   8.397  0.0041  0.3209 -0.2450
    1W        W27819  23.817   0.031   1.626 -0.1847 -0.1137 -0.1639
    1W        W27820   2.913  26.185   3.976  0.0878  0.2960  0.2836
    1W        W27821  23.846   2.357   7.634  0.0752  0.0749  0.1013
    1W        W27822  13.599  12.694   0.608  0.0076  0.1705 -0.4178
    1W        W27823   8.911  26.096   8.747 -0.0257  0.4947 -0.4505
    1W        W27824  27.354   7.841   0.859  0.2383  0.1983 -0.2167
    1W        W27825  20.393  14.914   2.495 -0.0267  0.2085 -0.2437
    1W        W27826   1.733  26.968   8.991  0.0667 -0.3375 -0.0958
    1W        W27827  15.790   8.055   8.658 -0.0265  0.0793 -0.2057
    1W        W27828  17.227  28.079   1.404  0.0191 -0.1357 -0.0813
    1W        W27829   6.485  11.176   0.278 -0.0736  0.1120  0.1502
    1W        W27830   2.773  24.921   9.853  0.1966 -0.2352 -0.1852
    1W        W27831  28.772  25.081   1.917  0.1243 -0.3642  0.1298
    1W        W27832   2.548   1.863   7.641 -0.2935 -0.0880 -0.5779
    1W        W27833  11.801   5.108   1.216 -0.2816 -0.1915  0.0537
    1W        W27834  20.321  25.567   1.281  0.3937  0.0233 -0.1183
    1W        W27835  25.404  10.320   2.933 -0.0900 -0.1910  0.1648
    1W        W27836   5.625  23.420   2.885  0.2155  0.2199  0.0680
    1W        W27837  18.822  11.144   9.271  0.0446  0.2492 -0.0940
    1W        W27838   5.703   2.999   1.604  0.0834  0.2460 -0.0900
    1W        W27839   5.315  23.398   3.855 -0.0225 -0.2204  0.2317
    1W        W27840  11.703   2.536   8.879  0.1307 -0.3255  0.0340
    1W        W27841  13.961  25.856   1.414 -0.0240  0.0984  0.0934
    1W        W27842  15.177  24.404   9.712  0.1910  0.0668  0.1534
    1W        W27843  12.574   0.195   8.073 -0.0152  0.0032 -0.0723
    1W        W27844  12.605  16.872   9.929  0.0222 -0.0745  0.0512
    1W        W27845  10.623  26.892   1.936 -0.1518 -0.0440  0.0672
    1W        W27846   4.597   7.172   0.651  0.4671 -0.1687 -0.0759
    1W        W27847   6.262  11.575   1.204  0.3021 -0.0041 -0.0851
    1W        W27848   0.975  28.130   2.955  0.0016  0.0816  0.0360
    1W        W27849  15.463   6.645   6.305  0.1174 -0.6036 -0.0126
    1W        W27850  23.176   7.896   0.901 -0.1761  0.3543  0.1619
    1W        W27851  15.170  23.945   9.971  0.0533 -0.1235 -0.0684
    1W        W27852  16.744   5.187   0.098 -0.0471  0.2795 -0.3002
    1W        W27853  21.795  21.158   1.895 -0.0886  0.0615  0.1374
    1W        W27854  23.559  26.831   9.748 -0.2365 -0.0992  0.1952
    1W        W27855  16.141   9.955   6.268  0.1399 -0.4726 -0.0614
    1W        W27856  20.209   9.214   6.608  0.0072 -0.2105 -0.1185
    1W        W27857  26.774  12.408   7.522 -0.0278 -0.1542  0.1617
    1W        W27858  10.446  22.331   2.464  0.2151 -0.0498  0.0528
    1W        W27859  26.954  26.530   1.147  0.0202  0.1383 -0.0967
    1W        W27860  27.731  14.932   1.494 -0.0242  0.0772  0.1134
    1W        W27861  20.392  27.716   0.034 -0.2720  0.1424  0.0356
    1W        W27862  15.573  15.599   7.978 -0.1312 -0.3974 -0.1847
    1W        W27863   9.348  13.534   2.173  0.0991 -0.2629 -0.0862
    1W        W27864  14.741  13.103   1.826  0.2014 -0.6249 -0.0847
    1W        W27865   3.873   3.855   9.888  0.1736  0.2456  0.0194
    1W        W27866  27.279  16.074   8.055 -0.1975  0.1588  0.0397
    1W        W27867  15.967  12.752   9.923  0.0181  0.0402  0.1853
    1W        W27868   7.235  28.476   2.735 -0.1203  0.1324 -0.2423
    1W        W27869   1.038   7.356   2.804 -0.0306  0.2197  0.2449
    1W        W27870   6.771  17.271   2.910  0.0684  0.0104 -0.0743
    1W        W27871  18.605  25.762   1.998 -0.0661 -0.0012 -0.2406
    1W        W27872   3.312  18.980   1.076 -0.0970 -0.0593  0.0790
    1W        W27873   1.825   6.015   1.661 -0.1221 -0.1423 -0.1760
    1W        W27874  23.573  14.521   9.207  0.4294  0.0251 -0.1444
    1W        W27875   3.110  14.002   1.594  0.1847 -0.0692  0.1616
    1W        W27876  28.778  15.387   3.245  0.1144  0.0861  0.0949
    1W        W27877  15.642  22.388   7.532 -0.2224  0.0353  0.0398
    1W        W27878   3.869   8.767   1.556  0.0315 -0.1104  0.1023
    1W        W27879  22.987  12.790   0.648  0.0973  0.2799 -0.0620
    1W        W27880  26.034  14.465   0.489  0.2883 -0.0102  0.0580
    1W        W27881  16.189   5.118   8.163 -0.0009 -0.0923  0.0567
    1W        W27882   3.102   2.842   9.523 -0.2943  0.1884  0.0556
    1W        W27883   5.946  11.291   1.507  0.2194 -0.1741  0.1127
    1W        W27884   5.976  20.265   2.747 -0.0744 -0.0101  0.0307
    1W        W27885  18.363  24.288   7.185  0.0499 -0.1887  0.1322
    1W        W27886  13.282   2.116   9.877 -0.3279 -0.0399  0.1500
    1W        W27887   1.770   0.025   3.394 -0.0930 -0.2620  0.1373
    1W        W27888  27.248   0.441   8.713 -0.2219  0.2254  0.1518
    1W        W27889  14.728  16.258   2.267  0.0276 -0.1179 -0.1400
    1W        W27890  22.550  15.523   0.231  0.1172 -0.4881 -0.1378
    1W        W27891  26.824   6.231   9.547 -0.1176 -0.0671 -0.0318
    1W        W27892   4.820  18.978   8.181  0.3562  0.2147 -0.1794
    1W        W27893   4.372  28.519   8.307 -0.1220 -0.2826  0.0108
    1W        W27894   8.837  27.259   9.676 -0.2867  0.1957 -0.3880
    1W        W27895   3.258  23.834   9.156 -0.0864  0.0167 -0.1397
    1W        W27896  14.094   1.587   8.307 -0.1035  0.1932 -0.0495
    1W        W27897  22.395   1.734   1.563  0.2501 -0.0381 -0.0446
    1W        W27898  13.760  17.928   0.963  0.0021  0.3190  0.1651
    1W        W27899   7.668  10.892   1.247  0.0247 -0.1422  0.5470
    1W        W27900   7.437   6.568   7.241 -0.2172  0.0050 -0.3219
    1W        W27901  22.643   9.503   2.202 -0.1248  0.3650 -0.0429
    1W        W27902   7.752  20.244   8.007  0.0800  0.0891 -0.3058
    1W        W27903   0.120   4.520   1.942 -0.1417 -0.3421  0.3628
    1W        W27904  19.519  16.905   6.089 -0.2748 -0.2072 -0.1963
    1W        W27905  22.800   1.821   9.439 -0.1939 -0.1482  0.0993
    1W        W27906   5.076  28.284   8.845 -0.0045  0.0300 -0.0745
    1W        W27907  21.694  25.930   6.810 -0.2419  0.1305 -0.0298
    1W        W27908  18.100  13.828   7.139 -0.2376 -0.2895 -0.1355
    1W        W27909  21.778  13.551   9.422  0.0042  0.3605 -0.2428
    1W        W27910   2.832  18.460   3.761  0.0840  0.1093 -0.0334
    1W        W27911  11.629  27.311   7.258  0.0416  0.0861 -0.3290
    1W        W27912   3.012  26.784   0.636  0.1457  0.0116  0.0362
    1W        W27913  21.748  20.458   8.995 -0.0611  0.1437 -0.1986
    1W        W27914  28.736   6.117   7.902  0.0434 -0.2169  0.2636
    1W        W27915  10.299   8.603   1.192  0.0118  0.3393  0.0946
    1W        W27916  28.260  16.293   8.043  0.0125  0.0388 -0.2660
    1W        W27917  11.764  26.522   7.184 -0.1865  0.1504 -0.1728
    1W        W27918  22.483   4.937   0.743  0.1260  0.0701  0.1777
    1W        W27919  16.925  26.238   9.431 -0.0822  0.3401  0.0842
    1W        W27920  25.553  10.843   0.676  0.2238  0.2123 -0.0039
    1W        W27921   9.948   5.303   0.487  0.3387 -0.2826 -0.1617
    1W        W27922  28.743  10.925   8.187  0.2164  0.3796  0.0236
    1W        W27923  10.583  15.039   6.516  0.0885  0.0446  0.2578
    1W        W27924  19.216   6.978   0.178  0.0064 -0.0322 -0.2473
    1W        W27925   3.254  26.004   9.281 -0.0825  0.3753 -0.0862
    1W        W27926  17.344  11.290   6.174  0.3297 -0.0106  0.3765
    1W        W27927  21.844   1.427   7.885  0.2973 -0.0133 -0.0150
    1W        W27928  24.069  24.918   3.057 -0.0278  0.0177  0.0425
    1W        W27929  20.454  15.205   8.474  0.2050  0.2880  0.0844
    1W        W27930  19.380  25.145   9.950 -0.5348  0.0539  0.0648
    1W        W27931  17.357   3.319   1.115 -0.1776  0.1389 -0.0795
    1W        W27932  17.888  13.239   2.102 -0.0077 -0.2175 -0.1433
    1W        W27933   7.757  22.453   3.420  0.1966 -0.0847  0.0115
    1W        W27934  13.334  21.290   8.404  0.0719 -0.0229 -0.0344
    1W        W27935   6.127  25.977   3.014  0.0788  0.0804 -0.0784
    1W        W27936   2.254   0.609   3.990 -0.0812  0.0455  0.1040
    1W        W27937  16.235  13.957   1.441 -0.0490  0.3985  0.2045
    1W        W27938  21.549   3.556   0.677 -0.3094 -0.0858 -0.2145
    1W        W27939  25.201  14.366   9.037  0.2176  0.0407  0.2978
    1W        W27940  23.213   6.792   2.882 -0.0973  0.2391  0.0052
    1W        W27941  24.617   4.936   0.729 -0.0350 -0.0944  0.0023
    1W        W27942  23.750  25.607   7.602 -0.3737 -0.1626 -0.0122
    1W        W27943  14.381  14.105   9.150 -0.3128 -0.0058 -0.0041
    1W        W27944   3.971  12.757   2.361 -0.1605  0.1624  0.0902
    1W        W27945  13.039   2.399   7.347 -0.4625 -0.2880  0.1285
    1W        W27946   2.525  15.696   9.665  0.3755 -0.0861  0.1350
    1W        W27947   3.159  21.504   1.619 -0.2523 -0.0282 -0.0542
    1W        W27948   3.246  21.453   8.008 -0.0405 -0.1087  0.0773
    1W        W27949  21.423  23.766   9.280 -0.2914  0.1425 -0.1336
    1W        W27950   6.129  25.649   3.679 -0.0819 -0.2324  0.0939
    1W        W27951  13.042   0.326   0.444  0.1606  0.2009  0.0773
    1W        W27952  18.098  22.182   0.742 -0.0388  0.1523  0.3201
    1W        W27953   1.035   6.220   9.589  0.1421 -0.0657  0.0814
    1W        W27954  27.027  10.984   1.143  0.4055 -0.1733 -0.1728
    1W        W27955   4.836  23.292   1.445  0.2150 -0.0127  0.0669
    1W        W27956   1.534  19.844   8.276  0.1444  0.0289 -0.1532
    1W        W27957  22.024   1.449   2.901 -0.0302 -0.0824 -0.0473
    1W        W27958  13.408  27.701   8.424 -0.0077 -0.0513 -0.0078
    1W        W27959  27.279   5.983   2.230 -0.1640  0.0237  0.0313
    1W        W27960   5.543   5.832   1.897  0.1834 -0.2147 -0.1260
    1W        W27961  28.847   5.713   0.826 -0.1891 -0.1966 -0.0749
    1W        W27962   3.329   1.588   9.986 -0.1123  0.2043 -0.1224
    1W        W27963  22.754   0.947   1.144  0.0925  0.0406 -0.1355
    1W        W27964   3.956  17.575   8.918  0.0449  0.2014 -0.0323
    1W        W27965  25.478  12.341   7.162 -0.0816 -0.2347  0.1267
    1W        W27966  26.065  17.716   8.090  0.0018  0.0081 -0.0866
    1W        W27967  19.751   9.877   6.670 -0.0002  0.0540 -0.1831
    1W        W27968   2.126   6.460   0.657 -0.3285 -0.0374  0.1454
    1W        W27969  13.152  25.539   2.009 -0.4781 -0.0374 -0.0983
    1W        W27970  27.792   5.345   1.189 -0.1283  0.1612 -0.1560
    1W        W27971   0.136   3.513   7.748 -0.2214  0.0412  0.0851
    1W        W27972  25.881  15.600   1.386  0.3064  0.0303  0.0781
    1W        W27973   3.758  22.257   1.785  0.1586 -0.3768  0.0431
    1W        W27974  19.844   0.127   7.684 -0.5801  0.0819 -0.0449
    1W        W27975  11.267   1.468   1.257  0.0063 -0.2652 -0.1268
    1W        W27976  22.833  20.056   7.627 -0.1966 -0.0617  0.0779
    1W        W27977  11.032   5.974   1.195  0.1634  0.0140 -0.0773
    1W        W27978  25.564  26.556   1.779 -0.2111 -0.3366 -0.1394
    1W        W27979  24.622  27.307   1.922 -0.0110  0.3603  0.0553
    1W        W27980   2.953   1.901   3.194 -0.2284 -0.2919 -0.0715
    1W        W27981  11.205  23.833   3.429 -0.1940 -0.0107  0.1299
    1W        W27982  27.897  22.523   8.764 -0.1464  0.0620 -0.1186
    1W        W27983  11.764  23.209   3.669 -0.1049 -0.0990 -0.0276
    1W        W27984  15.725  23.458   3.008  0.1184  0.2657  0.2063
    1W        W27985  18.035   8.987   6.372 -0.0831 -0.2289 -0.2264
    1W        W27986  22.862  18.914   9.367 -0.0442 -0.1106 -0.1543
    1W        W27987  11.762  20.268   8.814  0.1049  0.2120  0.2454
    1W        W27988  22.559   8.774   7.469 -0.1657  0.0885  0.1017
    1W        W27989  10.763  17.517   2.366  0.0593  0.1297  0.2866
    1W        W27990   4.366  13.056   0.224 -0.2610  0.0092 -0.1310
    1W        W27991  11.840  27.235   2.419  0.2046 -0.0179 -0.2721
    1W        W27992  12.608  24.599   8.980  0.0578  0.0807  0.0033
    1W        W27993  11.000   8.029   9.213 -0.0971 -0.1525 -0.0972
    1W        W27994  12.582  27.258   9.657  0.1004  0.0907 -0.0653
    1W        W27995  28.549  12.700   8.881 -0.1567 -0.0645 -0.0391
    1W        W27996   1.971   9.457   0.774  0.0301  0.0732  0.2094
    1W        W27997   2.355   7.612   8.280 -0.2469  0.0954 -0.1386
    1W        W27998  15.129  16.885   8.879 -0.3937 -0.0910  0.0612
    1W        W27999  14.027  20.474   1.372 -0.1314 -0.1785 -0.0982
    1W        W28000  11.254  10.750   6.687  0.0989  0.2539 -0.2972
    1W        W28001  13.279  17.754   1.585  0.0213  0.2837  0.0945
    1W        W28002  19.395  28.450   1.692 -0.2560 -0.1060 -0.5284
    1W        W28003  22.338  12.937   8.916  0.0711 -0.0286  0.0617
    1W        W28004   8.051   3.721   3.111 -0.0546 -0.0548 -0.0691
    1W        W28005  11.412  25.318   9.056 -0.0867 -0.1010 -0.5951
    1W        W28006  20.444  19.875   5.753 -0.1299  0.2622  0.0758
    1W        W28007   2.121  15.387   8.889 -0.0958  0.1423 -0.1385
    1W        W28008  23.780  10.836   6.887  0.0469  0.1044 -0.0503
    1W        W28009  22.265   7.442   7.250 -0.0323 -0.1827 -0.1180
    1W        W28010  22.501  12.458   0.534 -0.0367 -0.2452 -0.0483
    1W        W28011   1.538  18.257   9.812 -0.2076 -0.1614  0.0581
    1W        W28012   8.756   2.927   1.059 -0.0392  0.3089 -0.1638
    1W        W28013   9.024  17.826   9.483 -0.1010  0.3123 -0.0326
    1W        W28014  24.847  16.053   3.034 -0.0163 -0.1868  0.0180
    1W        W28015  13.723   0.979   0.829  0.0071  0.0952  0.3711
    1W        W28016   5.780   0.097   9.218 -0.1626  0.2710  0.2487
    1W        W28017   6.494  15.308   1.973 -0.4461 -0.1183 -0.0133
    1W        W28018  27.372  10.420   0.288 -0.1567 -0.0860  0.4450
    1W        W28019  27.531   2.275   2.408  0.2583 -0.0499 -0.3145
    1W        W28020   6.169  13.295   0.281 -0.2890 -0.1333  0.0206
    1W        W28021  21.632  17.392   5.702  0.0434 -0.2833  0.6498
    1W        W28022   6.914   6.596   1.828 -0.0984 -0.3687  0.0321
    1W        W28023  23.081  24.116   1.308 -0.0619 -0.0084 -0.2340
    1W        W28024   2.756   6.504   3.762 -0.1645 -0.0030  0.1044
    1W        W28025   0.404  28.139   9.709 -0.1410  0.0710  0.1543
    1W        W28026  16.590   9.156   6.654 -0.0063 -0.0371 -0.1840
    1W        W28027   5.740  16.085   7.543  0.1360 -0.0178 -0.1779
    1W        W28028   2.046   6.946   3.029 -0.1271 -0.0403 -0.0026
    1W        W28029   7.057   8.246   2.234  0.2556  0.1307  0.0247
    1W        W28030  16.072   9.590   0.563  0.0040 -0.0992 -0.2299
    1W        W28031  17.235  17.383   8.728 -0.1266 -0.0729 -0.2187
    1W        W28032  16.667  14.865   1.579  0.1991  0.2327  0.0372
    1W        W28033  19.472  11.051   6.818 -0.0134 -0.2065 -0.2182
    1W        W28034  15.362  20.188   8.979 -0.2024  0.0230  0.2901
    1W        W28035  17.654   6.972   9.629  0.0185 -0.2752 -0.0789
    1W        W28036   0.383   1.530   2.246  0.1245  0.2018  0.1694
    1W        W28037  20.083  11.676   1.230 -0.1928 -0.0856  0.1084
    1W        W28038  26.011  25.431   8.553  0.0976  0.0569 -0.0422
    1W        W28039  19.780  14.853   0.463  0.0320  0.0139  0.2444
    1W        W28040   2.056  22.109   1.977 -0.2587 -0.2682 -0.2600
    1W        W28041  18.148   8.345   9.409 -0.4129  0.1769  0.1751
    1W        W28042  20.124  27.842   1.379 -0.2317 -0.3311  0.0745
    1W        W28043  13.734  13.432   8.261  0.5339 -0.0184  0.1265
    1W        W28044   2.846  11.506   7.864 -0.0046 -0.0492  0.1850
    1W        W28045   5.387  17.328   2.095  0.4302 -0.0365  0.0753
    1W        W28046  17.285   0.919   0.077  0.3105  0.0085 -0.2180
    1W        W28047  24.361   5.767   0.956  0.3492 -0.1765 -0.0354
    1W        W28048  27.885   0.758   3.484  0.0431 -0.0437 -0.4881
    1W        W28049  27.810   6.668   9.339  0.2563 -0.0738  0.2964
    1W        W28050   4.834  20.165   1.647  0.3566  0.0172 -0.5019
    1W        W28051  19.586  27.205   7.711 -0.2697 -0.1984 -0.1099
    1W        W28052   1.313   3.699   9.805 -0.3046  0.0596  0.0003
    1W        W28053  13.894   8.670   0.400  0.3256  0.1793 -0.2479
    1W        W28054  28.475   3.687   8.456 -0.0657 -0.3392  0.0428
    1W        W28055  25.260  16.354   2.686  0.2297 -0.0218  0.5372
    1W        W28056  19.269  21.031   8.804  0.4378 -0.2013 -0.1364
    1W        W28057  20.282   3.762   7.036  0.1695 -0.0675 -0.1316
    1W        W28058   5.132   6.067   2.059  0.2372 -0.2256 -0.1811
    1W        W28059  11.855  17.701   8.711  0.0191  0.1166 -0.0171
    1W        W28060  17.026  20.824   7.346  0.0202  0.1299 -0.1462
    1W        W28061   0.034   1.595   1.027 -0.1098  0.1306  0.1005
    1W        W28062   1.794  18.710   9.660 -0.0992  0.1986  0.2120
    1W        W28063   3.023  18.337   2.685  0.0168  0.0314 -0.2186
    1W        W28064   9.407  20.001   1.717 -0.0476 -0.2254  0.4653
    1W        W28065  15.168   2.298   9.710  0.0537 -0.0748 -0.1921
    1W        W28066   3.032  11.785   7.454  0.0257  0.0388 -0.0367
    1W        W28067  17.597  28.434   1.103 -0.2273  0.0110 -0.0069
    1W        W28068  17.186  19.187   9.842  0.1215 -0.2984 -0.1866
    1W        W28069   7.952   4.466   8.295 -0.1095  0.0398 -0.1826
    1W        W28070  16.551  15.663   9.372 -0.1578  0.1031 -0.1093
    1W        W28071  28.720  10.236   3.725  0.0642 -0.1248 -0.0100
    1W        W28072   8.201  25.328   1.307  0.0307 -0.1055 -0.0363
    1W        W28073  25.714  24.722   2.071 -0.1150 -0.0883  0.1992
    1W        W28074   1.935   1.761   1.008  0.0655 -0.1317 -0.1278
    1W        W28075  10.912  14.596   7.686 -0.0134 -0.0799  0.2581
    1W        W28076  19.991   7.433   9.978  0.0554  0.1238  0.3517
    1W        W28077   7.182   2.836   9.360  0.0476 -0.1701  0.0318
    1W        W28078  23.755  17.237   7.555 -0.0211 -0.1197 -0.0751
    1W        W28079  20.116   1.498   7.373 -0.1141 -0.3726  0.1916
    1W        W28080  13.748   2.901   6.802 -0.2214  0.0598  0.1844
    1W        W28081  28.301  19.486   0.963 -0.1829  0.0626  0.0913
    1W        W28082  25.486  21.181   8.999  0.3427  0.0150 -0.5765
    1W        W28083   2.123  25.047   7.557 -0.0325 -0.2161 -0.2181
    1W        W28084   2.706  26.536   0.352  0.0182 -0.1409 -0.0206
    1W        W28085   6.479  27.832   3.125  0.1471 -0.0052 -0.0020
    1W        W28086   3.816  20.950   0.049  0.0869 -0.0789  0.1335
    1W        W28087   3.432  11.539   7.214 -0.1128  0.1054 -0.2931
    1W        W28088  17.106  16.794   9.648  0.2275  0.1466  0.3689
    1W        W28089   9.734  19.433   0.795 -0.1000 -0.0116  0.0034
    1W        W28090  27.581   8.610   7.795  0.2086  0.1569  0.3235
    1W        W28091  12.703   9.039   0.977  0.0877  0.1657 -0.1853
    1W        W28092   2.509  17.334   2.883  0.1774  0.0353  0.0321
    1W        W28093   5.790  27.856   9.373 -0.0134  0.0937  0.0641
    1W        W28094  22.650   2.999   8.071  0.1981 -0.3498  0.1853
    1W        W28095   8.105  13.607   6.341 -0.0009 -0.4660  0.3867
    1W        W28096  11.969  19.573   0.535  0.0527 -0.1121 -0.1967
    1W        W28097  19.233  21.138   0.224  0.0187  0.0415 -0.0605
    1W        W28098  11.972  12.411   0.412 -0.3014  0.0122  0.0617
    1W        W28099   2.630  20.791   2.096 -0.3449 -0.0485  0.0999
    1W        W28100  11.697  12.397   0.915  0.1779 -0.4255  0.2021
    1W        W28101   5.971  25.752   0.030 -0.0582  0.1460 -0.0642
    1W        W28102   1.515  16.999   3.072 -0.1318  0.3449 -0.0039
    1W        W28103   7.530   6.152   0.917 -0.2244 -0.1241 -0.2706
    1W        W28104  27.676   1.964   9.315 -0.1680 -0.0084  0.0274
    1W        W28105  14.476  11.239   7.969 -0.0714 -0.2383 -0.0413
    1W        W28106  22.426  11.167   9.373  0.2391 -0.0717 -0.0350
    1W        W28107   3.033  25.534   8.290  0.0489  0.1020  0.2230
    1W        W28108  19.283  25.289   0.417  0.3991  0.1068  0.0334
    1W        W28109  24.694   5.361   1.021 -0.2559 -0.1455  0.1084
    1W        W28110  27.684   4.114   1.570 -0.0270 -0.0738  0.0576
    1W        W28111  27.808  11.718   9.089 -0.1565  0.2391 -0.1668
    1W        W28112  17.031  26.619   9.124 -0.0291  0.0654  0.1095
    1W        W28113  11.058  14.033   1.784 -0.2579  0.3550 -0.1253
    1W        W28114  16.430   4.258   0.407 -0.2146  0.2351  0.1935
    1W        W28115   9.971   4.769   0.555  0.0067 -0.1593  0.0081
    1W        W28116  21.223  15.042   6.574 -0.0593 -0.0862 -0.2215
    1W        W28117  27.266  12.204   2.867 -0.0498 -0.0922  0.0711
    1W        W28118  19.606  13.657   1.339 -0.1447 -0.3516  0.0669
    1W        W28119   9.367  16.288   9.634  0.1054  0.2139  0.1495
    1W        W28120   6.415  28.661   9.697  0.1105 -0.1493  0.0833
    1W        W28121  14.041  18.352   9.721  0.1565  0.1724 -0.0806
    1W        W28122  28.350  16.683   9.579  0.1018 -0.1223 -0.0014
    1W        W28123  16.464  20.763   8.659 -0.0192  0.1790  0.0664
    1W        W28124   6.080  22.781   1.802  0.2199 -0.0813  0.2246
    1W        W28125  16.509  27.247   8.371 -0.0643 -0.1187  0.2410
    1W        W28126  13.215  26.649   2.547 -0.1438 -0.1441 -0.1577
    1W        W28127  28.563  18.971   9.254 -0.2761 -0.0680 -0.0051
    1W        W28128  19.341   7.592   7.481  0.4026  0.1973 -0.1515
    1W        W28129  26.876  11.675   7.161  0.4144 -0.0606 -0.0456
    1W        W28130  26.943   7.623   8.982 -0.0035 -0.0571  0.0304
    1W        W28131  23.862  27.250   0.526  0.1387  0.1070 -0.1380
    1W        W28132  24.004  19.700   8.905  0.2107  0.0098 -0.4019
    1W        W28133  13.232   4.360   0.082  0.0866 -0.2246  0.2689
    1W        W28134  10.665   7.674   9.645 -0.1652 -0.2303 -0.2576
    1W        W28135  14.672  17.130   8.816 -0.0452  0.2648  0.2056
    1W        W28136   5.260  26.008   7.805  0.2102 -0.0572  0.0545
    1W        W28137  27.900   4.406   2.056 -0.0635  0.0298  0.0479
    1W        W28138  21.048  24.154   2.441 -0.0856 -0.0338 -0.2329
    1W        W28139   8.697  16.162   6.629 -0.0076 -0.0671  0.0344
    1W        W28140  11.265  13.206   2.098  0.1635 -0.1768  0.1104
    1W        W28141   5.342  15.451   2.364  0.0617 -0.0807  0.2624
    1W        W28142  27.208  18.857   7.940 -0.3741 -0.1132  0.1718
    1W        W28143  16.468   9.637   5.434 -0.1696  0.1766 -0.0218
    1W        W28144   5.588   4.609   8.110 -0.1840 -0.4313  0.1300
    1W        W28145   2.402  15.881   2.989 -0.0704  0.3297  0.0211
    1W        W28146   8.104  27.467   1.255  0.2155 -0.1126  0.0229
    1W        W28147  16.909   9.792   8.711 -0.1007 -0.1873 -0.0311
    1W        W28148  19.766  15.630   6.115 -0.3072 -0.0013 -0.1212
    1W        W28149  28.823  17.483   4.719 -0.0397 -0.4176  0.1644
    1W        W28150   0.740   6.227   9.158  0.3256 -0.1614  0.1059
    1W        W28151   7.726   6.909   6.434  0.1442 -0.1220 -0.1197
    1W        W28152  14.147  24.098   1.963  0.2907 -0.0714  0.2252
    1W        W28153  23.719  10.895   8.189  0.2935 -0.1048 -0.0196
    1W        W28154   7.054  12.470   6.958  0.1451 -0.2207  0.1281
    1W        W28155  10.798  10.663   0.501 -0.0135 -0.1218 -0.1057
    1W        W28156  15.051  23.825   7.746 -0.2226  0.0032  0.2336
    1W        W28157   2.778  19.796   8.411 -0.1642 -0.2126  0.1013
    1W        W28158  18.208  19.411   2.373  0.0112 -0.1457 -0.1525
    1W        W28159  22.189  13.614   8.144 -0.0582  0.2688 -0.1860
    1W        W28160  12.545   0.257   6.635 -0.1582 -0.0092  0.0037
    1W        W28161  11.900  19.290   8.794 -0.1182  0.2137 -0.1622
    1W        W28162  22.485  24.774   7.195 -0.1976 -0.2902  0.1056
    1W        W28163  24.105  20.853   8.336 -0.2939 -0.1117 -0.2164
    1W        W28164  10.306   2.074   0.436 -0.0083 -0.0853 -0.2779
    1W        W28165  16.965  22.855   8.077  0.0662  0.2084  0.1270
    1W        W28166   1.641  16.397   2.432 -0.0808 -0.1261  0.2917
    1W        W28167  26.950  26.144   0.053 -0.1164 -0.0943 -0.2264
    1W        W28168  27.075   2.618   9.595  0.0005  0.2003 -0.0149
    1W        W28169  14.454  24.464   0.324  0.1374  0.1754  0.3984
    1W        W28170  12.548  11.381   7.724  0.3194  0.0014 -0.1748
    1W        W28171   8.852  26.489   0.187  0.1670 -0.1455 -0.1114
    1W        W28172   0.852   5.416   9.831 -0.1396  0.0554 -0.4964
    1W        W28173   4.380   9.149   0.048 -0.0662  0.0299 -0.2099
    1W        W28174  22.071  15.032   7.225  0.3307 -0.2096  0.0774
    1W        W28175  28.613  12.122   8.628  0.1027 -0.2862  0.3757
    1W        W28176  12.302  26.961   8.686 -0.0055 -0.0672  0.1301
    1W        W28177  26.265   4.070   0.202  0.1216 -0.2435  0.0402
    1W        W28178  17.780  20.357   0.567  0.0607 -0.1657  0.1641
    1W        W28179   3.115  17.785   0.413 -0.1260  0.0743 -0.1490
    1W        W28180  22.249  19.085   1.595  0.0132  0.0033 -0.4249
    1W        W28181  11.770  19.870   1.825 -0.0672  0.0851  0.0897
    1W        W28182   7.058  15.731   1.358  0.2887  0.0500 -0.2504
    1W        W28183  10.128  21.751   1.712 -0.4025  0.1120 -0.0851
    1W        W28184  18.599  14.540   7.774 -0.0944 -0.3565 -0.0859
    1W        W28185   3.755  28.236   4.223  0.0641  0.1660 -0.0974
    1W        W28186   2.200   4.087   0.823 -0.0883  0.1367 -0.1210
    1W        W28187  17.037  24.136   7.596 -0.0324 -0.0905 -0.1767
    1W        W28188   7.631   7.441   1.630  0.0011  0.0406  0.0546
    1W        W28189  21.765  20.357   1.451  0.0812  0.2967 -0.1277
    1W        W28190  11.992   5.627   9.812 -0.3286 -0.1134  0.4838
    1W        W28191   2.163  27.070   0.117  0.2372  0.1538  0.0826
    1W        W28192  21.745  28.478   2.755 -0.1331  0.0196 -0.0205
    1W        W28193  27.576  12.881   7.009  0.1489 -0.1366 -0.0615
    1W        W28194  10.530   9.982   8.251 -0.2164 -0.1132 -0.1088
    1W        W28195  27.209  23.055   8.361 -0.0372 -0.1001 -0.3810
    1W        W28196   9.258  12.631   6.197  0.2756  0.3030 -0.1036
    1W        W28197  27.891   9.958   1.474 -0.0262 -0.1062 -0.2259
    1W        W28198  23.028   7.056   7.722 -0.0697  0.0445  0.1115
    1W        W28199  11.151  12.569   6.496  0.0590  0.1238  0.3306
    1W        W28200  20.175   4.725   1.978  0.0176 -0.2393 -0.1618
    1W        W28201   8.540  26.546   3.428  0.0020 -0.1727  0.2839
    1W        W28202  23.250  14.915   9.412 -0.0186 -0.0557 -0.0585
    1W        W28203  14.471   0.474   0.305 -0.0210 -0.3273  0.1689
    1W        W28204   2.669  15.700   1.832  0.1782 -0.2783 -0.0333
    1W        W28205  23.077  26.449   9.071 -0.0545  0.3106 -0.0657
    1W        W28206  12.839   4.021   6.642  0.2359 -0.3255 -0.1135
    1W        W28207   7.808  22.084   9.534 -0.0618  0.0561  0.0719
    1W        W28208   4.716  16.266   1.565 -0.1566  0.5351  0.0079
    1W        W28209  28.414  17.417   8.643 -0.0948  0.1789 -0.0758
    1W        W28210  10.256  20.416   0.197  0.1024 -0.1026  0.0211
    1W        W28211   1.595   1.905   8.776  0.0638  0.3309 -0.1642
    1W        W28212   8.927  10.887   0.922  0.1461 -0.2834 -0.1521
    1W        W28213  18.612   0.072   1.080 -0.1544 -0.1352 -0.0568
    1W        W28214   8.033  19.443   1.000  0.1017 -0.0587 -0.0298
    1W        W28215   1.974  19.944   0.503  0.2583 -0.1971 -0.3366
    1W        W28216  26.045   0.346   0.426  0.0013 -0.0001  0.1175
    1W        W28217  15.532  27.948   1.270  0.0713  0.0279 -0.0886
    1W        W28218  26.528  19.034   4.061  0.1382  0.4120  0.1763
    1W        W28219  25.409  14.671   2.155 -0.1137  0.1217 -0.2019
    1W        W28220  14.031   4.692   9.538  0.1505  0.2819  0.2441
    1W        W28221  23.551  17.032   8.460  0.1781 -0.1274 -0.0927
    1W        W28222  21.344   2.964   9.009  0.4466  0.2599  0.5624
    1W        W28223  22.955   1.445   2.708  0.0066  0.3216  0.0799
    1W        W28224   3.966  24.693   3.922  0.0762 -0.2291  0.0512
    1W        W28225   7.170  11.135   6.886  0.0054  0.0516  0.2402
    1W        W28226  15.686  21.283   7.088  0.3045 -0.1091 -0.1161
    1W        W28227  18.294  26.034   9.235  0.0229  0.2352  0.1156
    1W        W28228  13.541   2.630   5.953 -0.3609 -0.3225 -0.1132
    1W        W28229  10.010   1.369   9.775  0.3148  0.3166  0.0242
    1W        W28230  21.586   3.645   7.760 -0.0379  0.0730  0.0317
    1W        W28231  24.004   1.197   7.698  0.3734  0.0390 -0.0609
    1W        W28232  12.264   7.569   8.028  0.0964  0.1203 -0.2642
    1W        W28233   2.263   7.419   0.298 -0.2711 -0.2170  0.1632
    1W        W28234   4.607  28.408   0.806 -0.1438  0.1548  0.0216
    1W        W28235  22.662   8.015   9.072 -0.0831 -0.0706  0.0265
    1W        W28236   3.791  11.380   2.531  0.1576  0.1567 -0.0160
    1W        W28237  14.413  27.897   0.354 -0.3450  0.2136  0.0368
    1W        W28238  26.711  28.524   8.718 -0.0965  0.0419 -0.0509
    1W        W28239   9.446  28.747   7.466  0.3746  0.2572  0.3906
    1W        W28240   9.112  22.368   0.763 -0.2667 -0.1846 -0.0554
    1W        W28241   2.147  11.140   1.564  0.2399  0.2954  0.0373
    1W        W28242   6.874  22.503   0.036 -0.2409  0.0390  0.0448
    1W        W28243  25.126   0.575   2.168  0.0482  0.0865 -0.1754
    1W        W28244  23.443  12.632   0.981  0.0442 -0.0101  0.5400
    1W        W28245   4.906   2.564   3.275  0.2007 -0.0335 -0.2230
    1W        W28246  15.826   0.578   0.179  0.4023 -0.0022  0.2374
    1W        W28247   0.135   9.880   8.779 -0.2597 -0.1434  0.2387
    1W        W28248   9.603  16.263   8.292  0.0857 -0.1239  0.0662
    1W        W28249   8.477   4.998   2.432  0.0647  0.0994  0.1543
    1W        W28250  11.381   0.896   7.917  0.0863  0.0717 -0.0553
    1W        W28251  13.817  10.060   8.856  0.3285  0.1009 -0.1044
    1W        W28252   8.755   2.162   9.955 -0.1285  0.0995  0.3985
    1W        W28253  21.077   9.899   0.665  0.0040 -0.1957 -0.0890
    1W        W28254   3.068  21.594   7.546 -0.1410  0.1468  0.2694
    1W        W28255  11.265   6.038   7.077  0.2846  0.0651  0.1508
    1W        W28256   7.071   2.287   1.032  0.2108 -0.3881 -0.1629
    1W        W28257  17.576   5.536   0.728  0.3273  0.3321 -0.1759
    1W        W28258  23.073  15.777   8.869  0.0959 -0.2040  0.0987
    1W        W28259   3.950   2.180   8.809 -0.0982  0.0069  0.0869
    1W        W28260  22.899  22.639   0.097  0.0875  0.0690 -0.0100
    1W        W28261   0.757   2.572   0.278 -0.1095  0.0447  0.2168
    1W        W28262   3.277  21.033   1.638 -0.0065 -0.1597 -0.1438
    1W        W28263   9.611   5.095   8.121 -0.1581 -0.4349 -0.0087
    1W        W28264   7.966  23.043   1.331  0.1383  0.2731 -0.2573
    1W        W28265   2.628  19.528   2.942  0.0633 -0.1393  0.0095
    1W        W28266  22.466   7.429   0.663  0.1831  0.0048  0.3862
    1W        W28267   0.916   2.877   2.481 -0.0958  0.0075 -0.0832
    1W        W28268  27.703  15.870   2.274  0.1789 -0.0822  0.0429
    1W        W28269   9.853  17.747   9.470 -0.1406 -0.0736 -0.1153
    1W        W28270  16.117   4.259   8.175 -0.3151 -0.0756  0.2368
    1W        W28271  18.775   7.281   6.293 -0.1636 -0.1561 -0.0174
    1W        W28272  25.580  18.928   2.733  0.1185 -0.2858 -0.1506
    1W        W28273   2.339  27.456   1.782  0.2790 -0.0453  0.0058
    1W        W28274   7.700   0.626   0.357 -0.4927 -0.0402 -0.2830
    1W        W28275  20.053  15.048   9.254  0.1459  0.1430  0.0248
    1W        W28276   2.107  17.307   1.290 -0.1134 -0.0032  0.1273
    1W        W28277  16.084  20.722   0.920 -0.2484  0.1715  0.0373
    1W        W28278  24.309  27.103   0.600  0.0354 -0.2956 -0.1582
    1W        W28279  17.390  20.386   8.833 -0.0738  0.0276  0.1451
    1W        W28280   4.630  19.094   3.674  0.2085  0.1186  0.3524
    1W        W28281  14.995  13.252   6.452 -0.0390 -0.4115  0.3321
    1W        W28282   4.796  27.346   7.989  0.1105 -0.2764 -0.1475
    1W        W28283  28.355  16.960   1.566 -0.0188  0.1226 -0.2015
    1W        W28284  15.189  20.064   0.409  0.2706  0.0011  0.2473
    1W        W28285  26.055  24.420   9.209  0.0591 -0.2429 -0.3775
    1W        W28286  23.598  25.735   1.006 -0.1675 -0.2236  0.0070
    1W        W28287  19.476  11.885   2.547  0.2345 -0.0084  0.1014
    1W        W28288  15.113  14.187   1.722  0.3163 -0.2608  0.1225
    1W        W28289  14.103  16.261   2.914 -0.2428  0.2130 -0.0948
    1W        W28290   8.448   2.385   2.423  0.1608 -0.3277 -0.3001
    1W        W28291   7.759  22.431   2.406 -0.0404  0.1815  0.0256
    1W        W28292  13.180  13.332   1.263 -0.3277 -0.0548 -0.1062
    1W        W28293  23.441  27.211   2.680 -0.1091 -0.3130 -0.0493
    1W        W28294   9.940   2.296   1.604 -0.1223  0.1471  0.2586
    1W        W28295  22.643   3.217   9.173 -0.0934 -0.0227 -0.2410
    1W        W28296  10.665  19.788   0.511  0.1394 -0.0461 -0.5066
    1W        W28297  13.904  12.727   0.140 -0.3593  0.2721 -0.0156
    1W        W28298  16.619  25.896   1.280 -0.1004  0.1232  0.0523
    1W        W28299  23.450   4.706   1.098  0.0699  0.2180 -0.0650
    1W        W28300  20.994  11.402   2.388 -0.0871 -0.1510 -0.1678
    1W        W28301  12.116  18.491   0.035 -0.1068 -0.3831  0.0695
    1W        W28302  12.924  25.375   1.387  0.1057 -0.1296  0.3070
    1W        W28303   4.242  11.023   1.931  0.1783 -0.1475  0.0613
    1W        W28304  18.482  23.122   8.188  0.2753 -0.0720 -0.0578
    1W        W28305  14.752  24.072   3.826 -0.1891 -0.1471  0.1422
    1W        W28306  23.706  20.086   2.923  0.0394  0.0208 -0.1487
    1W        W28307  19.382   8.567   9.986 -0.0503 -0.0245 -0.1551
    1W        W28308  24.831  10.942   8.861  0.1456 -0.2981  0.0606
    1W        W28309  22.377  27.534   1.063  0.1600 -0.1973 -0.3298
    1W        W28310  19.098  15.193   6.442  0.3135 -0.2484 -0.0182
    1W        W28311   0.001  13.830   9.150 -0.0957  0.0504 -0.2737
    1W        W28312  16.593  15.136   8.521 -0.0345  0.1759 -0.0141
    1W        W28313  27.400   5.456   1.672  0.0342 -0.0660  0.2959
    1W        W28314   8.357   7.379   8.260 -0.1406  0.0398  0.0972
    1W        W28315   4.782  15.009   1.172  0.1209 -0.1211  0.3407
    1W        W28316   3.604   2.595   3.790 -0.2326  0.0925 -0.0957
    1W        W28317   3.348  27.168   3.756 -0.2127  0.2942  0.0441
    1W        W28318  19.636   2.453   8.089  0.1294 -0.0739  0.0012
    1W        W28319  27.092   3.320   0.707  0.1234 -0.0170 -0.1160
    1W        W28320   9.413  25.801   8.896 -0.0353  0.1737  0.1367
    1W        W28321  11.133  18.417   1.859 -0.0187 -0.2114  0.1938
    1W        W28322  10.965  22.890   0.457  0.0844 -0.0531 -0.0151
    1W        W28323   7.073   5.124   8.921  0.0258 -0.1993 -0.0946
    1W        W28324  26.309  14.012   6.525 -0.0653 -0.0243  0.1335
    1W        W28325   3.680   8.174   0.738  0.2027 -0.1674 -0.3287
    1W        W28326  16.191   5.368   9.395  0.3278 -0.0038 -0.0623
    1W        W28327  25.090  24.973   2.845  0.2383 -0.1272 -0.1089
    1W        W28328  19.590   9.928   2.277 -0.1370 -0.1450 -0.1041
    1W        W28329  20.020   4.633   8.338 -0.2106  0.1083 -0.0145
    1W        W28330  18.490   8.958   6.537 -0.0368 -0.4218  0.2097
    1W        W28331  18.353   7.528   6.405 -0.0142 -0.0712 -0.1388
    1W        W28332   3.679  13.472   0.404 -0.0586  0.0026  0.1444
    1W        W28333  12.141  28.479   9.166 -0.1369 -0.0788 -0.2678
    1W        W28334  12.684   8.324   9.015 -0.1985 -0.0096 -0.1661
    1W        W28335  13.052  20.373   0.770  0.2499 -0.1453 -0.0266
    1W        W28336   1.337  26.028   8.843 -0.2369 -0.3369  0.0300
    1W        W28337   2.031  26.384   4.368  0.1103  0.0492 -0.3035
    1W        W28338  26.487  13.618   9.112  0.0246 -0.0608 -0.1620
    1W        W28339  25.567  26.783   3.700  0.1215  0.0389 -0.3626
    1W        W28340   4.558   3.277   9.229 -0.2159 -0.0120 -0.1335
    1W        W28341  26.516   0.884   9.162 -0.1243 -0.3563 -0.3782
    1W        W28342   4.894  11.130   7.025  0.2701  0.2107  0.3954
    1W        W28343  25.538  25.596   0.503 -0.0602 -0.2603 -0.3964
    1W        W28344   1.623  28.665   2.476  0.0070 -0.0684 -0.2009
    1W        W28345  24.190  19.931   2.677 -0.1117  0.3686 -0.0236
    1W        W28346  24.488  13.783   7.729  0.0453 -0.2711 -0.1209
    1W        W28347  13.796  11.082   1.077  0.5937  0.0862  0.1711
    1W        W28348  14.880   4.786   1.016  0.1390 -0.0668 -0.4515
    1W        W28349   2.286   6.052   9.001  0.1286  0.1161 -0.1027
    1W        W28350   0.613  14.380   1.977  0.1128 -0.3579 -0.0667
    1W        W28351   5.069  21.798   8.727 -0.2515  0.4436  0.0892
    1W        W28352   6.815  15.831   7.085  0.2462 -0.2196  0.2060
    1W        W28353   4.294  12.408   7.971  0.0207  0.0987  0.1088
    1W        W28354   9.382  10.988   7.163  0.2812  0.1001  0.1705
    1W        W28355   6.853  19.312   7.898 -0.1521  0.3149 -0.4549
    1W        W28356  24.390  11.628   1.929  0.0339  0.0087  0.2459
    1W        W28357   5.178  25.589   3.024 -0.1493  0.2543  0.1146
    1W        W28358   2.465  12.302   9.015 -0.1844 -0.1155  0.2238
    1W        W28359   7.279   5.696   1.839  0.1096  0.1529 -0.1074
    1W        W28360  17.803  11.264   0.089  0.3338  0.0307 -0.2921
    1W        W28361  15.428   6.507   0.908  0.5112  0.0637 -0.0727
    1W        W28362  16.675  19.711   2.283  0.0404  0.2665  0.0010
    1W        W28363  24.180  14.934   3.192  0.0126 -0.0944 -0.1584
    1W        W28364  25.708  26.371   9.474  0.0442  0.0326 -0.0881
    1W        W28365  11.266  25.813   2.491  0.0892  0.0502  0.4597
    1W        W28366   9.112  25.237   2.549  0.1935 -0.3944 -0.0520
    1W        W28367  23.311  23.142   9.439  0.0225 -0.1411  0.0562
    1W        W28368   2.970  22.897   3.431  0.0002 -0.0155 -0.0014
    1W        W28369  11.946  12.059   6.574 -0.1620  0.0247  0.1416
    1W        W28370  18.386  13.800   8.783 -0.1179 -0.1954 -0.1186
    1W        W28371   5.652   7.122   2.335 -0.0786 -0.2307  0.0210
    1W        W28372  17.235   2.546   1.339 -0.1126  0.1158 -0.1755
    1W        W28373  26.556  21.779   2.497  0.0522  0.1324 -0.0717
    1W        W28374  23.174  13.393   7.927  0.0902  0.1834 -0.2129
    1W        W28375  24.982   4.400   1.983 -0.1255  0.3982  0.0468
    1W        W28376  20.025  12.918   8.579 -0.2601  0.3855  0.1725
    1W        W28377  22.425  15.460   7.803 -0.1595 -0.0174 -0.2491
    1W        W28378  22.713  12.133   2.719 -0.2875 -0.0949  0.4785
    1W        W28379   6.517  26.859   3.222  0.0698  0.1176  0.0722
    1W        W28380  23.763  26.302   2.529 -0.2295 -0.0593  0.1487
    1W        W28381  26.049  21.108   1.539  0.1045 -0.0290 -0.0285
    1W        W28382  10.184  14.899   6.241  0.1017  0.0760  0.1060
    1W        W28383  17.477  26.345   0.055  0.0212  0.1685  0.0047
    1W        W28384   7.758   5.956   9.530  0.2045 -0.0622  0.1764
    1W        W28385  20.175  17.753   7.966  0.1810 -0.0449 -0.1052
    1W        W28386   3.112   8.303   0.748 -0.2777 -0.1092 -0.0195
    1W        W28387   3.323  22.669   3.654 -0.1818  0.2119  0.2031
    1W        W28388  15.097  10.091   1.571  0.0437  0.0709  0.0330
    1W        W28389   1.020  12.179   2.960 -0.0038  0.1150  0.1866
    1W        W28390  11.930  14.404   2.564 -0.0297 -0.0824  0.0487
    1W        W28391  25.940  24.963   8.259  0.0446 -0.4326 -0.2387
    1W        W28392  16.968  11.848   8.556  0.2745  0.2096 -0.0541
    1W        W28393   0.646  19.419   0.066 -0.1818 -0.0432 -0.0941
    1W        W28394   4.809   7.952   0.619 -0.1997  0.2209 -0.0347
    1W        W28395  11.807  14.850   7.846  0.0909  0.0106  0.2068
    1W        W28396  20.040  12.262   6.599 -0.1324  0.0333  0.3818
    1W        W28397  28.237  20.484   9.356  0.0011  0.0914 -0.0930
    1W        W28398  12.523  20.856   9.467  0.1586  0.2063  0.1934
    1W        W28399   0.552   0.358   0.389  0.1306  0.3720  0.1667
    1W        W28400  13.085  15.637   8.058 -0.3674  0.0601  0.0162
    1W        W28401  12.766   6.556   6.860  0.0374 -0.1203  0.0724
    1W        W28402  23.053  27.657   9.288  0.2135 -0.1077  0.1015
    1W        W28403  28.727  26.034   9.137 -0.2704  0.0218  0.2095
    1W        W28404  28.044  18.597   3.202  0.0583 -0.1238 -0.1410
    1W        W28405   1.130  12.911   9.254  0.1742 -0.0484  0.1444
    1W        W28406  13.111  26.483   2.046  0.1639  0.0267 -0.1710
    1W        W28407  14.742  22.073   8.650 -0.2072  0.0168  0.1679
    1W        W28408   9.951  20.391   9.541  0.0713 -0.0604  0.0846
    1W        W28409  10.694  16.817   8.955 -0.0925 -0.2622 -0.1286
    1W        W28410  13.884  24.858   7.311  0.2812  0.1468  0.2614
    1W        W28411  11.550   9.876   9.635 -0.0370 -0.1477 -0.1936
    1W        W28412   0.571  27.942   2.089 -0.0482  0.0331 -0.0866
    1W        W28413  27.313  13.665   9.804 -0.2289  0.0968  0.1242
    1W        W28414  26.894  10.037   1.576 -0.1660 -0.2066  0.0467
    1W        W28415   3.120  19.107   9.467  0.0798 -0.3998 -0.1908
    1W        W28416  11.688  14.912   6.684  0.1781 -0.2003 -0.1754
    1W        W28417  22.588   2.210   9.087  0.0392 -0.2040  0.3391
    1W        W28418   7.814  22.437   7.193 -0.3375 -0.0364  0.0310
    1W        W28419  12.253   7.910   9.656 -0.1924 -0.2934 -0.0019
    1W        W28420  27.507   3.705   3.270  0.0922  0.1706 -0.1200
    1W        W28421  21.070   6.217   7.317 -0.1330  0.1634 -0.1452
    1W        W28422   7.632   6.019   1.912 -0.0342  0.0627 -0.3899
    1W        W28423  13.792   9.676   6.371  0.1672  0.0593 -0.0893
    1W        W28424   2.087   5.535   9.018 -0.3419  0.0104  0.0015
    1W        W28425   5.886  20.133   0.604  0.3712 -0.3042  0.1718
    1W        W28426  13.889   5.184   9.493 -0.1184 -0.0046  0.0754
    1W        W28427  17.450   9.386   1.998  0.0149 -0.1440 -0.1706
    1W        W28428  18.037   4.350   8.538  0.1119 -0.0669 -0.3817
    1W        W28429  12.529  16.963   8.989  0.2708 -0.0846 -0.0859
    1W        W28430   5.483   0.404   9.616  0.3109 -0.0273  0.1093
    1W        W28431   5.978   4.517   0.216 -0.2347 -0.1667  0.1411
    1W        W28432   0.961  23.507   8.040  0.1274 -0.1486  0.0158
    1W        W28433  19.069  19.612   2.193  0.2865 -0.2683  0.2162
    1W        W28434   2.899  15.931   9.485 -0.1652 -0.0171  0.3153
    1W        W28435   1.438  12.390   0.471  0.2153 -0.1562  0.1380
    1W        W28436   3.734   1.391   1.339  0.1177  0.0084  0.0530
    1W        W28437  10.736  14.485   9.640 -0.4740  0.2035  0.1571
    1W        W28438  26.965   0.663   9.503 -0.1653  0.1892  0.1534
    1W        W28439  24.688  19.555   7.583  0.1486  0.0783 -0.1886
    1W        W28440  28.553   2.174   3.572  0.1691  0.3659  0.1658
    1W        W28441   6.833   7.279   3.245  0.1875  0.0988  0.2355
    1W        W28442   9.434  26.845   9.155  0.0296 -0.1678 -0.1327
    1W        W28443  16.352   4.062   6.938 -0.1591 -0.1337  0.2420
    1W        W28444   7.699  17.310   8.311 -0.0417  0.0955 -0.1058
    1W        W28445  26.788  13.059   6.461 -0.0405 -0.4469 -0.1430
    1W        W28446   9.062   4.385   8.471 -0.0052  0.2445 -0.0675
    1W        W28447  18.750  28.848   0.510 -0.1594  0.0221  0.0867
    1W        W28448  23.023  20.651   2.459  0.2817 -0.0159 -0.1102
    1W        W28449   5.538  25.597   1.140 -0.1267 -0.0955 -0.1005
    1W        W28450   2.660  16.090   9.995  0.1841 -0.2180  0.1367
    1W        W28451  16.866  26.301   7.251  0.0423  0.0950  0.0065
    1W        W28452  25.968   7.894   2.491  0.1867 -0.0664 -0.0526
    1W        W28453  10.580  21.143   7.499  0.2382  0.0010  0.1048
    1W        W28454  13.851   3.705   7.367  0.0109 -0.0500  0.2349
    1W        W28455  15.139  23.643   2.587 -0.1810 -0.3010  0.0324
    1W        W28456  14.119  14.974   7.271 -0.1073 -0.1423 -0.0621
    1W        W28457  28.165  20.443   2.772  0.0092  0.5542 -0.1447
    1W        W28458  13.804  19.520   1.683  0.2518 -0.0664 -0.3755
    1W        W28459  26.084   6.106   8.411 -0.2327 -0.2412  0.1256
    1W        W28460   0.264   7.615   8.153 -0.2098  0.0454 -0.2087
    1W        W28461   4.047   2.341   1.012  0.1599 -0.0215  0.4713
    1W        W28462   2.495   3.272   2.209  0.0926 -0.4851 -0.3345
    1W        W28463  22.140  10.700   0.822 -0.1459  0.0439 -0.1109
    1W        W28464   0.971  10.871   1.527  0.3807 -0.1467  0.2297
    1W        W28465   0.305   9.302   1.288 -0.1504 -0.0141  0.1259
    1W        W28466  15.090   5.193   0.846 -0.0114  0.0143  0.0330
    1W        W28467  15.486  20.504   3.392  0.0583  0.0925 -0.0225
    1W        W28468  14.715   7.971   6.760  0.1060 -0.0036  0.1801
    1W        W28469   7.561  13.376   0.330 -0.0104 -0.0273  0.1066
    1W        W28470  12.224  11.138   1.200  0.1144  0.1010  0.2404
    1W        W28471   5.795  22.284   8.968 -0.0447 -0.0715  0.0503
    1W        W28472  26.788   5.169   2.017 -0.1463 -0.3108  0.1890
    1W        W28473  25.755  12.549   1.073 -0.0738  0.0089  0.2142
    1W        W28474  19.833  16.024   8.058  0.2692  0.0919  0.0372
    1W        W28475   4.316   3.589   2.995  0.3498  0.1724 -0.2864
    1W        W28476   1.433  26.300   9.322  0.2215  0.1177  0.0799
    1W        W28477  25.466  17.792   8.269  0.1231 -0.0596  0.3553
    1W        W28478  25.495  13.764   0.722  0.0846  0.1919  0.0326
    1W        W28479  17.460   6.090   6.688  0.2452  0.2114  0.1652
    1W        W28480  15.488  12.129   1.107  0.1753 -0.0878 -0.0042
    1W        W28481  24.595  18.416   1.539 -0.0475 -0.0465 -0.1693
    1W        W28482  15.197  12.698   9.300 -0.1642  0.1880  0.3928
    1W        W28483  17.213  27.698   6.786  0.1352  0.2505  0.1779
    1W        W28484  19.737  23.289   9.154  0.0770  0.1311  0.0594
    1W        W28485  28.374  19.303   0.527 -0.0168  0.1590  0.0977
    1W        W28486  14.392  19.916   1.544 -0.3146  0.3525  0.0948
    1W        W28487   7.894   1.851   1.421 -0.0123 -0.2062 -0.2242
    1W        W28488   5.479   6.649   8.542 -0.0856 -0.2233  0.1189
    1W        W28489  22.552   0.497   8.464  0.0260 -0.0646  0.0146
    1W        W28490   6.319   0.768   3.483 -0.1468 -0.0109 -0.0448
    1W        W28491   6.705  12.351   9.694  0.2818  0.4533 -0.0425
    1W        W28492   3.932   9.410   8.959 -0.1791 -0.3298  0.3104
    1W        W28493   4.724  16.712   9.582  0.2815 -0.4225  0.1088
    1W        W28494  22.612  17.283   1.774  0.0484  0.3095  0.0279
    1W        W28495  18.304  21.686   1.613  0.2203  0.1024  0.1595
    1W        W28496  13.832   7.289   0.332  0.0644 -0.0710  0.0803
    1W        W28497  27.146  11.562   7.825  0.1029  0.1200 -0.0208
    1W        W28498   7.875  26.367   2.779 -0.1888  0.0935  0.1129
    1W        W28499   7.236  16.317   7.595 -0.1633 -0.2651 -0.0208
    1W        W28500   4.484  13.518   1.911 -0.1312  0.0253  0.0675
    1W        W28501  21.564  14.082   1.740 -0.1244  0.1544 -0.1327
    1W        W28502  27.929   6.406   3.532  0.0365 -0.1402  0.1047
    1W        W28503  14.297  20.884   2.667  0.0179  0.2996  0.0206
    1W        W28504  24.507  21.711   9.799 -0.1148  0.1424 -0.0981
    1W        W28505  27.067   2.685   9.091  0.2549 -0.2036 -0.4047
    1W        W28506  18.190  10.092   9.359  0.1776  0.2781 -0.1053
    1W        W28507  25.604  20.839   1.444 -0.0650 -0.1050 -0.0378
    1W        W28508   3.324  17.837   1.349 -0.1394 -0.0443  0.3754
    1W        W28509   6.012   5.038   8.171 -0.1225 -0.1555  0.0221
    1W        W28510  12.346  11.982   1.451 -0.0233  0.4414 -0.0536
    1W        W28511  25.120  19.229   9.329  0.1087 -0.3992  0.2057
    1W        W28512  26.445  14.329   0.846 -0.0501  0.0371 -0.0020
    1W        W28513  18.888  24.827   6.837  0.0452 -0.0559  0.0671
    1W        W28514  11.079   8.506   1.494 -0.1157 -0.0220 -0.2079
    1W        W28515   8.145   8.906   0.938  0.0045 -0.4243 -0.3420
    1W        W28516  22.848   6.324   1.413  0.0236 -0.1362 -0.0657
    1W        W28517  19.030  25.038   9.580 -0.1972  0.1950 -0.1855
    1W        W28518   7.557   6.930   7.640  0.2747  0.0221 -0.1753
    1W        W28519   0.208   7.397   8.649 -0.0647  0.2354 -0.5402
    1W        W28520  15.122   6.693   7.714  0.2303  0.0138 -0.0593
    1W        W28521   3.678  17.843   0.418 -0.0877  0.1404 -0.3144
    1W        W28522  14.008  11.449   7.893  0.0003 -0.0562  0.1026
    1W        W28523  24.458  12.804   0.459  0.1630  0.2359 -0.0988
    1W        W28524  22.229  21.573   8.124  0.2822  0.1638  0.0119
    1W        W28525  25.652  22.794   8.693 -0.0751  0.2393  0.4212
    1W        W28526  19.532  15.469   8.602  0.1269 -0.0052  0.1176
    1W        W28527  13.970  24.497   7.712 -0.1817 -0.0091  0.0913
    1W        W28528   9.480   7.429   0.454  0.2048  0.1868  0.1605
    1W        W28529   6.728   5.145   0.506  0.1346 -0.2530  0.0711
    1W        W28530  11.602  11.854   1.153 -0.0662 -0.0814  0.0706
    1W        W28531  24.259   7.562   6.875  0.2529 -0.3660  0.2272
    1W        W28532  13.982  17.746   7.231  0.3005 -0.1508  0.3900
    1W        W28533  23.658   8.320   0.511  0.0466 -0.2988 -0.0135
    1W        W28534   2.074  26.579   1.336 -0.0010  0.1953  0.0247
    1W        W28535  24.162   6.495   0.144  0.1901 -0.1980 -0.0861
    1W        W28536  20.341  28.215   0.230  0.3329  0.2013 -0.3605
    1W        W28537  14.991  25.033   2.249 -0.0492  0.0956  0.3048
    1W        W28538   0.498   7.211   4.194  0.1381  0.1099 -0.0793
    1W        W28539   5.242  23.017   1.306 -0.1680 -0.2647 -0.1043
    1W        W28540  15.651  18.273   0.630 -0.0855  0.1416 -0.0849
    1W        W28541  24.122   9.802   8.242 -0.0501 -0.1964 -0.2391
    1W        W28542   1.105  15.049   2.512  0.0856 -0.0330 -0.2756
    1W        W28543  10.471   7.217   9.840  0.1861 -0.0309 -0.3666
    1W        W28544  27.769   2.602   8.509 -0.4229  0.1025 -0.1240
    1W        W28545   0.640   4.762   2.148 -0.1920  0.4551  0.2563
    1W        W28546  10.993  10.948   0.001  0.1799 -0.0764  0.1503
    1W        W28547  20.258  16.937   7.361 -0.0171 -0.0670 -0.0834
    1W        W28548   6.220  15.328   7.760  0.0694 -0.1201 -0.4657
    1W        W28549  20.670  11.311   7.758  0.0181  0.0374  0.2083
    1W        W28550   2.342  15.270   7.924 -0.1516  0.0290  0.1649
    1W        W28551   3.253  26.564   8.816 -0.0921  0.0647 -0.3773
    1W        W28552  25.970   5.240   1.409  0.1531  0.1844  0.0710
    1W        W28553   1.979   8.925   8.415 -0.0176 -0.1161 -0.4062
    1W        W28554   5.618   8.183   7.201 -0.0417  0.1153  0.0377
    1W        W28555  14.491   5.991   9.423 -0.0687  0.0308  0.2190
    1W        W28556   9.402  11.091   6.607 -0.1624 -0.2867  0.2204
    1W        W28557   5.987   7.759   9.978  0.3399 -0.2489 -0.1660
    1W        W28558   2.301  22.735   0.287  0.2698  0.3672  0.0299
    1W        W28559  27.663  23.748   2.408 -0.1596  0.1496  0.0572
    1W        W28560  12.044  19.453   1.665  0.1918 -0.3806 -0.1444
    1W        W28561  21.322  16.636   0.343 -0.0322  0.1471 -0.2096
    1W        W28562  27.237  14.591   3.087  0.4461 -0.0324 -0.1678
    1W        W28563   6.961  15.909   7.911  0.0430  0.0624  0.1514
    1W        W28564   2.887  23.515   0.351  0.0478  0.1443  0.0765
    1W        W28565   8.405  26.992   9.576  0.2688 -0.0043 -0.1789
    1W        W28566  18.140   6.314   0.522 -0.1467 -0.1141 -0.1935
    1W        W28567   8.856  15.177   0.477  0.0617  0.0269  0.1061
    1W        W28568  28.216  14.796   8.644  0.1348 -0.0375  0.0324
    1W        W28569   8.522   6.310   2.121  0.0735  0.1010  0.1104
    1W        W28570  23.667  23.322   0.411 -0.2648  0.2644 -0.0338
    1W        W28571   6.195  24.790   2.416 -0.5084 -0.1014  0.1745
    1W        W28572   1.191   1.245   9.183 -0.1742  0.0445 -0.0614
    1W        W28573   1.486  22.931   3.031  0.0909  0.0102  0.0974
    1W        W28574  19.225  27.530   6.902 -0.0992  0.2267  0.2259
    1W        W28575  16.238  18.338   2.334  0.1397  0.0518  0.3486
    1W        W28576   4.181  14.337   2.334  0.0078 -0.1382 -0.0200
    1W        W28577  13.775  17.781   1.495 -0.0949  0.0580  0.1184
    1W        W28578  22.571  24.414   0.556  0.0049  0.1530  0.2956
    1W        W28579  27.013  17.706   0.096 -0.3403  0.0695  0.0578
    1W        W28580   5.098  22.461   1.415  0.1049  0.0938  0.0122
    1W        W28581   6.787   4.533   8.010  0.7420  0.0213 -0.0678
    1W        W28582   3.377  27.430   0.195  0.0392  0.0496 -0.0655
    1W        W28583  23.230  16.428   0.210 -0.0646  0.1423 -0.0254
    1W        W28584  19.393   0.332   7.688 -0.0007 -0.1554  0.0855
    1W        W28585  10.948  22.457   2.537  0.1916  0.1466 -0.2584
    1W        W28586   3.130  13.633   1.186 -0.2889 -0.1258  0.1398
    1W        W28587   6.833   8.845   2.091 -0.0201 -0.1535 -0.0500
    1W        W28588  16.730  22.116   2.139  0.2078 -0.1679  0.0105
    1W        W28589  12.120   8.110   8.258  0.0286 -0.1237  0.0378
    1W        W28590  11.897  22.019   6.903  0.0589  0.0721 -0.0732
    1W        W28591  10.622  21.229   0.381  0.0923 -0.1326 -0.2013
    1W        W28592   4.546   4.924   2.090  0.3264 -0.0015  0.2189
    1W        W28593   0.427  15.141   3.011 -0.0540 -0.0191  0.2878
    1W        W28594  28.315  19.774   1.469 -0.1163 -0.3684 -0.0947
    1W        W28595  20.273  12.637   6.348  0.1377 -0.1076 -0.1529
    1W        W28596  15.050   0.765   2.769  0.1704  0.1634  0.2174
    1W        W28597  26.870   7.416   8.469  0.0221 -0.0099 -0.1376
    1W        W28598  23.797   3.691   7.366 -0.0823  0.1758  0.1138
    1W        W28599   5.407   6.599   7.527  0.2521 -0.1628 -0.1413
    1W        W28600  14.296   8.224   6.474 -0.0213 -0.1291  0.0372
    1W        W28601  22.210  13.867   9.413 -0.1624  0.0384  0.0032
    1W        W28602   1.415  22.272   3.042  0.0130  0.0844 -0.1251
    1W        W28603  19.446  18.070   1.630 -0.0471  0.1291  0.0780
    1W        W28604   1.159  20.455   0.855  0.0599 -0.3667  0.4166
    1W        W28605  15.780   7.596   9.182  0.1525 -0.0985  0.2847
    1W        W28606  27.049  26.749   0.667 -0.1061 -0.0657 -0.1580
    1W        W28607   5.339   8.163   0.448  0.1360 -0.1179  0.3184
    1W        W28608  25.558   8.947   1.379  0.2191  0.3182  0.1891
    1W        W28609  12.817  16.823   9.381  0.2000 -0.2965 -0.0772
    1W        W28610   9.898   1.532   1.235  0.2093  0.0802 -0.0638
    1W        W28611  10.945  23.016   7.351 -0.1423  0.2389 -0.3230
    1W        W28612  12.856  24.259   0.210  0.0556  0.0297 -0.1039
    1W        W28613  10.598   1.191   6.681 -0.2326  0.1240 -0.0474
    1W        W28614   3.594  27.024   2.602  0.0638 -0.0240  0.2661
    1W        W28615   1.503   7.937   2.342  0.1888  0.0290  0.0809
    1W        W28616   1.676  23.305   1.589 -0.0143 -0.2032 -0.0340
    1W        W28617  11.722  17.138   2.669 -0.1932 -0.0341  0.0710
    1W        W28618  27.641  14.344   8.545  0.1430  0.0253  0.1773
    1W        W28619   2.119   5.797   0.083 -0.1184  0.2538  0.1919
    1W        W28620   6.991  25.490   1.588  0.2758  0.1452  0.1599
    1W        W28621  20.962   9.369   1.108 -0.0619  0.3329 -0.0270
    1W        W28622  14.171  28.316   0.149 -0.1288  0.2964 -0.2051
    1W        W28623   1.597   1.356   8.868 -0.1263  0.1659 -0.1765
    1W        W28624   9.198  28.334   2.816  0.0650  0.3870  0.0566
    1W        W28625   7.059  10.156   6.953  0.3187  0.1197 -0.1024
    1W        W28626  27.745  25.540   9.423  0.0812  0.0010 -0.1365
    1W        W28627   3.891  28.183   0.152 -0.0309 -0.3026  0.0968
    1W        W28628  28.136  24.976   2.795  0.0142 -0.1677  0.0436
    1W        W28629  12.907  15.112   0.345  0.0472 -0.0248 -0.0887
    1W        W28630  27.035  10.374   9.242  0.1901 -0.0276 -0.0004
    1W        W28631   1.961  16.961   7.649  0.2239  0.1448 -0.0115
    1W        W28632  10.073  21.757   9.290  0.2616 -0.1835 -0.1677
    1W        W28633  15.413  18.579   7.594 -0.1167 -0.3005  0.0386
    1W        W28634   5.061   3.477   8.738  0.1368  0.0726 -0.0117
    1W        W28635  13.634   3.615   9.543  0.1505 -0.1946 -0.0963
    1W        W28636   4.800  23.245   3.035 -0.1085  0.0906  0.1609
    1W        W28637   7.486  27.486   1.579 -0.0056  0.3185  0.2759
    1W        W28638  21.535  26.267   2.139  0.0928 -0.3872  0.2352
    1W        W28639   7.949  17.336   7.143  0.0280  0.1978  0.0069
    1W        W28640  20.953  14.624   9.058  0.2073  0.1144  0.2526
    1W        W28641   3.724  10.754   7.500 -0.1445  0.1558 -0.3155
    1W        W28642   1.479   2.701   3.671 -0.0659 -0.2805 -0.1843
    1W        W28643  24.150   1.856   8.848  0.0235  0.0190  0.0854
    1W        W28644  21.667  17.032   1.976  0.1096 -0.0044  0.1685
    1W        W28645  26.455  11.407   0.390 -0.1819 -0.0544 -0.1039
    1W        W28646  18.148  11.996   7.581 -0.0655 -0.1126 -0.0067
    1W        W28647  17.069  23.102   7.561  0.1429 -0.3535  0.0100
    1W        W28648  26.333  28.163   9.000 -0.0812  0.3529 -0.0787
    1W        W28649  15.072   6.828   9.076 -0.0720  0.0244  0.4275
    1W        W28650   5.434  23.887   7.036 -0.0796  0.0059  0.4421
    1W        W28651  21.877  10.312   0.241  0.2430 -0.0233  0.1809
    1W        W28652  15.332   3.176   0.110  0.0679 -0.1167 -0.2128
    1W        W28653  16.222  26.267   1.217 -0.0018  0.1720  0.0893
    1W        W28654   8.181  21.017   7.575 -0.2323  0.0440  0.2315
    1W        W28655  11.859   7.868   1.579 -0.0837  0.2149  0.3991
    1W        W28656   6.772  13.672   6.443  0.2640  0.1352  0.1461
    1W        W28657  25.820   4.342   3.053  0.0449 -0.0853  0.1507
    1W        W28658  21.533  14.071   7.582  0.1280 -0.0817 -0.2425
    1W        W28659   4.807   6.595   0.375  0.0204  0.2017  0.0551
    1W        W28660  28.877  23.646   3.442  0.0647 -0.2314  0.3249
    1W        W28661  21.386   1.279   2.067  0.1455 -0.0424 -0.4349
    1W        W28662  13.620   3.278   7.138 -0.0490  0.0293 -0.0688
    1W        W28663  12.060  17.497   8.282 -0.4351  0.0298 -0.1283
    1W        W28664  21.917  27.366   0.863  0.0659  0.1417 -0.0831
    1W        W28665   0.874   1.907   7.890 -0.0122  0.1628 -0.0853
    1W        W28666   2.010  21.367   7.921 -0.1308 -0.1478  0.1632
    1W        W28667  27.821   1.006   4.303 -0.5083  0.2963  0.1064
    1W        W28668   7.027   5.009   2.314 -0.2516  0.0180 -0.1845
    1W        W28669  28.636  14.695   8.258 -0.0772  0.2225 -0.0063
    1W        W28670  26.889   3.972   8.876  0.2529  0.1523 -0.0060
    1W        W28671   1.252   3.703   2.017  0.0620 -0.1901 -0.0463
    1W        W28672  28.565   5.735   1.231 -0.0309  0.0669  0.0414
    1W        W28673   9.862  25.114   0.981 -0.0163 -0.2378 -0.0360
    1W        W28674   3.935   4.526   1.070  0.1876  0.2251  0.0381
    1W        W28675  27.188  21.470   8.726  0.0199 -0.1675  0.1452
    1W        W28676   9.130  15.571   1.835  0.2523 -0.2674 -0.1903
    1W        W28677   4.459  13.632   1.395 -0.0387 -0.0008  0.2496
    1W        W28678  23.085   4.737   6.781  0.2399  0.3329  0.0729
    1W        W28679  25.122   5.271   0.196  0.1467  0.0193  0.1209
    1W        W28680  21.909   9.207   7.391 -0.3808 -0.2005  0.2694
    1W        W28681  24.917  15.894   0.724  0.1080  0.0855 -0.0175
    1W        W28682  10.211  12.737   6.297 -0.2750 -0.1217 -0.1878
    1W        W28683  16.884  14.935   6.339  0.0819 -0.0858  0.1734
    1W        W28684   6.408  16.864   2.223  0.0400  0.3417 -0.2669
    1W        W28685  13.614   8.562   6.208  0.0219  0.0713  0.2882
    1W        W28686  13.697  10.090   7.300  0.0872 -0.4849 -0.0635
    1W        W28687   0.189  12.723   1.589  0.3977 -0.2160  0.1761
    1W        W28688  22.612  18.025   7.401  0.0879  0.1989  0.1491
    1W        W28689   4.687  12.587   8.599 -0.0373 -0.1120 -0.3441
    1W        W28690  20.301  15.917   0.866  0.1530 -0.2890 -0.1661
    1W        W28691  19.023  18.256   1.309 -0.2184 -0.2537 -0.0551
    1W        W28692   0.162   0.107   9.646  0.1335 -0.0652 -0.4785
    1W        W28693  13.434  14.450   8.112  0.1408 -0.2958 -0.1650
    1W        W28694  11.130  20.668   2.001  0.1043  0.0364  0.4671
    1W        W28695  17.469  18.935   7.370  0.1878 -0.2108 -0.2991
    1W        W28696  14.853  25.068   1.448  0.2555 -0.0306 -0.1679
    1W        W28697  14.637   3.569   0.409  0.1562 -0.2038 -0.1076
    1W        W28698   7.474  23.076   0.868 -0.2374 -0.2567 -0.1178
    1W        W28699  28.517  20.978   9.474 -0.0297  0.3099 -0.1500
    1W        W28700  24.942  27.198   8.643 -0.2381 -0.2414  0.2374
    1W        W28701   0.170  14.804   9.305  0.2405 -0.1514  0.2448
    1W        W28702  26.955  13.367   9.658 -0.1080 -0.0740 -0.0406
    1W        W28703  15.933   3.570   1.488  0.0536 -0.1188  0.2393
    1W        W28704  18.654  12.821   9.102  0.1545 -0.0352 -0.1078
    1W        W28705  10.674  12.011   7.203 -0.0179  0.1419  0.1326
    1W        W28706  21.117   5.323   7.620 -0.4033 -0.0011 -0.1048
    1W        W28707  17.495  18.333   9.254 -0.0734  0.1174 -0.1437
    1W        W28708  15.747  26.450   0.818  0.3111 -0.2943 -0.1815
    1W        W28709   0.643  26.800   1.078  0.1706 -0.2078  0.0180
    1W        W28710   2.495   0.282   1.775 -0.1940  0.1399  0.2035
    1W        W28711   3.140  13.092   1.495 -0.0673 -0.2672 -0.1654
    1W        W28712  11.643  15.678   7.178 -0.0279  0.2119 -0.0706
    1W        W28713  17.000  13.088   1.773  0.5686  0.1878  0.0212
    1W        W28714  12.849  21.009   0.058 -0.0309  0.2119 -0.1595
    1W        W28715   1.480   6.662   2.842  0.1433  0.0848  0.1071
    1W        W28716  21.580  10.387   7.204 -0.1951  0.0454  0.2840
    1W        W28717   8.932   7.079   0.822  0.2251 -0.0536  0.0552
    1W        W28718   6.292  24.191   9.544 -0.0870  0.1065  0.1576
    1W        W28719  22.853   1.211   9.742  0.1236  0.1366 -0.1557
    1W        W28720  18.304  23.377   9.713  0.1237 -0.1717  0.0416
    1W        W28721  10.964  22.420   0.738 -0.5748 -0.3714 -0.2709
    1W        W28722   2.091  24.269   9.841  0.6095  0.3084 -0.0713
    1W        W28723  15.386  12.221   8.329 -0.0048  0.2077 -0.4581
    1W        W28724  22.739  13.784   1.566  0.1800  0.0341  0.0532
    1W        W28725  12.320  26.789   1.294 -0.4025  0.2860  0.0529
    1W        W28726  14.415  22.611   2.849 -0.0363  0.1981 -0.1065
    1W        W28727   9.745  22.541   1.326  0.0948  0.2814  0.0331
    1W        W28728  18.331   5.477   7.053  0.2184  0.2363 -0.1362
    1W        W28729   2.564  23.062   1.596 -0.2301 -0.2277  0.0368
    1W        W28730   1.260  25.029   0.641  0.2430  0.0214 -0.2931
    1W        W28731   9.049  10.590   7.170 -0.1705  0.0226 -0.1933
    1W        W28732   9.267  22.999   9.037 -0.2032  0.1818 -0.1469
    1W        W28733   3.156  23.271   8.096  0.4130 -0.2150  0.0170
    1W        W28734   1.228  12.087   1.774  0.1756  0.1344 -0.1656
    1W        W28735   4.172   8.831   7.284  0.1999 -0.2061 -0.0557
    1W        W28736  25.940  20.044   9.639 -0.2785  0.0139 -0.2916
    1W        W28737   4.192  28.521   2.162 -0.0148 -0.3472  0.0240
    1W        W28738  16.494  26.684   7.174 -0.1109 -0.0029  0.2293
    1W        W28739  20.368   2.798   0.057  0.1705 -0.0183 -0.0510
    1W        W28740  19.241  28.134   7.595 -0.0179 -0.0803  0.1751
    1W        W28741  27.280  20.164   9.483 -0.1153  0.3551 -0.1867
    1W        W28742  25.409  21.144   3.259 -0.0767  0.0958  0.3884
    1W        W28743  11.613  18.335   0.705 -0.0015  0.0727 -0.0691
    1W        W28744   4.732  20.458   0.793  0.1672  0.0817  0.0663
    1W        W28745  16.214  22.576   8.279 -0.0385  0.1351 -0.1915
    1W        W28746   3.958   0.630   2.446 -0.3204  0.2264 -0.0790
    1W        W28747  12.639  13.052   1.615 -0.1058 -0.1119 -0.0227
    1W        W28748  23.128  17.621   9.565  0.2189 -0.1065  0.0761
    1W        W28749  12.882  15.337   0.817  0.0425 -0.5086 -0.1917
    1W        W28750  24.161  21.486   0.196  0.1212 -0.0733  0.0566
    1W        W28751  22.697  24.013   2.354 -0.1081 -0.0637 -0.0829
    1W        W28752   2.007   6.436   3.160  0.0461 -0.0748  0.1367
    1W        W28753  19.763  28.088   8.930  0.1604  0.1305 -0.0133
    1W        W28754  17.037   9.352   6.404 -0.1309  0.0696  0.1369
    1W        W28755  21.576  18.241   7.154 -0.0713 -0.1611  0.4166
    1W        W28756   4.001  20.976   7.376  0.0360  0.2125  0.0714
    1W        W28757  19.624  11.305   1.190 -0.0455  0.0784  0.0431
    1W        W28758   4.477   0.114   8.862  0.2379  0.2918 -0.0810
    1W        W28759  14.296   7.226   7.787 -0.0974  0.1209 -0.0136
    1W        W28760   9.339   0.633   2.886 -0.0559 -0.0318  0.1368
    1W        W28761  21.256  13.703   9.524  0.4641 -0.0579  0.3546
    1W        W28762  28.816   1.419   2.611 -0.3366  0.0581  0.1590
    1W        W28763   4.674  18.269   1.467 -0.2265  0.2932  0.1198
    1W        W28764   2.966  12.954   8.008  0.0435  0.1705  0.1110
    1W        W28765  23.527   9.387   0.314  0.0943 -0.1542  0.1382
    1W        W28766   2.423  22.835   9.236 -0.0441  0.1926 -0.3459
    1W        W28767  23.795  14.213   0.496  0.0737 -0.0575 -0.2254
    1W        W28768  24.547   4.941   9.602 -0.3437  0.1432 -0.1067
    1W        W28769   2.626  26.985   0.479 -0.0416  0.0974  0.2691
    1W        W28770   0.035   4.774   4.364  0.1066  0.2756  0.3208
    1W        W28771   7.417   2.327   2.006  0.3143  0.2493  0.0474
    1W        W28772   4.818   5.923   7.783  0.0361  0.1051 -0.0350
    1W        W28773  24.602   4.135   8.504  0.1039 -0.1105 -0.0403
    1W        W28774  23.218   1.483   7.886 -0.1328 -0.0612 -0.1568
    1W        W28775   4.498  16.490   7.742 -0.1211 -0.4087 -0.0474
    1W        W28776  14.824   9.149   9.966  0.0465  0.0128  0.0335
    1W        W28777  19.856  20.421   0.160 -0.2517  0.5656  0.1003
    1W        W28778   6.425  22.819   8.898 -0.3273  0.0082  0.0127
    1W        W28779  24.703   7.623   8.866 -0.0364 -0.0618 -0.3770
    1W        W28780  27.436  16.437   0.306  0.1164  0.2763  0.0997
    1W        W28781   2.135  22.817   7.429 -0.3497 -0.3392  0.2324
    1W        W28782  19.964  22.808   6.295 -0.1960 -0.0256  0.2451
    1W        W28783  21.770  26.267   1.155  0.1677  0.0027 -0.1098
    1W        W28784   0.415  15.462   8.461 -0.1633  0.1275  0.1663
    1W        W28785   6.495  24.643   2.035 -0.1473 -0.2354  0.1255
    1W        W28786  24.815  10.448   1.508 -0.3066 -0.2917 -0.0319
    1W        W28787   9.771  28.493   9.698  0.1924 -0.1101  0.1851
    1W        W28788   4.140  26.185   2.824 -0.2910  0.3038 -0.0444
    1W        W28789  12.652  15.186   1.627  0.2172 -0.0463  0.0026
    1W        W28790  19.259  22.407   7.586  0.1332 -0.1029 -0.0608
    1W        W28791  20.761  27.902   0.365  0.1175  0.1042  0.0108
    1W        W28792   0.471  14.751   2.255  0.0513  0.5680  0.2003
    1W        W28793  25.824  22.215   9.346  0.5208  0.0312 -0.2796
    1W        W28794  27.077  21.347   4.100  0.0968  0.0079 -0.0459
    1W        W28795  15.647   5.214   1.537 -0.0816 -0.2809  0.1673
    1W        W28796  12.677   3.457   6.935  0.0418  0.1785 -0.1352
    1W        W28797  21.541  13.718   0.934  0.0644 -0.0428 -0.0163
    1W        W28798  16.860  12.250   9.905  0.0512 -0.1850  0.0194
    1W        W28799  26.786  12.597   0.511  0.0001  0.2384 -0.0904
    1W        W28800  11.355   4.627   0.472  0.1108 -0.2487  0.3525
    1W        W28801   0.743  28.745   0.397 -0.2872 -0.1247  0.2345
    1W        W28802  22.356   7.824   0.956  0.3033  0.1650 -0.0294
    1W        W28803  12.499  15.318   0.485 -0.0610  0.3513 -0.1832
    1W        W28804   7.170  11.102   0.950 -0.0941 -0.0589 -0.1330
    1W        W28805   5.032  17.821   7.776  0.3124  0.0518  0.0130
    1W        W28806  15.489  24.176   1.417 -0.0951  0.2082  0.2048
    1W        W28807  25.889  19.011   8.664 -0.0781 -0.2296  0.1766
    1W        W28808   2.397  14.607   2.550  0.0441  0.2437  0.2555
    1W        W28809   6.701   5.377   9.186  0.1381  0.2328 -0.1074
    1W        W28810  17.779   0.375   2.343  0.0021 -0.0354 -0.1728
    1W        W28811  16.708  24.082   8.761  0.1952 -0.3299 -0.1047
    1W        W28812  23.281   4.832   0.556 -0.0072 -0.1037 -0.0721
    1W        W28813   8.005  10.868   2.438 -0.0734 -0.1947  0.0753
    1W        W28814  27.953  12.239   2.844 -0.0877 -0.0605  0.1444
    1W        W28815   8.702   0.397   9.728  0.1524  0.3309  0.1285
    1W        W28816  23.390  24.446   0.943 -0.3504 -0.2489 -0.1781
    1W        W28817  11.529   7.752   2.059 -0.0552 -0.0393 -0.0044
    1W        W28818  28.280  23.132   7.865  0.2802  0.2262  0.0520
    1W        W28819   7.401   7.889   2.254  0.0160  0.4267 -0.1643
    1W        W28820  14.991   1.064   7.082 -0.1758 -0.0005 -0.1685
    1W        W28821  16.197   6.537   1.854  0.1007  0.1904 -0.0009
    1W        W28822  17.980   8.912   9.155 -0.2574 -0.3620  0.0943
    1W        W28823  10.332   9.563   6.368  0.0334 -0.3571  0.1463
    1W        W28824  14.357  14.072   8.180 -0.0032 -0.0270  0.2729
    1W        W28825   0.416  24.967   0.590  0.1989 -0.0087  0.2880
    1W        W28826  20.801  18.921   2.257  0.4155  0.3586  0.2354
    1W        W28827  27.805  21.403   2.063 -0.1715  0.2185 -0.1074
    1W        W28828  15.089  14.706   1.752  0.0979 -0.2190  0.1513
    1W        W28829  16.245  16.911   0.749  0.0370  0.3682 -0.0797
    1W        W28830   5.052  22.573   0.373  0.0067  0.1192  0.1786
    1W        W28831  21.704  16.990   6.489 -0.3729  0.0231 -0.4417
    1W        W28832   8.143  21.691   7.064 -0.1101 -0.1607 -0.1884
    1W        W28833  13.601  13.581   6.672 -0.1673 -0.0363  0.7349
    1W        W28834  22.745   1.203   8.739 -0.5114  0.3389  0.0006
    1W        W28835   6.797  16.133   8.389  0.0145 -0.0738 -0.0517
    1W        W28836  16.137   9.822   9.685 -0.2616 -0.4322  0.1495
    1W        W28837  28.117   8.552   0.057  0.0973  0.1480 -0.1444
    1W        W28838   3.450  12.108   7.302  0.1040 -0.2460 -0.1808
    1W        W28839  27.577  20.119   2.290  0.0315 -0.3330  0.1980
    1W        W28840   1.921   9.427   2.968 -0.0085 -0.1817  0.3366
    1W        W28841  26.257  18.090   8.541 -0.0860  0.0738  0.0939
    1W        W28842   0.962   6.136   1.819 -0.1751  0.3401 -0.2582
    1W        W28843  23.717  26.171   1.285  0.0275 -0.0915  0.3339
    1W        W28844  15.329  23.780   8.289 -0.1785 -0.0430  0.3202
    1W        W28845  24.287  25.605   1.394 -0.2701 -0.1094  0.1950
    1W        W28846  17.269  14.322   1.064 -0.1355  0.0856  0.0398
    1W        W28847  11.638  25.427   2.583 -0.1648  0.1106 -0.0458
    1W        W28848   3.542  16.356   1.893  0.1971 -0.1258  0.1881
    1W        W28849  12.479  25.305   2.480  0.0661  0.1505  0.0453
    1W        W28850  20.279  20.745   1.495 -0.0264 -0.1886  0.2866
    1W        W28851  15.464   3.901   8.713  0.0290 -0.2848  0.0708
    1W        W28852   1.417  22.407   9.187  0.2139  0.1139 -0.0343
    1W        W28853  14.105  22.241   2.865  0.2494 -0.1476  0.3062
    1W        W28854   1.687   7.457   2.312 -0.0396  0.1412  0.0886
    1W        W28855  17.401  17.013   7.702 -0.0810 -0.0614 -0.2066
    1W        W28856  25.966  20.672   7.487 -0.0777 -0.0041 -0.1694
    1W        W28857  21.464  20.356   0.880 -0.1504 -0.2501 -0.1545
    1W        W28858   3.408   6.824   1.380 -0.0228  0.0656  0.0350
    1W        W28859  20.008  22.656   2.591 -0.0105  0.0328 -0.2170
    1W        W28860   8.250  11.351   7.193 -0.0631  0.0254  0.0403
    1W        W28861   3.033   6.821   3.302 -0.2443  0.0856 -0.0299
    1W        W28862  20.822  13.994   8.683  0.2382 -0.2845  0.0259
    1W        W28863  19.706  12.630   1.988 -0.0460  0.2196  0.0726
    1W        W28864   1.198  24.799   1.601 -0.3060  0.0966 -0.3171
    1W        W28865  13.609  21.365   1.150  0.0581 -0.0891  0.1088
    1W        W28866  13.781  28.569   8.284 -0.0131  0.2634  0.2063
    1W        W28867  11.547  17.266   8.507 -0.0220  0.0684  0.1411
    1W        W28868  10.410  26.830   1.489  0.1527  0.1880 -0.0486
    1W        W28869  24.028  25.597   1.842 -0.0432 -0.0077  0.1899
    1W        W28870  27.902  16.806   2.508  0.2922 -0.3113  0.4618
    1W        W28871  11.397  14.543   6.938  0.1537  0.1695 -0.1802
    1W        W28872   6.637   7.493   1.740 -0.1217  0.1249 -0.0889
    1W        W28873  14.141   2.931   9.056 -0.1574  0.2414  0.0592
    1W        W28874   3.233  22.683   1.869  0.1807  0.2799 -0.1410
    1W        W28875   8.375   9.675   7.397  0.0372 -0.0715 -0.1256
    1W        W28876  19.553  16.882   9.741  0.2412  0.1022  0.0476
    1W        W28877  19.238  18.409   5.639  0.1316 -0.0513  0.1048
    1W        W28878  28.650  25.019   0.093  0.2873  0.0528  0.2249
    1W        W28879  16.364   2.056   7.859 -0.0185  0.2200 -0.0188
    1W        W28880  27.505   2.888   2.110  0.1793  0.0792  0.0273
    1W        W28881   8.792  12.570   6.536 -0.2919  0.1659 -0.1141
    1W        W28882   3.964  21.221   3.448 -0.0732 -0.1114 -0.0455
    1W        W28883   6.643   1.866   9.477 -0.0597 -0.1820 -0.1698
    1W        W28884  11.785   3.765   9.082 -0.0463 -0.1152 -0.0992
    1W        W28885   8.515  18.842   8.077  0.1065 -0.4790 -0.0018
    1W        W28886  18.458   5.334   6.501 -0.1588  0.1668 -0.2398
    1W        W28887  17.084   2.086   1.146  0.0471  0.3230 -0.0992
    1W        W28888  23.935  21.951   2.357 -0.0095  0.0295 -0.4620
    1W        W28889  23.774   3.671   8.560  0.1363  0.0540 -0.0566
    1W        W28890  21.137   5.550   8.833 -0.3647  0.1934 -0.2696
    1W        W28891  20.872  14.621   6.569 -0.1760  0.0916 -0.2130
    1W        W28892   6.647  17.217   8.416 -0.0265 -0.0493  0.0087
    1W        W28893   6.957  18.812   7.103  0.1665  0.2086 -0.1830
    1W        W28894  16.002   6.045   1.980  0.0045 -0.0272 -0.2411
    1W        W28895   8.856  21.723   8.521  0.1238 -0.2484  0.1362
    1W        W28896  15.238   6.752   5.787  0.0533  0.1057  0.1300
    1W        W28897   8.456  23.268   1.271 -0.2305 -0.2287  0.1257
    1W        W28898  13.320   2.590   0.149  0.0879 -0.1071  0.3606
    1W        W28899   6.672   1.139   1.310 -0.0784 -0.0070 -0.0168
    1W        W28900  15.001  15.579   9.650 -0.0966  0.0421  0.2327
    1W        W28901  23.609  18.622   0.598  0.1406 -0.1066 -0.2007
    1W        W28902  26.945  11.394   0.516 -0.0998 -0.0446 -0.0099
    1W        W28903  20.047   3.857   2.440  0.2329  0.0278 -0.1159
    1W        W28904  10.139   2.115   7.911  0.2099  0.1360 -0.0033
    1W        W28905  21.462  21.631   2.201 -0.0376  0.1277  0.2638
    1W        W28906  13.165  25.788   9.133 -0.1224 -0.0486 -0.1038
    1W        W28907   6.333   1.166   2.502 -0.1551 -0.2419 -0.3138
    1W        W28908  26.529   2.679   2.396  0.2787 -0.1510  0.0094
    1W        W28909   6.102  19.310   8.780 -0.0894 -0.1838  0.2767
    1W        W28910  19.443   0.917   0.062  0.1332  0.0214  0.1417
    1W        W28911   0.675   5.958   9.789 -0.0095 -0.0205 -0.0651
    1W        W28912  20.259  11.581   7.635 -0.3077 -0.1100  0.3336
    1W        W28913   0.556   8.468   8.763 -0.0539 -0.2411 -0.0862
    1W        W28914   4.196  27.237   1.822  0.1205 -0.1852 -0.2077
    1W        W28915   6.841  28.437   0.069 -0.1017 -0.0899  0.0949
    1W        W28916   5.951  12.283   7.872 -0.0450  0.0763  0.1403
    1W        W28917  21.826  24.753   1.442 -0.0446  0.0554 -0.3825
    1W        W28918  23.729  19.664   1.920  0.0791  0.1161 -0.0042
    1W        W28919   7.173   2.784   2.033 -0.2927  0.0558  0.0980
    1W        W28920   6.836  15.080   0.500 -0.1508  0.1355 -0.1194
    1W        W28921  28.401   9.752   2.566 -0.0171 -0.1013 -0.1031
    1W        W28922   7.908  22.088   9.010 -0.1310 -0.2481  0.3037
    1W        W28923  10.708  25.317   8.178 -0.1064 -0.0727  0.0232
    1W        W28924  16.938  13.933   7.997 -0.1770 -0.0983  0.2348
    1W        W28925  23.800  26.350   9.715 -0.0745 -0.1046  0.0025
    1W        W28926   0.635  14.106   1.146 -0.0815 -0.0312 -0.2333
    1W        W28927   9.088  28.489   1.536  0.2658  0.0341 -0.0632
    1W        W28928  10.250  11.630   7.497 -0.1054 -0.0502 -0.2163
    1W        W28929  12.497  20.771   0.684 -0.2001  0.0828  0.0332
    1W        W28930  17.335  18.996   2.023 -0.1170 -0.1395  0.0152
    1W        W28931   6.669   2.606   3.053 -0.1166 -0.0318  0.1450
    1W        W28932  20.964  19.601   6.944 -0.0649 -0.0972  0.0113
    1W        W28933   7.166  25.676   9.385  0.1719  0.1800  0.5319
    1W        W28934  21.117  22.608   0.694  0.0053 -0.0942 -0.2430
    1W        W28935   8.885  21.612   0.576 -0.3146 -0.1259 -0.2397
    1W        W28936  15.185   8.044   1.150  0.2202  0.1261  0.1724
    1W        W28937  11.387  20.243   1.060 -0.0486  0.2624 -0.1714
    1W        W28938  18.797  23.465   2.156  0.1186 -0.2151 -0.0656
    1W        W28939   6.021   2.550   0.874 -0.0490 -0.1093 -0.0051
    1W        W28940  15.406   9.140   1.384 -0.0361  0.1363 -0.0597
    1W        W28941  20.903   4.790   0.090  0.0792  0.0155 -0.1505
    1W        W28942   9.851  17.350   1.657 -0.0154  0.0767 -0.0262
    1W        W28943  21.850   7.350   8.155  0.0500  0.3104 -0.0412
    1W        W28944  26.570  27.640   0.434  0.0405 -0.2836  0.3619
    1W        W28945   6.908  26.590   8.464  0.2687  0.1351 -0.2788
    1W        W28946  10.346  12.254   8.145 -0.1099 -0.0701  0.1994
    1W        W28947  11.126   1.238   7.313 -0.1163 -0.0314  0.2685
    1W        W28948   3.596   4.777   9.975  0.0602 -0.0149  0.3519
    1W        W28949   1.472   7.388   8.338  0.1714  0.0299  0.0623
    1W        W28950  12.057  15.531   9.919  0.0217  0.0095 -0.2871
    1W        W28951  23.132  18.088   0.309 -0.0771 -0.1143  0.0195
    1W        W28952  16.892  22.745   3.230  0.2583  0.1034 -0.1215
    1W        W28953   1.175   6.978   3.096 -0.0268 -0.0335 -0.3382
    1W        W28954  26.105   1.751   3.255 -0.0022 -0.1802  0.1883
    1W        W28955  18.306  17.179   9.481  0.0077 -0.1449 -0.2745
    1W        W28956  13.030  16.337   9.263  0.0692  0.0523 -0.3091
    1W        W28957  10.897  20.467   8.731 -0.0353  0.1383 -0.0889
    1W        W28958  17.928  10.869   8.804 -0.2641 -0.1028  0.1334
    1W        W28959  12.860  19.263   2.110 -0.3932  0.2384 -0.1062
    1W        W28960   0.943  15.503   8.377 -0.1065 -0.1343  0.1617
    1W        W28961  19.609  11.781   1.382  0.0537  0.0529 -0.2377
    1W        W28962   7.666  26.822   2.818  0.1542  0.1660  0.0759
    1W        W28963  28.059  15.111   9.031 -0.1196 -0.0724  0.0902
    1W        W28964  16.927   9.394   6.933 -0.0060 -0.2096 -0.2117
    1W        W28965  28.478  16.415   7.566  0.0048  0.2545  0.3720
    1W        W28966   5.775  14.906   8.489 -0.1034 -0.3224  0.1089
    1W        W28967   1.449   7.943   0.548  0.2974 -0.1100  0.0745
    1W        W28968  12.696   0.602   0.652 -0.3104  0.1966  0.1058
    1W        W28969   7.652  17.379   7.660 -0.4285  0.0948 -0.1173
    1W        W28970  25.939  16.762   0.257  0.0650 -0.0212 -0.3944
    1W        W28971  18.291  14.415   6.109 -0.2230 -0.3252 -0.3842
    1W        W28972  27.590  19.083   8.849 -0.0490 -0.0975 -0.0498
    1W        W28973  25.648   5.596   2.488 -0.0212  0.0776 -0.0986
    1W        W28974   3.771   4.067   8.462 -0.1454  0.1037 -0.1648
    1W        W28975  14.109  14.619   6.855  0.1369 -0.1590 -0.0863
    1W        W28976  26.155  13.672   7.518  0.0558  0.0610 -0.0582
    1W        W28977  23.809  23.093   3.883  0.0520  0.0693 -0.3938
    1W        W28978  24.768   4.233   8.968 -0.1526 -0.2051  0.0993
    1W        W28979   4.414  12.035   9.561  0.0836 -0.0755  0.1578
    1W        W28980  24.792  14.469   1.027 -0.4608 -0.0309  0.2519
    1W        W28981  14.206  28.507   0.747  0.0936 -0.0450  0.1503
    1W        W28982  27.788  25.028   9.439 -0.1725 -0.2027 -0.0623
    1W        W28983  28.065   0.023   0.459  0.2644 -0.1779 -0.0969
    1W        W28984  28.839  25.005   9.584  0.0079  0.2358 -0.1035
    1W        W28985  28.157  16.964   0.977  0.1404 -0.2145  0.1508
    1W        W28986   7.363  26.325   7.307  0.0417 -0.1418  0.1944
    1W        W28987   9.761  26.009   2.750  0.1598 -0.1840 -0.2700
    1W        W28988  23.067  10.111   9.898 -0.1593 -0.1227  0.0466
    1W        W28989  17.993  13.870   9.533 -0.0781 -0.0421  0.3255
    1W        W28990  10.824  18.539   7.026 -0.0267  0.1186 -0.1516
    1W        W28991  21.615   7.058   7.435  0.2141  0.0164  0.0760
    1W        W28992   0.800  18.517   9.309 -0.2690 -0.1776  0.4049
    1W        W28993   5.841   2.469   8.390 -0.2753  0.1722  0.1535
    1W        W28994  22.972  24.481   2.327  0.1676 -0.3030 -0.1302
    1W        W28995  17.192   8.795   7.317 -0.0630 -0.1440 -0.0096
    1W        W28996   1.167   3.503   1.568  0.1035 -0.1753  0.0511
    1W        W28997   3.301   1.027   2.751  0.1465  0.1331 -0.0725
    1W        W28998   8.102   4.815   3.464 -0.4435  0.0169 -0.2137
    1W        W28999  17.450  10.403   7.169 -0.3001 -0.1967  0.0772
    1W        W29000   6.706  26.083   8.453  0.2427  0.1139 -0.4624
    1W        W29001  11.868   5.600   6.971  0.0074 -0.1896 -0.0173
    1W        W29002   6.484   6.801   1.510  0.0913  0.2500  0.1953
    1W        W29003  27.246  17.746   1.646  0.0908  0.3723 -0.0104
    1W        W29004  27.581  13.380   7.119 -0.1948  0.2035 -0.3311
    1W        W29005   0.083  25.889   0.358 -0.1769  0.0201  0.0889
    1W        W29006   7.706   1.591   0.939  0.2065 -0.0310 -0.0503
    1W        W29007   1.420  10.355   0.061 -0.2265  0.1913  0.0290
    1W        W29008  23.950  17.560   2.396  0.2535 -0.5369  0.0517
    1W        W29009   3.453  22.563   7.316  0.0313 -0.0922  0.1448
    1W        W29010  11.094  17.913   9.230 -0.0444 -0.0612 -0.2341
    1W        W29011  24.211  28.749   1.308 -0.0099  0.0599 -0.0164
    1W        W29012  15.536  18.861   0.690  0.2028  0.0013 -0.1490
    1W        W29013   0.237   6.048   0.022 -0.0114 -0.0099  0.0911
    1W        W29014  26.337   4.654   9.181  0.0233  0.0767 -0.1612
    1W        W29015  20.373   5.440   0.434 -0.2731 -0.2159  0.0046
    1W        W29016   3.745  16.364   1.366 -0.1206 -0.0482 -0.0583
    1W        W29017   5.846   9.131   7.057  0.0942  0.1557 -0.1542
    1W        W29018  20.109  10.009   6.968 -0.2485 -0.0633 -0.0139
    1W        W29019  12.049  15.636   7.564  0.2112  0.0147  0.2346
    1W        W29020  26.031  28.577   2.899 -0.0345  0.0158 -0.1758
    1W        W29021   6.406   8.074   9.056 -0.1524 -0.0835 -0.1919
    1W        W29022  24.546  16.559   7.828 -0.3167 -0.0403  0.1520
    1W        W29023   5.052  26.550   1.017 -0.0518  0.0058 -0.0666
    1W        W29024  23.190  10.432   0.448  0.0871  0.0290  0.2226
    1W        W29025  22.005  12.855   8.197 -0.0013 -0.2899 -0.0659
    1W        W29026  25.141  11.304   8.567 -0.0435  0.1386 -0.1151
    1W        W29027   7.632   7.408   9.878 -0.0302  0.0808 -0.1866
    1W        W29028  12.694  11.786   8.245 -0.1840 -0.0120 -0.2052
    1W        W29029  24.539  20.943   9.367 -0.0636  0.1549 -0.2391
    1W        W29030  19.178   5.109   6.552  0.1178  0.3596  0.2740
    1W        W29031  22.995  22.139   2.173  0.0009  0.0012  0.1688
    1W        W29032  18.835  15.796   0.487 -0.1138  0.2375  0.1174
    1W        W29033  15.595   9.857   8.342 -0.1534 -0.1957 -0.0753
    1W        W29034   6.238   7.993   2.011 -0.0077  0.3653 -0.2937
    1W        W29035  25.027  23.327   8.178 -0.2061 -0.3976 -0.4014
    1W        W29036  21.362  18.845   0.247  0.0260 -0.0248  0.1576
    1W        W29037  10.897  12.962   1.898  0.0348  0.0588 -0.0348
    1W        W29038   8.387  24.154   3.138 -0.0925 -0.0733 -0.0707
    1W        W29039  11.113   8.154   6.592 -0.2509  0.1665 -0.1440
    1W        W29040   5.256  13.127   8.084 -0.1440 -0.0302 -0.0277
    1W        W29041  18.438   0.483   0.829  0.1550 -0.2147 -0.1422
    1W        W29042  23.375   7.484   0.376  0.0024 -0.0784 -0.2349
    1W        W29043   5.734   2.831   2.892  0.2753 -0.0012 -0.0359
    1W        W29044  26.980  26.600   9.667  0.0316 -0.2234 -0.0548
    1W        W29045  20.832   6.221   7.820 -0.0764  0.4108 -0.0710
    1W        W29046  13.107   7.475   8.309  0.1185  0.1030  0.2537
    1W        W29047  28.724  27.711   8.528  0.0620 -0.1956 -0.0717
    1W        W29048   7.207   9.218   1.251 -0.0721  0.1122  0.1047
    1W        W29049   6.829  17.048   0.787 -0.1204 -0.0270  0.1104
    1W        W29050  16.026  15.875   7.490 -0.4324 -0.1206 -0.1487
    1W        W29051  10.041   2.950   2.338 -0.2049  0.0751  0.0926
    1W        W29052   0.465   8.878   0.034 -0.2456 -0.0033  0.0739
    1W        W29053   2.188   1.220   9.600 -0.2365  0.0973  0.0306
    1W        W29054   7.818  18.467   1.632  0.1497 -0.0888 -0.2343
    1W        W29055  12.727  17.995   9.077  0.1215  0.0788 -0.0147
    1W        W29056  14.104  13.740   1.357  0.0141  0.0455  0.1246
    1W        W29057  26.186  13.451   0.095  0.0557  0.1228  0.0724
    1W        W29058  21.940  11.438   7.975 -0.1443 -0.2526  0.1994
    1W        W29059  12.926  10.708   0.637 -0.2392  0.0885  0.0640
    1W        W29060  25.417  24.491   0.238  0.0681 -0.2477  0.1977
    1W        W29061   5.322  17.530   1.113 -0.0421 -0.0900 -0.1610
    1W        W29062   4.462   4.555   2.561  0.2059  0.0329 -0.3433
    1W        W29063  21.986  14.573   0.472 -0.2465  0.1209 -0.0381
    1W        W29064  19.704   3.642   7.901  0.1188 -0.1820 -0.0064
    1W        W29065   0.770  22.976   2.338  0.0137  0.0317  0.0296
    1W        W29066   4.343  18.333   2.399 -0.1302 -0.0917 -0.0846
    1W        W29067  26.002   7.643   1.557  0.0033  0.3397  0.1335
    1W        W29068  26.883  28.202   9.434 -0.0574  0.3917 -0.2118
    1W        W29069  20.394  23.930   9.653 -0.2654 -0.2571  0.0827
    1W        W29070  23.617   7.816   9.380  0.0347  0.2168 -0.2348
    1W        W29071   7.771  13.272   9.528  0.0141  0.0443 -0.1094
    1W        W29072   9.950  16.977   2.087  0.0283  0.1486  0.0071
    1W        W29073   5.371   8.261   1.407  0.2772  0.0255 -0.2640
    1W        W29074   4.864   7.849   1.233  0.1060  0.0560  0.0052
    1W        W29075  12.602   1.084   0.001  0.2330 -0.1191  0.0826
    1W        W29076  19.427   2.748   9.035 -0.1278  0.1089  0.0538
    1W        W29077  25.205   1.531   1.021  0.5167  0.0357 -0.0801
    1W        W29078  10.528  10.079   6.225 -0.0559 -0.1643  0.1679
    1W        W29079  14.062  23.767   9.975  0.1304  0.0762 -0.3525
    1W        W29080  24.153  27.420   7.560 -0.2860 -0.0342  0.1675
    1W        W29081  14.852  25.944   1.366 -0.3091 -0.1117  0.1262
    1W        W29082  18.187   1.319   0.383 -0.2447  0.3819  0.1087
    1W        W29083   9.670   7.215   7.422 -0.3101  0.0735  0.2038
    1W        W29084  24.149   1.711   2.509 -0.2419 -0.0531 -0.0401
    1W        W29085  26.923   7.341   1.769  0.3560  0.0042 -0.3751
    1W        W29086   7.609  13.432   1.285  0.0815  0.1056 -0.1927
    1W        W29087  23.553  20.999   8.481 -0.3421 -0.0308  0.0034
    1W        W29088   2.078  18.835   7.996 -0.0649 -0.1145  0.0895
    1W        W29089  28.055  27.469   8.897  0.0512  0.0497  0.1201
    1W        W29090   0.309  20.887   7.592 -0.0228 -0.4668 -0.1409
    1W        W29091  17.447   5.506   8.049  0.1062  0.4249 -0.1178
    1W        W29092  28.163   6.544   3.074  0.3822 -0.0793 -0.1676
    1W        W29093   5.085   6.929   3.028 -0.1294  0.1028  0.1232
    1W        W29094  10.276  14.159   9.518  0.1117  0.0489 -0.2081
    1W        W29095  10.043  15.886   9.084  0.0251  0.0768  0.0121
    1W        W29096   4.609  17.582   7.908  0.2133  0.0652  0.2566
    1W        W29097  11.380  15.156   8.187  0.0240 -0.0188 -0.5654
    1W        W29098  24.898  17.954   8.126  0.1531  0.1161  0.0433
    1W        W29099  25.723   6.914   9.973  0.4549 -0.0568  0.1544
    1W        W29100  13.962   5.917   9.504 -0.3254 -0.1690 -0.1291
    1W        W29101   8.755  17.608   0.879  0.1756  0.2601  0.0414
    1W        W29102  12.533  26.162   9.349  0.1735  0.0492 -0.3422
    1W        W29103   4.296   9.522   0.797 -0.1649  0.0191  0.3482
    1W        W29104   3.144  27.901   1.534 -0.0879  0.2775  0.1753
    1W        W29105  19.120   1.209   0.764 -0.3609 -0.0085  0.1236
    1W        W29106  21.956   5.645   8.583  0.0485 -0.2194  0.1462
    1W        W29107   9.581   4.871   7.210 -0.1373  0.1802  0.1191
    1W        W29108  26.278  19.434   9.920  0.1547  0.1433  0.0188
    1W        W29109   8.859  10.326   2.467  0.2770 -0.1617  0.1536
    1W        W29110  15.419  10.933   0.512 -0.2132 -0.0231 -0.0703
    1W        W29111  25.640  23.740   1.202  0.2050 -0.0428  0.1467
    1W        W29112  21.950  14.317   7.921 -0.3310 -0.2010  0.0459
    1W        W29113   4.505  15.476   7.903 -0.0402 -0.2876  0.1275
    1W        W29114  20.365  16.659   0.173  0.1382 -0.2092  0.0220
    1W        W29115   5.437  26.215   9.783  0.5554 -0.0202  0.0138
    1W        W29116  17.326  24.106   3.079  0.0068 -0.3038  0.1914
    1W        W29117   6.858  27.384   6.769  0.1521  0.0855  0.0285
    1W        W29118   4.638  26.368   0.495  0.0686 -0.1221  0.3298
    1W        W29119  22.916  11.137   1.143 -0.0224 -0.3466  0.0114
    1W        W29120   8.457  14.032   2.177  0.1073 -0.2321 -0.2684
    1W        W29121  15.604  16.057   2.612  0.0640  0.1006  0.0135
    1W        W29122  13.850  23.393   3.405  0.1457 -0.0730 -0.0040
    1W        W29123   6.062  17.534   8.037 -0.1029 -0.0912  0.1076
    1W        W29124   1.399  16.502   2.976 -0.1807 -0.2536 -0.0854
    1W        W29125  24.909  17.703   2.110  0.0841  0.0843  0.1609
    1W        W29126   3.694  13.818   9.454 -0.4011  0.2969 -0.0778
    1W        W29127   7.805  14.762   0.729 -0.0580 -0.0809  0.1662
    1W        W29128  21.184  11.303   1.856 -0.0021 -0.1363  0.1300
    1W        W29129   4.422  19.401   7.539 -0.2076 -0.0014  0.0969
    1W        W29130  20.263   5.027   8.645 -0.0886 -0.1502 -0.0916
    1W        W29131  10.422   6.252   1.959  0.1307  0.2926  0.2669
    1W        W29132   8.324  15.512   9.568  0.0002  0.0130  0.1618
    1W        W29133   8.982   7.508   9.406  0.1700  0.0104 -0.0087
    1W        W29134  12.662   6.477   6.164  0.0601 -0.2174 -0.0785
    1W        W29135  15.081  27.097   8.131  0.4007  0.1768 -0.1583
    1W        W29136  22.519  26.650   1.077 -0.0937 -0.1386 -0.0004
    1W        W29137  13.408  23.499   9.590 -0.2990 -0.0264  0.1669
    1W        W29138   0.969  26.215   9.139  0.1958 -0.3079  0.0381
    1W        W29139   9.529   9.722   0.007 -0.0226 -0.0634  0.1045
    1W        W29140   2.298  16.306   2.727 -0.1815 -0.0209  0.1693
    1W        W29141   5.512   9.107   2.229  0.1440 -0.4150  0.0168
    1W        W29142  18.970   4.420   9.148  0.0906  0.1491  0.1613
    1W        W29143   9.962  21.006   9.474  0.3575 -0.0468  0.0729
    1W        W29144  15.410  26.238   2.559  0.1848  0.0997 -0.3861
    1W        W29145  16.871  27.930   1.048 -0.0658 -0.2260  0.0637
    1W        W29146   0.623  28.077   0.615  0.1190 -0.2783 -0.2539
    1W        W29147  27.008  25.646   2.904  0.0934 -0.1876 -0.3475
    1W        W29148  11.046  19.559   6.846 -0.1572 -0.3921  0.1847
    1W        W29149  15.024   1.461   1.714 -0.2476  0.1453 -0.0768
    1W        W29150  25.489  25.887   8.527 -0.0705 -0.1545 -0.2936
    1W        W29151   1.060  24.817   8.045 -0.0048  0.1005  0.0571
    1W        W29152  19.969  28.547   9.128 -0.0953  0.0094  0.2652
    1W        W29153  19.091   3.022   8.871  0.4020 -0.2248 -0.0407
    1W        W29154   5.944  22.543   0.869 -0.1150  0.1995 -0.1148
    1W        W29155   9.243  11.886   7.314  0.0104 -0.1862 -0.2091
    1W        W29156  17.904  10.386   8.497  0.0789 -0.2654  0.3088
    1W        W29157  22.261   4.801   7.755 -0.1747 -0.0682  0.1884
    1W        W29158   3.334   5.049   9.031  0.0231  0.1607  0.0126
    1W        W29159  11.895  10.712   1.729  0.0511  0.1564  0.0699
    1W        W29160  16.995  13.438   2.556 -0.0461  0.1058 -0.2007
    1W        W29161  11.097  16.521   7.779  0.0829 -0.1780 -0.0288
    1W        W29162  23.142  11.891   7.974  0.2710 -0.1272  0.0208
    1W        W29163  11.010   9.806   0.194 -0.2876 -0.1922 -0.2008
    1W        W29164  10.091  26.440   9.204  0.0611  0.1589  0.0353
    1W        W29165  21.707  23.127   1.446 -0.1776  0.0062  0.1678
    1W        W29166  20.679  14.596   9.530  0.3067  0.0332 -0.2415
    1W        W29167  19.182   2.332   9.014  0.0351  0.1392  0.0361
    1W        W29168  20.040  24.199   6.802  0.0020  0.0888  0.1352
    1W        W29169  17.017   0.108   9.765  0.2213  0.0573 -0.1771
    1W        W29170  24.650  24.650   8.258  0.3250 -0.2209  0.0112
    1W        W29171  23.187  18.245   9.425 -0.1020 -0.0796 -0.3848
    1W        W29172  11.329  24.218   0.441  0.1530 -0.0311  0.0618
    1W        W29173   9.792  18.754   1.047 -0.0333  0.0062  0.1427
    1W        W29174  17.831  14.696   7.347 -0.1402  0.1101  0.3749
    1W        W29175  20.851   1.353   1.456 -0.1238  0.2490 -0.1457
    1W        W29176  15.622  19.618   6.905 -0.0643  0.1367  0.1262
    1W        W29177  11.287  28.010   9.655 -0.1674 -0.1515 -0.0662
    1W        W29178   1.346  28.505   2.863  0.0305  0.1493  0.2757
    1W        W29179  26.083  16.896   3.423  0.2220 -0.0412  0.3153
    1W        W29180  13.371  13.177   8.457  0.2197 -0.1197  0.1958
    1W        W29181  15.938  10.924   9.864 -0.1288 -0.1300 -0.0153
    1W        W29182  25.380  18.493   2.008 -0.2491  0.3767 -0.2055
    1W        W29183   6.134   8.379   1.695  0.0618 -0.0353  0.0555
    1W        W29184  20.624  10.749   0.055  0.0361  0.1470  0.2840
    1W        W29185  22.423   8.971   2.774  0.1393  0.3743  0.0023
    1W        W29186  27.345  13.760   8.800 -0.0421 -0.2226  0.0813
    1W        W29187  23.265  25.717   9.255 -0.0460  0.0916 -0.1145
    1W        W29188  17.062  13.623   6.833  0.2620 -0.4483  0.2503
    1W        W29189  23.097  18.413   3.052  0.0928  0.0483 -0.3553
    1W        W29190   2.521   8.004   6.905 -0.2157  0.0955  0.0787
    1W        W29191  16.354  16.669   1.180  0.0591 -0.0002  0.3078
    1W        W29192  17.067  15.550   0.387 -0.0328  0.0481  0.0019
    1W        W29193  12.885   6.894   5.816 -0.2641 -0.3717 -0.0745
    1W        W29194   8.210  10.502   7.454 -0.1930  0.0661  0.0390
    1W        W29195  11.994   0.429   8.501  0.1312 -0.3527  0.0352
    1W        W29196  20.355  16.647   7.903 -0.2228  0.1129  0.2996
    1W        W29197   2.198  26.698   0.517  0.0359 -0.0919 -0.1824
    1W        W29198  28.422   5.658   0.627  0.0007 -0.0214 -0.0398
    1W        W29199  20.445  16.291   9.360 -0.0107  0.0628  0.3954
    1W        W29200   5.302   9.033   8.882 -0.2752  0.0372  0.2644
    1W        W29201   7.670   1.802   9.138 -0.2342  0.2257 -0.0142
    1W        W29202   7.577  22.458   2.891  0.4160 -0.3345  0.0226
    1W        W29203   3.402  10.884   3.476  0.3185  0.0007  0.2137
    1W        W29204  28.380  11.872   9.864  0.0567  0.1296  0.0228
    1W        W29205  12.288  17.930   9.907 -0.1570  0.4694  0.0485
    1W        W29206  16.236  27.064   7.390  0.1238 -0.2645  0.0511
    1W        W29207  21.679  17.686   9.865  0.0725  0.2821 -0.1453
    1W        W29208   1.518   7.287   3.516 -0.1864  0.2495  0.1329
    1W        W29209   5.234   8.372   9.991 -0.0404 -0.0231  0.2000
    1W        W29210  14.953  24.681   1.156  0.3163 -0.0772 -0.1042
    1W        W29211  20.538  28.753   7.089 -0.2894 -0.1833  0.1447
    1W        W29212   3.910  21.729   3.227  0.2407 -0.0227  0.1772
    1W        W29213  20.916  19.918   6.038  0.3044  0.1145  0.0320
    1W        W29214  19.030  22.520   0.102 -0.0891 -0.0357  0.3589
    1W        W29215   1.368   4.434   8.939  0.2580  0.0253  0.0447
    1W        W29216  27.276  22.960   3.004 -0.0774  0.3376 -0.2828
    1W        W29217   2.822  22.846   8.271 -0.0664  0.0710 -0.3285
    1W        W29218  24.682  18.204   0.765  0.2028 -0.0059 -0.2584
    1W        W29219   6.104  26.216   9.724  0.1188 -0.1862 -0.0707
    1W        W29220   4.207  23.208   8.443 -0.0781 -0.2659 -0.0377
    1W        W29221  14.111  15.740   0.811 -0.2382  0.0107 -0.0551
    1W        W29222  20.420  17.899   2.648  0.2723  0.0242 -0.0246
    1W        W29223   9.988  12.223   1.525 -0.1245  0.1391 -0.0247
    1W        W29224  24.272   1.634   8.015 -0.0178 -0.0690 -0.0222
    1W        W29225  21.495   0.794   8.261  0.3394  0.2087  0.0907
    1W        W29226  19.480   4.747   8.209 -0.1808  0.0320 -0.0008
    1W        W29227   7.172  20.033   7.813  0.0055  0.1221  0.2500
    1W        W29228  28.482  16.201   0.813  0.0960 -0.0071  0.0823
    1W        W29229  20.015  17.565   2.771 -0.0020 -0.0690  0.4415
    1W        W29230  11.975   0.556   3.140 -0.0497 -0.2561 -0.2446
    1W        W29231  16.214   2.750   9.245 -0.1598  0.0700  0.0096
    1W        W29232  26.834  17.384   1.485 -0.0889 -0.2446  0.3185
    1W        W29233  10.144  28.214   6.960 -0.1376 -0.0468 -0.0703
    1W        W29234  26.789  18.054   0.452  0.0031 -0.0616  0.2023
    1W        W29235  25.432   5.164   3.079  0.0760  0.1367 -0.0697
    1W        W29236  27.300  23.982   1.493 -0.1643 -0.1521  0.1066
    1W        W29237  28.599   7.017   9.801  0.3034  0.0349  0.1879
    1W        W29238  15.681  23.406   8.897  0.1862 -0.2719 -0.4882
    1W        W29239  21.869   8.328   9.134  0.0854  0.0213 -0.2595
    1W        W29240   9.257  15.876   0.718 -0.1679 -0.0172 -0.1327
    1W        W29241  26.825   5.707   1.065  0.0726 -0.0946 -0.1503
    1W        W29242   0.217  25.000   2.541 -0.2557  0.0011  0.3032
    1W        W29243   2.078  15.639   1.004 -0.0148  0.2341 -0.2002
    1W        W29244  15.137   6.187   6.977  0.1016  0.1107  0.3605
    1W        W29245   2.627  20.682   0.462  0.2127 -0.1588 -0.2102
    1W        W29246  11.948   9.342   1.050  0.3111  0.1452  0.0333
    1W        W29247   6.781  19.112   8.516 -0.0143  0.1462  0.2029
    1W        W29248   7.040  19.062   0.090 -0.0649  0.0584  0.0706
    1W        W29249   6.141  21.552   7.704 -0.3018 -0.0034  0.3363
    1W        W29250  25.641  16.848   0.636  0.0489 -0.2366 -0.0444
    1W        W29251   5.054  17.726   2.139 -0.0486 -0.1893 -0.1014
    1W        W29252   0.271  22.826   2.337  0.1668 -0.0159  0.2361
    1W        W29253  17.178  13.621   7.393  0.0148  0.0220  0.0633
    1W        W29254  14.085  21.427   1.347 -0.0652 -0.1808  0.2308
    1W        W29255  23.489   3.217   7.604  0.0427 -0.3420 -0.0331
    1W        W29256  12.714  15.106   6.140 -0.0560  0.1655  0.0206
    1W        W29257   5.827  22.994   9.722 -0.3434  0.1023  0.0940
    1W        W29258   3.553  22.909   2.636  0.0121  0.0998 -0.0736
    1W        W29259  21.844   1.366   1.860  0.0396 -0.1424 -0.0826
    1W        W29260  19.071   0.103   6.807 -0.0290 -0.0198  0.2519
    1W        W29261   4.368  16.553   2.753 -0.0639 -0.0785 -0.0585
    1W        W29262  23.870   4.427   1.154 -0.2183  0.1152  0.1830
    1W        W29263   3.182   7.625   0.189  0.1011 -0.2199 -0.0748
    1W        W29264  14.610  12.566   1.612 -0.2431  0.0371  0.0658
    1W        W29265   8.757   4.890   0.207 -0.1639  0.0866 -0.0625
    1W        W29266  10.394  10.758   0.772  0.1117 -0.2661  0.0219
    1W        W29267  25.002  12.743   0.934 -0.3372  0.1269  0.1239
    1W        W29268  15.743  17.765   0.590 -0.0668 -0.2479  0.0155
    1W        W29269   6.911  16.947   2.529  0.1272  0.4290  0.1601
    1W        W29270  20.713  19.209   9.584 -0.4625  0.2866 -0.1260
    1W        W29271   6.241  22.512   9.578  0.0993 -0.0743 -0.1007
    1W        W29272  21.836   7.466   0.331  0.4685 -0.0499  0.0477
    1W        W29273  14.005  11.573   1.381 -0.1464  0.0349  0.0189
    1W        W29274  10.620  13.689   6.640  0.0443  0.1353 -0.3727
    1W        W29275   7.067  12.677   2.181  0.2831  0.1887  0.0939
    1W        W29276  23.159   7.940   9.708  0.2238 -0.2677  0.0470
    1W        W29277   8.371   1.929   0.248 -0.3646 -0.1181 -0.3207
    1W        W29278  17.919   6.753   1.231  0.1982  0.1164  0.1554
    1W        W29279   6.106  24.065   0.494  0.3171  0.0203 -0.1194
    1W        W29280   3.519  21.832   8.976 -0.2261  0.1094  0.0583
    1W        W29281  17.843  22.163   2.827 -0.0914  0.1862  0.2432
    1W        W29282   8.311  12.599   6.550 -0.3096  0.1722  0.1178
    1W        W29283  18.438   8.053   6.493 -0.2535  0.0479 -0.0145
    1W        W29284  27.486  17.562   2.778 -0.0329 -0.0060  0.1142
    1W        W29285  13.419   8.929   0.005 -0.1117 -0.1570  0.0092
    1W        W29286  26.182  10.425   1.113 -0.1193  0.0246  0.3445
    1W        W29287  28.171   9.835   7.397  0.3565  0.1196  0.0639
    1W        W29288   1.602  11.907   0.968 -0.1000  0.4658  0.0539
    1W        W29289  24.306  25.900   8.316 -0.0500  0.2598 -0.4945
    1W        W29290   4.416  13.675   8.048 -0.1107 -0.3937  0.2129
    1W        W29291  18.935  21.670   1.071 -0.0057 -0.2048  0.1065
    1W        W29292  14.060  17.050   6.053 -0.1470 -0.0614  0.0979
    1W        W29293   0.778  26.443   3.789 -0.4683  0.0188  0.0070
    1W        W29294  27.270   2.271   3.467 -0.0387  0.0035 -0.1201
    1W        W29295  13.999   2.578   1.438  0.2512  0.4921 -0.1316
    1W        W29296  27.251   8.956   1.618 -0.1658 -0.2323 -0.2378
    1W        W29297  17.090   2.844   8.047 -0.0867 -0.1647  0.1242
    1W        W29298  11.926  20.230   0.995  0.2562  0.0005 -0.0792
    1W        W29299   1.148   5.896   9.964  0.0603  0.5006 -0.1221
    1W        W29300  21.785  12.130   9.849 -0.0494 -0.1339 -0.1226
    1W        W29301  22.994  20.573   7.417 -0.0917 -0.3948 -0.1553
    1W        W29302  13.294   5.500   7.377 -0.0732  0.1710  0.2938
    1W        W29303  11.689   0.312   2.168 -0.0506 -0.1585 -0.0248
    1W        W29304  18.650   3.985   8.008  0.0708  0.2060 -0.1746
    1W        W29305  25.390  23.307   1.762 -0.3279  0.1822 -0.0178
    1W        W29306   9.605  11.849   5.871  0.0816 -0.1717 -0.0581
    1W        W29307  18.426   6.678   8.219  0.1560 -0.0257 -0.0232
    1W        W29308   2.452   5.224   8.800  0.0542 -0.3241 -0.0180
    1W        W29309  16.506   5.329   8.486 -0.2644 -0.2400  0.0091
    1W        W29310  13.092   6.978   9.741  0.0277  0.0091 -0.0515
    1W        W29311  10.340   5.954   6.799 -0.1287  0.1249  0.0441
    1W        W29312  22.054   0.415   1.199 -0.0602  0.1147 -0.0815
    1W        W29313  28.504  14.735   1.924  0.3240  0.4148  0.1120
    1W        W29314   1.488  28.034   3.677 -0.4345 -0.0324  0.5742
    1W        W29315  24.567  20.499   1.721  0.0697  0.1041 -0.1428
    1W        W29316  13.720  14.124   1.296  0.2207 -0.0292 -0.2187
    1W        W29317  20.944  17.016   0.635 -0.0539 -0.1454 -0.1942
    1W        W29318  23.749  26.954   9.291  0.1905  0.1084 -0.0046
    1W        W29319   5.661  20.509   7.952 -0.1299 -0.0698  0.0314
    1W        W29320  21.350   2.403   6.625  0.1735  0.0042  0.2620
    1W        W29321   6.468  25.869   3.364  0.1672  0.1655 -0.1149
    1W        W29322  23.845   3.177   7.186  0.2557 -0.2684 -0.1624
    1W        W29323   0.095  14.241   2.372 -0.2996 -0.0648  0.0490
    1W        W29324   4.371  24.872   1.995 -0.1954 -0.0409 -0.0144
    1W        W29325  19.552  19.667   9.752  0.0441  0.0749 -0.1032
    1W        W29326   1.210  16.727   2.148  0.0184 -0.0233  0.0009
    1W        W29327  12.318   6.532   0.503  0.1185 -0.4835  0.0712
    1W        W29328   6.299  23.017   3.770 -0.1105 -0.1526  0.2327
    1W        W29329   9.612  20.926   1.620  0.3066  0.3528  0.2447
    1W        W29330  27.189  24.678   0.336 -0.1390  0.0577 -0.3990
    1W        W29331   6.658   6.579   7.312 -0.1456 -0.3863  0.2100
    1W        W29332  18.151  18.748   8.403  0.1534 -0.3996 -0.1607
    1W        W29333  14.160  14.060   0.368 -0.1623 -0.0308  0.1694
    1W        W29334   8.611   8.031   1.109  0.0818 -0.1363 -0.1537
    1W        W29335  14.233   8.591   2.374  0.0997 -0.0330  0.0429
    1W        W29336   4.294  16.659   0.712 -0.0941  0.1784 -0.3642
    1W        W29337  19.949   1.569   2.453 -0.1438 -0.0226 -0.1094
    1W        W29338  13.597  27.751   1.176  0.0322 -0.2166 -0.2062
    1W        W29339  19.057   3.250   7.737 -0.0804  0.0562 -0.2981
    1W        W29340  16.235   5.342   7.309  0.1017  0.0178  0.6333
    1W        W29341   9.683  23.527   3.192 -0.1580 -0.0820 -0.0422
    1W        W29342  16.748  19.993   7.501  0.1406  0.1802 -0.1726
    1W        W29343  25.121  12.600   1.844  0.2474  0.0429 -0.0781
    1W        W29344   7.285  15.480   7.852  0.1889  0.0442  0.3464
    1W        W29345  23.197  12.514   6.963  0.1950  0.1331  0.2436
    1W        W29346   5.663  15.208   2.811 -0.3353  0.0509  0.0724
    1W        W29347   0.043  27.273   9.832 -0.0667  0.1837 -0.2267
    1W        W29348  22.059  12.744   1.060 -0.0429 -0.1499  0.1093
    1W        W29349  14.501  13.188   0.359  0.1203  0.3840  0.0822
    1W        W29350  12.193  21.310   9.454 -0.2151 -0.0851 -0.5192
    1W        W29351   7.910   1.051   1.271  0.1741  0.3443  0.1351
    1W        W29352   4.507  27.672   8.418  0.0683 -0.1853  0.0034
    1W        W29353   7.435   3.762   8.290  0.1230 -0.4021  0.2551
    1W        W29354  28.684  12.875   7.453  0.1438  0.1210  0.0574
    1W        W29355  14.781  18.831   2.075 -0.2564 -0.1354 -0.0329
    1W        W29356  12.225  10.117   8.778 -0.3268  0.3868  0.4175
    1W        W29357  20.985  19.223   7.772 -0.1661 -0.1269 -0.0720
    1W        W29358  16.872  11.094   9.870  0.1095  0.2105 -0.3017
    1W        W29359  26.320  23.336   9.110  0.1462 -0.2878  0.0567
    1W        W29360   2.911  26.150   9.653 -0.2271  0.0830  0.1924
    1W        W29361  17.181   7.287   7.558  0.0851 -0.1276  0.2276
    1W        W29362  15.529  19.768   2.036 -0.1675 -0.0883 -0.2240
    1W        W29363  21.350  26.710   8.559 -0.0814  0.1338 -0.2836
    1W        W29364  20.505  20.199   6.730 -0.2600 -0.2238  0.2511
    1W        W29365   2.837  28.046   2.143  0.1433  0.4098 -0.0462
    1W        W29366  27.531   4.657   2.261  0.0510  0.1720  0.0247
    1W        W29367   4.462   2.772   8.126 -0.2106  0.0124 -0.2015
    1W        W29368   8.561  21.011   9.864  0.0603  0.1181  0.0317
    1W        W29369   2.767  21.295   1.876  0.0710  0.1803  0.1711
    1W        W29370  24.532   3.210   9.987  0.0006 -0.2012  0.1192
    1W        W29371  20.236  10.393   8.388 -0.0569 -0.0090  0.0114
    1W        W29372  10.037  27.577   9.973  0.0977 -0.0062  0.0897
    1W        W29373  16.041   4.916   6.590 -0.0503  0.1076  0.0080
    1W        W29374   8.563   0.831   8.801 -0.3381  0.0331 -0.0120
    1W        W29375   4.902  23.879   7.419  0.2938 -0.1406  0.2039
    1W        W29376   0.031   7.969   3.212  0.2285  0.0302 -0.2136
    1W        W29377  20.551  27.087   7.889 -0.1200  0.2917 -0.1351
    1W        W29378  10.227   1.028   1.591  0.3278  0.0432 -0.1085
    1W        W29379  11.919   6.969   7.101 -0.0739  0.0461 -0.1274
    1W        W29380   5.033   8.965   0.708 -0.0007  0.2717  0.0300
    1W        W29381   3.926  22.474   9.056  0.4556 -0.2769 -0.4140
    1W        W29382  10.988  13.752   2.179  0.0569  0.1841 -0.1043
    1W        W29383   4.010  28.767   9.248  0.1610  0.3236  0.1046
    1W        W29384  20.972  10.901   8.859 -0.0124 -0.2045 -0.0207
    1W        W29385  20.509   7.853   8.028  0.0700 -0.1582 -0.0463
    1W        W29386  20.747   8.238   0.638 -0.1264  0.2702 -0.0471
    1W        W29387  19.235   1.791   2.260 -0.3211  0.0244  0.2499
    1W        W29388  20.428  20.386   2.395 -0.1961 -0.0082 -0.0483
    1W        W29389  16.442  15.876   2.435 -0.0372 -0.2053 -0.1020
    1W        W29390  24.192   6.248   8.881  0.3386 -0.1991 -0.1389
    1W        W29391  18.702  15.616   8.060 -0.1708  0.2244  0.0807
    1W        W29392  22.257  21.853   1.084 -0.5399 -0.0215  0.1032
    1W        W29393  14.720   0.686   2.406 -0.1545  0.1129  0.0191
    1W        W29394   1.203  18.034   8.270  0.1266  0.1171 -0.0458
    1W        W29395   9.008   3.773   8.909 -0.1033 -0.0190  0.0194
    1W        W29396  10.955   6.419   1.321 -0.0043 -0.0091 -0.2411
    1W        W29397  10.676  15.594   2.090 -0.0061  0.0430  0.1164
    1W        W29398  18.279  15.742   6.520  0.0972 -0.1750  0.0392
    1W        W29399  11.233  19.735   1.763  0.3232  0.0408  0.0804
    1W        W29400  22.144  26.951   8.044  0.0397  0.0494  0.0233
    1W        W29401  10.611  21.337   7.003  0.2831  0.3322  0.0281
    1W        W29402   1.169  28.647   1.525  0.0885  0.0511 -0.0972
    1W        W29403  13.042  28.435   0.354 -0.0243 -0.3158  0.0561
    1W        W29404   0.247  15.203   3.575  0.0884 -0.3462  0.0332
    1W        W29405  28.041  11.745   1.499  0.1593 -0.2540 -0.0231
    1W        W29406  11.849  26.887   0.484 -0.0623  0.1385  0.0379
    1W        W29407  10.636  23.735   8.419 -0.2809 -0.1770  0.1054
    1W        W29408   3.157  17.881   7.426  0.1165  0.2338 -0.1991
    1W        W29409   5.623  27.181   2.816  0.1785  0.6912  0.1915
    1W        W29410   1.932   3.851   9.358  0.3170  0.3551  0.0780
    1W        W29411   0.122   7.536   1.767  0.0651  0.2695  0.0045
    1W        W29412   4.016  10.127   2.417 -0.0554  0.2258  0.1356
    1W        W29413  16.592   9.080   7.197 -0.0099  0.2240 -0.0133
    1W        W29414  17.796  11.301   0.919 -0.2622  0.1375  0.1776
    1W        W29415  22.908  12.618   7.426 -0.0144 -0.2726 -0.2292
    1W        W29416  14.463  21.906   7.640  0.0026  0.1974  0.0084
    1W        W29417   8.305  16.817   9.452  0.2591 -0.0059 -0.1841
    1W        W29418  11.140  18.469   2.375  0.0380  0.0549 -0.0579
    1W        W29419  24.843   7.358   0.224 -0.0392 -0.3574  0.0900
    1W        W29420   3.032   0.990   1.710  0.0650  0.1081  0.0531
    1W        W29421  12.034  28.104   7.391 -0.1574 -0.2441  0.1240
    1W        W29422  18.125  19.158   8.008  0.1414 -0.3963 -0.0971
    1W        W29423  16.519  16.625   6.593  0.2441  0.2503 -0.0071
    1W        W29424  14.257  20.950   8.859  0.0052  0.1012  0.2332
    1W        W29425  15.890  22.346   7.040 -0.0801 -0.0253 -0.1820
    1W        W29426  17.552  25.130   2.211  0.1413  0.1264  0.0828
    1W        W29427  12.261   9.418   7.656  0.0899  0.0507  0.0008
    1W        W29428  14.863  26.588   8.078 -0.2125  0.1816 -0.1518
    1W        W29429  16.553  20.425   8.953  0.0916  0.2184 -0.1905
    1W        W29430  10.344   3.625   3.030  0.2183  0.0157 -0.0730
    1W        W29431  14.384  19.650   6.618 -0.0747 -0.1004 -0.1268
    1W        W29432  14.036  14.063   0.918 -0.1026  0.1293  0.0576
    1W        W29433  20.127  28.338   8.310 -0.3430  0.0958  0.2232
    1W        W29434  27.944   8.690   8.897 -0.0902 -0.2460 -0.2355
    1W        W29435  15.185  15.183   7.625 -0.0378  0.0844 -0.1470
    1W        W29436  18.780  11.629   6.520  0.3497 -0.0764  0.0644
    1W        W29437  16.383  15.337   7.121  0.3509  0.2116  0.0043
    1W        W29438  11.426  17.493   3.500 -0.0893  0.2612  0.0219
    1W        W29439  23.604  18.784   7.840 -0.3144  0.2629  0.0711
    1W        W29440  25.505   2.361   2.934  0.0982 -0.2220  0.0032
    1W        W29441  28.440  15.536   7.209  0.0203  0.0759 -0.2232
    1W        W29442  19.464  14.847   2.307 -0.1345  0.1599 -0.0011
    1W        W29443  23.188   1.099   9.419  0.2077  0.1345  0.0944
    1W        W29444  13.572   8.031   1.450  0.2231 -0.0667 -0.0997
    1W        W29445  20.642  20.709   6.541 -0.1080 -0.3131  0.1798
    1W        W29446  14.207  10.716   1.308 -0.0475  0.2021 -0.3467
    1W        W29447  23.445  24.286   9.851 -0.1517 -0.1706 -0.0014
    1W        W29448  25.716  10.732   1.176  0.0182  0.0528  0.0127
    1W        W29449  18.300  27.553   8.406  0.0953  0.1813  0.0409
    1W        W29450  16.514   3.079   8.830  0.2109 -0.0311  0.0808
    1W        W29451  11.627   5.731   0.246 -0.0728 -0.0159  0.0747
    1W        W29452  28.287  17.071   9.014 -0.1400  0.1490  0.0277
    1W        W29453  25.959   9.715   8.105 -0.2091 -0.0840 -0.0143
    1W        W29454  24.265  10.605   9.604 -0.0965  0.0248  0.1444
    1W        W29455  25.419   0.915   7.519  0.3321 -0.1975  0.0018
    1W        W29456   6.242   2.858   2.933 -0.0886 -0.2513  0.2979
    1W        W29457  18.101   3.041   0.872  0.1747 -0.1518  0.0151
    1W        W29458  19.462  21.167   8.412  0.1738 -0.1097 -0.0925
    1W        W29459  20.148   7.599   0.497  0.2029 -0.1397 -0.2635
    1W        W29460   4.933  19.028   3.295 -0.0377  0.0059 -0.0273
    1W        W29461  10.137  14.671   8.611 -0.0733  0.2649 -0.0414
    1W        W29462  27.751   1.571   3.688  0.4255  0.1405  0.2731
    1W        W29463   6.186  18.291   1.252 -0.2708  0.1760  0.2358
    1W        W29464  14.413  21.842   6.843 -0.0344  0.1812  0.1958
    1W        W29465   4.500  19.833   2.728 -0.1173 -0.0290  0.3936
    1W        W29466  19.587  13.775   6.475 -0.0487  0.0818  0.1815
    1W        W29467  12.142   1.375   9.108 -0.0705  0.1861 -0.0473
    1W        W29468  28.390  11.592   0.384  0.2439  0.1451  0.0796
    1W        W29469  23.356  13.725   8.361  0.2397 -0.0151 -0.1326
    1W        W29470  16.466  22.042   1.716  0.1551 -0.2874 -0.0505
    1W        W29471   5.018  16.179   8.100 -0.1034  0.0331  0.3308
    1W        W29472  11.052   4.625   7.917 -0.0948  0.0308 -0.0982
    1W        W29473  11.600   8.094   7.661 -0.1145 -0.0502  0.2178
    1W        W29474   6.153  14.883   6.784 -0.1148 -0.1738  0.0759
    1W        W29475  25.124  12.535   9.789  0.1739 -0.0177  0.0919
    1W        W29476  20.110   8.125   0.581  0.2439 -0.0413 -0.0804
    1W        W29477  10.336  15.779   1.201 -0.0722 -0.1794 -0.2526
    1W        W29478  12.944  20.846   3.042  0.0751 -0.0484 -0.0659
    1W        W29479  11.580  17.711   2.608  0.0067 -0.0965 -0.0833
    1W        W29480  27.284  28.429   3.509  0.4295  0.3347  0.2925
    1W        W29481  11.073  16.876   6.433 -0.1333 -0.2047 -0.2673
    1W        W29482  15.754  26.022   2.946  0.0834  0.0791  0.0489
    1W        W29483  12.962   9.230   1.989 -0.4334  0.0344  0.1591
    1W        W29484  20.508  28.785   0.285 -0.3308 -0.2122  0.2754
    1W        W29485  27.938  10.278   1.961  0.0303  0.3307  0.3435
    1W        W29486  18.430  20.251   1.153 -0.0023 -0.0056  0.2210
    1W        W29487  13.285  26.056   8.350  0.0378 -0.1938 -0.0563
    1W        W29488  18.068  20.872   9.855  0.1696  0.2755  0.1617
    1W        W29489   5.592  26.349   1.565  0.1323 -0.3033  0.0669
    1W        W29490   3.592  24.836   2.721  0.0672 -0.0837 -0.0214
    1W        W29491  11.800  12.031   8.109 -0.3682 -0.1134 -0.2475
    1W        W29492  26.595   8.183   3.137 -0.1179 -0.0217  0.1406
    1W        W29493  10.839  24.433   2.693  0.0658  0.0894  0.0892
    1W        W29494  24.664  17.862   7.666 -0.0903 -0.0285 -0.0684
    1W        W29495  19.602  11.145   0.121  0.1001 -0.0229  0.1353
    1W        W29496  21.376  20.029   9.203 -0.0524  0.1575  0.2506
    1W        W29497  14.760   7.184   7.890 -0.2616  0.0877 -0.0119
    1W        W29498   4.259  28.073   2.390  0.3374 -0.2893 -0.1122
    1W        W29499   2.799   3.202   3.264  0.0625  0.1404 -0.0367
    1W        W29500  19.867  27.044   2.580 -0.2548  0.0534 -0.2240
    1W        W29501  22.817  14.389   1.612 -0.0653 -0.0206 -0.0368
    1W        W29502  20.302  13.809   8.909 -0.1065 -0.0142  0.0283
    1W        W29503  16.299   0.584   7.440 -0.1524  0.0304  0.0265
    1W        W29504   4.526  27.931   8.917  0.1285 -0.1426 -0.0481
    1W        W29505  25.646   5.968   0.550 -0.1607 -0.1447  0.1896
    1W        W29506  22.031  13.760   0.979  0.0525  0.1328 -0.0298
    1W        W29507  23.358  24.736   7.160 -0.2007 -0.0290  0.2643
    1W        W29508  21.175  23.762   0.223  0.1311 -0.0621  0.1439
    1W        W29509  10.510  26.599   2.378  0.2419 -0.0390  0.0642
    1W        W29510  14.679   3.692   1.461 -0.0086 -0.0387 -0.2028
    1W        W29511  10.892   7.872   1.463  0.0837 -0.0101 -0.0300
    1W        W29512  14.058  26.004   8.493 -0.1223  0.0440  0.1183
    1W        W29513  12.946   9.286   6.261  0.0379 -0.0204 -0.2488
    1W        W29514  12.587  15.273   6.587  0.3811 -0.2664 -0.0465
    1W        W29515   2.771  20.172   0.924  0.1072 -0.1016 -0.0521
    1W        W29516  25.441  13.503   0.310 -0.0329 -0.3652 -0.0846
    1W        W29517  20.538  20.450   8.771 -0.2015 -0.1407  0.2821
    1W        W29518   3.555  25.439   2.121  0.0219 -0.0011  0.0451
    1W        W29519  17.081  19.911   1.975 -0.0774  0.0045  0.1322
    1W        W29520  21.500   6.853   8.824 -0.2064  0.0963  0.0048
    1W        W29521  21.413  16.175   7.801  0.0728 -0.0175  0.3160
    1W        W29522   3.941  10.575   9.536 -0.2272  0.1190  0.2309
    1W        W29523  16.047  13.252   8.171 -0.0084  0.2520 -0.0884
    1W        W29524   5.317  26.823   2.060 -0.0486  0.0543 -0.0502
    1W        W29525  12.544  25.830   9.840 -0.2229 -0.1445 -0.0600
    1W        W29526   1.992   9.505   8.691  0.0030 -0.0272  0.2283
    1W        W29527  24.323  23.331   7.685  0.0616  0.0583  0.1522
    1W        W29528   2.909   9.675   9.550  0.0716  0.1572 -0.0854
    1W        W29529   0.556  27.564   1.782 -0.0938  0.0728  0.3007
    1W        W29530  19.644  21.942   9.558 -0.1736 -0.0615 -0.3035
    1W        W29531  17.982  21.361   7.771 -0.2360 -0.1761  0.1472
    1W        W29532  19.949  18.978   2.796 -0.1002 -0.1795  0.0940
    1W        W29533  12.129   1.501   9.661 -0.0299  0.0515  0.1511
    1W        W29534  28.513   2.918   9.063  0.1435 -0.0348 -0.0205
    1W        W29535  14.133  19.692   0.185 -0.3787  0.1058 -0.1978
    1W        W29536  26.154  20.916   9.647 -0.0704 -0.1488 -0.5030
    1W        W29537   0.049  11.686   2.048 -0.0400 -0.0448  0.1615
    1W        W29538  12.338  22.978   2.984  0.1854 -0.2303 -0.0907
    1W        W29539  13.034   8.803   8.834 -0.2542 -0.3462 -0.0888
    1W        W29540  11.172  25.286   0.771  0.3181 -0.0547  0.1831
    1W        W29541  14.913  24.102   2.703  0.0476 -0.0257 -0.0217
    1W        W29542  28.833  23.234   0.702 -0.0461 -0.1970 -0.0949
    1W        W29543  26.250   4.050   2.984 -0.0393 -0.0715  0.0158
    1W        W29544  20.391  12.605   7.308 -0.3670 -0.1845  0.0607
    1W        W29545   7.715  11.927   0.599  0.0013  0.0053 -0.0045
    1W        W29546  28.528   7.762   3.509 -0.0923 -0.0164 -0.3626
    1W        W29547  11.233  15.675   9.531 -0.0404  0.1545 -0.0310
    1W        W29548   9.802  26.710   9.522  0.0298 -0.0109 -0.1027
    1W        W29549  19.851   0.380   9.526  0.1055 -0.0736  0.0167
    1W        W29550  16.312  15.287   1.236 -0.2872  0.2222 -0.0390
    1W        W29551  10.507  11.329   1.077 -0.2403  0.2062 -0.0326
    1W        W29552  26.884  10.203   7.494 -0.0653 -0.0807  0.4111
    1W        W29553  12.539   8.918   9.635  0.0662 -0.2385  0.1534
    1W        W29554  15.917  15.565   1.502 -0.0303  0.1818  0.2510
    1W        W29555   7.526   5.242   1.426 -0.0055 -0.0939 -0.1440
    1W        W29556  11.757  25.133   8.213 -0.0659  0.0283  0.1607
    1W        W29557  26.334  12.537   2.973 -0.2832  0.0981  0.2760
    1W        W29558   9.695  25.747   3.170 -0.2834 -0.0007 -0.2390
    1W        W29559  11.381  28.731   8.104  0.1224  0.2778  0.2462
    1W        W29560   6.187  11.427   7.591 -0.1246 -0.1978  0.0528
    1W        W29561   2.249  24.556   7.775 -0.0752 -0.0568  0.2798
    1W        W29562  11.956   7.254   0.060 -0.0650 -0.2646  0.1326
    1W        W29563   1.512   0.906   8.007 -0.1080  0.1698 -0.1578
    1W        W29564  10.200   1.238   8.760  0.0902  0.0580 -0.2443
    1W        W29565  28.149  10.195   0.597  0.1098  0.3050  0.0912
    1W        W29566  12.313  22.602   0.028 -0.2082  0.2387 -0.1601
    1W        W29567  18.505  26.754   8.390  0.1662 -0.0711  0.0944
    1W        W29568   0.658  13.183   8.539  0.0065 -0.0794  0.0753
    1W        W29569   1.839   2.985   8.422  0.0291 -0.0663 -0.1722
    1W        W29570   2.670  28.819   9.303 -0.0493 -0.0077  0.1655
    1W        W29571  15.188  16.930   5.827  0.0241 -0.0764 -0.0300
    1W        W29572   2.137   3.771   8.869 -0.1976  0.2050  0.0072
    1W        W29573  12.726  24.550   0.769 -0.2212 -0.0525 -0.2107
    1W        W29574  26.882  25.028   3.275 -0.1904 -0.1129 -0.2026
    1W        W29575   7.340   7.379   2.348  0.1555 -0.1093  0.1379
    1W        W29576  25.879  27.974   0.937  0.0972  0.1586  0.0339
    1W        W29577  16.433  15.327   0.336  0.1951  0.0350  0.0078
    1W        W29578  19.328  18.361   7.899  0.1215 -0.3555 -0.2016
    1W        W29579  24.544  28.330   2.876  0.1771 -0.2477  0.0469
    1W        W29580  15.360  28.139   7.591  0.3046 -0.0380  0.1732
    1W        W29581   9.239  28.546   9.695  0.1814  0.5664  0.0429
    1W        W29582  15.559  24.084   6.600 -0.1365 -0.1183 -0.1664
    1W        W29583   7.820  16.314   6.915 -0.1128 -0.4576 -0.2865
    1W        W29584  27.747  12.108   8.751  0.0160  0.2793 -0.1772
    1W        W29585  12.163  18.378   8.131 -0.2323  0.2521  0.1137
    1W        W29586   6.798  13.085   2.335 -0.2444 -0.1417 -0.1548
    1W        W29587  10.008  27.940   8.295  0.0655 -0.0377  0.0141
    1W        W29588   3.185   5.851   2.201  0.0199 -0.4258 -0.0384
    1W        W29589  18.488  17.652   6.875  0.2814 -0.2373  0.0545
    1W        W29590  10.190   8.043   7.501  0.0867  0.0866 -0.0696
    1W        W29591  24.043   0.693   0.740  0.2019  0.1849 -0.2561
    1W        W29592  16.780  26.409   2.342 -0.2448 -0.2226  0.2039
    1W        W29593  25.939  28.119   2.757  0.0821 -0.0375 -0.1366
    1W        W29594   2.272  21.201   8.745  0.1440 -0.0099 -0.3100
    1W        W29595  11.970   3.266   8.746 -0.1904  0.3319 -0.0659
    1W        W29596  13.120   5.299   1.521  0.1667 -0.0600  0.1917
    1W        W29597  13.983  14.545   0.995 -0.0612  0.3274 -0.0323
    1W        W29598   4.651  22.197   0.524  0.2835  0.1008 -0.2039
    1W        W29599   8.631  26.137   7.730  0.0890  0.0481 -0.2130
    1W        W29600   5.757  23.386   0.395 -0.2395 -0.0309 -0.0692
    1W        W29601   4.446   6.372   8.562  0.1545 -0.1426  0.0224
    1W        W29602   8.376   3.631   0.463  0.0533 -0.2478 -0.1118
    1W        W29603  10.331  17.920   8.801 -0.1172 -0.0878 -0.3242
    1W        W29604   6.504  16.424   0.530  0.2155 -0.0637  0.0487
    1W        W29605   1.176  11.659   2.047 -0.2763  0.2279  0.1453
    1W        W29606  20.787  14.648   0.972  0.0003 -0.1172  0.1649
    1W        W29607   3.876  21.925   2.246  0.2087  0.6598  0.1667
    1W        W29608  14.801  27.032   7.775  0.0484 -0.0969 -0.0572
    1W        W29609  11.474   6.348   8.024 -0.3179  0.0174 -0.3250
    1W        W29610   9.846   6.639   7.247  0.0851  0.0052 -0.2054
    1W        W29611   8.909   0.810   1.603  0.0912  0.1876  0.3074
    1W        W29612   6.505   4.863   9.164 -0.1788  0.0504 -0.1017
    1W        W29613   7.015  17.401   8.917  0.0098 -0.5456  0.1053
    1W        W29614  22.061   4.769   1.495 -0.1440 -0.1126 -0.0243
    1W        W29615  19.261  13.191   0.721 -0.0079 -0.2088  0.2496
    1W        W29616   6.278   7.361   0.047 -0.0612  0.3009  0.0538
    1W        W29617  23.582  17.649   7.389 -0.0668 -0.1492  0.0094
    1W        W29618  27.160   4.158   1.530  0.2209  0.0709  0.0364
    1W        W29619  22.307  15.658   9.806  0.0180 -0.0319  0.0216
    1W        W29620   1.639  24.253   0.135  0.7425 -0.3680  0.1930
    1W        W29621  21.993   9.935   8.116 -0.0363 -0.2981  0.1262
    1W        W29622  19.753   7.303   7.265 -0.3015 -0.0964  0.0178
    1W        W29623  11.833   6.069   7.156  0.3032  0.0193 -0.2797
    1W        W29624   5.300  14.553   0.003 -0.2864 -0.0062  0.0821
    1W        W29625  13.711  19.350   0.071 -0.0455  0.2029 -0.1221
    1W        W29626  24.319   5.256   1.320  0.1606 -0.4170  0.1259
    1W        W29627   3.332  16.106   2.413  0.0876 -0.0952  0.2315
    1W        W29628  17.550  13.890   1.264  0.1128 -0.3030 -0.1992
    1W        W29629  13.970  22.323   2.394 -0.0838  0.3916  0.0036
    1W        W29630  19.148  20.554   0.614  0.0067 -0.3423  0.0079
    1W        W29631   1.369   2.933   8.576 -0.2121  0.2851 -0.1037
    1W        W29632  14.688  10.317   7.221 -0.1380 -0.2735  0.0477
    1W        W29633  12.222  26.947   0.811 -0.2034  0.1969  0.2125
    1W        W29634   9.127  14.440   8.057 -0.3568 -0.1443 -0.2465
    1W        W29635  13.007   3.961   6.181 -0.1855 -0.0650 -0.3178
    1W        W29636  22.395   2.124   1.081  0.0638  0.1385  0.3132
    1W        W29637   6.276  11.519   2.691  0.3072  0.1547  0.1968
    1W        W29638  27.553  24.241   8.732 -0.2734 -0.0019  0.3282
    1W        W29639  27.191  19.783   9.780  0.2128  0.0978 -0.2890
    1W        W29640  18.384   8.336   9.802  0.0416 -0.0804 -0.4404
    1W        W29641  21.680   4.333   0.153  0.0508  0.4715 -0.1068
    1W        W29642  12.889   4.439   7.905 -0.2866 -0.2930 -0.0879
    1W        W29643  28.837  27.145   0.408  0.1868  0.0032  0.2538
    1W        W29644  22.740  22.570   9.105  0.3708 -0.0830 -0.0596
    1W        W29645   1.929  18.982   0.234 -0.3133  0.0056  0.1537
    1W        W29646  20.749  18.343   0.566  0.2207 -0.1462  0.1070
    1W        W29647   8.105   7.600   9.817 -0.0155 -0.1721 -0.1710
    1W        W29648   7.145  20.508   0.428 -0.3202 -0.0404  0.1017
    1W        W29649  19.284  19.622   1.367 -0.1825  0.0158  0.3084
    1W        W29650   4.603  28.186   2.058  0.1611  0.0198  0.2008
    1W        W29651  20.016  27.058   0.954  0.1231 -0.0393  0.0743
    1W        W29652  22.594  16.778   0.260  0.0821  0.1904  0.0276
    1W        W29653   7.464  14.942   8.716  0.0180  0.0351  0.3826
    1W        W29654  13.164  23.249   2.361  0.1588  0.0741 -0.0795
    1W        W29655  25.707  27.436   2.901  0.0275  0.1299  0.1845
    1W        W29656  13.072  11.231   0.294 -0.0010  0.0429 -0.1676
    1W        W29657   6.338  18.390   9.210  0.6366  0.0833  0.0831
    1W        W29658  20.775  21.791   8.797 -0.1376 -0.0285  0.1064
    1W        W29659  10.013   0.399   1.631  0.0047  0.1620 -0.0950
    1W        W29660   1.353   4.160   2.133 -0.1566 -0.0053  0.2874
    1W        W29661   4.060  13.048   3.017 -0.1369 -0.1904  0.3128
    1W        W29662  19.169  14.989   6.926  0.1883 -0.1406  0.2317
    1W        W29663  26.124   1.230   0.425  0.0412 -0.0030  0.0669
    1W        W29664  10.455   4.184   0.990 -0.0205  0.1489  0.1208
    1W        W29665  12.957  25.816   1.639 -0.3705  0.0776  0.3052
    1W        W29666   4.172  28.109   8.569 -0.0526 -0.1789  0.0879
    1W        W29667  28.437   1.834   1.793 -0.2596  0.1942  0.1558
    1W        W29668   0.813   6.075   2.870  0.1744 -0.2252  0.1310
    1W        W29669  12.461  12.679   0.350 -0.2129 -0.1212 -0.1801
    1W        W29670   0.234  22.890   7.673 -0.3273  0.0030  0.0949
    1W        W29671  20.420   0.352   2.892  0.1011 -0.2749  0.0314
    1W        W29672  24.682   9.087   2.657  0.0391  0.1224  0.2280
    1W        W29673  26.302  14.482   7.000 -0.3302  0.1983 -0.0814
    1W        W29674   9.831  18.681   7.621 -0.1186 -0.0715 -0.2128
    1W        W29675   5.429  17.111   0.867  0.1429  0.0899 -0.0959
    1W        W29676   2.855  17.475   1.474 -0.3436  0.4481 -0.3251
    1W        W29677   2.648   3.968   8.582 -0.1262 -0.0408 -0.0636
    1W        W29678  25.152   8.534   0.897 -0.2336  0.2352 -0.1401
    1W        W29679   5.828   0.648   1.707 -0.0409 -0.0037  0.0561
    1W        W29680   7.648  26.302   4.258 -0.0000 -0.0696 -0.2836
    1W        W29681   8.603   9.794   9.712  0.0271 -0.1918  0.0989
    1W        W29682   9.681  28.524   2.778  0.1162  0.0015 -0.2591
    1W        W29683   5.364  15.725   7.598 -0.0795  0.0085  0.0732
    1W        W29684  16.160  10.465   9.860  0.0054 -0.0806  0.1420
    1W        W29685  21.139  28.846   3.224 -0.1357 -0.0386 -0.0046
    1W        W29686  17.723   9.646   8.223 -0.0913 -0.0211 -0.2942
    1W        W29687  12.127  22.823   8.822 -0.1613  0.2064 -0.0069
    1W        W29688   1.191  20.067   1.527  0.1326 -0.2181 -0.0252
    1W        W29689   5.261   6.381   2.976  0.1555 -0.1644 -0.0172
    1W        W29690   9.651  10.018   0.855 -0.2705  0.0014  0.1283
    1W        W29691  27.577   3.883   9.382  0.0659 -0.3370 -0.2666
    1W        W29692  11.588  12.454   7.378  0.2235  0.0592  0.0887
    1W        W29693  22.659  11.827   8.271 -0.0154 -0.4467  0.0674
    1W        W29694  28.412   3.604   1.816  0.2032  0.0697  0.2876
    1W        W29695  22.147   4.712   7.219 -0.0941 -0.3115  0.2029
    1W        W29696   5.704  27.033   0.915 -0.2421 -0.0600 -0.1223
    1W        W29697  24.789   3.300   9.521 -0.1731  0.3439 -0.3597
    1W        W29698  27.210   6.868   3.244  0.1010  0.1133 -0.2239
    1W        W29699  25.602  22.738   2.942  0.0833 -0.0976  0.0634
    1W        W29700  19.057  15.161   1.426  0.1037 -0.0264 -0.3888
    1W        W29701  14.376  10.353   5.566 -0.1966 -0.0600 -0.2564
    1W        W29702  28.818   1.908   2.269  0.2226  0.5814 -0.1126
    1W        W29703  11.481  15.713   1.234  0.0101  0.3015  0.0032
    1W        W29704  20.246  21.677   0.849  0.1056 -0.1021  0.2335
    1W        W29705  27.726  27.067   9.003  0.0323  0.0632  0.1367
    1W        W29706   3.317  23.670   8.240 -0.0171 -0.1993 -0.0295
    1W        W29707   6.219  11.387   6.813 -0.1617  0.1613 -0.1340
    1W        W29708  17.103  20.696   6.849  0.3504  0.3610  0.1484
    1W        W29709  11.157  10.557   7.248 -0.2845 -0.0767 -0.3987
    1W        W29710   0.042   1.923   3.781 -0.0521  0.0509  0.0261
    1W        W29711  22.183  23.210   8.407 -0.0173  0.1545 -0.2607
    1W        W29712  12.758  10.425   6.668 -0.2991  0.1022 -0.0447
    1W        W29713   1.200  19.626   2.312  0.4837  0.0517  0.0867
    1W        W29714  15.494   9.665   0.549  0.2223  0.1472 -0.0730
    1W        W29715  19.724   0.415   8.094  0.3249  0.0882 -0.1436
    1W        W29716   6.884  13.585   9.175 -0.4249 -0.2476 -0.0316
    1W        W29717  20.959   1.504   2.007  0.1929 -0.1061  0.0310
    1W        W29718   4.920   5.356   0.323 -0.0781  0.1914  0.3948
    1W        W29719  27.736   0.817   0.874  0.0148  0.0448 -0.0582
    1W        W29720  15.806  25.239   9.879  0.3663 -0.2022 -0.1130
    1W        W29721   9.265   2.819   1.229  0.2498  0.2411 -0.4284
    1W        W29722   8.158  19.531   2.354 -0.0522  0.0777 -0.2403
    1W        W29723   2.834  28.516   3.329  0.1135 -0.0536  0.1401
    1W        W29724   2.848  16.165   2.090 -0.1258 -0.1179  0.0665
    1W        W29725   9.003   4.295   2.338  0.2681  0.1376  0.1640
    1W        W29726   6.362  27.317   9.432 -0.0745  0.2382  0.3161
    1W        W29727  23.010  16.190   7.750  0.0925 -0.1970  0.1331
    1W        W29728   9.937  14.771   9.116 -0.0176  0.2141  0.0786
    1W        W29729  23.098  17.614   0.104 -0.0396  0.2055  0.1665
    1W        W29730   0.596   6.496   9.797  0.0036  0.2050  0.1722
    1W        W29731  20.450   4.577   7.744 -0.1882  0.0002 -0.1243
    1W        W29732   3.110  23.167   2.550  0.0888 -0.0758  0.0381
    1W        W29733  23.194  11.543   1.132  0.2683 -0.0943  0.2204
    1W        W29734  22.290   3.355   2.225 -0.2751  0.0167  0.1119
    1W        W29735  19.610   1.598   0.943 -0.2098  0.0149  0.1678
    1W        W29736  24.346   0.390   8.986 -0.3778  0.0000 -0.0206
    1W        W29737  23.723   5.995   2.094  0.1616 -0.0965 -0.2245
    1W        W29738   3.087   3.062   0.025 -0.4376  0.0059  0.0239
    1W        W29739  11.502   2.847   0.252  0.0773  0.0440  0.0213
    1W        W29740   7.235   8.165   8.062 -0.0711 -0.0065  0.0103
    1W        W29741   3.415   2.489   9.401 -0.0161 -0.1471  0.0308
    1W        W29742  13.371   5.664   8.670 -0.0654  0.2959  0.1620
    1W        W29743   3.324   8.217   2.685  0.5209 -0.2484 -0.1424
    1W        W29744  25.308  19.313   1.334 -0.0655  0.3425 -0.1580
    1W        W29745  10.816   1.527   7.667 -0.4113  0.1980 -0.0388
    1W        W29746  24.510  27.872   8.243  0.3149  0.0263  0.3694
    1W        W29747   1.316   5.401   2.084 -0.2097  0.0584  0.0390
    1W        W29748   0.918   2.532   9.338  0.1521  0.2785  0.1468
    1W        W29749   1.006  10.142   7.863  0.3464 -0.0461  0.2958
    1W        W29750  19.382   8.324   7.240 -0.1644 -0.0252  0.0572
    1W        W29751   9.786  11.907   8.815  0.0602  0.1951  0.1100
    1W        W29752   3.593  24.440   3.114 -0.1022  0.0158  0.3082
    1W        W29753  23.715  19.838   6.390  0.0559 -0.0853 -0.1460
    1W        W29754  20.569  13.848   7.185  0.1475 -0.2550  0.0939
    1W        W29755  15.154  15.028   0.897  0.1124 -0.1228 -0.2857
    1W        W29756   7.622   8.501   0.600 -0.0829  0.0298 -0.1415
    1W        W29757  18.255  24.880   0.707  0.1256  0.0780  0.1388
    1W        W29758   8.847  18.292   0.289  0.3099  0.0225  0.1211
    1W        W29759  13.881  25.831   9.722 -0.0946  0.1462 -0.2592
    1W        W29760   8.576  12.185   1.220 -0.0265 -0.2481  0.0696
    1W        W29761  10.683  21.869   9.095 -0.2383  0.0424 -0.2709
    1W        W29762  18.111   2.601   2.595  0.0784 -0.0149 -0.2626
    1W        W29763  24.754  20.877   1.992 -0.1145  0.1321 -0.0765
    1W        W29764  18.926   5.865   9.668 -0.4148 -0.3864  0.0846
    1W        W29765  11.141  11.062   7.279 -0.0773  0.1506 -0.0422
    1W        W29766  10.460   0.801   6.927  0.1987 -0.0435  0.0589
    1W        W29767  27.286  22.598   0.533 -0.0304 -0.0277  0.0725
    1W        W29768  19.373  20.051   2.289  0.3538 -0.1966  0.1286
    1W        W29769  16.336  21.959   9.157  0.1786  0.1142 -0.1873
    1W        W29770  10.922  26.728   1.561  0.2019  0.0407 -0.1043
    1W        W29771  15.073  17.076   2.520  0.2217  0.1214  0.2295
    1W        W29772  28.422   9.452   0.404  0.1675  0.2817  0.1072
    1W        W29773   5.792   0.120   2.855  0.2137 -0.1313  0.0233
    1W        W29774   3.474  11.972   2.552  0.3209  0.0715  0.2155
    1W        W29775   8.089  28.601   0.678  0.1101  0.0829 -0.4863
    1W        W29776   9.479   6.102   7.245 -0.1936  0.0972 -0.2461
    1W        W29777  23.945   3.838   9.915 -0.0835  0.0607  0.2436
    1W        W29778  15.272  15.233   9.885  0.1266 -0.2599  0.0370
    1W        W29779  11.002   4.110   8.839 -0.3770  0.1216 -0.0330
    1W        W29780  13.253   8.251   1.031  0.1485 -0.2523 -0.2119
    1W        W29781  23.841  17.787   0.904  0.2575 -0.3751 -0.0456
    1W        W29782   7.942  20.429   9.297  0.4179  0.4277  0.0667
    1W        W29783  26.976  24.505   2.950  0.1201 -0.4144 -0.1644
    1W        W29784  14.996  19.149   2.349  0.0172  0.1004  0.1359
    1W        W29785   5.681  21.184   0.965 -0.0869 -0.0869 -0.0691
    1W        W29786  13.657  28.586   7.684  0.3008  0.0895  0.0412
    1W        W29787  13.923   5.865   6.610 -0.4099 -0.1528 -0.1830
    1W        W29788  15.685  13.076   7.018 -0.0242  0.1568 -0.0806
    1W        W29789  18.747  26.962   0.631  0.0428 -0.1115 -0.0362
    1W        W29790  18.001  27.088   9.971  0.0856 -0.2201 -0.1535
    1W        W29791   8.102  14.828   6.512 -0.0669 -0.1448  0.0674
    1W        W29792  18.291  10.604   9.260  0.0174  0.0168  0.0720
    1W        W29793  28.328  22.260   8.798 -0.1562  0.0666 -0.1113
    1W        W29794   2.279   2.002   1.335 -0.1756 -0.1107 -0.0490
    1W        W29795   5.798  11.969   6.368  0.4375 -0.2985 -0.1266
    1W        W29796   3.549   2.707   1.442 -0.2866  0.0919  0.4132
    1W        W29797   7.572   4.248   1.094  0.0820  0.0987 -0.1920
    1W        W29798  10.615  17.704   6.932  0.1047 -0.2717 -0.1196
    1W        W29799   4.900  24.179   7.837 -0.1920  0.0362 -0.0894
    1W        W29800  12.945   1.384   6.608  0.0522 -0.0787 -0.2644
    1W        W29801   8.100   6.004   9.159  0.2954  0.1962  0.0050
    1W        W29802  19.624  24.906   8.406 -0.1734 -0.3312  0.0140
    1W        W29803  15.983  17.705   1.421 -0.1011  0.3098  0.1967
    1W        W29804   0.283   2.386   2.955 -0.0665 -0.0176  0.0840
    1W        W29805  28.501  28.597   3.611  0.1066  0.0965 -0.2880
    1W        W29806   0.758  25.981   1.553  0.2090  0.0054 -0.1962
    1W        W29807  11.301  13.436   0.122 -0.0260 -0.0625  0.4603
    1W        W29808   9.583  15.314   7.982 -0.3199 -0.2098 -0.0649
    1W        W29809  11.120   1.404   6.837 -0.2076  0.1325 -0.1812
    1W        W29810  23.920  23.614   8.945 -0.0457  0.1735  0.2714
    1W        W29811  17.577   1.736   0.382 -0.0155  0.1212  0.0544
    1W        W29812   9.412   8.899   1.467 -0.0449 -0.4005 -0.2932
    1W        W29813  21.032  23.130   0.751 -0.4275 -0.0407 -0.1021
    1W        W29814   0.458  10.627   9.486 -0.1489 -0.2751 -0.1552
    1W        W29815  27.601   7.278   2.971  0.0807  0.1412 -0.0394
    1W        W29816  25.692   7.779   8.652  0.1499 -0.2009 -0.3520
    1W        W29817   6.094   8.300   9.917 -0.0973 -0.0873 -0.2250
    1W        W29818  11.041  17.140   2.282  0.2337  0.1579 -0.0021
    1W        W29819  17.033   5.010   7.861 -0.1064 -0.0482  0.0208
    1W        W29820   1.216   5.470   3.566  0.2075  0.0099 -0.2948
    1W        W29821  13.017   7.096   1.547 -0.1506  0.1357  0.1591
    1W        W29822  12.605  14.473   5.505  0.0314  0.1110  0.2074
    1W        W29823  22.750  14.477   6.251  0.0961  0.4069  0.2481
    1W        W29824  24.127  27.593   0.860 -0.2483 -0.2295  0.0041
    1W        W29825   5.618   9.127   2.949  0.4852  0.1375  0.3099
    1W        W29826  25.555  24.576   3.441  0.1580  0.0500  0.4953
    1W        W29827   0.429   3.901   1.510 -0.0926  0.0501 -0.3428
    1W        W29828  26.960  24.825   8.351 -0.2295  0.0699 -0.3791
    1W        W29829  20.059   1.498   1.037 -0.0679 -0.2091  0.1605
    1W        W29830   7.893   5.009   0.616  0.0273  0.1099  0.3313
    1W        W29831   5.370  28.509   9.184  0.1931  0.0399  0.2337
    1W        W29832   2.925   9.860   1.885 -0.2565 -0.3116 -0.2768
    1W        W29833  23.874  12.339   3.383  0.1848 -0.2547  0.0242
    1W        W29834  13.832  26.579   1.957  0.1871  0.0489  0.1268
    1W        W29835  17.839  19.048   7.078  0.1445 -0.1455  0.1005
    1W        W29836  22.603  17.621   2.079 -0.1899  0.1847 -0.2558
    1W        W29837   4.862   2.606   4.211 -0.0776  0.3026 -0.3361
    1W        W29838   4.796  22.584   8.841 -0.0710 -0.0714 -0.1733
    1W        W29839   7.150  15.407   0.852 -0.1017  0.2235  0.1119
    1W        W29840  24.454  28.628   8.143  0.0234  0.1677 -0.1254
    1W        W29841  20.132   8.443   0.085 -0.0335 -0.1429 -0.0959
    1W        W29842   3.686  15.879   0.023  0.2430  0.0843  0.0871
    1W        W29843   5.821  21.983   9.458  0.2699 -0.0092  0.2961
    1W        W29844  16.609  12.288   7.267 -0.1988  0.0111  0.0791
    1W        W29845  15.754  26.986   7.419  0.1159  0.1615  0.0599
    1W        W29846  24.757  14.155   0.650 -0.0300 -0.1506  0.0476
    1W        W29847   5.372  21.656   9.470 -0.2928  0.1946  0.0106
    1W        W29848  21.343   3.435   0.247  0.0065 -0.0472 -0.1170
    1W        W29849  18.631  11.842   8.613  0.3978 -0.0514 -0.1792
    1W        W29850  25.055  26.007   1.135  0.0381 -0.1435 -0.1364
    1W        W29851  18.829   9.541   6.899 -0.4882 -0.0482 -0.0651
    1W        W29852  24.715  11.654   8.498  0.2925  0.1291 -0.1746
    1W        W29853  23.903  12.918   0.919 -0.1921  0.0336  0.0874
    1W        W29854  20.230  11.657   8.399  0.1758  0.0878  0.1514
    1W        W29855  27.742   7.367   0.667 -0.3979 -0.0088  0.1918
    1W        W29856  28.406   7.988   3.076  0.1575  0.0863 -0.0113
    1W        W29857   3.958   5.413   8.561  0.0075 -0.0532  0.1407
    1W        W29858  18.098  28.327   9.122 -0.0019  0.0002 -0.1205
    1W        W29859  16.033   6.489   0.076  0.1289 -0.4408 -0.0581
    1W        W29860  19.729  14.059   2.190 -0.0415 -0.0527 -0.1065
    1W        W29861   2.353   5.137   9.299  0.1397  0.0615 -0.1091
    1W        W29862  25.742   7.667   7.643  0.1336 -0.0374 -0.2689
    1W        W29863   9.260  20.044   7.918 -0.0726  0.0182 -0.3029
    1W        W29864  16.282  26.405   2.130 -0.1404 -0.2462 -0.1515
    1W        W29865   8.943  13.453   5.828  0.0587 -0.2120  0.0973
    1W        W29866  13.939  27.603   9.695  0.1593 -0.0655 -0.0951
    1W        W29867   6.697  24.629   7.502  0.0350 -0.4225 -0.0911
    1W        W29868  20.394  20.277   1.470  0.0581 -0.2980 -0.0707
    1W        W29869  19.735   1.005   8.751  0.1169  0.1143  0.0169
    1W        W29870  24.974  19.746   8.662  0.1246  0.3240  0.2068
    1W        W29871   8.063  21.937   0.166  0.0033 -0.2077  0.1919
    1W        W29872  17.675  24.846   2.584 -0.1105  0.1420  0.1447
    1W        W29873   1.496  19.224   2.327 -0.1629 -0.0777 -0.0906
    1W        W29874   4.896   3.971   2.455 -0.2089  0.0067  0.2691
    1W        W29875  27.974   9.432   2.371 -0.2831  0.0209  0.0555
    1W        W29876  12.519  15.809   7.272  0.0614 -0.1422 -0.2631
    1W        W29877  23.273  11.813   1.563  0.0508  0.0565 -0.1469
    1W        W29878  25.159   5.418   9.218 -0.2096  0.1840  0.3070
    1W        W29879  23.237  10.650   6.278 -0.2023  0.1208  0.2537
    1W        W29880  24.083   6.243   0.857  0.2067  0.2093  0.0197
    1W        W29881   5.950   8.482   2.197 -0.0748 -0.2968 -0.0009
    1W        W29882  12.678  17.490   1.840  0.0500 -0.2670  0.1264
    1W        W29883   2.645  18.610   0.021  0.1043 -0.0079 -0.0457
    1W        W29884  17.403   4.137   9.919 -0.2177  0.2431  0.2984
    1W        W29885  23.605   5.118   0.865 -0.2491  0.1490  0.0844
    1W        W29886  19.034   8.942   0.740  0.2730  0.0071  0.0626
    1W        W29887   7.228   7.618   6.919  0.0055  0.2203  0.4944
    1W        W29888  23.332   3.042   2.272 -0.0513 -0.3755 -0.1536
    1W        W29889   6.567  12.053   1.811 -0.1873  0.0217 -0.2849
    1W        W29890  24.110  13.909   9.657  0.0294 -0.0544  0.4168
    1W        W29891   7.252  21.460   0.727 -0.0065 -0.0471  0.0335
    1W        W29892  12.306  25.174   2.020 -0.1547 -0.1696 -0.2997
    1W        W29893  10.649   3.927   1.387 -0.1032  0.2196 -0.0453
    1W        W29894   8.715  15.787   7.004 -0.2583  0.1785 -0.0776
    1W        W29895  19.429  18.631   8.925  0.0036 -0.2512 -0.2825
    1W        W29896   2.594   0.265   3.865 -0.0073 -0.0489  0.0344
    1W        W29897  28.700   3.098   3.762 -0.1876 -0.0031 -0.0501
    1W        W29898   8.412  23.236   6.982  0.0818  0.2040 -0.0979
    1W        W29899   0.798   9.394   2.309 -0.1529  0.1131  0.1357
    1W        W29900  14.213  14.225   1.408 -0.1887 -0.1139  0.4881
    1W        W29901  13.134   5.805   9.157  0.0486  0.0255  0.1436
    1W        W29902  26.284  24.162   0.748 -0.1917  0.1513  0.1610
    1W        W29903  17.555  26.421   8.769 -0.2362 -0.3373 -0.2648
    1W        W29904  24.978  28.545   9.346 -0.3681  0.0548 -0.0716
    1W        W29905   5.438   8.645   0.425  0.0667 -0.0660  0.0392
    1W        W29906   1.019  12.574   7.425  0.4331 -0.1612 -0.0356
    1W        W29907  26.955  22.772   9.724 -0.0934  0.2050 -0.0242
    1W        W29908   9.534  15.136   1.200 -0.2936 -0.0747  0.4739
    1W        W29909   4.973   5.299   1.464  0.2622  0.2370  0.2159
    1W        W29910  20.914   6.834   0.612 -0.0337  0.1075 -0.0553
    1W        W29911  22.257  21.800   2.158  0.0766 -0.0025  0.1461
    1W        W29912   3.154   9.025   7.628 -0.1958  0.1906 -0.1169
    1W        W29913  23.059   0.114   7.759  0.0617 -0.1111 -0.1772
    1W        W29914  27.236  12.331   8.958 -0.0768  0.0662 -0.1668
    1W        W29915  21.358  10.140   7.603  0.0712 -0.0451 -0.0705
    1W        W29916   4.327  20.291   1.929  0.1650 -0.0608  0.0931
    1W        W29917  16.509  11.242   7.722 -0.3560 -0.0441  0.0849
    1W        W29918   8.627  15.472   9.192  0.1315  0.1903  0.2389
    1W        W29919   1.182  25.097   4.474 -0.1319 -0.1331  0.1689
    1W        W29920   7.987  25.945   3.092  0.2772 -0.2690  0.1079
    1W        W29921   7.205  13.311   7.862 -0.1230  0.2007  0.2282
    1W        W29922   7.466   7.516   1.092  0.4593  0.0397 -0.2284
    1W        W29923  14.922  19.956   7.429  0.1865  0.1619  0.1335
    1W        W29924   0.777   8.634   2.591  0.3161  0.2985 -0.0853
    1W        W29925  13.623  13.271   1.547 -0.0497  0.3520  0.0054
    1W        W29926  28.145  21.525   3.602 -0.1052  0.1342 -0.2505
    1W        W29927  21.525   8.640   7.688  0.0645 -0.3687 -0.0283
    1W        W29928  22.357   9.129   7.710  0.2045  0.2958  0.1423
    1W        W29929  26.511  10.760   8.465 -0.0873 -0.0537  0.0298
    1W        W29930   3.071  15.851   7.990  0.1037 -0.0781  0.0339
    1W        W29931  16.263   1.721   6.852  0.3431 -0.1655  0.1072
    1W        W29932  23.570  15.004   6.765  0.1007 -0.0390 -0.3132
    1W        W29933  17.860  20.218   8.914  0.0557 -0.4296  0.0580
    1W        W29934  18.934  10.052   1.684  0.0523  0.3467 -0.1531
    1W        W29935  17.729  16.856   9.342  0.1306  0.1735  0.0960
    1W        W29936   5.911  13.393   8.674 -0.0024  0.2233 -0.1328
    1W        W29937  18.318   9.227   7.679 -0.1041  0.0245  0.0391
    1W        W29938   5.730  24.915   0.556  0.3970 -0.2333  0.0099
    1W        W29939  27.974  23.917   8.704  0.3112  0.1641 -0.0771
    1W        W29940  13.087  25.636   8.282 -0.0086  0.1152  0.5449
    1W        W29941  27.861  19.586   8.517 -0.0827  0.0545  0.2511
    1W        W29942  15.477  11.020   9.520 -0.0802  0.1975  0.0803
    1W        W29943  10.561   3.488   2.268 -0.0457 -0.2628  0.2025
    1W        W29944  13.078   0.781   0.909 -0.1377  0.1855 -0.0354
    1W        W29945   3.554  12.157   0.631 -0.0167  0.1237 -0.0301
    1W        W29946  16.887  24.524   0.562  0.0084  0.3662 -0.1647
    1W        W29947   6.137   2.111   1.301 -0.3714 -0.0245  0.0272
    1W        W29948  28.270   9.978   3.820 -0.0032 -0.1782 -0.0496
    1W        W29949  20.669  22.618   7.451  0.0696  0.0446  0.0581
    1W        W29950  15.108   5.779   6.610  0.0916 -0.2693  0.2624
    1W        W29951   8.598   5.799   2.111 -0.0482  0.0037 -0.2070
    1W        W29952  15.543  25.166   8.524  0.1574  0.0733  0.0393
    1W        W29953   2.954   5.781   8.382 -0.0261 -0.0060  0.3415
    1W        W29954  18.075  24.740   7.256 -0.1142  0.0934  0.3635
    1W        W29955  21.330   6.971   0.236 -0.1754 -0.1147 -0.0443
    1W        W29956   1.564   0.627   2.778  0.0509 -0.0024 -0.0018
    1W        W29957   6.401  19.430   7.697  0.1992  0.1349 -0.1248
    1W        W29958  19.759   2.563   6.993  0.0755  0.0637  0.1042
    1W        W29959  10.896  24.408   9.067 -0.1676 -0.1795 -0.3151
    1W        W29960  10.458  16.914   9.500  0.2281 -0.1145 -0.1471
    1W        W29961   7.043   8.285   7.631  0.0318 -0.2251 -0.1167
    1W        W29962  19.131   1.566   7.315 -0.3616  0.0312 -0.2267
    1W        W29963  12.618  17.747   2.296 -0.2793 -0.4122  0.2927
    1W        W29964   3.893   6.619   3.222 -0.1389 -0.2363 -0.0304
    1W        W29965  25.788   7.493   1.104  0.2588 -0.1217 -0.1111
    1W        W29966   9.881   5.068   0.969  0.0876  0.2145 -0.2999
    1W        W29967   0.833   7.749   3.281 -0.0054  0.3210 -0.1249
    1W        W29968   8.947  13.035   8.205 -0.2004 -0.3415 -0.1263
    1W        W29969   9.353  10.333   7.703  0.2205 -0.0975  0.0120
    1W        W29970  23.345   6.895   2.126  0.0550 -0.0475  0.1506
    1W        W29971  12.300   0.627   8.124  0.1610  0.2495  0.0741
    1W        W29972   5.598  10.094   7.440 -0.3569 -0.2027  0.1166
    1W        W29973   4.528   1.279   2.505  0.0881 -0.0511 -0.0681
    1W        W29974  10.743   2.983   1.563 -0.1397 -0.1299 -0.0142
    1W        W29975   4.378  23.751   8.278 -0.2407  0.0755  0.0929
    1W        W29976  24.508  19.579   8.800 -0.1393 -0.1936  0.1770
    1W        W29977  12.557   1.442   9.379 -0.4005  0.2407 -0.2327
    1W        W29978  13.457  10.902   8.379  0.0539  0.1938  0.0376
    1W        W29979   0.882  16.831   0.362 -0.2298  0.0114 -0.2621
    1W        W29980   2.128   1.885   8.662  0.2069 -0.2789  0.1099
    1W        W29981  12.243  15.272   7.993 -0.3017  0.2597  0.1417
    1W        W29982   9.189  16.389   2.069 -0.0990 -0.3091  0.0414
    1W        W29983  15.884  13.917   8.485  0.1520  0.1161 -0.1479
    1W        W29984  25.609   6.031   8.525 -0.4791  0.0768 -0.0063
    1W        W29985  10.079   3.465   2.171 -0.0237 -0.1439  0.1342
    1W        W29986  12.447   9.395   6.135  0.1924  0.0025  0.1772
    1W        W29987  24.484  12.832   1.783  0.2124 -0.0166 -0.3631
    1W        W29988  24.557  24.370   9.775  0.1571 -0.4193 -0.0275
    1W        W29989   5.291  20.870   8.630  0.2246  0.0910  0.1440
    1W        W29990  21.825  14.938   0.024 -0.0321  0.2403  0.2890
    1W        W29991  12.656  14.338   6.880  0.1350 -0.0675 -0.0094
    1W        W29992  19.757  19.331   9.436  0.2308 -0.2092 -0.4090
    1W        W29993  28.608   9.361   3.987  0.0698 -0.1335  0.2131
    1W        W29994  18.774  15.100   8.419 -0.3925 -0.0599 -0.0397
    1W        W29995   1.952   8.987   2.137 -0.1756 -0.0154  0.1572
    1W        W29996  24.334  21.306   7.465  0.1541  0.4560  0.0814
    1W        W29997  28.195  16.441   2.427 -0.2662  0.0839 -0.0082
    1W        W29998  19.232   2.489   0.823 -0.2204  0.0957 -0.4016
    1W        W29999  18.746   8.537   0.816  0.1891 -0.1883 -0.1490
    1W        W30000   5.439   7.322   2.945 -0.2538  0.0953  0.0707
    1W        W30001   6.842  13.378   1.653 -0.0301 -0.2146  0.2786
    1W        W30002   0.051   2.648   3.649  0.1529  0.0206 -0.2403
    1W        W30003  22.107   6.979   7.391 -0.0286  0.1457  0.0417
    1W        W30004  12.157  22.789   7.831 -0.2147 -0.1733  0.2200
    1W        W30005   4.177  27.520   9.718 -0.1158  0.0738 -0.0580
    1W        W30006   6.183  15.905   0.998 -0.2274  0.1533 -0.0237
    1W        W30007  18.034  13.861   1.077  0.1685  0.0516 -0.0500
    1W        W30008  19.441   3.988   7.394  0.1282 -0.1320 -0.1355
    1W        W30009  19.377  18.889   6.004 -0.2736  0.0797 -0.0795
    1W        W30010  22.868  23.079   1.060 -0.5189  0.1422  0.0069
    1W        W30011   0.983   3.278   8.628 -0.1276  0.1353  0.1213
    1W        W30012  22.705  12.142   7.895  0.1388 -0.3045  0.1644
    1W        W30013   5.275  23.933   8.088  0.1351  0.3233 -0.0461
    1W        W30014  25.551   6.067   3.325  0.1788 -0.1807  0.4264
    1W        W30015   2.873  10.943   2.183 -0.3100  0.3307  0.2698
    1W        W30016  12.056  27.370   7.577 -0.1983  0.1048  0.0706
    1W        W30017  12.859  25.388   0.432  0.0272 -0.0714  0.3799
    1W        W30018   8.990   9.726   0.041  0.1518  0.1391 -0.2460
    1W        W30019  26.770  27.461   8.328  0.2003  0.2601 -0.2299
    1W        W30020  15.689  23.871   8.722 -0.2423 -0.2769  0.1975
    1W        W30021  15.305   5.580   5.394 -0.0160  0.0408 -0.0787
    1W        W30022  15.346   0.620   9.362  0.3634  0.2150  0.2805
    1W        W30023  10.976   6.413   7.995  0.0980 -0.2201 -0.1179
    1W        W30024   0.368  22.289   8.724 -0.2241  0.1193  0.0830
    1W        W30025  10.816   8.382   6.928  0.1015 -0.1428 -0.2469
    1W        W30026  24.708  14.060   8.128  0.3462 -0.0388  0.2150
    1W        W30027  19.923   1.013   1.795  0.0093  0.2281  0.1020
    1W        W30028  10.528  25.967   0.513 -0.0893  0.0828 -0.1189
    1W        W30029  24.260   0.756   7.794 -0.3433  0.0596 -0.0079
    1W        W30030   9.672  21.556   6.770  0.0261 -0.0638  0.2046
    1W        W30031  28.511   3.666   9.043 -0.0128  0.1937  0.0630
    1W        W30032   8.678  15.020   2.469  0.2640 -0.1655  0.3505
    1W        W30033  13.308  23.061   0.580 -0.0227 -0.3161 -0.0833
    1W        W30034   9.049  15.878   6.077 -0.0418  0.1670  0.1688
    1W        W30035  14.413  13.060   0.847 -0.4111  0.0274  0.0527
    1W        W30036  10.541   7.148   0.800 -0.2367  0.1337  0.3078
    1W        W30037   7.954  28.610   8.527  0.2660 -0.0084  0.2206
    1W        W30038  20.051  26.863   1.713 -0.0518 -0.0824  0.0059
    1W        W30039  16.412  21.070   9.255 -0.3074  0.0657  0.0104
    1W        W30040  22.688  27.115   1.164 -0.0863  0.1308 -0.0224
    1W        W30041  15.477   9.359   8.712  0.1515  0.1069 -0.2057
    1W        W30042  26.048  26.484   0.620  0.0177 -0.0828 -0.0035
    1W        W30043  26.813   4.696   0.290  0.4056 -0.0550  0.0871
    1W        W30044  25.180   0.049   2.498  0.0124 -0.1379  0.0217
    1W        W30045  15.943  10.048   1.265  0.0103 -0.0230  0.2709
    1W        W30046  12.203   6.178   8.620 -0.0464  0.1078 -0.0211
    1W        W30047  12.897   0.401   6.316 -0.3432 -0.0412 -0.2768
    1W        W30048  18.415   3.980   8.535  0.0397 -0.1247 -0.0496
    1W        W30049  13.816   7.488   9.861 -0.2744 -0.1084  0.1382
    1W        W30050  25.203   3.645   0.415  0.2391  0.0887 -0.0456
    1W        W30051  19.846  22.058   3.074 -0.1190 -0.0629  0.0112
    1W        W30052   8.942  25.780   9.176 -0.0066 -0.1035  0.1219
    1W        W30053  25.182  11.963   9.915 -0.0964  0.1180 -0.1792
    1W        W30054   3.636   5.574   3.713 -0.1525 -0.0360  0.2704
    1W        W30055   7.859  24.472   9.766  0.1216  0.1182  0.1531
    1W        W30056  21.651   1.490   0.203 -0.1107 -0.1419 -0.0361
    1W        W30057   7.224  27.663   8.014  0.1291  0.1032 -0.0131
    1W        W30058  10.468  23.214   6.792  0.1913 -0.0142  0.0774
    1W        W30059  12.161   4.732   9.422  0.0606  0.1205 -0.1453
    1W        W30060  24.018   2.223   2.424  0.2959 -0.1670 -0.2488
    1W        W30061  19.835   7.801   0.886  0.0715  0.2216  0.0168
    1W        W30062  25.456  18.862   9.189  0.1383 -0.1918  0.0339
    1W        W30063  17.174   7.533   0.686 -0.1476 -0.0051 -0.0362
    1W        W30064  15.505   1.376   1.411 -0.0798 -0.0730 -0.0877
    1W        W30065   9.506  24.939   3.245  0.0004 -0.1735 -0.0217
    1W        W30066   8.096  12.821   5.636 -0.1653 -0.0318 -0.1613
    1W        W30067  15.121  12.617   5.653  0.0163  0.2632 -0.0517
    1W        W30068   1.282  10.180   2.028  0.1058  0.1137  0.1810
    1W        W30069  25.602  16.762   2.956 -0.2928  0.4226 -0.1955
    1W        W30070  16.099  15.516   7.872 -0.0154  0.0346 -0.2555
    1W        W30071  22.219  12.635   7.822  0.0769 -0.0886  0.0248
    1W        W30072  28.589  23.031   0.296 -0.2304 -0.0899  0.0753
    1W        W30073   3.201  17.563   2.220 -0.1515  0.1343  0.1253
    1W        W30074   7.842  20.348   1.057  0.0984 -0.0789  0.1178
    1W        W30075   1.717  22.366   2.618 -0.3606 -0.4007 -0.1173
    1W        W30076   7.279  14.781   8.246  0.1593 -0.0421  0.1146
    1W        W30077   1.757  23.503   7.917 -0.1067  0.2685 -0.5476
    1W        W30078  11.600   5.547   1.530  0.1405 -0.1962  0.1280
    1W        W30079  11.323  27.116   7.543  0.3418 -0.0623  0.2373
    1W        W30080  15.040  13.635   6.878 -0.1127  0.1138  0.0683
    1W        W30081  17.985  14.096   1.617 -0.1560  0.1369  0.1082
    1W        W30082  10.564  14.698   2.182  0.0975  0.0739  0.2482
    1W        W30083   1.084  25.210   7.753 -0.0135  0.1011 -0.0196
    1W        W30084  12.518   9.287   0.558 -0.1123 -0.0483  0.3191
    1W        W30085  17.135   0.803   7.205  0.0114 -0.0251 -0.0477
    1W        W30086   7.596  20.776   9.617  0.0688  0.2138  0.1029
    1W        W30087  16.715   4.374   1.397  0.3232  0.2331 -0.0658
    1W        W30088  26.020  18.018   9.990 -0.2003  0.2624  0.1905
    1W        W30089  12.116  26.862   9.561 -0.1704 -0.1894  0.0693
    1W        W30090   0.735  14.709   2.826 -0.4211  0.2202 -0.0186
    1W        W30091   4.699  26.920   3.014 -0.1231 -0.0608  0.0737
    1W        W30092  13.791  28.662   1.452 -0.2278  0.1165  0.1682
    1W        W30093  17.739  25.815   7.376  0.1858 -0.1976  0.0029
    1W        W30094  23.920   4.015   8.237 -0.1627 -0.0963 -0.2165
    1W        W30095   8.390  26.693   2.874  0.2763  0.0363 -0.0991
    1W        W30096  19.351  14.591   0.439  0.1350 -0.0361 -0.0325
    1W        W30097  20.708   5.219   9.839  0.1415  0.2264 -0.0136
    1W        W30098   8.275  12.778   0.192  0.0937  0.5333  0.2362
    1W        W30099  18.601   1.369   8.142 -0.0615  0.0111 -0.1169
    1W        W30100  16.211  24.341   9.471 -0.2473  0.1341 -0.1080
    1W        W30101  15.795   6.007   6.191 -0.1136 -0.0279  0.3372
    1W        W30102   1.979   7.222   7.757 -0.0880 -0.1221  0.0944
    1W        W30103  27.216   6.252   1.841 -0.1692  0.0106  0.2230
    1W        W30104   1.214  13.253   8.858  0.2956  0.2172  0.1060
    1W        W30105  23.669  12.295   9.521  0.0329 -0.2027  0.3107
    1W        W30106  16.719  23.568   1.869 -0.1014 -0.0381 -0.1586
    1W        W30107  17.284  26.872   8.809  0.0778  0.2619  0.2294
    1W        W30108   9.691   8.893   5.727  0.1833  0.1273 -0.1509
    1W        W30109   9.821   7.891   6.069 -0.1308 -0.1391 -0.0059
    1W        W30110  28.829   5.290   1.105 -0.0934 -0.1810 -0.1941
    1W        W30111   8.311  11.315  10.000 -0.0121 -0.1772 -0.0180
    1W        W30112  19.181   2.238   0.307 -0.0110 -0.2430 -0.2341
    1W        W30113  12.037  23.983   3.293  0.1769  0.2727  0.1535
    1W        W30114  28.619  19.384   2.702 -0.1209  0.0575  0.2660
    1W        W30115   5.719  14.089   7.209 -0.0928 -0.0239  0.1910
    1W        W30116   6.635  28.562   0.699 -0.0552  0.0427  0.0028
    1W        W30117  22.112   8.723   9.353 -0.2092 -0.3307  0.0468
    1W        W30118  19.517  22.032   7.368 -0.1906  0.0658  0.1100
    1W        W30119   0.380   6.001   3.190  0.0671  0.2009  0.0220
    1W        W30120  22.348  23.487   8.841  0.1961  0.1318  0.2600
    1W        W30121  18.882  14.473   9.258  0.0826  0.0192 -0.0205
    1W        W30122  22.999  17.734   8.297 -0.0926 -0.1650 -0.1287
    1W        W30123  17.670   8.135   1.302 -0.3970  0.0218 -0.0600
    1W        W30124   5.237   9.827   9.361  0.1306  0.2216 -0.2642
    1W        W30125   0.445  20.004   2.004  0.0586 -0.2103  0.0093
    1W        W30126  11.182  24.141   8.148  0.1655 -0.1883 -0.0516
    1W        W30127   4.914  28.715   9.010 -0.0210 -0.0500 -0.1559
    1W        W30128  28.651   7.008   9.224 -0.2208 -0.0116 -0.4944
    1W        W30129   4.309  14.816   1.089 -0.3221 -0.1099  0.4958
    1W        W30130   4.842  19.390   2.888  0.1055  0.0213 -0.1716
    1W        W30131  23.214   6.887   7.208  0.0339 -0.2975  0.2371
    1W        W30132   3.244   3.291   9.637 -0.1385 -0.1506  0.0217
    1W        W30133   7.304  12.080   7.984 -0.4905 -0.1582  0.1044
    1W        W30134   1.436   7.372   1.768  0.2977  0.1189  0.0019
    1W        W30135  21.768   5.147   1.408  0.1376  0.0210 -0.1430
    1W        W30136  23.485   3.121   0.650  0.0001 -0.1688 -0.0782
    1W        W30137   4.499  10.343   0.325  0.2151  0.1215 -0.1349
    1W        W30138  14.593  16.814   1.365 -0.3106  0.0971  0.2801
    1W        W30139  21.441  12.391   8.271  0.2872  0.0350 -0.2370
    1W        W30140   9.802  25.817   3.680 -0.1702  0.2739 -0.0450
    1W        W30141  13.444  24.077   9.121 -0.2322  0.1930 -0.1394
    1W        W30142  11.892  16.940   1.186 -0.0419 -0.0811  0.1375
    1W        W30143   9.702  18.093   1.988 -0.1050 -0.0053  0.0665
    1W        W30144  14.907  14.958   0.250 -0.0247 -0.1123 -0.2928
    1W        W30145   8.040  10.840   1.576 -0.1439  0.0693 -0.2446
    1W        W30146   1.484  18.868   1.001  0.1669 -0.0619  0.0768
    1W        W30147  21.378  26.311   7.341 -0.2695 -0.0320 -0.0428
    1W        W30148  12.117  14.302   0.968  0.0192  0.3547  0.0535
    1W        W30149  10.212   2.158   7.346 -0.0777  0.0222  0.0835
    1W        W30150  15.506  14.788   7.414 -0.0140 -0.3078  0.4503
    1W        W30151   5.150  28.793   9.987 -0.2036  0.2077  0.0798
    1W        W30152  22.201   6.742   0.030  0.0475  0.1315  0.0359
    1W        W30153  18.015   3.099   0.292  0.1159 -0.2198 -0.1064
    1W        W30154  11.628  25.082   7.214  0.1187 -0.1304  0.1686
    1W        W30155  15.985  21.038   7.424 -0.0282  0.1344 -0.0475
    1W        W30156  10.460  13.814   0.528  0.1133 -0.1983  0.4915
    1W        W30157  24.897  28.743   2.864 -0.1034  0.2194 -0.0066
    1W        W30158  19.791  14.383   0.675 -0.0735  0.1392 -0.2421
    1W        W30159   2.915   1.414   1.360 -0.2289 -0.1291  0.3837
    1W        W30160  12.117   7.392   5.260 -0.1031 -0.2305  0.0779
    1W        W30161  14.342  26.438   0.690 -0.1915 -0.0868  0.3580
    1W        W30162  10.309  22.252   0.020 -0.0983  0.2578  0.0165
    1W        W30163  13.623   3.015   8.995 -0.1240  0.1795 -0.1673
    1W        W30164  19.445   3.335   0.855  0.0648  0.2056 -0.0090
    1W        W30165  10.987  16.025   2.269  0.1841 -0.0635 -0.1516
    1W        W30166  21.585  20.736   2.075  0.1948 -0.0835 -0.0358
    1W        W30167   8.474  16.947   9.944  0.2812 -0.1024 -0.2459
    1W        W30168  28.450  21.950   4.063 -0.0754 -0.0872 -0.1673
    1W        W30169   0.254   7.377   9.794  0.0423 -0.0148  0.0111
    1W        W30170  14.866  22.402   8.280 -0.0809 -0.0857  0.0339
    1W        W30171   6.839  25.105   1.288  0.1224 -0.1193  0.1749
    1W        W30172  21.503  22.298   0.445  0.1553 -0.0321  0.1385
    1W        W30173   7.688  21.667   3.396 -0.2127 -0.0728 -0.1283
    1W        W30174  18.105   2.135   7.832 -0.0417 -0.2179  0.0666
    1W        W30175  13.159  19.642   0.453 -0.2795 -0.0764  0.1483
    1W        W30176  14.625  16.340   7.418  0.0328  0.4705 -0.3389
    1W        W30177   3.576  27.044   2.089  0.2874  0.1543 -0.2001
    1W        W30178  16.764   4.084   9.290  0.1083 -0.2027 -0.1043
    1W        W30179  19.176   8.547   6.567 -0.3762  0.2615 -0.1414
    1W        W30180   8.669  17.972   1.504  0.1536  0.0710 -0.1083
    1W        W30181  23.645  27.549   8.401  0.2028  0.0292  0.0642
    1W        W30182  19.682   7.000   6.069 -0.0260 -0.1867  0.0311
    1W        W30183  26.125  14.005   9.401 -0.0070 -0.2297 -0.0918
    1W        W30184  22.599  13.497   0.167  0.1606 -0.4071  0.1178
    1W        W30185  11.799   3.157   0.540 -0.1926  0.3353  0.2105
    1W        W30186   1.345  21.540   9.712 -0.0633  0.2647 -0.1449
    1W        W30187  23.083  18.892   2.942 -0.0823 -0.3346  0.0840
    1W        W30188  26.644   3.166   0.785 -0.0158 -0.3126 -0.1280
    1W        W30189  11.630  27.441   7.840  0.1281 -0.2428 -0.1760
    1W        W30190  16.159  26.147   0.746  0.1710  0.0745 -0.0762
    1W        W30191  25.852   1.241   3.965  0.1721 -0.1580  0.2041
    1W        W30192   5.531  10.425   0.472 -0.1478  0.2829  0.2244
    1W        W30193  17.166   2.247   7.533 -0.0179 -0.0887  0.0720
    1W        W30194  27.486  13.665   1.728  0.2083  0.1662  0.2602
    1W        W30195  10.911  23.939   2.558 -0.0760 -0.0428 -0.0695
    1W        W30196  16.441  10.872   0.040 -0.1400  0.2022 -0.1951
    1W        W30197  11.347  13.285   1.191 -0.0541 -0.1745 -0.0722
    1W        W30198  25.474   9.557   8.077 -0.0740  0.5086 -0.3158
    1W        W30199  25.864   4.730   0.036  0.0639  0.2245  0.2026
    1W        W30200   4.372  15.708   8.463 -0.4518 -0.1900 -0.3510
    1W        W30201  25.629  13.226   0.713  0.1947  0.0220 -0.3187
    1W        W30202   6.137  17.225   8.495 -0.5348 -0.0045  0.1397
    1W        W30203  25.897  24.897   3.571  0.1097 -0.0081 -0.1088
    1W        W30204  24.248   7.124   0.122  0.1323  0.0381  0.1768
    1W        W30205  26.098  15.431   3.116  0.2795  0.0992  0.0556
    1W        W30206  15.030  12.818   1.510  0.0204 -0.0117  0.0456
    1W        W30207   8.314  17.302   8.525  0.1675 -0.2754  0.1004
    1W        W30208   5.799  24.723   2.744  0.0513 -0.0357  0.1074
    1W        W30209  26.793   2.388   0.436  0.2114  0.0350 -0.0254
    1W        W30210  11.221  22.627   9.077 -0.1853  0.0923  0.0667
    1W        W30211  18.882  19.211   1.249  0.0629  0.0948  0.2808
    1W        W30212  10.509   6.779   9.568  0.0242  0.0542 -0.3278
    1W        W30213  20.317   5.055   1.610  0.0158 -0.1803 -0.0433
    1W        W30214  23.740   2.383   1.778 -0.0440  0.0644 -0.1026
    1W        W30215  24.358  24.861   9.127  0.2356  0.2060 -0.0055
    1W        W30216  27.442  26.177   9.937 -0.1638  0.3276 -0.0445
    1W        W30217  25.045  25.608   1.984  0.0376  0.0976 -0.0915
    1W        W30218   7.813   6.283   7.385  0.1689 -0.1191  0.0382
    1W        W30219  22.828  10.015   7.911  0.1942 -0.0237 -0.1460
    1W        W30220  23.040  16.136   0.663 -0.4303 -0.0812 -0.0391
    1W        W30221   4.599   4.561   3.375  0.0535  0.1238 -0.0493
    1W        W30222   2.506   4.701   2.446  0.1051 -0.0892 -0.3739
    1W        W30223  24.096   4.899   1.802  0.0166  0.3021  0.2620
    1W        W30224   1.409   8.591   0.144 -0.1016 -0.3591  0.0354
    1W        W30225  19.477  11.403   8.748  0.4118 -0.0727  0.0909
    1W        W30226  16.755  26.945   7.456  0.4200  0.1356  0.0492
    1W        W30227   7.451   8.579   2.182  0.4217 -0.2178  0.0728
    1W        W30228  18.177  13.032   8.091  0.1292 -0.2686 -0.2682
    1W        W30229  21.052   6.476   0.129 -0.0938 -0.0328  0.1681
    1W        W30230   0.817   3.068   9.988 -0.2524 -0.0711  0.0954
    1W        W30231  23.450  21.204   6.660  0.2116  0.2666  0.0179
    1W        W30232   7.465  25.741   2.334  0.2075  0.2507 -0.2500
    1W        W30233   3.633  24.188   9.372 -0.0111  0.1075  0.2059
    1W        W30234   2.532  24.716   0.266 -0.1972  0.0401 -0.1621
    1W        W30235  13.040   7.705   6.971 -0.0629  0.0121  0.0035
    1W        W30236  24.710   3.348   7.103 -0.0472 -0.1045  0.0456
    1W        W30237  16.265   2.257   1.181 -0.0520 -0.1490  0.5109
    1W        W30238   7.857   2.090   2.985 -0.0511 -0.3348 -0.1355
    1W        W30239  13.360  25.340   0.532  0.5118 -0.1226 -0.3190
    1W        W30240  19.779   4.293   0.107 -0.1797 -0.1225 -0.0083
    1W        W30241  25.673  19.423   1.048 -0.2917  0.2077  0.1326
    1W        W30242  20.776   0.620   9.679 -0.0975  0.0446 -0.0213
    1W        W30243  21.541  11.452   2.252 -0.1806 -0.1790 -0.1898
    1W        W30244   4.985  26.086   9.637 -0.0716 -0.0143 -0.0397
    1W        W30245  14.827   2.214   7.907  0.2293  0.1032 -0.4241
    1W        W30246   0.469  13.015   1.313  0.1035  0.0651  0.1321
    1W        W30247  12.905  25.076   7.347 -0.2734 -0.0255  0.1993
    1W        W30248   5.629  16.926   2.248  0.2644  0.1835  0.0407
    1W        W30249  19.482  15.254   1.983  0.0553 -0.1369 -0.1118
    1W        W30250  27.271   0.330   9.264 -0.2482  0.0185 -0.0679
    1W        W30251  13.930  26.352   1.309  0.1732 -0.1476 -0.2096
    1W        W30252   3.814  20.406   7.232  0.1142 -0.1082 -0.1091
    1W        W30253  18.307   8.641   7.910  0.0962 -0.2091  0.0964
    1W        W30254  15.556  28.607   2.276  0.0436 -0.1091 -0.0725
    1W        W30255  27.333  26.723   2.721 -0.0192  0.1593 -0.1032
    1W        W30256  17.364  11.756   0.551  0.0970  0.1573 -0.1581
    1W        W30257  12.510  28.839   2.455  0.0817 -0.0192  0.0371
    1W        W30258   3.697  17.993   3.487 -0.1019  0.0370  0.0846
    1W        W30259  18.880   5.008   1.512 -0.2499  0.1010  0.2074
    1W        W30260   4.938  17.275   9.550  0.2929  0.0307  0.3515
    1W        W30261   0.763  28.853   3.306  0.0903 -0.1549  0.0466
    1W        W30262  16.540   0.847   7.889 -0.4164  0.1560 -0.0657
    1W        W30263  18.668  27.230   8.473  0.0259 -0.1560  0.0146
    1W        W30264   1.559   3.826   0.275  0.1458  0.0814 -0.0999
    1W        W30265   6.857   1.111   9.818 -0.2884  0.1914 -0.0367
    1W        W30266   7.225  10.733   0.057 -0.1391 -0.0897 -0.2074
    1W        W30267  20.954  22.279   8.720  0.0782  0.0346  0.2583
    1W        W30268   4.801   4.461   0.833 -0.1649 -0.0722 -0.0598
    1W        W30269   5.216  11.076   1.098  0.3388  0.1343 -0.0258
    1W        W30270  24.630  21.011   8.484  0.0095  0.0319  0.0746
    1W        W30271  26.311   6.644   3.298  0.0773 -0.0421  0.0943
    1W        W30272  18.811   4.697   1.095 -0.0579 -0.0808 -0.1359
    1W        W30273  28.083   0.894   8.931  0.2728 -0.2950 -0.1958
    1W        W30274  20.168  19.975   7.243 -0.2296  0.0027 -0.0448
    1W        W30275  16.708  20.029   9.554  0.1342 -0.0237 -0.0384
    1W        W30276  22.282  22.883   0.447  0.1010 -0.0448 -0.1116
    1W        W30277  21.660   5.218   6.579  0.4666 -0.1102 -0.2243
    1W        W30278  10.988  13.842   1.275 -0.2992 -0.3057  0.0248
    1W        W30279  16.403  18.149   2.790  0.1097  0.3034 -0.0897
    1W        W30280  25.091   2.309   8.791 -0.0168 -0.1805  0.4180
    1W        W30281  11.649  22.978   2.442 -0.0643  0.3412 -0.0076
    1W        W30282  27.536  23.222   7.548  0.1828  0.0271  0.2673
    1W        W30283  17.240  11.828   7.665  0.3979 -0.3491 -0.1680
    1W        W30284  10.171  13.752   9.124 -0.0576  0.3305  0.0968
    1W        W30285  24.647  26.923   1.660 -0.1388 -0.1922  0.0534
    1W        W30286  23.657   6.427   1.080  0.0407  0.1070 -0.1977
    1W        W30287  11.762  28.727   0.134 -0.1334 -0.0216  0.1602
    1W        W30288   8.411   6.617   7.947 -0.1046  0.1456 -0.1132
    1W        W30289  17.471  21.204   7.636 -0.0407 -0.2760 -0.1794
    1W        W30290  27.461   1.856   0.210 -0.2042  0.0507  0.2852
    1W        W30291   6.659  24.433   3.395  0.2335 -0.0492  0.0520
    1W        W30292  28.496  13.168   2.818 -0.0333 -0.0663  0.0732
    1W        W30293   7.874   6.363   2.134 -0.1614  0.1157 -0.2308
    1W        W30294  21.019  11.737   6.512 -0.1556 -0.1700  0.1025
    1W        W30295  14.439  26.132   1.674  0.1381  0.2851  0.0017
    1W        W30296   9.986   7.009   9.880  0.0752  0.1867 -0.2212
    1W        W30297  12.621  21.556   7.711  0.1735  0.1336 -0.1934
    1W        W30298  15.025  20.086   9.365 -0.2398 -0.2767  0.2898
    1W        W30299   1.533   4.836   9.341 -0.0683  0.0896  0.2317
    1W        W30300   7.301  22.896   2.903  0.1556  0.0406  0.2990
    1W        W30301   4.298   5.689   4.168 -0.0280  0.1688 -0.0940
    1W        W30302  27.051  22.127   0.731  0.1650  0.2078  0.0460
    1W        W30303  12.282   4.663   1.756 -0.0050 -0.2866  0.1398
    1W        W30304   9.004   1.716   9.620 -0.3720  0.1710  0.0491
    1W        W30305  20.253  11.011   0.259  0.2554 -0.0096 -0.0165
    1W        W30306  18.595  13.207   0.536  0.2552 -0.0618  0.2291
    1W        W30307  14.114   7.633   0.605 -0.2252 -0.0011 -0.3769
    1W        W30308   7.435  18.799   6.870 -0.1411  0.2853  0.1058
    1W        W30309  22.700  20.305   0.503  0.1280  0.4735 -0.0428
    1W        W30310  12.144  19.141   0.874 -0.1149  0.0771 -0.2065
    1W        W30311  13.493  15.486   9.628 -0.0956  0.2158  0.0732
    1W        W30312  16.507  20.888   2.790  0.0392 -0.2574  0.0126
    1W        W30313  28.254   1.917   0.997  0.3042  0.0855 -0.2712
    1W        W30314  28.783  20.824   3.388 -0.0460  0.2177 -0.0907
    1W        W30315  11.099  12.842   8.620 -0.1347  0.1256  0.2180
    1W        W30316   3.536   3.089   3.919  0.1072 -0.3414  0.3216
    1W        W30317  22.163   4.287   1.622 -0.2290  0.3031  0.2302
    1W        W30318   6.033  18.328   0.453  0.1980 -0.3027 -0.3178
    1W        W30319  17.999  24.838   9.850  0.2353 -0.3556 -0.2207
    1W        W30320   4.099  11.928   7.939 -0.0004 -0.1655 -0.1701
    1W        W30321  17.714   5.898   8.852  0.4035  0.0552  0.0463
    1W        W30322   6.240   4.918   0.339 -0.4884  0.0668  0.3431
    1W        W30323  16.979  17.768   0.875  0.3280 -0.1207 -0.0774
    1W        W30324  22.560  15.941   0.502 -0.1946 -0.0018  0.0312
    1W        W30325  11.705   3.669   7.223 -0.1485  0.0212 -0.0230
    1W        W30326  20.341   9.310   0.327  0.1891  0.3178 -0.0568
    1W        W30327  17.559   8.881   1.628  0.1277 -0.0672 -0.0175
    1W        W30328  18.988   2.849   6.603 -0.0394  0.5544 -0.0777
    1W        W30329   1.254  28.270   8.264  0.1051  0.0618  0.1126
    1W        W30330  16.521   5.341   6.927 -0.1362 -0.0562 -0.0134
    1W        W30331  18.479  10.322   8.304  0.4005 -0.0511  0.1414
    1W        W30332  10.394  27.035   7.255 -0.1020 -0.1730 -0.2545
    1W        W30333  13.041  14.048   7.456 -0.0763  0.0851 -0.5346
    1W        W30334   1.195  18.382   1.850 -0.0271 -0.0837 -0.0719
    1W        W30335  17.179   3.325   7.990 -0.0834  0.0636  0.0282
    1W        W30336   8.286  13.165   9.580 -0.2327  0.2660  0.1442
    1W        W30337   4.139   2.453   3.898  0.1382  0.1550  0.2247
    1W        W30338   1.889   0.987   2.670 -0.0013  0.0905 -0.0796
    1W        W30339  18.878  22.609   0.694  0.2570  0.2904  0.3184
    1W        W30340  23.916   2.052   6.778 -0.0501  0.1280  0.0571
    1W        W30341   6.789  13.551   8.195  0.2518 -0.0218  0.3027
    1W        W30342  20.360   2.673   2.054 -0.5178  0.0875 -0.1308
    1W        W30343  20.583  11.232   9.251 -0.3628 -0.1503  0.2035
    1W        W30344  18.921  18.843   0.661 -0.0983  0.0640  0.0297
    1W        W30345  25.911   8.145   7.186 -0.0613  0.2127  0.0930
    1W        W30346  12.310  13.060   1.994 -0.2405  0.2309  0.2680
    1W        W30347  21.020   3.598   7.702 -0.2191 -0.0973  0.0400
    1W        W30348   4.875  15.893   9.769  0.0518 -0.4472 -0.2140
    1W        W30349  21.092   4.931   9.635 -0.2918  0.1415  0.3122
    1W        W30350  28.459  13.359   9.737  0.0918  0.3331  0.1307
    1W        W30351  23.605  16.052   0.987  0.0319  0.0233  0.0536
    1W        W30352  17.544   2.497   1.806 -0.1247 -0.1355  0.0400
    1W        W30353   6.807  25.228   0.051 -0.0096  0.0889  0.0074
    1W        W30354   9.920   9.404   0.060 -0.2457 -0.0198 -0.0789
    1W        W30355  12.629   9.793   6.441 -0.0240 -0.1089  0.0148
    1W        W30356   3.622  16.223   9.636 -0.0572 -0.3042 -0.1116
    1W        W30357  23.328  11.819   2.047 -0.1276 -0.2517 -0.2597
    1W        W30358   0.901  16.640   8.471 -0.1524  0.0614 -0.0050
    1W        W30359  27.854  25.276   1.531 -0.0821  0.0280  0.0505
    1W        W30360  15.109  20.294   8.565  0.0420 -0.1496 -0.0990
    1W        W30361  28.206  11.751   2.715  0.1053 -0.1285  0.2171
    1W        W30362  13.789   9.649   1.619  0.1738  0.3470  0.1695
    1W        W30363   4.066  10.167   7.587  0.1214  0.3883  0.0529
    1W        W30364   2.548   1.762   0.686 -0.2544 -0.1531  0.1372
    1W        W30365  21.900   0.539   7.513  0.2154  0.4690 -0.1465
    1W        W30366  19.320  19.420   6.733  0.2620  0.3133 -0.1236
    1W        W30367  21.803  15.026   8.587 -0.2803  0.1404 -0.3388
    1W        W30368   7.357  28.146   1.528  0.0207  0.1084  0.0893
    1W        W30369  14.089   2.112   1.590 -0.2152 -0.0079  0.1843
    1W        W30370  12.283  27.690   8.869  0.0897 -0.0753 -0.1048
    1W        W30371  13.504  27.843   0.191  0.0462 -0.0830 -0.1669
    1W        W30372  16.578  14.660   9.310  0.1604 -0.0560 -0.1420
    1W        W30373   3.620  23.809   8.666  0.1024 -0.0736  0.2398
    1W        W30374   6.363  24.350   9.046 -0.2874  0.0981  0.1238
    1W        W30375   6.527   7.993   6.980  0.0580 -0.5601 -0.0655
    1W        W30376  24.166  25.219   3.809 -0.0500 -0.0164 -0.3095
    1W        W30377   9.991  16.163   2.121 -0.1552 -0.0165  0.0267
    1W        W30378  14.470  28.831   0.221  0.0073  0.1109 -0.1494
    1W        W30379  12.081  20.434   2.736 -0.1760  0.0446 -0.1654
    1W        W30380  13.949  27.816   8.543  0.3135  0.1586  0.1972
    1W        W30381  15.564  24.012   7.673 -0.0263 -0.1491  0.1496
    1W        W30382  13.907  24.925   9.431 -0.1550  0.2644  0.3255
    1W        W30383  20.954  25.781   0.732  0.1135  0.2282  0.1873
    1W        W30384  27.224  10.589   0.771 -0.0122 -0.1291 -0.0317
    1W        W30385  15.509  27.272   7.013 -0.0116 -0.2601  0.0021
    1W        W30386  24.674  26.818   9.736 -0.0831 -0.2544 -0.0273
    1W        W30387  17.567   1.363   0.035 -0.1249 -0.0413 -0.0130
    1W        W30388  14.738  21.310   2.714 -0.2295  0.0928  0.0079
    1W        W30389   9.842   2.908   7.717  0.1735  0.0676 -0.0671
    1W        W30390  14.866  15.978   7.011  0.0521 -0.1250  0.0138
    1W        W30391   0.470  27.195   1.448 -0.4110  0.2921 -0.3153
    1W        W30392   1.781  20.283   1.640  0.0473  0.1303  0.0969
    1W        W30393  12.611   3.530   7.472 -0.2030 -0.0085  0.3179
    1W        W30394   1.310  24.305   3.426  0.1481  0.2448 -0.0435
    1W        W30395  26.328  19.771   7.174 -0.2176  0.0680  0.0455
    1W        W30396   8.814  22.882   7.743  0.0682 -0.4454 -0.0399
    1W        W30397  23.869  13.829   7.265 -0.0769 -0.2613 -0.0498
    1W        W30398   5.129  22.760   0.851 -0.1890 -0.1415  0.1430
    1W        W30399  26.849   1.639   2.975  0.0464 -0.3483 -0.1629
    1W        W30400  28.515  24.267   1.526  0.4273  0.1167  0.0353
    1W        W30401  27.125  20.820   1.818  0.0445  0.0124  0.0856
    1W        W30402  24.329  19.213   7.573 -0.1003  0.1788 -0.1195
    1W        W30403   3.395  20.534   1.564  0.0206 -0.1216  0.0675
    1W        W30404  13.434  26.409   1.696 -0.2208 -0.1711  0.1845
    1W        W30405   2.626  19.839   1.405 -0.3310 -0.1237 -0.1224
    1W        W30406   2.691   6.411   2.066 -0.1563 -0.1836  0.0702
    1W        W30407   5.171  11.292   7.403 -0.0545 -0.0127 -0.1275
    1W        W30408  13.906   2.866   0.763 -0.2439 -0.2311 -0.1238
    1W        W30409  21.601   1.771   8.634 -0.0856  0.3198  0.1937
    1W        W30410  26.883  22.175   7.062 -0.0493 -0.0850  0.0511
    1W        W30411  24.295  23.895   9.751 -0.1426  0.1903 -0.0247
    1W        W30412  19.320   9.132   6.429 -0.0408 -0.1076  0.1218
    1W        W30413  10.385   5.119   7.826  0.1517 -0.1364  0.1207
    1W        W30414  12.613   9.813   7.702  0.2633  0.3489  0.2600
    1W        W30415  14.124   1.257   1.925  0.0598 -0.1126  0.2434
    1W        W30416   4.956  22.178   8.379  0.0421  0.1903 -0.1901
    1W        W30417   3.259  20.046   0.700 -0.1655 -0.0320  0.1943
    1W        W30418  14.049  24.693   1.826  0.1992 -0.0197  0.2399
    1W        W30419  28.042   0.990   2.615  0.1791 -0.4232  0.0696
    1W        W30420   4.288  20.667   8.675  0.0615 -0.0043  0.2248
    1W        W30421  28.193  21.984   9.773 -0.0353 -0.1285  0.1540
    1W        W30422  14.227  10.381   8.460 -0.5386  0.3454  0.1676
    1W        W30423  22.797  27.362   8.744 -0.0698 -0.0308 -0.0586
    1W        W30424  20.581  12.016   1.742  0.0514 -0.2283  0.1441
    1W        W30425  15.904  23.709   7.439  0.0238  0.0280  0.0982
    1W        W30426   3.334   8.051   9.256  0.1060 -0.3267 -0.0368
    1W        W30427  26.442   3.832   8.711  0.0165 -0.3723  0.2622
    1W        W30428  20.518  11.146   8.222 -0.1883 -0.4422 -0.0471
    1W        W30429  10.435  26.692   8.891 -0.1505  0.2486  0.4141
    1W        W30430   2.861   8.013   1.809 -0.1694 -0.2359 -0.1182
    1W        W30431   0.123   8.720   8.020  0.0771 -0.2259 -0.1765
    1W        W30432  26.230  16.369   8.332 -0.4047  0.3848 -0.1014
    1W        W30433  22.156  21.513   1.422  0.2962  0.3937 -0.0980
    1W        W30434  16.353  21.544   0.327 -0.1881  0.0398 -0.0147
    1W        W30435  11.330  26.746   7.172  0.0137  0.1837 -0.0242
    1W        W30436  21.251  21.895   8.903 -0.3969 -0.1809 -0.0016
    1W        W30437  20.896  17.768   8.305 -0.1827  0.0369 -0.0482
    1W        W30438   9.444  15.151   9.059 -0.0807 -0.0790 -0.1691
    1W        W30439   3.936   8.281   1.748 -0.0856 -0.0850 -0.2278
    1W        W30440  11.181  17.075   9.393 -0.1751  0.0634  0.0089
    1W        W30441  24.010  10.444   8.877 -0.0169 -0.1563  0.4494
    1W        W30442   4.718   1.489   8.584  0.3907 -0.0241  0.1333
    1W        W30443   4.994   9.921   3.028 -0.1880 -0.0646 -0.1191
    1W        W30444   3.751  11.835   0.319 -0.0815  0.0083  0.0069
    1W        W30445  28.534  26.073   2.997 -0.0036  0.2674 -0.4972
    1W        W30446  15.081  19.661   1.827  0.2310 -0.0058  0.1043
    1W        W30447   4.400   2.176   9.097 -0.3417  0.3289  0.3201
    1W        W30448   3.446   1.060   9.658  0.0099  0.0681  0.0753
    1W        W30449  16.370   8.417   0.493 -0.0138  0.3731  0.0159
    1W        W30450   4.877  20.197   7.269  0.4085 -0.1892  0.0469
    1W        W30451   2.225   4.343   2.754  0.1815  0.1611  0.1490
    1W        W30452  25.162   7.815   2.383  0.1183 -0.0280  0.0100
    1W        W30453  11.956   1.967   7.974 -0.2459  0.0258 -0.0001
    1W        W30454  20.223  10.059   0.784  0.1542 -0.3367 -0.0811
    1W        W30455  10.896   4.869   1.023  0.1216 -0.1227 -0.1839
    1W        W30456  16.544   2.320   1.819  0.3508  0.0093 -0.0633
    1W        W30457  22.628  14.865   0.960  0.0406  0.4702 -0.2326
    1W        W30458  12.192  21.682   0.479 -0.0203 -0.2077 -0.1364
    1W        W30459   9.873   0.266   6.810  0.1627  0.0162  0.3170
    1W        W30460  13.727   3.846   6.915  0.4571  0.0816  0.1545
    1W        W30461  16.472   8.495   9.455  0.0992  0.0533  0.1468
    1W        W30462  17.178  25.840   7.326 -0.1444  0.0785  0.0488
    1W        W30463  25.340  19.835   1.579  0.0439  0.0973 -0.1037
    1W        W30464   1.350   0.224   9.870  0.0228 -0.1155 -0.1496
    1W        W30465  11.476  26.346   3.506  0.0650 -0.0510  0.0183
    1W        W30466   2.279   0.984   3.221 -0.0695  0.1151  0.3206
    1W        W30467  25.662  28.706   8.674 -0.2954  0.1787  0.1011
    1W        W30468  13.437   1.760   8.602  0.2584  0.1791 -0.1519
    1W        W30469   6.975   4.961   9.423 -0.2296  0.2812  0.2258
    1W        W30470   2.357   0.367   2.279  0.1002 -0.2441 -0.1945
    1W        W30471  19.419  15.866   7.012 -0.2218  0.1222  0.1614
    1W        W30472   1.460  26.370   9.969 -0.2748 -0.1280  0.0223
    1W        W30473  18.632  21.930   0.756  0.0328 -0.1175 -0.1284
    1W        W30474  25.264  28.684   3.238  0.2983  0.4819 -0.1737
    1W        W30475  18.328  13.504   2.238 -0.1324  0.3636  0.4244
    1W        W30476  11.638  25.762   9.115 -0.1518  0.2497  0.3024
    1W        W30477  24.510  25.771   1.940 -0.0115 -0.1728  0.0366
    1W        W30478   5.429   7.100   8.222 -0.2635 -0.0858  0.0023
    1W        W30479  11.445  18.161   6.864  0.1408  0.1275  0.1108
    1W        W30480   7.771  11.382   1.772 -0.1473  0.0388  0.2353
    1W        W30481   5.959  25.585   9.148  0.0842 -0.0622  0.2527
    1W        W30482  18.954  24.620   6.414  0.1342 -0.0638 -0.0163
    1W        W30483   3.685  14.410   0.168  0.2044  0.2652  0.0903
    1W        W30484  21.875   8.338   0.225 -0.2750 -0.3637  0.0297
    1W        W30485   9.345  18.372   1.849  0.0125  0.0702  0.3492
    1W        W30486  20.427  26.879   2.460 -0.0195 -0.0155  0.2330
    1W        W30487  17.978   4.175   7.158  0.1664  0.0880  0.0381
    1W        W30488  12.281  27.465   8.040  0.2489 -0.0149  0.3289
    1W        W30489  11.508   8.077   9.551 -0.1987 -0.0889  0.1117
    1W        W30490  25.602   5.657   3.071  0.0696 -0.2753 -0.1664
    1W        W30491   7.756  16.747   1.296  0.0652 -0.2157  0.1048
    1W        W30492   4.358   4.227   1.147 -0.2050  0.3266 -0.2243
    1W        W30493  17.185   5.865   9.061  0.2407 -0.0014  0.0324
    1W        W30494  23.089  20.661   3.002 -0.1702  0.1741 -0.2305
    1W        W30495  15.024  19.540   0.406 -0.2500  0.0105 -0.1600
    1W        W30496  19.866  13.072   7.206  0.0312 -0.0836 -0.0163
    1W        W30497  11.340   9.170   6.647  0.0434  0.0134 -0.4941
    1W        W30498   8.167  26.120   9.237 -0.0058  0.1476 -0.1951
    1W        W30499  16.695  20.515   7.083 -0.2567 -0.4872 -0.2300
    1W        W30500  10.475  19.460   2.287 -0.1033  0.1484  0.0983
    1W        W30501   0.890   6.736   4.095  0.1923 -0.1556  0.0042
    1W        W30502   2.902  22.445   3.619 -0.0869  0.0413 -0.0669
    1W        W30503   1.955  20.223   9.711  0.2136  0.1115  0.0260
    1W        W30504   1.417  11.419   7.546  0.1636  0.1880  0.0892
    1W        W30505   6.227  25.192   1.992 -0.0011  0.1347 -0.1713
    1W        W30506  14.680  27.330   0.323  0.4295 -0.0275  0.2823
    1W        W30507  28.370   0.674   1.187 -0.2821  0.1100  0.0828
    1W        W30508   0.238  18.699   8.530  0.0282 -0.0266  0.0716
    1W        W30509  27.705  23.112   1.499 -0.0930 -0.0672  0.1332
    1W        W30510  23.396  21.396   8.770 -0.0760 -0.1054 -0.4699
    1W        W30511   3.500  20.378   9.204 -0.0549 -0.0572 -0.1311
    1W        W30512   8.785  17.954   6.021 -0.3650 -0.2672 -0.3889
    1W        W30513  23.038  26.957   8.959  0.1797  0.1638 -0.0343
    1W        W30514  16.308  26.257   7.045 -0.0435 -0.2816 -0.0566
    1W        W30515  23.853  16.891   2.558  0.1458 -0.2184  0.0296
    1W        W30516  17.565   7.167   9.162  0.2729 -0.0816  0.1575
    1W        W30517   9.881  20.522   2.920  0.3900  0.0126  0.2240
    1W        W30518  22.501   0.437   9.178  0.1461 -0.0785 -0.3336
    1W        W30519  28.856  18.544   3.214  0.1434  0.0602  0.4121
    1W        W30520  22.603   2.036   8.620  0.1624 -0.2305  0.3308
    1W        W30521  24.830   3.409   7.563 -0.0937  0.2110  0.1054
    1W        W30522   3.706  28.371   1.955 -0.0260 -0.0769 -0.1986
    1W        W30523  27.704  10.971   1.424  0.2152 -0.0029 -0.2775
    1W        W30524  18.745  19.980   8.895  0.2148 -0.1585 -0.3345
    1W        W30525   8.250  21.347   9.478 -0.0417  0.1258  0.0533
    1W        W30526  28.679  24.359   7.370  0.0340 -0.6952 -0.0249
    1W        W30527  14.013   3.900   1.882 -0.1651 -0.0959 -0.2141
    1W        W30528  16.311  16.018   8.709 -0.0855  0.1160 -0.0718
    1W        W30529   0.038  16.657   3.203 -0.2128  0.1452 -0.0696
    1W        W30530  10.387  18.385   7.626 -0.1637  0.1658  0.1192
    1W        W30531  28.357  11.178   2.217 -0.1554 -0.1715  0.0641
    1W        W30532  23.987  23.671   3.019  0.0717 -0.1739 -0.0573
    1W        W30533  24.304  22.214   8.940 -0.0200  0.1646 -0.1024
    1W        W30534   9.188  24.578   7.068 -0.1051 -0.3368 -0.1523
    1W        W30535   1.236  15.246   2.063 -0.1047  0.2526  0.1719
    1W        W30536  22.910  11.559   0.741  0.3678  0.0505 -0.0541
    1W        W30537  28.313  28.553   0.799 -0.0930 -0.0995  0.0088
    1W        W30538  21.205  16.601   2.821 -0.3654  0.1291  0.1146
    1W        W30539   5.202   3.679   3.282  0.0664  0.1264 -0.0776
    1W        W30540   9.482   9.127   6.116 -0.2427  0.1764  0.2526
    1W        W30541  18.861  11.359   7.339  0.1147 -0.1590  0.1619
    1W        W30542  21.803  20.736   0.146 -0.1801 -0.0459 -0.1632
    1W        W30543  15.307  14.090   0.355  0.1393 -0.1445  0.1055
    1W        W30544   6.102  27.527   9.073 -0.0458  0.0934 -0.1748
    1W        W30545   7.475   4.647   2.703 -0.1246 -0.1972 -0.2503
    1W        W30546   5.528  23.373   0.837  0.0511  0.2939  0.1670
    1W        W30547  10.601  16.212   1.385 -0.1066  0.0716  0.4096
    1W        W30548   5.822   0.566   3.609  0.1863  0.0803 -0.0518
    1W        W30549  13.501  18.959   0.911 -0.2742 -0.0032 -0.0287
    1W        W30550  20.059  19.933   0.599  0.0620 -0.2354 -0.1414
    1W        W30551  20.383   3.535   2.185  0.2426 -0.0085 -0.1710
    1W        W30552   7.238  20.936   7.711 -0.0160  0.0752  0.0458
    1W        W30553  26.867  21.306   1.829 -0.1131  0.2336  0.2073
    1W        W30554   2.648   0.725   1.994  0.4711  0.0367 -0.5516
    1W        W30555  23.643  18.208   9.568 -0.1806  0.0230  0.0533
    1W        W30556  14.968  27.370   1.730 -0.0299  0.2082  0.3047
    1W        W30557   3.952   1.144   9.780 -0.1666 -0.1882  0.0189
    1W        W30558  11.952   1.814   2.467 -0.0424 -0.0593  0.0357
    1W        W30559  18.026  20.286   8.066  0.1186 -0.0154 -0.0390
    1W        W30560  10.179  24.245   9.625 -0.0024  0.1383  0.4253
    1W        W30561  14.057  27.056   9.136  0.3992 -0.2062 -0.2846
    1W        W30562   8.815   1.120   9.141  0.0392 -0.0660  0.3274
    1W        W30563  12.046   6.993   0.541  0.0172  0.0272 -0.1134
    1W        W30564  22.888   3.803   1.677  0.6784 -0.1163  0.0160
    1W        W30565  17.299  26.376   2.308 -0.1821 -0.0362 -0.2678
    1W        W30566  10.637  11.104   9.666  0.1587  0.2387  0.1834
    1W        W30567   8.422  16.244   8.499 -0.2144  0.0445 -0.0007
    1W        W30568   6.358  16.999   0.747 -0.1294 -0.1460  0.2436
    1W        W30569  21.549  12.840   8.437 -0.0617 -0.2601  0.2747
    1W        W30570  16.095  24.803   7.183 -0.0732  0.0644  0.0424
    1W        W30571  17.958   5.297   6.710 -0.0980 -0.1693 -0.2364
    1W        W30572  17.556  14.857   9.136  0.4983 -0.4213  0.0668
    1W        W30573   0.512  14.074   8.015  0.3080 -0.0058 -0.1191
    1W        W30574   5.307  24.604   2.844 -0.1261  0.0485 -0.2470
    1W        W30575  18.646   1.647   7.422 -0.1977  0.0712  0.0516
    1W        W30576  23.121  14.369   9.305 -0.2022  0.2853 -0.0452
    1W        W30577   8.307   6.691   0.055  0.0787 -0.0278  0.0677
    1W        W30578   2.265  25.503   1.223  0.0115 -0.1425  0.0585
    1W        W30579   7.960  17.358   0.158  0.1219 -0.0188 -0.0606
    1W        W30580  17.330  24.148   9.613  0.2140 -0.1289  0.1474
    1W        W30581  17.220  25.510   8.246 -0.2383 -0.2907 -0.2941
    1W        W30582  22.321   2.828   9.615  0.2028  0.0372  0.1487
    1W        W30583  11.005   4.681   0.139 -0.2094 -0.0191 -0.0370
    1W        W30584  21.507  16.750   7.933  0.5786 -0.0754 -0.1249
    1W        W30585   7.728   3.094   9.899  0.3628 -0.0942  0.0230
    1W        W30586  28.826  24.682   0.464 -0.2446  0.1989  0.1646
    1W        W30587   7.563  26.794   1.785  0.0786 -0.0203  0.0524
    1W        W30588  16.183  14.835   1.712 -0.0120  0.2560  0.0439
    1W        W30589  12.724   3.581   1.127  0.1221 -0.0519 -0.0870
    1W        W30590   1.334  24.026   1.186  0.1196  0.0591  0.0528
    1W        W30591   0.226   9.253   3.200  0.1147  0.0169  0.1484
    1W        W30592   3.739  28.257   8.671  0.0414 -0.1043  0.1325
    1W        W30593  16.592   3.229   9.322 -0.0296 -0.0352  0.0358
    1W        W30594  14.736  11.196   2.019 -0.0290 -0.1393  0.3149
    1W        W30595  13.466  22.115   1.645 -0.0891  0.0169  0.1135
    1W        W30596   8.495   1.499   2.399  0.2253  0.3097 -0.0170
    1W        W30597  13.761  27.300   8.744 -0.0283  0.0672 -0.0163
    1W        W30598   3.877  20.409   1.722  0.1169  0.3704  0.3459
    1W        W30599  21.567   0.299   3.112  0.0778  0.0010 -0.2904
    1W        W30600   2.349  10.120   2.836 -0.1813 -0.1951 -0.1105
    1W        W30601   4.333   5.729   7.682  0.2633  0.2328 -0.0724
    1W        W30602  28.310   6.609   0.926  0.1971 -0.2110 -0.1424
    1W        W30603  27.433   3.998   2.001  0.0402 -0.1152  0.0593
    1W        W30604  27.746  16.074   3.093 -0.2634  0.0122  0.3046
    1W        W30605   3.600  24.533   8.065  0.0470 -0.0525  0.3830
    1W        W30606   3.551  28.046   0.564  0.0471  0.2000  0.2146
    1W        W30607  13.140  22.866   8.948 -0.2499 -0.0873  0.1468
    1W        W30608  17.908  21.882   6.936  0.1407  0.1216 -0.0486
    1W        W30609  27.006  27.534   3.344  0.0618 -0.1170  0.0255
    1W        W30610  24.814  22.666   3.100  0.3569 -0.1813 -0.0619
    1W        W30611  19.970   8.534   2.133  0.3258  0.3977 -0.1026
    1W        W30612  20.937  20.251   7.674  0.0457 -0.0383 -0.2562
    1W        W30613  21.904   2.247   2.789  0.0874  0.0849  0.4380
    1W        W30614  15.573  27.629   7.709 -0.3996 -0.1264  0.1671
    1W        W30615  14.704  23.609   0.096  0.3179 -0.1655 -0.0616
    1W        W30616  19.397  10.227   8.099 -0.3190  0.2443  0.1982
    1W        W30617  22.176   3.619   7.398 -0.2846  0.0041 -0.1527
    1W        W30618  24.448  11.916   8.897 -0.1100 -0.0128  0.0862
    1W        W30619  13.930   9.050   0.037 -0.4671 -0.4654 -0.2483
    1W        W30620   4.354   7.463   8.432  0.1704  0.1839 -0.0477
    1W        W30621  18.291  16.994   0.257 -0.0332 -0.1276  0.2622
    1W        W30622   1.969   1.615   9.043 -0.0618  0.2164  0.1554
    1W        W30623   2.437   2.873   1.559 -0.1478 -0.2943  0.1782
    1W        W30624  26.937  28.689   3.216 -0.0355 -0.2271  0.0277
    1W        W30625  15.343   7.909   7.651  0.4479  0.0417  0.1469
    1W        W30626  10.784  21.056   9.154  0.0950 -0.0814 -0.1433
    1W        W30627  13.592  23.846   7.492 -0.1270  0.0298 -0.0875
    1W        W30628   9.485   2.816   8.134  0.0508  0.1280  0.1728
    1W        W30629   9.416  18.898   0.774  0.0655 -0.1457  0.1053
    1W        W30630  16.678  24.470   9.066  0.4561 -0.2953 -0.1598
    1W        W30631  27.928  27.263   2.308 -0.2310 -0.1982 -0.1062
    1W        W30632  15.667   5.820   8.961 -0.1889 -0.3346  0.0449
    1W        W30633  22.925   4.771   0.890  0.3765 -0.0729 -0.0660
    1W        W30634   6.229  22.557   0.439  0.0233  0.0637  0.0045
    1W        W30635  16.578  17.326   7.649 -0.1323  0.4463 -0.4110
    1W        W30636   9.566  25.169   0.077 -0.1038  0.0014  0.0469
    1W        W30637  16.231   0.261   0.210  0.0890  0.0353  0.3561
    1W        W30638  17.734  16.301   8.871 -0.0525  0.0676  0.0288
    1W        W30639   9.032  19.002   7.704  0.4172  0.0889  0.1981
    1W        W30640  23.103  17.876   2.069 -0.2591  0.1180 -0.1487
    1W        W30641  26.416  17.587   1.755  0.1803 -0.3156  0.2727
    1W        W30642  25.923  28.614   2.276 -0.0567  0.0187  0.1826
    1W        W30643  18.020  18.286   7.193 -0.2476  0.1538  0.2672
    1W        W30644   0.710  28.555   1.387 -0.0715 -0.2136  0.2080
    1W        W30645   5.476  16.420   0.631 -0.0392  0.1947 -0.2037
    1W        W30646  14.279  26.455   8.240  0.2443 -0.1878  0.0249
    1W        W30647  26.253   8.964   8.289 -0.1442  0.4378  0.0729
    1W        W30648  12.557  19.005   6.417 -0.1013 -0.0451  0.0813
    1W        W30649  10.113   3.785   1.081  0.3129 -0.0335 -0.2149
    1W        W30650  21.052  17.670   6.637 -0.1669 -0.0940 -0.1440
    1W        W30651  12.416  25.116   9.250 -0.1603 -0.1405  0.0395
    1W        W30652  20.784  28.493   1.106 -0.0085 -0.0140 -0.3355
    1W        W30653   7.585  14.172   7.117 -0.0323  0.0211 -0.1090
    1W        W30654  22.012   9.511   1.259 -0.0739 -0.0264  0.3041
    1W        W30655  17.446   7.030   6.212 -0.0200 -0.0595 -0.0190
    1W        W30656  15.119  13.543   8.590 -0.1487 -0.0764 -0.0454
    1W        W30657  19.492   2.239   6.681 -0.3235 -0.0133 -0.2205
    1W        W30658  20.609  28.787   2.108  0.2868 -0.4291 -0.0105
    1W        W30659   1.259  15.146   1.057 -0.0482 -0.1099 -0.3246
    1W        W30660   5.875   6.415   8.314 -0.0717  0.0026  0.0858
    1W        W30661  17.710  23.807   8.102  0.3481 -0.1875  0.1083
    1W        W30662  15.229  21.801   7.955 -0.0812 -0.1208 -0.0808
    1W        W30663  16.285  17.464   9.068 -0.0489 -0.2725  0.0569
    1W        W30664  18.556   1.796   0.380 -0.1590  0.0498 -0.0667
    1W        W30665   6.347  22.129   8.334 -0.2626 -0.0018  0.0865
    1W        W30666   4.319  23.238   8.981 -0.1379  0.3817  0.0245
    1W        W30667  16.357   1.686   0.054 -0.2544  0.2030 -0.1392
    1W        W30668   1.441   7.214   8.833  0.1058 -0.0544 -0.0455
    1W        W30669  20.196   9.764   9.589 -0.0109 -0.3006  0.0150
    1W        W30670  21.538  27.851   7.060  0.1547 -0.1749  0.1151
    1W        W30671   4.574  22.734   0.351 -0.0129  0.2465 -0.1433
    1W        W30672   7.312  26.809   3.835  0.1046 -0.1637  0.0114
    1W        W30673   8.796  19.404   8.590  0.3638  0.2484  0.3912
    1W        W30674   2.742  11.383   2.096 -0.2998 -0.3531  0.3207
    1W        W30675  16.669  19.698   1.780  0.4500  0.1689 -0.1714
    1W        W30676  24.687  15.631   2.823 -0.2714  0.0691  0.1384
    1W        W30677  27.447  23.494   2.850  0.1511 -0.1751  0.0211
    1W        W30678  10.197  10.289   7.523 -0.0379 -0.0513 -0.4090
    1W        W30679  15.473  10.187   1.215 -0.0575 -0.0337 -0.0481
    1W        W30680  18.009   4.411   0.757 -0.0504  0.0190 -0.1652
    1W        W30681   8.291  24.612   4.037 -0.1130 -0.2004  0.0316
    1W        W30682  11.001  19.132   7.409  0.1631 -0.0978  0.0920
    1W        W30683  13.073  20.948   2.140  0.0279 -0.0826  0.0087
    1W        W30684  10.801  13.663   0.211 -0.0884 -0.2545 -0.1643
    1W        W30685  14.720   7.240   6.193  0.1804 -0.0048 -0.0586
    1W        W30686   1.863  26.847   3.749 -0.0486 -0.4882 -0.0476
    1W        W30687   5.528  19.040   9.891 -0.1591  0.0382 -0.1530
    1W        W30688   7.876  27.485   8.342 -0.0695  0.0726 -0.0723
    1W        W30689  25.300   7.625   0.923  0.0460 -0.0090 -0.0737
    1W        W30690   7.005  21.338   0.339  0.0893  0.0979  0.0601
    1W        W30691  28.164  21.169   8.621 -0.0015 -0.0885 -0.2071
    1W        W30692  17.352  26.430   9.529  0.1123  0.0869 -0.2553
    1W        W30693  27.071  16.573   0.881 -0.1615  0.0736  0.1010
    1W        W30694   0.979   2.127   9.661  0.1858  0.2236  0.1154
    1W        W30695   7.824  10.151   8.199 -0.3127 -0.2809  0.1412
    1W        W30696   9.899  24.284   7.917  0.0060 -0.3346 -0.0243
    1W        W30697   8.495   4.228   7.214 -0.0432  0.0876 -0.0525
    1W        W30698   6.255  23.809   8.750  0.0112  0.1673  0.1296
    1W        W30699  16.143  20.092   9.032 -0.0403 -0.0592  0.0613
    1W        W30700  28.746  17.166   1.931  0.1197  0.1536  0.2219
    1W        W30701  17.191   3.356   8.450  0.0265  0.1066 -0.0510
    1W        W30702  23.536  12.071   9.107  0.0581  0.2347  0.1033
    1W        W30703  23.314   7.087   1.610  0.0316 -0.0971 -0.0841
    1W        W30704  26.831  12.399   3.167  0.0922 -0.5468 -0.0942
    1W        W30705  25.137   4.820   2.875  0.3364  0.1581 -0.0054
    1W        W30706   2.748  20.824   1.619 -0.1151  0.0590 -0.1377
    1W        W30707  16.640  18.486   7.468 -0.0179  0.2732  0.2915
    1W        W30708  25.053  28.047   9.303  0.2277 -0.1694 -0.1335
    1W        W30709  15.162  19.172   6.116  0.2312  0.1285 -0.0386
    1W        W30710   0.769  28.544   0.865  0.1469  0.3262 -0.2957
    1W        W30711  13.820   5.074   6.540  0.0818 -0.1715 -0.4202
    1W        W30712   7.968  20.524   9.783  0.0793 -0.1695 -0.0350
    1W        W30713   3.868   0.786   0.142 -0.0354 -0.0729 -0.0821
    1W        W30714  13.102  24.901   6.911 -0.1012  0.3652 -0.0382
    1W        W30715  28.015  21.024   0.441 -0.2506 -0.2120 -0.0609
    1W        W30716   8.815  12.349   9.403  0.1125  0.1083 -0.1265
    1W        W30717   0.804   3.786   9.864 -0.1864  0.1080  0.2019
    1W        W30718  19.558  12.911   8.915 -0.0172  0.3155  0.0147
    1W        W30719  11.780  12.646   1.717  0.2145 -0.1803  0.0651
    1W        W30720   4.487  17.165   0.647  0.1561 -0.2431 -0.2653
    1W        W30721   4.963  18.269   2.134 -0.0177 -0.2867  0.5735
    1W        W30722  17.928   2.647   0.472 -0.0761  0.0207  0.0650
    1W        W30723   5.837   9.237   8.989  0.4019 -0.1556  0.0178
    1W        W30724  26.218   6.213   7.885 -0.1490 -0.0513  0.0304
    1W        W30725  11.120  16.072   1.390  0.2335 -0.1148 -0.0518
    1W        W30726  18.390   7.254   0.792 -0.0913 -0.3644 -0.0729
    1W        W30727   5.991  17.542   8.876  0.0070  0.2196  0.1421
    1W        W30728  13.052  16.633   7.279  0.0871 -0.3067  0.0369
    1W        W30729  23.226  26.836   1.704  0.0549 -0.0841 -0.0076
    1W        W30730  21.180  12.907   8.123  0.0576  0.4115 -0.0932
    1W        W30731   1.666  26.926   1.574 -0.1418  0.2125 -0.0126
    1W        W30732   8.973  27.327   2.489 -0.2178 -0.0938 -0.2139
    1W        W30733  19.422  16.605   1.930  0.0782 -0.4294 -0.0104
    1W        W30734  22.595  15.991   2.825  0.0142  0.0863 -0.2291
    1W        W30735  21.621   4.422   0.755 -0.0092  0.1644 -0.3942
    1W        W30736  28.747  27.467   3.698  0.1852 -0.0005 -0.0284
    1W        W30737  26.549  25.300   2.101 -0.1995 -0.0870  0.3567
    1W        W30738   1.358   6.663   7.908 -0.1179 -0.2263  0.4147
    1W        W30739  13.065  14.253   1.826  0.1497  0.0390 -0.0214
    1W        W30740  13.089   8.915   6.582  0.0949 -0.1501 -0.0290
    1W        W30741  12.727  10.842   6.473 -0.0119  0.2835  0.0951
    1W        W30742  20.010   1.923   2.111 -0.0119  0.0921 -0.0318
    1W        W30743  13.057  15.392   6.359  0.0779  0.1303 -0.1647
    1W        W30744  10.821   3.797   8.456 -0.0372  0.1120  0.1760
    1W        W30745  16.875   2.134   9.914  0.3393 -0.1715  0.1029
    1W        W30746  15.707  27.484   8.556 -0.0739  0.1603  0.1522
    1W        W30747  15.160   5.625   9.168  0.1207  0.0580  0.0907
    1W        W30748  18.938  16.473   1.972 -0.1384 -0.1961 -0.4057
    1W        W30749  16.060  21.234   2.262  0.2503  0.0344  0.0752
    1W        W30750  18.168   2.299   8.401 -0.1087 -0.2460 -0.0990
    1W        W30751  24.689   6.020   2.278  0.0739  0.2547 -0.0647
    1W        W30752  19.464  19.681   8.363 -0.1597  0.4422  0.0349
    1W        W30753  11.785  10.281   1.940  0.0226  0.1543 -0.1992
    1W        W30754   0.572  20.306   0.159 -0.2004  0.0901  0.0981
    1W        W30755  26.710  23.715   9.167  0.2894 -0.1535 -0.4468
    1W        W30756   7.952   3.940   3.644  0.1750 -0.3128 -0.0299
    1W        W30757  27.139   4.254   8.210 -0.3719 -0.0595  0.0064
    1W        W30758   1.974  22.729   3.735  0.1802 -0.0433 -0.1086
    1W        W30759  27.067   2.605   2.009 -0.2444 -0.2534 -0.1203
    1W        W30760  24.169  22.670   7.089  0.3074 -0.0200  0.1905
    1W        W30761  20.265  14.347   8.805  0.0507  0.1256 -0.0714
    1W        W30762  17.526   8.924   8.954 -0.0041 -0.0107  0.0300
    1W        W30763  17.942  26.518   9.088  0.1653  0.4043  0.0193
    1W        W30764  14.620  21.407   6.985 -0.1306  0.2393  0.0720
    1W        W30765  27.787   3.135   8.489  0.2383  0.2357 -0.1974
    1W        W30766   4.673  28.136   8.472 -0.1450  0.1634 -0.0015
    1W        W30767  13.649   2.183   0.358  0.1777  0.0127  0.1651
    1W        W30768   4.501  11.420   2.143  0.1202 -0.0522 -0.1916
    1W        W30769  10.992  28.188   8.562 -0.0781 -0.1196 -0.0459
    1W        W30770  17.159  22.010   2.852 -0.0787 -0.3114 -0.0537
    1W        W30771   5.730   2.719   8.833  0.0680  0.0210 -0.4233
    1W        W30772   9.363  22.789   8.598  0.2507  0.2177  0.0681
    1W        W30773   2.462   8.283   9.340 -0.1755 -0.0013  0.0105
    1W        W30774  12.238  25.245   1.289 -0.0374 -0.1280 -0.1161
    1W        W30775   1.458   6.500   9.444 -0.1143 -0.2096  0.2754
    1W        W30776  14.851   7.701   9.692  0.1084  0.1323  0.1030
    1W        W30777  11.989  24.632   3.619  0.1733  0.0634  0.1232
    1W        W30778   0.222  16.391   3.669  0.1138  0.2063  0.1622
    1W        W30779  12.448  12.301   9.366 -0.1619 -0.0451  0.1899
    1W        W30780  22.357   8.491   0.249  0.0888  0.1015 -0.3485
    1W        W30781   4.443   5.077   8.536  0.1833  0.1436  0.2683
    1W        W30782  18.279  13.921   6.590 -0.1507 -0.1600 -0.0491
    1W        W30783  21.299   9.524   6.508  0.0103  0.0598  0.1943
    1W        W30784  23.205   6.734   8.074 -0.1750  0.0510  0.2529
    1W        W30785   6.931   5.461   0.801 -0.2147 -0.0721 -0.1726
    1W        W30786  18.941   0.519   1.771 -0.2383 -0.3488 -0.0266
    1W        W30787  13.676   1.613   7.394  0.1982 -0.1248  0.1454
    1W        W30788  24.900  16.022   2.563  0.0532  0.2608  0.2786
    1W        W30789  24.144   4.907   9.936 -0.3400 -0.2475 -0.3601
    1W        W30790  10.514  22.934   0.229  0.1249 -0.2184 -0.3268
    1W        W30791  23.555  11.032   7.748 -0.2187  0.1064  0.4261
    1W        W30792  13.614  15.726   7.960 -0.0085  0.0103 -0.1582
    1W        W30793  26.556  16.147   1.802  0.0001  0.1130  0.0187
    1W        W30794  15.002  24.523   2.330  0.1701 -0.2978 -0.4490
    1W        W30795  16.574  23.974   9.750  0.1165  0.1018  0.3777
    1W        W30796   1.220  16.237   7.752 -0.1333 -0.0338 -0.2992
    1W        W30797  21.728  26.306   7.786 -0.2238  0.2499  0.0812
    1W        W30798   2.615   6.218   2.526  0.0727 -0.1078  0.3135
    1W        W30799   9.896   6.785   1.280  0.0837 -0.0574  0.0907
    1W        W30800  17.887  14.063   9.008  0.0964  0.1061  0.3052
    1W        W30801  11.905   4.394   0.066  0.2200 -0.0598  0.1549
    1W        W30802   7.173   3.758   9.119  0.2063  0.0451 -0.3659
    1W        W30803  18.987  16.708   2.479 -0.0676 -0.1047 -0.0203
    1W        W30804  28.652  15.550   2.232 -0.1889  0.1109  0.2029
    1W        W30805  28.682  11.979   1.581  0.0324  0.0313 -0.0294
    1W        W30806   2.195  16.005   3.698  0.4422 -0.1162  0.2395
    1W        W30807  14.720  18.510   0.873  0.4826 -0.3349 -0.2487
    1W        W30808  19.871  24.063   2.960  0.2529 -0.3687  0.0515
    1W        W30809  20.725  15.903   9.079  0.3001  0.1138 -0.4434
    1W        W30810   8.784  14.749   1.494  0.2327  0.0411  0.2158
    1W        W30811  19.994   4.725   7.829  0.0722  0.0913  0.0027
    1W        W30812  21.990   9.642   9.199  0.3418  0.0626  0.0582
    1W        W30813  24.550  16.802   7.112 -0.0147  0.1205  0.3770
    1W        W30814  13.513  22.544   8.590 -0.0716 -0.0908 -0.2606
    1W        W30815  10.659  27.260   0.882  0.1039 -0.1169  0.0244
    1W        W30816  11.505  17.724   0.681  0.0015 -0.0076 -0.2696
    1W        W30817   4.584  26.438   2.055  0.2009  0.2227  0.0251
    1W        W30818  25.453  10.795   7.666 -0.2412 -0.1391  0.0952
    1W        W30819  17.035   0.032   6.574  0.2344  0.2683 -0.4216
    1W        W30820  20.579  18.207   1.415  0.0823  0.4138  0.0031
    1W        W30821   5.144  12.843   0.745 -0.4902  0.1981  0.1793
    1W        W30822  27.280  14.808   2.581  0.4164  0.1554  0.2394
    1W        W30823  24.388   5.590   2.648  0.2394  0.1770  0.1245
    1W        W30824   3.866  18.249   0.708 -0.1140  0.2744  0.0388
    1W        W30825   4.187  28.153   1.803 -0.0144 -0.0970  0.0764
    1W        W30826   8.019   2.507   2.040 -0.0143  0.1310  0.2687
    1W        W30827  26.224  16.020   1.399 -0.2837  0.1487  0.0014
    1W        W30828   2.167  14.131   1.709 -0.2591  0.1157 -0.3235
    1W        W30829  20.990  17.099   2.713 -0.0608  0.2029  0.0031
    1W        W30830  25.929   7.716   9.095  0.0915  0.2150  0.0540
    1W        W30831  16.854  27.244   7.928  0.3300 -0.2124  0.0883
    1W        W30832   8.361  27.965   7.601  0.0024 -0.0505  0.1604
    1W        W30833  25.211   1.671   7.611 -0.0554 -0.0955 -0.0521
    1W        W30834  25.251  15.645   1.108  0.0418 -0.0992 -0.0397
    1W        W30835  27.226   8.440   1.659 -0.0543 -0.1505 -0.3253
    1W        W30836  15.009   2.092   8.391 -0.0927  0.1008 -0.1136
    1W        W30837   3.864  13.265   2.609  0.0687  0.0038  0.1611
    1W        W30838  11.934  14.774   2.187 -0.3013  0.5958  0.1030
    1W        W30839  27.895   4.443   3.127 -0.2609  0.1547  0.3436
    1W        W30840  11.079  15.515   1.570  0.1160 -0.2471 -0.0328
    1W        W30841   4.324  16.353   7.229  0.2487  0.0558  0.0821
    1W        W30842  28.811   1.705   8.651 -0.0790 -0.1277 -0.2081
    1W        W30843  14.791   7.564   0.188 -0.1038  0.1071 -0.2974
    1W        W30844  18.138  25.778   2.367  0.1935 -0.0367 -0.1932
    1W        W30845  25.825  25.201   3.178 -0.0279  0.0046 -0.0021
    1W        W30846  18.870   4.980   0.724 -0.3636 -0.1888  0.1822
    1W        W30847   4.048   5.154   2.138 -0.2381  0.1103  0.2008
    1W        W30848   7.490   6.886   9.771 -0.0995 -0.1062 -0.1150
    1W        W30849  21.373  15.197   9.909  0.0669  0.1453  0.0079
    1W        W30850  25.432  26.478   3.178  0.0748 -0.0447 -0.1413
    1W        W30851  16.227   2.051   7.277  0.1647 -0.1360  0.6361
    1W        W30852  10.958  16.588   1.241  0.1028  0.1854 -0.3038
    1W        W30853  24.865  13.981   2.012 -0.0472 -0.1199  0.5760
    1W        W30854  13.404  16.047   6.803 -0.1317 -0.0082  0.1328
    1W        W30855   1.223   8.073   9.918  0.1483 -0.2502  0.0946
    1W        W30856  25.900   8.417   2.636  0.2117  0.3048  0.1324
    1W        W30857  17.135   0.765   0.545  0.0631 -0.3244 -0.0650
    1W        W30858   0.713  11.302   1.640 -0.1525 -0.2771  0.4519
    1W        W30859  26.138  11.373   8.975  0.0557 -0.2520 -0.0278
    1W        W30860  10.501  27.516   3.431 -0.1856 -0.1709 -0.3037
    1W        W30861  23.942  19.743   6.880  0.0475  0.2930  0.0457
    1W        W30862  17.197  28.398   8.059 -0.3327  0.1119 -0.0226
    1W        W30863  17.264  18.748   0.651  0.1449  0.4123  0.1440
    1W        W30864   9.366  16.423   1.569  0.0226 -0.1798  0.0141
    1W        W30865  19.110   7.885   7.110  0.1910 -0.0563 -0.0302
    1W        W30866  22.038  17.412   8.030 -0.3407 -0.0118  0.1854
    1W        W30867  20.204   1.121   8.856 -0.2272 -0.1890  0.1179
    1W        W30868   5.756  16.358   8.536  0.0102 -0.1278 -0.1756
    1W        W30869  10.177   7.541   8.387 -0.0297  0.3143 -0.1424
    1W        W30870   1.051   8.542   9.069  0.0176  0.0985 -0.2035
    1W        W30871  13.999   2.471   8.995  0.0956  0.0788  0.1267
    1W        W30872  27.332  16.641   2.591  0.0869 -0.3211 -0.1875
    1W        W30873   2.718  26.691   8.874  0.1265  0.3885 -0.0224
    1W        W30874  26.473  22.577   3.293 -0.3114  0.3221 -0.0309
    1W        W30875  13.228  11.219   8.089 -0.1792 -0.0016  0.0631
    1W        W30876  17.101  26.496   1.883  0.0236 -0.4578  0.1370
    1W        W30877  22.181   4.286   8.857 -0.0568 -0.1811  0.0749
    1W        W30878   0.532  17.175   9.902  0.0988  0.2775 -0.2806
    1W        W30879   0.872  24.368   2.970 -0.3148  0.3384 -0.3746
    1W        W30880  16.489   9.949   0.591 -0.0502 -0.0932 -0.0225
    1W        W30881   6.063   7.010   9.111 -0.0570 -0.1437  0.1305
    1W        W30882   0.491  21.243   2.739 -0.2607  0.2604 -0.2840
    1W        W30883  17.603  20.892   9.545  0.1506 -0.1292  0.0962
    1W        W30884  27.480  27.126   2.480 -0.0336  0.1350 -0.0332
    1W        W30885  10.797   3.807   1.946  0.1419 -0.1811 -0.1095
    1W        W30886  13.494   1.897   2.479 -0.0117  0.1041 -0.3939
    1W        W30887  19.160   2.023   8.133  0.0796  0.0574  0.2940
    1W        W30888   1.549  12.800   8.879  0.2930 -0.0349 -0.0541
    1W        W30889  11.319  22.730   2.698  0.1715 -0.0819 -0.0844
    1W        W30890  12.353  24.244   0.284 -0.0609 -0.5037 -0.1045
    1W        W30891   2.291  19.774   3.985 -0.0139  0.2239 -0.2565
    1W        W30892  25.868  13.104   8.794 -0.1570 -0.3240  0.0869
    1W        W30893  11.091   5.466   6.337  0.1799  0.3231 -0.2966
    1W        W30894  10.278  21.038   7.101  0.1748  0.1700  0.0556
    1W        W30895  24.918  12.406   2.951 -0.0624  0.1638 -0.3251
    1W        W30896   4.237  16.055   2.753 -0.1076 -0.3567 -0.1884
    1W        W30897  13.005   5.261   6.289  0.0865 -0.1748  0.3475
    1W        W30898  20.306   1.797   8.207  0.0689 -0.0046 -0.4819
    1W        W30899  17.919  26.063   3.265 -0.0599 -0.2270 -0.3796
    1W        W30900  12.145  14.715   8.782  0.0308  0.1094 -0.2292
    1W        W30901   3.365  18.453   1.368 -0.2428  0.0979 -0.0298
    1W        W30902  19.850  10.436   0.971  0.2892  0.2031 -0.0543
    1W        W30903   7.274  21.944   3.570  0.0819  0.1022  0.1424
    1W        W30904  18.526   0.792   1.734  0.0886 -0.2014 -0.0914
    1W        W30905  24.052   6.055   1.744  0.0657 -0.0567  0.5849
    1W        W30906   9.681  23.260   7.224  0.0574  0.2439 -0.2287
    1W        W30907   6.941  25.635   8.333 -0.3403 -0.1780  0.0236
    1W        W30908   7.418  21.606   0.231 -0.1628  0.0314  0.0083
    1W        W30909  14.907  12.652   6.124  0.0402 -0.0833  0.1100
    1W        W30910   1.567  26.429   7.616 -0.0614  0.2180 -0.0994
    1W        W30911  12.573  20.280   1.020  0.1528  0.0078 -0.3688
    1W        W30912  14.676  14.049   6.500  0.0550  0.0321  0.0986
    1W        W30913  14.118   2.851   7.797 -0.0768 -0.3046  0.3966
    1W        W30914  19.528   5.080   9.611 -0.1412  0.2214 -0.1940
    1W        W30915  14.733   1.401   0.656  0.2601  0.3946 -0.0248
    1W        W30916  22.411  23.608   9.391 -0.0609  0.1402  0.0619
    1W        W30917   2.006   3.045   9.658 -0.0559 -0.2632 -0.3984
    1W        W30918  23.982   9.827   0.212  0.0422 -0.1386 -0.0779
    1W        W30919  25.664  14.382   2.571  0.1588 -0.3568 -0.0435
    1W        W30920   7.447  11.928   9.312 -0.0244 -0.0191  0.0083
    1W        W30921  17.444  27.321   8.595 -0.3991  0.2161 -0.0147
    1W        W30922   5.745   5.424   9.072 -0.3080  0.0076  0.1079
    1W        W30923  26.823   9.757   7.623  0.0873 -0.1936  0.0779
    1W        W30924   2.636  26.849   2.309  0.1960  0.0435 -0.0769
    1W        W30925  11.073  25.742   1.206 -0.0664 -0.4062 -0.4589
    1W        W30926   7.373  11.608   0.809  0.1205  0.1233 -0.0198
    1W        W30927  15.536  23.644   6.746 -0.2468  0.0573 -0.3707
    1W        W30928  23.878  22.550   1.109  0.0404 -0.0174 -0.4983
    1W        W30929   3.140  14.837   7.944 -0.2645 -0.2234  0.3270
    1W        W30930  20.374  16.696   1.659  0.1191  0.2460 -0.4376
    1W        W30931  10.312  21.207   7.915  0.1711 -0.3756  0.1116
    1W        W30932   7.420  24.613   1.427  0.1833  0.1748  0.1288
    1W        W30933  12.987  12.412   7.350 -0.0826  0.0439 -0.0009
    1W        W30934   8.695   3.695   2.154  0.1282  0.2322  0.0716
    1W        W30935  17.330  25.292   9.285  0.0239  0.1860  0.0793
    1W        W30936  21.229  27.194   7.842 -0.0017 -0.1938 -0.1311
    1W        W30937  23.868  21.192   9.639  0.2481 -0.0488 -0.1565
    1W        W30938  14.295  20.723   9.287 -0.0687 -0.1067 -0.0272
    1W        W30939   5.382  17.554   0.600 -0.2885 -0.2743 -0.1717
    1W        W30940   3.582  24.519   9.794 -0.2365 -0.0551 -0.0604
    1W        W30941   4.145   8.219   2.223  0.0229 -0.0966 -0.0911
    1W        W30942  17.921  20.691   8.909 -0.1662 -0.0578  0.0119
    1W        W30943   2.371  27.704   9.410  0.0612  0.1218  0.3606
    1W        W30944  23.828   9.014   9.354  0.0332  0.1070  0.1098
    1W        W30945  19.599  14.393   2.577  0.4101  0.1278  0.0256
    1W        W30946  23.662  25.009   1.695  0.3923 -0.1909  0.0917
    1W        W30947   0.477   8.952   8.483 -0.1926  0.0085 -0.0011
    1W        W30948  15.293  21.738   1.241 -0.4109 -0.3016  0.0719
    1W        W30949  17.920   9.389   1.917  0.1422 -0.1273  0.0855
    1W        W30950  27.770   1.917   2.802 -0.0298  0.0160 -0.0167
    1W        W30951   0.469  12.872   3.596 -0.0880  0.0052 -0.0765
    1W        W30952   2.762  28.386   4.613 -0.0651 -0.0155 -0.2642
    1W        W30953   2.500   8.310   2.112  0.1096  0.1108  0.0173
    1W        W30954  17.079  20.879   0.678  0.1650 -0.0743  0.0684
    1W        W30955   2.344   2.832   1.028  0.0076 -0.0789  0.3985
    1W        W30956   1.973  11.039   7.952 -0.0993  0.0988  0.0327
    1W        W30957  10.868  16.443   1.774  0.0420  0.0192  0.1084
    1W        W30958   9.085  11.392   1.071 -0.1412 -0.0897 -0.0953
    1W        W30959  16.374  28.536   1.398  0.0385 -0.1215  0.1788
    1W        W30960   4.067  19.422   2.889  0.1951  0.3180  0.0112
    1W        W30961   5.334   1.885   1.326  0.0493 -0.1409  0.1295
    1W        W30962   8.300  27.131   7.070  0.1013 -0.2372 -0.0342
    1W        W30963   2.413  18.132   9.841 -0.0171 -0.2979  0.0718
    1W        W30964  14.871  22.055   9.328  0.0254  0.0239 -0.0352
    1W        W30965   1.431  16.258   7.310 -0.3710 -0.0720 -0.1484
    1W        W30966  19.032   4.758   7.678 -0.2825  0.4600  0.1398
    1W        W30967   2.671   3.939   7.140  0.2133 -0.2392 -0.3092
    1W        W30968   4.166  13.374   9.868 -0.0109  0.2416  0.1222
    1W        W30969  15.158  14.315   9.254 -0.1001 -0.0574  0.0071
    1W        W30970   3.188   0.629   3.228  0.1583  0.0326 -0.0684
    1W        W30971  17.684   0.417   0.085 -0.3170  0.1280  0.0856
    1W        W30972   8.526  28.270   9.455  0.0590  0.4169  0.1702
    1W        W30973  25.651  13.577   7.196  0.0031 -0.3878  0.1647
    1W        W30974  25.230  21.119   7.456 -0.0590 -0.1959 -0.0370
    1W        W30975  26.408  12.065   8.211  0.0982 -0.0860 -0.2994
    1W        W30976  19.012  16.097   9.207  0.1692 -0.1797 -0.0502
    1W        W30977   0.314  25.143   4.437  0.1188 -0.1270 -0.4283
    1W        W30978  13.217  16.862   0.844  0.1093  0.1084  0.0602
    1W        W30979  15.145   8.476   6.068 -0.1101  0.1864  0.0528
    1W        W30980  15.490  18.538   1.248  0.2084 -0.4136  0.1014
    1W        W30981  12.813  28.002   2.911  0.1070 -0.3470 -0.0450
    1W        W30982  23.100   5.438   1.510 -0.0234 -0.0721  0.0202
    1W        W30983  19.388  12.727   0.353 -0.2675 -0.1018 -0.0224
    1W        W30984   7.045  14.643   7.784  0.0841 -0.1719 -0.3330
    1W        W30985  20.906  26.540   9.249  0.1683  0.0081  0.2894
    1W        W30986  12.824  10.121   5.791 -0.0805 -0.2563 -0.0183
    1W        W30987  20.684  19.772   9.105 -0.1942  0.1834 -0.0885
    1W        W30988   5.603  27.175   8.520 -0.0210 -0.2532 -0.0364
    1W        W30989  24.229  15.443   9.416  0.0903  0.0295  0.0977
    1W        W30990  16.020  11.381   2.436 -0.0253  0.0847  0.1300
    1W        W30991  20.183  17.732   7.085 -0.0670 -0.2750  0.0269
    1W        W30992  19.578   2.949   1.644  0.0887  0.1757  0.3402
    1W        W30993  16.033  10.077   0.283  0.2884 -0.0293 -0.1772
    1W        W30994   3.681  21.274   8.544 -0.0226 -0.3029 -0.0097
    1W        W30995   1.449   3.600   2.535  0.0698 -0.2296 -0.1553
    1W        W30996   3.939   7.864   7.160 -0.1072 -0.2543 -0.1917
    1W        W30997  18.082  17.314   0.814 -0.1668 -0.1373  0.1724
    1W        W30998   1.768   8.865   1.024 -0.0642  0.1073 -0.3624
    1W        W30999  12.557   9.535   1.849  0.0777  0.0755  0.2363
    1W        W31000  27.413   2.986   9.407  0.1535  0.2320  0.0206
    1W        W31001   9.838   2.710   8.537  0.0922  0.0639 -0.0667
    1W        W31002   1.491  26.985   4.225  0.0505 -0.0027 -0.1257
    1W        W31003  15.427  12.321   0.672 -0.2325 -0.4593  0.1570
    1W        W31004   8.016   3.076   1.170  0.1498  0.0786 -0.3155
    1W        W31005  13.622   5.260   1.465  0.0263 -0.2631 -0.3853
    1W        W31006  23.815   1.131   8.271 -0.0062  0.3490 -0.0726
    1W        W31007  18.181  14.757   1.520  0.0185 -0.1884  0.3148
    1W        W31008  16.092  11.033   0.410 -0.2928  0.0168  0.2597
    1W        W31009  27.632   9.399   3.234  0.2259 -0.2584 -0.1090
    1W        W31010  28.039   1.755   0.460  0.1750  0.0809 -0.2307
    1W        W31011  16.981   5.509   7.689  0.1966  0.2175 -0.0876
    1W        W31012  24.034  22.279   6.693 -0.1768  0.2173  0.0207
    1W        W31013   2.460  21.926   1.815 -0.0014 -0.0850 -0.1838
    1W        W31014  27.151  15.624   0.742  0.2581  0.2167 -0.0252
    1W        W31015  14.965  12.926   0.962  0.0172 -0.1931  0.1246
    1W        W31016  28.697  26.327   2.422 -0.1454 -0.0050  0.2551
    1W        W31017   0.405  26.897   8.433 -0.1303 -0.1360  0.1972
    1W        W31018   1.509   4.432   1.680 -0.2864 -0.0573  0.0100
    1W        W31019  14.403   9.359   9.881 -0.0803 -0.0368 -0.1310
    1W        W31020  10.236  21.918   2.999  0.0447 -0.0990 -0.0116
    1W        W31021  27.498  18.681   4.136  0.2948 -0.0748  0.0351
    1W        W31022  28.342  18.956   9.971  0.0539  0.0349  0.0506
    1W        W31023   3.752  13.042   0.114  0.0908  0.0575 -0.1154
    1W        W31024   1.978  21.132   0.460 -0.0186  0.0260  0.2458
    1W        W31025  10.087  11.570   0.357 -0.2724 -0.1823  0.0552
    1W        W31026  20.486  27.288   7.413 -0.0341  0.1975  0.1372
    1W        W31027  15.963   1.985   9.796  0.1989  0.2915 -0.0229
    1W        W31028  20.397  23.815   0.273  0.0269  0.1350 -0.2720
    1W        W31029   7.289  27.602   3.202  0.1093 -0.1596  0.0550
    1W        W31030  25.589  25.738   9.627  0.0470  0.0097  0.0148
    1W        W31031  24.804  13.195   0.698  0.1478 -0.1235  0.4072
    1W        W31032  13.166  17.888   6.756  0.0341 -0.1122 -0.0657
    1W        W31033  24.624  11.482   2.433  0.0256 -0.0449  0.2814
    1W        W31034  27.234   1.015   1.390  0.0889 -0.1735 -0.0828
    1W        W31035  15.960  11.628   6.879 -0.4181 -0.1004 -0.0134
    1W        W31036  22.663  15.955   8.494  0.2019  0.1295 -0.0063
    1W        W31037  18.606  18.532   9.829 -0.3159 -0.0480 -0.0186
    1W        W31038  11.422  17.731   7.389 -0.4375 -0.0505  0.0858
    1W        W31039  14.845  22.671   0.255  0.0894  0.0964  0.1659
    1W        W31040  14.498  19.695   7.704  0.0988 -0.0657  0.3524
    1W        W31041   3.807  11.873   1.784 -0.3128 -0.0242 -0.2112
    1W        W31042  28.178  15.223   0.855 -0.0737  0.2089 -0.3015
    1W        W31043  21.567  10.118   0.542  0.1142 -0.0566 -0.1216
    1W        W31044   6.261  11.702   3.173  0.1825 -0.0247 -0.1746
    1W        W31045  19.764   1.296   1.417 -0.0710 -0.2552 -0.2315
    1W        W31046   5.577  26.690   8.735 -0.0015  0.0105 -0.0024
    1W        W31047  11.757   1.830   1.949  0.1891 -0.1522 -0.0569
    1W        W31048  18.232   6.288   9.683 -0.0794 -0.3033  0.2260
    1W        W31049  20.596  11.739   8.006 -0.2250 -0.0718 -0.1279
    1W        W31050  13.326   3.132   6.732 -0.2356 -0.3587 -0.0280
    1W        W31051  28.325  24.943   9.508 -0.0899  0.1547 -0.0246
    1W        W31052  15.860  18.943   2.106  0.2827 -0.0400 -0.3178
    1W        W31053   8.794  12.093   8.968  0.0357 -0.1914 -0.0310
    1W        W31054  24.951   7.940   3.593  0.1339 -0.0321 -0.0862
    1W        W31055   9.445  22.962   1.848  0.0198 -0.2655 -0.5023
    1W        W31056  27.629  14.183   0.468  0.1591 -0.3599 -0.1491
    1W        W31057  18.680  11.860   9.426 -0.0800 -0.0401 -0.0658
    1W        W31058  22.551  22.073   3.368 -0.2548  0.2340  0.1055
    1W        W31059  19.845  20.130   6.350  0.1220 -0.1140  0.1109
    1W        W31060  17.468   6.362   1.106 -0.0779 -0.3493 -0.0855
    1W        W31061   3.192  13.599   7.233  0.2105 -0.0239  0.0591
    1W        W31062  23.544  11.091   7.248  0.0130 -0.0421 -0.3151
    1W        W31063   2.096  25.152   1.639 -0.1254  0.0829 -0.1399
    1W        W31064  19.818  22.556   3.188 -0.3501  0.1526  0.0544
    1W        W31065  20.877  22.362   1.117  0.0492 -0.2292  0.1132
    1W        W31066  16.309   2.831   8.422 -0.1708 -0.0781  0.0388
    1W        W31067   4.065  26.371   2.239  0.1496  0.1548  0.3038
    1W        W31068  11.967   7.728   8.548 -0.1575  0.0937 -0.0835
    1W        W31069   4.425  14.368   7.386 -0.0392  0.2755 -0.3759
    1W        W31070   4.651  21.690   2.161  0.0205  0.0334 -0.2287
    1W        W31071  13.333  17.313   9.695  0.0903  0.0069 -0.3259
    1W        W31072  20.514  24.356   1.161  0.3105 -0.1233  0.2892
    1W        W31073  20.420   6.652   8.627 -0.0849 -0.1084 -0.1094
    1W        W31074  19.749  28.316   0.378 -0.1133 -0.3045  0.3737
    1W        W31075  15.562  19.062   1.343  0.0137 -0.1848 -0.0395
    1W        W31076   6.287  28.141   3.965  0.4423 -0.0046 -0.1273
    1W        W31077  21.903   7.469   1.346 -0.0790 -0.2981 -0.0158
    1W        W31078  12.138  22.482   7.396  0.0617  0.0203  0.0377
    1W        W31079  27.566   8.654   1.242 -0.0188  0.2072 -0.0246
    1W        W31080   0.554   3.671   8.022  0.1390  0.1939  0.0107
    1W        W31081   8.196   6.667   2.679 -0.1193 -0.3530 -0.3460
    1W        W31082  25.882  26.685   1.375 -0.0204  0.0617  0.0568
    1W        W31083   8.841   7.570   6.997  0.3259 -0.0191 -0.0736
    1W        W31084  15.803   9.689   6.072 -0.0640  0.1172 -0.1153
    1W        W31085  12.835  21.708   1.736 -0.2974  0.3294 -0.0825
    1W        W31086  11.963   5.995   2.232 -0.0893 -0.3503 -0.1818
    1W        W31087  10.011   6.967   0.754  0.1526  0.0479 -0.0012
    1W        W31088   5.436  26.830   1.308 -0.2185  0.1755 -0.0677
    1W        W31089   4.309  27.711   1.940  0.0269 -0.0502  0.0810
    1W        W31090  24.406   6.082   9.315 -0.1836 -0.4842  0.2693
    1W        W31091  18.865  20.992   7.320 -0.0678 -0.2461 -0.1232
    1W        W31092  20.523  25.018   0.337  0.0213  0.1261 -0.0322
    1W        W31093   6.393  17.452   0.508  0.0145 -0.0393  0.2102
    1W        W31094   9.679  26.609   3.151 -0.2623 -0.2625 -0.0255
    1W        W31095  20.201  18.977   9.367  0.2627 -0.0482 -0.2012
    1W        W31096  25.538   8.419   7.955 -0.0553  0.3055  0.1188
    1W        W31097   0.608  26.229   9.671  0.2017 -0.0895  0.2764
    1W        W31098   1.603   8.531   0.640  0.0593  0.1860  0.0667
    1W        W31099   6.128   1.701   9.401  0.0982  0.0089 -0.0242
    1W        W31100  22.091  16.696   9.566  0.3522 -0.0860  0.1391
    1W        W31101  13.399  18.155   1.309 -0.4192  0.1907 -0.2115
    1W        W31102  16.155  26.164   1.703 -0.0292  0.0917 -0.1717
    1W        W31103  25.945   2.055   0.969  0.0097  0.1311 -0.3439
    1W        W31104  19.429  15.417   1.185 -0.1878 -0.0747 -0.0263
    1W        W31105   3.127   4.306   0.467  0.1650 -0.0394 -0.0975
    1W        W31106   0.151  21.698   3.297 -0.2526 -0.0183  0.1901
    1W        W31107  24.415  20.086   3.102  0.2185 -0.1126 -0.3989
    1W        W31108   5.149  19.613   9.027  0.1818 -0.2161 -0.0622
    1W        W31109  11.582  26.540   0.274  0.0522  0.0968  0.1851
    1W        W31110   5.531  27.144   0.050 -0.0248 -0.1371  0.1887
    1W        W31111   5.401  10.630   1.852 -0.0324  0.0012 -0.1540
    1W        W31112  24.936   4.777   0.311 -0.0709 -0.3576 -0.3530
    1W        W31113   2.371   9.703   0.801  0.0688  0.0913 -0.3672
    1W        W31114  20.580  20.671   1.884 -0.2467 -0.3318  0.0477
    1W        W31115  24.736   6.579   7.916 -0.1545  0.0387  0.3190
    1W        W31116  24.211  23.132   0.416  0.0543  0.0650  0.3820
    1W        W31117  21.193  26.011   9.659  0.1199 -0.0099  0.2739
    1W        W31118   2.034  22.878   8.658  0.0778 -0.2067 -0.0857
    1W        W31119  14.596  18.505   1.742 -0.1797  0.0334  0.3164
    1W        W31120  23.908  28.309   9.914  0.2572 -0.0533  0.1752
    1W        W31121   8.427   4.198   1.577 -0.0823 -0.2877  0.1723
    1W        W31122  10.360  24.050   2.471 -0.2295  0.0216 -0.1883
    1W        W31123   9.577  28.500   1.750 -0.3144 -0.2369 -0.2642
    1W        W31124   7.699   1.973   8.333  0.0635  0.0715 -0.0875
    1W        W31125  25.162  16.523   9.820 -0.1263 -0.1668  0.1563
    1W        W31126   5.787   4.244   7.234  0.3105 -0.0904 -0.0174
    1W        W31127  21.327  23.490   0.605  0.1231  0.0211  0.4101
    1W        W31128  10.099  26.791   8.489  0.0520  0.2526  0.0325
    1W        W31129  10.930  15.587   5.665  0.0847  0.0590 -0.0601
    1W        W31130  26.149  22.635   2.571 -0.1039  0.1255 -0.2036
    1W        W31131   2.777   7.563   2.837 -0.1321  0.0370 -0.2535
    1W        W31132  24.281   1.492   2.063  0.0135 -0.0757  0.1811
    1W        W31133   8.173  17.486   8.955 -0.1057  0.2350 -0.0841
    1W        W31134  13.752  15.972   2.096  0.2521  0.0086 -0.0608
    1W        W31135  23.180  21.940   8.195 -0.0473  0.0191 -0.0847
    1W        W31136  16.476  21.459   8.201 -0.0583 -0.2430 -0.0511
    1W        W31137  16.222  26.785   3.050 -0.0095  0.3936 -0.2801
    1W        W31138   7.506  13.462   7.061  0.1277  0.2189 -0.2308
    1W        W31139  15.712   9.984   0.813 -0.5064 -0.2504  0.0637
    1W        W31140  18.240   3.130   6.363 -0.3598  0.1048  0.0513
    1W        W31141  26.294   8.328   9.843 -0.1160 -0.1574 -0.1463
    1W        W31142   0.342   5.482   1.986  0.0593 -0.3040 -0.1038
    1W        W31143   4.618  27.374   2.222  0.3177 -0.2400 -0.1989
    1W        W31144  12.315   2.879   8.996  0.1334 -0.2520  0.0520
    1W        W31145   1.688   9.158   7.975  0.0864  0.0215 -0.1777
    1W        W31146  21.212  26.594   1.876  0.1752 -0.0087 -0.0156
    1W        W31147   1.229  12.514   2.377 -0.3272  0.1192 -0.0258
    1W        W31148  26.683  14.376   1.838  0.1746  0.2029  0.1877
    1W        W31149   6.824  20.924   1.723 -0.3539  0.3235  0.3981
    1W        W31150   1.723   6.183   2.132  0.0945  0.1697  0.0244
    1W        W31151  23.371   7.392   0.886  0.6712 -0.0490  0.2435
    1W        W31152  10.717   7.901   2.084  0.2044  0.0230 -0.0427
    1W        W31153  10.216   7.122   0.345 -0.0757  0.0054  0.2074
    1W        W31154  18.280  17.047   7.327 -0.1267  0.0140 -0.1362
    1W        W31155  19.038  20.877   6.824 -0.0965 -0.1391 -0.0767
    1W        W31156  10.660  12.434   2.596 -0.4500  0.0345 -0.0566
    1W        W31157   6.345  14.846   1.772  0.0275  0.0354  0.2240
    1W        W31158  19.173   2.854   7.455  0.2008 -0.0518 -0.0934
    1W        W31159  16.900   7.754   7.379 -0.1653 -0.0060 -0.1454
    1W        W31160   0.074  23.754   2.045 -0.3671 -0.3290  0.2885
    1W        W31161  20.864  22.490   1.990 -0.4373  0.0093  0.0049
    1W        W31162   4.820  23.394   9.112  0.0993  0.2339 -0.1456
    1W        W31163   5.889   6.392   2.795  0.0388 -0.0480  0.2316
    1W        W31164  21.683  15.732   0.529  0.0540 -0.3656  0.0029
    1W        W31165   6.070  12.613   0.928  0.0121  0.2033 -0.1364
    1W        W31166  25.939  11.895   8.115  0.0771 -0.0604 -0.0284
    1W        W31167  10.962  19.486   2.503  0.0080 -0.5313  0.1707
    1W        W31168  14.311  14.572   8.324  0.3719  0.2517  0.0426
    1W        W31169  14.416   1.871   8.075 -0.2354 -0.0014  0.1860
    1W        W31170  19.819  20.021   8.531 -0.2493 -0.1976 -0.1012
    1W        W31171   4.074  14.633   7.600 -0.1426  0.3812  0.1690
    1W        W31172  25.751   2.533   9.765  0.0455 -0.2309  0.1134
    1W        W31173   8.902  20.018   1.598 -0.0564 -0.1916 -0.2801
    1W        W31174  20.499  13.553   1.748 -0.3612  0.0486  0.0003
    1W        W31175   2.673   7.968   8.979  0.1838 -0.2015  0.2667
    1W        W31176   3.171   1.162   8.311  0.1514 -0.1793  0.0468
    1W        W31177   1.962  10.876   2.317 -0.1544  0.1630  0.0152
    1W        W31178   5.770   6.628   2.345  0.0643 -0.0091  0.0773
    1W        W31179  15.152  28.557   8.921  0.1379  0.1160 -0.0409
    1W        W31180   9.224  27.531   2.055 -0.1395 -0.1456  0.1380
    1W        W31181   5.377   8.960   7.967  0.1448 -0.3007  0.0938
    1W        W31182  13.358  19.513   2.619 -0.0544  0.0608 -0.1174
    1W        W31183  28.536   0.859   9.161 -0.1794  0.0259 -0.0682
    1W        W31184  28.067  25.738   1.587 -0.2248  0.2020  0.0487
    1W        W31185   1.008  11.328   0.679  0.0281  0.0377 -0.0037
    1W        W31186  16.855   9.260   8.293  0.0651  0.0413 -0.1643
    1W        W31187  20.484   4.068   9.818 -0.2385  0.3877 -0.1876
    1W        W31188   5.212   1.565   1.781 -0.1750  0.1260  0.0516
    1W        W31189   9.138   0.226   0.036 -0.0916  0.1267 -0.2450
    1W        W31190  17.038  22.064   6.902  0.1177  0.1402 -0.1175
    1W        W31191  12.179   1.234   1.385  0.0597  0.0825  0.0628
    1W        W31192  17.711  22.025   9.492  0.1556  0.1860 -0.1257
    1W        W31193  18.826  26.383   2.838  0.1160 -0.0262 -0.1548
    1W        W31194   3.875  11.200   7.251 -0.3398  0.1763 -0.1658
    1W        W31195  18.959   2.055   7.604  0.0094 -0.2068  0.2373
    1W        W31196  17.293   1.436   9.578  0.0783 -0.0600  0.2585
    1W        W31197   7.700  10.982   9.836  0.1759 -0.2265  0.0892
    1W        W31198  28.772  14.921   3.072 -0.3743 -0.1600  0.0226
    1W        W31199   7.679  10.905   9.335 -0.0869 -0.0886 -0.2405
    1W        W31200   2.499  11.056   9.937  0.0311  0.0112  0.2589
    1W        W31201   4.631   4.867   1.593  0.2674 -0.1535 -0.2095
    1W        W31202  23.113  10.938   7.491  0.0905 -0.0520 -0.5072
    1W        W31203  27.480  28.426   0.232 -0.0721  0.2992 -0.7127
    1W        W31204  20.405  28.598   9.794  0.0427  0.1714 -0.0784
    1W        W31205  19.736  15.186   7.549 -0.3601 -0.0705 -0.1824
    1W        W31206  17.665  15.389   0.020 -0.2232  0.2163  0.1221
    1W        W31207  24.156  13.894   6.366  0.0775  0.0881  0.0787
    1W        W31208   0.652   7.794   8.450  0.1693  0.0956  0.1526
    1W        W31209   2.001  23.075   1.876 -0.0728 -0.1945  0.1705
    1W        W31210  20.217  21.772   2.877 -0.0011  0.3563 -0.1655
    1W        W31211  15.343   3.680   6.391 -0.0241  0.1581  0.1318
    1W        W31212   5.505  11.037   1.609  0.0146  0.1414 -0.1293
    1W        W31213  25.333  16.707   8.171 -0.1163 -0.0872  0.3268
    1W        W31214   2.980  20.881   9.651  0.3019  0.1462 -0.0182
    1W        W31215  15.597  21.688   0.769  0.1155  0.1380  0.0339
    1W        W31216   4.626  24.277   2.802 -0.1937 -0.0370  0.0296
    1W        W31217  10.166  26.192   8.180 -0.0245  0.0725 -0.1543
    1W        W31218  23.659  19.671   7.723 -0.2102 -0.1234 -0.0477
    1W        W31219  10.037  24.076   0.439  0.0806 -0.2550 -0.1992
    1W        W31220  23.571  23.763   9.808 -0.4213  0.1149 -0.2524
    1W        W31221   1.779  25.327   1.274 -0.0027  0.0625 -0.1027
    1W        W31222  21.092  10.624   9.317  0.0017 -0.0039 -0.0822
    1W        W31223   4.852  19.911   0.709  0.1300  0.0155 -0.3371
    1W        W31224  20.776  24.161   0.100 -0.1072 -0.3973 -0.2456
    1W        W31225  20.364  27.545   0.487  0.1762 -0.0730 -0.2599
    1W        W31226   7.184  13.382   6.585  0.2309  0.0214  0.1958
    1W        W31227   9.112  18.875   6.259 -0.1555  0.2827 -0.2816
    1W        W31228  20.224   6.602   9.461  0.2272 -0.2554 -0.1093
    1W        W31229   0.158  28.334   2.706  0.0589  0.1558 -0.1320
    1W        W31230  17.724  28.228   2.462 -0.1149  0.1526 -0.1716
    1W        W31231   8.471  18.395   8.354 -0.1773 -0.2006 -0.1185
    1W        W31232  10.897  11.884   1.847 -0.0164  0.2206 -0.0073
    1W        W31233  28.191  16.005   2.152  0.0257  0.4108  0.6032
    1W        W31234   2.489   7.685   9.377 -0.2240 -0.4894 -0.0306
    1W        W31235  12.651   3.257   1.429 -0.0378  0.0773 -0.2285
    1W        W31236  28.577  28.592   0.345 -0.0015 -0.0201 -0.2431
    1W        W31237  14.172  16.860   1.049  0.1036 -0.2244 -0.0345
    1W        W31238   5.283  23.742   8.586 -0.2209  0.1612  0.3566
    1W        W31239  28.564  13.881   0.563  0.1410  0.0256  0.1612
    1W        W31240  24.883  18.512   1.169 -0.2992 -0.0397 -0.1122
    1W        W31241   8.669  21.480   9.696 -0.0733 -0.4942 -0.0682
    1W        W31242   1.629   5.740   9.151  0.0749 -0.1723 -0.0715
    1W        W31243  21.111  22.489   0.229 -0.1004 -0.2311  0.0850
    1W        W31244  18.166  21.527   8.306 -0.2626 -0.0643  0.0420
    1W        W31245   7.159   1.827   9.320 -0.2419 -0.1629 -0.0449
    1W        W31246   1.286  16.495   9.795 -0.1890  0.0316  0.2404
    1W        W31247   3.942   4.026   9.397  0.0187  0.1471 -0.0393
    1W        W31248  14.879   8.491   7.333 -0.1191  0.5339 -0.1856
    1W        W31249  13.871  16.071   7.037  0.4605 -0.0740 -0.2022
    1W        W31250  12.511  17.865   0.915 -0.2801 -0.1724  0.1122
    1W        W31251  15.250  25.701   1.126 -0.0865 -0.0473  0.1233
    1W        W31252   1.151  18.173   1.331  0.1273  0.0302 -0.1977
    1W        W31253  26.654   5.274   3.424  0.0121 -0.2151 -0.1839
    1W        W31254  14.427  27.390   1.800 -0.0085  0.5128 -0.1493
    1W        W31255   9.537  24.139   0.510  0.2275 -0.1547  0.1422
    1W        W31256   5.483   0.465   8.360  0.0209 -0.1971 -0.3572
    1W        W31257   7.319   5.452   2.775  0.1606 -0.0454  0.0311
    1W        W31258  21.135  10.420   0.485  0.2054  0.0285  0.0142
    1W        W31259   0.620  28.585   2.858 -0.0767 -0.0333  0.0233
    1W        W31260  26.389   2.748   0.577 -0.3713  0.0888  0.2758
    1W        W31261  25.657  25.651   7.803 -0.1173  0.1333  0.1646
    1W        W31262  16.433  28.109   8.628  0.2938 -0.0803 -0.0595
    1W        W31263  18.972   0.917   1.473 -0.0698  0.2070 -0.1657
    1W        W31264   2.352  26.796   2.666 -0.0319  0.3129 -0.1294
    1W        W31265  14.663   9.325   1.620 -0.4028 -0.1844  0.1358
    1W        W31266  24.319  12.010   2.210 -0.0937  0.0252  0.1001
    1W        W31267  24.164  14.661   7.382  0.2974  0.0161 -0.3310
    1W        W31268   1.198   5.025   2.313  0.0384  0.3555 -0.0042
    1W        W31269  10.391  20.297   1.242  0.5671  0.0644 -0.4387
    1W        W31270  20.859  18.277   7.597 -0.1389 -0.2327 -0.0633
    1W        W31271   0.516  12.247   2.217  0.2534 -0.1575  0.3444
    1W        W31272  28.074   4.607   1.571 -0.1405  0.1729  0.0423
    1W        W31273  22.966  27.151   2.779  0.1579 -0.1141  0.2754
    1W        W31274  13.222  26.350   7.748 -0.0459 -0.0047  0.0719
    1W        W31275   3.615  15.344   7.440  0.0216  0.1330  0.0862
    1W        W31276  27.246  23.181   3.502  0.0991 -0.1434 -0.3861
    1W        W31277  16.103  14.556   9.610  0.2895 -0.4637 -0.1984
    1W        W31278  13.706   1.808   9.978 -0.2049  0.1678 -0.2470
    1W        W31279   1.391  16.926   3.540 -0.0438  0.2670 -0.1413
    1W        W31280  12.712  10.091   1.628  0.0957 -0.1601  0.3203
    1W        W31281  12.747  22.721   7.134 -0.2172  0.0167 -0.1161
    1W        W31282  11.588  20.193   7.854 -0.0033 -0.5141  0.0699
    1W        W31283  17.819  15.380   7.209  0.0307 -0.1500 -0.0444
    1W        W31284  16.055   0.439   0.644  0.3342 -0.1123 -0.1023
    1W        W31285  13.111   1.599   7.359 -0.3277 -0.0002 -0.2051
    1W        W31286   0.921   5.826   3.889 -0.0350 -0.1662  0.2006
    1W        W31287  23.212  12.175   7.359 -0.2219 -0.1367 -0.2099
    1W        W31288  13.560  15.337   2.050  0.2414  0.0458 -0.1964
    1W        W31289  19.769  25.971   7.194  0.0932 -0.0352  0.0834
    1W        W31290  17.830  21.312   9.960 -0.1934  0.2195 -0.1694
    1W        W31291   6.700  11.251   7.645 -0.1463 -0.1582 -0.3819
    1W        W31292  15.730   5.431   8.105 -0.0750 -0.1721 -0.2277
    1W        W31293  17.873  27.224   6.520 -0.2937  0.2312  0.3826
    1W        W31294  13.168  18.653   1.105  0.1671  0.0666  0.0059
    1W        W31295   0.001   6.423   1.852 -0.1315 -0.1291  0.0072
    1W        W31296   4.550   6.458   2.382  0.1224 -0.0189 -0.0017
    1W        W31297  26.422   2.764   3.305  0.2706  0.1206  0.2771
    1W        W31298  12.416  22.711   0.993  0.1932 -0.0542  0.0316
    1W        W31299  13.813  21.557   8.159 -0.2617  0.2927  0.1977
    1W        W31300   2.910   0.060   0.775 -0.0689 -0.1184 -0.0376
    1W        W31301  15.863  20.256   7.851 -0.2596  0.2757 -0.2871
    1W        W31302  28.182  21.941   0.269 -0.1570  0.2948  0.0502
    1W        W31303   5.071  10.278   9.488  0.1124 -0.1783  0.2025
    1W        W31304  26.761   3.891   2.813 -0.0888 -0.0089  0.0382
    1W        W31305  13.317  26.534   9.559  0.1963  0.0213  0.0927
    1W        W31306  24.681   7.360   1.998  0.2927  0.1539  0.1940
    1W        W31307  16.123  12.085   7.403  0.0421 -0.0348  0.1440
    1W        W31308   5.188   6.357   1.617 -0.2688 -0.1515  0.0070
    1W        W31309  23.134   6.424   7.050 -0.2604 -0.0728 -0.3218
    1W        W31310  17.744  24.418   9.941  0.1341  0.0255 -0.1744
    1W        W31311  25.023  27.410   0.575  0.1161  0.2746 -0.0392
    1W        W31312  21.587   9.569   8.860  0.1507 -0.2210  0.1385
    1W        W31313   3.024  17.611   1.014  0.0080  0.0296  0.2467
    1W        W31314  13.783   8.800   9.659  0.0552 -0.2999 -0.0368
    1W        W31315   9.099  12.059   1.761  0.2531  0.1822  0.0780
    1W        W31316  25.051  18.590   1.668 -0.1860  0.3142 -0.0572
    1W        W31317  15.461  23.313   7.988  0.2577  0.1571 -0.2412
    1W        W31318  21.995  12.219   1.203 -0.1619  0.1881  0.2982
    1W        W31319   4.269   4.944   0.696 -0.0983  0.2392 -0.0508
    1W        W31320  27.547  21.373   9.206  0.0943 -0.0250 -0.0334
    1W        W31321   4.388  19.383   2.547 -0.1347  0.1711 -0.1788
    1W        W31322  24.862   7.478   0.725  0.0466  0.1865  0.2284
    1W        W31323  24.866  17.680   6.567 -0.3932 -0.4093  0.1653
    1W        W31324   0.200  20.224   2.411 -0.3317 -0.0044 -0.4756
    1W        W31325   1.461   3.455   7.753  0.2130  0.2273 -0.1620
    1W        W31326   4.300  25.964   7.990 -0.0728 -0.3620 -0.0970
    1W        W31327  25.038   7.635   3.212 -0.0293 -0.2238  0.1549
    1W        W31328   4.687   4.498   1.889  0.2196 -0.1616 -0.3169
    1W        W31329  19.565  16.193   8.924  0.2513  0.0213  0.1785
    1W        W31330   3.280   3.432   8.118 -0.1330  0.1481 -0.0237
    1W        W31331  23.387  21.434   9.793 -0.2753  0.0039 -0.1755
    1W        W31332   7.561  17.963   1.856 -0.2652  0.5774  0.1068
    1W        W31333   5.777   0.074   0.849 -0.2865  0.1931  0.1862
    1W        W31334   6.309  10.196   1.232 -0.0808 -0.0203  0.2881
    1W        W31335   3.641  20.830   1.990  0.1997  0.2218  0.0363
    1W        W31336  25.546   5.122   9.848 -0.0813  0.1166 -0.3586
    1W        W31337  13.007   7.007   0.888 -0.0432 -0.0636  0.2839
    1W        W31338   6.509  20.508   6.744  0.0394  0.0159 -0.1672
    1W        W31339  27.047  11.267   9.013 -0.3061 -0.0697  0.1340
    1W        W31340   7.324   9.907   0.976  0.0454  0.2995  0.0350
    1W        W31341  12.778  26.361   9.766 -0.1471  0.0155  0.0439
    1W        W31342   7.462   3.255   3.751 -0.0117 -0.3130 -0.2063
    1W        W31343   3.643   9.220   1.194 -0.0748  0.1984  0.3080
    1W        W31344  26.320  15.316   0.576  0.3507  0.1652 -0.1413
    1W        W31345  22.416  10.322   2.508 -0.4717 -0.0116 -0.0570
    1W        W31346   3.841  15.211   1.298  0.1665 -0.1595 -0.1922
    1W        W31347  15.417  18.205   7.974 -0.0776  0.0589 -0.2053
    1W        W31348  20.746  25.865   9.365 -0.0809  0.0711 -0.1709
    1W        W31349  11.756  25.203   8.713  0.0758 -0.1836 -0.0701
    1W        W31350   5.593   8.858   0.904 -0.1665 -0.0102  0.2517
    1W        W31351  14.489  17.643   2.075  0.3898 -0.1783 -0.0819
    1W        W31352   4.316   0.673   9.908  0.1336  0.0557 -0.3653
    1W        W31353  21.914  28.658   0.425 -0.0197  0.0191 -0.0792
    1W        W31354   3.263  12.410   2.758 -0.2482 -0.2208  0.1835
    1W        W31355   1.152   4.108   4.032  0.1955 -0.1593  0.2659
    1W        W31356  12.548  20.393   1.907  0.0660 -0.1167  0.2650
    1W        W31357   7.277   0.119   2.626  0.2320 -0.0230 -0.1299
    1W        W31358  28.085  14.051   9.842 -0.0552 -0.1646  0.1308
    1W        W31359   5.658  28.088   1.765 -0.0010  0.2075 -0.0473
    1W        W31360  22.182  24.956   2.631  0.0389  0.0144  0.5654
    1W        W31361  10.869   7.336   1.567  0.1156  0.2844  0.0952
    1W        W31362  28.721  10.339   9.033 -0.0458 -0.0039 -0.2917
    1W        W31363   7.837  22.625   8.019 -0.0240  0.2483 -0.0930
    1W        W31364  20.368  12.125   8.590  0.0109 -0.1548 -0.1103
    1W        W31365  21.915  10.255   0.896 -0.1918 -0.3131 -0.0685
    1W        W31366  16.939   0.933   0.980 -0.0839  0.2564  0.0709
    1W        W31367  22.040  19.631   1.733  0.0421  0.0224  0.2131
    1W        W31368  14.680   3.433   0.951  0.2332  0.2676 -0.0213
    1W        W31369  23.247   9.499   9.154  0.2478  0.1808  0.0521
    1W        W31370  27.779   7.810   2.992  0.3318 -0.0960  0.0607
    1W        W31371  22.604   8.393   0.709 -0.1312 -0.0235 -0.0328
    1W        W31372   5.322   4.574   9.493  0.0856  0.0987  0.1557
    1W        W31373  11.944  10.575   0.401 -0.1243 -0.2239  0.0941
    1W        W31374  12.602   2.831   1.699  0.3871 -0.3396 -0.1381
    1W        W31375  18.740   0.095   1.661  0.1795 -0.2297 -0.1028
    1W        W31376  27.346  15.170   2.011  0.1022 -0.2153  0.0631
    1W        W31377  15.974  28.065   6.920  0.0323 -0.0882 -0.2747
    1W        W31378  24.790  28.054   8.710  0.1031 -0.2969 -0.0113
    1W        W31379  10.066   4.928   6.905 -0.2277  0.2040  0.2467
    1W        W31380  12.017   1.541   8.489  0.0397  0.1812 -0.0550
    1W        W31381  27.084  10.002   2.898 -0.0747  0.1591 -0.1773
    1W        W31382  14.484  22.594   6.468 -0.0972  0.0469 -0.0787
    1W        W31383  11.384  17.594   8.894  0.0350 -0.0196 -0.0377
    1W        W31384  25.042   1.980   9.263  0.0338 -0.1033 -0.0361
    1W        W31385  24.270   3.608   0.172  0.1251 -0.1052 -0.2206
    1W        W31386  28.393   1.297   8.891 -0.0515 -0.2559  0.2208
    1W        W31387  26.363  10.904   9.233 -0.1333 -0.3029  0.2421
    1W        W31388  27.691  15.694   2.718  0.0012  0.0259  0.1047
    1W        W31389  16.577  23.324   0.199  0.1884  0.1933  0.0557
    1W        W31390  18.233   3.965   0.345  0.0076  0.2042  0.0437
    1W        W31391  16.761  26.949   0.813 -0.0976  0.1358  0.0444
    1W        W31392   2.954   7.916   1.297 -0.2269  0.0608  0.0184
    1W        W31393  13.424  11.164   6.752 -0.2840  0.1861 -0.4381
    1W        W31394  24.970  23.179   8.787 -0.2492 -0.0616  0.1839
    1W        W31395  17.234   4.647   8.782  0.0488  0.1843  0.0796
    1W        W31396  10.190   8.942   9.425  0.2687 -0.0258  0.0227
    1W        W31397  15.834  21.211   1.797  0.0897 -0.2346 -0.2530
    1W        W31398   6.927   4.629   9.064  0.0975 -0.0014  0.2606
    1W        W31399  17.206  18.117   2.067  0.0621 -0.0243  0.0101
    1W        W31400  26.815  10.503   0.422  0.1222 -0.0839 -0.0149
    1W        W31401   7.486  17.240   0.211 -0.0010 -0.0367 -0.0505
    1W        W31402  27.540  20.800   0.590 -0.1111 -0.0785  0.0216
    1W        W31403  27.712  27.751   9.792  0.3456  0.1573 -0.0750
    1W        W31404  10.122  10.597   1.556  0.1391 -0.3233  0.2615
    1W        W31405  23.706   7.409   8.486 -0.1252  0.1358  0.0090
    1W        W31406  14.871  22.550   9.146 -0.1972 -0.1209 -0.0758
    1W        W31407  16.683  15.949   9.797 -0.1734  0.3038 -0.1618
    1W        W31408   8.052   9.978   7.579 -0.1664  0.1160 -0.3583
    1W        W31409  23.352   5.866   8.308 -0.3627 -0.1806 -0.1075
    1W        W31410   1.570   7.258   9.952  0.1852 -0.2334 -0.2862
    1W        W31411  17.125  12.489   0.214  0.2717  0.2672 -0.0032
    1W        W31412   1.569   9.136   7.312 -0.2036 -0.0005  0.0512
    1W        W31413  23.692  24.630   7.899  0.1151  0.3026 -0.1965
    1W        W31414  24.000   8.284   7.982  0.0202  0.0720 -0.1983
    1W        W31415  19.530   7.408   6.482  0.1754  0.0665 -0.1600
    1W        W31416  13.869  24.346   1.220  0.0856  0.3460 -0.0118
    1W        W31417  10.046   9.301   6.713 -0.1008 -0.0084  0.3191
    1W        W31418  22.395  11.611   7.775 -0.0010 -0.1125  0.0184
    1W        W31419   3.337  20.848   9.284 -0.0489  0.1524  0.3546
    1W        W31420  15.556  26.193   8.721  0.1051 -0.0287  0.0142
    1W        W31421  25.960   5.229   2.301  0.0669 -0.1026 -0.2221
    1W        W31422   7.408   4.463   1.753  0.2664 -0.0887 -0.2946
    1W        W31423  19.624  19.622   8.987 -0.1393  0.0772 -0.5006
    1W        W31424   2.187   4.238   8.639  0.1696 -0.1793 -0.3282
    1W        W31425  13.339  25.219   6.637 -0.0632 -0.0669  0.1471
    1W        W31426  15.247  20.198   6.273  0.1206  0.2366  0.0051
    1W        W31427  12.302  19.317   2.634 -0.2640  0.0660 -0.0147
    1W        W31428  24.854   3.807   7.191  0.0009 -0.2110  0.0733
    1W        W31429  26.606  22.719   9.376 -0.0480  0.3158 -0.2387
    1W        W31430   6.227  26.896   0.731 -0.0203 -0.0586  0.1282
    1W        W31431  23.367  16.299   7.424  0.0897 -0.2186  0.0088
    1W        W31432  20.891  10.555   6.919 -0.0654  0.1413 -0.0606
    1W        W31433   0.581   4.595   8.813  0.3583 -0.0224  0.5131
    1W        W31434  10.460  14.677   0.332  0.0018  0.1451  0.3046
    1W        W31435  23.838  17.298   2.919  0.0205 -0.0603  0.5533
    1W        W31436  21.741   9.545   2.192 -0.0649 -0.0221  0.1661
    1W        W31437  15.547  10.161   0.328 -0.4722 -0.1351 -0.2522
    1W        W31438  27.548   4.696   0.768 -0.0244  0.1341 -0.0807
    1W        W31439   7.634  20.605   7.681 -0.0168  0.2329  0.2736
    1W        W31440   9.103   9.891   9.571 -0.0395  0.3397 -0.0639
    1W        W31441  13.081   1.699   9.165  0.1691  0.0136 -0.2315
    1W        W31442   3.350  10.112   0.977  0.1283  0.0165  0.3393
    1W        W31443  12.102  25.361   2.841  0.2554  0.0017  0.1373
    1W        W31444  23.050  27.224   8.215 -0.0846 -0.2859 -0.2537
    1W        W31445   9.899   9.189   7.856 -0.0717 -0.0438  0.0654
    1W        W31446   2.918   6.373   1.402 -0.1636 -0.2062 -0.1934
    1W        W31447   7.622   7.117   0.790  0.4575  0.5815  0.2054
    1W        W31448  15.293  16.926   2.089 -0.0456 -0.0530  0.0878
    1W        W31449  25.185   0.168   7.845 -0.0141 -0.0747 -0.3403
    1W        W31450   2.880  11.423   8.488  0.3115  0.1300  0.0304
    1W        W31451  26.510   3.155   1.276  0.1959  0.0469  0.1789
    1W        W31452   5.068   7.777   2.198  0.0593  0.0605  0.1242
    1W        W31453  10.778  10.795   6.970 -0.1923  0.0532 -0.0759
    1W        W31454  26.437  17.778   2.346 -0.1402  0.0687 -0.2461
    1W        W31455   4.611   5.967   2.170  0.1342  0.1475 -0.1882
    1W        W31456   4.685  27.357   9.620  0.1811  0.1974 -0.0256
    1W        W31457  19.807   8.827   0.037  0.1093  0.0482  0.3703
    1W        W31458  11.613  12.800   6.978 -0.2463 -0.1776  0.0191
    1W        W31459  19.086   0.213   7.296  0.2031 -0.1861 -0.2099
    1W        W31460  28.544  27.944   1.101  0.0472 -0.2632  0.0416
    1W        W31461  24.861  19.620   9.138 -0.0290 -0.0057  0.1457
    1W        W31462   1.761   7.881   1.903  0.0342 -0.2767 -0.2138
    1W        W31463   0.841  15.807   8.797  0.1053 -0.1530 -0.4019
    1W        W31464   7.974   5.384   8.335  0.2682 -0.0380 -0.0951
    1W        W31465  16.770  13.542   7.765  0.0340  0.1150  0.1648
    1W        W31466  16.774  12.832   7.296  0.1154  0.3084  0.0210
    1W        W31467   9.197  27.581   0.561 -0.0728  0.0733  0.2845
    1W        W31468  27.994   1.887   1.473 -0.4015 -0.1414 -0.1229
    1W        W31469  22.550  13.573   7.232 -0.0038 -0.3850 -0.0065
    1W        W31470  23.747  25.117   1.240 -0.1733 -0.0446  0.1372
    1W        W31471  25.781   7.290   8.589 -0.0302 -0.1454 -0.2205
    1W        W31472  17.212   3.658   0.769  0.0046 -0.1886  0.1053
    1W        W31473  20.401  16.254   2.590  0.0245 -0.1316 -0.3368
    1W        W31474  24.955  18.826   2.793  0.2020 -0.4050  0.1678
    1W        W31475  10.293  17.714   9.699 -0.4348  0.1363 -0.0527
    1W        W31476   8.082  20.385   7.659 -0.5199  0.0807  0.0112
    1W        W31477  16.573  23.191   8.325 -0.2000 -0.1534 -0.0452
    1W        W31478  25.406  10.881   8.725 -0.3643  0.0012 -0.4150
    1W        W31479   4.686   3.642   3.464  0.2940  0.3806 -0.1269
    1W        W31480  16.237  18.452   0.840 -0.2287  0.0469  0.0705
    1W        W31481  19.982  25.467   9.448  0.2041 -0.1741  0.0691
    1W        W31482   1.627  20.692   1.863  0.0005 -0.1166 -0.0061
    1W        W31483   1.279  17.912   8.762  0.2149 -0.0751 -0.0026
    1W        W31484  11.270  15.222   1.114 -0.1356 -0.3155 -0.1447
    1W        W31485   0.563  18.162   9.970 -0.1034  0.0213  0.1989
    1W        W31486  20.335  16.960   2.106  0.0308 -0.0195  0.0313
    1W        W31487   0.730  25.785   2.521 -0.0978  0.0458 -0.0179
    1W        W31488  23.897   0.635   9.149 -0.1429 -0.0912  0.0383
    1W        W31489  26.561  18.702   1.867  0.2073 -0.1981 -0.4731
    1W        W31490  11.939   5.776   1.208  0.1409 -0.0803  0.3407
    1W        W31491   9.797  12.907   9.126  0.3148  0.1583 -0.2672
    1W        W31492  15.309  18.378   9.763 -0.1064  0.0770  0.0748
    1W        W31493  18.567   4.095   9.130 -0.1094 -0.1937 -0.0850
    1W        W31494  20.108  25.499   7.957  0.0434  0.0923  0.0976
    1W        W31495  14.216   4.797   0.474 -0.1349  0.2597  0.1950
    1W        W31496  14.020   1.339   0.095 -0.0086  0.0145 -0.1160
    1W        W31497  19.939   8.861   1.703  0.0420  0.2645  0.1976
    1W        W31498  11.840   3.382   7.661 -0.0374  0.0335  0.0339
    1W        W31499  18.808  15.519   8.624 -0.2124  0.2727  0.1165
    1W        W31500  18.345  16.895   0.810 -0.0928 -0.2953 -0.2484
    1W        W31501  25.023  20.437   2.041 -0.0229 -0.0244  0.1411
    1W        W31502  20.134  10.862   9.204 -0.0947  0.0472 -0.0180
    1W        W31503  23.712   1.906   2.692 -0.0587 -0.1040 -0.3707
    1W        W31504   9.440  25.380   2.182  0.2160 -0.0705 -0.4005
    1W        W31505  17.912  14.936   2.632 -0.0603  0.1350  0.0623
    1W        W31506  26.005  11.383   0.134 -0.1401 -0.1243  0.2105
    1W        W31507   0.393   4.042   0.842 -0.0151 -0.0683 -0.1631
    1W        W31508  13.133  18.503   2.113  0.0141  0.1584 -0.4079
    1W        W31509  13.226   3.266   8.213 -0.1084  0.1319 -0.0935
    1W        W31510  16.378   6.679   8.121  0.0464  0.1417  0.0282
    1W        W31511  11.073  15.407   7.283 -0.2240 -0.1827 -0.0835
    1W        W31512   5.400  14.119   6.729 -0.0414 -0.0540  0.0890
    1W        W31513  14.922  23.253   8.015 -0.1647 -0.2425 -0.1120
    1W        W31514   5.382   0.394   0.880 -0.1613 -0.0060 -0.0495
    1W        W31515  14.685  17.541   0.126 -0.2382 -0.0772 -0.2329
    1W        W31516  12.887  21.653   0.637  0.1123 -0.1600  0.0411
    1W        W31517   4.345  13.687   2.352 -0.2034 -0.2236  0.1335
    1W        W31518  19.214  17.333   0.942 -0.1645 -0.0581  0.0158
    1W        W31519  16.315  13.835   8.102 -0.1021  0.0967  0.0416
    1W        W31520   3.038  11.651   2.420  0.2974 -0.1108  0.1728
    1W        W31521   3.124  26.475   9.320  0.3429 -0.0245  0.4214
    1W        W31522  10.099  17.203   8.601 -0.0191 -0.0122 -0.0269
    1W        W31523  15.267  11.046   1.784  0.1365  0.0831 -0.0720
    1W        W31524  24.824   6.684   9.355 -0.0156  0.2487 -0.2037
    1W        W31525  21.132  23.131   0.198  0.0522  0.0287  0.2563
    1W        W31526   0.816  16.961   1.878 -0.1443  0.0617 -0.0628
    1W        W31527  22.670  16.474   7.466  0.0524  0.2644  0.1099
    1W        W31528   9.710  23.152   8.868  0.1667 -0.3219 -0.1446
    1W        W31529  11.162  18.143   0.498  0.2050 -0.1732 -0.0725
    1W        W31530  17.013  17.634   6.950 -0.1427  0.1444  0.0131
    1W        W31531  22.898   2.152   1.199 -0.0282 -0.1027 -0.1313
    1W        W31532  22.988  19.111   0.267  0.2402 -0.2140  0.2047
    1W        W31533  23.646  10.893   0.368  0.1752  0.2528 -0.2138
    1W        W31534   2.419  21.758   0.739 -0.2172 -0.0469  0.3455
    1W        W31535  21.653  10.275   8.121  0.0137  0.1603 -0.1505
    1W        W31536   9.204  23.897   2.020 -0.0324  0.0058 -0.2548
    1W        W31537   2.670  17.423   3.448 -0.0345 -0.0181 -0.5529
    1W        W31538  28.577  23.401   8.254  0.3061  0.1840  0.0331
    1W        W31539  15.584  22.811   7.834  0.2607  0.2841  0.1231
    1W        W31540  21.993   0.867   2.234  0.1844 -0.1726  0.1199
    1W        W31541  12.711  17.979   9.597 -0.0541  0.0905 -0.1040
    1W        W31542  15.207  22.824   2.428  0.0414  0.0351  0.1536
    1W        W31543  25.125   1.180   0.642 -0.1760  0.2455  0.0352
    1W        W31544   6.037  15.912   9.060  0.0791  0.0250 -0.0737
    1W        W31545  10.692  12.773   0.450 -0.0750  0.2310  0.2696
    1W        W31546   8.867  16.894   0.313 -0.2053  0.2910  0.0029
    1W        W31547   0.120  25.602   8.749  0.2299 -0.2952 -0.0022
    1W        W31548  25.575   4.904   7.996  0.0619 -0.0100  0.3381
    1W        W31549  23.170  10.462   9.518  0.0765 -0.0850 -0.0872
    1W        W31550  11.253  25.063   0.211 -0.1659 -0.1968 -0.4300
    1W        W31551   0.717  13.923   2.192 -0.0767 -0.2168 -0.3376
    1W        W31552   0.336  25.446   0.735  0.3353 -0.2117 -0.1082
    1W        W31553   1.305  16.647   1.071 -0.1959 -0.0367  0.0309
    1W        W31554   2.923   2.751   2.890 -0.2612  0.1588  0.0190
    1W        W31555  28.764  15.069   7.132 -0.2236  0.0584  0.2120
    1W        W31556  19.904   3.946   1.583  0.1220 -0.1442 -0.2646
    1W        W31557  10.563  28.621   2.860  0.0280 -0.1825 -0.1715
    1W        W31558   7.914  20.920   9.195  0.0363  0.1802  0.0664
    1W        W31559   7.969   0.984   0.186 -0.4200  0.1887  0.0045
    1W        W31560  26.076   9.994   1.346 -0.0057 -0.0234  0.0451
    1W        W31561   6.034   1.058   8.839  0.1095 -0.0636 -0.0240
    1W        W31562   5.907  28.400   2.723 -0.1053 -0.0765 -0.1870
    1W        W31563  11.476   7.506   2.486 -0.0610 -0.1947 -0.2596
    1W        W31564   9.502   5.076   0.489  0.3741 -0.1403 -0.0503
    1W        W31565  11.624  24.486   9.562 -0.0490 -0.2921 -0.0006
    1W        W31566   0.388  25.053   1.077  0.1973  0.0620 -0.1156
    1W        W31567  17.596  17.084   2.417  0.0456  0.0001  0.0526
    1W        W31568  19.778   7.517   7.718 -0.0673 -0.0016 -0.2526
    1W        W31569   2.989  25.004   2.596 -0.0717  0.2287 -0.1119
    1W        W31570  18.513   2.452   2.308  0.2333 -0.3305  0.1676
    1W        W31571   3.113   1.427   9.548  0.3225 -0.0384 -0.1466
    1W        W31572  19.114  17.962   0.317 -0.1357  0.0103  0.2248
    1W        W31573   9.127  13.240   9.238  0.3098  0.0726  0.0927
    1W        W31574   5.274  20.494   0.625 -0.0000  0.1036 -0.0001
    1W        W31575  20.092  19.068   0.788  0.1321 -0.2573  0.2432
    1W        W31576   7.966  13.049   1.373 -0.0715 -0.1565  0.1581
    1W        W31577   8.276  15.370   5.752  0.2814  0.2207  0.2464
    1W        W31578   5.444  10.979   2.636 -0.0537  0.0125  0.3141
    1W        W31579   6.475   8.626   8.859 -0.1593 -0.1399  0.1511
    1W        W31580   5.349  13.222   7.178  0.1594  0.1852 -0.1019
    1W        W31581  26.596   8.612   8.246 -0.2102 -0.0007  0.1370
    1W        W31582  21.551   9.806   7.973  0.0839 -0.0723 -0.3911
    1W        W31583  15.489   9.255   9.279  0.3360  0.0619  0.0435
    1W        W31584   9.577   5.576   7.870  0.1642 -0.0103 -0.0978
    1W        W31585   2.895   4.159   9.460  0.3114 -0.0507 -0.0793
    1W        W31586  11.750   7.693   8.024  0.3659  0.2382  0.0887
    1W        W31587  11.262  20.592   1.415 -0.0326 -0.1846  0.2358
    1W        W31588  22.729   2.113   8.107 -0.0409 -0.1069  0.2003
    1W        W31589  26.216   6.975   2.738 -0.5314 -0.1592  0.1239
    1W        W31590  16.118   1.745   1.033 -0.3701 -0.0134  0.1823
    1W        W31591  18.740   5.104   6.829 -0.1146  0.1800  0.2247
    1W        W31592  24.386   3.342   2.549 -0.0478 -0.2579  0.0975
    1W        W31593  25.486   5.301   1.077  0.0671  0.1179 -0.3574
    1W        W31594  20.114  18.913   7.328 -0.3312 -0.1158  0.2154
    1W        W31595  16.588  28.723   6.597  0.0855 -0.2686  0.0429
    1W        W31596   0.122  13.701   0.768 -0.1107 -0.1215 -0.2044
    1W        W31597   5.106   1.429   0.016 -0.1012  0.2559 -0.3566
    1W        W31598   5.083  28.187   0.748  0.0559  0.0351 -0.0363
    1W        W31599  22.840   1.179   6.633 -0.2584 -0.0544 -0.0359
    1W        W31600   0.919  18.418   8.268  0.5088 -0.2228 -0.2436
    1W        W31601  20.593   4.010   6.696  0.1230  0.0301  0.1464
    1W        W31602  12.349  26.560   1.770  0.0592 -0.2938 -0.2445
    1W        W31603   0.957  26.313   1.192 -0.2985 -0.0552 -0.1043
    1W        W31604  24.121  12.577   9.440 -0.1604 -0.3101 -0.2648
    1W        W31605  19.618  25.795   7.654 -0.1325  0.1146  0.1714
    1W        W31606   8.762   5.693   9.678  0.0278  0.2105  0.0223
    1W        W31607  11.722  26.714   2.920 -0.0655 -0.0301  0.0727
    1W        W31608   7.545  14.451   8.542  0.1373 -0.0550  0.1637
    1W        W31609   3.059  17.569   9.946  0.0249  0.0988  0.1982
    1W        W31610  16.422  15.628   8.360  0.1945  0.0231 -0.1281
    1W        W31611   0.849  17.254   0.604 -0.1666  0.0045 -0.0693
    1W        W31612  17.953  25.685   9.401  0.1510  0.0472 -0.0111
    1W        W31613   7.090  20.008   2.045  0.0109 -0.1094 -0.0713
    1W        W31614  16.277  17.875   0.702  0.1542  0.0272  0.1889
    1W        W31615  15.679  26.458   7.592 -0.4895  0.1095  0.0145
    1W        W31616  11.568  19.121   7.383 -0.3324 -0.0922  0.1039
    1W        W31617   2.254  23.528   0.827  0.1178  0.1671  0.1785
    1W        W31618  25.948  25.613   1.480  0.0507 -0.1261 -0.2987
    1W        W31619  17.371  23.966   1.078  0.0624 -0.0369  0.1107
    1W        W31620  20.821   2.456   9.353 -0.1726 -0.0085 -0.1857
    1W        W31621   2.455  13.302   0.250 -0.0340  0.1177 -0.0362
    1W        W31622  24.042  27.847   8.487  0.0106 -0.1256  0.2177
    1W        W31623   6.983  16.250   1.428  0.1996  0.0638  0.2187
    1W        W31624  26.845   6.371   1.331 -0.1699 -0.1536  0.5133
    1W        W31625  15.344  22.894   6.428  0.1762 -0.3145  0.0112
    1W        W31626  26.161  15.971   9.303  0.0748 -0.0952 -0.1146
    1W        W31627  14.132  21.864   7.240 -0.0552 -0.0209  0.0292
    1W        W31628   9.795  19.898   9.415  0.2557 -0.1504 -0.0912
    1W        W31629  10.591  22.676   2.123  0.1554  0.1002 -0.0034
    1W        W31630  21.321  17.881   2.370  0.1796  0.1321 -0.1553
    1W        W31631   1.442  22.570   3.964 -0.1587 -0.2181 -0.2288
    1W        W31632   4.412  18.507   8.780  0.0688  0.2964  0.1666
    1W        W31633  26.531   8.432   1.855 -0.0096  0.2104  0.0864
    1W        W31634  27.564  24.191   3.527  0.1036  0.0104  0.0563
    1W        W31635  28.574   7.909   8.934  0.1288 -0.0193  0.0735
    1W        W31636   4.863  27.004  10.004  0.0207  0.0016 -0.1122
    1W        W31637  21.589  19.608   8.359  0.0104 -0.0494  0.0629
    1W        W31638   7.034  22.282   2.973  0.1186  0.1379  0.0711
    1W        W31639  25.829  16.145   2.339  0.1107  0.0454  0.0005
    1W        W31640   5.634   7.713   8.964 -0.1833 -0.0036  0.1259
    1W        W31641   1.872  26.104   2.132 -0.3088  0.3471  0.2101
    1W        W31642  21.266   4.560   0.979  0.0471 -0.2291  0.0011
    1W        W31643  10.297   7.443   8.908 -0.1764  0.0209  0.0981
    1W        W31644  12.618  24.560   2.849 -0.0485 -0.3752 -0.3272
    1W        W31645  10.088   9.484   9.461 -0.0293 -0.0575  0.0673
    1W        W31646   1.395  13.414   0.262 -0.1212  0.0721  0.1792
    1W        W31647   0.203   6.889   2.878  0.1046 -0.2131 -0.1342
    1W        W31648   2.424  28.686   1.570 -0.0441 -0.0449 -0.1207
    1W        W31649  25.433  13.063   7.168 -0.1974 -0.1521 -0.1072
    1W        W31650   3.024   4.297   1.440  0.1355  0.3133 -0.2474
    1W        W31651   1.570  10.841   7.188  0.0349 -0.1466 -0.0186
    1W        W31652  15.915  18.030   1.003  0.1769 -0.1788  0.0277
    1W        W31653  20.736  19.174   6.531 -0.0348 -0.2615 -0.0834
    1W        W31654   6.205   6.905   0.791  0.3587  0.0479 -0.3473
    1W        W31655   4.570   8.361   9.331  0.3462  0.3597 -0.2597
    1W        W31656   5.515  11.767   7.290  0.0930 -0.4900  0.1668
    1W        W31657   5.109  12.677   7.043 -0.2367  0.2221 -0.0116
    1W        W31658   3.457   9.201   3.580 -0.2063  0.0531 -0.2806
    1W        W31659  15.377   1.706   8.293 -0.1772  0.1832  0.1696
    1W        W31660   1.088   5.205   7.974  0.0068  0.2793 -0.0340
    1W        W31661  14.149   1.523   9.112  0.2332 -0.0698  0.1049
    1W        W31662  13.603   3.163   9.445 -0.0460  0.1107 -0.0593
    1W        W31663  19.160  16.439   1.096  0.0998 -0.1802 -0.2841
    1W        W31664  24.021   8.128   9.259  0.0391 -0.1466  0.1332
    1W        W31665  24.569   5.253   9.199  0.2578 -0.0353 -0.2100
    1W        W31666  16.373   3.762   7.347 -0.2309 -0.0636 -0.0329
    1W        W31667   5.782  25.275   1.799  0.4366 -0.1498  0.0869
    1W        W31668   5.143   8.438   7.239  0.0250  0.1362 -0.0616
    1W        W31669  24.108   7.866   7.727 -0.0489  0.0109 -0.0050
    1W        W31670   2.679  12.488   9.990 -0.0141 -0.1170  0.2582
    1W        W31671  22.737   0.082   3.046  0.1046  0.0909 -0.0131
    1W        W31672   1.392   6.403   8.674 -0.1830  0.0449 -0.1094
    1W        W31673   7.752   1.926   7.788 -0.0608  0.1184  0.0060
    1W        W31674   6.520   9.518   3.091 -0.0639 -0.0605 -0.1000
    1W        W31675  22.542   3.044   1.396  0.1440  0.1626  0.0881
    1W        W31676  27.762   9.068   7.598 -0.2179 -0.1387  0.1821
    1W        W31677  16.296  22.982   0.401 -0.1674  0.0288  0.1539
    1W        W31678   5.088   2.054   1.713  0.0625  0.2944  0.4957
    1W        W31679  24.160  26.445   1.007 -0.1283 -0.0465 -0.3639
    1W        W31680  14.617   1.372   7.928 -0.0564  0.3198  0.0385
    1W        W31681  25.219  22.381   3.224 -0.1814 -0.0960 -0.0313
    1W        W31682  24.872  12.480   8.309  0.2789  0.0396  0.1498
    1W        W31683  18.714   7.339   0.400 -0.1731 -0.3728  0.0205
    1W        W31684  16.062   0.072   7.471  0.3175  0.0307 -0.2651
    1W        W31685  28.178  22.549   1.677  0.3122  0.0471 -0.1572
    1W        W31686  22.538   3.198   0.872  0.0105  0.0308 -0.2979
    1W        W31687  24.420  13.512   1.254  0.2103 -0.1158 -0.0716
    1W        W31688  13.375  20.108   0.493 -0.1781 -0.0900  0.0964
    1W        W31689  20.676   5.435   0.853  0.1550  0.1341 -0.1103
    1W        W31690  15.719  26.351   1.875 -0.2937  0.0537 -0.3186
    1W        W31691  17.825  28.599   8.255 -0.2240 -0.3923 -0.2235
    1W        W31692  16.903   8.752   6.909  0.1280  0.0061  0.4001
    1W        W31693  18.476  22.573   9.001  0.0621 -0.1998  0.3289
    1W        W31694  23.932  17.704   7.998 -0.0110  0.0912 -0.0618
    1W        W31695   3.135  18.786   8.751 -0.2808  0.1606  0.1133
    1W        W31696  14.906  20.098   7.917  0.1904  0.0907 -0.0229
    1W        W31697   6.956  27.031   8.743  0.0903  0.0911  0.0265
    1W        W31698  21.717  26.656   8.884  0.3999 -0.0073 -0.0514
    1W        W31699  21.198  15.614   0.359 -0.0116  0.0106  0.0412
    1W        W31700  12.008   6.053   9.529  0.1429  0.0584  0.1137
    1W        W31701  26.105   4.779   8.749  0.1691  0.2420 -0.2762
    1W        W31702  10.890   1.687   7.167 -0.2541  0.3041 -0.0449
    1W        W31703  22.925  11.975   0.972  0.3010 -0.0529  0.0651
    1W        W31704  28.015  17.937   8.980  0.1060  0.0115  0.1079
    1W        W31705  16.091   1.569   7.769 -0.3271  0.0603  0.2638
    1W        W31706  18.487  23.147   0.707  0.0430  0.0738  0.1768
    1W        W31707  16.385   9.278   8.050  0.0223 -0.1772  0.0035
    1W        W31708   7.915  26.013   2.365 -0.0433 -0.1087  0.4093
    1W        W31709   0.323  13.903   1.927  0.0258  0.0557  0.1770
    1W        W31710  28.327  13.958   9.026  0.0132 -0.0253 -0.1823
    1W        W31711  12.710   9.156   9.246 -0.0361  0.1675  0.2133
    1W        W31712  18.214  15.721   7.232 -0.2141  0.1110 -0.1263
    1W        W31713  24.744  16.999   2.894 -0.1215 -0.1391 -0.1224
    1W        W31714  28.741   4.097   1.624 -0.0005  0.0310 -0.1445
    1W        W31715  17.657   8.022   7.075  0.0889  0.1451 -0.1009
    1W        W31716  15.158   0.017   7.931  0.2209  0.0998 -0.0778
    1W        W31717   0.608  22.158   9.705 -0.0934 -0.1128 -0.0332
    1W        W31718  25.121  27.919   2.509  0.0555  0.1435 -0.1270
    1W        W31719  13.739   5.560   0.305 -0.0307 -0.0003 -0.0440
    1W        W31720   9.680   3.912   0.528 -0.0333  0.0670  0.0213
    1W        W31721  13.490  21.569   3.355 -0.1289  0.2397  0.4488
    1W        W31722   0.677  15.068   8.157 -0.0603  0.0539 -0.0350
    1W        W31723  15.811   0.605   6.695 -0.0077  0.0511  0.1109
    1W        W31724  15.631  15.478   7.460  0.0608  0.1923 -0.1281
    1W        W31725  26.717   4.064   7.933 -0.0508 -0.0366 -0.2470
    1W        W31726  18.624  27.543   6.948 -0.0761  0.0417  0.0178
    1W        W31727  28.440   4.386   1.967 -0.0777 -0.0167 -0.1259
    1W        W31728  12.360   1.945   9.566  0.2701 -0.1904 -0.1448
    1W        W31729   7.154   9.446   8.192  0.1667  0.3091 -0.3452
    1W        W31730   9.421  21.961   3.505 -0.0503 -0.0134  0.1276
    1W        W31731   0.046  16.447   0.927 -0.2057 -0.2551 -0.2165
    1W        W31732  23.543  19.722   7.254  0.0178 -0.2950 -0.0876
    1W        W31733   0.699   1.138   9.381  0.1311 -0.1373  0.0925
    1W        W31734   6.229  15.856   1.579 -0.2643  0.0470 -0.0459
    1W        W31735   3.548  16.690   9.811  0.0578 -0.1376 -0.2374
    1W        W31736  15.754   1.367   8.967  0.3260  0.1246 -0.2724
    1W        W31737   4.564   2.002   0.358 -0.0114 -0.4984 -0.0276
    1W        W31738  20.962  11.422   0.467  0.0469  0.1112  0.0949
    1W        W31739  17.676  10.819   7.371 -0.1616 -0.0520 -0.0799
    1W        W31740  16.539  23.535   9.550 -0.0638  0.1096  0.0253
    1W        W31741   7.019  13.808   1.450  0.1472 -0.3022 -0.1756
    1W        W31742  16.885   3.806   1.156 -0.1291  0.3321  0.1335
    1W        W31743  11.060   7.903   0.425 -0.0859 -0.0235  0.3166
    1W        W31744  19.211  19.957   7.385 -0.0967 -0.2298  0.4431
    1W        W31745   9.757   9.574   6.348  0.0036 -0.1033 -0.1927
    1W        W31746  15.602   5.139   6.481 -0.0335 -0.2825  0.4632
    1W        W31747   5.229  27.658   4.073 -0.1792 -0.0397 -0.1161
    1W        W31748  26.045   6.957   2.099 -0.1263 -0.0727  0.0150
    1W        W31749  13.963  16.771   7.153 -0.3051 -0.4411  0.3368
    1W        W31750  15.072  13.684   0.501 -0.0779  0.0291  0.2717
    1W        W31751  27.328  20.993   8.447  0.0845  0.0596  0.0474
    1W        W31752   0.264  13.668   8.696 -0.2032 -0.1231 -0.0648
    1W        W31753  18.412   3.633   6.409 -0.0289  0.1334 -0.0989
    1W        W31754  27.807  25.457   8.750  0.0639 -0.0862 -0.0495
    1W        W31755  16.314  25.682   0.910 -0.4635 -0.0484 -0.1211
    1W        W31756  27.467  14.971   0.173 -0.1386  0.0789 -0.0232
    1W        W31757  16.359  16.023   0.949  0.2266 -0.2224  0.1642
    1W        W31758   0.424  11.369   1.993 -0.2314 -0.2038  0.1010
    1W        W31759  16.569  17.431   0.781  0.0769  0.0430 -0.5540
    1W        W31760  11.002   3.496   9.257  0.2077 -0.0421 -0.1507
    1W        W31761  21.522  14.501   5.995 -0.0399  0.0768 -0.0890
    1W        W31762  14.021   5.285   9.959  0.2253  0.0886  0.0242
    1W        W31763   1.155   4.185   9.656  0.1931  0.2104 -0.1474
    1W        W31764  19.125   3.745   1.561 -0.1640 -0.1491  0.0820
    1W        W31765  11.058  13.244   9.243 -0.4570 -0.0965  0.0531
    1W        W31766  10.754  10.682   2.213  0.2140 -0.1203  0.4276
    1W        W31767  17.203   8.470   8.926  0.2862  0.1807  0.0452
    1W        W31768   2.375  27.515   9.916 -0.2218  0.0499 -0.1764
    1W        W31769   7.505  23.775   9.496 -0.0390  0.0169  0.3784
    1W        W31770   4.281  27.257   3.639  0.0295 -0.1359 -0.1964
    1W        W31771  25.206   8.244   0.484 -0.1139  0.3069 -0.0904
    1W        W31772  19.911   8.819   6.784 -0.0146  0.0557 -0.2789
    1W        W31773  23.966   5.286   9.571  0.1406 -0.1746 -0.1954
    1W        W31774  16.930  20.098   0.027  0.3090  0.1784  0.3677
    1W        W31775   3.618  26.587   0.677  0.1852  0.3050 -0.2186
    1W        W31776  28.833  12.760   3.665  0.1423  0.1082 -0.3611
    1W        W31777  26.227  27.587   2.949  0.0695 -0.5438  0.0394
    1W        W31778  19.140  16.556   9.021 -0.2355 -0.3149  0.0133
    1W        W31779   0.086   1.424   9.016 -0.0291  0.2401 -0.1841
    1W        W31780  26.791   2.120   2.908  0.1342 -0.2672  0.0771
    1W        W31781   1.519  18.246   2.395 -0.0973 -0.2720  0.4072
    1W        W31782  28.606  10.832   2.580  0.1382 -0.1728 -0.1328
    1W        W31783  27.762  18.673   8.665 -0.0453 -0.0297  0.2182
    1W        W31784  14.664  28.569   1.185 -0.1963 -0.1941 -0.1194
    1W        W31785  14.816   8.330   1.168 -0.0816  0.2311 -0.3508
    1W        W31786  20.257   6.684   7.430  0.2096 -0.0371 -0.0524
    1W        W31787  17.025   5.742   9.536 -0.3824 -0.2195  0.0899
    1W        W31788  22.804  23.736   3.212  0.4415 -0.2204 -0.0260
    1W        W31789  16.936  21.147   2.083  0.1482  0.3013  0.2423
    1W        W31790  17.087  21.717   0.385 -0.1444 -0.6998 -0.1905
    1W        W31791   6.733  22.584   0.960 -0.0485 -0.2425  0.1033
    1W        W31792  10.499   8.950   8.850 -0.0339 -0.0701  0.4444
    1W        W31793   0.288  27.334   2.145  0.2539 -0.3510 -0.0536
    1W        W31794   1.462   6.205   0.850 -0.2519  0.1043  0.0871
    1W        W31795   5.707  16.906   9.918  0.1771 -0.1128 -0.0807
    1W        W31796  26.456  21.053   8.913 -0.1678  0.0144 -0.1560
    1W        W31797   3.467  26.125   0.132  0.0267  0.2341 -0.1135
    1W        W31798   8.681  21.972   9.512  0.0276  0.3181  0.1025
    1W        W31799  12.540   2.092   1.645  0.2232 -0.0556 -0.0119
    1W        W31800  25.112  10.780   3.604 -0.0538  0.1299  0.0071
    1W        W31801  13.990  21.144   9.292  0.2009  0.1164  0.1230
    1W        W31802  24.791   5.793   2.805 -0.0843  0.2841 -0.2494
    1W        W31803  23.292  14.520   7.454  0.2269 -0.2846  0.0608
    1W        W31804  22.782  19.748   9.717 -0.3303  0.0284  0.0407
    1W        W31805   5.484  14.379   0.798  0.1884  0.4090 -0.2189
    1W        W31806  22.972  12.263   8.326 -0.2287  0.2193  0.1045
    1W        W31807   1.587   0.679   2.214 -0.1438 -0.3029 -0.0668
    1W        W31808  15.887   1.893   8.054 -0.1562  0.1871 -0.0963
    1W        W31809  19.140   1.044   8.966  0.0121  0.1581 -0.1608
    1W        W31810  24.522   9.244   3.098 -0.1696 -0.3349 -0.3282
    1W        W31811  22.731  27.997   2.173 -0.0833 -0.1277 -0.1920
    1W        W31812   4.813   8.813   7.328  0.0237 -0.0194 -0.1755
    1W        W31813  21.760  11.296   1.814  0.2222  0.1306  0.3089
    1W        W31814   8.915  21.164   8.940 -0.2615  0.1636 -0.1821
    1W        W31815  18.623  27.596   1.408 -0.0184  0.1478  0.2716
    1W        W31816  15.527   5.635   1.310 -0.1307 -0.3213  0.1376
    1W        W31817  18.564   9.040   8.233  0.0091 -0.1020 -0.3079
    1W        W31818  26.004   1.857   8.171 -0.0587  0.2444  0.1378
    1W        W31819  21.065  21.066   1.407 -0.0030  0.2268  0.0276
    1W        W31820  22.706   5.118   8.684 -0.1476 -0.0567 -0.0484
    1W        W31821  16.986   4.408   9.615  0.2249 -0.2673 -0.2387
    1W        W31822   3.304   4.592   1.806 -0.1384 -0.0429 -0.0330
    1W        W31823  14.704   0.123   0.694 -0.0951  0.2011 -0.1659
    1W        W31824  12.940   7.912   8.756 -0.1296 -0.0278  0.2828
    1W        W31825   2.910   8.417   8.417  0.0440 -0.0281 -0.1834
    1W        W31826   9.248  12.290   0.802 -0.1945  0.1616  0.2531
    1W        W31827   9.065   6.923   6.699  0.1874  0.2097  0.0211
    1W        W31828  21.084   0.853   0.120 -0.0603 -0.1835  0.2002
    1W        W31829  13.510   1.844   1.282 -0.0195 -0.2505 -0.0960
    1W        W31830   0.910   2.597   1.269  0.0724 -0.1505  0.0760
    1W        W31831   7.978  14.332   6.617  0.0695 -0.1976 -0.0672
    1W        W31832  28.488  16.743   0.161 -0.2568  0.1775  0.1648
    1W        W31833  26.828   6.432   8.993  0.1640  0.1749 -0.0357
    1W        W31834  17.864  22.402   8.248 -0.0419  0.3273  0.4233
    1W        W31835  21.379   8.316   7.225  0.1611 -0.1638 -0.0105
    1W        W31836  12.158  14.940   0.874 -0.0124  0.1119  0.0005
    1W        W31837   4.458  26.014   0.121 -0.2365  0.1114 -0.0334
    1W        W31838  10.202   6.348   8.792  0.0118 -0.4452 -0.1471
    1W        W31839   4.005  17.461   9.412 -0.1744 -0.1013 -0.0675
    1W        W31840  28.127  25.574   7.873  0.3468  0.2286 -0.1954
    1W        W31841  24.572   2.675   8.142 -0.0698  0.0528 -0.2070
    1W        W31842  19.990   1.768   9.904  0.0590 -0.1682 -0.1596
    1W        W31843  13.140  17.881   3.575 -0.0682 -0.2257  0.3002
    1W        W31844  26.294   7.279   1.724  0.0065 -0.0371  0.0499
    1W        W31845  10.584  23.044   7.762  0.0217 -0.2025  0.0738
    1W        W31846   9.920  21.950   9.712 -0.2371  0.1210  0.0376
    1W        W31847   1.318  22.782   1.026  0.1456 -0.1855  0.1542
    1W        W31848  20.688  15.546   1.965 -0.4101  0.1459 -0.2846
    1W        W31849  12.331   6.488   6.543  0.0505 -0.1144  0.0580
    1W        W31850  24.499  20.002   1.501  0.2151 -0.0799 -0.0243
    1W        W31851   1.845  13.191   2.421 -0.2496 -0.4639  0.0762
    1W        W31852  12.109  20.806   1.674 -0.0712 -0.1337 -0.2452
    1W        W31853  12.344  23.033   0.387 -0.0253 -0.0925 -0.1476
    1W        W31854  19.023  10.705   7.898 -0.0893 -0.2540  0.1290
    1W        W31855  14.197  25.677   1.870  0.2305  0.1917 -0.0985
    1W        W31856  26.168  10.695   9.633  0.1210  0.0667 -0.2726
    1W        W31857   5.571  23.926   3.024 -0.1488  0.4236  0.1218
    1W        W31858  13.559  10.019   7.778  0.0575  0.1263  0.0233
    1W        W31859   6.976   1.855   2.710  0.0646 -0.1413 -0.1534
    1W        W31860  19.992   0.810   9.209  0.2267  0.3542 -0.2027
    1W        W31861  15.049  22.749   7.880 -0.1714 -0.4013 -0.0372
    1W        W31862  24.470  26.386   1.928  0.1201 -0.0440  0.0046
    1W        W31863   9.885  15.077   8.274 -0.0253  0.2549 -0.0460
    1W        W31864  17.782  17.921   9.437  0.0182 -0.1409  0.0750
    1W        W31865   9.177  24.532   8.465 -0.1805 -0.0577  0.2783
    1W        W31866   2.200   7.060   9.961  0.1580 -0.0221  0.0051
    1W        W31867  14.238   2.771   6.883 -0.2893  0.1557 -0.2272
    1W        W31868   3.955   7.113   3.267 -0.0777  0.1411 -0.0386
    1W        W31869  27.929  19.800   2.028 -0.0180 -0.3086  0.0358
    1W        W31870  10.497  15.579   1.622  0.1309 -0.2821 -0.1804
    1W        W31871  10.683  14.123   6.417  0.1423  0.0655 -0.1062
    1W        W31872   9.126  15.923   2.272  0.0377 -0.2658  0.2386
    1W        W31873   7.232   4.542   2.225  0.1143  0.1302 -0.0075
    1W        W31874  23.921  22.063   1.039 -0.0159  0.2723 -0.1764
    1W        W31875  24.225   0.237   7.842  0.0166 -0.2268  0.0775
    1W        W31876  21.298  11.939   8.491  0.3152  0.0656 -0.1078
    1W        W31877  17.497   8.445   1.911 -0.1995 -0.4709 -0.2669
    1W        W31878  15.156  15.350   8.151  0.1385 -0.3757 -0.0590
    1W        W31879  19.116  28.136   2.193  0.1750  0.2357 -0.0595
    1W        W31880  15.052  16.940   1.597  0.0171 -0.0798  0.1408
    1W        W31881  19.168   3.194   6.972  0.0168  0.0463  0.1019
    1W        W31882   1.056  10.934   7.372 -0.2514 -0.1735  0.1395
    1W        W31883  14.373   6.689   7.250  0.4921 -0.1602 -0.1141
    1W        W31884  19.568  22.829   1.354 -0.0637  0.1390  0.0933
    1W        W31885   4.065  10.043   9.599  0.0683  0.2131  0.4276
    1W        W31886   3.751   7.165   1.464 -0.0207  0.0327 -0.0515
    1W        W31887  14.348  18.580   9.421 -0.0425  0.2140  0.4340
    1W        W31888  10.511  23.910   0.404 -0.3564 -0.2194  0.1344
    1W        W31889  20.108  15.936   6.893 -0.3474  0.0544  0.0276
    1W        W31890   9.139  13.010   6.695 -0.1985  0.2954  0.0666
    1W        W31891  21.422  24.944   1.302  0.0690 -0.0313 -0.0882
    1W        W31892  22.710  22.000   1.318 -0.1598  0.1027 -0.1195
    1W        W31893   2.757  27.315   2.106  0.2680 -0.0826  0.0399
    1W        W31894  23.312  23.132   2.199  0.0110 -0.1907  0.0222
    1W        W31895  15.853  26.886   7.901  0.0946  0.0736  0.0134
    1W        W31896  19.304   9.262   7.783 -0.0427  0.0046 -0.0417
    1W        W31897  15.852  17.950   7.891 -0.2549 -0.1476 -0.3502
    1W        W31898   2.756  20.282   0.285  0.2318  0.3742  0.2978
    1W        W31899  18.049  22.999   0.416  0.2291 -0.0323  0.1411
    1W        W31900  26.433  12.235   3.690  0.0990  0.0616 -0.1000
    1W        W31901   1.793  15.179   2.019  0.0843  0.2260  0.2624
    1W        W31902  17.223  19.874   7.650  0.1243 -0.0623  0.0416
    1W        W31903   3.770  17.155   1.024 -0.1679  0.1470  0.3791
    1W        W31904  16.137   8.228   9.679 -0.0423  0.0244 -0.3248
    1W        W31905   7.150   9.077   9.825  0.2291 -0.1137  0.0608
    1W        W31906   8.957  12.433   8.017  0.2258 -0.0915 -0.3659
    1W        W31907  17.328  17.230   9.326 -0.0522  0.3701 -0.0771
    1W        W31908  27.915  18.553   1.242  0.0849  0.0310  0.0013
    1W        W31909   9.426  20.911   1.109 -0.0378 -0.2162 -0.0642
    1W        W31910  27.735  21.839   1.720  0.3149  0.1199 -0.0137
    1W        W31911  28.309  12.555   9.319  0.0469  0.1009 -0.1703
    1W        W31912   7.230  12.060   9.874 -0.0562  0.5220  0.3356
    1W        W31913  14.992  21.545   9.503 -0.2415  0.0709 -0.0268
    1W        W31914  10.134  23.608   2.318 -0.3743  0.1635  0.1717
    1W        W31915  22.472  12.842   8.370  0.2573 -0.1132 -0.0215
    1W        W31916   4.133  27.784   0.364  0.0346 -0.2054  0.5259
    1W        W31917  24.082  21.738   2.834 -0.2178 -0.2343 -0.0736
    1W        W31918  21.001   0.789   6.854  0.0888  0.1584 -0.2450
    1W        W31919   5.526   9.821   9.820 -0.2341 -0.0857 -0.0590
    1W        W31920   3.812   1.441   1.857  0.1532 -0.5247  0.0951
    1W        W31921   4.008  15.295   7.776 -0.3365  0.1403  0.1760
    1W        W31922  24.032  27.748   9.773  0.0541  0.2253  0.0854
    1W        W31923   6.643  15.669   7.547  0.1939  0.0699  0.0370
    1W        W31924  19.396  17.307   8.062  0.0985 -0.3283 -0.0427
    1W        W31925  10.614   1.768   2.048 -0.0099 -0.0634 -0.2019
    1W        W31926  22.614   2.723   9.101  0.1145  0.1727  0.3539
    1W        W31927   7.273  25.364   0.178 -0.0040  0.0529 -0.1301
    1W        W31928  15.839   4.482   9.150  0.0242 -0.1162  0.1763
    1W        W31929  19.246  22.903   0.428  0.1983 -0.0771  0.1137
    1W        W31930  15.266   8.695   8.282  0.0436  0.1810  0.3820
    1W        W31931   9.996  14.656   8.074  0.0915 -0.1559 -0.1362
    1W        W31932  12.271  22.951   2.331  0.0972  0.0829 -0.1319
    1W        W31933   8.647   7.342   7.354  0.1094  0.0782  0.0867
    1W        W31934   1.417  13.288   2.661  0.0330 -0.0611  0.1703
    1W        W31935   2.596  28.571   0.762 -0.0060 -0.1889  0.0915
    1W        W31936   2.924  14.733   1.655  0.1192 -0.0498 -0.1136
    1W        W31937  15.439   8.376   9.357  0.1354 -0.2104 -0.0141
    1W        W31938   6.717  25.412   9.522  0.1095 -0.1375 -0.0093
    1W        W31939  27.509   6.676   0.937  0.2212  0.1476 -0.1036
    1W        W31940   3.734   9.347   7.398 -0.0007  0.4767  0.1883
    1W        W31941   6.512  27.402   9.898  0.2168  0.2802  0.1623
    1W        W31942  25.409   0.963   4.137 -0.0136  0.1061  0.0940
    1W        W31943  21.621  24.319   6.965 -0.1489 -0.1171 -0.1350
    1W        W31944  24.047   0.636   8.333  0.2254  0.3246  0.1021
    1W        W31945  26.758  14.969   1.319 -0.2241  0.3047  0.1598
    1W        W31946  13.162  12.166   0.690 -0.1474 -0.0968  0.2158
    1W        W31947  24.811   5.950   1.033  0.0210  0.2479  0.2740
    1W        W31948   3.087   9.283   8.653 -0.3066 -0.3962  0.0237
    1W        W31949  10.664  10.442   7.339 -0.1913  0.0729 -0.2423
    1W        W31950  27.367  15.320   8.311  0.0713 -0.0807  0.1759
    1W        W31951  26.712  22.179   0.348 -0.0688 -0.0081  0.0069
    1W        W31952  22.128  10.018   7.059 -0.0539 -0.2101 -0.1922
    1W        W31953  13.693   6.351   0.609  0.0255 -0.1864  0.2019
    1W        W31954  21.353   0.320   2.340 -0.3035 -0.0218  0.0619
    1W        W31955  11.536   6.638   7.045  0.1010 -0.1911  0.0808
    1W        W31956  14.991  18.075   7.745 -0.1475 -0.2080 -0.2663
    1W        W31957  21.294  19.572   1.174  0.1108 -0.1012  0.2554
    1W        W31958   3.664  15.899   1.566  0.1230 -0.2779  0.5344
    1W        W31959  16.475  11.815   0.944  0.0047  0.0970  0.1065
    1W        W31960  25.474  12.125   1.205 -0.2203  0.0263  0.0873
    1W        W31961   3.971  12.975   8.996 -0.2853  0.1125  0.0337
    1W        W31962  11.239  15.964   2.778 -0.0750 -0.1732 -0.0124
    1W        W31963  13.300  11.407   8.915  0.0558  0.1189  0.0043
    1W        W31964   6.262  19.368   0.513  0.0751 -0.0542 -0.0062
    1W        W31965   3.904  26.995   1.424  0.1387  0.1698 -0.0379
    1W        W31966  25.162  26.718   8.422 -0.2967  0.0330 -0.0684
    1W        W31967   6.865  20.439   0.889  0.1681  0.0191 -0.2683
    1W        W31968   2.080   4.655   9.413  0.0909  0.3487  0.1772
    1W        W31969   4.122   0.470   0.402 -0.0731  0.1740 -0.1052
    1W        W31970  17.857   4.440   9.839  0.0638  0.0462  0.0794
    1W        W31971  18.919   5.686   7.849 -0.1115 -0.0290  0.0821
    1W        W31972  23.577  22.536   7.821  0.1570  0.0866  0.2216
    1W        W31973   2.729  18.151   0.332 -0.3666  0.0279  0.2033
    1W        W31974   5.085  14.027   9.109 -0.1119 -0.2442 -0.0448
    1W        W31975  13.945  22.702   9.394 -0.0864 -0.2814 -0.1080
    1W        W31976   6.360  25.154   8.155  0.0200  0.2349  0.1378
    1W        W31977  23.291  11.175   8.188  0.0349 -0.0611  0.1097
    1W        W31978   7.746  26.270   8.217  0.1501 -0.1651 -0.1283
    1W        W31979  25.478  14.754   7.325 -0.0070 -0.1234  0.3996
    1W        W31980  26.704  12.904   7.377 -0.2994  0.1948  0.0887
    1W        W31981  24.230  28.687   9.920  0.1419  0.2637  0.1128
    1W        W31982  20.344  20.865   8.356  0.0226 -0.0599 -0.1298
    1W        W31983   8.410  10.551   8.270  0.0449 -0.1360 -0.1975
    1W        W31984   3.315  25.774   9.763  0.1453 -0.3186 -0.1284
    1W        W31985   4.122  13.217   2.143 -0.1664 -0.0409 -0.1434
    1W        W31986   4.818   3.984   1.051  0.0555 -0.2393 -0.0955
    1W        W31987  16.937   7.391   8.927 -0.1358  0.1401  0.1396
    1W        W31988   2.024  28.065   4.027 -0.0155 -0.1629  0.0625
    1W        W31989   8.409  21.673   2.857 -0.1850  0.1716  0.0827
    1W        W31990  19.905  17.766   0.878 -0.2917  0.1617 -0.2247
    1W        W31991  16.935   9.991   7.011  0.0131  0.3303 -0.0479
    1W        W31992  10.943  21.869   8.110  0.1227  0.1785  0.4127
    1W        W31993   1.483   4.685   2.564 -0.0727  0.1426 -0.2665
    1W        W31994  20.521  15.311   8.961  0.0529 -0.2237  0.1097
    1W        W31995  22.649  25.474   1.193 -0.1276 -0.2343  0.4470
    1W        W31996  26.077  19.239   0.421  0.0846  0.0372 -0.1659
    1W        W31997  25.509  27.949   9.118 -0.0542  0.3099  0.1975
    1W        W31998   4.456  12.183   0.423 -0.0506 -0.0559 -0.0271
    1W        W31999   4.369   1.828   8.022 -0.3958  0.1922  0.2282
    1W        W32000  12.143   2.980   1.852  0.0284 -0.2137  0.2422
    1W        W32001   0.369  24.186   2.180  0.2096 -0.4887 -0.0573
    1W        W32002  10.984  19.305   0.114 -0.1391 -0.0359  0.1820
    1W        W32003  16.788  19.414   7.138 -0.0826 -0.0180  0.0849
    1W        W32004  19.015  21.050   9.293  0.1977 -0.1031 -0.0851
    1W        W32005  23.482  16.572   2.601  0.3887  0.0415  0.0977
    1W        W32006  15.056  10.212   8.943 -0.3214 -0.1336  0.1626
    1W        W32007  24.170  15.460   8.150 -0.0532 -0.1206 -0.1351
    1W        W32008  13.956   0.592   9.134  0.0603 -0.3031  0.1550
    1W        W32009   3.621  27.036   0.508  0.2146 -0.0310 -0.0736
    1W        W32010  28.661  16.792   2.738 -0.1465 -0.3579 -0.2513
    1W        W32011  25.551  23.342   8.122 -0.1351 -0.0595  0.1716
    1W        W32012  22.874   5.667   7.444  0.3930 -0.0204 -0.2742
    1W        W32013  28.874   9.594   9.672 -0.1213 -0.1996 -0.1701
    1W        W32014  11.134  23.253   7.789 -0.1237  0.0319  0.0713
    1W        W32015  16.367  15.546   8.830  0.3472 -0.0907 -0.0745
    1W        W32016   8.952   9.067   5.730 -0.0586 -0.3630 -0.1349
    1W        W32017  27.795  24.961   8.736  0.1737  0.2723  0.0704
    1W        W32018  12.028  26.959   7.234  0.0176  0.0737 -0.0627
    1W        W32019  19.607  16.461   1.375 -0.1508  0.1483 -0.4176
    1W        W32020   4.063   1.554   2.264 -0.0322 -0.2018 -0.1222
    1W        W32021  25.580  22.481   9.693 -0.3249 -0.1814 -0.3269
    1W        W32022  21.897   1.788   2.529  0.6282  0.1550  0.0721
    1W        W32023  27.489  17.702   8.312 -0.0958 -0.0558  0.0912
    1W        W32024  12.727  16.236   7.434 -0.0210 -0.1900  0.0460
    1W        W32025  11.595  23.790   2.628  0.0039 -0.1258  0.2782
    1W        W32026   6.160   2.662   3.785 -0.0911 -0.0352 -0.0721
    1W        W32027  10.300  23.962   8.146 -0.1964 -0.0255 -0.4198
    1W        W32028   2.393   8.618   8.296  0.0411  0.0400 -0.0730
    1W        W32029  10.932   3.270   8.088 -0.1416  0.2023 -0.1958
    1W        W32030  19.565   5.643   9.757  0.3739 -0.1721 -0.1551
    1W        W32031  23.154  20.055   9.920  0.0004  0.0348  0.1185
    1W        W32032   0.062  21.382   0.146  0.0975 -0.3559 -0.1826
    1W        W32033  12.440  24.386   2.423  0.0757  0.1417  0.2882
    1W        W32034  14.699   8.917   7.097  0.0929  0.0219  0.1076
    1W        W32035   3.620  22.576   9.452 -0.1092 -0.0555 -0.1442
    1W        W32036   0.479  26.500   8.800 -0.1154 -0.0971 -0.5198
    1W        W32037  11.433  17.513   2.122 -0.0547 -0.2225 -0.0883
    1W        W32038  14.522  26.204   2.186  0.0046  0.0599  0.0078
    1W        W32039  10.182  10.488   6.194  0.3570  0.1248  0.1210
    1W        W32040   3.420   0.259   2.886  0.2138  0.0244  0.0737
    1W        W32041  11.017  10.299   6.827  0.1420 -0.2800 -0.0785
    1W        W32042   4.182  14.038   1.386  0.1223 -0.0774 -0.2704
    1W        W32043  16.624  20.170   1.624  0.1157  0.4672  0.3284
    1W        W32044   7.199   4.955   3.032 -0.0214 -0.1644  0.0651
    1W        W32045   2.728  22.417   7.997 -0.0544  0.2163  0.3172
    1W        W32046  11.999   7.301   8.873 -0.2740  0.4479  0.3717
    1W        W32047   7.034  17.352   6.930 -0.1784 -0.0340  0.0028
    1W        W32048  16.796  13.741   8.407  0.1512 -0.2345 -0.0928
    1W        W32049  22.154   9.274   2.036 -0.1068 -0.1936 -0.2145
    1W        W32050   4.549  15.137   2.719  0.1285  0.1425 -0.2095
    1W        W32051  17.565  22.273   9.955  0.3566  0.4000  0.3856
    1W        W32052   7.261  24.518   9.772 -0.0083  0.1143  0.0342
    1W        W32053  16.473  22.179   8.500 -0.1852  0.1325  0.2086
    1W        W32054  10.077  19.981   9.892  0.2539 -0.0843 -0.2308
    1W        W32055  27.115  20.518   8.403 -0.0742 -0.2613 -0.0386
    1W        W32056  14.717   3.527   7.632 -0.3494  0.0960  0.2934
    1W        W32057  23.049  15.965   7.138 -0.2761 -0.0197  0.2888
    1W        W32058   0.055  24.102   9.083  0.0532 -0.0987  0.1793
    1W        W32059   1.651   9.304   6.869  0.0375 -0.1124 -0.1685
    1W        W32060  14.014  14.374   6.411  0.2396  0.0345  0.1016
    1W        W32061  12.739   2.619   2.712  0.1931 -0.3435  0.2919
    1W        W32062   8.765  12.019   9.808 -0.1107  0.0745 -0.0165
    1W        W32063  19.622   7.531   6.011  0.0904  0.3247 -0.3102
    1W        W32064  24.479   4.537   8.172  0.6311  0.1275  0.1479
    1W        W32065  21.564  22.927   7.500 -0.1475  0.0108 -0.1281
    1W        W32066   0.682   9.565   3.105  0.0169  0.0590 -0.2746
    1W        W32067  11.902  14.739   1.681 -0.0531 -0.4235 -0.1660
    1W        W32068  12.330  27.160   0.310  0.1503  0.0329 -0.0242
    1W        W32069  14.647   8.894   9.425  0.1384  0.0316 -0.1672
    1W        W32070  10.819  13.002   7.800  0.0481 -0.1003 -0.0010
    1W        W32071   8.207   3.940   9.996  0.1042  0.0705 -0.0622
    1W        W32072   4.119  25.683   7.442 -0.1966  0.0646  0.1014
    1W        W32073   5.595  19.231   8.222 -0.3108 -0.1488 -0.1112
    1W        W32074  15.046   8.387   6.861 -0.1837  0.0721 -0.1898
    1W        W32075  26.197   1.938   1.645 -0.0773  0.0905  0.1275
    1W        W32076   4.736   5.122   3.305 -0.1492 -0.0431  0.1461
    1W        W32077  21.723   8.560   1.090 -0.3942 -0.0012  0.3525
    1W        W32078  19.316  22.256   0.473 -0.0684  0.0475 -0.1124
    1W        W32079   3.830  13.337   9.283 -0.0993  0.3905 -0.2367
    1W        W32080  27.701   3.472   4.170  0.0740 -0.1166  0.3043
    1W        W32081  12.039  23.732   1.990 -0.0061 -0.0478  0.1096
    1W        W32082  18.690  20.158   7.097  0.1759  0.1040  0.0474
    1W        W32083   4.533  27.109   4.008 -0.1928  0.1507 -0.1813
    1W        W32084   0.133  17.768   1.518 -0.1811 -0.0064  0.0106
    1W        W32085   4.307  14.058   7.778  0.0319  0.0033  0.0375
    1W        W32086  17.556  22.612   7.256 -0.1091  0.3035  0.0015
    1W        W32087  15.389  19.809   8.414  0.0577 -0.0013 -0.1700
    1W        W32088   7.942   5.000   1.721 -0.0909 -0.2537 -0.3385
    1W        W32089   3.428  14.834   0.476 -0.1314 -0.0352  0.1495
    1W        W32090   1.032  24.198   0.770 -0.0316  0.1893 -0.0678
    1W        W32091  14.547   8.618   9.031 -0.1608 -0.3700  0.1649
    1W        W32092  28.158  28.287   1.207  0.0630 -0.0907 -0.2569
    1W        W32093  28.511  10.344   8.049  0.2777 -0.1182  0.1551
    1W        W32094  10.107  15.646   0.717 -0.0392  0.1861 -0.2278
    1W        W32095   9.842   2.720   0.143 -0.1196 -0.0179 -0.0341
    1W        W32096  27.112   6.110   3.550 -0.3431 -0.2552 -0.2237
    1W        W32097   3.320  13.267   9.425 -0.0740  0.3064  0.1883
    1W        W32098   9.431  24.825   1.144  0.1586  0.1148 -0.0254
    1W        W32099  24.566  15.525   0.863 -0.0719  0.1522  0.2296
    1W        W32100   0.865  13.102   9.645  0.0591  0.4322 -0.0557
    1W        W32101   9.435  28.079   9.675 -0.0814  0.0713  0.0500
    1W        W32102  11.534  21.151   8.769 -0.1687 -0.0359 -0.1254
    1W        W32103  10.180  12.678   9.750  0.0679  0.3100 -0.1210
    1W        W32104  13.028  21.134   6.773 -0.1023 -0.0579 -0.2058
    1W        W32105   6.907  14.341   1.686  0.0278 -0.1052  0.2938
    1W        W32106  16.579  20.495   9.438 -0.0236 -0.1154 -0.2397
    1W        W32107  22.131   4.485   2.178 -0.1042 -0.0479 -0.0529
    1W        W32108  14.833   3.644   7.171  0.0206  0.3740 -0.2469
    1W        W32109  20.057  24.561   3.020  0.1633 -0.0434 -0.1872
    1W        W32110   9.348  17.599   6.847 -0.1551  0.0685 -0.0715
    1W        W32111  24.841  16.645   0.353 -0.0295 -0.1391 -0.2025
    1W        W32112  16.165  15.797   1.862  0.3561 -0.0226 -0.2598
    1W        W32113   5.743  21.980   0.244  0.1164 -0.2194  0.1098
    1W        W32114  28.713   3.544   2.277  0.0294  0.0213 -0.1043
    1W        W32115  24.629  15.270   0.426  0.1100  0.2249 -0.4699
    1W        W32116   5.604  24.613   2.294  0.0180  0.0888  0.2463
    1W        W32117  19.279   0.119   9.755  0.1193  0.2106  0.0876
    1W        W32118  28.478  12.120   8.024  0.0432 -0.2360  0.1064
    1W        W32119  12.711   2.756   1.170 -0.1131 -0.1199 -0.1901
    1W        W32120   3.802  23.145   2.981  0.0080 -0.1481 -0.0357
    1W        W32121   1.093  20.878   1.629  0.1046 -0.0842 -0.1164
    1W        W32122  20.663  24.630   9.486  0.0139 -0.0859 -0.0346
    1W        W32123  15.942  16.066   0.575  0.2841 -0.2618 -0.0810
    1W        W32124   9.250  24.302   2.551 -0.0547 -0.3166  0.1324
    1W        W32125  16.997  13.828   9.325  0.0781 -0.2319  0.1427
    1W        W32126  22.760  23.930   9.288 -0.3894 -0.1507  0.0881
    1W        W32127  20.747   7.954   6.693 -0.0387  0.1290  0.2440
    1W        W32128  11.551  27.240   2.959  0.2668 -0.1033 -0.1447
    1W        W32129   8.778  24.042   9.965  0.1678  0.2054  0.0163
    1W        W32130  12.209  14.625   8.054 -0.0651 -0.0555  0.0898
    1W        W32131   6.118  27.994   4.477 -0.1606  0.0898  0.1663
    1W        W32132  25.020   1.166   7.872  0.0161 -0.1462  0.2001
    1W        W32133   1.423   1.640   0.840  0.1850 -0.0470  0.1884
    1W        W32134  19.622  16.359   3.066  0.4405 -0.1895 -0.0404
    1W        W32135   5.433  25.788   1.598 -0.1896 -0.1370 -0.2521
    1W        W32136  13.341  20.182   9.404 -0.2547  0.0042  0.1034
    1W        W32137   0.737  22.592   1.036 -0.1377  0.2413  0.0129
    1W        W32138   1.655   7.780   9.831  0.1582  0.2457  0.0605
    1W        W32139   0.503   2.174   1.566 -0.1144  0.3836  0.0315
    1W        W32140  21.723  17.896   6.390 -0.4475 -0.0647 -0.1636
    1W        W32141  10.569  20.724   7.850 -0.1900  0.0756 -0.1122
    1W        W32142   3.520   3.000   4.391  0.0326  0.0911 -0.0529
    1W        W32143  11.302   6.350   6.667  0.0070  0.0746 -0.2370
    1W        W32144   1.759   9.604   1.986  0.2005  0.0053 -0.1688
    1W        W32145   5.446  13.753   1.617  0.0742 -0.0519 -0.0016
    1W        W32146  11.649  12.974   8.411  0.1748  0.1961 -0.1045
    1W        W32147  25.211   2.645   2.674 -0.0856 -0.0740  0.0359
    1W        W32148  15.928  10.748   7.065  0.1052 -0.3710 -0.0548
    1W        W32149   3.878  23.579   8.286 -0.2837 -0.1955 -0.2565
    1W        W32150  23.703   1.534   8.046  0.4235 -0.1486  0.0971
    1W        W32151  21.210  16.867   6.377 -0.0127  0.1015 -0.0622
    1W        W32152   4.494  10.942   8.020 -0.0151 -0.0758 -0.0061
    1W        W32153   4.176  23.900   2.584 -0.2390 -0.0510 -0.1790
    1W        W32154   0.434  24.975   9.958  0.2326 -0.5628  0.0467
    1W        W32155   4.980  28.553   1.134  0.1371  0.1070  0.0776
    1W        W32156  15.113  26.273   8.415  0.1118 -0.2045 -0.2218
    1W        W32157  11.253  22.025   2.694 -0.1148 -0.2104 -0.0757
    1W        W32158   3.305   1.568   1.584 -0.0362  0.3101 -0.1562
    1W        W32159   3.618   8.253   3.120 -0.1592 -0.1765 -0.1898
    1W        W32160  10.545  19.776   7.568 -0.1101  0.0880 -0.1657
    1W        W32161   5.266   2.761   0.662  0.1017  0.2109 -0.0751
    1W        W32162   6.478   2.143   0.465 -0.0468 -0.0509  0.0029
    1W        W32163  26.817  25.218   1.638 -0.0138 -0.0080 -0.2608
    1W        W32164  26.142  21.879   9.011 -0.2434  0.0775  0.1558
    1W        W32165  16.674  26.516   0.538  0.2611 -0.0097  0.0167
    1W        W32166  15.149   0.357   0.580 -0.1618  0.2876 -0.0012
    1W        W32167  26.995  14.255   9.279 -0.0010 -0.5075 -0.3363
    1W        W32168  16.538  24.020   9.258 -0.0869  0.1399  0.1835
    1W        W32169   8.671  12.074   7.882  0.1340  0.3122 -0.0636
    1W        W32170  12.236   1.968   2.109  0.1362  0.0465  0.1182
    1W        W32171  17.287  20.831   1.703 -0.2952 -0.1683  0.0877
    1W        W32172  27.930  14.210   4.162 -0.0278 -0.0248  0.1862
    1W        W32173   9.932   0.884   0.089  0.1810 -0.0672 -0.1518
    1W        W32174   9.136  20.616   1.632  0.0507  0.0838  0.0794
    1W        W32175   9.757  12.316   1.051 -0.2333 -0.0944  0.0047
    1W        W32176   1.589  16.955   7.945 -0.2484  0.1152 -0.0160
    1W        W32177   9.198   4.790   8.148 -0.0150  0.2459 -0.0033
    1W        W32178  16.533  20.342   9.912 -0.0589 -0.0681 -0.1638
    1W        W32179  26.680   3.577   9.142 -0.0403 -0.1376  0.0102
    1W        W32180  21.886  27.605   7.432 -0.1069 -0.0839  0.2177
    1W        W32181   2.032   7.859   1.393 -0.0547  0.1173  0.0004
    1W        W32182   4.564  10.479   7.810 -0.1866  0.0365  0.3900
    1W        W32183  17.171  24.121   2.397 -0.0423 -0.1877  0.0508
    1W        W32184  28.814   8.402   9.554 -0.2378  0.0127 -0.0620
    1W        W32185  12.470  21.488   8.169 -0.0296  0.2960  0.1022
    1W        W32186  22.581   0.537   0.947 -0.1339  0.1594 -0.0448
    1W        W32187  15.034   1.361   7.497 -0.0182 -0.0372 -0.0515
    1W        W32188  10.092  24.672   7.772 -0.0936  0.0071 -0.1183
    1W        W32189  17.347  27.226   8.102  0.0260  0.0882  0.1960
    1W        W32190  19.468   7.868   1.224  0.0717 -0.0567 -0.0578
    1W        W32191  25.165  22.877   7.432 -0.0077 -0.2325 -0.0740
    1W        W32192  12.333   8.175   0.139  0.0278  0.1132  0.1472
    1W        W32193   5.643  24.505   4.093  0.3869 -0.0708 -0.0233
    1W        W32194   0.374  19.474   9.514 -0.0526  0.1273 -0.0748
    1W        W32195  11.083   1.599   8.864 -0.2012  0.2737 -0.0068
    1W        W32196   3.648  19.864   8.347  0.2602  0.2470  0.0710
    1W        W32197  10.738  10.399   0.968  0.2093  0.1858  0.1576
    1W        W32198   7.451   7.031   8.129 -0.3120 -0.0286 -0.1015
    1W        W32199   2.929  14.740   2.349  0.0718 -0.4559 -0.2664
    1W        W32200   0.170  28.140   1.347 -0.2703 -0.1852 -0.3359
    1W        W32201  19.017  25.752   2.368 -0.2613 -0.1448  0.0399
    1W        W32202  28.159  25.299   9.142  0.2045 -0.1269 -0.0812
    1W        W32203  26.061  24.909   9.452  0.0186  0.0077 -0.2261
    1W        W32204  18.370  25.527   2.823 -0.0249  0.2404 -0.2803
    1W        W32205   5.587  22.524   7.122 -0.0637  0.2941  0.0215
    1W        W32206  25.944  27.135   2.438  0.0281 -0.1442  0.1151
    1W        W32207   2.619  22.713   9.816  0.1754  0.2438  0.0802
    1W        W32208  27.971  25.834   9.046 -0.3542 -0.3202 -0.0045
    1W        W32209   5.549  22.602   1.180 -0.2529 -0.2819  0.1141
    1W        W32210  22.196  21.885   2.739 -0.0116  0.0574  0.2067
    1W        W32211  10.592  24.715   3.150 -0.1697  0.2588  0.0387
    1W        W32212   8.817   9.049   0.234 -0.0604  0.1835 -0.1802
    1W        W32213  25.763  19.017   1.354  0.0017 -0.0192  0.2047
    1W        W32214   6.952  25.264   3.738  0.0349 -0.4644  0.0372
    1W        W32215  26.850  19.938   9.436  0.2825 -0.0055 -0.0085
    1W        W32216   8.081   8.590   6.805 -0.2391  0.1039  0.1169
    1W        W32217   6.479  12.658   2.248  0.2481  0.0994 -0.2120
    1W        W32218  16.011  21.574   8.017 -0.3081  0.3185  0.1016
    1W        W32219  21.143  25.348   3.070 -0.2468 -0.2105  0.3189
    1W        W32220   9.441   6.127   9.067  0.3148  0.2331  0.0335
    1W        W32221   2.414  24.399   8.963 -0.2500  0.1228 -0.1011
    1W        W32222  24.409  24.018   0.268 -0.1679  0.0922  0.1542
    1W        W32223   7.113  27.655   0.618  0.0106 -0.0960 -0.3330
    1W        W32224   0.413   1.181   4.055  0.0361 -0.1074  0.2517
    1W        W32225  18.204  25.930   1.653  0.2001  0.1588  0.0734
    1W        W32226  11.263  26.068   7.685  0.0286 -0.1801 -0.0629
    1W        W32227  16.726   0.852   8.987  0.1135  0.2394  0.0484
    1W        W32228   9.659  19.684   0.311  0.1041 -0.0607  0.0431
    1W        W32229   6.745   7.756   0.496  0.0069  0.2867  0.3772
    1W        W32230  22.866   5.005   0.367 -0.0659  0.1829 -0.0385
    1W        W32231  22.948  14.859   8.962  0.1021  0.0468  0.4443
    1W        W32232  17.531   7.048   6.771 -0.1218 -0.1216 -0.2888
    1W        W32233  23.083   2.902   9.059  0.0633 -0.1033 -0.0031
    1W        W32234   2.305  17.460   2.127 -0.0847 -0.1149 -0.0950
    1W        W32235  23.797  28.794   0.069 -0.0008 -0.0691 -0.0109
    1W        W32236  24.424  25.895   8.847 -0.0776  0.1458 -0.0793
    1W        W32237  11.196  21.662   2.373  0.2040 -0.0372 -0.2808
    1W        W32238  17.874   3.071   6.632  0.0531 -0.0907 -0.0346
    1W        W32239   7.942   3.518   0.844 -0.3088  0.1535 -0.0188
    1W        W32240  10.854  25.305   2.256  0.2683  0.0410  0.1109
    1W        W32241  26.856  26.808   2.075  0.1259  0.0595  0.2124
    1W        W32242   7.218  18.037   7.299 -0.0330 -0.2309  0.1914
    1W        W32243   0.470  17.881   2.714  0.1192 -0.2153 -0.3571
    1W        W32244  17.873   1.507   9.649  0.1043 -0.2532  0.2092
    1W        W32245   4.848   2.164   1.283  0.0801 -0.0690  0.0566
    1W        W32246   1.969  14.743   9.542 -0.0987 -0.1893  0.4592
    1W        W32247  17.145  25.450   1.925 -0.1989 -0.2512  0.2836
    1W        W32248  16.157  23.230   8.637  0.3816  0.0770 -0.3037
    1W        W32249  15.273  25.405   7.240 -0.2617  0.2747 -0.4078
    1W        W32250  14.555  17.537   1.565 -0.0433 -0.1240  0.0355
    1W        W32251  15.903  18.819   8.451 -0.1752 -0.0419 -0.1897
    1W        W32252  15.705  15.549   9.830  0.2146  0.3036 -0.0882
    1W        W32253  24.959   0.157   1.918  0.4325 -0.1039 -0.1431
    1W        W32254  16.281   1.181   0.005 -0.2827  0.4381 -0.1710
    1W        W32255  13.477  27.679   7.957 -0.0059 -0.0151  0.2100
    1W        W32256  17.578   2.703   6.292 -0.0630  0.1580 -0.0187
    1W        W32257  24.836  17.577   9.050  0.0263 -0.0895  0.0011
    1W        W32258   0.824  25.863   2.063  0.0412  0.1268  0.1400
    1W        W32259  23.997  14.241   7.077  0.1855 -0.0595 -0.1853
    1W        W32260  24.578  24.790   7.764 -0.1394 -0.0065 -0.2509
    1W        W32261  28.060   4.924   3.249  0.1444  0.0817 -0.0802
    1W        W32262  24.226   4.939   7.592 -0.1686 -0.3462 -0.4600
    1W        W32263  25.245  21.364   2.702 -0.0933 -0.1920 -0.0581
    1W        W32264  18.491  20.974   9.574 -0.2063  0.2649 -0.0310
    1W        W32265   4.384  14.494   1.460  0.2289  0.0636 -0.0648
    1W        W32266  25.876   2.955   0.607  0.1139 -0.1150 -0.1595
    1W        W32267  26.716  25.595   1.327  0.1497 -0.1113  0.1614
    1W        W32268   8.900   9.074   7.360 -0.2392  0.0565 -0.2031
    1W        W32269  22.522  28.492   9.650 -0.2453  0.0414  0.0619
    1W        W32270  15.497  28.678   0.685  0.0887 -0.1592  0.0215
    1W        W32271  22.082   6.503   0.491 -0.0839 -0.0166 -0.1858
    1W        W32272  28.270   6.317   0.108 -0.1223  0.0031 -0.0572
    1W        W32273  26.931  21.881   9.835 -0.1452  0.0594 -0.0979
    1W        W32274  17.178  10.276   6.674  0.1578  0.1276  0.2239
    1W        W32275  25.044  10.815   1.957 -0.0184 -0.2303 -0.0735
    1W        W32276   4.852  17.002   8.224  0.1770  0.0163 -0.0143
    1W        W32277  22.678  21.918   7.883  0.1479  0.1362 -0.3193
    1W        W32278   8.948  23.029   2.011 -0.2780 -0.0105 -0.1157
    1W        W32279  14.339  19.789   2.448 -0.0978 -0.3315 -0.1593
    1W        W32280  10.697  11.396   7.232 -0.0220 -0.0729  0.1352
    1W        W32281   3.884  22.229   2.724 -0.1214 -0.1175 -0.0083
    1W        W32282   9.777  14.201   6.738  0.1418 -0.0222  0.3531
    1W        W32283   8.293  28.063   9.866  0.0510  0.1514 -0.0695
    1W        W32284  27.483   6.604   8.343 -0.4377  0.0803  0.0518
    1W        W32285  17.999  16.489   1.981  0.1230 -0.1814 -0.2092
    1W        W32286  22.290  20.207   8.350 -0.0568  0.1798  0.0159
    1W        W32287   8.242  16.088   7.074 -0.2195  0.2471  0.2062
    1W        W32288  19.463  26.246   7.996 -0.4608 -0.4597  0.1689
    1W        W32289  16.360  25.397   9.592 -0.0458  0.2344 -0.5437
    1W        W32290   8.177  18.632   2.633  0.0678 -0.2347 -0.0164
    1W        W32291   7.437  23.519   6.867  0.0419 -0.0907 -0.0714
    1W        W32292  26.864  20.945   2.287  0.0830  0.0809  0.1138
    1W        W32293   8.536   9.559   9.114  0.0992  0.1642 -0.1150
    1W        W32294   6.254  27.755   3.676 -0.1940 -0.0915 -0.2133
    1W        W32295  26.033  16.662   7.857  0.2153 -0.1676  0.2560
    1W        W32296  28.356  20.620   1.924 -0.1617 -0.0243 -0.0028
    1W        W32297   2.537   4.423   9.876  0.0925  0.1153 -0.0287
    1W        W32298  12.081   4.578   5.852  0.1548  0.0807 -0.0941
    1W        W32299   4.573  14.954   0.616 -0.1795  0.1230 -0.0626
    1W        W32300   2.085  16.514   2.303  0.1396  0.0203 -0.1439
    1W        W32301   3.625   2.069   9.220  0.1249 -0.1719 -0.1792
    1W        W32302  12.747  27.397   7.672 -0.0744  0.2406 -0.2988
    1W        W32303  12.877   0.908   1.663  0.1045  0.1695  0.1815
    1W        W32304  14.963  17.965   6.162  0.3480  0.1245 -0.0046
    1W        W32305  28.450   6.160   0.887  0.3378 -0.0289 -0.0483
    1W        W32306  24.765   3.648   9.871 -0.2750  0.2292 -0.0001
    1W        W32307  24.320  20.828   3.042  0.0265  0.0554  0.0368
    1W        W32308  20.719  18.044   0.957 -0.3540  0.0108 -0.0775
    1W        W32309  19.873   9.325   0.910  0.2342  0.2449 -0.1957
    1W        W32310   9.222  28.111   1.965  0.0039  0.0658 -0.1303
    1W        W32311  28.471   6.272   3.637  0.3906 -0.2271  0.4140
    1W        W32312  10.080  13.521   6.779 -0.2082  0.0585 -0.0439
    1W        W32313  18.028  23.799   0.019 -0.2336  0.0199 -0.2722
    1W        W32314  12.294  26.270   0.011  0.4404 -0.2468 -0.1457
    1W        W32315  14.319  10.928   5.882 -0.1332 -0.4473  0.0660
    1W        W32316  27.923  16.722   0.135  0.1952  0.2883 -0.0210
    1W        W32317  19.124  23.080   2.226 -0.0084  0.0483  0.4066
    1W        W32318  23.029  20.083   9.425  0.1485 -0.2030 -0.1817
    1W        W32319   0.529  24.758   2.861 -0.0321  0.2078 -0.2562
    1W        W32320  16.817   5.902   8.389 -0.0190  0.1829  0.0775
    1W        W32321  13.383  21.801   0.963  0.1895  0.1249 -0.2322
    1W        W32322  21.505   5.894   8.521  0.0582 -0.1671 -0.0302
    1W        W32323  24.372  16.503   0.143 -0.0952  0.1975  0.3228
    1W        W32324  14.011  18.963   0.916 -0.1377  0.1894 -0.1409
    1W        W32325  17.245  14.490   2.051 -0.0726 -0.0825  0.1709
    1W        W32326   9.653   4.149   1.625  0.0008  0.2788 -0.0658
    1W        W32327  16.817  23.607   8.469 -0.2152 -0.3536  0.0212
    1W        W32328  25.998  18.324   1.859  0.0948 -0.0499 -0.0389
    1W        W32329  20.878  16.623   8.559  0.1456 -0.2408  0.1491
    1W        W32330  17.209   5.621   1.869 -0.2338  0.2377  0.1757
    1W        W32331  27.144  16.094   8.525  0.3474 -0.1293 -0.2023
    1W        W32332  28.275  26.443   2.235  0.1205 -0.0455 -0.0160
    1W        W32333   5.244  20.587   9.629  0.1451 -0.2357  0.1104
    1W        W32334  13.719   8.635   9.142  0.2773 -0.2461  0.0260
    1W        W32335   8.042   5.329   0.990  0.0153  0.0075 -0.1610
    1W        W32336   9.711   9.188   0.471 -0.2708  0.1675 -0.1129
    1W        W32337  25.834  27.918   1.843  0.1792 -0.0366  0.0440
    1W        W32338   9.773  17.018   8.034  0.0572 -0.2153  0.0288
    1W        W32339   5.889  13.144   8.242 -0.2930 -0.3859 -0.2473
    1W        W32340  12.469  27.319   7.288  0.2587  0.2499 -0.0780
    1W        W32341   1.965   8.750   9.356  0.0504 -0.0584 -0.0290
    1W        W32342  26.264  15.976   7.020 -0.2393 -0.0560 -0.0278
    1W        W32343  13.106  14.670   0.207  0.2472 -0.0737  0.2317
    1W        W32344  20.391  26.417   2.349  0.0082  0.0021  0.2040
    1W        W32345  27.323  28.593   1.552 -0.2258 -0.1023  0.1523
    1W        W32346  22.143  22.348   2.385 -0.0426 -0.6029 -0.1609
    1W        W32347   5.001   3.444   1.804 -0.0667 -0.0438  0.2015
    1W        W32348   1.933  26.176   9.895 -0.0492  0.0234 -0.3759
    1W        W32349   5.804   0.444   7.980  0.3113 -0.1912  0.0394
    1W        W32350  18.438  15.774   2.607  0.0537 -0.1332  0.3844
    1W        W32351  15.261   7.779   9.423  0.0239  0.1743  0.0168
    1W        W32352  26.657   4.880   0.777  0.0927  0.0012  0.0307
    1W        W32353  17.537   5.050   7.658 -0.0755  0.1964  0.3878
    1W        W32354  10.840  12.433   2.030 -0.1989 -0.2836  0.1426
    1W        W32355  27.137   0.804   2.317  0.1994 -0.0530 -0.0824
    1W        W32356   0.048  18.076   7.385  0.0364 -0.3478  0.0113
    1W        W32357  10.781  25.636   3.541  0.1524  0.1550  0.3660
    1W        W32358  27.685   5.808   1.321 -0.0578  0.1508  0.3295
    1W        W32359  22.071   5.801   8.017 -0.0655 -0.0479 -0.0524
    1W        W32360  11.544   4.753   7.979 -0.1198 -0.0531 -0.0588
    1W        W32361  21.642  12.625   9.844 -0.1306 -0.6026  0.1705
    1W        W32362  10.308  17.229   1.818 -0.1315 -0.0306  0.1213
    1W        W32363   5.834  18.817   8.380 -0.1000 -0.0739  0.2463
    1W        W32364  11.125   5.110   9.704  0.1965  0.2806  0.1792
    1W        W32365  16.393   0.059   7.072  0.1353 -0.3084  0.1040
    1W        W32366  12.587  27.292   2.234  0.0136 -0.0871  0.2844
    1W        W32367  18.548   4.973   7.394  0.1401 -0.0066  0.1588
    1W        W32368  13.875  17.364   0.925  0.1724 -0.0294  0.1812
    1W        W32369  17.103  26.576   0.894 -0.3077 -0.0427  0.1208
    1W        W32370  15.730  20.317   6.172  0.0771  0.2287  0.1494
    1W        W32371  11.168  26.270   9.757  0.1957  0.2479  0.1315
    1W        W32372  23.047  22.403   7.910 -0.0111 -0.0429 -0.0006
    1W        W32373  13.793  28.295   8.719 -0.0333  0.1261  0.2771
    1W        W32374  23.467  23.624   2.063  0.1965  0.2468 -0.0896
    1W        W32375  21.568  20.820   1.546 -0.0969 -0.0819  0.1379
    1W        W32376   1.757  26.003   9.125  0.1981 -0.0819  0.3222
    1W        W32377  10.174   8.933   0.257 -0.2933  0.1397 -0.1845
    1W        W32378   0.623  24.072   1.682 -0.0093 -0.0063  0.0002
    1W        W32379   9.325  13.386   6.344  0.0954  0.2904  0.0023
    1W        W32380  16.677  22.696   8.522  0.2878 -0.3813  0.0309
    1W        W32381  18.158   3.691   1.453  0.1543 -0.0274  0.0172
    1W        W32382   5.413  19.704   8.129 -0.0960  0.0271  0.1225
    1W        W32383   8.531  20.600   7.800 -0.1324  0.1207  0.0326
    1W        W32384  19.159  16.516   6.250  0.2730 -0.4356 -0.2060
    1W        W32385  18.782  22.751   2.849 -0.4426  0.1494 -0.0433
    1W        W32386  12.411   2.017   0.061 -0.0144  0.0848 -0.4197
    1W        W32387  10.152  12.424   2.399  0.1691  0.2492  0.1809
    1W        W32388  25.093   7.146   3.136  0.1736 -0.1327 -0.1143
    1W        W32389   0.035   9.048   0.318  0.3282  0.1132  0.0493
    1W        W32390  24.225  17.969   1.205 -0.2399 -0.0258  0.0021
    1W        W32391   6.615   9.556   7.460 -0.4019  0.2656  0.2796
    1W        W32392   3.178  26.859   9.650 -0.0052  0.1400  0.0007
    1W        W32393  18.374   9.705   9.132 -0.0528  0.0538  0.1388
    1W        W32394   9.388  21.409   0.398 -0.0441 -0.2031  0.0044
    1W        W32395  17.691   6.507   9.327 -0.2740  0.2789 -0.0142
    1W        W32396   3.165  21.817   9.383  0.1147  0.0140  0.3675
    1W        W32397  28.524   3.273   2.752  0.2814 -0.2403  0.3287
    1W        W32398   6.298  26.089   3.857  0.1792  0.3199 -0.1136
    1W        W32399   6.161   8.252   1.091  0.0590  0.1591 -0.1999
    1W        W32400  13.394  27.213   2.627 -0.0143  0.0208  0.0546
    1W        W32401  13.205  15.002   6.049 -0.3471 -0.0670 -0.2181
    1W        W32402  27.688  16.754   4.238 -0.0877 -0.1736 -0.1359
    1W        W32403   4.798  21.073   9.974  0.2221  0.0026  0.1244
    1W        W32404  15.417   1.040   9.559 -0.1390  0.4492  0.2911
    1W        W32405  13.277  26.884   1.813  0.3392 -0.1978 -0.0795
    1W        W32406  12.815   6.117   9.560  0.3214 -0.0768 -0.1213
    1W        W32407  20.876  18.725   6.652  0.1927  0.1758 -0.3963
    1W        W32408   7.451  18.849   9.448 -0.0056 -0.0599 -0.0041
    1W        W32409   6.949   7.206   6.770 -0.1258  0.0309 -0.1700
    1W        W32410   9.310  23.936   0.973 -0.4912  0.1383 -0.0885
    1W        W32411   8.507  26.135   9.696 -0.0026 -0.0911  0.0474
    1W        W32412  24.439   0.755   2.722  0.6027  0.1405 -0.0590
    1W        W32413  25.357  18.084   3.199  0.1829 -0.1863  0.0714
    1W        W32414   6.519  27.941   9.960  0.0120  0.2310 -0.1393
    1W        W32415  17.797   1.975   9.841  0.0673  0.0904  0.0190
    1W        W32416  24.807  13.623   7.383  0.1052  0.1807  0.0729
    1W        W32417  18.324   5.458   8.469 -0.0402  0.1619 -0.3579
    1W        W32418  23.514  13.840   8.844 -0.0361  0.2082 -0.3245
    1W        W32419   1.040   4.516   8.437 -0.3546  0.1660 -0.2086
    1W        W32420  22.632  17.505   9.735  0.2537  0.3205 -0.2952
    1W        W32421  23.400  13.565   7.167 -0.1901 -0.1168  0.1894
    1W        W32422  15.574  23.071   2.070  0.2629  0.0519  0.0176
    1W        W32423   0.162   7.486   1.217 -0.0870 -0.0404 -0.1544
    1W        W32424   3.529  13.936   0.506  0.2376  0.2545 -0.1182
    1W        W32425   9.318  15.745   7.310  0.0529 -0.0759  0.0520
    1W        W32426  17.368   2.700   7.582 -0.2797  0.3654 -0.0943
    1W        W32427  21.546  11.395   9.523 -0.0305  0.0290 -0.0865
    1W        W32428  22.362  17.436   7.259 -0.2263  0.1376 -0.1427
    1W        W32429  18.607   2.430   1.772  0.1259  0.1221  0.0726
    1W        W32430  27.134  24.693   0.837 -0.0653  0.2877  0.0999
    1W        W32431  25.602  17.358   0.678 -0.2158 -0.1752  0.0047
    1W        W32432   6.469   7.288   0.566  0.0053  0.1029 -0.2838
    1W        W32433   0.762  17.576   2.404 -0.2113 -0.2511  0.1851
    1W        W32434   7.438  23.818   8.873 -0.2168  0.0231  0.1862
    1W        W32435  18.129  20.653   9.379 -0.1226  0.0620 -0.1332
    1W        W32436   9.436   2.843   9.638  0.0643  0.0284 -0.1221
    1W        W32437  19.481   5.923   0.185  0.3811 -0.0190  0.0217
    1W        W32438   4.590   0.399   3.536  0.0695  0.1125 -0.0859
    1W        W32439  16.608  27.333   0.480  0.0718  0.1813 -0.0168
    1W        W32440  26.110  18.715   0.446  0.2530 -0.0997 -0.0325
    1W        W32441  21.413   7.563   6.188  0.3569 -0.0284 -0.0711
    1W        W32442  20.878   8.250   1.316  0.0023  0.0805 -0.1645
    1W        W32443  12.928  15.155   6.887  0.0147  0.0123  0.2928
    1W        W32444   6.769   2.181   0.036 -0.1137  0.0239 -0.3866
    1W        W32445  21.880   3.233   7.534 -0.0302 -0.1749 -0.1040
    1W        W32446  12.671  22.699   1.634 -0.2194 -0.1522  0.2215
    1W        W32447   7.399   1.026   8.008  0.4087  0.0786  0.2207
    1W        W32448   0.798   7.992   3.712  0.0847  0.1010 -0.1570
    1W        W32449  15.486  21.434   2.048  0.1819  0.2821 -0.0724
    1W        W32450   5.371   0.495   1.520 -0.5124 -0.1764 -0.0403
    1W        W32451  24.214  25.302   3.352 -0.1668 -0.3694 -0.1905
    1W        W32452  23.660  12.682   1.784 -0.3242 -0.1371 -0.0931
    1W        W32453   2.379   8.439   9.823 -0.1433  0.0753  0.1201
    1W        W32454  10.207  14.412   9.967 -0.3223  0.0194  0.0664
    1W        W32455   6.264  25.560   0.435  0.0471 -0.4693  0.0695
    1W        W32456  17.143   8.769   0.007 -0.0875 -0.1004  0.0184
    1W        W32457  20.065  14.927   1.537 -0.1007 -0.2158 -0.2604
    1W        W32458   5.996  28.320   1.431 -0.4040 -0.2641  0.2043
    1W        W32459  17.311   3.170   6.466  0.5057  0.0048 -0.1580
    1W        W32460   1.466  25.459   0.858  0.0803 -0.0101 -0.0609
    1W        W32461  11.704  13.349   0.360 -0.1345  0.1789 -0.0328
    1W        W32462   0.266  24.888   8.507  0.1940 -0.0877  0.0638
    1W        W32463  15.820   5.110   9.106  0.0434 -0.1303 -0.1491
    1W        W32464  21.476  14.934   7.004 -0.2575 -0.0174  0.3882
    1W        W32465  16.873  13.394   1.305  0.3040 -0.2509 -0.0116
    1W        W32466   5.940  11.679   7.943  0.3302 -0.1305  0.0234
    1W        W32467   1.324   5.535   8.352 -0.0112  0.0430 -0.1343
    1W        W32468  16.777   6.651   0.646  0.2087  0.1017 -0.0773
    1W        W32469   8.373   2.754   8.786 -0.1459 -0.0849 -0.0273
    1W        W32470  22.421  24.663   3.240 -0.4123 -0.1380  0.0741
    1W        W32471  23.681  14.773   7.614 -0.3858  0.1098 -0.4435
    1W        W32472  14.488  19.983   8.112  0.0627  0.1491 -0.1447
    1W        W32473  20.379  12.921   0.226 -0.3532 -0.1733 -0.1057
    1W        W32474   1.242   2.664   2.899  0.4685  0.0159 -0.3099
    1W        W32475  22.459  25.133   9.215 -0.1448  0.2630  0.4566
    1W        W32476  16.141  11.441   9.968  0.1696  0.1598  0.2936
    1W        W32477  25.570  12.382   0.190 -0.1623  0.0194  0.4500
    1W        W32478  15.930  16.635   1.450 -0.2994 -0.4867 -0.0249
    1W        W32479  27.707   0.432   3.095  0.0799 -0.0627 -0.0291
    1W        W32480  24.429  28.851   3.090 -0.3591  0.0194  0.0920
    1W        W32481  18.220  27.002   7.582  0.2334 -0.1152  0.0930
    1W        W32482   6.892  17.958   2.127 -0.2586 -0.0347  0.0963
    1W        W32483  12.874  22.652   8.525  0.1329 -0.0720 -0.0336
    1W        W32484  13.100  13.658   9.593 -0.0491  0.2851 -0.0162
    1W        W32485   6.528  14.420   2.613 -0.0153  0.4275  0.1383
    1W        W32486  14.524  23.049   2.934  0.0395  0.0980 -0.3705
    1W        W32487  23.709   7.697   1.154 -0.0302  0.1722  0.0173
    1W        W32488  24.225   0.379   9.462  0.2174 -0.0395 -0.3526
    1W        W32489  12.116   5.200   9.588 -0.1308 -0.0665 -0.2424
    1W        W32490   9.342  21.147   7.582 -0.3356 -0.2917  0.0663
    1W        W32491  19.532  22.973   8.066 -0.0257 -0.0085 -0.2052
    1W        W32492  20.509   0.660   7.692 -0.0512  0.0108  0.0972
    1W        W32493   6.047  28.378   7.602 -0.2295  0.1111 -0.1606
    1W        W32494  11.213   0.730   2.883  0.0308 -0.2665  0.3594
    1W        W32495   0.904  28.422   9.691  0.0949  0.4537  0.0051
    1W        W32496  19.814   5.655   8.958 -0.1051 -0.0904  0.1598
    1W        W32497  15.754  25.197   7.302 -0.1632 -0.3823  0.1113
    1W        W32498  25.273  11.760   8.864  0.1190  0.4401  0.1691
    1W        W32499   4.452   2.966   3.979 -0.2801 -0.0138 -0.1390
    1W        W32500  18.170   1.815   8.248 -0.2813 -0.3047  0.1252
    1W        W32501  28.802   4.147   2.293 -0.2376  0.2014  0.0813
    1W        W32502   0.150  13.827   6.759 -0.1893 -0.3766  0.2177
    1W        W32503  16.289  20.774   6.529 -0.1730  0.0129  0.2596
    1W        W32504  19.557   2.369   0.036 -0.1660 -0.1910  0.2893
    1W        W32505  10.173  24.528   8.330  0.1566  0.0885  0.1124
    1W        W32506  11.126   0.883   8.856  0.2430  0.0122 -0.0976
    1W        W32507  18.452  18.172   6.888  0.3206  0.0832 -0.0802
    1W        W32508  26.986  10.702   9.994  0.2558 -0.1992  0.3556
    1W        W32509   6.425  19.681   9.069 -0.3945 -0.0151 -0.2075
    1W        W32510   8.526   3.027   0.117  0.0611  0.1141 -0.0347
    1W        W32511   1.634  26.384   8.100  0.4661  0.1249 -0.1129
    1W        W32512  21.262  16.506   7.334 -0.2373  0.1411 -0.0899
    1W        W32513  12.317   4.549   0.334  0.0650 -0.0135  0.1413
    1W        W32514  22.336  20.496   0.048  0.0988  0.0586 -0.0043
    1W        W32515  19.755  28.496   2.701 -0.2245 -0.1540  0.0765
    1W        W32516  26.339  20.660   1.458 -0.2321 -0.2464  0.1975
    1W        W32517   2.333   1.161   0.079  0.1343  0.1572 -0.0732
    1W        W32518  14.349  27.580   7.478 -0.0659  0.0974  0.0485
    1W        W32519  25.941   2.821   2.238 -0.3340  0.2301  0.0620
    1W        W32520  20.524   5.918   7.500 -0.2613  0.2701  0.3854
    1W        W32521  11.661  12.481   6.502  0.1261 -0.1331 -0.0369
    1W        W32522  18.721  17.878   7.808  0.0008  0.3710 -0.1948
    1W        W32523  26.654  26.330   2.040 -0.1594 -0.0088 -0.2338
    1W        W32524   9.138  18.090   1.363 -0.1131  0.0223 -0.1245
    1W        W32525  28.318  13.149   8.301  0.1322 -0.0646  0.0264
    1W        W32526   3.568   4.226   9.789  0.1789 -0.1467 -0.1320
    1W        W32527   4.696   3.592   2.168 -0.1062 -0.2729  0.1409
    1W        W32528   4.086   9.753   2.097 -0.0426 -0.2083  0.3889
    1W        W32529  11.829  15.969   8.021 -0.0214  0.2454 -0.1790
    1W        W32530  16.605  15.459   7.605  0.1082  0.1252  0.0692
    1W        W32531   4.579  12.171   9.124  0.1188 -0.1544 -0.1551
    1W        W32532   3.167   7.337   0.616  0.0848  0.0538 -0.2420
    1W        W32533   7.736   4.446   3.524 -0.1644  0.0096  0.0300
    1W        W32534   8.834  27.953   7.727 -0.2062 -0.2679 -0.2520
    1W        W32535  17.357  19.504   1.785 -0.3739  0.2453  0.4054
    1W        W32536  19.589   6.464   0.199  0.3267  0.0372  0.0568
    1W        W32537  19.932  15.655   2.284 -0.0097 -0.0516 -0.0839
    1W        W32538   4.223   7.837   1.913  0.1663 -0.3338  0.0447
    1W        W32539  23.106  15.674   2.146 -0.0630 -0.0387 -0.3324
    1W        W32540  28.655  12.025   7.118 -0.1241  0.1415 -0.1496
    1W        W32541   2.611  11.424   9.151 -0.2190 -0.1233 -0.2323
    1W        W32542  21.428   4.328   7.480  0.2626 -0.0944 -0.1524
    1W        W32543  20.097  23.301   7.164 -0.0234  0.1361  0.0044
    1W        W32544  21.468  27.136   8.892 -0.0663 -0.4177 -0.0424
    1W        W32545  26.293  18.526   8.800 -0.1771 -0.0751 -0.3960
    1W        W32546  20.522  11.563   1.522  0.1367 -0.0826  0.0898
    1W        W32547   9.308   5.638   9.750 -0.2277 -0.2237 -0.0203
    1W        W32548  11.509   1.076   7.083  0.1172 -0.0694  0.2124
    1W        W32549  14.960  19.069   7.979  0.0342  0.0255 -0.1907
    1W        W32550   0.023  10.295   3.026 -0.1824  0.1545  0.1516
    1W        W32551  23.606  19.129   1.667  0.3602 -0.3140  0.2774
    1W        W32552  19.484  12.812   7.434  0.0920 -0.2464 -0.0430
    1W        W32553  19.578  21.453   1.492  0.1790  0.1354 -0.0293
    1W        W32554  14.829   1.844   0.354 -0.0913  0.2892  0.2068
    1W        W32555   1.697   0.959   8.599  0.0719  0.0550 -0.3794
    1W        W32556   6.969  21.932   0.924  0.0681 -0.2969  0.1082
    1W        W32557   3.443  24.218   8.919 -0.3466  0.0720 -0.0210
    1W        W32558   0.345  17.763   8.173 -0.0730 -0.0706 -0.0657
    1W        W32559  13.071  16.763   8.900 -0.0074 -0.2041  0.1904
    1W        W32560  22.187  16.650   9.046  0.3646  0.1956  0.1458
    1W        W32561  27.862  13.839   7.757 -0.0603 -0.1325 -0.1206
    1W        W32562   7.759  27.189   4.422  0.0086 -0.3891 -0.2296
    1W        W32563  19.900  18.329   1.871  0.4162 -0.5272 -0.1139
    1W        W32564  19.310  14.441   2.076  0.3914 -0.0480  0.1909
    1W        W32565  16.774  28.226   9.051 -0.1814 -0.3818  0.1875
    1W        W32566   7.176  20.097   8.423 -0.0958 -0.0285  0.0663
    1W        W32567   9.354  11.477   5.527 -0.3438  0.1267  0.3212
    1W        W32568   2.164  22.689   1.587  0.0586 -0.1401  0.0605
    1W        W32569   2.358  21.739   7.782 -0.2388 -0.1941 -0.1730
    1W        W32570  28.737  22.948   8.120 -0.1876  0.0018  0.1245
    1W        W32571   4.984  12.948   1.217 -0.0665 -0.1082 -0.0706
    1W        W32572  20.645  19.270   1.479  0.0987 -0.1583 -0.5125
    1W        W32573   3.075  18.160   9.164  0.0576  0.1568 -0.0148
    1W        W32574  24.737   3.724   9.264 -0.0100 -0.3061  0.0656
    1W        W32575  18.024   7.041   0.550 -0.2789  0.0935 -0.0194
    1W        W32576   4.517  28.436   8.832 -0.1496 -0.1159 -0.2717
    1W        W32577   3.753  10.875   0.400 -0.1822 -0.3090  0.2866
    1W        W32578  22.941  11.699   7.518  0.0789  0.3684 -0.5376
    1W        W32579  23.349  28.097   2.988  0.1048  0.3259 -0.2189
    1W        W32580   1.030  22.499   8.795 -0.0566  0.3292  0.4035
    1W        W32581  12.680   4.206   1.658 -0.5736  0.2149 -0.1754
    1W        W32582  15.444  14.798   1.226  0.0096 -0.1221  0.1224
    1W        W32583  28.594  17.249   2.826 -0.0313 -0.2088 -0.0600
    1W        W32584  10.521  10.780   8.583  0.0589 -0.0549 -0.3079
    1W        W32585  24.886   9.823   8.711  0.2163 -0.0440  0.0778
    1W        W32586   2.394  16.729   9.089 -0.4357 -0.0866  0.2341
    1W        W32587  20.126  12.554   1.072 -0.2310 -0.1566 -0.0461
    1W        W32588   1.308   6.183   9.101 -0.0523 -0.2921 -0.1114
    1W        W32589  17.294  20.453   6.432  0.0345 -0.1787  0.2287
    1W        W32590  13.943   5.956   0.555  0.1654  0.0377  0.0254
    1W        W32591  15.502  28.166   8.931 -0.0632 -0.0596 -0.0124
    1W        W32592  23.030  19.130   6.947 -0.0314 -0.0452  0.2053
    1W        W32593  22.258  20.521   6.564 -0.0525 -0.1902  0.1734
    1W        W32594   0.805  17.753   9.705 -0.0706  0.2341 -0.4306
    1W        W32595  12.252  28.402   7.778 -0.0333  0.0839  0.0373
    1W        W32596  20.496   4.975   6.930  0.1052 -0.0875  0.0463
    1W        W32597  12.771  26.836   0.527  0.1964  0.2593  0.0219
    1W        W32598  25.750  12.677   0.599  0.3984  0.0157  0.1941
    1W        W32599   1.270  10.364   0.603  0.0834  0.1254  0.0156
    1W        W32600   0.507  22.056   1.290 -0.2253 -0.0260  0.0942
    1W        W32601  10.431   2.610   2.517  0.0557  0.1030  0.1328
    1W        W32602  22.655   6.093   1.900  0.0134 -0.1315 -0.0396
    1W        W32603  24.239  16.480   7.446 -0.0844  0.1571  0.2046
    1W        W32604  11.877  15.338   6.406  0.3025  0.1069  0.1977
    1W        W32605  16.065  21.514   6.320  0.0766  0.1054  0.3751
    1W        W32606  18.926  26.607   9.134 -0.1413  0.1055  0.1351
    1W        W32607   2.012  11.630   0.587  0.3096 -0.0698  0.3094
    1W        W32608  11.066  28.856   2.862 -0.1516 -0.1564 -0.0178
    1W        W32609  26.390  11.785   8.651  0.0470 -0.0647  0.3937
    1W        W32610  12.027  10.350   9.169  0.1374 -0.1827 -0.0950
    1W        W32611   0.092   2.153   8.547  0.0123 -0.1266 -0.0371
    1W        W32612  19.268   2.389   7.779  0.2548 -0.0388  0.0668
    1W        W32613   4.797  24.958   0.384 -0.2127  0.0572 -0.2850
    1W        W32614  18.943  17.280   2.477  0.0984 -0.0835 -0.0489
    1W        W32615   6.958  24.172   3.757 -0.0968 -0.0490  0.0929
    1W        W32616   7.767   8.792   6.437 -0.1515  0.2763 -0.1782
    1W        W32617   5.062  22.339   7.213  0.0403 -0.0348  0.2714
    1W        W32618  23.962   8.373   2.252 -0.0215  0.2986  0.0521
    1W        W32619   1.310   1.242   3.865  0.2184  0.2576 -0.0889
    1W        W32620  15.232   0.681   8.570 -0.0663  0.3006  0.0516
    1W        W32621  13.700   0.941   8.877 -0.0693 -0.0713  0.1467
    1W        W32622   6.024  11.427   8.354  0.2501  0.1111 -0.1373
    1W        W32623  18.915   2.328   1.405  0.0223 -0.0976 -0.1670
    1W        W32624  12.859   1.848   9.617  0.0255 -0.0554 -0.0573
    1W        W32625  28.034   9.449   7.863  0.0222 -0.0686 -0.2748
    1W        W32626   3.722  20.300   2.674  0.0807 -0.0954 -0.0998
    1W        W32627  25.936  12.186   1.409 -0.1029  0.0624 -0.3154
    1W        W32628  15.737   5.657   9.478 -0.2349 -0.2598 -0.2770
    1W        W32629  21.486  22.325   8.942 -0.3163 -0.0094 -0.0835
    1W        W32630  11.985  14.866   2.790 -0.0515 -0.2217  0.1252
    1W        W32631  25.304  15.396   2.476 -0.2984 -0.0294  0.0791
    1W        W32632  22.013  28.128   0.321 -0.1599 -0.2348 -0.1176
    1W        W32633  27.426   6.471   2.260  0.2854  0.0957  0.0111
    1W        W32634  20.225  22.825   8.478 -0.0093  0.2478  0.1302
    1W        W32635  23.221  24.256   9.225  0.3065  0.0127  0.2737
    1W        W32636   0.897  13.348   2.933 -0.0984 -0.1816 -0.0296
    1W        W32637  14.270   5.115   5.965 -0.1048 -0.0562  0.1094
    1W        W32638   4.958   0.138   9.585 -0.2558  0.0003 -0.2540
    1W        W32639  28.195  11.222   1.682 -0.2756 -0.0602  0.1157
    1W        W32640  16.891  20.392   1.936  0.0860 -0.0870 -0.0849
    1W        W32641   7.817   8.354   7.137 -0.4191 -0.0520  0.3348
    1W        W32642  28.116  26.166   4.020  0.0337 -0.2646 -0.1432
    1W        W32643   0.865  21.116   8.746 -0.0622  0.3945 -0.3138
    1W        W32644  12.983  10.934   5.630 -0.0431 -0.3985  0.0527
    1W        W32645   7.900  28.414   9.834 -0.0765 -0.2506  0.3684
    1W        W32646  16.872  19.594   9.176  0.1552  0.0102  0.0881
    1W        W32647  10.593  14.197   0.176  0.2850  0.0486 -0.1227
    1W        W32648   1.198   9.862   3.059  0.0376  0.1315  0.0584
    1W        W32649   8.680  25.424   2.336 -0.0765 -0.0268 -0.2105
    1W        W32650   8.068  23.041   9.320 -0.1114  0.2476  0.1992
    1W        W32651   0.774  24.585   1.862 -0.0220 -0.2113  0.1715
    1W        W32652  23.792  19.449   9.627  0.0883 -0.3936 -0.1072
    1W        W32653   4.616  28.234   9.287  0.0009  0.0480 -0.0354
    1W        W32654  22.302  18.190   9.354 -0.0682 -0.3027  0.2153
    1W        W32655   2.417  21.272   0.520  0.1337  0.0294 -0.1165
    1W        W32656  12.180  24.889   8.891  0.2327  0.1875 -0.0904
    1W        W32657  14.118   2.984   9.544  0.0493  0.0109 -0.3741
    1W        W32658  18.695  27.152   1.684  0.0469  0.0700 -0.2842
    1W        W32659  27.300  26.624   8.375 -0.0464 -0.0100 -0.3636
    1W        W32660   1.519   0.163   9.377 -0.3132  0.0366 -0.0670
    1W        W32661  11.285  17.243   9.974 -0.0282  0.1933 -0.1055
    1W        W32662   7.473  11.690   0.202  0.2154 -0.2109  0.3415
    1W        W32663   0.795  25.043   1.429  0.5037 -0.1119 -0.0339
    1W        W32664   3.628   9.877   2.276 -0.0390  0.4462  0.0676
    1W        W32665  19.027  23.121   7.291 -0.4324  0.0815 -0.0215
    1W        W32666   3.842   4.062   1.330  0.1368 -0.0487 -0.1484
    1W        W32667  12.648   3.393   2.433 -0.1039  0.0809 -0.0271
    1W        W32668   2.266   7.946   1.847 -0.1780 -0.2020  0.0218
    1W        W32669  19.833   3.296   0.521 -0.0048  0.2642  0.0156
    1W        W32670   8.432  10.450   9.279 -0.2266  0.0375  0.1246
    1W        W32671  22.462   5.851   7.211 -0.2322  0.0759 -0.0516
    1W        W32672  24.664  13.803   0.296 -0.2112  0.1434  0.1346
    1W        W32673  14.639   4.180   7.068  0.1281  0.0998 -0.1429
    1W        W32674  23.238  26.084   0.965 -0.1077 -0.2748  0.0116
    1W        W32675  25.281   9.060   0.860  0.0095  0.0149 -0.2683
    1W        W32676  23.129   3.193   8.003 -0.0726  0.2520  0.0022
    1W        W32677  10.770   2.073   7.484  0.1481  0.1463  0.1350
    1W        W32678   6.785  15.624   9.125  0.2898  0.0897  0.1452
    1W        W32679   7.663  13.663   2.052  0.1547  0.1286 -0.0287
    1W        W32680  26.682   9.023   2.446  0.2441 -0.0097 -0.1256
    1W        W32681   9.521  28.187   8.394  0.1316 -0.1095 -0.0217
    1W        W32682   7.764  11.973   9.921 -0.0125 -0.3108 -0.2920
    1W        W32683  24.368  13.874   3.368 -0.0275  0.0065  0.0639
    1W        W32684   0.463  13.851   3.591 -0.3568 -0.0850  0.0137
    1W        W32685  24.046   9.419   8.627 -0.1730  0.0064 -0.1853
    1W        W32686   7.630  12.947   6.664 -0.0591  0.3012 -0.4535
    1W        W32687   8.079  21.508   2.007 -0.0062  0.1598 -0.0076
    1W        W32688  19.540   1.366   2.217 -0.0453  0.2312 -0.1544
    1W        W32689   9.703  23.228   7.738  0.2048 -0.0104 -0.2955
    1W        W32690  20.932  10.345   7.706  0.0355  0.0326  0.0087
    1W        W32691  20.742  25.474   7.277  0.0703 -0.0576  0.0312
    1W        W32692  19.029  19.018   6.418 -0.1844  0.0867 -0.0203
    1W        W32693   7.437   0.310   9.991  0.2003  0.0386  0.0483
    1W        W32694  10.914  15.023   5.651 -0.1771  0.0127 -0.3498
    1W        W32695   4.645  12.210   7.591  0.0456  0.3474 -0.2170
    1W        W32696   2.597  20.687   9.478  0.1246  0.0780 -0.3561
    1W        W32697  10.059  14.806   6.737  0.2017 -0.1597 -0.1212
    1W        W32698   2.883  24.222   9.085  0.0444 -0.0497  0.0165
    1W        W32699   5.763  23.724   8.915 -0.0544 -0.1742  0.0426
    1W        W32700  23.041  10.483   8.743 -0.0239  0.0449 -0.0423
    1W        W32701  28.649  20.680   0.991 -0.0524  0.1458 -0.3211
    1W        W32702  13.247  27.250   8.795  0.3159 -0.1708  0.1758
    1W        W32703   7.591  28.400   9.411  0.2158  0.2751 -0.1780
    1W        W32704   5.995  18.836   8.897 -0.1108 -0.0052  0.0289
    1W        W32705  24.721  16.722   9.850  0.0725  0.2678  0.3297
    1W        W32706   0.432   5.556   0.017 -0.0314  0.3096 -0.1542
    1W        W32707  26.017  18.015   3.880  0.2617 -0.0633  0.0436
    1W        W32708  28.675   4.600   1.579 -0.0365 -0.0212  0.0371
    1W        W32709  25.544  28.794   0.113 -0.3199 -0.1311  0.1499
    1W        W32710  27.655  22.609   1.471 -0.0380  0.0451 -0.0651
    1W        W32711  14.952   5.453   8.723  0.2029  0.1481 -0.1505
    1W        W32712  27.937   7.173   3.872 -0.3252  0.0089 -0.0066
    1W        W32713  14.959   4.666   8.107  0.1407  0.0575 -0.1242
    1W        W32714  26.153  14.788   8.614  0.1824 -0.5889 -0.0876
    1W        W32715  27.726   8.259   1.586  0.3654 -0.0715 -0.1067
    1W        W32716   8.170  22.198   0.895  0.2309  0.0481 -0.0373
    1W        W32717  20.161  11.923   0.773 -0.0274  0.0218 -0.0342
    1W        W32718  24.460  24.358   9.227 -0.0008  0.0625 -0.0829
    1W        W32719  11.885  20.728   8.541 -0.1088  0.0787 -0.1834
    1W        W32720  16.930   1.838   7.806 -0.0767  0.1194 -0.2781
    1W        W32721  25.770  18.254   0.386 -0.0167  0.1306  0.0370
    1W        W32722  13.487  12.213   7.491 -0.0218  0.1593  0.3568
    1W        W32723  23.425   4.430   0.223 -0.0600 -0.1528 -0.2271
    1W        W32724   0.565   3.338   8.419 -0.2991  0.0724  0.2254
    1W        W32725  20.988   7.270   1.620 -0.0508 -0.0876 -0.0935
    1W        W32726  15.504   7.013   6.740 -0.0380  0.0872  0.2349
    1W        W32727   1.215   2.236   9.005  0.0209  0.0591 -0.0217
    1W        W32728  26.484  24.592   9.535  0.3217  0.1635  0.1533
    1W        W32729   0.456   5.776   9.386 -0.1260 -0.2977  0.0438
    1W        W32730  25.137  13.735   9.970 -0.0974  0.1310 -0.1583
    1W        W32731  17.124  18.527   7.206 -0.0663 -0.0064 -0.1714
    1W        W32732  12.538  23.954   1.128  0.0788 -0.0500  0.1655
    1W        W32733   9.074  13.575   8.312 -0.2092 -0.1913  0.2222
    1W        W32734   5.555  16.802   1.732  0.0100  0.1005  0.1593
    1W        W32735  22.722   1.301   9.214  0.0304 -0.0704 -0.2210
    1W        W32736  15.349   9.851   6.884 -0.2124  0.2285 -0.0697
    1W        W32737  23.422   5.584   1.170  0.0779 -0.2654  0.0638
    1W        W32738  16.781   0.359   9.382  0.0271  0.1388  0.2026
    1W        W32739   6.504  11.742   9.529  0.2268 -0.0528  0.0392
    1W        W32740  18.743   9.581   1.931  0.0247 -0.1001 -0.1677
    1W        W32741  27.288  26.515   7.879  0.1197  0.2260 -0.1067
    1W        W32742  25.342  15.910   1.623 -0.1247 -0.0459 -0.2222
    1W        W32743   9.790  14.158   9.940 -0.1760  0.1597 -0.1784
    1W        W32744   7.076  14.520   6.901  0.1429 -0.0313 -0.0366
    1W        W32745  23.624   6.720   1.696  0.1985  0.0486  0.1518
    1W        W32746   9.194   6.805   8.144 -0.1883  0.2165  0.0126
    1W        W32747  27.221  19.008   8.565  0.3211  0.2524  0.0769
    1W        W32748  12.172  26.576   6.889  0.1005  0.2140 -0.1097
    1W        W32749  11.166   3.172   6.110 -0.1601  0.1637 -0.1249
    1W        W32750  13.632  16.692   0.646 -0.1904 -0.2099 -0.1995
    1W        W32751  16.695   9.890   9.652 -0.3337 -0.2323 -0.1360
    1W        W32752  28.093  27.900   3.283 -0.1018 -0.0995  0.1066
    1W        W32753  12.818  24.211   2.162 -0.0104  0.0269  0.1292
    1W        W32754   3.459   3.686   1.173  0.3480  0.2142  0.1609
    1W        W32755  10.269  27.665   2.979 -0.1158 -0.2075 -0.2166
    1W        W32756  13.792  20.836   8.940 -0.0173  0.2558 -0.2399
    1W        W32757   4.487   8.939   3.567  0.0336  0.0688  0.1143
    1W        W32758   5.006  18.734   7.761  0.0392 -0.1435  0.2511
    1W        W32759  21.210  10.744   7.382  0.2132  0.2443  0.1541
    1W        W32760  12.141  21.114   0.879  0.1884 -0.1966 -0.2283
    1W        W32761   7.463  25.544   7.622 -0.1104 -0.1248 -0.1951
    1W        W32762  27.899  15.166   0.047  0.0987 -0.1689  0.3585
    1W        W32763  25.019   3.868   2.741  0.0652  0.1562 -0.1332
    1W        W32764  10.645  24.281   8.202 -0.0561 -0.2470  0.1031
    1W        W32765   0.869   0.398   3.026 -0.4854 -0.0433  0.0204
    1W        W32766  22.120  26.861   3.458 -0.1916  0.0080 -0.0989
    1W        W32767  28.865  24.622   9.322  0.2182  0.1031 -0.0207
    1W        W32768  20.866  27.016   2.134  0.1508  0.1533  0.0890
    1W        W32769  26.008  17.627   2.606  0.0377 -0.2660  0.1853
    1W        W32770   5.895   9.673   7.201 -0.2163  0.1356 -0.0323
    1W        W32771   7.726   4.362   2.318 -0.0440 -0.2212  0.1394
    1W        W32772   4.394  26.391   3.250 -0.2920  0.0131 -0.1857
    1W        W32773   5.986   3.211   1.938 -0.0901 -0.0522 -0.1823
    1W        W32774  16.530  11.010   6.582 -0.3292  0.3306 -0.0007
    1W        W32775  27.538  16.080   9.906  0.3086 -0.1476  0.0253
    1W        W32776  14.289  20.737   7.609  0.0265 -0.1545 -0.1402
    1W        W32777  17.727  23.940   1.651 -0.0712  0.4775 -0.0765
    1W        W32778   1.236  25.093   1.148 -0.0444  0.1030 -0.1812
    1W        W32779  15.922  19.290   7.184  0.2300  0.0555  0.0104
    1W        W32780   7.579  12.031   1.605 -0.1206 -0.2803  0.2179
    1W        W32781   1.586  14.794   1.225 -0.1478  0.0070 -0.2415
    1W        W32782  23.606   5.000   9.758 -0.2708  0.1075 -0.2879
    1W        W32783   7.299  28.842   0.300  0.0706  0.1075  0.0150
    1W        W32784  23.839  12.569   9.046  0.0376 -0.0239  0.0596
    1W        W32785  15.161   9.880   8.555  0.0779 -0.0620  0.2089
    1W        W32786   5.009  22.917   9.146 -0.2431  0.0090 -0.1188
    1W        W32787   5.166  22.652   7.592  0.1575  0.0269  0.3040
    1W        W32788  10.030  13.696   8.513  0.3240  0.1153  0.1589
    1W        W32789  28.781  25.393   4.349 -0.2288  0.1186 -0.1455
    1W        W32790  26.033  28.472   1.785  0.0075  0.3822  0.2156
    1W        W32791   0.507  13.008   8.124 -0.0625  0.2738  0.0653
    1W        W32792  12.317  24.254   0.793  0.2025  0.3147  0.0789
    1W        W32793   1.331   1.067   2.058 -0.3251 -0.1640 -0.0881
    1W        W32794  26.744  15.758   3.608  0.2229 -0.0105 -0.3390
    1W        W32795   0.945  11.970   8.200 -0.0692 -0.3818 -0.0659
    1W        W32796  22.745  10.864   0.119  0.1459 -0.1460  0.2260
    1W        W32797  28.821   5.952   3.643  0.0206  0.1646  0.0685
    1W        W32798   1.447  19.426   3.353  0.3142 -0.0782 -0.0868
    1W        W32799  28.466  13.806   9.563 -0.2281  0.0345 -0.1778
    1W        W32800   0.894   7.286   1.004  0.1234  0.1722  0.3014
    1W        W32801  25.960  24.590   0.982  0.0289  0.1427 -0.0601
    1W        W32802   7.641  17.502   8.931 -0.0886 -0.2311  0.0959
    1W        W32803  14.380  21.492   8.022 -0.0065  0.0772  0.1326
    1W        W32804   5.131   4.244   2.037  0.0560  0.1235 -0.4134
    1W        W32805  25.570   0.428   0.160  0.0344 -0.0428 -0.1264
    1W        W32806   5.522  11.024   2.105 -0.2149 -0.2263 -0.4757
    1W        W32807  19.973  10.643   7.629  0.2972  0.3128 -0.0418
    1W        W32808  21.782  22.148   8.061  0.0994 -0.4046  0.0215
    1W        W32809   3.506   4.890   2.303  0.1028  0.1930  0.1310
    1W        W32810  27.879   0.937   1.349 -0.0832  0.1219  0.1143
    1W        W32811   4.695  10.083   9.125  0.2756 -0.0050 -0.2787
    1W        W32812  18.022   5.333   6.222  0.0224  0.0900 -0.1184
    1W        W32813  26.270  23.242   0.745  0.3155  0.1541  0.0572
    1W        W32814  20.404   2.440   9.084 -0.0318 -0.2161 -0.0037
    1W        W32815   3.948  16.051   2.335 -0.1597 -0.3401 -0.0714
    1W        W32816  21.810   1.924   3.148  0.2448  0.0216  0.1282
    1W        W32817  13.231   8.439   2.121  0.1094 -0.0294  0.1798
    1W        W32818  18.815  28.437   1.859 -0.0930 -0.1948 -0.0566
    1W        W32819  18.500  25.583   9.484  0.0819 -0.1388 -0.0669
    1W        W32820  26.958   9.603   3.788  0.0385  0.1754  0.0114
    1W        W32821  28.661   4.491   3.950  0.2163 -0.1572 -0.0478
    1W        W32822   9.829  14.537   6.374 -0.2140 -0.1878 -0.2765
    1W        W32823  17.793  17.176   0.146 -0.2548  0.0947 -0.0354
    1W        W32824  22.818  16.819   1.939 -0.0351  0.0830  0.0769
    1W        W32825  10.083  27.417   7.364  0.0185 -0.3959 -0.0723
    1W        W32826   8.247  22.251   9.501 -0.1140 -0.3421 -0.4097
    1W        W32827   8.880  28.046   1.626 -0.0153  0.0817 -0.0024
    1W        W32828   6.680  24.156   2.963 -0.1118 -0.4144 -0.0757
    1W        W32829  27.235   8.727   3.297 -0.2807 -0.1763  0.0391
    1W        W32830  11.667  28.093   0.037  0.1270 -0.1903 -0.2721
    1W        W32831  10.019  25.253   7.047 -0.0282 -0.1875 -0.5090
    1W        W32832   8.710  14.519   2.205 -0.0418  0.0951 -0.3900
    1W        W32833   0.527  14.027   7.116 -0.2488  0.0386  0.0375
    1W        W32834  22.803  14.751   7.979 -0.0138  0.0002  0.4369
    1W        W32835   4.430  11.049   7.105 -0.1526  0.3035  0.0994
    1W        W32836  24.695  25.464   9.389 -0.0988 -0.1877  0.0063
    1W        W32837  19.781  25.435   7.253  0.1253 -0.0333  0.2000
    1W        W32838   5.015  26.918   8.111 -0.0240  0.0654  0.0040
    1W        W32839  14.321  24.881   7.540 -0.4531  0.1842 -0.1345
    1W        W32840  22.563   2.897   1.865 -0.0322  0.0253  0.3437
    1W        W32841   2.804   8.501   2.507  0.0646 -0.0225  0.0892
    1W        W32842  15.370  20.205   7.564 -0.0621 -0.0913  0.1531
    1W        W32843  27.411  24.591   2.531 -0.1838 -0.1416 -0.0595
    1W        W32844   3.750   7.578   2.365  0.0746 -0.1111  0.0865
    1W        W32845   4.402  18.441   2.897  0.4348 -0.1250 -0.0833
    1W        W32846   4.832   7.600   9.666  0.0124 -0.1952  0.3267
    1W        W32847  10.786   3.283   2.820 -0.1108 -0.2482  0.2104
    1W        W32848  28.397   1.550   2.288 -0.0584  0.1769  0.1625
    1W        W32849  26.704   3.473   9.643 -0.1526 -0.1097 -0.1157
    1W        W32850  23.250  18.523   8.529  0.0111  0.1560  0.1466
    1W        W32851   0.191  26.806   0.123  0.0405  0.1211 -0.1666
    1W        W32852  11.835   6.921   0.984  0.1819  0.2014 -0.0087
    1W        W32853  27.346   4.611   3.774  0.2421  0.1541 -0.0038
    1W        W32854  25.397  12.567   9.368  0.0808  0.1267 -0.1848
    1W        W32855   8.592  27.014   3.681 -0.2852 -0.2409  0.1596
    1W        W32856   3.613  15.797   2.074 -0.0509 -0.0478 -0.0973
    1W        W32857  12.394  15.826   8.527  0.2728 -0.0772 -0.1323
    1W        W32858  20.059  26.394   1.857  0.0014 -0.0586 -0.1819
    1W        W32859  21.861  23.450   1.846  0.2834  0.0839 -0.1161
    1W        W32860   2.103  22.922   9.685 -0.1344 -0.0931  0.2308
    1W        W32861  11.517  26.101   1.168 -0.0277 -0.1907  0.1515
    1W        W32862   0.977  23.045   8.981  0.1118  0.1677 -0.1707
    1W        W32863   3.150  11.008   0.225  0.2533 -0.1194 -0.0607
    1W        W32864  10.104   0.573   7.621 -0.2302  0.0724 -0.4406
    1W        W32865   1.721   4.157   8.377  0.1482 -0.0255  0.1915
    1W        W32866  12.072  12.741   8.600  0.1209 -0.1585  0.0131
    1W        W32867  18.413  13.855   1.425  0.1500 -0.1146 -0.0706
    1W        W32868  10.677  24.877   1.413 -0.1307  0.0198  0.0578
    1W        W32869  15.917   4.946   6.045 -0.3633  0.0869  0.4193
    1W        W32870  15.761  13.187   0.885 -0.1605 -0.1354 -0.0311
    1W        W32871  10.508  24.244   7.292  0.4319 -0.0269 -0.1268
    1W        W32872   0.663   2.652   9.792  0.1924 -0.2046  0.1845
    1W        W32873   2.344   4.658   8.958  0.2221  0.1281 -0.0028
    1W        W32874  26.332  26.963   4.219  0.3031  0.3624 -0.1129
    1W        W32875  21.714  20.931   7.239 -0.1178 -0.0690 -0.2587
    1W        W32876  27.040   8.052   8.598  0.0848 -0.0203 -0.2002
    1W        W32877  11.334  20.692   8.654  0.0517 -0.0410 -0.0789
    1W        W32878  23.169   0.469   0.411  0.0955 -0.0572  0.0009
    1W        W32879  16.565  11.610   1.389 -0.0290 -0.3193  0.0344
    1W        W32880  27.664   5.263   3.516  0.3374  0.0075 -0.0559
    1W        W32881   8.826  14.656   6.246  0.1122 -0.0752  0.0508
    1W        W32882   2.288  28.280   4.623  0.1620  0.3080  0.2586
    1W        W32883   7.078   7.139   0.850 -0.0996 -0.3014  0.1748
    1W        W32884  23.155  19.872   6.339  0.0609  0.0622 -0.3591
    1W        W32885  27.857  27.364   0.471 -0.0509  0.1770  0.1093
    1W        W32886   5.598   0.833   0.524 -0.0171  0.3230 -0.1172
    1W        W32887  10.000   4.088   8.178 -0.1537  0.3006 -0.0361
    1W        W32888   6.810  18.267   9.934  0.1972  0.0839 -0.1823
    1W        W32889  10.993  23.172   4.148 -0.1491  0.3395 -0.1362
    1W        W32890  15.381   0.593   1.857  0.0178  0.0342 -0.1604
    1W        W32891  21.613   7.947   6.923  0.2622  0.0601 -0.1086
    1W        W32892   4.440   7.721   8.939  0.3452  0.0294  0.2840
    1W        W32893  18.075  10.437   7.978 -0.0213  0.0445  0.2594
    1W        W32894   2.325  22.083   8.194  0.1482 -0.2266  0.0275
    1W        W32895  23.549  16.194   0.484 -0.3332  0.0281  0.0201
    1W        W32896  28.204   5.211   3.969  0.5514  0.3231 -0.0357
    1W        W32897  26.572   5.603   4.185 -0.0178  0.1161  0.2434
    1W        W32898  10.760   2.952   7.713 -0.1943  0.0840 -0.3004
    1W        W32899  27.140  23.112   1.318 -0.0350 -0.2175 -0.2414
    1W        W32900  14.539  27.255   9.062  0.0841  0.2029 -0.0156
    1W        W32901   4.139  15.819   7.990 -0.1632  0.0853 -0.1971
    1W        W32902  25.654  18.107   9.618 -0.0652 -0.0861  0.5501
    1W        W32903  16.635  12.816   2.029  0.2136 -0.1593 -0.2507
    1W        W32904   0.859  23.949   1.250 -0.1982 -0.0591  0.0782
    1W        W32905   6.381  21.162   2.668  0.0973  0.1282 -0.0135
    1W        W32906  22.683   4.110   0.198  0.0926  0.0003 -0.3963
    1W        W32907  26.657  12.820   2.527 -0.0990  0.0117 -0.3810
    1W        W32908   3.578  17.440   1.844 -0.0218  0.1416 -0.2151
    1W        W32909  21.802  15.403   6.998  0.0043  0.1351 -0.2992
    1W        W32910  21.312   2.767   9.641 -0.3088  0.2032 -0.2199
    1W        W32911  26.994   8.217   0.780 -0.1886  0.1792  0.0950
    1W        W32912   4.838  14.888   2.029 -0.1577 -0.3152 -0.1714
    1W        W32913  12.781   4.374   7.177 -0.2462  0.1608  0.3684
    1W        W32914  15.616  22.093   2.948 -0.3974 -0.3621  0.0516
    1W        W32915  18.211  23.816   9.297  0.2240  0.0873  0.0356
    1W        W32916   8.750  11.780   9.307  0.2529  0.2215 -0.2089
    1W        W32917  13.561   5.772   5.623 -0.0896  0.2479  0.2674
    1W        W32918  14.381  13.703   7.280  0.2481  0.2226  0.1183
    1W        W32919  20.772  21.132   9.844  0.1232  0.1437 -0.1567
    1W        W32920   5.907  22.400   2.081  0.0969  0.2014 -0.2607
    1W        W32921   7.782  16.959   2.026  0.0956 -0.1728  0.0362
    1W        W32922  21.060   2.271   3.106 -0.2099 -0.2684  0.2017
    1W        W32923  12.280  13.014   6.802  0.1345 -0.2074  0.3301
    1W        W32924   1.958  19.499   0.219  0.0234 -0.2284  0.2190
    1W        W32925   4.182  23.628   7.812 -0.0369 -0.0350 -0.0266
    1W        W32926   0.573  17.432   2.864 -0.0070  0.2901  0.0593
    1W        W32927  24.674  23.891   1.067 -0.1508 -0.1268 -0.1702
    1W        W32928  26.964   4.703   8.436 -0.0527  0.0236 -0.1403
    1W        W32929   4.268  11.788   0.163  0.2201  0.1078  0.3060
    1W        W32930   4.497   6.246   0.643 -0.0703  0.2900 -0.1909
    1W        W32931  28.358   2.265   2.945 -0.0531  0.1948  0.0164
    1W        W32932  17.579   0.857   1.358  0.1557 -0.1406 -0.0205
    1W        W32933   2.600  23.166   0.540 -0.1621 -0.2520 -0.0607
    1W        W32934   8.800  21.164   8.426  0.0281  0.3037 -0.0186
    1W        W32935  21.943  18.227   0.611 -0.1700  0.2102  0.2060
    1W        W32936   0.943  28.443   8.663 -0.0619 -0.0201  0.1948
    1W        W32937  11.817  18.220   7.210 -0.2820 -0.1437  0.4174
    1W        W32938  14.962  20.638   3.250  0.5335 -0.0702  0.1296
    1W        W32939   5.693  20.522   0.365 -0.1816 -0.1001  0.2474
    1W        W32940  11.649   5.036   2.243 -0.3788 -0.0694 -0.1838
    1W        W32941  16.164  12.072   1.755  0.0237  0.3005  0.3313
    1W        W32942  10.384   5.210   1.990  0.2952 -0.2600  0.4078
    1W        W32943   3.655  10.956   2.194  0.1643  0.1467  0.2576
    1W        W32944   0.922  17.919   7.757  0.0869 -0.0991 -0.1112
    1W        W32945   4.799  15.793   1.571 -0.1873  0.2430  0.1677
    1W        W32946  25.145   5.935   2.454 -0.0816 -0.1594  0.2759
    1W        W32947  14.074  23.907   7.680  0.3331 -0.2426 -0.0599
    1W        W32948   3.210  16.287   7.814 -0.0999 -0.1768  0.1793
    1W        W32949   3.682  24.637   1.055  0.1810  0.0116 -0.2900
    1W        W32950  26.285  15.544   8.398 -0.0331  0.2125  0.1296
    1W        W32951  18.743  27.777   2.284  0.3191 -0.0878 -0.0742
    1W        W32952  26.436  20.492   0.609 -0.0573 -0.0824 -0.2878
    1W        W32953  27.406  17.519   9.370 -0.0079  0.0664 -0.1039
    1W        W32954   1.510  27.616   2.603  0.4363 -0.3245  0.0559
    1W        W32955  24.803   3.090   2.272 -0.3053 -0.1133  0.3186
    1W        W32956   3.040  16.888   9.863 -0.2182 -0.0363 -0.0968
    1W        W32957   6.810  24.985   1.789  0.1147  0.2225 -0.0186
    1W        W32958  24.240  13.106   7.889 -0.0079  0.3034 -0.1489
    1W        W32959   8.543  14.420   1.133 -0.1170  0.2435 -0.2503
    1W        W32960  27.450  22.580   1.916 -0.0555  0.0260 -0.1229
    1W        W32961   3.188  19.483   9.804  0.1053  0.2018  0.2341
    1W        W32962   5.336  22.840   9.593  0.1595 -0.1814  0.0498
    1W        W32963  20.395   8.752   8.105  0.1140 -0.1744 -0.0491
    1W        W32964   8.545  22.280   9.899 -0.0215  0.0980 -0.0482
    1W        W32965  12.330  19.553   7.357  0.0754  0.3277 -0.1302
    1W        W32966  14.925  13.302   1.340 -0.2165 -0.0090 -0.1483
    1W        W32967  12.252   4.911   7.402  0.0397  0.0075 -0.1758
    1W        W32968  28.493  15.290   0.040 -0.1146 -0.0504 -0.1793
    1W        W32969  18.174  18.174   1.079  0.0373 -0.1082  0.0036
    1W        W32970  25.250  18.773   2.395 -0.2014 -0.2306  0.1400
    1W        W32971  25.150  18.049   7.486 -0.0063  0.1135 -0.1132
    1W        W32972  11.285   1.280   0.645 -0.2692 -0.0972  0.1364
    1W        W32973   5.287   0.136   9.131  0.2822  0.0621 -0.2227
    1W        W32974  14.820  20.841   2.801  0.0462 -0.0619  0.0374
    1W        W32975   5.034  18.439   9.498  0.0742 -0.1055  0.2372
    1W        W32976   3.959  21.456   7.382 -0.0145  0.3603  0.2586
    1W        W32977  24.222   2.443   9.472 -0.2198 -0.0913  0.0909
    1W        W32978   9.146  26.487   3.030  0.2524 -0.0245  0.1533
    1W        W32979  14.494   7.332   8.360 -0.0708 -0.0204  0.0516
    1W        W32980  23.965   3.401   7.785  0.2329 -0.2523 -0.0303
    1W        W32981   2.599   0.164   1.262  0.3879  0.1942  0.0140
    1W        W32982  19.897  27.033   8.959  0.2600 -0.1326 -0.0376
    1W        W32983   3.193  17.787   1.807 -0.2257  0.1464 -0.0683
    1W        W32984  27.967  17.417   8.883 -0.1305  0.1500 -0.1787
    1W        W32985  24.891  15.689   9.711  0.1679 -0.1207 -0.3470
    1W        W32986  10.078  22.941   9.579 -0.1273  0.1848  0.3541
    1W        W32987  16.524   4.117   7.908 -0.0542 -0.1165 -0.0527
    1W        W32988  13.071  12.330   9.775  0.0861 -0.1440  0.1057
    1W        W32989  21.395   7.455   7.123 -0.0904  0.1350 -0.2831
    1W        W32990  14.540  19.627   0.538 -0.2153  0.2577 -0.1805
    1W        W32991  15.434   0.607   1.052  0.1018  0.2960 -0.0200
    1W        W32992   0.624  11.166   8.634 -0.1845  0.3679  0.0707
    1W        W32993   9.938  11.410   7.824  0.1506  0.1277  0.0267
    1W        W32994   9.352   0.380   9.084  0.0039 -0.1152  0.0994
    1W        W32995  22.275  15.412   6.844 -0.3286  0.0781 -0.2160
    1W        W32996   2.439  22.214   0.948 -0.0103 -0.0090  0.0648
    1W        W32997   2.134  24.586   2.072 -0.2533 -0.2182 -0.2202
    1W        W32998   9.333  14.667   7.630  0.1791 -0.0946 -0.1842
    1W        W32999  11.633  11.712   6.733  0.1645 -0.0669 -0.2850
    1W        W33000  14.023  17.176   8.728  0.2415 -0.2701  0.0193
    1W        W33001   0.177  28.004   0.337 -0.1318 -0.1485  0.1434
    1W        W33002   9.972   6.057   7.382  0.6521  0.0975 -0.1227
    1W        W33003  12.428  12.716   9.003  0.0409 -0.0896  0.3053
    1W        W33004  27.490  22.351   8.639  0.0814  0.0220  0.0107
    1W        W33005   2.018   4.635   4.104 -0.3304  0.0146 -0.1380
    1W        W33006  20.470  19.974   0.886 -0.1037  0.1826  0.0061
    1W        W33007  21.354  12.590   7.502 -0.1978  0.1541 -0.3518
    1W        W33008  17.743  19.422   2.274 -0.2706  0.2469 -0.1466
    1W        W33009  26.015   6.456   2.878  0.3581  0.1876  0.2185
    1W        W33010  17.161   2.532   0.879  0.2135 -0.0016 -0.0075
    1W        W33011  25.376  14.131   7.815 -0.4804  0.0523 -0.2907
    1W        W33012  27.341  17.324   1.327 -0.1964  0.0890 -0.2035
    1W        W33013  12.452  15.132   2.904 -0.0708 -0.1886 -0.5592
    1W        W33014  16.617  22.095   9.597 -0.2653 -0.2734  0.0337
    1W        W33015  28.507  17.885   4.075 -0.0553  0.0738  0.2061
    1W        W33016   3.729  24.146   1.205  0.1374  0.1613 -0.3432
    1W        W33017  14.367   4.240   0.306 -0.2061  0.0020 -0.1655
    1W        W33018   2.765  26.041   0.635  0.1418 -0.0053  0.3366
    1W        W33019   9.002   5.434   9.342 -0.0768 -0.1314 -0.1822
    1W        W33020  13.233  19.649   7.943  0.0901 -0.2246 -0.2340
    1W        W33021  12.736   6.869   8.941  0.0822  0.1501 -0.1036
    1W        W33022  18.965  27.155   9.789  0.0635  0.1394  0.0802
    1W        W33023  19.237  26.736   7.854 -0.0389  0.3360  0.1497
    1W        W33024  24.949  14.777   1.385 -0.1677  0.0588 -0.1729
    1W        W33025  19.552   1.933   0.369  0.2572 -0.0612  0.0965
    1W        W33026  20.430  17.918   9.440  0.5085  0.0996  0.0527
    1W        W33027   1.324  23.960   2.106 -0.1290 -0.2870  0.3093
    1W        W33028   4.384   6.548   1.572 -0.3001  0.0850  0.0964
    1W        W33029  20.168  12.129   7.390 -0.2201 -0.2326  0.1316
    1W        W33030   3.916   3.427   1.270  0.0593 -0.4674 -0.0925
    1W        W33031   6.922  24.796   3.662  0.0632  0.2756  0.0452
    1W        W33032  19.317   0.550   1.172 -0.0304 -0.0586  0.2620
    1W        W33033  22.594   2.597   2.238 -0.1937 -0.2929  0.2080
    1W        W33034   5.401   6.330   2.514  0.0157 -0.1690 -0.0609
    1W        W33035   1.398  25.624   3.560 -0.1606  0.0789 -0.3754
    1W        W33036  17.418  19.964   0.360  0.2632 -0.1116  0.2353
    1W        W33037  14.052  20.917   6.368 -0.0257 -0.0306  0.1461
    1W        W33038  12.597   8.121   6.264  0.2275  0.0418 -0.2355
    1W        W33039   8.891  24.224   2.248  0.0932  0.1041 -0.1280
    1W        W33040  24.603  18.840   2.453 -0.0647  0.1857  0.2144
    1W        W33041   4.069  18.849   3.760  0.2232 -0.2344  0.1226
    1W        W33042  25.899   2.549   9.245  0.0660 -0.1778  0.0346
    1W        W33043  18.695   6.313   0.413 -0.3496 -0.1098 -0.1655
    1W        W33044   4.763  10.876   0.960  0.0150  0.4522 -0.3487
    1W        W33045  20.546  12.258   0.173 -0.0817 -0.0194 -0.1220
    1W        W33046  18.778  27.561   0.865  0.0927  0.1532 -0.2353
    1W        W33047   9.930  13.071   7.247 -0.0016  0.1062  0.0890
    1W        W33048  18.518   4.611   7.765 -0.4296  0.0779  0.3606
    1W        W33049  19.188  14.386   0.854  0.2003  0.1491  0.1842
    1W        W33050  13.779  12.520   6.032 -0.1381  0.3444 -0.2563
    1W        W33051  27.530  13.044   4.197  0.2402 -0.2382 -0.1875
    1W        W33052  16.159   5.938   6.501 -0.0489  0.2098 -0.0502
    1W        W33053  10.939  16.444   9.970  0.4703  0.2601 -0.1283
    1W        W33054  23.238   5.065   2.532  0.0646 -0.3489  0.0309
    1W        W33055   2.584  23.343   2.482 -0.0074 -0.1557  0.1154
    1W        W33056   3.058   8.880   9.118 -0.1295  0.1164  0.0616
    1W        W33057   0.263  18.102   3.265  0.2612  0.1791  0.2032
    1W        W33058  13.062   1.090   7.036 -0.0655 -0.0169 -0.0459
    1W        W33059  20.199  13.722   8.352  0.1211 -0.0941 -0.2670
    1W        W33060   4.838   0.745   0.792 -0.1918 -0.1206  0.0034
    1W        W33061  25.039   3.208   8.959  0.1841 -0.0628 -0.1901
    1W        W33062  21.441   3.625   2.167 -0.0671  0.0466 -0.0826
    1W        W33063  22.110   8.661   9.851  0.4304  0.1785  0.0446
    1W        W33064  20.553  20.539   8.051 -0.2029 -0.2175 -0.1535
    1W        W33065  15.058   8.974   1.705 -0.0603  0.0152  0.0529
    1W        W33066  28.146  13.610   6.987 -0.0045 -0.1766 -0.1974
    1W        W33067  16.191  18.512   7.222  0.3438 -0.2024  0.1052
    1W        W33068  13.904  25.291   0.534 -0.1886  0.0176  0.0285
    1W        W33069  19.929   1.511   8.478  0.0312  0.0557 -0.0672
    1W        W33070   8.131  10.112   1.140  0.1164 -0.0087 -0.1555
    1W        W33071  21.313   7.089   6.821  0.0196 -0.0137 -0.0249
    1W        W33072  27.028  25.398   2.125 -0.0336  0.0115  0.2024
    1W        W33073  26.116   7.535   9.534 -0.0929  0.2747  0.0472
    1W        W33074  20.290  23.544   1.489 -0.4066 -0.2821 -0.2422
    1W        W33075  24.311   3.489   9.639  0.0460  0.2940  0.2447
    1W        W33076  27.260   4.122   3.916  0.1345  0.3515 -0.0250
    1W        W33077  12.068  20.844   9.428  0.1661  0.0557 -0.2065
    1W        W33078   9.016  12.355   0.325  0.1629 -0.0418  0.1130
    1W        W33079   3.499   7.389   2.805 -0.0868 -0.0507 -0.0108
    1W        W33080   3.364  14.759   3.303  0.0374  0.2670 -0.0034
    1W        W33081   1.843  13.755   1.537 -0.0873 -0.3358  0.1065
    1W        W33082  13.497   3.061   0.378 -0.0545 -0.1366 -0.2192
    1W        W33083  17.829   9.585   9.932 -0.0483  0.1572  0.2924
    1W        W33084  25.026  16.906   8.486 -0.1134 -0.3579 -0.0876
    1W        W33085   3.962  10.470   0.150 -0.1507  0.2982 -0.2138
    1W        W33086  15.528  11.409   8.126  0.1744  0.3100 -0.2032
    1W        W33087  25.679   8.386   1.753 -0.1281 -0.2421 -0.1940
    1W        W33088   3.483   4.403   8.813 -0.1079 -0.2913 -0.1066
    1W        W33089   0.232  23.555   1.604 -0.0233 -0.1738  0.1230
    1W        W33090  15.025   5.217   8.181  0.4829 -0.0640  0.0610
    1W        W33091   9.403  17.773   9.797  0.1191  0.1244 -0.0680
    1W        W33092   0.211   8.040   1.929 -0.1118  0.1700 -0.3470
    1W        W33093  22.875  10.927   7.942 -0.0822 -0.0641  0.3195
    1W        W33094  23.049  22.212   8.668  0.1097 -0.4026  0.0603
    1W        W33095  21.257  15.526   8.195 -0.0721 -0.0261 -0.0330
    1W        W33096  12.264  15.224   8.999 -0.2755 -0.3819  0.2591
    1W        W33097  19.330  19.722   0.584 -0.1628  0.0051 -0.0441
    1W        W33098  25.872   4.954   2.954  0.0637  0.0258  0.1901
    1W        W33099   9.737  13.771   8.952 -0.0073 -0.0893  0.2265
    1W        W33100  28.805   4.386   4.665 -0.1913  0.1500  0.2465
    1W        W33101  13.961  28.520   2.548 -0.4141 -0.1092 -0.3287
    1W        W33102  17.238  10.661   6.346  0.1576  0.0638  0.0737
    1W        W33103   9.279  25.985   0.884  0.0731  0.2339  0.0008
    1W        W33104  16.490  25.549   9.153  0.0213 -0.3219  0.1253
    1W        W33105   4.257  20.804   0.281 -0.0833 -0.2766 -0.3152
    1W        W33106  28.366  19.516   8.410 -0.3702  0.0317  0.0566
    1W        W33107  19.547  23.966   0.293  0.1481 -0.4741  0.1140
    1W        W33108   9.674   8.736   0.741 -0.1007  0.0616 -0.1399
    1W        W33109  17.113  26.202   6.863 -0.3087 -0.0450  0.0474
    1W        W33110   9.882  20.677   0.037  0.1099  0.5359 -0.1869
    1W        W33111   6.050  13.550   2.256 -0.1696  0.1194  0.1372
    1W        W33112  14.769   6.606   6.911  0.0195 -0.0823 -0.1676
    1W        W33113   5.160  27.435   0.071  0.4598  0.1635  0.5527
    1W        W33114   7.539  24.952   8.906 -0.1300  0.0457  0.1036
    1W        W33115   5.999  22.410   2.592  0.0593 -0.0647 -0.1138
    1W        W33116  14.025   9.979   0.425  0.0087  0.3701 -0.0387
    1W        W33117   9.672   7.491   8.232 -0.3305 -0.0292  0.0901
    1W        W33118  22.748  28.512   7.836 -0.1793  0.3237  0.0633
    1W        W33119  18.001   6.321   0.998  0.1857  0.2784  0.1442
    1W        W33120   5.438  26.239   1.018  0.3039 -0.3440 -0.1029
    1W        W33121  20.866   8.868   0.738  0.1061  0.0917  0.0265
    1W        W33122   7.228  18.628   2.739 -0.0469 -0.0753 -0.1679
    1W        W33123   7.572  15.184   8.174  0.1781  0.1436 -0.0425
    1W        W33124   1.679   4.190   0.868 -0.1882  0.2629  0.1060
    1W        W33125   4.154  15.997   9.899  0.1342 -0.2872 -0.0621
    1W        W33126  20.463  25.778   0.803  0.1843  0.0004  0.2947
    1W        W33127  10.147  12.735   8.290 -0.3062  0.1224 -0.0092
    1W        W33128   7.276  25.224   4.107 -0.1179 -0.1594  0.0223
    1W        W33129  26.814   3.171   0.321 -0.1357  0.2898  0.4330
    1W        W33130  27.284   2.274   8.032 -0.3763 -0.0155 -0.1401
    1W        W33131  27.660   9.662   9.154 -0.0281 -0.2006 -0.1141
    1W        W33132   5.059  12.956   9.521  0.0123  0.0421  0.2857
    1W        W33133  20.271   3.972   1.962  0.1840  0.4864 -0.0247
    1W        W33134   5.356  24.121   7.664 -0.0062  0.1746 -0.0590
    1W        W33135   7.350  27.974   1.088  0.1742 -0.2617  0.1043
    1W        W33136  12.248   3.457   1.748 -0.4059  0.0922 -0.0105
    1W        W33137  18.279  13.546   8.087 -0.1161  0.2029  0.0440
    1W        W33138   4.624  25.009   0.829 -0.0337  0.0398 -0.3235
    1W        W33139   1.066   9.444   2.779  0.1059  0.2527  0.0842
    1W        W33140   6.193   9.044   0.991  0.0067 -0.1305  0.1650
    1W        W33141  22.064  25.435   9.426  0.1164  0.2112  0.0528
    1W        W33142   9.901  24.742   9.906  0.3601 -0.1684  0.1257
    1W        W33143  12.888  10.570   6.055 -0.0244  0.1670 -0.1315
    1W        W33144   3.519   2.271   0.399  0.1849 -0.0100 -0.2029
    1W        W33145  18.413  17.561   2.583  0.0351 -0.1795 -0.1863
    1W        W33146   6.408   5.133   7.312  0.2577  0.2198  0.2592
    1W        W33147   3.030   3.591   0.892 -0.1009  0.0073 -0.0108
    1W        W33148  15.587   3.143   9.163 -0.0514  0.3308 -0.3331
    1W        W33149  13.515  19.403   7.564 -0.0666  0.0119  0.2586
    1W        W33150  17.802  16.391   6.670  0.0065 -0.0527 -0.0273
    1W        W33151   4.043  27.403   9.186  0.2216  0.1611  0.1225
    1W        W33152  28.461  24.535   9.797  0.0786 -0.0609 -0.2002
    1W        W33153  13.972  22.808   1.926  0.0117 -0.0870  0.3702
    1W        W33154  10.024  23.521   3.573 -0.0281 -0.0340 -0.2996
    1W        W33155  28.601  11.331   9.969  0.3719 -0.0496 -0.0943
    1W        W33156  24.527   1.646   0.783  0.2981 -0.1454 -0.0850
    1W        W33157   8.960   7.050   7.712 -0.2105 -0.0214 -0.1256
    1W        W33158  12.331  22.456   8.581  0.0232  0.2259 -0.2431
    1W        W33159  10.716   0.508   8.422 -0.2715  0.1179  0.1488
    1W        W33160  28.431  24.316   9.179  0.1631 -0.1704  0.2431
    1W        W33161  23.256   2.956   7.168 -0.3716  0.1023 -0.1489
    1W        W33162  12.248  26.914   2.129 -0.0949 -0.2354 -0.0645
    1W        W33163  24.728   0.809   9.029 -0.1638  0.0287 -0.1257
    1W        W33164  20.297  16.385   8.844  0.2504  0.1039 -0.0081
    1W        W33165   4.926  15.448   9.586 -0.2812 -0.0453 -0.3686
    1W        W33166   6.073  10.717   7.099  0.2192 -0.0351 -0.1663
    1W        W33167  28.307  15.555   1.854  0.1410  0.1474  0.0377
    1W        W33168   2.136  25.596   2.207 -0.2970 -0.1180  0.2414
    1W        W33169  27.057   6.842   1.076 -0.4443  0.2356 -0.0068
    1W        W33170  28.472  17.885   8.721  0.1103  0.2296 -0.0468
    1W        W33171  25.541   2.528   0.735 -0.2842 -0.0908 -0.0604
    1W        W33172  26.907   7.763   2.997  0.0123 -0.0208 -0.3188
    1W        W33173  20.209   9.352   7.499  0.0377 -0.0343  0.0681
    1W        W33174  22.574  18.544   2.220  0.0440 -0.3887  0.2792
    1W        W33175  17.018   2.574   7.036 -0.1062 -0.2314 -0.0240
    1W        W33176  14.649  11.843   5.700 -0.1949 -0.0437 -0.3454
    1W        W33177  27.256  27.958   7.636 -0.2206  0.0291  0.0667
    1W        W33178  25.982  10.968   2.504  0.0673 -0.1043 -0.2151
    1W        W33179   3.334  22.693   0.408  0.0115  0.2081  0.0064
    1W        W33180  23.317   1.556   9.122  0.1166 -0.0049 -0.0578
    1W        W33181   7.090  23.433   2.618  0.0488  0.0121 -0.0040
    1W        W33182  13.865  25.576   6.975 -0.0354  0.2721  0.3845
    1W        W33183  22.700  25.033   0.402  0.1762  0.0053  0.0424
    1W        W33184   6.112  13.809   8.864 -0.1775 -0.3060 -0.2929
    1W        W33185  25.553  18.948   7.770 -0.0662 -0.2766 -0.0827
    1W        W33186  16.554  23.312   2.759 -0.2138 -0.3075 -0.2988
    1W        W33187  13.234  17.542   7.570 -0.0862 -0.0693 -0.1108
    1W        W33188   1.047  23.900   2.522  0.0179  0.0324 -0.0486
    1W        W33189   5.145   1.863   2.328  0.1242 -0.1799  0.0991
    1W        W33190  25.940  23.976   9.374  0.1503  0.1805 -0.1593
    1W        W33191   4.664   8.863   2.136 -0.1242  0.1755 -0.0295
    1W        W33192  11.564   5.776   9.227  0.2813  0.2573  0.0980
    1W        W33193  18.440  21.142   7.157  0.0773  0.2931 -0.2141
    1W        W33194  28.664  10.861   1.495 -0.0984  0.0849 -0.2557
    1W        W33195  10.100  10.731   0.414 -0.1512 -0.3917  0.3020
    1W        W33196  17.775  10.801   1.506  0.0061  0.0146  0.2274
    1W        W33197  24.828  19.182   9.794  0.0172  0.2292  0.0774
    1W        W33198  27.777   1.058   9.802  0.0787  0.1085  0.2359
    1W        W33199   6.061   0.377   4.422 -0.1730  0.0708  0.4010
    1W        W33200  20.143  23.156   9.396  0.0598  0.3391  0.0753
    1W        W33201  18.831   9.872   6.454  0.0084  0.2352  0.2291
    1W        W33202   7.330  19.151   8.711 -0.1591  0.2937  0.0323
    1W        W33203   5.975  13.006   3.150  0.0547  0.0107  0.0230
    1W        W33204   0.186  10.591   1.658 -0.3807  0.1286 -0.3184
    1W        W33205  10.733   3.954   9.264  0.0310  0.1807  0.1598
    1W        W33206   4.415  24.342   3.903 -0.1058  0.0017  0.3013
    1W        W33207  21.422   7.453   1.213 -0.0791  0.0575 -0.1164
    1W        W33208   8.211   7.635   1.212 -0.3580 -0.1592  0.0611
    1W        W33209   4.843  20.703   1.267  0.0975  0.1719  0.0176
    1W        W33210   8.710  26.258   3.019  0.0409  0.0745  0.0313
    1W        W33211   1.974  21.898   2.463 -0.2093 -0.0025  0.3365
    1W        W33212   8.748  18.183   1.933 -0.1762  0.0162 -0.1346
    1W        W33213  28.610  27.236   9.403  0.1538  0.0125  0.0116
    1W        W33214   2.040   8.010   9.558  0.2987 -0.1805 -0.0182
    1W        W33215   4.020   4.209   1.897 -0.4311  0.1283  0.2293
    1W        W33216   4.727  11.513   8.414 -0.0375  0.1781 -0.0087
    1W        W33217  28.138  23.270   1.733 -0.3180 -0.1065  0.0173
    1W        W33218   8.210  28.186   0.908 -0.2396 -0.0623 -0.3734
    1W        W33219   8.112   9.919   9.924 -0.0387 -0.1362  0.2773
    1W        W33220  16.696   8.867   8.545 -0.0226 -0.1033  0.0695
    1W        W33221  28.621  10.804   2.002 -0.0442  0.1914  0.2142
    1W        W33222  14.074   4.176   8.710  0.0827 -0.1594  0.0044
    1W        W33223  15.684   0.043   7.976  0.2922 -0.3919  0.0658
    1W        W33224  21.605   7.944   1.454 -0.2155 -0.2514  0.0526
    1W        W33225   2.610  11.770   8.791 -0.0159 -0.1814  0.2491
    1W        W33226   8.293   8.682   6.333  0.1495  0.3648 -0.2362
    1W        W33227  26.453   7.614   0.784  0.0420 -0.0866  0.0765
    1W        W33228  11.728   0.629   6.917  0.0935 -0.0710 -0.1175
    1W        W33229   1.355  28.018   9.486  0.0801  0.0615 -0.1550
    1W        W33230  20.762   5.004   8.841 -0.1564  0.1302  0.1429
    1W        W33231  17.943   8.542   8.452 -0.1910 -0.0125  0.1273
    1W        W33232   1.974  23.910   0.280 -0.3010  0.0428  0.1583
    1W        W33233  11.544  27.701   2.167 -0.1987  0.0703 -0.0970
    1W        W33234   9.540   3.296   8.213 -0.0967 -0.2200 -0.0919
    1W        W33235  23.529   3.807   2.881 -0.1570 -0.3030  0.1894
    1W        W33236   0.254  20.963   3.117 -0.1045 -0.2337  0.0652
    1W        W33237  13.440   1.846   9.453 -0.0007 -0.1376  0.2708
    1W        W33238  23.273  27.409   1.460 -0.0947 -0.6193  0.1559
    1W        W33239  11.834  17.387   0.807  0.0187 -0.2164  0.1883
    1W        W33240   5.829  28.610   1.805 -0.1181 -0.1903  0.1105
    1W        W33241   6.726  16.068   0.777  0.1030 -0.0129  0.1485
    1W        W33242  18.915  24.364   8.289  0.1057 -0.0478 -0.1091
    1W        W33243  24.872   6.169   9.601 -0.1902 -0.1333 -0.3285
    1W        W33244  26.971  14.987   9.290 -0.0410  0.2435  0.2627
    1W        W33245  12.010  19.013   1.355 -0.1953 -0.1774  0.0949
    1W        W33246  12.650   0.228   7.192 -0.2852  0.0770 -0.4157
    1W        W33247  18.726  15.942   9.624 -0.2640 -0.1080 -0.2223
    1W        W33248  23.885  12.202   8.623 -0.0394 -0.1040 -0.1877
    1W        W33249   2.913  10.886   2.680 -0.2280 -0.3908 -0.0896
    1W        W33250   9.179   5.680   8.954  0.1728  0.2062 -0.4278
    1W        W33251  17.087   2.461   8.406 -0.1928 -0.1372  0.0462
    1W        W33252  28.717  24.626   8.801 -0.1072 -0.0377 -0.1869
    1W        W33253   1.202  19.387   0.862  0.1332 -0.1910  0.0831
    1W        W33254  26.053  28.712   0.344  0.2436  0.0039  0.1950
    1W        W33255  17.097  17.139   7.047 -0.1102  0.3398  0.2101
    1W        W33256  14.145  25.919   0.594 -0.0093  0.0073 -0.4621
    1W        W33257  25.257  14.018   0.359  0.1037 -0.0963 -0.2007
    1W        W33258   9.031  23.785   2.580  0.1214 -0.1755  0.2190
    1W        W33259  24.448  22.888   7.870  0.1598 -0.1147 -0.0934
    1W        W33260  11.602  18.951   7.898  0.1016  0.1155  0.1413
    1W        W33261   0.705   7.649   0.545 -0.1427  0.5025  0.0748
    1W        W33262   7.990   5.229   2.240 -0.0630 -0.1783 -0.0887
    1W        W33263   5.742   6.076   9.738 -0.0533 -0.0250  0.1294
    1W        W33264  15.693  14.071   6.766  0.0409 -0.0632 -0.2773
    1W        W33265  26.359  28.493   2.548 -0.0813 -0.1345 -0.0089
    1W        W33266  11.584   5.840   9.731  0.1197 -0.0470  0.1383
    1W        W33267  15.713  15.701   2.021 -0.1291 -0.0299  0.0552
    1W        W33268   9.557  15.579   8.859 -0.0372  0.0301 -0.2275
    1W        W33269   9.612   1.757   0.700  0.1056 -0.3246 -0.1371
    1W        W33270  25.644  24.557   8.749 -0.2071 -0.0298 -0.0571
    1W        W33271  15.921   2.265   1.556  0.1028  0.0983  0.0210
    1W        W33272   3.168  13.743   2.168  0.1933  0.5885 -0.2109
    1W        W33273   6.385  28.389   3.000 -0.2345 -0.5018  0.1168
    1W        W33274  14.363  16.189   7.916 -0.2398  0.0755  0.3348
    1W        W33275  11.140  12.049   9.260  0.3264 -0.0630  0.1433
    1W        W33276   0.020   6.182   1.441 -0.2612 -0.4094 -0.2420
    1W        W33277  27.582   6.995   8.635 -0.0826  0.0236 -0.0950
    1W        W33278   8.516  11.071   8.968 -0.2070 -0.1743  0.0615
    1W        W33279   1.851  16.014   2.161  0.1178 -0.0886  0.0973
    1W        W33280  13.353   7.041   5.777 -0.2101  0.1200  0.1147
    1W        W33281   3.215  26.117   2.742 -0.3542 -0.0829 -0.1229
    1W        W33282  26.099  17.166   2.735  0.0299  0.1486  0.0012
    1W        W33283   5.475   6.781   2.712 -0.1540 -0.0921 -0.0113
    1W        W33284   4.238  24.094   3.140 -0.0064  0.1437 -0.3157
    1W        W33285  15.151  16.237   6.079 -0.1597  0.2656 -0.0186
    1W        W33286  25.636  14.495   1.634 -0.2384 -0.2719  0.1547
    1W        W33287  16.986   5.802   6.699  0.1208  0.0957  0.1924
    1W        W33288   2.400   1.348   0.521  0.2117  0.3790  0.0085
    1W        W33289  26.489   5.692   2.709  0.2566 -0.0837 -0.0446
    1W        W33290   9.686  21.669   1.393 -0.0993 -0.3741  0.0151
    1W        W33291   0.450  14.120   3.061  0.0529 -0.3801  0.5643
    1W        W33292  19.265  23.227   0.870 -0.0290  0.0657  0.2798
    1W        W33293  17.964   2.500   2.066  0.0584 -0.0683  0.0503
    1W        W33294   3.212  23.712   2.603  0.0243  0.2773 -0.0697
    1W        W33295  15.549  26.778   6.838 -0.0335  0.2316  0.2480
    1W        W33296  24.884  22.623   7.747 -0.1380 -0.0975 -0.0383
    1W        W33297  17.790   3.265   8.562 -0.1196  0.4924 -0.2095
    1W        W33298  26.924  25.010   8.918  0.1164 -0.0002  0.0978
    1W        W33299  12.112   7.987   6.846 -0.0371  0.1444  0.0138
    1W        W33300   5.074  16.992   6.622  0.0327 -0.1637 -0.0834
    1W        W33301  12.672  23.094   9.454  0.4002  0.2500 -0.1451
    1W        W33302   6.151  26.342   1.517  0.0207  0.3301  0.2043
    1W        W33303  11.431  15.285   6.937  0.0585 -0.2095 -0.0332
    1W        W33304  26.731   6.095   1.695 -0.1001  0.2357  0.0479
    1W        W33305  25.128  17.146   2.105  0.1213  0.2639  0.1382
    1W        W33306   3.455  22.466   6.833 -0.0870 -0.0239 -0.2709
    1W        W33307  20.122  22.123   1.872 -0.1370  0.0802 -0.2745
    1W        W33308  21.152  10.014   8.594 -0.1635 -0.1036  0.3244
    1W        W33309   6.295   5.235   1.998 -0.0167 -0.0110 -0.0760
    1W        W33310  25.480   4.456   9.889  0.1050 -0.1828  0.1850
    1W        W33311   8.483  11.062   8.079 -0.3364 -0.3835  0.0080
    1W        W33312  11.876   0.916   7.975  0.0235 -0.0642 -0.1372
    1W        W33313  23.051   7.152   1.195  0.0977 -0.0041  0.0379
    1W        W33314  16.656  12.658   6.788  0.0002 -0.2039 -0.3955
    1W        W33315  16.711   5.626   0.696 -0.3118  0.2679  0.3903
    1W        W33316  21.270  16.983   8.518 -0.0644  0.3059 -0.4366
    1W        W33317   2.817   0.374   8.243 -0.0866 -0.1149 -0.3662
    1W        W33318   8.490   3.869   1.147  0.2623 -0.1492  0.0401
    1W        W33319  10.183  18.952   7.833  0.2264 -0.2835 -0.1442
    1W        W33320  11.446   3.168   7.964 -0.1400  0.0281 -0.0908
    1W        W33321  28.300  27.788   1.535 -0.1637 -0.2271 -0.0318
    1W        W33322   4.205   3.062   3.082 -0.1408  0.0597  0.1545
    1W        W33323   1.863   0.210   2.161  0.1977 -0.0769  0.0433
    1W        W33324  10.446   0.610   1.447 -0.1061 -0.0210 -0.3455
    1W        W33325  14.619   0.915   6.170 -0.0747  0.1385  0.2358
    1W        W33326  13.650  22.534   2.771 -0.0142  0.0396 -0.0676
    1W        W33327  16.331   8.104   6.493  0.0036 -0.1770  0.0772
    1W        W33328   3.288   8.642   2.444 -0.1093 -0.3194  0.0738
    1W        W33329  14.753   1.469   9.702 -0.1281 -0.1507  0.0941
    1W        W33330   4.665   7.829   8.509  0.1329 -0.0872 -0.0918
    1W        W33331  12.574   5.576   5.542 -0.2253 -0.2655  0.2287
    1W        W33332   4.881  16.194   7.581 -0.1060 -0.0048  0.1085
    1W        W33333  14.927  13.595   5.857 -0.1060  0.1134  0.0105
    1W        W33334  11.171  19.187   2.075 -0.0214 -0.2009 -0.0942
    1W        W33335  10.607  21.564   0.817  0.0256 -0.1530 -0.1568
    1W        W33336   8.835   6.452   8.322 -0.2776 -0.4413  0.1462
    1W        W33337   8.135   8.672   0.527 -0.0560  0.0505  0.0557
    1W        W33338  17.049  25.701   0.646  0.0391  0.0045  0.1609
    1W        W33339  12.264  21.424   7.331  0.2068  0.5281 -0.0102
    1W        W33340  12.843  12.541   0.789  0.1261  0.1661  0.1762
    1W        W33341   1.006  14.793   9.960  0.3721  0.4993 -0.0344
    1W        W33342  22.049  20.978   1.340  0.2407 -0.1761 -0.0214
    1W        W33343   1.951  27.060   1.184 -0.3027 -0.2250  0.0028
    1W        W33344   0.247   3.578   3.879 -0.1176  0.1133  0.0298
    1W        W33345   8.596  27.697   0.075 -0.1004  0.0470 -0.0651
    1W        W33346  20.865  28.532   9.983  0.1462  0.1270 -0.1179
    1W        W33347  20.801  15.096   9.870  0.1448 -0.1252  0.2217
    1W        W33348   4.881  28.824   7.604  0.3661 -0.2208  0.0265
    1W        W33349  24.769  26.350   0.018  0.0727  0.1535 -0.2956
    1W        W33350  26.925  11.255   9.998 -0.0371  0.3334 -0.1318
    1W        W33351  10.034  13.045   1.783  0.0197 -0.0012 -0.2664
    1W        W33352   5.147  20.931   9.192  0.1685 -0.1075  0.0731
    1W        W33353  16.863  21.367   7.245 -0.3524 -0.1382  0.0610
    1W        W33354  13.438  15.474   8.557 -0.4726  0.1573  0.0502
    1W        W33355  17.589  20.723   7.184  0.2132 -0.3103  0.0658
    1W        W33356  16.918   6.863   6.307  0.1518 -0.0502  0.0308
    1W        W33357   7.563  17.947   9.372 -0.0252  0.4665  0.1668
    1W        W33358   3.015  10.522   8.867  0.1238  0.2429 -0.0509
    1W        W33359  18.070  12.741   7.726 -0.0243  0.0215  0.0105
    1W        W33360  21.314   4.760   2.721  0.1726 -0.2338 -0.0890
    1W        W33361   8.335  11.723   2.310  0.1526  0.0585 -0.0778
    1W        W33362  27.831   7.845   8.854  0.3001  0.0945 -0.0254
    1W        W33363  12.671  21.457   9.196  0.0484  0.2029 -0.1110
    1W        W33364  27.833  25.534   1.076 -0.1627  0.1202 -0.4230
    1W        W33365   5.545   3.374   1.889 -0.1894 -0.1276 -0.0832
    1W        W33366  19.228  18.906   1.480 -0.2916 -0.1885 -0.1769
    1W        W33367   9.137  27.156   8.801  0.1018  0.0319  0.3485
    1W        W33368   6.008  24.275   8.697 -0.1592  0.0303  0.0695
    1W        W33369   0.807  11.880   1.522  0.1125 -0.1838 -0.1068
    1W        W33370  23.558  17.549   1.889  0.2199 -0.1180  0.0091
    1W        W33371   0.181  21.281   8.524 -0.1690 -0.0104 -0.3491
    1W        W33372  22.823   9.921   0.573  0.0716  0.0515 -0.2019
    1W        W33373   2.948  24.603   2.190 -0.2170 -0.1955  0.0996
    1W        W33374  25.456  28.509   2.499  0.1472 -0.1963  0.1345
    1W        W33375   9.563  17.846   8.280 -0.0255  0.2378  0.1137
    1W        W33376  18.405   6.117   8.959  0.1815 -0.3074  0.2683
    1W        W33377   1.523   1.892   1.326 -0.2320 -0.1902 -0.0647
    1W        W33378   7.032   8.639   0.096  0.0228  0.2240 -0.0661
    1W        W33379  12.901   8.792   2.345  0.1929  0.0766 -0.0209
    1W        W33380  20.483   6.887   0.900  0.0475 -0.2504  0.2186
    1W        W33381   1.736   7.719   2.778  0.4111 -0.2615 -0.0216
    1W        W33382   4.964  18.007   1.759 -0.0025 -0.0490 -0.3510
    1W        W33383   6.163  28.188   1.882  0.3043 -0.0315 -0.2523
    1W        W33384  13.632   3.496   6.577 -0.0899  0.2112  0.2286
    1W        W33385  28.458  26.470   3.713  0.0367 -0.2949  0.2920
    1W        W33386   9.734   9.057   1.102  0.2643 -0.1459  0.0626
    1W        W33387  23.578  10.451   8.018 -0.2728  0.0624  0.2548
    1W        W33388   5.403   9.153   6.773  0.4861 -0.0588  0.0190
    1W        W33389   5.680   5.616   9.966 -0.5054  0.2975  0.1688
    1W        W33390  24.935  28.674   3.776 -0.2455  0.1609 -0.3055
    1W        W33391  12.552  11.418   0.542  0.1213 -0.1748 -0.2699
    1W        W33392  15.192  13.671   7.411  0.1426  0.4579 -0.1017
    1W        W33393   7.844  13.837   9.439 -0.1011  0.3576 -0.2109
    1W        W33394  27.271  23.519   3.950 -0.3000 -0.0470  0.1420
    1W        W33395  18.761  10.662   7.456 -0.0863  0.1629  0.0183
    1W        W33396  21.200   2.490   7.097 -0.0929 -0.1454  0.0790
    1W        W33397   7.118  10.205   1.566  0.0319 -0.0906  0.0111
    1W        W33398  14.539   3.191   6.963 -0.2986 -0.0869  0.1477
    1W        W33399   4.791  13.832   1.680 -0.3465  0.1145 -0.2727
    1W        W33400  13.571  22.792   0.929 -0.1360  0.0846  0.0479
    1W        W33401   4.287   7.075   1.300 -0.1392  0.0704  0.2152
    1W        W33402   3.766  18.819   0.698  0.1721  0.3604  0.0026
    1W        W33403  17.076  11.395   0.229 -0.0031 -0.3533  0.1507
    1W        W33404  24.686  25.055   1.333 -0.2306  0.0535  0.1519
    1W        W33405   1.753   9.111   1.670 -0.4272  0.2031 -0.0333
    1W        W33406   5.038  11.833   0.504  0.0469 -0.2342  0.1906
    1W        W33407  18.146  11.758   8.696  0.3150 -0.2327 -0.0428
    1W        W33408   1.972   5.899   8.562  0.0505 -0.0634 -0.3363
    1W        W33409   2.151   7.930   9.043  0.0308 -0.1310  0.1488
    1W        W33410  25.413   1.717   0.121  0.0035 -0.3450  0.0711
    1W        W33411  21.430  12.992   7.189  0.1924 -0.1009 -0.0913
    1W        W33412   6.956   7.777   9.701  0.1428  0.2311  0.0496
    1W        W33413  24.827  14.883   0.754 -0.1998 -0.2135  0.3089
    1W        W33414   6.299  13.035   6.975 -0.1672  0.1235  0.0153
    1W        W33415  10.382   6.698   8.495  0.0487 -0.0422 -0.1009
    1W        W33416   3.675  27.797   9.936 -0.0461  0.1308 -0.1637
    1W        W33417  10.445   8.817   2.081 -0.2585  0.0185 -0.2243
    1W        W33418   1.852  21.373   8.472 -0.1256  0.0018  0.0108
    1W        W33419  10.222  15.405   6.205  0.2490 -0.3182 -0.0138
    1W        W33420   1.693  23.569   7.387 -0.1378 -0.1209  0.4872
    1W        W33421   2.690  20.830   8.611  0.0471  0.1513 -0.2976
    1W        W33422   3.342  16.970   9.449 -0.0440  0.1325 -0.0063
    1W        W33423  21.683  27.737   0.531 -0.0337  0.2708 -0.2788
    1W        W33424  20.129  25.926   3.657 -0.0969 -0.1171 -0.0967
    1W        W33425  24.985   6.824   8.857  0.0123  0.2678  0.0356
    1W        W33426  21.731  28.057   0.965  0.1349 -0.1770  0.1731
    1W        W33427  20.916  23.660   1.601  0.2026  0.2443  0.1105
    1W        W33428  13.963   6.134   5.706 -0.1496 -0.1411 -0.1704
    1W        W33429  14.569   1.709   9.325 -0.0770 -0.0690  0.1983
    1W        W33430   7.033  23.126   0.212 -0.1183 -0.2313  0.1780
    1W        W33431   3.218  27.282   0.674  0.2075  0.4729  0.1307
    1W        W33432  26.746   7.072   0.673  0.2064  0.0529 -0.0830
    1W        W33433  26.885   3.555   3.590 -0.0722  0.0148  0.0750
    1W        W33434  18.947   1.088   8.424 -0.0068  0.3224  0.0353
    1W        W33435  27.342  27.785   3.603  0.1207  0.2466 -0.1905
    1W        W33436  19.701   2.923   0.908 -0.2006  0.2747  0.3382
    1W        W33437  28.512  14.538   0.371 -0.3702  0.0730 -0.0961
    1W        W33438  25.342   4.189   0.866  0.0749 -0.2913 -0.0239
    1W        W33439  20.531   9.433   1.396 -0.0806 -0.0688  0.0791
    1W        W33440  15.171  10.450   7.232  0.1614 -0.0712  0.1151
    1W        W33441  10.346   1.117   1.072  0.2326  0.1327  0.2617
    1W        W33442  10.743  27.942   1.494 -0.1683  0.1528  0.1381
    1W        W33443  22.945  13.410   9.822 -0.1331  0.0812 -0.0346
    1W        W33444  21.844  16.377   8.109  0.2536  0.1424  0.0233
    1W        W33445  10.847  15.112   1.804 -0.1719  0.0523 -0.2441
    1W        W33446  12.541   9.757   8.852 -0.0259  0.2153  0.3326
    1W        W33447  16.808   8.047   1.161 -0.1204  0.2854 -0.0906
    1W        W33448  23.457  21.739   7.379  0.1156 -0.2337  0.1516
    1W        W33449  20.909  26.342   7.487 -0.1569 -0.0032  0.3833
    1W        W33450   5.737  27.576   2.047 -0.0442  0.1603 -0.2503
    1W        W33451   9.338   8.330   8.291 -0.0726 -0.0288  0.0919
    1W        W33452  14.394   3.791   0.043 -0.0408 -0.0522  0.0372
    1W        W33453  22.027  22.184   1.914  0.0757  0.0671  0.0727
    1W        W33454  23.234  20.006   7.912 -0.1117 -0.1047 -0.2112
    1W        W33455   2.331   0.600   4.526 -0.1064 -0.1104  0.1883
    1W        W33456   1.270  15.435   0.423  0.1832  0.1563  0.0846
    1W        W33457  25.467   6.622   1.452 -0.1091  0.0127  0.2626
    1W        W33458   3.487  15.058   6.980 -0.1191  0.1171 -0.1015
    1W        W33459  10.169  17.263   3.153  0.1521  0.1466 -0.2186
    1W        W33460  24.454  15.561   9.948 -0.0827  0.0866 -0.2771
    1W        W33461  26.861  23.108   2.707  0.0172 -0.2421 -0.2526
    1W        W33462  21.244  21.088   8.232  0.0953 -0.2378 -0.0662
    1W        W33463   8.763  27.282   8.228  0.0355  0.2467 -0.1731
    1W        W33464  18.390  20.074   2.522 -0.4068 -0.2206 -0.3467
    1W        W33465   0.300   0.969   3.332  0.1803 -0.1482  0.1379
    1W        W33466   8.965  15.465   8.287 -0.0377  0.1265 -0.1608
    1W        W33467   1.514  23.627   0.097 -0.3566 -0.4708 -0.1802
    1W        W33468   4.355  18.498   7.505 -0.0215  0.1410 -0.0058
    1W        W33469  16.170  17.795   7.026  0.0727  0.0211  0.2563
    1W        W33470  24.311   0.217   8.326 -0.1654 -0.1350  0.0601
    1W        W33471   3.920   5.385   1.674  0.0520 -0.0404  0.5255
    1W        W33472  23.657  25.934   9.456 -0.2001  0.1259  0.1680
    1W        W33473   4.756   3.802   2.954 -0.2691  0.0539 -0.0400
    1W        W33474  24.329  14.894   8.901 -0.0429 -0.1451  0.1772
    1W        W33475   9.727   9.478   5.777  0.0993  0.0396  0.2308
    1W        W33476   4.431  15.880   7.506 -0.0177 -0.3535  0.0735
    1W        W33477  17.718  27.737   7.769 -0.1815  0.4348  0.0761
    1W        W33478  19.577  12.265   0.114  0.2843  0.0952 -0.2464
    1W        W33479   6.009   0.493   3.153  0.2267  0.1828  0.1694
    1W        W33480  19.553  17.296   9.533 -0.1187 -0.0508 -0.1199
    1W        W33481  14.359   9.623   7.896 -0.3693  0.3260 -0.1803
    1W        W33482  10.021  27.514   3.386 -0.0782  0.1759  0.0092
    1W        W33483   0.486  13.483   1.046  0.1406  0.2000  0.1040
    1W        W33484  13.041   6.134   7.107  0.1238  0.1835 -0.1163
    1W        W33485   9.442   4.285   2.076  0.1832 -0.0853 -0.0881
    1W        W33486   8.909  14.646   9.350 -0.3388 -0.2496 -0.1714
    1W        W33487   9.618  22.775   7.490  0.0236 -0.1236  0.1354
    1W        W33488   9.461  20.479   0.285 -0.1341 -0.1988 -0.1471
    1W        W33489   0.188  20.126   9.468  0.0221  0.0749  0.0158
    1W        W33490  20.891   7.949   2.431  0.3774  0.0077 -0.1238
    1W        W33491   9.914   7.395   3.162 -0.0650 -0.0879  0.2216
    1W        W33492   0.256  28.539   9.018 -0.0270 -0.0465 -0.1645
    1W        W33493   2.281  17.794   7.622 -0.0635  0.1100 -0.1459
    1W        W33494   6.752  26.186   3.643  0.3855  0.1234 -0.0393
    1W        W33495  28.072  26.723   8.898  0.0747  0.0748  0.3234
    1W        W33496  25.758   7.242   2.631  0.1086 -0.1540 -0.4787
    1W        W33497  10.626   2.514   7.329  0.2041 -0.1353  0.4485
    1W        W33498  11.052  20.813   3.007  0.1816 -0.3829  0.1305
    1W        W33499  13.690  26.547   6.768  0.1051  0.2271  0.1407
    1W        W33500   4.787  21.992   3.026  0.0331 -0.1225 -0.0430
    1W        W33501  20.405   2.834   8.715  0.0899  0.0709  0.0542
    1W        W33502  12.577  20.180   8.959  0.0749 -0.0665 -0.3082
    1W        W33503  26.242  18.198   0.425 -0.0949  0.2517  0.2914
    1W        W33504  24.977   9.170   1.341  0.3438  0.1440 -0.1351
    1W        W33505  24.761   3.660   8.661 -0.1007 -0.0643  0.0596
    1W        W33506   6.866  23.292   1.693  0.1684 -0.1519 -0.1883
    1W        W33507   8.692  17.856   6.992  0.1503  0.1201  0.2246
    1W        W33508   5.692  10.937   1.039 -0.1290 -0.0002  0.2646
    1W        W33509  27.806   4.963   1.936  0.2233  0.2607 -0.0094
    1W        W33510  13.847  12.672   2.350  0.1164  0.1287  0.0260
    1W        W33511   3.924  24.176   8.970 -0.0769  0.1717  0.1102
    1W        W33512   3.120   0.120   8.555 -0.0823  0.3994  0.3726
    1W        W33513  26.650  21.866   0.900  0.0450  0.1880 -0.0628
    1W        W33514  28.465  18.823   0.497 -0.1038 -0.0170 -0.3440
    1W        W33515   8.134   9.088   7.118 -0.0700 -0.2208 -0.1279
    1W        W33516  12.612  12.044   9.752 -0.1436  0.2405 -0.0447
    1W        W33517   6.219  11.839   0.496  0.0734  0.0730  0.2506
    1W        W33518   4.656   6.292   1.206 -0.1171 -0.0117 -0.1808
    1W        W33519   9.381   6.939   0.713 -0.1612 -0.0202  0.1572
    1W        W33520   0.498   4.947   9.157  0.0597 -0.2663 -0.0868
    1W        W33521  13.378   3.614   0.583  0.2817 -0.0294 -0.3063
    1W        W33522   5.678   0.172   3.370 -0.0149 -0.1688  0.1435
    1W        W33523  26.345   0.788   0.223  0.2786  0.0540  0.0250
    1W        W33524  22.816  17.421   6.979 -0.0800  0.0926 -0.1915
    1W        W33525   2.503   5.401   1.320 -0.5415 -0.1797 -0.1606
    1W        W33526  19.106  13.115   9.115  0.0259 -0.0190 -0.4153
    1W        W33527  27.779  20.646   3.742  0.2194 -0.3511 -0.5089
    1W        W33528   9.113   5.924   9.429 -0.0462 -0.2603  0.0536
    1W        W33529   7.714  27.202   7.976  0.0599 -0.1096 -0.3982
    1W        W33530   1.436  26.995   3.446  0.1625 -0.1935 -0.0181
    1W        W33531  28.848   7.207   2.129 -0.0509  0.0234 -0.1694
    1W        W33532  15.822   5.710   0.891 -0.0982 -0.1503  0.0902
    1W        W33533   5.738  19.245   7.640 -0.1963 -0.0544  0.2084
    1W        W33534   5.081  27.837   0.411 -0.1175 -0.0972  0.1183
    1W        W33535   5.514  11.999   2.635 -0.1014 -0.2452 -0.4234
    1W        W33536  24.788   2.774   9.797 -0.2462 -0.1989  0.0699
    1W        W33537  24.565  20.015   0.341 -0.3318 -0.2415 -0.2344
    1W        W33538  27.332  27.076   0.431 -0.0613  0.0387  0.1217
    1W        W33539  25.911  26.062   3.145 -0.0470 -0.2063  0.3916
    1W        W33540  21.362   9.526   0.873  0.0034  0.0037  0.2412
    1W        W33541   5.202  17.215   3.004  0.2893  0.0927 -0.3003
    1W        W33542  25.926  10.387   9.913 -0.1720 -0.0756  0.4223
    1W        W33543  27.272   6.271   8.042  0.1067 -0.0841 -0.1077
    1W        W33544  11.278  26.034   2.005  0.1442  0.2332  0.0459
    1W        W33545  22.748  22.085   0.770  0.0513 -0.0911  0.0682
    1W        W33546   5.289   3.224   0.338 -0.1626  0.0290  0.3988
    1W        W33547   0.253   8.194   0.874 -0.2005  0.1445  0.1377
    1W        W33548  23.256  20.057   0.448  0.1285 -0.0229 -0.1858
    1W        W33549  15.374   0.399   6.943  0.1734 -0.2480  0.2245
    1W        W33550   8.929   7.753   6.263 -0.2224 -0.3362 -0.1075
    1W        W33551  27.773  25.294   3.436  0.0339 -0.1077 -0.0159
    1W        W33552   7.039  19.761   9.326  0.0657 -0.0923 -0.0090
    1W        W33553  17.403   8.584   1.230 -0.1481 -0.4428  0.0840
    1W        W33554   7.191   9.219   7.743  0.0152  0.1384  0.0951
    1W        W33555  25.000  21.690   2.398  0.2042 -0.0880 -0.1066
    1W        W33556   7.357  10.995   1.757 -0.0054 -0.2533 -0.0085
    1W        W33557  20.217  21.880   6.956  0.0169  0.0287 -0.0549
    1W        W33558  14.911   2.995   0.787  0.1033  0.1373 -0.0828
    1W        W33559  10.081   5.593   0.902 -0.3699  0.0389 -0.0755
    1W        W33560   8.428  11.826   1.544  0.2014 -0.1533  0.2643
    1W        W33561   6.558  28.510   8.846  0.3198  0.1926  0.0922
    1W        W33562  12.034   8.744   9.566 -0.2246 -0.2291  0.0988
    1W        W33563   7.469  25.882   0.879  0.2441 -0.1411 -0.0497
    1W        W33564  24.227  17.071   7.311 -0.2095 -0.1522  0.1008
    1W        W33565   2.354   2.761   8.509  0.1907  0.0909  0.1656
    1W        W33566  17.763   7.351   8.218 -0.1834 -0.1819 -0.0500
    1W        W33567  20.078  15.497   0.540 -0.3405 -0.0504  0.1210
    1W        W33568  11.601  23.868   3.109  0.0373 -0.4745 -0.2063
    1W        W33569  17.692  18.082   1.073  0.1266 -0.0405  0.2050
    1W        W33570  26.752  18.751   8.774 -0.2858  0.1722 -0.0073
    1W        W33571  20.940  12.510   9.242  0.5038  0.3621  0.1970
    1W        W33572  19.172  26.091   1.943 -0.1285  0.0381  0.0094
    1W        W33573  22.256  15.140   8.690 -0.4910  0.2092 -0.1188
    1W        W33574  26.639  21.985   9.012 -0.2231 -0.0480 -0.2442
    1W        W33575  12.789  23.084   8.203 -0.2143 -0.0961 -0.2018
    1W        W33576  22.233   6.149   7.573  0.2870 -0.0981 -0.1078
    1W        W33577  24.021  22.985   1.645 -0.1649 -0.1959 -0.1683
    1W        W33578  24.559  22.375   1.049  0.2733  0.0631 -0.0934
    1W        W33579  22.389  10.169   1.855  0.0026 -0.0895 -0.0296
    1W        W33580   0.236  21.809   8.698 -0.1203 -0.1308 -0.3904
    1W        W33581   8.269  23.427   0.847  0.0480 -0.1396  0.0318
    1W        W33582  27.077  13.098   0.970 -0.2344 -0.0452  0.3481
    1W        W33583  19.748   8.273   9.864  0.0817 -0.0259 -0.0212
    1W        W33584  23.256  24.883   2.442  0.1915  0.1421 -0.0238
    1W        W33585  26.844   1.374   3.693  0.1086  0.3229  0.3054
    1W        W33586   1.017  16.278   3.952  0.1129 -0.3970  0.0255
    1W        W33587  17.459  27.626   7.379  0.1610 -0.1471 -0.0966
    1W        W33588   1.088  22.180   1.132 -0.0149  0.1485  0.0481
    1W        W33589  26.293  19.404   8.567 -0.2096  0.0814  0.0482
    1W        W33590  21.868   1.269   9.834  0.0931 -0.1483 -0.0486
    1W        W33591  28.376  21.272   4.201  0.2824  0.0959  0.1895
    1W        W33592  17.789  18.564   2.756  0.1833 -0.1788  0.0963
    1W        W33593   0.940   3.584   4.303 -0.1466  0.1548 -0.2446
    1W        W33594  21.936  17.233   1.545  0.0179  0.0270 -0.1328
    1W        W33595  21.916   0.017   1.384  0.2921 -0.0267  0.1699
    1W        W33596   0.966   0.813   3.949 -0.3578 -0.2296  0.0233
    1W        W33597  28.121  28.231   0.302  0.2493  0.1232 -0.4466
    1W        W33598  26.313   3.987   1.673 -0.2107 -0.0186  0.1537
    1W        W33599   5.549  11.261   9.517 -0.1228 -0.1006  0.1320
    1W        W33600  15.137  22.860   8.377  0.1539  0.0996  0.0773
    1W        W33601   1.725  21.102   2.129 -0.0179 -0.0127 -0.0844
    1W        W33602  25.207  22.646   1.008 -0.1517 -0.1213 -0.0298
    1W        W33603  21.030  25.254   0.561  0.2793 -0.0930 -0.1880
    1W        W33604  21.746   9.392   9.566  0.2186 -0.1736  0.0528
    1W        W33605  10.918  10.867   5.418  0.0980  0.1290 -0.2483
    1W        W33606   2.447  27.527   8.860 -0.0267  0.2692  0.3156
    1W        W33607  26.350  23.370   9.946 -0.0197 -0.1621  0.0207
    1W        W33608  18.773  12.307   9.440  0.0731 -0.1925  0.0221
    1W        W33609  27.330  22.264   3.659  0.0434  0.0556  0.1903
    1W        W33610   6.485   9.358   8.427 -0.1687  0.0777  0.1003
    1W        W33611  18.795  19.919   5.366 -0.2404  0.2925 -0.0200
    1W        W33612  20.719  25.107   7.666 -0.1977 -0.0866  0.2384
    1W        W33613  17.532   6.883   0.940 -0.1959 -0.0743  0.1646
    1W        W33614   7.164   8.945   2.893 -0.4634  0.3001  0.0907
    1W        W33615   2.973   7.584   3.594 -0.1901 -0.2150  0.1922
    1W        W33616  25.197   5.764   0.366 -0.0044 -0.2044 -0.2197
    1W        W33617  26.006  17.724   0.413  0.1148 -0.0212  0.1039
    1W        W33618  11.797  27.947   1.660 -0.3709 -0.1303  0.0341
    1W        W33619  10.771  19.352   0.945  0.0036  0.0878 -0.0282
    1W        W33620  14.591  13.693   0.268 -0.0607 -0.1220  0.1195
    1W        W33621  21.338  21.535   3.163 -0.3077 -0.2968  0.2233
    1W        W33622  10.325  19.131   6.963 -0.3411 -0.2616 -0.1263
    1W        W33623  26.199   6.742   7.854 -0.1815  0.1903 -0.2091
    1W        W33624   4.328  21.306   9.340 -0.2273 -0.0596 -0.2073
    1W        W33625  21.168   3.221   0.715  0.1862  0.1195  0.0886
    1W        W33626   4.697  14.568   0.927 -0.1266 -0.4114 -0.1386
    1W        W33627  13.105   2.957   1.489 -0.0821 -0.1907  0.1058
    1W        W33628  18.949   6.987   0.702  0.0269 -0.1512  0.2748
    1W        W33629   4.815  16.898   2.753 -0.2312 -0.0320  0.1708
    1W        W33630   8.710   1.065   7.867  0.2753  0.0367 -0.0685
    1W        W33631  21.908  17.489   9.042 -0.1730 -0.0846 -0.2679
    1W        W33632   3.122  16.722   3.094  0.4933  0.1453 -0.0828
    1W        W33633   9.859   6.286   1.304  0.3367  0.0298  0.0967
    1W        W33634   0.483  19.822   0.366 -0.0248 -0.1336 -0.1172
    1W        W33635   6.302   1.557   0.433  0.1090 -0.0373 -0.2309
    1W        W33636   7.505  12.643   7.057  0.2646 -0.0096 -0.0075
    1W        W33637   4.767  27.442   4.329 -0.3388 -0.1182  0.2424
    1W        W33638  25.399  13.904   6.862  0.0059  0.0995 -0.0816
    1W        W33639  22.752   5.371   7.946  0.0317  0.0569 -0.0524
    1W        W33640  18.332   7.020   6.332  0.2281  0.0581 -0.0159
    1W        W33641  20.018  21.998   7.641 -0.0582 -0.2809  0.0986
    1W        W33642   7.131  20.939   6.794  0.2658 -0.1511 -0.1692
    1W        W33643   7.809   0.676   7.977 -0.0240  0.3494  0.1296
    1W        W33644  16.818   6.369   8.096 -0.0487 -0.2197  0.0350
    1W        W33645  11.023  22.477   9.464 -0.0346 -0.0411 -0.1042
    1W        W33646   6.491  18.035   9.584  0.0816  0.0501  0.0582
    1W        W33647   8.286  26.901   8.621  0.0505  0.1602  0.0327
    1W        W33648  19.626   0.035   8.815  0.0210  0.0116  0.3429
    1W        W33649  19.524  13.384   9.129  0.6555  0.0071 -0.1573
    1W        W33650  25.532  19.730   7.653  0.0862 -0.0676  0.0423
    1W        W33651  24.727   0.481   9.402 -0.0335 -0.0987  0.0265
    1W        W33652   9.031  15.688   0.304  0.0810 -0.3127  0.2379
    1W        W33653  10.187   7.686   9.772 -0.1916 -0.2075 -0.0842
    1W        W33654  11.209  22.283   0.189  0.1100 -0.0341  0.1761
    1W        W33655  17.717  24.325   8.119 -0.2101 -0.1193 -0.0893
    1W        W33656  19.662  25.008   0.581 -0.2289 -0.0533  0.2928
    1W        W33657   8.129  12.352   5.912  0.0899  0.1074  0.0468
    1W        W33658  28.065  26.039   8.054  0.1286  0.3125 -0.1494
    1W        W33659  17.414   2.728   0.427 -0.1051  0.0076 -0.1293
    1W        W33660   7.731   2.470   3.905  0.0168 -0.1362 -0.1316
    1W        W33661  17.881   1.495   6.783  0.1556  0.1778 -0.3689
    1W        W33662  19.512   8.807   7.373  0.2414  0.1135  0.2215
    1W        W33663  23.917  23.739   2.422 -0.0812 -0.2194 -0.1878
    1W        W33664   0.596  11.311   0.396 -0.0159  0.3117 -0.1352
    1W        W33665  24.314  24.046   8.364  0.0723  0.0231  0.2168
    1W        W33666  18.212   3.571   8.388  0.1083 -0.1795  0.3256
    1W        W33667   0.672  16.253   8.733 -0.2218 -0.0564  0.3042
    1W        W33668   7.597  22.791   2.074  0.3490 -0.1462 -0.1850
    1W        W33669  18.735  18.696   2.703  0.1332 -0.0456 -0.2846
    1W        W33670  13.931   3.074   1.321  0.0479  0.2669 -0.1425
    1W        W33671  17.778  24.843   8.006  0.1209  0.1667  0.0356
    1W        W33672  25.780  27.887   9.942  0.1283 -0.1715 -0.2135
    1W        W33673  13.112  27.041   2.256  0.2058  0.0399 -0.2643
    1W        W33674  23.481  16.012   0.052  0.0861 -0.0470  0.0450
    1W        W33675  28.836  15.243   2.620  0.2425 -0.0713 -0.0395
    1W        W33676  21.359   7.882   7.439  0.0214 -0.1318 -0.3391
    1W        W33677  19.668  19.170   8.123 -0.1151 -0.0581  0.1127
    1W        W33678  13.989  22.494   0.549 -0.0732 -0.1231 -0.0643
    1W        W33679  25.593   5.385   9.409 -0.1936 -0.1358 -0.3387
    1W        W33680  21.921   8.361   6.944  0.1136  0.2472 -0.1413
    1W        W33681  23.636   9.673   7.705  0.1747  0.0131 -0.1965
    1W        W33682  16.653  14.073   0.051 -0.0211 -0.0333  0.2512
    1W        W33683  13.187  22.264   8.298 -0.4456  0.0891  0.0172
    1W        W33684  24.678  20.583   0.717 -0.1005 -0.1885  0.2474
    1W        W33685  28.778  20.387   0.528  0.0811 -0.0303 -0.1018
    1W        W33686  27.637  27.611   3.228  0.0030 -0.0715 -0.1406
    1W        W33687  27.138   9.878   8.399  0.4198  0.1065  0.0344
    1W        W33688   1.763  14.593   2.688 -0.1857  0.1304  0.1152
    1W        W33689  21.804   4.831   1.043 -0.1296  0.2292 -0.0690
    1W        W33690  16.898   6.869   7.833  0.1527  0.1095 -0.1125
    1W        W33691   6.806  13.455   6.967 -0.0560 -0.1910 -0.4095
    1W        W33692  10.171   2.066   9.356 -0.0416  0.0365 -0.1017
    1W        W33693  15.631   8.422   9.841  0.2590 -0.2165 -0.1588
    1W        W33694   6.218   0.137   1.097 -0.0883  0.3591  0.0711
    1W        W33695   2.249  23.868   9.080  0.1832  0.2302 -0.0083
    1W        W33696  13.296  24.181   9.587  0.0347 -0.1661  0.0215
    1W        W33697   5.577   0.727   0.021  0.2051  0.2233 -0.1336
    1W        W33698  14.745   2.583   1.061 -0.1159 -0.0946  0.0709
    1W        W33699   8.409  28.836   3.719 -0.1889 -0.2403 -0.1571
    1W        W33700  28.336   2.697   1.535  0.1198 -0.1140  0.3231
    1W        W33701  12.240  28.173   8.814 -0.0332  0.0933  0.1549
    1W        W33702  23.575   8.164   8.852  0.1288 -0.0091 -0.0572
    1W        W33703   3.076  20.681   0.135  0.0195  0.1579 -0.0084
    1W        W33704   7.712  21.084   7.544  0.1123 -0.3400 -0.0033
    1W        W33705  11.426   8.582   9.669 -0.0132  0.0419 -0.1990
    1W        W33706  21.494   3.802   2.633 -0.1468 -0.1262 -0.2088
    1W        W33707  20.893   5.756   7.801  0.2988  0.0645  0.0878
    1W        W33708  21.353  27.363   0.931  0.1253  0.2401 -0.0579
    1W        W33709   7.684   1.360   9.940  0.1098  0.1894  0.0390
    1W        W33710  13.444  25.607   7.286  0.0817 -0.2151  0.0089
    1W        W33711   4.707  13.481   6.622 -0.0176  0.1295 -0.1817
    1W        W33712  24.470  22.706   8.837  0.2482 -0.0061 -0.2257
    1W        W33713  23.020   6.133   8.606  0.1206 -0.3869  0.3229
    1W        W33714   8.591  14.963   0.123  0.0779 -0.1036  0.1460
    1W        W33715  24.054  23.172   8.178  0.2218  0.2876  0.3237
    1W        W33716   1.198  17.703   9.338 -0.0769  0.1308 -0.0349
    1W        W33717  16.617  12.709   1.096  0.0963 -0.1867 -0.0515
    1W        W33718  14.945  12.758   6.702 -0.0125  0.3550  0.0412
    1W        W33719  13.976  16.915   1.633  0.0195 -0.1301  0.0856
    1W        W33720  25.205  24.852   1.401  0.0676  0.0408  0.0841
    1W        W33721  26.576   7.385   9.918  0.1275 -0.0069 -0.1475
    1W        W33722  21.323   6.604   7.654 -0.1851  0.0836  0.1334
    1W        W33723  27.574   1.137   3.516 -0.3148 -0.0663  0.0421
    1W        W33724   8.575  19.037   7.091  0.1559 -0.1396 -0.1022
    1W        W33725  27.287  22.723   3.917 -0.2313 -0.2465  0.0631
    1W        W33726  21.186  12.676   0.836 -0.1682  0.0244  0.0093
    1W        W33727  14.942   0.239   1.738  0.2050 -0.1505 -0.1467
    1W        W33728  22.264   2.715   1.013  0.0081  0.3145  0.0567
    1W        W33729  25.572  15.347   2.939  0.0823 -0.1258  0.1074
    1W        W33730  21.954  17.235   2.918  0.2217 -0.1359 -0.1171
    1W        W33731  19.909  20.170   2.188 -0.0688 -0.0133 -0.0590
    1W        W33732  18.286  18.547   2.367  0.1336 -0.4301  0.4168
    1W        W33733   1.495  14.690   9.734 -0.1876  0.2453 -0.1512
    1W        W33734   7.989  16.594   6.426 -0.0319 -0.0701  0.3150
    1W        W33735  13.388   7.978   6.346  0.1122 -0.1525 -0.2399
    1W        W33736   6.719   8.558   1.160  0.0719 -0.1523  0.0346
    1W        W33737   7.362   8.054   0.579  0.0858  0.1143 -0.0580
    1W        W33738   7.848  11.708   7.170  0.0352 -0.0363  0.0859
    1W        W33739  21.333  28.358   1.960  0.2429  0.0427  0.2524
    1W        W33740  23.337   2.211   0.223  0.0443  0.0407  0.1141
    1W        W33741  11.790  15.316   1.989  0.4556 -0.0756 -0.0749
    1W        W33742  24.301  10.504   1.462  0.2549  0.2298 -0.0471
    1W        W33743  26.682  26.085   3.717  0.5428  0.1584 -0.1925
    1W        W33744   9.725   6.815   2.418  0.5027  0.0986 -0.1012
    1W        W33745  23.535   6.891   7.646  0.0999  0.0620 -0.0667
    1W        W33746  24.020  22.595   4.005  0.0505 -0.2158  0.0325
    1W        W33747   0.137   8.953   0.912 -0.0759  0.1027 -0.1016
    1W        W33748   0.756   1.993   9.102  0.5620  0.1403  0.3019
    1W        W33749  14.465  25.154   1.699  0.0080 -0.1429 -0.0365
    1W        W33750  13.799  16.785   7.611 -0.3552  0.0735 -0.1284
    1W        W33751  17.026  28.877   2.684  0.0210  0.2282 -0.3487
    1W        W33752  22.026  20.228   6.178 -0.0206 -0.0743  0.2004
    1W        W33753  26.102  18.839   0.983  0.1707  0.0517  0.0586
    1W        W33754  18.078   3.088   1.456  0.0808  0.0196  0.0412
    1W        W33755   8.436  24.897   0.212 -0.2065 -0.3761 -0.0091
    1W        W33756   2.568  18.910   8.215 -0.0143 -0.1748  0.1246
    1W        W33757   8.703  24.780   0.620  0.1158  0.2355 -0.1114
    1W        W33758   1.000  16.209   9.179 -0.0561  0.0695  0.2024
    1W        W33759  24.125  25.761   9.213  0.2207 -0.1076 -0.1288
    1W        W33760   1.317  22.046   3.946 -0.0393 -0.0492  0.0380
    1W        W33761   6.906   0.574   0.846 -0.2390 -0.0279 -0.2282
    1W        W33762  26.100   3.590   3.244 -0.0865 -0.2658 -0.1495
    1W        W33763  12.566  22.104   1.732 -0.3080  0.0286 -0.0009
    1W        W33764  13.931  13.024   0.618 -0.2604 -0.0643 -0.2247
    1W        W33765  14.506  12.355   7.641  0.0111  0.3267 -0.0217
    1W        W33766  17.032   5.512   1.123 -0.2695 -0.1318  0.2076
    1W        W33767  17.435  25.262   7.647 -0.0815  0.0176 -0.1292
    1W        W33768  16.635  17.940   1.516  0.2920  0.2714 -0.0176
    1W        W33769  24.166   2.549   0.977 -0.2663  0.0824  0.1041
    1W        W33770  12.886  28.366   9.911  0.0206 -0.0846  0.0821
    1W        W33771   9.739   9.664   9.088 -0.3205  0.0667 -0.1029
    1W        W33772  13.213  14.845   7.910  0.0701 -0.0999  0.1259
    1W        W33773  21.925  24.469   9.776 -0.4976  0.0689  0.1440
    1W        W33774  12.327   2.397   9.204 -0.0728  0.0576  0.0565
    1W        W33775  25.843  16.030   3.619 -0.1133  0.2362 -0.0854
    1W        W33776  12.302  16.759   9.495  0.0915  0.0669  0.0532
    1W        W33777  26.789  10.549   8.102 -0.1792  0.2434 -0.2417
    1W        W33778  22.336  11.657   1.842 -0.1364  0.1348  0.0125
    1W        W33779   5.666  12.689   2.853  0.3345 -0.1188 -0.0671
    1W        W33780  27.535   3.469   8.790 -0.0125  0.1570 -0.1959
    1W        W33781  13.750  23.804   2.717 -0.1368  0.1857  0.0669
    1W        W33782  26.326   7.186   3.255  0.0366 -0.3849  0.1206
    1W        W33783  12.043  13.111   7.250 -0.0743 -0.0741 -0.0201
    1W        W33784   8.057  18.925   9.438  0.0727  0.0705  0.2886
    1W        W33785  19.538   3.884   6.543 -0.0502 -0.2477 -0.1514
    1W        W33786  22.649  26.330   3.226  0.1876 -0.1248  0.1548
    1W        W33787   7.042   1.455   7.983 -0.0592  0.0269 -0.1441
    1W        W33788   3.318  11.530   2.792 -0.1176  0.2714  0.2851
    1W        W33789   9.114   2.488   0.611  0.0430 -0.0212  0.1821
    1W        W33790  11.078  14.111   8.833 -0.0822 -0.2135  0.1095
    1W        W33791  17.449  12.986   8.462 -0.1066 -0.2950  0.2921
    1W        W33792  12.775  25.888   7.113  0.0553  0.0895 -0.0709
    1W        W33793  14.280   2.022   9.103 -0.7794  0.1232  0.1596
    1W        W33794  17.844   5.901   7.066 -0.0721  0.0858 -0.3695
    1W        W33795  16.978  10.910   8.730  0.1371  0.1448 -0.2409
    1W        W33796   3.222  27.458   1.283 -0.1757  0.2904  0.2688
    1W        W33797   9.293  24.770   2.738  0.0893  0.0410 -0.0824
    1W        W33798  20.667  17.599   8.947  0.3563 -0.0003  0.0277
    1W        W33799   2.695  25.046   8.553  0.0432 -0.1868 -0.1754
    1W        W33800  24.796  17.325   9.610  0.0650  0.1355  0.1566
    1W        W33801   6.455   2.617   0.621 -0.0803  0.2799 -0.0652
    1W        W33802   1.416  28.245   1.942  0.2774  0.0815  0.1134
    1W        W33803   2.290  21.129   1.962  0.2570 -0.0824 -0.0515
    1W        W33804  22.594  23.037   0.056 -0.2519  0.0623  0.0584
    1W        W33805  24.567   1.209   0.490 -0.0581  0.1445  0.0636
    1W        W33806  17.992  15.688   2.373  0.0755 -0.0029 -0.3390
    1W        W33807   9.838   0.111   1.031 -0.0525 -0.2216 -0.1531
    1W        W33808  13.877  17.581   9.026  0.1488 -0.0718  0.0283
    1W        W33809  19.177  12.561   1.969 -0.2809  0.0731  0.0100
    1W        W33810  18.801   3.475   8.387  0.1923  0.1260 -0.0635
    1W        W33811  15.113   7.069   5.377 -0.0178 -0.0118  0.0219
    1W        W33812   7.197   1.207   1.565  0.2006 -0.2161 -0.2365
    1W        W33813   0.848  13.340   1.410 -0.0322  0.1658  0.2721
    1W        W33814   9.927  18.379   6.652  0.0098  0.1968 -0.0743
    1W        W33815   9.555  26.473   2.661 -0.2358 -0.2520 -0.0730
    1W        W33816   4.680   4.363   0.267 -0.3185  0.1341  0.3741
    1W        W33817  26.956  11.277   7.462 -0.0471  0.1319  0.2368
    1W        W33818   1.236  13.510   7.723 -0.2908  0.1438 -0.0868
    1W        W33819  24.684  16.807   2.041 -0.3176 -0.2327 -0.1962
    1W        W33820  18.520  20.883   1.237  0.1381  0.1566 -0.0218
    1W        W33821   8.318   9.583   7.920  0.3097 -0.0932  0.0257
    1W        W33822  14.841  10.159   7.680  0.0751  0.0304 -0.0240
    1W        W33823   6.251   4.003   0.649  0.3947  0.1557 -0.2257
    1W        W33824  22.622   1.585   1.999 -0.0485  0.0503  0.0173
    1W        W33825  17.858  26.660   1.223 -0.4208  0.2191  0.2104
    1W        W33826  25.725  20.830   2.942  0.0362  0.0742 -0.1920
    1W        W33827  22.648  28.723   8.327 -0.2483 -0.0323 -0.1282
    1W        W33828   6.625  27.421   8.850 -0.1574 -0.0607  0.1825
    1W        W33829  23.618   6.027   0.048  0.1323  0.0976  0.4272
    1W        W33830   7.973  17.078   9.191  0.1432  0.0102 -0.2792
    1W        W33831   8.704  20.041   1.089 -0.0521 -0.3478 -0.0824
    1W        W33832  26.368   9.106   0.428 -0.2134 -0.0902 -0.3096
    1W        W33833  13.638   6.583   9.475 -0.1751 -0.3365 -0.4465
    1W        W33834  21.122  26.534   2.755  0.3874  0.0092 -0.2585
    1W        W33835  28.450   4.113   3.526 -0.0497  0.3132 -0.1321
    1W        W33836  17.932  13.790   2.257  0.0963 -0.1068  0.0116
    1W        W33837  26.348   5.491   1.959 -0.0407 -0.0347  0.2093
    1W        W33838  26.941   8.294   8.176  0.1074 -0.0913 -0.1264
    1W        W33839  18.893   5.343   8.957 -0.0537 -0.4338 -0.0403
    1W        W33840  27.509  12.757   8.134  0.4661 -0.0345 -0.0650
    1W        W33841   6.185   4.553   9.427 -0.4036 -0.1920 -0.1383
    1W        W33842   2.028   6.329   0.195 -0.1897 -0.3582  0.0608
    1W        W33843  26.707   1.340   7.982  0.0004  0.0763 -0.2067
    1W        W33844  15.218  11.870   1.542  0.0237  0.3038  0.0548
    1W        W33845   1.878  15.907   3.240 -0.1973 -0.2452 -0.0036
    1W        W33846   3.431  15.194   1.013 -0.0015  0.0739 -0.0967
    1W        W33847  27.626  10.621   1.774  0.1739  0.2229 -0.0564
    1W        W33848  20.117  27.272   9.362  0.2511 -0.1314  0.0632
    1W        W33849  25.853  24.596   0.387 -0.4130 -0.0898 -0.0220
    1W        W33850  18.272  14.294   1.150 -0.4775 -0.1489 -0.0792
    1W        W33851  18.180  14.375   8.766 -0.1058 -0.0108  0.1852
    1W        W33852  24.226  16.627   1.948  0.1508 -0.0160  0.2755
    1W        W33853  15.751   0.906   8.170 -0.1221 -0.0962 -0.2447
    1W        W33854  20.239  11.586   9.558 -0.1721 -0.0504 -0.0158
    1W        W33855  22.484   7.588   8.781  0.0507  0.1541 -0.2251
    1W        W33856  23.559  15.262   7.722  0.0051  0.0438 -0.1930
    1W        W33857   4.949  19.878   8.566  0.2253 -0.0518  0.3118
    1W        W33858   6.315  25.841   8.861  0.1113 -0.3127  0.1783
    1W        W33859  26.513   6.516   2.714 -0.0797 -0.3508  0.1179
    1W        W33860   0.714  27.149   8.074 -0.0680 -0.0106  0.0321
    1W        W33861   1.634  18.764   7.756 -0.0455 -0.0378  0.0259
    1W        W33862  20.148  21.018   6.309 -0.0155  0.1133  0.0617
    1W        W33863  20.443  17.571   8.315  0.1473 -0.0490  0.1949
    1W        W33864  13.600  21.459   8.975  0.1606  0.2167 -0.1098
    1W        W33865  25.444  20.344   1.573 -0.0006  0.1371 -0.0827
    1W        W33866   9.321  22.028   2.828  0.0957 -0.2559  0.0049
    1W        W33867  21.265   8.375   8.971 -0.0732  0.0911 -0.1820
    1W        W33868  24.951   8.318   0.033 -0.0163  0.1303 -0.1882
    1W        W33869  10.523   0.121   2.529  0.1693  0.0840  0.0934
    1W        W33870  17.977   7.202   1.063 -0.0243 -0.1065 -0.0602
    1W        W33871  14.015   2.649   2.340 -0.0049 -0.0248  0.2859
    1W        W33872  10.990  15.577   8.066  0.1361  0.3390 -0.0833
    1W        W33873   3.528   4.523   0.702 -0.3903  0.3941 -0.1698
    1W        W33874  10.090  27.721   2.562  0.2996  0.2570 -0.0161
    1W        W33875   2.674  14.785   7.741  0.1625 -0.3136  0.2782
    1W        W33876   9.899   8.226   1.532 -0.1284  0.0175  0.0522
    1W        W33877  17.238  18.666   6.745 -0.2042 -0.2760 -0.1308
    1W        W33878  22.149   0.178   9.460  0.0361  0.2469  0.0669
    1W        W33879  24.760   7.479   7.883  0.1541 -0.2140  0.2505
    1W        W33880  13.393   6.251   9.262  0.0552 -0.0375 -0.0080
    1W        W33881   2.196  15.972   0.418  0.0496  0.2323  0.1528
    1W        W33882   3.963  25.937   8.763  0.1844  0.1797 -0.0183
    1W        W33883  16.966  14.216   9.612 -0.1405 -0.3966 -0.2582
    1W        W33884  16.100  28.423   8.879  0.0329  0.1812  0.2581
    1W        W33885  13.837  22.763   8.922  0.2189  0.0058  0.0288
    1W        W33886  11.260  27.778   8.694 -0.0233  0.3232 -0.1748
    1W        W33887  24.360   3.007   1.843  0.0522 -0.1743  0.0642
    1W        W33888  23.538   9.363   9.562 -0.2876  0.1594 -0.1898
    1W        W33889   2.500  22.930   7.725 -0.0269  0.0477  0.1709
    1W        W33890  23.548  18.706   3.090  0.2571 -0.2697 -0.3458
    1W        W33891   9.325  12.882   8.886  0.3646 -0.2035  0.0594
    1W        W33892  23.407  20.994   9.966  0.2220  0.0516 -0.1081
    1W        W33893  12.039  27.953   9.177  0.0120  0.1681  0.1116
    1W        W33894   8.736  12.873   9.264 -0.0044 -0.5982 -0.0030
    1W        W33895  22.912   7.004   1.892  0.2891 -0.1536 -0.1439
    1W        W33896   3.345  15.583   1.321 -0.1354  0.0832 -0.0259
    1W        W33897   1.718  14.827   3.139  0.2511 -0.3864 -0.0647
    1W        W33898  14.095   4.770   1.379  0.2728  0.1654 -0.0203
    1W        W33899   2.780   6.005   3.020 -0.1687 -0.2659 -0.1585
    1W        W33900   6.388  19.009   0.833  0.0380  0.1732  0.0466
    1W        W33901   6.395  27.965   1.383  0.1838  0.1989 -0.0204
    1W        W33902  14.841  14.557   9.562  0.0448 -0.0080  0.1091
    1W        W33903   8.123   8.114   0.986  0.1390 -0.0500 -0.0688
    1W        W33904  12.767  27.309   8.875  0.0408 -0.2834  0.2086
    1W        W33905   5.009  13.297   2.774 -0.1949 -0.1907 -0.1189
    1W        W33906  12.652   6.105   6.558  0.0611 -0.1239  0.0625
    1W        W33907   8.166  20.438   0.535  0.1377  0.1657 -0.2209
    1W        W33908  22.316  15.305   1.092  0.1722  0.0347  0.0161
    1W        W33909  23.225   4.655   9.552 -0.1722  0.0646 -0.0945
    1W        W33910   2.685   6.479   9.155  0.0269  0.2020 -0.1844
    1W        W33911  23.338  22.657   2.653  0.3979  0.0387 -0.1170
    1W        W33912  23.165  25.871   7.528 -0.0860 -0.2392 -0.0090
    1W        W33913   7.037  21.936   0.166 -0.1820  0.0418  0.2747
    1W        W33914  19.610  26.622   1.722  0.2042 -0.0859 -0.1049
    1W        W33915   0.395   4.261   4.573  0.0072 -0.0429  0.0118
    1W        W33916  18.010  20.013   8.524  0.0252  0.1106 -0.0518
    1W        W33917  27.815  21.142   2.508  0.0723  0.3028  0.1096
    1W        W33918  14.828  25.221   9.292  0.0130 -0.0546  0.1270
    1W        W33919  11.801  24.121   1.009  0.2084  0.0803 -0.0977
    1W        W33920  26.485  14.002   1.639 -0.0883  0.0773 -0.0991
    1W        W33921  13.250  11.797   5.685  0.1656 -0.1903  0.3902
    1W        W33922  11.766  14.724   7.213 -0.1875  0.1590  0.2006
    1W        W33923  14.448  13.039   6.860 -0.0389 -0.1539  0.0437
    1W        W33924   2.701   7.129   0.960  0.0753 -0.2224 -0.1643
    1W        W33925   9.658  16.573   9.948  0.0335  0.1198  0.1143
    1W        W33926  14.689  27.636   0.734 -0.2744  0.4853  0.0421
    1W        W33927  16.156   7.172   6.373  0.0957 -0.0485 -0.2877
    1W        W33928  17.516  22.854   8.325  0.1272  0.0207 -0.1207
    1W        W33929   9.183  27.323   2.962  0.0752  0.6892 -0.1624
    1W        W33930  23.579  15.527   8.207 -0.0338 -0.0565 -0.0845
    1W        W33931   7.847  10.604   0.748  0.0930 -0.0384  0.0413
    1W        W33932  10.944   2.731   9.335  0.1385  0.2010 -0.1505
    1W        W33933   6.024  26.833   9.981  0.0152  0.3144  0.1376
    1W        W33934  24.337  27.922   3.209 -0.1693 -0.4247 -0.2582
    1W        W33935  23.800  19.971   9.859 -0.0093  0.0895 -0.1843
    1W        W33936  20.177  27.874   9.151  0.0481 -0.2044  0.1010
    1W        W33937  11.258  14.675   8.082  0.1387 -0.0998  0.3757
    1W        W33938  20.230  14.443   9.727  0.2995 -0.3570  0.1015
    1W        W33939   3.481  24.708   1.853 -0.1672  0.0195 -0.0856
    1W        W33940  19.902  18.044   1.406  0.0811 -0.3173  0.1414
    1W        W33941   1.945   2.069   9.875 -0.0247  0.1396  0.1198
    1W        W33942  10.766  12.251   6.772 -0.1673  0.0731  0.2662
    1W        W33943  14.194  23.438   0.326 -0.2224  0.3044 -0.0203
    1W        W33944  25.516   5.829   3.834  0.0414  0.3415  0.0110
    1W        W33945  15.984  28.803   0.515 -0.0569 -0.1429 -0.0505
    1W        W33946  13.882  22.922   3.163  0.1329 -0.1383  0.2927
    1W        W33947  15.707   0.099   6.686  0.2053 -0.0580 -0.0074
    1W        W33948  24.972  15.068   2.226 -0.1755 -0.1013 -0.0314
    1W        W33949   4.506  12.835   7.720  0.4089 -0.1695  0.1300
    1W        W33950  28.459   9.978   3.329 -0.0062  0.0703  0.0916
    1W        W33951   8.221   0.730   8.422  0.1774  0.1710  0.1385
    1W        W33952  20.336  21.598   1.845 -0.3483 -0.1922 -0.3594
    1W        W33953   6.516  14.464   2.084 -0.2323 -0.2851  0.2469
    1W        W33954  22.195  24.938   7.974  0.0314 -0.0199  0.4501
    1W        W33955   7.566  24.414   0.206 -0.0805 -0.2164  0.0253
    1W        W33956  28.555  15.684   1.470 -0.0190 -0.0238  0.0535
    1W        W33957  22.990   1.319   1.329  0.2761 -0.1308  0.1353
    1W        W33958  24.998  11.085   1.544 -0.1203  0.0772  0.1091
    1W        W33959  21.885   3.465   0.267 -0.1672  0.0240  0.2780
    1W        W33960  17.114  13.167   7.111  0.1036  0.0211 -0.2935
    1W        W33961   3.955  23.662   2.198 -0.1593  0.1500 -0.0365
    1W        W33962   6.498  21.969   7.314  0.1619 -0.2582 -0.2746
    1W        W33963  12.292  17.451   0.103  0.1662  0.3223 -0.0468
    1W        W33964   5.673  11.651   9.209  0.3473 -0.0951  0.0977
    1W        W33965  25.476  11.975   2.865  0.3057  0.1074  0.1643
    1W        W33966   6.307  22.005   9.527  0.1039  0.2722 -0.1381
    1W        W33967   9.009  15.764   1.353  0.1977 -0.2040  0.1336
    1W        W33968  28.054   6.037   8.693  0.0093 -0.1589 -0.0736
    1W        W33969   3.421   5.285   9.511 -0.2588  0.1318 -0.0095
    1W        W33970  13.009  22.128   0.764  0.3131 -0.1181  0.0132
    1W        W33971  22.061  20.131   9.244  0.2822  0.0817 -0.2592
    1W        W33972   9.330   5.144   7.640  0.0185  0.0490  0.0371
    1W        W33973   2.018  24.315   8.565 -0.0906 -0.0678  0.0599
    1W        W33974   8.577  27.447   7.727 -0.2217  0.2687 -0.0486
    1W        W33975  23.123  27.669   7.920  0.0455  0.0972 -0.2147
    1W        W33976   4.556   8.247   8.823  0.1738  0.1191 -0.1420
    1W        W33977  12.841  14.245   0.369  0.4711 -0.3017 -0.0137
    1W        W33978  16.441  17.366   6.647 -0.0824  0.0502  0.2726
    1W        W33979  10.408   9.308   9.785  0.3889  0.2138 -0.1783
    1W        W33980  22.764   5.525   0.090  0.0648  0.2374  0.0230
    1W        W33981   7.228  18.936   0.995  0.1296  0.0169  0.1236
    1W        W33982  10.061   0.548   1.059 -0.2030 -0.0477 -0.3468
    1W        W33983  10.018   7.829   7.965 -0.3178  0.0113  0.1041
    1W        W33984  12.225  14.143   7.712  0.2105 -0.0717  0.0461
    1W        W33985  16.524  17.091   8.701 -0.1503  0.0151 -0.4181
    1W        W33986  12.321  26.585   9.053  0.2395 -0.0603  0.0318
    1W        W33987  10.581  13.751   2.437  0.1265  0.2359 -0.2263
    1W        W33988  27.653   5.168   2.988 -0.0827  0.1320 -0.0181
    1W        W33989  21.704  10.647   0.602 -0.0206 -0.2260 -0.1225
    1W        W33990  11.060   8.861   6.057  0.1944  0.1218  0.0707
    1W        W33991  28.497  15.391   9.271 -0.1551 -0.0295 -0.1545
    1W        W33992  13.284   3.059   9.832 -0.3182 -0.0149  0.1017
    1W        W33993  18.438  26.598   7.878  0.0605  0.0004  0.0112
    1W        W33994   5.639  24.582   8.784  0.2271  0.2304 -0.2986
    1W        W33995  25.186   5.723   9.620  0.0013  0.0913  0.1161
    1W        W33996  24.370  10.808   2.700  0.2569 -0.1554  0.1141
    1W        W33997  15.495  18.032   7.492  0.1947  0.0408 -0.0049
    1W        W33998   2.617   3.568   8.907  0.0862 -0.5463 -0.0970
    1W        W33999   2.718  11.059   9.475 -0.1473  0.2233  0.0277
    1W        W34000   7.211  20.420   6.495 -0.1371 -0.0858 -0.2045
    1W        W34001  23.886   4.867   1.355 -0.1683 -0.0287  0.3813
    1W        W34002   7.302   2.202  10.000  0.0052 -0.0219  0.0009
    1W        W34003   6.285  19.124   1.298  0.0061  0.1851  0.2371
    1W        W34004   9.070  25.491   0.556 -0.0846 -0.2207  0.2623
    1W        W34005   0.736  15.958   1.620  0.0285  0.0854  0.0860
    1W        W34006  21.115  11.845   0.730  0.1181  0.1768  0.0287
    1W        W34007  11.646  23.027   8.920 -0.1140  0.2179 -0.0506
    1W        W34008  19.528  19.258   6.328  0.0802  0.1799  0.0969
    1W        W34009  25.382   4.183   9.004  0.0653 -0.1337  0.2292
    1W        W34010  15.316  23.084   3.108  0.1615 -0.1841 -0.1450
    1W        W34011   8.619   9.914   6.926  0.2988  0.2935 -0.1992
    1W        W34012   1.052  28.324   3.410 -0.0395  0.4964  0.0518
    1W        W34013  27.348  27.148   3.380 -0.2210 -0.0609 -0.1483
    1W        W34014  28.083  17.009   2.917  0.2185  0.1516  0.1508
    1W        W34015  27.285  27.975   0.046 -0.0191 -0.0862  0.2333
    1W        W34016   9.451  13.708   5.920 -0.0384  0.4408  0.0284
    1W        W34017   8.761   4.604   1.894  0.0047  0.2154 -0.1354
    1W        W34018   3.134   1.354   2.422 -0.2099 -0.0236  0.3335
    1W        W34019  15.740   3.487   8.864  0.0278 -0.1197 -0.4902
    1W        W34020  22.344  25.848   1.600 -0.0676 -0.0630 -0.1369
    1W        W34021   8.442   2.739   1.905 -0.2233  0.2644 -0.0167
    1W        W34022  15.062   1.771   7.862  0.2032  0.0997  0.2560
    1W        W34023   8.854   5.384   7.334 -0.0581 -0.0057  0.3589
    1W        W34024  21.611   0.797   0.246 -0.3031 -0.1472 -0.0093
    1W        W34025  13.071  16.786   0.350  0.0065 -0.0298  0.1873
    1W        W34026   8.932  11.724   6.961  0.3278 -0.1341  0.0106
    1W        W34027   1.067  11.711   3.097  0.1328  0.0838  0.1386
    1W        W34028   3.848  15.144   2.094  0.0635  0.1763 -0.3195
    1W        W34029   7.809  10.898   7.499 -0.2372  0.1030 -0.0995
    1W        W34030   9.206   7.069   0.276 -0.0589  0.0090 -0.0951
    1W        W34031   9.307  18.699   0.031 -0.1811 -0.0368  0.0074
    1W        W34032   5.638   4.695   3.600  0.0534 -0.0317  0.0487
    1W        W34033  18.887  15.377   0.891  0.4538 -0.1570  0.5137
    1W        W34034  25.459   1.222   9.556 -0.0779 -0.1481 -0.1411
    1W        W34035   5.696   0.755   7.609  0.2377  0.1897  0.1436
    1W        W34036  16.632  13.883   8.821 -0.1558  0.2340  0.0905
    1W        W34037  12.615   5.466   8.133 -0.2744  0.2146 -0.2769
    1W        W34038  20.204  22.201   9.194 -0.0761 -0.0528 -0.3446
    1W        W34039  24.116  25.306   9.467 -0.0771  0.0372  0.0442
    1W        W34040  28.206  21.518   0.603 -0.2274  0.2365  0.0318
    1W        W34041  15.462  19.290   2.119  0.1333 -0.0141  0.0903
    1W        W34042  21.033  11.047   8.356 -0.3065  0.0379  0.0970
    1W        W34043  26.373  16.307   0.664  0.0987 -0.6665 -0.0726
    1W        W34044  23.734   0.874   7.459 -0.0270  0.0341 -0.1190
    1W        W34045  23.905   3.035   2.443 -0.1155 -0.0724 -0.3480
    1W        W34046   8.468   8.551   0.162 -0.0041  0.0654  0.0306
    1W        W34047  17.833  19.051   1.759 -0.0711 -0.0812 -0.4255
    1W        W34048  20.537  25.527   2.575 -0.0833 -0.3818 -0.1666
    1W        W34049   4.102  28.521   1.497  0.0121 -0.1439  0.0923
    1W        W34050   0.788  27.662   0.362  0.2330 -0.1124  0.1709
    1W        W34051  17.948  26.198   1.120  0.2214 -0.0376 -0.0347
    1W        W34052  22.879   6.362   8.218 -0.0664  0.2518 -0.2829
    1W        W34053   4.501   0.195   0.595 -0.2486  0.0569 -0.0567
    1W        W34054   3.953   8.535   2.811  0.2944  0.0396 -0.1236
    1W        W34055  14.066   4.888   7.949  0.0580  0.1337  0.3427
    1W        W34056  20.340  23.306   8.042 -0.1871  0.1812  0.0010
    1W        W34057  10.856   0.566   6.620 -0.0742 -0.2418  0.1209
    1W        W34058  13.422  23.885   1.338 -0.0143  0.4956 -0.1745
    1W        W34059  11.494  17.289   7.197  0.2619  0.4652  0.1672
    1W        W34060  26.299  20.451   9.747  0.0276  0.6541  0.3209
    1W        W34061  19.092  13.710   9.861 -0.2566 -0.0253 -0.1195
    1W        W34062   2.795   2.980   8.449  0.1076 -0.1375  0.2123
    1W        W34063   2.282  14.312   3.771  0.2122 -0.2153 -0.4027
    1W        W34064   6.545   1.228   3.605  0.2911  0.2711  0.4334
    1W        W34065   0.240  11.194   2.737 -0.4868 -0.0304  0.0349
    1W        W34066  24.957  18.087   1.692 -0.3224  0.0118 -0.3688
    1W        W34067  18.820   2.368   8.068  0.1457  0.1678  0.1805
    1W        W34068   1.037   8.901   2.933 -0.1527 -0.0805  0.1925
    1W        W34069  17.535   2.448   7.225  0.1085  0.1460  0.0746
    1W        W34070   3.719  10.527   3.531  0.2724  0.0936  0.2578
    1W        W34071   1.985  24.109   2.891 -0.0112 -0.3166  0.1955
    1W        W34072  18.356  13.201   8.505  0.0649 -0.0347 -0.0420
    1W        W34073  12.213  17.605   2.654 -0.0073  0.0326 -0.0388
    1W        W34074  13.037   6.955   6.269 -0.0831  0.4992 -0.0665
    1W        W34075  17.330  24.486   2.733  0.0856 -0.0815 -0.1675
    1W        W34076  28.014  22.007   7.286  0.1985  0.0036 -0.1366
    1W        W34077   3.022  25.587   1.961 -0.1864 -0.0403  0.1235
    1W        W34078   1.239  20.229   8.632  0.2391  0.1978  0.0986
    1W        W34079  19.126  26.868   2.835  0.1896  0.1076 -0.1026
    1W        W34080   0.813  22.066   7.570 -0.1223  0.0445 -0.3898
    1W        W34081  27.588  22.053   7.590 -0.0089 -0.0019  0.0793
    1W        W34082  18.158  16.495   7.899 -0.1679 -0.1014  0.1649
    1W        W34083  23.326  17.180   9.737  0.1131 -0.1178 -0.1619
    1W        W34084   8.280   7.541   2.264  0.1819  0.0380  0.0799
    1W        W34085  21.858  18.734   8.347 -0.3224  0.1185 -0.1747
    1W        W34086  17.733   2.210   0.306 -0.1922 -0.0507 -0.2200
    1W        W34087   6.751  28.260   1.529  0.2202 -0.0185 -0.1081
    1W        W34088  22.817  12.727   1.601 -0.1192  0.1324 -0.1673
    1W        W34089  25.321  12.388   0.792  0.5082 -0.1082  0.0711
    1W        W34090   7.013   6.934   2.432  0.1747 -0.1636  0.1132
    1W        W34091  23.576  20.794   9.535 -0.1451  0.2651 -0.0641
    1W        W34092  28.476  20.332   8.961  0.1572 -0.1340 -0.2157
    1W        W34093  18.198   6.901   6.915  0.0884 -0.0068 -0.0747
    1W        W34094  24.378  24.596   3.890  0.4393 -0.3144 -0.1782
    1W        W34095  16.804  14.592   5.937  0.0571  0.1939  0.3063
    1W        W34096  11.414  23.093   9.855  0.4458 -0.2136  0.0279
    1W        W34097  14.423  12.788   0.043 -0.0603  0.2708  0.0379
    1W        W34098   2.556  27.673   2.765 -0.1812 -0.1935  0.0006
    1W        W34099   8.280   9.910   6.177 -0.3508 -0.1713 -0.1516
    1W        W34100   8.030   0.229   7.874 -0.2431 -0.1749 -0.0401
    1W        W34101  16.589   5.407   7.969 -0.0617 -0.0868 -0.1090
    1W        W34102  26.824  23.661   7.847  0.0069  0.4157  0.1321
    1W        W34103  17.394   1.288   2.215  0.0658 -0.0288  0.0803
    1W        W34104   9.809  21.366   2.475  0.1481 -0.1498  0.3108
    1W        W34105  16.488   1.684   7.462  0.2557  0.1314 -0.2866
    1W        W34106   1.687  17.775   9.043 -0.2601  0.2516 -0.1366
    1W        W34107   1.405  25.059   0.155 -0.0181 -0.2445 -0.1480
    1W        W34108  25.585   8.160   2.259 -0.3225  0.2393 -0.0169
    1W        W34109   4.765  22.803   1.214  0.2182 -0.1150  0.1268
    1W        W34110   0.439  26.462   1.407  0.2357 -0.0563  0.1111
    1W        W34111  23.024   5.449   3.035  0.1742  0.0150 -0.0030
    1W        W34112  15.423   8.664   1.562  0.3510 -0.0838  0.0945
    1W        W34113   7.830  25.596   4.154 -0.2442 -0.1510 -0.0667
    1W        W34114  14.477   7.696   8.732 -0.0486 -0.1797  0.0342
    1W        W34115   7.965   6.284   1.128 -0.0025 -0.1613 -0.1893
    1W        W34116  15.774  22.111   8.308 -0.2614  0.0138 -0.1677
    1W        W34117   0.209   4.809   9.545 -0.1425 -0.1553  0.1362
    1W        W34118  10.998   5.189   7.219 -0.4524  0.2417  0.0462
    1W        W34119  17.759  19.546   7.249  0.0076 -0.0002  0.0350
    1W        W34120   2.682  13.458   2.169  0.3267 -0.1713  0.0863
    1W        W34121  22.561  12.230   0.090 -0.2910 -0.3015 -0.0069
    1W        W34122   7.692  13.626   0.817 -0.0095  0.3341  0.1943
    1W        W34123   9.126  16.201   6.953  0.3054  0.0658  0.0363
    1W        W34124   5.535  23.691   3.462 -0.1003 -0.0641 -0.3560
    1W        W34125  21.630  19.076   0.618 -0.1029  0.2663  0.1567
    1W        W34126   1.619   5.783   0.284  0.0363 -0.0324 -0.2105
    1W        W34127   3.244   6.557   3.714  0.1747  0.0913  0.0775
    1W        W34128  15.465   2.256   1.738  0.1625  0.1427  0.1256
    1W        W34129   1.507  15.547   2.894  0.1662  0.0486 -0.0781
    1W        W34130  23.075   8.670   1.700  0.1605 -0.0547  0.0150
    1W        W34131  11.337   2.332   6.928 -0.1412 -0.0793  0.1276
    1W        W34132  24.249  11.720   0.025  0.1809  0.1428 -0.0604
    1W        W34133  15.769  16.718   8.701  0.4629 -0.2276 -0.1795
    1W        W34134  15.970  15.268   8.986  0.2568 -0.0347 -0.1881
    1W        W34135  15.144  24.559   8.983  0.2043 -0.0571  0.0429
    1W        W34136   8.648  15.790   0.914 -0.0915  0.0063 -0.2402
    1W        W34137   3.367   5.972   7.912  0.3714  0.2881 -0.0382
    1W        W34138  10.230  11.659   7.023 -0.3597  0.3086  0.0977
    1W        W34139   4.720  16.703   7.389  0.1981 -0.0293  0.0690
    1W        W34140   8.412  28.819   1.953  0.2764 -0.0764 -0.1277
    1W        W34141  10.066  23.015   7.513 -0.2673 -0.5048  0.0293
    1W        W34142  16.441  18.576   0.036 -0.3496 -0.0415  0.0161
    1W        W34143  28.428  18.991   2.427  0.1634 -0.2458  0.2132
    1W        W34144  13.394  12.514   1.061 -0.0303  0.0752 -0.2904
    1W        W34145  26.736   0.547   0.407 -0.3652 -0.1147  0.1485
    1W        W34146  11.536  16.998   2.183 -0.2825  0.2468  0.2959
    1W        W34147  23.937   5.826   2.607  0.2520 -0.3912 -0.0042
    1W        W34148  26.391  20.677   7.741  0.2874 -0.1599  0.0572
    1W        W34149  16.053  14.273   1.783  0.0565 -0.2289 -0.0559
    1W        W34150  18.141  26.171   7.782  0.2238 -0.0317 -0.0647
    1W        W34151  23.092   7.864   8.060 -0.2603  0.2187 -0.0348
    1W        W34152  19.063   9.981   8.940  0.0804  0.1011  0.0204
    1W        W34153   8.826  23.064   9.853 -0.2716 -0.0001 -0.0419
    1W        W34154  21.027   9.315   9.645  0.1006  0.1124  0.2927
    1W        W34155   4.601   7.201   3.328  0.1349  0.0459  0.0455
    1W        W34156  16.012   8.870   0.775 -0.0904 -0.0012  0.1066
    1W        W34157  11.047  10.412   0.195  0.2387  0.1077 -0.2693
    1W        W34158  21.496  12.849   3.192  0.0587 -0.1293 -0.1823
    1W        W34159  20.928  18.890   0.579 -0.3659  0.0533 -0.2795
    1W        W34160  10.751   6.749   0.002 -0.1910 -0.2994 -0.4491
    1W        W34161   9.009  14.700   0.290  0.2224  0.0777 -0.3210
    1W        W34162  22.264  14.384   6.662 -0.0434 -0.1535  0.3485
    1W        W34163  21.107  20.728   0.824 -0.1226 -0.0471 -0.0629
    1W        W34164  16.604  11.312   0.898  0.0511 -0.0659  0.3119
    1W        W34165  15.210  18.623   6.952 -0.3101  0.2116 -0.2093
    1W        W34166  23.132   8.292   2.108 -0.2779  0.0493  0.1867
    1W        W34167   3.690   8.330   2.385  0.2723 -0.1822 -0.0628
    1W        W34168   2.015   9.486   8.188  0.0839  0.1280  0.0989
    1W        W34169  28.449  12.534   8.393  0.1148 -0.0314 -0.0620
    1W        W34170  10.375  17.020   2.355  0.0456  0.0567  0.0277
    1W        W34171  25.241  11.996   6.401 -0.0871 -0.0262 -0.3919
    1W        W34172  25.731  13.147   0.224  0.0333  0.0831 -0.2283
    1W        W34173  12.199   0.749   9.035 -0.4690 -0.2311 -0.1093
    1W        W34174   7.345  26.888   1.281  0.0045 -0.2771  0.2589
    1W        W34175   4.234  18.633   1.874  0.0544 -0.0646  0.2267
    1W        W34176  13.771   8.361   6.649 -0.2113 -0.0123 -0.0079
    1W        W34177  16.042  10.683   8.547  0.0522 -0.1486 -0.0626
    1W        W34178  15.827  12.197   8.570 -0.1714 -0.0772  0.0132
    1W        W34179  24.207  22.064   9.474  0.3537  0.1286 -0.3046
    1W        W34180  13.294  25.823   7.797 -0.2821  0.0853  0.0955
    1W        W34181  17.223  12.957   0.313  0.2351  0.0527  0.1509
    1W        W34182  19.102  26.058   8.920  0.1497  0.1590  0.1925
    1W        W34183  19.165  26.971   0.922 -0.0202  0.3001 -0.1855
    1W        W34184   3.731  22.146   0.256 -0.3614 -0.0151 -0.0171
    1W        W34185  15.673  16.638   7.618 -0.1642 -0.1518 -0.0310
    1W        W34186   1.626  13.224   8.541 -0.2044 -0.0202  0.0902
    1W        W34187   4.627  21.580   9.015  0.1688  0.0473  0.1085
    1W        W34188   7.292   6.646   9.361  0.2007 -0.3862  0.3687
    1W        W34189   9.140  27.396   9.300 -0.1278 -0.0471  0.1993
    1W        W34190  15.990   3.782   0.166  0.1920 -0.1750 -0.0041
    1W        W34191  24.720   2.622   2.485  0.3523 -0.0534  0.0317
    1W        W34192   5.038  10.119   6.837 -0.1523 -0.1432  0.0186
    1W        W34193  16.445   7.930   8.272 -0.1178 -0.0815  0.0657
    1W        W34194  22.164   2.181   1.509  0.1987  0.0808  0.0247
    1W        W34195  26.741  17.369   2.300  0.0098 -0.1367 -0.0963
    1W        W34196  28.787  22.955   9.208 -0.0508  0.1475  0.1311
    1W        W34197  12.879   5.547   0.706 -0.1873 -0.0894 -0.2243
    1W        W34198   6.864   6.044   3.601 -0.0892 -0.0168  0.0160
    1W        W34199  26.081   8.315   2.144  0.2464  0.2518 -0.2207
    1W        W34200   6.419   7.531   7.441 -0.0912  0.0980 -0.1269
    1W        W34201  14.587  15.141   6.321 -0.3561 -0.1313  0.1064
    1W        W34202  12.910  13.541   7.349 -0.0099  0.0461  0.0882
    1W        W34203   6.115  28.820   0.537  0.0128 -0.2050 -0.0571
    1W        W34204   1.723   5.423   8.724  0.1004  0.4673  0.0537
    1W        W34205  23.504  28.091   1.540  0.0979 -0.0917 -0.4490
    1W        W34206  22.660   8.768   9.497  0.1566  0.2997 -0.0377
    1W        W34207  10.906   6.804   8.749 -0.2444  0.1468  0.3146
    1W        W34208  14.004   6.501   8.588 -0.2336  0.1335 -0.1182
    1W        W34209  25.577  12.470   2.684 -0.1300 -0.2871 -0.2431
    1W        W34210   5.868  13.117   7.335  0.1778 -0.0557 -0.1158
    1W        W34211  10.026   4.755   3.148 -0.3211 -0.0150 -0.1624
    1W        W34212  21.357  27.505   1.446 -0.1631  0.3236  0.2303
    1W        W34213  19.455  23.421   7.130  0.1778 -0.1758  0.1757
    1W        W34214   2.953  20.280   2.368 -0.1642 -0.1969  0.1148
    1W        W34215  15.514  19.880   9.334 -0.0116 -0.0475 -0.2558
    1W        W34216   7.813  25.051   2.839 -0.2243  0.1142 -0.1981
    1W        W34217  16.253  19.536   1.536 -0.0290  0.1183 -0.1187
    1W        W34218  12.355   0.905   9.457  0.1080 -0.1752  0.0398
    1W        W34219  11.062  12.602   1.151 -0.1360  0.1058 -0.0576
    1W        W34220  17.971  26.985   0.551 -0.1998 -0.2320 -0.0227
    1W        W34221   7.123   4.440   0.273 -0.1492  0.2125 -0.1323
    1W        W34222   4.488  22.367   7.202  0.1507 -0.0755  0.2432
    1W        W34223   9.154  21.591   2.956  0.0886  0.3079  0.0955
    1W        W34224   3.805   5.605   4.219  0.2648 -0.1818 -0.1085
    1W        W34225  12.489  25.691   1.312  0.2075  0.0229  0.0761
    1W        W34226  11.751   4.975   7.309 -0.1211  0.1480 -0.0849
    1W        W34227   4.403  28.530   3.015  0.1776 -0.1364 -0.5329
    1W        W34228  12.883  28.641   8.015 -0.0539  0.0813  0.0403
    1W        W34229   2.200  11.608   1.830 -0.4477  0.0864 -0.2266
    1W        W34230  18.871  17.986   9.731 -0.0651  0.1074 -0.0553
    1W        W34231   4.791  21.963   7.664 -0.1140 -0.0170 -0.3172
    1W        W34232  25.864   0.968   7.916 -0.0785  0.1281  0.2805
    1W        W34233   7.929  12.505   6.886 -0.3233 -0.0044  0.0269
    1W        W34234   7.164  26.572   1.619  0.0701 -0.1805 -0.1364
    1W        W34235   6.329   8.416   7.200 -0.2630  0.0546  0.2103
    1W        W34236  15.780  20.188   1.225 -0.1348  0.2387 -0.0577
    1W        W34237  20.026   2.443   0.150  0.0813  0.2139  0.2685
    1W        W34238   3.823   0.588   1.560  0.3285 -0.0855  0.2757
    1W        W34239  15.420  12.725   7.472 -0.1537 -0.3281 -0.0138
    1W        W34240  26.105   6.258   2.390  0.0825 -0.0269  0.1403
    1W        W34241   9.346  12.187   9.079 -0.0894  0.0817  0.2178
    1W        W34242  25.371   4.010   1.787  0.0380 -0.1376 -0.1740
    1W        W34243  19.301  21.231   7.036 -0.0581 -0.3518 -0.1133
    1W        W34244  27.263  23.661   9.988 -0.1844  0.1777 -0.0535
    1W        W34245  23.735  16.615   1.766 -0.2162  0.2353 -0.3826
    1W        W34246   0.540  15.991   3.306  0.1476  0.0784  0.1477
    1W        W34247  27.193   0.083   3.675 -0.1029  0.0832 -0.1194
    1W        W34248   3.115   6.842   9.268  0.2998  0.0724 -0.1231
    1W        W34249  21.453   5.017   1.895  0.0121  0.1215 -0.0732
    1W        W34250  22.415   4.003   7.648 -0.1298 -0.1495  0.1422
    1W        W34251  12.938  26.050   6.608  0.3162 -0.2118  0.1491
    1W        W34252  15.003   6.100   8.343  0.4375  0.3779 -0.0443
    1W        W34253  11.580   9.059   7.624 -0.1974 -0.2306  0.1263
    1W        W34254  14.958  19.687   0.900 -0.2693  0.3381  0.2251
    1W        W34255   1.280   5.232   0.127  0.0721 -0.2622  0.0181
    1W        W34256  12.741  23.550   0.945  0.4337 -0.0809 -0.0485
    1W        W34257  15.041  10.673   7.614 -0.2708 -0.0399 -0.2350
    1W        W34258  12.046  21.333   3.268 -0.0804 -0.0131 -0.0801
    1W        W34259  16.562   5.599   9.756 -0.0667  0.0158 -0.0226
    1W        W34260   7.060  23.640   0.233  0.0470 -0.1443  0.1914
    1W        W34261   4.793   4.721   4.220 -0.1134  0.0933 -0.1547
    1W        W34262  22.221   4.180   9.887  0.1788  0.1365  0.0937
    1W        W34263  12.169   0.219   7.062 -0.0195  0.1856  0.0953
    1W        W34264  23.161  15.652   6.800  0.3502 -0.1832 -0.1293
    1W        W34265  11.214  19.654   1.066  0.1643 -0.0072 -0.3731
    1W        W34266  16.409  19.835   9.922  0.1594 -0.0183  0.0044
    1W        W34267   7.985   4.474   1.285 -0.0418  0.1109  0.0370
    1W        W34268  10.074  23.545   1.626  0.2529 -0.0564  0.3063
    1W        W34269  12.935   0.934   8.315  0.2518  0.0128 -0.0690
    1W        W34270  22.001   0.702   9.821 -0.1132 -0.1638  0.1771
    1W        W34271   3.705  28.165   2.502 -0.0543 -0.0447 -0.1195
    1W        W34272  24.359  22.691   0.668  0.4122 -0.0397  0.1158
    1W        W34273  18.196  18.796   6.831 -0.1312  0.2289 -0.0829
    1W        W34274   6.408  15.564   9.556  0.0648  0.1801  0.1297
    1W        W34275  18.774   2.924   9.881 -0.1905 -0.0249  0.0556
    1W        W34276   7.668  24.780   9.399  0.3056  0.0342  0.0147
    1W        W34277  12.070   0.513   1.931  0.0232 -0.1561  0.0322
    1W        W34278   4.514  21.567   2.638  0.1722 -0.4892 -0.1874
    1W        W34279  28.751   9.053   8.493  0.0981  0.2420 -0.1529
    1W        W34280  17.961  10.400   0.503  0.0986  0.1696 -0.0278
    1W        W34281  28.012  10.726   9.932  0.0569  0.0500 -0.1199
    1W        W34282  25.764  14.008   7.488 -0.1702 -0.0153 -0.3179
    1W        W34283  22.446  12.451   7.423  0.1306 -0.2485  0.0935
    1W        W34284  15.169  16.858   7.571  0.0625 -0.0596  0.1037
    1W        W34285  20.912  13.886   6.169 -0.1722 -0.3033 -0.0383
    1W        W34286  21.800  18.689   0.909  0.0772 -0.2878 -0.2843
    1W        W34287  12.825  13.025   7.110  0.2078  0.3192  0.2563
    1W        W34288  13.423   5.819   6.926 -0.0432 -0.1321  0.4108
    1W        W34289  14.566  28.121   0.810  0.0231 -0.1195  0.1173
    1W        W34290  25.844  16.189   9.608  0.0627  0.1745  0.1969
    1W        W34291  27.948  28.318   2.134 -0.0979 -0.1254 -0.0422
    1W        W34292   3.567  16.549   9.242 -0.0012 -0.3295 -0.0291
    1W        W34293   2.711  13.842   1.282  0.1489  0.0067  0.0411
    1W        W34294   7.219   3.915   0.219 -0.1880  0.1554  0.0929
    1W        W34295   8.484   1.936   8.573 -0.1424 -0.0302  0.0741
    1W        W34296  18.820  27.603   9.665  0.0845 -0.3232 -0.0507
    1W        W34297   6.314  28.073   5.383  0.1621  0.0072 -0.0317
    1W        W34298   4.012  28.198   7.198  0.0235  0.2042 -0.1064
    1W        W34299  14.880  17.168   7.936  0.1997 -0.1233  0.0581
    1W        W34300  21.095  19.852   7.354  0.4282  0.3240 -0.1942
    1W        W34301   9.912  22.815   7.926 -0.0374 -0.0200 -0.2487
    1W        W34302  23.136  20.929   8.200  0.2556 -0.2777 -0.0975
    1W        W34303   8.647  28.217   3.167 -0.0191 -0.0563 -0.0815
    1W        W34304  16.099  21.816   8.577 -0.0275 -0.2468 -0.3549
    1W        W34305  19.325   1.370   0.299  0.1144  0.1144  0.1379
    1W        W34306   9.210  17.956   7.368 -0.0169 -0.3047  0.1351
    1W        W34307  12.024  12.653   7.509  0.0816 -0.1289  0.1262
    1W        W34308  20.460   3.596   7.441  0.0751  0.0256 -0.0478
    1W        W34309   3.801  23.911   7.946 -0.0521  0.1994 -0.0054
    1W        W34310   5.938  26.443   0.977  0.2605 -0.1081 -0.0508
    1W        W34311   3.257  16.835   8.929  0.1034  0.0629  0.5145
    1W        W34312  12.960  10.052   8.804 -0.2218 -0.0132  0.1068
    1W        W34313  20.369   4.229   0.691  0.0643  0.0800 -0.1175
    1W        W34314  21.318  13.854   8.495 -0.2002  0.0764 -0.0097
    1W        W34315  23.498  27.606   0.220  0.0055 -0.2775  0.0344
    1W        W34316   3.571  11.161   1.322  0.2876  0.4941  0.0119
    1W        W34317  10.053  27.917   3.615  0.3278 -0.0567  0.0599
    1W        W34318   5.769  28.568   8.891 -0.2578  0.1875 -0.0438
    1W        W34319   0.751  14.542   8.284  0.2610 -0.1273  0.4471
    1W        W34320   8.430   8.231   0.553  0.0235  0.0168 -0.0922
    1W        W34321   4.725   2.543   2.641 -0.1154  0.2769 -0.0367
    1W        W34322  19.034   9.169   7.337 -0.1169 -0.1792  0.2560
    1W        W34323   4.231  13.485   8.887  0.0416  0.0425 -0.0195
    1W        W34324   4.206  24.496   8.616 -0.1944 -0.1572  0.0485
    1W        W34325  19.023  20.849   2.586  0.2442 -0.4888  0.0343
    1W        W34326  25.824   9.385   8.846 -0.0533  0.1479  0.1439
    1W        W34327  27.157  11.139   9.488 -0.5249  0.1517 -0.6059
    1W        W34328  21.589  22.423   9.940  0.0855 -0.1452 -0.3716
    1W        W34329  24.196   3.022   2.889 -0.0838  0.1867 -0.3162
    1W        W34330   0.640  10.803   2.490  0.1528 -0.3072  0.1144
    1W        W34331  23.077  23.871   2.730  0.0578  0.1071  0.1460
    1W        W34332   2.066   2.737  10.000  0.0149 -0.0822  0.1124
    1W        W34333   7.681   7.393   7.710  0.1098 -0.2298 -0.1821
    1W        W34334   6.881   4.678   0.581  0.2025  0.3255 -0.1812
    1W        W34335   9.137   7.252   3.383 -0.0145  0.2129  0.0678
    1W        W34336  19.632  24.106   0.823  0.0565 -0.3562 -0.0020
    1W        W34337  17.237  27.799   1.798 -0.0533  0.1814 -0.0099
    1W        W34338  10.413   6.904   2.173 -0.2107 -0.0356  0.0407
    1W        W34339  22.928   0.929   3.036 -0.1777  0.2462 -0.0595
    1W        W34340  16.982   6.419   6.558 -0.0366 -0.0294  0.2892
    1W        W34341  11.676  22.475   8.017 -0.1472 -0.0828  0.1378
    1W        W34342  26.583   6.131   3.506 -0.0370  0.0582 -0.0683
    1W        W34343  26.476  13.146   9.816 -0.1180  0.2997 -0.1721
    1W        W34344  19.659  21.385   0.366 -0.0611  0.1025  0.0290
    1W        W34345  24.677   5.788   8.138 -0.1460 -0.1882 -0.0200
    1W        W34346  25.253  26.440   2.279  0.1886  0.2438  0.0577
    1W        W34347  22.954  18.683   8.048  0.1244  0.1377  0.3553
    1W        W34348   2.344  10.349   0.384 -0.0087  0.4142  0.2694
    1W        W34349  12.619   0.454   1.723  0.0248 -0.0009 -0.0702
    1W        W34350  21.276  16.845   2.317 -0.0281 -0.0443 -0.1699
    1W        W34351   5.602   9.068   9.998 -0.1106  0.3997  0.1172
    1W        W34352  28.113   1.207   3.377 -0.1296  0.0902  0.0262
    1W        W34353   1.096   1.263   3.386 -0.0231  0.1609 -0.2113
    1W        W34354   0.925  23.252   9.498  0.0685 -0.0179 -0.1471
    1W        W34355   0.438   1.397   2.761 -0.0676 -0.0628  0.0850
    1W        W34356  17.606  10.258   1.495 -0.0378  0.0492  0.2261
    1W        W34357  11.282   7.636   7.942 -0.3751 -0.1792 -0.1356
    1W        W34358   0.574  21.350   9.282 -0.1092  0.0523  0.3554
    1W        W34359  23.984  21.841   8.883 -0.1536 -0.2719  0.0629
    1W        W34360   8.837   9.885   6.361 -0.0002  0.2273 -0.4723
    1W        W34361  17.163  23.473   1.004  0.2462  0.3898 -0.0005
    1W        W34362  17.668  27.922   1.204  0.2223  0.1100  0.0976
    1W        W34363  14.361   2.570   8.734 -0.1785  0.0146  0.1815
    1W        W34364  15.795  23.189   7.652 -0.2284  0.0608  0.2753
    1W        W34365  25.728  11.596   9.228 -0.1993  0.2074 -0.1485
    1W        W34366  15.862   6.516   8.461  0.1815  0.2714 -0.3607
    1W        W34367  28.116  27.038   8.086 -0.0415 -0.0236  0.3637
    1W        W34368   5.954  25.805   8.553  0.0692  0.2135  0.1431
    1W        W34369  27.642  15.847   1.224  0.0424  0.0764  0.0162
    1W        W34370  12.179   2.185   7.031  0.3967  0.0791 -0.1931
    1W        W34371  25.790   0.497   0.902 -0.0692 -0.1717 -0.0547
    1W        W34372  17.748   4.193   1.236 -0.0939 -0.0328 -0.0047
    1W        W34373  18.164  18.399   6.499 -0.1554  0.0055 -0.0647
    1W        W34374  15.174   6.311   0.543  0.0594  0.1417  0.3858
    1W        W34375   6.225  10.533   8.126  0.0263 -0.2682  0.3150
    1W        W34376  10.623  27.538   2.585  0.1344  0.0652 -0.1482
    1W        W34377  22.606  26.738   1.901  0.1711  0.1807  0.0268
    1W        W34378   9.636   6.539   0.882  0.3253  0.0799  0.0945
    1W        W34379  25.027  19.988   0.175  0.2726 -0.0383  0.0153
    1W        W34380  20.721  20.755   1.139  0.3516 -0.0370 -0.2293
    1W        W34381   9.726   6.994   0.328 -0.0701  0.1044 -0.1182
    1W        W34382  28.706   2.496   3.197 -0.1281  0.0411  0.0781
    1W        W34383   8.489  15.740   6.492  0.2032  0.0157  0.1837
    1W        W34384  13.577  11.981   1.222  0.0446  0.2208  0.0289
    1W        W34385  25.196   4.358   3.530 -0.2122  0.0954 -0.0926
    1W        W34386  23.125   5.141   9.638  0.2204 -0.2116 -0.1835
    1W        W34387   8.497  25.951   8.934  0.1152 -0.0299  0.0506
    1W        W34388  15.427  10.132   6.455  0.0878 -0.0211 -0.2427
    1W        W34389   1.817   6.794   7.595  0.1869 -0.2628  0.1115
    1W        W34390   4.007   1.575   3.289  0.0539 -0.0776  0.0743
    1W        W34391   0.392  13.174   9.528 -0.0417 -0.0104  0.0032
    1W        W34392  19.454  18.187   2.135 -0.1766  0.1663  0.0808
    1W        W34393  15.819   0.690   9.635 -0.0713 -0.0202  0.1646
    1W        W34394  27.594   9.132   1.339  0.1311 -0.1191 -0.0819
    1W        W34395   6.761  10.901   9.966  0.3598  0.0892  0.1654
    1W        W34396   4.179   9.215   2.295  0.2824  0.1250  0.0436
    1W        W34397   6.879   4.189   9.947  0.2593 -0.0436 -0.0116
    1W        W34398  18.668  22.104   8.101 -0.2201  0.0164 -0.0101
    1W        W34399  22.175   8.757   1.861  0.0928  0.1119 -0.1507
    1W        W34400  19.620   7.698   0.455  0.1168  0.1454  0.1179
    1W        W34401  24.654  10.996   7.523  0.1425 -0.0041  0.0180
    1W        W34402  27.432  16.849   8.790  0.1068  0.1955 -0.0550
    1W        W34403  18.884  17.301   6.697 -0.1319  0.2301 -0.5693
    1W        W34404   8.777  24.252   7.178  0.4416  0.0262  0.0820
    1W        W34405  13.031  20.097   1.283  0.0870 -0.1140 -0.3632
    1W        W34406   8.264  27.538   7.354 -0.1698  0.3557 -0.2415
    1W        W34407  27.878  19.624   1.138 -0.0776  0.1705  0.2341
    1W        W34408  26.825  13.327   8.290 -0.3602  0.0142 -0.3814
    1W        W34409  16.210  14.135   0.979  0.1352  0.1357 -0.0246
    1W        W34410  21.673  15.033   1.824  0.3684  0.0339  0.0897
    1W        W34411  21.566   3.221   8.069  0.3959  0.0909 -0.0685
    1W        W34412  14.926   0.520   8.991  0.3373  0.0823  0.0716
    1W        W34413   1.702   6.698   8.973 -0.1066  0.1771 -0.2658
    1W        W34414  14.639  26.104   7.378 -0.1321 -0.0289  0.1296
    1W        W34415  19.485  23.810   9.792  0.0739  0.2557 -0.2569
    1W        W34416  10.521  22.673   9.744  0.0220  0.0500  0.0396
    1W        W34417  12.394  24.891   9.694 -0.0207 -0.1116 -0.0079
    1W        W34418  16.204  11.211   6.887  0.2897 -0.3795 -0.0368
    1W        W34419  10.573  15.235   7.014  0.2631 -0.4162 -0.5133
    1W        W34420   5.039  10.626   7.136 -0.0754 -0.2542 -0.0249
    1W        W34421  23.072   7.279   6.467  0.1636 -0.2224  0.0030
    1W        W34422   6.542   9.957   8.410 -0.2687 -0.0948  0.1916
    1W        W34423  14.084  27.526   9.012  0.1108 -0.1690 -0.0810
    1W        W34424   3.834  19.017   8.145 -0.0609  0.1912 -0.2578
    1W        W34425  16.467  11.304   9.607 -0.0741  0.0827 -0.0037
    1W        W34426   9.303  11.751   8.609 -0.0562  0.1410  0.0538
    1W        W34427  10.183  21.330   0.815  0.3605 -0.1239 -0.1812
    1W        W34428  25.607  13.908   2.411 -0.0839  0.0905  0.0834
    1W        W34429  10.435  18.905   0.960 -0.2389  0.1683  0.1043
    1W        W34430  14.572  13.598   8.150  0.1644 -0.1210 -0.1138
    1W        W34431  25.973  15.349   0.203 -0.0302 -0.2570  0.1117
    1W        W34432  21.366   1.190   9.958  0.0920  0.0575 -0.2777
    1W        W34433   9.540   2.223   1.944 -0.2758  0.0055  0.0122
    1W        W34434  10.413  13.135   8.164  0.0129  0.3198  0.0618
    1W        W34435  12.428  12.238   0.586 -0.0742 -0.0673 -0.1761
    1W        W34436  14.112  28.175   1.113  0.2478  0.1047 -0.2623
    1W        W34437  26.979  16.461   8.812  0.0260 -0.0546  0.3615
    1W        W34438  18.921  17.483   8.960 -0.0831 -0.1232 -0.1972
    1W        W34439  12.846  21.133   0.663  0.3738  0.1138  0.1706
    1W        W34440  25.686   9.980   7.827  0.0147 -0.0374 -0.0129
    1W        W34441  26.557  27.390   3.347  0.3027  0.0610 -0.0459
    1W        W34442  27.773  25.339   8.208 -0.0555 -0.1356 -0.2653
    1W        W34443  26.360  26.871   1.935  0.2729 -0.0741  0.1882
    1W        W34444  12.196   6.520   7.895  0.3249 -0.0167 -0.0665
    1W        W34445  23.301  17.272   7.373  0.0845  0.0498  0.2900
    1W        W34446   5.444   7.306   3.545  0.0963  0.2287  0.1598
    1W        W34447   1.255  24.962   8.498 -0.0193 -0.0277  0.1819
    1W        W34448   1.614  15.152   0.608  0.0545  0.1643  0.0087
    1W        W34449  13.538  16.518   7.208  0.0521  0.1402  0.1356
    1W        W34450  24.375   6.597   7.037  0.0617 -0.2185  0.0243
    1W        W34451  18.636   8.544   0.190  0.0686 -0.0323 -0.1902
    1W        W34452  18.746  21.764   1.879 -0.3310 -0.0137  0.0616
    1W        W34453   4.673  15.951   6.598  0.0602  0.1880 -0.3568
    1W        W34454   6.703  12.142   6.810 -0.0092  0.0371  0.1372
    1W        W34455  19.301  10.446   7.080  0.1800 -0.1256  0.1688
    1W        W34456   3.118  22.490   9.936  0.0660  0.2593 -0.1940
    1W        W34457  13.485   7.789   9.480 -0.0888 -0.0800  0.1208
    1W        W34458  23.608   5.375   8.811 -0.0799 -0.0515  0.1228
    1W        W34459   1.413   8.217   1.272  0.3293  0.2050 -0.0890
    1W        W34460   4.736  17.966   2.505 -0.0307 -0.2918  0.2320
    1W        W34461  16.606   7.977   9.568  0.0433 -0.3572 -0.0583
    1W        W34462  22.585  15.858   7.003 -0.2045 -0.0830  0.0444
    1W        W34463   0.173   5.551   3.377  0.2991 -0.1749 -0.0042
    1W        W34464  27.219  17.468   2.282  0.1061 -0.0990 -0.0693
    1W        W34465   9.387   6.122   9.794 -0.0898  0.0157  0.1894
    1W        W34466  20.123  11.350   9.047 -0.0195  0.0586 -0.2536
    1W        W34467  23.078   2.689   1.997  0.0687 -0.1137 -0.0666
    1W        W34468   1.428  14.735   0.282 -0.4365 -0.0104 -0.3059
    1W        W34469   3.199   0.239   1.310  0.0383 -0.2243 -0.2260
    1W        W34470   4.638  25.798   3.703  0.0054  0.0441  0.1445
    1W        W34471   0.967   1.009   2.374 -0.1469 -0.1385 -0.3760
    1W        W34472  16.510   0.088   9.737 -0.3257  0.4391  0.0665
    1W        W34473   0.931  23.291   3.953  0.2725  0.0047  0.1942
    1W        W34474  12.149  25.290   7.599  0.0908  0.0753  0.0477
    1W        W34475   9.276  21.296   1.512  0.1967  0.1569  0.1514
    1W        W34476  13.383  10.452   7.637  0.3026 -0.3258 -0.0602
    1W        W34477   9.452  12.174   6.271  0.1071 -0.0084 -0.1307
    1W        W34478  13.633  19.435   7.029 -0.1741 -0.0732  0.3192
    1W        W34479   3.761  11.564   8.593  0.2549 -0.1270  0.2660
    1W        W34480  26.285   0.667   7.569 -0.0980  0.0832 -0.2188
    1W        W34481   1.920   3.422   8.102  0.0011  0.0840  0.3175
    1W        W34482  18.185  14.229   2.047  0.1508 -0.0396  0.1897
    1W        W34483  20.490  11.791   7.218 -0.2284 -0.0802 -0.0976
    1W        W34484  22.976  26.216   8.634 -0.0601  0.1232 -0.0198
    1W        W34485   7.931  11.604   0.907 -0.0514 -0.3727  0.2036
    1W        W34486  27.504  18.507   0.290  0.0856  0.0562  0.1777
    1W        W34487  14.580   6.428   1.147  0.4348 -0.0504  0.0941
    1W        W34488   0.920   4.337   3.244 -0.0882 -0.2539  0.0448
    1W        W34489  25.386   4.767   2.227  0.4542 -0.0031 -0.0265
    1W        W34490  12.627   7.841   0.398 -0.4891 -0.0932 -0.0151
    1W        W34491   8.860  20.363   2.039  0.1150 -0.0884  0.0741
    1W        W34492   0.545  19.918   9.257  0.3598 -0.3194 -0.2621
    1W        W34493   1.203   6.979   1.913  0.0524 -0.2191 -0.0804
    1W        W34494   5.992  10.009   9.553  0.3825 -0.2078  0.1197
    1W        W34495   1.040   0.601   2.074 -0.1359  0.1029 -0.0090
    1W        W34496  25.356  11.609   1.298  0.1527  0.2258 -0.0619
    1W        W34497  25.859   6.739   3.939  0.1026  0.0259  0.0799
    1W        W34498  24.455  21.763   2.309  0.0577 -0.0963  0.0855
    1W        W34499  10.742   0.555   7.903  0.0401  0.2138 -0.1116
    1W        W34500   2.496  26.280   3.017 -0.0447  0.0327  0.0893
    1W        W34501  11.375   3.926   6.761 -0.3449  0.0340  0.0609
    1W        W34502   7.111   0.152   7.744 -0.1875  0.1551 -0.0877
    1W        W34503   7.320  10.344   8.356 -0.1462 -0.0346  0.2862
    1W        W34504   7.014   2.716   8.078 -0.0616 -0.1906 -0.0093
    1W        W34505  18.537  11.206   0.916  0.1467  0.0212 -0.1606
    1W        W34506  26.290  12.479   2.385  0.1266  0.0634 -0.1962
    1W        W34507  23.911  23.541   9.428  0.1139  0.1647  0.0217
    1W        W34508  20.765   0.820   8.715  0.0825  0.1550  0.1539
    1W        W34509  28.558  28.183   9.113  0.1345 -0.0974 -0.1678
    1W        W34510  13.336  21.402   0.667 -0.2576  0.0018  0.1679
    1W        W34511   8.934  17.852   9.967 -0.0538 -0.3696 -0.1842
    1W        W34512  12.605   0.789   7.238  0.0418 -0.0351 -0.1235
    1W        W34513  12.147  24.216   1.353  0.0401  0.2532  0.3132
    1W        W34514  13.479  12.768   1.547  0.3164  0.0396  0.1575
    1W        W34515   2.298  22.433   9.544 -0.1812 -0.0787 -0.1732
    1W        W34516  28.324  11.152   0.627  0.1582  0.0678 -0.5717
    1W        W34517   7.364  24.294   8.925 -0.4627  0.1580  0.3229
    1W        W34518   4.917   6.687   7.522  0.1400  0.0804 -0.1393
    1W        W34519   2.979  24.104   3.345 -0.1250 -0.0272 -0.0963
    1W        W34520   4.107  16.748   7.462  0.2241 -0.0678  0.1196
    1W        W34521  24.554   1.260   7.799  0.0417  0.1775 -0.0736
    1W        W34522  14.785  27.963   9.687 -0.0520  0.1373  0.0851
    1W        W34523  20.486  18.594   7.512 -0.0647  0.0879  0.0684
    1W        W34524   6.464   5.639   7.296 -0.1234 -0.3296 -0.1540
    1W        W34525  25.554   1.403   2.626  0.0199 -0.1306  0.1928
    1W        W34526  11.990  27.787   0.059 -0.1393 -0.1349  0.2505
    1W        W34527   0.125  21.000   9.299  0.1286  0.1265 -0.3284
    1W        W34528   2.094   7.277   2.569 -0.1308 -0.1683 -0.0039
    1W        W34529  21.222  12.972   6.282 -0.0635  0.0516  0.0332
    1W        W34530   3.201   3.544   1.892 -0.2993  0.0851 -0.2450
    1W        W34531  26.565  10.927   0.223  0.0766  0.0322 -0.1692
    1W        W34532  27.582   0.965   8.735 -0.1921 -0.1484  0.3128
    1W        W34533  28.040   5.735   0.959 -0.2752  0.0535  0.2609
    1W        W34534   8.297  12.943   9.086 -0.1894  0.2181 -0.1402
    1W        W34535  14.150  13.184   7.228 -0.1177 -0.1434 -0.0105
    1W        W34536   7.674   9.790   7.194  0.3145  0.0312  0.0597
    1W        W34537  28.413  16.601   1.221  0.1202 -0.3033 -0.2346
    1W        W34538  19.920   7.739   8.144  0.0146  0.0892 -0.3591
    1W        W34539  16.570  11.269   0.281 -0.0107  0.0816 -0.3862
    1W        W34540  21.988   5.257   0.861  0.0388 -0.1074  0.1026
    1W        W34541   6.737  23.295   8.955  0.2451  0.2420 -0.3106
    1W        W34542   1.184  15.007   1.561 -0.0993  0.0484  0.1828
    1W        W34543  22.673  25.975   0.909 -0.0077  0.1612 -0.0309
    1W        W34544   0.529  16.155   0.880  0.0039  0.1529 -0.0589
    1W        W34545  16.270  10.487   0.376  0.3263 -0.2567  0.0190
    1W        W34546   7.965  18.279   6.599 -0.2444  0.0286  0.0092
    1W        W34547  20.445  19.380   2.166  0.2180 -0.1098 -0.1492
    1W        W34548  19.596   8.649   9.547  0.2001  0.1748  0.1134
    1W        W34549  27.667  27.199   9.516  0.5012  0.1439  0.1073
    1W        W34550  20.322  26.132   8.040  0.0408 -0.0594 -0.0873
    1W        W34551   7.545  12.788   9.482 -0.0489 -0.4296 -0.2770
    1W        W34552  17.998   9.869   0.656 -0.0477  0.2795 -0.1161
    1W        W34553   7.465  23.959   0.386  0.1096  0.2514 -0.0045
    1W        W34554   4.189   7.881   8.165  0.2363  0.1161 -0.1237
    1W        W34555  12.592  19.912   1.423 -0.1382  0.2671 -0.1681
    1W        W34556   3.526   3.564   3.825 -0.0837  0.0838  0.0015
    1W        W34557  18.228  28.276   9.585  0.2662  0.0456  0.1351
    1W        W34558  21.328  12.194   9.941 -0.0206  0.1438 -0.1957
    1W        W34559  26.320   2.053   7.381 -0.2088  0.2270  0.2282
    1W        W34560   7.770  17.777   8.088  0.0825  0.0161 -0.0598
    1W        W34561  16.174  20.317   1.716 -0.1374 -0.0052 -0.0027
    1W        W34562   8.288   9.330   1.476  0.1312 -0.1124 -0.0465
    1W        W34563  19.739  22.046   6.898  0.0870 -0.4391 -0.0544
    1W        W34564  22.157  17.842   9.714 -0.0677  0.3680  0.3748
    1W        W34565  16.035  11.933   1.155  0.1208  0.0350 -0.0609
    1W        W34566  12.587  23.691   3.673  0.0062 -0.2004  0.2942
    1W        W34567   5.993  23.720   1.195  0.1569 -0.1332 -0.1338
    1W        W34568   6.489   3.303   3.049 -0.2319 -0.0451  0.0177
    1W        W34569  20.468  24.707   8.328  0.1937  0.1310 -0.2334
    1W        W34570  27.219   0.823   9.111  0.0825 -0.0219 -0.1843
    1W        W34571  15.752  23.336   7.135  0.0634  0.2233  0.1755
    1W        W34572  10.128   1.483   2.083  0.0577 -0.2754  0.2054
    1W        W34573  25.184   7.453   1.896  0.1146 -0.0212 -0.0736
    1W        W34574  27.905  24.356   9.993 -0.0501 -0.1356  0.1383
    1W        W34575   5.189  15.999   0.115  0.0110 -0.0356  0.0614
    1W        W34576  13.527  21.435   7.754 -0.4386  0.1464  0.3176
    1W        W34577  23.823  21.446   1.595  0.1057  0.1760 -0.1349
    1W        W34578  20.171  21.375   7.053 -0.0960 -0.0520  0.1956
    1W        W34579   8.933  22.838   9.376  0.0195  0.1236 -0.0260
    1W        W34580  22.911  19.548   6.643  0.0231 -0.0053  0.0866
    1W        W34581  28.110  11.907   8.421  0.2171 -0.1607 -0.2076
    1W        W34582   1.424  27.341   8.908 -0.2454  0.1474 -0.1292
    1W        W34583  19.734  10.509   8.949 -0.0115  0.0468  0.0158
    1W        W34584   0.838  22.888   8.016 -0.1738  0.0215 -0.0438
    1W        W34585  19.978  15.087   6.077  0.1584  0.0281  0.0780
    1W        W34586  16.652   8.791   8.060  0.0250 -0.0766  0.2625
    1W        W34587   5.651   7.098   7.722  0.1163 -0.2305 -0.0246
    1W        W34588  15.997  26.522   9.813  0.1386  0.0148  0.1627
    1W        W34589   2.802  27.723   1.244  0.1508  0.1394  0.3579
    1W        W34590  21.494  24.811   9.852  0.1837 -0.0961  0.0360
    1W        W34591  24.529  19.158   1.922  0.2769 -0.1253 -0.1807
    1W        W34592  14.836  21.634   0.030  0.0077  0.0593  0.0134
    1W        W34593  25.596   7.293   3.193  0.0590  0.0167  0.2258
    1W        W34594   8.050  17.943   9.107 -0.0124  0.3905  0.0118
    1W        W34595  23.277  15.288   0.325 -0.1917 -0.3366 -0.1072
    1W        W34596   6.800   7.364   2.274 -0.0243  0.0181 -0.0058
    1W        W34597  20.583   0.436   8.385  0.3509  0.0374 -0.0294
    1W        W34598  24.604  15.608   1.934 -0.0750 -0.0035 -0.0054
    1W        W34599   1.989   7.169   3.505  0.0370 -0.0433  0.1361
    1W        W34600  24.370   6.070   2.653  0.3068 -0.1040  0.0806
    1W        W34601   0.299   6.877   0.098 -0.2391 -0.2240  0.0170
    1W        W34602  20.815  15.988   0.235  0.2585  0.6146  0.1026
    1W        W34603  25.091  21.300   1.999  0.2185  0.0237  0.1207
    1W        W34604   5.098  27.945   2.962  0.2721 -0.1632  0.3611
    1W        W34605  12.957  18.059   7.650 -0.0235  0.0839  0.4024
    1W        W34606  28.282  10.145   9.297  0.5174 -0.0374  0.1513
    1W        W34607  27.077  23.498   0.394 -0.1345 -0.0580 -0.2410
    1W        W34608  17.377  23.371   0.210 -0.0426  0.0575 -0.2928
    1W        W34609  11.931  17.693   7.679  0.1004  0.2941 -0.0360
    1W        W34610  13.938   8.692   7.802 -0.1286  0.1227  0.0865
    1W        W34611   1.619  18.465   0.456 -0.1027 -0.2879 -0.0273
    1W        W34612   4.603  10.011   7.621  0.1117 -0.3238  0.3109
    1W        W34613  15.460  28.092   6.947  0.2072  0.0958  0.1706
    1W        W34614   8.339  15.548   1.239  0.0924  0.2330 -0.1662
    1W        W34615  16.808  27.711   1.574 -0.0135 -0.0059  0.2227
    1W        W34616  12.633  27.987   1.482 -0.0511 -0.1646  0.0513
    1W        W34617  13.237   1.641   2.071 -0.4038  0.1621 -0.2438
    1W        W34618  15.601   3.691   7.776  0.0880  0.2196 -0.3621
    1W        W34619  14.230  23.972   1.140  0.2598 -0.0187  0.2701
    1W        W34620   1.589   3.031   9.346 -0.0331 -0.0667  0.0709
    1W        W34621  25.084   5.004   1.139 -0.2200 -0.0353  0.2769
    1W        W34622  17.972  22.417   0.271 -0.1436  0.1019 -0.0956
    1W        W34623  19.205  28.835   2.024  0.3755  0.0754  0.0243
    1W        W34624  17.250  18.400   0.280  0.0942 -0.2453 -0.1285
    1W        W34625  11.060   4.805   9.289  0.2606  0.0395 -0.0018
    1W        W34626   0.546  23.742   2.272 -0.1119  0.1405  0.3133
    1W        W34627  12.236  17.944   8.449 -0.2950 -0.1468  0.2106
    1W        W34628  13.799   5.484   8.384 -0.1243  0.1001  0.2196
    1W        W34629   8.311   8.009   1.856  0.1816 -0.0671 -0.5668
    1W        W34630   1.802  22.295   1.554 -0.1809 -0.1169 -0.0356
    1W        W34631  24.045  10.042   9.742  0.2277 -0.1456 -0.1613
    1W        W34632  12.711   4.113   1.127  0.2883 -0.4143 -0.1375
    1W        W34633  24.369  24.652   1.524 -0.0868 -0.1052  0.0217
    1W        W34634   1.232   2.768   0.273 -0.1232 -0.1314 -0.2762
    1W        W34635  19.457  20.212   9.817 -0.1811 -0.0471 -0.0605
    1W        W34636   7.508  15.717   0.538 -0.1027 -0.1075  0.2269
    1W        W34637  28.439   9.550   3.025  0.0133  0.0552  0.1508
    1W        W34638   5.840  21.359   8.164  0.1339 -0.2045 -0.1597
    1W        W34639  11.550  21.237   7.226  0.1852 -0.1147  0.0067
    1W        W34640   4.646  10.387   1.298  0.2039  0.0003 -0.1286
    1W        W34641   7.867   0.078   1.163  0.1496  0.1070  0.0503
    1W        W34642  25.096  11.140   6.897  0.3031  0.0448 -0.0143
    1W        W34643   5.696   6.512   3.239  0.0134  0.1007  0.0256
    1W        W34644  19.750  23.442   1.707 -0.2728  0.1162 -0.0625
    1W        W34645   9.609  25.628   9.786 -0.2453  0.0313 -0.0246
    1W        W34646  20.239  16.504   2.175  0.0969 -0.2354 -0.1132
    1W        W34647  28.212  25.203   8.650  0.1491  0.3504  0.1079
    1W        W34648  15.650  14.121   2.050 -0.0347  0.0542  0.3281
    1W        W34649   0.271  27.972   8.404 -0.0243  0.1150  0.0301
    1W        W34650   8.517   7.610   8.967 -0.2087 -0.0879  0.2762
    1W        W34651  14.859  26.893   3.181  0.1420 -0.2674 -0.0175
    1W        W34652   2.790   6.687   2.532 -0.1504 -0.1011  0.1918
    1W        W34653  10.194  23.498   0.306 -0.0512 -0.0613  0.2184
    1W        W34654  11.591  19.061   3.141  0.0264 -0.1234 -0.0676
    1W        W34655   0.480  19.283   1.721 -0.1386  0.0912  0.0315
    1W        W34656   5.420  26.679   2.496 -0.2742  0.2170 -0.1369
    1W        W34657  26.825  12.470   2.162  0.2228 -0.1007 -0.0852
    1W        W34658   0.593  10.823   9.000 -0.1452 -0.4751  0.0770
    1W        W34659   1.645  20.352   8.149  0.0496  0.2174 -0.1715
    1W        W34660  17.265   8.070   7.462  0.2153  0.1499  0.0430
    1W        W34661  18.680  18.326   0.953 -0.3161  0.1130 -0.5596
    1W        W34662  15.496   7.358   9.570  0.1454  0.2517  0.0105
    1W        W34663  19.081   5.121   7.272  0.2052  0.1493 -0.0245
    1W        W34664  21.749  19.905   9.556 -0.1341 -0.0234  0.0353
    1W        W34665  18.660   6.643   8.901 -0.0588  0.0810  0.2524
    1W        W34666   8.426   5.210   8.206 -0.0171 -0.1363 -0.2043
    1W        W34667   0.060  22.753   0.521  0.0740 -0.0347 -0.0293
    1W        W34668  20.073  18.541   0.610  0.2831  0.1805  0.2427
    1W        W34669  13.901   6.259   9.053 -0.1264  0.4062 -0.0109
    1W        W34670  24.534  22.601   2.328 -0.2397  0.1748 -0.1317
    1W        W34671  12.820  15.888   1.160  0.0482 -0.1518 -0.0133
    1W        W34672   0.472  27.220   0.169 -0.1244  0.1822 -0.0820
    1W        W34673  15.545   8.652   1.040  0.4312 -0.0902  0.1456
    1W        W34674  15.862  17.022   0.261  0.3722  0.0009  0.0504
    1W        W34675  14.551   6.336   8.468 -0.0911 -0.1273 -0.1811
    1W        W34676  25.018  13.705   0.629 -0.0779 -0.0410  0.0646
    1W        W34677  27.097  15.588   1.286  0.0650 -0.0278 -0.1739
    1W        W34678  13.053  25.444   2.552 -0.0146 -0.2543 -0.0321
    1W        W34679  27.915  23.541   7.265 -0.1210 -0.3228 -0.0288
    1W        W34680  15.220  13.905   9.522 -0.1030  0.1913  0.1655
    1W        W34681   5.163  16.677   1.294 -0.0343 -0.0011  0.0677
    1W        W34682  14.024  21.974   0.591 -0.1419 -0.1045  0.3791
    1W        W34683  28.686  22.596   7.609 -0.2768  0.0455  0.0366
    1W        W34684   3.948  20.910   3.039  0.4343  0.0813  0.2407
    1W        W34685  20.802   2.277   6.840  0.1048 -0.1536  0.1945
    1W        W34686   3.304  20.632   2.447  0.0707  0.3060 -0.2042
    1W        W34687  24.710  10.060   3.242 -0.0293  0.0846 -0.3298
    1W        W34688  22.620  28.801   7.377 -0.0158  0.0111  0.0900
    1W        W34689  20.478  25.665   8.259 -0.1008  0.0589  0.1494
    1W        W34690  23.798  21.380   7.644 -0.0509  0.1267  0.0731
    1W        W34691  12.131  27.238   1.210 -0.1337 -0.1439  0.1013
    1W        W34692  18.629   3.160   1.475 -0.0863  0.1407 -0.2259
    1W        W34693  28.417   3.000   1.166  0.1692 -0.1411 -0.0436
    1W        W34694  24.779  21.881   1.998 -0.1574 -0.0992  0.2624
    1W        W34695  17.785  14.489   1.306 -0.2770  0.0052 -0.0150
    1W        W34696  26.260  18.509   2.302  0.0728  0.0056  0.0054
    1W        W34697  23.808   2.369   0.481 -0.2867  0.0016 -0.2513
    1W        W34698  17.074  13.555   8.865 -0.2692  0.3242 -0.1426
    1W        W34699   5.101   0.171   2.899 -0.0595  0.3719 -0.0707
    1W        W34700  26.880  19.549   3.004 -0.0475  0.1121  0.1663
    1W        W34701  24.470  10.759   8.551  0.0453 -0.1326  0.0761
    1W        W34702   8.370   2.768   7.544  0.4426 -0.1481 -0.2011
    1W        W34703  14.025   2.329   7.023  0.0627  0.2457 -0.2510
    1W        W34704   0.589  15.498   3.359 -0.4164 -0.1478 -0.1439
    1W        W34705  16.735  28.227   1.431 -0.1225  0.1051 -0.5905
    1W        W34706  21.471  11.564   7.247  0.0127  0.1759 -0.4490
    1W        W34707   8.522  20.126   7.623 -0.2590  0.0644  0.1062
    1W        W34708  23.975  16.589   0.509 -0.0749 -0.2119 -0.1150
    1W        W34709   0.861  12.133   8.697  0.6906 -0.0423 -0.3178
    1W        W34710  27.176   4.360   8.732 -0.0927  0.1593 -0.3297
    1W        W34711  11.742  22.563   1.510 -0.3454 -0.1230 -0.0302
    1W        W34712  21.532  25.653   1.858  0.0673  0.1346  0.0012
    1W        W34713   2.780  19.116   9.848 -0.1071 -0.0986  0.0184
    1W        W34714  14.089  26.027   2.345  0.4101  0.2400 -0.0131
    1W        W34715  11.530  21.223   7.687 -0.0858  0.3593 -0.2190
    1W        W34716  12.694   3.219   9.334  0.0565  0.0671 -0.1450
    1W        W34717  14.746  14.088   9.584 -0.0854 -0.1486 -0.0798
    1W        W34718  14.767  21.318   6.020  0.2096 -0.1116  0.3000
    1W        W34719  25.711  14.467   8.778 -0.2373 -0.3577 -0.0768
    1W        W34720  10.796   6.208   7.440  0.0257  0.3609  0.0330
    1W        W34721   9.573  19.781   7.581 -0.3467  0.2202 -0.1196
    1W        W34722   9.046  23.331   9.485 -0.0710 -0.1259 -0.0171
    1W        W34723   7.188   4.916   1.821 -0.0529 -0.3250 -0.0631
    1W        W34724  11.959  14.476   6.189  0.2513  0.3777  0.2977
    1W        W34725   4.800  20.780   8.635 -0.1980  0.1203  0.0073
    1W        W34726  23.426  28.759   1.913 -0.5573 -0.1035 -0.0575
    1W        W34727  14.832   8.253   9.403 -0.1464  0.3459 -0.1729
    1W        W34728  11.697   9.255   8.862 -0.0185  0.1200 -0.1958
    1W        W34729   2.336  27.120   7.730 -0.0072  0.1422 -0.2256
    1W        W34730  23.726   2.750   8.224  0.1188 -0.2251  0.1890
    1W        W34731  19.330  14.706   9.446  0.3279  0.1106 -0.2485
    1W        W34732   6.439  16.797   2.749 -0.0650  0.0945 -0.0894
    1W        W34733  15.416  18.034   2.191  0.0058  0.2923 -0.1559
    1W        W34734   0.196  25.259   8.198  0.1113 -0.1397  0.0405
    1W        W34735  28.030  26.053   7.526 -0.0735  0.0096  0.1320
    1W        W34736  27.758  10.430   1.319  0.0215 -0.3492  0.1795
    1W        W34737  20.913  13.498   8.938  0.1836 -0.2147  0.0455
    1W        W34738  21.192  24.197   9.291  0.0453 -0.1819 -0.4058
    1W        W34739   0.435   4.425   1.555 -0.0948 -0.0205  0.1679
    1W        W34740   5.454   2.156   2.126  0.2223  0.1634 -0.0403
    1W        W34741  28.243  17.406   1.805  0.0526  0.1352  0.4612
    1W        W34742   9.471  15.174   2.433 -0.0885 -0.2090  0.3042
    1W        W34743  16.313  17.177   1.133  0.0815  0.3501 -0.0577
    1W        W34744  27.319   9.890   7.425 -0.0336  0.0326  0.0825
    1W        W34745   1.507   5.212   4.040 -0.0189 -0.0932  0.1396
    1W        W34746   5.425   8.460   2.288 -0.2660 -0.0147 -0.0967
    1W        W34747  22.857   7.151   6.923 -0.3914  0.0781  0.2740
    1W        W34748  15.652   8.586   7.940 -0.2245 -0.0644 -0.1817
    1W        W34749   2.045  12.072   2.147 -0.1874 -0.0429 -0.0473
    1W        W34750  27.897   6.015   0.011  0.1362 -0.0695 -0.0026
    1W        W34751  28.371  20.726   8.498 -0.3122 -0.2230  0.0106
    1W        W34752   0.179   3.084   1.198  0.1240 -0.0647  0.1256
    1W        W34753  13.094  20.938   7.219 -0.0190  0.1692 -0.0732
    1W        W34754   6.129  24.940   3.077 -0.1252 -0.0640 -0.0111
    1W        W34755  19.204  20.155   9.273 -0.0005  0.0400 -0.0249
    1W        W34756  19.946   8.302   6.302  0.3964 -0.2365  0.2199
    1W        W34757  11.915  24.814   7.587  0.2158 -0.1542 -0.3022
    1W        W34758  11.430   1.242   9.072  0.0318 -0.1073  0.0440
    1W        W34759  26.150  21.895   2.788 -0.0863 -0.0751 -0.1770
    1W        W34760  13.794   5.789   6.138  0.1137 -0.2723  0.1944
    1W        W34761  16.844  17.587   1.994  0.0932  0.1284  0.2443
    1W        W34762   4.776  18.049   8.157  0.0045  0.3312  0.0900
    1W        W34763  18.240  14.739   2.054 -0.1877  0.1425  0.2715
    1W        W34764  24.025  15.521   2.289 -0.1243 -0.1511 -0.1179
    1W        W34765   1.164  24.050   9.978  0.2601 -0.0389  0.0323
    1W        W34766   2.569  15.471   9.209 -0.1838  0.0278  0.0695
    1W        W34767  14.134  12.227   6.327 -0.1677  0.4389  0.1342
    1W        W34768  23.718  11.522   0.884 -0.2284 -0.1007 -0.2406
    1W        W34769  10.367  10.160   7.030 -0.1646 -0.1757 -0.1407
    1W        W34770  21.832   8.189   7.417 -0.1833 -0.2056  0.0457
    1W        W34771   4.781   3.378   3.912  0.1542  0.2654  0.0007
    1W        W34772  12.005   9.013   7.866  0.1577  0.2181  0.2752
    1W        W34773   8.721  25.160   1.575 -0.1297 -0.4551 -0.0285
    1W        W34774  26.220  17.561   3.226  0.0733 -0.1986  0.1536
    1W        W34775   6.276   9.343   0.546 -0.1231 -0.0287 -0.1266
    1W        W34776   9.225  23.439   9.913  0.0795  0.3978 -0.1157
    1W        W34777  14.983  12.230   9.146  0.0718 -0.0425 -0.0861
    1W        W34778   8.907   4.857   2.767 -0.0178  0.0958 -0.0906
    1W        W34779  15.077  24.259   6.473 -0.2483 -0.1138 -0.1049
    1W        W34780  27.495  16.187   2.665  0.1909  0.0780 -0.1598
    1W        W34781  11.019  11.555   9.999 -0.1432 -0.2670  0.2446
    1W        W34782  17.394  22.800   6.243  0.0786  0.3116 -0.2746
    1W        W34783  26.483   9.960   7.269 -0.2094  0.2905 -0.0644
    1W        W34784  28.551   1.712   9.197 -0.0776 -0.1761  0.3763
    1W        W34785  19.090  19.287   0.472  0.1414  0.1612 -0.2273
    1W        W34786  12.740  12.285   1.641 -0.1773 -0.0653  0.3285
    1W        W34787  17.684  17.992   1.926 -0.1589  0.2302  0.1123
    1W        W34788  11.210   1.877   6.814  0.0049 -0.2133  0.0679
    1W        W34789   2.930   1.955   1.637 -0.0015  0.1063  0.4618
    1W        W34790  10.054  12.298   8.995  0.1302  0.3359  0.1557
    1W        W34791   2.218   1.084   0.939 -0.3709 -0.2004 -0.3970
    1W        W34792  11.629  22.752   2.007  0.1938 -0.0353 -0.0127
    1W        W34793   9.213   9.323   1.658 -0.0943  0.0089  0.3974
    1W        W34794  27.107  12.811   7.726  0.2776 -0.1126  0.1389
    1W        W34795  12.526  25.868   8.470  0.0008 -0.0689  0.0933
    1W        W34796  25.023  21.808   6.441  0.0835  0.0631  0.1134
    1W        W34797  22.698  15.477   2.994 -0.1579  0.1988 -0.2805
    1W        W34798  28.335  13.343   1.404  0.0024 -0.0785 -0.0197
    1W        W34799   9.149  12.696   7.302  0.1564 -0.1516 -0.0060
    1W        W34800  22.066   0.513   3.069  0.0217  0.3102 -0.1678
    1W        W34801   7.295  18.489   0.765 -0.5239 -0.3723  0.0972
    1W        W34802  15.094  28.719   1.393  0.0929  0.0267 -0.0189
    1W        W34803   3.924  18.425   9.418 -0.0635  0.1272 -0.0366
    1W        W34804   7.247   9.299   1.744 -0.1332  0.0318 -0.1259
    1W        W34805  15.130  22.894   1.181 -0.0395 -0.0423 -0.1524
    1W        W34806  12.811  11.722   7.352  0.0855  0.0699 -0.0309
    1W        W34807   2.507  16.349   9.628 -0.0010  0.0747 -0.0154
    1W        W34808  13.521  15.044   8.271 -0.2667  0.1325  0.3027
    1W        W34809  12.635   6.416   1.292  0.0506 -0.1256 -0.2027
    1W        W34810   4.074  16.603   9.458 -0.1698  0.0486  0.0383
    1W        W34811  18.836  27.816   0.263 -0.1066 -0.0489 -0.0002
    1W        W34812  17.252   6.495   0.682 -0.0552  0.0480 -0.0252
    1W        W34813  12.662  25.676   9.281  0.0014  0.0931 -0.0679
    1W        W34814  19.339  28.569   0.688 -0.1252  0.0102  0.0770
    1W        W34815  18.255  23.885   8.806  0.0962  0.0056  0.3073
    1W        W34816   3.270  13.368   8.101  0.3243 -0.2818 -0.0510
    1W        W34817  21.899   5.564   0.469 -0.2373 -0.0198  0.0025
    1W        W34818   8.239  21.265   1.163 -0.1040  0.0284 -0.2207
    1W        W34819  27.829  14.282   3.638 -0.1216 -0.2885  0.0910
    1W        W34820  19.673  11.371   9.689 -0.2725  0.2813  0.1649
    1W        W34821   2.532   8.367   3.073  0.0614  0.1316 -0.0998
    1W        W34822  26.727  17.424   3.229 -0.0607  0.0155 -0.3054
    1W        W34823  21.329   2.551   8.635  0.0257 -0.0657 -0.0051
    1W        W34824  15.480  13.147   9.457 -0.1986  0.0816  0.2442
    1W        W34825  23.425   2.593   8.681 -0.3100 -0.2934  0.0135
    1W        W34826   3.806  18.617   7.363 -0.1860 -0.1836 -0.1108
    1W        W34827   9.178  10.486   9.272  0.0962 -0.0318 -0.0003
    1W        W34828   6.839  14.188   1.180  0.1774  0.2347 -0.1443
    1W        W34829  27.266  20.616   9.702 -0.0061  0.2614 -0.2049
    1W        W34830   0.191  10.763   2.309  0.0820  0.0437  0.1315
    1W        W34831  25.915   8.162   8.203  0.1945  0.1171  0.1864
    1W        W34832   6.466  25.618   8.465  0.3540  0.1295 -0.1660
    1W        W34833  16.743  11.950   7.624 -0.1072 -0.0052 -0.2999
    1W        W34834  12.077   0.958   9.897 -0.4085 -0.3042 -0.1384
    1W        W34835  11.512  13.104   1.627  0.1316  0.1695  0.1804
    1W        W34836   2.334  25.521   3.500  0.1008  0.0508 -0.2202
    1W        W34837  15.818  12.838   1.270  0.1081 -0.3895  0.3327
    1W        W34838  25.229  14.221   2.790  0.2503  0.3599  0.0684
    1W        W34839  27.701  27.345   8.002 -0.1376 -0.0224 -0.0316
    1W        W34840  20.607  10.231   7.314 -0.3329 -0.0175 -0.0781
    1W        W34841   7.460  10.571   9.628 -0.2390 -0.4726  0.1179
    1W        W34842   5.281  22.257   2.939  0.0433  0.0212  0.1596
    1W        W34843   9.417  22.263   4.170  0.0838  0.2903 -0.0329
    1W        W34844   2.562   8.295   0.326  0.1205 -0.1808  0.3192
    1W        W34845   0.500  25.417   3.255 -0.1998  0.1726 -0.2048
    1W        W34846   4.589  19.047   9.932 -0.0573  0.0705  0.1962
    1W        W34847  24.315  21.306   2.835 -0.2209 -0.0084  0.1325
    1W        W34848  28.400  17.583   9.187  0.0504 -0.0049  0.1020
    1W        W34849  13.230  14.359   1.355 -0.2873 -0.0686 -0.2710
    1W        W34850   5.237  11.848   3.395 -0.2509 -0.2338  0.1754
    1W        W34851   2.374  16.654   3.420  0.1342  0.0262 -0.0573
    1W        W34852   4.872  14.665   1.559  0.0449 -0.0915 -0.0146
    1W        W34853  12.282  19.534   7.879  0.0268  0.0656 -0.2053
    1W        W34854  10.219  11.736   8.249 -0.2380  0.0160 -0.1446
    1W        W34855   3.211   3.177   2.990  0.0558  0.1095 -0.3702
    1W        W34856  17.703   7.101   1.459  0.0770  0.1939 -0.3388
    1W        W34857  17.974  16.380   9.413 -0.0678 -0.0847 -0.2794
    1W        W34858   1.156  22.723   8.354  0.0495 -0.0276 -0.1885
    1W        W34859  26.777  28.809   2.086  0.1939 -0.1137  0.2893
    1W        W34860   9.519   2.226   7.933 -0.0547  0.2907  0.1215
    1W        W34861  18.568  25.413   2.381  0.0599 -0.0497 -0.3564
    1W        W34862   0.639  12.372   1.449  0.1059  0.1630 -0.4201
    1W        W34863   3.395  21.311   2.597 -0.2736 -0.1102 -0.3263
    1W        W34864  22.514  18.232   1.403 -0.0724  0.3189  0.1223
    1W        W34865   8.041  15.120   9.503 -0.3590 -0.0618 -0.2809
    1W        W34866   7.914  15.733   0.947  0.0663 -0.0755  0.0179
    1W        W34867  27.248  24.017   2.475 -0.0208  0.2967  0.0935
    1W        W34868  15.047   3.222   6.255  0.0487 -0.1229 -0.1691
    1W        W34869  21.021   9.591   1.584 -0.3693  0.1778 -0.0190
    1W        W34870  19.682  24.479   0.448  0.0918 -0.1547  0.3069
    1W        W34871   1.556   9.677   2.731 -0.1661 -0.2176 -0.2015
    1W        W34872  12.024  15.572   8.317 -0.1913  0.0524  0.2535
    1W        W34873   2.620   8.460   8.859 -0.1030  0.0275 -0.1594
    1W        W34874  15.140  20.505   2.506  0.2094 -0.3025 -0.0973
    1W        W34875   0.209  16.447   7.502 -0.1427  0.1606  0.0314
    1W        W34876  17.933  24.768   2.150 -0.0178  0.0022  0.1000
    1W        W34877   9.444   7.727   0.860  0.0935  0.0469 -0.0016
    1W        W34878   0.499  26.279   8.375  0.0107  0.0209 -0.0099
    1W        W34879  13.169  10.001   7.430  0.0778  0.1593 -0.0094
    1W        W34880  17.093  18.556   1.861  0.0472 -0.0531  0.0732
    1W        W34881  28.652   6.084   0.334  0.1371  0.1098  0.0087
    1W        W34882  11.109  10.639   9.454 -0.1500  0.1307  0.2086
    1W        W34883  13.118  12.181   6.601  0.0223  0.2556 -0.0764
    1W        W34884  11.046   7.240   0.731  0.2149 -0.1391  0.0168
    1W        W34885  28.483  20.438   3.165  0.0485  0.1865 -0.1714
    1W        W34886  20.848  22.420   7.843 -0.1095 -0.2311 -0.1897
    1W        W34887  20.703  16.634   9.760  0.0340  0.1261  0.2315
    1W        W34888   2.193  15.108   1.014  0.0457 -0.3810 -0.1703
    1W        W34889   4.442  17.204   9.675  0.0723 -0.0925 -0.0382
    1W        W34890   8.496   0.154   7.677  0.1573  0.1260 -0.2139
    1W        W34891  15.877   9.242   7.967 -0.0663 -0.0157  0.1465
    1W        W34892   1.952  17.200   2.889 -0.2090  0.1663 -0.2648
    1W        W34893   8.782   6.767   1.983 -0.0572  0.1851  0.2199
    1W        W34894  25.466  26.773   1.064 -0.0508 -0.0338 -0.0956
    1W        W34895  19.488  17.057   0.617  0.1935 -0.0960 -0.2841
    1W        W34896   1.023  27.735   1.933  0.0145  0.0100 -0.0458
    1W        W34897   7.931  25.697   3.563 -0.3139 -0.1625 -0.4088
    1W        W34898  10.524   6.483   6.742 -0.0720 -0.2782  0.3023
    1W        W34899  22.175  15.932   2.435  0.0171 -0.1351  0.0540
    1W        W34900  11.163   3.380   7.654 -0.0769  0.2206  0.0453
    1W        W34901   4.816   4.896   2.842 -0.1900 -0.0555 -0.0122
    1W        W34902  14.201  27.799   2.065  0.1709 -0.0449  0.1707
    1W        W34903  11.061  12.671   5.767 -0.0498 -0.0057  0.0871
    1W        W34904  21.020  14.265   9.532  0.1667  0.1989  0.0033
    1W        W34905  28.767  15.357   7.621 -0.1234  0.3992  0.0646
    1W        W34906  19.140  27.468   8.939  0.1698 -0.0548 -0.2397
    1W        W34907  27.641  20.210   8.551 -0.0020 -0.1099 -0.0547
    1W        W34908   2.337  11.403   8.658  0.1771  0.0948  0.0597
    1W        W34909  28.395  14.642   7.762 -0.4291  0.1930  0.0596
    1W        W34910  14.475  16.959   0.072 -0.2071 -0.1587  0.0026
    1W        W34911   2.840  28.057   0.876  0.1812  0.1380 -0.0489
    1W        W34912  10.573   8.276   7.828  0.0606 -0.0690  0.3212
    1W        W34913   0.273  20.218   1.532  0.4201 -0.1913 -0.0443
    1W        W34914   0.087  22.160   3.758  0.2367 -0.0630  0.0223
    1W        W34915   3.079   1.419   2.997  0.2858  0.1007  0.0860
    1W        W34916   3.089  17.673   6.589 -0.1326 -0.0415 -0.0936
    1W        W34917  20.134   4.650   7.316 -0.1673 -0.0693  0.2284
    1W        W34918  28.145   7.519   1.421  0.0782  0.0863 -0.0572
    1W        W34919   5.549  19.101   0.425  0.2780 -0.1177  0.1384
    1W        W34920   3.136   2.432   1.765  0.0100 -0.2026  0.2229
    1W        W34921  13.125  22.821   2.129  0.0789  0.0396 -0.1402
    1W        W34922   3.078  13.071   8.915 -0.2395 -0.2068  0.0042
    1W        W34923   6.350   9.278   8.949 -0.0203  0.0291 -0.1891
    1W        W34924  25.192   9.907   3.191 -0.1069  0.2136  0.1595
    1W        W34925  14.417  21.679   2.747  0.0831 -0.0218  0.0296
    1W        W34926   8.827   2.049   1.332  0.1384  0.2132  0.0162
    1W        W34927  26.192   8.554   8.000 -0.0816 -0.0535  0.0813
    1W        W34928   7.472   3.320   8.056  0.2503  0.0550  0.1948
    1W        W34929  27.554  14.328   7.585  0.1058  0.2358  0.1091
    1W        W34930   9.907  14.899   1.399 -0.0007  0.1987  0.4213
    1W        W34931  16.541  25.852   7.312 -0.2091  0.2778 -0.1026
    1W        W34932  21.051  12.252   0.393 -0.2579 -0.1435  0.0136
    1W        W34933   4.947  19.215   7.519  0.1942 -0.1530 -0.0893
    1W        W34934  23.047   9.967   7.391  0.0284 -0.0451 -0.0165
    1W        W34935  21.378   6.039   0.872 -0.1541 -0.3543 -0.0987
    1W        W34936  27.306   1.657   9.749  0.1072 -0.1819 -0.1197
    1W        W34937   0.459  18.547   3.191  0.1159 -0.0186  0.0746
    1W        W34938  27.500  19.848   1.748  0.2476 -0.4448 -0.1094
    1W        W34939   1.636  10.960   8.728 -0.1037 -0.3584 -0.3708
    1W        W34940   1.654  13.799   9.700  0.0419  0.1316  0.0062
    1W        W34941  20.872   1.127   9.560 -0.3133  0.1940 -0.0432
    1W        W34942  26.438   9.720   1.442 -0.1479 -0.1917 -0.2757
    1W        W34943   5.718  16.720   9.441  0.2397 -0.0573 -0.0659
    1W        W34944   7.993   6.210   7.845 -0.1114 -0.0801  0.0721
    1W        W34945  13.159   0.244   7.171 -0.0730  0.2499  0.2280
    1W        W34946  25.331   6.810   3.391 -0.1306  0.1761  0.0584
    1W        W34947   4.683   1.791   1.659  0.2524  0.0869  0.1232
    1W        W34948  28.125  20.248   1.215  0.2100  0.4483  0.0240
    1W        W34949  10.389   2.112   2.374 -0.0075 -0.2102  0.2812
    1W        W34950   9.555  27.230   0.818  0.1374 -0.0084 -0.1170
    1W        W34951  23.111   3.319   8.739 -0.1720 -0.2354 -0.3380
    1W        W34952   8.083  28.206   0.385 -0.1983 -0.0306  0.3024
    1W        W34953   2.651  22.462   3.054 -0.3362  0.0953 -0.2076
    1W        W34954   8.713  21.544   9.221 -0.0847  0.0201 -0.0908
    1W        W34955  21.645   6.489   0.173 -0.2477  0.1025 -0.0703
    1W        W34956  10.844  15.705   1.155  0.0923 -0.2162  0.3019
    1W        W34957  28.452  22.588   3.921 -0.1390 -0.2575 -0.0354
    1W        W34958  11.176   4.545   8.829 -0.0190 -0.1500  0.2096
    1W        W34959  19.588   2.909   6.687 -0.3327 -0.4850 -0.2517
    1W        W34960   3.773  22.911   2.185 -0.0724 -0.3056 -0.2908
    1W        W34961  24.650   7.336   8.413  0.1120 -0.0587  0.0463
    1W        W34962  27.322  11.059   1.726  0.0897  0.0044 -0.1186
    1W        W34963  27.451  19.288   7.700 -0.3365  0.2445 -0.1092
    1W        W34964   3.549  26.484   2.137  0.2141 -0.2002 -0.1775
    1W        W34965  14.561  23.967   2.327  0.0987  0.0098 -0.1917
    1W        W34966   2.758  24.828   0.773 -0.0086 -0.2449  0.1537
    1W        W34967  11.189  14.315   1.377 -0.0684  0.1543  0.1409
    1W        W34968  26.776  14.100   2.843  0.1283 -0.0482  0.1421
    1W        W34969  27.810  23.878   9.870 -0.1876 -0.0059  0.0394
    1W        W34970   1.570  21.067   2.826 -0.1414  0.2756  0.0830
    1W        W34971  18.450   7.203   9.035  0.1552 -0.4759  0.1180
    1W        W34972   4.706  17.038   9.196 -0.0034  0.1302  0.0729
    1W        W34973  20.783  17.015   0.101 -0.0748 -0.2813 -0.1537
    1W        W34974  26.428   7.849   2.797 -0.1046  0.0310  0.0423
    1W        W34975  24.855  22.176   2.416 -0.0762  0.4258  0.1213
    1W        W34976  14.835   7.793   9.167 -0.1134  0.2861  0.5649
    1W        W34977  15.905   6.568   4.986  0.0061 -0.0789  0.3436
    1W        W34978  28.389   4.109   9.227  0.3231 -0.1008  0.1272
    1W        W34979  28.188  17.201   9.539  0.1249 -0.1979 -0.1906
    1W        W34980  26.531  20.895   1.886 -0.0533 -0.1948  0.1038
    1W        W34981  25.257   3.428   2.447  0.0889 -0.2677  0.1422
    1W        W34982  20.689  25.972   2.472 -0.2784  0.1579  0.1777
    1W        W34983   9.976   1.474   2.591  0.1805  0.0411  0.2442
    1W        W34984  17.980  13.188   6.845 -0.3025 -0.3174  0.0927
    1W        W34985   1.042  10.161   1.039 -0.3103  0.1481 -0.1990
    1W        W34986  25.562  27.951   2.271 -0.1901 -0.1385  0.1593
    1W        W34987  21.795   6.014   0.632  0.0232 -0.0383 -0.0751
    1W        W34988  14.882   3.116   1.301  0.1271  0.0313 -0.0772
    1W        W34989   6.508  10.249   2.441  0.1148  0.0103  0.0012
    1W        W34990  10.100  15.370   6.709 -0.1642  0.0832  0.1739
    1W        W34991   0.393  21.143   9.794 -0.0926  0.3391  0.2628
    1W        W34992  17.687   1.213   0.614 -0.2337  0.0920  0.1683
    1W        W34993   0.660   3.872   0.388  0.2620 -0.1031 -0.0809
    1W        W34994  20.504  23.083   1.467 -0.0048 -0.2725  0.1435
    1W        W34995  11.913  20.447   7.519 -0.0486  0.1127 -0.1547
    1W        W34996   7.710  18.772   8.356 -0.0306  0.0401  0.0726
    1W        W34997   8.132   1.783   0.958 -0.1692 -0.2937  0.1262
    1W        W34998   5.863   6.456   8.849  0.1456 -0.0918  0.0847
    1W        W34999  19.214  14.314   8.771 -0.2709  0.0653 -0.2255
    1W        W35000  18.786  22.437   6.939  0.2127 -0.1471  0.3524
    1W        W35001  15.500   6.548   6.904 -0.0451 -0.0174  0.0797
    1W        W35002  23.563  25.250   2.126  0.1574  0.0194  0.0784
    1W        W35003   8.245  20.543   8.252  0.1151  0.0388  0.1225
    1W        W35004  10.617   9.978   6.676  0.1265  0.3284  0.0353
    1W        W35005   2.489  21.214   2.926 -0.2573 -0.0445 -0.2253
    1W        W35006  16.437  26.883   7.856  0.0119  0.0394  0.0438
    1W        W35007  16.571  12.224   6.617 -0.2515  0.1957 -0.2492
    1W        W35008  16.357   5.470   0.290  0.0890  0.4132 -0.1423
    1W        W35009  10.446   7.674   7.712 -0.1796 -0.2928 -0.0134
    1W        W35010  18.489   7.243   1.950  0.2538 -0.0308  0.0452
    1W        W35011  28.594   9.811   9.067 -0.3119 -0.0135  0.0323
    1W        W35012  25.162   8.911   0.428 -0.0230 -0.0312 -0.1384
    1W        W35013   0.546  16.654   9.975  0.3257 -0.3260 -0.1903
    1W        W35014  10.505  17.759   1.986 -0.0589  0.3547  0.0358
    1W        W35015   0.022   3.301   1.909 -0.3451 -0.2250 -0.1546
    1W        W35016  18.011  16.237   7.452  0.1214  0.0532  0.0492
    1W        W35017  10.097  26.050   3.113  0.2032 -0.3348  0.2048
    1W        W35018  19.681  21.013   9.974 -0.3743  0.0452 -0.1512
    1W        W35019  13.248  13.983   2.345 -0.0804  0.2362 -0.0968
    1W        W35020  17.612  15.061   1.287  0.1852  0.1503 -0.1434
    1W        W35021   0.821   6.291   8.631  0.2938 -0.0293 -0.0987
    1W        W35022   5.303   2.938   8.663  0.2019 -0.0612  0.1306
    1W        W35023  20.263  26.036   8.548 -0.0139  0.2291  0.0438
    1W        W35024   6.184  20.307   2.289  0.2174  0.0406 -0.1869
    1W        W35025  25.761   8.896   2.633 -0.3833  0.1146 -0.1678
    1W        W35026  22.526  10.361   8.602  0.1926  0.2669 -0.1628
    1W        W35027  23.202   3.278   9.340 -0.1911  0.0339  0.1271
    1W        W35028  13.026  16.533   1.729 -0.2421 -0.2638  0.0155
    1W        W35029  14.669  18.628   7.983  0.0086 -0.1237  0.1262
    1W        W35030  24.875  28.460   1.686  0.1034 -0.2065  0.1713
    1W        W35031  20.355  17.807   3.197  0.3589 -0.0306  0.0651
    1W        W35032  26.963  20.473   7.924  0.2432  0.0469 -0.2220
    1W        W35033  22.667   7.703   8.335 -0.0138  0.0244 -0.0196
    1W        W35034  23.578   5.463   2.324 -0.1733 -0.0646  0.1622
    1W        W35035  15.123   9.847   8.057  0.0811 -0.4007  0.2536
    1W        W35036  13.137   1.732   8.099 -0.1191  0.2671 -0.0686
    1W        W35037  19.307  17.581   6.808 -0.0274 -0.0917  0.0461
    1W        W35038  19.718  26.024   0.108  0.2314  0.1886 -0.0435
    1W        W35039   4.144  13.912   7.245 -0.0193 -0.0616 -0.2311
    1W        W35040  11.810  26.107   9.948 -0.0418 -0.1017  0.2445
    1W        W35041  12.577   3.790   0.096  0.1419 -0.1937  0.1289
    1W        W35042   6.481  10.107   6.294  0.2181  0.0211  0.0990
    1W        W35043  11.487   0.870   8.444 -0.0762 -0.2022  0.0712
    1W        W35044   7.228   2.743   3.070  0.0142 -0.3833  0.0160
    1W        W35045  13.925  21.717   8.683 -0.0985 -0.2335  0.1779
    1W        W35046  28.467  18.890   3.101 -0.1624  0.3017 -0.0047
    1W        W35047   7.443   7.284   8.557  0.0142  0.2604  0.0318
    1W        W35048  19.935  22.251   0.309 -0.2795 -0.0865  0.1608
    1W        W35049   7.005   8.766   7.724 -0.0448  0.1414  0.0844
    1W        W35050  20.199  28.077   9.773  0.0447  0.0180 -0.0028
    1W        W35051  27.725  26.548   9.556  0.1202  0.0533  0.2830
    1W        W35052  10.520  16.966   8.325  0.2044 -0.1881  0.0971
    1W        W35053   4.264  24.729   0.440 -0.1655  0.3230 -0.2051
    1W        W35054   1.915   0.239   0.911 -0.1429  0.0540 -0.3634
    1W        W35055  16.546  12.129   1.302 -0.1106  0.0846 -0.0173
    1W        W35056  22.971  13.577   7.461  0.3013  0.1617  0.0616
    1W        W35057   5.026  21.620   2.731  0.2669  0.2461  0.0717
    1W        W35058   4.854  24.793   3.598 -0.0019  0.0659 -0.1152
    1W        W35059  21.195  28.796   6.720  0.0406  0.1066  0.0504
    1W        W35060  11.527  12.482   8.343 -0.4565 -0.1077 -0.0649
    1W        W35061  20.655  23.111   0.061 -0.1785 -0.2625 -0.1261
    1W        W35062  26.618  23.245   1.233  0.0858  0.1070 -0.1540
    1W        W35063   6.633  23.144   3.228  0.2104 -0.1670 -0.1388
    1W        W35064   8.911  23.383   8.989  0.3256  0.1705  0.0947
    1W        W35065  20.898  13.369   9.465 -0.0745  0.0939  0.0138
    1W        W35066   6.073  27.306   3.703  0.0438 -0.4035 -0.0044
    1W        W35067   6.713  17.010   6.303 -0.0324 -0.1062 -0.1450
    1W        W35068  19.697  21.409   8.873 -0.1404  0.1039  0.0869
    1W        W35069   8.236   8.437   9.678 -0.0716  0.0852 -0.2373
    1W        W35070   6.193   3.493   8.706  0.1210  0.1276  0.0103
    1W        W35071  16.509  27.639   1.955 -0.1652 -0.1737  0.0593
    1W        W35072   6.850  12.273   7.887 -0.1094 -0.1386 -0.2464
    1W        W35073  13.381   6.001   8.297  0.0710  0.0779 -0.0127
    1W        W35074   9.009  27.760   1.181 -0.1982  0.1126  0.0985
    1W        W35075  24.828   2.910   1.785  0.3360 -0.0118  0.1045
    1W        W35076   6.093  21.406   1.881 -0.0043 -0.1682 -0.0325
    1W        W35077   1.507  12.064   2.843 -0.2104  0.0427  0.0713
    1W        W35078   3.089  16.396   1.321 -0.0929  0.1695 -0.0976
    1W        W35079   8.430  26.169   1.021  0.0997  0.2547  0.0933
    1W        W35080  22.411  11.058   0.406  0.2404  0.1256 -0.0538
    1W        W35081   9.902  14.201   5.659 -0.1491  0.0182 -0.0279
    1W        W35082   1.022   7.166   0.034  0.1458 -0.0060  0.0773
    1W        W35083  20.536   0.920   9.131 -0.0686 -0.3414 -0.2236
    1W        W35084  28.808  18.463   8.150 -0.2322 -0.1263  0.1383
    1W        W35085   6.931  17.618   1.157 -0.1925  0.0727  0.0243
    1W        W35086   8.307  20.743   9.499  0.2151  0.3205  0.0923
    1W        W35087  19.455  15.207   9.353  0.1533 -0.0827  0.0235
    1W        W35088   2.963  27.546   2.472 -0.4147 -0.3165 -0.1066
    1W        W35089  18.839  20.923   0.415  0.2080  0.0064 -0.1724
    1W        W35090   4.221  28.851   3.376  0.0309 -0.2264 -0.1209
    1W        W35091  10.679   7.632   0.615 -0.0639 -0.1709 -0.1707
    1W        W35092  22.646  16.160   2.360  0.2630 -0.0515 -0.6111
    1W        W35093  12.373  13.166   6.294 -0.0357  0.2144  0.0249
    1W        W35094   7.278  24.126   8.462  0.1521  0.0217 -0.2046
    1W        W35095  14.835  17.760   9.258 -0.1079  0.3041  0.1346
    1W        W35096  12.635  24.284   9.379 -0.3491 -0.0954 -0.2099
    1W        W35097  26.791  11.911   2.885  0.2471  0.1891  0.2970
    1W        W35098  11.361   0.379   9.249 -0.0615 -0.3165  0.0660
    1W        W35099   4.078  17.657   1.810  0.0345  0.1660  0.0833
    1W        W35100  16.781   3.337   1.105 -0.1717  0.1079 -0.1939
    1W        W35101   4.924  13.875   9.954 -0.1673  0.3380 -0.1337
    1W        W35102  23.312  12.555   6.336 -0.0930  0.2748  0.2483
    1W        W35103  11.772  13.876   2.160  0.1838  0.5244  0.2485
    1W        W35104  24.642  22.939   2.008 -0.0418 -0.1305  0.0365
    1W        W35105  17.486   9.078   6.334  0.0885  0.3761  0.2406
    1W        W35106  21.268  23.802   7.811 -0.2892 -0.1315 -0.1452
    1W        W35107   0.128   1.719   8.151 -0.0179  0.0544  0.0553
    1W        W35108   8.268  12.907   8.591  0.1557 -0.4027  0.2097
    1W        W35109  14.755   5.805   7.083  0.1256  0.1519 -0.0603
    1W        W35110  22.176   3.266   9.389 -0.0212 -0.0328 -0.0726
    1W        W35111   4.812  15.317   1.613 -0.0733 -0.0283 -0.1294
    1W        W35112  27.163  22.722   8.832 -0.0053 -0.3284 -0.0515
    1W        W35113  23.324  23.786   1.560  0.2018  0.4818 -0.0921
    1W        W35114   6.594  24.257   0.471  0.1181  0.0173  0.0995
    1W        W35115   0.006  17.226   0.000 -0.0573  0.0229  0.2239
    1W        W35116  28.124   0.592   9.406  0.1934  0.1903 -0.1079
    1W        W35117  27.923  12.445   1.322  0.0393 -0.1777  0.1905
    1W        W35118   6.558  18.617   1.237  0.4670 -0.0325 -0.0784
    1W        W35119  21.693  16.703   7.498 -0.1514 -0.4743 -0.1018
    1W        W35120  25.139  22.462   2.748  0.2807 -0.0527  0.3037
    1W        W35121   7.133   4.176   8.830 -0.1240  0.0504 -0.1018
    1W        W35122   4.357  17.063   2.862 -0.2648  0.3606  0.1453
    1W        W35123  15.373   6.168   7.528  0.0409 -0.1339  0.1266
    1W        W35124   8.716  14.419   7.081  0.2364 -0.0349  0.2254
    1W        W35125  19.861   4.259   7.381  0.1995 -0.2385  0.0854
    1W        W35126  10.173  17.291   0.061 -0.3624  0.0729 -0.0380
    1W        W35127  21.582   7.179   6.431  0.0358 -0.0058  0.0396
    1W        W35128  12.638   3.260   1.967 -0.1837  0.1484  0.1971
    1W        W35129  22.056   8.452   0.726 -0.0089 -0.0779  0.0309
    1W        W35130  13.956  15.834   7.583 -0.1387  0.1292  0.0206
    1W        W35131  18.032  11.840   9.831 -0.1391  0.0193  0.2303
    1W        W35132   5.429   1.481   2.705  0.2884  0.0988 -0.1049
    1W        W35133  18.133  17.389   8.958 -0.1233  0.1824 -0.1516
    1W        W35134  24.149  25.150   8.100 -0.0267  0.0398 -0.3351
    1W        W35135   3.770   5.472   3.125 -0.2196 -0.0400  0.0107
    1W        W35136  18.957  27.602   7.346 -0.0239  0.2307  0.0782
    1W        W35137  12.638  21.796   2.193 -0.1052  0.2404  0.0638
    1W        W35138  17.037   7.093   0.753 -0.1327 -0.0437  0.2629
    1W        W35139   5.833   3.420   0.543 -0.2416 -0.1033 -0.1188
    1W        W35140  16.867   2.990   9.674  0.0539 -0.0497 -0.2172
    1W        W35141  28.780  19.355   9.614  0.2179 -0.1269 -0.1006
    1W        W35142  24.840  18.024   1.202  0.2032 -0.0106 -0.2043
    1W        W35143  15.015  11.258   9.036  0.0142 -0.1418  0.1466
    1W        W35144  20.335   5.943   7.986  0.0532  0.2308  0.2915
    1W        W35145  26.435  22.852   3.826  0.0608  0.1558  0.0387
    1W        W35146   0.187   3.739   0.482 -0.1492 -0.0566 -0.0922
    1W        W35147   2.736   9.089   9.927 -0.2497 -0.0308  0.2522
    1W        W35148  16.215  20.157   0.257 -0.1947  0.0487 -0.2274
    1W        W35149   2.711  21.652   9.408  0.2907  0.1727 -0.1621
    1W        W35150   1.967   8.297   1.626  0.0402  0.0622 -0.0367
    1W        W35151   6.013  19.554   8.326 -0.1918 -0.0678  0.1142
    1W        W35152  22.859  11.396   9.324  0.0375  0.2973  0.4426
    1W        W35153   1.163   5.486   2.637  0.3851  0.3188  0.1585
    1W        W35154  16.919   4.441   6.511 -0.4097 -0.4641  0.0945
    1W        W35155  24.233  14.385   2.570  0.1707  0.2474 -0.2046
    1W        W35156  10.334  14.491   1.746 -0.0710 -0.0649  0.0511
    1W        W35157  27.289  19.520   2.067 -0.0194 -0.0635 -0.1117
    1W        W35158  24.175  11.108   9.581  0.2100 -0.1750  0.2052
    1W        W35159  21.601   1.582   0.991 -0.1273  0.0409  0.0577
    1W        W35160   7.576  27.838   0.405 -0.0305  0.0474  0.0795
    1W        W35161   7.901  22.802   7.499  0.1108 -0.1187 -0.0582
    1W        W35162   1.063   6.437   3.226  0.0810  0.1690  0.2057
    1W        W35163  28.700  22.140   8.459 -0.3090 -0.3579 -0.1383
    1W        W35164  17.003  11.082   0.614  0.1065 -0.1719 -0.0416
    1W        W35165   5.227   2.982   1.818 -0.0810  0.1786  0.2214
    1W        W35166  18.359  28.341   7.287 -0.0442  0.0065 -0.1859
    1W        W35167  24.422  12.631   0.944  0.1640  0.1496 -0.2820
    1W        W35168  19.354  18.662   2.424  0.1922 -0.1524  0.2316
    1W        W35169  18.842   2.487   7.416  0.1200  0.0783  0.2993
    1W        W35170  19.985   5.102   7.166 -0.0841 -0.0240  0.1022
    1W        W35171  27.816  13.576   1.223 -0.0074 -0.1770  0.0924
    1W        W35172  11.938  18.633   0.479 -0.2470 -0.0504 -0.1159
    1W        W35173  23.852   4.557   8.395 -0.0139 -0.5621  0.3356
    1W        W35174  27.684  24.281   2.300  0.2291 -0.0990  0.0025
    1W        W35175   0.025   7.489   9.356  0.0001 -0.0595 -0.4199
    1W        W35176  10.847   5.664   7.040 -0.0158 -0.0851 -0.0145
    1W        W35177  16.823  27.676   0.064  0.1179  0.1669 -0.2959
    1W        W35178  22.661  13.558   7.933 -0.0959 -0.4186  0.2459
    1W        W35179  13.889   2.079   7.490  0.1753 -0.0493 -0.0203
    1W        W35180  11.818   8.840   6.263  0.0027 -0.0822 -0.1509
    1W        W35181   9.601  22.449   8.821  0.1048 -0.2570  0.1444
    1W        W35182   6.867  10.974   2.172  0.3065 -0.1138  0.2013
    1W        W35183  26.407  24.952   2.459 -0.0891  0.2220 -0.0282
    1W        W35184  11.748   5.122   6.769  0.0444  0.0620 -0.2840
    1W        W35185  12.617   1.974   7.231 -0.2501  0.0418 -0.2065
    1W        W35186   2.160   7.942   2.999 -0.0123  0.0752 -0.0579
    1W        W35187   3.250   6.505   0.563 -0.1721 -0.1751  0.0926
    1W        W35188  12.437  23.876   2.292 -0.1484  0.2373 -0.0842
    1W        W35189  23.592  22.969   8.100  0.0108  0.0771 -0.0497
    1W        W35190   8.395   9.392   0.031 -0.0481  0.1858  0.5240
    1W        W35191  23.291  24.688   9.582 -0.0832  0.1717 -0.0411
    1W        W35192  13.322   9.281   7.925 -0.2029 -0.0721  0.0814
    1W        W35193  26.641  16.235   9.673 -0.0263 -0.1935 -0.1115
    1W        W35194  15.484   4.795   0.755  0.2831  0.2936  0.0808
    1W        W35195   4.426  15.913   3.228 -0.0707  0.3130 -0.1314
    1W        W35196  12.607  13.425   1.952  0.1507 -0.1952  0.2244
    1W        W35197   9.568  14.328   8.991  0.1059  0.0662  0.1127
    1W        W35198  14.689  25.427   2.065 -0.1315 -0.2777 -0.4532
    1W        W35199  20.297   6.240   6.703 -0.1279 -0.0220  0.0333
    1W        W35200  11.418   2.036   8.942  0.2840 -0.2995 -0.2687
    1W        W35201   9.456   0.325   7.716 -0.0402  0.2215  0.4912
    1W        W35202   6.872  10.975   7.259 -0.1221 -0.0268  0.2797
    1W        W35203   9.129   5.872   1.658  0.0601  0.1009  0.0105
    1W        W35204   6.637  27.414   2.328 -0.0087  0.0842 -0.2295
    1W        W35205  22.240  10.782   2.367 -0.0703  0.0083 -0.0523
    1W        W35206   3.700   6.289   8.118  0.1588  0.0186 -0.0064
    1W        W35207  14.419   9.356   9.351 -0.2537 -0.2045 -0.0005
    1W        W35208  15.456  12.866   0.573  0.1022  0.0663  0.1514
    1W        W35209  27.484   6.189   2.693 -0.0350 -0.1497  0.0425
    1W        W35210  27.676  28.199   3.255 -0.0011 -0.3975 -0.0828
    1W        W35211  20.734   7.858   7.518  0.2306 -0.0790 -0.1547
    1W        W35212  20.979  28.537   7.768  0.1621 -0.2771 -0.2629
    1W        W35213  23.112  11.341   7.135 -0.1890  0.2873  0.0724
    1W        W35214   5.888  24.909   4.387  0.0060  0.3017 -0.1109
    1W        W35215  14.585  24.060   0.796  0.0697 -0.0333  0.1154
    1W        W35216  25.959  24.874   7.600  0.2691 -0.0108  0.0228
    1W        W35217   1.442  13.169   8.006  0.1212  0.3959 -0.0471
    1W        W35218   6.154   7.922   2.869 -0.0354 -0.2603  0.1094
    1W        W35219  23.477  24.599   2.084  0.0896 -0.0898  0.0598
    1W        W35220   4.900  17.502   6.638 -0.1232  0.1345  0.1810
    1W        W35221   1.750  16.660   9.096  0.1662  0.1949 -0.1356
    1W        W35222   4.242   2.551   2.518 -0.2693  0.1007 -0.0623
    1W        W35223   7.491  13.797   7.978 -0.0247 -0.2999 -0.2760
    1W        W35224  27.350  11.754   7.442 -0.0114 -0.0997  0.2271
    1W        W35225   0.761  24.370   9.915 -0.1790  0.0240  0.1161
    1W        W35226  21.588   7.592   1.881  0.0015  0.1951 -0.0586
    1W        W35227  10.110  26.533   0.520 -0.0000  0.0377  0.2085
    1W        W35228   4.246  24.889   1.549  0.0446  0.0938  0.0273
    1W        W35229  18.588  25.484   1.040 -0.1604 -0.1130  0.2050
    1W        W35230   3.344  24.390   1.455  0.1168  0.0409 -0.3466
    1W        W35231  17.255  14.774   1.607 -0.0636 -0.0450 -0.1981
    1W        W35232  10.966  20.024   9.088  0.0594 -0.4549 -0.2746
    1W        W35233  18.284   3.514   7.887  0.1182 -0.1261 -0.2554
    1W        W35234   2.465  12.923   2.200 -0.1963  0.4741  0.1472
    1W        W35235  16.054  15.952   8.203 -0.1797  0.1088  0.0543
    1W        W35236   3.282   1.912   9.545  0.0835 -0.1106 -0.1158
    1W        W35237  24.984  23.444   2.636  0.0258 -0.1381  0.0687
    1W        W35238  16.191  10.854   1.068  0.3030 -0.0864  0.2074
    1W        W35239   5.522   3.925   1.708  0.3715 -0.1645  0.2218
    1W        W35240   6.383  21.062   1.647  0.0023  0.1225  0.1153
    1W        W35241   9.681  27.061   9.949  0.0827 -0.3032  0.0254
    1W        W35242  19.634  18.525   1.459 -0.1301  0.4194  0.3651
    1W        W35243  16.969   3.904   9.924 -0.0177  0.0921  0.0234
    1W        W35244  26.092  27.396   3.361  0.1290 -0.2044 -0.0116
    1W        W35245   4.957  12.998   8.552  0.0203  0.0255 -0.3720
    1W        W35246  20.257  17.282   8.703 -0.0499  0.0913 -0.0134
    1W        W35247   5.539  16.517   8.994 -0.0018 -0.1350  0.0327
    1W        W35248   5.821  16.257   9.402 -0.0137 -0.1087 -0.2543
    1W        W35249  17.878  11.887   6.742 -0.1308 -0.0741 -0.2611
    1W        W35250   3.794  18.511   1.613  0.1971 -0.0096  0.0819
    1W        W35251  18.878   4.948   9.366 -0.0333 -0.0053  0.1320
    1W        W35252   9.400  16.789   9.465  0.2946  0.2671 -0.1597
    1W        W35253   0.245  22.969   2.798  0.1200 -0.1871 -0.4946
    1W        W35254   1.166  10.171   9.655  0.1353  0.2170 -0.3381
    1W        W35255   7.771   8.746   8.400  0.2788  0.2743  0.0943
    1W        W35256  10.977  28.434   1.686  0.1803  0.0411 -0.2526
    1W        W35257  17.223  17.247   1.984  0.1988  0.4331 -0.2236
    1W        W35258  14.299   2.270   7.803  0.2594  0.0496 -0.1159
    1W        W35259  25.522  17.721   0.228  0.0494 -0.2003 -0.0525
    1W        W35260  18.113  20.706   6.566  0.0233  0.0288  0.1047
    1W        W35261  16.975  20.684   8.670  0.0196 -0.2461 -0.4316
    1W        W35262   5.660   1.016   3.532 -0.2250 -0.2941  0.0956
    1W        W35263  17.640   7.794   0.470 -0.1290 -0.1972  0.3951
    1W        W35264   5.990  18.858   0.554  0.1161 -0.0117 -0.3810
    1W        W35265   8.746  12.491   0.775 -0.0261 -0.1112 -0.0533
    1W        W35266  27.000   8.251   2.047  0.2578 -0.0656  0.1631
    1W        W35267   3.869  25.445   8.417 -0.0151 -0.0119  0.2783
    1W        W35268   5.456  11.473   1.413 -0.2700  0.0769 -0.0968
    1W        W35269   8.175  27.695   0.376  0.1935 -0.1950  0.2683
    1W        W35270   6.257  15.137   9.908  0.0775 -0.1816 -0.0611
    1W        W35271   2.859  15.757   1.231 -0.1849  0.1794 -0.2250
    1W        W35272   8.750  28.196   2.689 -0.0998  0.0767  0.3210
    1W        W35273   8.857  10.419   8.527  0.0379  0.2897 -0.0151
    1W        W35274  15.226  24.846   9.360  0.2834 -0.1706  0.1911
    1W        W35275  27.335  17.007   9.479  0.1959 -0.2528  0.5405
    1W        W35276   7.847  24.232   0.573  0.3095 -0.0759 -0.0316
    1W        W35277   4.962   3.169   8.347  0.0328  0.1010 -0.0604
    1W        W35278  20.130  25.290   8.573  0.0777  0.3040 -0.0152
    1W        W35279  15.445  21.751   6.940  0.0557  0.0250  0.2066
    1W        W35280   4.878  15.747   7.317 -0.0730  0.1699 -0.2012
    1W        W35281  27.713   9.033   2.211 -0.1574  0.0507  0.3493
    1W        W35282   6.577  27.355   2.971 -0.1242  0.2861 -0.2371
    1W        W35283   3.390  12.675   0.646 -0.1669  0.2084  0.2328
    1W        W35284   3.964  14.327   1.778  0.1698  0.1024 -0.1860
    1W        W35285  13.017  11.579   9.403  0.0146 -0.1891 -0.1075
    1W        W35286  19.744   1.896   8.255  0.0421 -0.0849  0.0769
    1W        W35287   4.953  26.902   1.361  0.1913 -0.0138  0.0003
    1W        W35288   8.801  25.820   0.938 -0.0535 -0.0355  0.0462
    1W        W35289  23.493  20.428   0.723 -0.4663 -0.0169 -0.0873
    1W        W35290  20.745  23.631   9.927  0.3603  0.4861  0.1661
    1W        W35291  26.254   5.743   9.281 -0.2241 -0.1237 -0.1834
    1W        W35292  23.623   4.887   7.565  0.1148 -0.3988  0.1264
    1W        W35293  22.318   4.979   2.368 -0.0561 -0.0544  0.2554
    1W        W35294  26.121  14.518   9.020  0.0639  0.3278 -0.1687
    1W        W35295   2.203   9.087   3.734 -0.0578  0.3674 -0.2855
    1W        W35296   9.376  18.596   2.591 -0.2452 -0.0267 -0.0386
    1W        W35297  24.967   3.824   0.863 -0.2494  0.0383  0.0919
    1W        W35298  22.403  11.354   8.223 -0.1350  0.1577  0.1097
    1W        W35299  14.932  12.342   7.377 -0.2112 -0.1210  0.0467
    1W        W35300  16.967  26.109   0.855 -0.2917 -0.0216 -0.1914
    1W        W35301   3.607   4.425   2.133 -0.2861 -0.0304  0.1491
    1W        W35302  26.261  22.724   0.480 -0.0168 -0.0950  0.1749
    1W        W35303   2.727  15.231   7.581 -0.0813  0.0384 -0.1430
    1W        W35304   6.476  25.295   0.970 -0.0333  0.0308 -0.2806
    1W        W35305   5.492  17.090   0.361 -0.1095 -0.2270 -0.0644
    1W        W35306  25.096  12.524   2.503 -0.0809 -0.0864 -0.0572
    1W        W35307  25.218  18.540   7.615  0.3372 -0.1413  0.0667
    1W        W35308  28.442  24.517   4.225 -0.3015 -0.1475  0.0948
    1W        W35309   6.017   0.540   2.597  0.0965  0.0851 -0.0759
    1W        W35310   6.611   6.103   0.427  0.0601 -0.0603  0.0111
    1W        W35311  26.937  24.527   1.715 -0.1116  0.0470  0.1914
    1W        W35312   6.018  18.729   1.029  0.0633  0.0520  0.1335
    1W        W35313  20.047   2.100   0.928  0.0111 -0.0311  0.0950
    1W        W35314   4.245  28.216   1.075  0.1164 -0.2416  0.1011
    1W        W35315  24.464  18.906   1.336 -0.2446 -0.2247 -0.0657
    1W        W35316  18.233  20.221   6.597 -0.2264  0.0814  0.0936
    1W        W35317  24.420  17.150   9.838 -0.0217 -0.2207  0.1476
    1W        W35318  13.343   9.502   7.418 -0.0056 -0.3428  0.1840
    1W        W35319  13.668  16.067   0.707  0.0367 -0.2810 -0.0591
    1W        W35320  12.613  22.969   8.980  0.0014  0.1065 -0.1195
    1W        W35321  17.263   9.580   1.170  0.0039 -0.0362 -0.3238
    1W        W35322  13.679  16.132   2.609  0.1711 -0.1808 -0.0488
    1W        W35323  22.813  23.059   0.551 -0.2676  0.0075  0.0082
    1W        W35324   1.440   6.554   2.307 -0.3176 -0.2214 -0.5042
    1W        W35325  17.160  25.007   2.526 -0.0795  0.0691 -0.1295
    1W        W35326  26.533  21.166   1.435 -0.0082  0.0092  0.2963
    1W        W35327   1.012  22.291   7.979  0.2324 -0.0036 -0.0521
    1W        W35328  25.826  12.699   3.105 -0.1901  0.0847  0.1371
    1W        W35329   4.001  12.275   0.236  0.5224  0.0097 -0.1583
    1W        W35330  11.680  10.861   6.348  0.1991  0.0356  0.4547
    1W        W35331   0.206   0.976   9.345 -0.1773 -0.0292  0.4304
    1W        W35332  23.925  21.384   8.182  0.0548  0.0512  0.0651
    1W        W35333  22.852   2.892   9.583 -0.6267 -0.2885 -0.0438
    1W        W35334   4.752  12.866   7.259  0.1576 -0.0694  0.2516
    1W        W35335  13.527  20.255   7.938 -0.0331 -0.2126  0.1628
    1W        W35336   4.681   7.560   1.863 -0.3714 -0.3466 -0.5785
    1W        W35337  17.564  14.884   0.355 -0.1016  0.0625  0.0021
    1W        W35338  23.388   0.361   1.976 -0.1087  0.0845 -0.0453
    1W        W35339   3.542  27.145   1.067 -0.1760  0.2355 -0.0922
    1W        W35340  21.522   9.781   9.329 -0.0028  0.1983 -0.2014
    1W        W35341  25.812  22.097   2.074 -0.1294 -0.1257  0.2978
    1W        W35342  25.746   8.562   0.445  0.1176 -0.1123 -0.0881
    1W        W35343   3.474   2.148   8.590  0.0147 -0.3093 -0.0732
    1W        W35344   8.213   8.970   8.580  0.1310  0.1269  0.1916
    1W        W35345  15.110   6.975   1.036 -0.0373  0.2030 -0.1050
    1W        W35346  11.034  10.124   9.282  0.1989  0.1749 -0.2396
    1W        W35347  17.464   4.635   8.021  0.0187  0.1930 -0.0405
    1W        W35348  11.549  18.568   8.305  0.2602 -0.0847  0.2218
    1W        W35349  16.557   5.572   6.468  0.0959 -0.1546  0.0759
    1W        W35350   0.080  24.674   3.193  0.2390 -0.2704  0.1544
    1W        W35351  20.427   2.851   7.619 -0.3518 -0.1519  0.1763
    1W        W35352  15.347   6.850   8.195  0.2067  0.0330  0.0626
    1W        W35353  27.245  15.089   1.178 -0.1182 -0.1725 -0.0693
    1W        W35354  18.862   4.250   8.553 -0.0307 -0.0511 -0.0619
    1W        W35355  13.080   7.459   9.705 -0.2706 -0.0083  0.4665
    1W        W35356  27.152  20.878   0.950  0.0876  0.0204 -0.1531
    1W        W35357   6.097   8.786   9.679  0.3575  0.0018 -0.1899
    1W        W35358  10.927  21.130   2.352 -0.0567  0.1051  0.0632
    1W        W35359   5.959  25.198   3.456  0.0564  0.4283  0.0248
    1W        W35360  27.775   4.298   0.130 -0.3916  0.1229 -0.0549
    1W        W35361   8.128   8.096   2.984  0.0201 -0.0969 -0.0972
    1W        W35362  17.276  22.336   0.370 -0.0596  0.1398  0.2384
    1W        W35363  26.254   2.618   3.760 -0.1762 -0.0289 -0.1806
    1W        W35364  16.107  16.361   7.437  0.3547 -0.2024  0.0869
    1W        W35365  27.954  18.770   0.527  0.1515 -0.2698 -0.0452
    1W        W35366  20.160  22.692   0.286 -0.0526  0.5663 -0.3174
    1W        W35367  28.701  28.542   1.196 -0.1728 -0.1104  0.3931
    1W        W35368  12.953  27.369   1.865  0.3648  0.0711 -0.0570
    1W        W35369   4.424  13.009   6.864 -0.2454  0.2568 -0.4272
    1W        W35370  15.502  28.629   1.692  0.1724  0.1104 -0.4270
    1W        W35371  19.379  15.626   6.489  0.4131  0.0355 -0.3001
    1W        W35372   9.561  23.750   0.173 -0.2429  0.2118  0.1296
    1W        W35373  27.120  24.306   8.387  0.0955  0.0492 -0.1920
    1W        W35374  19.514  25.805   2.154 -0.0525 -0.0034  0.0901
    1W        W35375   7.460  20.437   6.925 -0.0049 -0.1847 -0.0586
    1W        W35376  16.109   8.836   6.320 -0.2420  0.1501  0.2899
    1W        W35377  14.366  25.352   9.714 -0.3094  0.0959  0.1629
    1W        W35378  17.611  25.639   2.081  0.1316  0.0244 -0.1754
    1W        W35379  20.779  23.656   2.577  0.1384  0.2416 -0.1675
    1W        W35380  12.281   1.968   7.587  0.0300 -0.2119 -0.1411
    1W        W35381   0.230  21.919   9.927 -0.0883  0.1091  0.3016
    1W        W35382  27.189  15.102   0.671 -0.2958 -0.0530  0.0068
    1W        W35383  25.194  23.784   7.388  0.1632  0.2635  0.3651
    1W        W35384   2.097  22.565   1.096 -0.2998 -0.0135  0.0749
    1W        W35385  20.105  17.524   6.620 -0.0613 -0.0489 -0.0123
    1W        W35386  10.229   0.699   2.689  0.3776 -0.1674  0.0807
    1W        W35387  12.946   7.772   7.953  0.0867 -0.3421 -0.0375
    1W        W35388  10.698  13.375   2.077  0.0905 -0.1455 -0.2462
    1W        W35389  13.099   6.422   6.496 -0.0234 -0.3054  0.0153
    1W        W35390   1.684  23.122   3.981 -0.0031 -0.0748 -0.1656
    1W        W35391  17.784  23.740   8.562  0.0497 -0.0282 -0.4920
    1W        W35392  17.211  26.970   1.779  0.1035  0.0247 -0.0240
    1W        W35393  16.961  10.354   8.876 -0.2288  0.0278 -0.3238
    1W        W35394   1.946  14.356   7.719 -0.4253 -0.0020 -0.1186
    1W        W35395  21.576   1.159   0.600  0.0054  0.3432  0.2435
    1W        W35396  12.678  25.748   2.608  0.0920 -0.0137  0.0245
    1W        W35397   7.389   6.026   7.102  0.2266 -0.0509  0.1830
    1W        W35398  22.372   5.509   8.263 -0.3836  0.2334 -0.1771
    1W        W35399  21.970   2.386   2.323  0.5044 -0.1609  0.0795
    1W        W35400  10.222   3.834   0.540 -0.0321  0.2733  0.3650
    1W        W35401  24.784   8.870   0.985  0.0094  0.2245  0.0794
    1W        W35402   4.627  22.963   3.458 -0.0837 -0.3914  0.1152
    1W        W35403  26.332   5.560   3.218 -0.5040  0.1359 -0.2258
    1W        W35404  12.410  26.224   7.429  0.3033 -0.1211  0.2681
    1W        W35405  23.282  17.050   1.022  0.1010  0.1031  0.1402
    1W        W35406  22.099  24.766   0.575  0.2137 -0.0085 -0.0951
    1W        W35407  21.086   4.484   0.443 -0.1240 -0.1981  0.2677
    1W        W35408  19.096   4.712   6.890  0.0117 -0.0796  0.0340
    1W        W35409  12.165   8.132   5.916 -0.1375 -0.1865 -0.1376
    1W        W35410  24.414  16.520   0.772 -0.2042  0.1109  0.2692
    1W        W35411   4.560  22.338   1.320  0.0109 -0.1611  0.0463
    1W        W35412  28.611   6.830   1.867 -0.0827  0.4792 -0.3117
    1W        W35413  16.535  15.859   1.435 -0.0468 -0.0181  0.1999
    1W        W35414  26.780   9.570   8.523  0.1532 -0.2057 -0.3032
    1W        W35415  16.498  17.995   9.944 -0.2145  0.0924 -0.1665
    1W        W35416  16.269   5.861   0.623  0.0444 -0.0990  0.3550
    1W        W35417  25.355  18.198   0.110 -0.2177  0.4933 -0.0040
    1W        W35418   6.218  10.971   1.088 -0.1465 -0.0871 -0.1992
    1W        W35419  22.966  25.082   1.468 -0.1592  0.1836 -0.0587
    1W        W35420  13.623  16.999   6.865  0.0995  0.0424  0.0166
    1W        W35421   7.989   2.656   9.966 -0.3283 -0.4788 -0.0098
    1W        W35422  20.224   6.395   9.047  0.0342 -0.0830  0.0600
    1W        W35423   1.610  24.901   7.603  0.0503  0.1614 -0.2769
    1W        W35424  26.056  22.864   3.441  0.0376  0.1325 -0.2198
    1W        W35425   2.608  15.285   1.074  0.1508  0.0931 -0.0375
    1W        W35426  23.783  27.299   9.791 -0.2364 -0.1731 -0.1798
    1W        W35427  16.700  17.434   2.441 -0.1754  0.1576 -0.1656
    1W        W35428   3.806  19.087   1.885  0.0093  0.1190 -0.0832
    1W        W35429  22.420  23.406   1.157  0.4209  0.2553  0.1378
    1W        W35430  18.564  26.891   9.438  0.1997 -0.2645  0.0226
    1W        W35431  11.544  24.717   7.929  0.0364 -0.0508 -0.2165
    1W        W35432   2.043  15.243   9.703  0.0075  0.2446  0.0168
    1W        W35433   1.105   8.618   1.568 -0.0571 -0.3426  0.2054
    1W        W35434   2.585  24.391   9.866  0.1879 -0.1052 -0.1803
    1W        W35435  14.394   7.159   7.289  0.3849  0.0714 -0.1922
    1W        W35436   8.846   2.545   1.474 -0.0455 -0.0831 -0.1389
    1W        W35437  11.835  10.506   8.758 -0.3183 -0.0999 -0.1926
    1W        W35438   5.561   5.767   7.102  0.0657 -0.4067 -0.3213
    1W        W35439   5.818  21.130   7.545 -0.0816 -0.0564  0.1476
    1W        W35440  13.631   4.211   1.797 -0.0308  0.0602 -0.1302
    1W        W35441   3.672  20.302   8.186 -0.1297  0.1424  0.1434
    1W        W35442   2.900  16.532   8.236 -0.2746  0.0278 -0.1221
    1W        W35443  19.052  19.991   6.342 -0.2360  0.0828  0.0538
    1W        W35444   2.293  23.053   1.017  0.0106 -0.0852  0.0088
    1W        W35445   8.964  21.122   0.658 -0.0583 -0.1212 -0.1077
    1W        W35446  14.402  15.418   1.070  0.0465  0.0608 -0.1780
    1W        W35447   2.553   2.898   3.764 -0.1235 -0.0610  0.4180
    1W        W35448  15.999  21.021   8.927  0.1081  0.2847 -0.0597
    1W        W35449  22.951  19.470   9.324  0.2313 -0.2959  0.0054
    1W        W35450  24.288  16.787   2.942  0.2664  0.1836 -0.2552
    1W        W35451  11.252  22.285   7.500  0.0984 -0.0300 -0.1488
    1W        W35452   7.595  23.856   7.207  0.2198 -0.5089 -0.2158
    1W        W35453  16.592  17.638   7.207  0.0579  0.0632 -0.1916
    1W        W35454   5.922  24.915   8.482 -0.1450  0.1036 -0.0291
    1W        W35455  21.534  17.491   9.355  0.0147 -0.1160  0.1457
    1W        W35456  11.182   2.644   9.831 -0.1881 -0.0241 -0.1331
    1W        W35457  19.801   3.308   1.269 -0.3925  0.2704 -0.2823
    1W        W35458   8.457  26.444   8.737  0.0656 -0.0009  0.0211
    1W        W35459  27.327  23.030   0.134  0.0831 -0.0073  0.3842
    1W        W35460  17.649  13.672   6.970 -0.2062 -0.2397 -0.1083
    1W        W35461   5.492  13.901   9.998  0.0506 -0.2127  0.2214
    1W        W35462  23.362  21.381   8.242 -0.1457 -0.0480  0.0564
    1W        W35463  20.445   9.353   0.854  0.1145  0.1691 -0.0424
    1W        W35464  16.199   5.212   1.732  0.0522  0.0862  0.0215
    1W        W35465  22.848  11.785   1.803  0.1511  0.2835 -0.2796
    1W        W35466  10.580  12.509   8.781 -0.0821 -0.2848  0.0400
    1W        W35467   2.951  10.940   8.507 -0.1296  0.0446 -0.0191
    1W        W35468  16.355  23.261   2.219  0.1867  0.0787  0.1121
    1W        W35469   9.947  14.796   1.898 -0.0724 -0.0197 -0.2164
    1W        W35470  22.523  14.459   1.189 -0.3124  0.2418  0.2600
    1W        W35471  11.554  24.207   7.787  0.0862  0.0995  0.0934
    1W        W35472  22.089  17.956   8.930  0.0489 -0.0037  0.0540
    1W        W35473  17.808  15.962   7.075  0.2461 -0.0132  0.0264
    1W        W35474  26.280  13.482   0.846 -0.1509  0.0113  0.1584
    1W        W35475  25.417   3.082   0.962 -0.0262  0.1736  0.3520
    1W        W35476   1.759  23.811   1.011 -0.0800 -0.3459 -0.0147
    1W        W35477  11.965  10.581   7.766 -0.2969  0.0311 -0.0619
    1W        W35478   6.569   2.206   0.964 -0.0794 -0.2445 -0.0904
    1W        W35479  23.102  15.589   8.424 -0.0868  0.0813  0.0868
    1W        W35480  18.515   0.942   0.568  0.1021 -0.0257 -0.1252
    1W        W35481  19.921   4.345   6.532 -0.2942 -0.1445  0.1564
    1W        W35482   4.818  18.660   0.281 -0.0025  0.4195 -0.1577
    1W        W35483   0.308  13.807   2.465  0.0165 -0.0477  0.0518
    1W        W35484  28.807  21.899   9.476 -0.0806  0.2554  0.0410
    1W        W35485   0.724  10.448   1.646 -0.1919 -0.0360  0.3890
    1W        W35486  27.930  15.288   2.727 -0.1735  0.4009  0.0419
    1W        W35487  11.818   2.018   7.346 -0.2228 -0.2226  0.2947
    1W        W35488   2.427  18.575   7.070  0.0365 -0.2705  0.1380
    1W        W35489  10.077   8.909   8.624  0.0903 -0.1430 -0.1358
    1W        W35490  20.299   5.839   9.111 -0.3310 -0.0612  0.0781
    1W        W35491  28.436  18.306   1.756 -0.1526 -0.0825 -0.0786
    1W        W35492  24.605   6.196   3.058 -0.1901  0.0819  0.0315
    1W        W35493   6.296  15.260   0.404  0.1608  0.0466  0.0056
    1W        W35494  14.404  11.573   9.717  0.0827  0.2395  0.0461
    1W        W35495  18.640  28.096   3.115 -0.1183 -0.0804 -0.1405
    1W        W35496   8.006   5.032   9.555 -0.2711  0.0849  0.3006
    1W        W35497  27.144  14.185   8.570  0.0964 -0.0423 -0.1346
    1W        W35498  21.386  20.287   2.267 -0.0659  0.1631  0.3162
    1W        W35499  15.043  17.022   0.191 -0.1681 -0.1097 -0.2317
    1W        W35500   2.501  28.297   9.377 -0.1557  0.0063  0.2366
    1W        W35501  22.907  23.437   9.418  0.2766  0.1828 -0.0364
    1W        W35502  20.590  28.075   8.295 -0.0156 -0.0876  0.0650
    1W        W35503   0.031  10.185   7.713  0.0108 -0.1610  0.1013
    1W        W35504  27.110   6.735   1.587 -0.1062  0.2620  0.1718
    1W        W35505  28.766  25.168   9.108 -0.0399 -0.0949  0.3117
    1W        W35506  14.342  22.195   0.978  0.2617 -0.0482 -0.0722
    1W        W35507  24.760  21.922   9.425  0.1938  0.1228 -0.0717
    1W        W35508  20.187  10.552   0.596 -0.1891 -0.3676 -0.0823
    1W        W35509  18.112  20.971   2.808  0.1855  0.2754 -0.1303
    1W        W35510  26.636  21.230   3.140 -0.0578  0.2719  0.1351
    1W        W35511  15.340  25.283   8.052  0.0170  0.1854 -0.1422
    1W        W35512   9.923   8.993   9.796 -0.2319  0.4163 -0.0516
    1W        W35513  23.619   2.558   2.281  0.0651  0.3078 -0.0301
    1W        W35514   7.094  22.983   9.265 -0.0795  0.0540 -0.0781
    1W        W35515  20.110  10.105   6.431 -0.0381 -0.0531  0.0191
    1W        W35516  13.836  23.265   1.534 -0.2137  0.0367  0.2898
    1W        W35517  20.385   1.476   0.248 -0.2637 -0.0788  0.0120
    1W        W35518   2.809  27.167   3.651  0.0849  0.2377  0.0418
    1W        W35519   3.287   6.090   2.722 -0.1194 -0.0620 -0.3460
    1W        W35520  15.357   9.637   1.073  0.1715 -0.1118  0.0559
    1W        W35521  23.249   6.229   7.879 -0.3080 -0.2155  0.0882
    1W        W35522  25.856  25.668   2.365 -0.1353  0.1064  0.2533
    1W        W35523  11.185  12.016   0.323  0.0875 -0.1647 -0.0730
    1W        W35524   3.624   2.470   8.269  0.4246 -0.2143 -0.2862
    1W        W35525  10.846   2.239   9.644 -0.0965  0.2768 -0.0808
    1W        W35526  13.975   9.476   0.259 -0.2266 -0.1319  0.2333
    1W        W35527  10.709  10.975   6.473  0.1214  0.1932  0.2577
    1W        W35528  21.802  14.512   7.008 -0.0346  0.1952  0.3330
    1W        W35529  21.451   1.991   7.069 -0.0103  0.1497  0.1194
    1W        W35530  11.355  28.103   1.417  0.0528  0.1579 -0.1514
    1W        W35531  10.694  23.425   0.330  0.1772  0.0885 -0.1889
    1W        W35532   3.147  17.803   9.494 -0.0469 -0.0168  0.0172
    1W        W35533  20.014   1.026   7.889  0.0337  0.2138 -0.0037
    1W        W35534   9.844   3.214   2.901  0.0181  0.0335 -0.0959
    1W        W35535  26.854  23.200   0.011 -0.1211  0.2422  0.0490
    1W        W35536  18.570  22.932   8.638 -0.4426 -0.3638 -0.0873
    1W        W35537   0.853  12.853   8.821  0.1539  0.1811 -0.2102
    1W        W35538   5.780  11.420   0.957  0.2261 -0.3730  0.0521
    1W        W35539  10.254  10.438   1.145 -0.1522  0.1051 -0.0119
    1W        W35540  18.731  22.519   7.814  0.0316 -0.1677 -0.0890
    1W        W35541  19.963  19.529   8.447  0.0485  0.2065 -0.0611
    1W        W35542  11.153  19.020   9.086  0.0421 -0.1208 -0.1753
    1W        W35543   7.270   1.940   8.718 -0.2654 -0.2954  0.4221
    1W        W35544   5.318  15.035   0.866  0.3014 -0.1084  0.1078
    1W        W35545   8.886  24.249   3.888  0.1429  0.4046  0.0990
    1W        W35546   1.987  11.360   7.474  0.1242 -0.1657  0.2110
    1W        W35547  26.212  21.615   1.335  0.1038 -0.1824  0.1429
    1W        W35548  23.524   0.926   2.065  0.0509  0.1406  0.0420
    1W        W35549  14.266  11.416   1.919 -0.0142  0.2487  0.0367
    1W        W35550   1.138  10.771   0.158  0.3118 -0.0856 -0.0882
    1W        W35551  17.232   9.373   7.963  0.0373 -0.0810  0.4548
    1W        W35552   6.984   5.063   7.963 -0.0953  0.4792  0.0661
    1W        W35553  27.075  17.325   9.786 -0.0051 -0.2541  0.1206
    1W        W35554  26.516   1.354   3.298 -0.1278 -0.3503 -0.1992
    1W        W35555   9.605  25.095   2.520  0.0820  0.3240  0.2288
    1W        W35556   6.819   3.696   9.920 -0.1457 -0.1725 -0.0034
    1W        W35557  14.828  13.031   9.760  0.0518 -0.3170 -0.0705
    1W        W35558   4.252   6.757   8.843  0.0685 -0.0765  0.0740
    1W        W35559   0.271   4.032   9.494 -0.1502 -0.2891  0.3133
    1W        W35560  15.868  15.981   0.061 -0.0360 -0.0147 -0.0581
    1W        W35561  12.474  10.744   9.218 -0.4391 -0.1727 -0.2005
    1W        W35562  22.250   6.229   0.104 -0.0384 -0.0316 -0.0199
    1W        W35563  28.379  11.300   3.397  0.0950 -0.0420  0.0850
    1W        W35564   6.860  17.387   2.227  0.1780 -0.1287 -0.0527
    1W        W35565  22.540  13.707   6.752  0.0253 -0.0043  0.1710
    1W        W35566  11.018   8.061   9.724 -0.0249 -0.1137 -0.2565
    1W        W35567  15.688  17.616   7.149  0.0578  0.1545  0.2176
    1W        W35568   4.852  17.399   7.495  0.0732 -0.1116 -0.3134
    1W        W35569  19.301  21.615   6.046  0.1963 -0.1852 -0.0796
    1W        W35570  11.766  22.569   9.021  0.0597  0.1750 -0.0239
    1W        W35571   3.158  12.601   2.309  0.0990  0.1316 -0.0995
    1W        W35572  21.170  10.081   9.594  0.1293 -0.1746 -0.0989
    1W        W35573   8.602   4.940   3.328 -0.1034 -0.0777 -0.1419
    1W        W35574  22.633  10.634   0.645 -0.1309 -0.1440  0.0996
    1W        W35575  22.858  10.153   2.764 -0.3435 -0.1966  0.1284
    1W        W35576  28.633   7.473   7.938 -0.1279 -0.2005  0.1115
    1W        W35577  15.094  14.876   8.078 -0.3555  0.1039  0.1118
    1W        W35578  21.716  27.547   9.384 -0.0710  0.1384  0.1064
    1W        W35579  19.463  18.262   9.274  0.4338  0.5261  0.0735
    1W        W35580  10.721  27.775   3.075 -0.1376  0.3027  0.0263
    1W        W35581  15.411  10.631   0.942 -0.0771  0.2890  0.0144
    1W        W35582  19.118  22.233   0.949  0.1350 -0.0185 -0.1642
    1W        W35583   6.792   1.195   2.831 -0.1447  0.3543  0.1523
    1W        W35584   4.742  27.280   3.378  0.0329  0.0684  0.0418
    1W        W35585  14.405  21.734   9.855  0.2367  0.1625 -0.1332
    1W        W35586  21.114  13.465   8.057  0.2033 -0.5293 -0.2569
    1W        W35587   0.359  10.068   3.554 -0.0101  0.0231  0.1621
    1W        W35588  12.506  13.456   6.961  0.0186 -0.1250  0.1945
    1W        W35589   2.703  24.619   9.410  0.3775  0.0194  0.2153
    1W        W35590  13.067  23.953   1.828 -0.2155 -0.1475  0.0691
    1W        W35591  13.806   9.123   1.914  0.0192  0.0183  0.1240
    1W        W35592  19.915  19.200   8.973  0.0412  0.2363  0.1228
    1W        W35593  27.788   6.208   9.139  0.0498 -0.2911  0.3147
    1W        W35594   4.033  11.663   6.635 -0.0026  0.0994 -0.0174
    1W        W35595  25.084  13.852   1.490 -0.1167 -0.2421  0.2287
    1W        W35596   8.919   3.328   7.035 -0.2307  0.2974  0.1229
    1W        W35597   6.017   4.466   2.355  0.0329 -0.0355  0.0744
    1W        W35598   1.635   4.766   0.880  0.2476 -0.0609 -0.2430
    1W        W35599  11.897  17.672   7.123  0.1381  0.0142 -0.1799
    1W        W35600  26.853   8.109   2.619 -0.0406  0.3815  0.0328
    1W        W35601   2.115   2.463   1.245  0.1779 -0.1530  0.3680
    1W        W35602  28.004  24.578   9.487  0.2018  0.0266 -0.0685
    1W        W35603   5.554  18.586   7.091  0.2780 -0.0104  0.0975
    1W        W35604  19.341   1.343   8.599 -0.3198 -0.2006 -0.1023
    1W        W35605  22.024  20.590   7.489  0.1754  0.0201 -0.0553
    1W        W35606  28.517   4.687   0.528  0.2481  0.0220  0.0733
    1W        W35607   6.143   9.950   2.353  0.1272  0.1540  0.0464
    1W        W35608  10.765   0.126   1.452  0.2676 -0.2645  0.1294
    1W        W35609   4.029   9.320   1.571  0.0200 -0.1385  0.2925
    1W        W35610  16.898   2.344   7.926  0.0206 -0.1142 -0.2102
    1W        W35611  25.838   9.113   2.176  0.0716 -0.1824  0.1139
    1W        W35612  24.328   2.765   9.986 -0.0108  0.2938  0.3303
    1W        W35613  27.162   2.094   2.073 -0.1709 -0.0830  0.0009
    1W        W35614  24.029   6.562   1.890  0.0093 -0.1907 -0.2319
    1W        W35615  12.255   4.054   0.331  0.1541  0.0246 -0.0686
    1W        W35616  17.662   8.796   6.726 -0.1691 -0.2311 -0.1263
    1W        W35617  27.590  13.133   1.164 -0.0088 -0.2551  0.1840
    1W        W35618   3.994  20.553   2.214 -0.0001  0.1714 -0.0058
    1W        W35619  14.096  17.239   7.007  0.1856 -0.0642 -0.1166
    1W        W35620   9.731   2.725   1.383  0.0623 -0.1062  0.0608
    1W        W35621  11.032  25.506   0.378 -0.1648 -0.1494  0.1398
    1W        W35622  15.445  21.021   0.060 -0.1729 -0.1858 -0.0798
    1W        W35623   8.421   3.775   8.996 -0.1851 -0.2440  0.0512
    1W        W35624   6.229   5.150   2.895  0.3812  0.1472 -0.1897
    1W        W35625  19.451  16.079   8.412 -0.0906  0.3055  0.2794
    1W        W35626  25.225  19.633   3.325  0.4052 -0.0089 -0.3644
    1W        W35627  22.273   5.202   9.249  0.1259 -0.0931 -0.1518
    1W        W35628  25.516  18.636   8.158 -0.3911 -0.1592  0.1698
    1W        W35629  12.252   4.336   1.312  0.1481 -0.1199  0.4363
    1W        W35630  18.711   1.872   9.637 -0.0776  0.0303 -0.0189
    1W        W35631   7.635  18.212   8.845 -0.3614  0.1821 -0.1256
    1W        W35632  25.669   2.660   1.207  0.0185  0.0521 -0.2803
    1W        W35633  16.576   1.448   7.939 -0.1714  0.0447  0.1763
    1W        W35634  20.344  18.409   0.180  0.1841 -0.0352  0.0460
    1W        W35635  25.960  20.359   1.534 -0.0474 -0.0065 -0.2364
    1W        W35636  22.463  26.765   9.922  0.3792 -0.0181 -0.3995
    1W        W35637   6.878  19.367   8.950 -0.1264 -0.0867  0.1692
    1W        W35638  13.285  20.592   9.105 -0.1049 -0.1664 -0.2610
    1W        W35639  22.570  11.492   0.222  0.0321  0.0615 -0.0197
    1W        W35640  25.843  15.619   7.119  0.2218  0.0367 -0.0019
    1W        W35641  13.029  13.819   6.220  0.0415 -0.1068  0.0250
    1W        W35642   4.072   6.405   4.079  0.2771 -0.1884  0.0913
    1W        W35643   6.737  11.808   8.203  0.2212  0.0915  0.0499
    1W        W35644   8.159  20.829   3.229  0.4791 -0.1414  0.0449
    1W        W35645   7.005  15.424   1.805  0.2009 -0.0479  0.1348
    1W        W35646   6.312  21.124   3.171  0.0081  0.0035 -0.2860
    1W        W35647  25.734   1.542   1.088 -0.0336  0.0370  0.2456
    1W        W35648  17.999  10.220   7.223 -0.0436 -0.1841 -0.0257
    1W        W35649  19.693  17.252   1.036 -0.2587  0.0073  0.1509
    1W        W35650   9.902  25.730   8.010 -0.1588 -0.0757 -0.2230
    1W        W35651  21.757   4.367   1.236 -0.3392  0.1119 -0.2343
    1W        W35652  24.529  14.994   1.237  0.0072  0.0142 -0.0388
    1W        W35653  11.807   1.785   9.416 -0.0417  0.1431 -0.0952
    1W        W35654   5.772  18.145   0.040  0.0952 -0.0927 -0.1372
    1W        W35655   9.127  12.847   0.775  0.0876 -0.1298  0.1827
    1W        W35656  12.354  14.866   1.888  0.0019  0.0017 -0.1632
    1W        W35657  19.618  25.147   6.808  0.2804  0.1550  0.1319
    1W        W35658  28.094   8.020   1.439  0.0505  0.1349 -0.0260
    1W        W35659  23.601  20.153   7.036 -0.1512 -0.0869  0.3380
    1W        W35660  22.424  17.713   1.612 -0.1973 -0.3488 -0.3506
    1W        W35661  14.954  14.613   1.296 -0.0419  0.2700  0.0419
    1W        W35662   4.500   9.055   0.667  0.1974 -0.1266 -0.2830
    1W        W35663  15.611  25.902   1.510 -0.0104  0.0377  0.2565
    1W        W35664   4.977  14.622   8.194  0.1960  0.0685  0.0273
    1W        W35665  24.676  19.624   9.570 -0.4763 -0.0494 -0.2796
    1W        W35666  13.521   0.330   8.942 -0.0136  0.1500  0.1103
    1W        W35667   6.192   1.044   1.609 -0.0727  0.0182  0.0398
    1W        W35668   3.059  20.532   0.700 -0.2453  0.0334  0.1570
    1W        W35669  21.927   1.474   7.324  0.1912 -0.3099 -0.1869
    1W        W35670  16.825   3.646   8.111 -0.3433 -0.0710 -0.2885
    1W        W35671  14.439  17.677   3.012 -0.2624  0.0446  0.2937
    1W        W35672  11.098  10.076   7.305  0.2152  0.2167  0.2311
    1W        W35673  17.784   5.106   8.113  0.1115 -0.2548 -0.0578
    1W        W35674   7.006  15.005   6.780  0.0895 -0.0663  0.0092
    1W        W35675  13.534  10.924   7.837  0.2109  0.0024 -0.0068
    1W        W35676   6.688  23.766   1.800  0.1488 -0.1680 -0.1401
    1W        W35677   2.215  19.136   1.924 -0.1512  0.1648  0.1935
    1W        W35678  21.309  20.607   8.783 -0.1016 -0.0854 -0.0345
    1W        W35679   6.715  21.756   0.530 -0.2111  0.0625 -0.1055
    1W        W35680  18.626  14.016   7.557  0.0418 -0.1811  0.1531
    1W        W35681  27.163   3.073   8.803  0.0966  0.0449 -0.1146
    1W        W35682  16.830  21.922   9.172 -0.2559  0.0953  0.3895
    1W        W35683  16.519  16.011   6.262  0.0334  0.1810  0.0946
    1W        W35684   8.721  25.300   9.123 -0.0537  0.0020 -0.0600
    1W        W35685   7.188  18.399   9.663 -0.1590 -0.2594 -0.1620
    1W        W35686  27.947  27.701   8.377  0.0878 -0.1154  0.0749
    1W        W35687   6.845   0.098   8.837  0.0203 -0.0146 -0.0685
    1W        W35688   9.540  28.004   2.684 -0.2050  0.1948  0.2577
    1W        W35689   9.631  18.595   7.099 -0.3912 -0.1622  0.2928
    1W        W35690   0.058   3.468   8.226  0.1253  0.3002  0.2134
    1W        W35691   2.596  20.786   9.983  0.0280  0.1173 -0.3319
    1W        W35692  12.550   2.845   2.278  0.0521 -0.3343  0.0253
    1W        W35693   3.922   7.564   8.667 -0.0682 -0.0163 -0.1173
    1W        W35694   8.469  10.588   8.786  0.0883  0.0088 -0.0886
    1W        W35695   9.602  12.843   6.505 -0.1019  0.0132  0.1769
    1W        W35696  26.584  18.161   7.338 -0.0191  0.1099  0.2501
    1W        W35697   6.870   7.480   7.219 -0.1726  0.1602  0.1330
    1W        W35698  15.956   3.403   7.600  0.0852 -0.0976 -0.0429
    1W        W35699  13.912   7.942   8.236  0.3120 -0.4577  0.1909
    1W        W35700  23.004   0.777   0.742  0.0092 -0.1015  0.2124
    1W        W35701  15.404  22.407   9.251  0.1365 -0.1850 -0.1366
    1W        W35702  19.315  21.148   1.195 -0.0715 -0.1407 -0.0345
    1W        W35703  18.751  26.106   1.672  0.1838 -0.3197  0.2197
    1W        W35704  11.838  19.229   2.066 -0.3270  0.0646  0.1418
    1W        W35705  23.509   0.674   8.372 -0.2353 -0.1001  0.2732
    1W        W35706  19.071  12.763   7.778  0.0893 -0.0831 -0.0115
    1W        W35707  13.666  13.053   6.676  0.0528 -0.0932  0.0432
    1W        W35708  17.259  18.637   8.957  0.0973 -0.0494 -0.1088
    1W        W35709  28.367  10.978   3.020  0.0715  0.1648 -0.1008
    1W        W35710  24.733   6.371   8.916  0.1840 -0.1443  0.0888
    1W        W35711   7.716  19.067   0.930  0.1020 -0.0655 -0.0669
    1W        W35712  22.111   7.692   8.478 -0.1107  0.2477  0.4802
    1W        W35713  15.839  12.440   1.476 -0.0435 -0.1608 -0.3067
    1W        W35714  17.174  27.396   0.255  0.0916 -0.4095 -0.1364
    1W        W35715  27.001  19.950   0.984  0.1069 -0.0223 -0.0275
    1W        W35716  21.526  19.327   0.216 -0.1273 -0.1969 -0.0080
    1W        W35717   0.934   4.203   0.635 -0.0898  0.2635  0.1744
    1W        W35718  27.311  26.588   0.262  0.1968 -0.0258  0.3557
    1W        W35719   5.914   2.335   4.107  0.0598 -0.2355  0.0251
    1W        W35720   4.653   8.079   9.832 -0.2689 -0.0084 -0.3237
    1W        W35721  19.257  27.672   2.217 -0.0855  0.0055  0.0841
    1W        W35722  18.660  28.290   7.710 -0.3994 -0.0312  0.0439
    1W        W35723  18.517  22.197   7.406 -0.2831 -0.2037 -0.0953
    1W        W35724   7.675  16.316   0.084 -0.0759  0.0305 -0.1521
    1W        W35725   3.921  18.320   8.777 -0.2315 -0.3189  0.2064
    1W        W35726   0.025  19.041   1.723  0.3796  0.0235 -0.1461
    1W        W35727  24.618  12.010   9.827 -0.1153  0.2631  0.2632
    1W        W35728   2.611   0.298   2.726  0.1114 -0.1270 -0.1242
    1W        W35729  17.281  25.791   1.111 -0.2035  0.2498  0.3493
    1W        W35730  11.891  13.268   1.856 -0.0944 -0.6315  0.0219
    1W        W35731   7.462  26.382   1.093  0.2335  0.1371  0.2567
    1W        W35732   1.256   3.955   9.211  0.0984 -0.0706  0.1369
    1W        W35733   3.287   0.824   3.671  0.0663  0.0962 -0.0866
    1W        W35734   1.018  11.215   3.407  0.0195 -0.2119 -0.1102
    1W        W35735   2.565  15.562   8.281 -0.2530  0.0148  0.4716
    1W        W35736  25.481   0.282   8.660 -0.2966  0.1785 -0.3871
    1W        W35737   0.719  24.089   0.305 -0.2003  0.1297  0.0627
    1W        W35738  12.943   2.502   1.608  0.1430 -0.0876  0.1924
    1W        W35739   6.716  20.652   7.358 -0.0465  0.2320  0.2882
    1W        W35740  18.345   0.416   7.636 -0.0359  0.1838  0.3130
    1W        W35741   6.754   3.849   9.405 -0.0012 -0.0208 -0.2885
    1W        W35742  22.850   9.075   0.263 -0.2518  0.1894 -0.0920
    1W        W35743  10.293   2.584   0.332  0.0347  0.1862  0.0628
    1W        W35744   8.743  12.775   6.966  0.2487  0.0692  0.0726
    1W        W35745  14.266   5.904   6.030 -0.1987 -0.0083 -0.0357
    1W        W35746   8.582  21.021   3.996 -0.4986  0.2696  0.0245
    1W        W35747  21.634  18.901   2.420 -0.0324 -0.0189 -0.0528
    1W        W35748  18.361  18.672   0.244 -0.1948  0.1149 -0.1390
    1W        W35749  19.601  18.862   7.123 -0.0901 -0.1040 -0.4081
    1W        W35750  25.901  10.459   3.075  0.2358  0.0552  0.2291
    1W        W35751   4.942   2.805   3.730  0.0076  0.1845 -0.0383
    1W        W35752   6.612  22.244   0.401 -0.1179 -0.0050 -0.5431
    1W        W35753  15.352  22.289   7.006  0.1717 -0.0385  0.0782
    1W        W35754  14.871  28.284   1.570  0.0240 -0.0450  0.3877
    1W        W35755   5.922   6.985   8.125 -0.2412 -0.3767 -0.0233
    1W        W35756  20.059  13.731   6.643  0.1283 -0.0771 -0.1636
    1W        W35757  13.989   9.012   0.815  0.1153  0.2247  0.2729
    1W        W35758  21.265   1.136   8.046 -0.1498 -0.1298  0.1705
    1W        W35759   0.830  25.137   3.039  0.3730  0.1085 -0.0069
    1W        W35760  17.752  14.081   2.567 -0.1465 -0.0330 -0.0688
    1W        W35761  25.217   1.872   1.403  0.1159  0.2936 -0.2317
    1W        W35762  21.940  20.599   8.034  0.1821  0.0796 -0.0172
    1W        W35763  22.153   5.489   6.513  0.0776 -0.1161  0.1227
    1W        W35764   0.276  27.732   3.444 -0.0024 -0.1824  0.1022
    1W        W35765  20.487  21.992   9.563 -0.3283 -0.0593 -0.0971
    1W        W35766  15.058   4.685   0.517  0.2197  0.2844  0.0352
    1W        W35767  17.360  26.619   1.358 -0.0147  0.1767  0.2087
    1W        W35768   2.906  16.988   9.213 -0.0321 -0.0100  0.0981
    1W        W35769  26.537  14.023   3.368 -0.2714 -0.0314  0.0612
    1W        W35770  20.474   9.208   7.129  0.0203  0.0994  0.1300
    1W        W35771  11.846  11.994   1.579  0.0156 -0.2477  0.3254
    1W        W35772  24.534  22.942   7.373 -0.1040 -0.2072  0.0950
    1W        W35773   3.287   7.603   8.329 -0.1679  0.0194  0.2462
    1W        W35774  28.654  25.204   2.462  0.0669 -0.1331 -0.0558
    1W        W35775  18.287   5.383   7.563 -0.2081  0.1555  0.3351
    1W        W35776   4.423  23.921   1.503  0.2474  0.0203 -0.1386
    1W        W35777  13.420  19.697   8.502  0.1693 -0.0197 -0.1111
    1W        W35778  16.750   0.893   0.139 -0.1776  0.0749 -0.0024
    1W        W35779   0.773   1.466   8.998  0.0333  0.2262  0.0119
    1W        W35780  17.758  28.162   6.834  0.3384  0.1803 -0.0344
    1W        W35781  17.647  21.550   8.066  0.0782  0.0640  0.0459
    1W        W35782  26.816  14.785   0.865 -0.1493 -0.0131  0.2704
    1W        W35783   9.027   8.409   6.813  0.0917 -0.2823 -0.0500
    1W        W35784   1.406  13.655   2.117 -0.1840  0.0818 -0.0139
    1W        W35785  28.511  25.655   8.854  0.1910  0.4355 -0.2489
    1W        W35786   3.049  19.532   2.468 -0.0158  0.2418  0.0674
    1W        W35787  26.109  14.246   1.296  0.2308  0.0497  0.0517
    1W        W35788  18.265  26.163   2.109 -0.0858  0.0043  0.2318
    1W        W35789  24.119  28.176   8.127  0.0527 -0.2865  0.2030
    1W        W35790   6.162  18.934   7.596  0.2201  0.0122 -0.0044
    1W        W35791  15.980  14.261   7.094  0.0233  0.0676 -0.2921
    1W        W35792  28.033   2.448   1.131 -0.1141  0.0046  0.0566
    1W        W35793  20.776  28.032   9.876 -0.3677 -0.1784 -0.0849
    1W        W35794  17.767  15.568   1.403 -0.0663 -0.1570 -0.2556
    1W        W35795   9.005  14.333   9.839  0.2914  0.0065  0.0278
    1W        W35796   1.140  13.847   9.982  0.1582 -0.1375  0.4277
    1W        W35797  27.582   4.628   8.961  0.0389 -0.2708  0.1340
    1W        W35798   4.584   5.885   7.264  0.1708 -0.1127 -0.0058
    1W        W35799  17.147  24.201   0.055  0.2314 -0.2916 -0.1660
    1W        W35800   0.430   2.998   3.677  0.1826 -0.2420  0.0183
    1W        W35801  27.257   3.334   8.317  0.0682 -0.2720  0.0204
    1W        W35802  18.752  11.391   8.460 -0.0662 -0.0395  0.3314
    1W        W35803   5.338   3.356   9.098 -0.1843 -0.1589 -0.0176
    1W        W35804  14.217  12.842   9.068 -0.1336 -0.0288  0.3176
    1W        W35805  18.664   7.283   1.233 -0.1079 -0.1237 -0.0747
    1W        W35806  28.812  28.550   9.451  0.1309 -0.1835  0.0948
    1W        W35807  13.075   2.351   7.836 -0.2139  0.0931  0.1100
    1W        W35808  23.427   7.832   8.436  0.1219 -0.0070  0.2188
    1W        W35809   6.744  14.188   7.910 -0.1719 -0.3169  0.1953
    1W        W35810  17.393  22.481   7.953 -0.2798 -0.2970  0.2441
    1W        W35811  27.133   7.265   2.825  0.1117 -0.0806 -0.1087
    1W        W35812  20.532  18.723   5.759  0.0051 -0.2773  0.2326
    1W        W35813   7.967  18.174   0.336 -0.1076  0.1311  0.2902
    1W        W35814  13.216  14.567   7.501  0.1802  0.1165 -0.2463
    1W        W35815  20.280   9.894   8.427 -0.1849 -0.0484  0.0855
    1W        W35816   4.227  25.973   0.826  0.4873 -0.0001 -0.0020
    1W        W35817  22.649   1.276   0.219 -0.0698 -0.2547 -0.0419
    1W        W35818  28.667  22.852   9.808  0.0801 -0.0130  0.2092
    1W        W35819  23.274  13.287   2.317  0.0289 -0.0860  0.2700
    1W        W35820  22.156  18.103   1.963  0.1555 -0.1267  0.3095
    1W        W35821  16.129  23.327   9.200  0.1405  0.2015  0.2624
    1W        W35822  28.509   2.338   0.899  0.2817 -0.0160  0.1140
    1W        W35823   4.524  19.832   2.112 -0.1718 -0.0135  0.0716
    1W        W35824  16.928  17.913   8.498  0.0229  0.0043 -0.2327
    1W        W35825   2.697   9.265   8.904  0.1658 -0.0522 -0.0160
    1W        W35826   5.318   2.496   8.295 -0.0569  0.0987 -0.0196
    1W        W35827  14.900  19.026   7.123  0.3698 -0.0862  0.0794
    1W        W35828  11.633   0.178   7.087 -0.0184  0.2623 -0.4261
    1W        W35829   4.268  12.351   2.342 -0.0162 -0.3720  0.0933
    1W        W35830  21.697  15.555   1.952 -0.1524  0.1230 -0.2235
    1W        W35831  17.994   7.982   9.109  0.1228 -0.1523  0.1083
    1W        W35832  19.256  15.571   1.640 -0.1260 -0.1015 -0.0278
    1W        W35833   4.935   0.507   3.877  0.3346 -0.2829  0.0515
    1W        W35834  20.448  13.737   0.871  0.1259  0.1667 -0.1143
    1W        W35835  10.533  17.871   9.309 -0.0382  0.1880 -0.4421
    1W        W35836  15.891  18.526   9.277 -0.4898 -0.0493 -0.0961
    1W        W35837  23.544  11.397   0.375 -0.2915  0.1673  0.0338
    1W        W35838  20.061  17.606   9.508  0.1702 -0.0170  0.2427
    1W        W35839   5.489  28.571   3.683  0.0163  0.1976  0.0473
    1W        W35840   4.719  12.757   9.175 -0.1335 -0.3535  0.2043
    1W        W35841  12.326  21.657   1.833 -0.2516 -0.1657  0.0397
    1W        W35842  28.749  27.460   1.263  0.2565 -0.0383 -0.0346
    1W        W35843   2.433  11.701   2.532  0.1383  0.1589  0.3415
    1W        W35844  12.106   2.342   6.534 -0.2736 -0.1544  0.1788
    1W        W35845  13.089  18.167   8.538 -0.3159 -0.0585  0.1145
    1W        W35846  21.865  17.693   0.773 -0.0371  0.0306 -0.2706
    1W        W35847   1.112  27.613   9.359 -0.3109 -0.2962  0.0755
    1W        W35848  12.381   8.691   0.915 -0.2425  0.0132  0.2240
    1W        W35849  26.828  11.440   1.898 -0.0432 -0.0525 -0.1724
    1W        W35850  12.201  13.402   0.580  0.0365 -0.2862  0.0629
    1W        W35851  21.704  16.234   8.668  0.0590 -0.3871  0.1792
    1W        W35852  19.505  13.655   0.742  0.2634 -0.2891  0.4270
    1W        W35853  16.980  21.072   7.780 -0.4424 -0.2245  0.2604
    1W        W35854   9.642  12.671   7.554  0.1378 -0.0082  0.1646
    1W        W35855   4.706   6.798   1.222 -0.2645  0.0168 -0.0509
    1W        W35856   7.818  26.910   8.383  0.2429 -0.0314 -0.2690
    1W        W35857  11.632  16.244   9.136 -0.1762  0.1145  0.2214
    1W        W35858  23.564   2.399   2.808  0.0113  0.1706  0.0650
    1W        W35859   8.439   4.473   7.618 -0.1355  0.0841 -0.0945
    1W        W35860   9.585  23.468   1.676 -0.0964 -0.3591  0.1405
    1W        W35861  24.979  16.513   0.821  0.0581  0.2146  0.4273
    1W        W35862   4.626  10.438   0.765  0.1152  0.0602 -0.1651
    1W        W35863   0.807  23.166   8.531 -0.1421  0.1580 -0.2720
    1W        W35864  19.814   3.745   0.799 -0.0513 -0.0383  0.2033
    1W        W35865  27.800   1.022   3.039  0.1005 -0.5123  0.5505
    1W        W35866  20.912  28.062   7.905  0.1258  0.0574  0.1723
    1W        W35867  28.642  25.959   0.950  0.2689  0.0299  0.0318
    1W        W35868   6.678  15.142   0.975  0.2409  0.1387 -0.1145
    1W        W35869  26.876   6.525   9.915  0.2850 -0.2202  0.0158
    1W        W35870  26.689  17.773   8.680 -0.0853 -0.1456 -0.3075
    1W        W35871  18.120   8.213   7.823  0.1789 -0.2487 -0.0889
    1W        W35872  17.508   9.830   0.762  0.3677  0.0725  0.0318
    1W        W35873  15.669   3.155   7.995  0.2226 -0.1158  0.0463
    1W        W35874  27.639  20.583   2.528  0.3421  0.0987  0.2518
    1W        W35875   8.670   0.482   1.325 -0.1132  0.1152  0.2361
    1W        W35876   0.812  10.264   2.456 -0.3477  0.5324 -0.0598
    1W        W35877  26.805  12.035   1.754  0.2041  0.0761  0.0622
    1W        W35878   8.864   4.653   9.753 -0.0500 -0.1432 -0.0065
    1W        W35879  20.740  22.621   9.897  0.5212 -0.1916  0.0936
    1W        W35880  21.214   0.598   8.731 -0.0608 -0.0703 -0.1706
    1W        W35881   5.450  28.481   2.103 -0.1230 -0.1304 -0.0266
    1W        W35882   4.502  28.747   9.332 -0.3818  0.3278 -0.0210
    1W        W35883  12.093  13.469   9.046 -0.2269  0.1615 -0.1025
    1W        W35884  22.477  21.098   6.753  0.2781 -0.0974 -0.0479
    1W        W35885  18.450   4.381   8.240 -0.2737 -0.0315 -0.0775
    1W        W35886   2.977  25.525   1.445  0.2437 -0.1143 -0.1345
    1W        W35887  10.834  19.819   3.115 -0.0867  0.1933  0.2140
    1W        W35888  20.566  12.958   6.077  0.2001  0.0400  0.1889
    1W        W35889  27.724  17.059   3.224 -0.2935  0.0354  0.1376
    1W        W35890  24.635  20.095   9.827  0.0066  0.0063  0.1575
    1W        W35891   6.205   2.631   9.131  0.0703  0.0096 -0.3598
    1W        W35892  17.165  21.474   2.425  0.0921 -0.1169  0.2264
    1W        W35893   8.746   8.450   2.228 -0.5029 -0.2945 -0.0140
    1W        W35894  16.772  12.635   6.218 -0.3701  0.1548 -0.1902
    1W        W35895  12.533  18.858   9.383  0.0672 -0.1913 -0.1468
    1W        W35896   4.938  24.204   1.834 -0.1598 -0.3798 -0.1365
    1W        W35897  20.442  11.917   9.798 -0.3621 -0.0789 -0.0314
    1W        W35898  11.942   3.759   1.221 -0.0081  0.2886  0.0238
    1W        W35899  23.472   6.457   6.735  0.0125  0.2031  0.1122
    1W        W35900  26.316  24.671   0.610  0.0471  0.0470 -0.1590
    1W        W35901   7.044  25.287   7.366 -0.0682  0.2409  0.2709
    1W        W35902  25.455  20.557   3.317  0.0598 -0.0594 -0.1081
    1W        W35903   7.622  14.150   7.654 -0.0331 -0.3541  0.0271
    1W        W35904  23.428  19.178   9.515 -0.1359  0.0900  0.4593
    1W        W35905  25.623  16.030   1.274 -0.1762 -0.0561 -0.0110
    1W        W35906  13.301  22.037   7.110 -0.0036 -0.1202  0.1397
    1W        W35907   3.817  14.354   2.654 -0.0929 -0.0489  0.0851
    1W        W35908  19.272  13.545   7.947  0.1557 -0.1418 -0.1514
    1W        W35909  10.372  27.211   8.657 -0.0454  0.0752 -0.2450
    1W        W35910   0.155  23.101   0.044 -0.4407 -0.1750 -0.3493
    1W        W35911   3.167  15.072   7.436  0.7745  0.2280 -0.2235
    1W        W35912   7.869   5.545   0.601  0.7359 -0.1631 -0.1249
    1W        W35913  16.638   0.829   7.207  0.1912 -0.3196  0.0592
    1W        W35914  22.358   1.753   9.191  0.4132  0.1975  0.2034
    1W        W35915  24.264  13.918   9.167 -0.1427  0.0644  0.1555
    1W        W35916   1.995   5.947   4.344 -0.1839 -0.1191  0.0793
    1W        W35917  20.222  27.938   8.584  0.0638 -0.0717  0.0924
    1W        W35918  21.542  22.386   2.672 -0.2251  0.0309  0.2669
    1W        W35919  26.665  11.119   3.530 -0.0175 -0.4474 -0.0949
    1W        W35920  21.579   7.167   2.139 -0.2761 -0.1658  0.1967
    1W        W35921   0.322   1.942   1.975 -0.0010  0.2135 -0.3159
    1W        W35922   7.415   8.378   8.569 -0.2315  0.1154 -0.0249
    1W        W35923  13.307  24.397   8.013 -0.1857 -0.0086 -0.0377
    1W        W35924  13.849  25.354   9.616 -0.2541  0.0885  0.0386
    1W        W35925  22.779   7.430   7.357  0.1112  0.1359  0.3705
    1W        W35926   8.538  13.067   6.630  0.3651 -0.1809 -0.1478
    1W        W35927  17.368  21.777   6.541 -0.2860  0.3330  0.1381
    1W        W35928  16.932   0.043   0.683  0.2680  0.0587  0.3955
    1W        W35929  14.907  13.703   1.719 -0.2136 -0.1555 -0.1398
    1W        W35930  11.926   6.198   8.191 -0.0316  0.2402  0.2676
    1W        W35931  24.608  28.796   8.619 -0.3972  0.1240  0.1448
    1W        W35932   5.481   8.595   7.577 -0.0496 -0.0166 -0.1490
    1W        W35933  17.659   0.406   9.263  0.0505 -0.1439  0.0427
    1W        W35934   8.780  10.280   9.613 -0.2008 -0.4883  0.0420
    1W        W35935  23.622  21.821   8.505 -0.0308  0.0171 -0.0732
    1W        W35936   1.287  13.445   9.760 -0.0510  0.1261 -0.0905
    1W        W35937  17.309  16.695   9.142 -0.0219 -0.0028  0.1567
    1W        W35938  22.935  20.984   7.746 -0.0385  0.2305 -0.0176
    1W        W35939  18.555   8.606   6.978 -0.0551  0.0318 -0.2418
    1W        W35940  17.439  14.979   8.554  0.3164 -0.3890 -0.2068
    1W        W35941   4.934  23.156   2.487  0.1893 -0.1089  0.3073
    1W        W35942  14.370  12.301   8.634  0.2528  0.2950  0.0959
    1W        W35943  23.365  19.692   9.568  0.1103 -0.1528 -0.2161
    1W        W35944  17.818  20.315   6.405 -0.2491  0.0819 -0.0946
    1W        W35945   7.906   8.040   9.587  0.0384  0.1113  0.0581
    1W        W35946   5.985  10.964   7.558  0.0604  0.3714  0.0898
    1W        W35947   6.115  17.166   0.172  0.1836 -0.0817 -0.0032
    1W        W35948   3.149  16.598   2.408 -0.2964 -0.1651  0.0231
    1W        W35949  26.173  20.999   3.072 -0.0894  0.0239  0.1882
    1W        W35950  10.225   4.388   9.316 -0.1437 -0.1886  0.0866
    1W        W35951  16.873  27.947   9.449 -0.0556 -0.0898 -0.0964
    1W        W35952   3.088  27.818   2.990  0.4190  0.0214 -0.1986
    1W        W35953  10.428  27.523   1.673  0.0655 -0.1976 -0.0206
    1W        W35954  21.193  11.917   6.980 -0.0567 -0.0856 -0.0645
    1W        W35955  16.720  26.466   3.055 -0.1256  0.1338 -0.0876
    1W        W35956  26.237  24.328   0.231 -0.1382 -0.0150 -0.1025
    1W        W35957   1.146   5.028   8.464  0.2646 -0.0084 -0.4366
    1W        W35958  20.482  19.298   6.930 -0.3225  0.0490 -0.0916
    1W        W35959  25.752  15.665   1.841 -0.0822 -0.0109 -0.4242
    1W        W35960  25.127  28.225   2.109  0.2260  0.1161  0.2393
    1W        W35961  27.481   4.645   2.825 -0.0834 -0.1322  0.4737
    1W        W35962  18.281  24.374   2.290 -0.4468 -0.4163 -0.1558
    1W        W35963   8.599  13.309   9.078 -0.0046  0.2055  0.0561
    1W        W35964  26.624  17.328   8.846 -0.1689 -0.1272 -0.1788
    1W        W35965  17.676  10.391   6.412 -0.3579  0.0554 -0.1422
    1W        W35966   6.160  16.635   0.148 -0.0020 -0.0890  0.1478
    1W        W35967  25.575   7.555   2.280  0.0695 -0.0823 -0.1017
    1W        W35968  19.053  23.931   2.108 -0.0366  0.0200 -0.1153
    1W        W35969   4.068  23.610   8.768  0.0411 -0.2879 -0.5005
    1W        W35970  18.362   7.816   8.136 -0.0553 -0.0406  0.2166
    1W        W35971  19.883  20.428   7.914 -0.0275  0.0225 -0.1059
    1W        W35972  24.414   3.044   7.816 -0.1229 -0.3720 -0.1481
    1W        W35973  26.981  23.320   3.155 -0.2526 -0.7027 -0.0210
    1W        W35974  22.658   6.811   0.672  0.1803  0.0355  0.0344
    1W        W35975  11.548  23.253   1.678 -0.0447  0.0324  0.1401
    1W        W35976  15.325  17.413   7.444 -0.1060  0.4441  0.1145
    1W        W35977   8.507  10.821   6.734 -0.0166 -0.1271 -0.1365
    1W        W35978  11.973  10.031   1.586 -0.2213 -0.0891  0.0298
    1W        W35979   4.875  10.104   8.466  0.4013  0.2785 -0.1974
    1W        W35980   8.958  18.409   8.570 -0.0583 -0.0945 -0.0243
    1W        W35981  22.021   2.068   8.839 -0.1931  0.1365 -0.0489
    1W        W35982  18.836   2.634   0.441  0.1181 -0.1101 -0.0334
    1W        W35983   8.610  16.431   9.718  0.1119 -0.3092 -0.1904
    1W        W35984  27.938  15.073   3.197  0.0049  0.0207  0.0444
    1W        W35985   0.916  28.374   1.952 -0.1647 -0.0094 -0.4493
    1W        W35986  10.517   8.060   0.526  0.2186  0.2239  0.1844
    1W        W35987  20.009  26.568   1.082  0.0603  0.0186 -0.2328
    1W        W35988  16.043  15.557   0.941 -0.1058 -0.1907 -0.0957
    1W        W35989   6.325   9.733   0.859  0.1335  0.1639 -0.0620
    1W        W35990   2.644  18.861   8.718  0.4074 -0.0969 -0.0582
    1W        W35991   8.481   8.928   9.825 -0.0399  0.3171  0.2357
    1W        W35992  21.930  23.224   7.929 -0.2388  0.1243 -0.2027
    1W        W35993   7.623  15.952   2.282  0.0992 -0.0689  0.0802
    1W        W35994   7.162   7.323   9.686  0.3141  0.0289  0.0563
    1W        W35995  17.345  27.864   2.484  0.0281  0.1494 -0.2803
    1W        W35996  22.047  21.207   3.312  0.2092  0.4286  0.0931
    1W        W35997  23.127  28.072   2.509  0.1222 -0.2433  0.0525
    1W        W35998  13.524   6.289   7.420  0.0837  0.3287  0.1661
    1W        W35999  21.776   4.926   7.949 -0.1715  0.0795 -0.0674
    1W        W36000   8.273  23.698   2.963 -0.1925  0.0347 -0.1816
    1W        W36001   0.665   3.278   2.692 -0.1150  0.2363 -0.0217
    1W        W36002  11.561  15.301   1.522 -0.4007  0.2897  0.3673
    1W        W36003  22.618   7.231   0.201  0.0677  0.0713 -0.2807
    1W        W36004  28.823  14.759   2.323  0.2189  0.1432  0.4775
    1W        W36005  25.105  21.313   0.073 -0.1639  0.0074  0.1194
    1W        W36006   4.168   6.229   0.226 -0.1764 -0.1573 -0.2388
    1W        W36007   2.280  28.583   3.271  0.1231  0.1454  0.0082
    1W        W36008  26.443  16.457   7.056  0.2622  0.4691  0.1811
    1W        W36009   9.117   1.237   8.197  0.2237 -0.1434  0.2821
    1W        W36010  16.558   6.935   0.933  0.3414 -0.1392 -0.0553
    1W        W36011  26.820   6.470   3.859  0.1544 -0.1882  0.0771
    1W        W36012   1.055   4.717   0.244  0.0592 -0.2192  0.1212
    1W        W36013  14.720  20.040   1.905 -0.0301 -0.0917  0.0343
    1W        W36014   7.092  17.936   8.137  0.1122  0.1113 -0.3275
    1W        W36015   8.215  25.217   2.655  0.1869 -0.1550  0.1294
    1W        W36016  22.271  25.841   2.601 -0.0613  0.2741 -0.1021
    1W        W36017   4.547   3.727   0.158  0.0329  0.1591 -0.3166
    1W        W36018  22.906  18.708   1.722 -0.0660  0.0390  0.3302
    1W        W36019  10.113  10.023   7.963 -0.1498  0.1356 -0.1921
    1W        W36020  14.751  24.277   1.424 -0.1736  0.3090 -0.0651
    1W        W36021  22.004   6.497   8.835  0.0803  0.1706 -0.0341
    1W        W36022  19.034   3.473   0.592 -0.0241  0.1620 -0.1017
    1W        W36023  22.787  15.709   7.513  0.1274 -0.0376  0.2022
    1W        W36024  10.477  22.468   0.697 -0.4682 -0.2911 -0.0008
    1W        W36025   3.850  20.752   8.473 -0.0460 -0.0766  0.0072
    1W        W36026   6.680   8.165   0.821 -0.2511 -0.2124  0.0482
    1W        W36027  22.296  10.085   9.056 -0.1348  0.1035 -0.1332
    1W        W36028  10.836   2.156   7.011  0.0786  0.0590 -0.2458
    1W        W36029  15.090   5.766   7.420 -0.1542 -0.4537  0.1488
    1W        W36030  24.811  27.315   1.389 -0.2023  0.0326 -0.0284
    1W        W36031   3.273   6.342   1.018  0.2518 -0.0077 -0.2489
    1W        W36032  18.504  10.721   7.895 -0.1962  0.1581 -0.3045
    1W        W36033  16.277   0.410   2.129  0.1073 -0.0410  0.2839
    1W        W36034  28.650  11.664   8.101  0.0668  0.1291  0.4009
    1W        W36035  23.271   3.350   3.059  0.1815  0.0533 -0.1109
    1W        W36036   9.858   4.243   8.969 -0.3310 -0.0021 -0.0211
    1W        W36037   5.630  11.411   7.594  0.3841 -0.3002 -0.1246
    1W        W36038  23.542   4.305   8.063  0.0247  0.0244 -0.1455
    1W        W36039  13.824   2.759   7.400 -0.0277  0.1406  0.0228
    1W        W36040  10.528  24.179   2.946 -0.1652  0.1369 -0.2844
    1W        W36041  15.085  22.394   8.736 -0.0566 -0.0450 -0.0883
    1W        W36042   2.593  23.216   3.344  0.1338 -0.1183 -0.1548
    1W        W36043  11.588   6.895   0.129 -0.0457 -0.1151 -0.0331
    1W        W36044   0.837  24.152   2.144 -0.0039  0.0339  0.0136
    1W        W36045  13.878  10.311   8.007  0.0506 -0.1667  0.0433
    1W        W36046   3.433  17.051   2.768 -0.4961  0.1790 -0.0165
    1W        W36047  15.931   0.535   1.221  0.1199 -0.1983  0.1504
    1W        W36048  17.864   4.687   6.745  0.0832 -0.1876 -0.1979
    1W        W36049   2.432  10.716   2.388  0.1211 -0.2048 -0.2041
    1W        W36050  13.008  26.533   7.277  0.0287 -0.1983  0.1606
    1W        W36051  25.743  19.458   7.959 -0.0298  0.1199  0.0886
    1W        W36052   0.397   1.768   0.755 -0.2222 -0.0560 -0.0541
    1W        W36053   4.555   0.042   2.759 -0.2242  0.1384  0.0264
    1W        W36054   3.483   9.130   1.662 -0.1668 -0.3178  0.0315
    1W        W36055  28.593  20.031   9.376 -0.0188 -0.2067  0.3400
    1W        W36056  14.901  23.256   8.691  0.0354  0.0534  0.0788
    1W        W36057   8.687   1.124   3.088  0.0722 -0.0180 -0.0072
    1W        W36058  25.971   1.957   9.141  0.1577 -0.0555 -0.0173
    1W        W36059  12.111  23.746   2.855  0.2841  0.2210  0.2220
    1W        W36060   3.517   8.594   1.998 -0.1297  0.1445  0.2468
    1W        W36061   7.628  19.026   7.309  0.0255 -0.0868  0.2878
    1W        W36062  26.141  13.037   6.621  0.2131  0.0738 -0.0285
    1W        W36063  20.562   8.969   8.547 -0.1785 -0.0360  0.2383
    1W        W36064   8.881  24.205   0.706  0.0603  0.3056 -0.0969
    1W        W36065  14.820   6.626   8.139 -0.1116  0.0957 -0.1820
    1W        W36066  19.876   0.457   0.888  0.0576  0.0811 -0.2919
    1W        W36067  20.830   6.655   7.617 -0.2324  0.1044 -0.0455
    1W        W36068  27.523   6.250   9.605 -0.0463  0.0200  0.0479
    1W        W36069   1.474   7.115   0.382 -0.1643  0.0654  0.0078
    1W        W36070  22.504   0.068   1.104  0.0714  0.1957 -0.0561
    1W        W36071  14.705   9.804   9.013 -0.2206  0.0693  0.1583
    1W        W36072   2.987  26.267   1.072  0.2375 -0.0073 -0.2588
    1W        W36073   9.199  27.344   0.061  0.0038  0.0888 -0.1276
    1W        W36074  17.877  16.109   8.005  0.2007 -0.2305 -0.2481
    1W        W36075  23.607   7.850   7.850  0.0057  0.2264  0.0043
    1W        W36076  19.221  23.625   0.545  0.2380 -0.0043  0.1416
    1W        W36077   3.620  28.300   9.339 -0.1302 -0.2296 -0.0123
    1W        W36078   5.768  17.173   8.173  0.1145 -0.1100  0.0992
    1W        W36079  15.375  12.480   7.905  0.0607  0.1658  0.1082
    1W        W36080  13.455   8.391   0.099  0.0680  0.2567  0.2055
    1W        W36081  18.536   0.789   6.904 -0.1053 -0.0620 -0.1038
    1W        W36082   6.507  27.796   1.845 -0.3607  0.0076  0.0333
    1W        W36083  17.355   6.372   9.005  0.1012 -0.2325  0.1620
    1W        W36084  24.153  22.867   2.185  0.0472  0.1907  0.0359
    1W        W36085   0.148  16.799   9.197 -0.0938 -0.2007  0.0352
    1W        W36086  25.864  27.825   3.150 -0.1584  0.1596 -0.0386
    1W        W36087  27.256  24.692   9.346 -0.3067  0.0923 -0.5190
    1W        W36088  16.022   4.165   5.954 -0.0627  0.1666 -0.1300
    1W        W36089  27.334  27.972   9.139  0.0479 -0.1483  0.1210
    1W        W36090  22.542  21.104   1.166  0.0496  0.0185  0.0205
    1W        W36091   2.654   2.593   8.128 -0.2013  0.5106 -0.0691
    1W        W36092  19.472  23.782   1.507  0.1750 -0.0001  0.1496
    1W        W36093  11.431   6.788   9.612 -0.1618  0.3078 -0.0203
    1W        W36094  19.874  12.438   7.017 -0.0673  0.1724  0.2640
    1W        W36095   3.249  25.134   1.775 -0.1461 -0.1918 -0.2959
    1W        W36096   5.108   0.753   1.193 -0.1499 -0.0463  0.1417
    1W        W36097  10.929  19.062   6.926  0.1883  0.1204 -0.2821
    1W        W36098   1.226  12.456   8.768 -0.0201  0.0599  0.2066
    1W        W36099  26.791   5.332   2.911  0.2160  0.0297 -0.2723
    1W        W36100  26.404  21.271   2.324 -0.1144 -0.1924  0.0417
    1W        W36101   2.659   1.179   2.214 -0.1958  0.0524  0.3996
    1W        W36102   3.621   7.776   6.791  0.0439  0.1057  0.1963
    1W        W36103   8.174  22.087   2.563 -0.1512  0.0395 -0.0450
    1W        W36104  28.304  15.019   1.347 -0.1935 -0.4007  0.2399
    1W        W36105  18.813  21.315   0.031 -0.0320  0.1366 -0.1371
    1W        W36106  21.152   9.842   1.184  0.0986  0.1430 -0.1273
    1W        W36107  13.080   6.591   8.741  0.0533  0.0063  0.2297
    1W        W36108  10.302  23.130   2.216  0.1632  0.1769 -0.0709
    1W        W36109   9.605   3.703   8.611 -0.0327 -0.0221 -0.2278
    1W        W36110  12.167  15.765   0.376 -0.0051 -0.0181  0.0206
    1W        W36111  20.005  18.839   1.796  0.0496 -0.0111 -0.3441
    1W        W36112  20.893   4.888   0.863  0.2289 -0.0343 -0.1603
    1W        W36113  12.114  20.082   9.117  0.1205 -0.0649 -0.1235
    1W        W36114   4.411  25.339   1.714 -0.2299 -0.1885 -0.0500
    1W        W36115  20.339  10.122   5.475 -0.0794  0.0480 -0.0507
    1W        W36116  24.964   4.027   9.575 -0.1137  0.0872 -0.0534
    1W        W36117  18.896   7.217   1.698 -0.3417  0.3590  0.0035
    1W        W36118   8.964   7.870   2.244  0.2532 -0.2028 -0.0554
    1W        W36119  20.535   7.921   5.228  0.3154 -0.0530 -0.1608
    1W        W36120   3.253  23.512   0.008 -0.0236  0.3689  0.1269
    1W        W36121  19.732  14.048   1.608  0.1169 -0.2114  0.0200
    1W        W36122  20.932   3.628   0.782 -0.0331  0.1087  0.0283
    1W        W36123  27.662  10.500   0.723  0.0428 -0.2973 -0.1714
    1W        W36124   2.457  19.490   2.344 -0.1652  0.0304  0.0104
    1W        W36125  12.300  18.808   8.643 -0.0807 -0.3232  0.1630
    1W        W36126  20.920  17.366   7.260  0.0720 -0.0260  0.1308
    1W        W36127   8.547   3.253   1.898  0.0111 -0.0799  0.0954
    1W        W36128  27.081   3.619   0.231 -0.5723  0.2240 -0.2540
    1W        W36129   9.265  19.525   7.337 -0.1206  0.0042  0.4472
    1W        W36130  26.301  26.967   1.406 -0.1778  0.3501 -0.1626
    1W        W36131   6.557   1.454   0.928  0.0520 -0.2210 -0.1614
    1W        W36132   6.499  12.858   9.010 -0.2394 -0.0578  0.0353
    1W        W36133  21.515  10.104   6.686 -0.3637  0.2603  0.2754
    1W        W36134  27.462  23.630   1.194 -0.3703  0.2674 -0.0780
    1W        W36135   8.979   7.915   8.898 -0.3974  0.1173  0.2467
    1W        W36136  24.026  20.587   8.753 -0.0726 -0.2555 -0.0491
    1W        W36137  21.245  24.923   2.232 -0.2467  0.0726 -0.1763
    1W        W36138  26.982   9.447   8.065  0.0726  0.0112  0.0226
    1W        W36139  18.448  15.637   2.119 -0.0738  0.0122 -0.1785
    1W        W36140  24.813  22.298   3.519  0.0980  0.0002 -0.0313
    1W        W36141   3.045  26.830   1.937 -0.1230 -0.0257 -0.3946
    1W        W36142  21.388   5.781   9.733  0.3527 -0.1717 -0.2581
    1W        W36143  14.544  20.267   8.493  0.0908 -0.2490 -0.4441
    1W        W36144  27.813  11.037   2.006 -0.0228 -0.0372  0.0031
    1W        W36145   3.932  23.492   0.910 -0.2702  0.1219 -0.1589
    1W        W36146  21.204  18.056   1.310 -0.2361  0.0137 -0.2335
    1W        W36147  24.812  21.207   8.939 -0.1120  0.3468 -0.0222
    1W        W36148  28.817  14.804   8.803 -0.1240  0.0224  0.3460
    1W        W36149  21.060   4.226   9.172 -0.0497 -0.0441  0.2257
    1W        W36150  11.675  16.895   0.168 -0.0199  0.0168  0.3443
    1W        W36151  26.809  10.866   3.137  0.1226  0.0949 -0.2464
    1W        W36152  23.094  23.419   1.828 -0.1581 -0.4157 -0.1545
    1W        W36153  27.203  22.291   4.174  0.0485 -0.0786 -0.2049
    1W        W36154  16.566  17.886   9.232 -0.3761 -0.0896  0.3765
    1W        W36155  17.890   8.517   1.053 -0.3029  0.0443 -0.0340
    1W        W36156  23.641  17.760   2.786 -0.2617  0.1833 -0.4270
    1W        W36157  26.795  13.726   2.491 -0.2786 -0.0159 -0.3543
    1W        W36158   7.862  24.905   8.264 -0.1254 -0.0907 -0.2080
    1W        W36159   5.920   5.376   0.439  0.3155  0.1206  0.5067
    1W        W36160  22.124  28.338   9.871 -0.1990  0.0109  0.2538
    1W        W36161  18.629  22.577   9.815 -0.1861  0.2576 -0.2217
    1W        W36162  18.003  22.940   8.503 -0.1033 -0.0359  0.0925
    1W        W36163   3.256  25.395   3.855 -0.2814  0.0729  0.0088
    1W        W36164   7.223   0.521   3.356  0.2334 -0.2038 -0.1033
    1W        W36165  15.833  17.495   7.605  0.1673  0.0822  0.2772
    1W        W36166  16.754  19.179   0.890  0.2116 -0.0376 -0.2373
    1W        W36167  19.363   4.968   8.666  0.0621  0.3045 -0.0824
    1W        W36168  20.893   1.361   7.652 -0.1375 -0.0663 -0.1762
    1W        W36169  16.238  13.004   8.555 -0.0404 -0.0805  0.3345
    1W        W36170   9.814   5.066   8.579  0.3109  0.2646 -0.0720
    1W        W36171  10.905  14.616   6.595 -0.1373 -0.1419 -0.0074
    1W        W36172  15.860  17.493   9.373  0.0410  0.2083 -0.1759
    1W        W36173  15.711  18.141   0.111  0.0302  0.2242  0.0862
    1W        W36174  12.181  25.874   9.069  0.2324  0.3928 -0.5353
    1W        W36175   2.924  21.164   8.244 -0.4270  0.2079 -0.1147
    1W        W36176   3.474  21.126   0.811  0.1062 -0.0885 -0.3479
    1W        W36177   4.579  20.227   8.673  0.3867  0.2199 -0.2789
    1W        W36178   3.709  12.960   9.611 -0.0336 -0.2462 -0.0598
    1W        W36179  16.541  27.812   9.057 -0.0687 -0.3405  0.1100
    1W        W36180  11.781   0.686   0.794 -0.2271 -0.2312 -0.2099
    1W        W36181   2.442   6.769   1.113  0.3681 -0.0161  0.4456
    1W        W36182  19.359  14.086   0.505  0.2481  0.0638  0.1496
    1W        W36183   4.211  21.003   2.478  0.0382  0.0031  0.1319
    1W        W36184   4.164   1.512   2.797 -0.0343  0.1356 -0.2346
    1W        W36185   8.512  28.503   2.346 -0.2456  0.0668 -0.1414
    1W        W36186  27.154   4.915   7.965  0.4432  0.1619 -0.1693
    1W        W36187  12.445  11.064   9.638  0.0171  0.0676 -0.0053
    1W        W36188  20.016  20.955   9.637  0.0390 -0.2817 -0.1437
    1W        W36189  19.302   9.867   9.881  0.0372 -0.2213  0.0101
    1W        W36190   3.656  14.264   0.882 -0.4619  0.0731 -0.1560
    1W        W36191  11.792   2.233   9.232  0.3569  0.1403 -0.0864
    1W        W36192  22.140  27.431   0.408  0.0609  0.1209  0.3786
    1W        W36193  19.800   9.145   0.440 -0.0023 -0.1298 -0.0154
    1W        W36194   0.902   4.682   0.722 -0.0162  0.2305 -0.2992
    1W        W36195   9.445   5.754   1.285 -0.1929  0.1876 -0.0504
    1W        W36196  26.947  11.477   0.989  0.3490  0.2670 -0.2590
    1W        W36197  13.397  19.857   7.082  0.0979 -0.2943  0.0026
    1W        W36198  11.583  21.096   3.090  0.1030  0.4103 -0.1654
    1W        W36199   6.118  24.462   3.257 -0.1344 -0.3185 -0.0521
    1W        W36200  17.019  23.182   2.928  0.1370  0.0369 -0.1053
    1W        W36201   0.947  14.454   0.340 -0.1115 -0.1748 -0.0135
    1W        W36202   6.053  25.177   9.370  0.0412 -0.0124  0.0707
    1W        W36203  25.992  17.447   8.939  0.0943  0.1053  0.0425
    1W        W36204  13.921  11.257   6.545  0.3596  0.2343 -0.1647
    1W        W36205   8.815  25.266   8.169 -0.3505  0.1234 -0.0035
    1W        W36206  23.249  24.953   0.969  0.1426  0.1424  0.0814
    1W        W36207  28.177  25.859   0.624  0.2453 -0.0454  0.1814
    1W        W36208   3.552  27.863   2.901  0.1138  0.0708 -0.1014
    1W        W36209  23.158  11.880   8.563 -0.4600 -0.2546  0.1594
    1W        W36210   1.574   1.878   3.238 -0.0999  0.2657  0.0328
    1W        W36211  25.064   5.149   0.644  0.1397  0.0777 -0.0662
    1W        W36212   3.864   7.085   2.182 -0.0118  0.1610  0.1624
    1W        W36213   4.523   9.637   2.362  0.0554 -0.1002 -0.3313
    1W        W36214   4.083  12.127   9.255  0.0109 -0.0958  0.1502
    1W        W36215   2.874  15.871   8.936 -0.1976  0.0975  0.1189
    1W        W36216   7.061  24.712   2.980 -0.2204  0.0202  0.3679
    1W        W36217  23.370  13.871   0.543 -0.1323 -0.0072  0.0874
    1W        W36218   7.894  11.235   8.793  0.1655  0.0547 -0.1842
    1W        W36219  11.140  24.737   1.108  0.2027 -0.0617 -0.1519
    1W        W36220   9.574  15.537   0.900  0.0078  0.1649 -0.0496
    1W        W36221  28.164   5.079   1.439  0.0099 -0.2103 -0.2016
    1W        W36222   9.905   9.711   1.799 -0.0031  0.0382 -0.2536
    1W        W36223  17.983  24.715   6.622  0.1234 -0.0429  0.3244
    1W        W36224   3.025  22.471   8.659  0.2259 -0.2065  0.0459
    1W        W36225  16.615  13.510   9.234  0.1292  0.1467  0.0673
    1W        W36226  15.201  14.407   8.189  0.0253  0.2417 -0.2720
    1W        W36227   7.766   8.027   8.413 -0.2582  0.1169 -0.0197
    1W        W36228  19.589  23.978   1.986 -0.0487  0.0826  0.2347
    1W        W36229  15.902  24.905   1.992 -0.0726 -0.0654  0.3478
    1W        W36230  20.479  27.559   8.445  0.0554  0.1862  0.0898
    1W        W36231  21.714   6.289   6.786  0.3665 -0.0293  0.0006
    1W        W36232   0.078  16.743   9.700  0.0157 -0.1473 -0.2869
    1W        W36233   9.338  13.892   6.641  0.1676 -0.1522 -0.1350
    1W        W36234  24.342  18.427   2.452 -0.4049  0.0664  0.1544
    1W        W36235  19.345   1.498   9.084 -0.0081  0.2595 -0.0837
    1W        W36236   9.382   8.335   9.278  0.2658  0.0496 -0.1404
    1W        W36237   8.568   6.584   3.514  0.0345 -0.2380  0.1760
    1W        W36238  20.237   6.971   9.067  0.0627  0.2142 -0.0216
    1W        W36239  25.639   0.050   0.726  0.1189  0.1561  0.1240
    1W        W36240  25.881  10.371   0.394  0.3338  0.0425  0.4362
    1W        W36241   4.308   6.680   8.134 -0.0543 -0.0148 -0.2274
    1W        W36242  11.107  10.386   7.715 -0.1111 -0.3700  0.2681
    1W        W36243  23.842  15.723   7.839 -0.2448 -0.2636 -0.1087
    1W        W36244  18.571  16.160   1.087 -0.2009 -0.2315 -0.1188
    1W        W36245  14.565  25.332   3.018  0.1011 -0.0159 -0.0608
    1W        W36246   7.155  25.228   9.642  0.0969 -0.1739  0.2082
    1W        W36247  19.808  11.669   9.274 -0.2685  0.2016  0.0078
    1W        W36248   3.789  22.063   9.403  0.3564 -0.3373  0.1222
    1W        W36249  28.445   8.759   9.757 -0.1345  0.1589  0.1804
    1W        W36250  12.615   4.072   7.571  0.1956  0.2093  0.1399
    1W        W36251  20.697  17.784   7.147 -0.1536 -0.0665  0.0017
    1W        W36252   5.077   3.559   0.017  0.0789  0.2535 -0.0412
    1W        W36253  18.916   2.861   8.405 -0.2243  0.0053  0.2284
    1W        W36254  10.476  21.503   2.914  0.1530 -0.1533 -0.2041
    1W        W36255  23.303  25.241   2.786  0.0317 -0.0912  0.1822
    1W        W36256  17.813  22.731   9.890 -0.2575  0.4142 -0.1641
    1W        W36257  28.227  17.026   3.611 -0.1939 -0.2035 -0.0285
    1W        W36258  24.790  18.321   7.790 -0.0786  0.0795 -0.2621
    1W        W36259  19.791  15.961   0.518 -0.0684 -0.0167 -0.1772
    1W        W36260  10.101  27.920   7.349 -0.2721  0.0505  0.1790
    1W        W36261   5.761  16.129   0.974 -0.0679 -0.2935 -0.1005
    1W        W36262  12.859  20.576   0.398  0.1153  0.0099  0.0812
    1W        W36263  20.674  21.132   6.242  0.1427  0.0483 -0.0090
    1W        W36264   4.842  19.534   7.895  0.2207 -0.1683 -0.4889
    1W        W36265   5.231  20.772   0.210 -0.0287 -0.0415  0.0869
    1W        W36266  22.122   6.792   1.909  0.0373 -0.2629  0.0477
    1W        W36267  10.030  25.384   2.523 -0.3906 -0.1630  0.1820
    1W        W36268  17.175   8.037   0.386  0.1578 -0.1677 -0.1310
    1W        W36269  26.475  25.101   9.776 -0.0102 -0.1173 -0.1085
    1W        W36270  17.246   5.794   6.197 -0.0592  0.1122 -0.2220
    1W        W36271   5.248   3.976   7.356  0.0216 -0.0375 -0.0072
    1W        W36272  13.609   7.128   1.688  0.0786  0.2862 -0.2578
    1W        W36273  10.125  13.515   8.006 -0.1861 -0.0992 -0.1160
    1W        W36274  15.945  16.395   9.145  0.1754  0.1729  0.1048
    1W        W36275  26.161  24.047   3.938  0.0441  0.1181 -0.1662
    1W        W36276  27.986  20.516   0.335  0.3015  0.5555 -0.3304
    1W        W36277   5.362  21.542   7.801 -0.1373 -0.1167  0.0660
    1W        W36278   4.427   9.994   2.701  0.1481 -0.2138  0.0666
    1W        W36279   7.912   0.485   7.180  0.2464  0.0191  0.2284
    1W        W36280   5.585  22.911   3.779 -0.0766 -0.1939  0.0446
    1W        W36281  21.652  28.672   8.233  0.1803 -0.0818  0.1744
    1W        W36282   7.644  23.272   9.592  0.2159  0.0575  0.4255
    1W        W36283  22.118  15.270   1.677 -0.3257  0.1049  0.0258
    1W        W36284  25.116  11.410   2.329 -0.0068 -0.1100  0.1806
    1W        W36285  20.057  28.654   2.282 -0.1114  0.0509 -0.0998
    1W        W36286  15.946   9.818   1.859  0.2730 -0.1151 -0.0307
    1W        W36287   8.035   6.683   7.626 -0.3105 -0.0214  0.0430
    1W        W36288  25.688   8.691   0.906 -0.0199 -0.0604  0.3430
    1W        W36289   2.401   3.954   1.253 -0.0537  0.0113 -0.1422
    1W        W36290   7.686  12.344   9.492 -0.1325 -0.3345  0.1323
    1W        W36291  26.654   8.909   9.512 -0.0022 -0.2667  0.2703
    1W        W36292  17.216  11.194   8.375  0.0480 -0.0501  0.0238
    1W        W36293  25.580  25.147   7.892  0.2005 -0.2024  0.1701
    1W        W36294  21.799  25.302   1.610 -0.0926  0.1811  0.0537
    1W        W36295  17.595  27.416   6.888 -0.0320 -0.0264  0.1438
    1W        W36296  13.113  24.522   1.568  0.0950 -0.4033  0.0990
    1W        W36297  19.732  20.817   7.631  0.2189  0.0711 -0.2733
    1W        W36298   1.573   4.837   0.249  0.2341  0.2527 -0.0886
    1W        W36299  12.414  17.016   8.164 -0.2309 -0.0625  0.2606
    1W        W36300   8.150  19.968   9.013  0.1017 -0.0833  0.0166
    1W        W36301  25.443  25.780   2.791 -0.0000  0.0884  0.2228
    1W        W36302  18.209   3.954   1.027 -0.0185 -0.1368 -0.0426
    1W        W36303   7.075  18.920   9.168  0.1339 -0.2802  0.0627
    1W        W36304  24.764  22.838   3.593  0.2362 -0.0480  0.0236
    1W        W36305  10.642   4.906   7.097 -0.0141 -0.1767  0.1456
    1W        W36306   1.174   9.227   7.676 -0.1369  0.1944  0.1957
    1W        W36307  16.857  11.593   8.056 -0.3017  0.1550 -0.0089
    1W        W36308   1.062  17.287   2.779 -0.1879  0.2537 -0.0603
    1W        W36309  11.995   1.583   0.116 -0.3687  0.1061 -0.1585
    1W        W36310  27.738  26.508   2.978  0.0069 -0.0418 -0.1969
    1W        W36311  11.036   3.148   9.602  0.2545 -0.1102  0.1782
    1W        W36312  11.804  20.702   9.871 -0.2623 -0.1362  0.0549
    1W        W36313   1.132  26.906   1.392 -0.0411  0.1801  0.0160
    1W        W36314  13.578  28.308   9.348 -0.3348 -0.0122 -0.0528
    1W        W36315   7.053  18.607   0.209 -0.1356  0.1102 -0.2757
    1W        W36316  14.522  18.344   7.524  0.0580  0.1640  0.0742
    1W        W36317  17.247  12.662   1.931  0.0462  0.0147 -0.0167
    1W        W36318  23.697  24.949   2.591  0.3760 -0.1606 -0.0269
    1W        W36319  16.340  28.388   1.901  0.0950 -0.0905  0.4866
    1W        W36320  12.972  15.456   1.329  0.0565  0.0436  0.2843
    1W        W36321  15.761  26.519   2.786 -0.1676  0.0153 -0.0084
    1W        W36322  15.432  14.362   2.578  0.2845 -0.2569 -0.0469
    1W        W36323   6.541  14.096   7.486  0.1234  0.1953  0.1174
    1W        W36324   4.756  20.751   0.407  0.2860 -0.1784  0.2384
    1W        W36325   1.974  25.086   2.799  0.0581  0.3466 -0.0149
    1W        W36326  10.340  13.044   7.669 -0.2128 -0.2245  0.1135
    1W        W36327   2.031  21.319   3.106 -0.0103  0.2548 -0.0149
    1W        W36328  20.508  14.960   7.959 -0.1668  0.2009 -0.0258
    1W        W36329   6.809  20.719   7.848  0.0514 -0.3279 -0.0637
    1W        W36330  23.841   2.607   1.356  0.0622 -0.2050 -0.2719
    1W        W36331   8.861  14.188   1.489 -0.3149 -0.1332  0.0223
    1W        W36332   2.446  10.660   8.541 -0.0018 -0.3366  0.0688
    1W        W36333   7.401   1.910   2.957  0.0890  0.3485  0.2412
    1W        W36334  19.998  24.752   2.528 -0.1152  0.1892 -0.0124
    1W        W36335  11.609  10.790   7.147 -0.0340 -0.2076 -0.0147
    1W        W36336  19.943  12.164   1.294  0.1245  0.0918 -0.1138
    1W        W36337  26.775   0.288   1.695  0.1923 -0.3025  0.1024
    1W        W36338  22.607  16.370   8.988 -0.0239  0.2438 -0.0758
    1W        W36339  14.454  19.713   1.055  0.1254 -0.2376 -0.1996
    1W        W36340  28.256   0.767   3.140  0.1819  0.0388 -0.2635
    1W        W36341  16.188   8.238   7.912  0.2357  0.0969  0.1562
    1W        W36342   5.785  23.908   8.392  0.0421  0.0533 -0.3558
    1W        W36343  16.682  23.951   7.315  0.1735 -0.1605  0.0605
    1W        W36344   5.350  11.911   1.652 -0.1379 -0.3061 -0.1434
    1W        W36345   1.695   8.260   7.539 -0.0297 -0.4848 -0.0670
    1W        W36346  27.814  11.938   2.445  0.2784  0.1936 -0.1480
    1W        W36347  14.313  12.359   0.289 -0.0941  0.0552 -0.3466
    1W        W36348   4.706   0.352   9.179  0.1027 -0.0138  0.0416
    1W        W36349  27.247   3.711   2.794 -0.0675 -0.1374 -0.3651
    1W        W36350  22.507  25.014   1.351  0.0068  0.3497  0.0407
    1W        W36351   1.595  28.336   9.245 -0.1857  0.0493 -0.1211
    1W        W36352  25.110   1.956   8.238 -0.2226  0.1503 -0.1439
    1W        W36353  26.658   8.500   2.325 -0.0898 -0.2970  0.3531
    1W        W36354  18.580  16.644   1.223 -0.0712  0.0960  0.1867
    1W        W36355  12.404   8.729   9.056  0.1553 -0.2876  0.1209
    1W        W36356   3.542  21.343   9.095 -0.1250  0.2112 -0.1117
    1W        W36357   2.970   9.772   0.880 -0.1099 -0.0506  0.1111
    1W        W36358   5.390  15.963   7.146 -0.4449  0.0687 -0.0791
    1W        W36359  19.805  28.693   6.685 -0.0567 -0.3349 -0.0817
    1W        W36360   6.128  20.255   1.157  0.2087 -0.3972  0.2834
    1W        W36361  19.102  18.691   7.305 -0.1467  0.0558  0.2539
    1W        W36362   9.695  15.770   9.524  0.1005 -0.1999 -0.1416
    1W        W36363  20.436  12.330   2.353 -0.1993  0.1898  0.0770
    1W        W36364  22.504  25.815   0.408 -0.0643 -0.0503  0.5204
    1W        W36365  15.502   6.154   8.538  0.1148 -0.3242  0.0891
    1W        W36366   4.326  12.256   8.456 -0.0808 -0.2566  0.2747
    1W        W36367   9.154  27.066   0.470 -0.0591  0.0188  0.3615
    1W        W36368   2.851  24.306   7.699 -0.1157 -0.1284 -0.2141
    1W        W36369   6.693  19.074   7.479 -0.1037 -0.1494  0.1767
    1W        W36370   6.009  13.976   0.869  0.0667 -0.0220  0.2039
    1W        W36371  27.110  17.704   0.619 -0.0726 -0.1825  0.0313
    1W        W36372  11.585   1.287   8.118  0.3090  0.2013  0.0530
    1W        W36373  11.340  18.337   9.210 -0.1377  0.1060  0.1428
    1W        W36374  16.753   2.519   1.395  0.0096 -0.1181  0.1369
    1W        W36375  25.101  19.645   2.497  0.0967 -0.3541 -0.0519
    1W        W36376  18.209   9.380   1.042  0.2734 -0.1999  0.1189
    1W        W36377   8.496  20.790   0.590  0.3485 -0.2035 -0.0450
    1W        W36378  22.364   0.759   0.148  0.2781 -0.0288 -0.0628
    1W        W36379  25.015  18.350   8.776 -0.3075 -0.0044  0.0561
    1W        W36380   8.689  20.871   2.974 -0.3070  0.2192  0.1708
    1W        W36381  13.384   7.104   5.084  0.2151 -0.0795  0.0331
    1W        W36382   7.164  27.770   7.112 -0.0822  0.0580  0.0460
    1W        W36383  26.554   8.837   8.712  0.1886 -0.1890 -0.1769
    1W        W36384   7.288   0.932   0.603 -0.3311  0.2786 -0.0489
    1W        W36385   2.283   2.450   1.866 -0.0245  0.0037  0.2081
    1W        W36386   0.233  21.225   7.999 -0.1986 -0.1481 -0.3051
    1W        W36387  10.393  15.558   5.745  0.4663 -0.0680  0.0501
    1W        W36388  10.360   0.873   7.958  0.2108 -0.0225 -0.1271
    1W        W36389   3.651  15.477   0.362  0.0265 -0.0789  0.2122
    1W        W36390  15.848   1.950   6.952  0.0187  0.2058  0.0405
    1W        W36391   6.924  21.760   3.243 -0.4793 -0.2850  0.0876
    1W        W36392  23.523  10.501   8.653 -0.0343 -0.0165  0.2282
    1W        W36393  27.966  24.138   9.137 -0.0594  0.0157 -0.0637
    1W        W36394   3.819  27.803   2.202  0.1013 -0.2563  0.0730
    1W        W36395  14.524   9.843   0.796 -0.0328  0.0952  0.0039
    1W        W36396  12.215  24.291   2.892 -0.0691  0.0441  0.0031
    1W        W36397  27.539  20.836   7.691  0.0487  0.0538 -0.2540
    1W        W36398  10.360  11.187   6.863 -0.3349  0.3324  0.2316
    1W        W36399  12.837   9.596   0.153 -0.0206  0.4200  0.0669
    1W        W36400  10.977  27.530   2.118  0.0978 -0.0027 -0.0428
    1W        W36401   0.059  18.799   0.545  0.2268 -0.1429 -0.0329
    1W        W36402  23.393  22.600   3.206 -0.2101  0.1423 -0.1303
    1W        W36403  28.661   7.365   8.850 -0.0497 -0.1092  0.1615
    1W        W36404  11.141   7.060   9.990  0.3216  0.1437  0.2441
    1W        W36405   1.516  11.946   8.030  0.3277  0.0182 -0.2117
    1W        W36406  23.155   8.758   2.243  0.0855 -0.0667  0.0741
    1W        W36407  13.077   0.819   2.188 -0.2088  0.2080  0.0672
    1W        W36408  10.299  12.239   6.918  0.2686 -0.0831  0.0905
    1W        W36409   7.876  14.755   8.280 -0.1515  0.0122 -0.1331
    1W        W36410   0.984  10.323   2.995 -0.0626 -0.2581 -0.0768
    1W        W36411  16.845   1.760   0.196 -0.1678  0.3014 -0.0818
    1W        W36412   1.128  20.849   7.704 -0.0563 -0.2296  0.2035
    1W        W36413  24.543   2.269   9.808 -0.3568 -0.1265  0.0260
    1W        W36414  14.737  14.389   6.890 -0.1986 -0.1418  0.2621
    1W        W36415  28.701  15.697   8.999 -0.1659  0.0605  0.0822
    1W        W36416  26.877   0.342   1.057 -0.6194 -0.2251 -0.1501
    1W        W36417  20.938   9.581   0.140 -0.1859  0.0280 -0.1401
    1W        W36418   0.737  25.811   0.916  0.2679 -0.1264  0.3498
    1W        W36419   7.845   7.501   8.281 -0.0681 -0.3093  0.1183
    1W        W36420   2.147  17.552   2.564  0.2052  0.0630 -0.4052
    1W        W36421   2.198  18.927   1.159  0.3496 -0.2570 -0.0632
    1W        W36422   6.688  15.289   7.065  0.1019  0.0299 -0.3268
    1W        W36423  10.858  17.690   8.164 -0.2525  0.0061 -0.2139
    1W        W36424  13.293  11.185   9.400 -0.1787 -0.1047  0.0099
    1W        W36425  21.995  18.866   8.856  0.3159 -0.1971  0.1277
    1W        W36426  19.054  24.576   2.861  0.1998  0.0576 -0.0586
    1W        W36427   6.930   0.325   2.410  0.1714 -0.0348  0.0793
    1W        W36428  12.408  26.262   2.343 -0.1621 -0.0615  0.0549
    1W        W36429  15.607   8.777   6.156  0.1536  0.1222  0.1934
    1W        W36430   9.214  19.525   2.398  0.1244  0.0007  0.2136
    1W        W36431  18.867   9.404   6.352  0.1087 -0.1832  0.1920
    1W        W36432  13.274  16.469   2.763 -0.0723 -0.0644  0.1935
    1W        W36433  24.123  24.553   7.658 -0.1435  0.0133  0.0387
    1W        W36434   3.559   5.916   1.769  0.3305  0.0324 -0.1467
    1W        W36435  26.869  24.570   2.500  0.2073  0.1331 -0.1541
    1W        W36436  27.743   8.771   1.734 -0.2249 -0.0962  0.2822
    1W        W36437  18.862  15.874   1.948  0.1965  0.0602 -0.3280
    1W        W36438   5.211  26.865   2.942 -0.2216  0.1659 -0.0367
    1W        W36439  15.993   0.246   9.776  0.0643 -0.0985  0.3667
    1W        W36440   7.198   4.669   9.809 -0.1712  0.0613  0.1468
    1W        W36441   7.976   4.540   0.778  0.0573  0.1722  0.1857
    1W        W36442  14.871   9.442   7.061  0.2387  0.4724  0.1472
    1W        W36443   7.544  24.240   3.033 -0.0414  0.1934  0.0525
    1W        W36444   2.414  28.245   1.287 -0.0161  0.0104 -0.1590
    1W        W36445  26.790  25.233   2.525 -0.2691  0.0484 -0.3192
    1W        W36446  23.745  19.479   8.193  0.0158 -0.0807  0.1888
    1W        W36447  21.994  20.840   9.236  0.0650  0.4915  0.2237
    1W        W36448   2.129   1.375   3.613  0.2673  0.0473 -0.0805
    1W        W36449   6.785  22.239   1.874  0.0008 -0.0803  0.0682
    1W        W36450   0.209  19.084   9.296 -0.1228 -0.1102 -0.2724
    1W        W36451  19.028  26.211   7.164  0.0215 -0.0382  0.1359
    1W        W36452  21.878  18.406   9.013  0.0180  0.2137  0.1112
    1W        W36453  23.693  17.480   8.920  0.0302  0.0697  0.0597
    1W        W36454   9.458   4.723   0.828  0.0935  0.2128  0.4219
    1W        W36455  13.204  17.588   2.022  0.0923 -0.0997 -0.0728
    1W        W36456   4.243   9.521   9.717  0.0602  0.1015 -0.0077
    1W        W36457  13.102  19.424   7.220  0.4047 -0.1339  0.1997
    1W        W36458   5.580  13.168   9.019 -0.3575 -0.0380  0.1739
    1W        W36459  13.191   4.883   1.252 -0.0210  0.0793 -0.0525
    1W        W36460  12.708  19.195   7.334 -0.1770  0.1952  0.2344
    1W        W36461  19.403  15.807   0.755  0.1246 -0.2199  0.0611
    1W        W36462  14.911  16.495   7.004 -0.0443 -0.0575 -0.0063
    1W        W36463  12.134  28.232   0.757 -0.1645 -0.3161 -0.2094
    1W        W36464   3.739  21.807   9.891  0.0900 -0.2270  0.1186
    1W        W36465   4.218   9.142   1.092 -0.0924  0.2013  0.1235
    1W        W36466   5.271   4.874   2.747  0.0341 -0.4288 -0.0723
    1W        W36467  23.061   2.307   9.301 -0.1137  0.0597 -0.2121
    1W        W36468  20.791  28.152   2.691  0.3579  0.2012  0.1280
    1W        W36469   7.299  18.442   9.160  0.0865  0.2600  0.0434
    1W        W36470   7.222  15.467   7.005 -0.0061 -0.1487  0.0403
    1W        W36471   6.825   4.562   3.225  0.0956  0.1506  0.2829
    1W        W36472   9.671   1.317   0.392  0.1756  0.0183  0.1540
    1W        W36473  20.024   2.383   2.279  0.1239 -0.3101  0.0787
    1W        W36474  21.485  25.835   7.349  0.2064 -0.0224  0.0298
    1W        W36475  22.442  22.763   6.345  0.0054  0.0436 -0.4855
    1W        W36476  22.374  18.986   9.272  0.0085  0.1860 -0.1246
    1W        W36477  18.674  15.685   9.137 -0.0702  0.1620 -0.0145
    1W        W36478   7.597  16.982   6.414  0.3158  0.0408  0.0405
    1W        W36479  11.147   7.927   8.365  0.1530 -0.1941 -0.0587
    1W        W36480  15.851  10.654   0.716 -0.1657  0.1633  0.1001
    1W        W36481  25.146  25.063   9.359 -0.1870  0.0484  0.0671
    1W        W36482   0.825   7.945   7.880 -0.0879  0.1941 -0.0020
    1W        W36483  23.872   4.880   7.983  0.1900  0.1322 -0.1703
    1W        W36484  19.828  15.692   0.972  0.1624  0.2236  0.2571
    1W        W36485  21.383  20.696   9.797  0.0062 -0.0919  0.0720
    1W        W36486   8.286  23.765   1.221 -0.0585  0.0787 -0.0477
    1W        W36487  22.805  10.885   9.461  0.0793  0.0073 -0.0964
    1W        W36488  14.690  24.304   6.835  0.1070 -0.0644 -0.0445
    1W        W36489   7.373  21.897   8.350 -0.0572 -0.3132  0.1704
    1W        W36490  10.984  24.644   8.002  0.2272 -0.2202  0.0151
    1W        W36491   2.828  15.051   9.058  0.3094 -0.0485  0.1722
    1W        W36492   6.228  21.940   0.406  0.1776  0.0615  0.0525
    1W        W36493  15.962  12.901   9.434 -0.0430 -0.0163  0.0091
    1W        W36494   4.421  18.431   9.334  0.1643 -0.0235 -0.0639
    1W        W36495  23.948  14.549   8.468  0.3575 -0.1883 -0.0561
    1W        W36496  15.816  22.800   0.334 -0.2226 -0.1255  0.4142
    1W        W36497  15.957  28.280   1.410  0.2597 -0.0157  0.0858
    1W        W36498  10.648  12.719   1.524 -0.0540  0.3295  0.1121
    1W        W36499  23.427  27.063   8.534 -0.0835  0.0372  0.3611
    1W        W36500  10.720  24.408   1.255  0.0725  0.3052 -0.0001
    1W        W36501   2.853   3.584   0.063 -0.2369  0.1175 -0.0649
    1W        W36502  13.621  12.475   7.019 -0.0712 -0.1590 -0.3025
    1W        W36503   9.378  22.400   3.183 -0.1314 -0.2778  0.3013
    1W        W36504   9.265   2.113   9.317  0.1458  0.4033 -0.1425
    1W        W36505   8.980   2.054   8.917  0.1529 -0.0853  0.1057
    1W        W36506  22.383  25.193   2.159 -0.2954  0.0219  0.1723
    1W        W36507  17.072  17.339   0.698  0.4469 -0.1713  0.1195
    1W        W36508   8.438  14.970   6.046 -0.2303 -0.0809  0.0448
    1W        W36509  12.684  23.241   0.073 -0.0462 -0.0398 -0.2630
    1W        W36510  25.762  17.717   3.109 -0.2280 -0.1493 -0.1961
    1W        W36511  14.113   8.009   7.172 -0.1603  0.2073 -0.1044
    1W        W36512   4.043  21.058   8.860 -0.0095 -0.0824  0.0384
    1W        W36513   3.658  27.543   0.572 -0.0455 -0.0148  0.1486
    1W        W36514  28.680  17.620   2.033  0.1370 -0.3406  0.0577
    1W        W36515  19.283  23.951   8.386  0.1728  0.3964 -0.2082
    1W        W36516  24.637  17.926   9.390  0.0092 -0.1548 -0.3310
    1W        W36517  23.998  27.531   3.331  0.0213 -0.1407 -0.1008
    1W        W36518   9.751  16.491   7.873  0.1001  0.0094  0.0761
    1W        W36519  11.140  27.521   7.306 -0.0142 -0.0097 -0.0105
    1W        W36520  21.062  18.583   2.519  0.2957 -0.0554 -0.1078
    1W        W36521  21.797  17.589   7.378  0.1399  0.0927 -0.1388
    1W        W36522   3.341  14.701   9.909 -0.0882 -0.1211 -0.1654
    1W        W36523   8.785   6.058   3.357 -0.0905  0.4152 -0.0504
    1W        W36524  13.715  25.492   0.066  0.4452 -0.0076  0.1772
    1W        W36525  25.834  26.849   7.908 -0.0092 -0.0079 -0.1634
    1W        W36526  11.529   2.424   6.500 -0.1423  0.1509 -0.1854
    1W        W36527   8.837   9.454   1.957 -0.0493  0.0916  0.1286
    1W        W36528  25.101  19.477   1.903 -0.0908  0.0201  0.1618
    1W        W36529  12.855  21.162   8.473 -0.2015 -0.0687 -0.1733
    1W        W36530  10.289  28.066   1.383 -0.0492  0.2332 -0.0587
    1W        W36531  24.442  10.357   6.331  0.1339  0.0353  0.0405
    1W        W36532  28.501   1.592   0.646 -0.0498 -0.0200  0.1002
    1W        W36533  15.553   1.751   9.189  0.0776 -0.0081 -0.2799
    1W        W36534  27.492  15.570   9.860 -0.0700 -0.0394  0.0805
    1W        W36535  20.028  24.972   8.125 -0.0104 -0.1414  0.1506
    1W        W36536  22.417  22.295   2.878 -0.0749 -0.1403  0.0039
    1W        W36537  20.299  27.711   2.114 -0.4422 -0.0104 -0.0340
    1W        W36538  17.606   8.951   2.109  0.1935  0.0561 -0.1877
    1W        W36539   8.998   1.927   0.842  0.0268 -0.0091  0.1944
    1W        W36540  14.480  27.372   1.265  0.0296  0.1559  0.1423
    1W        W36541   8.519  19.708   8.865 -0.1527 -0.0421  0.0938
    1W        W36542  17.318  24.505   7.297 -0.0918 -0.0766  0.1728
    1W        W36543  15.818  13.100   7.733 -0.2083 -0.1070 -0.1812
    1W        W36544  18.507  16.384   8.465  0.3803 -0.2566 -0.2680
    1W        W36545  17.359  21.071   8.155 -0.0310  0.0884  0.0848
    1W        W36546  18.531   2.896   9.382  0.0650 -0.0345  0.1758
    1W        W36547  26.929  10.757   7.381 -0.0004 -0.0593 -0.1604
    1W        W36548  25.263   8.675   9.474  0.0851  0.1530  0.3494
    1W        W36549  22.664   2.572   8.419 -0.0853 -0.0349  0.1392
    1W        W36550  21.346   3.208   7.576  0.0731 -0.1622 -0.2772
    1W        W36551  11.923   0.642   0.328  0.0721 -0.1616 -0.3283
    1W        W36552  23.416   6.823   9.177  0.1718  0.0637  0.1017
    1W        W36553  10.354   6.206   1.428 -0.0130 -0.0461  0.3847
    1W        W36554  11.016  17.868   1.975  0.3436  0.0481 -0.1200
    1W        W36555  13.538   9.777   1.199  0.1256  0.0395 -0.0514
    1W        W36556  11.479  23.774   6.843  0.0903  0.0682 -0.3751
    1W        W36557  16.296  21.291   7.124  0.1620  0.0625  0.0942
    1W        W36558   4.299   5.719   0.202  0.1911 -0.2883 -0.0226
    1W        W36559  13.173  20.624   9.613 -0.2052 -0.1017 -0.2841
    1W        W36560  14.717  28.653   7.090  0.0451 -0.0686  0.1937
    1W        W36561   6.265  26.765   1.761 -0.0779  0.1344 -0.1567
    1W        W36562   6.271  20.205   9.120  0.4031 -0.2725  0.1415
    1W        W36563  23.730   4.873   8.804 -0.0133  0.0783  0.0258
    1W        W36564  27.331  19.568   1.312 -0.2528  0.0099  0.0203
    1W        W36565  13.552  18.561   1.498  0.0269  0.0145  0.0581
    1W        W36566  27.809  15.949   7.758  0.0589  0.0115 -0.1105
    1W        W36567   9.246   3.896   9.498 -0.1569  0.0002 -0.4291
    1W        W36568  24.446  17.502   7.054 -0.0773 -0.0418  0.1803
    1W        W36569   0.708  20.906   9.462  0.1401  0.3818  0.1227
    1W        W36570   5.634  14.741   1.159 -0.1826 -0.1518  0.0892
    1W        W36571   2.774   7.058   3.816  0.4406  0.1268 -0.0236
    1W        W36572  17.408   0.727   2.350 -0.0070  0.1644  0.0311
    1W        W36573   1.547   8.482   2.302  0.2365 -0.0980 -0.1219
    1W        W36574   6.788   9.533   9.696 -0.0292  0.1515  0.2612
    1W        W36575  28.816  14.968   0.380 -0.2170  0.2214  0.1288
    1W        W36576  24.891  20.501   2.598 -0.1020  0.1526 -0.0097
    1W        W36577   7.138  22.423   7.731  0.2484 -0.0878  0.0613
    1W        W36578  26.086  28.113   2.281 -0.1304  0.2301  0.1402
    1W        W36579   1.450   3.333   8.264  0.2785  0.2311  0.1542
    1W        W36580   0.653  14.840   1.712  0.0315 -0.0472 -0.1897
    1W        W36581  28.610  13.697   8.552  0.0182  0.0075 -0.0884
    1W        W36582  18.218  19.410   7.588 -0.1745 -0.2614 -0.0145
    1W        W36583   9.507   9.666   1.294  0.0035  0.1146  0.1548
    1W        W36584  27.949   4.835   2.717 -0.1447 -0.1124  0.0628
    1W        W36585   0.469   2.623   9.105 -0.0241 -0.1756  0.2532
    1W        W36586   0.924  16.024   2.138 -0.0485 -0.0876  0.3662
    1W        W36587  16.953  28.338   3.000  0.1891 -0.0506  0.1711
    1W        W36588   7.525  23.221   8.737 -0.2171  0.1309 -0.0085
    1W        W36589  13.734  26.357   7.907 -0.2256  0.0238 -0.5990
    1W        W36590  24.634  26.507   1.327 -0.1596  0.0744  0.0928
    1W        W36591  17.520  27.369   1.652  0.3274 -0.0510  0.3618
    1W        W36592   8.235  28.597   7.893 -0.2052 -0.3607 -0.0171
    1W        W36593  28.792   5.549   8.464  0.3084 -0.1013  0.2262
    1W        W36594  27.933  26.329   0.827 -0.3075 -0.2576 -0.0512
    1W        W36595   2.314  17.677   8.978  0.1368  0.1238 -0.2120
    1W        W36596  23.736   2.066   8.706  0.1322  0.0027  0.0399
    1W        W36597  13.874  18.689   9.361 -0.0439  0.1610 -0.2971
    1W        W36598  15.536  19.516   1.578 -0.3621  0.1100  0.0200
    1W        W36599  13.978  18.205   1.351  0.0947  0.2877  0.2783
    1W        W36600  19.674  15.159   6.450 -0.2854  0.0945 -0.0472
    1W        W36601  19.898  16.117   1.652 -0.3026  0.2274  0.1958
    1W        W36602  16.660   2.156   7.457  0.0640 -0.3826 -0.4162
    1W        W36603  19.455  20.469   6.629 -0.1482 -0.0270 -0.1385
    1W        W36604  22.173   5.800   1.962 -0.1888  0.0967  0.2090
    1W        W36605   9.621   6.504   9.973  0.0247 -0.1828 -0.1283
    1W        W36606   9.807  24.572   3.287  0.2751  0.0569 -0.2336
    1W        W36607  15.906   9.464   8.419 -0.1997 -0.0514 -0.3224
    1W        W36608  13.522   2.371   7.235  0.0038 -0.0737 -0.1123
    1W        W36609  28.171  25.203   0.269 -0.0352 -0.0008 -0.3263
    1W        W36610   8.278  14.601   7.030  0.0256 -0.1500 -0.0476
    1W        W36611  19.579  21.700   8.484 -0.1629 -0.2836  0.0383
    1W        W36612   3.983  13.576   1.296 -0.2043 -0.3029  0.0553
    1W        W36613  11.322  11.115   5.364 -0.1448 -0.0346 -0.2777
    1W        W36614  26.578   7.336   2.849  0.1335  0.0635  0.3576
    1W        W36615  25.969  23.793   9.927 -0.1084 -0.1353 -0.0965
    1W        W36616  27.817  25.251   2.436  0.2152  0.0118  0.1510
    1W        W36617  12.832  16.081   8.274 -0.1184 -0.1625 -0.1463
    1W        W36618   4.427  23.713   9.162 -0.1330 -0.1523 -0.3112
    1W        W36619  28.220  21.477   2.489 -0.3028  0.1523 -0.1699
    1W        W36620  26.616  22.459   9.830 -0.0671 -0.0606  0.2510
    1W        W36621   1.405   6.340   1.786 -0.1783 -0.0368  0.2477
    1W        W36622  21.249  26.495   8.121  0.0982 -0.0931 -0.0207
    1W        W36623  13.368  14.626   1.840  0.1663 -0.0103  0.3895
    1W        W36624   9.278  25.365   3.070  0.0215 -0.3468  0.2266
    1W        W36625  17.034  23.135   9.876  0.2673  0.0024  0.0686
    1W        W36626  17.957  13.739   8.480  0.2088 -0.1708 -0.2359
    1W        W36627  16.112  13.070   1.741 -0.3207  0.0321 -0.0084
    1W        W36628  24.070   8.009   9.739  0.2248  0.1536  0.0948
    1W        W36629   5.344  19.976   0.608 -0.3255  0.0465 -0.2857
    1W        W36630   2.380  17.047   2.439  0.1441 -0.1768  0.0667
    1W        W36631  23.450   0.564   0.868 -0.1771 -0.2026 -0.0780
    1W        W36632  17.308   8.553   6.459  0.0521  0.1257  0.2166
    1W        W36633  15.720   0.908   1.532  0.3559 -0.1591  0.0393
    1W        W36634   2.290  26.085   3.443 -0.0691  0.5439 -0.2223
    1W        W36635   9.814   4.986   2.698  0.1320 -0.5826 -0.0008
    1W        W36636  14.066  28.831   7.841  0.0596  0.0575  0.0550
    1W        W36637   1.664   3.361   1.231  0.1901  0.1147  0.0062
    1W        W36638  24.807  10.027   9.162  0.1100 -0.2219  0.1560
    1W        W36639  15.975   6.026   0.250  0.4799 -0.0060 -0.1586
    1W        W36640  25.788  20.890   8.565  0.1909 -0.2188 -0.2282
    1W        W36641   6.952   5.311   8.420  0.0686 -0.4969  0.0573
    1W        W36642  25.875  27.841   8.158  0.1671 -0.0395 -0.1967
    1W        W36643  14.998   0.484   8.128  0.0698  0.0196  0.3269
    1W        W36644  13.580  23.569   9.114  0.0016  0.1273 -0.1400
    1W        W36645   6.129  12.085   9.738  0.1570 -0.1873 -0.0430
    1W        W36646  15.175  20.157   2.101  0.2722  0.0642  0.1506
    1W        W36647   3.653   6.287   0.287 -0.0683  0.3236 -0.0318
    1W        W36648  14.856   6.639   0.237 -0.0519  0.3230 -0.2416
    1W        W36649  17.457  17.534   9.735 -0.1178  0.0756 -0.2862
    1W        W36650  24.017  21.401   3.307  0.0756 -0.1618  0.2084
    1W        W36651  21.337  18.665   6.822 -0.2030  0.1127 -0.2358
    1W        W36652   2.548  13.001   0.834 -0.0668  0.0815  0.0028
    1W        W36653  25.342  26.401   1.392 -0.0553 -0.1922 -0.1299
    1W        W36654   2.347  17.630   1.601  0.0865  0.3837  0.0999
    1W        W36655  10.172  21.721   2.568  0.2698 -0.2776  0.1329
    1W        W36656  27.212  22.201   0.267  0.0791  0.1005  0.0900
    1W        W36657  16.093  13.902   7.618 -0.2515 -0.1613  0.1977
    1W        W36658   5.225   8.790   9.526 -0.3058  0.0807  0.2317
    1W        W36659   7.770  28.674   8.980  0.2067 -0.0901 -0.4322
    1W        W36660   7.594   3.249   2.296  0.1815  0.2091  0.1917
    1W        W36661  17.956   7.451   0.220 -0.0950 -0.0725 -0.2510
    1W        W36662  24.346   8.562   9.129 -0.2832  0.0299 -0.1887
    1W        W36663  17.819  21.721   1.572  0.1528 -0.2802  0.1970
    1W        W36664  20.021  17.403   2.295 -0.1162 -0.1950  0.2357
    1W        W36665   1.712  25.211   3.684 -0.2568  0.2359 -0.0222
    1W        W36666  13.682  26.532   9.179 -0.3221 -0.0734  0.1773
    1W        W36667  22.767  28.746   9.099  0.0661 -0.1794 -0.0498
    1W        W36668  20.777   7.462   6.771 -0.0312  0.0984 -0.1224
    1W        W36669  22.162   9.797   0.895  0.0233  0.0642  0.0617
    1W        W36670  26.318  12.484   1.284 -0.0913 -0.3809  0.0050
    1W        W36671  17.194  28.562   9.703 -0.1000  0.0322 -0.1784
    1W        W36672  16.399  23.751   2.193  0.0581  0.4269  0.2631
    1W        W36673  28.548  12.756   1.956 -0.0034  0.1633 -0.0059
    1W        W36674  18.453  20.037   7.534 -0.1708 -0.0474 -0.1025
    1W        W36675  15.165  24.504   0.195 -0.0108 -0.1458  0.0257
    1W        W36676   1.010  19.682   8.465  0.1351 -0.2218 -0.2593
    1W        W36677  28.206   7.869   2.654 -0.0593 -0.1461 -0.1533
    1W        W36678  28.086   7.477   3.020 -0.0213  0.2147 -0.1079
    1W        W36679  20.198  20.551   6.456  0.0435  0.2028 -0.0463
    1W        W36680   7.486  17.231   5.941  0.0863 -0.0406 -0.1964
    1W        W36681   5.754   0.911   9.290  0.1153 -0.0151 -0.0620
    1W        W36682   3.262   3.789   8.450 -0.0689 -0.1409 -0.0626
    1W        W36683   5.930  27.833   2.764 -0.0833  0.4387 -0.0619
    1W        W36684  14.345   0.980   0.398 -0.1360 -0.3428 -0.1200
    1W        W36685  23.431   0.077   1.050  0.1803 -0.0148 -0.1526
    1W        W36686  14.768   6.515   5.647  0.2359 -0.1993 -0.3506
    1W        W36687   7.931  12.158   9.037 -0.1223  0.1095 -0.0056
    1W        W36688  22.117   3.037   7.951 -0.0013  0.2431  0.4101
    1W        W36689  20.723  15.985   7.695  0.0221  0.1194 -0.2151
    1W        W36690  18.443  26.859   8.964  0.0571  0.0790 -0.0473
    1W        W36691  21.072   9.358   6.030  0.0084 -0.0865  0.0582
    1W        W36692   8.266  15.649   7.844 -0.0688  0.0554 -0.0276
    1W        W36693  17.646  18.335   0.651 -0.2414  0.2499 -0.1373
    1W        W36694  27.246  11.930   9.825 -0.0519 -0.0193 -0.1366
    1W        W36695  25.384  15.387   1.496  0.2095  0.1954  0.2109
    1W        W36696  28.753  22.101   8.963  0.1479 -0.2605 -0.1546
    1W        W36697  25.738  14.304   2.077  0.0628 -0.1587  0.0727
    1W        W36698  20.740   2.198   1.389 -0.0257 -0.0756 -0.4153
    1W        W36699  14.880   8.113   0.715 -0.0767 -0.3461  0.0753
    1W        W36700  21.865  22.698   9.096 -0.1871 -0.0740  0.3108
    1W        W36701  16.374  17.717   1.144 -0.2699  0.2693 -0.2391
    1W        W36702   3.730  22.843   1.713  0.2791  0.0394 -0.1394
    1W        W36703  22.882  15.220   7.727 -0.0106  0.2398  0.1230
    1W        W36704  21.928   7.395   7.624 -0.0610 -0.0446 -0.1744
    1W        W36705  20.770   2.662   7.281  0.0099 -0.1776  0.1234
    1W        W36706  27.263  17.992   3.421  0.1167  0.1767  0.2500
    1W        W36707   6.559  15.246   8.664  0.0360  0.1714  0.2936
    1W        W36708   2.847  10.416   2.631 -0.0168  0.2070  0.0035
    1W        W36709  22.780   4.816   7.851 -0.2250 -0.1020  0.0831
    1W        W36710   1.695  19.173   2.779 -0.0151 -0.0025 -0.2503
    1W        W36711  13.560  14.406   6.641 -0.3059  0.1099  0.1345
    1W        W36712   6.442  23.861   9.964  0.3311  0.1757  0.1212
    1W        W36713  18.033  28.034   8.386  0.0810 -0.0022 -0.0765
    1W        W36714  13.717  19.040   9.705 -0.2064 -0.2323  0.0074
    1W        W36715   4.310  11.262   0.591 -0.1219 -0.0844  0.3626
    1W        W36716  25.154   4.061   1.320  0.1022 -0.1469  0.0348
    1W        W36717   4.883  21.152   8.339  0.0559  0.1540 -0.0526
    1W        W36718  19.040   6.252   8.714 -0.0409  0.2245  0.0618
    1W        W36719  27.965  12.755   3.040  0.2544  0.2422 -0.1081
    1W        W36720  12.922  20.056   1.762 -0.0074  0.0938 -0.0765
    1W        W36721  18.759  20.395   0.280 -0.0478  0.1590  0.2694
    1W        W36722  16.331   2.956   9.781  0.0593  0.2935  0.2771
    1W        W36723   1.910   3.232   0.211 -0.1737  0.3253 -0.0448
    1W        W36724  26.307  21.966   0.488  0.1545 -0.1064  0.0648
    1W        W36725  26.978  12.194   0.192  0.0611 -0.0638 -0.1730
    1W        W36726   1.175  11.244   2.897 -0.0897  0.1532  0.0477
    1W        W36727  18.465   8.415   1.286 -0.1947 -0.2899  0.1376
    1W        W36728   0.494  16.488   3.073 -0.0354 -0.0132 -0.1784
    1W        W36729  26.841  15.742   9.950  0.0410 -0.0257  0.2223
    1W        W36730   6.250  18.230   0.023 -0.3219 -0.5582 -0.0905
    1W        W36731  11.947  28.245   9.593 -0.0229  0.0617  0.2957
    1W        W36732  10.010   5.828   0.392 -0.3645  0.0865  0.4922
    1W        W36733   7.125  16.696   9.552  0.3005  0.1033 -0.1235
    1W        W36734   2.878  23.110   0.097  0.0292 -0.1223  0.1378
    1W        W36735  28.280  25.337   4.273  0.0593  0.0704  0.1464
    1W        W36736  14.210  19.646   1.963  0.0038  0.2146 -0.1609
    1W        W36737  21.955  26.301   9.118  0.0884  0.0706 -0.3989
    1W        W36738  22.488   2.576   0.019  0.0612 -0.5363 -0.0036
    1W        W36739   2.623  25.513   2.251  0.2348  0.0035 -0.0601
    1W        W36740  20.385  17.749   1.664  0.1190 -0.4094 -0.1122
    1W        W36741  13.042   9.302   6.946  0.0025  0.0324  0.0127
    1W        W36742   2.979  17.266   0.558  0.1239  0.1959 -0.1663
    1W        W36743  24.312   5.677   7.606  0.2395 -0.1066 -0.0189
    1W        W36744  21.675   9.886   1.038 -0.1126  0.0875 -0.0629
    1W        W36745  21.435   8.463   9.431 -0.2745 -0.0488 -0.0750
    1W        W36746   3.007   4.655   2.209 -0.0340 -0.0019  0.0913
    1W        W36747   4.203  12.528   8.856 -0.3049 -0.1873 -0.2982
    1W        W36748  12.136  12.670   0.832  0.0207  0.2215 -0.1023
    1W        W36749  15.916   3.212   8.504 -0.0604 -0.0507  0.0908
    1W        W36750  22.822   3.183   2.239 -0.0908  0.0850 -0.2495
    1W        W36751  12.305   4.420   7.364  0.0134 -0.1521 -0.2075
    1W        W36752   2.436  23.163   9.994 -0.0496 -0.0349  0.0104
    1W        W36753  16.415  16.485   7.055  0.1002  0.1589  0.1759
    1W        W36754  28.777  17.287   1.461  0.2431  0.2499  0.2456
    1W        W36755  15.142   6.593   8.591  0.0538  0.3005 -0.1927
    1W        W36756  28.225  27.449   7.893  0.1134 -0.0235  0.1379
    1W        W36757   0.960  17.214   4.311  0.1337  0.2110 -0.1101
    1W        W36758  21.062  24.456   9.847  0.1134 -0.2257  0.4181
    1W        W36759   0.594  26.674   9.307 -0.0802 -0.0993  0.2045
    1W        W36760  10.237   8.527   1.788  0.1744 -0.1328  0.0404
    1W        W36761  14.445   0.585   9.284 -0.0023 -0.1307 -0.1219
    1W        W36762  20.150  20.424   8.428  0.0229 -0.1160  0.0058
    1W        W36763   5.785  23.603   1.682  0.1096 -0.2860 -0.0350
    1W        W36764   2.856  23.010   2.959  0.1240 -0.2316 -0.1840
    1W        W36765  22.583   5.021   7.433  0.0075  0.3805  0.0360
    1W        W36766   1.920  11.263   8.375 -0.1223  0.0967 -0.0238
    1W        W36767  11.699  18.904   0.976 -0.4002  0.0653 -0.1505
    1W        W36768  27.681   9.910   0.475 -0.0084 -0.1226  0.1224
    1W        W36769  17.141   3.298   9.349 -0.0718 -0.1876  0.2297
    1W        W36770  24.700  23.203   0.564  0.0567  0.1514  0.1646
    1W        W36771  11.961  10.939   9.011  0.2047  0.0300 -0.2968
    1W        W36772  10.870  25.397   3.127  0.0827  0.0114  0.0573
    1W        W36773  23.709  19.166   2.226  0.2588  0.0340 -0.2271
    1W        W36774   5.995  13.441   9.193  0.0790 -0.2318  0.0120
    1W        W36775  10.348  23.293   9.827 -0.2127 -0.1631 -0.0953
    1W        W36776   1.505  25.916   0.138 -0.0255 -0.0471  0.3537
    1W        W36777   3.710  28.003   1.633 -0.0478 -0.1279 -0.1497
    1W        W36778   7.412  22.009   3.124  0.4628  0.3254  0.0200
    1W        W36779  12.300  17.901   7.431 -0.1763 -0.1034  0.0448
    1W        W36780  12.910  27.091   1.480  0.1345 -0.3947 -0.0993
    1W        W36781  10.180  21.587   8.789  0.1754  0.0419 -0.1231
    1W        W36782   2.998  20.452   7.840  0.0310  0.0540 -0.0351
    1W        W36783   6.364  26.379   3.442 -0.1275 -0.3205  0.3531
    1W        W36784  24.117  21.058   7.865  0.1976 -0.1181 -0.1865
    1W        W36785   3.747  10.556   2.593  0.3604  0.0009  0.0763
    1W        W36786  23.700  19.418   9.107 -0.0966 -0.0979  0.1580
    1W        W36787  25.743  24.160   0.890  0.1008 -0.1121  0.3429
    1W        W36788  22.645   4.551   2.382 -0.2348 -0.0298 -0.2302
    1W        W36789  21.149  14.017   9.136 -0.2317 -0.3237  0.0739
    1W        W36790  19.723  16.769   0.202  0.0355  0.0345  0.0956
    1W        W36791   4.601   0.062   1.217  0.0361 -0.1825 -0.0078
    1W        W36792  21.578   2.196   8.876  0.0946 -0.0624 -0.0351
    1W        W36793  27.701  16.352   8.112 -0.0164 -0.1707  0.2230
    1W        W36794  14.162  23.521   8.020  0.2743 -0.1660 -0.2616
    1W        W36795  19.221  28.562   8.700  0.4668  0.0495  0.0504
    1W        W36796   7.886  24.063   0.015 -0.1921  0.0494 -0.1558
    1W        W36797  11.129   2.490   7.325 -0.0235 -0.1805 -0.1409
    1W        W36798   6.327   3.141   0.632 -0.1336 -0.2250  0.0754
    1W        W36799   7.860   7.210   9.455 -0.3186  0.4748  0.0426
    1W        W36800  28.026  11.300   2.944 -0.1577  0.1956  0.3044
    1W        W36801  18.908   1.150   3.126  0.2359 -0.2258 -0.0001
    1W        W36802  20.954  18.367   9.239 -0.1345 -0.3366  0.3869
    1W        W36803  21.935  20.391   1.978  0.1869 -0.1829 -0.0854
    1W        W36804   9.743  16.106   2.882 -0.2451 -0.3570 -0.1075
    1W        W36805  25.728   9.333   1.719  0.1513  0.1073  0.2357
    1W        W36806  22.724   2.583   0.918 -0.0970 -0.1842  0.0196
    1W        W36807  27.306  17.366   0.357  0.0370  0.2004 -0.0857
    1W        W36808   4.317  23.037   1.541 -0.0886  0.1422 -0.0435
    1W        W36809  11.256   9.023   8.341 -0.2491  0.1039 -0.2026
    1W        W36810  10.403  19.436   8.479 -0.1373  0.0138 -0.3465
    1W        W36811  25.644   4.078   3.815  0.0423  0.0658 -0.0314
    1W        W36812  22.141  13.594   2.295  0.0638  0.0897  0.1160
    1W        W36813   2.608  23.814   2.258 -0.0238 -0.1436  0.2699
    1W        W36814   0.573  28.166   3.176  0.1684 -0.1243 -0.4316
    1W        W36815  24.231   0.351   1.434 -0.2588  0.1464  0.1051
    1W        W36816   3.187   2.131   1.271  0.0757 -0.0245  0.0003
    1W        W36817  23.508  17.572   8.358  0.2044 -0.1989  0.0671
    1W        W36818  12.123   0.892   8.524  0.1400 -0.0577 -0.2605
    1W        W36819  19.191  20.624   9.508 -0.1425  0.0742 -0.2213
    1W        W36820  22.879  26.946   0.729  0.1482  0.1394 -0.2241
    1W        W36821  24.234  19.356   6.999 -0.2813 -0.0361  0.0315
    1W        W36822   0.384   1.936   7.709  0.0945  0.0417  0.1778
    1W        W36823  11.034  24.655   0.374  0.1113  0.2420  0.2305
    1W        W36824  28.613  17.836   0.602  0.2326 -0.0046  0.0407
    1W        W36825  24.667   9.217   1.760 -0.1258 -0.1736  0.4443
    1W        W36826  21.365  23.509   8.790 -0.4415  0.0977 -0.0079
    1W        W36827  17.368  28.599   0.578  0.3303  0.0281  0.3284
    1W        W36828  16.655  26.469   1.067  0.1139 -0.0972 -0.1898
    1W        W36829  13.104   2.588   9.706  0.0953 -0.0121  0.2157
    1W        W36830  20.993  13.843   7.511 -0.0348  0.4033  0.2677
    1W        W36831  10.800  13.548   0.753 -0.2621  0.2646  0.0743
    1W        W36832  18.754  16.879   5.994  0.2233 -0.1192  0.4575
    1W        W36833  10.576  17.000   0.261  0.0308  0.2696  0.0865
    1W        W36834   5.197  21.191   9.741 -0.0203  0.2646 -0.1403
    1W        W36835  15.644  16.205   6.791 -0.1239  0.3266 -0.1704
    1W        W36836   3.691  21.650   8.225 -0.1062  0.1516  0.0759
    1W        W36837  20.615   4.761   9.697  0.0171  0.2417 -0.2255
    1W        W36838  15.702   7.608   8.008 -0.0431 -0.0471  0.2301
    1W        W36839   6.234  23.837   1.584 -0.1289  0.0170  0.0828
    1W        W36840  13.189   4.136   7.601  0.0187  0.4376  0.0481
    1W        W36841   8.304   0.229   0.975 -0.0229  0.0083 -0.1914
    1W        W36842   3.291   1.221   1.051  0.1976 -0.0719 -0.0075
    1W        W36843  25.953   4.962   0.525 -0.1119  0.0474 -0.1068
    1W        W36844  20.367   9.369   8.376 -0.3373 -0.0661  0.0140
    1W        W36845  26.865  23.148   2.233 -0.3640 -0.2637 -0.1312
    1W        W36846   2.385   1.381   4.056  0.0147  0.0537  0.0332
    1W        W36847  15.239  13.577   9.054 -0.0417  0.1225 -0.1992
    1W        W36848   7.697  23.564   0.049  0.0244 -0.0726 -0.0272
    1W        W36849  11.383  19.811   8.149 -0.2750 -0.0751 -0.0705
    1W        W36850  28.254  24.030   0.156  0.1200 -0.3354  0.2028
    1W        W36851   0.647  22.804   1.844  0.2970 -0.0607  0.0354
    1W        W36852  15.387   5.432   0.537  0.2612  0.0615 -0.1594
    1W        W36853  21.824  12.906   0.239  0.0389 -0.0218  0.0943
    1W        W36854   9.279   3.497   2.640 -0.3440  0.2202 -0.0411
    1W        W36855   5.251   3.005   1.323 -0.0157 -0.1785 -0.1665
    1W        W36856   1.399  11.844   9.490  0.3658 -0.0702 -0.2418
    1W        W36857  28.725  18.515   0.200  0.0879 -0.2243  0.3076
    1W        W36858  20.149  14.639   1.015 -0.1577 -0.0717 -0.0500
    1W        W36859   0.199   2.575   8.286 -0.1527 -0.1408 -0.0410
    1W        W36860   7.454  21.437   2.565 -0.0007 -0.0856  0.1304
    1W        W36861  11.285  15.143   6.458  0.2693  0.0160 -0.0451
    1W        W36862  13.082  14.703   7.012  0.0694  0.3500  0.1440
    1W        W36863  19.191  22.023   8.966 -0.0126 -0.1877  0.0106
    1W        W36864   0.694  28.216   8.252 -0.0604  0.0778 -0.1264
    1W        W36865  25.143  18.250   9.252  0.1264 -0.1944 -0.2962
    1W        W36866  10.477  10.902   0.167 -0.3412  0.0204 -0.2148
    1W        W36867   9.981  23.574   7.450 -0.1905  0.2777 -0.2490
    1W        W36868   2.374  27.388   1.237 -0.2973  0.0448  0.0414
    1W        W36869  16.221  13.067   1.089  0.0228 -0.0556  0.0479
    1W        W36870  21.282  25.154   1.732  0.2476  0.2260 -0.0065
    1W        W36871   1.823  16.369   3.561 -0.0820 -0.0302  0.2846
    1W        W36872  26.562  25.395   9.361 -0.1688 -0.0794  0.0808
    1W        W36873   2.909  18.422   6.896  0.1429 -0.1368 -0.0611
    1W        W36874  24.729  14.099   2.509 -0.1411 -0.2363  0.2085
    1W        W36875  26.291  17.402   0.140  0.0087  0.0664  0.0923
    1W        W36876  16.568  16.502   9.917  0.1956  0.1325  0.0842
    1W        W36877  12.756  23.077   2.713  0.1789 -0.0584 -0.1229
    1W        W36878   7.232  19.178   1.465  0.0784  0.1780  0.1083
    1W        W36879   1.462  28.029   2.955 -0.2896  0.2266 -0.2405
    1W        W36880  24.792  15.136   1.688  0.1392 -0.1738  0.0266
    1W        W36881  14.199  21.065   8.263 -0.0275  0.0578 -0.0124
    1W        W36882  12.460  17.044   0.403  0.0481 -0.0847  0.3465
    1W        W36883  15.430   2.022   2.213 -0.0533  0.4706  0.2252
    1W        W36884  16.710   6.460   6.050  0.0891 -0.0606 -0.1130
    1W        W36885  14.877  13.190   7.655 -0.0063  0.2490 -0.0876
    1W        W36886   0.076  12.412   2.854  0.0813 -0.0602 -0.4104
    1W        W36887   8.193  27.501   2.956 -0.1235  0.1109  0.0464
    1W        W36888  13.390   9.410   9.480  0.1014 -0.3859 -0.2535
    1W        W36889  21.574  12.075   7.331 -0.0596  0.3513 -0.1428
    1W        W36890   4.918  28.852   4.370 -0.0131  0.1366  0.1331
    1W        W36891  23.234  14.872   7.810 -0.1482 -0.0181 -0.0079
    1W        W36892   8.052  25.003   9.119 -0.1771 -0.1809  0.0897
    1W        W36893  11.192  27.601   9.152  0.2839 -0.0168 -0.1278
    1W        W36894  28.651  19.288   4.388  0.3018 -0.1079 -0.0688
    1W        W36895  15.027  19.838   2.856  0.2025  0.2072 -0.3168
    1W        W36896   7.205   7.563   0.623  0.0001  0.0049  0.0017
    1W        W36897  13.025  17.690   8.600 -0.1617 -0.1401  0.3132
    1W        W36898   4.090  14.010   8.280 -0.0102 -0.1681  0.0473
    1W        W36899   0.283  28.094   9.200  0.1493 -0.0820 -0.1437
    1W        W36900  15.498  19.091   7.658  0.3455  0.1050  0.0736
    1W        W36901  16.535   4.701   0.114 -0.2009 -0.0953 -0.1176
    1W        W36902   6.182   6.324   7.918  0.1209  0.1117 -0.1067
    1W        W36903   9.204  16.358   2.588  0.2526 -0.1872  0.0509
    1W        W36904  14.920  20.736   1.168  0.1954  0.0481 -0.0386
    1W        W36905  18.913  11.944   8.069 -0.2671 -0.2849 -0.2556
    1W        W36906  24.186  13.759   2.018  0.0779 -0.0228 -0.0134
    1W        W36907  27.897  18.086   0.094  0.2079 -0.2313 -0.1879
    1W        W36908  17.508  17.122   6.828  0.0156  0.0351 -0.0575
    1W        W36909  28.662  24.787   2.750 -0.1225 -0.1220  0.1546
    1W        W36910   4.590  27.523   0.236 -0.5375  0.0147 -0.1276
    1W        W36911   1.525   5.734   1.247 -0.0542 -0.0730  0.2140
    1W        W36912   7.923   4.985   8.081 -0.1684  0.6734  0.0454
    1W        W36913   9.678  12.151   7.518 -0.2634  0.1494 -0.0663
    1W        W36914   5.124   9.987   8.876  0.1760 -0.2542  0.1762
    1W        W36915   7.346  19.858   0.194 -0.1902  0.0918  0.0035
    1W        W36916  12.795   4.624   9.824 -0.0211 -0.1459 -0.0531
    1W        W36917  15.663  11.754   6.419 -0.0839  0.0686  0.1395
    1W        W36918   3.942  17.261   1.527 -0.2595 -0.1137 -0.0165
    1W        W36919  10.981  27.397   7.815  0.2994 -0.1303  0.0680
    1W        W36920   8.930  15.461   5.757 -0.1800 -0.0026 -0.1209
    1W        W36921  16.374   5.933   6.943 -0.4664 -0.0839 -0.0441
    1W        W36922  25.789   1.250   8.308  0.1963  0.0159 -0.0626
    1W        W36923  20.541  26.636   7.231  0.0299 -0.0148  0.2978
    1W        W36924   8.917   8.183   9.345  0.0776  0.0778  0.1722
    1W        W36925  19.023  25.669   9.480  0.2298 -0.1328 -0.0945
    1W        W36926   0.747  20.077   7.701  0.1274  0.1025 -0.1234
    1W        W36927  22.961  28.447   8.699 -0.2313  0.4607  0.0878
    1W        W36928   6.081  21.781   9.902  0.3174  0.1259  0.0288
    1W        W36929   4.045  19.027   7.669 -0.3697 -0.0807  0.1068
    1W        W36930  23.493  16.815   8.988 -0.1886  0.0685  0.0712
    1W        W36931   7.766  18.425   9.390 -0.0993  0.1000  0.2808
    1W        W36932   4.276   5.324   9.015  0.2593  0.1913  0.3161
    1W        W36933   1.219  21.699   1.020 -0.2183 -0.2417  0.0087
    1W        W36934  25.793  12.781   7.843  0.3040 -0.1393  0.2204
    1W        W36935  12.987  28.252   2.487 -0.1033 -0.1661 -0.1920
    1W        W36936  27.849  13.377   7.922 -0.0722 -0.1592  0.2193
    1W        W36937  11.407  13.397   9.580  0.2053  0.0890 -0.1201
    1W        W36938  19.292  11.388   2.672 -0.0829  0.1687 -0.0156
    1W        W36939   0.083  12.984   0.379 -0.3563  0.0965 -0.1561
    1W        W36940   7.456  26.825   3.313 -0.0940  0.2590 -0.0024
    1W        W36941  26.745  13.903   0.625  0.1697 -0.1150 -0.1739
    1W        W36942   8.117  26.543   0.455 -0.3608  0.0340  0.0419
    1W        W36943  27.946   8.282   3.088  0.1278 -0.0504 -0.0080
    1W        W36944   0.824   1.636   9.898 -0.1744 -0.1592 -0.0924
    1W        W36945  10.731  12.655   6.208 -0.2442 -0.0899  0.3211
    1W        W36946   8.327  21.177   2.818  0.0966  0.0686  0.1613
    1W        W36947  17.800   4.483   7.548  0.1601 -0.1295  0.2695
    1W        W36948   3.508  25.966   2.175  0.2150 -0.3311  0.1584
    1W        W36949  28.822  18.658   2.063  0.0630  0.0883  0.1039
    1W        W36950  24.802  14.298   1.500  0.1050 -0.0096  0.1331
    1W        W36951   4.136  19.296   9.901 -0.2142 -0.0788 -0.2184
    1W        W36952   5.292   2.252   0.923 -0.0009 -0.0256  0.0862
    1W        W36953  22.861  16.664   9.838  0.0108  0.2879 -0.1844
    1W        W36954   6.418  24.883   1.556  0.2373  0.2369 -0.2599
    1W        W36955   8.234  22.723   1.626 -0.1305 -0.0011  0.0397
    1W        W36956  19.939  22.374   8.821  0.0075 -0.1240 -0.0294
    1W        W36957  25.471   0.513   2.542 -0.2640  0.0986  0.0930
    1W        W36958  23.305  24.356   8.692 -0.2028 -0.1747  0.1807
    1W        W36959   3.871   4.185   4.447 -0.4702  0.0736  0.1981
    1W        W36960   0.436   4.891   0.817  0.3962 -0.2016 -0.0285
    1W        W36961  20.648  17.089   8.881  0.3201 -0.3994 -0.0182
    1W        W36962  28.117  22.360   2.893 -0.0084 -0.0460  0.1628
    1W        W36963   5.890  18.336   6.805 -0.1054 -0.2424 -0.1440
    1W        W36964  16.880  22.796   1.506  0.0751 -0.2684  0.1489
    1W        W36965   3.817   4.724   3.205 -0.3629 -0.1100  0.2116
    1W        W36966   7.555  17.819   0.308 -0.0394  0.0980  0.0996
    1W        W36967   4.433  19.260   9.527 -0.0618  0.0349  0.0080
    1W        W36968   6.812   8.384   8.042 -0.0014  0.0500  0.0282
    1W        W36969  18.401  11.546   7.209  0.0137 -0.0948 -0.3539
    1W        W36970  27.479  24.214   0.140 -0.2240  0.1850  0.3042
    1W        W36971  12.367  10.956   0.471 -0.1559 -0.0354  0.1965
    1W        W36972  24.865   0.882   2.489  0.1822  0.3532 -0.2975
    1W        W36973  20.179   0.616   2.167  0.2353  0.3311  0.2774
    1W        W36974  11.714  23.717   3.573 -0.2278  0.4866 -0.0797
    1W        W36975   9.402  11.368   6.203 -0.0457 -0.2596  0.2811
    1W        W36976  28.439  20.794   0.531  0.2300  0.0065  0.0126
    1W        W36977   2.576  14.649   9.290  0.0707  0.2348  0.1077
    1W        W36978  18.395  21.825   7.746 -0.3605  0.3730 -0.3187
    1W        W36979  25.808  14.094   2.961 -0.0692 -0.3253  0.2154
    1W        W36980   0.970  25.916   9.520  0.0834  0.1888 -0.2631
    1W        W36981   0.260   6.972   9.058 -0.0139  0.2891 -0.1763
    1W        W36982   8.196   4.288   0.401  0.0166  0.0480 -0.1464
    1W        W36983  12.823  26.066   0.233  0.0199  0.0346  0.1851
    1W        W36984  22.148  15.872   0.232  0.1768  0.0036  0.1057
    1W        W36985   9.644   5.397   0.089 -0.0339 -0.0130 -0.2514
    1W        W36986  14.496   5.884   6.474  0.2268  0.2614 -0.0488
    1W        W36987  22.479   3.082   7.601  0.2829  0.3439  0.2037
    1W        W36988   5.258   8.748   8.431  0.3366  0.1632  0.2847
    1W        W36989  14.000   7.982   7.708  0.0089 -0.1537  0.1382
    1W        W36990   8.528   5.256   1.207  0.2761  0.2078  0.1256
    1W        W36991   8.743  21.046   9.371  0.1693 -0.3939 -0.1798
    1W        W36992  22.278  24.149   9.343 -0.0795  0.1560 -0.0129
    1W        W36993  21.845   7.734   9.866  0.0030  0.3668  0.1682
    1W        W36994   1.627  19.663   7.799  0.0312  0.1086 -0.1608
    1W        W36995  22.395   5.449   2.204  0.2722  0.1197  0.3095
    1W        W36996  14.446   6.248   7.906  0.0517  0.2399 -0.2749
    1W        W36997   2.519   3.067   8.878  0.1147  0.1086  0.0864
    1W        W36998   7.100   6.086   1.622 -0.3317 -0.2014  0.0839
    1W        W36999  25.688   1.525   9.238 -0.0501  0.0953 -0.3246
    1W        W37000  12.768  23.557   2.584  0.1953  0.1185 -0.2632
    1W        W37001  27.005   9.159   9.787  0.0928 -0.0104  0.0147
    1W        W37002  27.353  13.344   0.153  0.2027  0.2275 -0.0706
    1W        W37003  20.986  13.467   1.197 -0.1521 -0.0647 -0.1342
    1W        W37004  21.291   1.573   8.274  0.0951  0.0232  0.0979
    1W        W37005  24.111  19.730   1.617  0.0602  0.3410 -0.0221
    1W        W37006  23.094  15.644   7.916  0.1746 -0.2845 -0.1251
    1W        W37007   2.278   2.904   0.470 -0.0196 -0.2823 -0.0745
    1W        W37008  23.929  12.937   3.159 -0.0595 -0.0992  0.3763
    1W        W37009  25.996   5.026   9.601  0.2934 -0.1534  0.2808
    1W        W37010   3.136  25.774   0.983  0.5069  0.1812 -0.3144
    1W        W37011  16.962  10.267   5.240  0.3135  0.1222 -0.2793
    1W        W37012  10.646  21.443   8.810  0.0412 -0.0401 -0.0233
    1W        W37013   9.555   5.661   1.922  0.1617 -0.2054  0.0196
    1W        W37014  15.498   3.110   7.532  0.2423 -0.3879 -0.1927
    1W        W37015   5.315  10.636   0.887 -0.0963 -0.0690 -0.3054
    1W        W37016  26.021  23.535   2.594  0.0961 -0.2297 -0.2076
    1W        W37017  17.696  14.991   6.973  0.1652 -0.1217 -0.3099
    1W        W37018   4.348  12.095   2.801 -0.0964 -0.2352  0.2285
    1W        W37019   0.646   3.103   8.964 -0.0006  0.2189 -0.1999
    1W        W37020   7.448  24.842   7.997 -0.2227 -0.0602  0.3258
    1W        W37021  18.145  19.221   0.611 -0.0024  0.0416  0.0384
    1W        W37022  18.292  19.743   8.923  0.1935 -0.0720 -0.0423
    1W        W37023   7.666  24.643   2.602 -0.2380  0.3004  0.0545
    1W        W37024  19.620   4.397   6.939  0.1302 -0.1364 -0.1311
    1W        W37025  14.347   5.703   9.839 -0.2066  0.0876  0.2053
    1W        W37026   7.377   3.638   2.526 -0.3526  0.2482 -0.0856
    1W        W37027  16.854   5.023   8.716 -0.3813 -0.0965 -0.0027
    1W        W37028  28.509  20.311   1.538  0.0511  0.1860  0.0924
    1W        W37029  21.623  17.248   7.831  0.1035  0.2282  0.0552
    1W        W37030  11.150  20.957   0.348 -0.0600  0.2295 -0.2729
    1W        W37031  27.995  12.834   0.600 -0.0506 -0.1698 -0.0716
    1W        W37032  13.628  14.634   7.063 -0.0127  0.3478  0.4592
    1W        W37033   8.902  26.173   2.013  0.1204 -0.1891 -0.0442
    1W        W37034  24.647  14.535   7.313  0.0004 -0.3042 -0.0003
    1W        W37035  15.913   3.808   8.532  0.0854 -0.0942  0.1481
    1W        W37036   7.490   4.841   8.957  0.0219 -0.0083 -0.3624
    1W        W37037  24.991  16.009   2.049  0.0584 -0.3976  0.2229
    1W        W37038   5.498   7.120   0.254  0.3571  0.0624 -0.2860
    1W        W37039  25.650  26.238   2.667 -0.2672 -0.0581 -0.2053
    1W        W37040  18.070  10.841   1.015  0.0534 -0.0588  0.0834
    1W        W37041   5.017  10.365   0.420  0.4898 -0.1282  0.1179
    1W        W37042  28.303   4.263   0.215 -0.1807 -0.2127  0.0057
    1W        W37043   4.919   0.289   0.952 -0.0538 -0.0213 -0.0379
    1W        W37044  23.453  26.121   8.833  0.2444  0.3136  0.2804
    1W        W37045  11.786   9.425   6.800  0.1375  0.2123 -0.0066
    1W        W37046   3.535  23.749   0.945 -0.2722 -0.1422 -0.0230
    1W        W37047  26.860   9.208   7.636  0.1582 -0.2729  0.2195
    1W        W37048  12.301  13.659   9.470 -0.1887  0.4662 -0.1969
    1W        W37049  15.673  17.149   9.053 -0.0985  0.1815  0.0463
    1W        W37050   2.341  14.660   1.670 -0.1622 -0.1586  0.1188
    1W        W37051   5.558   6.802   9.063 -0.0978  0.2213 -0.2021
    1W        W37052   6.071   3.545   7.594 -0.2049  0.4363  0.0536
    1W        W37053   5.866   9.225   8.057  0.1842  0.0007 -0.1173
    1W        W37054  19.700  15.727   1.858  0.0029 -0.2726 -0.2601
    1W        W37055  10.487   5.869   1.074  0.2136 -0.3024 -0.0585
    1W        W37056  10.610   7.748   9.102  0.1024  0.0800 -0.1216
    1W        W37057   6.838  18.346   0.952 -0.0790  0.0327  0.4236
    1W        W37058  19.625  12.348   7.460  0.2463 -0.0852  0.2007
    1W        W37059  19.999   1.929   8.689  0.2861  0.1469  0.1255
    1W        W37060  12.932   5.444   1.987  0.0264 -0.0926 -0.1315
    1W        W37061  14.877   5.815   6.157 -0.2452  0.0102 -0.1248
    1W        W37062  20.479  19.239   9.039 -0.0774  0.0463 -0.2121
    1W        W37063  17.162  19.853   7.111  0.0435  0.1038  0.2553
    1W        W37064  25.227   6.599   8.142 -0.2568  0.1025  0.2021
    1W        W37065   3.238  10.598   1.901  0.0692 -0.0671  0.3180
    1W        W37066   7.160  17.575   1.706 -0.1084  0.0444 -0.0386
    1W        W37067   0.393  22.567   3.092  0.1727  0.3924 -0.2445
    1W        W37068  27.323  25.812   9.570 -0.3757 -0.0233  0.0122
    1W        W37069   7.745  14.096   0.806 -0.3011  0.2710 -0.2119
    1W        W37070  11.324   7.382   0.345 -0.3260 -0.0236 -0.3363
    1W        W37071  11.920  25.544   0.845  0.2083  0.1863 -0.1307
    1W        W37072  13.667   3.308   0.888 -0.0645  0.0980  0.0288
    1W        W37073   2.928   3.657   9.506 -0.0307  0.0783 -0.0542
    1W        W37074   0.873  28.403   7.340 -0.0286  0.2178 -0.1161
    1W        W37075  20.027  23.907   1.706 -0.0626 -0.0360  0.2547
    1W        W37076   1.706   2.844   0.388 -0.1599 -0.3064 -0.1790
    1W        W37077  25.573  25.891   1.257 -0.1051  0.1661  0.0339
    1W        W37078   0.454  17.667   3.329 -0.0823  0.0102  0.1297
    1W        W37079   9.898  20.254   9.087 -0.1205  0.4477 -0.0198
    1W        W37080   6.617   4.028   7.944  0.0346 -0.0673  0.0475
    1W        W37081  12.273   1.016   7.657  0.0545  0.0212 -0.2463
    1W        W37082  21.293  21.201   2.000 -0.1501 -0.0684 -0.0741
    1W        W37083   2.866  21.622   2.648 -0.0019 -0.2156 -0.3178
    1W        W37084   8.927  25.658   3.269  0.0516  0.0235 -0.1089
    1W        W37085   6.369   2.364   9.606 -0.2634 -0.0209 -0.0622
    1W        W37086  27.897  12.361   0.394 -0.1027 -0.0226 -0.0520
    1W        W37087   1.791   2.715   1.824  0.1812  0.3225  0.2208
    1W        W37088  18.458  10.428   7.158  0.1416  0.1928  0.2100
    1W        W37089  17.325  21.654   7.148  0.3219  0.0486  0.1069
    1W        W37090  15.094   5.061   7.359  0.1265 -0.2506  0.1491
    1W        W37091  25.327  15.907   0.162 -0.0227 -0.1771  0.1303
    1W        W37092  18.907  19.726   8.346 -0.1446 -0.2016  0.0186
    1W        W37093   0.171  14.818   1.860  0.2925 -0.1698 -0.1203
    1W        W37094  12.673  24.686   7.794 -0.0005  0.3200 -0.0632
    1W        W37095  18.328  22.787   7.711 -0.0759  0.1021 -0.1694
    1W        W37096  25.247   2.657   9.976  0.2561  0.1662 -0.0511
    1W        W37097   6.857   5.822   7.539  0.1345  0.2965 -0.1818
    1W        W37098  22.933  26.539   2.322  0.1313 -0.1194 -0.0268
    1W        W37099   5.178  26.997   3.490  0.1184 -0.0447 -0.0509
    1W        W37100  27.156  15.589   8.689 -0.0361 -0.1263 -0.1488
    1W        W37101  27.079   3.968   3.304  0.3423 -0.0272  0.1981
    1W        W37102   3.603  18.748   8.596 -0.2377  0.1544 -0.0342
    1W        W37103   2.099  10.908   8.833  0.2117  0.1131  0.0030
    1W        W37104   4.294   5.420   0.851 -0.1545  0.0551 -0.1155
    1W        W37105  18.933   4.205   7.612 -0.0339 -0.0123 -0.0269
    1W        W37106   9.645  22.343   7.130 -0.2356 -0.1259  0.1067
    1W        W37107  28.290   8.256   9.699 -0.2339  0.0451 -0.0118
    1W        W37108  19.073  11.647   7.655 -0.0863  0.3371  0.3156
    1W        W37109   3.369  13.705   7.727 -0.0709  0.2217  0.4232
    1W        W37110   8.208  26.650   3.752 -0.1948  0.1824  0.0191
    1W        W37111  12.029   5.912   0.635  0.1627  0.3059  0.1896
    1W        W37112  23.561  23.953   8.862  0.2983  0.1283  0.0532
    1W        W37113  11.608  17.654   1.235  0.2268 -0.1812 -0.4271
    1W        W37114  17.589   7.504   6.210  0.1358  0.0488 -0.0233
    1W        W37115   6.192   4.198   2.752  0.0950 -0.0391 -0.0182
    1W        W37116   8.102   1.964   9.306 -0.1153 -0.1674  0.0981
    1W        W37117  12.238  28.632   1.013  0.3583  0.0349 -0.2619
    1W        W37118   2.424  15.949   9.174  0.1461  0.0006  0.0981
    1W        W37119  25.486  23.678   0.175 -0.1201 -0.0513  0.0222
    1W        W37120  14.573   1.800   1.006  0.3517 -0.1509 -0.0560
    1W        W37121  19.158  19.008   6.928 -0.2511 -0.0592  0.1329
    1W        W37122   7.502  11.682   5.662  0.1834  0.0230 -0.1259
    1W        W37123  11.502  10.788   9.201 -0.0469 -0.5095  0.3101
    1W        W37124  25.937   2.052   8.649  0.1868  0.1581 -0.1834
    1W        W37125  22.695  10.502   9.758  0.0109  0.1357 -0.3560
    1W        W37126  13.437  20.614   0.644  0.1392  0.0602 -0.2017
    1W        W37127  10.751  12.052   1.003 -0.0325 -0.2457 -0.0516
    1W        W37128   2.418  11.186   8.203 -0.3086  0.0613  0.3138
    1W        W37129  14.580  27.529   9.877 -0.1146 -0.0331 -0.0818
    1W        W37130  18.888  14.055   9.012  0.1758  0.3592 -0.1051
    1W        W37131  24.003  18.127   6.631  0.1540  0.0446  0.0237
    1W        W37132   0.668  12.758   9.338 -0.0120  0.0074  0.1629
    1W        W37133  23.520   5.303   7.927  0.1416 -0.1300 -0.0596
    1W        W37134  21.168  11.819   2.299 -0.1595 -0.0874  0.3411
    1W        W37135  22.655   5.399   0.622  0.2405 -0.0793 -0.2921
    1W        W37136  22.645   3.678   2.124 -0.1563 -0.2954  0.2508
    1W        W37137  28.449  17.441   0.236  0.1173 -0.0242 -0.3579
    1W        W37138  18.823   4.090   1.820 -0.1828 -0.1311 -0.0846
    1W        W37139   2.293  27.336   2.463 -0.0443  0.2596 -0.1757
    1W        W37140  25.019  14.587   2.458  0.2575 -0.0944  0.3839
    1W        W37141  25.272  17.323   8.744 -0.1947  0.3535 -0.1381
    1W        W37142  14.399  26.110   1.132 -0.3600  0.2026  0.1452
    1W        W37143  27.364   9.568   2.847  0.0711  0.1646 -0.5497
    1W        W37144  17.742  20.593   1.819 -0.3619  0.1730  0.1866
    1W        W37145   4.050  25.867   2.336  0.3335  0.0397 -0.1795
    1W        W37146   4.092   7.483   9.288 -0.0914 -0.1371 -0.1231
    1W        W37147  20.363   5.006   0.139 -0.0482 -0.0776  0.1550
    1W        W37148   8.939  25.701   2.711 -0.1147  0.0957  0.0293
    1W        W37149  20.696   8.560   0.175  0.1257  0.0316 -0.2953
    1W        W37150  19.873   0.291   1.391 -0.0250  0.0932 -0.0149
    1W        W37151   0.771   8.960   8.884  0.0851  0.0780 -0.1577
    1W        W37152  13.880   2.346   0.843 -0.2511 -0.0525 -0.1089
    1W        W37153   4.781  16.714   0.421 -0.1533  0.1128  0.1877
    1W        W37154   8.310  23.433   9.024  0.0125  0.0346 -0.1421
    1W        W37155   2.403   5.312   1.821  0.0381 -0.4030 -0.0363
    1W        W37156   0.884  11.689   9.432  0.2125 -0.0265  0.1154
    1W        W37157   3.088  26.631   3.236  0.2102  0.1768  0.0869
    1W        W37158  22.095  14.191   1.225  0.0747  0.1258 -0.1915
    1W        W37159  22.625  21.842   9.735  0.0357 -0.0211  0.0697
    1W        W37160  14.415  11.704   0.901  0.1816  0.2437  0.2100
    1W        W37161   5.865  18.635   2.588  0.1784  0.0682  0.2613
    1W        W37162   5.480  17.353   7.621  0.1934  0.0890 -0.1678
    1W        W37163  21.406  27.978   9.288 -0.0244  0.1842 -0.0651
    1W        W37164  22.388   2.127   0.506  0.0640 -0.4213  0.3635
    1W        W37165   9.007  22.661   8.240  0.1858 -0.1770 -0.0133
    1W        W37166  26.281   2.820   9.005 -0.2910 -0.2710 -0.1809
    1W        W37167   1.592  24.252   9.590 -0.2285 -0.0303  0.1097
    1W        W37168   2.967  18.639   1.092  0.1412 -0.0596 -0.2764
    1W        W37169   6.963  27.533   2.738  0.2527 -0.0074 -0.0365
    1W        W37170  22.352   4.632   1.095  0.1312  0.1965  0.0192
    1W        W37171  19.724  24.080   8.603 -0.1059 -0.1800 -0.0703
    1W        W37172  11.077   8.236   7.993 -0.0442 -0.0464 -0.0632
    1W        W37173   6.352  10.549   6.125  0.3462  0.0533 -0.1498
    1W        W37174  11.679   7.338   1.246  0.0161 -0.0475  0.2482
    1W        W37175  10.295  17.453   2.698  0.0109 -0.1664 -0.0432
    1W        W37176  14.971  14.757   6.144  0.3178  0.0437  0.2047
    1W        W37177  22.768   0.402   8.011  0.3823 -0.1810  0.1516
    1W        W37178  24.882  21.472   8.509  0.1712  0.1455 -0.0749
    1W        W37179  14.759  14.064   2.032 -0.0163  0.1956 -0.1669
    1W        W37180  10.105  20.934   2.823 -0.2950 -0.0314 -0.3538
    1W        W37181  11.234  28.769   1.509 -0.0536 -0.1085 -0.0832
    1W        W37182  23.162  13.668   0.988  0.4913 -0.0625  0.0077
    1W        W37183  24.670  18.755   0.558  0.0813  0.0626 -0.2313
    1W        W37184  20.111  10.871   1.774 -0.2226 -0.2429  0.3055
    1W        W37185  24.128  25.076   1.554 -0.2503 -0.2634 -0.3545
    1W        W37186   1.420   1.786   2.761 -0.0817  0.4844 -0.0446
    1W        W37187  12.655  10.990   1.370  0.3594  0.4044  0.0743
    1W        W37188  11.495  26.417   2.373  0.4058  0.1442  0.0163
    1W        W37189  23.544  14.689   0.911  0.0358  0.1528 -0.4943
    1W        W37190  13.488  21.370   9.461  0.0650  0.0237 -0.0268
    1W        W37191   3.267   0.067   0.389  0.0051 -0.0701 -0.4554
    1W        W37192   0.403  15.319   1.661 -0.3730 -0.1129  0.2106
    1W        W37193  12.930  10.780   8.282  0.0441 -0.1465  0.3197
    1W        W37194  21.808  25.252   0.575 -0.2236 -0.0131 -0.0100
    1W        W37195  13.441   1.851   6.561  0.0332 -0.0870 -0.1149
    1W        W37196  25.123   5.546   1.324 -0.1078 -0.1820  0.2469
    1W        W37197   2.870  16.825   0.419 -0.1284 -0.2469 -0.1123
    1W        W37198  19.877   5.221   0.405  0.1023 -0.1087 -0.3069
    1W        W37199  26.031  12.732   2.069  0.2379 -0.0165  0.1117
    1W        W37200   3.529   1.737   2.717 -0.2066 -0.2026  0.0365
    1W        W37201  17.737  17.470   8.563 -0.1843 -0.0065  0.0558
    1W        W37202   2.025  15.599   8.422 -0.0555  0.2710 -0.0128
    1W        W37203  19.875  28.490   9.879 -0.2832 -0.0444 -0.5187
    1W        W37204  23.674   5.924   7.197  0.1886  0.3546 -0.3031
    1W        W37205  19.777   6.152   8.982 -0.0404 -0.0884 -0.3235
    1W        W37206   7.096   5.519   2.292 -0.0966 -0.0874 -0.0604
    1W        W37207  11.570  23.248   0.618  0.1088  0.1645  0.0286
    1W        W37208  22.839   0.827   0.128 -0.1309  0.3275 -0.2098
    1W        W37209  26.207  22.627   8.499 -0.2513  0.1898 -0.1301
    1W        W37210  27.927  25.830   3.435  0.0965  0.0078 -0.0876
    1W        W37211   9.936  27.792   9.376 -0.2893  0.2843 -0.1654
    1W        W37212  12.829   5.208   6.790 -0.3215 -0.0499  0.2665
    1W        W37213  10.989  26.703   7.610  0.0436  0.0428  0.0479
    1W        W37214  17.202   5.890   0.895  0.0911  0.0935  0.2738
    1W        W37215   5.614  24.723   9.302  0.3009  0.0476 -0.0874
    1W        W37216   8.593  25.439   0.370  0.0291 -0.1689  0.0250
    1W        W37217  25.110  20.236   7.543  0.0140  0.1644 -0.2808
    1W        W37218  25.107   3.600   1.937  0.0952 -0.0833  0.1399
    1W        W37219  13.506   4.105   2.290 -0.2380  0.0459  0.1218
    1W        W37220   2.136  17.447   0.311 -0.1133 -0.1053  0.3624
    1W        W37221  12.646  14.994   1.095  0.1809 -0.1812 -0.3108
    1W        W37222   4.119   4.642   2.156 -0.4644  0.4570  0.1081
    1W        W37223   9.339  11.115   1.816 -0.0194 -0.0496  0.0756
    1W        W37224   0.227  19.651   2.233 -0.1354  0.2909 -0.1826
    1W        W37225   8.711   5.570   1.633  0.2553 -0.0853  0.0126
    1W        W37226  28.369  21.468   9.649  0.0059  0.1247 -0.3262
    1W        W37227  11.936  14.485   9.623  0.0177 -0.0739 -0.3571
    1W        W37228  28.732  25.499   0.046 -0.1820 -0.2583  0.1264
    1W        W37229   8.777   6.768   9.919  0.0502 -0.0875 -0.0738
    1W        W37230   5.297   7.553   9.492 -0.2233  0.3208 -0.2509
    1W        W37231   9.502   5.652   0.515  0.2075  0.0225  0.1899
    1W        W37232  23.831  25.153   9.888  0.0360 -0.1117  0.2001
    1W        W37233  17.672   1.337   1.590 -0.0469  0.0288  0.0377
    1W        W37234   6.368  12.376   7.622  0.3588 -0.1740 -0.0321
    1W        W37235  10.336  25.493   2.105 -0.5026  0.1624 -0.0245
    1W        W37236   6.544  11.642   7.268  0.2615  0.1144 -0.1216
    1W        W37237  27.960  17.474   0.985 -0.0680 -0.1235 -0.0920
    1W        W37238   0.004   8.207   0.446  0.0809 -0.0664  0.1785
    1W        W37239  27.484   2.718   2.590  0.2019 -0.0110  0.1941
    1W        W37240  26.420  12.660   9.255  0.4402 -0.0560  0.1126
    1W        W37241  12.590  12.330   8.010 -0.1059  0.1482 -0.0283
    1W        W37242   1.501  18.138   2.973 -0.2590  0.1556  0.0264
    1W        W37243  20.802   3.199   7.492 -0.1904  0.2087 -0.4290
    1W        W37244  19.714  18.189   0.636  0.0658 -0.0562  0.0176
    1W        W37245   5.597  27.734   3.089  0.0426 -0.2656  0.1930
    1W        W37246   7.787   1.005   9.610 -0.1607 -0.0197  0.4732
    1W        W37247  24.190  24.045   8.864 -0.0849 -0.3933 -0.0535
    1W        W37248  27.756  17.374   2.385  0.3624 -0.0566  0.4559
    1W        W37249  23.901   5.417   1.106  0.2371  0.1035  0.0297
    1W        W37250  25.883  26.917   1.985  0.2925 -0.2184  0.1434
    1W        W37251   4.240  16.423   1.167  0.1172 -0.1547  0.0497
    1W        W37252  27.730  15.911   9.496 -0.0101 -0.3929  0.0177
    1W        W37253  19.429  19.790   5.988  0.0515 -0.1134 -0.0680
    1W        W37254   1.883  20.656   1.252 -0.4672  0.5021 -0.1829
    1W        W37255   8.532  22.744   0.144 -0.0706  0.1629  0.1527
    1W        W37256  10.821  15.712   7.636 -0.0271  0.1485 -0.0021
    1W        W37257  24.283  28.344   1.580  0.0981  0.0275 -0.3241
    1W        W37258  26.715   3.379   2.672 -0.0726 -0.2812  0.0088
    1W        W37259   9.198  24.665   3.576 -0.1338  0.0264 -0.2924
    1W        W37260  14.892  18.942   8.454 -0.0685 -0.2857  0.1676
    1W        W37261  15.768  22.903   8.645 -0.1600 -0.2289 -0.0970
    1W        W37262  11.557   8.782   8.764  0.2750 -0.1943  0.0308
    1W        W37263   9.263  14.672   8.937  0.4219  0.1282  0.1031
    1W        W37264   7.605   3.417   1.216 -0.1240  0.0105 -0.2641
    1W        W37265  14.651  11.288   5.471 -0.0113 -0.0087 -0.2363
    1W        W37266   4.545  11.915   8.134  0.1214  0.0008  0.0279
    1W        W37267   4.599  18.898   6.794  0.1472 -0.1111  0.4046
    1W        W37268   6.130  23.002   0.655 -0.1657 -0.4495  0.3597
    1W        W37269  11.799   6.471   7.492  0.0848  0.0275  0.2626
    1W        W37270  22.993  13.896   9.066  0.0821 -0.1561  0.0015
    1W        W37271  18.648   9.873   5.322  0.1278  0.3052  0.2247
    1W        W37272  15.402  15.799   1.309 -0.1267 -0.0524  0.0623
    1W        W37273   4.938  15.577   2.011 -0.3915  0.1214  0.0044
    1W        W37274  24.005  12.104   7.532 -0.0851 -0.1962 -0.0204
    1W        W37275  11.270  11.182   8.991  0.0407 -0.1853  0.1310
    1W        W37276  23.525  21.295   3.369 -0.0576  0.1451 -0.2815
    1W        W37277   6.984  14.914   5.895 -0.1333  0.2908 -0.0074
    1W        W37278   7.194  25.301   8.016  0.0225  0.1017 -0.0291
    1W        W37279   2.819   3.293   4.495 -0.3657  0.1729  0.0229
    1W        W37280  25.644   0.516   2.982  0.1158 -0.1180 -0.0047
    1W        W37281   3.508  20.682   9.733  0.1084 -0.0493  0.0703
    1W        W37282   2.711  28.208   2.782  0.1387  0.0945  0.2860
    1W        W37283  19.921   2.200   9.641  0.0514  0.0754 -0.1366
    1W        W37284   5.891   5.521   2.673  0.3733 -0.0221  0.0974
    1W        W37285  25.461  17.683   2.359  0.0832  0.0679  0.0671
    1W        W37286  28.727  12.224   3.246 -0.1391 -0.0595 -0.0899
    1W        W37287   6.820  22.717   3.103 -0.0743  0.2056 -0.0751
    1W        W37288  10.458  24.162   0.834 -0.1882 -0.1975  0.1241
    1W        W37289   0.796  23.804   3.072 -0.2888 -0.0530  0.0527
    1W        W37290  25.785  25.146   0.360 -0.1506 -0.1534 -0.0237
    1W        W37291  18.732  19.461   0.014  0.0333 -0.1621  0.0022
    1W        W37292  11.774  28.436   1.166  0.0318  0.2475 -0.2466
    1W        W37293   2.269  28.064   9.818 -0.1758  0.1059 -0.4020
    1W        W37294  22.407  25.604   7.516 -0.1510  0.2388  0.0734
    1W        W37295  20.671  21.964   7.768  0.0148 -0.2703  0.1813
    1W        W37296  22.473  13.207   6.320  0.2638 -0.3060 -0.1575
    1W        W37297  27.508   4.238   3.469 -0.1559 -0.1140  0.0405
    1W        W37298  21.817   7.691   7.289 -0.1147  0.1849 -0.0539
    1W        W37299  26.481  10.382   7.650  0.1469 -0.0683  0.0235
    1W        W37300   8.150  24.709   2.610 -0.2899  0.2525 -0.0863
    1W        W37301  18.481  13.363   1.354 -0.1108  0.0029  0.3157
    1W        W37302  15.045   9.177   9.492 -0.4057 -0.2673 -0.0042
    1W        W37303   0.986   8.865   9.944 -0.2731  0.1949 -0.0128
    1W        W37304  13.294  11.117   1.725 -0.0620 -0.0044 -0.1851
    1W        W37305   2.948   6.766   8.372  0.3239 -0.1423 -0.2164
    1W        W37306  22.185  27.825   2.362  0.1362 -0.2253 -0.0177
    1W        W37307   1.023   1.714   3.212 -0.0552  0.2017  0.1255
    1W        W37308  14.896   6.139   0.015  0.0902  0.0969  0.1652
    1W        W37309  25.232  22.851   9.537 -0.0332 -0.1833  0.1846
    1W        W37310   1.560  23.988   2.558 -0.3226  0.0693  0.4041
    1W        W37311  25.984  15.001   9.836  0.1152  0.0571  0.0453
    1W        W37312  10.789  20.491   9.207 -0.0214  0.1720  0.1236
    1W        W37313  15.850  19.741   2.436  0.1701 -0.0531  0.1235
    1W        W37314  25.874  14.925   2.972 -0.2224  0.2417  0.0090
    1W        W37315   1.004  26.708   3.314  0.0899  0.0328 -0.0980
    1W        W37316  10.928   0.050   0.997  0.0144 -0.1604 -0.0568
    1W        W37317  27.972  16.933   2.016 -0.2474  0.0961  0.0206
    1W        W37318   2.721  22.818   7.280 -0.0097  0.1060 -0.3684
    1W        W37319  26.941  10.604   8.769 -0.0831  0.1736 -0.1326
    1W        W37320  20.612  12.111   7.669 -0.1666 -0.0192  0.0057
    1W        W37321  26.255  19.142   9.483 -0.3863 -0.2466  0.3339
    1W        W37322   8.377  21.342   6.779 -0.0212  0.0865 -0.1223
    1W        W37323  19.033   9.516   8.289  0.4412 -0.0916 -0.2847
    1W        W37324   6.487  18.939   7.935 -0.3145  0.0355 -0.0531
    1W        W37325  16.377  22.715   3.074 -0.0514 -0.0589  0.3203
    1W        W37326   7.534  28.368   2.244 -0.3413 -0.0361  0.2874
    1W        W37327  18.481  13.673   9.249 -0.0474 -0.3654  0.2344
    1W        W37328   8.168  20.007   7.200  0.0218 -0.3340 -0.2514
    1W        W37329  23.047   0.525   1.162  0.3301  0.0767  0.0476
    1W        W37330   7.084  15.996   1.803  0.1534  0.0356 -0.5417
    1W        W37331  21.208  11.349   0.976 -0.4102 -0.1006 -0.0727
    1W        W37332  25.501  15.664   8.370  0.1001 -0.2111  0.2640
    1W        W37333   9.500  23.945   2.895  0.1862  0.0444 -0.1171
    1W        W37334  23.124  13.514   1.783  0.0784  0.1153  0.0670
    1W        W37335  28.229  22.066   8.219  0.2724 -0.1727  0.0672
    1W        W37336  21.396  26.274   9.155  0.0538 -0.0296  0.1935
    1W        W37337   6.144   7.377   9.501  0.0411  0.0786 -0.0375
    1W        W37338   9.385  10.993   0.736  0.1252 -0.1911  0.2313
    1W        W37339  15.952   4.166   0.597 -0.0729  0.1672  0.1326
    1W        W37340  24.530  14.674   2.875 -0.2639  0.0702 -0.0763
    1W        W37341  14.811  26.585   2.421 -0.2202  0.1224  0.1275
    1W        W37342  21.636   8.838   9.226 -0.1500  0.0834 -0.3349
    1W        W37343  15.015   7.531   8.169  0.0343  0.1258  0.0526
    1W        W37344   0.596   2.165  10.002  0.0253  0.3230  0.3453
    1W        W37345  11.446  14.881   2.069  0.4010 -0.2469  0.0390
    1W        W37346  19.186  17.993   7.629  0.2692  0.0356  0.2248
    1W        W37347  14.163  28.711   9.808  0.0005  0.1843  0.2057
    1W        W37348  15.500   1.127   8.487 -0.0227  0.2801 -0.3209
    1W        W37349  28.398  22.263   2.010 -0.1489  0.1295  0.2152
    1W        W37350  27.354  13.224   6.653 -0.2465 -0.2688 -0.0335
    1W        W37351   8.752  21.875   7.753  0.0768  0.2329  0.0013
    1W        W37352   8.724   9.093   1.667  0.0460  0.3045 -0.1819
    1W        W37353   6.858  16.719   2.983 -0.3028  0.0927 -0.0001
    1W        W37354  12.898  13.919   9.933 -0.0932 -0.0403  0.2461
    1W        W37355  15.130  25.631   8.384 -0.1000  0.1222 -0.2923
    1W        W37356  12.204  22.322   9.156 -0.1992 -0.0660 -0.2313
    1W        W37357  25.291  25.366   3.059 -0.2194  0.1039 -0.0361
    1W        W37358  26.874   7.360   9.474 -0.2272 -0.0360 -0.1856
    1W        W37359  17.429   6.114   9.494  0.1763  0.2013 -0.1692
    1W        W37360  21.801   6.794   8.408 -0.1563  0.0464 -0.1973
    1W        W37361   2.063  18.701   1.643  0.1058 -0.0442 -0.0137
    1W        W37362  19.543   7.014   7.738 -0.0125  0.0486  0.0662
    1W        W37363  19.605   1.112   9.256  0.0109 -0.3018  0.0751
    1W        W37364  21.772  19.189   1.671 -0.1415 -0.1675 -0.1255
    1W        W37365   5.126  12.346   1.914 -0.2452  0.0210 -0.0425
    1W        W37366   1.045  11.173   7.881 -0.2720 -0.1153  0.0729
    1W        W37367  17.118   2.527   9.529  0.2486 -0.1562  0.3619
    1W        W37368  16.165   9.402   8.896 -0.2247  0.1974 -0.3827
    1W        W37369  17.688   9.146   8.334  0.1016  0.0765  0.1395
    1W        W37370   2.363  27.016   8.770  0.0243 -0.1186  0.0808
    1W        W37371  27.722  17.570   0.161  0.3512  0.2001 -0.0200
    1W        W37372   1.334  23.184   8.663  0.1310  0.0823 -0.2969
    1W        W37373   9.275  18.202   7.768 -0.4435 -0.0810  0.2295
    1W        W37374   8.611  21.736   7.199 -0.3139  0.1081 -0.0763
    1W        W37375  26.356   4.625   0.472 -0.0325 -0.1982  0.2939
    1W        W37376  22.823  11.057   2.315  0.1314  0.2283  0.0369
    1W        W37377  21.437   4.726   9.977  0.1327  0.2727 -0.3058
    1W        W37378   5.713   7.398   9.773  0.0676  0.0091 -0.0693
    1W        W37379  26.812  26.245   3.041 -0.1686 -0.0130 -0.3022
    1W        W37380   7.229  20.844   1.368 -0.1294  0.0687 -0.0532
    1W        W37381  27.663  24.215   9.566 -0.1850 -0.3000 -0.0141
    1W        W37382  22.202   7.956   7.065  0.0163 -0.3575  0.2171
    1W        W37383   0.224   9.238   8.122  0.0646 -0.1685  0.0668
    1W        W37384  10.136   5.917   7.970 -0.2072  0.1639 -0.0998
    1W        W37385  23.534  15.460   1.080  0.0977  0.1755  0.0927
    1W        W37386  15.793  23.659   7.896 -0.1331 -0.3018  0.0743
    1W        W37387   2.394  12.498   0.728 -0.0608 -0.1210  0.0465
    1W        W37388   8.267  25.186   8.287 -0.2105  0.0381 -0.1067
    1W        W37389  13.645  13.803   7.954  0.5072 -0.5173 -0.2786
    1W        W37390  25.584  28.838   2.849  0.0071 -0.1048 -0.0646
    1W        W37391  14.673  27.483   8.022 -0.1084 -0.0669  0.1294
    1W        W37392  21.670   0.732   3.363 -0.1258  0.1452  0.0888
    1W        W37393   6.339  12.929   8.464  0.0246 -0.3606  0.0737
    1W        W37394   9.946   6.475   7.747  0.2399 -0.1199  0.2069
    1W        W37395   8.204  26.516   9.549  0.0393 -0.2785  0.0541
    1W        W37396  11.266   8.541   9.147 -0.0070  0.1555  0.0469
    1W        W37397  20.058  15.088   8.005  0.3649 -0.0935 -0.0948
    1W        W37398  28.385  23.354   9.154 -0.2391 -0.0165 -0.1468
    1W        W37399  21.027  12.202   1.091  0.1100 -0.0866  0.2967
    1W        W37400  28.369  27.196   0.477 -0.1735  0.1922  0.2943
    1W        W37401  28.338   4.335   2.538  0.1507 -0.3825  0.1592
    1W        W37402   0.172   6.365   3.464  0.4022  0.0873 -0.0528
    1W        W37403   0.446   5.305   9.506 -0.2279  0.1230 -0.2469
    1W        W37404  26.187  28.614   8.722  0.1083  0.0469 -0.2414
    1W        W37405   1.157   8.514   9.695 -0.0227 -0.0537  0.0806
    1W        W37406  25.787  21.383   2.728 -0.0105 -0.1102 -0.0790
    1W        W37407  22.853  25.464   9.047 -0.2964 -0.0118 -0.1293
    1W        W37408   4.884  11.089   9.932 -0.1493 -0.3019  0.1904
    1W        W37409   2.453  17.647   7.087 -0.2021 -0.2386  0.1652
    1W        W37410  27.822  19.974   8.138  0.2019 -0.0605  0.0179
    1W        W37411   1.750  25.895   2.729  0.1626 -0.0768 -0.0067
    1W        W37412  24.772  14.160   3.062  0.0053  0.0195 -0.1436
    1W        W37413  14.333  21.391   1.920  0.2837 -0.0068 -0.1371
    1W        W37414   9.350   8.347   1.614 -0.3041  0.0970 -0.0664
    1W        W37415  15.097  22.581   7.330 -0.0286  0.4029 -0.0816
    1W        W37416  11.245  15.494   8.663  0.0171  0.1768  0.0930
    1W        W37417  27.438   9.364   1.921  0.3314 -0.3546  0.1278
    1W        W37418   4.006  27.566   3.310 -0.0496  0.1589  0.1939
    1W        W37419  19.480  13.185   1.182 -0.0756 -0.0014 -0.1205
    1W        W37420  25.644   6.033   2.138 -0.1366 -0.2844 -0.2825
    1W        W37421   5.002  21.703   1.723  0.0682 -0.2073  0.1762
    1W        W37422  25.631  11.202   2.755  0.3390 -0.2246  0.0093
    1W        W37423   7.492  24.616   8.492 -0.1984 -0.2892 -0.0660
    1W        W37424  28.052  25.013   1.122  0.2640 -0.1397 -0.2032
    1W        W37425  20.537  23.976   1.614 -0.1449  0.1814  0.0068
    1W        W37426  11.448   9.056   7.156 -0.0410  0.0731 -0.3418
    1W        W37427  22.914  15.320   2.428 -0.5430 -0.0008 -0.0879
    1W        W37428  12.116  16.217   9.421 -0.1476 -0.1061 -0.0842
    1W        W37429  10.251   3.268   1.385 -0.2346 -0.1441 -0.0062
    1W        W37430   8.363  12.307   2.169  0.0372  0.1501  0.2151
    1W        W37431   0.074  18.933   3.459  0.0436  0.0641 -0.2976
    1W        W37432  13.578   6.634   8.949 -0.2442  0.1963  0.1075
    1W        W37433   3.853   1.657   9.947  0.0761  0.0641  0.2017
    1W        W37434   8.829   5.384   2.431 -0.2452 -0.1409  0.1864
    1W        W37435  14.791   1.944   9.854  0.0689  0.1082  0.2689
    1W        W37436  19.114   8.531   0.405  0.1420  0.1325 -0.0686
    1W        W37437  26.962  26.347   2.442  0.1639 -0.0259  0.1107
    1W        W37438  28.744   6.641   3.796 -0.1472  0.3746  0.0172
    1W        W37439  25.721  13.291   2.999 -0.0607  0.0776 -0.6787
    1W        W37440   9.569   6.998   8.453  0.3974  0.1936 -0.2020
    1W        W37441  10.225  11.647   1.651  0.0761  0.0783  0.0196
    1W        W37442  20.314  27.171   6.870 -0.0933 -0.3072 -0.1251
    1W        W37443  25.480  16.274   7.071 -0.0361  0.0177  0.0088
    1W        W37444   1.357  19.525   2.842 -0.1441  0.1259 -0.0937
    1W        W37445  26.576  10.134   1.181  0.1288 -0.1993 -0.1251
    1W        W37446   4.012  17.439   0.572  0.0409 -0.1138  0.2157
    1W        W37447  23.903   5.411   7.441  0.2076 -0.1193  0.1289
    1W        W37448   9.865   8.311   8.023 -0.1868 -0.1526 -0.1789
    1W        W37449   3.095   0.632   4.112 -0.0287  0.0574  0.1551
    1W        W37450  19.303  13.365   6.480  0.2451  0.1834 -0.0552
    1W        W37451  25.439  18.240   8.436 -0.0403  0.2829  0.1385
    1W        W37452  13.965  27.938   9.353  0.2248 -0.1947  0.2654
    1W        W37453  12.914  18.119   0.561 -0.1856 -0.0654  0.2656
    1W        W37454  11.003  17.431   7.190 -0.1218 -0.0296 -0.1447
    1W        W37455   5.749  14.248   0.265 -0.1917  0.1481 -0.1292
    1W        W37456  25.786   3.025   3.842  0.1960  0.0152  0.1684
    1W        W37457   7.726  23.113   8.263 -0.2094 -0.2462 -0.2219
    1W        W37458   4.896  24.146   2.395 -0.0537  0.0984 -0.2973
    1W        W37459  12.529  21.260   9.806 -0.0550  0.1782  0.1281
    1W        W37460   9.244  22.149   8.025  0.1004 -0.0748  0.0821
    1W        W37461  19.901  25.991   6.703 -0.1909  0.0839 -0.1284
    1W        W37462   0.040   9.277   2.667  0.1146 -0.0708  0.2749
    1W        W37463  10.661   3.489   7.065 -0.1964 -0.3989 -0.0964
    1W        W37464   1.805  24.629   9.394 -0.0530  0.2068  0.1864
    1W        W37465   2.753   0.358   0.386 -0.1143  0.4049  0.0090
    1W        W37466  14.845  20.459   6.076  0.1184  0.4301 -0.3477
    1W        W37467   8.880  14.983   7.522  0.0006  0.0459 -0.0516
    1W        W37468  27.980  12.214   3.945  0.1916  0.4104  0.0696
    1W        W37469  27.271   9.293   8.483 -0.1898 -0.0377 -0.2190
    1W        W37470  12.363   2.776   9.501  0.0747  0.0653  0.0453
    1W        W37471  27.072  18.195   9.979 -0.1017 -0.0820  0.2282
    1W        W37472   4.034  24.107   8.386  0.3789 -0.2408  0.1290
    1W        W37473   3.625  10.389   2.156  0.2316 -0.1595 -0.1976
    1W        W37474  28.215  10.689   0.587  0.1291 -0.0679 -0.0142
    1W        W37475  15.293   8.307   8.544  0.0581  0.0364 -0.3071
    1W        W37476   3.252  27.381   2.844 -0.1254  0.0169 -0.1075
    1W        W37477   0.536  28.046   2.685 -0.3265 -0.0779 -0.2308
    1W        W37478   9.109  25.632   8.533  0.2380  0.0430 -0.1690
    1W        W37479  22.032  14.148   9.037  0.1215 -0.0019  0.0639
    1W        W37480  19.139  16.009   7.969 -0.1254 -0.2225  0.1682
    1W        W37481   6.564  15.227   1.460  0.2736  0.2314  0.1065
    1W        W37482  17.428  21.544   3.097 -0.3174  0.4481  0.0025
    1W        W37483  26.569   5.810   7.862 -0.1875 -0.0756  0.1255
    1W        W37484  17.876   4.707   9.400 -0.0817  0.0926 -0.3775
    1W        W37485  25.384   9.018   8.119 -0.1413 -0.1661 -0.2251
    1W        W37486  25.965  13.164   7.094 -0.1250 -0.0671 -0.0427
    1W        W37487  21.169   9.123   6.984  0.0686 -0.5683  0.0663
    1W        W37488  15.990  27.671   8.078 -0.1179 -0.3893 -0.1761
    1W        W37489   5.171   0.625   0.450  0.1384 -0.2791  0.1143
    1W        W37490  10.337  24.618   2.652  0.4885 -0.1528 -0.2548
    1W        W37491  21.668  27.127   1.293 -0.1471 -0.2073 -0.0943
    1W        W37492  14.682  14.524   8.022  0.1298 -0.1906  0.0357
    1W        W37493  13.691   4.502   0.363 -0.1111  0.1480  0.0560
    1W        W37494   8.623   4.827   8.427  0.0592 -0.3841  0.0254
    1W        W37495   6.658  28.848   1.990  0.0847  0.0618 -0.0832
    1W        W37496   1.449  17.949   2.014  0.0311  0.0507  0.1792
    1W        W37497  26.390  20.165   9.325 -0.1137  0.0615 -0.1767
    1W        W37498  10.009   9.903   1.260 -0.2550 -0.2207 -0.3166
    1W        W37499  14.941  28.074   8.812 -0.1452 -0.1000  0.3595
    1W        W37500  18.825  16.515   5.611 -0.0573 -0.0533 -0.1696
    1W        W37501  24.244  18.077   1.758 -0.2165 -0.2124  0.2228
    1W        W37502  18.303   6.564   0.073  0.0735  0.2978 -0.1299
    1W        W37503  23.625  11.774   8.732  0.4661  0.1174 -0.2409
    1W        W37504   3.513  22.624   8.546  0.0175  0.1888  0.1382
    1W        W37505  15.703  12.650   6.709  0.0731  0.2754  0.1460
    1W        W37506  28.655  12.878   1.283 -0.0356 -0.2428  0.0926
    1W        W37507  25.745  14.960   7.708  0.1862  0.0468  0.2072
    1W        W37508  19.969  28.781   0.301  0.3352  0.0553 -0.1636
    1W        W37509  24.946  25.397   0.325  0.1531  0.0267  0.1961
    1W        W37510   8.923   9.603   7.257  0.3209 -0.0900 -0.0650
    1W        W37511   5.065  13.549   8.168 -0.0941  0.2575 -0.1459
    1W        W37512  11.434  21.021   2.236  0.0891  0.0448  0.2234
    1W        W37513   5.166  14.456   8.731  0.3845 -0.0533 -0.0254
    1W        W37514   5.870  25.575   2.292 -0.0879  0.0101 -0.0972
    1W        W37515  26.285  15.682   1.803 -0.0259 -0.1227  0.1677
    1W        W37516  26.072  13.760   1.483  0.4336 -0.1295 -0.1315
    1W        W37517  16.758  21.791   2.520 -0.1655  0.0974  0.1816
    1W        W37518  26.590  16.997   2.607  0.1350 -0.1249 -0.0389
    1W        W37519   3.140   4.233   3.461 -0.2536  0.0172 -0.0159
    1W        W37520  27.111   4.808   4.508  0.1410  0.1398  0.1755
    1W        W37521  27.827  18.485   2.349  0.2122 -0.2075 -0.1603
    1W        W37522  28.816  26.372   1.470  0.0051 -0.0775 -0.4034
    1W        W37523   1.867   4.991   1.675 -0.1895 -0.2238  0.5159
    1W        W37524  17.476  22.237   8.584 -0.2909  0.1976  0.0324
    1W        W37525  22.301   3.855   9.180 -0.0520  0.0693  0.0754
    1W        W37526  20.568   2.806   1.572 -0.0529 -0.1296 -0.1712
    1W        W37527   8.733  25.330   0.923 -0.1172  0.0228 -0.2074
    1W        W37528  23.859   4.019   1.499  0.0003 -0.0063  0.3583
    1W        W37529  25.415  19.084   9.874 -0.0841 -0.3358  0.0271
    1W        W37530  12.570   5.634   1.781 -0.0050  0.1365 -0.2138
    1W        W37531  26.481   1.942   9.282  0.0421 -0.1512  0.0286
    1W        W37532   5.924   5.177   0.023  0.3835 -0.1415 -0.1007
    1W        W37533  13.215  13.074   7.408 -0.2633 -0.0316 -0.2900
    1W        W37534  19.406   2.841   8.558  0.1189 -0.1290 -0.0071
    1W        W37535   2.798  27.379   1.578 -0.0677  0.1978 -0.1376
    1W        W37536   5.880  23.931   6.813 -0.1742 -0.0489 -0.0334
    1W        W37537  25.223   6.087   0.779  0.0700 -0.1167 -0.2006
    1W        W37538  18.036  20.720   0.866 -0.3557  0.2592  0.1094
    1W        W37539  11.677  24.822   9.067  0.2026 -0.0206  0.1846
    1W        W37540  14.446  27.762   9.268 -0.1639 -0.1082  0.1699
    1W        W37541   9.309  24.405   3.102  0.3006 -0.0201 -0.0501
    1W        W37542  14.994  27.989   6.963 -0.2171  0.2324  0.0189
    1W        W37543   6.772  15.981   9.698  0.1775 -0.2629 -0.2512
    1W        W37544  28.249   7.800   7.966  0.2400 -0.3286 -0.1566
    1W        W37545  26.489  27.138   8.585  0.1566  0.1710 -0.0807
    1W        W37546   3.626  13.491   2.210 -0.4485 -0.0311  0.3620
    1W        W37547  22.655  26.472   9.384  0.3483  0.3220 -0.0769
    1W        W37548  20.531  18.224   7.038  0.1087  0.2246 -0.3409
    1W        W37549   3.442   4.110   3.969  0.0608 -0.3605 -0.1855
    1W        W37550   8.350   1.445   7.814 -0.1696  0.1494 -0.2279
    1W        W37551  11.776   3.317   0.073 -0.1559 -0.3873  0.1969
    1W        W37552   2.688  10.184   9.669  0.2007 -0.0637 -0.4167
    1W        W37553   1.441  12.606   7.724  0.0453  0.0262  0.0403
    1W        W37554  11.411   4.211   0.115  0.2583  0.2814  0.0617
    1W        W37555  22.855  11.758   7.038 -0.0049  0.1344  0.1043
    1W        W37556  26.041  10.516   9.160  0.0074 -0.0076  0.1364
    1W        W37557  20.289  11.027   7.762  0.0717  0.0725  0.1130
    1W        W37558   1.039   2.077   8.547 -0.0301  0.2183  0.1522
    1W        W37559  27.386  28.013   8.604 -0.0634 -0.1589  0.0405
    1W        W37560   4.453   8.294   8.193 -0.0296 -0.1759  0.0759
    1W        W37561  27.615  23.456   8.552  0.0485 -0.1779 -0.0092
    1W        W37562  12.409  23.421   2.166  0.1295  0.0586  0.0576
    1W        W37563  21.132  20.778   1.810 -0.2954 -0.1698 -0.1022
    1W        W37564   4.006   1.060   1.603  0.0410 -0.0768  0.1734
    1W        W37565   3.662   2.088   9.759  0.1390 -0.4387  0.0254
    1W        W37566   6.106  23.466   8.407 -0.1533  0.0873 -0.0411
    1W        W37567  14.991   1.477   9.157 -0.0356 -0.2498  0.0844
    1W        W37568  25.184  12.500   6.328  0.0205 -0.1065 -0.3043
    1W        W37569  17.870  18.596   0.303  0.1206  0.1098 -0.0152
    1W        W37570   8.307   4.129   9.428 -0.2784 -0.2385 -0.2958
    1W        W37571   9.983  20.653   6.688  0.1214  0.4688 -0.3780
    1W        W37572  20.997   3.342   6.579  0.3350  0.0027  0.3123
    1W        W37573  11.614   9.706   1.305 -0.1800  0.0868 -0.0404
    1W        W37574  26.297  15.924   3.383 -0.0386  0.0138  0.0397
    1W        W37575  14.163  18.562   7.841  0.1406  0.0825 -0.1578
    1W        W37576  20.295   2.259   1.810  0.0782 -0.1272  0.1027
    1W        W37577  14.585  24.109   7.780 -0.4279 -0.0641  0.2735
    1W        W37578  26.406  22.020   9.639 -0.1530  0.1472 -0.0657
    1W        W37579  10.833   9.199   6.443  0.3670  0.1649  0.0877
    1W        W37580   3.498  22.822   9.014  0.0197  0.0951 -0.0889
    1W        W37581   2.840  22.130   9.727  0.1966 -0.0054 -0.1650
    1W        W37582  13.843   9.590   2.154  0.0859  0.1624  0.1961
    1W        W37583  28.494   2.832   9.603  0.0844 -0.1015  0.3199
    1W        W37584   6.985  11.358   8.183 -0.0770  0.0217 -0.1380
    1W        W37585  17.887  26.680   0.190 -0.2180  0.1440 -0.0347
    1W        W37586  10.832  23.948   7.869  0.2358 -0.1852 -0.0267
    1W        W37587   5.983   7.468   2.628 -0.0704  0.0152 -0.0733
    1W        W37588  17.214  15.116   0.100 -0.0345  0.5090  0.1390
    1W        W37589   9.531  27.865   7.968  0.0979  0.0127 -0.0286
    1W        W37590   3.643   0.501   0.465 -0.1401 -0.1108  0.2795
    1W        W37591   7.809  22.222   6.737  0.2273 -0.2309 -0.4698
    1W        W37592  18.835   7.110   8.669 -0.0457  0.2368  0.2118
    1W        W37593   9.761   3.885   2.140 -0.0824 -0.0304 -0.3031
    1W        W37594  17.944  24.558   0.441  0.0980 -0.0347 -0.2595
    1W        W37595  23.242  20.132   7.411 -0.0781  0.0672 -0.0716
    1W        W37596  24.385   7.158   0.631 -0.0239 -0.3938 -0.2737
    1W        W37597  14.415   0.781   2.069  0.4360 -0.0827 -0.0673
    1W        W37598  25.248  17.763   1.364 -0.1478  0.0619  0.0377
    1W        W37599   8.591  10.325   6.511  0.2415  0.1920  0.2224
    1W        W37600  21.376  15.883   2.100 -0.1372  0.0321 -0.0987
    1W        W37601  14.742  11.654   6.835  0.0174  0.1790 -0.2216
    1W        W37602   4.607   7.030   1.753 -0.0852  0.1944 -0.0950
    1W        W37603   1.258  11.636   2.571 -0.0322  0.0494 -0.0419
    1W        W37604  19.092  22.282   1.524 -0.0982  0.0633 -0.3212
    1W        W37605  26.461   1.474   9.252  0.2191 -0.1749  0.1546
    1W        W37606   3.777   4.549   2.589 -0.1967 -0.0281  0.0607
    1W        W37607  27.997  21.221   9.291 -0.1446 -0.0498  0.1713
    1W        W37608  23.433  14.694   2.871  0.1280  0.4123  0.2225
    1W        W37609   0.659   2.220   1.046  0.0508 -0.2186  0.2420
    1W        W37610   0.952  28.383   2.538  0.1053 -0.0779 -0.1415
    1W        W37611   2.524   6.603   1.606  0.0632 -0.2314  0.0758
    1W        W37612  23.493  21.308   7.167 -0.0452  0.1134 -0.1923
    1W        W37613  10.371  28.057   0.879 -0.1529 -0.1055  0.1458
    1W        W37614   7.968  19.629   6.669 -0.0982  0.3565  0.2460
    1W        W37615  27.508  12.091   0.223 -0.0103  0.1029 -0.3588
    1W        W37616   0.122  12.698   2.075  0.2718  0.0822 -0.1060
    1W        W37617  12.448  27.116   9.182 -0.0117  0.2719 -0.2265
    1W        W37618   9.508   6.196   1.638  0.0745 -0.0750 -0.0320
    1W        W37619   1.229  11.497   1.547  0.4207 -0.0433  0.0949
    1W        W37620  11.097   5.943   8.338  0.0998 -0.2785 -0.1263
    1W        W37621   9.306  14.088   7.565 -0.0354  0.1189 -0.0031
    1W        W37622  16.440  21.947   0.576 -0.3048 -0.0677  0.2645
    1W        W37623  10.888  19.460   7.758  0.3274 -0.1891 -0.0679
    1W        W37624  12.642  20.842   1.930 -0.0693  0.1761  0.1079
    1W        W37625   8.243  11.509   9.145  0.1501  0.0312 -0.1317
    1W        W37626  20.398  12.309   6.882  0.0334  0.1012 -0.0006
    1W        W37627  17.119   4.917   6.366 -0.0331 -0.1539 -0.1082
    1W        W37628   2.594  22.004   3.437  0.1793 -0.2982  0.2289
    1W        W37629   8.830  25.849   0.159  0.0443 -0.2281 -0.2175
    1W        W37630  25.183  20.109   2.487 -0.0640  0.0183 -0.0920
    1W        W37631  21.186  17.970   7.891  0.2090  0.0014  0.4203
    1W        W37632  23.288  14.625   6.957 -0.1159 -0.0221  0.3720
    1W        W37633  14.957   0.408   9.631  0.0320 -0.1940  0.4693
    1W        W37634  27.542  14.159   1.874 -0.0714  0.3787 -0.2888
    1W        W37635  22.281   9.156   1.506  0.0983  0.0498 -0.0983
    1W        W37636  12.734   5.979   7.434  0.0623 -0.3456  0.0835
    1W        W37637  28.655  28.649   9.000 -0.1995  0.0904 -0.0432
    1W        W37638   9.193  10.488   2.061  0.1727  0.0603 -0.1980
    1W        W37639   7.216  21.000   8.689  0.0191  0.0511  0.0591
    1W        W37640  14.645  17.649   7.966 -0.1362 -0.0656  0.0495
    1W        W37641   6.272   4.537   8.071 -0.0904 -0.1243 -0.0247
    1W        W37642  16.225  10.866   7.931 -0.0203  0.0374 -0.0765
    1W        W37643  25.434   4.823   0.360  0.2632  0.0770 -0.0899
    1W        W37644  20.760  12.273   7.210 -0.2451  0.2037 -0.1841
    1W        W37645   0.087  14.460   7.986 -0.0224 -0.0872  0.0760
    1W        W37646   4.272  22.956   7.258 -0.0750  0.0005  0.2611
    1W        W37647  20.323   5.042   7.569  0.2326 -0.0607  0.1454
    1W        W37648   1.060   9.424   9.042  0.1388 -0.0529 -0.0747
    1W        W37649   5.863  23.302   3.762 -0.1096  0.0544 -0.1448
    1W        W37650   1.051   0.583   1.062  0.0747 -0.2433  0.1300
    1W        W37651   1.001  15.288   7.836 -0.0090 -0.0311 -0.0815
    1W        W37652  20.574  25.569   7.755 -0.1253 -0.2000  0.0347
    1W        W37653   1.858  19.191   9.789  0.0371 -0.2085 -0.2666
    1W        W37654  15.834   4.348   7.791  0.1260  0.1750 -0.0037
    1W        W37655  17.533  28.094   0.315  0.2470  0.0463 -0.0863
    1W        W37656  16.780  10.895   6.115  0.0758  0.0040  0.1807
    1W        W37657  25.359  28.091   0.852  0.0095 -0.2487  0.1353
    1W        W37658  22.120  28.737   2.479 -0.0454  0.2070 -0.1839
    1W        W37659   8.848  16.853   7.292  0.1540  0.0845 -0.4447
    1W        W37660   8.692  14.945   1.044 -0.0604 -0.3281 -0.3201
    1W        W37661  16.544  28.116   8.160  0.0445 -0.1332  0.2489
    1W        W37662  20.551  15.879   8.151  0.0442  0.0734  0.0990
    1W        W37663  11.030   0.755   9.797 -0.3577  0.0513  0.2801
    1W        W37664  25.432  24.333   1.299 -0.1894  0.1764 -0.1172
    1W        W37665  14.174  16.661   2.081  0.0861 -0.2292 -0.2075
    1W        W37666  22.901  25.364   8.276 -0.3787 -0.0525  0.1114
    1W        W37667  24.971  20.676   8.310 -0.0864 -0.2665  0.1255
    1W        W37668   8.454   4.398   8.414  0.0553 -0.0669  0.0066
    1W        W37669  21.839  11.255   7.455 -0.0806  0.1814 -0.2276
    1W        W37670  25.999  25.318   9.983 -0.1917 -0.0634  0.0386
    1W        W37671   9.623  16.702   2.453  0.1726  0.2071 -0.2736
    1W        W37672  27.954   3.907   3.418 -0.0418  0.2169 -0.3268
    1W        W37673   6.883  19.735   2.476 -0.0694  0.0820 -0.2405
    1W        W37674   9.451  18.093   0.269  0.0580  0.5067  0.1577
    1W        W37675  27.118  19.092   2.515 -0.0772  0.1408  0.0601
    1W        W37676   2.277  15.038   9.276 -0.0699 -0.3614 -0.1634
    1W        W37677  25.957  21.784   3.674  0.3274 -0.0476  0.1425
    1W        W37678  24.661  22.144   3.072 -0.1463  0.2568  0.0237
    1W        W37679  15.915  17.347   6.686 -0.1305 -0.0107 -0.0419
    1W        W37680  11.308  27.447   9.678 -0.1208 -0.1646 -0.1014
    1W        W37681   5.374   1.122   9.101 -0.0836  0.0637  0.2732
    1W        W37682  22.260  15.523   8.334 -0.1767 -0.3548  0.0756
    1W        W37683  21.419  18.167   9.179 -0.0931 -0.0750  0.0637
    1W        W37684  16.312   2.706   0.178  0.1764  0.2970  0.4656
    1W        W37685  16.490  12.291   2.068 -0.4157 -0.0946 -0.6307
    1W        W37686  10.963  17.933   7.188 -0.0529  0.0284 -0.1146
    1W        W37687   2.367  25.983   2.068  0.2619 -0.0240 -0.3463
    1W        W37688  21.258   9.588   8.355  0.0639 -0.1600  0.2225
    1W        W37689  22.205  20.757   7.086 -0.4790 -0.4186  0.1010
    1W        W37690  27.540  18.870   3.141  0.0842  0.0034  0.2542
    1W        W37691  13.165  18.301   2.581  0.1303 -0.1353  0.0410
    1W        W37692  20.373  13.170   8.290  0.0226  0.0104  0.0605
    1W        W37693  26.349   5.926   0.294  0.0006 -0.4497 -0.0241
    1W        W37694   3.407   1.116   3.301  0.0519  0.0186 -0.2713
    1W        W37695  21.444  12.378   9.368 -0.0517  0.1185 -0.0184
    1W        W37696  14.713  10.857   9.050 -0.0308 -0.2611  0.0254
    1W        W37697  27.898  20.090   7.632  0.1318 -0.1686  0.0667
    1W        W37698  26.501   7.625   9.211 -0.0537 -0.2536 -0.0810
    1W        W37699  24.070  27.693   7.999  0.1347 -0.0068 -0.2226
    1W        W37700   8.356  23.800   8.334 -0.0261  0.0002 -0.0088
    1W        W37701  22.781   8.839   8.193  0.1003 -0.1930  0.0723
    1W        W37702   3.669  27.613   1.217  0.0694  0.0755  0.2605
    1W        W37703  12.299  20.345   1.509 -0.0119  0.0477 -0.1980
    1W        W37704   4.359  14.897   0.177 -0.1565 -0.1796 -0.0519
    1W        W37705  26.007  20.243   0.551 -0.2338 -0.0957  0.0043
    1W        W37706  20.537  13.219   2.113  0.2023  0.0926 -0.0480
    1W        W37707  19.417   4.095   1.836 -0.2172  0.0447 -0.1157
    1W        W37708   2.292   2.557   3.999 -0.2357  0.1473  0.4775
    1W        W37709   1.712  25.283   1.918  0.2399 -0.0153  0.0630
    1W        W37710   1.562  17.105   9.226 -0.0629 -0.1523  0.0085
    1W        W37711  18.584  19.913   6.203  0.3804  0.3728 -0.0972
    1W        W37712  20.546  25.618   2.118  0.0049 -0.0563 -0.1433
    1W        W37713  24.952   6.244   7.536 -0.0326  0.1555 -0.1661
    1W        W37714  26.822   8.468   3.503  0.0238 -0.0508 -0.3695
    1W        W37715  18.049   6.718   9.674 -0.1024 -0.2804  0.0908
    1W        W37716  26.392  24.491   2.646  0.2883  0.0199  0.1253
    1W        W37717   3.079   8.141   0.270 -0.0830  0.2602  0.4251
    1W        W37718   1.168  24.100   1.654  0.2600 -0.2242  0.0059
    1W        W37719   9.034   6.032   8.040 -0.2408  0.3717  0.1093
    1W        W37720  13.162  11.703   0.488  0.3026 -0.0557 -0.0831
    1W        W37721   0.171  12.279   1.812  0.1512  0.0051  0.0370
    1W        W37722   3.416  20.356   6.963 -0.4163  0.0977  0.3955
    1W        W37723   6.045   7.919   8.726 -0.1663 -0.2065  0.1574
    1W        W37724  25.932  20.428   2.404  0.0772 -0.4345 -0.0504
    1W        W37725   2.664   9.903   0.457  0.3009  0.1332 -0.0286
    1W        W37726  20.407  14.191   8.376 -0.2191  0.0859 -0.0477
    1W        W37727  15.759   3.369   0.388 -0.0418  0.0065  0.0654
    1W        W37728  26.829  25.293   8.474 -0.0985  0.1365 -0.0543
    1W        W37729  22.604  21.406   7.625 -0.2513  0.0335 -0.1051
    1W        W37730  11.942  17.919   2.217  0.0227 -0.3779  0.2825
    1W        W37731  16.805  10.610   6.599 -0.1735  0.0692 -0.5573
    1W        W37732  27.694  21.392   7.772  0.1836 -0.1524  0.0001
    1W        W37733  24.218  28.799   9.168  0.1596 -0.0800 -0.0055
    1W        W37734  17.410  17.817   8.449  0.2049  0.0280 -0.0255
    1W        W37735  25.702  18.379   3.522  0.0666 -0.2752 -0.1798
    1W        W37736  22.281  23.160   1.884 -0.1631  0.2515 -0.0826
    1W        W37737  12.505  18.411   0.446 -0.0047  0.0252  0.1238
    1W        W37738  14.405   0.047   6.707 -0.0711  0.7893  0.0949
    1W        W37739  13.904  10.594   9.089 -0.1334 -0.0910  0.0215
    1W        W37740  16.619   9.616   6.343  0.1155 -0.3180 -0.0089
    1W        W37741  28.444  21.522   1.396  0.3462  0.0422 -0.1602
    1W        W37742  26.270  17.922   0.821  0.0292  0.1483 -0.1632
    1W        W37743  17.778   4.172   0.297  0.0747  0.1139  0.2059
    1W        W37744  11.096  20.860   4.029  0.0937 -0.0633  0.1715
    1W        W37745  16.215   6.681   5.865  0.0384 -0.0592 -0.1947
    1W        W37746   7.176   1.431   8.521  0.2003  0.0032  0.0331
    1W        W37747   2.055  24.100   2.371  0.0825  0.1740  0.1539
    1W        W37748  16.257  18.270   1.325 -0.0306  0.0884 -0.3224
    1W        W37749   3.969  27.240   7.643 -0.0192  0.1820  0.0847
    1W        W37750  25.067  28.253   2.872 -0.0219 -0.1102  0.0358
    1W        W37751  21.549   2.134   2.342  0.0865 -0.4600 -0.4196
    1W        W37752   9.493  15.998   9.105 -0.0811  0.0745  0.0708
    1W        W37753   9.517   9.848   8.658  0.0072  0.2020 -0.1481
    1W        W37754  21.274  21.080   2.836 -0.2315  0.0275 -0.1015
    1W        W37755  27.631  23.393   9.789 -0.0507 -0.3013 -0.2141
    1W        W37756  27.440  23.186   8.890 -0.1248  0.2673 -0.0110
    1W        W37757   3.043   3.825   3.717 -0.1115  0.3864 -0.1888
    1W        W37758  22.869   6.047   9.476 -0.0793 -0.0307  0.0846
    1W        W37759  15.446  22.353   2.446 -0.1419  0.0699 -0.0079
    1W        W37760  17.865   3.412   7.576 -0.1561 -0.3773 -0.1386
    1W        W37761  16.004  11.118   1.502 -0.0382  0.2114  0.1356
    1W        W37762  17.783  16.609   1.575  0.0453 -0.0241  0.1947
    1W        W37763  12.454   4.769   7.022 -0.2154  0.1161  0.1686
    1W        W37764  12.511   5.603   6.690  0.1875  0.0370 -0.2516
    1W        W37765  15.278   8.960   0.220 -0.3610  0.1180 -0.0249
    1W        W37766  25.685  28.305   0.227  0.0825 -0.2818  0.1164
    1W        W37767   5.322   1.640   9.006 -0.0983  0.2041 -0.2612
    1W        W37768   1.834   2.126   9.217  0.0404  0.2162 -0.1953
    1W        W37769  23.185   9.256   9.916  0.0091  0.2936 -0.3621
    1W        W37770  14.915   3.155   2.258  0.0975 -0.4475 -0.2354
    1W        W37771  19.487  18.191   8.372  0.1483 -0.1754  0.0559
    1W        W37772   9.099   6.912   2.339  0.1917  0.1259 -0.0893
    1W        W37773  20.844  18.165   2.284  0.0981 -0.0967 -0.1107
    1W        W37774  28.555  24.162   8.701 -0.0179  0.2580  0.1725
    1W        W37775  14.601  22.677   6.968  0.0175  0.0773  0.0933
    1W        W37776  24.512  28.584   0.724  0.2036  0.1611  0.2006
    1W        W37777  10.661  13.502   7.889  0.0511  0.3160 -0.0332
    1W        W37778  13.552  19.900   7.528  0.1077  0.0789 -0.1106
    1W        W37779   5.028   6.169   0.543  0.0810  0.0721 -0.0768
    1W        W37780  10.272  20.615   9.211 -0.1581 -0.2539  0.0110
    1W        W37781  26.410   3.176   9.330 -0.2641 -0.2406  0.0303
    1W        W37782  14.277  25.243   1.262 -0.0284 -0.1737 -0.1535
    1W        W37783  27.575  10.071   8.253 -0.0824  0.3043  0.1113
    1W        W37784  15.527   4.729   9.531  0.3857  0.0292 -0.1810
    1W        W37785  24.011   6.790   0.883 -0.0154 -0.2990  0.0450
    1W        W37786  13.243   0.056   2.167  0.2412  0.0541  0.0493
    1W        W37787  11.377  16.121   7.845  0.0201  0.1410  0.0458
    1W        W37788  20.520   8.482   2.448 -0.1865  0.1034  0.1016
    1W        W37789  20.905  24.266   7.855  0.3229 -0.0143  0.2400
    1W        W37790  14.359  10.849   8.711 -0.2029 -0.1384  0.4510
    1W        W37791   9.617  23.841   8.738  0.0390  0.0284  0.0995
    1W        W37792   9.032  16.086   7.582 -0.1671  0.0090 -0.2266
    1W        W37793  12.084  21.709   2.400  0.1335 -0.0685  0.0245
    1W        W37794  14.828  27.384   7.420  0.1404  0.1147 -0.1203
    1W        W37795   5.231  18.886   3.750  0.2452 -0.2158 -0.0847
    1W        W37796  12.269  27.844   8.422 -0.0164 -0.3514  0.1075
    1W        W37797  18.274  19.062   1.563 -0.2077 -0.0806  0.0283
    1W        W37798  12.267  24.021   7.338 -0.3071  0.1395 -0.2945
    1W        W37799  28.371  18.295   9.899 -0.0019 -0.1348 -0.0262
    1W        W37800  23.785   0.606   7.907 -0.1789  0.1215  0.0848
    1W        W37801  26.899  18.295   2.686  0.4464  0.0230 -0.3142
    1W        W37802  17.098  21.574   1.244  0.0384  0.0830  0.1032
    1W        W37803  26.897  24.775   1.303  0.0218 -0.1045 -0.0785
    1W        W37804  11.786   3.981   9.570  0.1857 -0.2641  0.1057
    1W        W37805  27.581  10.094   2.648  0.0361 -0.0821  0.0192
    1W        W37806  28.640  12.166   2.035  0.4244 -0.0972  0.0565
    1W        W37807   2.703  17.233   0.122  0.1088 -0.0092  0.0516
    1W        W37808  28.466  23.160   4.112  0.1404 -0.0966 -0.2888
    1W        W37809  13.935   1.336   8.687 -0.2170  0.2116  0.2315
    1W        W37810  17.140  11.596   1.562  0.0702 -0.1243 -0.0569
    1W        W37811   1.471  10.533   2.355 -0.0886 -0.1606  0.3191
    1W        W37812  15.544   1.536   9.634  0.0322  0.3051 -0.0178
    1W        W37813  10.486   5.145   0.749  0.1367 -0.0556  0.0038
    1W        W37814  18.158   0.042   0.636  0.0630 -0.0690 -0.1951
    1W        W37815  25.690  16.041   7.452  0.0369 -0.0979 -0.0211
    1W        W37816   6.068  27.526   3.207 -0.1399  0.3559 -0.2124
    1W        W37817  15.782  16.185   7.860 -0.5094  0.1223  0.2019
    1W        W37818  14.073   3.857   9.085 -0.0957  0.1513  0.0496
    1W        W37819   3.480  16.994   7.586  0.1730  0.2478  0.2380
    1W        W37820  17.722  18.277   8.773 -0.0841  0.0577  0.2111
    1W        W37821  22.199   2.475   1.881 -0.2979 -0.1318  0.2478
    1W        W37822  24.412  23.611   0.665  0.3634 -0.0520  0.3170
    1W        W37823   2.872  12.943   8.507 -0.3862 -0.1184 -0.3080
    1W        W37824   3.539  10.925   8.122 -0.0309 -0.1251  0.0403
    1W        W37825  20.846  19.630   0.889 -0.3851  0.1158  0.0357
    1W        W37826   5.172  13.964   8.611  0.0439  0.2234  0.4736
    1W        W37827   4.589  20.247   2.918 -0.3771  0.0965 -0.0489
    1W        W37828  16.619  12.456   8.109  0.3287  0.1176 -0.3528
    1W        W37829   4.687  13.266   2.319  0.1069 -0.0892 -0.1597
    1W        W37830   3.183   6.643   0.079  0.1919  0.1617 -0.0261
    1W        W37831  14.127  20.709   0.687 -0.1322 -0.0247  0.1739
    1W        W37832  27.817   3.750   1.856 -0.1717  0.0552 -0.0490
    1W        W37833  15.712   3.383   1.876  0.0681 -0.1954 -0.3035
    1W        W37834   7.157  26.632   0.718 -0.1657 -0.0448 -0.4719
    1W        W37835  17.720   9.361   8.756  0.0242 -0.1613 -0.0001
    1W        W37836   1.674   7.822   8.332 -0.0774 -0.2510  0.1634
    1W        W37837   6.294   3.239   8.206  0.3086 -0.2540  0.1034
    1W        W37838   6.143  19.931   8.619 -0.0991  0.0405  0.1280
    1W        W37839  26.042  12.151   0.942 -0.1663  0.1861 -0.1791
    1W        W37840   2.937  24.053   9.551 -0.0274 -0.0662 -0.3228
    1W        W37841  27.222  14.722   8.553 -0.0633  0.0409  0.3688
    1W        W37842  14.115   1.734   7.250  0.2139  0.0837 -0.0117
    1W        W37843  15.258   6.769   0.491 -0.3774 -0.2582 -0.1884
    1W        W37844  15.104   7.397   9.149  0.0879 -0.0958 -0.1178
    1W        W37845  25.368  10.146   9.888  0.2165  0.0287 -0.0641
    1W        W37846  18.732  25.270   1.855  0.2864  0.0414 -0.1381
    1W        W37847  18.176  15.895   1.187  0.1050  0.2314 -0.0425
    1W        W37848  25.874  19.704   2.912  0.0550 -0.1619  0.0535
    1W        W37849   8.359  24.233   2.298 -0.2234 -0.4377  0.2297
    1W        W37850  25.474  16.453   0.880  0.0624  0.0210 -0.0511
    1W        W37851  11.826   2.534   6.927  0.0872  0.0198 -0.1612
    1W        W37852  12.335  23.336   2.650 -0.0011  0.2287  0.1742
    1W        W37853  12.214  22.355   1.457 -0.0361  0.2239  0.1535
    1W        W37854   1.668   2.298   1.078  0.2273  0.0032  0.1146
    1W        W37855  26.888  22.240   9.433  0.0763  0.2661 -0.3740
    1W        W37856  20.544  19.938   8.654 -0.0323  0.2821 -0.0208
    1W        W37857  11.260  24.301   2.459 -0.1279 -0.0165  0.0015
    1W        W37858  13.223  12.319   1.487  0.1221  0.0925 -0.1923
    1W        W37859   4.084   5.717   2.075 -0.0521  0.1266  0.1975
    1W        W37860  17.524  27.055   0.345 -0.0899  0.1635  0.0087
    1W        W37861  26.651  15.760   9.366 -0.1261 -0.0996  0.0528
    1W        W37862  19.576  15.706   7.662 -0.1275 -0.1888  0.2151
    1W        W37863  12.165  15.700   9.252  0.1391  0.2244 -0.2648
    1W        W37864   5.118   6.745   9.230  0.0840  0.4882 -0.1398
    1W        W37865  25.814  23.694   2.183 -0.0749 -0.1338 -0.0859
    1W        W37866   6.162  11.465   9.350  0.0093 -0.0326  0.0104
    1W        W37867  25.516   1.564   0.616 -0.0628 -0.1895  0.2778
    1W        W37868   6.508   4.931   2.439  0.2063 -0.0220 -0.0966
    1W        W37869  20.030  25.704   2.670 -0.0762  0.0914 -0.0183
    1W        W37870  15.200   3.504   0.615 -0.0439  0.1842  0.1107
    1W        W37871  12.834   5.413   9.157 -0.1626  0.3798 -0.0440
    1W        W37872  16.934  13.539   2.091  0.3434  0.1299 -0.0012
    1W        W37873   0.070  24.232   3.493  0.2100  0.1167 -0.0889
    1W        W37874   0.964  28.300   7.873  0.0485  0.0095  0.1178
    1W        W37875  19.548  26.110   0.703  0.0046 -0.0091  0.1530
    1W        W37876  20.798   8.622   8.936  0.0589  0.1035  0.0207
    1W        W37877  13.017   3.486   6.543  0.0928  0.1348  0.2539
    1W        W37878  24.509   3.554   7.980 -0.0857 -0.0882  0.2189
    1W        W37879  11.606  18.827   9.283  0.0881  0.0220  0.1967
    1W        W37880   2.231  17.812   8.171  0.0649 -0.1967  0.0627
    1W        W37881  12.616  24.589   1.224 -0.0745 -0.1663 -0.1428
    1W        W37882   3.543  14.284   3.059  0.0803 -0.0956  0.0273
    1W        W37883  17.024  17.387   7.499 -0.0916  0.1134 -0.5564
    1W        W37884  12.651  16.422   9.660  0.2481  0.0611 -0.0434
    1W        W37885   5.599  25.703   2.713  0.2436 -0.3065  0.1877
    1W        W37886   6.672  26.500   1.631  0.0024 -0.2038 -0.0400
    1W        W37887  18.492  21.187   7.660  0.1007 -0.0599  0.0462
    1W        W37888  20.545   3.127   1.941 -0.0390 -0.1325  0.1435
    1W        W37889   1.856  24.487   1.075 -0.0447  0.0056 -0.0765
    1W        W37890  14.698  28.294   0.329 -0.0561  0.1254 -0.1490
    1W        W37891   3.273  13.516   3.410 -0.1426  0.0714 -0.0179
    1W        W37892  15.927   6.756   6.625 -0.0795 -0.3320  0.4349
    1W        W37893   8.152  26.497   2.364  0.0138 -0.0825 -0.2295
    1W        W37894  18.092  27.203   9.163  0.0430  0.0403  0.1702
    1W        W37895  20.771  24.489   2.702  0.0066  0.1383 -0.0179
    1W        W37896   1.475  21.957   1.402 -0.0992  0.3261  0.2943
    1W        W37897  24.482  15.451   1.427 -0.1869 -0.2274 -0.0290
    1W        W37898  26.405  16.875   0.289 -0.1274 -0.5839  0.0038
    1W        W37899  27.049   8.575   8.611 -0.2512  0.0612 -0.0800
    1W        W37900  14.250  20.587   9.723 -0.0680  0.0206 -0.0258
    1W        W37901  26.869  22.748   8.012 -0.0032 -0.2220 -0.1793
    1W        W37902  10.468  14.131   2.008 -0.2889 -0.0866  0.1308
    1W        W37903   7.488   2.828   7.763  0.5027 -0.2492 -0.2107
    1W        W37904  11.548  10.263   0.132 -0.1267 -0.2455 -0.0717
    1W        W37905   0.218   5.077   8.528 -0.1730  0.1591  0.1674
    1W        W37906  11.003  24.402   7.067 -0.0054  0.0458 -0.0074
    1W        W37907  25.260  22.768   0.042  0.0431  0.0583 -0.1977
    1W        W37908  12.609  20.433   8.175 -0.0236  0.1418  0.0401
    1W        W37909  27.649  13.195   0.607 -0.0909 -0.1005 -0.1744
    1W        W37910   8.066  11.233   1.176  0.0608  0.0723  0.1585
    1W        W37911   9.192  14.997   0.826  0.3848 -0.2412 -0.0073
    1W        W37912   7.817  15.626   8.206  0.2293 -0.2202  0.1581
    1W        W37913  21.332  17.547   7.617 -0.1197 -0.0655  0.1711
    1W        W37914  17.157  27.016   1.188  0.1483 -0.1080 -0.2674
    1W        W37915   5.576  12.364   0.895  0.1884  0.1016 -0.0181
    1W        W37916  25.917   7.421   0.599 -0.0776 -0.0670 -0.1940
    1W        W37917   6.887   0.919   0.306  0.1573  0.0649  0.0760
    1W        W37918   4.093  10.547   2.154  0.0906  0.1489 -0.0301
    1W        W37919  27.719  15.180   7.873 -0.1134  0.0863  0.0839
    1W        W37920  18.222   2.931   9.767 -0.0199  0.0499  0.2981
    1W        W37921  20.639  19.849   0.387  0.4853 -0.0475 -0.0441
    1W        W37922   4.511   7.654   0.867 -0.3804 -0.0263 -0.3132
    1W        W37923  16.903  27.769   7.287 -0.4886 -0.2843 -0.0393
    1W        W37924  20.841  22.053   0.098  0.0970 -0.1625 -0.2618
    1W        W37925  15.540   5.896   7.102 -0.0084  0.1786  0.1377
    1W        W37926  17.874  13.236   8.705  0.0301  0.0505  0.1194
    1W        W37927  27.936  14.791   7.550  0.0688 -0.0710 -0.1171
    1W        W37928   9.761  15.435   5.966 -0.1243  0.0788  0.3573
    1W        W37929   6.836  10.783   7.830 -0.0937 -0.2525  0.3620
    1W        W37930   2.655   8.939   1.782 -0.0084  0.3733 -0.0098
    1W        W37931  17.833   5.438   7.723 -0.2038  0.0399  0.2141
    1W        W37932  26.155  12.904   1.576  0.1247 -0.4319 -0.0687
    1W        W37933  13.806   3.059   9.940 -0.0438  0.1591  0.1651
    1W        W37934  19.727  22.492   7.800  0.0299 -0.1558 -0.1152
    1W        W37935  10.441  27.283   2.088  0.0199 -0.2972  0.0641
    1W        W37936   8.095   2.763   0.449 -0.0476 -0.0237 -0.1539
    1W        W37937  11.506   1.794   8.235  0.2123 -0.1652 -0.1900
    1W        W37938   8.630   5.853   7.341 -0.1459  0.0716  0.0602
    1W        W37939  27.605  18.798   9.241 -0.0691  0.0183  0.0390
    1W        W37940   1.148   6.929   2.544  0.1292  0.1275  0.0514
    1W        W37941  26.689  24.038   3.776 -0.0112  0.0458  0.3320
    1W        W37942  17.156  20.882   6.127  0.1648  0.0373  0.0064
    1W        W37943  24.853  14.604   1.954  0.0544  0.1241  0.3676
    1W        W37944   5.951  27.354   9.959  0.1390  0.1525 -0.1995
    1W        W37945  21.980   0.076   7.702  0.0190 -0.0130 -0.3814
    1W        W37946   0.350  11.010   0.730  0.0496  0.0989 -0.0885
    1W        W37947   3.736   7.332   7.170  0.0599 -0.0470 -0.2023
    1W        W37948  27.644   6.630   1.833  0.2202  0.0346 -0.2218
    1W        W37949  19.150  18.419   9.702 -0.1426 -0.2711  0.1787
    1W        W37950   9.180  15.084   6.493 -0.1081  0.2004  0.1362
    1W        W37951  26.858  14.568   2.785  0.0811 -0.1995 -0.0258
    1W        W37952  10.565  25.508   9.075  0.2138 -0.0984 -0.1995
    1W        W37953  14.116  20.616   8.448  0.2009 -0.2290  0.0060
    1W        W37954   1.659   5.148   9.721 -0.1470  0.2054  0.0230
    1W        W37955   4.469  18.037   7.727 -0.4082  0.1317  0.2694
    1W        W37956  26.595  24.871   2.906  0.0490  0.0769 -0.1030
    1W        W37957  28.494   5.017   7.922  0.0593  0.0689 -0.3373
    1W        W37958   4.051  11.921   0.689  0.0243 -0.3502  0.0453
    1W        W37959  21.200  19.222   9.621  0.2570  0.4079  0.4120
    1W        W37960   6.623  24.622   6.985  0.0097 -0.0745  0.0037
    1W        W37961   6.169  27.804   7.737 -0.0515 -0.1210  0.2190
    1W        W37962   3.002  22.883   7.773 -0.0201 -0.1275 -0.1740
    1W        W37963   5.697  10.094   6.893  0.0271 -0.0007 -0.0672
    1W        W37964   9.935  24.384   1.910 -0.2730  0.1058 -0.1052
    1W        W37965  23.928   6.381   2.562  0.0297 -0.1092 -0.0254
    1W        W37966  14.594  21.045   7.926  0.1956  0.2315  0.2233
    1W        W37967  23.191   1.104   0.408 -0.2371 -0.3367 -0.2033
    1W        W37968   9.413  25.881   9.354  0.0014  0.2304 -0.3463
    1W        W37969  24.531  27.124   0.116  0.0889 -0.2225 -0.1924
    1W        W37970  25.850  16.913   3.834  0.0333 -0.3464 -0.1718
    1W        W37971   6.917  19.947   2.988  0.0359  0.2593  0.1471
    1W        W37972  26.343  14.068   0.411 -0.0841  0.1720  0.3101
    1W        W37973  23.448  12.586   7.422 -0.1661 -0.4696 -0.2751
    1W        W37974   1.958  24.266   9.083 -0.3051 -0.2716  0.0496
    1W        W37975  23.789  23.305   7.746  0.2077  0.0621 -0.2443
    1W        W37976   9.587   0.715   3.365 -0.0584  0.0428  0.0374
    1W        W37977  15.173   1.464   2.186  0.0218  0.1407 -0.0753
    1W        W37978  13.833   6.292   6.222 -0.3349  0.0236 -0.1613
    1W        W37979  15.703  10.281   1.703  0.0481 -0.0561 -0.0619
    1W        W37980   6.263   7.971   9.535 -0.1492 -0.2219  0.1628
    1W        W37981  14.179   8.093   8.579 -0.1845  0.3411 -0.0163
    1W        W37982  17.575  14.735   7.773  0.0131  0.2563  0.0430
    1W        W37983   6.620  23.571   8.341  0.0993  0.2326 -0.3266
    1W        W37984   6.018   6.928   1.245  0.1176  0.2107 -0.0726
    1W        W37985  17.815   9.294   6.724 -0.0593  0.0282  0.1246
    1W        W37986  19.017  15.651   9.459 -0.2431  0.2771  0.0287
    1W        W37987  27.378  10.179   1.702 -0.0128 -0.0483 -0.2137
    1W        W37988   8.563  23.962   2.622 -0.1094 -0.1544  0.2477
    1W        W37989  11.062  23.565   9.380  0.0682 -0.0222 -0.1140
    1W        W37990   8.739   2.501   2.865  0.1548  0.1564 -0.1435
    1W        W37991  14.697  20.251   1.181 -0.0186 -0.0078 -0.1255
    1W        W37992  16.748   9.708   1.894 -0.1266  0.0175 -0.2619
    1W        W37993  27.603   2.874   8.902  0.2176  0.1501 -0.2231
    1W        W37994  23.401   2.882   9.732 -0.1981  0.0740 -0.1042
    1W        W37995  13.427  27.991   0.730 -0.1300 -0.3755  0.2878
    1W        W37996  20.075   3.517   1.698  0.1131 -0.4388  0.1558
    1W        W37997  12.755  23.922   0.601  0.1490  0.2576 -0.0974
    1W        W37998   6.792   1.044   0.799  0.0996 -0.0378 -0.0956
    1W        W37999  25.130  23.186   3.641 -0.0829 -0.1275 -0.0396
    1W        W38000  25.054  22.349   9.568 -0.2823  0.0250 -0.3676
    1W        W38001  20.467  24.199   7.569 -0.1804  0.1093  0.2576
    1W        W38002  26.061  17.010   8.638 -0.2555 -0.1573 -0.2723
    1W        W38003   0.515   7.784   1.056 -0.0393 -0.3329  0.0188
    1W        W38004  20.571  18.762   9.708 -0.0056  0.5516 -0.0396
    1W        W38005   0.684  11.280   3.012 -0.2269  0.2492 -0.0303
    1W        W38006  13.465  25.099   7.222 -0.2142  0.0857 -0.1992
    1W        W38007  11.304  21.523   8.534  0.0256  0.0560 -0.0842
    1W        W38008  12.983  24.257   9.022  0.0143 -0.2077  0.0873
    1W        W38009  21.202  16.058   6.877  0.1318 -0.0173 -0.0256
    1W        W38010  11.964  26.321   2.113 -0.1771  0.2443  0.1164
    1W        W38011   8.825   3.157   0.586 -0.1172 -0.3316  0.0704
    1W        W38012  17.353  14.186   9.186  0.1186 -0.1829  0.1897
    1W        W38013  10.702  19.106   8.863  0.1596  0.0881  0.3579
    1W        W38014   2.346  13.017   2.692 -0.1524 -0.2462  0.2885
    1W        W38015  28.062   9.687   0.714  0.1911  0.2769  0.0906
    1W        W38016   0.994  16.778   3.142  0.0662  0.0909 -0.4225
    1W        W38017  20.153  20.510   9.284  0.1624 -0.0664 -0.1710
    1W        W38018   7.292  22.604   3.318 -0.1035  0.0146  0.0247
    1W        W38019   1.541  12.908   0.222 -0.0450  0.0988  0.0981
    1W        W38020  13.362   4.048   7.160  0.1660 -0.1025 -0.1046
    1W        W38021  21.644  10.616   1.092  0.1139 -0.4820  0.0406
    1W        W38022  21.860  18.642   7.053 -0.0205 -0.1539 -0.1928
    1W        W38023  20.432  22.558   1.803 -0.2006  0.2668 -0.0456
    1W        W38024  28.873  11.321   9.457  0.1243 -0.1487 -0.0153
    1W        W38025  19.782  20.549   1.427 -0.0467 -0.0665  0.0006
    1W        W38026   2.666  14.074   9.740 -0.0907 -0.0676 -0.0752
    1W        W38027   9.040  12.242   1.261  0.0062 -0.0693  0.0878
    1W        W38028  12.666  25.175   7.811 -0.2810 -0.0098  0.0943
    1W        W38029   9.305  20.757   0.642 -0.2136 -0.0299  0.3092
    1W        W38030   6.146   3.107   9.055 -0.0788  0.1076  0.0319
    1W        W38031   1.716  18.668   8.621  0.0733 -0.0678  0.0563
    1W        W38032  16.824   5.090   7.287  0.0268  0.2954  0.1487
    1W        W38033  21.375   7.264   0.675  0.1575 -0.0142  0.2933
    1W        W38034  13.834   0.922   2.163  0.3736 -0.1956  0.0202
    1W        W38035  22.524  22.587   7.724  0.0124 -0.0041 -0.2358
    1W        W38036   4.591  23.941   2.115  0.0260  0.0074  0.2089
    1W        W38037  26.893  14.979   0.019 -0.1973 -0.2695 -0.2055
    1W        W38038  12.520  15.403   7.561 -0.2859 -0.0781 -0.1283
    1W        W38039  15.489   1.993   7.366 -0.3158 -0.4156 -0.0542
    1W        W38040   3.677   8.254   8.734  0.4377  0.0575  0.2720
    1W        W38041  24.266   9.579   1.529  0.1273  0.2441 -0.1058
    1W        W38042   3.603  22.991   0.686  0.0444  0.2479 -0.4380
    1W        W38043  28.286   6.753   3.556  0.0055  0.0684  0.2616
    1W        W38044  20.916  21.701   7.440 -0.1665 -0.0777  0.0420
    1W        W38045   8.780  14.503   8.432  0.0347 -0.2292 -0.2015
    1W        W38046  10.539  12.091   9.184  0.1863 -0.2062  0.0069
    1W        W38047  11.636  17.905   9.153 -0.0320 -0.2437 -0.0230
    1W        W38048  14.066  19.505   7.956 -0.0930  0.0703  0.0678
    1W        W38049   4.499  14.871   7.262  0.0022  0.0667  0.0396
    1W        W38050   0.233  21.991   2.225 -0.0926 -0.2734  0.1666
    1W        W38051   8.744  24.202   1.202 -0.0177 -0.2294 -0.0985
    1W        W38052  16.334   5.116   9.843 -0.0759  0.0015 -0.1365
    1W        W38053   9.108  17.288   2.260 -0.1743  0.0859 -0.2705
    1W        W38054  17.193  17.872   1.340  0.2431 -0.0019  0.3572
    1W        W38055  10.808   9.026   9.616 -0.0964 -0.0737  0.0552
    1W        W38056  24.058  19.284   1.798  0.1372 -0.2798 -0.1899
    1W        W38057  22.910  14.696   9.977  0.2390 -0.0659  0.0726
    1W        W38058  19.597  12.843   6.787 -0.0765 -0.3280 -0.3893
    1W        W38059   2.453   0.209   7.505  0.0572  0.3867  0.2107
    1W        W38060  21.906   9.175   8.980  0.3323 -0.0106 -0.0788
    1W        W38061  13.888  10.866   8.664  0.0030 -0.0292  0.0027
    1W        W38062  18.430   4.734   9.260 -0.0099  0.0683 -0.2264
    1W        W38063  14.935  28.431   7.739  0.0564  0.2218  0.2934
    1W        W38064   5.572   5.560   3.094  0.1064 -0.0103 -0.1763
    1W        W38065   4.768  28.361   8.003  0.2101 -0.4703 -0.2601
    1W        W38066   7.321  10.629   7.748 -0.1740  0.1519  0.2125
    1W        W38067  28.832  23.536   0.283  0.1749  0.2084 -0.2839
    1W        W38068  28.211  25.212   3.226  0.1019  0.0126 -0.0781
    1W        W38069  16.072   3.932   7.759  0.0521 -0.1475 -0.1124
    1W        W38070  10.551  17.391   8.800 -0.0518 -0.1855 -0.0171
    1W        W38071  21.657  10.000   9.919  0.2060  0.1004 -0.1883
    1W        W38072  25.965  18.344   0.849  0.0175 -0.0633 -0.0067
    1W        W38073  25.654  14.645   9.318  0.1322  0.3993  0.1856
    1W        W38074  25.360   7.575   1.457  0.3270 -0.0052  0.2618
    1W        W38075  26.411  17.698   9.148  0.2125  0.4003 -0.2350
    1W        W38076  20.454   1.498   9.772  0.1173 -0.2126 -0.2600
    1W        W38077  14.580   1.263   1.756  0.2513  0.2334  0.2004
    1W        W38078  20.157  17.987   9.927 -0.1074  0.0099  0.0914
    1W        W38079   5.563   8.332   0.892 -0.1913  0.1865  0.1531
    1W        W38080   1.877  28.265   2.705 -0.0158  0.1757  0.2726
    1W        W38081   8.691  22.394   9.279  0.2524  0.3023  0.1980
    1W        W38082   4.689  21.896   7.209  0.0072 -0.0612  0.2735
    1W        W38083   0.431  10.375   8.988 -0.2298  0.0468 -0.2082
    1W        W38084   1.742  19.131   1.911  0.1767 -0.0834  0.1854
    1W        W38085  15.764   0.712   8.634  0.2922  0.0987  0.1853
    1W        W38086  26.133   0.772   1.242 -0.0076  0.1156  0.0615
    1W        W38087  16.637  17.471   2.941  0.1730 -0.2423 -0.0698
    1W        W38088   8.089  27.993   7.134 -0.1700  0.0384 -0.2247
    1W        W38089  12.783  13.999   9.270 -0.2038 -0.1736  0.0604
    1W        W38090  13.087  23.789   9.283  0.1293  0.2875  0.3036
    1W        W38091   0.787  23.802   3.861  0.2272 -0.0316 -0.2111
    1W        W38092  13.006  28.752   2.585 -0.0114 -0.2723  0.2052
    1W        W38093  28.232  11.327   8.238 -0.1000  0.3260  0.0343
    1W        W38094   7.416   9.752   1.912 -0.1829 -0.2362  0.2120
    1W        W38095  18.256  16.114   6.859 -0.0284 -0.4777  0.0918
    1W        W38096   9.486  23.573   2.496 -0.0780  0.0798 -0.0924
    1W        W38097  15.316  26.254   7.919  0.0967  0.0753  0.4614
    1W        W38098  26.780  27.837   9.830 -0.1855  0.2323  0.0719
    1W        W38099  11.979  12.411   9.104 -0.1886 -0.0677  0.1704
    1W        W38100  26.454   8.924   7.817  0.0615  0.0038  0.1230
    1W        W38101   1.149  14.822   9.088 -0.1458  0.2755  0.1756
    1W        W38102   6.305   2.309   3.320 -0.0370  0.1444 -0.2469
    1W        W38103  18.746   0.448   0.433 -0.0237  0.2260  0.0063
    1W        W38104  13.028  25.508   0.898  0.2799 -0.0226  0.1882
    1W        W38105  11.404  15.728   0.757  0.0921 -0.1156 -0.1079
    1W        W38106   3.871  11.040   0.920 -0.0217 -0.0513  0.4417
    1W        W38107  22.629   5.509   2.706  0.1136  0.0167  0.1218
    1W        W38108  18.311  15.899   7.773  0.1477 -0.1829 -0.0246
    1W        W38109  10.010   5.383   6.549 -0.0925 -0.0084 -0.1024
    1W        W38110  20.408  27.118   9.763 -0.3920 -0.0795  0.3333
    1W        W38111  16.848  24.164   8.272  0.1120 -0.2370  0.0777
    1W        W38112  10.771  12.281   5.828 -0.0526 -0.1549  0.1696
    1W        W38113   8.966  23.137   3.178 -0.1263  0.1532 -0.0671
    1W        W38114  24.374  10.920   0.036  0.2740 -0.0534 -0.2461
    1W        W38115   2.752  20.230   8.758 -0.2908 -0.0851 -0.0154
    1W        W38116   5.246   3.192   7.836 -0.1447  0.1386 -0.0529
    1W        W38117   8.672  16.534   1.938 -0.0463  0.2454  0.1189
    1W        W38118  21.558   0.222   7.358 -0.1163  0.0922 -0.0484
    1W        W38119  27.011   4.331   2.774 -0.1782 -0.0026  0.1254
    1W        W38120   9.880  21.957   8.927  0.1304 -0.0714 -0.0793
    1W        W38121  10.397   4.136   8.949 -0.0282 -0.0117  0.4655
    1W        W38122  14.910   0.892   7.781  0.1056  0.1416 -0.0252
    1W        W38123   3.960   6.543   8.500  0.0812  0.0183  0.1676
    1W        W38124   3.517  11.628   2.117 -0.2244 -0.0960  0.1830
    1W        W38125  10.420  24.310   3.914  0.1904 -0.1143  0.1247
    1W        W38126  21.566  26.442   2.633 -0.0579  0.2460  0.0607
    1W        W38127  23.912  22.730   3.507 -0.2751  0.4008 -0.0197
    1W        W38128  27.107  22.220   8.894  0.1837 -0.0157 -0.4166
    1W        W38129  15.003   9.565   7.650  0.0916 -0.1467  0.0116
    1W        W38130   9.888  10.373   6.776 -0.2898  0.0087 -0.0347
    1W        W38131   1.548   2.672   8.953 -0.4486 -0.0723  0.2281
    1W        W38132  23.551  18.485   9.073  0.0988  0.1408 -0.0018
    1W        W38133   2.205  21.514   9.610  0.0802 -0.0772 -0.1843
    1W        W38134   4.986  26.280   0.096  0.0223 -0.2285 -0.2422
    1W        W38135  15.423   1.914   9.974 -0.0473 -0.1866 -0.2075
    1W        W38136   9.133   0.280   1.252 -0.3498 -0.2009 -0.1936
    1W        W38137  19.756   7.475   1.272 -0.1906 -0.1580  0.1448
    1W        W38138   7.957  13.843   2.376 -0.0930  0.0242 -0.0752
    1W        W38139   5.127  13.432   1.919  0.0746 -0.0987 -0.0872
    1W        W38140   7.539   1.873   1.893  0.1150  0.1768  0.4148
    1W        W38141  12.061  18.947   9.135  0.0094  0.0164  0.0883
    1W        W38142   1.117  25.633   8.670 -0.1630  0.0342  0.0833
    1W        W38143  17.064  19.814   1.484  0.0999 -0.1140 -0.2962
    1W        W38144  26.580   5.521   9.592  0.0430  0.2763 -0.1367
    1W        W38145  20.730  10.430   2.293  0.1434 -0.0494 -0.0103
    1W        W38146  12.878  26.139   1.249  0.1376  0.1184  0.2140
    1W        W38147  27.800  20.690   3.060  0.0742 -0.4779  0.1795
    1W        W38148  10.549   2.422   7.819  0.0350  0.4189 -0.2137
    1W        W38149  12.300   5.833   6.330 -0.0635 -0.1675 -0.0898
    1W        W38150  17.840   5.431   7.220 -0.1218 -0.1003  0.1658
    1W        W38151  17.276   3.320   0.309  0.0037 -0.2834 -0.0610
    1W        W38152  20.477   9.008   7.670 -0.1080 -0.0629  0.3065
    1W        W38153   6.355  11.161   2.156  0.1840  0.1235 -0.2820
    1W        W38154  16.392  14.931   6.398  0.1011 -0.1117 -0.1828
    1W        W38155  27.733  14.873   8.629 -0.1102 -0.0685  0.2269
    1W        W38156  11.777   0.480   2.628 -0.1125  0.2247 -0.1312
    1W        W38157  11.938   8.975   1.731 -0.1775  0.2167  0.2005
    1W        W38158  10.875   4.920   1.596  0.0456 -0.0768  0.0636
    1W        W38159   3.550  22.044   3.063 -0.1139  0.0360 -0.1629
    1W        W38160  26.162  19.372   0.893 -0.3163  0.2566  0.1222
    1W        W38161   8.774  26.998   0.125 -0.0044 -0.0864 -0.1644
    1W        W38162  22.322  23.582   7.961 -0.0736 -0.1184 -0.1969
    1W        W38163  27.888  20.570   2.069  0.5998  0.0923 -0.3567
    1W        W38164  14.006  25.594   0.942 -0.1126 -0.0550  0.1764
    1W        W38165  23.934   5.780   9.715  0.0695  0.0991  0.2222
    1W        W38166   4.105  13.546   8.396 -0.0999 -0.0918  0.0610
    1W        W38167  28.229  27.770   9.233 -0.2625  0.3167  0.0272
    1W        W38168  25.026  10.478   7.781 -0.0098  0.0657  0.0827
    1W        W38169  14.944   1.005   9.373 -0.0073 -0.2527 -0.0888
    1W        W38170  18.700  11.988   7.289 -0.0407 -0.1903 -0.3581
    1W        W38171  27.269   8.877   7.581  0.3118  0.0454  0.2711
    1W        W38172  15.919   1.290   6.704  0.0412  0.0932  0.0009
    1W        W38173  23.691  20.054   1.516  0.0710  0.0326 -0.2869
    1W        W38174  22.752  21.775   6.783  0.1156 -0.0322  0.0332
    1W        W38175  13.019  21.462   9.693 -0.1989  0.1737 -0.2559
    1W        W38176   3.376   9.103   7.147  0.0017  0.1330  0.1264
    1W        W38177   0.775  28.833   1.826  0.1647  0.0711 -0.1563
    1W        W38178  20.250  25.404   9.059 -0.1035  0.0534  0.1809
    1W        W38179   9.079  18.967   1.364 -0.1013 -0.2429  0.0228
    1W        W38180   9.490  23.501   9.159  0.0566  0.0265 -0.0855
    1W        W38181  10.583   9.076   0.796 -0.0260  0.1401 -0.3606
    1W        W38182  28.732   2.970   0.795  0.1989  0.0055  0.1130
    1W        W38183  25.341  20.185   7.050 -0.0764  0.0154  0.0303
    1W        W38184  21.355  17.892   8.453 -0.3831 -0.1167  0.0161
    1W        W38185  15.865  16.986   1.961  0.3774 -0.1206  0.3788
    1W        W38186  12.098  16.870   7.754  0.0879  0.1142 -0.3227
    1W        W38187  21.361   3.249   9.437 -0.0003  0.3131  0.1448
    1W        W38188   3.103  23.424   3.393 -0.1393 -0.0364  0.3964
    1W        W38189   2.558  24.133   3.700  0.1194 -0.4802  0.1934
    1W        W38190  26.595   3.425   8.453  0.1618 -0.0521  0.1121
    1W        W38191   9.531   3.137   2.416 -0.0450  0.2191 -0.1768
    1W        W38192   3.906   7.950   9.135 -0.0800 -0.1215  0.1234
    1W        W38193  26.497  21.165   0.046  0.3316  0.2676 -0.2483
    1W        W38194   4.840   7.040   9.555  0.3774  0.0047 -0.0402
    1W        W38195   6.738  13.150   6.599 -0.0653 -0.0000  0.1904
    1W        W38196  22.905   5.570   9.591 -0.1090  0.0108 -0.0506
    1W        W38197  11.109  22.627   2.047  0.0222  0.0345 -0.0936
    1W        W38198   5.168  17.438   0.177  0.1960 -0.1837  0.0278
    1W        W38199  22.623   6.940   9.766  0.0921 -0.1425  0.0266
    1W        W38200  13.882   5.323   7.792  0.0237 -0.0099 -0.1741
    1W        W38201  14.905  18.044   9.875  0.0467  0.0843 -0.0454
    1W        W38202  11.943  22.563   2.315  0.0637  0.0271  0.1466
    1W        W38203  24.050  25.867   2.744 -0.1621  0.1898  0.0951
    1W        W38204  14.778   5.644   0.080  0.2063 -0.2343 -0.0752
    1W        W38205  12.175  22.202   2.653  0.0053  0.0503 -0.1775
    1W        W38206   3.643  23.474   1.350  0.1609  0.0271  0.1009
    1W        W38207  13.325  20.006   9.924 -0.0351 -0.0686  0.0679
    1W        W38208  22.540   6.412   8.625 -0.0472 -0.0618 -0.1417
    1W        W38209  15.057  25.634   2.354 -0.1671 -0.0065 -0.2529
    1W        W38210  16.670   0.696   1.875 -0.1788 -0.1739  0.1772
    1W        W38211  28.372  19.295   1.453 -0.0012 -0.0437  0.0322
    1W        W38212  21.003   9.700   9.253 -0.1631  0.0351  0.0784
    1W        W38213  11.571  13.633   1.384  0.4713 -0.2543  0.0475
    1W        W38214  28.480  17.864   1.432 -0.0297 -0.1397  0.0980
    1W        W38215  27.075   2.901   2.413  0.2038 -0.1246  0.2076
    1W        W38216  28.395  11.616   1.904  0.0054 -0.2189  0.1438
    1W        W38217  24.248  15.320   2.769 -0.1018  0.0770 -0.4123
    1W        W38218  22.030  13.203   6.581 -0.0147 -0.1031  0.0420
    1W        W38219  24.309  28.258   8.572  0.0823  0.0493 -0.2980
    1W        W38220  11.869  21.270   1.851  0.0463 -0.1744  0.3303
    1W        W38221  20.848   7.468   8.071 -0.2467 -0.1223  0.1555
    1W        W38222   2.281  26.542   2.085  0.3964  0.2364 -0.0417
    1W        W38223   4.559   0.231   4.033  0.0553 -0.1456 -0.1739
    1W        W38224   6.914   8.565   8.575 -0.2442 -0.0981 -0.0782
    1W        W38225   2.992  25.849   3.637 -0.0068  0.1046  0.2528
    1W        W38226  26.689  13.040   9.377 -0.0165  0.0235 -0.0849
    1W        W38227   2.380  25.130   4.117  0.0686  0.0306  0.1410
    1W        W38228   0.308  10.263   7.254 -0.2249  0.2489 -0.0348
    1W        W38229  26.517  22.256   2.787 -0.1871 -0.2252  0.0355
    1W        W38230  10.149   2.024   1.953  0.2990 -0.0670 -0.2201
    1W        W38231   2.329  23.752   2.784 -0.1067  0.0586 -0.1967
    1W        W38232   1.086  25.382   8.242 -0.2151  0.0190 -0.2043
    1W        W38233  13.680  27.857   8.977  0.2197 -0.2011 -0.2469
    1W        W38234  22.221  20.542   0.569  0.0261  0.0442 -0.1730
    1W        W38235  24.823  22.687   9.829  0.1923  0.3706  0.1293
    1W        W38236  13.388   0.337   6.710 -0.1808  0.1048  0.0787
    1W        W38237   8.460  14.464   9.629  0.1154  0.0084  0.3220
    1W        W38238   4.498   9.336   1.948  0.2230 -0.0553  0.3792
    1W        W38239  16.012   1.600   7.267  0.2650 -0.1289 -0.1325
    1W        W38240  11.629  22.867   9.410 -0.0679  0.0588  0.1410
    1W        W38241  21.445  11.775   1.833  0.0117  0.2569  0.2285
    1W        W38242   3.724  10.693   1.769  0.1698  0.2631 -0.0639
    1W        W38243   8.135  24.622   9.369 -0.0152 -0.3357  0.0688
    1W        W38244  10.015  20.527   8.685  0.0697  0.2572  0.1686
    1W        W38245  26.862  25.916   9.408  0.0950  0.4367  0.3132
    1W        W38246  16.991   6.513   0.169  0.1455  0.1072  0.0450
    1W        W38247   2.480  11.464   0.778  0.1630  0.0003 -0.2498
    1W        W38248  16.477  13.730   2.238  0.1541 -0.0467  0.0407
    1W        W38249  22.267   2.401   8.208 -0.1625 -0.1426  0.1108
    1W        W38250  12.417  20.048   0.090 -0.0314 -0.0650  0.0174
    1W        W38251  21.148  18.457   6.312 -0.1558 -0.0719  0.0901
    1W        W38252   4.872  25.662   1.672 -0.3353  0.0609  0.0517
    1W        W38253  22.141   7.951   0.497 -0.0192 -0.1918 -0.2802
    1W        W38254  23.286   0.047   0.112  0.1353 -0.2282  0.2341
    1W        W38255  11.439  25.604   8.035 -0.0122 -0.2103  0.0157
    1W        W38256  27.005   5.923   2.710  0.1069  0.1213  0.0323
    1W        W38257   7.674  19.309   6.348  0.2129  0.1395  0.2786
    1W        W38258  18.474  24.283   8.627  0.0531  0.1418  0.1686
    1W        W38259   4.988   4.260   3.975  0.2021  0.0240  0.2556
    1W        W38260  23.349  17.005   1.774 -0.0537  0.0235  0.1152
    1W        W38261   4.159   1.603   1.505 -0.1203  0.0486  0.1851
    1W        W38262   8.068   2.452   9.026  0.0910  0.1087 -0.2539
    1W        W38263  25.181   7.317   3.601 -0.1192  0.0447  0.0944
    1W        W38264   3.243  10.408   9.758 -0.4171  0.2360  0.2913
    1W        W38265  11.540   5.918   0.721  0.0809 -0.0058 -0.2916
    1W        W38266  12.509   9.851   8.364 -0.2946  0.0572 -0.0954
    1W        W38267  23.597  11.404   2.303  0.0454 -0.0927  0.0156
    1W        W38268  19.044  19.636   9.180 -0.1031  0.4783  0.0480
    1W        W38269  10.195  25.511   1.093 -0.0457 -0.2298  0.1982
    1W        W38270   6.203   8.462   2.733 -0.0405 -0.1564  0.0075
    1W        W38271   4.017   2.688   8.746 -0.1042  0.0928  0.0009
    1W        W38272  16.288  17.094   9.374  0.1089 -0.2945  0.2987
    1W        W38273  14.614   4.488   0.664 -0.0381  0.0223  0.1677
    1W        W38274  16.137   8.273   6.882  0.2077  0.1567  0.2262
    1W        W38275  25.636  16.570   2.432 -0.5207  0.1428 -0.0161
    1W        W38276  10.288   6.687   0.075 -0.2848  0.2365 -0.0426
    1W        W38277   0.036  13.071   9.869 -0.0000  0.1798 -0.4133
    1W        W38278  14.201  24.484   8.554  0.1032  0.0111  0.0105
    1W        W38279  13.102  14.422   9.246 -0.0641 -0.4188  0.0129
    1W        W38280   5.926  19.862   2.413 -0.3885  0.0099  0.3045
    1W        W38281  19.871   4.649   0.890 -0.2056  0.0061  0.2054
    1W        W38282  18.907   9.022   6.859  0.0248 -0.0359  0.1637
    1W        W38283   3.882  17.509   0.003 -0.1329  0.0517  0.3500
    1W        W38284   8.029  16.700   0.807  0.0868 -0.0165  0.1054
    1W        W38285  23.395   0.238   6.897  0.0751  0.2146 -0.1329
    1W        W38286  13.669  10.730   1.394 -0.2924 -0.2924 -0.3160
    1W        W38287  12.495   3.615   6.494 -0.0093  0.4109 -0.0917
    1W        W38288  17.530  21.456   6.224 -0.0794  0.0763  0.2245
    1W        W38289  17.494   6.790   5.433  0.4053 -0.1475 -0.0442
    1W        W38290   8.258  26.180   2.019  0.1751  0.2494  0.0037
    1W        W38291   5.567  26.786   3.690 -0.1349  0.1638  0.3396
    1W        W38292   9.957   4.500   0.965  0.0953  0.0566 -0.2311
    1W        W38293  27.627  26.927   4.505  0.1611  0.2300 -0.2698
    1W        W38294  16.091  22.378   8.888  0.0780  0.2328  0.1894
    1W        W38295  11.585  10.391   7.460 -0.0567 -0.1374 -0.0049
    1W        W38296   7.039  10.994   0.464 -0.0426 -0.0959  0.1731
    1W        W38297   9.794  21.128   0.583  0.2718  0.1741 -0.0310
    1W        W38298   2.328  19.415   9.726  0.2485  0.0427  0.0570
    1W        W38299  24.468  20.156   8.796  0.0247 -0.2037  0.1948
    1W        W38300  22.424  24.630   1.002 -0.0557  0.1069 -0.1587
    1W        W38301   6.177  23.485   9.554  0.0280 -0.1929 -0.2505
    1W        W38302   4.970  12.793   1.735  0.2077 -0.0321  0.1428
    1W        W38303  14.716  18.006   7.142  0.0848 -0.3142 -0.1414
    1W        W38304   5.721  17.781   0.954 -0.2082  0.2671 -0.1556
    1W        W38305  20.755  16.867   7.150  0.3034 -0.1228  0.0375
    1W        W38306   0.103  24.043   7.635  0.1965 -0.0736 -0.1550
    1W        W38307   2.701  12.371   1.175  0.0675  0.2566  0.4488
    1W        W38308  15.367  12.640   1.085  0.0052  0.1145 -0.1086
    1W        W38309   2.264  12.621   7.883 -0.1381  0.1974  0.2511
    1W        W38310  26.641  22.705   2.425 -0.1044 -0.3584  0.2861
    1W        W38311  26.004   3.613   0.344  0.0841  0.0948 -0.2929
    1W        W38312  16.140  23.537   1.738  0.0573 -0.1485  0.0885
    1W        W38313  23.361  28.069   9.445  0.2271 -0.0704 -0.0829
    1W        W38314  25.490  25.299   9.953 -0.5144  0.0342 -0.2096
    1W        W38315  22.371  14.545   9.085 -0.1517 -0.1906 -0.1723
    1W        W38316  16.655  11.455   6.742  0.0922 -0.0395  0.0786
    1W        W38317   7.887   1.841   0.541  0.1377  0.0029  0.0012
    1W        W38318  15.027  22.125   2.190  0.1102 -0.1527 -0.1931
    1W        W38319  23.838   0.304   1.079 -0.0403 -0.1505  0.0848
    1W        W38320   7.329   2.315   9.169  0.3628 -0.2216 -0.1730
    1W        W38321   9.503  14.585   9.903 -0.1254 -0.0170  0.1479
    1W        W38322  10.321   8.270   6.918  0.2617 -0.0815  0.2557
    1W        W38323   4.753  14.018   8.264 -0.2423 -0.2696  0.1139
    1W        W38324   3.401  18.631   2.982  0.1061 -0.1081  0.1121
    1W        W38325  24.384  23.251   2.921  0.1517  0.1001  0.0572
    1W        W38326  18.143   0.128   8.884 -0.2881  0.0884  0.0675
    1W        W38327  12.341  28.462   2.239  0.1971  0.1462 -0.0494
    1W        W38328  26.330   1.786   1.160  0.0461 -0.1792 -0.0798
    1W        W38329   7.281  14.990   1.927 -0.0703  0.1994 -0.1696
    1W        W38330  14.589  27.684   7.056  0.0593 -0.3206 -0.1766
    1W        W38331   7.201  11.143   7.666 -0.0380  0.1429  0.1644
    1W        W38332  18.724   8.642   7.504  0.0527  0.1974  0.0330
    1W        W38333  20.151  14.555   7.898  0.1729  0.1208 -0.0050
    1W        W38334   4.707  17.108   0.149 -0.0246  0.0962  0.2560
    1W        W38335   1.063  13.551   7.272 -0.0655 -0.4573 -0.0069
    1W        W38336  20.625  21.218   7.441  0.3739  0.1255  0.0850
    1W        W38337  23.873   6.031   8.364  0.1423 -0.0913 -0.1817
    1W        W38338  26.081  19.201   2.970  0.1289  0.2628 -0.0557
    1W        W38339  11.288  22.867   0.918  0.2538 -0.1458  0.1369
    1W        W38340   0.683   7.282   3.110 -0.3279 -0.0045  0.3311
    1W        W38341  15.560  12.904   1.750  0.0414 -0.0268 -0.1196
    1W        W38342  11.190   6.305   2.125 -0.0506  0.0386  0.0626
    1W        W38343  26.739  12.674   0.993 -0.1472 -0.2182  0.1367
    1W        W38344  10.670  23.563   1.636  0.1071  0.0304 -0.0815
    1W        W38345  24.934   2.846   0.940 -0.3042 -0.1116 -0.0365
    1W        W38346   9.436  20.846   3.479  0.1292 -0.0547  0.0930
    1W        W38347  19.340   4.214   2.766 -0.4286  0.1408 -0.2109
    1W        W38348  16.699   7.309   6.391  0.0969 -0.0574 -0.0770
    1W        W38349   9.441  25.420   0.907  0.1452  0.1713  0.2619
    1W        W38350   7.167  16.393   0.023  0.0484 -0.1348 -0.0234
    1W        W38351  19.846  14.207   9.089  0.1267 -0.0997  0.0949
    1W        W38352   0.606   6.486   3.109  0.3382  0.0405 -0.3044
    1W        W38353   8.425   7.047   9.037 -0.1729  0.1808 -0.4722
    1W        W38354   9.703  15.118   6.989  0.0849 -0.1858  0.0627
    1W        W38355  21.524   2.350   8.017 -0.0165 -0.0679  0.0654
    1W        W38356  20.959  11.883   0.080 -0.1653  0.0534 -0.0725
    1W        W38357  20.368  10.739   1.306  0.1571  0.1139  0.2319
    1W        W38358  16.039  12.210   6.910 -0.2456 -0.2643  0.2802
    1W        W38359  15.740  24.990   1.015  0.0033 -0.0273  0.2557
    1W        W38360  16.429  21.960   1.212 -0.1168  0.0222 -0.1609
    1W        W38361  22.519  13.949   0.282  0.3080  0.2386  0.2126
    1W        W38362   6.601   9.051   9.797  0.0617 -0.1216  0.1086
    1W        W38363  18.314  22.590   0.720 -0.1795  0.0343 -0.1189
    1W        W38364  17.052  22.560   7.602 -0.1731 -0.0038  0.0568
    1W        W38365  28.362  15.882   8.308  0.0603  0.0883 -0.0740
    1W        W38366  21.895   8.705   8.790 -0.2756  0.2250  0.2815
    1W        W38367   9.291  21.918   0.370 -0.2922 -0.1181  0.1235
    1W        W38368   2.380   4.492   3.324 -0.0539 -0.1287  0.3180
    1W        W38369  16.666  26.752   8.313 -0.2439 -0.4436  0.1337
    1W        W38370  12.363   8.478   8.636  0.1910 -0.1062 -0.0441
    1W        W38371  17.966  21.025   6.934 -0.0010 -0.0803 -0.1740
    1W        W38372   6.320  11.707   9.983  0.1669  0.1243  0.0499
    1W        W38373  13.938  11.725   6.432  0.1226 -0.2390 -0.0101
    1W        W38374  14.522   1.433   0.125 -0.1922 -0.0698  0.1137
    1W        W38375  28.598  10.596   8.579  0.0860 -0.2155 -0.1643
    1W        W38376   3.782   3.623   0.390 -0.2677  0.1623  0.1475
    1W        W38377  11.626  22.926   7.841  0.1378 -0.0034 -0.0292
    1W        W38378   7.798  19.637   1.918 -0.1403  0.0369 -0.1688
    1W        W38379  28.688   6.482   9.351 -0.0732  0.0128  0.0039
    1W        W38380   8.254  17.277   1.938 -0.0924  0.4614  0.0983
    1W        W38381  23.298  25.468   3.399 -0.0424 -0.2449 -0.1324
    1W        W38382   6.310  19.916   9.507  0.1175  0.0230 -0.0557
    1W        W38383  24.754   8.523   7.770  0.0189 -0.3571  0.3523
    1W        W38384  22.672   8.080   0.212 -0.2174 -0.0978  0.1386
    1W        W38385   9.491  20.470   8.679 -0.2225 -0.0629  0.0818
    1W        W38386   2.996  18.108   0.802  0.1560  0.1121  0.1597
    1W        W38387   0.531  10.165   6.796 -0.2261 -0.1388 -0.0168
    1W        W38388  27.765  17.607   7.887  0.1483  0.1696 -0.3122
    1W        W38389   6.445  14.806   0.579  0.3053  0.2683  0.0406
    1W        W38390  11.117  15.800   0.388 -0.0754 -0.2894 -0.1888
    1W        W38391   3.151  27.111   2.366 -0.0471  0.0580 -0.1082
    1W        W38392   9.081  15.824   6.544 -0.1692  0.3537  0.1033
    1W        W38393  10.420  24.581   9.018  0.0681  0.0538  0.0889
    1W        W38394  20.436  22.378   6.896 -0.1347 -0.0708  0.2444
    1W        W38395  27.916  10.593   9.450 -0.2462 -0.0680 -0.3023
    1W        W38396  11.626   1.155   7.580  0.0170  0.1924  0.0816
    1W        W38397  10.281  22.483   1.230  0.0077 -0.0507  0.2847
    1W        W38398  13.126  10.172   6.907  0.0076 -0.3080  0.1986
    1W        W38399   7.125  16.314   9.282  0.0269  0.3577  0.0200
    1W        W38400   3.169   6.407   2.284  0.0088  0.1505  0.0834
    1W        W38401  17.207  21.980   2.270 -0.0050  0.1103 -0.2510
    1W        W38402  11.136  26.163   1.549  0.0611 -0.2432 -0.3017
    1W        W38403  24.128  23.634   8.108  0.0525  0.1629 -0.0665
    1W        W38404  25.766  11.352   1.512 -0.1052 -0.2247 -0.1855
    1W        W38405  21.921   4.489   7.635 -0.0173 -0.0847  0.2412
    1W        W38406  24.689  19.561   2.157 -0.2319 -0.1005 -0.2232
    1W        W38407  17.745  23.475   1.367 -0.2351  0.1040  0.0879
    1W        W38408  20.483   2.194   2.251 -0.0744  0.0697  0.1102
    1W        W38409  27.444  22.704   1.004 -0.1658  0.0669 -0.2277
    1W        W38410  14.587   1.512   8.875 -0.3380  0.0104  0.1075
    1W        W38411   7.544  16.564   7.316  0.0033  0.0222  0.1367
    1W        W38412  12.584  11.761   9.185  0.1601  0.3152 -0.1890
    1W        W38413  28.591   5.032   3.267 -0.1156 -0.0378  0.0745
    1W        W38414  10.907   5.901   0.696  0.0094  0.2401 -0.0755
    1W        W38415   9.263   6.490   8.501 -0.1391 -0.1727  0.1278
    1W        W38416   6.985   3.673   0.760  0.1835  0.1948  0.0116
    1W        W38417  27.624  13.018   7.527 -0.1027 -0.1207 -0.0097
    1W        W38418   8.195  20.677   2.695  0.1644 -0.3292  0.0755
    1W        W38419  23.282  14.775   0.434 -0.0818 -0.0547  0.0395
    1W        W38420  16.092  11.996   6.500 -0.3616 -0.0537 -0.1228
    1W        W38421   9.054  14.481   1.864 -0.0085 -0.2602  0.0294
    1W        W38422  26.304   2.996   8.512  0.0794 -0.1153 -0.1251
    1W        W38423  27.867  26.694   1.180 -0.2773  0.2026  0.0682
    1W        W38424  22.707  19.125   8.205 -0.0873 -0.1888  0.2205
    1W        W38425   3.963  26.136   9.445  0.3966 -0.1395  0.1517
    1W        W38426  27.235  11.540   8.359 -0.0149 -0.1467  0.0281
    1W        W38427  17.585  22.860   0.350  0.0432  0.0805 -0.1554
    1W        W38428  17.504  13.281   6.656  0.2990  0.2665 -0.1059
    1W        W38429  10.724  11.829   8.139  0.0250  0.0539  0.2933
    1W        W38430  11.739  17.735   1.815  0.0184 -0.0864 -0.0720
    1W        W38431   1.118  27.709   3.909  0.0615 -0.4310 -0.1144
    1W        W38432  14.073  10.234   9.972 -0.1343  0.2073 -0.0749
    1W        W38433   0.056   8.282   9.024 -0.0002  0.0478 -0.2160
    1W        W38434  14.053  28.322   7.845 -0.0875 -0.0584  0.1875
    1W        W38435  20.017   1.460   1.897  0.0477  0.1692  0.1470
    1W        W38436  23.726  13.384   8.120  0.1036 -0.2872  0.4035
    1W        W38437  27.661  10.849   0.371 -0.2401  0.0055  0.0622
    1W        W38438   2.642   4.478   0.575  0.0130 -0.1050 -0.3100
    1W        W38439  18.108  18.572   9.818 -0.1025 -0.0990 -0.2013
    1W        W38440  11.345   4.897   7.001  0.0052  0.2071 -0.2754
    1W        W38441  19.578  23.582   8.747  0.1346  0.1844 -0.1618
    1W        W38442   4.904  20.451   9.095  0.2607  0.0280  0.0984
    1W        W38443  15.278   0.025   9.254 -0.1012 -0.1778 -0.3030
    1W        W38444  16.529  26.548   9.869  0.3298  0.0266 -0.0360
    1W        W38445   6.427  10.620   0.366  0.0883 -0.1973  0.0641
    1W        W38446  28.191   8.618   0.583 -0.0810 -0.1250 -0.0122
    1W        W38447  27.704  23.630   9.044 -0.0940 -0.0920 -0.1923
    1W        W38448  19.947  24.182   7.294  0.2864  0.0266 -0.1395
    1W        W38449  13.340   6.691   0.910 -0.1020 -0.0344  0.1753
    1W        W38450  23.701  28.313   7.763 -0.0195 -0.0980 -0.1315
    1W        W38451   3.440  16.699   8.039  0.0560  0.1556 -0.5700
    1W        W38452  23.377  22.289   1.797  0.1177  0.1299  0.1424
    1W        W38453  27.370   4.394   9.296  0.0200  0.0260 -0.3024
    1W        W38454  23.482  21.013   7.550  0.1793  0.1595  0.1226
    1W        W38455  13.857  24.895   2.297 -0.0002 -0.1578  0.3062
    1W        W38456  28.158   3.277   1.539  0.0571  0.0213  0.3400
    1W        W38457  25.945  15.940   8.420  0.0021  0.2559 -0.0940
    1W        W38458  25.400  27.021   8.008  0.2306 -0.1532  0.1223
    1W        W38459   5.141  20.719   8.147 -0.1530  0.1110 -0.1103
    1W        W38460  27.020  14.068   9.760  0.2211 -0.3215 -0.1571
    1W        W38461   0.688   8.714   1.794 -0.0454  0.1619 -0.1620
    1W        W38462  28.326  25.667   3.119  0.0210  0.3015  0.0213
    1W        W38463  23.826  24.214   2.209 -0.0883  0.0521  0.1064
    1W        W38464  10.997  26.399   0.503  0.2380  0.2849 -0.0604
    1W        W38465  26.973   8.952   7.107 -0.0540  0.2350 -0.2059
    1W        W38466  11.860   2.966   7.143 -0.0800 -0.0294 -0.0506
    1W        W38467  16.172   7.661   7.862  0.1429 -0.0385  0.3068
    1W        W38468   2.239  16.866   8.621 -0.0593  0.0571  0.2139
    1W        W38469  21.440  11.010   8.669 -0.0638 -0.0896 -0.3737
    1W        W38470  13.400  16.219   1.874  0.0474  0.2094  0.3208
    1W        W38471  18.825  14.296   2.091  0.4757 -0.0644 -0.0368
    1W        W38472  15.456  21.924   0.167 -0.0413 -0.0415 -0.4489
    1W        W38473  27.282  15.819   2.942 -0.0341 -0.0099 -0.0146
    1W        W38474  27.176  21.599   3.659  0.1144  0.1842 -0.2507
    1W        W38475   1.826   0.376   9.726  0.1513  0.0974  0.2110
    1W        W38476  18.254   2.530   8.889 -0.1671 -0.0264 -0.2890
    1W        W38477   8.988   7.808   0.686  0.3187 -0.1463 -0.1458
    1W        W38478   7.571  16.786   6.851 -0.2001 -0.1620 -0.2199
    1W        W38479  11.477   9.564   6.402  0.0637  0.0368  0.1148
    1W        W38480   1.348  14.195   9.651  0.1280  0.2216 -0.1329
    1W        W38481  15.091  12.695   8.750  0.2379 -0.0408  0.0441
    1W        W38482  21.452  20.962   6.854 -0.0059  0.2044  0.0960
    1W        W38483  17.233   6.848   8.987  0.3428 -0.0547 -0.1274
    1W        W38484   1.525  21.344   0.651  0.0100  0.4376  0.2782
    1W        W38485  23.313  19.293   7.978 -0.0783  0.2373 -0.0939
    1W        W38486  25.073   6.778   2.622 -0.2020 -0.3850 -0.0162
    1W        W38487  21.222   4.693   8.917  0.0302  0.1314 -0.0805
    1W        W38488  14.485   8.531   8.472  0.1796 -0.0721 -0.2687
    1W        W38489  13.523  15.017   7.372 -0.0765  0.3044  0.2639
    1W        W38490  10.717   7.027   1.193 -0.0734 -0.0479 -0.1978
    1W        W38491   6.108  26.138   9.201  0.3170  0.1578 -0.3942
    1W        W38492  20.204   5.350   9.042  0.1226  0.0765 -0.1063
    1W        W38493  17.802  21.235   1.666  0.2642  0.4391  0.1572
    1W        W38494  13.192   5.734   1.096 -0.0625  0.2221  0.0269
    1W        W38495  15.505  25.655   0.126  0.1208  0.2487 -0.0920
    1W        W38496  17.697   3.447   2.109  0.0630 -0.0846 -0.3600
    1W        W38497   5.223  28.030   1.344 -0.2809 -0.0211 -0.2523
    1W        W38498  10.123   3.276   8.684 -0.1005 -0.2745 -0.1577
    1W        W38499  21.888  21.571   2.470  0.3319 -0.1317 -0.1022
    1W        W38500  11.041  13.475   6.704  0.3215 -0.0619  0.1831
    1W        W38501  12.075  24.747   2.052  0.1239 -0.1103 -0.0360
    1W        W38502   9.042  22.243   1.684 -0.1840  0.1723 -0.0571
    1W        W38503   1.555  21.429   7.657 -0.0446  0.3922 -0.1022
    1W        W38504  27.406  13.261   8.178  0.0088 -0.1265 -0.0944
    1W        W38505   2.395   4.403   3.838 -0.0324 -0.0398 -0.1404
    1W        W38506   0.614   8.462   3.568 -0.0179 -0.0596 -0.0398
    1W        W38507   0.747  13.804   2.701 -0.1367  0.1777 -0.1183
    1W        W38508  16.050  20.978   2.671  0.0408  0.1947  0.1366
    1W        W38509  25.266   3.533   9.679 -0.0262  0.1839 -0.1043
    1W        W38510  14.524   4.990   8.248 -0.2528 -0.2551 -0.3878
    1W        W38511   2.427  16.479   3.863  0.1695 -0.2529  0.1147
    1W        W38512   6.480  21.838   7.970  0.2275  0.0242  0.0132
    1W        W38513   5.924  10.443   7.639  0.0783  0.1414 -0.1022
    1W        W38514   8.655   0.886   9.552  0.0224 -0.1009  0.0803
    1W        W38515  27.045  13.551   2.029  0.1509 -0.0217  0.0187
    1W        W38516   1.526  18.813   9.155 -0.1393 -0.2160  0.1289
    1W        W38517   4.369  13.994   9.142 -0.2873 -0.3651 -0.0040
    1W        W38518  19.874   5.720   1.944 -0.0040 -0.2661  0.1282
    1W        W38519  18.444   5.064   8.873 -0.2147 -0.3837 -0.0510
    1W        W38520   6.225   9.442   1.833 -0.1050 -0.2511 -0.3773
    1W        W38521  27.749   9.505   1.034 -0.4786  0.1562 -0.5014
    1W        W38522  13.528  22.637   3.598 -0.1294 -0.2501 -0.1184
    1W        W38523   9.643  12.580   1.646 -0.0134  0.1160 -0.0708
    1W        W38524  22.337  10.181   7.765 -0.0105 -0.0571 -0.1747
    1W        W38525   9.139   9.900   7.859 -0.0294 -0.0115 -0.0776
    1W        W38526  10.796  20.776   1.217  0.0289  0.3361 -0.0233
    1W        W38527  11.479  26.220   2.988  0.0256  0.0249  0.0951
    1W        W38528   1.928  12.494   7.550  0.1456  0.1861 -0.3345
    1W        W38529   5.955   4.081   9.870 -0.2923  0.0654  0.0215
    1W        W38530   0.510  14.932   0.273  0.0104  0.1319  0.1165
    1W        W38531  27.996  24.523   8.633 -0.1009  0.2602 -0.0636
    1W        W38532  20.243   4.099   0.236  0.0796 -0.0517 -0.0262
    1W        W38533  14.435  10.320   6.673 -0.0045  0.0002 -0.2034
    1W        W38534  17.936   3.225   9.317 -0.0334  0.1405  0.0318
    1W        W38535  10.477  27.167   9.187  0.1527  0.0083 -0.0322
    1W        W38536  14.388  10.519   7.659  0.0577  0.2363  0.0992
    1W        W38537  17.264   6.563   9.550  0.2157  0.1213 -0.0544
    1W        W38538   7.592  21.010   2.201 -0.1663  0.0920 -0.1658
    1W        W38539  27.661  24.657   0.953 -0.0825 -0.1759  0.2465
    1W        W38540   7.935  17.737   8.584 -0.2805  0.3609  0.0723
    1W        W38541  22.445  19.356   7.062 -0.0882  0.3932 -0.3502
    1W        W38542   9.225   2.896   8.620 -0.1271  0.2214  0.1575
    1W        W38543  11.796  16.570   9.597 -0.2165  0.2150 -0.0365
    1W        W38544   2.151   4.798   2.020  0.0378  0.2349  0.1233
    1W        W38545  26.805  26.674   2.777  0.0832  0.3255  0.4245
    1W        W38546  10.823   9.659   6.251 -0.2879  0.0544 -0.2701
    1W        W38547  18.571   0.354   7.212 -0.1906 -0.2084 -0.0302
    1W        W38548  20.258  14.256   7.386 -0.0945  0.1199 -0.0662
    1W        W38549   8.824   2.934   3.057  0.2308  0.1594 -0.0740
    1W        W38550   1.941   9.796   1.213 -0.1790  0.3026  0.0257
    1W        W38551  13.298  13.219   7.897  0.2533 -0.0992 -0.1492
    1W        W38552  17.281   7.853   1.125  0.0285 -0.1974 -0.1675
    1W        W38553  28.190   4.080   1.648 -0.1564  0.1823  0.0198
    1W        W38554  18.189  12.945   7.223  0.2183 -0.0580 -0.0034
    1W        W38555  15.524  12.117   6.756 -0.1281  0.0360 -0.3823
    1W        W38556  26.444  26.514   1.125  0.0510  0.2012 -0.0232
    1W        W38557  21.779  18.893   6.597 -0.1778  0.2954 -0.1203
    1W        W38558   7.239  27.994   2.553  0.0388 -0.1335  0.1714
    1W        W38559  21.163  28.868   9.127 -0.2131 -0.0198  0.1478
    1W        W38560   6.051  28.519   0.948 -0.2378  0.2921 -0.0747
    1W        W38561  17.601  26.072   1.512  0.0461 -0.0008 -0.0046
    1W        W38562   7.304  17.050   3.033  0.1614  0.1202 -0.4767
    1W        W38563   8.066   5.716   8.725  0.0898  0.2773  0.1580
    1W        W38564   0.084   8.257   2.360  0.0110  0.1211 -0.1945
    1W        W38565  25.627  10.692   2.733 -0.0876  0.0715  0.2270
    1W        W38566   4.218   3.607   9.504 -0.1606 -0.2001  0.1486
    1W        W38567  25.882  11.862   8.811 -0.0992 -0.0102 -0.0563
    1W        W38568  26.811  15.363   9.629  0.1849 -0.3736 -0.0575
    1W        W38569   2.557  20.451   3.519 -0.3406  0.0959 -0.1533
    1W        W38570  27.917  11.991   1.920  0.2004 -0.0165  0.1535
    1W        W38571  15.937   6.221   0.786  0.0169  0.2257 -0.1522
    1W        W38572  24.309   0.884   1.583  0.2350  0.1502  0.1364
    1W        W38573   0.163  22.809   1.805 -0.0325 -0.1476 -0.0356
    1W        W38574  11.769  24.933   2.692  0.1877  0.1701 -0.0734
    1W        W38575   8.460   6.307   7.459  0.1346 -0.1762 -0.3328
    1W        W38576  26.146  25.919   7.825 -0.2902  0.0477  0.1107
    1W        W38577   5.247  25.679   9.503 -0.2806 -0.0990 -0.1492
    1W        W38578  26.300  23.225   8.630 -0.0727  0.0532 -0.0923
    1W        W38579   3.458   2.083   3.075 -0.1199 -0.3093  0.1395
    1W        W38580  25.022  23.169   2.187  0.0715  0.0882  0.0337
    1W        W38581  22.466  17.586   7.691  0.2942  0.0881  0.0769
    1W        W38582  16.099  14.782   7.880  0.1195 -0.4524 -0.3447
    1W        W38583  26.800  16.017   7.875 -0.2407  0.1938  0.4421
    1W        W38584  26.721  24.109   2.760  0.2800  0.1010  0.2686
    1W        W38585   0.582  28.107   8.811  0.0075 -0.4308 -0.0693
    1W        W38586   8.920  16.669   9.388 -0.1012 -0.0992 -0.0461
    1W        W38587   2.422  19.888   9.643 -0.2662 -0.0487  0.2197
    1W        W38588  12.055  16.840   2.146 -0.2485  0.0757 -0.0214
    1W        W38589  15.896  14.295   0.501 -0.2073  0.0679  0.1151
    1W        W38590   5.998  13.950   6.705  0.0296 -0.2742 -0.0420
    1W        W38591  25.826  15.676   2.632 -0.0011  0.4586 -0.3874
    1W        W38592   8.228   1.219   0.549  0.3634 -0.3732  0.0847
    1W        W38593  23.266  23.270   1.354  0.0615 -0.0057  0.2631
    1W        W38594   8.138   1.497   0.031  0.0907 -0.2316 -0.2141
    1W        W38595  23.427  23.348   8.933 -0.0913  0.0747 -0.0014
    1W        W38596   0.390   1.019   2.333  0.1457  0.0802 -0.1416
    1W        W38597   7.968  13.851   6.756 -0.1123 -0.6603 -0.0659
    1W        W38598   2.836  14.667   0.752 -0.0798  0.2398  0.1435
    1W        W38599  25.911  21.283   3.503 -0.2353  0.2951  0.1268
    1W        W38600   7.504   1.151   1.029 -0.2629 -0.0523 -0.1910
    1W        W38601  18.449  27.076   2.186  0.1928 -0.0286 -0.2366
    1W        W38602  18.476  28.874   7.969  0.5709 -0.2377  0.1395
    1W        W38603  13.630   2.492   2.561  0.1802 -0.0978 -0.0696
    1W        W38604  28.674   0.907   8.139  0.1042 -0.1163 -0.1971
    1W        W38605   9.852  20.324   8.246  0.0514  0.0157 -0.1342
    1W        W38606  27.368  10.906   7.250 -0.2004  0.0337 -0.0822
    1W        W38607  22.899  18.877   0.739 -0.2928 -0.0224 -0.1709
    1W        W38608  21.896   2.560   9.802  0.0173  0.2465  0.0634
    1W        W38609  21.890  22.062   9.244  0.0863 -0.1492 -0.1312
    1W        W38610   9.247   3.366   8.615  0.0312 -0.0483 -0.0371
    1W        W38611  13.158   3.795   8.581 -0.1898 -0.0523  0.1396
    1W        W38612   9.732   2.726   2.624  0.0493 -0.1197 -0.2419
    1W        W38613  23.150   5.452   6.775  0.0345 -0.0635 -0.4736
    1W        W38614   9.185   0.822   9.319  0.0659 -0.0759 -0.0542
    1W        W38615  27.390   7.214   3.559  0.2294 -0.1615 -0.0595
    1W        W38616  11.180  11.800   1.414 -0.0101  0.2848  0.1428
    1W        W38617  26.379  21.936   1.899  0.3844 -0.0267 -0.0028
    1W        W38618   7.381   6.303   9.778 -0.1102  0.1586  0.2834
    1W        W38619   6.760   4.435   2.328  0.0676 -0.1313 -0.0014
    1W        W38620  19.765   9.595   7.566  0.1936  0.2879  0.0246
    1W        W38621  18.545  10.079   9.859  0.0639 -0.0157 -0.2945
    1W        W38622   1.779  24.217   0.683  0.3609  0.1495  0.0676
    1W        W38623  23.261  22.506   8.341  0.1377  0.0010 -0.0219
    1W        W38624  14.202  26.426   8.766 -0.0069  0.1653 -0.2016
    1W        W38625  13.023  27.858   7.704 -0.2377  0.0628 -0.2579
    1W        W38626  22.448  22.777   8.358  0.0802 -0.3256  0.2073
    1W        W38627  17.004  20.121   8.617 -0.3150  0.4007 -0.5075
    1W        W38628  11.112  13.797   6.286  0.0205  0.2638  0.0642
    1W        W38629  23.273   9.632   1.434 -0.3517 -0.0545 -0.0145
    1W        W38630   3.355   0.178   8.135  0.0657  0.3064 -0.1707
    1W        W38631   5.518  21.801   8.287  0.0181 -0.1044 -0.4033
    1W        W38632  13.717   1.373   9.595  0.3995  0.0803  0.0180
    1W        W38633  26.588  27.177   0.329 -0.0305 -0.1364 -0.0957
    1W        W38634  14.473   9.860   7.406 -0.1036 -0.1288 -0.2450
    1W        W38635  24.245   1.367   3.411 -0.3050  0.0882  0.1307
    1W        W38636  11.508  15.719   1.769 -0.2619  0.3153  0.1965
    1W        W38637  21.127  10.086   0.130  0.2957  0.2007 -0.1200
    1W        W38638  17.517  23.172   9.741 -0.0538  0.1673 -0.1253
    1W        W38639   0.412  13.113   3.085 -0.1600 -0.2182  0.3376
    1W        W38640  26.363  11.684   6.964  0.1421 -0.3790  0.0781
    1W        W38641  19.516  22.202   8.578  0.2848  0.1176 -0.3745
    1W        W38642  12.022  25.674   7.275 -0.3840 -0.1954 -0.4480
    1W        W38643  14.680  23.601   0.581 -0.4332  0.0318  0.0678
    1W        W38644  26.944   9.574   0.718  0.4204  0.2709  0.0981
    1W        W38645  24.632  10.461   2.493  0.1245  0.0377 -0.1245
    1W        W38646  21.904  11.413   6.921  0.0865 -0.1955 -0.3997
    1W        W38647   1.017   7.248   3.495  0.1478  0.2402  0.0694
    1W        W38648  13.118  15.710   0.600  0.2322  0.1266  0.3137
    1W        W38649   8.875  22.842   3.614  0.4537 -0.1300  0.1205
    1W        W38650  10.252  21.272   1.623  0.3520  0.0587  0.1214
    1W        W38651  23.435   8.282   1.725  0.1719 -0.1174 -0.1899
    1W        W38652  20.424  21.375   9.580  0.0688  0.3089 -0.0795
    1W        W38653  10.677  15.722   7.160 -0.0882  0.2273 -0.0014
    1W        W38654  10.585  10.077   1.302  0.0354  0.0590 -0.1996
    1W        W38655   7.314  12.158   0.335  0.3025  0.1294 -0.4806
    1W        W38656  15.536  24.728   9.787  0.1971 -0.1189  0.1798
    1W        W38657  12.964   9.731   6.083 -0.2373  0.0132  0.1500
    1W        W38658  15.785  10.944   8.920 -0.0196  0.0119  0.0301
    1W        W38659  19.740  12.760   0.860  0.0487 -0.0660 -0.0627
    1W        W38660   3.596  15.158   9.959  0.2063  0.0228 -0.0787
    1W        W38661  20.817   8.232   8.102 -0.2208 -0.1675 -0.0655
    1W        W38662   6.153  20.427   8.265  0.1052  0.0167  0.0464
    1W        W38663  11.262  20.943   8.199  0.0284  0.1682  0.3394
    1W        W38664   3.328  13.949   8.458 -0.2500 -0.0610 -0.0963
    1W        W38665   8.263   4.778   2.033 -0.3753  0.2394 -0.0774
    1W        W38666   0.165   0.122   9.161  0.0061 -0.0096 -0.1090
    1W        W38667  18.740  23.080   9.742 -0.1756  0.1678  0.0673
    1W        W38668  25.275   6.471   8.606  0.1105  0.1622  0.4095
    1W        W38669  10.480  24.209   8.666  0.2330  0.0438 -0.2172
    1W        W38670   1.784  19.068   1.407 -0.1249 -0.2876 -0.2882
    1W        W38671  25.333   4.042   8.043  0.0124 -0.0411  0.0047
    1W        W38672  11.878  22.879   0.596  0.0070 -0.2855  0.0606
    1W        W38673  16.726  13.987   1.333  0.1006 -0.1021  0.1377
    1W        W38674  22.219   8.128   9.939  0.0036  0.2798 -0.3368
    1W        W38675  20.100   1.993   0.394  0.2993 -0.0242  0.0192
    1W        W38676   9.121  27.653   8.002  0.1168 -0.1781 -0.0967
    1W        W38677   0.840  12.767   3.007  0.0057 -0.1022  0.2388
    1W        W38678  26.413  27.818   9.440  0.0215 -0.1951  0.0913
    1W        W38679  15.292  16.434   7.936 -0.3137 -0.1800  0.4130
    1W        W38680   1.018  16.905   1.448 -0.1191 -0.3995  0.0611
    1W        W38681   3.642  22.592   9.981 -0.0832 -0.0596  0.2430
    1W        W38682  18.493   5.323   0.825 -0.1752 -0.1106 -0.1533
    1W        W38683  15.237  27.822   9.733  0.0827 -0.2346 -0.3194
    1W        W38684  21.056  10.261   6.515 -0.0362 -0.0831 -0.0620
    1W        W38685   9.827   5.209   9.139 -0.0766  0.2115  0.0661
    1W        W38686  15.793   3.531   9.365 -0.0608  0.0714 -0.2243
    1W        W38687   4.569  20.934   9.081 -0.0806 -0.1253 -0.2013
    1W        W38688  21.786   8.937   1.360 -0.2221 -0.0719 -0.2072
    1W        W38689  28.868  18.251   9.796 -0.0844  0.0467  0.1703
    1W        W38690  20.576  23.665   2.024 -0.1787  0.4524 -0.2163
    1W        W38691  26.877  18.506   7.864  0.0425 -0.2136  0.2833
    1W        W38692   3.171   3.305   3.575 -0.1516  0.0893 -0.1936
    1W        W38693   7.272   1.056   2.085 -0.0392  0.1071 -0.0321
    1W        W38694  23.868   2.814   9.660  0.2192  0.0888  0.1452
    1W        W38695   7.308  24.016   9.860  0.0992 -0.1288 -0.0163
    1W        W38696   0.708  19.540   2.101  0.0492  0.0047  0.0682
    1W        W38697  21.912  16.613   6.234 -0.1701  0.0454  0.0139
    1W        W38698  14.233   1.860   0.098 -0.0845 -0.0059 -0.0715
    1W        W38699   5.989  10.818   2.681  0.1589  0.0707 -0.0483
    1W        W38700  25.917  14.515   0.032 -0.1060 -0.1854  0.1175
    1W        W38701  22.072   3.038   0.582 -0.1540  0.2719  0.0789
    1W        W38702  24.154  17.107   2.131 -0.0513  0.4241 -0.0146
    1W        W38703   2.446  23.333   9.031 -0.0862 -0.0657  0.2502
    1W        W38704   3.333  13.525   2.598 -0.1423  0.0030  0.2258
    1W        W38705  27.225  21.006   2.725  0.1618  0.2854  0.0659
    1W        W38706   6.845   8.065   8.451 -0.2608  0.1453 -0.2962
    1W        W38707  24.834   9.649   1.541 -0.0155 -0.3605  0.0954
    1W        W38708  12.041  18.695   9.563  0.1792 -0.0466 -0.1860
    1W        W38709   9.969   2.368   2.245  0.0233 -0.2785  0.2461
    1W        W38710   1.711   7.829   1.009  0.0837  0.1292 -0.3134
    1W        W38711   3.590  24.931   3.291  0.2410  0.2387  0.3286
    1W        W38712  10.810   1.945   1.397  0.1162  0.0736  0.0472
    1W        W38713  18.475  15.674   0.776  0.0709 -0.0685 -0.0928
    1W        W38714   5.739  27.295   9.449  0.1258  0.0713  0.2057
    1W        W38715  23.904   8.316   0.098 -0.1496 -0.1431  0.2669
    1W        W38716  19.054   2.198   1.904  0.0575 -0.2636 -0.0076
    1W        W38717  24.794  20.992   0.436  0.1774 -0.1394  0.0840
    1W        W38718   4.282   9.741   9.241  0.1842 -0.0096 -0.1469
    1W        W38719   4.737   8.556   8.523 -0.3817 -0.3248  0.0209
    1W        W38720  16.487  16.158   8.288 -0.0510 -0.2259  0.0249
    1W        W38721  12.241  20.791   8.212  0.1055  0.3072  0.1484
    1W        W38722   3.761   4.946   0.810  0.1993  0.1682 -0.1627
    1W        W38723  10.373   6.653   1.060 -0.0940  0.1192 -0.2253
    1W        W38724  27.729   1.529   3.205  0.2795 -0.0005 -0.1877
    1W        W38725   9.569  27.503   9.776 -0.0447  0.2026  0.0430
    1W        W38726  24.403   4.346   1.888  0.2429 -0.0565  0.2675
    1W        W38727  13.115   0.489   1.833  0.1291 -0.2133 -0.2839
    1W        W38728  19.016   3.054   0.301  0.1537 -0.0437  0.0233
    1W        W38729  26.810  11.021   1.608  0.0900  0.0675  0.0368
    1W        W38730  18.631   3.663   1.858  0.2273  0.0992  0.1164
    1W        W38731   7.397   7.563   8.113  0.3794  0.1673 -0.1748
    1W        W38732  15.884  26.520   0.297  0.0489  0.0216 -0.1620
    1W        W38733  20.929  14.035   8.197  0.2850  0.1411 -0.1612
    1W        W38734  28.773   7.170   1.426  0.0712 -0.2242 -0.0475
    1W        W38735   3.099   4.552   9.114  0.1205  0.3425  0.0153
    1W        W38736   7.525   2.355   2.745 -0.1025 -0.5251  0.1455
    1W        W38737   6.504   7.696   8.699  0.0532 -0.0700  0.1189
    1W        W38738  22.551  15.926   1.949 -0.1110 -0.0512  0.3883
    1W        W38739   9.868   1.083   2.315  0.0208  0.2368  0.0955
    1W        W38740   6.858   3.039   1.598  0.1140 -0.1057  0.1056
    1W        W38741  22.933   7.559   9.093  0.0492  0.1981 -0.0404
    1W        W38742  19.218   8.706   7.730 -0.0500  0.0642  0.1166
    1W        W38743  23.071   0.991   7.067 -0.3066 -0.2200  0.0658
    1W        W38744  26.609  14.893   1.783 -0.5382 -0.0183  0.2180
    1W        W38745  26.355  21.181   0.523 -0.0301  0.1708  0.2535
    1W        W38746   5.181  11.471   1.970  0.0605  0.1071 -0.0178
    1W        W38747  22.811  13.592   2.269 -0.1597  0.1488  0.2445
    1W        W38748  28.542  11.560   1.373  0.0520  0.1169 -0.3198
    1W        W38749  10.138   8.575   9.080  0.0063  0.0186  0.1262
    1W        W38750   7.163  25.939   1.294  0.0112  0.1482  0.0710
    1W        W38751  22.626  27.555   0.616 -0.0110 -0.1157  0.3331
    1W        W38752  13.722  20.777   1.078  0.0651 -0.2044 -0.0841
    1W        W38753  18.448   8.852   9.835  0.2585  0.1766 -0.1874
    1W        W38754   2.025   1.697   9.546  0.0475  0.0906  0.2197
    1W        W38755  18.882   7.615   6.699 -0.2016  0.0686  0.4385
    1W        W38756   7.647  10.693   8.315  0.1236 -0.2979 -0.1904
    1W        W38757  22.315  13.608   1.415 -0.1384  0.0377 -0.0761
    1W        W38758  28.557   2.240   8.744  0.0040 -0.1961  0.1209
    1W        W38759   0.717  11.818   2.033  0.1874  0.0594  0.1952
    1W        W38760  17.518   5.037   6.786 -0.2208 -0.3475  0.5187
    1W        W38761  14.794  23.274   9.607  0.1304 -0.3706  0.3146
    1W        W38762  16.326   0.724   0.337 -0.0997  0.1067 -0.0877
    1W        W38763  28.838  18.069   7.860  0.0363 -0.0166  0.0725
    1W        W38764  25.934   5.296   3.271  0.3411  0.0891 -0.1716
    1W        W38765  11.180   4.367   6.413 -0.2852 -0.2207 -0.0624
    1W        W38766  24.048  25.134   0.534  0.2373  0.0026  0.1205
    1W        W38767   9.103   0.732   0.967 -0.0228  0.1486 -0.1558
    1W        W38768  17.633  13.705   1.766  0.1322 -0.0579 -0.1995
    1W        W38769   9.863   5.907   8.888 -0.0308  0.1713  0.2428
    1W        W38770  17.192  20.395   7.215 -0.2414  0.3782 -0.1200
    1W        W38771   7.268  27.485   0.165 -0.0746  0.1017 -0.1150
    1W        W38772   5.593   6.641   9.979  0.4547 -0.1453 -0.0787
    1W        W38773  20.105  14.747   0.084 -0.0014 -0.0487  0.1984
    1W        W38774  24.649   0.022   1.490 -0.1415 -0.1483  0.3046
    1W        W38775  11.230   6.034   0.259  0.2237 -0.1694  0.0208
    1W        W38776  19.592  14.140   6.847 -0.0934 -0.0395 -0.1318
    1W        W38777  26.686  13.359   0.358 -0.2367 -0.0493  0.1886
    1W        W38778  18.349   9.839   0.294 -0.0475 -0.0254 -0.0177
    1W        W38779  25.657  18.709   9.618 -0.1009  0.2166  0.1926
    1W        W38780  23.143   7.869   7.525  0.1148 -0.0011 -0.0565
    1W        W38781  27.346  16.663   9.839  0.0809  0.0521 -0.1359
    1W        W38782  13.816  13.682   1.730  0.0338 -0.0089 -0.4313
    1W        W38783  24.961  21.173   8.091 -0.1616 -0.0563  0.0625
    1W        W38784  20.510   5.616   9.524 -0.1326 -0.1880 -0.0906
    1W        W38785  28.760  28.845   0.730  0.1905  0.0217 -0.2307
    1W        W38786  25.165  14.510   0.727 -0.3419 -0.0372 -0.1211
    1W        W38787  14.551   0.159   7.346 -0.0185 -0.2187  0.1794
    1W        W38788  18.314   4.502   6.778  0.1559  0.0871 -0.2092
    1W        W38789  10.081  21.050   8.798  0.3137 -0.0640 -0.3027
    1W        W38790   2.647  16.610   0.037  0.2403  0.0335  0.1895
    1W        W38791  10.630  23.676   9.854 -0.3036 -0.1794 -0.2023
    1W        W38792  27.269  23.012   1.837 -0.4256  0.0338  0.0191
    1W        W38793   8.471  12.214   0.346  0.2054 -0.0767 -0.1505
    1W        W38794   0.579  23.262   7.890 -0.1472  0.0052 -0.1534
    1W        W38795  15.474  22.884   7.322  0.0698 -0.0046 -0.3600
    1W        W38796  27.809  16.854   9.675  0.4586 -0.1538  0.0302
    1W        W38797  11.192   9.926   6.555 -0.0457 -0.0278 -0.1305
    1W        W38798  23.915  14.133   2.199  0.3361 -0.1164 -0.4490
    1W        W38799   6.024  25.599   8.065 -0.2265  0.0111  0.0462
    1W        W38800   7.975   3.233   3.065  0.0837  0.0346  0.1853
    1W        W38801  26.844  26.001   4.180  0.0828 -0.0072 -0.2381
    1W        W38802  21.739   9.507   8.376 -0.4426 -0.2431  0.0487
    1W        W38803   9.743  10.324   8.528  0.0280  0.0711 -0.1007
    1W        W38804  20.747  24.418   7.162  0.0346 -0.1283  0.1111
    1W        W38805   4.535  17.787   1.593  0.2245  0.0593 -0.2149
    1W        W38806  23.334   2.261   1.461  0.1442 -0.0170  0.0080
    1W        W38807  28.761   0.417   9.895 -0.0247 -0.0033  0.0916
    1W        W38808   3.682   7.864   8.368  0.1273  0.0573  0.0962
    1W        W38809  28.862  18.783   3.991 -0.2821  0.2468 -0.0098
    1W        W38810  15.985  11.842   0.268  0.1604  0.0605  0.1382
    1W        W38811   3.540  12.241   1.547  0.2237 -0.0322  0.2396
    1W        W38812   3.984  14.857   1.677 -0.0475  0.1768  0.1502
    1W        W38813   9.217  25.829   7.716  0.1337 -0.0630  0.1399
    1W        W38814   4.856   8.939   9.229  0.1515 -0.3377  0.1838
    1W        W38815  19.325  21.078   7.500  0.3399 -0.0606  0.0330
    1W        W38816  15.857  13.706   8.004  0.0601  0.2901 -0.3550
    1W        W38817  15.945  15.450   9.398 -0.1329  0.1543 -0.2830
    1W        W38818  24.274  22.846   1.251  0.0687  0.1416  0.3227
    1W        W38819   3.120  21.130   8.758  0.0811  0.1170  0.1909
    1W        W38820   7.529   1.747   9.677  0.3350 -0.0638  0.0118
    1W        W38821  23.661   6.450   8.851  0.2105  0.3598  0.1675
    1W        W38822  28.053  25.623   2.071 -0.0980 -0.2586  0.3623
    1W        W38823  18.737  11.008   6.040 -0.3399  0.0516 -0.2127
    1W        W38824  20.092  23.734   7.496 -0.0928  0.3632  0.0746
    1W        W38825  10.028   3.825   8.776 -0.0304 -0.1015  0.2067
    1W        W38826  19.450   3.930   8.808  0.2891 -0.0838 -0.0937
    1W        W38827  16.781  11.984   1.692  0.0054 -0.1515  0.0545
    1W        W38828  18.886  26.527   8.647 -0.0528 -0.0132 -0.1392
    1W        W38829  28.018  28.315   3.670 -0.2466  0.2518  0.1233
    1W        W38830  23.253   8.990   9.414  0.0223  0.1023 -0.0812
    1W        W38831  23.626  20.209   7.696  0.1221  0.2760 -0.2149
    1W        W38832   3.727  17.925   8.606  0.0900  0.3987  0.0325
    1W        W38833   0.956   3.512   9.318 -0.3387 -0.0771 -0.1849
    1W        W38834   5.688   1.516   3.313 -0.0518  0.0849 -0.1013
    1W        W38835  26.143  25.097   0.714 -0.2007 -0.2574 -0.0049
    1W        W38836  11.475  14.549   1.690  0.1733  0.2631 -0.2492
    1W        W38837  13.327  26.328   0.584  0.0270  0.1150  0.0943
    1W        W38838  13.084  11.049   6.102 -0.1396  0.0694 -0.0389
    1W        W38839  20.237  15.740   1.862  0.4229 -0.2338 -0.1576
    1W        W38840   0.154  25.142   7.597 -0.1618 -0.0231  0.4577
    1W        W38841  18.849   5.998   7.346 -0.5372 -0.1800 -0.2604
    1W        W38842   4.066  24.245   0.287  0.3708  0.0255  0.3639
    1W        W38843  22.932  21.439   9.045  0.3953 -0.1554 -0.0057
    1W        W38844  24.764  12.414   0.130  0.2366  0.1922 -0.0221
    1W        W38845  17.754  26.940   8.276  0.1162  0.1412 -0.1989
    1W        W38846  23.309  27.761   1.132 -0.3681 -0.0638 -0.0042
    1W        W38847  27.414   0.629   7.696 -0.1405 -0.3095  0.0581
    1W        W38848  18.543  24.817   9.589  0.0416 -0.2636 -0.0168
    1W        W38849  25.974   6.361   0.386 -0.5269 -0.0435 -0.0977
    1W        W38850  14.134   4.965   1.854  0.0057  0.1876  0.1113
    1W        W38851   5.896  16.795   0.530 -0.0190 -0.0047 -0.0571
    1W        W38852  17.591  11.424   7.587 -0.1860  0.0441 -0.0431
    1W        W38853   4.905   1.409   9.034 -0.0283  0.0887  0.0957
    1W        W38854  16.751  18.996   8.168  0.3114 -0.0605  0.3125
    1W        W38855  27.774  11.763   9.732 -0.5601 -0.0415 -0.2658
    1W        W38856   5.660  12.246   3.079 -0.0575  0.0902  0.1017
    1W        W38857  21.242   6.576   6.917 -0.0769 -0.1891 -0.2054
    1W        W38858  26.243  26.022   2.156  0.3287 -0.1571 -0.0814
    1W        W38859  24.182  12.223   2.880 -0.2352  0.4268 -0.0343
    1W        W38860  17.711  21.431   6.756 -0.2181 -0.2436 -0.1768
    1W        W38861  25.810   0.806   0.336  0.1243 -0.0690 -0.2130
    1W        W38862  23.383  27.894   8.916  0.0037  0.0184 -0.0123
    1W        W38863  25.386  14.665   6.841 -0.0276  0.0479 -0.0014
    1W        W38864  18.827   2.027   7.100 -0.0226 -0.2304 -0.3340
    1W        W38865   1.511  26.874   7.763 -0.0294  0.0064  0.0732
    1W        W38866  25.008  14.444   8.075  0.1800  0.2053 -0.1246
    1W        W38867   6.037  27.253   1.770  0.2895  0.2243 -0.0492
    1W        W38868   3.771  10.068   1.296 -0.1036  0.1029 -0.1168
    1W        W38869   8.323  24.236   9.811 -0.1916 -0.1223 -0.0252
    1W        W38870   4.585  22.081   8.744 -0.0079  0.0345  0.1218
    1W        W38871  17.291   5.195   1.577 -0.0808  0.0428 -0.1985
    1W        W38872  25.759  14.075   9.707 -0.2575  0.2300  0.0510
    1W        W38873  20.299  25.768   9.696  0.0387  0.1309  0.2463
    1W        W38874   6.550   5.863   8.051  0.3355 -0.1017 -0.0782
    1W        W38875  22.216  27.810   0.668  0.1143 -0.0397  0.3593
    1W        W38876  23.686  13.949   7.955  0.2831  0.2321  0.1620
    1W        W38877  17.175  13.305   9.355 -0.0223 -0.1265 -0.3930
    1W        W38878   9.954  12.039   7.909  0.1556  0.0043  0.1831
    1W        W38879   7.061   5.648   9.090  0.0240 -0.4121  0.1716
    1W        W38880   9.877   6.470   9.144 -0.1449 -0.1241  0.2099
    1W        W38881  17.064   2.947   8.948 -0.3029 -0.1587 -0.2135
    1W        W38882  16.078  15.213   7.496  0.1261 -0.1766 -0.2887
    1W        W38883  28.093  25.349   9.774 -0.1242 -0.1189 -0.1084
    1W        W38884   1.215  24.619   4.258  0.3009  0.0204 -0.0064
    1W        W38885  25.003  15.421   8.035  0.0931  0.0948  0.2565
    1W        W38886  15.188  26.480   8.897 -0.0253 -0.1518  0.1168
    1W        W38887  11.657  14.849   1.231  0.1681 -0.1390  0.1282
    1W        W38888  20.864  24.296   8.347 -0.1831  0.0537 -0.1543
    1W        W38889  25.150   4.836   1.707  0.1457 -0.0388 -0.2570
    1W        W38890  18.935  25.406   9.905  0.0429 -0.1727 -0.1088
    1W        W38891   7.276  17.835   8.981 -0.1610  0.0590 -0.0797
    1W        W38892   2.024  20.279   2.699 -0.1189  0.0529  0.1080
    1W        W38893  27.518   1.270   1.071 -0.0301  0.4213  0.0827
    1W        W38894   3.920  19.907   7.432 -0.0210  0.2356  0.2521
    1W        W38895  14.023  26.824   7.831  0.1794  0.1400  0.0319
    1W        W38896  23.206  12.311   2.795  0.2132 -0.2610 -0.1141
    1W        W38897   8.828   7.583   3.060  0.1850 -0.2387 -0.1049
    1W        W38898  21.604  20.372   9.457  0.1144 -0.0275  0.2747
    1W        W38899  25.419   8.531   2.642  0.2561  0.3331  0.4636
    1W        W38900  23.820  28.595   9.488  0.0184  0.1503 -0.1427
    1W        W38901  18.876  14.581   7.072  0.6270  0.1026  0.0998
    1W        W38902  12.631  10.452   8.791 -0.1661  0.1108  0.0627
    1W        W38903   3.018  17.317   3.068  0.0013  0.2490  0.1346
    1W        W38904   2.134  27.001   1.748 -0.0060 -0.0779  0.0401
    1W        W38905   2.640   0.745   2.512  0.1919 -0.1234  0.0669
    1W        W38906  18.559  10.171   9.040 -0.0861  0.1012  0.0674
    1W        W38907  23.009  19.309   9.792  0.0531 -0.0661  0.1857
    1W        W38908  10.951   2.128   9.138 -0.0373  0.4140 -0.0480
    1W        W38909   0.196  25.962   0.812  0.1101  0.1019 -0.0640
    1W        W38910  10.987   0.084   2.390 -0.2213 -0.0417  0.0604
    1W        W38911   6.235  14.294   7.828 -0.2068  0.0144  0.0336
    1W        W38912  28.149  28.620   0.034  0.0808  0.2265  0.0359
    1W        W38913  18.403  13.532   0.829 -0.1928 -0.1231 -0.0297
    1W        W38914   5.033   0.256   8.686  0.2874 -0.1696  0.1180
    1W        W38915  16.942  25.820   3.183 -0.0186 -0.3319  0.0988
    1W        W38916   8.288  18.632   6.746  0.2548 -0.1148  0.0055
    1W        W38917  10.847  18.345   1.284 -0.0216 -0.0119  0.0257
    1W        W38918   2.014  23.451   9.949 -0.2304 -0.0407 -0.0976
    1W        W38919  19.558   9.621   5.696 -0.1480 -0.0539  0.1762
    1W        W38920  15.224  24.050   2.266  0.3282 -0.2991  0.0465
    1W        W38921  15.557   9.918   8.919 -0.0170 -0.1955  0.1785
    1W        W38922  26.885  21.030   8.662 -0.3602 -0.0173 -0.0998
    1W        W38923   8.685  24.094   8.530  0.1345 -0.0453  0.3426
    1W        W38924   8.206   7.871   8.653 -0.4308  0.0999  0.5519
    1W        W38925   4.438   1.558   9.088 -0.0709  0.0119  0.3197
    1W        W38926  11.459   9.519   8.494  0.3543  0.2317 -0.1933
    1W        W38927   9.027  10.760   8.891 -0.0786 -0.0438 -0.2402
    1W        W38928   7.943  23.150   0.618  0.1485  0.2143 -0.2854
    1W        W38929   2.901   1.498   1.887  0.1831  0.5325 -0.0009
    1W        W38930  15.367  20.216   8.105 -0.1159 -0.1184 -0.2187
    1W        W38931  15.822   9.007   5.487 -0.0053 -0.2583 -0.0865
    1W        W38932  19.849  28.504   8.669  0.1665  0.0756 -0.1312
    1W        W38933   0.422  22.480   3.991  0.0638  0.2195 -0.2411
    1W        W38934  11.066  14.282   6.193  0.1743 -0.3244  0.2327
    1W        W38935   7.609   4.826   8.458 -0.0193  0.0459  0.0175
    1W        W38936  26.237  14.801   3.339 -0.0655 -0.3322 -0.0155
    1W        W38937  12.472  15.997   9.902 -0.1406  0.1560  0.0947
    1W        W38938   4.523   5.249   7.770  0.1973  0.0216  0.1849
    1W        W38939   8.654   9.989   8.131 -0.0868  0.3727 -0.1602
    1W        W38940  21.270  24.962   0.816 -0.2022 -0.0182 -0.0589
    1W        W38941  21.254   6.072   0.358 -0.2724  0.1632 -0.2769
    1W        W38942   3.346  16.880   0.700 -0.1654 -0.0356  0.1170
    1W        W38943  15.466  24.910   2.280 -0.0616  0.1879  0.0523
    1W        W38944  10.118  12.088   7.360 -0.2973  0.1267 -0.1362
    1W        W38945   9.087  25.279   1.246  0.0591  0.0872  0.0890
    1W        W38946  11.854   2.079   8.701  0.1023  0.0391 -0.0562
    1W        W38947  27.189  20.509   2.299  0.2481  0.0131  0.1565
    1W        W38948  25.838   2.328   8.150 -0.0594 -0.2703 -0.0497
    1W        W38949  17.755   7.288   7.222  0.1848 -0.3055  0.2135
    1W        W38950  28.200  26.311   9.143 -0.1078 -0.1135 -0.1373
    1W        W38951  17.182   9.747   6.648 -0.2659  0.0389 -0.0917
    1W        W38952   5.886  15.296   6.938 -0.0632 -0.0291  0.0896
    1W        W38953  12.291  21.196   8.499  0.0701  0.2262  0.1264
    1W        W38954   4.312   9.783   7.230  0.2214  0.3165  0.0760
    1W        W38955   2.417   7.559   8.806 -0.1205 -0.2239 -0.0747
    1W        W38956  11.680  16.441   2.135  0.0154  0.2343  0.2307
    1W        W38957   0.718   5.954   2.227 -0.1537  0.0794 -0.3598
    1W        W38958   5.172   4.486   0.244  0.2527 -0.1108 -0.0554
    1W        W38959  20.669   6.677   9.128 -0.1761 -0.3270 -0.0161
    1W        W38960  19.120  19.444   8.734 -0.0509 -0.1547 -0.0746
    1W        W38961  21.605  22.418   9.453  0.1377  0.0248  0.1353
    1W        W38962  11.852  17.989   8.105  0.1881  0.0422  0.0068
    1W        W38963  27.662   7.894   3.767 -0.0332 -0.1592  0.4026
    1W        W38964  17.809   6.891   8.406  0.0455 -0.3217 -0.0072
    1W        W38965  27.991  23.792   2.046  0.0406  0.1009 -0.0136
    1W        W38966  15.604   5.687   6.642  0.0199  0.3690 -0.1737
    1W        W38967  12.595   8.541   6.048  0.3499 -0.2560  0.1597
    1W        W38968   6.722  19.383   9.728 -0.0295 -0.1524  0.0092
    1W        W38969   3.418  12.628   1.828  0.2571 -0.0573 -0.1935
    1W        W38970   1.960  20.264   0.867 -0.4718  0.1690 -0.2117
    1W        W38971  14.198  10.304   7.172 -0.1139 -0.1236  0.0363
    1W        W38972  22.264   7.574   6.768 -0.2859 -0.0799  0.1007
    1W        W38973  10.750   2.516   2.138  0.0547 -0.0221 -0.0577
    1W        W38974   5.696  11.972   8.737  0.2976 -0.0720  0.4231
    1W        W38975  14.615  19.919   0.159  0.2544 -0.0311 -0.0526
    1W        W38976   6.989   7.125   8.195  0.2641  0.0870  0.0412
    1W        W38977  20.046   3.145   6.325  0.0007  0.0410  0.0844
    1W        W38978  20.049   0.717   2.675  0.1360 -0.1682  0.0408
    1W        W38979  21.409  10.885   9.593 -0.0722 -0.2113 -0.3343
    1W        W38980  16.029  20.595   0.451 -0.1855  0.2726 -0.2871
    1W        W38981   1.226  26.031   0.906 -0.0479 -0.0335  0.3141
    1W        W38982   7.946  16.427   8.413  0.2133  0.1763 -0.0665
    1W        W38983   6.900   9.292   7.064 -0.0108 -0.1237  0.1350
    1W        W38984  11.996   7.743   1.044  0.0280 -0.4421  0.0894
    1W        W38985  20.450  17.235   1.437  0.0455 -0.2359 -0.3404
    1W        W38986  25.529   8.034   2.734 -0.3647 -0.3351  0.1766
    1W        W38987   3.601   6.726   9.552  0.0927 -0.1390  0.0178
    1W        W38988   4.799  28.751   3.263  0.1199 -0.1746  0.0686
    1W        W38989  16.403   8.131   7.371  0.1388  0.0240  0.0438
    1W        W38990  25.805  23.015   2.536 -0.2667  0.2067 -0.1855
    1W        W38991  14.571  15.779   7.455  0.3433 -0.3160  0.2683
    1W        W38992   0.494  14.097   8.489 -0.2303  0.1779  0.3041
    1W        W38993  15.149  10.485   0.312  0.3454 -0.0623  0.2455
    1W        W38994  25.143  10.469   8.794 -0.0914  0.0163  0.0717
    1W        W38995  22.402  28.800   0.293  0.0015  0.0473  0.2145
    1W        W38996  26.719  15.395   0.948 -0.1376  0.2427  0.5229
    1W        W38997  17.171  11.730   5.989  0.1130 -0.1464 -0.3408
    1W        W38998   5.351  15.103   1.970  0.1210  0.3022  0.1719
    1W        W38999  18.673   1.831   1.827  0.0814  0.0098  0.1722
    1W        W39000  22.239  16.914   8.267 -0.2348 -0.0873 -0.0899
    1W        W39001  16.712  16.987   2.866 -0.1044  0.2655  0.1054
    1W        W39002  24.647  14.200   3.597  0.0570 -0.1936  0.2131
    1W        W39003  18.347  11.454   9.603 -0.1823  0.4021 -0.4279
    1W        W39004  26.746   3.949   9.895  0.0153 -0.1380 -0.1373
    1W        W39005  13.517  26.066   9.443 -0.1129 -0.2272 -0.2492
    1W        W39006  14.362   3.540   7.248  0.0492  0.0152 -0.1209
    1W        W39007  11.153  16.626   2.140 -0.1324  0.1770  0.2435
    1W        W39008  15.286  13.686   1.376  0.1905 -0.1907 -0.2610
    1W        W39009   7.853  23.659   0.582 -0.2453 -0.2970  0.2533
    1W        W39010  22.885  22.130   0.202  0.0192  0.0094 -0.2993
    1W        W39011  27.511  16.843   1.657  0.0610  0.1564 -0.2686
    1W        W39012  26.308   8.533   9.124  0.0532 -0.2641  0.1557
    1W        W39013   1.707  16.179   1.698 -0.2232 -0.3310  0.0198
    1W        W39014  27.669  23.299   1.992  0.1144  0.1374  0.0323
    1W        W39015   1.693  13.293   1.888  0.0683  0.2093 -0.1123
    1W        W39016  14.009   9.065   8.681  0.0579 -0.0536 -0.1383
    1W        W39017  25.013  12.276   7.708 -0.1320 -0.2006  0.1710
    1W        W39018   1.864  14.290   9.777 -0.1487  0.2185  0.1416
    1W        W39019   7.974  17.006   6.120 -0.0032  0.1070  0.3673
    1W        W39020  26.203  10.441   8.628 -0.0765  0.1509 -0.0930
    1W        W39021   0.436   3.583   2.386 -0.0822  0.1848  0.1026
    1W        W39022  16.278  12.993   7.499  0.0806 -0.0240  0.0139
    1W        W39023  16.329   3.151   7.481 -0.3552  0.0075 -0.0730
    1W        W39024  24.800  24.727   1.760  0.1380 -0.2649  0.0224
    1W        W39025  15.521   9.767   9.566 -0.0215 -0.0586  0.2885
    1W        W39026   4.889  27.784   3.389  0.0541  0.1313  0.1977
    1W        W39027   3.180   7.641   2.070  0.0870  0.3072 -0.2797
    1W        W39028  28.204   3.312   8.173  0.1314  0.0525  0.2598
    1W        W39029  18.991  11.888   9.851  0.3131 -0.1973  0.0417
    1W        W39030   6.368   8.831   2.372 -0.3340  0.1315  0.0872
    1W        W39031  24.570   9.098   8.390 -0.0799 -0.0170  0.1571
    1W        W39032   7.911   8.286   2.301 -0.0957  0.3283 -0.1482
    1W        W39033  12.114   5.832   1.760  0.0250 -0.1296 -0.1265
    1W        W39034  14.341  23.097   1.589  0.1266  0.2323 -0.0449
    1W        W39035  20.117  17.786   8.998  0.0451 -0.3395  0.2876
    1W        W39036  11.990  22.383   9.674 -0.4449  0.0890 -0.1031
    1W        W39037   1.428   9.160   0.798  0.0887 -0.2807 -0.3781
    1W        W39038   2.306  21.477   8.296  0.0265  0.2060  0.1046
    1W        W39039   9.311  16.564   7.382  0.0335 -0.1480 -0.0038
    1W        W39040  11.404  11.659   8.828  0.1223  0.1569  0.1400
    1W        W39041  13.961  23.497   9.420 -0.1648  0.0822 -0.0480
    1W        W39042  15.542  28.153   0.805 -0.0394 -0.1508 -0.2435
    1W        W39043  11.984   5.012   7.801  0.0612 -0.2162  0.1516
    1W        W39044   0.924  16.234   3.003  0.0606 -0.0405  0.0284
    1W        W39045   7.621  14.629   5.756 -0.0140 -0.1853 -0.0433
    1W        W39046   4.873  19.067   2.357  0.1852  0.3604 -0.2394
    1W        W39047  22.212   3.160   7.183  0.0633  0.0548  0.2471
    1W        W39048  15.164  18.625   8.145  0.0529  0.1296  0.2769
    1W        W39049  19.136   4.530   1.567  0.0563  0.0306  0.0354
    1W        W39050   8.354  26.770   0.060  0.1238 -0.1070 -0.2160
    1W        W39051  20.265  20.014   0.146  0.3391 -0.1586  0.2203
    1W        W39052   4.057   6.658   1.135 -0.0452  0.2283 -0.1588
    1W        W39053  21.780  19.492   7.408 -0.0051  0.2001  0.0162
    1W        W39054   7.952   3.402   8.300 -0.0046  0.3811  0.2118
    1W        W39055   7.769   1.254   3.140 -0.1428  0.1284 -0.1123
    1W        W39056  23.217   6.170   9.061 -0.2422 -0.1796  0.1205
    1W        W39057  15.144   8.126   9.771  0.2501  0.2891  0.2173
    1W        W39058   6.443   7.732   2.456  0.1291  0.2442  0.2155
    1W        W39059  18.147  12.977   0.310 -0.0234 -0.3039 -0.2696
    1W        W39060  19.686  16.210   0.953 -0.1191  0.0537  0.0603
    1W        W39061   9.486  13.271   7.982  0.2550  0.0867  0.0779
    1W        W39062  24.634  12.110   2.665 -0.0278 -0.0360 -0.0682
    1W        W39063  10.717  23.389   8.073  0.1064 -0.1137  0.4718
    1W        W39064  24.663  11.861   7.972  0.0632 -0.0494 -0.0814
    1W        W39065  19.952   8.133   9.429 -0.2173  0.1991  0.0458
    1W        W39066   6.283  19.570   2.231 -0.0490 -0.4608 -0.0385
    1W        W39067  24.922  26.790   9.277 -0.0592  0.1116 -0.0528
    1W        W39068  26.662  13.163   7.821 -0.2377 -0.0819  0.3212
    1W        W39069   9.032  20.151   9.959  0.2536 -0.0673  0.0343
    1W        W39070  23.589   6.947   1.131  0.0108 -0.1613  0.0422
    1W        W39071   6.613   7.082   8.700 -0.2287  0.1517  0.0784
    1W        W39072   7.731  26.481   3.711  0.1019 -0.1936  0.4039
    1W        W39073   0.383  11.701   2.405  0.0170  0.1023 -0.1873
    1W        W39074  14.791   6.247   6.523 -0.0858 -0.2446  0.0314
    1W        W39075  12.350  25.544   0.343  0.0939 -0.1700  0.1777
    1W        W39076  17.201  21.968   9.515 -0.0418  0.4496  0.0068
    1W        W39077  28.230  20.867   2.469  0.0785  0.2849  0.1724
    1W        W39078   0.069  26.479   9.185  0.1143 -0.3676  0.2467
    1W        W39079  14.367  27.055   7.512  0.4144  0.1831 -0.0647
    1W        W39080   1.308  25.993   8.362 -0.1965  0.0631  0.1089
    1W        W39081   8.223  21.489   3.267  0.2247  0.0790  0.0684
    1W        W39082  15.799  21.070   0.512 -0.1370 -0.2308  0.0514
    1W        W39083  26.827  18.710   1.414 -0.0003  0.2890 -0.1059
    1W        W39084  17.069  22.229   9.919  0.4387  0.1646  0.0592
    1W        W39085   8.990   1.046   8.636  0.1115  0.0609  0.1835
    1W        W39086  17.512   3.326   8.978  0.1798  0.4054 -0.3593
    1W        W39087   4.379   8.133   0.991  0.0991  0.1949  0.3168
    1W        W39088  15.350  18.025   6.984  0.2308  0.4810  0.0376
    1W        W39089  21.073  20.480   6.291  0.0084 -0.1055 -0.0902
    1W        W39090   8.688   6.880   0.452  0.1836 -0.2343  0.1397
    1W        W39091  17.654  17.514   2.119  0.1229 -0.2121  0.3283
    1W        W39092  12.400   7.998   7.830 -0.1801  0.0114 -0.0041
    1W        W39093  13.973  20.064   6.491 -0.3461  0.0658 -0.2579
    1W        W39094  22.359  12.407   9.057  0.0247 -0.0449 -0.0636
    1W        W39095  13.206  24.693   7.545  0.2137  0.1376  0.3595
    1W        W39096  18.358  12.416   7.373 -0.2012 -0.2668  0.2698
    1W        W39097  16.606  13.644   0.258 -0.2305  0.0029  0.4430
    1W        W39098  17.799  21.771   7.419 -0.1286  0.1076  0.0918
    1W        W39099  11.893  18.944   6.956 -0.0940  0.2542 -0.0622
    1W        W39100  16.214  16.427   7.935 -0.0919  0.1424 -0.1416
    1W        W39101  10.094  22.796   0.881  0.3278  0.0599  0.4294
    1W        W39102  18.470  24.922   2.360  0.2104 -0.1967 -0.1471
    1W        W39103   2.800  28.349   1.618  0.2771 -0.1035 -0.3830
    1W        W39104  14.439   4.717   8.863 -0.2661  0.2420  0.1143
    1W        W39105  12.586  19.207   8.905 -0.2705 -0.0043 -0.0738
    1W        W39106   2.282  11.169   2.041 -0.0844  0.0550  0.0152
    1W        W39107  26.802  24.455   9.182  0.3273 -0.1100 -0.0535
    1W        W39108  10.354   0.066   0.055 -0.0427 -0.3654 -0.0624
    1W        W39109  20.086   8.706   7.719 -0.0051 -0.1217  0.4182
    1W        W39110  20.590   8.522   1.072 -0.0535 -0.2473 -0.1700
    1W        W39111  17.567  25.471   8.596 -0.0146 -0.0001  0.0228
    1W        W39112  19.485  16.620   2.592 -0.0576 -0.0395 -0.1800
    1W        W39113   9.517  14.703   6.778  0.1207 -0.0114  0.0864
    1W        W39114  16.722  28.462   9.603 -0.1325  0.1444  0.0944
    1W        W39115  14.845   7.925   1.539 -0.1867  0.4241 -0.0923
    1W        W39116  12.541  17.844   0.376 -0.0691 -0.3797  0.0734
    1W        W39117  27.119  16.002   7.498 -0.2654 -0.3019 -0.3021
    1W        W39118  17.324   5.915   7.132 -0.1787 -0.1113 -0.0840
    1W        W39119  26.699  24.861   2.036  0.1797 -0.0038  0.1753
    1W        W39120  13.817   6.921   0.917  0.2007  0.0277 -0.1824
    1W        W39121  10.634   1.217   1.945 -0.0700 -0.0704 -0.0975
    1W        W39122  23.612  23.290   1.721  0.3936  0.1146 -0.1786
    1W        W39123  20.289   0.585   8.816 -0.2826  0.3354 -0.0951
    1W        W39124  20.960   7.308   0.369 -0.0078  0.3095  0.2075
    1W        W39125   0.841  12.287   7.823 -0.1849 -0.1264 -0.2079
    1W        W39126  22.603   6.528   0.243 -0.1249 -0.0758 -0.0442
    1W        W39127   7.897  18.740   0.527  0.0914  0.0173  0.0818
    1W        W39128  21.735   6.091   1.230  0.0289  0.0139 -0.2711
    1W        W39129  10.554  13.430   9.441 -0.0650 -0.3040 -0.0536
    1W        W39130   2.977   7.786   7.134  0.0271  0.0522 -0.1942
    1W        W39131  23.445  24.193   7.906  0.1414 -0.0438 -0.2921
    1W        W39132  27.684  14.731   1.971  0.2323 -0.0476 -0.0580
    1W        W39133   3.941  19.189   2.435  0.2360  0.0551 -0.0079
    1W        W39134   0.623  10.401   0.721 -0.0977 -0.0546  0.0522
    1W        W39135   2.508  10.475   0.819  0.0595  0.3883 -0.3823
    1W        W39136  11.643   2.502   0.762  0.1132 -0.2189 -0.1505
    1W        W39137   0.944   1.327   8.009  0.0893 -0.2340 -0.0482
    1W        W39138  15.169  23.143   7.574  0.1724  0.1550 -0.1037
    1W        W39139   6.744   7.911   2.079 -0.2584 -0.2411  0.1326
    1W        W39140   7.961   1.166   3.632  0.1964  0.2494 -0.2529
    1W        W39141  14.808   9.133   9.031  0.2201 -0.1067  0.0939
    1W        W39142  25.557  25.231   1.379  0.3204  0.2115  0.0651
    1W        W39143   9.066  25.633   1.740  0.1485  0.1197 -0.1375
    1W        W39144  10.475   0.571   9.599 -0.2671 -0.2051 -0.2223
    1W        W39145   4.392  20.915   9.713  0.2457  0.5567 -0.0730
    1W        W39146   2.732  27.368   3.178  0.1251 -0.4152  0.1094
    1W        W39147   3.195  11.040   9.674  0.0517 -0.1077 -0.0359
    1W        W39148  12.913   8.271   0.244  0.0133  0.0237 -0.1276
    1W        W39149   0.550  13.991   8.975 -0.0526  0.2017 -0.0347
    1W        W39150  16.866   6.262   8.697 -0.0405 -0.0180 -0.1648
    1W        W39151  23.141  19.649   7.540 -0.5475 -0.0133  0.1925
    1W        W39152  14.422   9.889   6.461  0.1062  0.1624 -0.1208
    1W        W39153  20.259  19.429   7.351 -0.0332 -0.1627 -0.0629
    1W        W39154  13.142  19.136   0.661 -0.0321  0.1152  0.0097
    1W        W39155   1.054  18.527   2.381 -0.0382 -0.0193  0.3550
    1W        W39156   3.298  21.615   3.014 -0.3340 -0.0164 -0.0965
    1W        W39157  13.397  24.420   0.083 -0.2865  0.2069 -0.0698
    1W        W39158   3.879  14.969   7.270  0.1098  0.1470 -0.3342
    1W        W39159   4.403   1.128   0.683 -0.0702 -0.1286 -0.0715
    1W        W39160  22.455   0.419   7.480  0.0158  0.0509 -0.0325
    1W        W39161  24.140   1.213   0.750 -0.2224  0.4016 -0.3082
    1W        W39162   5.118   6.991   8.599 -0.0006  0.3258 -0.0386
    1W        W39163  15.173   1.844   9.539 -0.1232 -0.0347  0.2498
    1W        W39164  21.426  26.947   2.777 -0.3020  0.0935  0.1836
    1W        W39165   6.638  16.452   9.452  0.0129 -0.1780  0.1082
    1W        W39166  20.761  17.465   0.241 -0.1177  0.0216  0.0009
    1W        W39167  18.424  19.019   9.828 -0.0608  0.0123  0.0240
    1W        W39168  17.612  26.307   2.879 -0.1122 -0.4769 -0.2718
    1W        W39169  17.473  26.283   7.297  0.0796  0.1280  0.0277
    1W        W39170  15.491  20.598   0.408  0.0451  0.1900 -0.2268
    1W        W39171  26.921   9.457   3.272  0.1851 -0.0359  0.2855
    1W        W39172  10.282  26.100   7.718 -0.2125  0.1987  0.1078
    1W        W39173  19.118  10.223   7.661 -0.1816 -0.0568 -0.0198
    1W        W39174  21.335   4.012   8.772 -0.0747  0.3698  0.1156
    1W        W39175  13.270   5.299   0.429  0.0668 -0.0385 -0.1367
    1W        W39176   9.821  20.502   7.358 -0.1680  0.1931 -0.0469
    1W        W39177  28.155  17.931   0.991 -0.2349  0.4408 -0.0462
    1W        W39178  19.005   6.504   0.797  0.1370  0.2192  0.0503
    1W        W39179  18.405  23.604   8.345 -0.1960 -0.0872 -0.2065
    1W        W39180  28.164   5.236   2.395 -0.0891 -0.1558  0.0274
    1W        W39181  20.465  27.694   9.503  0.1102 -0.0622 -0.0331
    1W        W39182  19.276  12.711   1.028  0.1375 -0.1984 -0.1540
    1W        W39183  22.999  26.767   7.933  0.1154 -0.3353  0.0398
    1W        W39184  13.438   7.826   8.079  0.0508  0.0996 -0.0963
    1W        W39185   6.492  15.033   7.419  0.0844 -0.0618  0.0720
    1W        W39186   6.766  25.427   4.280 -0.0730  0.2049 -0.0350
    1W        W39187  21.130   2.716   7.609 -0.0264 -0.3041  0.2640
    1W        W39188  17.905  18.473   6.024  0.1731  0.1346 -0.0702
    1W        W39189  17.419  26.594   0.485 -0.2462  0.0569  0.2107
    1W        W39190  26.129  28.067   0.501 -0.0824 -0.1704 -0.0846
    1W        W39191  26.912  27.002   3.179  0.1337  0.3571  0.1143
    1W        W39192   3.157  25.441   2.472  0.0857 -0.0515  0.1654
    1W        W39193  10.671  13.485   1.224  0.1560 -0.3015 -0.1171
    1W        W39194  14.071  22.869   8.125 -0.1986  0.1111  0.2157
    1W        W39195  22.165  11.988   0.372  0.2001  0.3253 -0.2975
    1W        W39196  21.337  14.841   8.753 -0.1531  0.0362  0.3002
    1W        W39197  22.705  10.490   8.189 -0.1999 -0.1357  0.2389
    1W        W39198   9.011  27.311   1.555  0.3729 -0.0449  0.3025
    1W        W39199  20.288  17.235   9.229 -0.0798 -0.2782 -0.1718
    1W        W39200   8.515  26.182   8.257 -0.2126  0.0597  0.0599
    1W        W39201  16.121  23.816   9.519  0.0880  0.0096 -0.0421
    1W        W39202   0.348  10.166   2.586 -0.3372  0.1503  0.1901
    1W        W39203   2.443   1.505   1.091  0.0253  0.3077  0.2525
    1W        W39204   1.516  18.707   2.245 -0.2531  0.0259 -0.1751
    1W        W39205   6.965  20.896   0.128 -0.0358 -0.1370 -0.0609
    1W        W39206  25.273  21.884   1.898  0.1073  0.0236  0.1032
    1W        W39207  21.236  15.280   8.634  0.0753  0.3472 -0.1508
    1W        W39208  26.539   0.114   0.471 -0.1868 -0.2323  0.1041
    1W        W39209   7.053  13.734   0.879 -0.2329 -0.2439  0.1466
    1W        W39210  12.688  24.277   1.626 -0.3700 -0.1102 -0.0695
    1W        W39211  28.381   4.028   9.786  0.0318  0.1650 -0.0789
    1W        W39212  28.004  12.720   8.895 -0.0463  0.3603 -0.3457
    1W        W39213  11.313  22.373   1.604  0.3311 -0.0818  0.2803
    1W        W39214  25.579  15.151   9.546  0.1392  0.1715 -0.0042
    1W        W39215   5.550  27.613   9.757  0.1763 -0.1203 -0.2680
    1W        W39216  17.159   2.079   7.038  0.6061  0.0715 -0.1021
    1W        W39217  20.601   5.388   7.429  0.1286 -0.2147  0.1500
    1W        W39218  22.971  23.540   8.969 -0.3165 -0.2473  0.3202
    1W        W39219  21.757   3.723   7.271  0.0463 -0.0896  0.2029
    1W        W39220  28.102   2.609   8.981  0.3158  0.0919 -0.3275
    1W        W39221  17.746   0.165   6.931 -0.3511  0.0641  0.0723
    1W        W39222  13.475  20.174   1.067 -0.0480 -0.1679 -0.3370
    1W        W39223   1.008  18.157   9.579  0.0572 -0.0600 -0.0775
    1W        W39224   8.682  18.341   6.792 -0.0160  0.0560  0.2375
    1W        W39225  10.724  25.802   2.556  0.1351  0.1051 -0.3336
    1W        W39226   4.973   8.626   1.635  0.0384  0.2257 -0.2605
    1W        W39227  15.293   7.638   9.910 -0.3929 -0.0709 -0.0236
    1W        W39228   8.467  19.787   9.347 -0.2917 -0.0758 -0.1001
    1W        W39229  25.050   2.803   8.479 -0.0116 -0.0320 -0.1005
    1W        W39230   5.961   6.264   9.331  0.0391 -0.2423  0.1109
    1W        W39231  26.304  23.995   3.339  0.0844  0.3902  0.0915
    1W        W39232   6.930  12.595   1.691 -0.0109 -0.0506  0.0542
    1W        W39233   3.026  18.615   8.259 -0.0273  0.1082  0.2151
    1W        W39234  18.114   1.285   9.174 -0.2272  0.1356 -0.2686
    1W        W39235  23.358  11.862   0.598 -0.1319  0.1216 -0.0075
    1W        W39236  24.455  19.227   8.438  0.2141  0.1760 -0.1853
    1W        W39237   2.225  19.902   3.532  0.1680  0.1575 -0.0874
    1W        W39238   8.126   5.807   7.460  0.0223 -0.0779 -0.0245
    1W        W39239  24.136  13.434   3.528 -0.2904  0.0327  0.0906
    1W        W39240   6.837  10.591   0.677 -0.0741 -0.1176 -0.1005
    1W        W39241  23.925   0.685   2.799  0.2333 -0.0116 -0.1241
    1W        W39242  27.048  18.593   0.450  0.0364  0.1153  0.3777
    1W        W39243   2.715  22.014   8.461 -0.1663  0.0272 -0.1776
    1W        W39244  23.126   9.881   0.946  0.1190 -0.3160  0.0242
    1W        W39245  15.777   3.396   1.003  0.0306  0.1571 -0.2075
    1W        W39246  15.066  20.378   1.581  0.1564 -0.3261  0.0763
    1W        W39247  24.643  23.316   3.740  0.1320 -0.2768 -0.1019
    1W        W39248  26.613   9.928   2.693  0.2387 -0.4174 -0.1169
    1W        W39249  13.856  20.588   2.465  0.2679  0.2580 -0.1692
    1W        W39250   1.343  11.952   8.512 -0.2223  0.0627 -0.2428
    1W        W39251  23.556  19.188   2.809 -0.1580  0.3008 -0.0739
    1W        W39252  24.378  16.186   2.782 -0.0252 -0.0655  0.0518
    1W        W39253   3.466  22.450   0.843 -0.2482  0.1884  0.1976
    1W        W39254   6.236  11.558   1.759 -0.0307  0.1544  0.0209
    1W        W39255  27.167  22.005   7.412 -0.3331 -0.1565 -0.1003
    1W        W39256  18.491  11.126   7.628 -0.1001 -0.1473  0.1204
    1W        W39257   5.534  28.086   2.591  0.2062  0.0404 -0.0579
    1W        W39258  25.896  15.572   3.863 -0.2479  0.0957  0.0622
    1W        W39259   1.059   9.212   8.573 -0.0398 -0.1828  0.1116
    1W        W39260  21.404  18.046   9.653 -0.2264  0.3279  0.0681
    1W        W39261  18.606  17.349   0.939 -0.2084 -0.1532  0.1287
    1W        W39262  16.076  18.994   7.587  0.0774 -0.2618 -0.1543
    1W        W39263  22.159  27.773   9.962  0.0538  0.0065  0.0913
    1W        W39264  21.219   0.444   0.612  0.0476 -0.1132  0.2161
    1W        W39265   8.069   0.450   2.869 -0.0352 -0.4034  0.0275
    1W        W39266  10.969  12.073   7.632  0.0615  0.1137 -0.2601
    1W        W39267   7.815  25.513   2.664  0.0685 -0.0207  0.1901
    1W        W39268  23.783   6.350   0.491  0.0289  0.0373  0.0568
    1W        W39269  19.103  28.109   8.929 -0.0115  0.0784 -0.4313
    1W        W39270  24.213   5.764   8.118  0.2726  0.0868  0.0868
    1W        W39271  18.224   1.059   9.674  0.0243 -0.1324 -0.0545
    1W        W39272  19.309  16.894   2.953  0.1747  0.4271  0.0251
    1W        W39273  15.608   8.139   7.022  0.2362  0.0174 -0.2799
    1W        W39274  13.813   1.720   6.832 -0.0595 -0.0086 -0.2823
    1W        W39275   1.218   3.051   1.285 -0.1062 -0.1538 -0.0620
    1W        W39276   0.854  24.701   0.496  0.0500  0.1858  0.1224
    1W        W39277  19.657   1.924   9.235 -0.2799 -0.0442  0.0569
    1W        W39278  27.037   2.797   0.612 -0.0294  0.0398  0.1774
    1W        W39279   9.513   1.413   2.130  0.0184  0.3084 -0.0077
    1W        W39280   5.785  22.034   2.861  0.0015 -0.0027  0.0239
    1W        W39281  21.206  19.313   0.716 -0.1425  0.1646  0.1264
    1W        W39282  27.136  18.708   3.453  0.2664 -0.0361  0.3945
    1W        W39283  24.915   5.299   9.716  0.0632  0.0119 -0.0480
    1W        W39284  19.769  19.660   1.421 -0.3101  0.2422  0.5408
    1W        W39285  28.348  15.303   4.126 -0.0070 -0.0404 -0.2196
    1W        W39286  19.842  27.988   2.026 -0.0548  0.0469  0.1693
    1W        W39287   5.296  26.090   9.229 -0.0612  0.0362 -0.2653
    1W        W39288  19.839  21.478   1.005 -0.1789  0.0423  0.1196
    1W        W39289  25.355   4.562   8.280 -0.0127 -0.0774 -0.1307
    1W        W39290   8.356   6.976   9.588  0.2579  0.0566 -0.1646
    1W        W39291  21.459   1.788   1.978  0.3266  0.1257  0.0707
    1W        W39292  20.067  21.954   8.546  0.1076  0.0970 -0.0637
    1W        W39293  13.710  28.542   9.795 -0.1944 -0.4858  0.0763
    1W        W39294  25.794  21.831   0.598 -0.1303  0.3647  0.2036
    1W        W39295  11.081  10.007   8.164  0.1478  0.4323  0.2705
    1W        W39296  27.112  19.971   2.143  0.1453  0.0423 -0.0537
    1W        W39297   7.449  15.047   7.624  0.0304 -0.0174  0.0772
    1W        W39298  27.937  14.528   0.690  0.0702 -0.0769 -0.1952
    1W        W39299  16.996  16.969   8.893  0.1392 -0.1895  0.0357
    1W        W39300  14.227   9.450   6.241 -0.3340  0.0722 -0.0170
    1W        W39301   4.186  10.752   0.544 -0.5692  0.0054  0.0592
    1W        W39302   1.108   0.610   2.595  0.1393  0.2186  0.0666
    1W        W39303  12.953   2.485   8.696 -0.0357  0.1385 -0.1247
    1W        W39304  28.236  10.805   3.705 -0.1867  0.2612 -0.1314
    1W        W39305  25.540   7.450   9.077 -0.2648 -0.1337  0.2031
    1W        W39306   0.013   6.492   9.888 -0.1915 -0.0517  0.0570
    1W        W39307  25.962  24.657   3.134 -0.0557  0.0506 -0.1179
    1W        W39308  27.349  11.564   9.392  0.0185  0.2159  0.3293
    1W        W39309  28.111  26.576   8.181  0.4795  0.2758 -0.1056
    1W        W39310  18.315   0.322   1.439  0.1896  0.1865  0.2532
    1W        W39311  27.264   4.977   1.929  0.0647 -0.0333  0.2369
    1W        W39312  27.722  26.200   0.398 -0.2636 -0.0275  0.2720
    1W        W39313  20.748  13.133   1.582  0.1503  0.1191 -0.0807
    1W        W39314  19.386  24.331   8.053  0.0795  0.1049 -0.0820
    1W        W39315   7.279   9.412   8.930 -0.2974  0.2174 -0.0750
    1W        W39316  14.253  21.321   2.435 -0.0466 -0.1955 -0.1845
    1W        W39317   6.331   6.895   0.264  0.0053 -0.2303 -0.2508
    1W        W39318   6.362  25.034   0.449  0.0146 -0.0661 -0.2112
    1W        W39319  20.383   2.569   2.635 -0.1305 -0.1575  0.4207
    1W        W39320  27.692   6.598   7.852 -0.1598 -0.1783  0.3044
    1W        W39321   6.431   5.372   8.199  0.0842  0.0802 -0.0496
    1W        W39322   9.866  16.104   7.507 -0.0193  0.0349 -0.0669
    1W        W39323   0.946   8.102   0.386  0.0501 -0.0650 -0.0387
    1W        W39324  20.628   6.514   9.779 -0.0202  0.0274  0.3121
    1W        W39325   8.445   7.111   7.815  0.2986 -0.2823 -0.1612
    1W        W39326   2.747  12.686   7.006 -0.1433 -0.3466  0.0413
    1W        W39327  20.207   2.844   1.079  0.1759  0.1514 -0.0050
    1W        W39328   3.534  13.136   0.729 -0.2754  0.0048 -0.2215
    1W        W39329   5.056  26.727   8.547 -0.1702 -0.1667  0.2064
    1W        W39330  14.733   1.522   7.023  0.0783  0.3520 -0.0603
    1W        W39331   1.004  10.580   2.127 -0.3114  0.0261 -0.2833
    1W        W39332  22.055  15.961   1.782  0.0670  0.1140 -0.0041
    1W        W39333   6.828  26.830   1.035  0.0550 -0.4815 -0.0688
    1W        W39334   9.452  16.076   7.829  0.1699 -0.0383 -0.0312
    1W        W39335   4.721  16.574   1.096  0.0715  0.0314 -0.1546
    1W        W39336   6.223   4.215   7.681 -0.3180 -0.0300  0.1429
    1W        W39337  21.077  21.327   7.117 -0.0266 -0.1335  0.1390
    1W        W39338  20.000  12.815   8.111 -0.1701 -0.2166  0.0602
    1W        W39339   0.361  20.164   8.005 -0.3530 -0.1159  0.0911
    1W        W39340  17.272  22.099   9.054  0.2368  0.2124 -0.1449
    1W        W39341  13.411  26.922   1.263  0.2802 -0.1559 -0.1361
    1W        W39342  11.285  13.226   7.860 -0.0014  0.3088 -0.1747
    1W        W39343  17.725  27.771   2.039  0.0149 -0.1233  0.0493
    1W        W39344  28.079  15.057   1.880 -0.0144 -0.1740  0.4222
    1W        W39345  12.714  25.706   7.959 -0.3666  0.2462 -0.0517
    1W        W39346   6.822  14.845   8.533  0.3108 -0.4178 -0.2644
    1W        W39347  27.126  16.748   4.201  0.1480 -0.1351 -0.2928
    1W        W39348  21.365  17.311   6.647  0.3276  0.2684  0.2031
    1W        W39349  25.030  13.456   8.283 -0.0628  0.1821  0.0549
    1W        W39350   6.587   3.410   3.529  0.4403  0.2182  0.0357
    1W        W39351  20.871  10.967   9.670 -0.0451 -0.2620  0.0010
    1W        W39352  27.396   0.545   2.710  0.1490 -0.1909  0.2350
    1W        W39353  23.333  25.510   7.928  0.3552  0.0446  0.2686
    1W        W39354   3.957  16.113   0.808  0.1065  0.1301 -0.1945
    1W        W39355  14.036   0.291   0.042 -0.2116  0.2332  0.2631
    1W        W39356  11.509  26.515   7.644  0.1997 -0.0557 -0.1844
    1W        W39357  27.606   3.302   3.001 -0.0576  0.0993  0.2135
    1W        W39358   4.453  11.507   6.833 -0.4937 -0.1862  0.1198
    1W        W39359  27.485   4.572   8.422  0.0765  0.3893  0.0689
    1W        W39360  27.290  25.613   8.606  0.2649  0.3345  0.1091
    1W        W39361   8.699  23.186   0.842  0.1743 -0.0056  0.2925
    1W        W39362   1.786  18.488   1.189  0.1291  0.2893  0.0833
    1W        W39363   9.272   7.964   7.128  0.0688  0.2768 -0.0119
    1W        W39364  15.698  18.347   7.083  0.0297 -0.0297 -0.0643
    1W        W39365   4.150  17.906   0.293 -0.1132 -0.0250  0.1384
    1W        W39366  25.918  26.343   8.538 -0.0459 -0.1420  0.2215
    1W        W39367  26.273  12.587   0.698 -0.1322 -0.0303  0.0360
    1W        W39368   7.312   7.115   3.010  0.1313  0.1002 -0.0384
    1W        W39369  22.034   2.898   1.690  0.3380 -0.0297 -0.0889
    1W        W39370  14.678   4.521   6.322 -0.1871  0.0893 -0.1105
    1W        W39371   4.032   2.886   8.313 -0.0235 -0.1962 -0.1914
    1W        W39372  14.685   5.002   6.558  0.0586 -0.0682 -0.0704
    1W        W39373  19.955  16.100   7.383 -0.0440 -0.0024 -0.0584
    1W        W39374  15.913  23.781   1.412 -0.3192 -0.0045 -0.3239
    1W        W39375   2.499   1.164   9.146 -0.3052  0.1974 -0.1959
    1W        W39376  24.588   8.112   9.182 -0.1320  0.0462  0.4005
    1W        W39377  20.180   8.736   6.325  0.1995 -0.3698 -0.1466
    1W        W39378   0.196  15.239   2.177 -0.0125  0.1904  0.2960
    1W        W39379   6.529  25.695   7.971 -0.0390  0.0267 -0.0289
    1W        W39380   8.686  19.392   7.489 -0.1284  0.1487  0.0227
    1W        W39381  19.424  13.906   8.986 -0.0670  0.0176 -0.0439
    1W        W39382  16.224  13.194   9.052  0.1020  0.2664 -0.0833
    1W        W39383  20.073  17.301   1.823 -0.3062  0.2289 -0.2480
    1W        W39384  22.167  11.987   7.969  0.0589  0.0503 -0.0622
    1W        W39385   1.924   7.533   7.389 -0.1916  0.1892 -0.3946
    1W        W39386  25.073  23.635   1.278  0.0663 -0.0609 -0.1980
    1W        W39387   8.735   7.552   2.602  0.3483  0.1248  0.0338
    1W        W39388   1.980  28.080   9.233 -0.0071  0.0973 -0.1872
    1W        W39389  16.524   5.928   7.918  0.1935  0.1095 -0.2309
    1W        W39390   2.895  28.868   1.598  0.0188  0.0845 -0.1593
    1W        W39391   1.107   7.362   9.559  0.0750 -0.1538  0.1016
    1W        W39392   9.281  19.281   9.838 -0.1423  0.2658  0.0230
    1W        W39393   0.305   1.489   3.565 -0.2421  0.1555 -0.1435
    1W        W39394  11.019   9.750   8.621 -0.2380  0.0933 -0.1646
    1W        W39395   6.867   3.157   0.806 -0.2156 -0.1198  0.0423
    1W        W39396  21.188  28.223   1.242  0.0772  0.0774 -0.2739
    1W        W39397  28.674  17.660   2.518 -0.0048 -0.1513 -0.0891
    1W        W39398   9.618  14.185   6.096 -0.0068 -0.0265 -0.0679
    1W        W39399  21.299  21.950   0.106  0.0538 -0.1009  0.1198
    1W        W39400  11.508   1.600   7.104 -0.0067 -0.1459 -0.2703
    1W        W39401  13.274   1.221   0.727  0.1282 -0.1896  0.0339
    1W        W39402   6.973   3.321   9.479 -0.0426 -0.0527  0.0916
    1W        W39403  18.057   4.150   9.025  0.1704 -0.1423 -0.0918
    1W        W39404  20.165   0.192   8.099  0.0608 -0.1207 -0.2435
    1W        W39405  16.487   6.296   6.528  0.0080 -0.1542  0.1187
    1W        W39406   3.706  25.369   3.179  0.0904 -0.2199 -0.2976
    1W        W39407  15.528   8.836   9.555  0.2324  0.2028  0.1796
    1W        W39408  22.785  23.124   2.087 -0.0944  0.0168  0.0815
    1W        W39409  13.274  16.897   9.411 -0.1830  0.0454 -0.1845
    1W        W39410  12.825   8.580   1.887  0.1821 -0.0742 -0.0390
    1W        W39411  20.313  12.485   0.549  0.2063 -0.2819  0.0864
    1W        W39412  20.693  25.009   1.957 -0.1338 -0.0074 -0.2184
    1W        W39413  20.908   2.607   9.896 -0.1829 -0.1412  0.0143
    1W        W39414  26.006   9.252   2.886 -0.0399  0.0211 -0.0539
    1W        W39415   8.538   6.382   0.454  0.0320  0.0443  0.1021
    1W        W39416  28.530  26.001   1.923 -0.3087  0.1574 -0.1989
    1W        W39417  18.690  23.629   7.841 -0.2750  0.0434  0.0379
    1W        W39418   4.566  20.778   2.849  0.0925 -0.1301  0.0435
    1W        W39419  22.973  14.982   2.094  0.3177  0.1305 -0.1678
    1W        W39420  22.626   7.791   1.459  0.3270 -0.1815  0.2119
    1W        W39421  27.182   9.115   3.002 -0.3095 -0.2776  0.3155
    1W        W39422  28.615  28.144   3.104  0.0469 -0.0879  0.3475
    1W        W39423  24.433  11.228   8.696 -0.1355  0.2217 -0.0250
    1W        W39424  22.588   3.725   1.091 -0.0772  0.0391 -0.1348
    1W        W39425  15.876   7.327   6.820  0.3095 -0.1382 -0.1742
    1W        W39426   8.638  28.308   8.047 -0.1614  0.1288 -0.2404
    1W        W39427  15.675  21.250   3.372 -0.1487  0.0983  0.1636
    1W        W39428  20.486   7.206   0.405 -0.1884 -0.0787  0.0569
    1W        W39429  26.648   8.427   9.496 -0.1132 -0.0296 -0.1861
    1W        W39430  20.724   7.005   9.513  0.4781 -0.0509  0.0799
    1W        W39431  24.356  10.878   9.177 -0.4391 -0.1123 -0.0457
    1W        W39432  26.572  20.699   3.199 -0.1371  0.0083  0.3155
    1W        W39433  14.809  17.557   7.485 -0.2983 -0.4654  0.1470
    1W        W39434   3.589  23.393   7.847 -0.0770 -0.2288  0.2370
    1W        W39435  16.688   9.175   1.855 -0.2897 -0.0392  0.1802
    1W        W39436  24.300   0.894   9.185  0.0795 -0.0075  0.0993
    1W        W39437   0.937   0.239   0.688 -0.1161  0.0041  0.1295
    1W        W39438  21.466   7.948   9.314 -0.1339 -0.1887 -0.0398
    1W        W39439  15.621   6.945   8.672 -0.0168 -0.0976 -0.2136
    1W        W39440  12.669  22.441   0.456  0.3361 -0.0323 -0.2756
    1W        W39441  12.187  23.324   6.913 -0.1856  0.2522 -0.1649
    1W        W39442   3.926  12.321   9.730 -0.4298  0.0294  0.0481
    1W        W39443   5.225   4.335   1.108  0.1364 -0.0093 -0.0759
    1W        W39444  15.515  18.225   9.023  0.1305 -0.0455  0.0130
    1W        W39445  16.282  14.794   1.054 -0.1108  0.2973 -0.2162
    1W        W39446   0.908  17.505   1.895 -0.4273 -0.2539 -0.2104
    1W        W39447   7.893  11.902   9.462 -0.2246  0.0246 -0.0195
    1W        W39448  24.187   3.508   2.115 -0.0499  0.0971  0.1486
    1W        W39449   4.631  20.590   3.443 -0.0318  0.0790 -0.1272
    1W        W39450  25.691   7.785   3.118  0.1395  0.0120 -0.1695
    1W        W39451   0.864  25.069   3.537 -0.0315  0.2235 -0.0375
    1W        W39452   7.087   3.616   8.595  0.0112 -0.1916  0.0570
    1W        W39453  14.820  26.575   9.886  0.1400  0.1109  0.0617
    1W        W39454  25.988  13.610   9.070 -0.2446 -0.1227 -0.1518
    1W        W39455  20.763  26.249   9.656  0.0554 -0.2916 -0.0768
    1W        W39456  15.412   8.274   6.537 -0.0049  0.1337 -0.0194
    1W        W39457   4.562  21.668   1.278  0.0899  0.0109 -0.1861
    1W        W39458   7.952  12.730   8.246 -0.3146 -0.1789 -0.1278
    1W        W39459  27.979  26.245   8.618  0.1184  0.0237  0.0778
    1W        W39460   6.535  17.575   7.080 -0.0278  0.0624 -0.0956
    1W        W39461  25.343   9.734   7.575 -0.0057 -0.0094 -0.2327
    1W        W39462  11.127  11.393   1.798 -0.1646  0.0852 -0.3254
    1W        W39463  12.505  23.423   8.592 -0.3497  0.1529  0.2141
    1W        W39464  25.513   0.894   9.932 -0.0797  0.2003 -0.0664
    1W        W39465  20.748  23.444   0.426  0.0445 -0.0187 -0.1823
    1W        W39466  22.802   3.380   8.338 -0.0374 -0.4499 -0.0714
    1W        W39467   3.927  26.741   1.917  0.0441  0.1660 -0.1615
    1W        W39468   2.563  18.376   2.895 -0.0510  0.2608 -0.0281
    1W        W39469   8.303   8.293   1.427 -0.5184  0.1037  0.0532
    1W        W39470  15.770  21.962   7.813 -0.1600  0.2451 -0.1783
    1W        W39471   5.696  27.442   7.697 -0.0371  0.1861 -0.0588
    1W        W39472  22.926   3.147   0.346 -0.0242 -0.0500  0.1998
    1W        W39473   2.449   2.977   4.242 -0.5816 -0.2627 -0.1874
    1W        W39474  23.915  28.731   0.828  0.4418 -0.0749 -0.0559
    1W        W39475  12.585   0.818   2.041 -0.0961  0.1409  0.0528
    1W        W39476  25.556   7.843   1.854  0.0568  0.1540  0.1062
    1W        W39477   8.245  13.870   0.828  0.0762  0.1674 -0.1541
    1W        W39478  11.190  20.661   2.474 -0.1950 -0.1155  0.0244
    1W        W39479  18.688  25.303   6.868 -0.0324  0.0138 -0.0525
    1W        W39480  17.186   1.158   1.566 -0.2853 -0.3714 -0.2658
    1W        W39481  12.227  10.745   6.423 -0.0392 -0.0209  0.0208
    1W        W39482   5.389   9.885   2.222  0.0954 -0.1644 -0.0981
    1W        W39483  25.624  22.217   1.126  0.1695 -0.2469 -0.1155
    1W        W39484  21.238  26.506   9.597  0.0767  0.4580  0.1650
    1W        W39485  14.387   4.120   1.583 -0.0900 -0.2841 -0.1987
    1W        W39486   5.659  23.387   2.396  0.1237 -0.2463  0.3123
    1W        W39487  24.445  17.704   8.056  0.0770 -0.1804  0.3115
    1W        W39488  12.729   1.123   0.709  0.0840  0.2240  0.1335
    1W        W39489   4.772  19.528   3.392  0.1375  0.2797  0.0486
    1W        W39490  21.464   4.551   7.904 -0.0033 -0.2503  0.1665
    1W        W39491   8.852   0.247   2.104  0.1262 -0.0119 -0.0825
    1W        W39492  22.469   2.555   1.436 -0.1156  0.1782  0.3082
    1W        W39493  16.645  11.821   9.049 -0.0114  0.1590  0.2875
    1W        W39494   3.096   6.572   2.915 -0.2085  0.0958 -0.0243
    1W        W39495  22.523   4.426   7.979 -0.1052 -0.1692  0.1306
    1W        W39496  22.003  28.622   1.979  0.2573  0.1064 -0.0871
    1W        W39497  19.164   4.676   6.240  0.1545  0.1659 -0.1827
    1W        W39498  27.601  23.319   8.088  0.0221  0.0718  0.2584
    1W        W39499   3.638  11.336   6.844 -0.1032 -0.0102  0.1951
    1W        W39500  20.439  17.272   6.948  0.1128 -0.1143  0.0227
    1W        W39501  11.759   7.508   0.693 -0.0471 -0.3418  0.3204
    1W        W39502  23.824  14.232   8.919 -0.2256  0.2268 -0.2253
    1W        W39503   0.540  21.325   3.233 -0.0051 -0.0358 -0.0253
    1W        W39504  10.298  17.846   0.261  0.3142  0.1891  0.3246
    1W        W39505  20.149  22.722   7.601  0.0765 -0.4438  0.2776
    1W        W39506  15.780  13.634   6.087  0.1234 -0.0257  0.0847
    1W        W39507   0.177   8.881   1.514  0.0618  0.1972 -0.1597
    1W        W39508   7.708  21.291   9.489  0.2940 -0.0750 -0.0089
    1W        W39509  28.687   1.006   0.718  0.1818 -0.2178  0.0472
    1W        W39510  27.108  10.210   9.828 -0.0264 -0.0984  0.0572
    1W        W39511  18.912   0.043   8.164  0.0510  0.0459  0.1473
    1W        W39512  15.805  21.817   9.853  0.1136 -0.0800 -0.0958
    1W        W39513  15.388  14.474   5.861  0.2414 -0.0728  0.1887
    1W        W39514  11.747   0.408   7.562  0.1335  0.0472 -0.0798
    1W        W39515  21.338  25.016   8.890 -0.0357  0.0296 -0.1436
    1W        W39516  10.789   4.888   7.603  0.1774  0.1912  0.1586
    1W        W39517  27.391  13.880   7.898  0.1070 -0.3009 -0.0166
    1W        W39518  21.154   1.316   1.063  0.1192 -0.2018 -0.1379
    1W        W39519  28.098  19.542   8.969 -0.3954  0.1427 -0.0992
    1W        W39520  17.839   9.421   6.185 -0.0385  0.1472  0.1709
    1W        W39521  23.448  23.617   3.176 -0.1720  0.0384  0.1149
    1W        W39522  27.141   4.464   3.215  0.0813  0.1455 -0.0706
    1W        W39523  24.064   6.956   1.588  0.1777  0.1964 -0.2646
    1W        W39524   6.113   1.562   8.538 -0.0385  0.0084 -0.0555
    1W        W39525   2.678  15.670   7.777 -0.2052 -0.3122 -0.1176
    1W        W39526  27.532  12.584   8.699  0.0523  0.4895  0.1781
    1W        W39527  15.120   9.398   0.298  0.4855 -0.1812 -0.1623
    1W        W39528  26.802   7.267   1.087 -0.1495 -0.0652  0.0353
    1W        W39529   0.833  11.141   1.108  0.0040 -0.1413 -0.2011
    1W        W39530   7.808  15.362   7.728  0.0667 -0.1766  0.0222
    1W        W39531   5.053  24.852   8.559  0.2032  0.1807  0.2554
    1W        W39532  17.984  23.041   9.547 -0.1552  0.1157  0.5377
    1W        W39533  11.732  28.816   7.785  0.2212 -0.1842 -0.2437
    1W        W39534   6.577  26.843   4.469 -0.0873  0.2507  0.2314
    1W        W39535  11.108   7.881   7.548  0.1553  0.2758  0.2307
    1W        W39536   5.589   1.631   2.150  0.3119  0.0012  0.1549
    1W        W39537  16.142   9.369   6.418  0.0566 -0.0053 -0.0988
    1W        W39538  14.640  21.011   2.312 -0.2424 -0.1185 -0.0121
    1W        W39539  24.664  25.164   8.065 -0.1220 -0.3224 -0.0050
    1W        W39540  11.691   1.410   6.708 -0.0382  0.0043  0.1442
    1W        W39541  20.128   9.689   1.093 -0.1705  0.0413  0.1595
    1W        W39542  27.867  22.666   9.214  0.1416 -0.4072 -0.2058
    1W        W39543   0.794   5.789   7.963  0.0397  0.3359  0.3066
    1W        W39544  28.096  28.455   2.577 -0.2496 -0.1204  0.1143
    1W        W39545   5.900   4.128   9.295  0.1452 -0.0894  0.2910
    1W        W39546  24.535  23.145   8.549 -0.1105 -0.0734  0.3730
    1W        W39547  25.520  13.001   1.868  0.1427 -0.2110  0.1165
    1W        W39548   2.058   0.385   7.751 -0.0884  0.0952  0.0056
    1W        W39549   0.899  14.120   9.616  0.1644 -0.1465 -0.2868
    1W        W39550  21.651  17.817   8.025 -0.0844  0.0542  0.2562
    1W        W39551  14.573  12.676   0.546 -0.2497  0.0145 -0.1268
    1W        W39552   6.729  20.996   8.638 -0.2862 -0.1460 -0.0186
    1W        W39553  28.485   1.844   4.083 -0.5024  0.1066  0.0032
    1W        W39554  22.158  24.156   7.893 -0.1970  0.2855 -0.0254
    1W        W39555  18.417  27.878   9.861  0.2099  0.1403 -0.0061
    1W        W39556  24.272   7.581   8.645 -0.3753  0.0889  0.0343
    1W        W39557   1.029  22.513   0.602  0.2027  0.0500 -0.0763
    1W        W39558  17.992  14.886   0.107  0.0033  0.3841 -0.0432
    1W        W39559   6.316   0.772   4.257  0.0661 -0.2720 -0.2953
    1W        W39560   3.498   7.240   1.057 -0.2425  0.0226 -0.5080
    1W        W39561  20.352   4.173   7.407 -0.2257  0.1380 -0.1922
    1W        W39562  11.213  21.452   8.027  0.0248 -0.0238 -0.0468
    1W        W39563  27.114  24.792   9.823 -0.3631  0.3481 -0.1438
    1W        W39564   9.337   0.889   2.288 -0.4922  0.0025 -0.0118
    1W        W39565  18.093  11.634   1.822 -0.2429 -0.2525 -0.2083
    1W        W39566  27.148  20.200   1.518  0.0957  0.1409 -0.0973
    1W        W39567   9.011  16.823   1.661 -0.0320 -0.1053  0.0749
    1W        W39568  10.219  28.166   9.939  0.1837 -0.0357 -0.2511
    1W        W39569   5.868   1.112   0.230 -0.0945  0.1040  0.1806
    1W        W39570   2.340  27.241   3.465 -0.0033 -0.3862  0.0386
    1W        W39571   0.193   6.180   4.488 -0.1308 -0.1694  0.3246
    1W        W39572   5.534  14.513   8.396 -0.2284  0.1892  0.2844
    1W        W39573  14.292  19.270   2.361  0.0005  0.0665  0.4213
    1W        W39574   3.469  16.011   7.501 -0.0600 -0.0679 -0.2340
    1W        W39575  22.386  25.619   9.080  0.1907 -0.0787  0.0485
    1W        W39576  23.936   9.125   6.985 -0.1596  0.3009 -0.3543
    1W        W39577  28.027  22.879   1.082 -0.1368 -0.3862  0.3061
    1W        W39578  10.567   6.711   7.524  0.1344  0.2971  0.1614
    1W        W39579  18.879   4.804   8.865 -0.1289 -0.2755  0.0056
    1W        W39580   3.775   5.273   9.149  0.0295 -0.0356  0.1743
    1W        W39581  13.818  15.223   0.301 -0.3216 -0.0169 -0.2489
    1W        W39582   9.892  14.047   0.896  0.1719  0.2557 -0.0663
    1W        W39583  10.897   8.237   2.463  0.2185 -0.1230  0.1997
    1W        W39584   1.893   9.186   9.578  0.0657 -0.1992  0.2322
    1W        W39585  20.773  13.562   8.456 -0.0015 -0.3194  0.0713
    1W        W39586   0.921  19.795   3.000  0.2187 -0.3349 -0.0199
    1W        W39587   4.097   8.033   8.671 -0.3272 -0.0589 -0.2181
    1W        W39588  22.139  16.421   2.525  0.1416  0.0558 -0.1212
    1W        W39589  23.162   5.149   7.633 -0.1053 -0.0509 -0.1821
    1W        W39590   3.864  22.185   7.688  0.3342  0.0691  0.1531
    1W        W39591  12.523  19.735   9.262  0.1685 -0.1821  0.0862
    1W        W39592   7.839   6.462   9.958  0.2744 -0.0776  0.2411
    1W        W39593  21.662   5.382   7.759  0.2239  0.3900 -0.1293
    1W        W39594  25.211  16.732   1.201 -0.0222  0.1554 -0.0419
    1W        W39595  23.110   9.618   7.827  0.1330 -0.0065  0.3969
    1W        W39596   1.414   5.536   9.702  0.1622 -0.1067 -0.2625
    1W        W39597  14.365  20.726   1.153 -0.2559 -0.1623  0.1600
    1W        W39598   8.861  20.721   8.171 -0.1647 -0.3046  0.0521
    1W        W39599   5.274  25.815   0.771  0.1494  0.0159 -0.0102
    1W        W39600  24.278  17.082   2.594 -0.1562  0.0607 -0.1362
    1W        W39601  21.518  18.433   0.479  0.2513  0.3570  0.1559
    1W        W39602  19.210   9.133   1.182  0.1862 -0.0800 -0.0018
    1W        W39603  11.031  13.718   9.438  0.0991  0.0579 -0.0303
    1W        W39604  12.640  14.753   6.536 -0.2841 -0.2449 -0.0424
    1W        W39605  21.380   3.031   6.699  0.0448  0.3689  0.1584
    1W        W39606  14.090  15.097   9.119 -0.0877  0.0549  0.2096
    1W        W39607   4.411  21.665   3.400  0.0328 -0.0576  0.1698
    1W        W39608  25.521  27.276   3.744  0.2042 -0.0996  0.0892
    1W        W39609   9.533  18.649   8.991 -0.3152 -0.1238 -0.4642
    1W        W39610  19.538   9.115   9.692  0.2169 -0.0759  0.2416
    1W        W39611   6.858   4.112   8.424  0.3975  0.2132 -0.0447
    1W        W39612   0.936  15.517   1.786  0.0449 -0.0373 -0.0099
    1W        W39613  10.564  26.282   9.190  0.1844 -0.0241  0.2796
    1W        W39614  16.497  19.742   6.548  0.0133  0.0867 -0.3043
    1W        W39615  14.672   2.642   2.250 -0.1104 -0.2858  0.0303
    1W        W39616  27.554  20.002   1.236 -0.1529 -0.2983 -0.0149
    1W        W39617  10.667  22.026   2.753  0.1207 -0.0802 -0.0889
    1W        W39618  16.595  21.784   7.040  0.0660  0.0045  0.1260
    1W        W39619  27.966  18.966   2.194 -0.1382  0.3139  0.0463
    1W        W39620  20.735  16.156   8.600 -0.0325 -0.3881 -0.1582
    1W        W39621  24.302   8.403   7.525 -0.4354 -0.0840 -0.0109
    1W        W39622  26.920  26.977   7.212 -0.0527 -0.0886  0.1207
    1W        W39623   9.341  27.074   9.625 -0.1792  0.1120 -0.1049
    1W        W39624   1.140  12.068   0.769  0.4209  0.1870  0.1738
    1W        W39625   4.112   8.601   0.871  0.0502  0.0464  0.0780
    1W        W39626  12.455  10.292   7.956 -0.0131 -0.0811 -0.0327
    1W        W39627   8.083  13.233   5.944 -0.0327  0.1620  0.0334
    1W        W39628  14.530   6.754   7.726  0.0590  0.2248  0.0932
    1W        W39629   1.900  25.340   7.889 -0.1566  0.0894 -0.3600
    1W        W39630  28.022  27.297   3.345 -0.3371  0.2628 -0.3021
    1W        W39631  12.788  26.281   1.769 -0.0748 -0.0631 -0.0349
    1W        W39632  12.919  22.733   1.065 -0.1785 -0.1950  0.0144
    1W        W39633  11.411  16.072   6.466 -0.0759  0.0376 -0.1962
    1W        W39634  21.660  16.562   9.911 -0.2011 -0.0336  0.0530
    1W        W39635   8.547  18.841   7.568  0.1179  0.1599  0.1930
    1W        W39636   7.364  19.358   0.643 -0.3772 -0.1304 -0.1532
    1W        W39637   9.150   1.594   2.997  0.0926 -0.0770 -0.0043
    1W        W39638  24.717   3.935   1.912 -0.2185  0.0700  0.2166
    1W        W39639   5.597  14.715   0.404 -0.0613 -0.0891  0.1867
    1W        W39640   5.739  21.502   8.661  0.2450  0.0290  0.0876
    1W        W39641  11.587   7.911   0.503 -0.0257 -0.0763 -0.0007
    1W        W39642   0.798  18.893   9.937  0.2145 -0.1003  0.0103
    1W        W39643   1.934  17.342   1.766  0.0206  0.1968 -0.3083
    1W        W39644  24.256  22.404   3.100  0.2936 -0.1112 -0.0390
    1W        W39645  14.028  14.282   1.921 -0.0094  0.1414 -0.2354
    1W        W39646   5.744  20.765   8.391  0.3521  0.0905  0.0467
    1W        W39647  12.904  11.806   1.488 -0.1888  0.0635 -0.1330
    1W        W39648   8.587  12.060   8.382 -0.2723  0.3377 -0.0414
    1W        W39649  13.664  27.031   2.187 -0.0631  0.2828 -0.1065
    1W        W39650  20.818  20.209   7.162 -0.0329  0.0128 -0.1468
    1W        W39651  27.893  22.268   1.996  0.2713 -0.0891 -0.2943
    1W        W39652  26.672  25.727   1.874 -0.0338 -0.0358  0.0849
    1W        W39653  13.622  22.514   8.013 -0.1188 -0.0899 -0.1222
    1W        W39654  23.375   9.111   1.477 -0.0665  0.0360 -0.0837
    1W        W39655  25.720  13.647   9.958 -0.2061 -0.0207  0.2133
    1W        W39656   0.328  11.655   9.424 -0.0619  0.0312  0.2382
    1W        W39657   3.625  19.819   7.834  0.3273  0.3116  0.1702
    1W        W39658  24.800  28.610   9.866  0.0305 -0.0634  0.1094
    1W        W39659  16.179  18.221   1.853 -0.2363 -0.2753  0.2391
    1W        W39660  25.143  26.010   9.720  0.2100 -0.0041  0.2452
    1W        W39661   2.359   5.185   2.302  0.1286 -0.3126  0.1636
    1W        W39662   2.207  26.239   9.452 -0.3522  0.0752  0.1214
    1W        W39663   8.117  11.121   9.466 -0.3335 -0.0905 -0.1247
    1W        W39664  24.718  26.795   8.448  0.0710 -0.3180 -0.0189
    1W        W39665  21.496   4.736   1.473  0.0606  0.5687  0.1915
    1W        W39666  17.764   8.723   7.982 -0.3740  0.0845  0.0672
    1W        W39667   7.347  14.516   0.790 -0.0034  0.0269  0.1322
    1W        W39668   4.170   8.930   1.925  0.0673  0.0200  0.1511
    1W        W39669  18.632  21.577   8.114  0.0862 -0.1347 -0.1353
    1W        W39670   2.653  25.819   3.258  0.1446  0.2004  0.1175
    1W        W39671  10.703  19.945   2.546 -0.1004 -0.0608  0.0464
    1W        W39672  14.449   1.173   8.373 -0.1546  0.2706 -0.0326
    1W        W39673  15.757   9.380   6.864 -0.1469  0.2932 -0.3072
    1W        W39674  23.501  22.797   1.523 -0.2938 -0.0982  0.1350
    1W        W39675  24.647  26.924   8.906  0.1923 -0.0173  0.1186
    1W        W39676  14.074  17.917   6.733  0.2491 -0.0156  0.0360
    1W        W39677  20.909  11.300   1.372 -0.0940  0.4962 -0.0239
    1W        W39678  13.252  15.507   6.816  0.0046  0.2016 -0.4815
    1W        W39679   6.134   2.239   1.750  0.1067  0.1762 -0.1015
    1W        W39680   3.989  20.701   0.769 -0.0503 -0.0362  0.4793
    1W        W39681  17.596  17.511   1.017 -0.0028 -0.0519  0.3410
    1W        W39682   8.989  12.919   9.757 -0.0908  0.4198  0.1795
    1W        W39683   3.217   4.587   9.760 -0.0996 -0.2166 -0.2888
    1W        W39684  14.851   1.098   8.867 -0.0821  0.1056  0.1867
    1W        W39685  24.517  20.776   8.017  0.0232  0.4199  0.1097
    1W        W39686  26.343  20.724   0.215  0.2101  0.1251 -0.1696
    1W        W39687  13.960  20.753   7.966 -0.0675 -0.1083 -0.1476
    1W        W39688  19.267  17.005   2.180  0.1314  0.0327 -0.1357
    1W        W39689  16.516  15.189   8.003  0.2088  0.0755 -0.0326
    1W        W39690   2.399  26.781   8.206  0.0487  0.2024 -0.1379
    1W        W39691   5.648   4.677   1.295 -0.1010 -0.2289 -0.3203
    1W        W39692  19.136   8.166   1.937  0.0668 -0.1478 -0.2756
    1W        W39693   5.958  12.348   0.500 -0.0822 -0.0774 -0.0080
    1W        W39694   8.548  16.658   6.421  0.1546  0.2132 -0.1653
    1W        W39695  26.672   5.374   8.997 -0.0876 -0.1082  0.1412
    1W        W39696  17.068  28.876   7.792  0.0646  0.0764  0.0140
    1W        W39697   9.187  21.859   0.915 -0.1473 -0.1137 -0.1681
    1W        W39698  24.320  18.204   7.984 -0.0123  0.1155  0.0829
    1W        W39699   4.372  19.042   2.119  0.4754 -0.0854  0.0402
    1W        W39700  20.170  26.911   7.313 -0.1081  0.2818  0.0796
    1W        W39701   6.020  10.073   7.977 -0.0572  0.0377 -0.0150
    1W        W39702  22.991   5.860   7.011 -0.1527  0.2207  0.1199
    1W        W39703  28.305   0.425   8.293  0.0597 -0.1975  0.0904
    1W        W39704  11.753   4.174   0.486  0.0138 -0.0337 -0.0611
    1W        W39705  15.409  17.755   1.689  0.1082  0.0918 -0.1208
    1W        W39706  23.417  13.125   1.001  0.3712  0.1366  0.2833
    1W        W39707  19.459  19.105   9.128 -0.1207 -0.2264 -0.1278
    1W        W39708  16.868  12.990   9.189  0.1803  0.0314  0.0340
    1W        W39709  23.071  19.601   8.307 -0.1469  0.0282  0.0286
    1W        W39710  27.189  16.206   1.476 -0.1476  0.0090  0.2231
    1W        W39711  14.903   0.767   1.893  0.2413 -0.0335  0.1130
    1W        W39712  25.084  27.678   1.128 -0.2875  0.1323 -0.1488
    1W        W39713  28.222  24.114   9.654 -0.0541  0.0377  0.1626
    1W        W39714   3.078   2.085   7.650 -0.0285  0.1498 -0.2687
    1W        W39715  18.288  23.830   6.982 -0.2238 -0.4882  0.0836
    1W        W39716  11.362   9.668   6.996 -0.1108 -0.2699 -0.0749
    1W        W39717  14.278  24.627   8.059 -0.0693  0.1160  0.2154
    1W        W39718  27.418  22.367   7.068  0.1250  0.0376  0.3875
    1W        W39719  16.205  20.976   3.250  0.1218  0.1933  0.2562
    1W        W39720  21.224  27.695   0.282  0.1035  0.1887  0.1478
    1W        W39721  13.268  24.108   8.582 -0.4370  0.2626  0.1109
    1W        W39722  10.067  24.260   2.844 -0.0269  0.0487 -0.1352
    1W        W39723   7.088  10.710   8.706 -0.1420 -0.1279  0.0788
    1W        W39724  21.575  12.199   7.796 -0.0482 -0.4129 -0.0018
    1W        W39725  15.390   1.123   1.819 -0.1436  0.0400  0.0733
    1W        W39726  19.161  23.387   9.723  0.3852  0.1314  0.0816
    1W        W39727   7.832  10.412   7.784  0.2546  0.1577  0.1326
    1W        W39728  26.017   6.351   9.680  0.1098 -0.2342 -0.1994
    1W        W39729   3.174  22.476   8.219  0.1307 -0.1098 -0.1047
    1W        W39730   1.510   0.655   0.289 -0.0834  0.2224 -0.1135
    1W        W39731   3.525  27.782   3.685 -0.4132  0.0568  0.0523
    1W        W39732  21.844  19.805   7.850 -0.4419  0.1808  0.0239
    1W        W39733  10.333   5.009   8.624 -0.0582 -0.1600  0.2748
    1W        W39734  28.575   6.894   8.690 -0.1465  0.3623 -0.1506
    1W        W39735   0.626  17.122   2.318  0.0543 -0.1494 -0.0362
    1W        W39736  25.589   4.871   0.860 -0.0110  0.0788  0.1268
    1W        W39737  17.991   9.125   0.109  0.0448 -0.0390  0.1645
    1W        W39738  26.571   0.110   8.693 -0.0773 -0.0555 -0.1478
    1W        W39739  24.790   6.883   0.673 -0.2319  0.1738 -0.0790
    1W        W39740  13.166   2.195   0.435 -0.0357 -0.1208  0.2582
    1W        W39741   0.707  26.450   4.398 -0.1345  0.1637  0.1371
    1W        W39742  26.529  10.450   8.999  0.1148 -0.1973 -0.1757
    1W        W39743   9.191  21.113   2.496  0.3979  0.0384 -0.2764
    1W        W39744  12.464   6.200   7.016 -0.0148  0.1907 -0.0676
    1W        W39745  23.087  20.764   9.678  0.1913  0.0404  0.0719
    1W        W39746   8.989  12.341   2.201 -0.1806 -0.0637  0.0223
    1W        W39747  15.297   1.532   7.043 -0.0929  0.3537 -0.0654
    1W        W39748  10.051  16.720   8.385  0.2201  0.0102 -0.3003
    1W        W39749  28.672  11.453   8.996 -0.6306  0.2246 -0.1429
    1W        W39750  25.095  22.862   1.812 -0.0181  0.0875  0.2131
    1W        W39751  22.381   8.171   1.809 -0.1116 -0.0972 -0.1809
    1W        W39752   5.285  25.070   7.685 -0.2630  0.4397 -0.1252
    1W        W39753  22.271  13.490   7.608  0.0699  0.0529 -0.0916
    1W        W39754  13.853   0.772   7.383 -0.1668 -0.2547  0.1839
    1W        W39755  10.199   2.978   9.848 -0.3031 -0.1736 -0.0406
    1W        W39756  20.375  22.360   2.317  0.0504  0.5186  0.3293
    1W        W39757  14.440   6.395   5.060  0.0113 -0.1920  0.1521
    1W        W39758   6.689  24.269   9.961  0.1302 -0.0082 -0.4486
    1W        W39759   5.161  14.574   1.147  0.2230  0.1645 -0.2622
    1W        W39760  12.997  21.331   3.253 -0.1608  0.1538  0.0532
    1W        W39761   9.110  14.894   8.468  0.0708  0.0068  0.3485
    1W        W39762  27.180   5.830   1.474  0.0151  0.1521 -0.2550
    1W        W39763   8.431  26.768   9.129  0.0608 -0.0379 -0.0164
    1W        W39764  26.905   3.343   1.562  0.0364  0.2316  0.0077
    1W        W39765  24.515  12.581   9.716 -0.3114 -0.0899 -0.1405
    1W        W39766  23.316   9.966   8.698 -0.1884  0.0461  0.0517
    1W        W39767  16.822  14.582   1.166 -0.0958  0.1002 -0.2971
    1W        W39768  18.714  20.821   2.160  0.0988 -0.0165 -0.1299
    1W        W39769   5.207  14.224   0.348 -0.2115  0.4117 -0.2877
    1W        W39770  16.218  17.340   7.308 -0.2865  0.1633  0.3598
    1W        W39771  17.379   1.755   7.934  0.0344 -0.0173  0.0263
    1W        W39772   9.996  16.895   1.583  0.0096 -0.0618  0.0156
    1W        W39773  12.457  22.020   0.215 -0.0168  0.0583 -0.0629
    1W        W39774  22.079  15.853   7.887  0.0174  0.1826 -0.0886
    1W        W39775  27.789  15.050   0.574  0.2790  0.0947  0.0684
    1W        W39776  27.659  27.401   3.700  0.0904 -0.1893  0.2224
    1W        W39777   2.513  11.997   0.837  0.3913 -0.1799  0.1489
    1W        W39778  19.838  24.770   1.192  0.1341  0.0413 -0.2701
    1W        W39779   8.312  23.753   3.431 -0.0633 -0.1584 -0.2572
    1W        W39780   3.814  16.592   0.904 -0.0880 -0.0680  0.2988
    1W        W39781  28.100  14.409   2.785  0.1216  0.2656  0.1656
    1W        W39782   6.072   1.330   1.995 -0.2629 -0.1370  0.0157
    1W        W39783  18.417  20.596   7.818  0.0125  0.1896 -0.0277
    1W        W39784  25.065  23.311   9.286 -0.1827 -0.1117 -0.0450
    1W        W39785   6.371   9.049   7.911  0.3465 -0.0391  0.1013
    1W        W39786   8.526  22.376   1.689 -0.0605 -0.2314 -0.2676
    1W        W39787  12.183   4.407   6.360 -0.1354  0.0064  0.1407
    1W        W39788  12.565  28.789   7.636  0.0832  0.2587 -0.0475
    1W        W39789  22.227   8.356   2.239  0.1009  0.0048  0.0425
    1W        W39790  23.508   1.879   1.732 -0.3162  0.0221 -0.0362
    1W        W39791  28.743  17.509   9.558  0.0532  0.0158  0.1406
    1W        W39792   2.971  12.146   2.322 -0.0893 -0.2345 -0.5128
    1W        W39793   4.635   8.015   2.323 -0.0442 -0.0190  0.3326
    1W        W39794   2.891  25.432   9.978 -0.0878  0.0481 -0.0166
    1W        W39795  12.462  21.261   2.503 -0.1551 -0.0562  0.0675
    1W        W39796   3.451  19.017   2.369  0.1718  0.2884 -0.2518
    1W        W39797  19.215  16.029   0.255 -0.0344 -0.0259  0.2740
    1W        W39798  17.801  14.011   5.800  0.0497  0.1182 -0.0233
    1W        W39799   1.209  20.728   8.703  0.1874 -0.2216  0.1378
    1W        W39800  18.273  21.049   1.634 -0.2639  0.1326 -0.1098
    1W        W39801   3.668   6.539   8.955 -0.0763  0.2088  0.3502
    1W        W39802  12.308   5.075   8.207 -0.0841  0.1156  0.1480
    1W        W39803  18.605   9.105   5.870 -0.1460  0.0881 -0.1330
    1W        W39804   9.886  14.238   8.573  0.0332  0.0358 -0.1102
    1W        W39805  20.790  11.824   8.492 -0.1009  0.0366 -0.0414
    1W        W39806   0.073  20.856   0.612  0.0125  0.0013  0.0277
    1W        W39807  22.293  17.295   6.044  0.1650 -0.1375 -0.0974
    1W        W39808  21.226  10.756   0.958  0.0116 -0.1815  0.0851
    1W        W39809   6.822  14.175   0.704 -0.0176 -0.0844 -0.0115
    1W        W39810  20.844  16.021   2.266 -0.1382 -0.1685  0.0538
    1W        W39811   0.128   2.373   9.819  0.0118 -0.0497  0.0444
    1W        W39812  14.329   6.017   1.272  0.2767 -0.4188 -0.0690
    1W        W39813   4.971   0.166   0.408 -0.2001 -0.1786  0.1232
    1W        W39814   9.901  10.103   8.932  0.0286 -0.0506 -0.1296
    1W        W39815   2.420   6.243   4.270 -0.0551  0.0648 -0.3522
    1W        W39816  23.217   6.047   7.422 -0.1533 -0.1456  0.6207
    1W        W39817  12.416   7.058   8.607 -0.2041  0.0572  0.3059
    1W        W39818  13.386  27.714   2.643  0.1174 -0.1350  0.0395
    1W        W39819  14.155   4.317   6.732  0.0933  0.3766  0.0351
    1W        W39820  14.249  27.257   8.065  0.1841  0.0298  0.0500
    1W        W39821   6.254  23.827   9.204  0.0221 -0.0509 -0.1789
    1W        W39822   4.088  12.156   1.401 -0.2666  0.1466 -0.0854
    1W        W39823   6.356  20.342   7.438 -0.3822 -0.0556 -0.0623
    1W        W39824  15.472  10.513   6.785  0.3176  0.0900 -0.4033
    1W        W39825  15.621  20.489   0.863  0.3039  0.0682 -0.1304
    1W        W39826   3.387   2.787   2.484 -0.1236  0.0894  0.0191
    1W        W39827  21.141  23.558   7.389 -0.1991 -0.2039 -0.0022
    1W        W39828  26.746  23.860   2.270 -0.0060  0.1377 -0.3144
    1W        W39829   5.230  22.027   7.865  0.0712  0.1481  0.0677
    1W        W39830  10.726   0.481   1.069 -0.2388  0.0246 -0.2169
    1W        W39831  19.548   8.024   8.032 -0.2788 -0.1242  0.0117
    1W        W39832   9.612  22.802   6.967  0.0624 -0.0052 -0.3090
    1W        W39833  24.399  16.040   9.972  0.4717  0.1021  0.2148
    1W        W39834  28.340   9.522   8.749  0.1590  0.1197  0.1181
    1W        W39835  16.082  25.503   8.631 -0.0809  0.3558  0.2295
    1W        W39836   3.529  26.272   4.372  0.1376 -0.0108 -0.0723
    1W        W39837  24.664  12.391   7.326  0.2645  0.1725 -0.2069
    1W        W39838  22.265  22.859   2.289  0.2259  0.0229  0.2496
    1W        W39839  23.313  19.322   3.185  0.1400  0.1655  0.1090
    1W        W39840  28.536   1.281   0.259  0.0720 -0.2332  0.0906
    1W        W39841  23.036   9.722   1.946  0.0083  0.1382  0.0167
    1W        W39842   1.553  25.454   9.904 -0.1409 -0.1065  0.2003
    1W        W39843  28.461  13.696   3.051 -0.1813 -0.0207  0.1060
    1W        W39844  25.435  19.683   9.328  0.1749  0.0272  0.3722
    1W        W39845  11.725  15.423   9.172 -0.1026  0.1900  0.2299
    1W        W39846   6.866  22.141   8.268 -0.0235  0.0454  0.0422
    1W        W39847   4.069   1.849   9.208 -0.2657 -0.3408 -0.1316
    1W        W39848  17.148   8.809   7.901 -0.0929  0.1133  0.1674
    1W        W39849  22.891  12.833   9.165 -0.0319 -0.2720 -0.2777
    1W        W39850   6.878  23.925   2.435 -0.3431 -0.0560  0.3686
    1W        W39851  14.609  16.639   1.838  0.3455  0.2908 -0.1344
    1W        W39852  24.483  14.734   1.658  0.2432 -0.2113 -0.2623
    1W        W39853   8.626  23.560   9.885  0.0981 -0.0403  0.0621
    1W        W39854  20.461  19.789   1.565  0.0342  0.2301 -0.1066
    1W        W39855  16.425  19.084   1.547  0.1592 -0.2179  0.1457
    1W        W39856  20.880   4.258   0.868 -0.0120 -0.0898 -0.1083
    1W        W39857  25.135  25.896   0.590 -0.1639  0.1512  0.0702
    1W        W39858  20.686   2.106   0.871 -0.1108 -0.0098  0.0745
    1W        W39859  20.848  20.271   0.917 -0.3357  0.2689 -0.2468
    1W        W39860   8.384   0.113   1.491 -0.2025  0.3344 -0.0050
    1W        W39861   6.295  16.191   8.442 -0.1929  0.0649 -0.1070
    1W        W39862  27.165   2.469   0.112 -0.0333  0.1436  0.0046
    1W        W39863   1.079  16.369   2.475  0.3181 -0.3022 -0.1862
    1W        W39864  24.137   9.279   8.039  0.1499  0.0560  0.2719
    1W        W39865  13.451  19.391   6.270 -0.2001  0.1030 -0.0212
    1W        W39866  16.698   2.509   8.822 -0.3413  0.2135 -0.0978
    1W        W39867  22.005  12.471   0.185 -0.3235 -0.1524 -0.1255
    1W        W39868   1.614  26.548   3.342  0.0699 -0.0021 -0.1434
    1W        W39869   8.878   7.252   9.825 -0.5252  0.0957  0.1461
    1W        W39870  10.526  18.379   9.447  0.0938 -0.0059  0.3010
    1W        W39871  12.215   2.636   7.278  0.0382 -0.1242 -0.1459
    1W        W39872  19.417   3.424   0.285 -0.1607 -0.0399 -0.1481
    1W        W39873  24.728  22.862   1.034  0.0909 -0.1255 -0.3078
    1W        W39874   5.394  22.442   8.106 -0.1092 -0.1685  0.2694
    1W        W39875   3.461  23.340   2.220  0.0809 -0.2932 -0.1720
    1W        W39876   3.455  16.740   1.164  0.0263  0.1326  0.1786
    1W        W39877  25.383  22.469   7.853 -0.0847 -0.1792 -0.2323
    1W        W39878  10.655  27.165   6.824  0.0547  0.2412 -0.2528
    1W        W39879   6.684  20.204   9.478 -0.3795 -0.0147 -0.0558
    1W        W39880   2.771   4.560   3.574  0.0293  0.0966  0.3355
    1W        W39881   5.760  19.975   0.164 -0.0972  0.0678  0.0229
    1W        W39882   1.018   8.389   8.070  0.0522 -0.2506 -0.0657
    1W        W39883  16.788   6.639   9.644  0.0434  0.0694  0.0567
    1W        W39884  14.821  25.298   7.116 -0.0307 -0.5732  0.0322
    1W        W39885   5.015  26.465   2.338 -0.1056  0.2249 -0.0170
    1W        W39886  20.379  20.105   1.995 -0.0819  0.0552 -0.0564
    1W        W39887  19.580  12.544   1.434  0.2129 -0.0238  0.0675
    1W        W39888   0.832  26.258   2.399  0.3086 -0.3795  0.2374
    1W        W39889  18.384  14.582   7.208  0.1008  0.0374 -0.1644
    1W        W39890   1.313  11.108   1.177 -0.2443 -0.2019 -0.3037
    1W        W39891  17.846  22.009   7.938 -0.0441 -0.0583 -0.1537
    1W        W39892  23.463   1.309   7.453 -0.1290 -0.0058 -0.2445
    1W        W39893  27.727  24.676   3.722 -0.2170 -0.0399 -0.0933
    1W        W39894  27.741   2.022   3.306  0.2442 -0.0975 -0.0420
    1W        W39895   3.435  10.491   0.232 -0.0096 -0.1292  0.0884
    1W        W39896  21.300   5.894   1.387  0.2371 -0.0545 -0.2432
    1W        W39897  27.194   0.201   1.409  0.0984 -0.1110 -0.2373
    1W        W39898  28.691   8.579   0.190  0.0212  0.0026  0.1611
    1W        W39899   9.969   8.485   7.203  0.4205 -0.1151 -0.3841
    1W        W39900   3.931   9.172   0.221 -0.0876 -0.1570 -0.0103
    1W        W39901   6.411  20.673   0.983  0.2021  0.1687  0.2999
    1W        W39902  19.023  18.068   8.176  0.1057 -0.1201  0.1114
    1W        W39903  15.504   8.020   0.159 -0.1801  0.0718 -0.2804
    1W        W39904  25.059  25.177   1.731 -0.1760 -0.3224  0.0715
    1W        W39905   8.174  22.689   0.511 -0.0704 -0.1900 -0.2852
    1W        W39906  18.722  21.134   8.784 -0.0641  0.2466 -0.2503
    1W        W39907  28.084  17.311   8.256  0.0914 -0.0138  0.1656
    1W        W39908  17.033  10.734   8.272 -0.1084 -0.0626  0.4243
    1W        W39909   0.525   4.172   3.983 -0.0651  0.3036 -0.2658
    1W        W39910   1.332  10.515   8.005  0.3466  0.2420 -0.0537
    1W        W39911  19.330  18.659   1.021  0.0270  0.1056 -0.3328
    1W        W39912  17.610  14.219   7.722  0.2374  0.0241 -0.0627
    1W        W39913   2.265  17.400   8.483  0.1210 -0.3376  0.0528
    1W        W39914  14.016  18.760   0.003 -0.2702  0.2109 -0.1227
    1W        W39915  22.357   8.864   2.283 -0.1709 -0.1378  0.1377
    1W        W39916  18.352   8.288   8.284  0.0392 -0.3140  0.0038
    1W        W39917  12.496  11.452   2.066 -0.1371  0.0692 -0.1118
    1W        W39918   5.764   4.125   8.075 -0.0221  0.0704 -0.3153
    1W        W39919   5.617   1.225   1.741 -0.2587  0.3119  0.0732
    1W        W39920  12.293   3.308  10.002 -0.0105 -0.5286  0.1296
    1W        W39921  24.536  25.883   9.659 -0.1659  0.1867 -0.0928
    1W        W39922  23.855  19.260   7.267 -0.2449  0.2509  0.1745
    1W        W39923   5.783   8.282   2.834 -0.2818 -0.0241 -0.1304
    1W        W39924  13.142  14.882   9.173  0.0429 -0.0576  0.1103
    1W        W39925  10.807  20.295   0.942 -0.0347  0.1540 -0.2175
    1W        W39926  21.245  10.632   7.889  0.0963 -0.1341  0.0979
    1W        W39927  18.347  23.429   2.397 -0.1522 -0.1019 -0.0398
    1W        W39928  25.189  16.937   0.730  0.3342 -0.3487  0.3849
    1W        W39929  14.508  14.394   2.243  0.1149  0.0044 -0.0912
    1W        W39930  13.458   8.769   7.908  0.0045  0.0590 -0.1080
    1W        W39931  28.448  10.457   0.225 -0.3857  0.3151  0.1449
    1W        W39932  17.242   0.455   8.534  0.1868  0.0365 -0.3815
    1W        W39933  24.519  17.950   2.646 -0.1448  0.0345 -0.0888
    1W        W39934   4.623   5.797   1.138 -0.0139 -0.3122  0.3406
    1W        W39935  17.512  10.144   8.034  0.3131 -0.1403 -0.1923
    1W        W39936  15.231   5.664   0.945  0.1079 -0.1249  0.0861
    1W        W39937  13.399   4.008   5.873  0.0227  0.2413  0.3448
    1W        W39938  16.160   2.058   8.499  0.1627  0.0464 -0.0731
    1W        W39939   4.157  17.028   9.133  0.0398 -0.1960 -0.2102
    1W        W39940   0.234   3.556   2.830 -0.0322 -0.0177 -0.4586
    1W        W39941   8.655  15.325   2.037  0.0560  0.1049 -0.2602
    1W        W39942   4.972  20.866   2.203 -0.0547  0.0933  0.2493
    1W        W39943  19.968  20.055   1.686  0.0344  0.2209 -0.1138
    1W        W39944   5.382  17.765   7.392 -0.2562 -0.2052 -0.2868
    1W        W39945   7.033  20.600   9.631 -0.1676  0.0041  0.0160
    1W        W39946   3.505   6.717   7.742  0.2047 -0.0178 -0.1780
    1W        W39947   9.270   4.640   2.519  0.0533 -0.1096  0.1133
    1W        W39948   7.575  26.314   0.546 -0.3149 -0.0480 -0.1094
    1W        W39949  19.283  12.172   1.560 -0.1480 -0.0045 -0.0365
    1W        W39950  15.177  25.138   8.895  0.0384  0.2302  0.4057
    1W        W39951  12.915  26.242   2.445 -0.1484  0.0607 -0.0791
    1W        W39952  15.653  20.489   2.624 -0.1377 -0.1393  0.0796
    1W        W39953  21.858  20.548   2.940 -0.1223  0.3619 -0.0013
    1W        W39954  20.962   3.452   2.025  0.1305 -0.1200 -0.0368
    1W        W39955  21.372   4.145   2.147 -0.3721 -0.1144 -0.2805
    1W        W39956  24.645  11.297   9.179  0.2485 -0.0571  0.0832
    1W        W39957  13.260  20.995   0.354 -0.0665  0.1983  0.2210
    1W        W39958   2.471  14.291   8.885  0.0935  0.0834 -0.3571
    1W        W39959  26.181   6.449   4.257 -0.0648 -0.1090 -0.1694
    1W        W39960   6.500   1.408   9.597 -0.0388  0.2245  0.0998
    1W        W39961   1.730  28.615   0.804 -0.0859  0.0018  0.1613
    1W        W39962  19.591  27.019   2.077  0.1364  0.1902  0.2095
    1W        W39963  24.423  18.765   8.981 -0.2643 -0.1465 -0.1922
    1W        W39964  15.973   3.578   8.089 -0.0138 -0.0799  0.0879
    1W        W39965   6.626  22.542   8.508  0.3235 -0.1356  0.1080
    1W        W39966   9.653  11.117   7.563 -0.1444  0.0188  0.0512
    1W        W39967  18.504  17.040   6.808 -0.1619  0.0526 -0.0137
    1W        W39968  26.896  20.630   1.411 -0.0533  0.2658  0.1414
    1W        W39969  26.482  24.168   9.820 -0.2884 -0.0128 -0.2069
    1W        W39970   2.174   6.631   3.653  0.1851  0.2647  0.1429
    1W        W39971   9.373   6.456   9.399 -0.0574  0.2760  0.2413
    1W        W39972   9.154   7.398   1.304 -0.3590  0.0794 -0.2323
    1W        W39973  16.835   9.136   0.931  0.1829 -0.1168 -0.0257
    1W        W39974  22.184   3.190   2.815  0.0735 -0.0348  0.1973
    1W        W39975   0.904  21.305   9.722  0.3328  0.1961 -0.0195
    1W        W39976  13.283   4.525   9.592 -0.0610 -0.2058 -0.2027
    1W        W39977   6.951  20.301   6.990 -0.3136  0.3580 -0.1319
    1W        W39978  26.748  13.750   0.001  0.4296 -0.2020  0.1152
    1W        W39979  17.307  23.614   7.749  0.1388 -0.0721 -0.0574
    1W        W39980   7.572  22.291   8.625 -0.0336 -0.0292 -0.0302
    1W        W39981   4.691  19.501   8.355 -0.0113  0.0853  0.5584
    1W        W39982  24.918   9.514   3.516 -0.0556  0.0635  0.1247
    1W        W39983  16.312  26.247   8.025  0.0298 -0.0842 -0.1050
    1W        W39984  22.220  18.032   1.065  0.0395  0.0678  0.0192
    1W        W39985  21.228  19.086   1.681  0.2704  0.2120 -0.1079
    1W        W39986   2.593  25.249   8.061 -0.1038  0.4272  0.1001
    1W        W39987  20.183  16.363   3.034  0.0187  0.0833 -0.0561
    1W        W39988  12.405  11.273   9.180  0.1984  0.0073 -0.0163
    1W        W39989  27.813  11.490   8.554 -0.0045 -0.2334 -0.6428
    1W        W39990  12.239  12.181   1.903 -0.0299 -0.0897  0.3520
    1W        W39991  26.992   7.748   2.058 -0.0891  0.2521 -0.0791
    1W        W39992  21.308  15.188   2.430 -0.0601  0.2166  0.2250
    1W        W39993   2.671  10.240   8.413 -0.1628  0.0370  0.0643
    1W        W39994   0.065   1.436   3.092 -0.3319  0.2899  0.2339
    1W        W39995   7.339  19.175   8.194  0.0973 -0.4535 -0.2881
    1W        W39996  18.711  23.596   9.858 -0.0854 -0.3944 -0.1671
    1W        W39997  19.123  25.237   6.597 -0.1215  0.0940  0.2144
    1W        W39998   8.820  15.380   6.745  0.0495 -0.0576  0.1912
    1W        W39999   4.698  27.302   1.705 -0.2561  0.3040 -0.0033
    1W        W40000  24.064  12.572   0.621  0.0903 -0.1828 -0.1065
    1W        W40001  16.514  13.627   1.007 -0.2727  0.2057 -0.0275
    1W        W40002  13.945  11.909   7.646  0.2312 -0.0910  0.1613
    1W        W40003   3.119   3.998   2.426  0.0624  0.1909  0.1913
    1W        W40004  24.451   6.238   1.311 -0.1150  0.2724  0.1281
    1W        W40005   0.861  27.269   1.116 -0.0971 -0.1875  0.0231
    1W        W40006   7.402   2.015   0.591 -0.0563  0.1882 -0.1321
    1W        W40007  13.697  24.114   7.900  0.0990  0.3885 -0.1971
    1W        W40008   5.143   5.538   8.444  0.0048 -0.1443 -0.0764
    1W        W40009   8.746  22.078   8.234  0.2901 -0.1927  0.3889
    1W        W40010  15.879  22.466   9.362 -0.1024 -0.1562 -0.0108
    1W        W40011  27.450  26.076   7.674 -0.0216  0.1551  0.1450
    1W        W40012  24.716   8.919   2.157 -0.0163  0.3037  0.2005
    1W        W40013  16.679  18.196   1.966  0.1496  0.2508  0.0339
    1W        W40014   9.789  24.129   2.447 -0.1912 -0.1198 -0.0126
    1W        W40015   8.266  25.472   9.015  0.0392 -0.0067 -0.0829
    1W        W40016  24.635  20.075   0.910  0.3389  0.1538 -0.0343
    1W        W40017  24.198   8.583   1.539  0.0567 -0.1048 -0.0172
    1W        W40018   7.361  18.532   7.301 -0.3075 -0.0800 -0.2740
    1W        W40019  20.340   5.017   0.725 -0.0947 -0.0907  0.1203
    1W        W40020  22.015  19.083   0.110  0.0422 -0.1251  0.1515
    1W        W40021  11.182  12.034   9.819  0.0545  0.2464  0.2449
    1W        W40022  10.980   7.645   8.736  0.2647  0.0065 -0.0072
    1W        W40023   6.825   9.026   1.470 -0.2798 -0.0143 -0.3326
    1W        W40024  10.480  16.154   7.182 -0.1858 -0.0152  0.1003
    1W        W40025   2.631  12.845   1.377  0.1922 -0.1389  0.1364
    1W        W40026  16.117   8.576   8.835 -0.1823  0.1045 -0.0612
    1W        W40027  19.371  27.187   2.468 -0.2330  0.0628  0.0568
    1W        W40028   9.278   0.284   3.333  0.0589 -0.1998  0.1045
    1W        W40029   0.723  28.090   4.164  0.1885 -0.2992 -0.0857
    1W        W40030  12.958  27.243   9.320  0.1451  0.1242 -0.1526
    1W        W40031  17.937  21.200   6.419 -0.1862 -0.1788 -0.0898
    1W        W40032  21.763   3.888   1.012 -0.0639 -0.0956 -0.0989
    1W        W40033  10.149  17.571   9.128 -0.0856 -0.0409  0.0692
    1W        W40034  23.832   3.587   1.687 -0.0994 -0.0034  0.1659
    1W        W40035   7.507   5.184   2.445  0.1447 -0.0963  0.1131
    1W        W40036  19.132  14.790   1.126  0.0413  0.0110 -0.0347
    1W        W40037  25.961  22.670   2.126 -0.0349 -0.0213  0.2021
    1W        W40038  23.957  24.092   0.075  0.0080 -0.1656  0.1520
    1W        W40039  14.322  21.693   0.950 -0.2107  0.2102  0.2114
    1W        W40040  17.374   3.893   0.370  0.0854 -0.2477 -0.3196
    1W        W40041  21.050   4.867   2.194  0.2059 -0.4004  0.1298
    1W        W40042  24.498  14.437   8.314  0.2060 -0.0008 -0.0398
    1W        W40043   7.432  21.848   7.621  0.1619 -0.2731  0.0046
    1W        W40044  25.050  14.681   7.624 -0.1748 -0.0398 -0.1383
    1W        W40045  20.420   4.503   0.072 -0.1122 -0.2575  0.0767
    1W        W40046  25.398   0.022   9.195 -0.5881  0.0644  0.2540
    1W        W40047   1.657  22.162   8.838 -0.0276 -0.1916 -0.2959
    1W        W40048   9.345  16.095   0.269  0.0609 -0.3331 -0.2020
    1W        W40049   4.999  20.080   2.526 -0.0173 -0.0063  0.2236
    1W        W40050   6.399  11.117   7.180 -0.0596 -0.1629  0.0276
    1W        W40051  24.710  19.577   8.148 -0.0093 -0.2020 -0.0980
    1W        W40052   4.632  13.812   9.527 -0.3049 -0.1650 -0.0603
    1W        W40053  22.430  18.611   1.782 -0.2911 -0.0976  0.2311
    1W        W40054  27.617  12.775   0.177 -0.1663 -0.1392  0.0259
    1W        W40055  28.521  17.972   9.532 -0.1543 -0.0477  0.0045
    1W        W40056   8.776  22.054   1.340  0.0865 -0.3097  0.1561
    1W        W40057  17.650  14.205   8.575 -0.4389  0.0464  0.3170
    1W        W40058   3.803   5.965   9.839  0.2458  0.2009  0.1806
    1W        W40059   0.047  24.577   9.930 -0.0257 -0.1605  0.0295
    1W        W40060   7.596  11.421   1.257 -0.1735  0.0735 -0.0719
    1W        W40061  19.041  21.261   7.860  0.1452 -0.1505 -0.1513
    1W        W40062  23.272   9.007   8.936  0.1996 -0.1035 -0.0566
    1W        W40063  14.867   9.879   1.142 -0.0619 -0.1697  0.1355
    1W        W40064  15.373  19.687   7.491 -0.1687 -0.1180  0.2223
    1W        W40065  12.460  21.483   0.841 -0.0917 -0.1540 -0.1540
    1W        W40066  22.445  20.914   7.697 -0.2953  0.0057 -0.1095
    1W        W40067   3.713  16.227   2.881  0.0268  0.4548  0.2880
    1W        W40068  27.987   3.741   9.055 -0.0914 -0.4034  0.1162
    1W        W40069  28.677  25.749   2.281 -0.2049  0.0926  0.0457
    1W        W40070  12.855   9.635   9.302  0.4433  0.1819 -0.3483
    1W        W40071  20.357  18.017   7.515  0.1044  0.0166 -0.0012
    1W        W40072  10.765  12.901   9.975 -0.0390 -0.1655  0.1546
    1W        W40073  25.081   8.770   9.932  0.0035 -0.2324  0.2251
    1W        W40074  15.400  28.775   8.576 -0.0324  0.0678 -0.1972
    1W        W40075  23.515   1.406   1.861  0.0347 -0.0670 -0.2681
    1W        W40076  21.999  12.268   7.492  0.2811 -0.2174  0.0918
    1W        W40077   6.924  22.930   8.712 -0.1561  0.2549  0.2158
    1W        W40078  26.220   6.720   9.162  0.1861  0.2142  0.1173
    1W        W40079   8.754   2.668   3.443  0.1179 -0.1052 -0.2090
    1W        W40080  13.616  12.078   0.749  0.1281  0.0198 -0.2602
    1W        W40081  21.403   1.865   9.162  0.1170 -0.1862  0.0947
    1W        W40082  22.169  25.318   8.322  0.0368 -0.1686 -0.0560
    1W        W40083  10.603  18.042   7.932  0.3602 -0.1566  0.2021
    1W        W40084  26.759   9.061   0.785  0.3119  0.0582  0.1258
    1W        W40085   4.497  16.854   8.733 -0.1415  0.2159  0.0036
    1W        W40086   6.151   0.723   2.094  0.0126  0.1469  0.0630
    1W        W40087  11.070   4.558   7.225  0.0229 -0.0005  0.0551
    1W        W40088   8.903   0.083   1.650  0.3353 -0.2516  0.0207
    1W        W40089  13.431  17.644   0.210 -0.1271 -0.2454 -0.0636
    1W        W40090  12.200  25.433   8.076  0.1983 -0.1262  0.1282
    1W        W40091  14.704   7.292   1.213 -0.1213  0.4760 -0.0251
    1W        W40092  11.917   3.771   8.611 -0.1458 -0.0184  0.2245
    1W        W40093  26.203   3.020   4.082 -0.0051  0.1794  0.3862
    1W        W40094   2.814  18.684   9.142 -0.0726 -0.0816  0.1923
    1W        W40095  14.040   9.958   7.639  0.1434  0.0643 -0.1553
    1W        W40096  21.855  28.624   0.979 -0.0823 -0.1710 -0.2476
    1W        W40097  15.546   4.443   9.931  0.2122  0.1973 -0.0152
    1W        W40098   9.058  28.394   2.347  0.4087 -0.2365  0.1413
    1W        W40099  22.703   8.060   7.773  0.0224  0.1553 -0.1196
    1W        W40100   0.905  17.594   0.973  0.1045 -0.1424  0.3462
    1W        W40101  13.395   9.793   9.096  0.0241  0.1219 -0.0899
    1W        W40102   8.835  10.053   0.464 -0.0268 -0.1922  0.1975
    1W        W40103  17.427   2.882   8.582 -0.0520  0.1091 -0.0200
    1W        W40104  13.681  11.632   0.382  0.1454 -0.2197  0.1817
    1W        W40105  16.255  27.608   8.588  0.0816  0.0131  0.1121
    1W        W40106  20.937   6.149   1.917  0.1080  0.1466 -0.1054
    1W        W40107  18.028  21.596   2.013 -0.0222  0.0139  0.0403
    1W        W40108  15.189  17.778   6.556  0.0600  0.2304  0.2082
    1W        W40109  17.697  28.422   9.535  0.1929 -0.0959 -0.1784
    1W        W40110  14.897  23.082   6.555  0.1798 -0.0307  0.0927
    1W        W40111  13.324   2.787   7.091  0.1750 -0.1847  0.0758
    1W        W40112  12.200  17.620   1.962  0.0575  0.1171 -0.0127
    1W        W40113  23.110  26.146   9.451 -0.0111 -0.2192 -0.2073
    1W        W40114  12.441   0.003   1.881 -0.1803  0.1645  0.1729
    1W        W40115  15.756  20.797   6.396  0.0488 -0.0074  0.0258
    1W        W40116  24.469  18.305   9.080  0.2578  0.0760 -0.0624
    1W        W40117   1.513  22.386   0.390  0.0110 -0.1924 -0.0299
    1W        W40118  19.683   1.151   2.694 -0.0482  0.1999 -0.2287
    1W        W40119  22.907  17.016   9.063 -0.0773  0.2447 -0.0460
    1W        W40120  11.422  22.600   9.852 -0.2546 -0.1706  0.3668
    1W        W40121   8.848  11.114   1.862  0.1170 -0.0740 -0.0158
    1W        W40122  11.429   8.097   5.622  0.2135  0.0781  0.0586
    1W        W40123  19.735   5.798   7.211 -0.0978 -0.1207  0.0259
    1W        W40124  26.755  24.919   0.616 -0.0900  0.2021 -0.0885
    1W        W40125  23.320   4.727   7.960  0.3941  0.1152  0.1088
    1W        W40126  19.260  24.660   7.257 -0.1963 -0.1899 -0.0273
    1W        W40127   7.299  26.917   0.298  0.3863  0.2379 -0.1840
    1W        W40128  21.308  14.331   8.772  0.4973  0.3812  0.1459
    1W        W40129  19.646   6.779   8.156  0.2153  0.2141 -0.2246
    1W        W40130  12.667  26.712   9.401 -0.0741  0.0191  0.0552
    1W        W40131   2.788  23.716   8.255 -0.2478 -0.2715  0.2840
    1W        W40132  22.044  27.828   9.100 -0.1621 -0.1299  0.3104
    1W        W40133   3.949  22.811   8.352 -0.0629 -0.0134  0.0359
    1W        W40134   6.959  14.868   7.259  0.1250  0.1865 -0.2184
    1W        W40135   9.454   4.756   8.601 -0.0739  0.1429  0.1873
    1W        W40136  24.901  11.631   1.619 -0.0591  0.0462 -0.1362
    1W        W40137  15.330   5.810   7.902  0.0242  0.1410  0.2711
    1W        W40138  13.669  23.510   7.839 -0.1802  0.0962  0.2440
    1W        W40139  27.564  27.518   1.633  0.2908 -0.2877  0.0414
    1W        W40140  18.962  19.752   6.974 -0.3430  0.1585  0.1170
    1W        W40141  18.144  24.704   2.693 -0.0496  0.0429  0.0691
    1W        W40142   0.679  22.463   8.365 -0.1674 -0.1003 -0.1314
    1W        W40143  14.505  14.490   2.816 -0.3999  0.2158  0.2119
    1W        W40144  15.276  28.269   9.460 -0.0128  0.2936  0.2094
    1W        W40145  28.802  24.225   9.581 -0.0637 -0.1441  0.0074
    1W        W40146  10.208   7.787   6.941  0.3716 -0.3142 -0.2705
    1W        W40147   1.169   7.893   8.324 -0.0671  0.0989 -0.1131
    1W        W40148  16.143  20.573   9.203 -0.1673  0.0786 -0.2254
    1W        W40149  15.293  13.034   7.870  0.2014 -0.0709 -0.3299
    1W        W40150   2.228  24.688   0.698 -0.2213 -0.2522  0.0626
    1W        W40151   2.288   6.047   2.946  0.3174 -0.0900  0.1163
    1W        W40152  22.186  25.429   1.385 -0.3135  0.4136 -0.0233
    1W        W40153  17.547  20.005   8.553  0.0015  0.3176  0.1417
    1W        W40154  21.146  21.189   7.726  0.1196 -0.3261 -0.5141
    1W        W40155  20.826  15.151   2.199  0.0832 -0.0442  0.0105
    1W        W40156   5.800  23.563   7.228  0.0047  0.1126 -0.0916
    1W        W40157  25.343   8.067   3.312  0.0147 -0.2413 -0.0872
    1W        W40158  12.256  13.576   2.243  0.1268  0.2621 -0.2094
    1W        W40159  17.989   7.223   6.634 -0.0312 -0.0548  0.3231
    1W        W40160  13.772  15.971   9.795  0.1693 -0.1694 -0.0777
    1W        W40161   4.305  10.764   1.048 -0.0677 -0.0967 -0.0139
    1W        W40162   4.241  23.495   1.289  0.2917 -0.2526  0.2357
    1W        W40163   0.264  20.532   1.113  0.2786 -0.1059  0.0069
    1W        W40164  13.428  25.801   8.727  0.2866  0.0983  0.3151
    1W        W40165   4.398   8.453   0.024 -0.2781  0.0449  0.1542
    1W        W40166  23.886   7.586   6.534  0.2591 -0.1487 -0.4136
    1W        W40167  11.768  13.383   0.917  0.0021  0.2916 -0.0489
    1W        W40168  20.985  16.478   7.730 -0.1201  0.1531  0.3019
    1W        W40169   6.289  27.674   0.305 -0.1063 -0.0954 -0.0245
    1W        W40170   4.195   1.875   1.950  0.1121  0.2137 -0.1443
    1W        W40171  12.469  12.446   1.169  0.1095  0.1156  0.0267
    1W        W40172  12.157  18.430   2.185 -0.1314 -0.0874  0.3516
    1W        W40173  18.356   3.416   1.106  0.1861 -0.1627  0.1539
    1W        W40174  17.252  23.696   8.755 -0.1622 -0.2373 -0.1669
    1W        W40175   2.551  17.683   0.012 -0.2236 -0.0202  0.0205
    1W        W40176   4.422  16.149   0.679 -0.0355 -0.2387 -0.1977
    1W        W40177  25.964  27.696   2.507  0.1120  0.3127  0.0007
    1W        W40178   8.106  25.527   2.257 -0.0104  0.0367  0.0506
    1W        W40179  18.804   1.380   0.390 -0.0706  0.1873 -0.1565
    1W        W40180  16.938   1.876   0.710 -0.2935  0.1930  0.1020
    1W        W40181  24.447   1.828   8.465  0.1773 -0.2135 -0.3033
    1W        W40182   6.167  14.239   9.500  0.3558  0.1388 -0.0674
    1W        W40183   5.692  27.089   2.235 -0.0097  0.1474  0.0357
    1W        W40184  14.634  23.154   0.195 -0.2224 -0.1065 -0.0064
    1W        W40185  20.686  11.808   9.375 -0.1547 -0.2368  0.1448
    1W        W40186  14.620   8.505   6.006  0.2149 -0.0565 -0.4895
    1W        W40187  21.840  12.602   2.196 -0.3632 -0.0037  0.0653
    1W        W40188   5.852  25.303   0.277 -0.1204 -0.0721  0.2949
    1W        W40189  24.161   9.155   7.457 -0.0899 -0.0719 -0.2026
    1W        W40190   4.356  18.528   1.236 -0.0163 -0.1724 -0.1808
    1W        W40191  22.453  13.583   2.732 -0.2562  0.0673  0.2476
    1W        W40192  24.009  10.550   7.709  0.0998 -0.1787  0.0789
    1W        W40193  24.340  25.396   8.978 -0.4244 -0.0087 -0.0508
    1W        W40194  28.570   3.837   0.255  0.2488 -0.1552 -0.5787
    1W        W40195   6.499  19.477   0.984  0.3565  0.2320  0.1265
    1W        W40196   0.901  23.585   0.339 -0.1315 -0.0534  0.1426
    1W        W40197  25.229   8.038   1.222 -0.0599  0.0312  0.0760
    1W        W40198  10.648   7.521   1.103 -0.1492 -0.0153  0.0228
    1W        W40199   4.154   6.241   3.455 -0.0823  0.1548 -0.0341
    1W        W40200  26.378   3.576   1.414 -0.0444 -0.1707  0.0029
    1W        W40201   5.628   2.471   1.805  0.5763 -0.0479 -0.2103
    1W        W40202   3.910  20.267   8.704  0.0089 -0.1189  0.0590
    1W        W40203   6.692   3.314   8.635  0.0875  0.0420  0.0559
    1W        W40204  13.130   6.659   1.351  0.1081 -0.0286  0.0593
    1W        W40205  27.943  19.153   0.195 -0.1082 -0.1878  0.0639
    1W        W40206  19.399  20.934   7.981  0.1095  0.4120 -0.0956
    1W        W40207   0.551  14.501   9.362 -0.2687  0.1738 -0.2181
    1W        W40208  21.333   1.477   1.520 -0.2550 -0.2443 -0.0684
    1W        W40209  25.935  12.114   2.629  0.2749 -0.0450 -0.2054
    1W        W40210  21.871   4.536   9.747 -0.0340  0.1186 -0.0381
    1W        W40211  19.056  23.893   9.625 -0.0346 -0.0410  0.0128
    1W        W40212   7.997  28.595   2.223  0.2476  0.3931  0.0765
    1W        W40213   5.994  16.910   2.575  0.2518  0.3785 -0.1512
    1W        W40214   9.339   5.183   9.071  0.1115 -0.0344 -0.2872
    1W        W40215  16.855   7.503   1.116  0.0054 -0.0740  0.1129
    1W        W40216  23.587  27.711   0.689  0.0596  0.4065  0.0048
    1W        W40217  11.845   3.387   8.248 -0.1075 -0.0146  0.1436
    1W        W40218   2.984  25.964   0.207 -0.0532 -0.1471 -0.0776
    1W        W40219  28.693  25.152   8.551  0.1244  0.2115  0.1045
    1W        W40220   5.829  20.512   9.277 -0.1485  0.1456  0.0455
    1W        W40221   4.585   1.395   3.022 -0.0317 -0.1634 -0.2360
    1W        W40222  19.146  11.218   1.909 -0.2401  0.0354 -0.2477
    1W        W40223   1.580   0.682   1.227  0.2045 -0.0033  0.2255
    1W        W40224   2.459   5.747   3.292  0.2105  0.0903 -0.1230
    1W        W40225   6.558   3.548   7.803 -0.2296 -0.1624 -0.2486
    1W        W40226   3.936  10.450   8.877 -0.0750  0.0927  0.2239
    1W        W40227  24.978  19.970   2.043 -0.0017  0.1498  0.1875
    1W        W40228  24.678  13.099   1.178 -0.3131 -0.0812  0.0930
    1W        W40229  28.719  20.756   2.865  0.0058 -0.2262 -0.3259
    1W        W40230  25.333   0.745   0.534 -0.1665 -0.2278 -0.1520
    1W        W40231  17.480   5.535   6.895 -0.2156  0.4080  0.0597
    1W        W40232  12.954  11.377   0.875  0.0120 -0.4555  0.3240
    1W        W40233  24.266   5.173   2.900  0.2768  0.0935  0.2038
    1W        W40234   8.706  21.065   7.762  0.3990 -0.2927 -0.0033
    1W        W40235  18.904  17.746   2.321 -0.0311  0.1009  0.1083
    1W        W40236  27.391  26.866   9.814 -0.1547  0.0137 -0.2791
    1W        W40237   5.236  15.097   1.351 -0.1003  0.2249 -0.1635
    1W        W40238   6.560  21.043   2.247 -0.1436 -0.0115  0.1898
    1W        W40239  16.843   1.171   7.496  0.0716 -0.2032  0.4125
    1W        W40240  21.061  16.048   8.214  0.2356  0.1665 -0.2088
    1W        W40241  27.488  19.467   0.141 -0.2392 -0.0285  0.1127
    1W        W40242  15.463  26.011   0.658  0.2294 -0.0872  0.2206
    1W        W40243  11.507   5.745   8.386  0.0452 -0.0532 -0.0949
    1W        W40244  21.208  16.232   9.854 -0.1922 -0.4047  0.0807
    1W        W40245  19.514  19.943   6.690 -0.2455 -0.3446 -0.0950
    1W        W40246  20.009   9.350   1.436 -0.0820 -0.1126 -0.2354
    1W        W40247   0.119  16.075   0.479  0.2655  0.1683  0.0584
    1W        W40248  28.523  21.189   3.669 -0.0338 -0.0323 -0.1770
    1W        W40249  22.078  20.017   6.616 -0.2257 -0.1527  0.2045
    1W        W40250  25.047   1.786   8.731  0.1611  0.3180  0.3300
    1W        W40251  27.030  17.829   9.606  0.0519  0.1561 -0.0017
    1W        W40252   6.705  16.573   1.013 -0.1164  0.0789  0.0671
    1W        W40253   3.749   4.556   1.535 -0.1910  0.0085 -0.0442
    1W        W40254   4.687   9.169   2.560  0.1237 -0.2299 -0.0533
    1W        W40255  25.832  25.805   0.070  0.0773 -0.0625 -0.4948
    1W        W40256  16.450   6.302   0.959  0.0459  0.0589  0.1244
    1W        W40257  26.882   5.555   2.414  0.2436  0.0520  0.3454
    1W        W40258  11.752   9.791   0.323 -0.0921  0.1277 -0.1224
    1W        W40259   1.492  19.045   7.335  0.0279  0.1422  0.1733
    1W        W40260  25.525  20.218   2.070 -0.0930  0.1807  0.0261
    1W        W40261   4.764  15.254   2.348  0.0651 -0.0398  0.2420
    1W        W40262  25.502  12.705   8.892 -0.2633  0.1672 -0.0506
    1W        W40263  27.025  16.940   1.283  0.0243 -0.1056  0.1583
    1W        W40264  12.389  10.862   7.928 -0.2299  0.4225  0.1397
    1W        W40265   5.080   5.108   8.702  0.3115 -0.1935 -0.2391
    1W        W40266  22.936   7.337   0.624 -0.2499  0.2424  0.0709
    1W        W40267   9.332  12.852   0.277 -0.0682 -0.2835 -0.1340
    1W        W40268  25.643  26.221   9.928  0.1326 -0.0613  0.1757
    1W        W40269   0.168  28.162   3.688 -0.1212  0.3054 -0.1155
    1W        W40270  11.336  20.989   9.906 -0.2588  0.1084 -0.0091
    1W        W40271  15.872  13.293   8.659 -0.0978  0.1326 -0.2977
    1W        W40272   4.974  26.087   2.002  0.0298  0.0709 -0.2556
    1W        W40273  20.825  27.575   2.806  0.1356  0.1636 -0.1028
    1W        W40274   0.592  25.919   0.465 -0.3370 -0.2574 -0.1030
    1W        W40275  15.775  24.499   1.736 -0.2133  0.0415  0.0106
    1W        W40276   5.371  15.419   7.988  0.1792  0.1545  0.0458
    1W        W40277  26.739  13.822   8.488 -0.0051 -0.1340  0.1564
    1W        W40278   9.780  18.752   8.192 -0.0594  0.0434  0.0856
    1W        W40279  17.599  23.275   8.582 -0.2266 -0.0503 -0.1879
    1W        W40280   2.574   6.498   2.949  0.2660  0.1409 -0.0819
    1W        W40281  13.077  20.526   1.827 -0.0714  0.0585  0.2727
    1W        W40282  24.769  10.543   7.055 -0.1127 -0.1037  0.1744
    1W        W40283   0.661   6.811   9.318  0.0649 -0.1679 -0.0231
    1W        W40284  14.368  22.670   0.858  0.3567 -0.2368  0.0824
    1W        W40285  22.612   3.029   8.649  0.0424  0.6751 -0.3551
    1W        W40286  26.477   1.498   0.668 -0.0228  0.3009 -0.0047
    1W        W40287  21.063  24.793   7.507 -0.0438  0.0024  0.0920
    1W        W40288  16.061  14.753   7.242  0.0555 -0.1352  0.0481
    1W        W40289   0.044  21.798   1.364  0.0214 -0.1593  0.2556
    1W        W40290  21.948  12.319   0.723  0.1055  0.1352  0.1698
    1W        W40291  13.260  19.169   8.722  0.1349  0.2017  0.2203
    1W        W40292  19.082   2.747   1.681 -0.0808 -0.0614  0.1867
    1W        W40293   9.040   7.863   1.240 -0.0282  0.1144 -0.1866
    1W        W40294   9.183  19.039   2.409 -0.1021 -0.2388 -0.0476
    1W        W40295   9.513   4.920   2.153  0.0089  0.0382 -0.0122
    1W        W40296  27.576  13.752   6.850  0.1447 -0.1427  0.0766
    1W        W40297  27.119  11.336   2.421 -0.0111 -0.1891  0.1252
    1W        W40298   7.368  27.215   7.212  0.2089 -0.0987  0.0546
    1W        W40299  12.690  13.973   7.831 -0.0632 -0.0392 -0.0831
    1W        W40300  25.496   2.250   2.461 -0.0155 -0.0576  0.0102
    1W        W40301   2.678  26.398   3.538 -0.2006  0.2514 -0.1170
    1W        W40302  15.047  19.564   9.401 -0.1367 -0.2822 -0.0762
    1W        W40303   1.303  26.872   0.021  0.0745 -0.0419  0.2663
    1W        W40304   5.889   1.807   7.912  0.0355 -0.2214 -0.0544
    1W        W40305  13.605  24.923   9.832  0.2078 -0.2168 -0.1547
    1W        W40306  13.027  17.784   1.148 -0.1080 -0.0201 -0.2126
    1W        W40307  18.892   8.489   1.576  0.0889  0.0611 -0.0162
    1W        W40308  21.753   6.857   0.586  0.1533  0.1584  0.0382
    1W        W40309  12.000  11.855   7.029 -0.0670 -0.2392 -0.1623
    1W        W40310   6.535   3.923   3.577 -0.1104 -0.0648  0.2991
    1W        W40311  13.372  11.828   9.206 -0.0630  0.0563  0.1233
    1W        W40312   2.375  23.583   0.297 -0.1244  0.2937  0.1501
    1W        W40313  24.908  27.972   9.816 -0.0069  0.0213  0.1347
    1W        W40314  28.489   1.076   2.821 -0.0408 -0.0196  0.0276
    1W        W40315   6.437   5.623   1.163  0.2810  0.0606  0.3036
    1W        W40316  19.513  26.640   2.544 -0.0041 -0.0436 -0.4907
    1W        W40317   2.869  14.507   9.847 -0.2006  0.1576 -0.1189
    1W        W40318  16.637  18.546   7.955 -0.0203 -0.0729  0.1403
    1W        W40319  18.732  17.408   6.165 -0.1227 -0.0025 -0.2803
    1W        W40320   8.814   8.670   6.421 -0.2984  0.1008 -0.0029
    1W        W40321   7.639   7.936   0.968  0.4330 -0.2442  0.2553
    1W        W40322  15.756  17.872   6.728 -0.0905 -0.3173 -0.0268
    1W        W40323   7.259  10.163   9.950 -0.1254 -0.0460 -0.0781
    1W        W40324  11.213  12.919   0.095 -0.1474 -0.1842 -0.0001
    1W        W40325   3.486   6.604   8.430 -0.1048 -0.0103  0.3636
    1W        W40326  10.964  19.455   9.143  0.0694 -0.2447  0.3501
    1W        W40327   1.816  12.423   8.084  0.0759  0.0407 -0.0485
    1W        W40328  16.539   4.182   0.930 -0.2181 -0.0453  0.4755
    1W        W40329   9.987  17.289   9.550 -0.0382 -0.1926  0.0729
    1W        W40330   8.316   0.018   8.806  0.0533  0.0156  0.0775
    1W        W40331  25.501  15.170   2.083 -0.2025 -0.1335 -0.1919
    1W        W40332  19.706   7.856   6.396 -0.3514 -0.2282  0.0542
    1W        W40333  15.242   2.170   9.174 -0.2982  0.0205  0.2682
    1W        W40334   6.312  28.724   2.635 -0.0993 -0.2948  0.1518
    1W        W40335   8.235   0.572   9.502  0.2600 -0.2485 -0.0506
    1W        W40336  13.882   7.467   9.291 -0.3856 -0.2016  0.0464
    1W        W40337   1.814  26.773   0.056 -0.0203 -0.0485  0.1671
    1W        W40338   2.973  26.654   1.458  0.2145  0.0531 -0.2818
    1W        W40339  24.256  24.204   1.281 -0.2898 -0.2838  0.3654
    1W        W40340  11.083  18.813   0.154 -0.2664 -0.1684  0.0327
    1W        W40341  14.164  17.225   0.447 -0.0812  0.1294 -0.0037
    1W        W40342   3.864   3.742   0.869 -0.0771 -0.0962  0.1534
    1W        W40343  11.263  18.136   1.060 -0.0264  0.1078  0.1288
    1W        W40344  18.060  10.877   6.306 -0.0067  0.0394  0.0024
    1W        W40345   8.590   0.447   2.553 -0.1114  0.2832  0.0068
    1W        W40346  15.177  23.654   0.406 -0.0176  0.1556 -0.0573
    1W        W40347  17.678  15.477   8.679  0.0076 -0.0514  0.0311
    1W        W40348  22.801   0.263   0.057 -0.0047 -0.0268  0.0832
    1W        W40349  15.193  10.083   0.732 -0.1579 -0.0122  0.0686
    1W        W40350   3.334  24.185   2.760 -0.0229 -0.2249 -0.1549
    1W        W40351  18.467  20.460   9.708  0.3673 -0.1026  0.2363
    1W        W40352  17.671  28.235   8.013 -0.0381  0.0872 -0.0316
    1W        W40353  12.356  17.071   1.764  0.0566  0.0216 -0.0475
    1W        W40354   2.884  12.249   1.803  0.0317  0.0176 -0.4242
    1W        W40355   9.957   8.041   6.558 -0.1730 -0.1738  0.2448
    1W        W40356  14.598  24.811   6.988  0.0843  0.3265  0.2126
    1W        W40357  23.168   0.267   9.090  0.5423  0.3290  0.1752
    1W        W40358  25.858   4.658   8.321 -0.1806  0.1753 -0.1119
    1W        W40359   1.252  23.451   7.217  0.1421  0.1593  0.0068
    1W        W40360  26.262  20.536   2.750 -0.0468 -0.1744 -0.1311
    1W        W40361  28.789  13.110   1.747 -0.1297 -0.1084 -0.4749
    1W        W40362   2.502  12.775   8.866 -0.1509 -0.0045  0.1132
    1W        W40363   2.959  15.572   9.862  0.2224 -0.0246 -0.2097
    1W        W40364  25.461   5.305   1.584 -0.0345 -0.2045  0.3610
    1W        W40365  21.184   7.785   0.559 -0.3810 -0.1179 -0.0546
    1W        W40366  10.738  14.131   9.235  0.3346  0.0152  0.1958
    1W        W40367   6.711   0.355   3.240 -0.5379  0.1364 -0.0432
    1W        W40368  28.085  26.300   3.316  0.2187 -0.0938 -0.0532
    1W        W40369  12.043  20.030   0.397 -0.1616  0.0679  0.1161
    1W        W40370   4.083  21.806   7.925 -0.2555 -0.0646  0.0029
    1W        W40371   7.227   1.290   0.135 -0.0691  0.1983  0.2503
    1W        W40372  23.368   1.865   1.046 -0.0428 -0.2463 -0.0914
    1W        W40373   4.799  22.471   7.902 -0.1882  0.3881 -0.1144
    1W        W40374  27.482  11.259   7.603 -0.0286 -0.1288  0.1007
    1W        W40375  12.629  14.988   9.287  0.0747  0.1712  0.0101
    1W        W40376   9.048  28.073   8.257  0.1351  0.3203  0.1177
    1W        W40377  12.828  10.908   7.033  0.0788 -0.1031 -0.0354
    1W        W40378  20.523   1.283   1.904 -0.2785 -0.0856 -0.0374
    1W        W40379  17.607  28.185   1.700 -0.1859  0.0743  0.2666
    1W        W40380   4.462   2.522   8.696  0.0849 -0.2392 -0.0487
    1W        W40381   3.943   4.998   2.793 -0.1627 -0.0985  0.1611
    1W        W40382  22.334   7.029   6.964  0.1344 -0.0511 -0.0519
    1W        W40383   8.070  12.564   9.260 -0.1277  0.3871  0.2694
    1W        W40384  25.827   7.001   1.190 -0.1102 -0.0724  0.0705
    1W        W40385  23.569   4.420   7.477 -0.2856 -0.0342 -0.0041
    1W        W40386   5.047  25.825   8.367  0.0926 -0.0013 -0.1336
    1W        W40387   4.906  15.151   7.979 -0.0906 -0.2618  0.1602
    1W        W40388  19.672  25.530   0.634 -0.2913  0.0498  0.0246
    1W        W40389   1.523  13.666   0.660  0.2481  0.1036 -0.1516
    1W        W40390  14.848   2.722   7.103  0.2119 -0.0650  0.1714
    1W        W40391   1.560  14.493   9.303 -0.3010 -0.0451 -0.0203
    1W        W40392  27.697  16.379   1.662 -0.1586 -0.2438  0.0511
    1W        W40393  21.952  15.297   6.026  0.0474  0.0950  0.2449
    1W        W40394  27.936   2.122   0.068 -0.1372 -0.2219  0.0072
    1W        W40395   0.640  10.127   8.620 -0.2683 -0.1574 -0.1122
    1W        W40396   8.234  21.462  10.001  0.2633  0.0155 -0.1870
    1W        W40397   5.770  24.637   0.155  0.2052 -0.3128 -0.0880
    1W        W40398   3.069   2.801   3.515  0.3055  0.2909  0.2523
    1W        W40399  25.956  26.661   2.723  0.1494 -0.1323  0.0595
    1W        W40400  14.233   7.473   1.102  0.0152  0.0351  0.1807
    1W        W40401   9.790   1.331   1.651 -0.0032  0.1171 -0.1363
    1W        W40402  26.523  21.687   8.642 -0.1022 -0.0784  0.2456
    1W        W40403  26.613  11.301   7.923 -0.0794 -0.0479  0.0089
    1W        W40404  11.635  24.097   2.054  0.3086 -0.0047 -0.0068
    1W        W40405   1.159  20.769   2.720  0.1163 -0.1200  0.4334
    1W        W40406  17.780   0.910   9.266 -0.0691  0.2171  0.1163
    1W        W40407  15.921   8.628   9.346  0.0773  0.1011 -0.0593
    1W        W40408  28.591  12.485   1.514  0.4391  0.0503 -0.1562
    1W        W40409   2.832  12.904   2.991  0.2493 -0.1222  0.0306
    1W        W40410   0.464  15.969   8.261 -0.2305  0.0293  0.1205
    1W        W40411   0.779   2.521   1.775 -0.1311  0.1259  0.1554
    1W        W40412  16.149  12.423   1.110 -0.1139 -0.2626 -0.1351
    1W        W40413  28.530  15.189   8.786 -0.1271  0.1205  0.1976
    1W        W40414  11.441  16.699   9.220  0.2341 -0.0671  0.2292
    1W        W40415   2.484  24.137   0.298  0.3218  0.3391 -0.0119
    1W        W40416  28.598  14.482   2.758 -0.0839  0.2400  0.0998
    1W        W40417   5.180  22.850   8.691 -0.0370  0.1173  0.1780
    1W        W40418   8.729  19.641   7.024 -0.1390 -0.2464  0.0824
    1W        W40419  11.374   9.832   9.022  0.1840  0.0852  0.0836
    1W        W40420   8.617  25.283   3.013 -0.0550 -0.3067  0.4400
    1W        W40421   7.706  27.240   3.158  0.0042  0.2706 -0.0837
    1W        W40422  24.931   1.907   0.076 -0.0139 -0.3807 -0.1571
    1W        W40423  16.839  16.136   2.588 -0.2525 -0.0252 -0.1323
    1W        W40424   6.720  18.547   3.096 -0.0738 -0.2250 -0.0529
    1W        W40425  16.574  23.551   6.986  0.1449 -0.0869  0.2237
    1W        W40426   2.339  13.617   2.442  0.2424  0.2212  0.1642
    1W        W40427  19.439  16.836   1.033 -0.4695 -0.0122 -0.2423
    1W        W40428  10.349   4.002   2.020  0.2868 -0.3094  0.2749
    1W        W40429   6.653  26.850   2.069 -0.0233 -0.0016 -0.1237
    1W        W40430   2.129  21.136   9.977  0.2830 -0.4474 -0.3280
    1W        W40431   9.221  22.195   9.399 -0.0626  0.1091  0.0857
    1W        W40432   7.698  19.257   7.808  0.1979  0.0492 -0.0769
    1W        W40433  28.796  18.261   8.721  0.0887  0.0827  0.0516
    1W        W40434  17.915  13.494   9.148  0.2763  0.1481 -0.1311
    1W        W40435  15.904   5.596   1.794  0.2880 -0.1810  0.3204
    1W        W40436   4.351  24.410   2.361  0.2186  0.0868  0.0666
    1W        W40437  25.425  28.217   8.589  0.1216 -0.0575  0.2205
    1W        W40438  12.021   9.946   1.069  0.0292  0.1954  0.0490
    1W        W40439  12.393   3.014   2.743 -0.3951  0.2205  0.0101
    1W        W40440   7.767   2.074   2.363 -0.0997 -0.0837 -0.3030
    1W        W40441   6.349  27.513   8.259  0.1533  0.4266  0.1030
    1W        W40442  25.541  21.397   1.658  0.0826  0.2378 -0.0776
    1W        W40443  22.873  27.905   8.759 -0.2537 -0.2525  0.0431
    1W        W40444  22.720  11.270   9.802  0.2775 -0.1979 -0.1664
    1W        W40445  23.751  21.085   9.063  0.3271  0.2476  0.3398
    1W        W40446  20.835   3.420   9.464 -0.2928  0.1973 -0.1098
    1W        W40447  24.096  20.300   8.370  0.1790  0.1775  0.0801
    1W        W40448  23.463  23.081   2.934 -0.1860  0.0782 -0.0569
    1W        W40449   1.532  18.723   1.643  0.0174  0.0690  0.3223
    1W        W40450  15.948  18.042   7.374  0.0590  0.1211  0.1490
    1W        W40451  12.211   2.807   1.332  0.0464 -0.3040  0.3740
    1W        W40452   9.706   7.476   2.221  0.2526  0.1433  0.3184
    1W        W40453   7.962  25.641   9.344  0.3043 -0.0628 -0.2969
    1W        W40454   8.154  12.319   8.542  0.3563  0.1756 -0.3459
    1W        W40455  23.399   7.368   9.308  0.0586  0.1318  0.3041
    1W        W40456  13.494  26.877   0.768 -0.0975  0.0318 -0.1135
    1W        W40457   4.493  11.766   7.676 -0.1291  0.2548 -0.0150
    1W        W40458  23.445   3.805   2.337 -0.0062 -0.0560 -0.1601
    1W        W40459  19.219  26.445  10.000 -0.0905 -0.3201 -0.0690
    1W        W40460  25.171   0.442   9.087  0.0767  0.2614  0.1908
    1W        W40461   1.103  28.127   1.511 -0.2004 -0.0775 -0.3388
    1W        W40462  18.999   2.431   9.450  0.0993  0.4268 -0.1428
    1W        W40463  22.738   5.817   9.064  0.0419 -0.0587 -0.1095
    1W        W40464  24.592  28.485   8.989  0.0101 -0.1308  0.2564
    1W        W40465   8.539   6.813   7.430 -0.1446 -0.2227  0.2188
    1W        W40466   9.503  18.084   2.749  0.0000 -0.2255  0.3739
    1W        W40467   0.457  22.707   1.409 -0.0830 -0.1366  0.4434
    1W        W40468   0.945  18.051   2.098  0.1211  0.0352 -0.1429
    1W        W40469   3.464  26.212   1.236  0.0206  0.0692 -0.4630
    1W        W40470  27.476  24.228   0.692  0.1172  0.1652  0.2186
    1W        W40471   8.606   2.078   8.073  0.0579  0.2500 -0.3672
    1W        W40472  25.557   5.444   7.760 -0.2422  0.2119  0.0011
    1W        W40473   0.311  27.614   8.804  0.1815 -0.0854 -0.0775
    1W        W40474  24.192   8.367   0.512  0.4651 -0.1219  0.1701
    1W        W40475  26.398  24.961   8.558  0.0037 -0.0231 -0.2496
    1W        W40476   5.298  28.661   3.230  0.2365 -0.0027  0.0147
    1W        W40477  25.312  25.091   2.165 -0.2117  0.1364  0.1152
    1W        W40478  24.058  12.127   9.120  0.1173 -0.1439  0.3373
    1W        W40479   2.184   5.449   3.624 -0.2038 -0.0340  0.0607
    1W        W40480   1.327   7.740   3.123 -0.1994 -0.1220 -0.3346
    1W        W40481  25.031   9.235   3.058  0.2606  0.0255 -0.1822
    1W        W40482  21.997  22.633   3.058  0.2130 -0.0034 -0.0307
    1W        W40483   4.183  25.624   9.306  0.2167 -0.0257  0.0767
    1W        W40484   6.076   1.732   2.917 -0.2353 -0.2349  0.0850
    1W        W40485  17.469   8.487   7.541  0.0494  0.1161  0.3360
    1W        W40486  15.067   8.707   7.698  0.0072 -0.3130  0.1451
    1W        W40487  18.185  25.125   9.403  0.1115 -0.1889 -0.0981
    1W        W40488  23.313  21.123   2.928  0.1427 -0.2192  0.0334
    1W        W40489   2.653  13.327   1.296  0.4507 -0.1416 -0.3218
    1W        W40490   7.186  16.514   2.661  0.0194 -0.0882 -0.0982
    1W        W40491  16.209  25.460   0.140 -0.0984  0.0140  0.0396
    1W        W40492   3.505   7.741   8.834  0.1765  0.2967  0.0289
    1W        W40493   9.340  12.788   7.922 -0.1568 -0.0020 -0.0117
    1W        W40494  15.871  28.147   7.892  0.0984  0.0271  0.2875
    1W        W40495  16.590  17.051   6.313 -0.1254  0.1189 -0.2155
    1W        W40496  21.062  13.680   2.669  0.0196  0.0266 -0.1035
    1W        W40497  25.729  13.097   1.268 -0.2224  0.0360  0.1939
    1W        W40498   3.463  20.333   7.659  0.3726  0.2883 -0.0618
    1W        W40499  12.655  18.662   1.972 -0.2786 -0.2638 -0.0158
    1W        W40500   5.638   5.420   8.236  0.0738 -0.2003  0.0772
    1W        W40501  23.945   7.384   9.608 -0.0316  0.2209  0.0088
    1W        W40502  17.509   3.614   9.744 -0.1168  0.1019 -0.1286
    1W        W40503   2.521  16.317   8.761 -0.0279 -0.1972 -0.2854
    1W        W40504   9.136  15.671   7.822 -0.0498  0.1528 -0.0147
    1W        W40505  26.174   0.929   8.297  0.1699  0.1093  0.1476
    1W        W40506  24.229  23.495   4.023 -0.1760 -0.0785 -0.1334
    1W        W40507  14.760  19.379   6.730  0.0592  0.1028 -0.1228
    1W        W40508  25.062  10.865   0.824  0.0241  0.1455  0.2462
    1W        W40509   7.314  12.191   8.772  0.0217 -0.1376 -0.1855
    1W        W40510  17.408  24.502   7.790  0.2769 -0.0329 -0.0775
    1W        W40511  17.933  22.951   7.421 -0.5231  0.0623  0.0742
    1W        W40512  24.787  20.972   7.661 -0.4906 -0.0260  0.0453
    1W        W40513   1.644  18.472   3.328 -0.0427  0.0146  0.0880
    1W        W40514   4.869   6.621   1.986  0.1855  0.5903 -0.1709
    1W        W40515   4.288  10.072   0.727  0.1305 -0.0464  0.2380
    1W        W40516  13.697   0.245   3.010  0.0113 -0.1993 -0.0740
    1W        W40517  14.049  11.052   1.640  0.1931 -0.0485  0.0220
    1W        W40518  10.696   4.914   8.178 -0.1721  0.0011  0.2005
    1W        W40519   3.210  22.985   8.622  0.0822  0.2131 -0.1421
    1W        W40520  10.477   5.649   0.581 -0.2481 -0.1207 -0.0687
    1W        W40521  21.961  15.801   8.593  0.0161  0.0104 -0.3863
    1W        W40522   1.430   2.321   1.978  0.0016  0.0454  0.0090
    1W        W40523  18.455   2.528   7.708  0.0461 -0.3534  0.2215
    1W        W40524   5.031  14.809   7.179 -0.0492 -0.0082 -0.1546
    1W        W40525  23.580   7.233   6.344 -0.0399  0.2249 -0.3153
    1W        W40526   6.334  10.377   2.009 -0.1946 -0.0200 -0.2910
    1W        W40527  10.658  19.844   1.089 -0.1190 -0.0280 -0.0292
    1W        W40528  24.070  11.723   0.530  0.3248 -0.3085 -0.0868
    1W        W40529  25.055   5.052   2.436 -0.2485 -0.2740  0.1055
    1W        W40530   3.280  26.931   9.142  0.0925 -0.3397 -0.3270
    1W        W40531  23.010  26.679   9.670 -0.1562  0.0753 -0.0081
    1W        W40532  13.207  25.119   1.726 -0.2420 -0.1101 -0.0982
    1W        W40533   0.363   5.364   0.501  0.1923 -0.0138 -0.0217
    1W        W40534  20.589  26.580   2.861 -0.0393  0.1750  0.0867
    1W        W40535   6.120   7.392   8.657 -0.0541  0.1365 -0.1808
    1W        W40536  26.567  18.690   3.616 -0.0908  0.1476 -0.0442
    1W        W40537  17.311   5.150   7.215 -0.0147  0.1633  0.0851
    1W        W40538  25.663  22.465   2.528  0.1386  0.1092 -0.3137
    1W        W40539  20.923   0.225   8.681 -0.3247  0.1942 -0.0268
    1W        W40540  13.045  20.389   6.432 -0.0425 -0.0099 -0.1095
    1W        W40541  18.284   4.847   0.726  0.2932 -0.0433 -0.3430
    1W        W40542   5.427  24.217   9.943 -0.3678 -0.0722  0.0699
    1W        W40543  15.469   2.430   8.803  0.0416 -0.0035 -0.0409
    1W        W40544   4.761  22.870   7.347 -0.2327 -0.0421  0.0026
    1W        W40545   6.358   6.057   2.661 -0.1110 -0.0976  0.0808
    1W        W40546  22.519   3.478   7.940 -0.1497  0.2938 -0.2427
    1W        W40547  16.002  19.438   9.174  0.1546  0.3035 -0.1205
    1W        W40548  23.761  14.964   8.147  0.3990  0.0417 -0.1328
    1W        W40549   0.489  10.528   2.890 -0.2907 -0.1379  0.1396
    1W        W40550  17.750  25.275   9.656  0.1932 -0.1618 -0.1895
    1W        W40551   7.663   6.875   0.301  0.1652 -0.1582 -0.0654
    1W        W40552   4.289   4.437   0.631  0.1208 -0.0519  0.0020
    1W        W40553   6.118  27.434   4.671  0.1985 -0.1647  0.0235
    1W        W40554  18.075  18.262   2.037 -0.1247 -0.0805 -0.1111
    1W        W40555   8.595   6.106   9.433  0.3259 -0.0821  0.2224
    1W        W40556  10.577  25.607   0.183  0.1051  0.0229 -0.0556
    1W        W40557   7.934   4.575   7.796  0.1254  0.0324 -0.3350
    1W        W40558   0.680  27.602   3.044 -0.2663  0.0460  0.2068
    1W        W40559   5.112  10.227   7.401  0.0398  0.3415  0.3296
    1W        W40560  13.943  18.090   8.331  0.0355  0.1561 -0.0696
    1W        W40561  11.321  20.972   1.131  0.2914 -0.1995  0.1198
    1W        W40562  10.833   9.972   0.729 -0.0823 -0.0701  0.0534
    1W        W40563   1.900  13.112   9.038 -0.0489 -0.1010  0.0700
    1W        W40564   5.632  24.489   7.888 -0.0381 -0.0515 -0.0797
    1W        W40565  13.888   6.636   7.100  0.2696 -0.0839 -0.0971
    1W        W40566  26.371  22.832   8.050 -0.1075 -0.4495  0.0595
    1W        W40567  17.259   7.450   7.117 -0.0448  0.3331 -0.1122
    1W        W40568  19.657   4.368   1.487  0.1196  0.0075 -0.1094
    1W        W40569  20.485  22.157   8.659  0.0519  0.0989  0.2365
    1W        W40570  17.638  27.180   7.333 -0.0700 -0.0726  0.0150
    1W        W40571  28.507  22.456   0.755 -0.1953 -0.0482 -0.2489
    1W        W40572  17.374  20.162   1.672 -0.2932 -0.1850 -0.2913
    1W        W40573  20.701   3.271   1.053  0.2003  0.3121 -0.1414
    1W        W40574  12.208  28.709   0.518  0.1215  0.0845  0.3355
    1W        W40575   8.562  17.052   8.869  0.0855  0.0511  0.0593
    1W        W40576  15.794  28.442   7.190  0.0197 -0.0752  0.0273
    1W        W40577  18.674  13.428   1.887 -0.2969 -0.3674 -0.0786
    1W        W40578  23.164  17.243   8.135 -0.1338 -0.0613 -0.1967
    1W        W40579  19.163  12.386   9.753  0.1720 -0.0708 -0.2557
    1W        W40580  20.068  21.312   7.593 -0.0507 -0.2592 -0.2232
    1W        W40581  11.899  19.467   1.175 -0.2106  0.2426 -0.0776
    1W        W40582   7.114  13.888   8.253  0.0516  0.0938 -0.3281
    1W        W40583  24.170  19.413   9.300  0.1235  0.0765  0.0069
    1W        W40584   4.640  11.263   8.978  0.0669 -0.1465  0.1340
    1W        W40585  19.285  23.493   1.920  0.1800 -0.1414  0.2770
    1W        W40586  13.673  16.610   2.181  0.0867 -0.3419  0.0071
    1W        W40587  14.314   2.885   1.061  0.1281 -0.0830  0.0931
    1W        W40588  21.860  22.866   9.626 -0.0592 -0.0636 -0.0568
    1W        W40589  22.447  23.300   2.420  0.0178 -0.1526  0.1099
    1W        W40590  12.243   0.319   1.014 -0.0627  0.4739  0.0020
    1W        W40591   6.026  12.965   8.903 -0.0359  0.1228  0.2139
    1W        W40592  11.391   2.821   6.998 -0.0806  0.2077  0.3265
    1W        W40593   9.066  16.229   9.219  0.1368 -0.2719 -0.0308
    1W        W40594   0.848  26.295   0.587  0.0030 -0.3468 -0.0210
    1W        W40595  26.948  28.045   3.353 -0.3308 -0.2099 -0.0872
    1W        W40596  14.151   6.292   7.513  0.5191  0.2149 -0.0097
    1W        W40597   3.015   7.687   7.644 -0.1632 -0.0970  0.0297
    1W        W40598  10.576   2.084   0.935 -0.0081 -0.3262  0.0927
    1W        W40599  21.782   2.652   8.787 -0.0425 -0.1672 -0.2430
    1W        W40600   6.784  18.070   7.762 -0.0948  0.2342  0.0534
    1W        W40601   1.083   7.344   0.534 -0.0087 -0.3969 -0.1160
    1W        W40602   7.637  26.038   9.383 -0.0656 -0.0995 -0.0304
    1W        W40603  26.410  25.925   9.342 -0.1271 -0.0807 -0.0196
    1W        W40604   2.355  19.375   8.371 -0.2432  0.0637  0.0257
    1W        W40605  15.791  10.578   0.211  0.1959 -0.0616 -0.4234
    1W        W40606   5.099  20.417   7.666 -0.0079  0.0826  0.0919
    1W        W40607  13.840  19.109   2.523 -0.1513 -0.1319  0.1206
    1W        W40608   0.347  19.771   4.001  0.0262 -0.0442 -0.1366
    1W        W40609   6.337   8.220   0.375  0.3110  0.1142 -0.0584
    1W        W40610  28.294  19.669   2.484  0.0837  0.1996 -0.1689
    1W        W40611  22.327   5.902   2.431 -0.1264 -0.0793 -0.4468
    1W        W40612  12.547  12.516   9.813  0.0762  0.4983  0.1865
    1W        W40613  24.143   7.110   7.743 -0.0548 -0.2113  0.2536
    1W        W40614   7.347  10.225   2.038 -0.2777 -0.3033 -0.2930
    1W        W40615  27.435  23.678   0.711  0.2096 -0.1081 -0.3282
    1W        W40616  17.864  19.004   1.184  0.1902  0.6680  0.4793
    1W        W40617   5.625  22.904   0.730 -0.1357 -0.0139 -0.1419
    1W        W40618  11.380   5.144   0.216 -0.4295  0.0300  0.0492
    1W        W40619  27.765  19.111   3.989 -0.3479 -0.0649  0.4186
    1W        W40620   3.509   3.153   1.114 -0.3779 -0.2087  0.2016
    1W        W40621  17.268   6.868   9.946 -0.1197 -0.1281 -0.1796
    1W        W40622  24.729  28.466   1.192 -0.0641  0.0659  0.1457
    1W        W40623   2.721   9.822   8.105 -0.2506  0.4239 -0.0753
    1W        W40624  12.131   7.915   0.551 -0.0481 -0.4191  0.1146
    1W        W40625  28.308  27.825   2.732 -0.0929 -0.0851  0.0295
    1W        W40626  25.885  23.674   3.707  0.0430 -0.0550 -0.0385
    1W        W40627   2.392   9.854   9.408  0.0899  0.1379 -0.2534
    1W        W40628   9.539  12.375   0.420 -0.3787 -0.1728 -0.1301
    1W        W40629   0.143   4.422   8.597  0.1006 -0.3622  0.1117
    1W        W40630  20.802   6.288   0.531 -0.4038  0.1493  0.1580
    1W        W40631  10.422   4.699   0.917  0.2707 -0.0632  0.2167
    1W        W40632   1.074  19.176   3.615  0.0314  0.0274  0.2563
    1W        W40633  24.696  15.073   2.642  0.1347  0.0199  0.0109
    1W        W40634  15.605   2.155   9.490 -0.3616  0.3602 -0.0630
    1W        W40635   0.460   0.379   8.551 -0.0815  0.3230  0.1690
    1W        W40636  21.959   2.196   0.786  0.0840  0.1758 -0.1818
    1W        W40637   9.933  12.604   7.128  0.1538 -0.1563 -0.0226
    1W        W40638   1.210  15.696   9.986  0.2042  0.3445 -0.3019
    1W        W40639  16.273  12.504   0.193  0.1065  0.1886 -0.2285
    1W        W40640  14.784  20.491   2.141  0.2079  0.0815 -0.0707
    1W        W40641   0.228  15.919   1.422  0.0796  0.0671 -0.0039
    1W        W40642  11.335  16.202   9.529  0.0991  0.0001  0.0831
    1W        W40643  16.086  24.032   1.943  0.4727 -0.1204  0.0817
    1W        W40644  23.175   8.049   9.182 -0.2805  0.4131  0.0733
    1W        W40645   3.580   6.859   3.508  0.1432 -0.2100 -0.0804
    1W        W40646   5.179   2.540   2.041 -0.1576 -0.1998 -0.2803
    1W        W40647   5.689  27.678   3.626 -0.0722  0.0632  0.1662
    1W        W40648   6.959  12.419   0.096  0.0043  0.0902  0.2248
    1W        W40649  12.412  21.755   6.871 -0.3118 -0.2683  0.1733
    1W        W40650   8.596  23.866   6.792 -0.0357 -0.2538  0.1548
    1W        W40651   2.812  17.773   9.043  0.2831  0.1802 -0.1304
    1W        W40652  12.871  12.148   0.236  0.0691  0.2239 -0.1853
    1W        W40653   8.578  11.283   2.304  0.3142  0.2674 -0.3320
    1W        W40654  16.714  13.088   6.388 -0.1821  0.2807  0.0048
    1W        W40655  18.736   5.719   1.832 -0.1498  0.1841 -0.0304
    1W        W40656  22.518   2.848   0.430  0.0475 -0.3378  0.1710
    1W        W40657   4.928   6.144   2.529  0.2580 -0.1573 -0.0246
    1W        W40658  13.788  18.837   0.514  0.2672  0.2804  0.1200
    1W        W40659   8.590   8.837   6.968 -0.0577  0.2070  0.1394
    1W        W40660  28.399   4.559   3.266 -0.1261  0.0628 -0.2970
    1W        W40661  14.413  25.448   0.653 -0.0906  0.0198 -0.0598
    1W        W40662  25.278  25.758   0.135 -0.2202 -0.2154  0.3031
    1W        W40663  23.517   9.748   9.939  0.0434  0.2464  0.1759
    1W        W40664   9.443   7.241   1.931  0.2771  0.1830  0.0202
    1W        W40665   3.061  22.926   1.530  0.1461  0.1104 -0.1937
    1W        W40666   1.894  23.835   8.313  0.1392  0.0465 -0.1327
    1W        W40667  12.829  28.620   2.109 -0.0340  0.0559 -0.0289
    1W        W40668  27.969  22.023   8.661 -0.0733 -0.0410  0.2182
    1W        W40669   2.207   3.331   8.590 -0.2953  0.2852  0.0882
    1W        W40670  15.150  16.210   6.670 -0.3014  0.0706 -0.2294
    1W        W40671   8.555  23.241   9.423 -0.1654 -0.1758  0.2929
    1W        W40672  19.635  20.058   8.078 -0.0271 -0.0968  0.5185
    1W        W40673   5.501  11.916   7.830  0.3585 -0.1992 -0.2735
    1W        W40674   5.492   2.094   4.027 -0.2077 -0.2383 -0.2727
    1W        W40675  17.449  10.608   8.684 -0.2750  0.0983  0.0701
    1W        W40676   8.743  27.373   7.155  0.2512 -0.0234 -0.2643
    1W        W40677   9.436  22.495   2.019 -0.1453  0.2128 -0.0986
    1W        W40678  23.272  15.704   0.684 -0.2743 -0.0567 -0.1293
    1W        W40679  26.901   2.124   9.623  0.0511  0.2193  0.1584
    1W        W40680  10.822   4.415   1.389  0.3043 -0.1097 -0.0944
    1W        W40681  11.972  12.533   8.131 -0.0366 -0.0842 -0.1215
    1W        W40682  10.425   3.502   1.787 -0.2383  0.0637 -0.0325
    1W        W40683  14.567   3.956   1.013 -0.2990 -0.1740  0.3395
    1W        W40684  27.639  14.814   0.971  0.2621  0.4054  0.2776
    1W        W40685  28.121  10.276   8.385  0.0119  0.0231 -0.2670
    1W        W40686  24.393   5.003   8.752  0.0742  0.0352 -0.0218
    1W        W40687  13.479   6.642   6.302  0.2037 -0.0677  0.0576
    1W        W40688  16.834  21.111   8.328  0.2141 -0.0468 -0.1294
    1W        W40689   0.569  20.357   3.311 -0.0839  0.2596  0.1760
    1W        W40690   7.967   6.912   9.030  0.0284  0.0213 -0.0346
    1W        W40691  23.827  22.893   0.713  0.1789  0.0132 -0.0441
    1W        W40692  16.516  28.547   0.891 -0.1498  0.0517 -0.2814
    1W        W40693   5.838  22.393   1.526  0.1014 -0.1459 -0.0822
    1W        W40694  10.912   7.551   0.064 -0.0404 -0.0136  0.2401
    1W        W40695  15.562  10.764   7.409  0.1364  0.1977 -0.1307
    1W        W40696   8.402   4.928   9.843  0.0268 -0.0211  0.0008
    1W        W40697  16.198  22.964   2.634  0.1118  0.0993 -0.2420
    1W        W40698  12.710  24.871   8.239  0.1799  0.0512  0.1347
    1W        W40699  25.605  16.303   0.042  0.0346 -0.1252 -0.1765
    1W        W40700  24.903  13.046   3.146  0.0205 -0.1098  0.0638
    1W        W40701  14.366  25.310   9.056 -0.0412 -0.2277 -0.1322
    1W        W40702  16.827  16.875   7.413 -0.1392  0.1297 -0.2066
    1W        W40703   2.952  23.306   9.062 -0.0413 -0.1761 -0.0445
    1W        W40704  28.516   7.027   3.092  0.3276 -0.2029 -0.0177
    1W        W40705  14.747   7.993   8.279  0.1086  0.0501 -0.3438
    1W        W40706  22.964   9.698   9.560 -0.0948 -0.2288 -0.2069
    1W        W40707  21.098  14.833   9.544 -0.3662  0.1451  0.3806
    1W        W40708  23.762   0.162   9.155  0.0171  0.2586 -0.0200
    1W        W40709   5.470   5.061   9.616 -0.0013  0.0682  0.2955
    1W        W40710  24.634  12.973   9.443 -0.3329  0.1932 -0.4029
    1W        W40711   2.721   9.346   0.702 -0.3278 -0.1720  0.1406
    1W        W40712  20.632  25.781   8.830  0.1087  0.1268 -0.0244
    1W        W40713  20.847  17.802   9.728  0.2676 -0.0032 -0.1802
    1W        W40714  19.502   5.951   1.113  0.0485  0.0948 -0.0983
    1W        W40715   0.100  26.849   1.289  0.3313 -0.0869  0.2555
    1W        W40716   7.511  26.111   9.923 -0.4476  0.2065  0.3006
    1W        W40717  21.938  19.228   8.358  0.3093 -0.1005 -0.0280
    1W        W40718   8.272  23.447   1.702 -0.0275 -0.0393  0.1899
    1W        W40719   9.226  18.248   9.874 -0.1705  0.1741 -0.0048
    1W        W40720   5.198  13.473   2.383 -0.1201 -0.1665  0.2873
    1W        W40721  19.320  10.034   1.394  0.1164 -0.2032 -0.1310
    1W        W40722  18.640  15.116   2.317 -0.2339 -0.2052 -0.0082
    1W        W40723  22.210  21.793   8.857 -0.0105  0.0187 -0.0253
    1W        W40724   6.655   4.268   0.895  0.1164  0.1314 -0.5373
    1W        W40725   7.944   1.499   9.503  0.0230  0.1940 -0.2102
    1W        W40726  28.055  28.207   8.439 -0.1997  0.0018  0.2101
    1W        W40727  24.115  10.018   7.347  0.0100 -0.0098 -0.0840
    1W        W40728  10.242  17.044   9.091 -0.0192 -0.3006 -0.0542
    1W        W40729  21.215  27.820   2.732  0.1965  0.1788  0.1651
    1W        W40730   9.638   7.016   7.899 -0.1520 -0.0049  0.3606
    1W        W40731  18.769   3.987   0.411  0.1186  0.1138 -0.1929
    1W        W40732  11.584  11.559   1.670  0.0044 -0.1191 -0.0986
    1W        W40733  16.540  20.940   7.503  0.0656  0.3372  0.2061
    1W        W40734  22.500   5.220   9.700  0.1014 -0.0955 -0.3547
    1W        W40735   6.114   8.861   9.193  0.2331 -0.0470 -0.1232
    1W        W40736  21.908   9.499   7.852 -0.2798  0.3969  0.3374
    1W        W40737  25.494  20.621   2.526  0.2755  0.1595 -0.0376
    1W        W40738   7.526  16.674   0.888 -0.3496  0.0656 -0.3091
    1W        W40739  27.798  25.215   3.970 -0.0120  0.2687  0.0443
    1W        W40740  12.505   5.943   9.085 -0.0538  0.4389 -0.1283
    1W        W40741  13.028   5.715   6.528  0.0670 -0.2515 -0.3236
    1W        W40742  18.659  14.967   6.841 -0.0802 -0.0855  0.3218
    1W        W40743  23.981  15.167   8.525  0.1002  0.0971  0.0867
    1W        W40744  15.252  22.086   0.822 -0.0113 -0.1484  0.2289
    1W        W40745  24.632   1.235   0.981 -0.0958 -0.1871 -0.0493
    1W        W40746  18.944  12.090   1.987  0.0737 -0.0848 -0.0523
    1W        W40747  15.902   2.749   7.741 -0.0967  0.1079 -0.0483
    1W        W40748  15.890  21.435   0.163 -0.0147  0.1648 -0.2418
    1W        W40749   4.107  14.641   0.574 -0.3603  0.0054 -0.1357
    1W        W40750  22.218   2.644   2.692 -0.0748 -0.2000  0.3631
    1W        W40751  11.933  28.610   1.975  0.1007 -0.1534 -0.0630
    1W        W40752  19.398  21.492   0.794  0.1312 -0.0395 -0.0750
    1W        W40753  27.351  25.819   0.355 -0.0282  0.0034 -0.0687
    1W        W40754  14.400  10.119   7.972  0.3291  0.0545  0.4061
    1W        W40755  18.434   4.467   0.493  0.1313  0.2390  0.4269
    1W        W40756  21.313  24.415   0.258 -0.0411 -0.0558  0.0836
    1W        W40757  13.799   5.412   6.930 -0.0652  0.1968  0.0062
    1W        W40758  28.368  13.255   7.805 -0.2063  0.0389 -0.1963
    1W        W40759  26.017  23.301   7.162  0.2273  0.0652 -0.2158
    1W        W40760   0.755  12.451   8.311  0.0666  0.0314  0.0543
    1W        W40761   6.524  26.882   2.685  0.1288  0.0304  0.1096
    1W        W40762  17.377  24.588   2.261  0.1223  0.3031 -0.3581
    1W        W40763  24.243   7.439   8.146  0.3238  0.0587  0.2199
    1W        W40764   6.924   0.206   3.670  0.0271  0.1375 -0.0012
    1W        W40765  20.836   9.409   7.431 -0.0356  0.3886 -0.1513
    1W        W40766   3.203  27.921   0.043 -0.0120 -0.2745  0.2375
    1W        W40767   2.287  15.322   1.875  0.0130  0.2971 -0.1412
    1W        W40768  18.152   2.099   1.260 -0.0510  0.2539 -0.0342
    1W        W40769  18.358  22.598   8.228  0.3530  0.1124 -0.1878
    1W        W40770  28.425  13.072   9.337 -0.2022  0.2476  0.0222
    1W        W40771   8.309  26.181   2.726  0.2472 -0.2776 -0.0493
    1W        W40772  25.727  14.131   9.163 -0.0783  0.2958 -0.2746
    1W        W40773  16.048  14.030   3.086 -0.0324 -0.0080  0.0860
    1W        W40774  15.642  10.573   9.596 -0.2675 -0.1549 -0.4023
    1W        W40775  25.785  11.312   0.982  0.0029 -0.1379  0.1543
    1W        W40776   1.469  24.135   8.393  0.0937 -0.0060  0.0543
    1W        W40777  24.995  11.604   9.633  0.1266  0.0044  0.1378
    1W        W40778   8.102   4.866   8.574  0.2369 -0.0262  0.6148
    1W        W40779  12.495  14.864   7.663 -0.2707 -0.3365  0.0717
    1W        W40780  15.822   9.625   9.218 -0.1635 -0.0746 -0.0673
    1W        W40781  14.235   8.665   1.187 -0.3974  0.0222  0.1359
    1W        W40782  17.858  10.424   9.039  0.1693  0.4437  0.3621
    1W        W40783  16.002  18.397   8.801  0.0847  0.1776 -0.0461
    1W        W40784   3.052  17.102   2.397 -0.0828 -0.3238 -0.0883
    1W        W40785  13.367  11.260   2.200 -0.0933 -0.0627  0.2242
    1W        W40786  23.872  16.519   9.060  0.0484 -0.0697  0.2165
    1W        W40787  28.445  16.822   2.199 -0.0676  0.1589 -0.1950
    1W        W40788  28.493  21.034   1.600  0.3675 -0.2046  0.2149
    1W        W40789  18.429  24.404   0.562 -0.1839  0.0182  0.2135
    1W        W40790  18.471  21.527   0.975 -0.2078 -0.1345  0.0014
    1W        W40791  28.016  24.238   0.741  0.0538  0.0271  0.0484
    1W        W40792  20.296  10.259   1.347  0.1504  0.0762  0.0382
    1W        W40793  19.876  21.714   7.280 -0.0325  0.1450  0.1001
    1W        W40794  14.926  28.612   8.236  0.0348 -0.0318 -0.1589
    1W        W40795  25.005   7.650   8.312 -0.0761  0.2788 -0.1938
    1W        W40796  18.425   8.982   0.387  0.0287 -0.1512 -0.1048
    1W        W40797  26.510   8.092   0.651 -0.0253 -0.1200 -0.0568
    1W        W40798  15.444  13.515   7.805  0.1268  0.4353  0.1183
    1W        W40799   1.054  22.531   2.193  0.1097  0.0928 -0.1159
    1W        W40800  24.860  17.520   7.328  0.0145  0.1497  0.2252
    1W        W40801   4.664  10.478   8.734 -0.2614  0.1262 -0.0044
    1W        W40802  28.694  23.895   9.937  0.0465  0.0722 -0.0499
    1W        W40803  23.711  15.070   3.008  0.2402 -0.2618  0.0393
    1W        W40804   0.126   4.184   1.240  0.1723 -0.1368  0.1353
    1W        W40805   1.725   1.056   1.628 -0.1912  0.0368  0.1096
    1W        W40806  15.679  12.138   7.679  0.0129  0.2411 -0.0663
    1W        W40807  11.584  24.480   1.273 -0.2568 -0.0060 -0.0993
    1W        W40808  27.266  23.473   1.690  0.0803 -0.3313  0.1479
    1W        W40809   7.950  17.406   6.497 -0.0665 -0.0064 -0.2206
    1W        W40810  20.687  14.586   8.579 -0.0136  0.0257 -0.1039
    1W        W40811   4.262   9.539   0.303  0.1223 -0.2395 -0.1997
    1W        W40812  13.576  20.926   8.241 -0.1252  0.2684 -0.1059
    1W        W40813   6.811  22.381   1.396  0.1037  0.3464  0.2046
    1W        W40814   7.799  10.374   9.950  0.0207 -0.0860 -0.0326
    1W        W40815  16.610  16.355   7.545 -0.0647 -0.0119 -0.0606
    1W        W40816  11.264  11.294   8.472 -0.3503 -0.1106 -0.0813
    1W        W40817  12.349  27.840   0.520  0.2969 -0.1322  0.2301
    1W        W40818  11.416   6.256   9.546 -0.3050 -0.1205  0.0680
    1W        W40819  21.641   4.147   8.079  0.1225  0.2202 -0.4019
    1W        W40820  15.039  12.214   0.321 -0.1800  0.2137 -0.0844
    1W        W40821  21.329   6.312   1.637 -0.1397  0.1155  0.3305
    1W        W40822  14.647  22.750   7.513 -0.1705 -0.0665 -0.4022
    1W        W40823   9.644  27.428   1.706 -0.1269 -0.2302 -0.0052
    1W        W40824   4.679   3.223   0.156  0.0446  0.1491 -0.1728
    1W        W40825  28.175  16.781   8.161 -0.0070  0.1787  0.1510
    1W        W40826  21.390   6.431   1.174  0.2266  0.0323  0.0328
    1W        W40827  12.318  18.284   9.388  0.0942 -0.0887  0.2789
    1W        W40828  22.647  24.848   1.809 -0.0116  0.0135  0.0161
    1W        W40829   2.563  26.167   0.045  0.1040  0.4588 -0.2122
    1W        W40830   1.695  19.973   0.087 -0.2619  0.1855  0.0028
    1W        W40831  15.530  10.680   6.341 -0.1463  0.3387  0.0251
    1W        W40832  12.484  20.248   0.540  0.0970 -0.0111  0.0021
    1W        W40833  15.679  16.461   0.138 -0.0370  0.1513 -0.0325
    1W        W40834  12.099  19.029   9.923  0.2785  0.2712 -0.2295
    1W        W40835  10.361   8.870   6.838  0.0128  0.2637  0.2761
    1W        W40836  14.180  27.226   0.004 -0.1342  0.1100 -0.0678
    1W        W40837  17.489  23.210   8.000 -0.0064  0.2451  0.0633
    1W        W40838  16.467  26.329   8.551 -0.0091  0.2605  0.0057
    1W        W40839  21.284  19.425   7.366  0.0030  0.4367  0.0892
    1W        W40840  19.225   3.235   9.861  0.1627  0.0745 -0.0639
    1W        W40841  21.563  24.742   1.897  0.1288 -0.0085 -0.1797
    1W        W40842  16.125  11.775   9.554  0.1262 -0.1129 -0.2019
    1W        W40843  18.808   8.994   7.800 -0.0151 -0.3519 -0.1211
    1W        W40844  21.450  17.282   7.171  0.1246  0.1368  0.1186
    1W        W40845   8.162  22.905   8.353 -0.1630 -0.0179  0.1272
    1W        W40846  16.030  15.134   9.855  0.1013  0.0501  0.0175
    1W        W40847   0.023  17.808   3.711 -0.2176  0.4059 -0.0078
    1W        W40848  20.085  23.903   2.201  0.0988 -0.0623  0.1676
    1W        W40849  13.227   5.931   7.489 -0.2014  0.0576  0.1742
    1W        W40850   6.282  17.217   1.918  0.0025 -0.1514  0.1792
    1W        W40851  17.210  24.161   0.574 -0.4538 -0.3505 -0.0108
    1W        W40852   0.111  17.644   2.877  0.1778  0.2460 -0.1055
    1W        W40853  25.360   7.580   2.804 -0.1408 -0.3005  0.2326
    1W        W40854  27.212   9.857   3.384  0.3472  0.0222 -0.0396
    1W        W40855  27.450   2.178   9.713 -0.2526 -0.0768 -0.0592
    1W        W40856  23.572   6.250   1.639  0.0583  0.1776 -0.0643
    1W        W40857  17.202  19.995   9.500 -0.1797  0.1970 -0.1376
    1W        W40858  25.275   4.338   0.387 -0.1484 -0.0809  0.0407
    1W        W40859   7.849  17.820   6.849 -0.0566  0.1458  0.2905
    1W        W40860  10.797  27.609   8.633  0.1779  0.1310  0.1031
    1W        W40861  15.980  21.909   0.382  0.0437 -0.1446  0.1705
    1W        W40862  15.540  13.018   0.065  0.2669  0.1938  0.2624
    1W        W40863   5.294   0.524   7.871 -0.1278  0.0783 -0.0747
    1W        W40864   8.390  16.796   0.512  0.1913  0.2718  0.1563
    1W        W40865  20.611  27.782   8.896 -0.2273  0.1260 -0.1487
    1W        W40866  15.258  11.715   8.443  0.1794 -0.3969  0.0830
    1W        W40867   2.561   7.429   9.899  0.0647  0.3436  0.0801
    1W        W40868  10.561  14.713   6.915 -0.3085  0.0272 -0.0180
    1W        W40869  24.808  17.138   0.173  0.1537 -0.0774  0.0131
    1W        W40870   3.891  23.408   0.334 -0.1308 -0.3772 -0.4000
    1W        W40871  26.746  23.019   1.701  0.2164 -0.0233  0.2029
    1W        W40872  24.967  16.920   1.676 -0.0697  0.1346 -0.0585
    1W        W40873  11.433   9.134   6.150  0.1339 -0.0381 -0.1614
    1W        W40874  22.997  10.212   1.817  0.2030  0.0944 -0.2102
    1W        W40875   1.515  10.386   9.349  0.0513 -0.0386  0.0639
    1W        W40876  27.054   2.430   2.590 -0.1286  0.1977 -0.0859
    1W        W40877   4.552  12.461   7.030 -0.1140  0.1879  0.1662
    1W        W40878  23.707   3.283   9.459  0.2552 -0.2394  0.0700
    1W        W40879  11.811  10.574   6.730 -0.2849  0.1777  0.0326
    1W        W40880  23.475  16.004   7.881 -0.0674  0.1813  0.1881
    1W        W40881  10.747  22.495   0.243 -0.0073  0.1785  0.0791
    1W        W40882  23.415   0.540   2.606  0.0121 -0.2122  0.1300
    1W        W40883  17.630   8.721   0.129  0.1683  0.1915  0.0264
    1W        W40884  17.135  27.257   7.055  0.2590 -0.1532  0.2559
    1W        W40885  24.157  19.205   8.851  0.1538  0.1184  0.0827
    1W        W40886   7.423  23.797   7.844  0.1540  0.0482  0.1830
    1W        W40887   2.615   0.577   9.205 -0.2977  0.0673  0.0679
    1W        W40888  13.399  24.083   7.060  0.1862  0.0491 -0.0012
    1W        W40889  19.442  28.402   1.221 -0.1626 -0.0610  0.1251
    1W        W40890  28.631  23.086   7.524 -0.2040 -0.0631 -0.3867
    1W        W40891  28.485  11.615   8.592  0.2265  0.2151  0.2041
    1W        W40892   8.036  19.164   9.913 -0.0855  0.1500 -0.1908
    1W        W40893  25.521  13.175   7.986  0.0768 -0.1768  0.4735
    1W        W40894  26.269  28.330   1.033  0.0078 -0.1517  0.1494
    1W        W40895  11.145  23.917   9.064 -0.2654 -0.1027  0.0392
    1W        W40896   0.686   9.180   9.707  0.0213  0.1883 -0.3017
    1W        W40897   5.416   1.318   0.371  0.2530  0.0452  0.0435
    1W        W40898   4.874  20.297   0.351 -0.4107  0.2747 -0.1264
    1W        W40899   4.333  15.548   2.838 -0.0361  0.0315 -0.0873
    1W        W40900   6.229  15.622   0.045  0.0188 -0.0994 -0.0927
    1W        W40901  20.619  14.125   9.879 -0.0264 -0.2544 -0.2372
    1W        W40902  18.783  26.013   8.590  0.3046  0.2172 -0.1569
    1W        W40903  22.399   9.580   6.984  0.5037 -0.2537  0.0476
    1W        W40904   0.672  22.618   2.711  0.3323 -0.1646  0.2204
    1W        W40905   2.997   5.270   8.710  0.1244 -0.2021  0.0788
    1W        W40906   2.386  12.576   2.947 -0.1863 -0.0316 -0.0548
    1W        W40907   4.256  27.101   2.657  0.3397  0.0795  0.1542
    1W        W40908   9.390  26.980   2.452  0.0427  0.2138  0.1016
    1W        W40909  16.733  25.997   7.782  0.1188  0.4637  0.2532
    1W        W40910  23.343   4.337   0.785 -0.1809 -0.0417  0.1340
    1W        W40911  19.594  10.200   0.196  0.1927 -0.0475 -0.0464
    1W        W40912   0.548   0.150   2.681  0.2495  0.0399 -0.0771
    1W        W40913   9.546  15.986   6.679 -0.1748 -0.1478  0.0117
    1W        W40914  23.667   6.554   2.955  0.1832  0.1958 -0.0040
    1W        W40915  22.091   9.237   9.882  0.2983 -0.2837  0.1769
    1W        W40916  17.907   1.659   7.885 -0.3501  0.0639  0.2887
    1W        W40917   6.998   6.882   9.872 -0.1192  0.2481  0.0490
    1W        W40918   3.402  20.757   7.315 -0.1662  0.1898 -0.2506
    1W        W40919  19.979  16.963   1.342 -0.1223 -0.1302  0.0136
    1W        W40920  23.287   1.380   2.304 -0.2649 -0.1683  0.2341
    1W        W40921   6.603  22.845   1.757  0.0175 -0.1747  0.1910
    1W        W40922  17.135  13.735   1.567  0.1234  0.0203  0.2375
    1W        W40923  15.944   9.188   5.975 -0.0055  0.1012  0.1493
    1W        W40924  28.773  14.573   6.676 -0.3421  0.3926 -0.0252
    1W        W40925  18.769  28.322   0.507 -0.3976  0.1151  0.1216
    1W        W40926   5.343  21.296   8.381  0.0342 -0.2609  0.2357
    1W        W40927  23.598   5.917   8.811 -0.3310  0.1084 -0.1416
    1W        W40928   5.123   2.806   2.482 -0.0672  0.1367  0.1005
    1W        W40929  23.644  19.579   1.346  0.0642 -0.3064 -0.1124
    1W        W40930  28.826   6.981   0.993  0.0620  0.4283  0.2632
    1W        W40931   3.232  26.255   1.798 -0.0903 -0.1099 -0.0178
    1W        W40932   8.560   1.092   8.336  0.0234 -0.2214 -0.2299
    1W        W40933   6.931  18.873   9.646 -0.0887 -0.1759 -0.2661
    1W        W40934  24.749   8.487   9.573  0.0111 -0.0545  0.0971
    1W        W40935  27.209   6.892   4.546 -0.0619  0.1190  0.0023
    1W        W40936   2.440   8.109   1.321 -0.2187 -0.0697  0.2719
    1W        W40937  20.493   6.322   7.189  0.1855  0.1711 -0.0407
    1W        W40938  14.364  20.390   2.531 -0.2028 -0.4897  0.1776
    1W        W40939  27.484   9.959   0.020 -0.2188 -0.0373 -0.1322
    1W        W40940  23.756  26.204   3.024 -0.0656  0.0746  0.1995
    1W        W40941  11.471  12.803   1.135 -0.1911 -0.2424 -0.0121
    1W        W40942  17.560  11.857   9.996  0.0960  0.1977  0.0411
    1W        W40943  23.017  26.061   0.523  0.1975 -0.1091  0.0970
    1W        W40944  23.408  18.079   7.433 -0.4747  0.0033 -0.0192
    1W        W40945   0.452  15.818   9.127 -0.1343 -0.3648  0.3472
    1W        W40946  16.608   2.555   6.647 -0.2415 -0.3001 -0.1480
    1W        W40947   5.055  27.653   2.561  0.1772 -0.1332 -0.1916
    1W        W40948   0.400   3.413   1.534 -0.1181 -0.0913  0.1278
    1W        W40949  14.104  26.329   7.563  0.3477  0.0114  0.2014
    1W        W40950  24.086   8.937   2.829  0.0031 -0.0655 -0.3142
    1W        W40951  22.192  12.802   2.546 -0.4107 -0.2924 -0.1699
    1W        W40952  26.115   4.207   8.459 -0.1829  0.0184  0.0266
    1W        W40953  27.328   1.853   3.118 -0.2509 -0.1816  0.4757
    1W        W40954  18.042  17.706   1.236 -0.1368 -0.2173  0.0016
    1W        W40955  18.780   2.624   9.038 -0.3633 -0.0931 -0.0628
    1W        W40956   4.406  14.985   7.788 -0.1608  0.0059 -0.1056
    1W        W40957  13.539  23.057   1.824 -0.1184 -0.1699 -0.1260
    1W        W40958   5.911  15.049   8.927 -0.0161 -0.2766 -0.0944
    1W        W40959  21.214  23.667   2.162 -0.2214 -0.2210 -0.1799
    1W        W40960  27.001  15.969   8.986  0.2398  0.1092 -0.2223
    1W        W40961   2.695  15.620   2.491  0.2038  0.2137  0.0095
    1W        W40962  21.186  22.781   1.111 -0.0428  0.2636 -0.0416
    1W        W40963  17.702  16.957   1.948 -0.0773 -0.3267  0.0804
    1W        W40964  17.687  21.719   0.866 -0.0375  0.0975 -0.1269
    1W        W40965  14.643  25.898   2.992  0.1604 -0.0377  0.1972
    1W        W40966   7.734   7.888   0.067  0.2697 -0.0043  0.2243
    1W        W40967  22.422  14.227   2.939 -0.0691 -0.3238  0.2212
    1W        W40968  17.020   7.980   8.336  0.6929 -0.2585  0.2095
    1W        W40969   0.319   1.466   1.599 -0.3010  0.1382  0.0159
    1W        W40970   1.521   4.926   8.852 -0.0432 -0.3707 -0.0835
    1W        W40971   7.919   5.986   0.092 -0.1296  0.2298  0.0625
    1W        W40972  21.473  12.509   0.304 -0.0097 -0.1218  0.2666
    1W        W40973   1.518   1.667   9.241  0.0239 -0.3605 -0.2489
    1W        W40974  28.553   8.755   1.704 -0.4526 -0.2134  0.1315
    1W        W40975  18.040  16.473   2.943 -0.2197  0.2429  0.1123
    1W        W40976  27.006   3.691   1.107  0.0244  0.1854 -0.0266
    1W        W40977  22.361  19.908   7.860 -0.4323 -0.1777 -0.0115
    1W        W40978   2.250  24.809   9.781 -0.2187  0.2293  0.1453
    1W        W40979  16.373  12.268   6.148 -0.1535  0.1403 -0.1201
    1W        W40980  13.990  14.365   7.342  0.3752 -0.1308  0.2952
    1W        W40981  14.961   8.029   2.039 -0.0930 -0.3204  0.0069
    1W        W40982  17.347  28.770   7.304  0.1787 -0.1628  0.0362
    1W        W40983  19.970  27.594   2.678 -0.0878 -0.1341 -0.0950
    1W        W40984  16.279  13.267   6.296  0.0055  0.1894 -0.1487
    1W        W40985  10.648  28.133   0.345  0.0630 -0.0531 -0.0936
    1W        W40986  14.062  12.050   1.039  0.1040 -0.0436  0.1326
    1W        W40987  14.888  23.272   0.980  0.1031  0.1531  0.4070
    1W        W40988   6.791   2.472   9.202 -0.0601  0.3925 -0.1656
    1W        W40989  26.835  12.714   8.961  0.3596 -0.4144 -0.0742
    1W        W40990  19.228  19.334   9.535 -0.1388 -0.1200  0.2379
    1W        W40991  18.845  12.413   8.827 -0.1607 -0.0103  0.1109
    1W        W40992  22.720  27.302   7.810  0.2716 -0.1119  0.1002
    1W        W40993   6.726  22.765   0.501  0.0366  0.0228  0.1975
    1W        W40994  15.293  18.809   2.074 -0.0912 -0.0937  0.2886
    1W        W40995  18.580  15.550   6.920 -0.2130 -0.1159 -0.2410
    1W        W40996  27.773   3.942   2.299 -0.3445 -0.0461 -0.1201
    1W        W40997  12.239  27.532   2.535  0.0397  0.1278 -0.0485
    1W        W40998  23.333  28.517   2.356 -0.0475  0.0236  0.4169
    1W        W40999  24.199  11.736   7.749 -0.0845  0.2482  0.1268
    1W        W41000  27.993   2.376   1.634 -0.1762  0.0798  0.1884
    1W        W41001   1.506  19.993   9.604 -0.2432  0.4895 -0.0450
    1W        W41002  13.387  24.325   1.184 -0.0741 -0.2236  0.0419
    1W        W41003   6.158   8.777   6.898 -0.0900  0.2271  0.1208
    1W        W41004   1.533   7.485   0.714 -0.2076  0.1858 -0.1982
    1W        W41005   2.519  11.958   7.014  0.1048  0.0253  0.1842
    1W        W41006  17.786  21.858   8.412 -0.1464  0.0022 -0.1684
    1W        W41007   6.352  18.881   8.582 -0.1876 -0.0236 -0.1811
    1W        W41008  23.227  15.156   8.189 -0.3488  0.1674  0.0309
    1W        W41009   0.287   7.015   1.682  0.3969 -0.0574  0.1684
    1W        W41010  11.936   8.269   9.744 -0.0939  0.1493 -0.2107
    1W        W41011  17.670  26.216   7.747  0.0314 -0.1993  0.1274
    1W        W41012   6.749   2.161   3.418 -0.0312 -0.1609 -0.0954
    1W        W41013  23.250   8.307   7.680 -0.1267  0.1940 -0.0688
    1W        W41014  16.895   0.672   7.638 -0.1009  0.3188 -0.0684
    1W        W41015  13.737  23.989   9.658  0.1255  0.0478 -0.0549
    1W        W41016   8.483  20.400   9.207 -0.3777 -0.0446 -0.1278
    1W        W41017   9.433   9.217   6.590 -0.2429 -0.0987  0.2991
    1W        W41018   9.657  19.819   7.029 -0.0305 -0.2146  0.3071
    1W        W41019  27.439  26.164   3.327  0.1902  0.2350 -0.1211
    1W        W41020  17.258   6.716   5.868 -0.0586 -0.3955  0.2484
    1W        W41021   3.016  25.344   7.810  0.2280  0.0580 -0.1248
    1W        W41022  13.383   8.542   1.459  0.1154 -0.0165  0.1806
    1W        W41023   5.313  22.480   9.176  0.0163  0.1779  0.1085
    1W        W41024  15.711   7.357   6.343 -0.2057  0.4114 -0.1001
    1W        W41025   0.616   6.739   8.318  0.2065  0.0799 -0.0154
    1W        W41026   9.731   8.887   8.289 -0.1884 -0.0619  0.1878
    1W        W41027  17.413  25.004   8.850 -0.3154 -0.1740  0.0959
    1W        W41028  25.229  13.649   9.424  0.0967  0.0946 -0.1286
    1W        W41029   2.894  24.420   0.314 -0.0334  0.1177  0.1628
    1W        W41030  13.470  14.268   0.240 -0.3203  0.1013 -0.0878
    1W        W41031  20.037  22.395   7.249 -0.0313 -0.0859 -0.3015
    1W        W41032  10.326  28.460   1.088  0.0617 -0.2318  0.2077
    1W        W41033  22.722  20.080   8.139  0.0572 -0.1483 -0.1279
    1W        W41034  27.012  24.045   1.918  0.2559  0.2387 -0.0732
    1W        W41035  20.447  19.612   8.327 -0.2141  0.0920  0.2418
    1W        W41036   0.735  25.108   2.530  0.0055  0.1031  0.0166
    1W        W41037  11.893  16.020   1.926 -0.2178  0.1454 -0.1857
    1W        W41038  17.929  28.065   9.954 -0.2202 -0.1698  0.0085
    1W        W41039   6.428  25.900   1.565  0.1100  0.1221 -0.2359
    1W        W41040  28.703   8.598   0.749 -0.0147  0.3507  0.0245
    1W        W41041   3.952  23.787   1.644  0.3043 -0.2678  0.0980
    1W        W41042  16.505   3.220   0.707  0.0032 -0.1020  0.0234
    1W        W41043  23.874  25.677   0.548 -0.3849  0.1611 -0.1668
    1W        W41044  22.093  25.512   9.856  0.0370 -0.1144 -0.2353
    1W        W41045  16.943  23.809   1.419  0.2874  0.4614 -0.2236
    1W        W41046   5.529  17.762   2.355  0.2693 -0.1437 -0.0580
    1W        W41047   7.519   1.542   1.418  0.2479 -0.0925 -0.2299
    1W        W41048   7.605   2.860   8.245  0.0248 -0.0848 -0.1323
    1W        W41049  28.499  27.635   3.236 -0.1337  0.0891  0.0891
    1W        W41050  10.408   8.734   9.805  0.0633  0.0122  0.0633
    1W        W41051  22.432   6.089   8.214 -0.2686 -0.1768 -0.0669
    1W        W41052  16.248  12.114   8.916 -0.0167  0.2587  0.1024
    1W        W41053  27.703  13.514   8.473 -0.2205  0.3906 -0.3391
    1W        W41054   6.587  20.681   9.375 -0.4363 -0.2736 -0.1538
    1W        W41055   0.641   9.263   9.238 -0.1612  0.1001  0.0444
    1W        W41056  24.133   2.556   7.987 -0.1078  0.2594  0.0401
    1W        W41057   3.923  10.188   1.778 -0.1960  0.1088 -0.1391
    1W        W41058  15.617  18.680   1.705 -0.0506 -0.0597  0.1243
    1W        W41059   5.686  12.841   1.787 -0.0174  0.1620  0.0781
    1W        W41060  16.423  10.442   5.884 -0.3950  0.0763 -0.0207
    1W        W41061   7.180   5.023   0.934  0.2026 -0.1971 -0.1030
    1W        W41062  23.291   5.736   7.830 -0.0782  0.0660  0.1853
    1W        W41063  26.997  25.470   9.200 -0.1700 -0.0491 -0.1413
    1W        W41064  27.331  11.893   3.886  0.0734  0.2138  0.1010
    1W        W41065  10.912   1.495   1.629  0.0975 -0.0922 -0.1476
    1W        W41066  12.190  19.367   3.185  0.3250 -0.0672  0.2099
    1W        W41067  14.409  18.113   7.958 -0.2719  0.4266 -0.0872
    1W        W41068  22.802   8.235   8.224 -0.1446  0.0990  0.1971
    1W        W41069  14.140  27.139   2.147 -0.1461  0.0341 -0.1179
    1W        W41070   5.774  19.006   1.299  0.0314 -0.0773 -0.1817
    1W        W41071  14.084   9.241   7.744 -0.4100  0.1527 -0.1651
    1W        W41072  19.448   8.252   6.232 -0.0980  0.0313  0.1586
    1W        W41073   1.076  27.289   0.082 -0.2505  0.1406 -0.0822
    1W        W41074   4.346  22.702   7.676 -0.3098 -0.2223 -0.0353
    1W        W41075  20.192  16.348   1.338  0.0389  0.4170 -0.2522
    1W        W41076   6.405  21.971   2.895 -0.2332 -0.1684  0.0898
    1W        W41077  20.561   1.384   1.077 -0.1731  0.3087 -0.2434
    1W        W41078  24.811  20.843   9.923 -0.1590 -0.2028 -0.2122
    1W        W41079  28.310  27.922   8.746  0.3462 -0.3130  0.4095
    1W        W41080  14.644  19.462   8.140 -0.4530 -0.0564  0.1495
    1W        W41081  22.059   5.132   8.542  0.2478 -0.2095  0.1595
    1W        W41082  22.703  27.926   1.022  0.0476  0.0353 -0.0839
    1W        W41083   3.624  12.439   2.271  0.0035  0.0201  0.3773
    1W        W41084   7.877  14.467   7.375  0.0135  0.1801 -0.0964
    1W        W41085   0.925  17.069   8.699 -0.0811 -0.0437 -0.1787
    1W        W41086   2.256   4.038   7.468  0.1978 -0.0473  0.0864
    1W        W41087  10.215   2.251   8.428 -0.0918 -0.3926 -0.1351
    1W        W41088  24.584   4.665   9.080 -0.1975 -0.1978 -0.2552
    1W        W41089   4.310  11.451   8.052  0.0431  0.0237 -0.2338
    1W        W41090  16.535  23.027   1.816 -0.1017  0.0175  0.1608
    1W        W41091   2.847  16.325   0.475  0.1442  0.1930  0.0476
    1W        W41092  21.591   7.957   0.210 -0.1839  0.3972 -0.4721
    1W        W41093   4.525  23.480   2.339 -0.0328 -0.1072  0.5527
    1W        W41094  19.934  15.477   9.024 -0.0583 -0.1505  0.2202
    1W        W41095  24.049  19.524   0.098  0.0137 -0.0361 -0.0281
    1W        W41096  15.396   2.128   0.427 -0.1066 -0.1181  0.4834
    1W        W41097  13.588  23.135   8.715 -0.0695 -0.2430 -0.0818
    1W        W41098   3.500  15.789   3.171  0.2171  0.2750 -0.1799
    1W        W41099   9.699  12.023   9.686 -0.1549  0.2268  0.0619
    1W        W41100  28.548   4.895   1.071 -0.1314 -0.1131 -0.0766
    1W        W41101  22.937  14.867   7.364  0.0282 -0.1130  0.0785
    1W        W41102  12.928  27.660   1.015 -0.0390 -0.0048  0.1856
    1W        W41103  17.674  19.031   0.667  0.0871 -0.2203 -0.0596
    1W        W41104   2.538   5.798   2.172  0.0025  0.1339 -0.0104
    1W        W41105  10.932   8.254   8.746  0.2991 -0.0258  0.3032
    1W        W41106  12.745  16.354   0.257 -0.1852 -0.1027  0.0006
    1W        W41107  16.608   6.957   6.710 -0.0480  0.2843 -0.0004
    1W        W41108  14.081  10.599   9.686  0.0925  0.2584  0.0826
    1W        W41109  26.360   1.828   2.787 -0.1179 -0.0484 -0.1522
    1W        W41110  13.423  15.271   7.816  0.0928 -0.1020  0.1469
    1W        W41111  21.596   1.154   7.524 -0.2154  0.0430 -0.1371
    1W        W41112  20.803   1.764   8.395  0.1002  0.1609 -0.1200
    1W        W41113   5.298  15.576   1.605 -0.0149 -0.0416  0.1470
    1W        W41114  18.651  13.061   7.062 -0.1826 -0.0430  0.1155
    1W        W41115  14.514  12.458   6.526 -0.0879 -0.1733 -0.0844
    1W        W41116  28.373   7.367   9.465 -0.1134  0.0924  0.2232
    1W        W41117  24.365  14.242   0.351  0.0424  0.2395  0.5743
    1W        W41118  16.112  10.060   8.467  0.1419 -0.0071 -0.1475
    1W        W41119   7.254  24.406   2.286 -0.0029 -0.2010 -0.2645
    1W        W41120   8.017  16.195   9.341 -0.0725 -0.2019  0.1555
    1W        W41121   5.819   8.096   0.272  0.0548 -0.1154  0.2106
    1W        W41122  26.094  26.171   0.241  0.0022 -0.0248 -0.1401
    1W        W41123  14.952  22.145   0.249  0.3768 -0.0608 -0.1207
    1W        W41124  21.476  12.468   1.230  0.5201  0.5081  0.0606
    1W        W41125  13.240  23.623   8.699  0.0562  0.1543 -0.2301
    1W        W41126   2.330  14.239   8.143 -0.1889 -0.3938  0.2730
    1W        W41127  19.259  15.309   7.914 -0.0808  0.0894 -0.0017
    1W        W41128  16.472  24.915   0.541 -0.3121 -0.1763  0.4379
    1W        W41129   0.948   3.959   1.558  0.3143 -0.1709 -0.2481
    1W        W41130  20.423  18.872   0.379  0.3546  0.0532  0.3000
    1W        W41131  13.103  23.768   7.638  0.1809  0.2851  0.3261
    1W        W41132  21.449  14.559   7.345 -0.2267 -0.3378  0.0383
    1W        W41133  14.322  18.949   8.155 -0.1447  0.0976  0.1242
    1W        W41134  25.524   4.802   9.483 -0.0894 -0.1296  0.2559
    1W        W41135  22.455   2.737   7.223 -0.1459 -0.0209 -0.0273
    1W        W41136  10.420   5.809   2.751 -0.0737  0.1114 -0.1259
    1W        W41137  12.033   4.724   8.839 -0.1411 -0.0635  0.2798
    1W        W41138  13.907  23.850   3.253  0.1254  0.0194 -0.0553
    1W        W41139  13.782   9.090   8.111 -0.0247 -0.3292  0.0221
    1W        W41140  13.840  28.305   2.093 -0.1678 -0.2463  0.1027
    1W        W41141  19.522   5.266   0.077 -0.1794 -0.4636 -0.0433
    1W        W41142   1.849   4.622   8.042 -0.3211  0.0014 -0.1751
    1W        W41143  20.548  18.003   8.520  0.1487  0.0284 -0.0842
    1W        W41144  10.975  15.095   0.214  0.5794 -0.2268  0.0581
    1W        W41145  22.151   7.113   0.407  0.1065  0.0051 -0.1100
    1W        W41146  21.851  20.934   9.734  0.2262  0.0863  0.4817
    1W        W41147  11.131   8.091   1.871 -0.1875 -0.1593  0.0008
    1W        W41148  19.096  16.341   7.203 -0.0554  0.3515 -0.2459
    1W        W41149  10.189  26.360   9.768 -0.0149  0.3327  0.0951
    1W        W41150  10.025   3.715   1.689  0.1960  0.0432  0.2743
    1W        W41151  21.260  10.799   1.840  0.1443  0.1729  0.1039
    1W        W41152  23.845  16.238   7.632  0.0737  0.3263  0.2653
    1W        W41153  16.455   2.678   7.840  0.0414 -0.1126 -0.1297
    1W        W41154  17.661  28.728   1.508 -0.1399 -0.0863  0.0192
    1W        W41155   4.905  11.296   0.743 -0.2439  0.0758 -0.1344
    1W        W41156  16.252  16.814   2.988  0.1202  0.0203 -0.2445
    1W        W41157  22.745   9.469   7.432  0.1015 -0.0606  0.0173
    1W        W41158  12.264   0.874   0.836 -0.1887  0.1351 -0.0422
    1W        W41159   2.106  11.634   1.054  0.1114 -0.1637  0.0193
    1W        W41160  15.090  21.406   0.909 -0.1630 -0.0305  0.0266
    1W        W41161  17.453   4.579   0.176  0.0485  0.2743 -0.1101
    1W        W41162  27.388   7.943   8.998 -0.1679  0.3922  0.0837
    1W        W41163   3.985  19.203   0.501  0.1095 -0.2940 -0.5679
    1W        W41164  18.484   6.812   0.503 -0.1370  0.1581 -0.4054
    1W        W41165  16.977  25.921   2.348  0.0207 -0.2088  0.0789
    1W        W41166  21.686  12.767   2.736  0.0031 -0.2184 -0.3327
    1W        W41167  22.239  20.017   0.528 -0.0051  0.2269  0.1075
    1W        W41168  14.795  26.331   0.330  0.1053 -0.2306 -0.2748
    1W        W41169  26.544   3.795   3.309  0.2136  0.1739  0.0857
    1W        W41170   7.048  11.891   7.042 -0.0150 -0.2660  0.1540
    1W        W41171  24.240   4.374   0.818 -0.1461 -0.1775  0.2117
    1W        W41172   2.162  19.782   7.603 -0.0329 -0.3751  0.0820
    1W        W41173  15.886   2.433   0.055  0.0145  0.2027  0.0638
    1W        W41174   8.368  22.476   2.254 -0.0573 -0.1443  0.0247
    1W        W41175   0.322   2.532   7.796 -0.1154 -0.2971  0.1928
    1W        W41176  21.397  14.504   9.238  0.2947 -0.1349  0.2490
    1W        W41177  25.020  22.892   6.957 -0.0342  0.1730 -0.1231
    1W        W41178  25.594  17.097   9.125  0.0310  0.1820 -0.1423
    1W        W41179  18.538  12.675   7.987  0.2429 -0.1273  0.0176
    1W        W41180   0.969   2.625   8.831  0.1147 -0.1253 -0.0003
    1W        W41181  24.555  21.342   1.011 -0.0261 -0.1734 -0.1162
    1W        W41182  16.259   7.869   0.055 -0.0200  0.0971 -0.3815
    1W        W41183  22.675   6.870   7.359  0.3432  0.1889 -0.0259
    1W        W41184  12.431  16.228   6.919  0.0891  0.2644  0.0572
    1W        W41185   9.667   3.137   8.662  0.0089  0.2490 -0.0595
    1W        W41186  20.954  19.307   9.124  0.2089  0.0298  0.4084
    1W        W41187   5.456   5.363   7.361 -0.1886  0.1184  0.1913
    1W        W41188  20.913   6.470   1.076  0.0240 -0.2907 -0.0971
    1W        W41189   4.660  18.497   9.830 -0.3767  0.3065 -0.0986
    1W        W41190  18.891  10.213   7.254  0.1221 -0.2243  0.1184
    1W        W41191  10.929  23.379   7.025  0.2579  0.0128  0.2684
    1W        W41192   9.908   9.155   9.047 -0.0382 -0.4177  0.0631
    1W        W41193  23.571   1.473   2.753 -0.3448 -0.2488  0.0685
    1W        W41194  23.111  24.905   1.924  0.1280 -0.0896  0.0444
    1W        W41195  15.116  18.463   8.644 -0.0491 -0.3355  0.4745
    1W        W41196   3.153  15.960   1.629 -0.1378  0.0728  0.1291
    1W        W41197   0.700  22.198   2.520 -0.0077 -0.1226  0.1100
    1W        W41198   3.423  22.426   7.788 -0.0541  0.2227  0.0202
    1W        W41199  23.300   0.972   1.126 -0.1759 -0.0368  0.0446
    1W        W41200  16.706  27.663   6.799  0.0865 -0.1310  0.0256
    1W        W41201  17.892  24.245   1.977  0.1916 -0.1386 -0.1950
    1W        W41202  24.004   3.133   0.915 -0.0790 -0.0618 -0.0820
    1W        W41203   7.962   5.194   0.144  0.3634 -0.2463 -0.0689
    1W        W41204   1.567  13.663   8.130 -0.2726  0.2983  0.2127
    1W        W41205  25.985   0.676   3.279  0.0393 -0.1302 -0.0395
    1W        W41206   9.822   5.270   7.180  0.1451  0.4188  0.0836
    1W        W41207   5.400   1.626   8.159 -0.1922  0.0294  0.1036
    1W        W41208  20.335   6.449   7.849 -0.1482  0.4306 -0.2003
    1W        W41209   8.259  28.047   2.397 -0.3872 -0.2780 -0.1405
    1W        W41210  13.710   1.519   1.613  0.1536 -0.0567 -0.2672
    1W        W41211  22.968   6.548   9.203  0.2183 -0.0073  0.0750
    1W        W41212  27.639  17.718   0.686  0.0014 -0.3593 -0.2532
    1W        W41213  17.119  11.451   6.945  0.1685  0.0958  0.2328
    1W        W41214  17.572   7.609   6.693  0.2320  0.0171  0.0243
    1W        W41215   0.534  22.939   3.741 -0.1291  0.4291  0.0175
    1W        W41216  27.364  10.907   2.335  0.2862  0.0930 -0.0268
    1W        W41217  27.498   4.237   0.553  0.1319 -0.1567  0.3559
    1W        W41218   8.583  26.851   1.622  0.0631 -0.2901 -0.2453
    1W        W41219  26.717  18.753   2.426  0.0276  0.3322 -0.3202
    1W        W41220   7.701  10.058   1.606 -0.0713 -0.0039  0.0369
    1W        W41221   1.050   6.614   9.014 -0.2097  0.2659 -0.1740
    1W        W41222  25.769   9.440   9.355  0.0391  0.2666  0.0716
    1W        W41223  16.769   7.566   0.244 -0.2372  0.3224  0.0155
    1W        W41224   8.018  16.203   8.837  0.1637 -0.0932 -0.3692
    1W        W41225  18.986  27.297   0.351 -0.0008 -0.0797  0.0896
    1W        W41226  22.721   7.768   1.961 -0.0332 -0.0218  0.3757
    1W        W41227  20.432  10.665   9.617 -0.0435 -0.0285 -0.1749
    1W        W41228   4.630  19.524   9.984  0.2794  0.0172 -0.1543
    1W        W41229   7.070   6.079   8.840  0.1546  0.3691  0.4404
    1W        W41230  15.783  26.917   9.422 -0.0868 -0.0067  0.2712
    1W        W41231  25.480  21.985   9.813 -0.4773 -0.1637  0.1401
    1W        W41232  13.303  22.346   2.352 -0.1676  0.1142 -0.1144
    1W        W41233  27.385   8.209   2.379 -0.2602  0.0766 -0.1874
    1W        W41234   1.056   5.011   3.929  0.1316  0.0713  0.0760
    1W        W41235  21.505   8.192   0.683 -0.0816  0.0791  0.0274
    1W        W41236  22.736  23.172   8.610  0.1492 -0.1534 -0.2980
    1W        W41237  24.759  23.586   2.252 -0.0387 -0.3494  0.0635
    1W        W41238   1.649  24.716   0.454 -0.0317 -0.0959 -0.0352
    1W        W41239   1.304  21.838   7.847  0.1139 -0.0723 -0.0963
    1W        W41240  14.137   6.384   9.515 -0.1768  0.0420  0.2295
    1W        W41241   4.673  11.006   8.570 -0.2227  0.1578 -0.1363
    1W        W41242  19.532  20.787   0.365 -0.2214  0.2187 -0.0805
    1W        W41243   7.004   9.946   8.213 -0.1006 -0.1774  0.5258
    1W        W41244  11.243  11.269   7.725  0.3326  0.6246  0.0897
    1W        W41245  19.877   3.664   8.853 -0.0404  0.2537 -0.1870
    1W        W41246  28.102   9.612   6.913  0.0897 -0.1843 -0.0385
    1W        W41247  20.569  18.760   1.441  0.1604  0.3430 -0.2242
    1W        W41248   5.667   2.927   8.289 -0.0453  0.0511 -0.4759
    1W        W41249   4.206  27.627   2.654  0.0046  0.2659  0.1953
    1W        W41250  10.222  27.847   0.444 -0.0702  0.1971  0.2124
    1W        W41251   6.249  23.300   9.104  0.1832  0.2216 -0.0196
    1W        W41252   1.227  14.466   8.133  0.2526 -0.2217 -0.0247
    1W        W41253   5.395   5.404   2.589  0.1263  0.1918 -0.2278
    1W        W41254   3.967  12.354   0.938  0.4711  0.2250  0.0385
    1W        W41255  13.445   2.051   0.812 -0.1852  0.3172  0.1688
    1W        W41256  21.946   8.910   6.856 -0.0088 -0.2107  0.0132
    1W        W41257  21.711  10.225   1.399  0.0182  0.0480  0.0155
    1W        W41258  17.230  22.108   0.815  0.3948 -0.3173  0.1003
    1W        W41259  19.403  12.154   2.099 -0.2180 -0.0226  0.0963
    1W        W41260   4.186  21.892   7.281 -0.0989  0.1032  0.1886
    1W        W41261   9.502  15.163   1.874  0.2807 -0.3059 -0.1693
    1W        W41262  28.861   0.545   9.367  0.1497  0.1156  0.0369
    1W        W41263  26.503  22.563   1.842  0.1670 -0.0743 -0.0626
    1W        W41264   6.401  26.663   1.219 -0.5028 -0.0840 -0.0155
    1W        W41265  12.406  25.912   1.853 -0.0755  0.1501 -0.2111
    1W        W41266  14.913  26.471   2.899 -0.1092  0.1105  0.0756
    1W        W41267   7.477  21.284   6.864  0.2070  0.0196  0.2126
    1W        W41268   1.888   0.961   3.697  0.2289 -0.1912 -0.2580
    1W        W41269   7.001  28.540   8.488 -0.0112 -0.3439  0.1172
    1W        W41270  14.785  20.016   2.383  0.0581 -0.0705 -0.1143
    1W        W41271   4.602  19.074   9.051  0.1746 -0.0042  0.3556
    1W        W41272  20.644   8.970   9.563  0.2271 -0.0064  0.1235
    1W        W41273   4.244  23.917   0.963 -0.1279 -0.0999  0.1631
    1W        W41274   0.472  24.731   3.879 -0.4540 -0.1079  0.1293
    1W        W41275  13.017  15.336   9.470 -0.2061 -0.2524 -0.2944
    1W        W41276  20.003   8.393   8.816  0.1083  0.2273 -0.1391
    1W        W41277  10.499   2.389   9.288  0.0525 -0.0536  0.3400
    1W        W41278   0.237  14.719   2.708 -0.1938 -0.2056  0.1576
    1W        W41279   2.844  20.773   2.604  0.0915 -0.3414 -0.1215
    1W        W41280  12.483  27.540   0.125 -0.1003  0.1223 -0.0664
    1W        W41281  10.424   6.696   1.624 -0.2160  0.3894  0.0498
    1W        W41282  10.605  26.390   1.354  0.4711  0.3044  0.0111
    1W        W41283  12.280   6.459   7.401 -0.3841 -0.4306 -0.3025
    1W        W41284  18.367  17.771   0.833 -0.2098 -0.0362  0.0762
    1W        W41285  11.607  18.277   0.208  0.2198  0.1203 -0.1802
    1W        W41286  27.984  23.397   1.211 -0.3288  0.1212 -0.0133
    1W        W41287  19.302   7.976   6.671 -0.1613  0.0151 -0.0617
    1W        W41288  19.198   8.060   7.631 -0.0809  0.2396  0.0418
    1W        W41289  12.811  25.850   2.148  0.2517 -0.0044  0.3200
    1W        W41290  19.592   0.414   9.957  0.0300 -0.1179 -0.2866
    1W        W41291  28.077  21.878   2.215 -0.0567 -0.2448  0.1882
    1W        W41292  18.777  26.839   0.100  0.5393 -0.3565 -0.0082
    1W        W41293   2.188   0.924   2.290 -0.0022  0.1580  0.1567
    1W        W41294   4.936   4.655   2.316 -0.3377 -0.0588 -0.1282
    1W        W41295  10.799  23.809   0.974  0.1547 -0.4522  0.0918
    1W        W41296  20.555  19.161   0.961 -0.1062  0.1059  0.0312
    1W        W41297   5.729  14.292   9.725 -0.1881 -0.2345 -0.0977
    1W        W41298  19.862   4.145   2.776  0.3566  0.2423 -0.1298
    1W        W41299  14.459   6.201   7.111 -0.1247  0.1587 -0.1513
    1W        W41300  28.686  20.522   9.644 -0.2084 -0.0031  0.2187
    1W        W41301  17.305   9.905   8.966 -0.1010 -0.0856 -0.1183
    1W        W41302   0.451  26.672   2.123  0.0356  0.1565  0.0956
    1W        W41303   8.974  17.901   8.597  0.2805 -0.0649  0.0736
    1W        W41304   8.344  14.675   8.613 -0.0640 -0.0471  0.0267
    1W        W41305  19.328  21.594   9.351  0.2466 -0.0873 -0.1862
    1W        W41306   1.660  17.331   1.388 -0.1484  0.0498  0.0667
    1W        W41307  19.819   6.581   7.694  0.0432 -0.0800  0.3224
    1W        W41308  10.166  23.918   3.248 -0.2069 -0.2749  0.2008
    1W        W41309  20.789  16.316   2.947  0.1030 -0.0758  0.2275
    1W        W41310  10.103   6.910   9.296  0.0935 -0.1324  0.1322
    1W        W41311  23.707   8.688   1.664  0.0666 -0.0785 -0.2148
    1W        W41312  15.280   6.266   5.534  0.0884 -0.0334  0.3148
    1W        W41313   7.214  18.639   8.695 -0.0757 -0.0374  0.3963
    1W        W41314  14.897  21.450   2.122  0.0569  0.0784  0.0362
    1W        W41315   0.494   7.320   9.355 -0.0721 -0.0792 -0.0647
    1W        W41316  24.174  23.853   3.548  0.4255  0.0316 -0.2020
    1W        W41317   6.727  27.986   8.972 -0.0416  0.1820  0.0537
    1W        W41318  26.394  18.082   1.936 -0.3697  0.1226  0.1287
    1W        W41319  24.699  17.221   8.705 -0.1167  0.0204  0.2910
    1W        W41320   0.658  20.372   2.342  0.1406  0.2376  0.1204
    1W        W41321  12.462  10.310   6.161 -0.1700  0.0178 -0.1517
    1W        W41322  24.893  11.363   7.328 -0.2580  0.1647 -0.3080
    1W        W41323  11.046  14.928   6.938  0.1568 -0.2007  0.1534
    1W        W41324   1.965  22.157   9.292  0.0312 -0.4426  0.2021
    1W        W41325   1.481   3.401   0.649 -0.1331  0.1645 -0.3126
    1W        W41326  22.184   2.884   2.250  0.0363  0.0616 -0.2158
    1W        W41327  12.975   2.079   1.874  0.0991 -0.2572 -0.1374
    1W        W41328  20.222  14.171   0.209  0.0359  0.0680  0.1322
    1W        W41329  24.387  22.896   3.271 -0.0904  0.0933 -0.1492
    1W        W41330  17.162  25.997   8.071 -0.1069 -0.1496 -0.1542
    1W        W41331  26.955  25.871   8.928  0.0633 -0.0407  0.2137
    1W        W41332  20.351   0.492   9.309  0.1393  0.0781 -0.0947
    1W        W41333  19.689  11.736   0.784  0.0643  0.0438  0.1543
    1W        W41334  21.678  24.112   7.904 -0.0819 -0.2642 -0.3086
    1W        W41335   9.697  10.682   6.427 -0.1895 -0.0365 -0.1808
    1W        W41336  28.335  18.315   0.408  0.0265  0.2657  0.1440
    1W        W41337  16.699   7.829   8.717 -0.0589  0.1744  0.1033
    1W        W41338  14.350  23.437   0.982  0.3471  0.0949  0.0461
    1W        W41339  19.133  23.569   9.001 -0.2978  0.0388  0.1603
    1W        W41340  11.042   0.952   8.276 -0.0425  0.0352  0.0921
    1W        W41341   5.032   4.056   0.537  0.1247  0.0686  0.1303
    1W        W41342   1.339  17.587   2.537  0.1347 -0.1302  0.0039
    1W        W41343  23.586  20.575   9.057 -0.1971  0.2384  0.2581
    1W        W41344   0.553  10.868   1.846 -0.2908 -0.0645  0.1945
    1W        W41345   6.106  27.391   2.604  0.0831 -0.1199  0.2199
    1W        W41346   8.159  16.210   2.217 -0.0547 -0.0873 -0.0836
    1W        W41347  22.670  26.260   9.810  0.1450 -0.1740 -0.2640
    1W        W41348   4.673  11.170   6.529  0.2960  0.0317 -0.0368
    1W        W41349   7.338  11.631   1.670 -0.2043  0.2139 -0.3012
    1W        W41350   3.099  23.115   0.673  0.3099  0.1938  0.0191
    1W        W41351  27.900  27.096   9.994  0.0148 -0.0659 -0.2411
    1W        W41352  19.735  28.817   1.861  0.1782 -0.0046  0.1128
    1W        W41353  18.092  25.163   0.254  0.0734 -0.0466  0.0941
    1W        W41354  11.207  26.876   9.517 -0.1102  0.1351 -0.2154
    1W        W41355   1.298   5.167   3.094  0.0054 -0.1310 -0.4837
    1W        W41356  16.599  27.115   6.955  0.0959 -0.0146  0.2001
    1W        W41357  15.727  14.727   0.732  0.0016  0.3069  0.2092
    1W        W41358  26.063   4.250   4.484  0.0187  0.1012  0.1005
    1W        W41359  21.771  26.493   8.262 -0.1797 -0.1355 -0.0611
    1W        W41360   5.391  14.679   1.635 -0.1434 -0.2524  0.0287
    1W        W41361  20.365  21.688   7.491  0.2918 -0.0976 -0.1521
    1W        W41362   5.715  18.285   0.868  0.0140  0.1127 -0.2418
    1W        W41363  17.634  25.350   2.714  0.1621 -0.4229  0.1119
    1W        W41364  12.494   3.042   7.140 -0.1339 -0.0885 -0.6177
    1W        W41365   6.300  28.643   8.032 -0.0621 -0.1479  0.0059
    1W        W41366   3.545  22.463   2.253 -0.0988  0.2373 -0.0060
    1W        W41367  18.539  15.649   5.976 -0.2652 -0.1535 -0.1525
    1W        W41368  16.393  18.855   0.476 -0.1792 -0.1983  0.2575
    1W        W41369   2.130   8.057   8.094  0.0841 -0.3478  0.1361
    1W        W41370  24.257  24.473   8.684  0.1602  0.3793 -0.2730
    1W        W41371  15.734  26.707   2.250  0.0785 -0.0944 -0.2021
    1W        W41372   8.785  28.190   9.897 -0.3591  0.0818 -0.2249
    1W        W41373  16.414  19.284   6.732 -0.3937  0.3152  0.1261
    1W        W41374  23.100   4.320   9.863  0.1823  0.6111 -0.0611
    1W        W41375  28.614  26.707   2.799 -0.0667  0.2551  0.0469
    1W        W41376  27.591   8.610   7.320 -0.1632  0.0408 -0.2384
    1W        W41377  15.822   8.635   2.161  0.0539 -0.0700 -0.0909
    1W        W41378  12.045   8.824   1.270  0.3617 -0.4282  0.1207
    1W        W41379  17.530  12.194   0.386 -0.1856 -0.0237  0.1538
    1W        W41380  22.053  22.317   9.711 -0.2869 -0.0552 -0.1637
    1W        W41381   2.968  10.232   0.637  0.1438  0.1928 -0.0523
    1W        W41382  15.656  27.701   9.885  0.0048  0.0785  0.2169
    1W        W41383   5.809  25.269   2.853  0.1456 -0.1353 -0.1973
    1W        W41384  19.017  14.911   0.216  0.1502 -0.0351 -0.0180
    1W        W41385  26.479  21.717   0.082 -0.0406 -0.0984 -0.1576
    1W        W41386  18.657  25.203   9.278 -0.2559 -0.1346  0.0872
    1W        W41387  24.003  16.163   0.756 -0.1413 -0.2215  0.0211
    1W        W41388   3.462   1.745   0.966  0.1612 -0.0051 -0.2459
    1W        W41389  20.832   6.349   6.846  0.0689 -0.1823 -0.0663
    1W        W41390  20.672  12.207   8.137 -0.0247 -0.0491 -0.1663
    1W        W41391   2.021   0.442   0.416 -0.0360 -0.1091 -0.2268
    1W        W41392  25.743  26.204   2.195  0.1632 -0.1783 -0.5537
    1W        W41393  17.847  11.448   9.545 -0.0911  0.1274  0.1991
    1W        W41394  10.378   9.162   1.274 -0.0378 -0.3090 -0.1329
    1W        W41395  10.171  10.953   9.473 -0.1483 -0.0892 -0.1705
    1W        W41396   8.941  11.733   7.679 -0.0315  0.1978  0.0576
    1W        W41397  14.841  16.048   9.614 -0.1136 -0.0895 -0.2557
    1W        W41398   1.057  28.063   9.022 -0.0874  0.0900 -0.1088
    1W        W41399   8.116   2.883   8.330 -0.0218 -0.2999 -0.0947
    1W        W41400  21.875   1.792   9.797  0.0514  0.2471  0.1798
    1W        W41401   0.012  11.587   7.043  0.0411  0.2505 -0.0927
    1W        W41402   7.770  28.430   1.230  0.0683  0.0679 -0.0717
    1W        W41403   1.441  22.844   3.549 -0.0690  0.1880 -0.3634
    1W        W41404  24.123  20.508   7.095  0.3584  0.3821  0.2309
    1W        W41405  15.560  24.396   8.067 -0.1293  0.1239  0.4858
    1W        W41406   0.878  27.202   2.132  0.0491 -0.3379 -0.0189
    1W        W41407  17.708  13.018   1.073 -0.2542  0.1005 -0.0936
    1W        W41408  12.546  11.887   7.776  0.0516 -0.2712 -0.1819
    1W        W41409  24.471   6.460   9.672  0.2002  0.0586  0.1794
    1W        W41410   9.565  22.023   6.742 -0.1424  0.0860 -0.3560
    1W        W41411  19.465  18.807   6.590 -0.1433  0.2161 -0.4056
    1W        W41412   9.312   9.887   0.422 -0.4599 -0.1632  0.0945
    1W        W41413  28.074  18.986   9.160 -0.0520 -0.2984 -0.1752
    1W        W41414  23.223   1.995   2.667 -0.0339  0.3698 -0.2604
    1W        W41415  16.456  21.657   2.047  0.1234  0.1738 -0.1663
    1W        W41416  25.666  14.785   8.330 -0.4815  0.5442 -0.2859
    1W        W41417   7.869   7.816   2.066  0.0803 -0.0271 -0.0994
    1W        W41418  23.485  26.076   0.297 -0.2343  0.1720 -0.2133
    1W        W41419   9.815  16.588   7.403  0.1356 -0.0831 -0.2574
    1W        W41420  11.379  13.649   9.050 -0.1117  0.1964 -0.0541
    1W        W41421   7.795  25.022   3.386 -0.1903 -0.0556 -0.0449
    1W        W41422  23.316  13.498   0.197  0.0223 -0.0542 -0.0885
    1W        W41423   5.718   6.225   0.256 -0.2370  0.0677  0.0043
    1W        W41424   6.604   6.111   7.215  0.1383  0.2077  0.0854
    1W        W41425  21.472  18.835   7.293  0.0631 -0.0933  0.2009
    1W        W41426  15.621  20.968   2.364  0.3484  0.1653  0.2609
    1W        W41427  20.890  19.075   0.082  0.2057  0.1601  0.1784
    1W        W41428  10.165  18.270   1.966  0.0144 -0.0406 -0.0191
    1W        W41429   1.925  28.470   3.727 -0.0318 -0.1171 -0.0049
    1W        W41430  16.395  14.447   1.429  0.0776 -0.2594 -0.3091
    1W        W41431  12.033  21.637   1.449 -0.1828 -0.0539 -0.0856
    1W        W41432  22.899   2.620   7.434  0.0809  0.1505  0.3138
    1W        W41433   3.322   5.651   9.876 -0.0921  0.0133 -0.2217
    1W        W41434  14.623  11.945   8.954  0.2405 -0.4687  0.2559
    1W        W41435   7.243  12.941   0.291 -0.2021  0.2197  0.0435
    1W        W41436   1.486  11.052   2.430  0.0545  0.2723  0.0367
    1W        W41437  22.577  15.945   7.940  0.0076 -0.0555 -0.2199
    1W        W41438  13.345  13.609   7.597 -0.0068  0.0597 -0.0075
    1W        W41439   1.302  23.241   1.200 -0.2087  0.0222  0.1067
    1W        W41440   8.363   3.397   1.461  0.1941 -0.2579 -0.3557
    1W        W41441   8.472  21.883   4.051 -0.5414 -0.1723 -0.2061
    1W        W41442  11.079   6.783   0.979  0.3457 -0.0919  0.0759
    1W        W41443  24.321  11.536   8.196  0.0069 -0.0183 -0.0406
    1W        W41444  15.552   6.479   8.873  0.2509 -0.3049 -0.2488
    1W        W41445   1.340  28.702   8.035  0.2672  0.0325  0.2107
    1W        W41446  15.114   4.069   8.344 -0.3789  0.1385  0.0379
    1W        W41447  23.077   4.453   1.241  0.3512 -0.1889 -0.3973
    1W        W41448   3.176  10.115   9.357 -0.0395 -0.0108  0.1550
    1W        W41449  25.855  16.379   0.518  0.0101  0.0998 -0.1854
    1W        W41450  26.384   5.983   9.702  0.1067 -0.2070  0.2785
    1W        W41451  27.348  27.430   8.322 -0.1038 -0.1087  0.2741
    1W        W41452  27.700  20.434   9.534 -0.0579  0.1261 -0.1061
    1W        W41453  24.624   2.502   7.157 -0.2191 -0.0754  0.1819
    1W        W41454   7.443  20.635   9.119  0.1164 -0.0196 -0.0820
    1W        W41455   9.049  26.163   8.051 -0.5924 -0.0409 -0.0384
    1W        W41456  10.382   8.554   0.698 -0.1593 -0.1732 -0.0498
    1W        W41457  11.463  12.521   9.795 -0.1612  0.0905  0.2729
    1W        W41458   7.537   8.852   0.110 -0.1207  0.0881 -0.0901
    1W        W41459  23.506   9.805   6.699  0.0092 -0.0333  0.1025
    1W        W41460   1.267  28.863   1.006  0.0746  0.0547  0.2106
    1W        W41461   1.275  27.408   8.414  0.0646 -0.2171 -0.0056
    1W        W41462   9.314  23.353   2.865 -0.1606  0.3071 -0.0482
    1W        W41463  23.986  26.740   0.594  0.1783 -0.2169  0.1542
    1W        W41464   6.778  21.082   7.521 -0.1666  0.1307  0.0510
    1W        W41465   4.795  16.179   2.710  0.0467 -0.0995  0.0494
    1W        W41466  21.635   7.702   0.799  0.0887 -0.1784  0.0044
    1W        W41467   8.783  13.806   1.806  0.1916 -0.1005 -0.0659
    1W        W41468  27.222  19.324   0.771  0.1167 -0.0758 -0.0593
    1W        W41469  28.626   6.083   9.780  0.1116 -0.2658  0.1766
    1W        W41470   8.796   9.561   7.737  0.3554  0.1529 -0.0583
    1W        W41471  25.261  16.410   8.559  0.0082  0.0190  0.0814
    1W        W41472   0.838  11.723   0.413 -0.0476 -0.0215 -0.1944
    1W        W41473  26.759  19.225   8.682 -0.1212 -0.1338  0.1284
    1W        W41474  15.344   6.362   8.003  0.0594 -0.1568 -0.2444
    1W        W41475   5.400  26.220   2.991  0.1036 -0.0947  0.0592
    1W        W41476  22.031  17.157   8.689 -0.1235 -0.1014  0.0504
    1W        W41477  17.608  28.511   0.007  0.3078  0.2460  0.1801
    1W        W41478  20.070  13.061   1.178  0.0664  0.0453 -0.0881
    1W        W41479   7.199  17.252   9.774 -0.2363 -0.3613  0.0480
    1W        W41480   0.177   8.113   8.532  0.0510  0.1342  0.1753
    1W        W41481  17.409   9.241   0.173 -0.2434  0.1552  0.2438
    1W        W41482  10.840  28.462   1.160 -0.0922 -0.0986 -0.0720
    1W        W41483   4.641   8.353   7.262  0.1149  0.1732 -0.0482
    1W        W41484   7.798   5.218   8.764 -0.0833 -0.0055 -0.3333
    1W        W41485   6.876  28.512   7.913 -0.1935  0.0446  0.2104
    1W        W41486  24.653  13.491   6.751 -0.1963 -0.0279 -0.1217
    1W        W41487  10.490  22.449   2.983  0.2630  0.1186 -0.0926
    1W        W41488  21.064  16.747   1.391 -0.1788 -0.5539 -0.1353
    1W        W41489  15.248  15.679   2.107 -0.1689  0.0205 -0.3272
    1W        W41490   0.128   8.027   1.311 -0.3583 -0.0024 -0.1428
    1W        W41491   3.243  13.753   9.670  0.5315 -0.1634 -0.0537
    1W        W41492  21.436  26.711   0.837 -0.2491  0.1535  0.0757
    1W        W41493  18.274   8.987   8.643  0.0850 -0.4059  0.1434
    1W        W41494   3.427  19.226   0.607  0.1314  0.1579  0.1996
    1W        W41495   9.056  15.993   8.246 -0.3722  0.0041  0.2799
    1W        W41496  18.222   8.451   0.633 -0.0856  0.1157  0.0546
    1W        W41497  14.435   4.618   5.942 -0.2054 -0.0046 -0.2358
    1W        W41498  19.933   9.370   9.953 -0.1079  0.0523 -0.0184
    1W        W41499   1.619   6.390   4.622 -0.2431 -0.0527 -0.4255
    1W        W41500   0.257  22.551   9.996 -0.0651 -0.1260 -0.1636
    1W        W41501  15.203  23.303   9.141  0.1575  0.0043  0.2653
    1W        W41502  19.811   2.503   1.186  0.0018  0.0008 -0.0767
    1W        W41503  19.247  21.533   2.630  0.1411  0.1394  0.0071
    1W        W41504  24.979  20.163   9.102  0.2978  0.3295 -0.0868
    1W        W41505  24.743  11.215   1.989 -0.2725  0.1732  0.1011
    1W        W41506  10.245  10.321   8.557 -0.0906  0.2423 -0.2619
    1W        W41507   6.795  12.275   1.235 -0.0177  0.0749  0.1301
    1W        W41508  15.966  18.513   7.680 -0.1369 -0.1275  0.1671
    1W        W41509   6.863   8.961   6.424  0.3966  0.0061 -0.1339
    1W        W41510   0.165  16.823   2.234  0.0185  0.1922  0.0414
    1W        W41511  11.149   6.383   8.620  0.0245  0.3921  0.1769
    1W        W41512  23.890  22.190   2.819 -0.0114 -0.0999 -0.5051
    1W        W41513   1.417   2.494   0.672 -0.1662 -0.2695 -0.1340
    1W        W41514  16.295   6.610   9.562 -0.0882  0.0964  0.1436
    1W        W41515   4.559  12.438   3.257 -0.1551 -0.3834 -0.0666
    1W        W41516   5.106   7.635   0.437  0.0923 -0.2862  0.0921
    1W        W41517  23.236  26.742   2.709  0.0764 -0.0313  0.0267
    1W        W41518  16.763  15.433   9.949 -0.3204  0.2548 -0.1346
    1W        W41519  23.624   8.309   9.587  0.1178  0.1403  0.1049
    1W        W41520  14.364  20.183   6.761  0.1878  0.0227 -0.1441
    1W        W41521   2.966   2.851   1.446  0.1888  0.0068 -0.2081
    1W        W41522  11.221  15.109   2.566  0.2227 -0.1058 -0.0389
    1W        W41523   5.172  16.468   1.765 -0.0212 -0.0720  0.1693
    1W        W41524   3.426  14.004   2.465  0.0113 -0.1356  0.0093
    1W        W41525   3.223  24.514   9.358 -0.2372 -0.0046  0.0797
    1W        W41526   3.051  12.188   0.900  0.3746  0.0551  0.3478
    1W        W41527  21.727  12.138   8.658 -0.1017  0.0355  0.0386
    1W        W41528   4.224  13.581   9.365  0.0564 -0.0430 -0.2978
    1W        W41529  22.022  14.560   1.523 -0.3987 -0.1713 -0.3139
    1W        W41530  16.264  27.143   0.865  0.0971  0.1877  0.1415
    1W        W41531   6.500  27.319   3.508 -0.0929 -0.3839  0.2362
    1W        W41532  15.492  14.464   6.397 -0.2225  0.2333  0.1613
    1W        W41533   4.644   9.532   2.882 -0.1210 -0.1240  0.0011
    1W        W41534  15.631  15.024   9.509  0.1476 -0.1160  0.1515
    1W        W41535   4.337  17.082   7.188  0.2847 -0.1638  0.0568
    1W        W41536   9.053   1.215   9.592  0.1613 -0.0578  0.2017
    1W        W41537  10.805  27.249   9.511 -0.3734  0.1568  0.0287
    1W        W41538   3.542   9.914   8.319 -0.0438 -0.3666  0.1510
    1W        W41539  22.696  14.258   9.852  0.0338  0.1027  0.0659
    1W        W41540  24.518  26.933   1.104  0.0009  0.0588 -0.1573
    1W        W41541   2.923  10.245   1.629  0.0822  0.0408 -0.1749
    1W        W41542   7.750  16.431   7.782  0.2148  0.0181  0.0550
    1W        W41543  22.908   5.777   8.227  0.0140 -0.1568  0.0707
    1W        W41544  12.690  10.928   0.111  0.1270 -0.0153  0.2080
    1W        W41545  13.445  12.800   9.938 -0.2840 -0.0570 -0.1395
    1W        W41546  20.738  13.203   7.072 -0.1081  0.1452  0.0848
    1W        W41547   1.755  11.807   7.523  0.1565  0.2238 -0.1338
    1W        W41548  22.708  26.316   7.714 -0.2894 -0.0641 -0.0045
    1W        W41549   0.559   2.259   8.647  0.3441  0.3905 -0.1411
    1W        W41550  11.768   9.111   5.771 -0.1855  0.1478  0.1460
    1W        W41551   8.413   0.967   2.432 -0.1300 -0.1970  0.2306
    1W        W41552   1.780  10.463   8.910 -0.0338  0.2043 -0.0976
    1W        W41553  10.545  24.455   7.742 -0.0914  0.0285  0.2994
    1W        W41554  11.286   3.625   1.983 -0.0916 -0.4506  0.1154
    1W        W41555   1.411   9.862   9.291  0.0763 -0.3436  0.0784
    1W        W41556   9.274  19.316   1.087 -0.2537  0.3926  0.0629
    1W        W41557  14.325   9.975   8.726 -0.2283  0.0673  0.0802
    1W        W41558   9.895  25.281   1.909 -0.2075 -0.0839  0.0437
    1W        W41559  21.184  13.794   2.082  0.2824 -0.2539 -0.1157
    1W        W41560  23.130   4.624   2.232 -0.1529  0.1668 -0.1548
    1W        W41561  22.048  20.098   7.465  0.1287 -0.0140  0.0163
    1W        W41562   5.312  17.165   8.432  0.3446 -0.1710  0.1209
    1W        W41563  11.160  18.838   8.157 -0.2342  0.0312 -0.0569
    1W        W41564  17.471  17.682   6.756  0.1972  0.1707 -0.0006
    1W        W41565   4.196  26.955   8.802 -0.4250 -0.0226 -0.0086
    1W        W41566   4.368   6.248   7.579  0.0261  0.0994  0.1152
    1W        W41567  16.941  27.723   0.604  0.1346  0.3309 -0.2265
    1W        W41568  11.110  20.066   7.773 -0.2300 -0.1745 -0.0098
    1W        W41569   7.548   3.614   3.007 -0.1603  0.0407 -0.1190
    1W        W41570   9.614   9.602   7.791  0.2787  0.1265  0.3588
    1W        W41571  23.867   6.857   0.354  0.0916 -0.0332 -0.0380
    1W        W41572  17.010  20.154   2.456  0.3071  0.0311  0.1032
    1W        W41573  17.574  25.612   1.560 -0.0447 -0.0395  0.3130
    1W        W41574  12.832  19.323   9.570  0.0886 -0.3111 -0.0841
    1W        W41575  24.554   2.866   1.373 -0.2177  0.1640  0.2878
    1W        W41576   1.990  17.906   8.652 -0.0917  0.1427  0.1893
    1W        W41577  28.282   8.894   9.242  0.0708  0.1083  0.2226
    1W        W41578  26.761   2.106   8.757  0.1106  0.0500  0.4826
    1W        W41579   6.871  24.780   2.461 -0.2632 -0.1010  0.1261
    1W        W41580   7.437  11.641   8.870  0.0494  0.0522  0.0951
    1W        W41581  13.814  22.412   7.532  0.3148  0.0073  0.3296
    1W        W41582   7.876   0.552   9.910  0.2446  0.0139  0.0356
    1W        W41583  20.348   4.576   8.798  0.0736 -0.2917  0.2219
    1W        W41584   7.527  14.694   2.204  0.1453 -0.0407 -0.0040
    1W        W41585  11.439  12.288   7.820  0.0494  0.1828 -0.1418
    1W        W41586  28.149  26.417   0.353 -0.0817  0.0061 -0.1065
    1W        W41587  23.118  13.281   0.616 -0.0109  0.2492 -0.0461
    1W        W41588   5.794   9.031   0.469 -0.4611 -0.2968  0.2227
    1W        W41589  10.558   7.853   8.616 -0.0283  0.1324  0.0544
    1W        W41590  21.981  15.465   9.496  0.0061  0.2240 -0.0229
    1W        W41591  28.262  13.136   8.812  0.0959 -0.1615  0.0280
    1W        W41592   9.147  22.958   0.669 -0.1024 -0.1298  0.1931
    1W        W41593  15.672  24.333   3.403 -0.1392  0.0848  0.1903
    1W        W41594  25.440  15.376   0.243  0.1607 -0.3250 -0.1472
    1W        W41595  24.025   9.478   9.492 -0.1091  0.1488  0.1315
    1W        W41596   5.634  14.286   1.618 -0.1076  0.3779  0.0038
    1W        W41597  11.089   3.682   1.512 -0.1692 -0.1478 -0.4726
    1W        W41598  15.111  22.959   9.983  0.0485  0.0056  0.1130
    1W        W41599   6.224  24.796   0.026  0.3693 -0.1759 -0.2102
    1W        W41600  26.280  14.926   0.202 -0.1606  0.3233  0.2026
    1W        W41601   0.487  27.030   8.922 -0.4292  0.2994  0.2433
    1W        W41602  20.381   4.899   8.140 -0.0190  0.1907 -0.0314
    1W        W41603  13.676   0.355   7.136 -0.0090  0.1621  0.1417
    1W        W41604   9.248   4.476   9.508  0.2119  0.3458  0.1475
    1W        W41605  24.761  25.877   8.014  0.3219 -0.0880 -0.1009
    1W        W41606  14.967  17.188   1.100 -0.0122 -0.0845 -0.0146
    1W        W41607  18.787   6.954   7.354  0.0934  0.0840  0.0185
    1W        W41608   4.747   5.474   8.792 -0.1117 -0.2346 -0.0616
    1W        W41609  22.463  19.414   9.547  0.2660  0.1112  0.0537
    1W        W41610  15.708  18.154   1.713 -0.3912  0.0840  0.1424
    1W        W41611  25.869  13.543   1.062 -0.3427 -0.2292  0.3119
    1W        W41612  23.481  25.742   2.940  0.2614 -0.0745 -0.0214
    1W        W41613  14.279   8.308   8.021  0.0591  0.3173 -0.0773
    1W        W41614  17.338   5.653   8.567  0.3224  0.1011 -0.1610
    1W        W41615  23.691  13.003   7.762 -0.2378 -0.3573 -0.2745
    1W        W41616  11.990  13.688   7.081  0.1999 -0.2038 -0.1785
    1W        W41617  14.019  26.742   6.442 -0.4883 -0.2938  0.3151
    1W        W41618  18.625  10.197   0.678  0.1816  0.1347 -0.1695
    1W        W41619   9.724  18.312   0.798 -0.0462 -0.0396  0.2386
    1W        W41620  13.506   2.365   1.199 -0.2610 -0.0436  0.0552
    1W        W41621   7.507   6.208   9.124  0.0062  0.0905 -0.1472
    1W        W41622  25.529  18.398   8.890 -0.2641  0.0275  0.0294
    1W        W41623   4.366  18.188   3.331 -0.3897  0.0404  0.0392
    1W        W41624   5.565  13.667   8.950 -0.3469 -0.1259 -0.2280
    1W        W41625  28.474   6.075   1.742  0.1175 -0.2138 -0.0847
    1W        W41626   9.895  18.872   6.718 -0.0442 -0.0257 -0.1440
    1W        W41627   7.171   9.526   2.253  0.4991  0.1808 -0.0483
    1W        W41628   0.420  20.995   8.885 -0.0205 -0.1915 -0.0212
    1W        W41629   5.800  25.000   9.823  0.3136 -0.3540 -0.1499
    1W        W41630  20.751  21.271   8.623  0.0141  0.0673  0.2351
    1W        W41631   3.037  19.071   7.886 -0.1116  0.1441 -0.0167
    1W        W41632  10.989  10.554   8.952 -0.1797  0.0211 -0.0563
    1W        W41633   9.436  17.491   9.409 -0.0075 -0.1821 -0.2007
    1W        W41634  25.137  12.944   8.269  0.3389  0.1467 -0.1809
    1W        W41635  15.367   0.977   9.027  0.1689 -0.3036  0.0523
    1W        W41636  14.641   8.027   7.239 -0.0360  0.0673 -0.0840
    1W        W41637   0.250   6.014   2.117  0.4970  0.2743 -0.1115
    1W        W41638  25.206   4.532   1.272 -0.0220 -0.1569  0.1924
    1W        W41639  28.207   0.138   1.409  0.2352  0.0994  0.1658
    1W        W41640   2.045  16.980   9.313 -0.0755  0.1645 -0.0449
    1W        W41641  20.792   8.647   1.605 -0.3265  0.0158  0.0983
    1W        W41642  21.265  16.153   0.398  0.0084 -0.1459 -0.1064
    1W        W41643  21.896  13.967   8.264 -0.0742  0.0322  0.1962
    1W        W41644  27.946  20.970   1.757  0.0574  0.0232 -0.0412
    1W        W41645  20.258  28.018   0.694 -0.0523  0.0599  0.0650
    1W        W41646  21.773   2.220   8.434  0.0608 -0.2908  0.1787
    1W        W41647  12.177  24.422   7.703  0.0898 -0.1433  0.0273
    1W        W41648   9.256   0.551   1.949  0.0949 -0.2216  0.0134
    1W        W41649  14.723  12.411   9.940 -0.0447  0.0204 -0.0849
    1W        W41650  25.988  19.329   9.049 -0.0391 -0.2631 -0.2452
    1W        W41651  18.984  23.259   0.174 -0.1965 -0.1972  0.3689
    1W        W41652  19.978  22.317   9.632 -0.0600  0.2029 -0.1088
    1W        W41653  22.263  23.190   9.751 -0.0428  0.1986 -0.0120
    1W        W41654   4.176  26.350   0.541  0.2641 -0.0874 -0.0882
    1W        W41655   9.889   3.487   9.126  0.1632  0.0833 -0.2017
    1W        W41656  14.728  21.958   0.797  0.0958  0.0275  0.0442
    1W        W41657   9.090  19.121   7.153 -0.2381 -0.2107  0.3144
    1W        W41658   0.037   1.063   3.760 -0.2018  0.0119 -0.1081
    1W        W41659  16.221  19.837   7.604 -0.1917  0.0184  0.0276
    1W        W41660  11.538   5.469   8.805  0.1089 -0.1183 -0.0502
    1W        W41661   0.496   1.843   3.136 -0.1466  0.1019  0.4132
    1W        W41662  18.285   8.427   7.383  0.0857  0.0564  0.2380
    1W        W41663  11.150  17.013   8.883 -0.2149 -0.3112 -0.0975
    1W        W41664  24.196  10.839   3.178 -0.2229 -0.0641  0.3975
    1W        W41665  14.544  12.119   1.209  0.4918  0.0011 -0.1321
    1W        W41666  12.092  11.609   1.300  0.0998  0.2441  0.5481
    1W        W41667  25.264  26.065   1.802  0.0494  0.1279  0.0588
    1W        W41668  11.569   2.994   9.742  0.1384 -0.2700 -0.1708
    1W        W41669  23.635  10.610   7.436  0.1420  0.0624 -0.0529
    1W        W41670  16.708   3.651   9.532 -0.1739  0.1350  0.2526
    1W        W41671  19.661   8.327   6.694  0.0432  0.0080 -0.1177
    1W        W41672  24.405   9.516   8.978  0.2867 -0.2796  0.0043
    1W        W41673  13.677  28.114   8.162 -0.2013  0.0114 -0.1568
    1W        W41674   1.405  27.678   1.608  0.0093  0.1074 -0.2991
    1W        W41675   4.089   4.903   8.132 -0.0725  0.3293 -0.0798
    1W        W41676   2.115   7.000   1.577 -0.0919 -0.0084 -0.0269
    1W        W41677  22.446  14.461   2.092  0.0665  0.0878 -0.3409
    1W        W41678  25.692  11.749   6.345 -0.0106  0.0199 -0.2576
    1W        W41679  12.412  25.073   0.515 -0.3856  0.0586  0.0255
    1W        W41680  12.898  14.921   9.760 -0.1106  0.1141  0.1076
    1W        W41681  12.772  11.079   1.847  0.3288 -0.0188 -0.1071
    1W        W41682  19.360   2.807   1.210 -0.0254 -0.2373 -0.5342
    1W        W41683  26.952  16.912   9.035 -0.0349  0.3507 -0.0467
    1W        W41684   6.463   5.560   3.044 -0.2825 -0.1153 -0.0365
    1W        W41685  19.304   7.098   7.234  0.0047  0.1368 -0.1248
    1W        W41686   0.934  16.387   0.649  0.0290  0.0717 -0.0535
    1W        W41687  12.428  18.403   8.916 -0.3096 -0.4443 -0.0460
    1W        W41688   8.970   6.219   7.203 -0.2278 -0.1188 -0.0981
    1W        W41689  15.523  17.384   9.721 -0.3381 -0.0804  0.0470
    1W        W41690   0.589  26.716   0.477  0.1933 -0.0450  0.1736
    1W        W41691  18.903  28.087   9.807  0.0395 -0.2136 -0.1411
    1W        W41692  23.077   0.846   1.688 -0.0074 -0.2639 -0.1697
    1W        W41693  21.320  26.749   2.366 -0.0541  0.0123  0.3061
    1W        W41694  15.865   6.376   9.387 -0.1814  0.0874 -0.1190
    1W        W41695   7.427  20.066   1.051 -0.2100  0.0821  0.1247
    1W        W41696  19.637  16.373   7.039 -0.1763  0.3888 -0.0295
    1W        W41697  20.820  22.130   8.229 -0.0821 -0.2393 -0.2124
    1W        W41698   4.291   8.735   2.445 -0.1197  0.0328 -0.2868
    1W        W41699  23.636  28.196   2.577  0.2529  0.4114  0.0752
    1W        W41700   0.600  27.060   3.062 -0.2930 -0.0752  0.1107
    1W        W41701  15.641  14.922   1.659  0.1455 -0.0961  0.1042
    1W        W41702  18.634  23.115   3.103  0.0171  0.1083  0.0697
    1W        W41703  14.017  24.607   2.644  0.1251  0.1536  0.3091
    1W        W41704  14.404  19.766   8.619 -0.0337 -0.0190 -0.0546
    1W        W41705  22.242  10.176   1.277 -0.1139 -0.1636  0.1027
    1W        W41706  14.764   3.037   0.331 -0.0786  0.2017  0.1011
    1W        W41707  23.500   4.417   1.534 -0.0346 -0.1434  0.0707
    1W        W41708  28.111   7.090   8.579 -0.2919  0.0620 -0.0489
    1W        W41709   4.497   3.055   8.602  0.4043  0.2200 -0.0115
    1W        W41710   3.055  23.545   9.498 -0.1195 -0.1843  0.0497
    1W        W41711  18.036  28.726   9.703  0.3400 -0.1434  0.1263
    1W        W41712  14.900  15.711   8.657 -0.1376 -0.1289  0.0779
    1W        W41713   3.384  12.867   1.178 -0.3533 -0.0878  0.2197
    1W        W41714  15.067  26.780   8.514 -0.1122 -0.2116  0.1890
    1W        W41715   5.915   2.122   0.444 -0.1854 -0.2686  0.1058
    1W        W41716  24.405   7.445   7.484 -0.0280  0.0793 -0.1116
    1W        W41717   8.250   2.691   0.904 -0.1374  0.0885 -0.0948
    1W        W41718  24.130   8.817   1.988 -0.0019 -0.2376  0.2650
    1W        W41719  13.924   4.644   8.918  0.1967 -0.1481  0.2712
    1W        W41720  13.800  28.074   1.471  0.1321 -0.2451 -0.2218
    1W        W41721  12.415  23.522   0.527  0.0695  0.3963  0.2420
    1W        W41722  13.874  11.609   0.843 -0.0040 -0.1382  0.1408
    1W        W41723  25.342  27.418   0.013 -0.2705 -0.0138  0.2620
    1W        W41724  17.114  23.643   0.491 -0.0232 -0.1265 -0.1734
    1W        W41725  15.593   8.316   5.882 -0.2867  0.0486 -0.1769
    1W        W41726  11.874   4.126   6.889  0.0616  0.0612  0.1890
    1W        W41727   6.573  11.923   2.850 -0.0731 -0.2976 -0.2488
    1W        W41728  10.144  22.431   8.203 -0.0381  0.0160  0.3533
    1W        W41729   6.621  28.226   8.246 -0.1662 -0.1480 -0.0020
    1W        W41730  14.822  21.063   9.057  0.1771  0.2188  0.1106
    1W        W41731  17.408   8.494   8.267  0.0048 -0.1197 -0.2813
    1W        W41732   2.843   3.208   1.826 -0.1457  0.2173  0.1266
    1W        W41733  19.744  11.825   7.366  0.5307  0.0144 -0.2166
    1W        W41734  26.669   7.346   7.941  0.0372  0.2048 -0.2157
    1W        W41735  28.726  21.978   1.783  0.1789 -0.1125  0.3394
    1W        W41736  28.506   8.790   8.140  0.1041  0.2412  0.2212
    1W        W41737  14.812   4.961   7.762 -0.2674 -0.0053 -0.0346
    1W        W41738  28.202  10.393   8.886 -0.1136  0.1365 -0.2750
    1W        W41739   1.539  27.721   2.144  0.0428  0.1706 -0.2689
    1W        W41740   7.437   0.560   2.688 -0.4063 -0.0976 -0.3008
    1W        W41741  23.297   8.550   9.057  0.1212  0.0903  0.1871
    1W        W41742  20.306  23.380   9.813  0.1602 -0.2783 -0.1589
    1W        W41743  10.541  16.713   1.474  0.2008 -0.1174 -0.3206
    1W        W41744  13.432  17.502   1.209 -0.0662 -0.1915 -0.0166
    1W        W41745   3.880  24.511   1.559 -0.2477 -0.1266  0.0542
    1W        W41746   8.601   4.588   0.637  0.1303  0.0587 -0.1553
    1W        W41747   1.343   0.428   3.309  0.0378 -0.3130 -0.0204
    1W        W41748  23.842  11.522   7.392 -0.0031 -0.2983 -0.1932
    1W        W41749  10.464  23.408   3.328 -0.2684 -0.0766  0.0206
    1W        W41750   0.089  27.848   2.418  0.0763  0.4326 -0.2897
    1W        W41751  23.124   6.695   8.701  0.0705 -0.3757 -0.0132
    1W        W41752   7.574   1.361   1.903  0.2619 -0.1595  0.1258
    1W        W41753  12.174   9.104   6.725 -0.1472  0.2417  0.0331
    1W        W41754   2.433  12.179   9.529  0.4117 -0.2707  0.0587
    1W        W41755   6.419   6.690   7.699  0.2518 -0.2613 -0.1082
    1W        W41756  22.147  17.845   0.250  0.2808  0.2217  0.1902
    1W        W41757   2.226   3.528   3.023 -0.0944 -0.1244 -0.0120
    1W        W41758   2.154   8.553   0.600 -0.2571  0.1270  0.1140
    1W        W41759   7.907  23.607   8.661 -0.1969  0.1406  0.0650
    1W        W41760   5.429  26.669   0.714 -0.3498  0.0443 -0.0206
    1W        W41761   8.259  28.169   1.867 -0.0985  0.0358 -0.4660
    1W        W41762  26.374  23.657   0.400 -0.0995 -0.1514 -0.0388
    1W        W41763   5.168   7.340   9.951 -0.1359 -0.0095  0.1588
    1W        W41764  26.791  17.895   0.959  0.4345 -0.1313  0.1827
    1W        W41765  20.650  13.829   9.456  0.0750 -0.0944  0.0323
    1W        W41766  28.605  16.082   1.800 -0.1529 -0.1401  0.0676
    1W        W41767  12.259   9.846   7.308  0.3504  0.1560 -0.2786
    1W        W41768   4.522  28.180   0.291 -0.1300 -0.3491 -0.1597
    1W        W41769   3.558  26.088   3.108 -0.3156  0.3245  0.2053
    1W        W41770  24.945  25.971   8.567  0.3195  0.2071 -0.0207
    1W        W41771   9.954   8.696   7.723 -0.0599 -0.1745  0.0262
    1W        W41772  20.379   5.930   1.021 -0.4188  0.0701  0.2620
    1W        W41773  10.525  28.111   7.239 -0.0056  0.0778  0.0184
    1W        W41774   8.661   7.211   8.636  0.0832  0.1016 -0.1929
    1W        W41775  11.930  10.384   6.312 -0.0548 -0.0086  0.0538
    1W        W41776  20.012   3.017   6.849 -0.3567 -0.0964  0.1173
    1W        W41777  12.938   6.403   8.256 -0.1037  0.1085  0.1399
    1W        W41778   3.492   1.054   1.546  0.1553 -0.0753 -0.0782
    1W        W41779   5.311  23.309   8.984 -0.0673 -0.2055 -0.0445
    1W        W41780  19.289  10.628   6.581 -0.1112 -0.3219  0.0506
    1W        W41781   9.463  28.743   1.332 -0.0948 -0.1394 -0.0566
    1W        W41782  12.217  24.696   1.539 -0.1205  0.1200 -0.0113
    1W        W41783   3.287  10.685   3.045  0.2395  0.0496  0.2298
    1W        W41784  25.977   6.989   9.533 -0.4035  0.1866 -0.1210
    1W        W41785   7.346  12.924   7.469 -0.0247  0.1600  0.1714
    1W        W41786   2.627  11.017   3.047  0.0013  0.0233  0.0857
    1W        W41787  25.525  28.363   2.997  0.0887  0.1330 -0.1554
    1W        W41788  15.050   0.032   7.365 -0.1318  0.2252 -0.2103
    1W        W41789  13.301  10.435   8.107 -0.2575  0.2537 -0.1571
    1W        W41790   6.906   5.351   1.832  0.1819  0.1642 -0.1423
    1W        W41791  21.715  24.495   2.970  0.0411  0.6881  0.1053
    1W        W41792  26.309   1.106   8.745  0.1180 -0.0446  0.1431
    1W        W41793   0.997  27.854   2.430 -0.3307 -0.3918 -0.3373
    1W        W41794   5.958   2.822   3.330  0.1708 -0.0744 -0.1661
    1W        W41795   8.509  17.002   6.970 -0.1706  0.2531 -0.1171
    1W        W41796  21.746  13.557   8.532  0.0828  0.0147 -0.0913
    1W        W41797  19.127  11.100   6.438  0.1324  0.0263  0.3657
    1W        W41798   1.447  28.314   8.712 -0.0464 -0.1262  0.1216
    1W        W41799   2.663  27.856   1.722 -0.2132  0.1110  0.1314
    1W        W41800  23.500   2.940   2.760  0.3215  0.2353  0.3920
    1W        W41801  11.975  26.657   9.996  0.0569 -0.0119 -0.2037
    1W        W41802  15.911  11.573   9.143 -0.1194 -0.0392  0.0976
    1W        W41803  24.921  23.738   0.016  0.1476 -0.1996  0.3195
    1W        W41804  21.001   8.058   0.149 -0.0810  0.1870 -0.0632
    1W        W41805   5.388   2.765   3.463  0.0104  0.2679 -0.0269
    1W        W41806  18.937  18.028   1.831  0.0460 -0.2326  0.2730
    1W        W41807  12.369  16.711   1.315 -0.1986 -0.1243 -0.1209
    1W        W41808   8.353  11.897   8.907  0.3098  0.0116 -0.2280
    1W        W41809   7.775  26.020   1.247 -0.0320  0.0592 -0.0844
    1W        W41810  24.257   4.559   1.442 -0.2058 -0.2636 -0.0499
    1W        W41811  16.583   0.324   8.936  0.2589 -0.1132 -0.1305
    1W        W41812   2.681  19.848   2.559 -0.2788  0.1051  0.1963
    1W        W41813  20.845  26.877   1.631  0.0254  0.0266 -0.1337
    1W        W41814  18.521  13.917   1.931  0.0688 -0.1905  0.0745
    1W        W41815   4.451  25.016   7.950  0.2319 -0.1577 -0.1392
    1W        W41816   7.446  23.406   0.446 -0.2149  0.0350  0.1113
    1W        W41817   3.061   3.797   0.462 -0.2478 -0.1485  0.0769
    1W        W41818  17.767  14.640   8.709  0.0304  0.1925  0.1008
    1W        W41819  18.275  23.314   7.783  0.2902 -0.1648 -0.1114
    1W        W41820   5.281   1.026   0.823  0.2425  0.0525 -0.0942
    1W        W41821  19.636   7.073   6.809  0.1670  0.2658  0.1650
    1W        W41822  26.144   9.985   7.701 -0.2389  0.1434 -0.2204
    1W        W41823  14.490  16.818   8.224 -0.1611 -0.0169 -0.0379
    1W        W41824  28.813  11.231   1.000  0.1752 -0.2399  0.0584
    1W        W41825  18.117  24.048   8.354 -0.1324 -0.1993 -0.1480
    1W        W41826   6.004  11.934   7.507 -0.0552  0.0315  0.1593
    1W        W41827   5.165   9.104   2.751  0.0060  0.0417 -0.0304
    1W        W41828   3.738  26.970   8.017  0.1976 -0.0046 -0.3107
    1W        W41829   0.957  16.142   8.227  0.0091  0.0660 -0.0568
    1W        W41830  24.779   0.346   2.544  0.2495 -0.1471  0.1278
    1W        W41831  16.094  16.102   1.380 -0.0633  0.0570 -0.2693
    1W        W41832  16.071   8.562   1.243  0.0390  0.1148  0.2790
    1W        W41833  28.369   8.947   0.260  0.2016  0.0069 -0.1044
    1W        W41834  10.605  14.150   6.944 -0.2366  0.0280  0.1966
    1W        W41835   6.903  16.309   6.075 -0.1137  0.5859 -0.0544
    1W        W41836  28.858  23.527   9.098  0.1210 -0.3434 -0.2213
    1W        W41837   8.537  10.163   0.083 -0.2141  0.0521 -0.1242
    1W        W41838  16.900  18.997   1.726  0.0203 -0.0890  0.0399
    1W        W41839  22.856  17.971   7.815 -0.1659 -0.1279 -0.0003
    1W        W41840  16.958  12.446   7.651  0.0462 -0.0169 -0.0427
    1W        W41841  13.785  24.378   6.771  0.1627 -0.0279 -0.0885
    1W        W41842  13.725   8.897   5.825 -0.0892  0.1309 -0.0374
    1W        W41843  13.345  12.330   8.945 -0.1277 -0.0999  0.0642
    1W        W41844  18.646  20.433   1.538  0.1058 -0.2877 -0.1807
    1W        W41845  20.354   8.330   9.206  0.0286 -0.0223 -0.0321
    1W        W41846   5.729  25.879   9.454 -0.3013  0.0828  0.2614
    1W        W41847  26.551   4.275   0.760 -0.4266 -0.1765  0.0439
    1W        W41848  26.755  13.933   2.028 -0.1288 -0.0226  0.0171
    1W        W41849  14.146  13.855   6.465  0.3314  0.0066  0.2507
    1W        W41850  13.303  11.000   1.100  0.0966 -0.0967  0.1051
    1W        W41851  18.741  25.658   9.046  0.0170 -0.2516 -0.2371
    1W        W41852  12.781   6.331   7.792 -0.1636 -0.1111 -0.1944
    1W        W41853  15.839  14.393   7.530 -0.1508  0.1981 -0.0769
    1W        W41854   8.937  10.855   2.274 -0.0755 -0.0863 -0.1294
    1W        W41855  22.148   0.019   2.983 -0.0267 -0.2450  0.3577
    1W        W41856  14.032   6.371   1.085  0.0919  0.1865 -0.0201
    1W        W41857  13.782  17.772   9.880  0.2438 -0.3295 -0.2699
    1W        W41858  22.413   5.588   7.647  0.0026  0.0305 -0.0648
    1W        W41859  22.693  18.777   1.292 -0.0470 -0.0015  0.0005
    1W        W41860  15.785  20.773   6.997 -0.0891  0.0409 -0.4225
    1W        W41861   7.436  22.794   7.309 -0.0245  0.3270 -0.0336
    1W        W41862  24.053  16.116   3.710 -0.0312  0.4218 -0.1676
    1W        W41863   3.368  12.081   2.014 -0.1748  0.0447 -0.2379
    1W        W41864  13.089  24.923   2.756 -0.0948 -0.1273 -0.1633
    1W        W41865   9.693   4.073   1.096 -0.1634  0.0146  0.1735
    1W        W41866   1.078   8.249   7.515  0.2532  0.0223  0.1607
    1W        W41867  21.160  21.056   0.178 -0.0537  0.1455 -0.0700
    1W        W41868   5.986  14.348   1.240  0.0320 -0.1111  0.4854
    1W        W41869  12.295   0.765   1.459 -0.0991  0.2796  0.0099
    1W        W41870  16.989  11.119   2.182 -0.1042  0.0393 -0.3956
    1W        W41871  10.334  24.563   2.159  0.1582  0.0446 -0.1954
    1W        W41872   1.437  21.508   3.038  0.0017  0.2699  0.1248
    1W        W41873   0.264  27.364   8.338  0.1043 -0.0877 -0.0259
    1W        W41874  11.420   4.434   7.558  0.1132 -0.1776 -0.1847
    1W        W41875  14.262  15.376   2.608  0.1192 -0.1943 -0.0604
    1W        W41876  21.306  24.578   8.478 -0.2182  0.0214  0.1223
    1W        W41877  10.174  14.198   1.372 -0.1552 -0.0735  0.0022
    1W        W41878  14.441  28.211   6.954  0.0825 -0.3726 -0.1684
    1W        W41879  24.140  10.704   0.590 -0.2520 -0.0093  0.4299
    1W        W41880  20.293  22.862   2.128  0.2438 -0.0760  0.0212
    1W        W41881   1.881   8.287   9.198  0.1563  0.0732 -0.1873
    1W        W41882  26.030  20.807   0.604 -0.1812 -0.2578 -0.0252
    1W        W41883  21.115  17.435   8.784  0.3234 -0.0046 -0.2312
    1W        W41884  13.131   3.267   1.009 -0.3102 -0.1438  0.0914
    1W        W41885   2.969  13.990   7.575 -0.3347  0.0423  0.1595
    1W        W41886   8.941  26.329   1.092  0.0567 -0.2009  0.0650
    1W        W41887  15.815  28.828   1.352 -0.0312  0.0198 -0.0145
    1W        W41888   7.562  12.078   8.388  0.0349 -0.2216  0.0157
    1W        W41889   3.993  24.242   2.017  0.5389  0.3761  0.1864
    1W        W41890  28.336  12.115   1.205  0.1849  0.0843 -0.1081
    1W        W41891  26.274  15.704   1.005  0.2168 -0.0728  0.3382
    1W        W41892  16.649  22.337   7.993  0.1769  0.5588 -0.1354
    1W        W41893  16.374   8.167   9.031 -0.2607 -0.1032 -0.1780
    1W        W41894  17.607  12.416   8.444  0.1590 -0.1018 -0.0850
    1W        W41895  20.129  18.492   1.423  0.2005 -0.3556 -0.0742
    1W        W41896  10.690  18.271   0.772 -0.1974  0.1209  0.2075
    1W        W41897  20.102  26.292   9.420  0.0520 -0.1929 -0.1507
    1W        W41898  11.782  20.472   1.459  0.0139 -0.1628 -0.0856
    1W        W41899   9.669  10.986   9.669  0.4391 -0.3161  0.0913
    1W        W41900  17.341  10.544   9.200  0.0403  0.2156  0.1931
    1W        W41901  26.732  20.252   8.335 -0.0395  0.0600 -0.0567
    1W        W41902   5.803  27.072   8.989  0.1603 -0.0384 -0.1866
    1W        W41903   1.089  25.425   0.037  0.0531  0.2137 -0.0676
    1W        W41904  20.223   8.358   6.736 -0.3197  0.2796  0.0141
    1W        W41905  24.204  28.843   0.396 -0.1203  0.0649 -0.1566
    1W        W41906   7.290   2.904   2.563 -0.1691 -0.0964 -0.0070
    1W        W41907   9.586  24.482   7.445 -0.3053  0.0071 -0.1929
    1W        W41908   3.577   3.066   9.368  0.2743  0.0514 -0.0515
    1W        W41909  17.809  25.715   1.130  0.3103 -0.0008 -0.2927
    1W        W41910   4.450   6.734   0.835 -0.0262 -0.3330  0.3748
    1W        W41911  26.092   0.839   3.850  0.2223 -0.0742  0.0730
    1W        W41912  21.362   6.190   2.240 -0.0074 -0.0565  0.1840
    1W        W41913  16.226   0.101   1.044  0.1712 -0.0794 -0.0690
    1W        W41914  21.126  15.492   2.816 -0.2275 -0.0471 -0.1511
    1W        W41915   4.997  25.785   8.929  0.0215 -0.2075  0.1414
    1W        W41916   3.593  13.282   1.245 -0.3321  0.0050 -0.1669
    1W        W41917  16.433  21.111   1.341 -0.0182 -0.3221  0.1655
    1W        W41918   4.500  13.000   1.860 -0.0522  0.1275 -0.0429
    1W        W41919   4.449  22.737   9.852 -0.0654  0.2077 -0.0256
    1W        W41920  21.963  13.233   2.717 -0.0191 -0.1041  0.1551
    1W        W41921  28.494  21.854   7.484  0.1307  0.0306 -0.4040
    1W        W41922  16.312   1.192   7.526 -0.2065  0.0394 -0.0791
    1W        W41923   9.107   2.171   2.893 -0.0182 -0.1165  0.1274
    1W        W41924  27.594  14.482   2.359 -0.1686  0.0183  0.2312
    1W        W41925  11.317   9.049   5.610 -0.4207 -0.1040 -0.0528
    1W        W41926  27.611   4.041   7.998  0.0306  0.1773 -0.0268
    1W        W41927  28.360  25.991   3.578 -0.2818  0.1524 -0.2100
    1W        W41928  21.422  19.680   9.842 -0.0330 -0.1703  0.4574
    1W        W41929   5.319  21.182   7.325 -0.3190 -0.1606  0.2318
    1W        W41930  28.859  20.249   1.952  0.1486 -0.2623 -0.2681
    1W        W41931  11.789   8.188   1.978 -0.0230 -0.0835  0.0126
    1W        W41932  15.359  28.179   1.645  0.1201 -0.2122  0.2380
    1W        W41933   9.277  28.338   7.873  0.0034  0.3007  0.0908
    1W        W41934   8.048  26.747   3.216  0.0951  0.2018  0.0069
    1W        W41935   2.201  20.820   0.811  0.3367  0.0731 -0.3992
    1W        W41936   9.086  11.201   5.890  0.2227  0.0493  0.0920
    1W        W41937   2.736  19.483   7.920  0.1784  0.0703 -0.1137
    1W        W41938   3.492   2.401   4.879  0.1264  0.1024 -0.0123
    1W        W41939  25.894  21.832   8.553 -0.0948 -0.0082  0.0315
    1W        W41940  13.548  17.918   7.497  0.3735 -0.0528 -0.0308
    1W        W41941  23.270  19.837   6.826  0.0770  0.2898  0.0982
    1W        W41942  13.983  21.191   7.746  0.0898  0.2140 -0.0214
    1W        W41943   5.698  19.471   2.633 -0.1517 -0.2405 -0.1543
    1W        W41944  14.553  13.422   9.796  0.1431 -0.2240  0.2252
    1W        W41945  14.342   2.852   8.228  0.1197  0.1130  0.0227
    1W        W41946   1.298  16.818   2.625 -0.0653  0.1963  0.0966
    1W        W41947  11.113   3.600   7.009  0.1660  0.2534 -0.2781
    1W        W41948  24.123  26.056   1.690 -0.0787 -0.1736  0.1751
    1W        W41949  26.892  22.218   1.245  0.2083  0.4324 -0.0908
    1W        W41950   2.904  12.694   0.811 -0.0154  0.2136  0.2833
    1W        W41951   5.194  24.115   0.366 -0.0040 -0.0395  0.0358
    1W        W41952  18.722   8.132   7.326 -0.0504 -0.0810 -0.0306
    1W        W41953  11.895   5.793   8.729  0.1648  0.2860  0.0121
    1W        W41954   2.978  25.516   8.961 -0.0929 -0.1121  0.0394
    1W        W41955  25.585  10.862   1.659  0.0399  0.3096  0.0733
    1W        W41956  26.394  26.900   3.262  0.0404  0.1627  0.0824
    1W        W41957   4.090   1.971   0.220  0.0473 -0.0884  0.0052
    1W        W41958  20.200   8.993   1.141  0.1055 -0.1383  0.0392
    1W        W41959  21.856  17.045   9.240 -0.2508 -0.0094 -0.0542
    1W        W41960  25.579   1.734   7.943 -0.1596 -0.0598  0.0897
    1W        W41961  25.246   2.352   1.113  0.0141 -0.2622  0.1013
    1W        W41962   5.600  26.165   0.573 -0.4461 -0.2450 -0.1867
    1W        W41963   5.443   4.755   8.720  0.0760  0.1012  0.3031
    1W        W41964  12.931   9.534   8.144 -0.1031 -0.3478  0.0986
    1W        W41965  14.077  28.835   7.301  0.0606 -0.0630 -0.0781
    1W        W41966  17.077   3.063   7.028  0.3505 -0.3926 -0.2098
    1W        W41967  25.180  23.771   8.037 -0.1060 -0.1473 -0.1311
    1W        W41968   3.802  21.003   1.547  0.2559  0.0085 -0.0749
    1W        W41969  24.903  16.209   0.125 -0.0234  0.3493  0.0264
    1W        W41970  14.157  20.981   7.087  0.3583 -0.0629 -0.3675
    1W        W41971   3.217  15.601   7.594  0.3851  0.0792  0.0463
    1W        W41972  23.829  12.338   2.472  0.0551  0.0674  0.1062
    1W        W41973  24.384  13.930   1.628  0.0087 -0.2820  0.1261
    1W        W41974   8.118  19.617   0.202 -0.0062  0.0441 -0.0021
    1W        W41975  19.825  21.041   1.236  0.4443  0.0607  0.0451
    1W        W41976  20.254   5.169   9.584 -0.1689  0.1864  0.1059
    1W        W41977  28.705  24.196   2.088  0.0107  0.0817 -0.1425
    1W        W41978  25.900  14.798   1.910  0.0432 -0.1556  0.0288
    1W        W41979   3.868  11.789   2.850  0.3361 -0.0841 -0.0332
    1W        W41980   4.259  21.324   2.987  0.5612  0.3515  0.0770
    1W        W41981   5.582  13.014   7.726  0.4124  0.2153 -0.3919
    1W        W41982  11.820  13.247   6.820  0.2201 -0.1310  0.0312
    1W        W41983  18.932  15.231   1.945 -0.1494 -0.0984 -0.1969
    1W        W41984  12.390  14.856   9.722 -0.0567  0.0318 -0.2093
    1W        W41985   2.287  24.177   3.274  0.1826 -0.0393  0.0473
    1W        W41986  18.287  25.813   1.127 -0.0590 -0.2064 -0.3427
    1W        W41987   6.796   2.906   0.395 -0.0121  0.0125  0.2598
    1W        W41988  24.657   4.206   2.333 -0.2598  0.0218  0.0372
    1W        W41989   3.543   3.868   2.152  0.2081  0.2671 -0.0814
    1W        W41990   5.065  13.418   0.028 -0.0748 -0.1924 -0.0040
    1W        W41991  14.259  15.609   6.500 -0.1207  0.4073 -0.3665
    1W        W41992  14.278  16.181   0.041  0.2560 -0.2826 -0.2326
    1W        W41993  15.693  27.813   9.384 -0.1932  0.1516  0.0496
    1W        W41994  12.554  14.548   9.037  0.2185  0.3025  0.0592
    1W        W41995   9.066   9.899   0.860 -0.6204  0.3306  0.0539
    1W        W41996  28.732   3.689   9.557  0.2265  0.1782  0.1039
    1W        W41997  26.360   6.412   1.517 -0.0981  0.0079  0.0034
    1W        W41998  22.320  25.963   9.960 -0.0076  0.0968 -0.1252
    1W        W41999   8.384  27.271   9.961  0.2269  0.0993 -0.2018
    1W        W42000  17.418  13.547   8.407  0.2029  0.1454  0.0622
    1W        W42001  11.754  23.793   7.320 -0.3740 -0.1437 -0.3403
    1W        W42002  16.886  19.638   9.812 -0.3384 -0.2062  0.0225
    1W        W42003  22.313   8.288   9.464  0.0977  0.1016 -0.7017
    1W        W42004  23.996  27.130   7.937  0.0835 -0.2277  0.1306
    1W        W42005   9.268   9.266   1.164 -0.0382  0.1786 -0.1897
    1W        W42006  21.616   0.198   1.801 -0.2032 -0.1316  0.1198
    1W        W42007  27.143   8.269   0.269  0.0903 -0.1518  0.1261
    1W        W42008  16.838  11.752   2.223  0.0004  0.0471 -0.1825
    1W        W42009   3.125   5.271   7.566  0.2494  0.1603  0.4459
    1W        W42010   5.873  27.834   8.609  0.2494  0.2360 -0.3636
    1W        W42011   1.109  18.824   8.005  0.0392  0.4785  0.3660
    1W        W42012  11.143  12.336   7.197  0.1809  0.2734 -0.1208
    1W        W42013  16.797  16.316   2.084 -0.1702 -0.0292  0.2751
    1W        W42014  26.664   8.158   0.159 -0.0880 -0.0697 -0.1394
    1W        W42015  27.820   4.296   2.670 -0.3659 -0.0330 -0.0116
    1W        W42016   2.827  14.362   7.977  0.4621 -0.0481 -0.1214
    1W        W42017  19.758   7.261   8.209 -0.2211  0.2783 -0.4392
    1W        W42018   0.474  21.213   4.053  0.0635  0.1975 -0.0147
    1W        W42019  27.391  28.173   9.588 -0.0345 -0.0154 -0.1403
    1W        W42020  27.704  27.091   2.971 -0.2446  0.1005  0.0785
    1W        W42021   0.378   1.714   0.158 -0.2747 -0.0286 -0.3348
    1W        W42022  23.158  12.767   1.950 -0.1880 -0.0247  0.0638
    1W        W42023   0.249  25.047   1.569 -0.1771 -0.0499 -0.0830
    1W        W42024   3.893   3.385   8.250  0.1076 -0.3196  0.0719
    1W        W42025   6.558  20.543   8.868 -0.0058  0.2019  0.3834
    1W        W42026   5.030   4.952   0.048 -0.0760 -0.2023 -0.0192
    1W        W42027  10.329  12.625   9.218 -0.0103 -0.3032  0.0003
    1W        W42028  27.512  12.966   3.673  0.4181 -0.2088  0.0980
    1W        W42029  14.817  16.598   7.803  0.0680  0.0454  0.0188
    1W        W42030  23.637   3.767   9.398 -0.0900  0.1143  0.2352
    1W        W42031  26.887   4.106   0.332 -0.0938  0.1167 -0.0432
    1W        W42032  26.848  25.804   8.411  0.0741  0.1069 -0.2058
    1W        W42033   1.428  19.928   3.131  0.3337  0.4483 -0.0336
    1W        W42034  19.439  25.311   8.647  0.0605 -0.0577 -0.0512
    1W        W42035   6.228   9.306   9.478  0.0334 -0.2139  0.2464
    1W        W42036  19.251  10.974   1.422 -0.1463  0.0626 -0.0407
    1W        W42037   1.898  24.340   8.090 -0.1573 -0.0577 -0.0185
    1W        W42038  14.015  12.768   6.981  0.1302  0.0346 -0.3476
    1W        W42039   8.551  17.686   0.197  0.0577  0.2133 -0.1944
    1W        W42040  19.519  24.454   2.744 -0.1791 -0.0868  0.1573
    1W        W42041  15.907   9.734   7.957 -0.0346 -0.0189 -0.0458
    1W        W42042  17.753  19.607   8.257  0.0811  0.3235  0.1258
    1W        W42043   4.242   2.319   8.302 -0.0838 -0.1362 -0.0915
    1W        W42044   4.541  10.144   9.641 -0.3095 -0.0258 -0.1506
    1W        W42045   3.834  17.894   9.633 -0.0493  0.0385 -0.0596
    1W        W42046  12.022  11.202   7.841  0.0022  0.2157 -0.2831
    1W        W42047   6.570   4.967   3.867 -0.0027 -0.2935 -0.1716
    1W        W42048  23.643  10.581   2.465 -0.2066  0.1437  0.0891
    1W        W42049  27.072   6.389   2.954  0.0595  0.0714 -0.0246
    1W        W42050   4.226  20.584   6.983  0.0373 -0.0756  0.0547
    1W        W42051  28.118  10.693   1.680  0.0725 -0.0091  0.2271
    1W        W42052  27.961  10.982   2.527  0.1490  0.1073  0.1117
    1W        W42053  10.655  18.278   2.176  0.1702  0.0738 -0.2961
    1W        W42054   5.903  10.370   2.489 -0.2611  0.4681 -0.2201
    1W        W42055  15.505   3.565   8.290 -0.1237 -0.1865 -0.2363
    1W        W42056  17.525   1.346   2.699  0.0687 -0.1239  0.0022
    1W        W42057   1.815   6.844   9.639  0.1641  0.2103 -0.0079
    1W        W42058  10.620   2.808   9.706 -0.0413  0.3299 -0.3442
    1W        W42059  13.924   9.384   1.195 -0.0682 -0.1464  0.0457
    1W        W42060  22.748  17.894   1.160 -0.2879  0.2091  0.1167
    1W        W42061   5.284   3.800   0.952 -0.1030  0.0666 -0.3127
    1W        W42062  23.608  21.004   8.023 -0.0048 -0.0828  0.0895
    1W        W42063  12.786  20.496   1.451 -0.0116 -0.0037  0.1604
    1W        W42064  18.519  28.434   1.346  0.1356 -0.1149  0.1779
    1W        W42065  24.805   9.279   0.680  0.0694  0.0048 -0.0691
    1W        W42066   5.374  19.573   7.631 -0.0243  0.3214 -0.0255
    1W        W42067  25.428  21.611   3.067  0.1504  0.0679  0.4384
    1W        W42068   1.792   3.331   8.913  0.1170 -0.1377 -0.0578
    1W        W42069  20.474  20.563   7.103 -0.2071 -0.1832  0.4517
    1W        W42070   7.954  14.341   8.793  0.0911  0.0307 -0.0809
    1W        W42071  18.471  14.351   1.607  0.1653  0.3774 -0.3443
    1W        W42072   0.992   7.400   8.582 -0.0285 -0.2163 -0.2059
    1W        W42073  13.674  27.357   9.282 -0.2857 -0.1357  0.2178
    1W        W42074  16.415   0.907   9.517 -0.2182 -0.0149  0.1816
    1W        W42075  18.463  27.944   8.165  0.0619 -0.0932 -0.0907
    1W        W42076  22.808  27.992   7.741 -0.1895 -0.1258 -0.2645
    1W        W42077  11.859  14.495   0.578 -0.1689 -0.2030 -0.0769
    1W        W42078  24.700  20.490   0.244  0.0559  0.0822 -0.0303
    1W        W42079  11.158  21.278   9.523  0.0029 -0.3434  0.0495
    1W        W42080  21.969  10.127   9.444 -0.0805  0.2221  0.1308
    1W        W42081  23.567  14.022   9.371  0.2765 -0.0175 -0.3209
    1W        W42082  21.401  18.010   1.830  0.1959 -0.0204  0.0874
    1W        W42083   1.293  17.710   7.494 -0.0193  0.1374 -0.2164
    1W        W42084   9.352  25.743   1.271  0.0638  0.0305 -0.0612
    1W        W42085  18.690  22.031   8.995 -0.0224 -0.2050  0.2051
    1W        W42086  15.513   3.340   1.411  0.1506  0.0919 -0.0671
    1W        W42087   6.791   2.206   8.795  0.0392 -0.0144 -0.1810
    1W        W42088  22.995   9.725   2.534 -0.0960 -0.0340 -0.0035
    1W        W42089  27.760   0.126   9.378  0.0896 -0.1375  0.0027
    1W        W42090  15.574  17.309   1.228  0.0104  0.1372 -0.1322
    1W        W42091  23.729   5.562   8.297 -0.2198  0.1094  0.1401
    1W        W42092   0.055  17.275   2.379  0.0424  0.1105  0.1414
    1W        W42093  12.516  14.418   9.523 -0.1632 -0.0556  0.4072
    1W        W42094  23.542  21.982   9.478 -0.0983  0.2375 -0.1148
    1W        W42095   8.911  28.697   7.763  0.1294 -0.0154  0.3105
    1W        W42096  27.281   8.276   1.164  0.1787  0.2426 -0.1020
    1W        W42097  20.504  12.826   1.230  0.1326 -0.0152  0.1862
    1W        W42098   6.923  15.682   0.499 -0.2045  0.0367 -0.0193
    1W        W42099  13.196  22.712   2.649  0.0652 -0.2355  0.2420
    1W        W42100   2.562  28.707   8.410 -0.5814 -0.0062  0.1698
    1W        W42101   6.288   6.432   0.549 -0.0096 -0.0258  0.3839
    1W        W42102  16.987  28.423   1.023 -0.0672  0.2378  0.1764
    1W        W42103  18.120  15.249   2.129 -0.1777 -0.1546 -0.2455
    1W        W42104   2.858  20.842   9.120  0.1871 -0.1208  0.1324
    1W        W42105   0.201  26.814   0.814 -0.0801  0.2821 -0.1350
    1W        W42106  22.339  18.635   0.750 -0.0943  0.1207  0.1056
    1W        W42107   9.033  25.066   0.279 -0.0506 -0.0320  0.1306
    1W        W42108  20.357   3.574   9.577 -0.0137  0.0565  0.1701
    1W        W42109   4.724   6.991   7.961 -0.0124  0.0197 -0.2489
    1W        W42110  15.947  28.575   8.363  0.0509  0.3958 -0.3380
    1W        W42111  14.223   8.962   9.143 -0.0582 -0.0025  0.1139
    1W        W42112   3.587  21.214   7.582 -0.2977 -0.1771  0.1300
    1W        W42113   9.301   8.430   2.220  0.0312  0.1583  0.4326
    1W        W42114  15.344  17.485   2.126 -0.0648  0.0407  0.1481
    1W        W42115  15.264  25.144   1.185  0.0901  0.1122 -0.2279
    1W        W42116  22.680  24.842   7.801 -0.1747  0.1226  0.2615
    1W        W42117  16.047  13.540   1.024 -0.2078 -0.4038 -0.0496
    1W        W42118  17.674   6.110   0.713 -0.1046  0.0573  0.2506
    1W        W42119   2.964  25.339   3.444 -0.1206 -0.4405  0.0878
    1W        W42120  28.497  26.769   9.211 -0.1346 -0.1834 -0.0120
    1W        W42121   2.081  12.047   7.264 -0.0902  0.0528  0.1590
    1W        W42122  22.667  17.152   2.311  0.0346  0.0304 -0.3145
    1W        W42123  27.144  18.111   8.119 -0.0599 -0.0914  0.2058
    1W        W42124   9.302  14.270   2.911 -0.0003 -0.0246  0.3999
    1W        W42125   8.039  23.103   7.892 -0.0066  0.4075  0.0741
    1W        W42126  26.377   8.330   2.647 -0.0036  0.1278  0.0399
    1W        W42127  15.531  25.981   8.237 -0.0228  0.0376  0.1159
    1W        W42128   8.946  12.533   8.885 -0.0271  0.2467  0.0288
    1W        W42129   0.081   8.603   8.529  0.0578  0.1506 -0.1435
    1W        W42130  28.546  14.099   0.078  0.4695  0.0039  0.1306
    1W        W42131  21.209  19.684   2.447 -0.1023  0.2966  0.1776
    1W        W42132   6.089   5.664   2.235  0.1337 -0.0643 -0.1897
    1W        W42133  22.703  21.493   2.964  0.1128  0.0479  0.0411
    1W        W42134   1.788  16.981   1.023 -0.1577  0.0757  0.0516
    1W        W42135  19.202  24.061   8.886 -0.1678 -0.2966  0.1002
    1W        W42136   9.639  28.334   9.160 -0.0513  0.1454 -0.0376
    1W        W42137  16.428  27.661   0.832  0.1304  0.0370 -0.2207
    1W        W42138  21.826   7.580   6.513  0.1630 -0.0150 -0.0151
    1W        W42139   6.580  23.552   2.648 -0.1031 -0.2099 -0.1394
    1W        W42140  26.258  10.131   9.664 -0.0713 -0.1622  0.2233
    1W        W42141  23.695  15.640   0.299  0.1712  0.2398 -0.0755
    1W        W42142  21.195  18.187   2.764 -0.1151 -0.1557  0.0502
    1W        W42143  13.561  21.920   7.955 -0.2646  0.1728 -0.1403
    1W        W42144  15.000  19.361   7.540  0.0548  0.2206  0.0976
    1W        W42145  15.785  19.935   7.316  0.3216 -0.0120  0.1817
    1W        W42146   5.445  18.083   1.879 -0.0916  0.0651  0.2626
    1W        W42147  13.907  28.145   0.573  0.1727  0.1187  0.0860
    1W        W42148   8.487  25.819   3.237  0.2014 -0.1287  0.2955
    1W        W42149  15.559   7.318   1.184 -0.1969  0.1169  0.1035
    1W        W42150   4.110   4.957   0.207  0.3852  0.1744 -0.1930
    1W        W42151  16.340   8.953   7.671 -0.0371  0.1455 -0.0971
    1W        W42152  20.692   2.644   1.064 -0.0272 -0.2519 -0.2269
    1W        W42153  19.040  15.471   6.895 -0.2665  0.0680  0.0285
    1W        W42154  21.570   0.730   7.199 -0.2753  0.1032 -0.1951
    1W        W42155  22.237  27.550   9.482 -0.2701 -0.0164  0.0011
    1W        W42156  25.116  22.464   8.300 -0.0761  0.1476  0.1826
    1W        W42157   3.262  13.018   2.787  0.0950 -0.1060 -0.1058
    1W        W42158  20.174  23.113   8.885 -0.1078  0.0743  0.3014
    1W        W42159  18.416  23.319   0.212 -0.0843 -0.0516  0.0097
    1W        W42160  10.891  22.154   2.151 -0.0422  0.2439 -0.2052
    1W        W42161  11.149   8.411   5.911  0.3857 -0.1296  0.1546
    1W        W42162  24.709   4.307   1.480 -0.2260  0.1459 -0.0080
    1W        W42163   0.721   5.418   4.079 -0.3376  0.0892  0.1894
    1W        W42164  15.080   5.131   0.315 -0.0105 -0.1769  0.0416
    1W        W42165   2.124  26.328   0.875  0.0428  0.0079  0.1932
    1W        W42166   0.505  21.599   9.733 -0.0286  0.1937 -0.0282
    1W        W42167  23.026   0.647   2.217  0.2315  0.1175  0.1293
    1W        W42168  27.929  23.167   8.987  0.2339  0.0338 -0.3411
    1W        W42169  12.968  11.605   7.885 -0.0390  0.0824 -0.0039
    1W        W42170   7.508  20.192   9.431 -0.0826 -0.1646  0.0848
    1W        W42171   9.304   1.974   1.449  0.1146 -0.0929  0.2012
    1W        W42172  25.619   3.121   2.572  0.2022 -0.1520  0.2662
    1W        W42173  22.152   5.237   7.391 -0.0111 -0.0635  0.0017
    1W        W42174   8.166  27.019   7.543  0.2442  0.0481  0.0713
    1W        W42175   4.139   3.393   0.068  0.2067 -0.1560 -0.0547
    1W        W42176  22.590   3.089   9.980  0.0683  0.0316  0.1429
    1W        W42177   3.355  17.643   8.318 -0.2414  0.5020 -0.1462
    1W        W42178  21.902   7.263   6.930  0.0109  0.0271 -0.2485
    1W        W42179  23.728  22.840   0.121  0.2038 -0.1857 -0.2636
    1W        W42180  14.811  21.686   3.490 -0.1506  0.1396 -0.0755
    1W        W42181  14.704   5.491   6.727 -0.1881  0.0186 -0.2226
    1W        W42182  24.416  15.763   2.403  0.1619 -0.0610  0.0082
    1W        W42183  10.690  20.804   0.141  0.1010  0.0409  0.3900
    1W        W42184   6.784   1.635   3.149  0.2359  0.2409 -0.1941
    1W        W42185  15.476  14.544   0.304 -0.0915 -0.2132 -0.1258
    1W        W42186  11.087  20.992   7.342 -0.2796 -0.1898  0.0823
    1W        W42187  21.745  16.818   7.003 -0.0070 -0.1458  0.0147
    1W        W42188  11.540  14.047   1.655  0.1206 -0.2536  0.1936
    1W        W42189  10.657  28.106   6.740  0.3252 -0.0811 -0.0551
    1W        W42190  10.508  24.875   7.965 -0.0650 -0.1339 -0.3076
    1W        W42191   8.970  25.860   9.688 -0.1128  0.1111 -0.0169
    1W        W42192  13.159   4.328   1.443 -0.0492  0.1072  0.1563
    1W        W42193  24.427   3.997   9.786  0.0914  0.4258 -0.3204
    1W        W42194  16.713  19.001   9.834  0.0940 -0.4394 -0.1853
    1W        W42195  22.268  22.301   1.442  0.0024  0.1157  0.0324
    1W        W42196  23.960  13.931   1.305 -0.4133  0.3969  0.0631
    1W        W42197   4.663  17.688   0.385 -0.1620  0.2176  0.2192
    1W        W42198  15.260  24.127   8.592 -0.3942 -0.1443 -0.0089
    1W        W42199  28.238   6.017   7.832  0.0756 -0.0221 -0.0785
    1W        W42200  26.510  19.510   9.068  0.1321  0.0571 -0.0925
    1W        W42201  19.924   1.510   7.919 -0.1857 -0.1237  0.2986
    1W        W42202   9.144  13.579   7.810 -0.3909  0.0783 -0.0162
    1W        W42203   8.882  26.144   7.329 -0.0526  0.2041  0.0770
    1W        W42204  13.506   1.283   2.427 -0.2249 -0.3125 -0.2964
    1W        W42205   6.811   2.672   9.728  0.1797 -0.1540 -0.2224
    1W        W42206   0.039  26.091   8.641 -0.0017  0.1993  0.0507
    1W        W42207   2.395  16.495   8.266  0.2657  0.2898  0.0712
    1W        W42208  12.997  18.711   7.392 -0.0009  0.0366  0.2568
    1W        W42209  19.030  12.822   0.085 -0.1718 -0.0092 -0.2123
    1W        W42210   2.198  27.242   8.251  0.1187  0.2340  0.0267
    1W        W42211  10.161  26.562   1.050  0.0116 -0.0969 -0.2786
    1W        W42212  25.064  22.970   4.550  0.0754 -0.1516 -0.4690
    1W        W42213  19.664  23.166   9.605  0.1437  0.1291 -0.1366
    1W        W42214   8.972  10.733   6.647  0.3354 -0.2555  0.1220
    1W        W42215  15.927  16.563   7.011 -0.0362  0.3453 -0.4473
    1W        W42216  11.034   7.553   1.949 -0.2330 -0.0635  0.1778
    1W        W42217  25.554   6.418   7.636  0.2469  0.1005  0.0841
    1W        W42218   8.835  23.975   7.617  0.0591 -0.0280  0.1246
    1W        W42219  25.515  11.447   9.784 -0.0412  0.0749 -0.0009
    1W        W42220   1.281  25.657   9.214 -0.3178 -0.2129 -0.3049
    1W        W42221  20.162   6.777   8.212  0.1194  0.2024 -0.0761
    1W        W42222  19.123   5.432   9.538  0.3188 -0.1709  0.1857
    1W        W42223  17.218   3.953   9.478  0.0595  0.1464  0.1340
    1W        W42224  23.453   6.069   9.537 -0.1778 -0.1075 -0.1027
    1W        W42225  28.323   4.585   4.685  0.1780  0.1902 -0.1752
    1W        W42226  12.611  13.155   0.257 -0.2113  0.1190 -0.0206
    1W        W42227  20.648   6.161   8.792  0.1514 -0.2477  0.0428
    1W        W42228  12.827  19.983   2.751 -0.0293  0.0459 -0.0024
    1W        W42229   1.951  19.736   9.636  0.3492 -0.1674 -0.1687
    1W        W42230  20.838  26.962   8.990  0.2080  0.0369 -0.0448
    1W        W42231  19.289   8.104   0.668 -0.0811 -0.1137  0.0324
    1W        W42232   2.408   9.717   8.496  0.0311 -0.0427  0.0509
    1W        W42233   2.798  20.317   1.434 -0.1391  0.1484  0.1662
    1W        W42234  19.296   2.976   2.910 -0.1120  0.1666  0.2515
    1W        W42235  28.526  28.169   2.497  0.1220  0.0086  0.0358
    1W        W42236  27.557  27.597   8.739  0.0965  0.3230  0.3530
    1W        W42237  14.155   3.693   1.399 -0.0637  0.0101  0.1821
    1W        W42238  15.291  14.270   7.331 -0.2649 -0.1189  0.0834
    1W        W42239   5.360  20.247   9.979 -0.1693  0.0446 -0.2524
    1W        W42240   0.606   9.140   2.702 -0.4876 -0.1529 -0.0173
    1W        W42241  18.352   9.379   6.739  0.0859 -0.0782  0.1533
    1W        W42242   4.943  24.439   9.892 -0.2569 -0.1458  0.1684
    1W        W42243  12.024  21.599   0.954 -0.0443 -0.1397 -0.0656
    1W        W42244   1.403   4.997   1.777  0.3354 -0.1514 -0.1586
    1W        W42245  20.261  19.549   1.163  0.1803 -0.1178 -0.0202
    1W        W42246   4.499  18.139   1.960  0.5501 -0.1317  0.1518
    1W        W42247   3.079  26.428   0.047 -0.0611 -0.1389  0.5208
    1W        W42248   1.575   5.538   2.888 -0.2990  0.3369 -0.2610
    1W        W42249  11.721  15.837   9.498 -0.0859  0.0706  0.0172
    1W        W42250  27.012  20.047   2.802 -0.0103 -0.0750 -0.2079
    1W        W42251   6.794   6.417   2.787  0.0817  0.1018  0.1760
    1W        W42252  16.149   7.198   0.803  0.0601 -0.0756 -0.4555
    1W        W42253  27.731  24.598   0.477 -0.3935  0.0785  0.2746
    1W        W42254  13.092   2.018   8.819 -0.0678  0.1291  0.0556
    1W        W42255  19.676  23.532   2.288 -0.0070 -0.1367 -0.2460
    1W        W42256  27.873  21.444   1.541 -0.0699  0.4040  0.3145
    1W        W42257   6.691  24.958   3.239 -0.1090  0.3000 -0.1139
    1W        W42258   8.892  18.856   0.372 -0.2202  0.0716 -0.0505
    1W        W42259   2.682  20.164   3.974  0.1219  0.0914 -0.2802
    1W        W42260   3.989  27.700   8.734  0.0142 -0.0360 -0.1062
    1W        W42261  17.047  12.445   1.153 -0.1029 -0.1034  0.0587
    1W        W42262  13.701   5.732   9.094 -0.2220  0.0235  0.1643
    1W        W42263  10.892   1.005   7.775  0.1152  0.1807  0.0401
    1W        W42264  21.298  22.790   2.421 -0.0703  0.3430  0.1205
    1W        W42265   5.827   4.946   3.952  0.1482 -0.0146 -0.0947
    1W        W42266  18.036   5.987   2.158  0.0918 -0.2642 -0.1454
    1W        W42267  17.736  10.870   9.249  0.1130 -0.0682 -0.0322
    1W        W42268  27.200  11.072   2.845 -0.3582  0.2303 -0.2566
    1W        W42269  14.294   2.214   0.426  0.0163  0.4107  0.1194
    1W        W42270  27.828   3.447   3.585 -0.4175 -0.1455 -0.4439
    1W        W42271  24.904   1.337   2.212 -0.1886 -0.0102  0.0845
    1W        W42272  24.095  20.256   9.553 -0.2423 -0.0281  0.2290
    1W        W42273  21.973  13.003   9.785 -0.0781 -0.0767  0.1822
    1W        W42274   8.531   6.072   7.930 -0.0104  0.2057 -0.1321
    1W        W42275  20.229  20.862   7.827  0.0987 -0.0634  0.1587
    1W        W42276  19.669  21.059   0.750 -0.0494  0.0327  0.1987
    1W        W42277  17.595  12.927   6.983 -0.3406 -0.2004 -0.0859
    1W        W42278   6.940   2.546   8.555  0.2914 -0.4489  0.2299
    1W        W42279   5.598  26.821   9.700 -0.0959  0.1266  0.2206
    1W        W42280  21.850  28.258   2.250 -0.1921 -0.1775 -0.1313
    1W        W42281  21.981   7.044   2.351  0.0302 -0.0936  0.1113
    1W        W42282  11.007  14.452   7.200  0.0559 -0.0826  0.1810
    1W        W42283  26.520  19.896   9.825  0.1921 -0.3226 -0.2955
    1W        W42284   5.242   1.281   1.314 -0.1477 -0.0842  0.2674
    1W        W42285   2.913  19.820   2.096 -0.3748  0.2012  0.1167
    1W        W42286   2.529  12.167   2.669  0.1956 -0.1944 -0.0667
    1W        W42287  19.463   6.829   0.580 -0.0041 -0.1204  0.2192
    1W        W42288   1.613   7.089   2.605 -0.0578 -0.2106 -0.0410
    1W        W42289  19.042  17.307   3.074 -0.0886  0.0714 -0.2357
    1W        W42290  27.724  10.882   2.969  0.1452 -0.0863  0.0851
    1W        W42291  24.624  24.943   3.159 -0.2271 -0.0832  0.3384
    1W        W42292  16.964  11.426   9.463  0.3135  0.2253  0.0459
    1W        W42293   4.038  22.550   1.039  0.0138  0.2412 -0.1698
    1W        W42294  13.034   8.224   7.049 -0.0256 -0.0811 -0.1204
    1W        W42295   9.228  23.782   9.566 -0.1119 -0.2615  0.2543
    1W        W42296  23.169   4.141   8.895 -0.2119 -0.1679  0.2586
    1W        W42297  25.561   4.543   1.777  0.0874 -0.0236 -0.1231
    1W        W42298  21.803  10.832   2.144  0.0585 -0.1505  0.0337
    1W        W42299  18.742  11.381   0.099 -0.0280 -0.1499  0.4074
    1W        W42300  18.443  26.250   8.268 -0.1707  0.1721 -0.0473
    1W        W42301  27.564  24.365   1.731 -0.1602 -0.0576  0.2531
    1W        W42302  25.566  14.915   3.850  0.3327  0.3168 -0.0518
    1W        W42303   0.428   8.375   1.542  0.1417  0.4650  0.0050
    1W        W42304  16.477  10.903   8.336  0.0918  0.0743 -0.2263
    1W        W42305  15.893  14.510   1.216 -0.0886  0.0313 -0.0321
    1W        W42306  23.023   9.741   6.444 -0.1213  0.0871  0.4236
    1W        W42307  23.618  21.538   9.272  0.0372  0.2703  0.0608
    1W        W42308   4.151  20.372   8.266 -0.0430 -0.0124  0.1313
    1W        W42309  10.888   8.563   9.773 -0.0117  0.0313 -0.1406
    1W        W42310  18.078   0.849   0.216  0.1682 -0.0400  0.1341
    1W        W42311   5.797  20.794   1.325 -0.1258 -0.2865  0.1436
    1W        W42312  16.025  14.198   7.997 -0.2822 -0.0107 -0.3189
    1W        W42313  13.192  18.078   9.318 -0.1849  0.0980 -0.1773
    1W        W42314   2.784  18.788   7.338 -0.1232 -0.3385  0.1434
    1W        W42315  21.211  23.526   8.261  0.0895  0.1312 -0.3686
    1W        W42316  27.204   3.531   9.170 -0.0670 -0.1447 -0.1522
    1W        W42317  24.260  26.047   2.288 -0.0804 -0.3168  0.3228
    1W        W42318   9.744  12.453   9.390 -0.0663 -0.1337 -0.1624
    1W        W42319  23.890   9.912   9.294 -0.3395 -0.1229 -0.1813
    1W        W42320  18.458   2.150   7.415 -0.0961 -0.0927 -0.1720
    1W        W42321  18.282   5.958   0.100  0.2924  0.1582 -0.0516
    1W        W42322  23.669  23.728   7.966  0.4167  0.0591  0.2041
    1W        W42323   7.849  26.960   3.684  0.0080  0.3018 -0.0169
    1W        W42324   3.297  14.677   0.948 -0.1758 -0.0810 -0.0812
    1W        W42325   3.376  24.074   9.764 -0.0725 -0.2797 -0.2109
    1W        W42326   0.128   7.710   0.723 -0.0159  0.2109  0.0115
    1W        W42327  28.087   3.766   9.511 -0.0938  0.0872 -0.0452
    1W        W42328  28.095  22.143   3.764 -0.1095 -0.1020 -0.0458
    1W        W42329  20.455   6.659   0.342 -0.2841  0.0704 -0.0926
    1W        W42330   0.445   9.606   9.497 -0.3663 -0.3148 -0.0152
    1W        W42331  10.346   1.128   0.235  0.0662 -0.2874  0.0599
    1W        W42332  27.973  11.314   7.637 -0.2515 -0.0080  0.2485
    1W        W42333   7.167   4.205   2.641  0.2192 -0.1587  0.0233
    1W        W42334   4.647  13.451   8.493 -0.0741 -0.2856 -0.0153
    1W        W42335  17.694  12.777   8.054  0.1394  0.1369 -0.0349
    1W        W42336  21.759   2.138   0.292  0.0258 -0.1421  0.1614
    1W        W42337  25.340  18.826   1.265  0.0435  0.1163  0.1340
    1W        W42338  22.273   9.291   6.239 -0.0854  0.1310  0.1452
    1W        W42339  22.845   7.573   1.032 -0.0299 -0.4481 -0.3681
    1W        W42340  14.424  26.165   6.380  0.3056  0.0146  0.3274
    1W        W42341  20.053   9.425   7.989  0.0471  0.1645 -0.0214
    1W        W42342   4.706  14.212   8.836 -0.0803  0.1228  0.2556
    1W        W42343   3.627  19.519   3.188  0.1321 -0.0896 -0.1746
    1W        W42344   8.220   0.973   2.854  0.1285 -0.0349 -0.0501
    1W        W42345  21.216  22.575   8.238 -0.1881  0.1006 -0.3382
    1W        W42346  23.427  23.907   8.350  0.0976 -0.2951 -0.1223
    1W        W42347   8.949  17.138   6.767 -0.1353  0.3042  0.2371
    1W        W42348   0.657  17.001   8.242 -0.3061 -0.0024 -0.2322
    1W        W42349  24.301  13.796   6.926  0.1939 -0.1286 -0.3324
    1W        W42350  14.729  22.147   9.820 -0.2083  0.0745 -0.1541
    1W        W42351  24.915  17.523   8.367  0.0209 -0.1463 -0.1653
    1W        W42352  15.959  28.477   0.946 -0.0065  0.2741  0.0947
    1W        W42353   6.888   5.784   2.666 -0.1890 -0.0188 -0.0730
    1W        W42354  17.567  11.461   6.649  0.0570  0.2390  0.2211
    1W        W42355  11.889   8.271   5.547 -0.0810  0.1469 -0.1398
    1W        W42356   3.732  19.071   2.917 -0.0568  0.0279  0.0363
    1W        W42357   8.743   3.704   1.623 -0.1241 -0.0487  0.1448
    1W        W42358  16.742  16.842   9.332 -0.4773  0.0155  0.1810
    1W        W42359  27.999  18.133   9.617  0.1270  0.0431  0.2518
    1W        W42360  10.920   2.014   2.337 -0.0852 -0.1642  0.3487
    1W        W42361   2.614  19.022   2.294 -0.0116 -0.0339 -0.3259
    1W        W42362  11.924   4.094   6.022 -0.2303 -0.0349 -0.1606
    1W        W42363  19.100  25.017   8.415 -0.1310 -0.1254 -0.2686
    1W        W42364  25.200  25.594   9.362  0.0527  0.2199 -0.0091
    1W        W42365   8.440  23.286   8.072 -0.0024 -0.0206  0.0194
    1W        W42366  13.808  23.829   1.680 -0.2030 -0.0606 -0.1311
    1W        W42367  21.471  22.084   1.897  0.2338  0.0665 -0.1226
    1W        W42368  17.806   8.305   0.423  0.1675 -0.1202  0.2804
    1W        W42369  28.864  24.668   3.747 -0.0338  0.1975  0.0693
    1W        W42370   7.314  17.536   9.395 -0.0303 -0.3027  0.2452
    1W        W42371   1.927  25.868   7.557 -0.0765 -0.3158  0.2047
    1W        W42372   2.732  12.463   7.975  0.0898  0.0247  0.2035
    1W        W42373  12.539  18.863   0.148 -0.3409  0.0736 -0.3145
    1W        W42374   6.477  26.941   9.732  0.2088 -0.0881 -0.1191
    1W        W42375  18.064   1.126   1.327 -0.0508 -0.0133  0.1958
    1W        W42376   7.493   5.421   0.926  0.1245 -0.0259  0.1190
    1W        W42377   7.997  20.239   1.715  0.0160  0.0336 -0.3919
    1W        W42378  11.778  17.310   7.946 -0.0642  0.0032  0.1834
    1W        W42379  12.525   1.704   6.711  0.2291  0.0676  0.1392
    1W        W42380  20.324  21.303   8.042 -0.1019  0.0740  0.0047
    1W        W42381  15.917  12.956   0.463 -0.0930 -0.0706  0.4111
    1W        W42382  11.645  10.402   9.545 -0.3975  0.0980 -0.0482
    1W        W42383  21.848  14.773   5.727  0.0751  0.0835  0.1809
    1W        W42384  20.209  13.148   6.400  0.0031 -0.2305  0.1366
    1W        W42385   4.801  18.318   7.525  0.2546 -0.1928  0.2836
    1W        W42386  26.000   3.128   3.401  0.3632 -0.1398 -0.1055
    1W        W42387  10.395  27.235   9.886 -0.1144 -0.0132 -0.0295
    1W        W42388  21.800  21.181   0.460  0.2669 -0.2770 -0.1691
    1W        W42389  25.899  13.573   0.521 -0.2946 -0.1600 -0.3007
    1W        W42390  28.659  21.710   0.408 -0.1450 -0.1546  0.2981
    1W        W42391  20.670   7.753   0.445  0.0399 -0.0632 -0.1179
    1W        W42392   7.620  14.161   2.138  0.1302 -0.2462  0.0143
    1W        W42393   3.386   3.756   9.659 -0.0715  0.0236  0.3403
    1W        W42394  23.115  27.295   0.464 -0.1029 -0.2422  0.1374
    1W        W42395  23.460  14.461   7.958  0.1192  0.0162  0.0650
    1W        W42396  10.779   1.360   8.576 -0.0392 -0.2297 -0.0894
    1W        W42397  21.576   9.116   6.647  0.4364  0.0381  0.2107
    1W        W42398   0.872  22.655   3.222  0.0856 -0.1544 -0.0870
    1W        W42399   7.486   8.002   7.081  0.1019  0.1154 -0.0180
    1W        W42400  18.725   6.347   9.837  0.1429  0.1183  0.0618
    1W        W42401  19.766   2.981   0.111  0.1085  0.0150 -0.1294
    1W        W42402  22.246   3.828   0.200 -0.0498  0.0831 -0.0429
    1W        W42403  18.729   9.754   8.706 -0.0917 -0.1222 -0.0429
    1W        W42404   7.340   1.408   2.817  0.0347  0.0193 -0.2650
    1W        W42405  27.450   8.481   2.787 -0.0536  0.3757  0.2722
    1W        W42406  26.480  13.725   3.853 -0.0112  0.1220  0.1072
    1W        W42407  16.056   2.983   0.756  0.1701 -0.3387  0.0154
    1W        W42408   5.962   1.250   9.624  0.0247  0.0613 -0.1296
    1W        W42409  23.152   4.808   0.004  0.2434 -0.2555 -0.0554
    1W        W42410  18.483  14.926   0.221  0.0227  0.1309 -0.0919
    1W        W42411  20.598  25.877   3.530  0.2031  0.3158  0.0602
    1W        W42412  20.810  14.125   6.631  0.2451  0.0129 -0.0032
    1W        W42413  13.122  20.304   6.964  0.0220  0.1263 -0.2126
    1W        W42414  27.849  24.891   3.179  0.4205  0.1139  0.1830
    1W        W42415   6.380   6.476   1.078  0.0641  0.0113  0.0465
    1W        W42416  24.998   9.042   6.913  0.0732 -0.0853  0.4179
    1W        W42417  20.507  28.310   7.800 -0.2296 -0.1073 -0.0788
    1W        W42418   9.780  25.943   7.512  0.3636  0.0489 -0.2346
    1W        W42419   2.940   4.722   7.428 -0.0320 -0.0598 -0.1565
    1W        W42420  27.139   4.995   0.440 -0.2902 -0.2639 -0.0463
    1W        W42421  22.299   2.495   8.715 -0.0423  0.0390 -0.1402
    1W        W42422  28.633  21.254   0.639  0.1300 -0.2472  0.1664
    1W        W42423   4.028  19.677   2.404  0.1574  0.0265 -0.0207
    1W        W42424  22.713   0.110   9.566 -0.1904 -0.1561 -0.0062
    1W        W42425   7.578  10.145   6.815  0.0818  0.0958 -0.0414
    1W        W42426  27.146  18.387   3.083 -0.1729 -0.1111 -0.2180
    1W        W42427  18.388  14.199   9.194  0.0429 -0.2352 -0.2368
    1W        W42428  23.518   9.730   2.222  0.1928  0.2087 -0.3676
    1W        W42429  23.388  11.963   2.534  0.1241  0.3236 -0.0854
    1W        W42430  23.152   8.408   0.760 -0.2708 -0.0485 -0.2738
    1W        W42431   7.453   8.248   2.584  0.1424 -0.1843 -0.1492
    1W        W42432   5.755   7.981   1.279 -0.0837 -0.2364  0.0818
    1W        W42433  11.662   7.097   6.535 -0.1173  0.2810 -0.3717
    1W        W42434  21.226  17.190   0.090 -0.1301 -0.0994  0.0359
    1W        W42435   9.916   3.019   1.793  0.0905 -0.3837  0.0447
    1W        W42436  27.596  10.254   9.218  0.1101 -0.0793 -0.1142
    1W        W42437  28.158  28.443   8.897 -0.2051 -0.3153  0.0634
    1W        W42438  22.311  22.407   7.291 -0.1720 -0.2682  0.0412
    1W        W42439  26.275  25.438   2.528 -0.3632  0.0273 -0.2777
    1W        W42440  13.122  18.928   6.477  0.0430  0.2241 -0.1103
    1W        W42441   8.729   8.924   1.229 -0.2286  0.0309  0.1689
    1W        W42442   2.203   9.230   9.159  0.0931  0.0938 -0.2112
    1W        W42443   9.867   0.949   7.855  0.1308 -0.1907 -0.1635
    1W        W42444  26.859   9.508   9.455 -0.1291 -0.1207  0.2825
    1W        W42445  14.407  15.535   9.027 -0.0513  0.1454  0.1429
    1W        W42446  13.206  11.747   1.057  0.2855 -0.1214  0.2979
    1W        W42447   1.454  11.928   3.372  0.1480 -0.2688 -0.1358
    1W        W42448  26.925   1.692   9.062  0.0130 -0.4144 -0.1455
    1W        W42449   2.796   6.883   8.855 -0.0303 -0.0140 -0.2081
    1W        W42450  23.017  10.602   1.091 -0.0644  0.1271  0.2579
    1W        W42451  16.495  19.227   2.033  0.0491 -0.2188 -0.0475
    1W        W42452  14.367   2.362   2.544  0.2576  0.5020  0.1173
    1W        W42453  24.069  22.578   9.824 -0.5353  0.2406 -0.2749
    1W        W42454   6.953   5.584   0.311 -0.1173 -0.3353 -0.4074
    1W        W42455  21.226  12.531   7.054 -0.2711 -0.0816  0.0505
    1W        W42456  15.224  19.209   6.705 -0.2186 -0.1742  0.0445
    1W        W42457  11.889  18.786   1.838  0.1235  0.0215 -0.0195
    1W        W42458   1.228   7.781   1.975 -0.2501  0.2367  0.2620
    1W        W42459  26.242   7.431   2.479 -0.1835  0.0016 -0.0300
    1W        W42460   4.364  22.319   9.139 -0.1370  0.2266 -0.1926
    1W        W42461   6.072   1.355   3.525 -0.1738 -0.0292  0.3867
    1W        W42462   8.178  19.407   9.499 -0.3046  0.0068 -0.0320
    1W        W42463  25.959  15.657   7.992  0.2190 -0.0532 -0.0314
    1W        W42464   9.261  15.350   6.915 -0.0622  0.1992 -0.3772
    1W        W42465  15.085   7.202   9.733  0.1009 -0.2034  0.2227
    1W        W42466   4.399  27.409   8.804  0.1053  0.1806  0.3082
    1W        W42467  24.144  11.577   2.459  0.1716 -0.1247  0.1300
    1W        W42468  26.368   8.116   3.603 -0.1327 -0.2855  0.2502
    1W        W42469  13.726  12.940   8.147 -0.1638  0.2324  0.4225
    1W        W42470   2.236  15.109   8.417 -0.1302  0.2250 -0.3379
    1W        W42471  22.489  20.840   2.363  0.2767  0.2361 -0.1806
    1W        W42472  11.203  14.578   5.727  0.0454  0.0391 -0.2042
    1W        W42473  20.158  27.963   7.978 -0.0889  0.3627 -0.1817
    1W        W42474  21.755   4.329   8.541  0.2257 -0.2032  0.1171
    1W        W42475  18.236   7.913   7.385  0.1984  0.0262  0.2277
    1W        W42476  15.419  13.650   1.876 -0.0877  0.2902  0.0428
    1W        W42477  22.763  28.213   8.236 -0.0665 -0.5073 -0.1516
    1W        W42478   9.041   6.758   7.269  0.0440  0.0853 -0.0251
    1W        W42479  26.461   7.806   7.757 -0.1175  0.0283 -0.2064
    1W        W42480  10.034  24.261   9.064  0.1546 -0.1996  0.0015
    1W        W42481  26.202  24.636   2.206  0.1938 -0.2883  0.1249
    1W        W42482  18.703   7.179   8.110  0.0923 -0.0339  0.0152
    1W        W42483  15.649  28.640   9.551  0.0516 -0.0056  0.1774
    1W        W42484  22.789  15.511   0.730  0.1577 -0.0522  0.0404
    1W        W42485   5.907  12.389   1.338 -0.0554 -0.1049 -0.1965
    1W        W42486  28.104   5.422   9.094  0.2888  0.2551  0.2259
    1W        W42487  26.359  27.905   3.367  0.1431  0.1161 -0.3746
    1W        W42488  25.191   7.711   7.798 -0.1773 -0.1675  0.1458
    1W        W42489   6.511   7.107   7.161 -0.4095 -0.3187  0.1717
    1W        W42490   0.624   1.303   3.161  0.1858  0.0735  0.0381
    1W        W42491  16.392  22.975   1.328  0.3428 -0.1059  0.2880
    1W        W42492   5.903  26.820   2.638  0.0856 -0.2916 -0.1767
    1W        W42493  26.852   0.928   8.774  0.0869  0.0332  0.0596
    1W        W42494  26.877   4.397   3.649 -0.1541 -0.0288 -0.2849
    1W        W42495  21.976  14.707   7.587 -0.1297  0.2455  0.1816
    1W        W42496   1.580  20.723   7.769  0.0437  0.0193 -0.3055
    1W        W42497  22.209  16.385   0.361 -0.1726 -0.0720 -0.1684
    1W        W42498  12.172   0.291   1.497 -0.2638 -0.1384  0.2774
    1W        W42499  11.175  10.740   6.042  0.1750 -0.1053 -0.2973
    1W        W42500  20.506   5.471   7.920  0.3829  0.2821 -0.0825
    1W        W42501  16.886   6.181   7.042  0.0086  0.0858  0.1031
    1W        W42502   9.657  24.565   8.358 -0.4588 -0.3079  0.1284
    1W        W42503   0.434  14.972   8.737 -0.1218  0.3702 -0.0204
    1W        W42504  25.097  15.372   2.900  0.1999  0.0910  0.2839
    1W        W42505  25.662  14.029   1.262  0.0313  0.0649 -0.0511
    1W        W42506  26.157   8.166   1.589 -0.0922 -0.1730  0.0268
    1W        W42507  23.290  17.943   8.620 -0.4645  0.1276 -0.0601
    1W        W42508  14.812  21.941   1.261  0.2685  0.2881  0.1063
    1W        W42509  28.667  26.624   3.264 -0.1803 -0.1450  0.0686
    1W        W42510  19.143   2.889   2.430  0.0886 -0.1056 -0.1169
    1W        W42511   4.225  20.650   7.688  0.0746 -0.0244 -0.0123
    1W        W42512  11.418  22.774   8.287  0.0511 -0.1118 -0.2237
    1W        W42513   2.892   5.476   3.132  0.0318 -0.0688 -0.0674
    1W        W42514  27.461  15.623   7.913 -0.1169  0.0831  0.0274
    1W        W42515  21.815   8.271   9.711 -0.3107  0.0643 -0.4350
    1W        W42516  17.328  18.757   1.480 -0.1583  0.2412 -0.1824
    1W        W42517  12.005  10.324   9.889  0.2022  0.0893 -0.0474
    1W        W42518   0.635  11.122   7.632 -0.2599  0.0055 -0.1512
    1W        W42519   1.426  17.580   3.033 -0.2406  0.1011  0.2933
    1W        W42520  11.853  23.195   0.207  0.0321  0.2756 -0.3044
    1W        W42521  16.403  18.601   8.513  0.1492  0.0457  0.0718
    1W        W42522  16.305  18.749   9.522 -0.1084 -0.0233 -0.1307
    1W        W42523  20.060   7.759   1.921  0.1212 -0.1621  0.1003
    1W        W42524  25.079  28.304   0.234  0.0106  0.0028  0.1501
    1W        W42525  27.016  13.881   3.836 -0.2419  0.1403  0.0348
    1W        W42526  21.181  27.062   1.287  0.0818 -0.2034  0.0067
    1W        W42527  12.864   7.430   6.214  0.0067  0.0144  0.1411
    1W        W42528  14.444   6.666   6.446  0.1676 -0.1479 -0.0265
    1W        W42529   1.830  28.744   7.794  0.1755  0.1287  0.0489
    1W        W42530   2.874  16.054   7.497  0.1043  0.1095 -0.2412
    1W        W42531  18.620  18.546   6.378 -0.0799 -0.0441  0.1144
    1W        W42532  20.018  20.876   6.846  0.1881  0.1352 -0.1909
    1W        W42533   0.900  16.445   1.807 -0.0735  0.1316 -0.2449
    1W        W42534  18.475   5.856   9.395 -0.1186  0.0463 -0.1154
    1W        W42535   8.863   5.210   9.835 -0.2554 -0.0703  0.0956
    1W        W42536   9.307  22.956   9.781 -0.1311  0.1205 -0.0184
    1W        W42537  12.388   3.823   1.454  0.1741 -0.0663  0.1889
    1W        W42538   3.259   2.294   3.487  0.0953  0.2611  0.0456
    1W        W42539  28.445  15.452   0.506 -0.4018 -0.1732  0.0344
    1W        W42540  27.655  11.443   1.655  0.2378 -0.0204 -0.1240
    1W        W42541  24.237   4.552   8.721 -0.1006  0.0616  0.2676
    1W        W42542  24.973   5.209   1.995  0.1149  0.2488 -0.0498
    1W        W42543  13.531   0.724   1.668  0.3406  0.2598  0.0708
    1W        W42544  19.070  21.285   2.188 -0.1412 -0.1301 -0.2172
    1W        W42545   7.425   3.164   3.215  0.0060  0.0989  0.0824
    1W        W42546  23.534  10.233   9.981 -0.2498 -0.0321 -0.1456
    1W        W42547   2.416  17.254   9.196 -0.1128 -0.3451  0.1486
    1W        W42548   7.330  20.948   3.190 -0.0009 -0.0965  0.2177
    1W        W42549  15.058  27.948   0.696  0.1680 -0.0132  0.1616
    1W        W42550  19.299  14.832   2.850 -0.1467  0.1064  0.0980
    1W        W42551   5.069   4.663   8.009 -0.0575  0.0805 -0.4267
    1W        W42552   1.353  14.091   3.237  0.0506  0.2183  0.0388
    1W        W42553  25.549  24.287   2.330  0.3086  0.3455  0.2049
    1W        W42554  26.104   2.789   0.125 -0.0615  0.1755 -0.1269
    1W        W42555   5.874  24.810   1.907  0.1508  0.1667 -0.0164
    1W        W42556   4.725  26.694   3.470 -0.0428 -0.2272  0.2454
    1W        W42557   0.193  19.475   3.560  0.1355 -0.2409  0.0103
    1W        W42558   9.008  27.312   0.997  0.2800  0.0409  0.1820
    1W        W42559  18.479   0.871   7.399 -0.1303  0.0802 -0.1034
    1W        W42560  16.564  28.685   8.796  0.0279 -0.2693 -0.1155
    1W        W42561  20.884  12.916   2.273  0.2779  0.2234  0.2739
    1W        W42562  26.962  20.377   3.189 -0.1206 -0.1443  0.0142
    1W        W42563  14.952   0.163   6.868 -0.0369 -0.1038 -0.2219
    1W        W42564   1.878   9.954   8.818  0.1355  0.1324  0.1711
    1W        W42565  14.261  11.172   9.127 -0.0727 -0.0766 -0.0237
    1W        W42566   2.290  20.869   3.305 -0.3580 -0.1869  0.1093
    1W        W42567  21.597  22.495   2.132  0.0400 -0.4302 -0.3780
    1W        W42568  16.088  18.694   1.513  0.0919 -0.0602  0.1675
    1W        W42569   7.581  24.270   9.403  0.0183  0.0820 -0.2369
    1W        W42570   9.946   1.618   3.120  0.0095  0.0116  0.1650
    1W        W42571   6.756  24.696   0.197 -0.0336 -0.4097 -0.2317
    1W        W42572  18.433  19.812   0.864 -0.0477  0.0262  0.1976
    1W        W42573  17.829   5.770   0.391 -0.3002 -0.0101  0.1292
    1W        W42574  28.597   3.468   0.608 -0.1034 -0.0295  0.0300
    1W        W42575   3.566   3.095   8.416  0.1297  0.0079  0.2509
    1W        W42576  25.955  17.100   8.176 -0.1898  0.0389  0.0465
    1W        W42577   1.203  17.188   1.006 -0.0166 -0.0570 -0.1871
    1W        W42578   2.694  13.966   2.024  0.1075 -0.1134 -0.0454
    1W        W42579   8.215   4.299   8.953 -0.3864 -0.0911 -0.2431
    1W        W42580  28.410   5.065   8.861  0.1738  0.0158  0.0179
    1W        W42581  18.712  24.309   9.873  0.0285  0.1164  0.1222
    1W        W42582  24.786  14.839   8.213 -0.1080  0.1031  0.1586
    1W        W42583  11.710   7.438   7.009 -0.1919  0.0710  0.0315
    1W        W42584  12.967  21.972   7.981 -0.1294 -0.1355  0.0357
    1W        W42585   7.791  14.765   9.223 -0.1103  0.1639  0.1918
    1W        W42586  23.947   8.237   1.767 -0.3040  0.0875 -0.0158
    1W        W42587  25.625   9.924   0.224  0.0946 -0.1086  0.1725
    1W        W42588   8.648   7.728   1.508 -0.0839  0.1907  0.2120
    1W        W42589  23.248   5.296   0.224  0.1106 -0.1325  0.0617
    1W        W42590   2.977  14.961   1.143  0.1954 -0.2153 -0.0969
    1W        W42591   2.244  24.824   8.594  0.2197 -0.0100 -0.0022
    1W        W42592   3.054  28.376   0.541 -0.0845 -0.2932  0.0838
    1W        W42593  25.256  14.210   1.783 -0.3917  0.1650 -0.0500
    1W        W42594   0.865  10.827   0.649 -0.2016 -0.1742  0.0796
    1W        W42595  25.988   0.745   9.903 -0.2531  0.2068  0.1649
    1W        W42596   8.564  16.244   9.249  0.2063  0.3320  0.3727
    1W        W42597  14.305  26.933   8.707  0.0793  0.2747 -0.0534
    1W        W42598  26.132   2.327   2.377  0.1292 -0.1007  0.0317
    1W        W42599  21.283  17.099   1.060  0.3596  0.1109  0.2625
    1W        W42600  11.274  21.933   1.955  0.1132 -0.2648  0.2217
    1W        W42601   4.029  11.051   1.491  0.0779 -0.2229 -0.0379
    1W        W42602  26.383   6.442   0.016  0.1148 -0.1460 -0.2051
    1W        W42603  14.788  15.079   9.765 -0.1697 -0.3001  0.1740
    1W        W42604  24.054  10.498   6.624  0.1377  0.1656  0.0871
    1W        W42605   4.583  28.459   9.844 -0.1927 -0.2111 -0.1780
    1W        W42606  11.909  28.632   8.189 -0.0271 -0.1583 -0.2718
    1W        W42607  22.153  26.382   1.491  0.1156  0.1751 -0.2177
    1W        W42608  11.502  23.594   2.129 -0.3329  0.0106 -0.3000
    1W        W42609  20.591   3.626   1.714  0.0681  0.2582  0.1206
    1W        W42610   0.893   5.633   1.832 -0.1018 -0.0581  0.2160
    1W        W42611   7.071   1.245   3.298  0.0527  0.0982 -0.4480
    1W        W42612  11.081   8.995   1.448  0.3411  0.0339  0.3802
    1W        W42613  20.209   5.530   8.550 -0.2941  0.2721  0.2571
    1W        W42614  16.967  17.044   7.938 -0.3894 -0.1981 -0.0260
    1W        W42615   9.745  15.632   6.996 -0.2693  0.1101 -0.2095
    1W        W42616  25.669  14.953   8.849  0.1175 -0.0466  0.2494
    1W        W42617  17.383   5.043   2.065 -0.3116  0.0736 -0.0192
    1W        W42618  24.148  16.791   3.767 -0.3045 -0.1181 -0.0701
    1W        W42619   0.097  13.849   8.270 -0.0924 -0.0771  0.1390
    1W        W42620   8.034  14.359   1.130 -0.1790  0.0728 -0.0941
    1W        W42621   0.821  13.293   7.915 -0.1884  0.0829 -0.2968
    1W        W42622  17.971   7.812   6.439 -0.1452 -0.1861  0.0248
    1W        W42623   9.388  17.612   0.336 -0.0596 -0.0369 -0.2547
    1W        W42624  15.435  16.921   9.880  0.1682  0.2366  0.3628
    1W        W42625   7.193  17.244   8.485  0.0823 -0.0787  0.3263
    1W        W42626   0.610  27.161   0.644 -0.0072 -0.1385 -0.2480
    1W        W42627  22.758  18.688   8.565  0.0598  0.0329 -0.2208
    1W        W42628   4.071   8.070   0.083 -0.0076 -0.0491  0.1913
    1W        W42629  26.884  17.809   2.505 -0.4184  0.3909 -0.0842
    1W        W42630  13.836  13.528   0.946  0.2575  0.2703  0.0320
    1W        W42631  10.394  13.016   1.222  0.5051 -0.0468  0.3494
    1W        W42632  15.606   4.771   8.668 -0.1370  0.0330 -0.0420
    1W        W42633   6.245  17.716   8.532 -0.0844 -0.0714  0.3788
    1W        W42634  24.004   5.079   8.425  0.1831 -0.0987  0.3110
    1W        W42635  13.129   9.756   6.620 -0.2248 -0.1107 -0.1052
    1W        W42636  28.255   3.962   2.164  0.3880  0.1844  0.0170
    1W        W42637  27.999  16.066   2.662  0.0253  0.3734  0.1414
    1W        W42638   7.112  18.127   8.638 -0.2787 -0.1077 -0.3565
    1W        W42639  18.509  17.416   2.107  0.1650  0.1176  0.1573
    1W        W42640  14.553   0.638   8.521 -0.1711 -0.0575  0.0803
    1W        W42641  27.458   6.355   3.337 -0.0929  0.1884 -0.1068
    1W        W42642   7.237   8.670   8.164 -0.0744 -0.0624 -0.1910
    1W        W42643  24.362   8.708   2.429 -0.1397  0.1265 -0.0575
    1W        W42644  20.689   5.221   8.357  0.2918  0.0453 -0.2985
    1W        W42645   2.007  15.545   2.252  0.1127 -0.0331 -0.1470
    1W        W42646   7.036  18.351   6.935  0.2007  0.4180 -0.1013
    1W        W42647   1.141  17.383   1.473 -0.0314 -0.3321  0.1462
    1W        W42648  24.734   3.851   1.271 -0.0817 -0.0007 -0.0374
    1W        W42649  21.110  12.154   7.543  0.0349 -0.2456  0.0409
    1W        W42650  19.205  11.695   1.663 -0.1088 -0.0183  0.1122
    1W        W42651   5.700   4.244   2.625  0.2560 -0.0691 -0.1894
    1W        W42652   8.350  12.116   9.357 -0.2168  0.1838  0.2267
    1W        W42653  13.420   6.040   6.397  0.2456  0.1731 -0.2310
    1W        W42654  10.606   2.189   1.784  0.3335  0.3584  0.1207
    1W        W42655  23.306  11.030   2.475  0.2011 -0.2010 -0.6295
    1W        W42656  26.552  11.082   8.833 -0.0108 -0.1057 -0.0358
    1W        W42657  18.487  12.757   8.552 -0.0990  0.0574  0.0484
    1W        W42658  26.352  14.706   7.788 -0.0279  0.1213 -0.0603
    1W        W42659  20.377  15.348   1.525  0.0409 -0.1532 -0.1784
    1W        W42660  20.856  16.269   7.147  0.0996  0.0209  0.0666
    1W        W42661   2.007  12.838   8.621 -0.0373 -0.0650  0.2824
    1W        W42662  14.852  26.530   1.864 -0.0643  0.2475  0.0229
    1W        W42663   6.069   1.009   3.878 -0.3985 -0.0186 -0.3221
    1W        W42664  27.571  24.665   9.803  0.1845 -0.0359  0.2491
    1W        W42665  10.030   6.537   0.482  0.1260 -0.4389  0.0554
    1W        W42666  25.566   3.659   8.311  0.1199  0.2050  0.0769
    1W        W42667  24.297  20.858   0.174  0.0443  0.2984  0.1060
    1W        W42668   6.884  13.418   9.674 -0.1237 -0.0953  0.1243
    1W        W42669   9.488   7.017   1.475 -0.2670 -0.0682  0.1172
    1W        W42670  20.585   5.080   2.041  0.2910 -0.4267 -0.0047
    1W        W42671  24.963  14.372   6.715  0.0071 -0.1401 -0.0991
    1W        W42672  22.271  10.217   0.549  0.0586 -0.0539  0.0952
    1W        W42673  21.015   9.683   6.941  0.3468  0.0153  0.1227
    1W        W42674   8.527   0.659   3.079 -0.3710 -0.1184  0.3049
    1W        W42675  11.760   1.146   1.065 -0.0882 -0.3695 -0.0967
    1W        W42676  27.053  22.504   8.413  0.2703 -0.0842 -0.1104
    1W        W42677  27.415   8.452   8.275  0.2408  0.1524 -0.0116
    1W        W42678   8.218   9.540   1.982 -0.0022 -0.0703 -0.0871
    1W        W42679   6.108  24.559   0.549 -0.2695 -0.0088 -0.0349
    1W        W42680  13.060  20.622   8.181 -0.0405  0.0423 -0.1155
    1W        W42681   3.283  19.517   9.286 -0.1114  0.4095  0.0460
    1W        W42682  15.436  22.526   0.198  0.0821 -0.1383  0.0358
    1W        W42683  20.495  24.911   7.249 -0.0991  0.0200 -0.1736
    1W        W42684  19.875   0.280   2.925 -0.0273  0.1483  0.2754
    1W        W42685  14.860  12.715   7.781 -0.0503  0.0685 -0.0715
    1W        W42686  26.463  17.455   2.803  0.0693  0.2469 -0.0418
    1W        W42687   4.622   6.468   7.119 -0.0961 -0.0493  0.2092
    1W        W42688  17.419  18.470   1.100 -0.1561  0.1086  0.0327
    1W        W42689  12.058  11.747   9.890  0.0612 -0.0735 -0.0210
    1W        W42690  13.150  21.863   2.182  0.0465 -0.0626 -0.0572
    1W        W42691  13.570  14.157   2.714  0.0385 -0.0455  0.0094
    1W        W42692  12.760  15.644   1.855  0.1903 -0.3079 -0.0474
    1W        W42693   8.716  27.871   7.250 -0.1559 -0.2608 -0.0755
    1W        W42694  26.984  27.471   0.095 -0.0420  0.1885  0.0288
    1W        W42695  26.585   8.184   7.306  0.1795  0.0623  0.0534
    1W        W42696   1.555  21.280   0.161  0.2798 -0.1031  0.1765
    1W        W42697   1.721  20.150   7.680 -0.0259 -0.2496  0.1908
    1W        W42698  20.225   7.836   6.521  0.0601  0.0811 -0.0904
    1W        W42699  18.226   6.441   6.204  0.3609 -0.4662 -0.2085
    1W        W42700  16.960  15.707   2.355  0.1719  0.0959 -0.1359
    1W        W42701  24.954  14.260   8.591 -0.0543  0.1274  0.3453
    1W        W42702  19.748   6.929   1.304  0.0585  0.0576  0.2431
    1W        W42703  25.404   5.044   8.987 -0.3972 -0.0099  0.2367
    1W        W42704  10.627  14.729   2.666  0.3459 -0.1489  0.1664
    1W        W42705  22.510   5.899   8.627 -0.5038 -0.1820 -0.0314
    1W        W42706  10.921  15.393   6.719  0.2873 -0.1322  0.1162
    1W        W42707  14.478  20.252   7.648 -0.0149 -0.0400 -0.0357
    1W        W42708   4.673  21.355   1.642 -0.2047 -0.0307  0.0384
    1W        W42709  21.758  25.826   2.359  0.3465 -0.0105  0.3948
    1W        W42710  26.946   5.716   1.943  0.3082  0.1204 -0.1500
    1W        W42711   6.532   2.426   1.380  0.2805 -0.0159  0.0340
    1W        W42712  23.652   0.208   9.619  0.0033  0.0842  0.0449
    1W        W42713  24.570  22.854   0.209  0.0931 -0.3868  0.2676
    1W        W42714  21.183  17.690   0.055  0.1725 -0.0585 -0.0570
    1W        W42715  16.916  23.287   1.474  0.0754  0.3645  0.2009
    1W        W42716   4.657  18.729   0.736  0.0081  0.0765  0.3395
    1W        W42717  14.404  21.760   8.534 -0.2410  0.0451  0.0936
    1W        W42718  24.509  10.206   9.723 -0.1292  0.2308 -0.0924
    1W        W42719  13.114  23.226   7.860 -0.0825 -0.1431  0.2303
    1W        W42720   9.142  12.630   1.763  0.0322  0.3498  0.0815
    1W        W42721  14.930   9.923   0.308 -0.0371  0.1623  0.2488
    1W        W42722   3.857   7.431   8.191 -0.2447 -0.0279 -0.1220
    1W        W42723  21.440  25.488   8.986  0.1036  0.0550  0.2163
    1W        W42724  27.020  10.392   3.243 -0.0181  0.0700  0.0740
    1W        W42725  16.313   6.793   1.411 -0.1851  0.0661  0.1085
    1W        W42726   0.527  21.315   4.527  0.1313  0.0664  0.0228
    1W        W42727  28.793   0.612   3.160 -0.0343 -0.1114  0.2290
    1W        W42728  25.782  17.467   9.382  0.0394 -0.1865  0.0107
    1W        W42729  24.730  14.173   9.176  0.1810  0.0915 -0.0704
    1W        W42730  24.338  12.102   0.825 -0.0159 -0.1104  0.1268
    1W        W42731   8.647  23.745   0.492 -0.3912  0.0588 -0.0448
    1W        W42732  23.406   6.008   2.475 -0.1015 -0.0910 -0.0303
    1W        W42733  17.004  26.811   0.372  0.0015 -0.1278 -0.1122
    1W        W42734  24.701  21.807   8.820 -0.3129 -0.0644 -0.3666
    1W        W42735   4.650   6.412   7.911 -0.0069  0.1370 -0.2618
    1W        W42736  10.862   8.914   6.891  0.1708 -0.0637 -0.0688
    1W        W42737  16.187  13.723   9.992 -0.2697  0.1954 -0.1424
    1W        W42738  18.016   7.533   0.733  0.0202 -0.1702  0.3179
    1W        W42739  25.743  20.148   7.456  0.2271 -0.0439  0.0486
    1W        W42740  22.976  13.933   7.076 -0.0162  0.3107  0.2004
    1W        W42741  11.398  10.398   6.325 -0.1893  0.0208 -0.0047
    1W        W42742  28.524  26.241   8.313  0.1823  0.2504  0.0295
    1W        W42743   0.778  21.762   7.990 -0.0763  0.3340  0.3039
    1W        W42744   0.831   0.398   7.549  0.1098 -0.1411 -0.2311
    1W        W42745  24.169   2.274   0.130 -0.0933  0.3065 -0.0731
    1W        W42746   5.925   7.261   0.475  0.1846 -0.0712 -0.2462
    1W        W42747   7.524  22.007   2.639  0.1802  0.1870 -0.0563
    1W        W42748  28.749  26.596   1.985  0.2196 -0.3978  0.3750
    1W        W42749  13.774  16.360   8.362  0.1115  0.0597  0.0860
    1W        W42750  13.767  10.940   9.447  0.0116  0.0923  0.3950
    1W        W42751  19.616  22.279   9.185  0.1392 -0.1626 -0.0169
    1W        W42752  20.153  18.294   8.926  0.2164 -0.1614 -0.1427
    1W        W42753  16.739  25.553   2.146  0.1452 -0.1522 -0.0120
    1W        W42754   4.640   2.383   3.877 -0.0312 -0.0605  0.1145
    1W        W42755  10.159  28.205   9.120  0.2419 -0.1159  0.2374
    1W        W42756  12.124   6.976   6.644  0.1480  0.1867  0.2892
    1W        W42757  13.379  28.695   0.621  0.1170  0.1483  0.0987
    1W        W42758  13.485  17.839   8.423 -0.0704 -0.2656  0.4693
    1W        W42759  26.219   7.492   8.732  0.2284  0.0044  0.1375
    1W        W42760   2.180   4.012   2.355  0.4449  0.3305  0.1251
    1W        W42761   9.030  15.486   0.919  0.1625 -0.2017 -0.0931
    1W        W42762   2.674  12.213   0.430  0.0887  0.0919 -0.0781
    1W        W42763   1.954  22.408   8.438 -0.1707  0.0271 -0.1182
    1W        W42764   3.264   4.445   2.583 -0.1155  0.3589  0.0976
    1W        W42765  17.639  19.149   9.540  0.1869  0.1084  0.3111
    1W        W42766  22.401  24.504   8.148  0.0633 -0.0107  0.0010
    1W        W42767  12.355  12.644   1.703  0.1227  0.1586  0.1661
    1W        W42768   1.096   6.851   9.630  0.0153 -0.0259  0.6034
    1W        W42769   3.120  19.681   7.736 -0.2185 -0.1479 -0.0216
    1W        W42770   6.474  15.293   6.589  0.1077  0.1361 -0.4228
    1W        W42771  20.067  24.108   0.492 -0.0418  0.0929 -0.1616
    1W        W42772  13.709   9.875   9.964 -0.1311 -0.2273 -0.2266
    1W        W42773  18.666  25.571   3.224 -0.1649  0.1753 -0.0909
    1W        W42774   3.175   9.075   9.595  0.0055  0.1287 -0.3028
    1W        W42775  24.363  20.769   6.618 -0.1651 -0.0583  0.0133
    1W        W42776   0.127   8.471   3.233  0.2186 -0.2991  0.0693
    1W        W42777  20.268  21.129   1.044 -0.0070 -0.0047 -0.1292
    1W        W42778   7.452  21.714   1.602  0.0752  0.1091  0.0343
    1W        W42779  16.463  18.930   7.111 -0.1598  0.1780 -0.0941
    1W        W42780  11.469   5.449   7.322  0.0001  0.0341 -0.0125
    1W        W42781  18.882   7.396   7.138 -0.2438  0.1065  0.1590
    1W        W42782  13.782   4.623   7.566 -0.0379 -0.0955  0.3457
    1W        W42783  18.127   9.368   8.145  0.0662 -0.1993 -0.0186
    1W        W42784  13.383  23.554   1.802  0.0961 -0.1456 -0.1232
    1W        W42785  15.098   7.553   1.071 -0.1040  0.1294 -0.2588
    1W        W42786   1.028  13.488   0.673  0.1251 -0.0985  0.0701
    1W        W42787  24.506   9.467   6.212 -0.4662  0.1267 -0.0207
    1W        W42788   7.856  20.039   0.160  0.1472  0.0405 -0.2696
    1W        W42789  19.832  28.660   0.773 -0.1778  0.2268 -0.2440
    1W        W42790  15.453  19.893   9.895  0.4767 -0.0706 -0.0508
    1W        W42791  15.034  17.630   7.073  0.1221 -0.0712 -0.2216
    1W        W42792  12.559  15.594   9.592 -0.0754  0.0701  0.1336
    1W        W42793  27.736   5.764   9.385  0.0131  0.1401 -0.3863
    1W        W42794   6.613  25.938   9.288  0.2438 -0.3670 -0.1273
    1W        W42795  22.271   1.673   0.148 -0.2046 -0.2286 -0.2022
    1W        W42796   6.978   5.320   1.326 -0.0475  0.1830  0.0420
    1W        W42797   8.268  27.229   1.645  0.0368  0.2798  0.0027
    1W        W42798  16.162  27.761   7.630 -0.1484 -0.0200  0.1231
    1W        W42799   8.671  16.328   7.184  0.0456 -0.0054  0.1818
    1W        W42800  24.020  12.386   1.975  0.0115  0.2614 -0.2362
    1W        W42801   1.381  23.800   9.583 -0.2371 -0.4519 -0.1023
    1W        W42802  27.335  19.628   3.891 -0.1563  0.3053 -0.1396
    1W        W42803  20.251  17.590   0.295 -0.1877  0.0359  0.1232
    1W        W42804   4.713  24.236   1.225  0.0958  0.1847  0.2984
    1W        W42805  17.070   4.871   9.895  0.0486  0.2060 -0.1032
    1W        W42806  20.158  24.677   9.779  0.1889 -0.0847 -0.2244
    1W        W42807   5.093  10.419   3.414  0.3584  0.1098 -0.2972
    1W        W42808  12.679   9.791   6.948 -0.5162 -0.1305 -0.0365
    1W        W42809  21.698   2.787   2.048 -0.2029  0.0042 -0.2421
    1W        W42810   1.296  26.657   3.716 -0.0990 -0.1509 -0.0977
    1W        W42811  15.013   1.891   7.339  0.0540 -0.1347 -0.1921
    1W        W42812  17.093  27.469   9.681  0.2436  0.0892 -0.1229
    1W        W42813   8.904   6.420   7.744 -0.0067  0.0892  0.1463
    1W        W42814  25.977  12.161   7.187  0.1544 -0.1432 -0.0109
    1W        W42815   6.326   7.777   0.875 -0.4990 -0.0172  0.3010
    1W        W42816  24.186   6.217   2.194 -0.2948  0.3015 -0.0560
    1W        W42817   5.570  23.533   8.165  0.0491  0.1215  0.0532
    1W        W42818  12.218   0.145   0.090 -0.1239  0.0520 -0.3418
    1W        W42819  12.643  15.605   8.941  0.1315 -0.1376  0.0941
    1W        W42820  19.872   5.042   9.244  0.2276  0.1999 -0.0776
    1W        W42821  19.461  20.386   7.687 -0.1841 -0.2089 -0.1817
    1W        W42822  18.385  13.018   6.595  0.0712  0.0548  0.1178
    1W        W42823   3.528   2.314   2.568 -0.1058 -0.0826 -0.0778
    1W        W42824  14.182  24.253   9.968  0.2735 -0.0477  0.2274
    1W        W42825  26.322   0.412   0.816 -0.2865 -0.0963  0.0350
    1W        W42826   7.168  10.113   9.488 -0.0427  0.2281  0.1711
    1W        W42827  25.031   9.622   9.285 -0.2850  0.1552 -0.2465
    1W        W42828  21.369  22.403   7.728 -0.2276  0.2522 -0.3270
    1W        W42829  11.325  25.721   9.583  0.3200 -0.0739 -0.0076
    1W        W42830   8.608  20.504   0.033 -0.1683  0.1711 -0.0904
    1W        W42831   0.828   0.274   4.070  0.3381  0.0376 -0.0460
    1W        W42832  24.151  28.728   8.662  0.3020  0.0817  0.1036
    1W        W42833  22.086   3.570   0.764  0.2651 -0.0825 -0.2884
    1W        W42834   9.620   7.692   7.507  0.1670 -0.1845 -0.2162
    1W        W42835  14.483  23.159   7.766  0.3398 -0.0484 -0.1148
    1W        W42836  16.264  12.731   6.408 -0.2419 -0.1996 -0.2669
    1W        W42837  24.288  18.983   0.837  0.0317 -0.1964 -0.3361
    1W        W42838   0.282   9.337   0.018 -0.1585 -0.0664  0.1030
    1W        W42839  11.562   9.195   1.458 -0.0659  0.1214 -0.3992
    1W        W42840  11.018  12.462   0.107 -0.1819 -0.1360  0.0185
    1W        W42841   4.032  22.471   7.326  0.1744  0.1870 -0.0727
    1W        W42842   0.402  24.062   7.211 -0.3169 -0.0412  0.1339
    1W        W42843  17.160  15.598   2.804  0.0012 -0.1296  0.0335
    1W        W42844  14.689  13.084   8.100  0.1716 -0.0290  0.1746
    1W        W42845  13.877  22.296   9.709  0.0228 -0.0408  0.3303
    1W        W42846  11.988  12.989   9.086  0.1260 -0.0403 -0.2244
    1W        W42847  15.941  20.270   2.294 -0.2611 -0.2609  0.1042
    1W        W42848   1.982  21.502   0.796 -0.1408 -0.0539  0.0242
    1W        W42849   1.282  13.313   1.063 -0.1533 -0.2123  0.1557
    1W        W42850   6.382   1.299   3.145 -0.2204  0.0137  0.2672
    1W        W42851   0.094  15.462   1.285 -0.3909 -0.0623 -0.0189
    1W        W42852  24.255  24.804   0.156 -0.0612  0.0749 -0.1336
    1W        W42853  14.292  23.815   2.874 -0.3283  0.0275  0.3982
    1W        W42854   1.900   9.907   7.712  0.4138  0.0227  0.0015
    1W        W42855  12.760  26.002   0.705 -0.0336  0.1164 -0.0196
    1W        W42856  14.417  21.936   9.004 -0.4088  0.1042 -0.1247
    1W        W42857  19.075  15.332   9.029  0.0079  0.3373 -0.0116
    1W        W42858   6.015  22.726   9.128 -0.1250 -0.1306 -0.0238
    1W        W42859  19.228  13.436   2.040 -0.1860  0.0332  0.0396
    1W        W42860  25.777   5.106   8.530  0.1594  0.0833 -0.1049
    1W        W42861  13.050  24.654   3.203  0.0162  0.1149 -0.0134
    1W        W42862  19.696  26.682   8.058 -0.0776  0.1478  0.0903
    1W        W42863   6.120   0.233   1.590 -0.1587  0.3827  0.1644
    1W        W42864   2.764  10.173   7.287 -0.3451  0.1152 -0.3256
    1W        W42865  21.334   9.631   2.445 -0.2157  0.0008  0.1092
    1W        W42866  13.279  25.851   2.480 -0.4295 -0.0756  0.2315
    1W        W42867   2.367   9.588   7.902  0.0046  0.1064 -0.3287
    1W        W42868   1.894  19.157   7.655  0.0916 -0.0786 -0.1580
    1W        W42869   7.077  21.027   2.188 -0.3172 -0.1788 -0.0754
    1W        W42870  26.785  12.872   3.024 -0.0615 -0.0503 -0.1437
    1W        W42871  18.692  19.702   1.340 -0.3793 -0.0940  0.1016
    1W        W42872   1.030  21.126   8.279  0.1737 -0.0822  0.0383
    1W        W42873  28.279  10.773   8.253 -0.0555  0.1017  0.4046
    1W        W42874  21.460  17.947   0.439 -0.3541  0.1046 -0.1661
    1W        W42875  26.918  11.603   9.626 -0.0881  0.1488 -0.1138
    1W        W42876  12.544  27.164   3.132 -0.2046  0.1605 -0.0829
    1W        W42877   8.891  23.340   0.249  0.2808 -0.1138  0.0671
    1W        W42878   0.626  20.682   2.904  0.1514 -0.2658  0.1286
    1W        W42879  18.092   4.930   7.699  0.1589 -0.1985 -0.3042
    1W        W42880  17.644   6.149   6.231 -0.0309 -0.0460  0.4176
    1W        W42881  15.472   6.851   7.307 -0.0363  0.1463  0.1893
    1W        W42882   3.760   5.289   9.946  0.2021  0.4104  0.1687
    1W        W42883  26.370   5.160   9.921 -0.1907 -0.0178 -0.2931
    1W        W42884   4.865  18.804   1.888  0.0393 -0.0296  0.2668
    1W        W42885  13.502   5.343   9.909 -0.0059  0.1278  0.1624
    1W        W42886  24.538  23.302   8.101 -0.2546 -0.2915  0.1312
    1W        W42887  22.452  27.616   1.938  0.2385 -0.0791 -0.0130
    1W        W42888   4.013   6.519   7.770  0.0893  0.2009 -0.2118
    1W        W42889   8.357   2.812   1.369  0.0313  0.0512 -0.1097
    1W        W42890  26.727  17.346   8.268  0.2270 -0.0683  0.1445
    1W        W42891  10.603  26.404   0.822  0.0370 -0.1125  0.1057
    1W        W42892  10.628  10.443   1.681  0.0148  0.1532  0.0506
    1W        W42893  27.611  12.724   0.861 -0.1194 -0.1080 -0.2485
    1W        W42894  21.524  11.663   7.785 -0.0428  0.2831  0.0293
    1W        W42895   8.101  19.932   0.927 -0.2020 -0.3927  0.0761
    1W        W42896  27.867  11.080   7.209  0.0269  0.0247 -0.0595
    1W        W42897   7.586  27.347   0.558 -0.0034 -0.0666  0.0531
    1W        W42898  22.608  27.822   7.038 -0.2187 -0.1434  0.3288
    1W        W42899   4.535  20.541   2.375 -0.1394  0.1991 -0.1095
    1W        W42900  14.344   6.082   1.830 -0.1123 -0.2377 -0.0448
    1W        W42901  13.866  18.586   8.250  0.0467 -0.2460  0.2408
    1W        W42902  21.733  27.431   7.938 -0.3182 -0.0199 -0.1302
    1W        W42903  14.527  22.185   2.573 -0.0127  0.2458  0.0536
    1W        W42904   6.508  27.270   1.837 -0.0081  0.0612  0.3936
    1W        W42905  23.357   4.479   8.588  0.4633 -0.0505  0.4203
    1W        W42906  17.563   0.775   0.874 -0.0973  0.1737 -0.0338
    1W        W42907  13.768   9.177   6.253 -0.1995 -0.1496  0.1950
    1W        W42908   6.222  19.833   0.340  0.1991 -0.3779 -0.0180
    1W        W42909  20.993  13.481   1.819 -0.1608  0.1601  0.1858
    1W        W42910  14.600  24.984   0.975  0.2009 -0.1030 -0.1900
    1W        W42911  17.089  18.724   7.690 -0.3305  0.0630 -0.2047
    1W        W42912  26.072  27.109   2.921  0.1848  0.4849  0.2298
    1W        W42913  19.300  18.416   0.200  0.1116  0.0449  0.0032
    1W        W42914   8.483  14.351   9.059  0.2830  0.1969 -0.0489
    1W        W42915   2.271  18.909   9.718 -0.0531  0.4153 -0.0404
    1W        W42916  14.909  12.226   8.600 -0.2170  0.0044 -0.4253
    1W        W42917   3.268  23.207   1.138  0.0231 -0.1791  0.1712
    1W        W42918  12.633  23.213   1.276 -0.1795  0.1841 -0.1732
    1W        W42919   4.415   7.302   9.664  0.2547 -0.0787 -0.1743
    1W        W42920  10.102  17.969   8.229 -0.0738 -0.3370 -0.2956
    1W        W42921  20.190  18.243   0.983  0.1145 -0.0057 -0.2346
    1W        W42922  13.516  21.036   2.290  0.0192 -0.0673 -0.1893
    1W        W42923  10.533  17.761   1.014  0.2133  0.0166  0.0787
    1W        W42924  16.961  18.326   1.290 -0.1705  0.0697 -0.0563
    1W        W42925   4.321  15.334   7.377 -0.1188  0.0965 -0.0054
    1W        W42926  11.720   8.318   6.626 -0.2249 -0.2389 -0.1028
    1W        W42927  28.650  25.549   0.638  0.1347 -0.2333  0.0896
    1W        W42928   2.379  11.527   3.012 -0.2494 -0.0453 -0.1157
    1W        W42929  18.178  20.462   8.575  0.2263 -0.1953  0.2300
    1W        W42930  11.202   2.162   0.036 -0.3209 -0.0234 -0.1860
    1W        W42931  28.593   9.273   9.948  0.1722 -0.0131  0.2722
    1W        W42932  23.018  26.367   1.867  0.0746 -0.1118 -0.2167
    1W        W42933  17.821   0.241   1.788 -0.1000 -0.2181  0.2472
    1W        W42934   5.703  13.617   7.470 -0.1211 -0.1967 -0.0251
    1W        W42935  26.872  16.723   9.505 -0.3807  0.0044 -0.1790
    1W        W42936   8.308  19.683   7.611 -0.0597  0.2084  0.3348
    1W        W42937   0.016  11.340   0.533  0.0199  0.0998  0.1260
    1W        W42938  19.043  24.031   2.612  0.2616 -0.1220 -0.1243
    1W        W42939  18.229  18.239   0.551  0.2035 -0.2574 -0.4256
    1W        W42940   3.670   9.707   1.643 -0.0826 -0.2786 -0.1942
    1W        W42941  25.487  11.919   6.923  0.1396  0.0557  0.0913
    1W        W42942  10.090   5.537   7.630  0.1104 -0.2578 -0.3290
    1W        W42943  18.382   5.568   5.918 -0.0594 -0.0651 -0.0385
    1W        W42944  19.564  11.614   7.783 -0.1059  0.3461  0.0597
    1W        W42945   6.247  11.809   6.554  0.1361  0.0651  0.0076
    1W        W42946   1.838   3.800   3.212 -0.1277 -0.0414 -0.1656
    1W        W42947  25.360  14.961   2.687  0.0746  0.0997  0.2789
    1W        W42948   6.762  15.299   2.423  0.1768  0.1741  0.0795
    1W        W42949  17.948  23.579   6.620  0.2729 -0.1538  0.0948
    1W        W42950   1.055  21.627   8.436 -0.0087  0.3917  0.0673
    1W        W42951   0.471  13.348   0.526  0.2279  0.2046  0.0334
    1W        W42952  24.024  18.408   8.875 -0.1071 -0.0372  0.0009
    1W        W42953  10.392   1.131   2.494 -0.0646 -0.3537 -0.2672
    1W        W42954   3.709   0.440   3.373  0.1650  0.0639  0.3021
    1W        W42955  21.101   6.066   8.814 -0.0417  0.0484  0.0861
    1W        W42956  10.492   7.214   7.543 -0.0489  0.3558  0.0483
    1W        W42957  19.457  21.872   1.138 -0.1304  0.0969  0.0971
    1W        W42958   7.701   8.381   8.039  0.3076 -0.0966 -0.2396
    1W        W42959  13.513   7.120   9.561 -0.0037 -0.0468  0.0916
    1W        W42960   7.473   7.297   6.669  0.0548  0.2445  0.1221
    1W        W42961   2.785  23.767   8.970 -0.0162  0.3113  0.2681
    1W        W42962  10.573   7.299   8.049  0.2248 -0.1449 -0.1839
    1W        W42963   9.024   8.612   7.963  0.0178  0.4085 -0.4686
    1W        W42964   3.260   5.172   8.129  0.0974 -0.1410  0.1004
    1W        W42965  22.304   8.378   8.984  0.1588 -0.2233 -0.1535
    1W        W42966   7.370   5.715   0.594 -0.0852  0.3008 -0.1372
    1W        W42967  12.358  20.532   7.709 -0.1834 -0.2676 -0.0632
    1W        W42968  12.713   4.022   0.588 -0.0018  0.0733 -0.3482
    1W        W42969   2.761   6.466   0.898  0.1106 -0.2610  0.0516
    1W        W42970  26.352  19.013   8.940 -0.2592 -0.1193 -0.3052
    1W        W42971  18.242  27.048   8.086  0.0348  0.0783 -0.2258
    1W        W42972   5.316   4.495   1.645  0.0863 -0.0045 -0.0307
    1W        W42973   5.108   3.609   2.697 -0.0761  0.1813 -0.3996
    1W        W42974  11.121  22.394   6.574  0.0554  0.0683 -0.2388
    1W        W42975   7.631   4.142   7.999 -0.0654 -0.1595  0.1412
    1W        W42976  11.411  10.531   1.674  0.1617 -0.4396  0.2399
    1W        W42977  21.129   8.859   9.336  0.1339  0.2347  0.0845
    1W        W42978  16.918  14.584   6.894  0.0525  0.1736 -0.1953
    1W        W42979  28.683   1.273   9.459 -0.0366  0.1061 -0.0055
    1W        W42980  23.395  18.658   9.564  0.1446  0.1029  0.0728
    1W        W42981  18.041   6.327   5.738 -0.1607  0.0027 -0.2736
    1W        W42982   6.144  22.480   8.656  0.0046  0.0679 -0.0871
    1W        W42983  27.311  20.973   8.962 -0.2287  0.0829  0.3418
    1W        W42984   0.967   8.897   2.163  0.1682  0.0580 -0.0527
    1W        W42985  14.436  23.639   7.588 -0.1382  0.1335  0.0918
    1W        W42986  17.744   2.075   8.183 -0.1315  0.0199  0.3714
    1W        W42987   6.380  27.111   0.323 -0.2926  0.0666 -0.2495
    1W        W42988   1.331  19.530   7.419  0.1092  0.0074  0.2113
    1W        W42989  24.091  16.475   3.346 -0.1033  0.0081 -0.0115
    1W        W42990  25.107  15.218   9.892 -0.1039  0.2097 -0.1581
    1W        W42991  13.942  22.235   1.645  0.0337  0.0455  0.1914
    1W        W42992   2.474   3.810   9.305 -0.1340 -0.0195 -0.0708
    1W        W42993  14.307  27.903   9.858 -0.0677 -0.2293 -0.0633
    1W        W42994   4.849   3.059   8.961 -0.2466  0.0493 -0.1660
    1W        W42995   0.500  27.000   7.526  0.1524 -0.0956  0.0695
    1W        W42996   0.535  21.150   0.627  0.2321  0.2693 -0.0275
    1W        W42997   8.911  15.400   7.240  0.0606  0.3944  0.1927
    1W        W42998  21.459  26.661   1.367 -0.1377  0.1184 -0.0895
    1W        W42999  25.911   1.513   8.741 -0.1202  0.3535  0.1672
    1W        W43000  27.611  18.568   0.850 -0.0687 -0.0364 -0.2073
    1W        W43001  11.924  15.632   1.519  0.1463 -0.2204 -0.1354
    1W        W43002   8.576  17.368   1.270  0.2803  0.2701  0.2236
    1W        W43003  23.684  22.916   2.489 -0.4333 -0.0162  0.0898
    1W        W43004  20.076   6.020   2.314 -0.0968 -0.1801 -0.1080
    1W        W43005  13.982   1.254   7.319 -0.2066  0.0607  0.0778
    1W        W43006   3.241  20.130   1.786  0.1330 -0.0612  0.0507
    1W        W43007   8.017  26.556   8.942 -0.1027  0.2228 -0.2080
    1W        W43008  10.673   4.100   0.494  0.2829 -0.2693 -0.1200
    1W        W43009  10.078  28.698   2.498  0.2897 -0.1063 -0.3344
    1W        W43010   9.084   3.378   1.978 -0.1406 -0.2546  0.3134
    1W        W43011   1.942  26.465   2.555 -0.2017 -0.3260  0.0011
    1W        W43012   3.648   8.327   7.305  0.0218  0.0370  0.1516
    1W        W43013  28.570   0.594   2.720  0.2029  0.0484 -0.0957
    1W        W43014  13.468  27.504   0.710  0.1401 -0.0031 -0.0022
    1W        W43015   2.247  10.152   9.861 -0.0209  0.0916 -0.3048
    1W        W43016  16.350   7.277   8.152  0.0698  0.1801  0.0383
    1W        W43017   4.219   3.889   8.697 -0.0398 -0.2776  0.3490
    1W        W43018   8.206  16.186   6.599 -0.3050  0.0164  0.1291
    1W        W43019  14.307  22.328   7.520 -0.2641 -0.2648 -0.0246
    1W        W43020  24.735  12.581   2.158  0.0887 -0.1261  0.1319
    1W        W43021   7.342  11.573   9.665  0.0502 -0.2878 -0.3349
    1W        W43022  12.126  25.670   2.361 -0.1329  0.2281 -0.0415
    1W        W43023  23.685  11.601   1.823 -0.1916 -0.3460  0.0430
    1W        W43024  23.743  15.220   0.664 -0.4167  0.2360 -0.0186
    1W        W43025  19.796  16.524   7.996 -0.3108  0.0200  0.0535
    1W        W43026  17.048   2.655   0.072  0.0622  0.0516 -0.1739
    1W        W43027  17.795  15.614   1.927 -0.2388 -0.0698  0.0977
    1W        W43028   4.524   9.467   1.406  0.0449 -0.2306 -0.1216
    1W        W43029  19.430  25.273   2.130  0.0245  0.1157 -0.1495
    1W        W43030  25.124  16.263   7.945 -0.2643  0.0429  0.1419
    1W        W43031   9.206  14.043   0.953  0.0599 -0.3195 -0.0989
    1W        W43032   5.877  24.285   1.057  0.0600 -0.0636 -0.2084
    1W        W43033  28.619   9.082   3.053  0.2208  0.0923 -0.2287
    1W        W43034   5.465  22.685   0.093 -0.1346 -0.2032 -0.1194
    1W        W43035  26.620  19.146   1.568 -0.0255 -0.0619  0.0954
    1W        W43036  25.000  14.662   2.985  0.0229 -0.0539 -0.1482
    1W        W43037  12.384  14.678   2.459  0.0150  0.0045 -0.1275
    1W        W43038  15.569  28.271   9.898 -0.0010  0.1941 -0.1873
    1W        W43039   2.300  22.252   2.472 -0.1329 -0.1336  0.1580
    1W        W43040  28.358   8.542   1.192  0.0881  0.3288  0.0498
    1W        W43041  21.599  26.878   7.966 -0.0799 -0.0460 -0.2128
    1W        W43042   4.291   9.008   8.556 -0.0665  0.1172  0.1814
    1W        W43043  20.767  26.185   6.965  0.2158  0.2809  0.2518
    1W        W43044  16.481  12.971   5.943 -0.0790 -0.0763  0.0776
    1W        W43045   1.516  17.020   1.772  0.1240  0.0060 -0.1629
    1W        W43046  10.389   8.492   0.226  0.2993  0.4968 -0.1349
    1W        W43047  20.511  18.964   1.870 -0.2088 -0.2456  0.0231
    1W        W43048  17.523  26.810   9.316 -0.2646 -0.0055 -0.1393
    1W        W43049  19.184  22.219   9.466  0.0975  0.1577 -0.1770
    1W        W43050   4.971  10.926   1.899 -0.1164  0.3453  0.2068
    1W        W43051  23.832  24.296   8.463 -0.0641  0.0581 -0.0988
    1W        W43052   0.343  19.383   2.655 -0.1144 -0.1269 -0.1151
    1W        W43053  23.847  19.843   9.351  0.2751  0.2095  0.0925
    1W        W43054  26.213  19.694   9.457 -0.1863 -0.1722 -0.1267
    1W        W43055  25.161   1.302   3.203  0.2567  0.2483 -0.0462
    1W        W43056  12.809  20.838   1.051  0.1810  0.1496  0.1245
    1W        W43057  17.512  15.479   0.998 -0.0185 -0.2764  0.2900
    1W        W43058  12.827  12.416   8.963  0.2021 -0.0593  0.0575
    1W        W43059  26.809  12.001   3.899  0.0103 -0.1878  0.1399
    1W        W43060  23.070  21.743   9.377  0.1402 -0.0037 -0.0159
    1W        W43061  18.214  17.016   2.001 -0.3064  0.0056  0.1672
    1W        W43062   8.348   3.142   0.728  0.0338 -0.2148 -0.0876
    1W        W43063  13.365   4.486   7.338 -0.0020 -0.2156 -0.0951
    1W        W43064  13.666  24.961   2.754  0.0133  0.1048 -0.2330
    1W        W43065  24.420  26.628   9.325 -0.0875  0.2570 -0.0044
    1W        W43066  20.143  18.446   9.667 -0.0828  0.0222 -0.1656
    1W        W43067  13.762  22.227   7.023  0.4044  0.0001 -0.0895
    1W        W43068  25.436  19.201   2.168  0.1085  0.3396  0.2520
    1W        W43069   1.777  10.375   1.970 -0.1426  0.1137  0.2564
    1W        W43070  14.336   2.648   0.615  0.1335 -0.2351  0.0302
    1W        W43071  28.607  26.338   9.520  0.1525  0.0234  0.0881
    1W        W43072  15.107  19.358   1.304  0.1191 -0.1995 -0.0352
    1W        W43073  16.304   4.364   9.383 -0.1012  0.1901  0.0409
    1W        W43074  25.440  14.273   9.977 -0.0058  0.1229  0.0920
    1W        W43075  20.872  26.973   7.473  0.1457 -0.3275 -0.1060
    1W        W43076  28.069  20.394   8.338 -0.0278 -0.0952 -0.0029
    1W        W43077  18.164  18.781   8.894  0.0537  0.3515 -0.2341
    1W        W43078  17.742  16.551   6.189  0.1851 -0.3625 -0.1418
    1W        W43079   2.052  18.253   7.857 -0.1913  0.1106 -0.0847
    1W        W43080  21.933  23.197   2.345 -0.0547  0.1267 -0.1375
    1W        W43081  17.570  25.440   0.737 -0.1272 -0.0695  0.0872
    1W        W43082  27.849  24.506   7.942 -0.1191  0.1787 -0.2156
    1W        W43083   4.735  23.718   2.719  0.3437 -0.2001 -0.0004
    1W        W43084   1.065   3.353   3.841 -0.0596 -0.1855  0.3961
    1W        W43085  15.987  17.807   9.790 -0.1460  0.0048 -0.0745
    1W        W43086  23.905  14.729   0.637 -0.0771  0.0022 -0.1566
    1W        W43087  16.987  17.017   3.323  0.0599  0.0661  0.1286
    1W        W43088  13.728  20.341   9.153  0.0062 -0.1052 -0.0729
    1W        W43089  16.790   8.572   0.261 -0.1738 -0.0415 -0.3600
    1W        W43090  22.988   7.100   9.289 -0.1891 -0.2867 -0.1086
    1W        W43091   6.010  28.029   8.143  0.1286  0.0279 -0.1685
    1W        W43092  13.321   6.267   7.938  0.0426 -0.1773 -0.0487
    1W        W43093   7.071  18.136   0.400 -0.2428 -0.1823  0.0037
    1W        W43094  14.301  27.314   9.521  0.0668 -0.1437 -0.0504
    1W        W43095  22.339  13.078   7.949  0.1660 -0.2368  0.0345
    1W        W43096  12.559  18.418   9.831 -0.1188  0.0497 -0.0463
    1W        W43097  22.302  21.202   2.781  0.2517  0.1512 -0.0720
    1W        W43098   6.929   3.057   3.729 -0.2206  0.2372  0.0208
    1W        W43099  13.960   1.874   1.010 -0.1774 -0.2463 -0.0881
    1W        W43100   2.597  14.509   2.101  0.3103  0.0650 -0.0271
    1W        W43101  18.781  10.855   1.687 -0.2011 -0.1407  0.1497
    1W        W43102   6.520  28.154   7.702  0.3645 -0.1060  0.0488
    1W        W43103  11.303  15.630   6.356 -0.2231  0.0485  0.0643
    1W        W43104  11.510   6.976   0.632  0.2140 -0.0689  0.0533
    1W        W43105  10.146  17.179   6.813  0.1681  0.0270  0.0679
    1W        W43106  26.678  25.701   2.375  0.0234  0.0616 -0.1519
    1W        W43107   6.557   4.305   9.128 -0.1852  0.2024 -0.0686
    1W        W43108  12.672   0.579   1.226  0.6345 -0.0513 -0.0085
    1W        W43109   9.181  15.650   9.238 -0.0226 -0.2649  0.3388
    1W        W43110  26.314  15.168   1.121  0.0575 -0.1356 -0.1094
    1W        W43111  28.530  26.416   8.799 -0.1062  0.1008  0.0809
    1W        W43112  25.359   2.750   7.932  0.2872  0.1782 -0.0036
    1W        W43113  25.893   9.211   0.593  0.0746 -0.2353  0.2031
    1W        W43114  26.366   9.594   2.995  0.1504 -0.2820  0.1155
    1W        W43115  19.565  17.731   1.280 -0.0678  0.0765 -0.1259
    1W        W43116   6.045   7.149   1.672 -0.1201  0.0641 -0.0909
    1W        W43117   7.223  22.795   0.524  0.1123 -0.2752  0.2378
    1W        W43118  20.877  13.623   9.900  0.1244  0.1851 -0.2660
    1W        W43119  19.397  13.154   7.078 -0.1986 -0.0399 -0.2177
    1W        W43120   6.157  24.858   7.270 -0.2319 -0.3407  0.1181
    1W        W43121  17.724   6.595   6.882  0.0874 -0.0224 -0.0586
    1W        W43122  15.634   8.510   8.919 -0.0511  0.3696 -0.1053
    1W        W43123  18.571  11.567   0.490  0.3399 -0.1722  0.2396
    1W        W43124   9.777  17.179   9.079 -0.1411  0.3208  0.0505
    1W        W43125  22.773   8.113   1.069 -0.1501 -0.1213 -0.0477
    1W        W43126  12.356  14.391   0.539 -0.2308 -0.2149 -0.1131
    1W        W43127  23.034   5.936   1.566  0.2709  0.0083  0.1737
    1W        W43128   8.911   6.586   0.935 -0.1398  0.1699 -0.1237
    1W        W43129  16.680  26.229   1.771  0.4131 -0.0582 -0.3230
    1W        W43130  25.544   9.382   2.566  0.0117 -0.3230  0.0901
    1W        W43131  28.077  14.449   1.152 -0.0200  0.2039 -0.4520
    1W        W43132  23.777   0.215   8.256  0.0884  0.1544 -0.2116
    1W        W43133  23.848  18.882   6.950  0.3896 -0.4153  0.0318
    1W        W43134   6.850   9.520   9.152  0.2665 -0.1561  0.0011
    1W        W43135   1.703  11.724   9.910  0.0660  0.0888  0.1395
    1W        W43136  21.041  12.628   5.927 -0.3570  0.0258  0.1888
    1W        W43137  26.403   2.166   3.248  0.1329  0.3274  0.0617
    1W        W43138   5.764   3.318   2.416 -0.2729  0.0027  0.0207
    1W        W43139  16.529  15.905   7.263 -0.0866 -0.0127  0.0453
    1W        W43140  19.499   6.172   0.618 -0.1324  0.0385  0.0833
    1W        W43141  17.165  12.216   0.663  0.3391  0.1997  0.2091
    1W        W43142  13.265  17.031   1.316 -0.0661  0.1631 -0.0522
    1W        W43143  22.461  16.327   6.984 -0.2343 -0.2308 -0.1287
    1W        W43144  26.871  17.385   0.918  0.0896  0.1658  0.1021
    1W        W43145   9.775  22.163   0.188  0.1094 -0.4464  0.1899
    1W        W43146  11.412  24.413   9.086 -0.1654 -0.1753 -0.0917
    1W        W43147  22.076   8.871   0.297 -0.0457 -0.1555 -0.1190
    1W        W43148   9.523  26.833   7.582 -0.0543  0.1506 -0.0693
    1W        W43149  17.787  25.018   0.566  0.1267 -0.2489 -0.2455
    1W        W43150  27.763   6.505   0.050 -0.0779  0.0834  0.1181
    1W        W43151  19.515  16.865   9.201  0.1236 -0.1910  0.0749
    1W        W43152  10.386  19.526   1.776 -0.0528 -0.0168  0.1759
    1W        W43153  26.075  21.512   0.276 -0.0170  0.1290 -0.2563
    1W        W43154  18.753  13.285   2.360 -0.1103  0.0418  0.3157
    1W        W43155  28.156   8.450   1.697 -0.2094  0.0118 -0.1569
    1W        W43156  21.565   4.767   8.382 -0.6093 -0.1397 -0.0430
    1W        W43157   5.409  10.493   2.436  0.0986  0.0212 -0.0919
    1W        W43158   3.050   7.040   9.723 -0.0758 -0.4382 -0.0633
    1W        W43159   3.892   3.102   0.705 -0.3262  0.0819 -0.0571
    1W        W43160  26.864  17.259   7.746  0.1744  0.0729  0.0240
    1W        W43161   7.127  28.273   1.955 -0.2123 -0.1008 -0.1732
    1W        W43162  20.750   3.921   7.212 -0.3134  0.2669 -0.1948
    1W        W43163   0.351  10.105   1.746 -0.4019  0.1588  0.2745
    1W        W43164   6.943  11.393   8.753 -0.0043 -0.1750  0.2849
    1W        W43165   8.275  15.493   7.317 -0.0492 -0.0901  0.3488
    1W        W43166  19.827   0.801   1.258 -0.1761  0.0873  0.1567
    1W        W43167  11.495  16.882   7.701  0.0000 -0.0588  0.0134
    1W        W43168   6.405  22.318   9.988 -0.1546  0.0677 -0.1339
    1W        W43169   1.238  18.397   8.654 -0.1181 -0.0489  0.0436
    1W        W43170   9.566  26.785   0.410 -0.1307 -0.0324  0.0940
    1W        W43171  27.759  10.711   9.028 -0.3031 -0.0980 -0.1766
    1W        W43172   2.382   7.101   8.003 -0.0763  0.0453 -0.0512
    1W        W43173  11.333  20.152   6.894  0.1285  0.1164  0.3031
    1W        W43174  21.586  27.896   7.694 -0.2101 -0.2136  0.0847
    1W        W43175   4.338  13.972   1.880 -0.0644 -0.1819 -0.1741
    1W        W43176   9.186  18.432   0.604  0.1704 -0.2689 -0.0257
    1W        W43177  25.088  21.463   1.025  0.1847  0.2315 -0.2415
    1W        W43178  26.743   1.692   2.499 -0.2480 -0.0878  0.0472
    1W        W43179   6.206   7.719   0.383 -0.1004 -0.0333  0.0153
    1W        W43180  14.381   0.083   2.620  0.3189 -0.2157  0.1961
    1W        W43181   7.738  13.615   9.935  0.0136  0.1244  0.2299
    1W        W43182   1.819   5.236   2.102  0.0362  0.0330 -0.3425
    1W        W43183  15.860   4.115   1.517 -0.1287 -0.1657 -0.0072
    1W        W43184  28.709   2.991   1.567  0.2292 -0.1252  0.2511
    1W        W43185  17.641   4.378   8.900  0.1435  0.1989 -0.1204
    1W        W43186  28.049  14.746   2.372  0.3096  0.0518  0.2070
    1W        W43187   8.820  14.095   9.409  0.1846  0.2726 -0.0186
    1W        W43188   9.217  12.159   9.569  0.0399 -0.0145  0.2918
    1W        W43189  27.696  22.084   2.996  0.1297  0.2350  0.4404
    1W        W43190  26.493  27.688   8.891 -0.2815  0.0443 -0.1695
    1W        W43191  19.597   0.237   0.519  0.1474  0.2340 -0.1254
    1W        W43192   2.048  11.847   9.569 -0.0388  0.2557  0.0531
    1W        W43193  22.507  19.716   9.119  0.1878  0.0704 -0.1274
    1W        W43194  26.655  19.315   7.265  0.4088  0.2119 -0.0677
    1W        W43195   1.237   4.357   1.031  0.0303  0.1355 -0.0433
    1W        W43196   2.472  20.321   2.570  0.0327 -0.0215 -0.0817
    1W        W43197  20.935   5.807   9.220  0.1725 -0.2362 -0.0022
    1W        W43198  12.549  24.362   9.835 -0.3263  0.0808 -0.0207
    1W        W43199  21.126  19.305   2.888 -0.1057  0.0320 -0.2501
    1W        W43200  15.465  27.335   2.892  0.2292  0.1573 -0.1174
    1W        W43201   2.137   4.570   7.573 -0.2606 -0.0940  0.0254
    1W        W43202   6.758  23.737   0.601  0.1933 -0.3770  0.0681
    1W        W43203   5.822   4.550   9.711  0.4980  0.0614 -0.0261
    1W        W43204  24.974  18.411   0.304  0.1900  0.2804  0.1226
    1W        W43205  22.955  22.605   0.817  0.1629 -0.1714  0.2792
    1W        W43206   7.915   8.110   0.517  0.2744  0.0346 -0.3132
    1W        W43207   2.336  20.310   1.286 -0.1866 -0.4364  0.1681
    1W        W43208  17.831  22.482   7.720  0.0590 -0.3015  0.0286
    1W        W43209   7.503  13.944   1.577 -0.3796 -0.4185  0.1083
    1W        W43210  26.737  20.683   9.865 -0.1709  0.1118  0.1778
    1W        W43211   9.263  23.036   2.465 -0.1485 -0.3260 -0.1005
    1W        W43212  22.989   3.443   0.756  0.2912 -0.2856 -0.1144
    1W        W43213  18.395   5.950   7.171  0.0082  0.0227 -0.1366
    1W        W43214  13.367  21.561   1.831  0.0553 -0.0008  0.0229
    1W        W43215  26.120  11.664   1.598 -0.3351  0.0872  0.2499
    1W        W43216  22.409   2.805   3.093  0.2338 -0.1258  0.0080
    1W        W43217   7.185   7.624   1.887  0.4851  0.0129 -0.4085
    1W        W43218  14.135  18.620   7.334  0.3918  0.2939 -0.1450
    1W        W43219   5.492  17.734   7.898  0.2099  0.1612  0.0068
    1W        W43220  13.765  14.003   8.365 -0.3630 -0.1347 -0.0148
    1W        W43221  11.388  15.773   9.103 -0.0251  0.0030  0.0081
    1W        W43222  12.574  24.126   7.708 -0.2005  0.3358  0.0103
    1W        W43223   3.405  17.514   7.586 -0.3051 -0.1176 -0.2051
    1W        W43224  15.911  27.713   1.692  0.2167  0.2027 -0.2928
    1W        W43225   4.286  16.998   1.072  0.1643  0.0525 -0.1980
    1W        W43226  21.515  22.282   7.204 -0.0579  0.3373 -0.1711
    1W        W43227  18.940  23.223   1.688 -0.0234 -0.0885 -0.3199
    1W        W43228   3.108   9.075   3.081 -0.0277 -0.0898  0.0786
    1W        W43229   3.463  22.579   1.397 -0.2186 -0.2823 -0.3768
    1W        W43230  21.112  22.533   2.912 -0.0793  0.0543 -0.0150
    1W        W43231  24.237   7.962   7.272 -0.1023 -0.0530  0.1243
    1W        W43232  25.759   7.338   1.877  0.3176 -0.0621  0.1215
    1W        W43233   5.083  18.330   0.007 -0.2935  0.1761 -0.0251
    1W        W43234  26.809   1.897   0.558 -0.1503  0.0610 -0.0793
    1W        W43235  21.158  12.982   6.770  0.2796 -0.0222  0.1036
    1W        W43236  12.995  20.308   7.832 -0.0085  0.0103 -0.0933
    1W        W43237   4.006  19.194   3.349  0.0425 -0.1353 -0.0927
    1W        W43238  25.135   4.429   2.494  0.1428 -0.0063  0.0912
    1W        W43239  13.910  28.720   0.324  0.1339 -0.1557 -0.1695
    1W        W43240   7.502  28.546   3.235  0.0514 -0.0796 -0.0705
    1W        W43241  28.374   0.698   0.187 -0.0833  0.0582  0.1553
    1W        W43242  16.500  20.959   0.643 -0.1152 -0.1627 -0.1894
    1W        W43243  24.212  13.149   2.705 -0.1307 -0.2937  0.1522
    1W        W43244   7.379  18.431   1.920 -0.2990 -0.0978 -0.4602
    1W        W43245  14.485  26.552   7.723 -0.0556  0.0142 -0.2785
    1W        W43246   6.149  20.709   0.411 -0.0459 -0.0748  0.0160
    1W        W43247   1.449   0.584   8.501  0.4397  0.2091  0.2045
    1W        W43248   8.142  13.755   8.364  0.0649 -0.0607 -0.1784
    1W        W43249   5.952  20.443   8.761  0.3140  0.2474 -0.0293
    1W        W43250  28.109  28.812   3.362 -0.0609 -0.0473 -0.1079
    1W        W43251   9.211  23.684   3.234  0.4195 -0.2735  0.1367
    1W        W43252  26.048   8.201   3.116 -0.1671  0.3211 -0.4689
    1W        W43253  20.955  13.645   0.734 -0.0796  0.0587  0.1078
    1W        W43254  11.516  27.239   9.231  0.0958  0.1243 -0.2266
    1W        W43255   7.551  21.117   8.052 -0.3989 -0.3303  0.2055
    1W        W43256  16.766  18.633   0.787  0.1263  0.2341  0.0709
    1W        W43257  21.803  13.687   7.837 -0.1556  0.1140  0.0795
    1W        W43258   9.622  10.022   8.119 -0.2558  0.5451  0.0042
    1W        W43259  13.617   5.069   7.316  0.3693  0.1626  0.4209
    1W        W43260  19.534  16.714   8.718  0.0516 -0.0577 -0.1186
    1W        W43261  17.069  23.047   0.412  0.1425  0.0869  0.0386
    1W        W43262  28.546   4.800   2.823 -0.0607 -0.1245  0.2450
    1W        W43263  24.941   1.988   0.968 -0.1357 -0.0926 -0.0373
    1W        W43264  11.668  20.659   0.989 -0.1503  0.1000  0.3141
    1W        W43265  27.993   6.091   3.891 -0.1505 -0.0621 -0.1468
    1W        W43266   3.050   3.897   9.029 -0.2828  0.2008  0.3466
    1W        W43267  20.100  21.755   8.061  0.2614  0.3964  0.0728
    1W        W43268  13.677   1.233   0.395  0.2549 -0.1420 -0.0038
    1W        W43269  24.716  13.703   9.267 -0.1696  0.1660  0.0847
    1W        W43270   8.931  11.180   6.884  0.1338 -0.2510  0.1270
    1W        W43271  18.099  12.056   1.486 -0.2181 -0.3643 -0.2642
    1W        W43272  11.741   0.686   8.904 -0.2002  0.1824  0.2930
    1W        W43273   7.155   3.025   9.854  0.3494  0.0283  0.1060
    1W        W43274  27.254  14.274   2.703 -0.2210  0.0653 -0.1169
    1W        W43275  22.264   6.531   8.203 -0.3531 -0.1518 -0.0844
    1W        W43276  26.285   1.162   2.012 -0.1419 -0.0260  0.1092
    1W        W43277  18.595   3.132   0.702 -0.2136  0.0998  0.0795
    1W        W43278   8.997  22.037   7.331  0.2893 -0.2007  0.1057
    1W        W43279   8.309  12.719   1.452 -0.2460  0.0250  0.1057
    1W        W43280  25.297  23.017   8.428  0.1860 -0.5207  0.1790
    1W        W43281  21.106   8.757   1.225  0.0341 -0.1023  0.1182
    1W        W43282  15.013  13.184   0.541  0.0580 -0.1111 -0.0443
    1W        W43283  13.572   3.672   2.038 -0.0142 -0.1974  0.3483
    1W        W43284  16.387  17.539   9.611  0.0252  0.1368  0.0876
    1W        W43285  25.252   0.910   2.839  0.0259 -0.0694  0.3008
    1W        W43286  14.922  22.515   2.665  0.1265 -0.2946 -0.0859
    1W        W43287  15.279  20.248   1.135  0.0485  0.3608 -0.1065
    1W        W43288  21.355  16.463   8.265  0.1080 -0.2123  0.0094
    1W        W43289   9.524  24.789   7.878  0.0478 -0.1047  0.0484
    1W        W43290   9.715  10.616   7.444 -0.2507  0.1110 -0.0878
    1W        W43291   6.743  28.534   3.872  0.0170 -0.2552 -0.0826
    1W        W43292  28.865  26.127   3.451  0.0520  0.2587  0.0489
    1W        W43293   2.959  25.538   9.518  0.0732 -0.0149 -0.0416
    1W        W43294  14.240   4.387   9.207  0.3524  0.2267  0.0492
    1W        W43295  11.242  21.797   7.621 -0.0528  0.1788 -0.1916
    1W        W43296   1.175  25.500   2.054  0.1210 -0.0659 -0.0467
    1W        W43297  12.629  14.983   8.705  0.3462  0.2317  0.2896
    1W        W43298  26.044  27.495   1.319  0.1359  0.1915 -0.1364
    1W        W43299  26.406  25.455   8.207 -0.0333 -0.0558 -0.1243
    1W        W43300   9.377  15.158   7.472  0.0467  0.4122  0.1409
    1W        W43301  16.086  27.298   7.793 -0.0412  0.0391 -0.0256
    1W        W43302  23.864   1.686   1.034 -0.0366 -0.2903  0.1254
    1W        W43303  20.049  13.952   2.527  0.4067 -0.0563 -0.0483
    1W        W43304  28.529  22.761   2.005 -0.2496  0.1615  0.1692
    1W        W43305  16.600   4.717   9.564  0.1318 -0.0989  0.1254
    1W        W43306  20.528  11.142   8.727  0.3383  0.2595 -0.2089
    1W        W43307  22.535  10.760   1.116  0.0944 -0.2388  0.2942
    1W        W43308  24.354   1.035   8.264  0.1216 -0.0466  0.0643
    1W        W43309  15.474  28.493   1.175  0.2457  0.0362  0.0496
    1W        W43310   6.169  16.699   6.960 -0.4995 -0.1752 -0.1155
    1W        W43311  20.874  10.759   1.358 -0.0193  0.4041  0.0759
    1W        W43312  18.841  20.841   9.859 -0.0201 -0.3095 -0.2807
    1W        W43313   7.633  12.003   1.076 -0.1200 -0.0642  0.2132
    1W        W43314  22.494  21.568   2.488 -0.1294  0.4586  0.2657
    1W        W43315   7.125  15.037   0.063 -0.1210  0.1953  0.0174
    1W        W43316  11.165  28.287   7.719  0.1345  0.1616  0.1641
    1W        W43317   2.203   0.170   0.008  0.1324  0.1964 -0.2587
    1W        W43318   2.539  22.983   3.929 -0.5426 -0.2005 -0.0023
    1W        W43319   3.013   0.419   3.657  0.2843  0.1275 -0.0718
    1W        W43320   1.721  15.624   9.678  0.1608  0.4969 -0.4244
    1W        W43321   7.279  23.969   1.935 -0.1080 -0.2017  0.0264
    1W        W43322   4.663   0.628   0.310 -0.4454 -0.2844  0.2594
    1W        W43323   4.095   8.010   3.015 -0.2975 -0.0907 -0.0541
    1W        W43324  20.987  19.058   1.198  0.1327  0.1772  0.0638
    1W        W43325   7.034  28.365   3.199 -0.0754 -0.1220  0.1988
    1W        W43326  12.093   1.616   1.669  0.2253  0.0201 -0.3059
    1W        W43327  12.315   2.670   0.867 -0.0639 -0.4563  0.2758
    1W        W43328  11.242   2.516   8.969 -0.0211 -0.1552  0.2306
    1W        W43329   4.693   1.475   9.566  0.0286 -0.0452  0.2493
    1W        W43330   9.067  16.656   9.866 -0.0355 -0.3937  0.1167
    1W        W43331  18.430  10.863   6.641  0.1615 -0.2897 -0.4401
    1W        W43332  10.035  12.815   5.683 -0.0781  0.1138  0.2650
    1W        W43333  17.325  21.945   8.221 -0.1284 -0.0718 -0.0866
    1W        W43334   5.138   5.759   0.250 -0.3665 -0.2878 -0.1462
    1W        W43335  24.773  21.472   0.610  0.3474 -0.1741  0.1972
    1W        W43336   4.444   1.115   8.773 -0.1811 -0.1810 -0.0766
    1W        W43337  22.617   4.578   6.884 -0.0526 -0.1486 -0.1523
    1W        W43338   1.108  23.231   3.494  0.1502 -0.1610 -0.0016
    1W        W43339  28.339  25.527   1.163  0.0254 -0.1721  0.2536
    1W        W43340  15.490   9.863   5.705  0.2577  0.2456  0.0334
    1W        W43341  25.044   5.991   3.927 -0.3315  0.0104 -0.1918
    1W        W43342  10.174  14.246   6.058  0.0909 -0.1033 -0.2065
    1W        W43343  13.686  21.724   1.493 -0.1651 -0.2142  0.2437
    1W        W43344  20.743   9.743   8.406  0.3479  0.2649 -0.0139
    1W        W43345  26.808  11.704   0.135 -0.0704  0.1532  0.1376
    1W        W43346  22.184  16.631   7.410 -0.2305 -0.1352 -0.0150
    1W        W43347   1.469  20.353   3.343  0.2258 -0.0422 -0.2248
    1W        W43348  21.396  14.901   8.246 -0.1188 -0.0669  0.2398
    1W        W43349  21.857  23.279   8.824 -0.1072 -0.2166 -0.1309
    1W        W43350  20.706  11.225   0.120 -0.0369 -0.3403 -0.0286
    1W        W43351  14.394  17.823   7.548 -0.1682 -0.0397  0.0042
    1W        W43352   8.237   0.127   0.479  0.2747 -0.0320  0.3891
    1W        W43353  18.836   8.219   6.872 -0.0679 -0.1200 -0.1262
    1W        W43354   5.552  27.557   2.510  0.0276 -0.3224  0.3522
    1W        W43355   3.932  14.897   8.035 -0.2563  0.2568 -0.0975
    1W        W43356  26.619   7.873   9.629 -0.0123 -0.1598  0.2437
    1W        W43357  19.760   7.601   8.591  0.1696 -0.1044  0.2351
    1W        W43358  12.206   4.746   9.906  0.0343 -0.4879  0.2896
    1W        W43359  18.497  19.115   6.616  0.2267 -0.1111  0.1221
    1W        W43360  18.692  10.801   8.886  0.0823  0.3091  0.0100
    1W        W43361  25.400  22.364   1.920  0.0704  0.0374  0.1148
    1W        W43362  14.030   6.389   2.120  0.3208 -0.1040 -0.1188
    1W        W43363   5.618  10.011   9.074  0.0663  0.1052  0.1442
    1W        W43364  14.363   7.755   8.034 -0.0686 -0.2508 -0.1395
    1W        W43365   1.609  22.748   1.809  0.2116 -0.1362 -0.2049
    1W        W43366  19.132   9.288   5.882  0.0851 -0.0059  0.1978
    1W        W43367  17.216  15.048   6.809 -0.2215 -0.0997 -0.2800
    1W        W43368  22.116  22.703   0.014  0.0897  0.0827  0.0681
    1W        W43369  26.658   8.254   7.815 -0.1411  0.2502 -0.0167
    1W        W43370  25.273  17.256   8.208  0.2477  0.0026  0.1612
    1W        W43371   8.664  25.332   3.533 -0.2280 -0.0624 -0.3036
    1W        W43372  23.173   5.638   8.708 -0.2580  0.2297 -0.1139
    1W        W43373  11.779  14.906   9.046 -0.0047 -0.1657 -0.1083
    1W        W43374  21.670  11.808   6.679 -0.2457 -0.2393 -0.0259
    1W        W43375  25.189  24.827   8.865 -0.3025 -0.1443  0.0030
    1W        W43376  23.750   7.363   7.996  0.2999  0.0407 -0.2189
    1W        W43377   8.359  19.325   2.817 -0.0649  0.1073  0.2251
    1W        W43378   1.589   0.128   0.413  0.1563  0.0511  0.1125
    1W        W43379  12.990   5.908   7.911  0.1758  0.0384  0.0351
    1W        W43380  13.516  14.106   7.502  0.0873  0.1521  0.2653
    1W        W43381  11.427  16.453   7.371  0.0757  0.0978 -0.0116
    1W        W43382   5.860  22.159   8.171 -0.1008  0.2576 -0.1734
    1W        W43383   2.783  22.877   8.759  0.1090  0.0034 -0.0043
    1W        W43384  11.818   6.197   9.057  0.0331  0.0062 -0.1693
    1W        W43385  14.564  12.570   1.089  0.1189 -0.0633 -0.2037
    1W        W43386  15.828   0.162   2.932 -0.2010 -0.1318  0.0042
    1W        W43387  10.834   9.388   1.142 -0.0786  0.2370  0.0817
    1W        W43388   9.620   4.556   1.366  0.3641 -0.0759  0.3531
    1W        W43389  17.975  15.055   8.892 -0.3663 -0.0463 -0.1740
    1W        W43390   2.629   6.106   1.720 -0.0333 -0.0829 -0.1169
    1W        W43391  25.805   2.211   1.978  0.2846 -0.2761 -0.0909
    1W        W43392  13.709  17.285   0.023  0.0776  0.0509  0.0102
    1W        W43393  17.522   5.339   1.200 -0.1150 -0.0905 -0.2338
    1W        W43394  27.495   2.041   1.194  0.0703 -0.0984  0.2474
    1W        W43395  24.853  24.140   8.215 -0.2997  0.0016 -0.0474
    1W        W43396  18.256   0.233   2.424  0.2492  0.0647 -0.2375
    1W        W43397   8.459  12.519   8.893 -0.0417 -0.2495 -0.1394
    1W        W43398  21.249  27.381   2.498 -0.0597 -0.0330 -0.2331
    1W        W43399  15.188  19.039   9.369  0.0783  0.4194  0.0920
    1W        W43400   6.480  13.309   9.375  0.1384  0.2361 -0.2458
    1W        W43401  18.941  18.815   0.149  0.0006  0.0923  0.0491
    1W        W43402  16.390   7.455   8.610  0.1948 -0.0794  0.1722
    1W        W43403  23.625   4.890   2.194  0.0894 -0.0149  0.0720
    1W        W43404  18.710   1.975   2.284 -0.1600  0.1254 -0.0704
    1W        W43405  10.938   6.499   9.600  0.3109 -0.0909 -0.1570
    1W        W43406   9.651  17.731   8.963 -0.1361 -0.0020  0.0389
    1W        W43407   9.432   4.849   3.136  0.1006  0.3808 -0.0289
    1W        W43408  14.065  18.427   1.775 -0.1025  0.1094  0.1886
    1W        W43409   1.432  14.229   8.890 -0.2093 -0.1695 -0.0232
    1W        W43410   9.548  23.073   8.261  0.2613  0.0457 -0.1463
    1W        W43411  23.856   9.930   8.776  0.0383 -0.0277 -0.0626
    1W        W43412  28.009  17.738   8.521 -0.2215 -0.0620 -0.0051
    1W        W43413  21.260  27.453   6.737 -0.0894  0.1603  0.0631
    1W        W43414  24.659   7.271   3.445 -0.0897  0.0601  0.1024
    1W        W43415   5.830   1.614   0.461  0.2957 -0.1852 -0.1379
    1W        W43416   2.711   5.005   1.063 -0.1017 -0.0987  0.0288
    1W        W43417  10.771  25.357   1.705 -0.0031  0.0905 -0.1142
    1W        W43418  17.405   1.651   1.869  0.4947 -0.2849  0.1539
    1W        W43419  12.549  22.569   2.136 -0.0536 -0.4953 -0.1569
    1W        W43420   6.579  26.248   8.944 -0.2692 -0.0643 -0.1995
    1W        W43421  17.473  12.607   0.749 -0.2335  0.0498  0.2180
    1W        W43422  20.020   6.507   0.545 -0.3103  0.0586  0.2939
    1W        W43423  27.534   7.850   1.319 -0.0664 -0.1579 -0.4681
    1W        W43424  19.022  14.306   8.292  0.1846 -0.1453  0.1187
    1W        W43425  12.845   6.994   8.304 -0.0864  0.1082  0.3213
    1W        W43426   2.804  20.406   8.290  0.0932 -0.0897  0.0650
    1W        W43427   7.327  10.789   7.247 -0.1221  0.0226  0.0452
    1W        W43428   2.433  22.412   3.853 -0.2196  0.4241  0.1015
    1W        W43429   3.053  15.104   0.684  0.2350  0.0633  0.1021
    1W        W43430  26.361   5.099   2.986  0.5072  0.2943 -0.1409
    1W        W43431  18.418   0.820   1.237 -0.2087  0.0630  0.0137
    1W        W43432   7.335  14.779   6.432  0.1166  0.0879  0.0073
    1W        W43433  18.269   2.774   7.238 -0.3959  0.0080  0.1941
    1W        W43434  18.022  16.804   2.496 -0.2400  0.0477 -0.3089
    1W        W43435   5.458   9.545   8.995  0.0897 -0.0746  0.2863
    1W        W43436  21.015   7.087   7.767  0.1130 -0.0001 -0.0521
    1W        W43437  28.240   7.757   9.686  0.1324 -0.1725  0.0884
    1W        W43438  24.744  22.337   8.602 -0.0268  0.0924 -0.1412
    1W        W43439  26.908  22.222   3.348  0.1284  0.3407  0.0623
    1W        W43440  27.226   6.106   0.979 -0.2954 -0.1750  0.0372
    1W        W43441  25.673  16.649   9.757  0.2508  0.2429 -0.4303
    1W        W43442  27.618  13.660   0.455  0.0367  0.1081 -0.0588
    1W        W43443   7.952  28.334   3.180 -0.2242 -0.0328 -0.1008
    1W        W43444   2.017   9.357   7.674  0.3989  0.0869  0.0616
    1W        W43445  19.198  11.943   7.229 -0.2609 -0.1628  0.0032
    1W        W43446  24.498  25.388   9.844  0.0115 -0.0746 -0.0732
    1W        W43447  21.785   5.993   9.396  0.0688  0.1430 -0.2960
    1W        W43448  13.613  28.746   8.732 -0.0313 -0.1053  0.1054
    1W        W43449   0.735   6.361   3.648  0.1164  0.1966 -0.3269
    1W        W43450   3.770  21.072   9.476 -0.1698  0.0957 -0.3039
    1W        W43451  18.430  25.293   7.346 -0.2299 -0.0259 -0.3109
    1W        W43452  17.851   3.412   1.154 -0.2298  0.0547 -0.1457
    1W        W43453  23.162  25.444   1.030 -0.0578  0.0495 -0.0432
    1W        W43454  26.851   1.968   3.409  0.0751  0.3413  0.2558
    1W        W43455  26.975  27.061   2.508 -0.1230 -0.1259 -0.0985
    1W        W43456  15.554  15.401   0.994  0.0287  0.0958  0.1808
    1W        W43457  26.203  21.282   7.168 -0.3540  0.0321  0.0763
    1W        W43458   7.419  15.004   7.076  0.0342 -0.1514 -0.2005
    1W        W43459   5.681   1.931   1.739 -0.4058  0.2170 -0.1847
    1W        W43460   9.446   4.134   2.602 -0.2293  0.0952  0.1932
    1W        W43461   6.355  15.675   2.367  0.0667  0.1064  0.1778
    1W        W43462   9.578  20.173   9.894 -0.2323 -0.3840 -0.0671
    1W        W43463  28.495  25.012   3.914 -0.1589 -0.1375  0.1691
    1W        W43464   5.058  24.065   2.873  0.0693  0.0354 -0.1827
    1W        W43465   0.461  20.831   4.324 -0.1316 -0.2263  0.0606
    1W        W43466  23.043   1.353   1.838  0.2541  0.1940  0.0417
    1W        W43467  13.143  20.817   8.648  0.2145  0.2668 -0.2546
    1W        W43468  25.905   1.636   1.911  0.1750 -0.2142 -0.2555
    1W        W43469  10.947   9.565   6.784  0.1125 -0.1636  0.2001
    1W        W43470   2.195   7.205   3.941  0.3836 -0.2991 -0.0145
    1W        W43471   9.916   8.424   0.339  0.0526 -0.0120  0.0115
    1W        W43472  23.752   7.241   0.092 -0.3009 -0.1079 -0.0286
    1W        W43473  24.592   9.382   7.505 -0.2490 -0.1519 -0.4477
    1W        W43474   8.811  15.356   6.206  0.2462 -0.2810 -0.0991
    1W        W43475  11.953  23.735   8.572  0.3776  0.0462 -0.0700
    1W        W43476  24.803  16.428   8.300 -0.0243  0.1392  0.1449
    1W        W43477  11.768  27.649   2.715  0.0271 -0.1547  0.0775
    1W        W43478   0.843  18.102   9.050  0.1127  0.2234  0.2322
    1W        W43479  13.758  16.898   9.660  0.0824  0.0665  0.1231
    1W        W43480   1.997   5.007   1.217  0.1042  0.2014 -0.0095
    1W        W43481  14.858  15.452   0.171 -0.2434  0.4073 -0.1529
    1W        W43482   9.825   3.186   6.534  0.0846  0.1709  0.0237
    1W        W43483  18.311  10.531   8.756  0.0793 -0.1007  0.0956
    1W        W43484   5.169   5.393   9.846 -0.2381 -0.1329  0.2547
    1W        W43485  21.397   6.510   0.610  0.0818 -0.2822  0.1473
    1W        W43486  16.719  22.705   0.042  0.0534  0.0710  0.1978
    1W        W43487  17.564   2.309   0.721  0.1596 -0.1601 -0.3658
    1W        W43488  16.970   7.403   5.105 -0.1999  0.0115  0.0716
    1W        W43489  26.688   2.632   8.772  0.1976  0.0374 -0.1015
    1W        W43490   9.427  11.846   7.821  0.1304  0.2722 -0.1277
    1W        W43491   5.756  11.963   8.268 -0.2759 -0.0436  0.2443
    1W        W43492  19.223  20.622   0.068 -0.1484 -0.0496 -0.1020
    1W        W43493  23.593   3.059   1.257 -0.1613 -0.1654 -0.2266
    1W        W43494   3.817   5.883   3.435  0.1332  0.0088 -0.1396
    1W        W43495   0.516   8.524   8.225  0.1008 -0.2732  0.1302
    1W        W43496   9.893  27.301   2.448  0.1353 -0.0076 -0.0086
    1W        W43497  14.830  25.490   8.763  0.2644 -0.0225 -0.0258
    1W        W43498   1.738   3.686   8.548  0.0470 -0.1952  0.3825
    1W        W43499  16.479   1.286   7.039 -0.1045 -0.0450  0.1063
    1W        W43500   7.921  22.562   1.169  0.0599  0.1642 -0.0818
    1W        W43501   4.977   5.446   9.381 -0.2053  0.0018 -0.0829
    1W        W43502  10.850   7.822   6.895 -0.0082 -0.2318 -0.3683
    1W        W43503   6.312  20.666   1.983 -0.0009 -0.0668 -0.1318
    1W        W43504  19.823  18.304   6.424 -0.2380 -0.0083  0.0761
    1W        W43505  27.169   6.549   9.436  0.4893  0.0737 -0.1493
    1W        W43506  17.839   5.573   8.441 -0.0068 -0.2924 -0.3567
    1W        W43507  22.842   2.432   0.455  0.2419  0.0574  0.2231
    1W        W43508   7.628   7.898   6.574 -0.2766  0.1413  0.0639
    1W        W43509  10.957  16.693   8.490  0.0272 -0.1473  0.2014
    1W        W43510   4.195  18.945   0.916 -0.0714  0.1670  0.1740
    1W        W43511   8.752  23.626   3.049  0.0830  0.0713 -0.1079
    1W        W43512  10.854   0.445   2.709 -0.1828  0.0977  0.2874
    1W        W43513  27.222  24.045   9.119 -0.2194  0.1019 -0.1669
    1W        W43514  18.390   7.161   0.070  0.0547  0.0162 -0.1419
    1W        W43515   4.491  24.463   1.733 -0.2382 -0.1120 -0.0075
    1W        W43516  16.276  22.558   9.809 -0.2695  0.0576  0.3083
    1W        W43517   2.346   1.113   4.647 -0.3218  0.1482 -0.0943
    1W        W43518  15.769  25.508   8.246 -0.1166 -0.0768  0.1695
    1W        W43519   8.499   6.190   9.945  0.0032 -0.0939 -0.1853
    1W        W43520   1.039  26.717   2.331 -0.1655  0.1753  0.1081
    1W        W43521   0.120  20.582   7.934 -0.0839  0.0477  0.3948
    1W        W43522  15.848   8.122   9.224  0.0097  0.1524  0.1370
    1W        W43523  11.887  22.775   8.382 -0.1136  0.1280 -0.2314
    1W        W43524  28.110  19.981   0.811  0.2317  0.1795  0.5404
    1W        W43525  20.956  11.762   2.706  0.0061  0.4845 -0.2463
    1W        W43526  28.459  24.732   0.803 -0.0093 -0.1030 -0.0484
    1W        W43527   3.887  11.969   2.276 -0.0883  0.1657  0.1960
    1W        W43528  14.448   8.084   9.115 -0.0130 -0.2485 -0.0469
    1W        W43529  11.176  18.341  10.000  0.1637  0.0312 -0.0854
    1W        W43530  23.712  12.219   7.143 -0.2869 -0.0895  0.1102
    1W        W43531  14.432  17.973   6.149 -0.0732 -0.1580 -0.1371
    1W        W43532  26.215   9.985   0.176 -0.1956 -0.0334  0.1237
    1W        W43533   7.904   8.473   2.838  0.1507  0.1404 -0.1728
    1W        W43534  11.649  21.462   2.220 -0.0125  0.2224 -0.0742
    1W        W43535  11.076  27.598   1.252  0.2262 -0.0210 -0.0303
    1W        W43536  28.059   6.366   1.802 -0.1717  0.2483 -0.0508
    1W        W43537  14.097   3.757   8.361  0.1837  0.1898 -0.0497
    1W        W43538  11.514   6.558   1.122  0.2470  0.0543 -0.1807
    1W        W43539  13.248   5.608   6.053 -0.3625  0.1221  0.0014
    1W        W43540  27.573  14.346   0.967  0.0360  0.1260  0.3892
    1W        W43541  13.150  15.274   1.811 -0.2570  0.1438 -0.3064
    1W        W43542  14.902  15.388   3.158 -0.1240 -0.0671 -0.2692
    1W        W43543   9.411  27.795   9.259 -0.0848 -0.0058 -0.1301
    1W        W43544  15.845   6.169   6.794  0.4012  0.4859  0.0878
    1W        W43545  22.731  18.490   0.400  0.1038 -0.0116 -0.3829
    1W        W43546  17.282  19.528   9.499  0.0973  0.0631 -0.1268
    1W        W43547  16.615   7.131   9.392  0.0080 -0.2974 -0.0632
    1W        W43548   7.135   3.326   1.227  0.0556  0.1996  0.1092
    1W        W43549  20.027  24.787   8.684  0.2508 -0.0584  0.1391
    1W        W43550   0.908   1.695   1.253 -0.3814  0.0134  0.0630
    1W        W43551   6.607  16.016   0.238 -0.2028 -0.1317  0.1205
    1W        W43552  15.377   9.518   7.265 -0.1419 -0.0516 -0.1373
    1W        W43553  23.024  16.650   3.004 -0.3045  0.1168 -0.2112
    1W        W43554   9.573   0.486   8.664 -0.0932  0.1686  0.3237
    1W        W43555  23.441  16.239   9.064  0.2463 -0.2296  0.0656
    1W        W43556   6.769  11.938   9.905  0.1480  0.2526 -0.2612
    1W        W43557  15.784  16.968   9.470 -0.0339 -0.0466 -0.1740
    1W        W43558   3.602  17.800   9.186  0.2891  0.0556  0.1308
    1W        W43559  24.218  13.034   1.319 -0.0022  0.0072 -0.0345
    1W        W43560   0.822  10.009   1.904  0.1659 -0.0656 -0.2524
    1W        W43561  26.835   4.582   9.109 -0.0504 -0.2095  0.2231
    1W        W43562  24.092   0.978   2.383  0.5873 -0.1859 -0.2620
    1W        W43563  23.705  14.248   7.516 -0.1322 -0.4033 -0.1020
    1W        W43564   7.211  11.104   9.605  0.1204 -0.0118 -0.1035
    1W        W43565  26.115  12.766   8.377 -0.1622 -0.0123  0.1063
    1W        W43566  11.306  23.127   2.143  0.1341 -0.0079  0.1297
    1W        W43567   0.319  24.984   3.467 -0.1725 -0.3254 -0.2357
    1W        W43568  14.579  10.729   8.175  0.2214 -0.0629 -0.1872
    1W        W43569   7.463  23.554   8.337 -0.3135 -0.2439 -0.3678
    1W        W43570   1.206  24.540   9.781  0.3069 -0.0183  0.2554
    1W        W43571   3.402   6.253   9.789  0.2609 -0.2303  0.0534
    1W        W43572   3.768   0.909   3.593  0.0843 -0.0603  0.1295
    1W        W43573  26.712  12.813   8.180 -0.3156 -0.3338 -0.0804
    1W        W43574  11.659  13.404   2.305 -0.2144 -0.3600 -0.0687
    1W        W43575  11.475  15.684   8.204 -0.3220 -0.0215 -0.3962
    1W        W43576  28.481  22.056   1.303  0.0024 -0.1136  0.2157
    1W        W43577  27.026  16.480   7.297 -0.1584 -0.0714  0.0133
    1W        W43578  10.301  24.367   3.401  0.1621  0.0289  0.1544
    1W        W43579   6.102  27.037   3.069  0.0115 -0.0728 -0.0642
    1W        W43580  20.713   9.907   9.832 -0.0184  0.1068  0.0773
    1W        W43581  24.076   7.369   1.827 -0.0007  0.2881 -0.3548
    1W        W43582  13.082   3.098   6.248 -0.1198  0.0479 -0.2555
    1W        W43583  12.956  17.733   7.185  0.2873 -0.1923  0.1120
    1W        W43584   5.306   0.070   1.268  0.2235 -0.1354  0.3323
    1W        W43585   7.650  18.647   7.781 -0.4225 -0.4656  0.2450
    1W        W43586  22.435   7.273   1.179  0.1124 -0.5512 -0.0995
    1W        W43587  23.337   7.447   7.693  0.0224 -0.1874  0.1299
    1W        W43588  13.293  14.243   7.019  0.1888 -0.1593 -0.0018
    1W        W43589  16.460   8.303   5.573  0.0982 -0.0519 -0.1449
    1W        W43590   1.228  28.670   2.164  0.0185  0.0959 -0.1004
    1W        W43591  10.769  19.158   8.211  0.0384  0.1078  0.1973
    1W        W43592  12.341   5.649   0.937 -0.1507  0.2013 -0.3136
    1W        W43593   2.138   5.387   8.411 -0.3015 -0.0743  0.0268
    1W        W43594  12.619  23.023   3.444  0.1275 -0.0795 -0.1570
    1W        W43595  13.114  10.286   1.950 -0.2597 -0.1385  0.0133
    1W        W43596  20.073   8.629   9.602  0.0547  0.0085  0.2416
    1W        W43597  13.358   1.467   6.911  0.3127 -0.2803 -0.1797
    1W        W43598  22.159   3.488   9.808  0.1571  0.1515  0.0395
    1W        W43599  26.621   8.323   8.676 -0.1714  0.0269  0.1727
    1W        W43600  10.467  20.733   8.777  0.0835 -0.0607  0.0644
    1W        W43601  14.269   9.420   8.864 -0.0154  0.0734  0.1495
    1W        W43602   8.807   8.564   2.697 -0.1217 -0.3843 -0.1512
    1W        W43603  20.850   7.799   8.403  0.1996  0.0732 -0.2163
    1W        W43604  26.399  22.879   9.956  0.0298 -0.1078 -0.2189
    1W        W43605   0.706  17.541   8.009 -0.2512 -0.2063  0.1180
    1W        W43606   7.983  24.677   0.309  0.3889 -0.0086  0.0184
    1W        W43607  16.946  13.869   6.285  0.3525 -0.0007  0.0128
    1W        W43608  21.765   3.213   9.139  0.2782  0.1847 -0.1676
    1W        W43609   6.232  25.714   9.563 -0.0068  0.0819  0.0027
    1W        W43610  18.361  13.113   7.667  0.0440 -0.2249  0.1668
    1W        W43611   9.744  10.599   9.392  0.0825  0.0721 -0.1404
    1W        W43612   1.182   2.176   3.035 -0.2006  0.6844 -0.0865
    1W        W43613  19.501  11.362   0.567 -0.1588  0.1016  0.1922
    1W        W43614  14.693   5.313   6.170  0.2484 -0.1053  0.1978
    1W        W43615  17.399   1.764   0.855 -0.0413 -0.0351  0.0454
    1W        W43616  24.507   7.008   9.712  0.1068 -0.2111  0.1917
    1W        W43617  10.921  16.670   9.451 -0.2276 -0.1237  0.0288
    1W        W43618  13.711   4.438   8.467 -0.0675 -0.0938  0.3652
    1W        W43619  27.438  18.379   7.812  0.0904 -0.0127 -0.2881
    1W        W43620   3.241  15.247   3.364  0.1990  0.0796  0.2042
    1W        W43621   3.974  24.627   3.382  0.3640 -0.1461 -0.1571
    1W        W43622   9.732  14.634   7.248 -0.3753  0.4067  0.1341
    1W        W43623   9.182  10.976   9.317 -0.0184 -0.1191 -0.1336
    1W        W43624  19.545  24.149   7.035 -0.0419 -0.0552  0.0305
    1W        W43625  20.415  17.467   7.505  0.0062 -0.0715 -0.0121
    1W        W43626  22.420  21.897   7.423 -0.1070  0.0599 -0.1707
    1W        W43627   2.197  25.990   2.554  0.3343  0.0593 -0.1215
    1W        W43628  21.849  20.252   2.490 -0.0886  0.3194 -0.1125
    1W        W43629   5.638   2.534   0.486 -0.0871  0.1050  0.3093
    1W        W43630  22.114   3.503   8.849  0.1610  0.0928  0.0369
    1W        W43631  21.170   3.380   7.144 -0.1948 -0.0012  0.2430
    1W        W43632  18.539  25.516   8.613 -0.0538  0.1172 -0.0652
    1W        W43633   2.285  10.633   2.900 -0.2097 -0.1325  0.1471
    1W        W43634  23.374  11.746   7.222 -0.2460  0.0463 -0.1061
    1W        W43635  10.253  18.033   2.404 -0.1111 -0.4519 -0.0512
    1W        W43636  21.960  16.882   7.891  0.1424  0.0153 -0.2662
    1W        W43637  24.056  13.447   1.682 -0.1053  0.1211  0.1154
    1W        W43638   0.001  21.625   7.697  0.3596  0.1290  0.1320
    1W        W43639  20.864  24.892   8.669  0.2299 -0.0723  0.1984
    1W        W43640   4.023  19.996   1.342 -0.1811 -0.2536 -0.1002
    1W        W43641  21.842  16.679   1.728 -0.2813 -0.2376 -0.0210
    1W        W43642  22.497  26.216   1.949 -0.1016  0.1843 -0.1469
    1W        W43643  16.804  16.431   7.990 -0.3002 -0.0819 -0.4565
    1W        W43644   6.176  21.200   1.149  0.0090  0.1274  0.0582
    1W        W43645  11.274  26.425   9.279  0.1475  0.0716  0.1712
    1W        W43646  14.436  27.338   2.576 -0.0995  0.1728  0.0030
    1W        W43647  15.064  13.455   9.602 -0.1157  0.0112 -0.2460
    1W        W43648   6.974   6.735   7.806  0.1218 -0.0873 -0.1785
    1W        W43649  19.527   9.415   8.226 -0.0458  0.0190  0.0789
    1W        W43650  18.292  15.986   8.261  0.3638  0.5915 -0.3603
    1W        W43651  10.109  17.467   2.285  0.1857  0.0124  0.0358
    1W        W43652  28.163  17.851   8.068  0.0041  0.2676 -0.1769
    1W        W43653   5.292  21.086   2.633  0.2386  0.2209 -0.0421
    1W        W43654  10.935  17.330   0.385 -0.1771  0.2156 -0.2053
    1W        W43655  13.207  13.323   6.899  0.3282  0.4100 -0.0521
    1W        W43656  26.444  15.015   2.953  0.0787 -0.2038  0.0214
    1W        W43657  27.863  11.840   7.532  0.0913  0.0144  0.4754
    1W        W43658  27.160   9.813   1.904  0.1478  0.0129 -0.4315
    1W        W43659   2.212   4.235   9.167  0.0782  0.2535 -0.2782
    1W        W43660   1.887  12.637   0.536 -0.1986  0.0715 -0.0973
    1W        W43661  13.766  21.274   7.303  0.0541  0.1505 -0.1867
    1W        W43662  13.568  18.000   6.999  0.0671  0.2795  0.0947
    1W        W43663  15.500  24.720   1.321 -0.0436 -0.1248  0.5298
    1W        W43664   7.993   4.853   2.537 -0.1471  0.2014  0.1653
    1W        W43665  15.364   2.689   0.160 -0.2352  0.0872 -0.1398
    1W        W43666   3.369  18.325   8.754  0.0730  0.2771 -0.0375
    1W        W43667  15.257  14.745   9.875  0.0843  0.1982  0.2627
    1W        W43668  18.177   4.616   7.261 -0.0630 -0.1835 -0.3869
    1W        W43669  28.127  19.290   2.721  0.2112 -0.1793 -0.0625
    1W        W43670  26.270  22.354   9.196  0.0050  0.0337 -0.2517
    1W        W43671  23.709   0.020   7.778  0.1306 -0.2556  0.0036
    1W        W43672   9.176  20.865   8.587  0.1411  0.2200  0.1717
    1W        W43673   9.987  19.860   1.758  0.0302 -0.0367 -0.0286
    1W        W43674  16.184   7.761   8.929  0.1830 -0.1373 -0.0871
    1W        W43675   6.006   3.709   2.730 -0.1536  0.4009 -0.1414
    1W        W43676   1.829  24.768   8.936  0.1491 -0.1760  0.2371
    1W        W43677  12.426  12.681   7.216 -0.3708 -0.1640 -0.3110
    1W        W43678   3.368  18.227   9.599  0.1213  0.1504 -0.0713
    1W        W43679   0.662  19.411   1.257 -0.1473  0.1577  0.0526
    1W        W43680  18.138  14.167   7.615 -0.1486  0.0284  0.1822
    1W        W43681  22.892   1.710   8.363 -0.1070  0.1761 -0.0431
    1W        W43682   3.305  10.656   2.414 -0.0114  0.2822 -0.3159
    1W        W43683  20.547   0.134   8.957  0.2350  0.1109 -0.2894
    1W        W43684   8.361  15.984   9.777 -0.3771  0.0021  0.2598
    1W        W43685   7.499  16.926   2.574  0.0397  0.2683  0.4137
    1W        W43686  10.732  22.844   0.935  0.4090  0.0190 -0.1321
    1W        W43687  18.875  27.218   9.258  0.1112  0.0206  0.2400
    1W        W43688   3.101  26.018   4.451 -0.0784  0.0425 -0.0199
    1W        W43689  22.889   0.756   9.126 -0.1802  0.0763  0.1816
    1W        W43690   6.101   2.742   0.290  0.0138  0.0723 -0.2597
    1W        W43691  13.622  26.051   6.986  0.2795 -0.1685  0.3116
    1W        W43692  24.609  27.384   0.840  0.1270 -0.1580 -0.0260
    1W        W43693  25.559   1.922   3.776  0.1856  0.1611 -0.3959
    1W        W43694   4.569  28.458   2.535 -0.3300  0.0887 -0.0178
    1W        W43695  17.933  15.665   0.811  0.0948 -0.1827  0.0865
    1W        W43696  15.406  17.366   2.702  0.1391 -0.3127  0.0318
    1W        W43697   4.434   5.047   2.543  0.1882  0.0761  0.1457
    1W        W43698   6.420  12.501   7.110 -0.4071  0.0158  0.0288
    1W        W43699   1.002   7.002   8.137  0.0638  0.0179  0.0869
    1W        W43700  21.003  27.023   0.849  0.3569 -0.2554 -0.0556
    1W        W43701   1.244  16.014   1.566 -0.1829 -0.0839 -0.1680
    1W        W43702  27.779  28.359   1.523 -0.0640  0.2265  0.0222
    1W        W43703   9.814  22.303   7.635 -0.0783 -0.0122  0.0726
    1W        W43704  28.877   2.618   8.821  0.1212  0.2946  0.3596
    1W        W43705   0.687  23.195   0.052  0.3158  0.2100  0.0024
    1W        W43706  26.508  28.673   0.061 -0.1732 -0.0863  0.1235
    1W        W43707  11.432  23.409   1.198 -0.2148 -0.0391 -0.2246
    1W        W43708  24.837  15.732   0.248 -0.0332 -0.1334  0.3021
    1W        W43709  21.752  28.690   9.564  0.1192 -0.0053  0.0908
    1W        W43710  28.139  21.996   3.256  0.2218 -0.0891 -0.1463
    1W        W43711   5.060   7.241   2.016 -0.2568 -0.0652 -0.3970
    1W        W43712  21.836  22.731   2.503 -0.3667 -0.1261 -0.1609
    1W        W43713  27.921   7.108   9.692  0.1462  0.0591  0.2143
    1W        W43714   0.368  23.323   2.493  0.1946  0.0781 -0.0915
    1W        W43715  14.425   4.085   8.064  0.1279 -0.2027  0.4129
    1W        W43716  11.571  22.125   9.589  0.0026  0.1097 -0.4211
    1W        W43717   6.326   9.606   2.658 -0.0290  0.0758  0.3297
    1W        W43718  16.302   9.535   5.902 -0.1469 -0.1590  0.0840
    1W        W43719   1.239   6.091   2.273  0.1656 -0.0256  0.2238
    1W        W43720  12.899  28.635   7.201 -0.2304  0.0907  0.1376
    1W        W43721  20.009  20.313   6.868  0.0431  0.0600 -0.1222
    1W        W43722  17.036  10.262   9.566 -0.2501  0.0515 -0.1350
    1W        W43723   4.997  16.228   0.475  0.0246  0.2152 -0.5432
    1W        W43724  19.054  16.506   7.733 -0.2696  0.0327 -0.0587
    1W        W43725  11.217  15.222   9.116 -0.2018  0.0948  0.0887
    1W        W43726   4.839  22.997   7.898 -0.0608 -0.0468  0.0696
    1W        W43727  15.842   2.137   8.960  0.0836 -0.2703 -0.1766
    1W        W43728   3.259   9.852   1.360 -0.0649 -0.2038 -0.1478
    1W        W43729  23.107  11.767   9.040 -0.1012  0.2603  0.2861
    1W        W43730  10.916   1.473   6.378  0.0838  0.2924  0.3504
    1W        W43731  25.654   0.103   9.642  0.1217 -0.4635 -0.2782
    1W        W43732  22.286  11.709   1.204  0.0128 -0.0861 -0.1671
    1W        W43733  14.648  16.574   8.642  0.0020  0.4805  0.1009
    1W        W43734   9.990  13.266   8.916  0.0528 -0.0289  0.0053
    1W        W43735  16.439   6.256   9.124  0.2320 -0.0675  0.0598
    1W        W43736  24.482   0.959   2.103 -0.4966  0.0650 -0.0137
    1W        W43737   9.866   8.517   6.733  0.1439  0.4006 -0.1186
    1W        W43738   4.231  20.129   2.382 -0.2313  0.1079  0.0776
    1W        W43739   7.578  24.371   1.853 -0.0831  0.2504  0.0699
    1W        W43740  23.776  14.985   9.244 -0.0594 -0.0362  0.1257
    1W        W43741   3.363  18.354   1.980 -0.2607  0.1242  0.0666
    1W        W43742  13.698  19.842   8.127 -0.1281 -0.1559 -0.1507
    1W        W43743   0.869   2.600   0.753 -0.1034 -0.0842  0.0461
    1W        W43744  21.888  10.062   7.606 -0.4776 -0.0927 -0.0485
    1W        W43745  13.848   7.604   1.368 -0.0586 -0.0330  0.0418
    1W        W43746   4.315   2.481   0.632 -0.1723 -0.2747 -0.2348
    1W        W43747   3.910   1.965   7.811 -0.3309 -0.0540  0.0258
    1W        W43748  27.239  24.647   3.801  0.0787  0.0081  0.0894
    1W        W43749   8.279   9.480   8.508  0.0976  0.0750  0.0925
    1W        W43750  11.057  21.923   9.410 -0.0462  0.0040 -0.1851
    1W        W43751  12.416  19.464   1.223 -0.3411  0.0576  0.0245
    1W        W43752  20.009  10.813   6.734  0.0357  0.0334  0.4922
    1W        W43753  25.387   9.285   6.660 -0.0513 -0.2807  0.3248
    1W        W43754  12.500  28.792   8.464  0.2136 -0.0398  0.1864
    1W        W43755  19.432  15.673   2.272 -0.1141  0.0751  0.1234
    1W        W43756   0.747   3.609   1.843 -0.0718 -0.2509 -0.0716
    1W        W43757  20.777   5.934   1.442  0.1140  0.0624 -0.0171
    1W        W43758   4.355  12.040   1.930 -0.2058  0.1602 -0.3749
    1W        W43759   0.406   8.673   3.969  0.0705  0.0232  0.2248
    1W        W43760  18.805   2.450   9.984 -0.4722  0.0591  0.0657
    1W        W43761  14.040   3.927   9.603 -0.0487  0.0363 -0.3875
    1W        W43762  18.013  15.602   9.586 -0.2457 -0.2159  0.2423
    1W        W43763  15.225  27.271   8.589  0.1471 -0.1261  0.1459
    1W        W43764  16.703  12.289   8.623 -0.0034 -0.1311  0.2853
    1W        W43765   3.545  12.958   2.270  0.2415  0.2225  0.0298
    1W        W43766  13.182  23.793   0.840  0.2666  0.3114 -0.0094
    1W        W43767  20.523   3.787   0.937  0.3481 -0.1442 -0.1231
    1W        W43768   8.857  22.391   7.835  0.1052  0.3323 -0.3005
    1W        W43769  20.072   8.208   8.063 -0.0584  0.1028 -0.0624
    1W        W43770  25.911   6.828   1.636 -0.1720  0.4274  0.0126
    1W        W43771   1.425  23.638   8.307 -0.1498 -0.2936 -0.0900
    1W        W43772   9.858  11.948   6.934 -0.1659  0.0184 -0.0337
    1W        W43773  27.555  12.132   0.737  0.0858  0.4534 -0.1442
    1W        W43774  18.729  27.811   7.712 -0.0190  0.1420 -0.0844
    1W        W43775   4.703  15.396   6.532  0.3500  0.0048 -0.1249
    1W        W43776  11.842  22.024   0.695  0.0164 -0.1316  0.3727
    1W        W43777   5.689  13.435   6.368 -0.0435  0.0363  0.1532
    1W        W43778  28.634  20.512   2.315  0.1426  0.0557  0.4053
    1W        W43779  27.643   6.634   3.001 -0.3272 -0.2800  0.2057
    1W        W43780   1.390   1.124   2.578  0.0908  0.3846 -0.4600
    1W        W43781  11.002  19.932   7.300  0.0321 -0.0244  0.1395
    1W        W43782   7.220  21.469   1.247 -0.0598  0.1494 -0.3446
    1W        W43783   3.778   4.953   8.772  0.4708 -0.2108 -0.1661
    1W        W43784   6.387   2.102   9.135  0.0921  0.0005  0.0513
    1W        W43785  24.970  17.094   9.078  0.0534  0.0146 -0.1226
    1W        W43786   1.527   6.253   1.324 -0.4924 -0.1503  0.0231
    1W        W43787   0.857  13.827   3.241  0.1649 -0.0093  0.0462
    1W        W43788  26.074  25.281   9.080 -0.0689  0.0441  0.0557
    1W        W43789  27.345   9.603   1.489  0.3938  0.1052  0.0157
    1W        W43790  16.503  15.030   5.950  0.2367 -0.0101 -0.0767
    1W        W43791  20.852  23.925   7.481 -0.0277 -0.1451  0.2798
    1W        W43792  17.105  22.605   7.105  0.2182  0.1604 -0.1731
    1W        W43793  27.634  17.275   8.502  0.3601 -0.1551  0.0855
    1W        W43794   6.453   4.326   1.880 -0.0695 -0.3897 -0.0766
    1W        W43795   8.722   7.551   1.029  0.0439  0.2283  0.2199
    1W        W43796  17.572   0.361   1.311  0.2413  0.3712  0.2377
    1W        W43797   9.843   8.893   6.430  0.1858 -0.0223  0.0087
    1W        W43798  22.882  24.423   9.553 -0.3512  0.1411 -0.0631
    1W        W43799  23.021  18.200   1.467 -0.0536 -0.0373 -0.2431
    1W        W43800  22.550  21.887   8.385 -0.2537 -0.0282 -0.1026
    1W        W43801  11.168  15.933   6.006  0.3628  0.3789  0.4376
    1W        W43802  14.322  14.180   8.659  0.3427  0.1501  0.3511
    1W        W43803  13.230  18.209   7.275 -0.1887 -0.0861  0.0118
    1W        W43804   5.850  27.067   0.446  0.1968 -0.1494 -0.0423
    1W        W43805   7.271  23.654   0.958  0.0537  0.0075 -0.0306
    1W        W43806   5.408   5.281   0.294 -0.1770  0.2489  0.1670
    1W        W43807  28.101  17.999   3.828  0.2568  0.2092 -0.0304
    1W        W43808  23.089  23.982   9.696 -0.0332 -0.2577 -0.0294
    1W        W43809  18.052  19.774   1.217 -0.3167 -0.0996 -0.0726
    1W        W43810  13.876   7.140   7.232  0.0935  0.2282 -0.1183
    1W        W43811  22.849   8.410   7.312  0.2100 -0.1358  0.1692
    1W        W43812   5.955  12.570   7.465  0.3756  0.0369  0.1085
    1W        W43813   0.839  24.873   0.952  0.1115  0.0836 -0.0139
    1W        W43814   8.292  24.373   8.838 -0.0315  0.3130  0.0159
    1W        W43815   4.072  24.373   0.826  0.2162 -0.1812 -0.2029
    1W        W43816   9.336   1.697   7.604 -0.1760 -0.1856 -0.2824
    1W        W43817  15.731   1.044   0.012 -0.3201  0.1483  0.0424
    1W        W43818  17.784   5.706   6.520 -0.1217 -0.0488 -0.0248
    1W        W43819  10.545   8.226   9.096  0.1511 -0.4206  0.0801
    1W        W43820  20.442   3.069   7.130 -0.2121  0.1731 -0.0958
    1W        W43821  28.226   5.348   3.440  0.0379 -0.0231  0.0015
    1W        W43822  27.555   1.947   1.717 -0.1635 -0.0076  0.0797
    1W        W43823   1.445  14.268   0.146  0.1396  0.0594  0.1759
    1W        W43824  27.157  21.739   9.217 -0.0905  0.1723  0.1892
    1W        W43825   6.052  16.698   8.268 -0.0787  0.0817  0.3264
    1W        W43826  19.092  26.182   0.480 -0.2642 -0.0061 -0.2233
    1W        W43827  26.293  12.355   1.817  0.1779 -0.1130  0.4793
    1W        W43828  25.253  23.520   9.752  0.0128  0.1361 -0.1774
    1W        W43829  21.268   3.881   7.373 -0.2586 -0.2713  0.2570
    1W        W43830  16.074   6.109   9.739 -0.1717  0.4766 -0.3288
    1W        W43831   4.836  20.839   9.526  0.1584  0.5539  0.0871
    1W        W43832   8.723  22.399   3.515  0.1321 -0.0044 -0.0415
    1W        W43833   7.338   0.923   9.862 -0.1514  0.1059  0.0425
    1W        W43834   4.917  28.459   2.897 -0.1197  0.2489 -0.3980
    1W        W43835   7.712   0.068   8.244  0.1876 -0.2472 -0.0185
    1W        W43836   5.571  21.470   0.599  0.0605  0.0756  0.1145
    1W        W43837   6.727  22.681   9.484  0.0876  0.0315  0.1065
    1W        W43838  23.466  27.098   0.147  0.5431 -0.2694 -0.0806
    1W        W43839  15.305  11.880   7.950 -0.2974 -0.1138  0.0349
    1W        W43840  25.657   1.066   0.874 -0.0482  0.5207  0.3140
    1W        W43841  17.072  12.401   6.533 -0.0430  0.1124  0.0939
    1W        W43842   0.309  24.773   2.045 -0.2056 -0.1977  0.2369
    1W        W43843  11.683  25.954   2.304  0.1117 -0.0406 -0.0442
    1W        W43844   6.946  23.015   0.866 -0.0892 -0.1911 -0.0207
    1W        W43845  18.745  26.550   0.918  0.0204 -0.0967  0.0979
    1W        W43846  18.528  20.686   0.744 -0.0322 -0.0622  0.0743
    1W        W43847   7.264   7.012   2.008  0.1349  0.1472  0.1022
    1W        W43848  21.607  23.135   8.373  0.2748 -0.3047  0.2635
    1W        W43849   1.365   0.212   2.379  0.0390 -0.1485  0.0173
    1W        W43850  22.133  17.182   2.439 -0.1700 -0.1562 -0.0947
    1W        W43851  26.762   6.049   0.115 -0.3495 -0.2936 -0.1588
    1W        W43852  18.040   5.105   9.209  0.0078  0.2259  0.1808
    1W        W43853  22.266  16.089   8.296 -0.0918  0.1528  0.1442
    1W        W43854   0.044   4.784   9.028  0.0560 -0.3094 -0.3126
    1W        W43855   0.659  19.397   9.073 -0.0240 -0.2160 -0.2843
    1W        W43856  25.184  13.954   8.224 -0.1101  0.0346  0.0605
    1W        W43857  15.935  17.501   8.142  0.2801 -0.0658  0.2594
    1W        W43858   5.160  12.959   9.030 -0.0997 -0.2700 -0.0631
    1W        W43859  17.751   0.907   9.808 -0.0102  0.2293  0.2189
    1W        W43860   2.354   9.224   8.608  0.3519  0.1263 -0.0305
    1W        W43861  25.848   9.570   7.621  0.1237 -0.3952 -0.0227
    1W        W43862  23.599  13.212   1.866  0.1304  0.1944  0.0933
    1W        W43863   7.209   0.877   9.254  0.0232  0.1522 -0.1011
    1W        W43864  28.852  12.017   0.031  0.0916 -0.0770  0.2390
    1W        W43865  13.162   3.460   9.341 -0.0001 -0.1603  0.0467
    1W        W43866  18.748  19.691   7.857  0.0318  0.1979  0.2106
    1W        W43867   5.930   8.143   3.324  0.1673 -0.1618  0.0467
    1W        W43868   8.910  26.502   8.396  0.1118  0.1078  0.0384
    1W        W43869  18.008   4.678   0.240  0.3163  0.2910 -0.1416
    1W        W43870  22.188  27.282   7.702 -0.1218 -0.0669 -0.0933
    1W        W43871   6.988  25.912   2.506  0.0692 -0.3070 -0.1895
    1W        W43872   5.517   2.476   2.531  0.1663 -0.0775  0.0335
    1W        W43873   8.029  16.989   6.792  0.0162  0.0660  0.1485
    1W        W43874  24.287  17.116   6.739 -0.1831  0.0442  0.1270
    1W        W43875  15.745   2.564   9.228 -0.1433 -0.0602  0.1634
    1W        W43876   8.926  24.988   3.226 -0.1529  0.0974 -0.2738
    1W        W43877  21.292   2.459   9.206  0.0468  0.1346 -0.0957
    1W        W43878  26.204   7.769   7.346 -0.1685  0.2242  0.1170
    1W        W43879   3.046   0.857   9.415 -0.1930  0.1468  0.0480
    1W        W43880  18.050  27.336   1.863 -0.2752 -0.2294 -0.1932
    1W        W43881  20.183  28.823   2.754  0.0665  0.1769 -0.0365
    1W        W43882  12.358   8.732   0.044 -0.0751  0.0567  0.2774
    1W        W43883  21.455   1.568   9.579 -0.1492  0.0132  0.1909
    1W        W43884   4.809  26.120   7.995  0.0111  0.1651  0.2058
    1W        W43885  12.643  11.443   8.634  0.1496 -0.1408 -0.0975
    1W        W43886   6.191  15.375   0.980  0.0630  0.2023  0.1563
    1W        W43887  13.439  17.788   8.925  0.1533  0.0861 -0.1596
    1W        W43888  15.280   1.331   8.004 -0.0164 -0.2395 -0.0042
    1W        W43889  11.758  18.328   1.888 -0.0716  0.0660 -0.1112
    1W        W43890  11.783  11.403   9.116  0.0763 -0.2372  0.2213
    1W        W43891   8.064  13.043   6.434 -0.3001  0.0295 -0.0011
    1W        W43892   8.635   9.056   8.112 -0.1295  0.1330  0.0235
    1W        W43893  24.900  24.053   7.658  0.0419 -0.2447 -0.2895
    1W        W43894  16.184  24.092   6.501 -0.3563 -0.2282  0.1489
    1W        W43895  14.208  13.280   1.820  0.2924  0.0594 -0.1725
    1W        W43896  21.756  14.339   0.837 -0.1390  0.2012  0.0903
    1W        W43897  12.425   6.841   7.043 -0.1744  0.0230  0.0612
    1W        W43898   3.952  16.789   1.369  0.3056 -0.0039 -0.1984
    1W        W43899  11.574  11.960   0.644 -0.2826  0.0603 -0.2330
    1W        W43900  13.657  22.113   8.456 -0.0987  0.1924 -0.0715
    1W        W43901   3.392  23.893   1.454  0.3713  0.1154 -0.2982
    1W        W43902   2.305  22.251   0.076  0.2061  0.0348 -0.2537
    1W        W43903  20.197  27.211   0.188  0.2811  0.2120  0.1238
    1W        W43904  17.074  12.787   8.810 -0.2097  0.0827  0.0293
    1W        W43905   8.185  15.208   9.948  0.0956 -0.1528  0.0615
    1W        W43906   4.711   9.542   9.983 -0.0900 -0.0062  0.0093
    1W        W43907   8.033  28.061   9.342  0.0598  0.1686 -0.0655
    1W        W43908  11.661   4.163   6.425 -0.0940 -0.2094 -0.0829
    1W        W43909   5.128  26.305   0.583 -0.2344  0.2430  0.1226
    1W        W43910  17.982   2.749   9.379  0.1156 -0.2688 -0.3241
    1W        W43911  12.884   8.544   0.758  0.6504 -0.2257 -0.7123
    1W        W43912  28.671  27.084   3.393  0.2947 -0.1183 -0.1734
    1W        W43913  28.160   9.952   7.883 -0.1126 -0.0586 -0.1936
    1W        W43914   0.572  21.438   8.306 -0.2632  0.0531 -0.0839
    1W        W43915   1.002   8.953   8.027  0.0899  0.0071 -0.2292
    1W        W43916   5.483  11.058   6.349  0.1230 -0.1252 -0.4104
    1W        W43917  15.405  13.959   2.918 -0.0471  0.1648 -0.4637
    1W        W43918  13.877  12.930   9.421 -0.1100 -0.2526  0.0585
    1W        W43919  25.521   9.086   9.735  0.1208 -0.0608 -0.1266
    1W        W43920  26.636  10.013   0.560 -0.2126  0.0489  0.1401
    1W        W43921  16.723  12.855   8.400 -0.0207 -0.3454 -0.1793
    1W        W43922   0.170   1.049   1.888 -0.1042 -0.0361  0.2454
    1W        W43923  16.350   9.944   8.005  0.2039  0.1558  0.0303
    1W        W43924  10.005   9.901   8.438 -0.0419 -0.0131 -0.0091
    1W        W43925  21.287   4.018   0.555 -0.1929 -0.1862 -0.1547
    1W        W43926   1.830   6.261   8.939 -0.0322 -0.0241 -0.4150
    1W        W43927   4.312  18.311   8.342  0.2253  0.0376  0.0601
    1W        W43928   1.890  18.893   0.750 -0.6177 -0.1154  0.0912
    1W        W43929  15.522  16.395   1.098  0.0183 -0.1716 -0.1263
    1W        W43930  13.084  17.801   2.591 -0.3457  0.2705  0.1940
    1W        W43931   1.093   6.515   8.287 -0.1922 -0.0753  0.1627
    1W        W43932  13.805  26.053   0.946 -0.0614 -0.4370 -0.0751
    1W        W43933   9.385  17.580   2.606  0.1452  0.1312 -0.2833
    1W        W43934  24.470  17.231   8.088  0.0047 -0.1082 -0.1735
    1W        W43935  20.542  16.463   7.472  0.1714 -0.0233  0.3177
    1W        W43936  20.587  15.361   2.596  0.1871  0.1242 -0.1617
    1W        W43937  16.596  20.739   7.985  0.2885  0.0537 -0.2972
    1W        W43938   7.138  24.229   2.728  0.0555 -0.1913 -0.0918
    1W        W43939  13.676  22.722   9.808 -0.3904 -0.2741 -0.0818
    1W        W43940  15.453  17.858   9.808  0.1002 -0.0738  0.1085
    1W        W43941  24.156   3.532   8.263  0.1416 -0.1334  0.0914
    1W        W43942  13.699  17.037   9.189  0.2711 -0.3475 -0.3118
    1W        W43943  22.711  15.987   9.734  0.1163  0.0575 -0.3975
    1W        W43944  16.642  21.541   1.493  0.3057  0.1270 -0.3134
    1W        W43945  10.933  12.293   1.472 -0.0360 -0.0168  0.1775
    1W        W43946   8.311  16.730   2.236 -0.2729 -0.0621 -0.0680
    1W        W43947  28.590  22.202   2.478  0.1308 -0.3883  0.0730
    1W        W43948  22.740  13.114   8.713 -0.2001  0.1813  0.0021
    1W        W43949  25.400   3.602   0.924 -0.1313 -0.1420  0.3119
    1W        W43950  25.766   2.633   2.630 -0.3146  0.1935 -0.0939
    1W        W43951   9.512  26.054   2.277  0.3118 -0.0425  0.0565
    1W        W43952  23.057  23.942   8.697 -0.0911  0.2874  0.1674
    1W        W43953   8.222   3.140   9.720 -0.0289 -0.0231 -0.1927
    1W        W43954  20.797  13.016   0.909  0.1499 -0.1869 -0.2865
    1W        W43955   2.323  17.310   7.481  0.0543 -0.0759  0.0362
    1W        W43956  19.617   7.256   9.394 -0.0920  0.0969  0.0667
    1W        W43957  23.061  22.849   1.768  0.0897 -0.0083  0.1659
    1W        W43958   8.652   6.086   6.718 -0.2088  0.1311 -0.2181
    1W        W43959   4.661  13.371   9.740  0.0610  0.2380  0.1829
    1W        W43960   5.821  26.406   8.356 -0.0052  0.1769 -0.0957
    1W        W43961  13.621   3.342   8.556 -0.1131  0.2801 -0.1170
    1W        W43962  21.308   0.390   0.130 -0.0302  0.2051  0.3671
    1W        W43963  25.962  22.358   0.607 -0.1041  0.0653  0.2047
    1W        W43964   9.515  10.092   2.163 -0.3215  0.1928  0.0142
    1W        W43965  28.246   5.766   2.436 -0.0193  0.1375 -0.0311
    1W        W43966  11.017  22.718   8.580  0.4813 -0.1169  0.0875
    1W        W43967  14.231   9.772   5.333 -0.1079 -0.4106 -0.0349
    1W        W43968  24.434  18.346   8.584  0.1161 -0.3116 -0.2859
    1W        W43969   4.221  11.692   8.504 -0.0302  0.1137  0.1180
    1W        W43970  24.056  12.991   1.816 -0.0288  0.1219  0.3666
    1W        W43971   9.595  19.484   9.155  0.1327  0.2103 -0.1877
    1W        W43972  19.141   9.890   2.091 -0.1835 -0.1382 -0.0700
    1W        W43973   0.331   2.959   1.710  0.0536  0.1848  0.1251
    1W        W43974   2.290  18.379   1.324  0.2430 -0.2296  0.1597
    1W        W43975  28.371  21.107   1.066 -0.1931  0.0560  0.0926
    1W        W43976  19.998  16.241   0.202  0.0123 -0.2144  0.2034
    1W        W43977   1.609  16.119   9.175  0.2098 -0.0191 -0.0924
    1W        W43978  21.422  19.549   7.842 -0.0608  0.1550  0.4971
    1W        W43979  22.289   7.659   0.148 -0.3327  0.2046  0.0633
    1W        W43980   7.093  26.086   8.842 -0.1112 -0.0220 -0.2637
    1W        W43981   2.721   9.420   2.739 -0.0621 -0.2389 -0.2548
    1W        W43982   8.055  18.247   8.608  0.4635 -0.0044  0.0138
    1W        W43983   5.408  10.340   9.980 -0.1850  0.1379 -0.1027
    1W        W43984  26.175  25.578   1.995  0.5415 -0.1753 -0.0751
    1W        W43985   1.039  27.211   3.144  0.3268  0.2157 -0.2163
    1W        W43986  21.067   3.293   8.137  0.2159 -0.0200  0.2316
    1W        W43987  13.576  24.726   1.933 -0.2854 -0.2768  0.0561
    1W        W43988  25.545  16.440   1.547 -0.1898  0.0469  0.0018
    1W        W43989  28.562   6.295   3.120  0.3184  0.0131 -0.1353
    1W        W43990   4.801  11.437   7.806 -0.2760 -0.0024  0.1470
    1W        W43991   3.469  22.969   7.602  0.1502 -0.2533 -0.1434
    1W        W43992   4.510  17.276   1.409  0.0521  0.0403  0.1131
    1W        W43993  28.274   9.057   8.624  0.2290 -0.0194 -0.1264
    1W        W43994  11.513  11.522   5.550 -0.2349 -0.0360 -0.0778
    1W        W43995   0.752   2.215   3.264 -0.4847  0.0500  0.0210
    1W        W43996  11.614  12.879   2.251 -0.0318 -0.1059  0.1798
    1W        W43997   1.265  17.562   8.014 -0.2487 -0.2131 -0.0030
    1W        W43998   5.981  18.079   2.317 -0.2765 -0.0710  0.1707
    1W        W43999  26.262   4.788   2.556 -0.2090 -0.3043  0.0511
    1W        W44000  10.975   1.721   9.705  0.1836 -0.0569 -0.0269
    1W        W44001  25.489  21.547   2.236  0.0054 -0.0475  0.0031
    1W        W44002  22.972  11.019   0.574 -0.1401 -0.2152  0.0754
    1W        W44003   3.740  10.158   9.234 -0.5638 -0.2963 -0.2408
    1W        W44004   5.805  11.637   9.727  0.3164 -0.0360  0.0891
    1W        W44005   8.211  15.135   8.017  0.2494 -0.1448  0.1435
    1W        W44006  15.696  25.430   7.744 -0.2436  0.0847  0.0622
    1W        W44007  27.308   7.752   3.292  0.1779 -0.2361  0.0708
    1W        W44008  14.510   8.452   5.321 -0.1140 -0.0617 -0.0269
    1W        W44009  19.343  10.136   6.571 -0.0692 -0.0275  0.0135
    1W        W44010   7.347  12.911   1.394  0.2512  0.1868 -0.3720
    1W        W44011  18.390  26.225   0.780  0.0527 -0.4873 -0.1238
    1W        W44012  28.606  15.754   9.779 -0.0249 -0.1643 -0.0282
    1W        W44013   9.860  10.083   6.337  0.0168  0.1271 -0.2868
    1W        W44014   1.005  16.131   0.036  0.0079  0.2616  0.1517
    1W        W44015  10.998  23.278   0.789  0.3188  0.1258  0.2546
    1W        W44016  12.911   5.891   8.361 -0.1919  0.0226  0.0131
    1W        W44017  17.098   7.813   9.936  0.0062 -0.1618  0.2231
    1W        W44018  11.790   6.402   6.511 -0.1132 -0.0645  0.2950
    1W        W44019   1.000  20.134   8.138  0.1620 -0.2486  0.0821
    1W        W44020   6.142  13.439   2.713  0.1190  0.2121 -0.1257
    1W        W44021   6.344  22.210   0.814  0.1504 -0.2361  0.0183
    1W        W44022  28.047   8.541   8.451  0.0575  0.0879 -0.1634
    1W        W44023  18.826   4.525   7.246 -0.1153 -0.2765  0.0891
    1W        W44024  18.993  28.009   2.676  0.1200  0.0563 -0.1663
    1W        W44025   0.452  19.509   8.591  0.0213 -0.0499 -0.1897
    1W        W44026   8.046   4.020   0.892 -0.0432 -0.2130 -0.1037
    1W        W44027  22.014   1.342   1.365 -0.0094  0.3298 -0.2585
    1W        W44028   2.262  20.693   1.580  0.1917  0.3621 -0.3065
    1W        W44029   8.896  20.681   8.988  0.3024 -0.2027  0.3163
    1W        W44030  24.996   0.989   1.874 -0.1198  0.0686  0.0207
    1W        W44031   9.459   0.570   1.498  0.0842 -0.0584  0.1292
    1W        W44032   0.763  19.593   0.738 -0.0008  0.2293 -0.0901
    1W        W44033   0.953   6.438   2.569  0.1029  0.3370 -0.1715
    1W        W44034  28.750   2.449   0.461 -0.2213 -0.1125 -0.0215
    1W        W44035  27.700  18.694   3.713  0.0857  0.1420 -0.0232
    1W        W44036  12.024   9.600   8.610 -0.0271 -0.0833  0.0837
    1W        W44037   7.358  10.709   0.726  0.2605  0.0275 -0.1415
    1W        W44038  25.709  25.119   1.807 -0.1786  0.0157  0.2393
    1W        W44039  12.994   0.009   1.720 -0.0562  0.1911  0.2708
    1W        W44040   0.349  24.003   8.669 -0.1120  0.1551 -0.1853
    1W        W44041   4.468  20.392   1.417  0.0555  0.0195 -0.1831
    1W        W44042  22.069  26.963   0.237  0.0106  0.0331  0.3020
    1W        W44043  11.689  13.355   8.720  0.1998  0.2385 -0.1545
    1W        W44044  20.604  22.894   8.009  0.1719  0.0204 -0.1467
    1W        W44045  21.619  27.439   2.908  0.0104  0.0701  0.1616
    1W        W44046  10.244  21.488   2.121  0.1920 -0.2263  0.0999
    1W        W44047  16.182  28.235   7.473  0.1080  0.1554 -0.1426
    1W        W44048   4.445   5.351   1.823  0.0422 -0.1676  0.0814
    1W        W44049  11.620  18.132   7.672  0.0921  0.0649 -0.0354
    1W        W44050  16.255  26.653   0.817 -0.0550  0.1099 -0.2249
    1W        W44051  20.767  20.938   7.025 -0.2619  0.1016  0.0874
    1W        W44052   6.120  18.085   7.897 -0.1642  0.3196 -0.1195
    1W        W44053  22.964   5.070   7.108  0.1412 -0.2055  0.1555
    1W        W44054  11.877  20.216   9.986  0.0115  0.2211 -0.1989
    1W        W44055  19.899  16.435   9.286 -0.2617 -0.3198 -0.0016
    1W        W44056  10.500   4.562   8.700 -0.2291 -0.1498 -0.1343
    1W        W44057   7.071  23.723   3.527 -0.0503  0.3787 -0.1031
    1W        W44058  13.468  25.308   8.878  0.4143 -0.0503  0.1305
    1W        W44059  20.535  21.341   2.325  0.2713 -0.2421 -0.1283
    1W        W44060  24.012  11.525   1.463  0.1568  0.0858  0.0718
    1W        W44061  27.849   8.931   0.209  0.2071  0.0221 -0.2390
    1W        W44062  15.445  15.234   9.076 -0.1590  0.2400  0.1535
    1W        W44063  27.440   7.938   1.894  0.1020  0.0889 -0.1693
    1W        W44064  24.409  10.612   7.381  0.0308  0.2956  0.3875
    1W        W44065  18.318   9.931   1.047  0.0001 -0.0456  0.0156
    1W        W44066  12.580  27.659   9.249  0.0041 -0.2207 -0.3505
    1W        W44067   3.301  28.428   1.431 -0.0941  0.1364  0.1879
    1W        W44068  11.721  17.061   9.493  0.1438  0.0768 -0.0285
    1W        W44069   9.539   1.512   9.985  0.0037 -0.0808  0.0734
    1W        W44070  20.035   9.617   0.556 -0.0769 -0.0179 -0.2123
    1W        W44071   5.502  22.296   7.580 -0.0184  0.4911  0.0851
    1W        W44072  28.628  13.670   1.631 -0.1245  0.2244  0.2173
    1W        W44073  27.117  26.239   0.611 -0.1952  0.0837  0.1566
    1W        W44074   9.188   4.716   0.303  0.1481 -0.0875 -0.0824
    1W        W44075   7.236  23.437   9.185 -0.0725  0.3043  0.2397
    1W        W44076  21.595   3.534   9.770 -0.0083 -0.2698  0.2925
    1W        W44077  12.352   8.888   6.339  0.1332  0.3553  0.1766
    1W        W44078   9.647   9.286   9.446 -0.0353  0.0499  0.3375
    1W        W44079   2.142  20.053   9.236 -0.0647 -0.3773  0.0809
    1W        W44080  13.003   0.817   0.246  0.1487 -0.1718  0.0440
    1W        W44081  18.320  18.088   7.563  0.0597  0.3060 -0.0560
    1W        W44082  27.595   5.788   0.738 -0.2536 -0.0051 -0.3429
    1W        W44083   1.854  26.513   9.027 -0.2636  0.1123 -0.0098
    1W        W44084  13.735   5.773   7.352  0.0099 -0.1632 -0.0286
    1W        W44085   8.141   8.248   7.642 -0.1331 -0.0156  0.2205
    1W        W44086  10.934  14.908   6.197  0.0445  0.1566  0.0611
    1W        W44087   9.832   1.881   2.327  0.0742 -0.3022  0.0688
    1W        W44088   1.629   7.294   3.037 -0.0119 -0.1054 -0.2515
    1W        W44089   2.204  22.743   2.657 -0.1975 -0.1506 -0.2131
    1W        W44090   5.088   7.917   0.055 -0.1479  0.0267 -0.0672
    1W        W44091  14.751   8.560   6.485  0.0337 -0.0937  0.1122
    1W        W44092  23.629   9.436   1.000 -0.0150 -0.0097 -0.1029
    1W        W44093  17.705   3.480   8.089  0.1565 -0.1288 -0.1101
    1W        W44094   7.544  16.855   8.351 -0.2560  0.1908 -0.0291
    1W        W44095   2.810  16.722   8.710  0.1208  0.0608 -0.1251
    1W        W44096  27.550   4.633   9.704  0.2492  0.0607  0.3075
    1W        W44097   9.827  16.306   0.314  0.1331 -0.1895  0.0655
    1W        W44098  18.768  16.226   0.051  0.0461  0.2559  0.2902
    1W        W44099  26.836   8.696   9.084 -0.2086 -0.2281  0.1564
    1W        W44100  26.886  26.523   3.473 -0.0675  0.0514 -0.0145
    1W        W44101   0.986   3.366   2.325 -0.0233  0.1363 -0.1451
    1W        W44102  28.718  19.928   9.936 -0.1483  0.1963  0.4586
    1W        W44103  23.900   4.384   1.845 -0.1120  0.0866 -0.2543
    1W        W44104  20.477   1.673   2.180  0.0152 -0.2720 -0.0596
    1W        W44105  17.210  21.374   0.778 -0.2629  0.0201  0.2231
    1W        W44106   8.112   1.580   2.862  0.0186 -0.0709 -0.0994
    1W        W44107  10.208  25.824   2.650  0.1436  0.0205 -0.0276
    1W        W44108   2.624  13.127   1.788  0.1881  0.2078  0.4324
    1W        W44109  18.351   6.814   0.981  0.1573  0.1733 -0.1131
    1W        W44110  13.745  28.878   0.951 -0.3391 -0.1055 -0.2925
    1W        W44111  13.884  13.160   8.657  0.1206  0.1614 -0.0210
    1W        W44112  24.110  14.399   9.384 -0.0334 -0.0565  0.0145
    1W        W44113  13.539  15.998   9.367 -0.0214  0.2168 -0.3206
    1W        W44114  13.584  22.268   0.696  0.0642 -0.2980  0.0680
    1W        W44115  14.580  23.312   2.475 -0.0331  0.4120 -0.2045
    1W        W44116  17.232  23.529   2.103  0.0481 -0.0178 -0.3431
    1W        W44117   5.183   1.399   3.447  0.1095  0.1621  0.0132
    1W        W44118  15.392   8.191   0.718  0.3277 -0.1862 -0.2835
    1W        W44119   1.378   0.972   0.836  0.0485  0.0760 -0.1353
    1W        W44120   4.500  15.648   0.049 -0.0576 -0.1888  0.1533
    1W        W44121  10.781  22.566   3.436 -0.3486 -0.1832  0.1024
    1W        W44122  16.060  24.994   8.622  0.1678  0.3848 -0.1838
    1W        W44123  18.969  28.548   0.110 -0.2417  0.0580  0.1183
    1W        W44124   0.082  26.220   8.083 -0.0750  0.2998 -0.2332
    1W        W44125  19.004  20.926   8.372  0.1720 -0.1600 -0.1094
    1W        W44126  22.590  22.721   1.855 -0.1011  0.1696 -0.1107
    1W        W44127  12.093  18.288   7.667  0.1088  0.1905  0.1253
    1W        W44128  22.648  10.487   1.489  0.2865  0.2911 -0.3155
    1W        W44129  22.918   9.403   8.711 -0.1293 -0.0907 -0.1285
    1W        W44130   1.163  21.162   7.282 -0.3705  0.1211  0.1654
    1W        W44131  17.990   9.768   6.519  0.1626  0.0925  0.2118
    1W        W44132  20.637  21.347   9.098 -0.0681  0.1408  0.0310
    1W        W44133  27.995   1.112   8.447 -0.0375 -0.1330 -0.0547
    1W        W44134  16.096  25.015   2.966  0.3117 -0.0083  0.0780
    1W        W44135  11.692  18.775   8.737 -0.0968  0.0235  0.4173
    1W        W44136  15.363   3.630   6.945 -0.1985  0.2757 -0.0027
    1W        W44137  26.559  19.232   2.748  0.1350 -0.0233  0.1817
    1W        W44138  14.411   5.147   9.642  0.0264 -0.1748 -0.2509
    1W        W44139  12.173  16.516   9.918 -0.0781  0.1396  0.1665
    1W        W44140  24.396  22.711   8.339 -0.0600 -0.0997  0.2334
    1W        W44141   8.057   0.469   1.358 -0.0040  0.2238 -0.1344
    1W        W44142   3.415  18.502   0.872 -0.2639 -0.0494  0.3915
    1W        W44143  23.871  22.332   1.915 -0.3276 -0.2519  0.0950
    1W        W44144   8.733  11.433   7.321 -0.0323 -0.2383 -0.4372
    1W        W44145   0.041  14.565   0.684  0.1732 -0.1342  0.0457
    1W        W44146  21.668  12.779   0.706 -0.0835 -0.2465 -0.0066
    1W        W44147   9.664   6.020   8.273  0.1884 -0.0059  0.0489
    1W        W44148   0.356  27.695   1.347 -0.1763 -0.1593 -0.1688
    1W        W44149   0.766  22.655   9.788 -0.0214  0.1026 -0.2043
    1W        W44150  17.527  21.482   9.544 -0.0294  0.2105 -0.0330
    1W        W44151  18.480  26.300   1.326  0.1478  0.2307 -0.1448
    1W        W44152  14.072  12.823   7.781  0.1302  0.0301 -0.2999
    1W        W44153  13.470  17.169   7.828 -0.1148  0.0976 -0.1135
    1W        W44154  27.783   5.598   2.206  0.1027 -0.3132 -0.0378
    1W        W44155   8.024  17.100   1.498  0.0049 -0.3229 -0.1616
    1W        W44156  24.065  17.835   7.517  0.0458 -0.2828  0.0795
    1W        W44157  14.736  17.990   1.597  0.0230  0.0497 -0.0100
    1W        W44158  14.400  14.088   7.697  0.1650  0.0836 -0.2457
    1W        W44159   3.601  13.909   1.294  0.0185 -0.1341  0.5028
    1W        W44160  26.482  14.865   8.967  0.1845  0.1696  0.1942
    1W        W44161  26.781   0.834   9.961  0.3822 -0.2086  0.0410
    1W        W44162   2.620   8.926   2.301 -0.0328  0.0203 -0.1344
    1W        W44163   2.172  22.272   3.473  0.1966 -0.0224 -0.0713
    1W        W44164   1.302  10.758   2.903  0.0134 -0.1175  0.0462
    1W        W44165  17.161  10.896   7.430 -0.3285 -0.1265 -0.1275
    1W        W44166  19.925   4.124   8.660  0.3630 -0.2232  0.2032
    1W        W44167   1.773   5.298   3.500 -0.1844 -0.1531 -0.1406
    1W        W44168  14.864  10.149   6.316  0.1855  0.3398 -0.4558
    1W        W44169   7.833  28.573   4.073  0.2752 -0.1209 -0.0722
    1W        W44170   6.804  18.499   9.321  0.1804 -0.0022  0.1787
    1W        W44171  22.850  27.156   1.776 -0.2641  0.0810  0.1295
    1W        W44172   5.229  23.836   9.120 -0.1853  0.1349  0.0645
    1W        W44173  26.466  11.456   0.922  0.3559  0.0966  0.0417
    1W        W44174   9.315  19.322   1.710  0.3972 -0.1013  0.0670
    1W        W44175   6.440  11.159   1.499 -0.3217 -0.0844 -0.2655
    1W        W44176  15.089  10.721   6.555 -0.1356  0.1924  0.0535
    1W        W44177  26.300  20.028   8.511  0.1255 -0.2641 -0.0798
    1W        W44178  18.305  25.641   6.529 -0.1692 -0.1502  0.0193
    1W        W44179   3.991   0.298   8.929 -0.0116 -0.1765  0.1135
    1W        W44180  13.818  14.111   9.912  0.2437 -0.0747 -0.0068
    1W        W44181  22.091  19.470   6.716 -0.1961 -0.2348 -0.2059
    1W        W44182   1.906   9.674   9.190 -0.2917  0.0951 -0.0944
    1W        W44183  19.493  12.958   9.433  0.0867  0.2218 -0.1524
    1W        W44184  16.323   0.582   6.925  0.2907 -0.1243  0.1429
    1W        W44185  12.315   2.896   7.674 -0.0577 -0.0847 -0.0909
    1W        W44186  28.352  10.263   7.583  0.1008  0.2729  0.0972
    1W        W44187   6.768  11.321   1.865 -0.2096 -0.0863 -0.2936
    1W        W44188   9.012  20.373   8.543 -0.0776 -0.0646  0.2923
    1W        W44189   3.271  16.601   0.251  0.2071 -0.0221  0.1144
    1W        W44190   3.889   0.673   9.672 -0.2996 -0.1641 -0.2940
    1W        W44191  10.462   4.157   8.377  0.1455  0.1290 -0.0242
    1W        W44192  18.623   2.917   2.551  0.1345  0.3259  0.1263
    1W        W44193  25.856   6.440   8.066  0.1219  0.1156  0.2070
    1W        W44194   5.376  17.012   7.184  0.1316  0.0106 -0.1589
    1W        W44195  19.170  19.194   8.287  0.0522  0.0556  0.0699
    1W        W44196   9.496   8.626   7.859  0.0792  0.0400  0.0606
    1W        W44197  18.932  20.324   9.792  0.2284  0.0526 -0.0443
    1W        W44198   4.268  17.542   7.476 -0.2417  0.0663  0.1975
    1W        W44199   1.748  17.827   2.670  0.1097 -0.1329 -0.2112
    1W        W44200   8.962  26.875   2.717  0.3598  0.0982  0.1290
    1W        W44201  28.196  19.017   8.165 -0.0272 -0.0745 -0.0164
    1W        W44202  22.184   9.664   9.660  0.2695  0.2633  0.0444
    1W        W44203  18.250  28.776   8.401  0.4917  0.1573 -0.0987
    1W        W44204   6.291  12.513   9.364  0.1373  0.1926  0.0718
    1W        W44205  20.743  18.339   6.055  0.2946 -0.0770 -0.2400
    1W        W44206   2.120  10.398   6.949 -0.1767 -0.2271 -0.0354
    1W        W44207   9.786  27.888   8.793 -0.0921  0.0223 -0.2325
    1W        W44208   6.721  12.654   6.648  0.1034  0.1493 -0.1387
    1W        W44209  25.080  13.111   9.173  0.2485 -0.1126  0.0522
    1W        W44210   7.797   9.547   1.611 -0.3556  0.0673 -0.0766
    1W        W44211  19.591  16.595   6.463  0.1428  0.1142 -0.2220
    1W        W44212   7.619  20.686   0.193 -0.1223  0.0816 -0.0396
    1W        W44213   9.886  16.562   0.717  0.1205  0.0332  0.0277
    1W        W44214  15.859   7.115   8.120 -0.0555 -0.2170 -0.1522
    1W        W44215  27.692  18.143   8.212  0.1057  0.2939 -0.4109
    1W        W44216   5.760  28.767   1.339 -0.1013  0.1605  0.0117
    1W        W44217  17.797  15.960   8.497 -0.0590  0.0826  0.0726
    1W        W44218   0.792   3.679   8.848 -0.0486 -0.1986 -0.0814
    1W        W44219  28.225  24.534   1.181 -0.0176  0.1767 -0.0717
    1W        W44220  25.007   9.391   8.339  0.1394  0.1586 -0.1896
    1W        W44221  22.547  27.690   2.984 -0.2871  0.2951  0.0652
    1W        W44222  16.254  22.036   8.067 -0.0761  0.2109  0.0986
    1W        W44223   7.816  24.086   7.743 -0.2883 -0.0134  0.0827
    1W        W44224   5.085  16.976   7.636 -0.2136 -0.0047 -0.3550
    1W        W44225  25.643   2.580   0.244 -0.2365 -0.0101 -0.0481
    1W        W44226  15.589  21.694   1.639  0.0490 -0.1951  0.1561
    1W        W44227  21.035  14.277   5.835  0.2849 -0.1710  0.2591
    1W        W44228  13.912  21.315   9.833  0.0734  0.1381 -0.1811
    1W        W44229   7.972  17.585   1.070 -0.0766  0.0034 -0.0614
    1W        W44230  22.029  18.631   9.489 -0.2185  0.1373 -0.2237
    1W        W44231  25.785  13.230   7.555 -0.1025 -0.0990  0.1788
    1W        W44232  24.941   9.947   9.621  0.1010  0.0385  0.2584
    1W        W44233  21.463  11.455   8.346  0.1632 -0.0785  0.1112
    1W        W44234   1.087  12.630   0.243 -0.1197 -0.1799 -0.0348
    1W        W44235  22.787  27.560   1.383  0.2052 -0.0498 -0.0625
    1W        W44236   8.387  11.719   1.039  0.2281  0.0368  0.0330
    1W        W44237  13.605  16.515   9.189 -0.0113 -0.0979 -0.0900
    1W        W44238  14.281   0.983   8.810  0.0423  0.2364 -0.2035
    1W        W44239  21.459  25.581   7.890  0.0183 -0.0535 -0.0804
    1W        W44240   4.798  24.457   8.700  0.1329 -0.2459  0.2338
    1W        W44241   0.392   2.793   0.773  0.2271 -0.0795 -0.1819
    1W        W44242   5.034   7.056   0.457  0.0771  0.0805  0.0039
    1W        W44243  24.137  23.345   1.254 -0.0594  0.1266  0.0992
    1W        W44244  25.944  12.599   9.530 -0.0857 -0.2362  0.1171
    1W        W44245   6.900  11.448   9.838  0.1642  0.1003 -0.0854
    1W        W44246  16.872   1.349   9.957  0.1666 -0.1218  0.2677
    1W        W44247  28.126   3.112   7.710  0.2519  0.2071 -0.1310
    1W        W44248  20.854  24.611   2.235 -0.1494  0.0676 -0.0708
    1W        W44249   3.856   2.777   2.772  0.0974  0.0069  0.1888
    1W        W44250   4.096  22.712   2.703  0.2930 -0.0352 -0.0878
    1W        W44251  12.222   6.954   9.273 -0.3566  0.0840  0.2183
    1W        W44252   4.357  14.687   1.951 -0.0581  0.2190 -0.0539
    1W        W44253  25.915  22.829   7.162 -0.2304  0.1503 -0.0781
    1W        W44254  11.478   0.007   2.478 -0.1086 -0.4318  0.0649
    1W        W44255  26.600  26.559   4.392  0.0578  0.1215  0.1395
    1W        W44256  20.145  10.734   8.689 -0.0922 -0.2654  0.2408
    1W        W44257   6.687   4.236   2.882 -0.3894 -0.0163  0.3874
    1W        W44258   1.321  28.734   4.213  0.1414  0.0004  0.0078
    1W        W44259  13.548   3.555   0.114  0.1180 -0.1817 -0.2513
    1W        W44260  15.174  17.086   7.129 -0.0931  0.4470  0.0945
    1W        W44261  22.517  23.117   9.131  0.1616 -0.2929  0.2590
    1W        W44262  22.848  22.247   7.465  0.1994  0.0951  0.1204
    1W        W44263   0.726   9.133   1.534  0.0673  0.2390  0.0147
    1W        W44264   9.992   9.499   0.893  0.2139  0.2707  0.0622
    1W        W44265  24.052  21.617   7.298 -0.0074  0.0485 -0.1163
    1W        W44266   4.243  11.194   9.327  0.0644  0.0150 -0.1574
    1W        W44267  26.232  26.382   9.251 -0.1455 -0.0664  0.1717
    1W        W44268  13.644  20.790   9.428  0.2524 -0.2609 -0.1410
    1W        W44269   8.115  19.452   7.994 -0.4242  0.5461  0.1051
    1W        W44270  23.982  10.387   0.955  0.6106 -0.0332  0.4379
    1W        W44271  18.593  19.511   5.813 -0.0140 -0.0466 -0.0291
    1W        W44272   3.650  13.700   8.175  0.1863 -0.1604 -0.1132
    1W        W44273  16.711  10.325   0.906 -0.0321 -0.0751 -0.0967
    1W        W44274  26.834   6.935   2.557 -0.2401 -0.0577  0.1871
    1W        W44275  25.188  20.221   8.098 -0.0193 -0.0683 -0.0575
    1W        W44276   4.489  14.397   8.385  0.1416  0.1736  0.2182
    1W        W44277  27.299  17.264   8.980 -0.1823  0.0296 -0.3890
    1W        W44278  22.229   6.889   0.832 -0.1607 -0.0001  0.2015
    1W        W44279   8.098  19.157   1.812 -0.3226 -0.1205 -0.1137
    1W        W44280  14.182  12.011   1.520 -0.1077 -0.1204  0.1031
    1W        W44281  27.570  18.367   3.297 -0.0121 -0.0492 -0.1826
    1W        W44282  13.622   3.805   1.503 -0.0876  0.0720 -0.0078
    1W        W44283   1.920   2.577   9.407  0.1542  0.1144 -0.0389
    1W        W44284  11.345  22.083   0.651 -0.1700  0.0138 -0.1434
    1W        W44285  14.042  27.795   7.906  0.0936  0.2238  0.0198
    1W        W44286  12.089   5.232   8.652 -0.0617 -0.0098  0.0770
    1W        W44287  26.577  11.392   9.236  0.1107  0.0194  0.0343
    1W        W44288   0.031  23.136   1.367  0.1861  0.0704  0.1128
    1W        W44289  12.160  14.230   5.767 -0.2876 -0.2548 -0.1975
    1W        W44290  27.725  12.025   3.577 -0.2635  0.1471  0.0624
    1W        W44291  11.855   6.796   8.916 -0.0126 -0.1771  0.2125
    1W        W44292   0.537   7.772   1.578 -0.1239 -0.0347 -0.1649
    1W        W44293  26.259  23.827   8.974  0.2670  0.1010  0.1736
    1W        W44294  10.556  24.971   1.925  0.3474 -0.1035  0.1255
    1W        W44295  12.181  15.113   8.463  0.0850 -0.2151 -0.1231
    1W        W44296   8.221  11.293   1.666  0.1128  0.3327 -0.1175
    1W        W44297   8.623   7.498   1.946 -0.0053 -0.0819  0.1493
    1W        W44298  24.383   6.946   2.005 -0.3026 -0.1944 -0.0784
    1W        W44299   0.847  21.738   9.385 -0.0392  0.0491  0.2736
    1W        W44300   6.492  22.386   7.049 -0.0741 -0.1741 -0.2761
    1W        W44301   5.933  23.004   2.655  0.0283 -0.1568 -0.2572
    1W        W44302  27.429  10.244   6.749 -0.2859  0.3881  0.2243
    1W        W44303  25.214  28.690   0.476  0.6189 -0.1270  0.1582
    1W        W44304  12.675   0.762   7.816  0.1524  0.2058  0.4948
    1W        W44305  26.223  12.952   1.072 -0.1351 -0.0011  0.0679
    1W        W44306   9.989  16.078   8.090 -0.0897 -0.1614 -0.0689
    1W        W44307  15.511   4.389   0.472  0.2031  0.1145  0.0897
    1W        W44308  21.701   0.321   9.741  0.2064  0.1761  0.2228
    1W        W44309  17.918  20.101   1.591  0.0306  0.2881 -0.1673
    1W        W44310   9.548   0.087   9.806  0.0251 -0.0502  0.2957
    1W        W44311  25.322  27.849   0.227  0.1364  0.1273  0.2204
    1W        W44312  14.178  17.915   1.715  0.0341  0.1967 -0.1757
    1W        W44313  27.927  16.679   1.366  0.0994  0.2050 -0.2500
    1W        W44314  25.646   3.919   3.281 -0.1293 -0.0665  0.0906
    1W        W44315  18.055   7.008   9.287 -0.1356  0.0337  0.0033
    1W        W44316  14.804  21.562   8.898  0.3840 -0.2149 -0.1714
    1W        W44317  26.149   4.015   0.683  0.2076 -0.4403 -0.0168
    1W        W44318  24.128   8.774   7.798  0.1535  0.1981  0.0003
    1W        W44319   0.328   6.421   0.347 -0.1838 -0.2540  0.0054
    1W        W44320  15.151  18.769   1.586 -0.1026  0.4053 -0.0573
    1W        W44321   2.867  24.467   2.685  0.0335  0.2694  0.2287
    1W        W44322   5.592   1.514   9.973  0.0225  0.3972  0.0778
    1W        W44323  25.455   5.402   2.075  0.0473 -0.0933  0.0910
    1W        W44324  24.548  10.005   1.725 -0.0604 -0.1115  0.1725
    1W        W44325  28.713   8.101   9.966  0.3580  0.0192 -0.2083
    1W        W44326   1.262   5.673   0.744 -0.1438 -0.1813  0.2533
    1W        W44327  24.630  23.336   1.051  0.2287 -0.2375  0.1599
    1W        W44328   1.265  12.402   8.174  0.3107  0.0293 -0.2432
    1W        W44329  20.922  20.280   8.430 -0.1735  0.1957 -0.1839
    1W        W44330  11.828  19.209   9.532 -0.1343 -0.1362  0.1774
    1W        W44331   4.520   4.005   0.599  0.3216 -0.1678 -0.2922
    1W        W44332   7.675  18.746   8.998 -0.2577 -0.3143 -0.0754
    1W        W44333   4.364  26.059   1.829 -0.0683 -0.2647 -0.0829
    1W        W44334  16.114   3.215   9.133  0.0760  0.2617  0.1069
    1W        W44335  13.199   6.111   8.735 -0.0017 -0.1013  0.0221
    1W        W44336  24.714  15.010   7.750  0.3335  0.0834 -0.0812
    1W        W44337  21.969   7.927   9.386  0.0325  0.0834 -0.0281
    1W        W44338  15.983  23.742   0.029 -0.2872 -0.0517  0.2051
    1W        W44339   6.701   1.732   3.651  0.1934 -0.4033  0.0333
    1W        W44340  21.847   2.241   9.354 -0.1014  0.2344  0.0576
    1W        W44341  12.942  18.681   7.969  0.3902  0.0632 -0.1430
    1W        W44342  25.387  14.775   7.966  0.0615  0.2766 -0.0908
    1W        W44343  15.592   1.630   1.016  0.1984 -0.0866  0.2486
    1W        W44344  15.251  26.459   2.167  0.2238  0.0631 -0.0306
    1W        W44345   3.622  10.789   9.870 -0.0380  0.3672  0.0698
    1W        W44346   7.521  27.206   9.817  0.2228  0.2056  0.4708
    1W        W44347   8.790  11.676   8.662  0.0083 -0.4191 -0.2095
    1W        W44348  20.417  22.607   8.930 -0.0520 -0.0928  0.0343
    1W        W44349   7.273  12.408   1.316 -0.0748  0.2712 -0.2201
    1W        W44350  10.381   7.559   0.201  0.4028 -0.2077  0.1573
    1W        W44351  26.862   3.017   8.400  0.0751 -0.1941  0.0899
    1W        W44352  10.409   6.139   0.407  0.1600  0.2471  0.1038
    1W        W44353   3.805  24.713   0.553 -0.1745 -0.2149  0.4545
    1W        W44354  10.624  10.764   1.259  0.0554 -0.0980  0.1791
    1W        W44355  10.338   0.369   6.686 -0.0413  0.0349  0.0595
    1W        W44356  25.403  15.794   9.254 -0.2125 -0.0409  0.0311
    1W        W44357   7.327  26.706   8.119 -0.1816 -0.0112  0.0254
    1W        W44358  20.283  19.391   6.416  0.1154 -0.2801  0.1183
    1W        W44359   9.332  14.376   7.064  0.1467 -0.1965 -0.2581
    1W        W44360  14.657  25.339   2.514  0.1053  0.0047 -0.2409
    1W        W44361  28.068  12.887   1.070 -0.1834 -0.0880 -0.2042
    1W        W44362   0.900  11.179   9.213 -0.1449  0.0404  0.1978
    1W        W44363   4.602  12.497   1.897  0.1832 -0.1725 -0.0711
    1W        W44364   7.899  12.351   0.273 -0.0119 -0.1176  0.1827
    1W        W44365  19.668   2.537   7.516  0.0643  0.0652 -0.0599
    1W        W44366   6.236  26.111   4.434 -0.0164  0.1992 -0.1834
    1W        W44367  26.768   2.839   2.863  0.1347  0.1129 -0.3809
    1W        W44368  22.627  17.790   0.184  0.2377  0.0467  0.1297
    1W        W44369  26.704  21.647   1.457 -0.2529 -0.2757 -0.1519
    1W        W44370   7.092  28.689   2.302 -0.0940 -0.0992  0.0181
    1W        W44371   0.154   5.093   3.524  0.0491  0.0405 -0.2950
    1W        W44372  27.161   6.500   4.213 -0.0435 -0.0113 -0.0001
    1W        W44373  15.752  13.418   9.144 -0.0619  0.1265 -0.1094
    1W        W44374  20.410   1.089   7.578 -0.0786 -0.3886 -0.2279
    1W        W44375   2.639   3.243   1.296 -0.0763  0.4454 -0.2164
    1W        W44376  23.875  26.832   2.376 -0.0910 -0.1523 -0.1970
    1W        W44377  20.659  12.723   6.896  0.0049  0.1805  0.0012
    1W        W44378  24.051  28.331   8.995 -0.1443  0.0264 -0.1314
    1W        W44379  11.669  22.248   2.787 -0.2545  0.0061 -0.0972
    1W        W44380  12.646   9.136   0.090 -0.2626  0.0524 -0.0613
    1W        W44381  27.495   1.743   2.162  0.2308  0.1642 -0.0815
    1W        W44382  24.949  27.551   9.473  0.0075  0.1573  0.4963
    1W        W44383   2.309  11.723   3.462  0.0265  0.2386  0.1937
    1W        W44384   8.831  17.378   7.157 -0.0695 -0.1739  0.0195
    1W        W44385   6.192  23.789   7.555  0.0152 -0.1209  0.1703
    1W        W44386   8.559   3.487   9.895 -0.3381 -0.0502 -0.1679
    1W        W44387  15.840  16.952   1.064  0.3122 -0.0025  0.5554
    1W        W44388  16.875  18.029   2.965 -0.0198 -0.1151  0.1596
    1W        W44389   6.078   1.623   0.004 -0.1204 -0.2207  0.1529
    1W        W44390  21.043  24.616   1.811  0.2137 -0.5763  0.3998
    1W        W44391  11.593  11.615   0.050  0.0840  0.1980 -0.0024
    1W        W44392  13.537   2.092   9.050 -0.0337  0.0805  0.0244
    1W        W44393  12.387   1.744   1.252  0.0344 -0.0423  0.2052
    1W        W44394  27.249  27.321   2.895 -0.0766  0.0247  0.2951
    1W        W44395  16.575   2.443   9.764 -0.1914 -0.2715  0.2689
    1W        W44396  21.955  23.786   9.162 -0.0632 -0.1107 -0.1459
    1W        W44397   0.575   3.124   2.095 -0.0941 -0.0090  0.1220
    1W        W44398  26.950  10.198   0.856 -0.0819 -0.3670  0.1965
    1W        W44399  26.697   6.947   3.573 -0.1092  0.1398  0.2376
    1W        W44400  22.026   6.897   9.585  0.2377 -0.0360  0.2491
    1W        W44401   4.132   0.167   1.427  0.0321 -0.0776 -0.3524
    1W        W44402   4.878   4.398   2.978  0.2716 -0.0683  0.2548
    1W        W44403  23.821  21.153   0.180  0.0319  0.2743 -0.3220
    1W        W44404  21.742  26.586   9.464 -0.2948 -0.2717  0.3503
    1W        W44405  25.234   4.231   2.978 -0.0142  0.0785 -0.0435
    1W        W44406   2.776  20.829   3.139 -0.1242 -0.0003  0.1165
    1W        W44407  15.079  24.249   8.031  0.0475 -0.1840  0.0380
    1W        W44408  19.932  16.932   9.441 -0.2407  0.0708 -0.1876
    1W        W44409   5.854   9.440   9.845 -0.1468  0.0879  0.1661
    1W        W44410   9.969  12.747   1.264 -0.1234  0.1434 -0.0567
    1W        W44411   9.380   1.848   8.671  0.1134  0.0698  0.2923
    1W        W44412   0.122   6.259   4.009 -0.2050  0.3604 -0.0209
    1W        W44413   3.529   4.079   0.254 -0.0632  0.1889 -0.1231
    1W        W44414  17.266   7.536   8.454  0.0639  0.1252 -0.2195
    1W        W44415  13.720  26.374   8.427  0.0469 -0.2914 -0.1795
    1W        W44416   3.112  14.335   2.053  0.2769  0.4699  0.1023
    1W        W44417   5.736   2.610   9.339  0.2250  0.0318 -0.0402
    1W        W44418  11.859   0.707   9.511 -0.0273 -0.2615  0.0241
    1W        W44419  21.630  15.748   2.963 -0.0005  0.1814 -0.2015
    1W        W44420  12.706  23.055   2.136  0.2576 -0.0564 -0.1881
    1W        W44421  25.238   2.849   0.434  0.0264  0.0836  0.2269
    1W        W44422  14.425   3.104   8.689  0.1177  0.3825  0.4344
    1W        W44423   6.891  27.925   2.196  0.4776  0.1148 -0.4803
    1W        W44424  16.375  12.452   7.700 -0.1670  0.1217 -0.1016
    1W        W44425  10.650  20.263   7.474  0.0984 -0.1494  0.2587
    1W        W44426  25.094  22.047   7.932  0.0628  0.2602  0.3308
    1W        W44427   1.801   5.658   3.945 -0.0108 -0.0460 -0.0570
    1W        W44428  28.606   0.374   8.978 -0.1471  0.0413  0.0095
    1W        W44429   1.044   6.421   0.030 -0.1659 -0.1506  0.0164
    1W        W44430   6.446  17.875   1.290  0.1698  0.0207  0.0785
    1W        W44431  23.106  16.066   8.262 -0.2922 -0.0409 -0.1289
    1W        W44432  15.129  19.535   7.056 -0.4145  0.1788  0.3923
    1W        W44433  12.615   7.970   8.276  0.3336 -0.1050 -0.0230
    1W        W44434  14.185   0.275   2.143 -0.0968  0.1242 -0.0329
    1W        W44435  23.160  18.574   7.596 -0.0322  0.0895 -0.0447
    1W        W44436  20.005  18.008   8.422  0.0455  0.2892  0.1636
    1W        W44437   4.439   4.086   3.183 -0.3073 -0.1350  0.0232
    1W        W44438   1.046  25.719   0.483 -0.1318 -0.2412  0.2417
    1W        W44439  10.098  12.786   8.756  0.2640 -0.2815 -0.2036
    1W        W44440   9.513   0.538   0.054 -0.1100 -0.1072 -0.0831
    1W        W44441  16.299  27.731   7.138 -0.1977 -0.3358  0.0627
    1W        W44442  13.644   6.691   1.332  0.1385 -0.2094 -0.1833
    1W        W44443  13.985   3.523   9.901  0.1028  0.0200 -0.1700
    1W        W44444   5.002  17.167   0.561  0.2168 -0.2053  0.1084
    1W        W44445   2.989   8.659   0.168 -0.2240 -0.2841  0.2745
    1W        W44446  11.250  17.402   2.649 -0.4529  0.0547 -0.2282
    1W        W44447   9.381   5.414   2.312  0.1060 -0.0102 -0.3169
    1W        W44448   2.988   0.263   7.774 -0.0399 -0.2473 -0.1239
    1W        W44449   9.231  15.907   8.666 -0.2574  0.0960  0.3020
    1W        W44450  10.918  16.497   7.304 -0.3183 -0.1270  0.4988
    1W        W44451  24.102  14.109   7.794 -0.1324  0.1992 -0.1373
    1W        W44452   9.260  12.039   0.045  0.0580 -0.1893  0.1607
    1W        W44453   8.268  22.501   9.006 -0.1829 -0.2006 -0.3120
    1W        W44454  19.879  15.883   8.583  0.0612 -0.0358 -0.1307
    1W        W44455  19.507   2.003   2.944 -0.0596  0.0841  0.0682
    1W        W44456   4.814   8.353   1.247  0.1486 -0.0995 -0.1712
    1W        W44457  12.603   8.088   6.889  0.1197  0.1555  0.0120
    1W        W44458  24.082  20.283   1.687 -0.0240 -0.1456  0.1260
    1W        W44459  22.969   4.337   1.738  0.0342 -0.4080 -0.1812
    1W        W44460   1.436  27.228   1.866  0.0297 -0.0006  0.0723
    1W        W44461  27.041  14.167   3.368 -0.0147 -0.1159 -0.0016
    1W        W44462   4.287   4.621   3.002  0.0042  0.0999 -0.1602
    1W        W44463   1.039   6.892   8.589  0.2211 -0.0014  0.0085
    1W        W44464   7.232   7.705   0.133 -0.0467  0.3416  0.2872
    1W        W44465  15.945  19.929   1.604 -0.0051 -0.2412  0.3195
    1W        W44466   3.392  23.189   1.760  0.1408  0.2160  0.1903
    1W        W44467   5.714  20.541   9.804 -0.2750  0.0029  0.2794
    1W        W44468  21.879   1.733   0.563 -0.2654  0.1384 -0.1712
    1W        W44469  28.837  23.133   2.150 -0.1107  0.1563 -0.1174
    1W        W44470   4.473  11.121   3.212  0.1559  0.0440  0.2729
    1W        W44471  28.117   6.041   0.524  0.2043  0.0304 -0.0170
    1W        W44472  22.327   4.078   7.071  0.0214  0.2266  0.3402
    1W        W44473  24.105  23.793   1.068 -0.0795 -0.1542  0.0567
    1W        W44474   9.234  12.636   8.452 -0.3843 -0.0892  0.0547
    1W        W44475  11.874   4.582   7.610 -0.3143 -0.0552 -0.2605
    1W        W44476  17.570  13.672   8.838  0.1204 -0.1682 -0.0869
    1W        W44477  25.797   8.854   7.909  0.1949 -0.1184  0.0531
    1W        W44478   0.329  26.181   4.030  0.2826 -0.1951  0.1439
    1W        W44479  16.816  15.893   1.024  0.1881  0.0055 -0.0383
    1W        W44480   0.155  15.743   3.489 -0.3154  0.0433 -0.4071
    1W        W44481  12.817   6.034   1.081 -0.0888 -0.1464 -0.2041
    1W        W44482  11.942   4.712   8.302  0.0085  0.3769 -0.1073
    1W        W44483  12.969  14.439   9.763  0.1708 -0.1563 -0.3180
    1W        W44484  10.472  26.209   2.770  0.0147  0.0471  0.0407
    1W        W44485  15.087  14.639   7.085 -0.3562 -0.4888  0.0398
    1W        W44486   8.828   0.524   9.183  0.1488  0.1657  0.0189
    1W        W44487  17.230  25.503   2.460 -0.0599  0.1253  0.1034
    1W        W44488   8.572  28.476   1.547 -0.2040 -0.0413 -0.2203
    1W        W44489   6.735  27.950   0.419 -0.2644  0.0968  0.1054
    1W        W44490   1.005  12.895   1.279 -0.3664 -0.0652 -0.1161
    1W        W44491  21.408  21.595   2.704  0.0928  0.1581  0.1792
    1W        W44492   2.289  19.243   3.283 -0.1075  0.2524  0.0598
    1W        W44493   7.752   9.240   8.702  0.2833  0.1331  0.0640
    1W        W44494   7.638  11.377   7.467  0.0594  0.2259  0.2325
    1W        W44495  15.871  23.510   2.126 -0.0236  0.1532  0.0427
    1W        W44496  20.010  21.814   1.428  0.2081 -0.2305  0.1087
    1W        W44497  10.053  26.606   2.729 -0.1259 -0.0055  0.2283
    1W        W44498  14.654  22.886   1.277 -0.1436 -0.1605  0.2174
    1W        W44499  25.881  21.720   9.473 -0.0537 -0.2267  0.0461
    1W        W44500   1.145   2.716   9.808 -0.2072 -0.3004 -0.1962
    1W        W44501  26.623  16.211   7.462 -0.1893  0.2201  0.1485
    1W        W44502  13.934   1.824   9.452  0.0578  0.1384  0.0472
    1W        W44503   8.456  21.562   8.149 -0.0041 -0.5120 -0.0119
    1W        W44504  10.684  16.027   0.263  0.3425  0.0386  0.1147
    1W        W44505  23.950  21.033   7.264  0.2265  0.0012  0.0343
    1W        W44506  21.260  27.677   8.037 -0.2563  0.2365  0.1134
    1W        W44507  20.995  28.535   1.616  0.0848 -0.0304  0.1938
    1W        W44508   4.868   2.013   3.570 -0.1827 -0.0152  0.1085
    1W        W44509  27.717  24.633   9.110  0.0156  0.0311 -0.1445
    1W        W44510  27.878   7.785   0.896 -0.1005 -0.0179 -0.2201
    1W        W44511  17.948  26.637   7.931 -0.3251  0.0839  0.2477
    1W        W44512  13.076  27.697   9.030  0.0262 -0.1364 -0.2708
    1W        W44513   1.441   5.839   1.878  0.1426  0.0294 -0.0407
    1W        W44514  17.637   2.290   7.737 -0.1380  0.2061 -0.1396
    1W        W44515  10.571   4.779   0.453  0.1333 -0.0997  0.0652
    1W        W44516  11.026   9.545   0.659 -0.0820 -0.2524  0.1697
    1W        W44517  19.672  10.569   0.492 -0.3487  0.1550 -0.1418
    1W        W44518   8.526  13.783   6.525  0.0558 -0.1079  0.0851
    1W        W44519  25.481  12.599   2.197 -0.2349  0.2902 -0.0526
    1W        W44520  21.647   4.903   7.446 -0.0911 -0.1772 -0.2446
    1W        W44521  11.391  26.308   0.747 -0.1201  0.0623 -0.0482
    1W        W44522   2.660  18.485   2.382 -0.0790  0.0935 -0.0324
    1W        W44523  10.401  13.313   2.450  0.2243 -0.1167 -0.1926
    1W        W44524   3.239  20.185   1.191  0.2859 -0.0547  0.0696
    1W        W44525  24.715   2.416   0.787  0.0019  0.4167  0.0423
    1W        W44526  13.752  18.463   0.972  0.3324 -0.1731  0.0911
    1W        W44527   3.512  14.401   1.341 -0.0177  0.0896 -0.0434
    1W        W44528  13.948  15.498   9.329 -0.4440  0.0588  0.2335
    1W        W44529  24.276  11.339   3.318  0.1812 -0.1015 -0.2590
    1W        W44530  24.856  18.802   2.038  0.1413 -0.1170 -0.0083
    1W        W44531  22.489  15.664   1.543 -0.1587 -0.1631  0.4664
    1W        W44532  10.373   2.360   9.744  0.0758  0.2112 -0.0210
    1W        W44533  17.372  19.159   6.957  0.0443 -0.0203 -0.0929
    1W        W44534   4.779  18.079   8.687 -0.1033  0.0243 -0.2539
    1W        W44535  20.700  24.091   9.241 -0.1928 -0.0887 -0.0210
    1W        W44536  26.361  28.221   2.965 -0.1600 -0.0156  0.0960
    1W        W44537  22.902  14.430   2.269  0.0532  0.2845  0.4210
    1W        W44538  14.469   8.308   1.604 -0.0113  0.1818  0.3594
    1W        W44539  25.926   9.767   1.724  0.3062 -0.1450  0.2581
    1W        W44540  24.245  26.556   9.849  0.2928 -0.0399  0.1091
    1W        W44541  12.716  11.268   8.148 -0.0919  0.2728  0.0041
    1W        W44542  12.034  27.248   9.942 -0.0226  0.0890  0.0039
    1W        W44543  18.493  28.748   2.127 -0.1808  0.1622 -0.1063
    1W        W44544   0.826  28.736   8.247 -0.1027 -0.2325  0.1464
    1W        W44545   2.462   5.724   8.606  0.1943  0.1623  0.3010
    1W        W44546   7.221  28.632   8.993 -0.0544  0.1246 -0.0613
    1W        W44547  26.005   5.376   0.907  0.1711  0.2078 -0.1226
    1W        W44548  13.003   3.250   8.956  0.0178 -0.0241  0.0720
    1W        W44549  19.755  14.361   0.144  0.0350  0.4200 -0.0317
    1W        W44550  26.946  22.679   2.019  0.0093  0.1434 -0.0034
    1W        W44551   2.281  12.052   3.089 -0.2401  0.1802  0.1211
    1W        W44552   2.623  27.678   3.700  0.0835 -0.0527 -0.0588
    1W        W44553  17.240  11.040   9.324 -0.3300  0.0598  0.0195
    1W        W44554  21.277   6.749   8.220 -0.0927 -0.2834  0.3517
    1W        W44555   9.685   6.816   9.501 -0.1722 -0.0947 -0.0325
    1W        W44556  18.618  25.966   2.635  0.1837  0.1784  0.4556
    1W        W44557   8.713  15.509   9.897  0.0592 -0.0269  0.3208
    1W        W44558   8.100  21.598   1.490 -0.0792  0.1136 -0.1016
    1W        W44559  20.070   6.499   0.049 -0.0187  0.1401  0.0296
    1W        W44560  19.859   2.709   8.723  0.0462 -0.2095 -0.0915
    1W        W44561   1.972  10.367   2.549 -0.0932 -0.0046 -0.0780
    1W        W44562   4.371  20.904   8.191  0.1931  0.0827  0.3120
    1W        W44563  20.283  28.757   7.625 -0.0910  0.4049 -0.1365
    1W        W44564  13.135  21.272   7.551  0.2916  0.0369 -0.0961
    1W        W44565  10.545   8.239   1.439 -0.2095  0.1505  0.0623
    1W        W44566  17.705  10.330   7.629  0.0869 -0.3327 -0.0735
    1W        W44567  19.599   8.813   0.761 -0.2179 -0.0358 -0.1624
    1W        W44568  18.001   6.787   7.387 -0.1019 -0.2295 -0.0198
    1W        W44569  12.845  16.727   1.188 -0.0627  0.3564 -0.1322
    1W        W44570  24.108   0.315   9.989  0.1068 -0.1071 -0.2621
    1W        W44571   2.386  25.752   0.712 -0.1105 -0.1783  0.2994
    1W        W44572   3.114   2.342   8.160  0.0887  0.2017  0.2503
    1W        W44573  23.420  20.019   9.109 -0.3432 -0.2975 -0.1812
    1W        W44574  20.138   0.660   8.268  0.0370 -0.0530 -0.0737
    1W        W44575  15.671  18.105   9.481 -0.2174 -0.1713 -0.0922
    1W        W44576   2.135  14.888   2.905 -0.1240 -0.1631 -0.2067
    1W        W44577  10.867  18.886   1.249  0.0570 -0.2505 -0.0758
    1W        W44578  24.047  17.236   0.567 -0.2108 -0.1165 -0.4054
    1W        W44579  22.862  18.277   8.252 -0.0935  0.1293 -0.2922
    1W        W44580  25.489  22.619   7.146  0.0641  0.0524 -0.1677
    1W        W44581  16.911   1.447   2.128 -0.2125  0.0985  0.1328
    1W        W44582  16.317   2.197   0.091 -0.1130  0.1415  0.0593
    1W        W44583   3.181   9.061   2.125 -0.0699 -0.2401  0.0602
    1W        W44584   0.456   9.813   9.941 -0.1504 -0.1923  0.1663
    1W        W44585   9.360  19.985   6.534  0.2309  0.6649  0.0880
    1W        W44586  10.390  17.635   8.405  0.0105 -0.0144 -0.2071
    1W        W44587   6.597  24.347   2.478  0.2865  0.0735  0.0224
    1W        W44588  11.508  19.595   2.225 -0.1127 -0.4031 -0.3356
    1W        W44589  22.473  21.464   9.277  0.0909 -0.3455  0.1617
    1W        W44590  20.418  25.007   1.346 -0.0538 -0.0504  0.3321
    1W        W44591  10.037  27.585   1.343 -0.1661 -0.1640  0.1838
    1W        W44592  27.167   5.081   3.551 -0.0315  0.1856 -0.2089
    1W        W44593  15.684  17.302   5.840  0.0150 -0.0713 -0.0342
    1W        W44594   1.121  26.196   3.499  0.2634  0.3950 -0.1206
    1W        W44595  15.863   4.327   9.568 -0.0221  0.1669 -0.1965
    1W        W44596  22.109   2.825   6.835  0.0643  0.0115 -0.0762
    1W        W44597  23.704  21.616   1.105  0.2115 -0.1711 -0.0610
    1W        W44598  16.720  16.667   1.567 -0.1638  0.0077  0.0750
    1W        W44599  28.256   9.032   3.776 -0.0466  0.0818  0.0609
    1W        W44600  10.490   0.721   0.707 -0.0407  0.0625  0.2742
    1W        W44601  20.569  12.642   9.847  0.4166  0.2758  0.2337
    1W        W44602  27.876   3.629   1.320 -0.2637  0.0057  0.2713
    1W        W44603  20.361  23.196   7.578 -0.1233  0.1176  0.1084
    1W        W44604  18.930  12.832   0.592 -0.2529 -0.1053  0.1005
    1W        W44605   5.656  22.722   8.457  0.0722  0.1340  0.0572
    1W        W44606  10.685  21.619   2.408  0.4551  0.0798 -0.0136
    1W        W44607   6.128  19.036   2.502 -0.0897  0.3120  0.0424
    1W        W44608   0.707   6.087   0.275  0.1179 -0.1019  0.1552
    1W        W44609  20.430  17.718   2.196  0.1214  0.0722  0.1877
    1W        W44610  25.523  13.062   9.424  0.2659  0.2867 -0.1614
    1W        W44611  13.326   4.630   8.857 -0.1300  0.1352  0.1448
    1W        W44612  20.136  11.249   1.472  0.2627 -0.2016  0.2050
    1W        W44613   0.855   0.796   0.663 -0.0395 -0.0991  0.1654
    1W        W44614  25.933  13.932   6.984  0.0732  0.1005  0.0664
    1W        W44615  20.097  10.166   0.302  0.2290 -0.3564  0.0536
    1W        W44616  10.645  16.859   1.927  0.4254 -0.0865  0.2323
    1W        W44617   2.578  26.354   1.294 -0.1053 -0.0063  0.0003
    1W        W44618   4.639   7.214   2.839 -0.0496 -0.1472  0.1543
    1W        W44619   6.838  11.509   6.824 -0.1133  0.2863  0.1719
    1W        W44620   3.737  21.270   2.110 -0.3912  0.0932 -0.1757
    1W        W44621   5.037  25.148   1.080  0.0079  0.0150  0.1349
    1W        W44622   9.913  10.300   5.783 -0.0916  0.1611 -0.0484
    1W        W44623  20.165   6.121   6.226  0.1043 -0.0358 -0.3241
    1W        W44624  21.130   1.005   9.081  0.2017  0.0287  0.0618
    1W        W44625  26.701   9.509   0.271  0.2278 -0.1319 -0.0594
    1W        W44626  11.492   8.785   1.726  0.0389 -0.1211 -0.1931
    1W        W44627   5.472  25.823   8.672  0.0475  0.1645 -0.1945
    1W        W44628  10.390  25.889   9.812 -0.0568 -0.3734 -0.2892
    1W        W44629  25.112  23.163   0.863  0.2754  0.4912  0.0024
    1W        W44630  14.929   5.437   7.713 -0.2623 -0.1216 -0.0413
    1W        W44631   9.632  18.671   0.399 -0.4245  0.1224 -0.2512
    1W        W44632  13.428   7.156   1.171  0.2385  0.1867  0.1295
    1W        W44633  25.017  17.372   1.567  0.2925 -0.1672  0.0019
    1W        W44634   9.346   8.223   1.001  0.1047 -0.0736  0.0116
    1W        W44635  23.741   5.596   9.209 -0.0143  0.1979 -0.1408
    1W        W44636  18.324  17.606   6.408  0.0683  0.0467 -0.1618
    1W        W44637  28.450  14.373   2.278  0.1511  0.0603  0.1676
    1W        W44638  11.262  23.590   7.322 -0.1056  0.1665  0.0065
    1W        W44639  18.278  22.917   9.939  0.0963  0.2396 -0.1517
    1W        W44640  24.336   1.549   7.505 -0.1225 -0.3116 -0.0413
    1W        W44641   9.514  21.493   3.273  0.2307 -0.2317  0.1323
    1W        W44642  27.316   7.405   7.758  0.0796  0.1562 -0.1369
    1W        W44643  20.913  10.425   8.814  0.0355  0.0114 -0.0266
    1W        W44644  25.293   2.375   8.268  0.0399  0.0461 -0.1241
    1W        W44645  27.436  18.014   0.294 -0.1486  0.1657 -0.0751
    1W        W44646  11.448  20.677   9.500  0.3641 -0.0853  0.0383
    1W        W44647  24.418  17.628   2.308 -0.2483 -0.1781  0.2030
    1W        W44648  11.198  12.182   0.919 -0.0166 -0.1428  0.3769
    1W        W44649  27.028   3.070   1.133 -0.1524  0.0149  0.3163
    1W        W44650  26.468   4.355   8.800  0.2258  0.2291 -0.2709
    1W        W44651   5.482   3.271   9.765 -0.0748  0.0181  0.1512
    1W        W44652   4.805  10.202   2.470 -0.0614  0.0327  0.1208
    1W        W44653  23.345  19.200   1.248 -0.0424 -0.1070  0.0956
    1W        W44654  15.800  17.509   0.123  0.2770  0.1754 -0.3844
    1W        W44655   0.679  14.056   0.223 -0.2235 -0.0615  0.0940
    1W        W44656   1.645   1.550   3.629 -0.0377  0.2776  0.0979
    1W        W44657  24.374  23.645   2.585 -0.0991 -0.2859  0.1057
    1W        W44658   8.733   4.458   8.043 -0.0039 -0.2046 -0.1322
    1W        W44659  12.635   1.099   1.224 -0.1977  0.0136  0.1589
    1W        W44660   7.627  25.660   9.797  0.0461  0.1083 -0.1025
    1W        W44661  11.942  27.055   8.957  0.0913 -0.0418 -0.1159
    1W        W44662   6.011  12.834   7.852  0.1020 -0.1198 -0.1536
    1W        W44663  17.111   9.488   9.106  0.2297  0.2396  0.0258
    1W        W44664  14.989  23.177   2.739 -0.1454 -0.0918  0.1635
    1W        W44665  20.866   0.915   1.208  0.1057 -0.1544 -0.1663
    1W        W44666   5.766  25.457   9.731 -0.0539  0.3299 -0.1723
    1W        W44667  21.708  17.655   2.569  0.3278 -0.2912 -0.1650
    1W        W44668   5.095   5.834   2.891  0.0502 -0.1573 -0.5533
    1W        W44669  17.461  10.341   0.553 -0.1791 -0.1818  0.2755
    1W        W44670  11.294  27.632   1.750  0.0245 -0.1351 -0.3119
    1W        W44671   8.336  18.990   0.254 -0.0258 -0.2221 -0.1595
    1W        W44672   4.864   8.059   6.902  0.2179 -0.0828 -0.1409
    1W        W44673   3.395  16.390   0.734  0.1687  0.0572  0.1085
    1W        W44674   7.502   5.267   1.936 -0.0231  0.1095  0.1184
    1W        W44675  24.661  25.414   2.854 -0.1254 -0.0481 -0.3006
    1W        W44676  15.863  24.185   9.799 -0.0022 -0.2486  0.4170
    1W        W44677   4.932   8.499   3.151  0.1925  0.0866  0.3018
    1W        W44678   1.519   9.730   0.888  0.2099 -0.0177  0.1870
    1W        W44679  24.751  21.869   8.271 -0.2312  0.0673  0.2739
    1W        W44680   7.453   4.602   0.683  0.3491 -0.0111  0.0046
    1W        W44681   7.425  23.327   7.358  0.2727  0.0322 -0.1993
    1W        W44682   6.644   6.959   2.004  0.0931 -0.1478 -0.0719
    1W        W44683   7.665  13.449   6.536 -0.0849  0.1256 -0.1395
    1W        W44684   4.465  19.059   8.567  0.0796 -0.3965 -0.0388
    1W        W44685  22.273  28.417   8.161 -0.5641 -0.1305 -0.0694
    1W        W44686  20.685   3.963   9.383  0.1789  0.1773  0.2158
    1W        W44687   5.039   4.638   9.021 -0.2362  0.3323 -0.1981
    1W        W44688   4.934  11.024   3.382  0.0222 -0.0512  0.0330
    1W        W44689   0.417  28.504   8.536  0.0583  0.0916 -0.0572
    1W        W44690   3.485   1.993   8.124  0.0652 -0.5049 -0.0577
    1W        W44691   1.678  10.040   2.364 -0.2444  0.3484  0.1547
    1W        W44692   3.985   1.446   7.917 -0.4113  0.1434  0.1394
    1W        W44693   1.498   5.885   3.617 -0.0509  0.1335  0.2319
    1W        W44694  20.241   9.754   0.112 -0.0888  0.0790 -0.0160
    1W        W44695   8.779   8.061   0.264  0.0282 -0.0044  0.1295
    1W        W44696   3.342   2.468   7.330  0.3928  0.1642  0.0542
    1W        W44697  24.458  20.062   8.181 -0.1752  0.1391  0.0549
    1W        W44698   0.298  17.859   2.251  0.0309 -0.1822  0.0237
    1W        W44699   5.246  19.614   2.723 -0.3722 -0.0679  0.1513
    1W        W44700  25.663  11.625   2.523 -0.1209 -0.1366 -0.0813
    1W        W44701  25.323  23.840   2.898  0.0181 -0.0061  0.1856
    1W        W44702   2.924  14.473   8.731  0.0804  0.0324 -0.2861
    1W        W44703  19.608  26.850   3.030 -0.1098 -0.2675 -0.0993
    1W        W44704  17.544  15.637   0.460 -0.0790 -0.1319 -0.0882
    1W        W44705   9.587  27.892   2.227  0.2188  0.2785 -0.1460
    1W        W44706  17.204   5.293   9.731  0.1340  0.2349  0.0318
    1W        W44707  10.127  16.654   1.166  0.1548  0.0020 -0.1620
    1W        W44708  12.675  28.841   0.316  0.2434  0.2043  0.0530
    1W        W44709  28.229  12.398   1.871 -0.2097  0.1131  0.0199
    1W        W44710  19.213  24.299   9.972  0.1720  0.1918 -0.0540
    1W        W44711   0.874  18.124   0.921  0.0525  0.0145 -0.0013
    1W        W44712  12.821  25.201   2.108  0.1917 -0.2533  0.1378
    1W        W44713  18.433  18.794   0.736 -0.0119 -0.1463  0.0101
    1W        W44714  19.090   5.530   0.052 -0.4010  0.2193  0.3630
    1W        W44715  24.876   8.502   9.109 -0.0999 -0.1325  0.0324
    1W        W44716  12.271  27.725   9.614 -0.4136  0.0488 -0.0767
    1W        W44717   6.047  10.174   7.240  0.0074 -0.1369 -0.1805
    1W        W44718  15.169  12.905   2.611  0.0374 -0.0238  0.3373
    1W        W44719  10.067   2.608   9.433  0.1330  0.1984 -0.0335
    1W        W44720  16.520  20.174   7.965 -0.1329  0.4729  0.2126
    1W        W44721  26.238  22.825   8.974 -0.0161  0.0459 -0.1022
    1W        W44722   8.561  27.205   1.204 -0.0358 -0.0955 -0.1057
    1W        W44723   9.267  10.324   0.704  0.2082  0.0795 -0.1673
    1W        W44724   7.727   7.839   6.019  0.3696 -0.1176  0.2453
    1W        W44725  11.929  14.274   1.475 -0.2131 -0.3356  0.2195
    1W        W44726  10.633  26.824   0.437 -0.3485 -0.1193 -0.0859
    1W        W44727  12.967  14.857   1.987 -0.0669 -0.1532  0.0242
    1W        W44728   2.139  14.386   9.228  0.0784 -0.1688 -0.0169
    1W        W44729   5.348   5.016   8.295 -0.0136  0.2256 -0.2156
    1W        W44730  28.388   9.268   8.162 -0.1976 -0.0015  0.0986
    1W        W44731  16.992  18.610   9.830  0.1955  0.1204 -0.1289
    1W        W44732   2.226  18.072   0.304  0.0980  0.1228  0.1771
    1W        W44733  21.564  24.557   8.936  0.4031 -0.1348 -0.2519
    1W        W44734  15.987   7.801   7.156  0.2585  0.0015 -0.2969
    1W        W44735  26.041  19.183   8.225  0.0188  0.0626 -0.1116
    1W        W44736   2.535  21.311   0.975  0.0519 -0.4146  0.1283
    1W        W44737  27.192   9.246   2.410 -0.0479 -0.2531 -0.0845
    1W        W44738  23.211  26.359   1.382 -0.3674  0.0880 -0.2187
    1W        W44739   2.901   4.595   0.126  0.1088  0.0773  0.1023
    1W        W44740   2.865  25.060   9.320 -0.1741  0.1471 -0.0360
    1W        W44741  14.645  20.627   0.741  0.1393  0.1183 -0.0950
    1W        W44742   2.212   6.245   1.897  0.0866 -0.0475  0.3010
    1W        W44743  15.325  10.215   9.372 -0.1201  0.2149 -0.2939
    1W        W44744   5.857  28.546   3.310  0.0737 -0.1045  0.0795
    1W        W44745  20.827   9.309   8.256 -0.2399  0.2936  0.0001
    1W        W44746  17.596  21.956   0.353  0.2533  0.1669  0.1347
    1W        W44747  28.712  19.322   8.096  0.0270  0.1163  0.3295
    1W        W44748   8.629  19.712   8.149 -0.1287 -0.2052  0.0861
    1W        W44749   2.776   6.510   9.699  0.1650 -0.1454 -0.2679
    1W        W44750   6.789  26.983   1.562 -0.0373  0.0923  0.2889
    1W        W44751   6.253  14.960   2.223 -0.1079 -0.3263  0.1605
    1W        W44752   7.137  13.533   8.684  0.3049 -0.2261  0.1381
    1W        W44753  27.088  19.312   8.084  0.0472  0.0471 -0.0275
    1W        W44754  25.950  16.189   7.944  0.3104  0.0038 -0.0664
    1W        W44755   5.063  19.138   6.948  0.1268  0.3391 -0.0116
    1W        W44756   9.534   0.848   0.553 -0.3392  0.0662 -0.2398
    1W        W44757  26.417  16.849   8.235  0.1355 -0.1456  0.1098
    1W        W44758   6.826  27.340   0.277  0.0277 -0.1143 -0.0265
    1W        W44759  13.609  22.800   2.350  0.1062 -0.1864  0.0789
    1W        W44760   8.411   2.308   1.619 -0.1181  0.0142 -0.0386
    1W        W44761  16.071  28.295   9.741 -0.1493  0.4461  0.2253
    1W        W44762  18.764  17.282   7.250  0.3185  0.1605  0.0209
    1W        W44763  12.651  22.519   8.143 -0.2105  0.1187  0.2434
    1W        W44764  21.879  22.443   7.549  0.3571 -0.2377 -0.0509
    1W        W44765  13.752  25.388   2.452  0.3334 -0.2168 -0.0371
    1W        W44766   7.737  28.208   1.805 -0.1004 -0.3329  0.0097
    1W        W44767  27.327  14.374   8.090 -0.0852  0.1476 -0.1199
    1W        W44768  15.899   2.899   7.247 -0.0871 -0.1015  0.0487
    1W        W44769   8.445  23.189   0.434 -0.3909 -0.0901 -0.1373
    1W        W44770   5.338  27.184   1.661  0.1112  0.1046  0.0890
    1W        W44771  23.291  12.554   1.507 -0.0218  0.0525  0.0610
    1W        W44772  14.779  11.185   0.980 -0.3688 -0.1676 -0.0471
    1W        W44773  17.178   9.680   0.280 -0.3920 -0.0198 -0.2449
    1W        W44774  16.693  24.088   0.522  0.0010  0.0510 -0.3068
    1W        W44775  25.107  18.870   8.025 -0.0090 -0.0526  0.2119
    1W        W44776  25.590   2.425   8.748 -0.3449 -0.0706  0.0776
    1W        W44777  17.986   9.744   7.007  0.0360 -0.1851 -0.2213
    1W        W44778  11.456   3.849   1.237 -0.1058  0.1588 -0.3028
    1W        W44779  25.659  21.620   9.026 -0.1993 -0.1844  0.0849
    1W        W44780  23.383   2.718   1.639 -0.1983 -0.1886 -0.1059
    1W        W44781  19.770  16.162   2.122 -0.2329 -0.1950 -0.0206
    1W        W44782  20.548  17.640   0.690  0.0338 -0.0344  0.0908
    1W        W44783   7.822   9.524   0.010 -0.0274  0.0971  0.1509
    1W        W44784   6.521  12.718   7.934  0.2257 -0.0885  0.0125
    1W        W44785  20.111  25.888   9.054  0.1523 -0.2334 -0.0193
    1W        W44786  24.544   9.510   1.114 -0.2998 -0.0582 -0.0676
    1W        W44787   1.462  28.577   9.670  0.2287  0.0401 -0.0670
    1W        W44788   9.324  10.141   1.195 -0.0543  0.2740  0.0561
    1W        W44789   3.149  24.638   3.092  0.1920  0.1815 -0.0713
    1W        W44790  12.885  17.921   8.109  0.3229 -0.0148  0.1713
    1W        W44791  13.165   0.527   1.358  0.3192 -0.0190  0.2333
    1W        W44792  14.269  21.448   8.881 -0.0276  0.1658 -0.0034
    1W        W44793  21.490  10.496   8.809  0.2216 -0.0380 -0.3111
    1W        W44794  14.580  10.392   8.899  0.3693  0.0828  0.1402
    1W        W44795  17.295  24.451   1.005 -0.3516  0.1324  0.0878
    1W        W44796   3.998   9.723   6.802  0.2190  0.1074  0.0916
    1W        W44797  22.209  13.227   0.840  0.1059 -0.0482  0.0873
    1W        W44798  24.140  17.721   2.869  0.1649  0.1311 -0.0993
    1W        W44799   3.570   3.392   7.296 -0.2214 -0.1035  0.0298
    1W        W44800  12.516   1.274   1.769  0.1430 -0.1664  0.1960
    1W        W44801  10.092  22.543   0.389  0.2104  0.0705  0.2479
    1W        W44802   7.752   3.646   2.125 -0.0518 -0.1387 -0.1641
    1W        W44803  21.095   2.305   2.508  0.1869 -0.1192  0.0237
    1W        W44804  21.463  20.186   8.622 -0.1117  0.1991  0.2952
    1W        W44805  11.828   0.095   1.228 -0.0637 -0.1106  0.1504
    1W        W44806   7.130  26.203   9.328  0.0241  0.2676 -0.0637
    1W        W44807   2.818  16.154   2.601 -0.3247 -0.0449  0.1144
    1W        W44808  15.188  19.358   8.429 -0.0451  0.0030  0.0051
    1W        W44809  24.631  19.149   9.332  0.0637 -0.3183  0.1152
    1W        W44810  15.810  12.476   7.272 -0.0294  0.0690 -0.1585
    1W        W44811  27.553  22.740   3.433 -0.1148  0.0259 -0.1129
    1W        W44812   3.542  23.557   9.629 -0.1814  0.1184  0.2489
    1W        W44813  18.324   2.048   9.873  0.2050  0.0232  0.3342
    1W        W44814   4.547  17.672   2.143  0.0107 -0.1805  0.2464
    1W        W44815  12.716   8.041   9.430  0.3290 -0.2101  0.0334
    1W        W44816  17.624   7.299   0.633 -0.0639  0.0355  0.0078
    1W        W44817  27.892  10.284   0.208  0.1957 -0.0917 -0.2523
    1W        W44818  13.524  15.501   9.124 -0.1642  0.0788 -0.2638
    1W        W44819  17.653   4.757   8.476 -0.1522  0.1442 -0.0188
    1W        W44820  11.725  15.752   6.675 -0.0755  0.2713 -0.1111
    1W        W44821   9.736  26.467   8.388 -0.1140 -0.1097  0.0317
    1W        W44822  10.990   3.777   0.304  0.0798 -0.2480 -0.0015
    1W        W44823   0.708   9.643   7.749  0.1631 -0.2598 -0.1345
    1W        W44824  18.547   9.051   7.234  0.2320 -0.2439  0.0870
    1W        W44825   4.689  16.579   1.918 -0.1667  0.0672  0.0562
    1W        W44826  27.230  20.391   1.025  0.2694  0.0093 -0.0654
    1W        W44827   5.386  20.783   3.095 -0.1132 -0.0782 -0.0249
    1W        W44828   4.103  22.456   2.214  0.1572  0.1808 -0.2983
    1W        W44829  12.124   1.692   7.044 -0.0056  0.1938  0.1439
    1W        W44830   6.056  27.282   8.596  0.2352  0.0297 -0.1332
    1W        W44831   8.946  26.954   2.025  0.5240  0.1548 -0.0300
    1W        W44832  16.848  15.246   7.092 -0.2775 -0.0564  0.1485
    1W        W44833   4.687  24.023   0.755  0.4651 -0.5194  0.2439
    1W        W44834  16.046   3.941   1.067  0.1930  0.1795 -0.1464
    1W        W44835  21.029   6.098   8.277 -0.1081  0.0804 -0.1003
    1W        W44836  25.067  12.027   7.237 -0.0260  0.0836 -0.3187
    1W        W44837   4.262  10.771   7.541  0.3333 -0.0254  0.2738
    1W        W44838   7.462   6.446   7.741 -0.1557  0.1154  0.1732
    1W        W44839   1.787   3.842   2.106  0.0081  0.0751 -0.1110
    1W        W44840   1.491  15.469   2.426 -0.1014  0.0034 -0.0060
    1W        W44841   6.355   4.486   9.931 -0.2265  0.0352  0.1287
    1W        W44842  24.805  25.933   3.539 -0.3155 -0.1942 -0.0228
    1W        W44843   9.991   6.126   1.775 -0.3276 -0.0158  0.0788
    1W        W44844  21.920  11.198   8.453 -0.0676  0.0828  0.0842
    1W        W44845  18.620  22.330   9.391 -0.2447 -0.0885  0.1038
    1W        W44846  13.629   4.845   9.745  0.4561 -0.0559 -0.0450
    1W        W44847  21.895   1.727   9.272  0.0490 -0.4150 -0.0527
    1W        W44848  23.941  22.466   2.413 -0.1294  0.1895  0.1026
    1W        W44849  13.052  20.807   7.751 -0.1541  0.0059 -0.1629
    1W        W44850   5.728   9.507   6.763  0.1264 -0.0900  0.2784
    1W        W44851   1.747  24.199   1.961 -0.1861 -0.1034 -0.2522
    1W        W44852   1.720   8.418   9.667 -0.3267  0.1271  0.2034
    1W        W44853  12.254  12.053   8.930 -0.0620  0.0750 -0.0096
    1W        W44854  17.751  24.758   1.026 -0.0309  0.0341  0.0209
    1W        W44855  18.092  26.767   1.935  0.2897  0.0698  0.0415
    1W        W44856  15.631  24.363   8.893 -0.1207  0.1125 -0.3479
    1W        W44857  19.449  10.617   7.592 -0.5668 -0.0926  0.2964
    1W        W44858   6.251  20.399   9.594 -0.2112  0.1779 -0.1933
    1W        W44859   9.220  11.389   7.498  0.1869  0.3241 -0.0586
    1W        W44860  13.570   4.000   9.888 -0.1112 -0.1735 -0.3090
    1W        W44861  11.278  16.820   2.617 -0.0686  0.3646  0.1628
    1W        W44862  21.408  14.078   9.854 -0.0233 -0.0606  0.0328
    1W        W44863   2.611  14.932   9.717  0.0801  0.2303  0.1055
    1W        W44864   7.562  14.335   9.597 -0.2173 -0.1555  0.0248
    1W        W44865  10.022   8.452   9.842  0.2616 -0.2234 -0.3017
    1W        W44866   2.883  13.504   7.598  0.1209  0.0401 -0.5085
    1W        W44867  27.599   6.154   0.412 -0.1484  0.1973  0.0237
    1W        W44868   7.962   8.362   8.723 -0.2390 -0.0689 -0.0598
    1W        W44869  17.591  21.175   9.116  0.0493 -0.3431  0.1939
    1W        W44870   7.785  12.599   8.739 -0.0031  0.3388 -0.0922
    1W        W44871  15.578  22.745   0.774  0.1001 -0.0595 -0.0078
    1W        W44872  26.372   7.670   3.281  0.1874 -0.4266 -0.3259
    1W        W44873   7.718   4.034   2.717  0.1486 -0.1174  0.2632
    1W        W44874  12.717   2.939   8.684 -0.3125  0.1034  0.0767
    1W        W44875  18.701  26.363   0.286  0.0665  0.1737  0.1509
    1W        W44876  23.027  22.905   7.709 -0.0213  0.1617 -0.0610
    1W        W44877  18.092  11.229   6.864  0.0639  0.0701  0.2564
    1W        W44878  25.497  27.487   2.403 -0.1491 -0.0005  0.0644
    1W        W44879  26.708   2.203   2.321  0.1607 -0.3463  0.0031
    1W        W44880   7.761  15.158   0.230  0.0096  0.0140  0.0726
    1W        W44881   8.801  15.876   9.470  0.1256 -0.3524 -0.2038
    1W        W44882  25.406  28.423   9.042  0.3339  0.0021  0.2058
    1W        W44883   2.397   2.233   3.551  0.0887 -0.0571 -0.0389
    1W        W44884   3.275  13.603   0.130  0.0506  0.1536  0.3162
    1W        W44885  28.705   7.586   9.840 -0.1768 -0.1004 -0.1481
    1W        W44886  28.597  28.189   1.531  0.1344  0.0279  0.0160
    1W        W44887   8.112   4.222   3.239  0.2635  0.1883  0.0515
    1W        W44888  26.402   0.627   8.697  0.0256 -0.2927  0.3153
    1W        W44889   5.788   0.448   1.196 -0.0413 -0.1112 -0.3725
    1W        W44890   2.108  16.074   1.393  0.0299  0.0371  0.1019
    1W        W44891  25.475  15.809   7.840  0.0022 -0.1051 -0.1516
    1W        W44892   5.826   3.847   0.839  0.1351 -0.1037  0.0778
    1W        W44893   4.907  12.324   0.399  0.2195  0.2368 -0.2202
    1W        W44894  13.246  21.450   7.138  0.1100 -0.1264 -0.0437
    1W        W44895   1.502  25.469   0.372  0.0211  0.0587  0.0171
    1W        W44896  11.672  21.539   9.008  0.1274 -0.0910  0.0340
    1W        W44897  11.455  28.640   6.866 -0.1397 -0.1675  0.0385
    1W        W44898   6.664   7.831   2.940  0.1274  0.1811 -0.2413
    1W        W44899  20.627  10.704   7.437 -0.4617  0.2232  0.2418
    1W        W44900  24.812  22.623   1.508  0.0504  0.1157 -0.0332
    1W        W44901  28.837  19.502   8.499 -0.1134 -0.0588 -0.0884
    1W        W44902   9.293  18.290   8.232 -0.0906  0.1554 -0.0581
    1W        W44903  27.559  11.440   7.114  0.1629  0.0392 -0.3681
    1W        W44904  25.793   6.570   8.516  0.2823  0.1350  0.2636
    1W        W44905  14.387   4.838   0.986  0.0329 -0.0244 -0.3902
    1W        W44906   7.695  24.580   7.591 -0.0370  0.2167 -0.1687
    1W        W44907  25.467  23.303   1.244 -0.1420  0.1945  0.1558
    1W        W44908  21.825  18.015   9.383 -0.2900  0.1635  0.2153
    1W        W44909  24.160   9.046   8.990 -0.2534 -0.1287 -0.2356
    1W        W44910   7.567   4.609   7.135 -0.0377  0.2323 -0.1582
    1W        W44911  19.293  27.669   0.813  0.0292  0.2724 -0.1104
    1W        W44912  27.534  18.463   9.790 -0.0741 -0.3779  0.0057
    1W        W44913  27.155  24.499   2.135 -0.0248 -0.0285 -0.1502
    1W        W44914   9.288  27.746   1.584 -0.1863 -0.0073  0.3461
    1W        W44915  23.195  15.884   1.270 -0.2441 -0.0782  0.1150
    1W        W44916   0.417  10.908   8.109 -0.3070  0.2906  0.2069
    1W        W44917   8.050  13.381   6.918  0.0241  0.2626 -0.1144
    1W        W44918  16.541   3.702   6.205 -0.1267  0.1908 -0.2052
    1W        W44919  23.843   3.924   2.061 -0.0084 -0.1453 -0.1904
    1W        W44920  25.847   4.843   9.157 -0.1840  0.0083 -0.0389
    1W        W44921  20.107  25.873   7.559  0.0034  0.1033  0.0830
    1W        W44922   1.386  21.287   8.610  0.1798 -0.4010  0.0008
    1W        W44923  10.843  13.187   0.361 -0.0101  0.1328 -0.0704
    1W        W44924  10.003   2.269   0.050 -0.0345 -0.0664 -0.0209
    1W        W44925  10.559   6.739   0.570  0.1206  0.2320 -0.1924
    1W        W44926  11.824  21.078   1.325 -0.0082  0.0566 -0.1957
    1W        W44927  27.822  18.171   0.621  0.1488 -0.0701 -0.1485
    1W        W44928   0.205  20.665   1.995 -0.0516 -0.2987  0.1499
    1W        W44929  12.823  20.676   9.031 -0.2481 -0.0889 -0.1226
    1W        W44930  16.896  21.710   1.920  0.2610  0.3736 -0.3987
    1W        W44931   7.158   0.161   1.909 -0.1883 -0.0891  0.1179
    1W        W44932   0.819  10.876   3.787  0.1975 -0.0539 -0.2405
    1W        W44933  21.193  19.505   6.398 -0.0851 -0.1944  0.1626
    1W        W44934   0.288  28.567   0.431  0.1340 -0.0622  0.0756
    1W        W44935  27.259  14.436   0.009 -0.0893  0.1181 -0.3354
    1W        W44936  12.584  16.750   7.085 -0.0423 -0.1799 -0.0633
    1W        W44937  13.658   0.160   9.764 -0.1560  0.2229 -0.1475
    1W        W44938  15.423  19.767   1.138  0.2204  0.0416 -0.0189
    1W        W44939  21.555   6.664   6.465 -0.0171  0.3396 -0.1233
    1W        W44940  24.131  10.286   1.871 -0.1906 -0.0208  0.0077
    1W        W44941   8.486  13.320   6.241 -0.1079  0.1997 -0.1821
    1W        W44942  23.370   7.672   8.928 -0.1145  0.2382  0.0873
    1W        W44943  28.273  25.116   2.122  0.0385 -0.2909  0.0362
    1W        W44944  21.228  10.576   8.396  0.1342 -0.0248  0.1506
    1W        W44945   9.245  23.347   7.984  0.2315  0.0537  0.0164
    1W        W44946   4.700  25.323   1.342 -0.0562  0.1241  0.2061
    1W        W44947  21.134   8.431   0.872 -0.2434 -0.0785  0.1602
    1W        W44948  14.981   5.806   0.521 -0.0048  0.5331 -0.1075
    1W        W44949   3.654  13.138   1.743 -0.1867 -0.1519  0.0587
    1W        W44950   5.143   7.128   7.798 -0.3504  0.2310  0.0312
    1W        W44951  27.606   8.431   0.165  0.0174 -0.2969  0.1776
    1W        W44952   5.123   0.277   3.446 -0.1596  0.3943  0.0337
    1W        W44953  28.716  21.011   8.801  0.1421 -0.0090 -0.0059
    1W        W44954  10.701  10.117   8.693 -0.0119  0.1967  0.0375
    1W        W44955   1.487  14.176   2.731 -0.3175  0.1679 -0.0717
    1W        W44956  23.703   6.884   7.178  0.1698  0.2732  0.1293
    1W        W44957  22.308  12.043   2.432 -0.0447  0.0662 -0.0776
    1W        W44958  15.571   7.111   9.152  0.0480 -0.1158  0.0197
    1W        W44959  20.101   9.746   9.045 -0.0253 -0.2591 -0.0620
    1W        W44960  15.474   5.012   8.183 -0.0936 -0.1773  0.0492
    1W        W44961   8.544   4.092   0.680  0.0008 -0.1207 -0.0929
    1W        W44962  20.470   5.686   0.037 -0.4553 -0.2552  0.2203
    1W        W44963  21.129  14.467   8.343  0.1682 -0.3522  0.1872
    1W        W44964  21.702  12.879   6.801  0.2122  0.0695  0.0467
    1W        W44965   5.266   5.773   8.020  0.0906  0.1263 -0.0907
    1W        W44966  18.365   2.662   0.749 -0.0854  0.2364 -0.3562
    1W        W44967  17.252   3.844   8.263  0.0204  0.1009 -0.1747
    1W        W44968  11.729   3.367   3.094  0.0209 -0.0936  0.1434
    1W        W44969  12.880  23.566   2.098  0.0938 -0.2914  0.1172
    1W        W44970  17.981  17.906   8.568 -0.0144 -0.0628 -0.2649
    1W        W44971   8.106  13.406   0.988 -0.0014  0.0051 -0.1611
    1W        W44972   0.768  18.097   3.139 -0.2917 -0.0674 -0.1904
    1W        W44973  16.228   3.433   9.636 -0.2093 -0.0349 -0.1532
    1W        W44974   5.340   7.522   7.940  0.3732  0.0531 -0.0795
    1W        W44975   7.376   9.675   1.422 -0.0971 -0.0271  0.1548
    1W        W44976  10.839  10.451   8.367 -0.1218 -0.0140 -0.3266
    1W        W44977  17.729  13.447   2.578  0.0515  0.1887  0.0064
    1W        W44978   8.711  28.233   1.121 -0.1120 -0.1057  0.1043
    1W        W44979  16.131  28.696   9.369 -0.3039 -0.0480 -0.0510
    1W        W44980  12.674  19.297   0.749 -0.0343  0.4937  0.1934
    1W        W44981   7.816  16.675   9.452  0.3360  0.2392 -0.2284
    1W        W44982  12.083  23.975   9.891 -0.0830 -0.3025 -0.2397
    1W        W44983  23.005  12.755   8.402  0.3062 -0.0643 -0.0640
    1W        W44984  27.408  25.575   4.042  0.1501 -0.0015 -0.3896
    1W        W44985   0.407   4.398   3.054 -0.0290 -0.0582  0.3853
    1W        W44986   5.664  17.503   8.523  0.2864  0.1668  0.2688
    1W        W44987   3.940  23.325   1.800 -0.0747  0.3956 -0.1257
    1W        W44988  15.891  16.453   1.901  0.1788  0.0610  0.0700
    1W        W44989  17.110   0.451   1.032 -0.1217 -0.2789  0.2067
    1W        W44990  16.732  19.256   6.284  0.0397 -0.2865 -0.2992
    1W        W44991  10.222  27.206   8.148  0.1495  0.1089 -0.0806
    1W        W44992  19.968  11.351   8.042  0.3370  0.0468 -0.1581
    1W        W44993  10.286   1.709   8.299  0.0648 -0.2138  0.0703
    1W        W44994  17.301   1.806   9.964  0.1333 -0.0609 -0.3012
    1W        W44995   1.033   8.430   3.807  0.2364 -0.0076 -0.2144
    1W        W44996   4.820  24.928   1.733  0.1344 -0.2799 -0.0407
    1W        W44997   1.954   2.979   1.405 -0.0681 -0.3474 -0.2510
    1W        W44998  26.172   2.714   0.997  0.1886 -0.0702 -0.0844
    1W        W44999  25.629   8.671   2.179  0.2193 -0.1182 -0.0593
    1W        W45000  21.047  23.496   9.599 -0.2583 -0.1116 -0.0207
    1W        W45001  10.743  21.967   7.653  0.0958  0.2053 -0.1208
    1W        W45002   1.314  28.205   9.957 -0.1538  0.0951  0.2174
    1W        W45003   6.873  27.660   3.424  0.2477 -0.0224 -0.0702
    1W        W45004   7.961   1.984   8.728  0.0354 -0.1038  0.1394
    1W        W45005   4.457  21.154   8.620 -0.0430  0.3291 -0.0189
    1W        W45006   7.374  12.706   9.036  0.1570 -0.0246  0.1196
    1W        W45007  12.017  21.094   8.941  0.0728  0.2144  0.2274
    1W        W45008  12.983  17.011   6.274 -0.3229 -0.3654  0.0372
    1W        W45009  25.360   9.217   8.636  0.0396  0.0667  0.0704
    1W        W45010  18.363   1.343   7.730  0.2193 -0.1770 -0.0814
    1W        W45011  19.656  13.050   1.638  0.0403 -0.2977  0.0318
    1W        W45012   2.978  10.799   1.371 -0.2085 -0.0984  0.3405
    1W        W45013  18.806  19.770   0.425 -0.0585  0.1562  0.1256
    1W        W45014  24.743   1.763   2.479 -0.1037  0.0565  0.0886
    1W        W45015  15.863  10.310   6.525  0.0514 -0.0347  0.1025
    1W        W45016  15.125  19.690   5.958  0.0757 -0.0816  0.2684
    1W        W45017  21.356  16.657   1.828  0.0591 -0.0175 -0.1574
    1W        W45018   7.245   9.412   0.748  0.0652  0.0672 -0.1363
    1W        W45019  13.372  10.521   0.996  0.1686 -0.1965 -0.0405
    1W        W45020  13.060   2.630   5.930 -0.0220 -0.0597  0.1169
    1W        W45021  18.372   2.285   0.317 -0.0758 -0.2673 -0.0846
    1W        W45022  27.906  26.045   2.957  0.1739  0.0973 -0.0873
    1W        W45023   4.948  28.852   1.631 -0.1186 -0.2410 -0.0496
    1W        W45024  23.740  26.243   0.732  0.0555  0.1606 -0.2013
    1W        W45025   0.815   5.452   2.312  0.0848 -0.2116 -0.2403
    1W        W45026   5.326   6.363   8.954 -0.1693  0.0828  0.0573
    1W        W45027   9.955  21.107   3.652 -0.0081 -0.2468  0.0289
    1W        W45028   5.816  17.358   1.328  0.0637 -0.0176  0.1327
    1W        W45029  16.590   7.350   5.527 -0.1885 -0.1352  0.0589
    1W        W45030   8.666  12.536   8.418 -0.2588 -0.0452 -0.0549
    1W        W45031  18.634  14.666   8.247  0.2127 -0.1229 -0.1291
    1W        W45032  20.797  25.762   9.872 -0.0609 -0.3212 -0.0951
    1W        W45033  11.825   0.330   9.880 -0.2484 -0.0191 -0.0134
    1W        W45034  23.647  18.949   8.307  0.0220  0.0051  0.1761
    1W        W45035  23.547  17.342   0.187 -0.0385 -0.1514  0.0937
    1W        W45036  11.692   0.083   1.712  0.1652 -0.0783 -0.1191
    1W        W45037  14.170   3.789   7.760 -0.1836 -0.1129  0.2930
    1W        W45038  24.740   4.265   0.992  0.0307 -0.1649 -0.1168
    1W        W45039   4.751  25.578   3.264  0.0251  0.1116  0.0526
    1W        W45040  28.340  19.476   0.066 -0.0857  0.0003  0.1282
    1W        W45041   5.568   3.701   0.012  0.1074  0.0469 -0.1621
    1W        W45042  13.163  18.288   6.425  0.1793  0.0503 -0.1647
    1W        W45043  20.848   4.669   9.249  0.1621  0.0921  0.1516
    1W        W45044   2.351  25.238   3.101 -0.0057 -0.2844 -0.0228
    1W        W45045  19.969  25.266   1.581 -0.3358 -0.0226 -0.3519
    1W        W45046   1.868  16.997   0.465  0.3351  0.3065 -0.0159
    1W        W45047  11.139  22.390   8.016  0.0613  0.0571  0.0606
    1W        W45048   5.209  20.208   8.134 -0.1194  0.0917 -0.0911
    1W        W45049  26.172   0.289   9.585 -0.1351  0.2383  0.1976
    1W        W45050  11.018  23.773   0.474 -0.0522 -0.2489 -0.0622
    1W        W45051  25.948   5.932   8.861  0.0061 -0.3043 -0.0787
    1W        W45052  19.252  24.401   2.305  0.1168  0.1986 -0.2152
    1W        W45053   2.431  19.603   0.345  0.3432 -0.1793  0.2466
    1W        W45054  14.577  24.688   1.711 -0.0900 -0.2992  0.0189
    1W        W45055  26.859  28.229   2.852 -0.1548  0.0045  0.1070
    1W        W45056  12.048  18.896   3.391  0.0093  0.0854  0.1219
    1W        W45057  20.873  18.554   1.055  0.1318  0.1482 -0.0440
    1W        W45058   6.031   8.417   8.927 -0.3310  0.2784  0.2792
    1W        W45059  22.452   2.072   1.989 -0.3086 -0.0840 -0.2488
    1W        W45060  19.807  19.346   1.006  0.1662 -0.0561  0.1288
    1W        W45061   8.755  23.699   0.989 -0.2425 -0.3353 -0.0098
    1W        W45062  24.511   2.531   7.670  0.1114  0.0504  0.0007
    1W        W45063   8.719  27.461   0.532  0.0133 -0.3142 -0.2071
    1W        W45064  19.512  22.506   1.788  0.1713 -0.0156 -0.0732
    1W        W45065  25.350  12.961   2.693  0.0480 -0.2406  0.2836
    1W        W45066   0.451  13.609   3.103  0.0582  0.3205 -0.0846
    1W        W45067   3.446   0.616   2.469  0.1526  0.1425  0.2175
    1W        W45068   1.492  25.112   8.940  0.2102  0.1612  0.1740
    1W        W45069  23.456  23.476   2.701 -0.0298  0.1101  0.2857
    1W        W45070  16.931  21.558   6.765 -0.1138 -0.3153  0.0083
    1W        W45071  13.245   7.520   6.523  0.0664 -0.0130 -0.2506
    1W        W45072  20.497  13.659   2.665  0.0608 -0.0310 -0.0853
    1W        W45073  20.223  18.028   0.541 -0.1751 -0.0982 -0.0966
    1W        W45074  24.104   2.276   8.477 -0.1003 -0.1175  0.0575
    1W        W45075   3.669  16.207   8.937  0.1943 -0.1595  0.1324
    1W        W45076  15.167   7.179   0.226  0.0491  0.0391 -0.1148
    1W        W45077  28.155   9.676   9.308 -0.1422 -0.2180  0.0620
    1W        W45078  11.410  16.641   8.199  0.2555 -0.3734 -0.0864
    1W        W45079  25.897  21.688   1.781 -0.0649 -0.2228  0.2868
    1W        W45080  12.982   1.362   9.733  0.0401 -0.2574  0.1553
    1W        W45081  10.336  20.711   9.722 -0.0562  0.0322 -0.1573
    1W        W45082   9.522  24.725   9.160 -0.3093 -0.0791  0.0998
    1W        W45083  21.081   8.195   8.538 -0.0169 -0.0516  0.0572
    1W        W45084   9.306   2.307   1.065  0.4881 -0.1109 -0.0108
    1W        W45085  19.810  22.797   9.927  0.3405  0.2406  0.2971
    1W        W45086   2.028   3.507   2.405 -0.1893 -0.0451 -0.3424
    1W        W45087  28.687  22.665   2.507 -0.0597  0.0087 -0.0410
    1W        W45088  14.009  13.203   0.118 -0.2651  0.1797  0.1033
    1W        W45089  21.795   3.084   9.688  0.0289  0.2285  0.0040
    1W        W45090   1.453   0.116   2.876 -0.3163 -0.2635 -0.1099
    1W        W45091  15.380  26.386   3.082 -0.1079  0.0143  0.1573
    1W        W45092  14.522   7.856   0.519  0.0179 -0.0718  0.1104
    1W        W45093   6.593   8.450   9.904  0.0582  0.0577 -0.0011
    1W        W45094  23.741  11.887   6.427 -0.0992 -0.0991 -0.1012
    1W        W45095  12.737  23.489   9.011 -0.3578 -0.0940 -0.1171
    1W        W45096  10.145  23.318   7.898  0.0021  0.2209  0.0809
    1W        W45097   0.643  23.868   0.765  0.0770 -0.0536  0.0501
    1W        W45098  12.522  10.950   8.743  0.0623  0.3003  0.1891
    1W        W45099   8.028  16.631   1.726  0.2416 -0.1270 -0.1236
    1W        W45100   7.367  14.939   0.510 -0.0605 -0.1585 -0.5404
    1W        W45101  25.942  23.668   0.689 -0.2166  0.0686  0.1088
    1W        W45102  24.571   9.508   7.977 -0.2450  0.1328 -0.2231
    1W        W45103  28.872  23.780   8.098 -0.1525  0.1862 -0.0491
    1W        W45104  24.998  12.188   1.553 -0.0820 -0.0563 -0.1985
    1W        W45105  24.230  11.712   6.626 -0.3596 -0.0471  0.2153
    1W        W45106   0.604  28.080   1.664  0.1665  0.0472  0.0032
    1W        W45107  27.348  16.126   0.698  0.1660  0.3535  0.0258
    1W        W45108  26.889  14.086   1.120 -0.2597  0.0844 -0.1520
    1W        W45109   3.178  26.902   2.855 -0.0406  0.1662 -0.1440
    1W        W45110   3.955  28.393   9.672  0.2186  0.1064 -0.1461
    1W        W45111  10.414   7.283   9.376  0.0896 -0.1838 -0.3594
    1W        W45112   1.713  24.806   1.807  0.1077  0.0473 -0.1895
    1W        W45113  18.721   9.251   0.936  0.4176 -0.1010  0.2200
    1W        W45114   4.130   4.113   0.251  0.1320 -0.0136  0.0808
    1W        W45115  23.374  21.233   0.407 -0.1252 -0.1011  0.2389
    1W        W45116   4.957  28.540   9.536 -0.0845  0.0891 -0.0168
    1W        W45117  25.902   8.849   3.163 -0.0945 -0.0132 -0.1112
    1W        W45118   5.002  23.449   9.955  0.1267 -0.0340 -0.0302
    1W        W45119   7.604   8.184   1.901  0.0263  0.0303  0.4644
    1W        W45120  15.755  15.948   9.520 -0.0962 -0.0529  0.2222
    1W        W45121  14.115  19.369   1.270 -0.0757 -0.1502  0.1383
    1W        W45122   6.482   5.220   1.543 -0.0039  0.0686  0.0912
    1W        W45123  24.044  24.389   0.438 -0.0694 -0.0035 -0.1887
    1W        W45124  23.683   1.475   0.446  0.1074 -0.3801 -0.0556
    1W        W45125  18.245  18.624   2.859  0.0533 -0.1354  0.0691
    1W        W45126  21.050   3.929   2.800 -0.0981  0.0210 -0.3486
    1W        W45127  21.739   0.134   2.669 -0.1054  0.1908  0.0673
    1W        W45128  27.849  21.560   0.267  0.1340  0.0579 -0.0861
    1W        W45129   5.194   9.464   9.983  0.0271  0.0601  0.0853
    1W        W45130  25.377   9.637   2.111  0.1558 -0.1541 -0.2436
    1W        W45131   5.986   6.986   2.761 -0.1438 -0.1799 -0.0518
    1W        W45132   7.132   4.196   9.365  0.0475  0.3553  0.0348
    1W        W45133  24.740  27.539   2.395  0.2391  0.1518 -0.1056
    1W        W45134   5.025   5.145   2.366 -0.0687 -0.0777  0.1626
    1W        W45135  12.550  14.359   7.371  0.1556 -0.1188 -0.1354
    1W        W45136   5.832   9.583   2.160  0.1705 -0.1455  0.1588
    1W        W45137   2.517  24.451   1.641 -0.0283  0.2379 -0.0428
    1W        W45138   8.408  16.035   1.276  0.0530  0.2736 -0.0632
    1W        W45139   2.347  23.847   9.846  0.1851 -0.2589 -0.2025
    1W        W45140   1.897   3.896   2.746 -0.2435  0.2509 -0.0158
    1W        W45141  14.680  10.664   6.893  0.3739 -0.2286 -0.0216
    1W        W45142  27.144  12.684   7.236 -0.3252  0.2703 -0.0110
    1W        W45143  28.434   2.203   1.373 -0.2528 -0.1647  0.1164
    1W        W45144   0.522  26.321   0.949  0.0638  0.0747  0.0346
    1W        W45145   7.460  12.548   0.002  0.1002  0.0073  0.1585
    1W        W45146   4.717   5.387   2.778  0.0094  0.2285  0.1485
    1W        W45147   5.039   0.871   9.978  0.1703 -0.1910  0.1356
    1W        W45148  20.885   9.892   7.570 -0.1693 -0.1725 -0.2010
    1W        W45149   8.007  10.343   6.696 -0.1190  0.2815  0.2497
    1W        W45150  15.789   2.932   0.063  0.1270 -0.2716  0.0005
    1W        W45151   7.002  13.941   7.033  0.0253 -0.0087  0.0078
    1W        W45152   3.991  27.288   8.395 -0.1177  0.4708  0.1900
    1W        W45153   3.953   4.271   8.917  0.1585  0.2822  0.2367
    1W        W45154  12.944  27.827   9.720 -0.0118  0.1313 -0.0699
    1W        W45155  14.008  15.070   8.522 -0.0212 -0.1075  0.0064
    1W        W45156  16.098  16.928   2.376  0.0955  0.0472  0.1230
    1W        W45157  18.270  24.434   9.717  0.1559 -0.0824  0.1528
    1W        W45158  13.069  21.466   8.840 -0.0347  0.0009  0.0021
    1W        W45159  16.850   3.920   7.065  0.0338  0.0388  0.3918
    1W        W45160  18.272  20.265   0.562 -0.1489  0.2712 -0.0684
    1W        W45161   6.282   4.116   8.383  0.0810 -0.2172 -0.1085
    1W        W45162  14.637   5.303   1.079 -0.1820 -0.0830  0.1912
    1W        W45163  14.022  18.822   6.792 -0.2949  0.1025 -0.0374
    1W        W45164  27.954  16.852   8.728 -0.0664  0.0113  0.4594
    1W        W45165   2.062  23.205   0.367 -0.2841  0.1300  0.0326
    1W        W45166  18.474  25.250   9.834  0.0972 -0.2282  0.1602
    1W        W45167  22.382  22.482   6.787  0.1773 -0.3044  0.0437
    1W        W45168   4.932  17.125   1.134 -0.1174 -0.1093 -0.0937
    1W        W45169  19.519   3.520   1.736 -0.3560 -0.1930 -0.2040
    1W        W45170   2.817  26.567   2.812 -0.0548  0.1093  0.0615
    1W        W45171   4.554   0.202   9.869  0.1200 -0.0305 -0.0328
    1W        W45172  19.644  10.581   5.947 -0.0677  0.3311  0.1795
    1W        W45173  21.819  21.033   2.849 -0.1118  0.2470  0.1300
    1W        W45174  12.945  21.914   0.203  0.0365  0.2117  0.1013
    1W        W45175  13.543  24.937   0.322 -0.1291  0.0914 -0.1734
    1W        W45176  10.755  18.688   8.454 -0.0534  0.1096  0.0034
    1W        W45177  22.245  20.537   8.887 -0.1735  0.1328 -0.3502
    1W        W45178  17.113  22.603   8.816  0.0479 -0.2221 -0.1967
    1W        W45179  21.567  21.716   1.057  0.0690 -0.1277  0.0028
    1W        W45180  16.895  24.508   7.917  0.1816  0.0301  0.1052
    1W        W45181   4.318  21.881   2.962 -0.3987 -0.3118 -0.1009
    1W        W45182  26.476  22.161   1.482  0.3603  0.1862  0.1778
    1W        W45183  24.371  18.515   1.065  0.3695 -0.1342 -0.0886
    1W        W45184   2.944  23.735   3.721 -0.1571 -0.2453  0.5310
    1W        W45185  12.973  18.048   2.125  0.3157 -0.1130 -0.1482
    1W        W45186   1.365  23.564   3.864 -0.1293 -0.4316  0.3473
    1W        W45187  15.695  11.608   7.700  0.3413  0.2654 -0.0090
    1W        W45188  20.945  12.349   8.524  0.2358 -0.0428  0.0659
    1W        W45189  22.944   1.785   1.694  0.4406  0.0013  0.1830
    1W        W45190  27.191  19.628   3.412  0.0385 -0.0718  0.0719
    1W        W45191   5.679  14.892   9.870  0.1672  0.2011 -0.0823
    1W        W45192  26.332   2.350   1.876  0.0457 -0.0364  0.0362
    1W        W45193   3.371  27.060   1.638 -0.1114 -0.0004 -0.0131
    1W        W45194  15.302  25.233   2.580  0.2679 -0.2410  0.0644
    1W        W45195  27.421  28.125   0.674  0.3017  0.0492  0.1462
    1W        W45196  24.207  27.022   9.040  0.1985  0.1746  0.1898
    1W        W45197   8.344  22.248   0.399 -0.0589 -0.1144  0.0572
    1W        W45198   2.773   9.300   7.811  0.1495  0.2501 -0.0883
    1W        W45199  18.744  19.275   7.027 -0.1284  0.0462  0.6242
    1W        W45200  26.081  15.276   8.803 -0.2374 -0.1358 -0.0103
    1W        W45201   7.479  26.376   9.025  0.0854  0.2364 -0.2292
    1W        W45202  15.733  25.978   7.779  0.3475 -0.0673 -0.1050
    1W        W45203   0.284  25.968   2.568  0.0842  0.0637 -0.3808
    1W        W45204  18.056   9.958   8.204 -0.0863  0.0642 -0.0068
    1W        W45205  25.958  20.786   8.110 -0.0866  0.1045  0.2036
    1W        W45206  27.812  28.816   1.201  0.0214  0.2331  0.1132
    1W        W45207  23.810  11.897   2.241  0.1277 -0.1864  0.1172
    1W        W45208   7.602  15.406   8.650 -0.1336 -0.0939 -0.2222
    1W        W45209  25.262   8.643   7.540  0.0308 -0.0818 -0.0041
    1W        W45210  14.690  14.478   9.065  0.2910 -0.0400 -0.1238
    1W        W45211   0.926  12.451   1.998 -0.1753 -0.0298  0.0695
    1W        W45212  27.411  25.473   0.801  0.0596  0.1323  0.1432
    1W        W45213  17.032  18.123   6.889 -0.0497  0.1382 -0.0081
    1W        W45214   0.728   6.857   3.394  0.0016 -0.0651 -0.1504
    1W        W45215  28.410   4.864   3.656 -0.2068 -0.0932  0.0377
    1W        W45216  19.771   6.810   7.275 -0.2895 -0.2586  0.1482
    1W        W45217  21.711   6.961   1.087 -0.2158 -0.0620 -0.0876
    1W        W45218   5.760  26.206   8.894  0.0120 -0.0866  0.0919
    1W        W45219   9.862  20.147   0.346 -0.0733 -0.2255 -0.0753
    1W        W45220  12.271   9.350   8.235  0.0903  0.0152  0.2262
    1W        W45221  20.257   1.932   9.305  0.0482  0.0254 -0.0441
    1W        W45222  25.280  19.621   6.843 -0.4194  0.0763 -0.0059
    1W        W45223  14.047  19.909   7.585 -0.2189 -0.1481  0.1009
    1W        W45224   3.981  25.728   2.999  0.2505 -0.0392  0.2465
    1W        W45225  25.354  11.060   1.218  0.1450  0.0940 -0.2090
    1W        W45226  17.287   7.178   8.101  0.1746  0.1441 -0.2299
    1W        W45227  25.922   9.057   0.093  0.1983  0.2160  0.0748
    1W        W45228   2.856  23.605   4.186  0.2119  0.1366 -0.2104
    1W        W45229   4.356  22.025   2.413  0.1186 -0.0885  0.2398
    1W        W45230   0.843   9.299   0.291 -0.2591 -0.1479 -0.2934
    1W        W45231  24.077   5.312   7.972  0.2482 -0.1407 -0.0817
    1W        W45232   2.838   1.853   9.836 -0.3141 -0.0595  0.0990
    1W        W45233  19.841  12.282   0.578  0.0085 -0.3642  0.3051
    1W        W45234  26.606  13.284   2.732  0.2257 -0.0266 -0.1345
    1W        W45235   5.637  23.919   0.834  0.2586  0.2238  0.3204
    1W        W45236  26.938   9.775   1.158  0.1407 -0.1321 -0.4753
    1W        W45237  21.542  14.589   0.235  0.2233  0.2516 -0.1320
    1W        W45238   1.255  18.984   2.675 -0.1207 -0.1345  0.1114
    1W        W45239  22.556  24.183   1.146  0.0394 -0.0049 -0.1661
    1W        W45240  23.240   2.260   0.792  0.1249 -0.3598  0.3329
    1W        W45241  10.498  23.251   0.764 -0.0133 -0.0884 -0.1696
    1W        W45242  28.781  19.867   3.227 -0.1583 -0.1090  0.0247
    1W        W45243  12.249  20.718   1.196  0.3231 -0.0784  0.0027
    1W        W45244  28.755  22.316   9.810 -0.1249 -0.1470 -0.0606
    1W        W45245   4.031  23.187   7.970 -0.1286 -0.0296  0.0812
    1W        W45246   5.719   2.392   3.562 -0.1112  0.0465  0.2467
    1W        W45247   0.723  22.281   0.247  0.3683  0.4785  0.1856
    1W        W45248  10.137  18.633   0.670  0.1102  0.3782 -0.0176
    1W        W45249   5.586   9.667   1.249  0.1414  0.0948  0.0408
    1W        W45250  18.960   6.755   6.874 -0.0404  0.1909  0.3833
    1W        W45251  23.601  22.769   2.044  0.0334  0.1216  0.2334
    1W        W45252  23.255   3.877   3.417  0.1709 -0.1036 -0.0840
    1W        W45253   5.518  10.164   7.912 -0.0124 -0.1154 -0.3366
    1W        W45254   7.059  11.473   7.320 -0.0185 -0.1764 -0.0192
    1W        W45255  23.274   0.558   7.873  0.1499  0.3894  0.1189
    1W        W45256  24.351  22.180   2.623 -0.0973  0.0872 -0.1319
    1W        W45257  15.748  14.757   9.095 -0.0058  0.1231 -0.1284
    1W        W45258   4.798  26.230   8.492  0.0604 -0.2182 -0.0906
    1W        W45259  19.348  16.757   7.360  0.3139 -0.0170 -0.0137
    1W        W45260   0.632  26.595   2.903  0.1611  0.1246 -0.1236
    1W        W45261  13.532  20.906   7.606 -0.1213  0.0025  0.2433
    1W        W45262  26.216  10.065   3.464  0.0008  0.0114  0.1059
    1W        W45263   9.752   1.844   1.669 -0.0152 -0.0910 -0.0162
    1W        W45264  11.709  16.653   7.018 -0.2671  0.4203  0.0030
    1W        W45265   5.076  21.353   2.193 -0.0421 -0.0043  0.0274
    1W        W45266  16.217  20.125   7.168  0.1092  0.1829  0.0315
    1W        W45267  20.965  10.442   1.866  0.0486 -0.0904 -0.0728
    1W        W45268   6.194   1.863   0.844  0.1990  0.3742  0.2272
    1W        W45269  28.439  28.495   8.034 -0.2641 -0.0694 -0.1450
    1W        W45270  27.477  16.932   2.182  0.0862 -0.2643  0.0843
    1W        W45271   6.424   9.309   2.245  0.0396  0.1487  0.0660
    1W        W45272   6.300   2.216   7.777  0.0556 -0.2206  0.0845
    1W        W45273  11.974  12.629   9.955 -0.1975 -0.2514 -0.0491
    1W        W45274  19.170  17.933   8.890 -0.0583  0.3119 -0.0505
    1W        W45275  21.338   5.804   1.940  0.0770  0.0144 -0.0466
    1W        W45276  22.735   4.755   9.625  0.0251 -0.0104  0.1036
    1W        W45277  13.984  12.398   7.508 -0.1816 -0.2174  0.1604
    1W        W45278  25.383  12.386   3.135  0.0996  0.0451 -0.0755
    1W        W45279  27.515  25.007   0.691  0.1457  0.0020  0.1483
    1W        W45280  27.827  13.386   3.948  0.3830 -0.0356 -0.0557
    1W        W45281  19.968   7.437   6.733 -0.0374 -0.1162  0.0058
    1W        W45282  26.232  23.053   9.485 -0.1632  0.0806 -0.0669
    1W        W45283   1.390  16.781   0.629 -0.2096  0.1063 -0.0758
    1W        W45284  15.820  21.132   7.934 -0.1039 -0.1041  0.0402
    1W        W45285   0.311   4.014   8.935  0.1524  0.3196 -0.1224
    1W        W45286   3.971  13.603   1.859  0.0747 -0.1425  0.0274
    1W        W45287  21.956  10.958   9.440 -0.0085 -0.2753  0.1528
    1W        W45288  18.402   7.321   8.484  0.2947  0.1129  0.1745
    1W        W45289   2.054  12.155   0.793 -0.0021  0.1851 -0.0729
    1W        W45290  18.620  10.275   6.206 -0.1753  0.0454  0.0116
    1W        W45291  21.340  20.063   8.083  0.2951 -0.1506 -0.4787
    1W        W45292  15.658   8.630   0.426  0.0160  0.2742  0.1731
    1W        W45293  19.519  20.634   5.750 -0.2583 -0.4409 -0.1354
    1W        W45294  17.390  12.373   7.953 -0.1247 -0.2799 -0.1594
    1W        W45295  18.339   1.908   8.889  0.0500  0.0995  0.2868
    1W        W45296   8.283  15.311   6.401 -0.3029  0.0436 -0.0329
    1W        W45297   7.566  12.940   7.932 -0.0329  0.2085  0.2212
    1W        W45298  11.519   2.759   1.268  0.2321  0.4509 -0.1024
    1W        W45299  20.964  26.956   8.199  0.3126 -0.3308 -0.0918
    1W        W45300   2.355  27.994   8.903  0.1135 -0.0591 -0.1780
    1W        W45301   9.148   8.246   6.324  0.1280 -0.1386 -0.2621
    1W        W45302   5.684  22.778   7.700 -0.2101  0.0025  0.1701
    1W        W45303   8.615  25.981   2.394 -0.2090 -0.0339  0.2529
    1W        W45304  13.948   6.371   5.094  0.0708 -0.2592  0.0866
    1W        W45305  16.298   9.839   1.029 -0.0596 -0.0439 -0.2170
    1W        W45306   6.617  16.955   0.282  0.1858 -0.0801  0.0069
    1W        W45307   0.998  14.316   9.097  0.1886  0.3081 -0.2983
    1W        W45308   3.228  19.734   0.216 -0.0510  0.0930 -0.0256
    1W        W45309  11.449  17.541   9.413 -0.0709  0.0332  0.0048
    1W        W45310  17.260  20.980   1.207 -0.1764 -0.1706 -0.3253
    1W        W45311  21.310  25.056   6.723 -0.1238  0.0595 -0.2563
    1W        W45312  22.120  24.504   2.762 -0.1966  0.0634 -0.0537
    1W        W45313  12.021  18.346   8.598  0.0146  0.1916 -0.1194
    1W        W45314  18.070  10.345   1.446  0.1339 -0.4258  0.2757
    1W        W45315  14.777  26.473   1.282 -0.2531 -0.0068  0.0377
    1W        W45316  15.648  10.177   6.027  0.0944  0.0987 -0.2095
    1W        W45317   6.462   9.766   9.342 -0.0221  0.0109  0.1153
    1W        W45318  18.277   8.437   8.885  0.3303  0.0113 -0.0326
    1W        W45319  10.947  24.080   8.622 -0.1164  0.0747 -0.0883
    1W        W45320   7.069   8.657   2.540 -0.2571 -0.5797 -0.2422
    1W        W45321  12.729   5.619   6.055 -0.0840  0.1388 -0.3503
    1W        W45322  26.019   2.332   1.384  0.1296 -0.0202  0.0478
    1W        W45323   1.343  10.753   3.835  0.0351  0.0646 -0.2030
    1W        W45324  24.808   3.849   7.796 -0.0396 -0.1165 -0.1328
    1W        W45325  11.657  22.582   7.486  0.2595 -0.2113 -0.4062
    1W        W45326  23.527   4.972   8.335 -0.0054 -0.2643  0.4143
    1W        W45327   2.245   0.528   3.497  0.2999 -0.1431  0.3825
    1W        W45328  19.001  22.762   9.502  0.2263 -0.0953 -0.3039
    1W        W45329   2.520   1.561   4.477  0.1750  0.2696  0.0446
    1W        W45330  26.385  28.312   8.388  0.1419 -0.0306 -0.0394
    1W        W45331  13.340  17.000   2.128 -0.1416  0.1338  0.1445
    1W        W45332  14.979  10.793   0.702  0.2827 -0.2142  0.2145
    1W        W45333  18.210   5.946   8.512  0.1323  0.0506  0.0673
    1W        W45334  10.398  18.078   6.683  0.0935 -0.2749  0.0910
    1W        W45335  18.816  22.757   8.255 -0.1127 -0.0055 -0.0582
    1W        W45336  15.391  18.469   2.424 -0.2276  0.3231  0.0950
    1W        W45337  19.743  19.602   7.867 -0.0519 -0.0120  0.2244
    1W        W45338  26.369  24.273   8.824 -0.0795  0.0054  0.2985
    1W        W45339  12.692  22.460   8.972  0.0404 -0.5337  0.0166
    1W        W45340   3.103  24.483   9.861  0.0911  0.1291  0.3818
    1W        W45341   6.935  19.007   2.916  0.0499 -0.1734 -0.1034
    1W        W45342   1.931   9.927   2.910 -0.2889 -0.0417  0.2044
    1W        W45343  15.616  14.553   7.012 -0.1297  0.0838  0.1335
    1W        W45344   1.381   4.437   0.509 -0.0920  0.0937 -0.0078
    1W        W45345  28.258  24.848   8.997 -0.0050 -0.0548 -0.0976
    1W        W45346  21.749  17.449   0.336  0.0499 -0.2271  0.2897
    1W        W45347  26.101  21.365   8.690 -0.3502  0.2904  0.4652
    1W        W45348  10.623  23.723   2.139  0.0571 -0.0338 -0.1392
    1W        W45349  10.154   3.840   7.654 -0.0152 -0.0367  0.0501
    1W        W45350  24.046   8.527   9.646  0.2600  0.0459 -0.0467
    1W        W45351   4.321  20.331   0.453  0.0341  0.3892  0.0086
    1W        W45352  21.815   3.459   2.979 -0.5261 -0.2361  0.1194
    1W        W45353  28.410  27.170   8.877  0.1218 -0.0277  0.0928
    1W        W45354  10.557  17.359   9.354 -0.2354  0.3099 -0.1129
    1W        W45355   5.541   7.678   0.193 -0.3092 -0.2966  0.2235
    1W        W45356   3.867  25.786   7.887 -0.0270  0.0642  0.1535
    1W        W45357  27.437   8.475   0.647 -0.1885 -0.1529  0.3078
    1W        W45358   1.357  10.178   8.892  0.0961 -0.0646  0.0185
    1W        W45359   0.049  12.892   2.737 -0.5027 -0.1442  0.1725
    1W        W45360  20.462  24.418   0.458 -0.1039  0.2396  0.4467
    1W        W45361  15.011   3.919   8.883  0.1220  0.2742  0.1164
    1W        W45362   4.647  28.017   2.683 -0.2577 -0.1742 -0.0488
    1W        W45363  28.670   0.315   7.964 -0.1637  0.2766  0.3779
    1W        W45364   3.886  25.343   2.626 -0.0962  0.1131 -0.1050
    1W        W45365  15.270  12.499   7.026 -0.1069 -0.2910  0.2914
    1W        W45366  22.402   1.568   9.664 -0.3115 -0.1291 -0.0330
    1W        W45367  12.145   9.126   9.260  0.1886 -0.3351  0.1886
    1W        W45368  12.279  16.997   0.850  0.1329  0.0325 -0.1954
    1W        W45369   4.261   3.231   0.995  0.2100  0.0554 -0.1878
    1W        W45370  25.442  13.419   3.983  0.1736 -0.0309  0.2496
    1W        W45371   6.838   9.126   2.523 -0.0324  0.2104  0.0913
    1W        W45372   6.006  16.107   8.039 -0.3796 -0.1013  0.5268
    1W        W45373   4.310  20.256   0.920  0.2078  0.2509 -0.1621
    1W        W45374  18.939   6.787   8.284 -0.1646 -0.1170  0.0015
    1W        W45375  14.851   2.220   0.743  0.2679 -0.0119 -0.3058
    1W        W45376   3.267  17.748   3.406 -0.2343  0.0161  0.2475
    1W        W45377  11.164   9.479   1.488  0.1754  0.0259 -0.1159
    1W        W45378  10.784   0.145   9.912 -0.1101  0.0019 -0.0732
    1W        W45379   8.379   1.800   9.731 -0.2437  0.0243 -0.0382
    1W        W45380   7.952   7.610   0.786 -0.0307  0.0008 -0.3394
    1W        W45381  26.066   8.914   8.828 -0.0723 -0.3960  0.1270
    1W        W45382  26.577   7.828   1.726 -0.0973 -0.3546  0.3038
    1W        W45383   6.209  12.701   9.889  0.1779  0.0042  0.0814
    1W        W45384  25.010  20.678   1.588 -0.1833 -0.1346  0.0876
    1W        W45385   2.559   3.913   9.805 -0.0079  0.2466  0.0238
    1W        W45386  28.614   2.567   8.334  0.1975  0.1387  0.3401
    1W        W45387   0.819   2.925   2.994 -0.2341 -0.2190  0.1628
    1W        W45388  14.305  16.320   8.377 -0.0466 -0.3004  0.3178
    1W        W45389  12.362  14.084   9.816 -0.1243 -0.3316 -0.0256
    1W        W45390  17.110   3.098   0.748 -0.0936 -0.0519 -0.2262
    1W        W45391   8.919  11.290   7.875  0.2273  0.0406 -0.1000
    1W        W45392   4.319  13.164   0.679  0.0548 -0.2433 -0.0280
    1W        W45393  12.821  26.629   1.396 -0.0368  0.2122 -0.0745
    1W        W45394  15.150  21.014   9.522 -0.1748  0.0778  0.1601
    1W        W45395  27.343  14.180   7.178  0.0244 -0.1444 -0.3780
    1W        W45396   8.748  17.592   6.558  0.2121  0.1037  0.2541
    1W        W45397  14.704   9.550   6.200 -0.1223 -0.1078  0.0398
    1W        W45398   9.205  21.789   1.401 -0.1211  0.1684 -0.1034
    1W        W45399  13.911  11.243   0.570  0.0260 -0.0014  0.2654
    1W        W45400   2.734   2.720   1.941  0.2207 -0.0235 -0.1122
    1W        W45401  22.472  28.459   1.985 -0.0092  0.0803 -0.0466
    1W        W45402   6.037   5.129   2.386 -0.1995  0.0938  0.0073
    1W        W45403  22.476   4.806   1.970 -0.0875  0.0851  0.0277
    1W        W45404   5.148   2.193   2.694  0.0264  0.0220  0.1503
    1W        W45405  13.931  19.805   1.175 -0.1943 -0.0775  0.0823
    1W        W45406   6.238  23.355   2.948 -0.1234  0.0450 -0.3599
    1W        W45407  10.190   2.590   7.066 -0.1804  0.0550 -0.2241
    1W        W45408   8.584  27.697   3.203  0.1680 -0.1111 -0.0868
    1W        W45409  15.010   8.386   5.090 -0.1628 -0.1049  0.2426
    1W        W45410   9.402  14.415   8.512 -0.3321  0.1682  0.1436
    1W        W45411  14.444  20.558   8.060  0.0775 -0.2765  0.1627
    1W        W45412  11.040  23.526   2.333 -0.0073  0.0053 -0.0779
    1W        W45413   2.533  17.025   3.788  0.1516 -0.0100 -0.4526
    1W        W45414   0.083  21.470   9.042  0.0730  0.1845  0.1571
    1W        W45415   1.164  13.980   0.497 -0.1468  0.1357  0.0631
    1W        W45416   6.372  10.555   0.836 -0.0922 -0.0452 -0.2595
    1W        W45417  20.916   5.761   6.554  0.1165 -0.0122  0.3351
    1W        W45418  24.947  26.770   7.920 -0.1661  0.0680 -0.2053
    1W        W45419  13.979  19.447   7.390  0.2521 -0.2342  0.0993
    1W        W45420  15.617  20.947   8.452  0.0837 -0.1120  0.2630
    1W        W45421   9.620  24.835   1.917 -0.1404  0.2166  0.0985
    1W        W45422  13.004   3.236   7.245 -0.1055  0.0030  0.5257
    1W        W45423  15.366  23.613   2.004 -0.1651 -0.0030  0.1163
    1W        W45424  16.646  14.626   8.587  0.2373 -0.0185 -0.4521
    1W        W45425   3.701   5.911   2.327  0.1930 -0.1513 -0.1044
    1W        W45426   7.696  24.172   2.381 -0.2058  0.2192  0.3086
    1W        W45427  24.539  16.301   2.227  0.0996  0.2574  0.0608
    1W        W45428   2.263  25.472   2.685 -0.2717  0.1343 -0.1977
    1W        W45429  12.914   4.162   2.352 -0.0069  0.0603  0.1251
    1W        W45430   0.944  15.026   0.588 -0.1662  0.2805 -0.0650
    1W        W45431  15.636  14.511   9.505  0.0872 -0.1429  0.0052
    1W        W45432  22.131   5.252   7.943 -0.1328  0.0749 -0.0924
    1W        W45433   8.374  21.510   7.642 -0.3209 -0.1738  0.0506
    1W        W45434   1.163  22.210   0.060 -0.0275 -0.1397 -0.1208
    1W        W45435   0.074  10.775   9.260 -0.2735  0.0619 -0.1770
    1W        W45436   6.207   3.792   3.185 -0.3458 -0.1403 -0.0716
    1W        W45437  27.383  25.112   8.502  0.0432  0.0793  0.1461
    1W        W45438  15.730  26.380   1.343 -0.0825  0.1695 -0.1319
    1W        W45439  17.695   9.274   7.690  0.0527 -0.2923 -0.0988
    1W        W45440  20.201  10.267   8.871  0.0466  0.2153 -0.1418
    1W        W45441  15.726  28.365   0.365 -0.1100 -0.1084 -0.2183
    1W        W45442  16.388  10.564   6.387  0.1675 -0.2494 -0.3719
    1W        W45443  23.888  23.815   8.482  0.0103  0.0637 -0.1195
    1W        W45444   4.195   4.808   8.973 -0.1134  0.1339 -0.1573
    1W        W45445  13.616   4.292   6.782  0.2029  0.0243  0.0414
    1W        W45446  16.665  10.779   7.546  0.0528 -0.3103  0.1626
    1W        W45447  10.386  16.360   0.833  0.1030  0.0503  0.1121
    1W        W45448   8.702  22.108   0.815  0.0055 -0.1457 -0.0217
    1W        W45449  15.453  20.085   2.492 -0.0983 -0.0028 -0.0055
    1W        W45450  18.205  20.146   9.290 -0.2041  0.0121  0.2375
    1W        W45451   8.334  20.563   2.018  0.1769  0.0885  0.2099
    1W        W45452   7.906  28.855   0.071 -0.1321  0.0909 -0.1297
    1W        W45453   6.771   1.420   0.401 -0.2391  0.0065 -0.1182
    1W        W45454  16.189   4.242   7.342 -0.1375 -0.1349 -0.1704
    1W        W45455  13.440   9.433   9.972 -0.1181 -0.1034 -0.1657
    1W        W45456   1.850  18.256   8.356 -0.0038  0.1398  0.0309
    1W        W45457   7.759   9.421   2.227  0.0499  0.0087  0.1238
    1W        W45458  19.538  12.716   9.909 -0.0954  0.1009  0.0579
    1W        W45459   1.860   6.511   1.617 -0.2408  0.1154 -0.0602
    1W        W45460  12.086  11.725   7.889 -0.0206 -0.1887 -0.0069
    1W        W45461  11.580  19.808   1.380 -0.1723 -0.1132 -0.1876
    1W        W45462  16.083  24.101   0.296  0.2560 -0.1582 -0.1719
    1W        W45463  25.268  14.661   8.639 -0.2976 -0.1207 -0.0451
    1W        W45464  25.912  26.639   3.269  0.0719 -0.1277 -0.2278
    1W        W45465   2.731   8.863   8.628  0.0396  0.1412  0.1698
    1W        W45466   6.738  23.108   2.161 -0.0594  0.1195 -0.0959
    1W        W45467  17.015  20.287   9.152  0.0110  0.2450  0.6602
    1W        W45468  21.072   7.871   7.843  0.1350 -0.2512 -0.0788
    1W        W45469   0.271   8.429   0.034 -0.0273 -0.1391  0.0122
    1W        W45470   7.906   1.990   0.013 -0.3190  0.4415 -0.2168
    1W        W45471  19.911  12.836   0.362  0.0408  0.2104 -0.1472
    1W        W45472  16.371   2.034   2.173 -0.1076  0.0435 -0.0613
    1W        W45473  11.344   3.295   0.534  0.4235 -0.6455 -0.0080
    1W        W45474  12.894  20.362   8.591  0.0439 -0.3028  0.1864
    1W        W45475   7.567   8.791   7.699 -0.0329 -0.0266 -0.0379
    1W        W45476  11.371  14.416   8.534  0.1215 -0.1167 -0.1570
    1W        W45477   1.103   4.623   1.971 -0.3568  0.0704 -0.1385
    1W        W45478  18.742   9.279   8.695  0.0327 -0.0743  0.0257
    1W        W45479  17.131  16.016   0.255  0.1467 -0.2883  0.2418
    1W        W45480  13.880  16.436   1.755 -0.2119  0.1788  0.1181
    1W        W45481   8.222   4.406   9.841 -0.1906 -0.1955 -0.2122
    1W        W45482  12.150   1.856   9.089  0.0037  0.2242 -0.0132
    1W        W45483  20.450  26.754   1.307  0.0626  0.0939 -0.0110
    1W        W45484  17.624  24.820   7.504  0.3499 -0.1231  0.1446
    1W        W45485  13.525  13.231   0.328  0.1970  0.1658  0.0726
    1W        W45486   5.454  12.944   8.590 -0.0374 -0.1139 -0.0511
    1W        W45487  17.446   6.604   6.452  0.4530 -0.2664  0.1336
    1W        W45488   5.215   0.891   7.484 -0.0654  0.0369 -0.0076
    1W        W45489  17.092   5.854   7.995  0.0194 -0.2113  0.1372
    1W        W45490   4.331  19.422   8.028  0.2513 -0.2369  0.3171
    1W        W45491  23.587  25.443   9.522  0.1426  0.0760 -0.0494
    1W        W45492  22.820  17.129   9.500  0.0215 -0.3652  0.0223
    1W        W45493  15.329  10.783   9.125  0.1666 -0.0294  0.2822
    1W        W45494  23.906   8.960   1.170 -0.2301 -0.3026  0.1607
    1W        W45495  18.932  16.931   0.964  0.1794 -0.0274 -0.3147
    1W        W45496  15.432   6.658   9.369 -0.1360  0.1094 -0.4953
    1W        W45497  11.763   8.793   6.739  0.1739  0.2036 -0.0237
    1W        W45498   8.729  26.275   9.264  0.1095 -0.1391  0.1640
    1W        W45499   0.936  20.466   9.067 -0.1522 -0.2980 -0.0643
    1W        W45500  16.516  26.938   1.295  0.1784  0.1713  0.1071
    1W        W45501   6.609   6.294   1.567  0.1522  0.0824 -0.5250
    1W        W45502  18.424   2.495   9.671  0.2940 -0.0231  0.1097
    1W        W45503  11.333  11.549   9.363  0.0895 -0.0227 -0.2559
    1W        W45504  23.806  19.650   2.494  0.3649 -0.0266  0.0977
    1W        W45505   0.060  26.768   8.770  0.0387 -0.0981 -0.0886
    1W        W45506  13.709  28.862   2.207  0.0080  0.1117  0.3700
    1W        W45507  26.093  26.499   9.847 -0.1548 -0.1115 -0.0503
    1W        W45508  19.273  19.810   7.876  0.0187 -0.4030 -0.0731
    1W        W45509  19.816  24.104   9.615 -0.3410 -0.2776  0.0541
    1W        W45510   9.600   2.758   6.776 -0.0523  0.4235 -0.2553
    1W        W45511   3.704  15.077   9.447 -0.1661 -0.1796 -0.2342
    1W        W45512  27.038  14.861   3.598  0.2208  0.0716 -0.0619
    1W        W45513  22.602   4.610   1.540  0.1696 -0.0347  0.2642
    1W        W45514  17.632   5.015   9.848 -0.1209 -0.1475 -0.1263
    1W        W45515   0.924   8.683   8.497 -0.0280 -0.1117 -0.2486
    1W        W45516  27.416  11.694   0.967  0.2364  0.1717  0.0781
    1W        W45517  16.837  12.608   1.631 -0.1087 -0.2794  0.1555
    1W        W45518  10.951  22.801   9.948 -0.0885  0.0644  0.2369
    1W        W45519  21.654  24.035   0.390 -0.0989  0.1032 -0.1535
    1W        W45520  25.499   6.445   3.043  0.3058 -0.3569  0.2616
    1W        W45521  25.488  10.553   9.658 -0.0795  0.0540 -0.0227
    1W        W45522  26.091  26.001   2.671  0.0273 -0.3671  0.0668
    1W        W45523  23.129   3.696   9.671 -0.3379 -0.4017 -0.3197
    1W        W45524  17.888   3.940   9.851 -0.1290 -0.0440 -0.2017
    1W        W45525   3.063  15.283   2.484  0.0829 -0.0414  0.3127
    1W        W45526  25.489   6.993   2.232  0.1448  0.2722  0.1053
    1W        W45527   0.019  25.556   1.144 -0.2144 -0.0035  0.1072
    1W        W45528   6.725  19.463   2.972 -0.1746  0.2616 -0.3102
    1W        W45529   4.049   7.663   9.732 -0.0216  0.0469 -0.0570
    1W        W45530  17.573  23.750   0.641  0.1216 -0.2142 -0.0990
    1W        W45531  17.759   0.259   8.417 -0.1513  0.1782 -0.0748
    1W        W45532  27.963  27.841   2.368 -0.2682  0.2838  0.1279
    1W        W45533   3.657   0.076   8.598 -0.0574  0.0541 -0.0561
    1W        W45534  19.746  17.446   6.988 -0.0511  0.2480  0.0144
    1W        W45535  16.017  20.346   6.642  0.3211 -0.3550 -0.2791
    1W        W45536  16.927   1.568   1.661 -0.1174  0.2166  0.2779
    1W        W45537   6.188   2.136   0.030  0.0509 -0.3791 -0.0535
    1W        W45538  20.796  20.814   8.957 -0.0580  0.2099  0.1244
    1W        W45539  23.724  23.254   9.762 -0.4600  0.4532 -0.0563
    1W        W45540  21.567  28.683   2.293  0.2759 -0.0943 -0.0042
    1W        W45541  15.728  23.305   1.641  0.0621  0.0338 -0.1715
    1W        W45542  15.905  21.866   1.139  0.0534 -0.5731  0.0643
    1W        W45543  16.495   4.218   5.600  0.1083 -0.0897  0.1418
    1W        W45544  22.699  10.705   7.427  0.0389 -0.0292 -0.1607
    1W        W45545   9.493  10.078   9.205 -0.0697  0.0694  0.0314
    1W        W45546   3.776  21.628   1.804 -0.1817 -0.0339  0.0543
    1W        W45547  18.875   4.230   2.731  0.2870 -0.0762 -0.0551
    1W        W45548  24.066  14.869   2.578 -0.0457 -0.1283 -0.4329
    1W        W45549  10.968  26.708   2.225 -0.4203 -0.0649 -0.4473
    1W        W45550   9.293  14.340   6.408  0.1772  0.1662  0.3559
    1W        W45551  11.803  26.886   8.531  0.0433 -0.1152 -0.1755
    1W        W45552  25.635   5.800   1.020  0.1535 -0.0276 -0.0878
    1W        W45553  21.528  28.633   1.595 -0.2031  0.5322  0.1303
    1W        W45554  22.307   7.473   8.042  0.0320  0.0743 -0.1188
    1W        W45555  16.250   3.523   8.764  0.0242 -0.2412 -0.2878
    1W        W45556   8.946  14.405   7.501 -0.0147 -0.1007  0.0999
    1W        W45557  12.631   1.474   7.120 -0.1227  0.0827  0.0125
    1W        W45558   1.282  15.225   7.339 -0.2901  0.1442 -0.0883
    1W        W45559   4.544   9.856   1.123  0.0297 -0.0599  0.2155
    1W        W45560  14.097  19.056   7.648 -0.1500 -0.1883 -0.1946
    1W        W45561  17.462  22.850   7.649 -0.0403  0.0177  0.2185
    1W        W45562  14.805   6.390   7.437 -0.1248 -0.2231 -0.2798
    1W        W45563  22.569  17.859   6.950 -0.1849 -0.1107  0.3017
    1W        W45564   0.416  19.891   9.814  0.0924 -0.0500  0.0025
    1W        W45565  20.072  11.003   0.951 -0.1597 -0.0741  0.2614
    1W        W45566  23.117  11.695   2.917  0.0279  0.0493 -0.0993
    1W        W45567   1.213  10.475   7.516  0.5821  0.2204 -0.1567
    1W        W45568  21.441   6.409   8.529  0.1833  0.0904  0.0269
    1W        W45569   2.576  12.970   9.842 -0.0391 -0.0723 -0.0231
    1W        W45570  23.010  18.425   2.518  0.0260 -0.2440  0.2434
    1W        W45571  25.305  14.439   1.280 -0.4501  0.0017  0.1437
    1W        W45572  12.870   9.370   7.581 -0.1085 -0.0942 -0.2812
    1W        W45573  20.189   6.661   6.854  0.1734 -0.0232  0.0524
    1W        W45574  21.638  22.939   3.299  0.0355 -0.1367 -0.1106
    1W        W45575   9.963  13.970   1.778 -0.3781  0.0107  0.0933
    1W        W45576   7.817  11.454   9.859  0.0647  0.2593 -0.0499
    1W        W45577  16.946   5.693   0.090  0.2067 -0.3371 -0.0141
    1W        W45578  21.783  17.948   2.191  0.0922  0.1545  0.0314
    1W        W45579  20.980  11.807   1.445  0.1202 -0.1696  0.0534
    1W        W45580  27.088  27.297   1.397 -0.2638  0.0042 -0.1448
    1W        W45581  14.807   7.416   1.692 -0.2506 -0.0245  0.4095
    1W        W45582   4.335  17.390   0.175 -0.1958  0.0846  0.1893
    1W        W45583  22.288  10.847   8.476 -0.0627  0.2480 -0.1301
    1W        W45584   5.259  25.962   3.405 -0.2674 -0.2484  0.2287
    1W        W45585   4.417  20.776   0.944 -0.0837 -0.0085 -0.3569
    1W        W45586  25.253  26.483   9.722  0.2129  0.0655  0.2080
    1W        W45587  17.290  26.013   1.911  0.1033  0.2170 -0.2587
    1W        W45588  20.702   6.824   6.932  0.0312  0.0259 -0.3170
    1W        W45589  25.745   0.877   2.666  0.0623 -0.0220 -0.2923
    1W        W45590   7.458   7.228   7.224  0.4332  0.1822 -0.0698
    1W        W45591  18.236   4.968   6.902  0.2718 -0.1007 -0.0820
    1W        W45592  16.074  13.773   1.876  0.0595  0.0557  0.3314
    1W        W45593  11.549  18.402   9.706  0.0864  0.0672  0.2630
    1W        W45594   8.957   9.435   6.676  0.0372  0.0231 -0.1626
    1W        W45595  19.742  19.953   9.413  0.0019  0.0524  0.1799
    1W        W45596  21.533  21.024   1.042 -0.0735 -0.1916  0.1347
    1W        W45597  22.433  19.474   0.051 -0.1036  0.0201 -0.1220
    1W        W45598   2.110  14.356   7.252  0.1148  0.0484 -0.3901
    1W        W45599   7.332  15.686   8.303  0.1332 -0.2922  0.2061
    1W        W45600  23.387   3.426   1.538  0.2702 -0.2386 -0.3093
    1W        W45601  15.502   6.081   9.322 -0.0908  0.2366  0.0442
    1W        W45602  22.316   3.336   8.382  0.0020  0.0029  0.0399
    1W        W45603   5.928   5.457   7.251 -0.0578  0.3334 -0.0312
    1W        W45604   5.794  15.619   7.319 -0.0105  0.0350  0.1654
    1W        W45605  26.964  15.050   2.987  0.0454 -0.2099 -0.0638
    1W        W45606   8.875  28.256   8.756  0.2703 -0.1271 -0.0757
    1W        W45607  18.324   0.352   1.930  0.1679 -0.0689  0.0264
    1W        W45608  14.227   5.386   6.463 -0.1384 -0.2075  0.3939
    1W        W45609  20.128  10.378   6.030  0.1258 -0.0601  0.0777
    1W        W45610  14.705  24.455   7.448 -0.1429  0.0038  0.1369
    1W        W45611  20.043  26.540   8.907 -0.1968  0.1652  0.1554
    1W        W45612   9.814  22.252   9.285  0.1794 -0.0298 -0.0649
    1W        W45613  20.070  15.211   7.128  0.0729 -0.0313  0.2504
    1W        W45614   5.614  24.238   2.638  0.2772  0.0588 -0.0436
    1W        W45615  16.859   0.063   8.399 -0.0533  0.1512  0.3859
    1W        W45616  17.854  19.164   6.581  0.0556 -0.3561 -0.0913
    1W        W45617   1.181  19.911   0.694  0.0340 -0.2275  0.1413
    1W        W45618  22.428  27.044   2.704 -0.1762 -0.2837  0.0252
    1W        W45619   6.193  14.841   1.202  0.1822  0.0959 -0.3776
    1W        W45620   2.709  23.543   9.865  0.1534 -0.3544  0.0823
    1W        W45621  17.949  12.560   0.580  0.1389  0.1927 -0.0489
    1W        W45622  11.732   7.896   7.176  0.3420 -0.3026 -0.4267
    1W        W45623  12.631  25.404   8.344  0.0523  0.1879  0.1591
    1W        W45624  18.805   2.069   8.859  0.2189  0.2341 -0.0019
    1W        W45625   9.184  13.399   0.615 -0.1068  0.0182 -0.0025
    1W        W45626  12.364  25.422   8.878  0.0263  0.0519 -0.1963
    1W        W45627  28.170   7.373   8.194  0.1057  0.3047  0.3274
    1W        W45628   5.407  15.119   7.589  0.1585 -0.3533 -0.3654
    1W        W45629  22.643  21.499   1.567 -0.2047 -0.0305  0.0348
    1W        W45630  27.020   2.000   0.091  0.3518  0.3560 -0.1378
    1W        W45631  20.028  10.397   9.367  0.2383  0.0383  0.0673
    1W        W45632  27.551  17.547   3.257  0.0745  0.2406  0.0434
    1W        W45633  15.511  16.165   2.117  0.0921  0.0116 -0.1010
    1W        W45634   0.172  26.955   1.818  0.0202 -0.0663 -0.0420
    1W        W45635  22.125  16.835   0.104 -0.0650  0.1321 -0.1566
    1W        W45636  22.654  26.681   8.766 -0.2217 -0.0988  0.0147
    1W        W45637  11.198   7.549   6.562 -0.0554  0.2445 -0.1844
    1W        W45638   3.118  22.017   3.423 -0.0247  0.2149  0.1407
    1W        W45639  16.265   5.674   8.217  0.4560  0.2500 -0.0335
    1W        W45640   7.315   6.734   0.689  0.1010 -0.0456  0.2013
    1W        W45641  14.131   9.407   8.338 -0.3096 -0.3954 -0.1344
    1W        W45642  24.136   8.826   8.599  0.0942 -0.2987  0.2814
    1W        W45643   5.543   6.387   1.922 -0.0621  0.2380  0.5664
    1W        W45644  15.192   9.818   6.097 -0.2171 -0.0401  0.0462
    1W        W45645  26.123  21.171   1.050  0.1530 -0.2785  0.2352
    1W        W45646  12.421  17.473   7.131  0.1485  0.4073  0.2037
    1W        W45647  17.659  17.782   1.485  0.1815 -0.0545  0.0481
    1W        W45648   8.483   8.156   9.008  0.1336 -0.0179  0.0121
    1W        W45649   4.382  13.556   7.494  0.0375 -0.1807 -0.0531
    1W        W45650  26.033   5.396   2.792  0.1871 -0.0961  0.0295
    1W        W45651  11.870  17.436   2.304  0.3674 -0.3042  0.0823
    1W        W45652  25.750  11.677   2.052  0.1539 -0.1668 -0.0480
    1W        W45653  28.016  16.230   1.271 -0.2827  0.0209 -0.2104
    1W        W45654   7.439  25.416   3.616  0.2121  0.0218  0.0945
    1W        W45655   2.362  21.966   9.583  0.0252  0.1275 -0.0788
    1W        W45656   6.943   4.674   2.741 -0.1845  0.0535  0.2332
    1W        W45657  10.702   2.511   0.648  0.0274 -0.0108 -0.1580
    1W        W45658  22.723  18.457   9.481 -0.0475  0.0526 -0.0213
    1W        W45659  13.601  28.839   6.283 -0.1080 -0.0029 -0.0615
    1W        W45660  26.864  13.942   8.913  0.3326 -0.0419  0.0413
    1W        W45661  19.571  10.460   1.420 -0.3369 -0.2996  0.0214
    1W        W45662  15.967  15.621   6.995 -0.1067  0.2217  0.1735
    1W        W45663   9.717   2.225   8.665 -0.0710  0.0085  0.2426
    1W        W45664   5.343   8.040   2.517  0.0511  0.0724 -0.2578
    1W        W45665  26.413   2.279   8.428 -0.2667  0.2541 -0.0352
    1W        W45666  27.556  27.511   2.155 -0.1054  0.3321  0.1561
    1W        W45667  28.045   9.920   8.898  0.1546 -0.0582  0.4065
    1W        W45668  11.562  20.370   0.552 -0.0981 -0.0974 -0.2062
    1W        W45669  13.745  19.855   0.689  0.2127  0.1587 -0.2852
    1W        W45670  19.692  25.368   8.213  0.0141  0.1700  0.0716
    1W        W45671  25.368  28.647   1.027 -0.1600  0.0547 -0.1299
    1W        W45672   8.330  25.331   7.780  0.2371 -0.1387 -0.0736
    1W        W45673  16.320  26.248   0.215 -0.0142 -0.3042  0.2389
    1W        W45674   5.408   1.914   3.567 -0.0593  0.2032  0.0047
    1W        W45675   3.508  21.692   3.499  0.1031 -0.2882 -0.1479
    1W        W45676   6.912  21.975   7.732 -0.3146 -0.0734  0.1296
    1W        W45677  10.207  14.003   6.633  0.2592 -0.2730 -0.1004
    1W        W45678  14.837   6.718   6.108 -0.1482  0.0469  0.2228
    1W        W45679  27.230   7.214   1.384 -0.1390  0.0940  0.1375
    1W        W45680   5.208  26.359   8.784  0.2209 -0.2644  0.1241
    1W        W45681   4.437  21.137   0.624  0.1104 -0.1946  0.3159
    1W        W45682   6.589   9.761   2.271 -0.0021  0.2242  0.3544
    1W        W45683   2.513  25.052   3.553  0.0202 -0.0686  0.0127
    1W        W45684   1.953  16.362   3.117 -0.1237  0.3852  0.1198
    1W        W45685  20.230  10.384   2.109  0.0822  0.2821  0.0273
    1W        W45686   0.521   8.096   3.262  0.3937 -0.1433 -0.0654
    1W        W45687  20.484   9.474   8.910 -0.3007  0.2801 -0.1368
    1W        W45688  25.096  20.441   9.855  0.1273 -0.3850  0.0355
    1W        W45689   4.410   3.401   8.263 -0.2816  0.2509  0.1511
    1W        W45690  10.967  17.272   8.481  0.1308 -0.4018  0.1990
    1W        W45691  23.964   1.874   2.028  0.1170  0.2347  0.0013
    1W        W45692  24.196  21.712   1.242  0.1711  0.1755  0.0945
    1W        W45693  25.140   5.613   7.908 -0.0550 -0.2540  0.2246
    1W        W45694   4.486   8.504   1.862 -0.0372  0.2220  0.0409
    1W        W45695  20.740  18.291   9.683 -0.0024  0.0509  0.0488
    1W        W45696   3.500  12.399   1.078  0.2991 -0.1566 -0.2162
    1W        W45697   6.112   6.985   2.166 -0.0801  0.1104 -0.1026
    1W        W45698   1.602   8.665   1.480  0.0306  0.1587 -0.1106
    1W        W45699   3.084  12.008   1.400 -0.1234 -0.0163 -0.2135
    1W        W45700  18.284  20.642   1.920  0.2768  0.2350  0.0059
    1W        W45701   5.833   6.735   0.393 -0.0730  0.2084  0.0732
    1W        W45702  10.593   5.733   9.390 -0.3165  0.1112 -0.1118
    1W        W45703  13.352   5.320   9.273  0.0816  0.4900  0.0929
    1W        W45704   8.657  18.679   0.005 -0.0195 -0.2082 -0.2020
    1W        W45705   3.889   6.468   9.842 -0.2088 -0.0180 -0.2472
    1W        W45706  13.276   2.939   8.636 -0.1367 -0.2606  0.1371
    1W        W45707   9.786  14.429   1.622 -0.2543 -0.0535 -0.1716
    1W        W45708  13.488  23.358   7.382 -0.1662  0.1257 -0.3782
    1W        W45709  22.195  26.376   9.690  0.3746 -0.3259 -0.3160
    1W        W45710  26.544  23.557   2.766 -0.0559 -0.0752  0.1136
    1W        W45711   5.764   8.076   8.290  0.1033  0.1308  0.2877
    1W        W45712  23.643   3.411   2.076 -0.2071 -0.2188 -0.0739
    1W        W45713  19.494  27.221   8.723  0.2462 -0.0192 -0.0150
    1W        W45714  11.385  26.637   8.468 -0.0498  0.1665 -0.0497
    1W        W45715   6.365   4.783   3.325 -0.0472  0.0075 -0.0563
    1W        W45716  16.013  27.960   0.126 -0.1063  0.1693  0.2651
    1W        W45717  20.887   0.518   9.158 -0.2462 -0.4167  0.0181
    1W        W45718   3.651   8.102   7.749  0.1145  0.1477 -0.1215
    1W        W45719  18.189  22.045   9.288 -0.1318 -0.0135 -0.1202
    1W        W45720  22.555  15.636   9.385 -0.2395 -0.4178  0.0815
    1W        W45721   7.500  21.776   8.849 -0.1988 -0.1346 -0.2590
    1W        W45722   5.094  21.140   7.860 -0.2548  0.1155  0.1886
    1W        W45723  12.425   5.910   1.368  0.1128  0.3283 -0.1414
    1W        W45724  22.539   4.344   8.474 -0.1474  0.1829 -0.2864
    1W        W45725  22.243   7.800   7.598 -0.2384 -0.0447 -0.0107
    1W        W45726  22.478   0.864   6.959  0.1708 -0.2407  0.0103
    1W        W45727  17.853  23.559   1.954  0.3027 -0.1121  0.0928
    1W        W45728  25.344   5.458   8.726 -0.1465 -0.1789 -0.0930
    1W        W45729  12.055  20.367   1.927  0.1236  0.0786  0.2436
    1W        W45730  22.359  21.910   1.690  0.2444 -0.0302 -0.0141
    1W        W45731  20.805   9.123   9.025 -0.0899  0.1882  0.0486
    1W        W45732   1.527   9.982   0.428  0.0660  0.0139  0.1746
    1W        W45733  25.843   1.040   7.412 -0.2840 -0.0665  0.3503
    1W        W45734  26.130  21.439   9.793 -0.3596  0.0034  0.0851
    1W        W45735   7.228  19.327   9.579  0.2006  0.2595  0.2195
    1W        W45736   9.041  19.680   0.133  0.2218  0.1308  0.2681
    1W        W45737  17.607  24.926   0.129 -0.0722  0.2876 -0.1215
    1W        W45738   6.307  14.839   7.842  0.0733 -0.2667  0.0517
    1W        W45739   9.363  22.417   0.260  0.2317  0.1115  0.0370
    1W        W45740   0.069  26.914   2.436 -0.2156  0.0373  0.0292
    1W        W45741   1.006  26.358   8.149  0.0551  0.3375 -0.0517
    1W        W45742  10.402   9.037   6.349  0.0901 -0.0338 -0.0642
    1W        W45743  23.514   3.382   2.585 -0.0847  0.1880  0.0095
    1W        W45744  27.293   6.238   0.052  0.0302  0.0274 -0.3658
    1W        W45745  24.683  19.113   7.918  0.0049 -0.0290 -0.3589
    1W        W45746  16.037  24.448   2.156 -0.0206  0.1705 -0.4016
    1W        W45747  27.216   1.349   3.281  0.1400 -0.2230  0.0189
    1W        W45748  10.454   2.914   8.069  0.3209 -0.0919  0.0737
    1W        W45749   6.518  21.125   9.133  0.0653 -0.2418  0.5852
    1W        W45750  12.021  24.110   2.450 -0.0272  0.0946 -0.0196
    1W        W45751  14.369   7.582   9.275 -0.2154  0.2163 -0.1978
    1W        W45752  23.575  10.453   1.811  0.3673 -0.0399  0.0472
    1W        W45753   0.389  28.870   0.788 -0.1099 -0.0146 -0.3663
    1W        W45754   2.383  12.986   7.143 -0.2246 -0.2816  0.0197
    1W        W45755   9.798   3.621   2.598  0.0053 -0.1520  0.0797
    1W        W45756   8.354   9.586   2.952  0.1132 -0.1799 -0.0611
    1W        W45757  17.182  27.269   0.718 -0.0826 -0.0445  0.3019
    1W        W45758  23.110   2.663   2.514  0.1739  0.3427  0.1226
    1W        W45759   2.546  17.588   1.121  0.1224 -0.2704 -0.1183
    1W        W45760  12.659  14.407   8.252  0.0667 -0.1559 -0.0145
    1W        W45761  28.201  28.386   3.155 -0.1901 -0.3188  0.1866
    1W        W45762  16.607  14.524   9.797  0.0463  0.1575  0.1057
    1W        W45763   8.788   8.331   9.860  0.4124  0.0378 -0.2725
    1W        W45764  14.146  22.789   7.614 -0.0278  0.1007  0.2394
    1W        W45765  25.882   2.636   1.758  0.1999 -0.3134  0.4190
    1W        W45766  27.119  24.973   2.836 -0.1112 -0.0224 -0.2694
    1W        W45767  11.343  28.564   0.888  0.2111 -0.0770 -0.1296
    1W        W45768   8.428  23.233   3.054 -0.1330 -0.4819 -0.2027
    1W        W45769   1.872  17.822   1.693 -0.0670  0.1637 -0.1213
    1W        W45770   1.908  12.393   3.015 -0.3107  0.2058  0.0791
    1W        W45771  25.816   9.259   8.355  0.2227  0.0702  0.3132
    1W        W45772  13.179   8.145   9.715  0.1144  0.0823  0.1252
    1W        W45773  27.645  13.480   3.463  0.2350 -0.1500 -0.2480
    1W        W45774   4.160   1.037   1.165  0.0432 -0.0864  0.2193
    1W        W45775  23.523   3.479   9.896 -0.0063  0.3049  0.3591
    1W        W45776  14.830   9.095   6.596 -0.2133 -0.0080 -0.1839
    1W        W45777   9.687  26.305   0.725 -0.0999 -0.0936 -0.1898
    1W        W45778   4.064  28.272   9.045  0.0721 -0.3782  0.1181
    1W        W45779  23.651   6.513   9.511 -0.1051 -0.2518 -0.2159
    1W        W45780  26.320   9.350   8.559 -0.1401 -0.0611  0.0797
    1W        W45781  23.351  15.351   6.467  0.3704 -0.2349 -0.1345
    1W        W45782  20.426  17.195   0.569  0.0697  0.0913  0.1898
    1W        W45783   2.323  24.459   1.127 -0.1977  0.2557  0.0660
    1W        W45784  16.444  15.837   6.740 -0.0815 -0.0139  0.2292
    1W        W45785   5.269   8.962   7.326  0.0205  0.3727  0.0211
    1W        W45786   8.643  11.318   1.444 -0.0810  0.3669 -0.0472
    1W        W45787   0.502   7.352   2.651 -0.1508 -0.2318 -0.2529
    1W        W45788  18.089   3.107   8.153 -0.1508  0.2744  0.1296
    1W        W45789  27.361  22.302   8.024  0.0587 -0.0267 -0.1961
    1W        W45790  19.463  28.474   9.112 -0.1320  0.0119 -0.3090
    1W        W45791   4.294   7.237   8.859  0.0827 -0.3028  0.2342
    1W        W45792  25.809   2.914   8.889 -0.0253 -0.0002 -0.2459
    1W        W45793  14.243  19.040   2.884 -0.1356  0.0306  0.1312
    1W        W45794   7.642  14.622   7.844  0.2766 -0.3090 -0.0881
    1W        W45795   4.890   9.059   1.195 -0.2116  0.2067  0.1623
    1W        W45796  28.480  12.190   2.754  0.4953 -0.1470 -0.0293
    1W        W45797  11.891  18.017   9.599  0.1176 -0.1441 -0.2102
    1W        W45798  23.268  18.283   0.787 -0.0921  0.0692  0.2700
    1W        W45799   6.704  27.331   7.867  0.2933 -0.0662  0.0326
    1W        W45800  15.872   0.168   2.391  0.0733  0.0086  0.1187
    1W        W45801  19.121   3.594   7.330  0.3160 -0.0301 -0.2318
    1W        W45802   8.341  21.996   2.016  0.2371  0.0236  0.6206
    1W        W45803   2.748  15.649   0.708 -0.0725  0.2290 -0.3520
    1W        W45804   2.403  25.614   4.293  0.1755  0.0720  0.0989
    1W        W45805  15.780  27.025   2.643  0.4810  0.0035 -0.0411
    1W        W45806  16.360  10.673   1.474 -0.0831 -0.1123 -0.0245
    1W        W45807   6.401   5.785   3.509  0.0351 -0.1612  0.0789
    1W        W45808  11.168  23.626   2.917  0.0402  0.1515  0.2849
    1W        W45809  22.588   9.782   9.989  0.1325 -0.0457  0.1418
    1W        W45810  22.147  13.511   9.792  0.0816  0.0494 -0.1115
    1W        W45811   4.583  28.420   1.512 -0.3490 -0.1911  0.2274
    1W        W45812  28.152  27.244   2.795 -0.3062  0.2079  0.1233
    1W        W45813  15.789  21.999   2.433 -0.0166 -0.1838  0.0501
    1W        W45814   9.866   0.917   1.341 -0.1908  0.2388  0.1626
    1W        W45815  25.497  22.858   2.134 -0.1155 -0.0846 -0.3656
    1W        W45816  12.299  17.035   7.341 -0.2141 -0.0618 -0.0413
    1W        W45817  27.925  17.175   0.519 -0.2111  0.0111 -0.0729
    1W        W45818  24.302  28.405   3.298  0.1779  0.1930 -0.0929
    1W        W45819   0.195  23.655   0.827 -0.3803  0.0329  0.0893
    1W        W45820  14.171  13.592   8.456  0.0245 -0.1318  0.1064
    1W        W45821   6.735  17.884   0.805  0.0223 -0.1357 -0.0650
    1W        W45822  18.681  28.361   2.453  0.0974  0.0750 -0.3114
    1W        W45823  23.462   5.499   9.708 -0.0293 -0.1262  0.0801
    1W        W45824  22.128  19.648   8.272  0.3246  0.0885 -0.1026
    1W        W45825  21.482  15.469   9.509 -0.0797 -0.1314  0.5126
    1W        W45826  19.655  11.716   8.280 -0.1491  0.1303 -0.0461
    1W        W45827  20.685  14.190   9.132 -0.1900 -0.1179  0.1652
    1W        W45828   6.048   5.381   8.543 -0.0152  0.1863  0.2389
    1W        W45829  13.294  12.725   9.279  0.2016 -0.0697 -0.0194
    1W        W45830  20.565  19.770   9.642  0.1900  0.3033  0.0397
    1W        W45831   3.483   0.968   0.660 -0.2504 -0.3158  0.1295
    1W        W45832  24.781  17.954   8.597 -0.1599  0.3789  0.0380
    1W        W45833  17.525   5.684   9.381 -0.1200  0.2660  0.0592
    1W        W45834  26.722  27.170   1.700 -0.0636  0.1894  0.1640
    1W        W45835  19.768  27.574   9.005 -0.1263  0.1698 -0.1992
    1W        W45836  13.260  21.431   2.467  0.0708  0.2674  0.0664
    1W        W45837   7.222  17.996   9.971  0.2318  0.0301 -0.1845
    1W        W45838   9.373   2.642   7.670  0.2139 -0.0820 -0.0961
    1W        W45839  16.060   4.694   9.741 -0.1537  0.1469 -0.0133
    1W        W45840  26.669  15.597   8.855  0.2501 -0.0720  0.6190
    1W        W45841   7.668   2.904   0.322 -0.1587  0.0809 -0.2264
    1W        W45842  22.921   3.553   7.665  0.0356  0.1175  0.0107
    1W        W45843   1.923  27.730   2.891 -0.2082  0.0486 -0.3864
    1W        W45844  14.934  18.196   6.687 -0.2605 -0.0768  0.0571
    1W        W45845   4.759   4.414   1.391 -0.1181  0.2241 -0.1456
    1W        W45846  18.798   8.540   8.063  0.1165 -0.0602 -0.0853
    1W        W45847   7.128   6.153   7.884  0.1989 -0.2619 -0.1788
    1W        W45848   8.424   9.203   7.563 -0.2231 -0.0847  0.0544
    1W        W45849   3.924  13.676   7.737 -0.1615  0.1858 -0.1611
    1W        W45850  26.627  19.766   2.616  0.1578  0.1628  0.2273
    1W        W45851  13.801  18.980   7.190 -0.1944  0.0102  0.0209
    1W        W45852  21.863  21.641   1.867  0.0386  0.0893 -0.0014
    1W        W45853   9.659  14.343   7.853 -0.0731 -0.1479 -0.0530
    1W        W45854  19.930   5.942   1.435 -0.2617 -0.3020  0.1986
    1W        W45855   1.661   2.238   2.771 -0.1372 -0.2681  0.0259
    1W        W45856  15.612  14.336   8.480  0.1382  0.3903 -0.0674
    1W        W45857  15.582  23.464   0.130 -0.3605 -0.1760  0.0396
    1W        W45858  27.847  21.047   8.160  0.0818 -0.1128 -0.2127
    1W        W45859  27.531   4.508   1.803 -0.0296  0.1113 -0.1211
    1W        W45860   0.728  22.184   9.141 -0.0016 -0.2463  0.1769
    1W        W45861  24.385   2.937   6.994 -0.0542 -0.3907  0.1109
    1W        W45862   1.119  20.459   2.348  0.2802  0.2952  0.1143
    1W        W45863  26.501   5.501   0.696  0.1599 -0.0679 -0.0409
    1W        W45864   1.817  26.331   0.402 -0.0002 -0.0068  0.0157
    1W        W45865   6.909   4.635   1.071 -0.3607 -0.1280  0.1362
    1W        W45866  23.759  21.367   2.879  0.1106 -0.0929  0.1216
    1W        W45867  19.422   6.381   8.299 -0.1953 -0.0153  0.0262
    1W        W45868  28.340  12.290   0.178 -0.0125  0.1715 -0.0259
    1W        W45869  27.647  12.359   2.160 -0.3644 -0.1371  0.1170
    1W        W45870   7.201  22.979   2.376 -0.1037 -0.0477  0.0209
    1W        W45871  27.393  28.050   1.505  0.0418  0.0093  0.1505
    1W        W45872  22.195  13.837   8.628  0.1652 -0.3504 -0.0641
    1W        W45873  24.349  20.983   8.906 -0.0206  0.1316 -0.2692
    1W        W45874  10.854  24.221   0.543 -0.0507 -0.0046 -0.1299
    1W        W45875  13.699   8.276   9.649 -0.0430 -0.0885 -0.1879
    1W        W45876  16.092  13.278   0.069 -0.0361 -0.1292 -0.1401
    1W        W45877   9.731  15.070   6.416  0.0003 -0.1766 -0.1719
    1W        W45878   9.092  19.634   8.895 -0.4031  0.0295  0.1577
    1W        W45879  20.941  16.468   0.702  0.1597 -0.0680 -0.0541
    1W        W45880  27.162   3.209   2.780 -0.0426 -0.0096 -0.1599
    1W        W45881  12.124  18.006   9.013 -0.0910  0.1880  0.2119
    1W        W45882   4.407  22.327   2.848 -0.0459  0.0873 -0.0693
    1W        W45883  13.452  19.898   1.519  0.0975 -0.2963 -0.1072
    1W        W45884  14.599  20.219   9.782 -0.1086  0.1516  0.1383
    1W        W45885  26.682  26.128   1.430  0.0323 -0.0271  0.0012
    1W        W45886   7.139  14.515   8.872  0.0533 -0.0049  0.1754
    1W        W45887   7.411  12.114   2.151 -0.0689  0.0572  0.1341
    1W        W45888  11.388  28.766   7.442  0.2662  0.0854 -0.2585
    1W        W45889  14.179   8.542   9.410  0.0551 -0.2989  0.2148
    1W        W45890  10.160  25.534   3.196  0.3314  0.0804  0.1800
    1W        W45891  12.756  15.846   7.730 -0.0883 -0.2175 -0.2523
    1W        W45892   2.282  16.782   2.910  0.0617  0.0455  0.1039
    1W        W45893   3.851  23.090   9.342  0.1581  0.4976  0.1149
    1W        W45894  12.205  20.308   8.531 -0.1529 -0.4586 -0.0369
    1W        W45895  17.114   2.009   8.335  0.0457  0.2359 -0.0568
    1W        W45896  17.386   5.310   0.192 -0.0663 -0.3209  0.2209
    1W        W45897   3.547   7.029   0.524 -0.3190  0.0978  0.0575
    1W        W45898  10.082  24.660   9.368 -0.2516 -0.0334 -0.0172
    1W        W45899  23.340  19.932   3.287  0.0943  0.1280  0.1199
    1W        W45900   7.554  21.247   8.994  0.1181 -0.0942  0.1304
    1W        W45901   2.941  16.706   0.919  0.1410  0.1035  0.0133
    1W        W45902  23.048  27.418   0.939 -0.2179  0.3332 -0.0097
    1W        W45903  21.676  20.232   9.912  0.0029  0.0106  0.1819
    1W        W45904   9.136   7.608   1.771  0.2463 -0.3300 -0.2360
    1W        W45905  20.276  11.954   9.150  0.0436 -0.1634  0.2571
    1W        W45906  10.361   1.608   1.626  0.0271 -0.1142 -0.1644
    1W        W45907  18.424  17.068   2.503 -0.1208  0.0637 -0.2118
    1W        W45908  28.451   0.102   1.852  0.2971  0.0488 -0.2528
    1W        W45909   3.007  13.473   8.537  0.0699 -0.1964 -0.0654
    1W        W45910   3.868  25.244   0.129  0.2627  0.2442  0.1390
    1W        W45911  11.705  20.063   2.758 -0.1026  0.4712 -0.1761
    1W        W45912  19.716  27.169   8.209 -0.1279  0.0095  0.0020
    1W        W45913  23.348  14.193   2.622  0.0511  0.2481  0.3478
    1W        W45914  26.778  23.847   3.246  0.0726  0.2194  0.0450
    1W        W45915   3.958  27.360   0.891  0.0921  0.0114 -0.1088
    1W        W45916  21.940  10.895   8.861 -0.0434 -0.0717  0.2289
    1W        W45917   3.942   2.830   4.152 -0.0612 -0.0153  0.2342
    1W        W45918  11.657   8.914   9.280 -0.0799 -0.1083  0.3043
    1W        W45919   7.105  21.789   2.741  0.1592  0.0124 -0.0123
    1W        W45920  13.054  11.564   6.076  0.0808 -0.4345 -0.0479
    1W        W45921  15.738   6.398   7.330 -0.1084  0.1258  0.0965
    1W        W45922  17.960  17.481   9.838  0.0850  0.1332  0.4960
    1W        W45923  23.846  14.303   0.990  0.2673 -0.2958  0.1266
    1W        W45924   5.121  17.352   7.966  0.3180  0.0486  0.1016
    1W        W45925   3.939  15.276   8.879  0.1307 -0.1999 -0.1119
    1W        W45926   3.955  12.757   7.780  0.0588 -0.0441 -0.1303
    1W        W45927  28.255  11.604   7.331 -0.3615 -0.1238 -0.1238
    1W        W45928  10.172  19.267   8.874  0.0256  0.1176  0.0680
    1W        W45929  27.815  28.517   0.677 -0.2307  0.0837 -0.0832
    1W        W45930  19.831  12.278   2.299 -0.1786 -0.0088  0.1038
    1W        W45931  19.718  26.541   0.247 -0.0903  0.1134  0.0093
    1W        W45932   8.753   5.058   1.660 -0.1198 -0.1091  0.1273
    1W        W45933  11.921  16.019   9.944  0.2498  0.1151 -0.0941
    1W        W45934   1.588  21.243   3.451  0.1767 -0.2583 -0.0070
    1W        W45935  10.112   9.013   0.801 -0.0997  0.0340  0.4625
    1W        W45936  25.549  26.913   2.873  0.1989  0.0803 -0.0755
    1W        W45937  16.666   6.754   7.153  0.2419 -0.1320 -0.1106
    1W        W45938   8.701   4.385   0.173  0.1224  0.2610 -0.1485
    1W        W45939   4.104   9.605   2.645 -0.2367 -0.0216  0.2200
    1W        W45940  21.852  28.311   7.823  0.3819 -0.2182 -0.0066
    1W        W45941  25.860  11.026   9.197  0.0872 -0.1513  0.0552
    1W        W45942  23.079   8.466   8.590  0.2744  0.2219 -0.1860
    1W        W45943  27.805  13.956   7.255 -0.1334 -0.1142 -0.1666
    1W        W45944  14.621  17.946   2.496  0.0045  0.5518 -0.1633
    1W        W45945  12.598  11.628   1.086 -0.0803 -0.5722  0.0352
    1W        W45946   3.100  28.599   0.073  0.2943  0.0112 -0.1352
    1W        W45947  25.433  24.730   2.530 -0.0857  0.1731 -0.2233
    1W        W45948  25.914  11.813   9.783  0.2303 -0.0880 -0.0211
    1W        W45949  12.074   5.882   5.747  0.1818  0.0703  0.2163
    1W        W45950  17.056   6.580   7.463 -0.0195  0.1071 -0.1918
    1W        W45951  16.097  20.715   7.805 -0.0461  0.1482  0.1947
    1W        W45952   6.219  27.554   2.162  0.2283 -0.0920 -0.2220
    1W        W45953  24.364  20.808   7.521 -0.0237  0.1012  0.2710
    1W        W45954   1.312  18.184   9.207  0.3105  0.0857 -0.0174
    1W        W45955   3.090  17.159   1.085  0.0530  0.0776 -0.2200
    1W        W45956  28.426  12.808   9.784 -0.1828 -0.1103  0.0616
    1W        W45957   2.239  28.123   3.561 -0.0421 -0.3364  0.0673
    1W        W45958   3.859   7.079   7.636  0.2151 -0.1339  0.0843
    1W        W45959  23.875   2.918   1.905 -0.0178  0.1495 -0.2507
    1W        W45960   9.757  12.695   6.048  0.2319  0.1906  0.3521
    1W        W45961  28.619  28.741   9.842  0.0997  0.1606 -0.1321
    1W        W45962   7.728  19.528   2.652  0.0233  0.0334  0.0984
    1W        W45963  13.810  13.674   7.366  0.0847 -0.0922 -0.0975
    1W        W45964  25.636   1.478   3.144 -0.3399  0.0904 -0.3799
    1W        W45965  24.015  10.885   8.693 -0.0155  0.0135 -0.1850
    1W        W45966  20.473   1.443   7.920 -0.5140 -0.0001  0.1087
    1W        W45967   7.178  27.106   0.801 -0.1190 -0.2684 -0.1197
    1W        W45968  22.452   0.150   8.738  0.0548  0.1744  0.0594
    1W        W45969   0.931   9.723   8.663  0.0218  0.1818 -0.0394
    1W        W45970  27.303  26.894   1.036  0.1001  0.0433 -0.3557
    1W        W45971  22.753  13.144   7.704  0.0621 -0.1721 -0.1148
    1W        W45972   7.103   7.012   8.811 -0.0642  0.0901 -0.0425
    1W        W45973   7.840   0.392   8.693 -0.1590  0.0627  0.1979
    1W        W45974  18.409  23.947   9.722 -0.0306 -0.2098  0.2149
    1W        W45975  23.671   7.768   1.663 -0.1586 -0.0531 -0.0318
    1W        W45976  14.860  11.731   7.447 -0.1153  0.2069  0.2408
    1W        W45977  11.310  28.621   2.082 -0.0488 -0.0816  0.0544
    1W        W45978   7.164  24.619   7.660  0.0012 -0.0948 -0.0849
    1W        W45979  27.776  22.338   3.385 -0.1600  0.2798  0.1897
    1W        W45980  10.714  18.201   9.012 -0.0115 -0.2836 -0.0838
    1W        W45981  26.167   1.267   0.986 -0.1461 -0.0463  0.1152
    1W        W45982  22.154   6.013   8.977  0.0413 -0.2823 -0.1887
    1W        W45983  16.988  16.607   6.421 -0.2924 -0.1399  0.0685
    1W        W45984  12.736   4.592   1.297 -0.0658  0.0004  0.1583
    1W        W45985  25.112   5.587   0.834 -0.2053  0.0801  0.3343
    1W        W45986   3.731  17.811   2.208  0.0239  0.1727  0.0853
    1W        W45987  27.924  11.546   2.098 -0.0535 -0.1579 -0.0234
    1W        W45988   2.468  28.506   3.741  0.2611 -0.1715 -0.0667
    1W        W45989   8.829  20.109   8.945  0.0597 -0.0943 -0.2274
    1W        W45990  27.928  13.293   0.241 -0.0051 -0.2094  0.2181
    1W        W45991   4.609  20.348   9.485  0.2255  0.0247  0.0139
    1W        W45992  27.690   3.099   8.022  0.1705 -0.0119 -0.1774
    1W        W45993  23.679   1.191   9.176  0.1527  0.1192  0.2426
    1W        W45994  11.007  22.004   1.523 -0.0095  0.1066 -0.0996
    1W        W45995  19.195  21.753   0.397 -0.3509 -0.2126  0.1263
    1W        W45996  15.218  14.401   2.120 -0.0723 -0.1433  0.1522
    1W        W45997  27.275   4.463   0.182 -0.0883 -0.0065  0.3427
    1W        W45998  17.989  14.615   0.618  0.2079 -0.1516 -0.0693
    1W        W45999  26.090  24.840   9.991  0.0595  0.1925  0.1728
    1W        W46000   2.689   7.835   3.201 -0.0688  0.0485 -0.1444
    1W        W46001  14.815  21.164   9.915  0.1478 -0.0557 -0.2397
    1W        W46002   9.672  10.197   7.151 -0.1391 -0.2406 -0.4801
    1W        W46003   4.084  28.687   8.686  0.0112 -0.0099 -0.1173
    1W        W46004  23.630   6.871   2.543  0.1548 -0.1731  0.0824
    1W        W46005  18.809  18.425   7.762  0.1009  0.0073 -0.2720
    1W        W46006   1.693   9.224   3.703 -0.0656  0.2446 -0.0986
    1W        W46007  19.887   2.476   1.787  0.3916 -0.0382 -0.2478
    1W        W46008  10.581  13.737   1.744 -0.1718 -0.0996  0.0679
    1W        W46009  28.209   7.488   8.980 -0.2755  0.1300 -0.3898
    1W        W46010  26.864  18.297   1.772  0.0733 -0.0688 -0.1722
    1W        W46011  16.209   5.781   5.677 -0.1347  0.0789 -0.2813
    1W        W46012  24.181  26.185   9.441 -0.0270 -0.4407  0.0293
    1W        W46013   2.831  17.945   2.273  0.0298 -0.2295 -0.3232
    1W        W46014  11.980  27.338   8.544  0.0284 -0.0080 -0.0146
    1W        W46015   1.039   7.090   9.104 -0.0626  0.1520  0.1910
    1W        W46016  16.593  15.553   0.748 -0.0292 -0.1560 -0.3847
    1W        W46017  13.941   1.831   8.743  0.0152  0.0081 -0.0590
    1W        W46018   5.109   6.331   7.855  0.0853 -0.1267  0.0727
    1W        W46019   8.847  23.635   8.561 -0.1115  0.1509  0.3912
    1W        W46020  24.770  19.243   0.562  0.0702  0.0944  0.1894
    1W        W46021  26.595   9.163   2.955 -0.1595 -0.1050 -0.2202
    1W        W46022  28.780  15.191   9.591 -0.1285  0.3042  0.0238
    1W        W46023  14.457  14.448   6.181 -0.0335  0.3931 -0.2755
    1W        W46024  11.200   9.807   1.057 -0.0398  0.2864 -0.0741
    1W        W46025   7.783   6.608   8.032 -0.0378 -0.2605 -0.0463
    1W        W46026   8.610  15.840   7.468  0.1452  0.1331  0.0455
    1W        W46027   0.905  17.606   3.155  0.1347  0.2973 -0.1038
    1W        W46028  27.898  12.893   8.412 -0.1034 -0.1127  0.0817
    1W        W46029  10.243  16.606   6.647 -0.1960  0.1444  0.2436
    1W        W46030  10.034   9.244   6.087  0.2762  0.2471  0.1300
    1W        W46031  22.074   3.562   7.903  0.2234 -0.0974 -0.0469
    1W        W46032  23.080  28.327   1.894 -0.0237 -0.2944 -0.6630
    1W        W46033  24.319   1.789   1.595 -0.1931  0.4014 -0.1106
    1W        W46034   8.503  11.545   6.773  0.2254 -0.1111 -0.1294
    1W        W46035  18.015   4.905   1.186 -0.3391 -0.1052 -0.0295
    1W        W46036  25.833   0.180   2.489  0.0741 -0.0900 -0.0935
    1W        W46037  27.163  13.227   7.396  0.0024  0.2448 -0.0959
    1W        W46038  18.912   8.440   9.788  0.0611 -0.0436  0.0282
    1W        W46039  19.503  18.203   1.089 -0.0988  0.2949 -0.1555
    1W        W46040  12.034   9.462   1.616  0.2731  0.1445  0.1435
    1W        W46041   0.730   2.331   3.770  0.0495  0.1117  0.2624
    1W        W46042  13.304  13.949   6.603  0.2340  0.0976 -0.1339
    1W        W46043   1.455   7.067   9.368 -0.1978 -0.3290 -0.0927
    1W        W46044   1.232  23.413   3.029  0.4861 -0.1108 -0.1210
    1W        W46045  17.928  27.503   8.767  0.0947  0.0002  0.0790
    1W        W46046  23.202   5.364   0.731 -0.3023 -0.0966  0.0427
    1W        W46047  17.534   3.084   7.304  0.0795 -0.1828 -0.3322
    1W        W46048  16.563  13.596   6.582 -0.0495  0.1700  0.1605
    1W        W46049  25.545   7.221   9.547 -0.0052  0.1899  0.0844
    1W        W46050  12.498  23.205   1.737  0.0921 -0.0156  0.0540
    1W        W46051  11.303   5.454   6.893 -0.0219 -0.0173  0.0427
    1W        W46052   1.887  27.478   0.932  0.3466 -0.1391  0.2323
    1W        W46053  24.556  20.407   9.274  0.2297 -0.1206  0.1464
    1W        W46054  22.165   6.139   1.490  0.2780  0.2004  0.2758
    1W        W46055   3.661   6.301   2.031 -0.0990 -0.0945 -0.1149
    1W        W46056   2.515  17.351   7.945 -0.2922 -0.1345  0.2748
    1W        W46057   9.811  10.906   6.902  0.0329  0.1599 -0.2451
    1W        W46058  26.204  27.869   8.581  0.1085  0.0063  0.0709
    1W        W46059  18.841   9.706   9.933  0.1379 -0.3613 -0.1476
    1W        W46060  10.089  11.065   9.986  0.1409 -0.0723 -0.2298
    1W        W46061   1.989  27.620   9.083 -0.2514 -0.3212 -0.2233
    1W        W46062  19.298   9.911   8.446  0.0504 -0.1058  0.0350
    1W        W46063  20.010   7.886   1.428 -0.0696 -0.0107 -0.1095
    1W        W46064   1.220  25.928   2.422 -0.0438  0.2148 -0.1007
    1W        W46065   2.622  26.875   3.239  0.1741 -0.2477  0.0738
    1W        W46066  28.024  13.122   9.748  0.0638 -0.0562 -0.0735
    1W        W46067  13.330  24.276   2.095 -0.0671  0.0964 -0.0540
    1W        W46068  27.063   9.662   9.932  0.5067  0.0146  0.0050
    1W        W46069   6.352  12.945   7.475  0.0673 -0.0745 -0.0956
    1W        W46070  26.564   8.706   1.158 -0.0620 -0.1248 -0.0061
    1W        W46071  27.516   9.237   8.919 -0.1381  0.2488 -0.0450
    1W        W46072  20.046   6.976   0.364  0.0033  0.0740  0.1222
    1W        W46073   0.454   0.123   3.738 -0.0039  0.0130  0.0646
    1W        W46074  23.084  12.160   0.020  0.0159 -0.0834  0.0233
    1W        W46075   8.613   4.509   2.615  0.0352 -0.4630  0.0429
    1W        W46076   2.139  26.027   1.271 -0.0042 -0.0868  0.2223
    1W        W46077  14.720   1.613   2.068 -0.1813  0.1876 -0.1945
    1W        W46078   5.973  23.905   9.787 -0.0780  0.1010  0.2626
    1W        W46079   2.812  24.429   1.222 -0.1140  0.0362  0.1755
    1W        W46080  20.078   1.621   6.818 -0.0521 -0.0911 -0.0455
    1W        W46081  18.835  24.063   0.671 -0.2245  0.3603 -0.1989
    1W        W46082   7.806  24.676   0.916  0.2086 -0.1257 -0.2106
    1W        W46083  12.568  11.450   6.218  0.3757  0.1472  0.0188
    1W        W46084   1.718   1.514   2.393  0.1477 -0.2248 -0.0218
    1W        W46085  11.088  14.182   8.024  0.0477  0.0241 -0.1330
    1W        W46086  21.955  10.505   9.134 -0.1057  0.1006  0.1056
    1W        W46087  11.126  17.788   0.164  0.1958  0.1918  0.2657
    1W        W46088  20.326   5.543   1.959 -0.0190 -0.0134 -0.0133
    1W        W46089  11.864  15.375   1.065  0.0941  0.1878  0.2166
    1W        W46090   0.325  22.315   1.696 -0.1118 -0.0137 -0.0271
    1W        W46091  21.513  14.012   7.070 -0.0945 -0.0347 -0.2964
    1W        W46092  15.115   8.613   0.724  0.0125  0.3144 -0.1963
    1W        W46093  25.144  21.067   8.582 -0.0544 -0.1264 -0.0608
    1W        W46094  14.021  13.014   6.070 -0.0909 -0.0609  0.0030
    1W        W46095   6.908   7.360   2.758 -0.2041 -0.0242 -0.3290
    1W        W46096  17.952  16.801   0.555 -0.3558 -0.0651 -0.1497
    1W        W46097  28.868   4.379   9.227 -0.0908  0.2437 -0.3125
    1W        W46098  16.755  22.307   0.846  0.4386  0.1751  0.1720
    1W        W46099  19.769  11.093   7.644  0.0518  0.1403  0.2544
    1W        W46100  19.557  27.896   1.259 -0.0716 -0.0863 -0.2998
    1W        W46101   0.347  18.252   8.295  0.2887 -0.0287 -0.0794
    1W        W46102   8.941  21.995   4.281 -0.0099  0.1848  0.2489
    1W        W46103   5.934  14.958   0.774  0.2034 -0.5870  0.1675
    1W        W46104   3.440   4.370   3.071 -0.0781 -0.1519  0.1446
    1W        W46105  28.584  25.394   9.539  0.1945 -0.1517 -0.0226
    1W        W46106   9.752  21.127   0.027  0.1816 -0.0932 -0.0612
    1W        W46107  12.961  10.169   6.333 -0.0247  0.0816 -0.1473
    1W        W46108  21.461  13.537   9.023 -0.2101  0.0365  0.1446
    1W        W46109   1.585   3.811   1.609  0.0659  0.0012 -0.0206
    1W        W46110  20.073  28.187   2.429 -0.4012 -0.2664  0.2533
    1W        W46111  16.905   9.919   1.409 -0.0440 -0.1013  0.1865
    1W        W46112   7.265  18.330   7.752 -0.2168  0.0632  0.0186
    1W        W46113  16.197   4.688   7.900 -0.0151  0.2264  0.0759
    1W        W46114  20.190  13.601   2.156 -0.3841  0.0394 -0.0314
    1W        W46115  21.238  18.148   0.831  0.0909 -0.0922  0.0666
    1W        W46116  13.980  27.687   0.167  0.1223  0.0509  0.1768
    1W        W46117   1.522  10.166   1.099  0.1307  0.2263 -0.2947
    1W        W46118   5.141   7.172   2.558 -0.0880 -0.0474  0.0238
    1W        W46119   8.871  12.720   1.299  0.1969 -0.2027  0.2285
    1W        W46120  20.838   1.260   8.323 -0.3217  0.2673 -0.2518
    1W        W46121  28.845  20.697   1.551  0.1113 -0.3162  0.1696
    1W        W46122   3.600  20.869   8.885 -0.0502 -0.0018 -0.0045
    1W        W46123  17.232   4.091   6.481  0.1959  0.0910 -0.1569
    1W        W46124  16.803  15.378   1.393  0.1693  0.0787 -0.2911
    1W        W46125  23.076  16.649   9.367 -0.2830 -0.1359  0.4293
    1W        W46126  24.540  23.373   0.142  0.2642  0.0113 -0.0610
    1W        W46127  18.383  19.987   1.612 -0.0190 -0.0249  0.0223
    1W        W46128   4.304   3.314   3.591  0.0760  0.0354 -0.1777
    1W        W46129  21.469  20.898   9.273  0.0940 -0.1163  0.2637
    1W        W46130  25.433  16.774   1.936 -0.0467 -0.0976  0.1013
    1W        W46131  25.247  17.295   0.334 -0.0198  0.1754  0.1113
    1W        W46132  11.225   8.520   8.390  0.0384  0.1541 -0.0206
    1W        W46133  11.174   4.914   8.405 -0.0015  0.2549 -0.0584
    1W        W46134   5.807  18.395   7.660  0.1427 -0.1141 -0.1710
    1W        W46135  18.424  16.563   6.977  0.0803  0.2444 -0.1185
    1W        W46136   5.586  13.466   8.004 -0.3435 -0.4178  0.4287
    1W        W46137  21.973  26.839   1.657 -0.0436 -0.2801 -0.0414
    1W        W46138   9.728   0.635   2.573  0.2751 -0.1194  0.2638
    1W        W46139  23.808  22.010   7.143  0.1755 -0.0014  0.0245
    1W        W46140  25.504  10.529   8.072 -0.0019 -0.2288  0.3614
    1W        W46141  15.094  15.570   7.311  0.2527  0.2368  0.3303
    1W        W46142  18.988  15.037   9.437  0.0314  0.0627  0.1030
    1W        W46143  20.467  16.318   0.560 -0.0776 -0.0697 -0.1313
    1W        W46144  18.556  23.981   0.208  0.1765  0.1659  0.1169
    1W        W46145   5.190  24.379   8.980 -0.1616  0.2820 -0.2343
    1W        W46146   8.093  18.584   6.229 -0.1647 -0.1002  0.2017
    1W        W46147  26.168  24.529   8.480  0.1485  0.2418 -0.3894
    1W        W46148  16.842   7.011   0.230  0.4571  0.0584 -0.0758
    1W        W46149  17.701  19.411   7.764  0.0131 -0.1279 -0.0522
    1W        W46150  17.309  18.814   9.411  0.3238  0.1795  0.1804
    1W        W46151   0.062  19.574   9.099 -0.1659 -0.4332  0.0292
    1W        W46152  13.886  16.303   0.286 -0.1508 -0.0478 -0.3004
    1W        W46153  17.237   9.260   7.483  0.2347 -0.2931 -0.0070
    1W        W46154   2.133  26.286   1.714 -0.1626 -0.1980  0.1757
    1W        W46155  24.995  20.341   1.150  0.1524  0.1038 -0.0055
    1W        W46156  22.525  27.700   9.052  0.2750 -0.1337 -0.0667
    1W        W46157  26.260   1.901   2.155  0.1066  0.0592  0.0769
    1W        W46158  18.771  18.457   8.351 -0.0512  0.0306  0.2657
    1W        W46159  13.062  11.093   8.613  0.0599  0.0395 -0.1073
    1W        W46160  18.395  11.554   1.307  0.3495  0.3584 -0.7309
    1W        W46161  22.227   1.370   2.232  0.0620 -0.1055  0.2113
    1W        W46162  13.384   7.294   0.547 -0.0341  0.2991 -0.3096
    1W        W46163   7.735   0.400   3.517  0.0025  0.1934  0.0908
    1W        W46164   5.142   8.837   2.303  0.1984  0.0721 -0.0218
    1W        W46165  26.313   9.368   2.482  0.0137 -0.0738 -0.2067
    1W        W46166  19.366  28.223   2.918 -0.0628 -0.1175  0.1381
    1W        W46167  13.389   8.198   0.551 -0.0870  0.1246 -0.0862
    1W        W46168  25.176  22.280   1.368  0.3259  0.0504  0.0749
    1W        W46169  18.657  12.304   8.380 -0.0667  0.1077 -0.2694
    1W        W46170  16.749  17.587   8.054  0.0215  0.1681 -0.1839
    1W        W46171  24.128   7.333   1.092 -0.2026 -0.1526 -0.1311
    1W        W46172  23.367  28.870   0.570  0.1616  0.0980  0.0608
    1W        W46173  21.795   3.725   9.210 -0.2605 -0.0684 -0.1531
    1W        W46174  15.470   0.240   9.866 -0.2759 -0.1778 -0.2363
    1W        W46175  23.710  14.634   0.201 -0.3161 -0.0592  0.0728
    1W        W46176   1.342  13.576   1.549  0.0760 -0.0220 -0.2071
    1W        W46177   8.863  18.965   0.861  0.0072  0.0151 -0.0735
    1W        W46178  19.829   0.840   9.644  0.1743 -0.1609 -0.0593
    1W        W46179  14.136  19.219   9.799 -0.0148 -0.1933 -0.0961
    1W        W46180   8.669   9.812   8.681  0.0662 -0.0124  0.2122
    1W        W46181  22.617  24.497   2.667 -0.1530 -0.1339 -0.1919
    1W        W46182  15.211  27.870   9.196  0.2429  0.0577 -0.0076
    1W        W46183  28.460  11.299   7.805 -0.2150  0.1109 -0.2842
    1W        W46184  10.469  23.802   3.623 -0.1946 -0.0998 -0.0915
    1W        W46185   2.212  13.379   8.096  0.2468  0.0803 -0.0279
    1W        W46186   1.802  20.841   3.178 -0.3132  0.0177 -0.0651
    1W        W46187   8.800   3.986   8.081  0.2427 -0.1310  0.2560
    1W        W46188  18.608   9.432   1.444 -0.1148 -0.1541  0.2593
    1W        W46189  14.044  22.841   2.534  0.1808 -0.0159  0.2310
    1W        W46190  17.252  14.508   8.728 -0.0841 -0.2671  0.0507
    1W        W46191  10.950   0.776   1.928  0.0912 -0.4197 -0.1134
    1W        W46192  22.324  18.965   8.448 -0.0152 -0.0448 -0.5222
    1W        W46193   5.154  17.953   0.337  0.1191 -0.0891 -0.1759
    1W        W46194  14.253  22.124   0.071 -0.1576 -0.2045 -0.0998
    1W        W46195  16.021  15.150   0.742 -0.1007  0.2689 -0.1878
    1W        W46196  27.025  12.142   7.264 -0.1251 -0.1379 -0.2570
    1W        W46197  24.399  14.346   8.816  0.2936  0.0065  0.0854
    1W        W46198  10.394  23.547   1.245 -0.0015  0.2161  0.0536
    1W        W46199  20.102  14.983   6.655 -0.0353 -0.0242  0.0472
    1W        W46200  11.245   0.410   8.754 -0.0335 -0.1077  0.0700
    1W        W46201  10.100  16.821   9.997  0.1124  0.0093 -0.1859
    1W        W46202   7.423  14.464   1.780 -0.1200 -0.1075 -0.0976
    1W        W46203  14.882  11.151   6.439 -0.0361 -0.1471 -0.3003
    1W        W46204   8.164  25.349   3.224  0.3267  0.0457 -0.0035
    1W        W46205   5.373  13.883   2.099  0.3423 -0.0613 -0.2522
    1W        W46206   7.563  16.746   9.857  0.2903 -0.0415  0.3196
    1W        W46207  26.108  28.759   8.262 -0.3397 -0.0775 -0.0440
    1W        W46208  16.791  20.571   6.484  0.1060  0.0185  0.5213
    1W        W46209   9.786  17.771   0.539  0.0320 -0.1052 -0.1001
    1W        W46210  15.720  24.618   8.492 -0.2083 -0.1949 -0.2040
    1W        W46211  15.984  28.068   8.391 -0.0787  0.0277  0.1445
    1W        W46212   9.675  19.674   1.380 -0.0840  0.2387 -0.4297
    1W        W46213  21.033  24.153   1.943 -0.0093  0.0401  0.1532
    1W        W46214  25.649  11.088   2.097  0.0184 -0.0785  0.0150
    1W        W46215  27.500  25.540   2.073 -0.4071 -0.0101  0.2294
    1W        W46216   9.406  21.350   1.035 -0.1015 -0.4227 -0.0492
    1W        W46217  16.665  10.096   6.510  0.6752  0.0805 -0.3222
    1W        W46218  11.122  20.042   0.675  0.0983  0.3261 -0.3468
    1W        W46219  16.155  20.426   2.738  0.1851  0.1476 -0.0954
    1W        W46220   3.238   4.794   3.500  0.0500  0.2771  0.2633
    1W        W46221  23.102  17.493   8.775  0.1466  0.1145  0.0891
    1W        W46222   8.583  11.282   0.918  0.1326  0.2772  0.0569
    1W        W46223  15.477   2.547   7.550 -0.3200 -0.2628 -0.1193
    1W        W46224   3.136  27.019   8.669  0.2520  0.1324  0.0304
    1W        W46225  10.700   2.493   8.818 -0.2401 -0.2948 -0.2388
    1W        W46226  23.210   0.003   9.518  0.1997 -0.2196 -0.0701
    1W        W46227  24.640   9.002   7.849  0.3187 -0.1922 -0.0431
    1W        W46228   9.885  13.989   8.151  0.2231  0.0441 -0.2883
    1W        W46229  10.776   8.746   2.420  0.1550  0.0273 -0.1229
    1W        W46230   8.140   4.300   2.652  0.1519  0.1450 -0.0725
    1W        W46231  24.006  21.668   9.744 -0.1652  0.0341  0.1147
    1W        W46232  21.009  25.532   2.329 -0.0885  0.4748 -0.0620
    1W        W46233  11.902   7.858   0.081  0.1633  0.0065 -0.1935
    1W        W46234  13.280  18.599   0.537  0.0255  0.0375 -0.2899
    1W        W46235  25.698  24.703   1.425  0.1166 -0.0848  0.0367
    1W        W46236   7.320   1.803   1.061 -0.1233 -0.1931 -0.0866
    1W        W46237   6.932   4.395   1.834  0.0313  0.0602  0.0858
    1W        W46238  27.554  13.048   3.185  0.2470  0.0993  0.1769
    1W        W46239  10.059  19.372   0.116 -0.0358  0.0399 -0.2036
    1W        W46240  21.179   2.153   7.571 -0.0294 -0.0996 -0.0233
    1W        W46241  12.127  20.962   2.838  0.0435 -0.4031 -0.0130
    1W        W46242  27.714  27.902   0.261  0.3266  0.0072 -0.1528
    1W        W46243  25.105   8.675   1.414 -0.1058 -0.1967 -0.3803
    1W        W46244  18.772  24.351   2.141  0.2194 -0.0940 -0.0852
    1W        W46245  12.287   3.809   6.942  0.0732 -0.0449  0.1475
    1W        W46246  16.566   4.990   6.547  0.3226  0.0633 -0.0956
    1W        W46247  16.316  16.547   2.126  0.0405  0.0215 -0.1306
    1W        W46248  21.066   6.998   9.131  0.2029 -0.5347  0.1698
    1W        W46249  21.328  22.141   0.963  0.0303 -0.0259  0.0735
    1W        W46250  15.496  11.358   9.162 -0.0132 -0.1873 -0.1434
    1W        W46251  25.379  27.762   9.660 -0.2575  0.0416 -0.2214
    1W        W46252  14.409   3.154   0.623  0.2387  0.0644 -0.3359
    1W        W46253   2.479  11.763   0.391  0.2637  0.0567 -0.1136
    1W        W46254  24.917   6.337   2.687  0.3009 -0.0505 -0.2623
    1W        W46255   0.459  11.523   6.497 -0.2261 -0.0993  0.2227
    1W        W46256   7.145  25.496   1.114  0.0019 -0.0287  0.1112
    1W        W46257   0.757  13.281   9.136  0.3404  0.0753 -0.0547
    1W        W46258   4.843  10.545   9.973  0.1118  0.4264 -0.3064
    1W        W46259  17.804   3.592   0.259  0.1598  0.0343  0.0876
    1W        W46260   3.554  12.892   9.171 -0.1047  0.0138  0.0148
    1W        W46261  18.532   5.863   0.538  0.1787 -0.3829  0.1968
    1W        W46262  20.648  22.836   1.043 -0.1796 -0.2091 -0.2030
    1W        W46263  16.163  18.851   8.937  0.4062  0.1043 -0.0138
    1W        W46264  13.898   4.392   9.896 -0.1788 -0.1420  0.1853
    1W        W46265  22.705  19.258   8.855  0.2369  0.1431  0.0894
    1W        W46266   2.570  15.091   1.533 -0.2016  0.0473  0.0351
    1W        W46267  14.776  28.054   7.392  0.0733 -0.0267 -0.0330
    1W        W46268  11.659  16.551   6.549  0.1706 -0.0754  0.1776
    1W        W46269  12.308  11.558   5.718  0.2293 -0.1175  0.0385
    1W        W46270  17.093  12.141   7.267 -0.1146  0.0953  0.3786
    1W        W46271  25.526  14.504   0.382  0.1912 -0.1922 -0.1492
    1W        W46272  15.310  11.925   7.461 -0.0092 -0.0043  0.1701
    1W        W46273   8.464  21.283   0.716  0.2480  0.0107  0.0446
    1W        W46274   9.916  15.185   8.746 -0.2314 -0.1944  0.1883
    1W        W46275   4.728  10.732   3.016 -0.1201 -0.1543  0.0735
    1W        W46276  16.855  24.337   9.556 -0.1670 -0.3794 -0.0910
    1W        W46277   9.339  27.919   0.221  0.2338  0.3092 -0.2199
    1W        W46278  10.595   3.693   0.883 -0.0827  0.1298 -0.0430
    1W        W46279  23.553  26.469   9.332 -0.0221  0.2231 -0.0758
    1W        W46280  24.721   5.672   9.465 -0.0233  0.0239  0.0173
    1W        W46281  14.363  28.669   8.234  0.0982 -0.1300  0.1250
    1W        W46282  12.552  21.097   8.917 -0.0603 -0.3021 -0.1082
    1W        W46283   6.664   1.860   7.834 -0.0198 -0.2070  0.0439
    1W        W46284  24.002  17.577   6.645 -0.2116 -0.0817 -0.2475
    1W        W46285   1.881  22.751   9.196  0.0288 -0.0143  0.1725
    1W        W46286  16.284   0.689   8.792  0.2117 -0.0224 -0.0795
    1W        W46287  17.889   5.157   0.265 -0.0848  0.4742  0.0637
    1W        W46288  12.627  18.307   8.433 -0.1261  0.1992  0.1427
    1W        W46289  22.761  20.992   2.759 -0.0134  0.2389 -0.2682
    1W        W46290   4.946   7.494   3.158 -0.4326 -0.0186 -0.0473
    1W        W46291   1.464  14.232   0.725 -0.1752 -0.2111 -0.1522
    1W        W46292  20.831   4.327   8.760 -0.0368 -0.3267  0.0476
    1W        W46293  27.746  24.382   7.392 -0.1782  0.0383  0.2338
    1W        W46294  19.918  27.803   7.015  0.0663  0.1751 -0.2564
    1W        W46295   9.332  21.425   7.158  0.0879  0.0846  0.2126
    1W        W46296  16.871  23.769   2.306 -0.1072  0.0703 -0.2378
    1W        W46297   4.797   8.302   0.316  0.0032  0.3150  0.4061
    1W        W46298  21.259  15.973   5.922 -0.0629  0.0170 -0.0343
    1W        W46299  21.288   3.846   9.364  0.1265 -0.2266  0.0283
    1W        W46300  10.113   3.896   9.293  0.2544 -0.0437  0.0161
    1W        W46301  11.514   6.042   1.303  0.2382 -0.3936 -0.1110
    1W        W46302   5.673   0.188   8.732  0.1840 -0.1551  0.0963
    1W        W46303  14.577  12.190   0.719  0.0021  0.1010  0.0439
    1W        W46304   0.296  15.295   7.246  0.0393 -0.0517  0.1078
    1W        W46305  27.662  26.719   1.610 -0.0299  0.0075 -0.2074
    1W        W46306  26.063  21.700   2.274 -0.0422 -0.2346  0.0539
    1W        W46307  24.136  14.982   7.788  0.3555  0.3007 -0.2192
    1W        W46308   9.192  22.325   1.231 -0.0108 -0.1570  0.0533
    1W        W46309  20.591  21.121   1.535 -0.1313 -0.2089 -0.1750
    1W        W46310  11.380  14.073   5.872 -0.0506 -0.0262  0.1459
    1W        W46311  27.170  10.097   8.869  0.2233  0.1342  0.0111
    1W        W46312  12.020   8.407   1.593  0.4116  0.2541  0.0029
    1W        W46313  28.609  25.863   1.453  0.1272  0.0803  0.1935
    1W        W46314   2.374   1.649   9.960  0.1468 -0.1594 -0.0725
    1W        W46315   7.883  22.575   9.336  0.0182  0.1670 -0.5307
    1W        W46316   7.380  13.853   6.711 -0.0336 -0.0548  0.1797
    1W        W46317  17.884   3.715   6.817 -0.0567  0.1800  0.3050
    1W        W46318  13.334  23.796   8.098 -0.1443 -0.1406  0.1285
    1W        W46319  22.493  18.859   6.871  0.1159 -0.0494 -0.2428
    1W        W46320  26.974  23.319   8.702 -0.2675  0.1282  0.0149
    1W        W46321  14.409  16.706   6.271  0.0319 -0.1640  0.3215
    1W        W46322  16.903  11.675   0.667 -0.0491 -0.2505 -0.0999
    1W        W46323  13.134  23.281   9.187  0.0872 -0.0908 -0.2939
    1W        W46324   0.928  12.749   7.909  0.0875 -0.1784 -0.2648
    1W        W46325  26.916  13.041   2.150  0.1326  0.0517 -0.3091
    1W        W46326  18.194   2.119   1.800 -0.0313  0.1116  0.2566
    1W        W46327  10.235  20.395   7.059  0.2528 -0.4307 -0.1915
    1W        W46328  28.574  28.376   8.548 -0.0922 -0.2355 -0.1330
    1W        W46329   9.026  27.843   2.968 -0.0211 -0.1400  0.3112
    1W        W46330   8.903  21.423   7.458 -0.0401 -0.2087 -0.2071
    1W        W46331  23.472   0.688   7.067 -0.0781  0.1207  0.2770
    1W        W46332  13.286  28.623   9.619 -0.0924  0.1418 -0.1159
    1W        W46333  17.358  14.389   0.512  0.0757 -0.1303 -0.0522
    1W        W46334  18.850   0.309   7.733  0.0899 -0.2230  0.0068
    1W        W46335  12.521  26.143   8.868  0.1637 -0.2325 -0.0430
    1W        W46336   4.412  27.804   3.551  0.2074  0.0817 -0.2105
    1W        W46337  26.232  23.967   2.826 -0.0854  0.0547  0.1011
    1W        W46338  28.809  21.493   1.699  0.0589 -0.0800 -0.1306
    1W        W46339   2.035   5.108   3.993 -0.4573 -0.0237  0.0293
    1W        W46340  14.206  24.826   0.704  0.1454 -0.0380 -0.2175
    1W        W46341  15.293   7.125   6.324 -0.0552  0.2711  0.0697
    1W        W46342  12.332  10.222   6.632  0.1582  0.1421  0.1658
    1W        W46343   5.993  23.044   8.671 -0.1869  0.1537  0.0304
    1W        W46344  26.064  23.567   8.341  0.0627 -0.0606 -0.6064
    1W        W46345   4.946   4.705   8.499  0.2073  0.2028 -0.1674
    1W        W46346   0.567  10.425   8.043 -0.0175 -0.1207 -0.0474
    1W        W46347   1.049  22.911   2.866 -0.0249 -0.3990 -0.2177
    1W        W46348   1.462  27.241   1.225 -0.1727 -0.1464  0.0513
    1W        W46349   5.085   0.748   8.410  0.3661  0.1209 -0.3020
    1W        W46350  28.822  23.578   4.189  0.2332 -0.3112 -0.0771
    1W        W46351  25.171  14.916   9.103 -0.0642  0.1215 -0.1254
    1W        W46352  12.916   8.680   9.321  0.1248  0.1038  0.0886
    1W        W46353   8.658  17.525   1.779 -0.0500  0.4165 -0.1682
    1W        W46354  19.071  22.167   7.201  0.0208 -0.2545 -0.1222
    1W        W46355   8.410  28.493   0.122  0.1715  0.1546  0.5145
    1W        W46356  21.344   4.085   1.139 -0.0633  0.2678  0.0875
    1W        W46357  12.128   3.359   7.246 -0.1151 -0.0741  0.1626
    1W        W46358   9.282  23.118   7.524 -0.1086 -0.0606 -0.0159
    1W        W46359  24.627  25.730   2.432 -0.1439 -0.2451 -0.1413
    1W        W46360  26.509  26.278   2.596 -0.2746  0.0399 -0.0380
    1W        W46361  27.556  17.898   9.829  0.0326  0.2374  0.1398
    1W        W46362   4.233   5.816   3.162  0.2279 -0.2287 -0.0902
    1W        W46363  20.453  22.345   0.497 -0.0293  0.1074  0.1779
    1W        W46364  15.118  11.038   2.261  0.1519  0.0290  0.1150
    1W        W46365   1.409  17.915   3.397  0.2289 -0.1199  0.1243
    1W        W46366  12.121   7.360   9.645  0.1191  0.0240  0.3487
    1W        W46367   7.025  11.246   1.429  0.0657 -0.1055  0.0405
    1W        W46368  11.536  28.012   9.240  0.2071 -0.1036 -0.1739
    1W        W46369  12.293  25.391   9.705 -0.1583  0.0914  0.2738
    1W        W46370  22.731  18.388   0.916  0.0362  0.0343 -0.0423
    1W        W46371  16.869   8.106   9.206  0.0739 -0.3688  0.1741
    1W        W46372  21.094  11.967   8.037 -0.1784  0.0163  0.0813
    1W        W46373  26.036   2.555   8.632  0.1719  0.2142  0.1182
    1W        W46374  18.135  28.710   1.186  0.0144 -0.1619  0.0011
    1W        W46375  28.179  15.930   7.438 -0.0070 -0.2078 -0.3329
    1W        W46376   0.815  25.001   4.188 -0.0193  0.0178  0.1949
    1W        W46377   1.551   9.299   8.453  0.1408 -0.0919 -0.1954
    1W        W46378  21.536   3.863   0.136  0.0357  0.0123  0.2633
    1W        W46379  19.792  24.969   2.130  0.0731  0.3340 -0.1434
    1W        W46380  27.736   9.589   7.532 -0.1911  0.1025  0.0402
    1W        W46381  19.750  10.353   6.872  0.0428  0.0637  0.2455
    1W        W46382   7.536  15.729   6.772  0.0812  0.2202  0.1286
    1W        W46383  12.186  24.812   0.979  0.1824  0.2442  0.1811
    1W        W46384   2.683  11.244   0.387 -0.1088  0.0371  0.0099
    1W        W46385  15.302   8.875   8.844  0.1475 -0.1560 -0.0556
    1W        W46386  19.211  20.810   2.007 -0.2399  0.1620 -0.2527
    1W        W46387   1.113  22.320   3.508  0.1595  0.2521 -0.2707
    1W        W46388  26.348   0.399   9.109 -0.1423  0.1651 -0.4472
    1W        W46389  16.712   6.577   1.779  0.2327  0.1731  0.1458
    1W        W46390   2.496   3.739   2.609 -0.1457 -0.2019  0.1722
    1W        W46391  26.179   1.703   9.613  0.1330 -0.0935 -0.1224
    1W        W46392   0.192  14.720   7.301  0.1451  0.1011  0.1717
    1W        W46393   1.249  12.601   1.642 -0.0477 -0.0400  0.0312
    1W        W46394  27.700  19.426   2.346  0.0316  0.1487 -0.3246
    1W        W46395  24.520   3.255   3.260  0.0641  0.0373 -0.2108
    1W        W46396  25.544   3.738   2.130  0.1923  0.2203 -0.0123
    1W        W46397  16.426  18.818   1.074  0.2695  0.1019  0.1433
    1W        W46398  10.296  13.752   0.997  0.2288  0.0667 -0.2009
    1W        W46399   5.023   9.187   8.236  0.2807 -0.1005 -0.1203
    1W        W46400   6.350   6.592   9.013  0.3629 -0.2646 -0.4161
    1W        W46401   2.202  25.751   3.080  0.1364 -0.1163  0.0636
    1W        W46402  13.100   5.033   7.186  0.2350 -0.0792 -0.2522
    1W        W46403  12.383  15.760   8.021  0.0502 -0.3308 -0.0285
    1W        W46404  22.770   6.049   7.816 -0.3196  0.2346  0.2999
    1W        W46405  13.398  24.654   2.413 -0.0529 -0.2012  0.0725
    1W        W46406   4.672  18.833   9.485 -0.0106  0.0597  0.0266
    1W        W46407  13.766   4.958   0.245 -0.0312 -0.1756 -0.0145
    1W        W46408  24.060   0.486   7.385  0.3844  0.1022 -0.2775
    1W        W46409   5.050   3.074   9.890  0.2562  0.0999  0.1173
    1W        W46410   4.437   2.618   3.006  0.1702  0.2195  0.3916
    1W        W46411  24.976  12.784   8.791  0.0541  0.0405 -0.1136
    1W        W46412   7.676   9.970   0.232  0.0255 -0.0419  0.1125
    1W        W46413  20.971   0.747   8.290 -0.0849 -0.0377  0.3320
    1W        W46414   4.824   0.833   8.995  0.2470 -0.2268  0.0666
    1W        W46415  20.237   5.149   6.564 -0.2824  0.2449 -0.0100
    1W        W46416  27.190  23.473   9.193 -0.1752 -0.2593 -0.3935
    1W        W46417   9.619  20.844   2.565  0.0382 -0.1035 -0.0346
    1W        W46418  26.755  12.310   2.640  0.0057 -0.4177 -0.0866
    1W        W46419  23.037  10.084   9.163  0.0116  0.0211 -0.4521
    1W        W46420   2.392   1.187   2.703  0.4656  0.1001 -0.1572
    1W        W46421  18.515   7.735   6.994  0.0075 -0.0506  0.2024
    1W        W46422  17.791  10.414   0.962 -0.1605  0.0970  0.1405
    1W        W46423  15.617  11.757   8.808 -0.1603 -0.0012 -0.2362
    1W        W46424  15.997  19.419   2.091 -0.1758  0.2443 -0.0212
    1W        W46425  15.717  19.756   8.802  0.2623 -0.0482 -0.1665
    1W        W46426   5.202  15.123   6.817 -0.0182  0.3080  0.0563
    1W        W46427  24.884  24.641   9.258 -0.1919 -0.1517 -0.2563
    1W        W46428   5.724   3.651   3.534 -0.3083 -0.1662 -0.0255
    1W        W46429  18.178  25.068   8.179 -0.0012  0.1266  0.0353
    1W        W46430  15.142  14.097   6.718 -0.2623 -0.3943  0.1056
    1W        W46431  12.324  11.342   0.060  0.2579 -0.2265  0.1046
    1W        W46432  12.202  16.095   8.949  0.0733 -0.0063  0.0068
    1W        W46433  27.211  27.163   1.903  0.3296 -0.0958  0.0884
    1W        W46434  22.325  12.307   9.666 -0.2275  0.3364 -0.1469
    1W        W46435  16.992  12.731   0.745 -0.2926 -0.0954  0.1920
    1W        W46436   2.747   8.755   7.525  0.1806  0.2680 -0.2657
    1W        W46437   6.708  20.088   8.919  0.2234  0.1701 -0.1198
    1W        W46438   6.765  28.371   2.510  0.0051  0.0491  0.0784
    1W        W46439  22.368   2.181   2.448  0.0198  0.1153 -0.0109
    1W        W46440   8.372  15.064   7.545 -0.3146 -0.2690 -0.1321
    1W        W46441  17.944   0.979   7.448  0.1291 -0.0788 -0.1306
    1W        W46442   1.256  26.757   1.889  0.0624  0.1734  0.3116
    1W        W46443  13.417   0.745   0.478  0.0323  0.1995 -0.0571
    1W        W46444  24.655  22.364   8.093  0.3422  0.3115 -0.0339
    1W        W46445  24.049  27.283   1.817  0.0897  0.3427 -0.0524
    1W        W46446  28.843   0.189   2.842 -0.0414 -0.1005 -0.1618
    1W        W46447  27.313  26.666   3.205  0.0006  0.0504  0.1911
    1W        W46448  15.127   0.441   2.300 -0.4745  0.0667 -0.0394
    1W        W46449  11.547  27.242   1.943 -0.0594  0.0322  0.3350
    1W        W46450  16.300   2.162   9.182  0.0305  0.1182  0.0297
    1W        W46451  25.401   1.358   8.720  0.0482  0.0668 -0.0799
    1W        W46452   3.484   2.868   3.352 -0.3072 -0.2160 -0.0647
    1W        W46453   9.820   7.985   8.420  0.0663 -0.0378  0.0434
    1W        W46454  22.020  26.067   1.968  0.1341 -0.5928  0.0846
    1W        W46455  18.304  15.966   9.302 -0.0808 -0.0249 -0.2188
    1W        W46456  22.613  13.592   8.624  0.1087  0.0362  0.1094
    1W        W46457   3.445  25.731   8.795 -0.2939 -0.0351 -0.0003
    1W        W46458   2.794   7.247   8.502 -0.1271  0.1247 -0.2582
    1W        W46459   3.789   9.277   1.981 -0.1211  0.2569 -0.0039
    1W        W46460  16.968  22.301   1.694  0.1282  0.0987  0.2459
    1W        W46461  28.037   6.634   1.381  0.0036  0.1280 -0.1056
    1W        W46462  27.682  27.527   2.729 -0.0644 -0.1457 -0.1277
    1W        W46463   8.448   7.746   0.680 -0.2509  0.0032  0.2773
    1W        W46464  14.684  23.742   1.196  0.0633 -0.0170 -0.1632
    1W        W46465  16.942  14.303   8.375 -0.0199  0.0549 -0.0164
    1W        W46466  13.042   9.119   9.693  0.0096 -0.0206 -0.0777
    1W        W46467   5.139  17.415   9.124 -0.1029  0.1993 -0.2655
    1W        W46468  18.220  16.831   9.108  0.0163  0.0739 -0.0874
    1W        W46469  17.871   1.389   2.148 -0.0438 -0.2111  0.2194
    1W        W46470  14.694  27.037   2.137 -0.0205 -0.0542  0.1445
    1W        W46471  14.158  16.687   0.534 -0.1618 -0.1514  0.1485
    1W        W46472  16.913   8.661   1.083 -0.1330 -0.1677 -0.2208
    1W        W46473  24.123  16.444   8.181  0.0544  0.2093  0.2152
    1W        W46474  24.931   0.099   8.318 -0.1950  0.1725 -0.1165
    1W        W46475  22.082  21.615   7.640 -0.1834 -0.1974 -0.1334
    1W        W46476  24.135  24.232   3.170 -0.0064 -0.0681 -0.3906
    1W        W46477   0.828  13.534   0.194 -0.3025 -0.2598  0.0741
    1W        W46478  25.666  22.472   8.317 -0.0845 -0.2232 -0.0518
    1W        W46479  19.968  20.468   7.369 -0.1901  0.3629 -0.0220
    1W        W46480  14.923  20.553   8.183  0.0911  0.0298  0.3291
    1W        W46481  23.638   6.910   8.551 -0.3764 -0.1783 -0.2391
    1W        W46482  27.997  16.673   3.338  0.2288 -0.0173  0.1899
    1W        W46483  23.104  13.943   6.244 -0.0508 -0.1846 -0.1652
    1W        W46484  24.467  12.209   9.332 -0.0176  0.1697 -0.1670
    1W        W46485  11.139  24.826   9.184 -0.1508  0.0034 -0.4294
    1W        W46486   4.765  21.435   3.150  0.0652 -0.0387  0.4273
    1W        W46487   3.661  16.505   7.598  0.1789  0.0584 -0.1057
    1W        W46488  23.065   9.709   8.335 -0.1561 -0.2362 -0.0765
    1W        W46489  22.999  24.380   1.725 -0.2036  0.2231  0.0667
    1W        W46490  15.210  14.769   9.373 -0.0317 -0.4730  0.0448
    1W        W46491  12.475  13.160   8.779 -0.1756 -0.1845 -0.5185
    1W        W46492   7.512   1.543   8.135 -0.1665  0.1760  0.0746
    1W        W46493   6.366  24.808   3.581  0.0854 -0.2845  0.3275
    1W        W46494   4.069  18.750   8.531 -0.1061  0.0502 -0.1147
    1W        W46495   8.323  14.789   9.233  0.2189 -0.2733  0.0469
    1W        W46496  16.945  12.268   2.255 -0.2158  0.1217  0.0444
    1W        W46497   6.276  20.801   8.547 -0.0834 -0.0370  0.0560
    1W        W46498  18.063  18.081   1.567  0.1675 -0.1889 -0.1030
    1W        W46499  17.406   3.783   1.225 -0.1591 -0.1935  0.0361
    1W        W46500  25.434   9.695   9.001 -0.0358  0.3828  0.0618
    1W        W46501   2.313   0.837   0.498  0.2055  0.0353  0.0150
    1W        W46502   7.936   3.022   3.675 -0.0558  0.2305  0.0904
    1W        W46503  12.823   6.861   7.839  0.1921 -0.4852 -0.1064
    1W        W46504   7.432  25.035   7.466 -0.1643  0.2029 -0.1084
    1W        W46505   2.818   0.728   7.651  0.1577  0.2611 -0.4999
    1W        W46506  18.272  26.710   0.910  0.0856 -0.1399  0.1052
    1W        W46507  19.933  10.353   8.016  0.1077 -0.0313  0.0976
    1W        W46508   3.315  22.406   4.094  0.1468 -0.3444  0.3475
    1W        W46509  20.654  20.334   9.428 -0.0380 -0.0509  0.0773
    1W        W46510   7.600  20.101   1.971  0.0718 -0.2102  0.0101
    1W        W46511  20.613  14.164   7.682 -0.1397 -0.1212 -0.2255
    1W        W46512   8.819  28.856   2.537 -0.1083  0.3142  0.1097
    1W        W46513  18.164   1.788   7.440 -0.2809  0.0164  0.0649
    1W        W46514  15.067  27.754   7.675  0.2566  0.3356 -0.2639
    1W        W46515  27.904   4.200   9.622  0.0581 -0.0749 -0.1511
    1W        W46516  25.163   0.515   8.260 -0.1990  0.0227 -0.3584
    1W        W46517  11.004  13.747   8.415 -0.1426 -0.0494  0.0535
    1W        W46518  27.824  13.589   2.104 -0.3822 -0.0210  0.1322
    1W        W46519  28.304  25.904   9.400  0.0372  0.3845  0.0544
    1W        W46520  27.493  23.888   1.967  0.1282  0.1944  0.0738
    1W        W46521  25.877  27.662   9.487 -0.1451 -0.0089  0.0154
    1W        W46522  16.643  19.941   8.909  0.0204 -0.1621 -0.1826
    1W        W46523  19.728   2.982   7.713  0.2376 -0.1970  0.0796
    1W        W46524  12.301  19.325   9.475 -0.0412  0.1182  0.2144
    1W        W46525  22.668  22.579   2.361 -0.3138  0.0128 -0.0218
    1W        W46526  11.076   2.479   7.819  0.0591 -0.1129  0.0821
    1W        W46527   7.785  10.470   7.162 -0.1793 -0.2807  0.2447
    1W        W46528  25.147  22.695   8.756 -0.1152 -0.0928  0.3058
    1W        W46529  11.290   8.623   6.864  0.2437  0.0747 -0.1237
    1W        W46530  25.977   1.271   2.817 -0.0383 -0.1197  0.0301
    1W        W46531   1.622  13.159   0.700  0.0265 -0.1862  0.0604
    1W        W46532   3.995   6.266   1.468 -0.1988  0.2827  0.1218
    1W        W46533  16.389   6.243   1.489  0.0784  0.0409 -0.1275
    1W        W46534  21.637  26.211   9.798  0.0093 -0.3142  0.0114
    1W        W46535  16.271  19.952   2.670  0.5145 -0.0401  0.2040
    1W        W46536   8.941  16.112  10.002  0.0524  0.1082 -0.1218
    1W        W46537   5.948  20.456   1.677 -0.0868 -0.0516  0.1261
    1W        W46538   4.814  15.971   1.016 -0.0832  0.2170  0.0711
    1W        W46539  12.516  16.255   1.065  0.1935  0.1854  0.0019
    1W        W46540  15.728   4.382   1.046  0.0939  0.1674  0.1771
    1W        W46541  19.781   9.576   8.626 -0.0027  0.2476 -0.0076
    1W        W46542  20.259  25.522   7.292 -0.0025  0.0292  0.4521
    1W        W46543  20.300  15.438   0.991 -0.0184  0.1578 -0.4032
    1W        W46544  26.049   3.579   1.831 -0.0812 -0.0540 -0.1839
    1W        W46545  27.605  14.010   0.010 -0.1790  0.1215  0.2847
    1W        W46546  16.954  15.986   8.104  0.0889  0.0973 -0.3552
    1W        W46547  19.855  20.872   8.156 -0.0136 -0.1651  0.1666
    1W        W46548   0.887   0.169   2.267  0.0987  0.4703 -0.2541
    1W        W46549  20.718  12.163   8.981 -0.0647  0.3111 -0.0396
    1W        W46550  14.589   6.852   8.558  0.0539 -0.4109 -0.2976
    1W        W46551  12.102  22.259   8.082 -0.1552 -0.2124  0.0273
    1W        W46552  14.495  27.921   1.688 -0.4020  0.1563 -0.1622
    1W        W46553   1.952   0.803   0.074  0.1767  0.2660  0.3429
    1W        W46554  10.830  25.844   9.636 -0.0332 -0.2093  0.1218
    1W        W46555   5.412  12.323   1.443 -0.0284  0.0778 -0.0506
    1W        W46556   7.164  16.153   0.434  0.2024  0.0363  0.3703
    1W        W46557   3.448  12.079   3.042 -0.2990 -0.1301 -0.1351
    1W        W46558  22.858  16.989   2.722 -0.2389  0.2460  0.0394
    1W        W46559  19.587  26.290   2.119 -0.1295  0.0291 -0.2464
    1W        W46560  17.162   7.983   1.656  0.0181  0.1742 -0.0624
    1W        W46561   8.585  13.567   8.499 -0.4445 -0.2329  0.0394
    1W        W46562  20.632  25.316   8.594  0.0020  0.0680 -0.1525
    1W        W46563  17.198  22.702   0.041  0.0792 -0.0537 -0.0985
    1W        W46564   9.993   4.839   2.266  0.1234  0.3289  0.2519
    1W        W46565  27.948   6.362   2.670  0.0751  0.1548 -0.0857
    1W        W46566  16.927   6.474   1.101 -0.2569 -0.0605 -0.1493
    1W        W46567  11.737  23.058   1.141 -0.2893  0.2049 -0.2391
    1W        W46568  21.587  17.514   1.961  0.0385  0.0217 -0.2126
    1W        W46569  12.955   7.574   1.653  0.1596  0.0946  0.3967
    1W        W46570  24.266   6.605   8.014 -0.2452 -0.0042 -0.1266
    1W        W46571   4.636   1.018   8.317  0.2081  0.1978  0.2654
    1W        W46572  19.162   3.470   8.727 -0.0447 -0.1185 -0.1219
    1W        W46573   7.304   2.104   1.498 -0.1748  0.0854  0.0790
    1W        W46574  19.239  10.947   7.288  0.0229 -0.0686 -0.0669
    1W        W46575  22.601  26.995   8.236  0.1755 -0.1131 -0.1920
    1W        W46576   1.435  17.494   1.967  0.0462  0.1109 -0.0001
    1W        W46577  11.834   6.597   9.412  0.0464 -0.1427 -0.1129
    1W        W46578  27.975  18.557   0.061 -0.0118 -0.1451 -0.0870
    1W        W46579  23.750   9.633   1.478 -0.0038  0.2485 -0.2314
    1W        W46580   6.230   5.657   1.709 -0.0680  0.1522 -0.1106
    1W        W46581   5.305   0.845   4.364 -0.2509 -0.3104  0.2650
    1W        W46582   8.071  28.578   1.613 -0.0885 -0.1498 -0.1113
    1W        W46583   4.450  26.818   0.372 -0.2984 -0.3244  0.3243
    1W        W46584  25.401  22.474   9.188 -0.0300  0.2795  0.0494
    1W        W46585   3.903  14.935   0.249  0.0595 -0.1051  0.3673
    1W        W46586  15.722  24.930   8.060  0.4497 -0.0896  0.1305
    1W        W46587  28.360  13.030   0.247 -0.1493 -0.1850  0.0009
    1W        W46588   5.203  18.017   2.628  0.0871  0.1814 -0.1894
    1W        W46589  21.094  12.737   9.774  0.3093 -0.3899  0.1508
    1W        W46590  11.630  23.458   7.696  0.2172  0.0575 -0.0699
    1W        W46591  23.019  23.015   8.981 -0.0289  0.1617 -0.1982
    1W        W46592   9.687  19.394   2.494  0.0549 -0.2882 -0.1982
    1W        W46593  28.573   7.636   4.237  0.0746  0.0469  0.0161
    1W        W46594  28.140  25.967   1.146 -0.0823  0.2106 -0.2505
    1W        W46595  16.848  19.356   1.366  0.1101 -0.2337 -0.0568
    1W        W46596  17.817  28.408   6.378  0.2530 -0.0377  0.2039
    1W        W46597  13.367  20.562   2.320 -0.0633 -0.1184 -0.1575
    1W        W46598   5.271   6.815   2.146 -0.2751 -0.1970  0.0068
    1W        W46599  13.437   9.777   7.036 -0.4287  0.0462 -0.1157
    1W        W46600  17.047   7.223   5.995 -0.3141 -0.0385 -0.0240
    1W        W46601   6.110  22.341   3.108  0.3489  0.4360 -0.1897
    1W        W46602  11.907   9.379   7.311 -0.0288  0.0383  0.0684
    1W        W46603  15.370   4.175   7.750 -0.0146 -0.3639 -0.1547
    1W        W46604  16.106  17.323   0.496  0.0673  0.0696  0.2612
    1W        W46605  19.851   9.980   1.425  0.3915 -0.0646  0.0937
    1W        W46606  17.995  21.196   9.478 -0.1087 -0.0808 -0.2075
    1W        W46607  13.494  17.520   7.144  0.2000 -0.0830 -0.0005
    1W        W46608  20.620  17.309   1.917 -0.0875  0.0091 -0.3325
    1W        W46609   9.272  22.487   2.540  0.2087 -0.0808  0.3326
    1W        W46610   7.812   5.527   9.814 -0.3205 -0.0060  0.1546
    1W        W46611  24.921  27.230   8.168 -0.0171  0.0898  0.2509
    1W        W46612   1.321  21.667   0.286 -0.2006  0.1783  0.3494
    1W        W46613  20.552   9.437   6.155  0.0432 -0.1560 -0.0832
    1W        W46614  11.258   2.489   0.414  0.2757  0.0067 -0.1834
    1W        W46615  10.224   0.550   8.820 -0.1999  0.0908 -0.1176
    1W        W46616   9.268  20.041   0.452  0.1329 -0.2100  0.0738
    1W        W46617   1.256  22.520   2.666 -0.2663 -0.2246  0.1285
    1W        W46618  26.101   8.169   0.299 -0.1446 -0.1160 -0.0797
    1W        W46619  14.224   9.558   1.836  0.0468  0.3291  0.1825
    1W        W46620  11.224  12.878   9.554 -0.0821 -0.2366 -0.3812
    1W        W46621   0.808  13.659   8.735  0.3244  0.0799 -0.2235
    1W        W46622   6.025   5.573   3.296  0.0183 -0.1550 -0.3312
    1W        W46623  19.462   2.752   0.390 -0.0710  0.1670 -0.1642
    1W        W46624  15.322  21.525   9.909 -0.0795  0.2836 -0.1209
    1W        W46625  14.672   5.446   0.589 -0.0365  0.1319  0.0512
    1W        W46626   1.183  17.941   9.998  0.2435 -0.0968 -0.1189
    1W        W46627  27.832  18.076   7.746 -0.0402 -0.2673  0.0748
    1W        W46628  26.472  27.950   2.558 -0.0109 -0.0327  0.0788
    1W        W46629   6.321   9.678   9.828  0.0102  0.1492  0.0461
    1W        W46630  11.889   3.125   2.683  0.1581  0.0898 -0.1642
    1W        W46631   4.839  13.257   0.626 -0.4417  0.3740  0.1953
    1W        W46632  27.694  10.240   8.711 -0.1277 -0.0433  0.1557
    1W        W46633  12.375  28.366   8.245 -0.1002  0.2249 -0.2389
    1W        W46634   8.371  18.021   0.676  0.2049  0.1356  0.3270
    1W        W46635  16.351   9.816   1.525 -0.0012  0.2294  0.2102
    1W        W46636  11.547  11.329   1.241  0.1301 -0.1795 -0.2281
    1W        W46637   9.776  27.912   1.730 -0.1381  0.0526 -0.3777
    1W        W46638  16.575   5.660   7.444 -0.1129 -0.3417  0.0751
    1W        W46639  23.613  23.425   8.387 -0.2518 -0.1306 -0.0304
    1W        W46640   7.977   9.003   0.003 -0.2071  0.1872  0.2951
    1W        W46641   9.769  16.561   6.809  0.3342 -0.0094  0.1403
    1W        W46642  24.479  28.380   0.252  0.2027 -0.0396 -0.4184
    1W        W46643  27.723  26.699   8.556 -0.1159 -0.3164 -0.3081
    1W        W46644  16.222  18.877   8.036 -0.0574  0.0131  0.0415
    1W        W46645  20.966   4.524   7.962 -0.0674  0.1955  0.2208
    1W        W46646  16.478  27.674   8.014  0.1722  0.1435 -0.0024
    1W        W46647   0.208  26.536   9.630  0.0343  0.2617 -0.0989
    1W        W46648  18.212   1.793   9.428 -0.2456  0.1600 -0.1372
    1W        W46649  16.384  19.385   7.388 -0.2780 -0.0719 -0.0718
    1W        W46650  14.960  28.745   0.318  0.0820  0.2174  0.0705
    1W        W46651   8.859   0.849   2.708  0.0102  0.0097 -0.2338
    1W        W46652   5.906  20.656   7.455 -0.2056 -0.0583  0.0473
    1W        W46653  20.775  28.873   7.482 -0.0687  0.0695  0.2578
    1W        W46654   1.906  27.379   2.065  0.2262 -0.2016 -0.0743
    1W        W46655  12.882   6.514   0.885 -0.4682  0.1737  0.1979
    1W        W46656   7.482  22.728   8.354 -0.1018 -0.2445  0.0802
    1W        W46657  13.182  19.693   2.169  0.0996  0.2305  0.0162
    1W        W46658  17.192  24.289   1.458  0.0398 -0.0838 -0.3794
    1W        W46659   2.484   9.348   0.265  0.0759 -0.0123  0.0520
    1W        W46660  27.729   3.789   2.802 -0.0185 -0.0306  0.0683
    1W        W46661  25.468  12.109   2.377  0.0099 -0.1369 -0.0052
    1W        W46662  19.363  12.085   7.992  0.1726  0.0549 -0.0564
    1W        W46663  25.826  15.138   1.569 -0.0827  0.1813  0.1352
    1W        W46664  28.522   2.432   9.904  0.1979 -0.1098  0.0842
    1W        W46665   6.072   9.016   8.481 -0.0312  0.0064 -0.1246
    1W        W46666  20.798  15.899   0.774 -0.2553  0.2243 -0.1105
    1W        W46667  21.151  18.214   0.160 -0.0896 -0.1993  0.1698
    1W        W46668  28.676  12.831   6.948 -0.0023 -0.3733 -0.2670
    1W        W46669   6.862   1.837   0.791 -0.1098 -0.0993  0.3449
    1W        W46670  21.708  15.269   2.756 -0.1455  0.0003  0.1287
    1W        W46671   4.703  20.634   1.827  0.0322  0.0285  0.1067
    1W        W46672  14.097  22.980   1.156  0.0444 -0.0949 -0.1202
    1W        W46673  20.251  26.646   8.022  0.2227 -0.0018  0.3586
    1W        W46674  26.404  17.235   3.600 -0.0092 -0.4132 -0.2535
    1W        W46675   9.906  19.327   7.566  0.3574 -0.1376  0.2774
    1W        W46676  21.727   1.285   2.468 -0.0615  0.0208 -0.0938
    1W        W46677  15.260   9.303   6.787  0.0602  0.0971  0.0739
    1W        W46678  27.209  28.649   2.380  0.0318  0.0749  0.1018
    1W        W46679  21.348  27.078   9.739  0.1501 -0.1675  0.0191
    1W        W46680  17.512   3.344   6.906 -0.0012  0.3928 -0.1025
    1W        W46681  10.471  20.714   2.551 -0.0508 -0.2216  0.0784
    1W        W46682   1.276  16.396   3.444 -0.1797  0.1630 -0.2848
    1W        W46683  16.619  16.755   8.375 -0.0324  0.0898 -0.0275
    1W        W46684  13.733  24.302   1.672  0.2473  0.1879 -0.0454
    1W        W46685  26.163  25.511   0.464  0.0280 -0.0397  0.2404
    1W        W46686  21.011  11.422   8.691  0.0854 -0.1635  0.0118
    1W        W46687  14.158  12.240   6.850 -0.0372 -0.1480 -0.0057
    1W        W46688  24.713  26.381   8.984 -0.4675 -0.1177 -0.1611
    1W        W46689   3.840   0.180   2.662  0.0707  0.3040 -0.1691
    1W        W46690   3.961  27.890   8.212 -0.1525  0.1533 -0.1413
    1W        W46691  26.315  10.379   0.601 -0.0473 -0.1749  0.1731
    1W        W46692  28.206  10.188   9.789  0.2036 -0.2491 -0.2167
    1W        W46693   8.543   0.780   3.534 -0.2571 -0.0380 -0.0657
    1W        W46694  21.926  12.263   2.630 -0.1042  0.1918  0.0531
    1W        W46695  22.676  28.095   2.717  0.0895  0.0764  0.0730
    1W        W46696   8.090  27.510   7.873  0.0749 -0.3299  0.0133
    1W        W46697  20.429  15.982   7.282  0.1584 -0.1599 -0.0472
    1W        W46698  10.705   3.376   1.250  0.2240  0.0989  0.3562
    1W        W46699  11.572  21.599   9.489 -0.2980  0.0363  0.1103
    1W        W46700  16.977   8.350   9.746  0.0800 -0.0279 -0.1421
    1W        W46701   1.781   4.289   2.446 -0.2965 -0.1486 -0.0111
    1W        W46702  16.809  21.314   0.459  0.2062  0.0546 -0.0843
    1W        W46703   0.906   4.236   8.897  0.0426 -0.0323  0.0918
    1W        W46704   2.954  22.299   0.772  0.0517  0.1815 -0.2302
    1W        W46705  12.549   6.935   0.689 -0.2641  0.0934 -0.1872
    1W        W46706  11.210   0.417   8.226 -0.1627  0.1899 -0.1975
    1W        W46707   1.803  13.819   3.057  0.0434 -0.0633 -0.0067
    1W        W46708   4.894  13.033   6.770  0.3411 -0.3663 -0.2171
    1W        W46709   5.724   3.224   8.696 -0.2660  0.2652  0.3358
    1W        W46710   4.190   3.105   7.883  0.0293  0.3116 -0.1045
    1W        W46711   1.875  27.264   9.756 -0.1234 -0.1959 -0.1607
    1W        W46712  12.578  22.646   6.670  0.0469  0.0685 -0.4057
    1W        W46713  18.587  17.205   3.250 -0.0047 -0.0227  0.0671
    1W        W46714  20.641   3.967   7.763 -0.0849 -0.3444 -0.1664
    1W        W46715  15.075  14.254   6.252 -0.2083  0.0750 -0.0100
    1W        W46716  12.473   7.770   0.857 -0.1292 -0.3525  0.2097
    1W        W46717   4.863   2.515   8.985 -0.2946  0.1919  0.2719
    1W        W46718  19.630  19.681   5.478 -0.1610  0.0789  0.2170
    1W        W46719  16.599   0.238   2.564 -0.1164 -0.1010  0.3135
    1W        W46720  12.641   3.093   6.493  0.1854  0.0505  0.2934
    1W        W46721  22.064  20.971   0.821 -0.2971  0.2095  0.0630
    1W        W46722  24.241  27.405   2.303 -0.0292 -0.3649  0.2360
    1W        W46723   5.194  19.508   0.648  0.1285  0.0017  0.0816
    1W        W46724  20.458  26.625   9.561  0.2140  0.0564  0.0962
    1W        W46725  21.930  17.076   7.370 -0.0705 -0.3015  0.0963
    1W        W46726  10.617   0.903   8.931 -0.0618 -0.1985  0.0889
    1W        W46727  27.190   3.862   0.676  0.1009  0.2189  0.1480
    1W        W46728  27.929  24.722   1.499 -0.0236 -0.0943 -0.0036
    1W        W46729  21.277  16.861   6.923 -0.2237 -0.1301  0.0232
    1W        W46730  18.859  13.276   0.087 -0.0020  0.1286 -0.4037
    1W        W46731  18.608  18.960   8.526 -0.0406  0.4748 -0.0367
    1W        W46732  10.231   4.996   7.385  0.1837  0.1218  0.2517
    1W        W46733  25.314   6.326   7.225 -0.2426 -0.3287 -0.1382
    1W        W46734   7.083  16.873   0.083  0.0241 -0.0120  0.0716
    1W        W46735  18.225   3.067   7.688 -0.1046 -0.0266  0.0042
    1W        W46736  19.995   1.393   9.561  0.0803  0.1215 -0.2283
    1W        W46737  26.885   5.119   9.943 -0.0761  0.2081 -0.1948
    1W        W46738  17.520  25.021   8.387  0.1704 -0.1575  0.1317
    1W        W46739  24.629  27.167   9.310  0.2889  0.1337 -0.0611
    1W        W46740   6.411  18.448   7.668  0.0954 -0.0563  0.1201
    1W        W46741  16.503  24.812   8.016  0.1291  0.0759  0.0708
    1W        W46742  23.955  18.067   9.909  0.0689 -0.2707 -0.2677
    1W        W46743  24.457  13.355   7.207 -0.2427  0.1444 -0.0129
    1W        W46744   7.765   0.146   0.538 -0.1528  0.1532 -0.0682
    1W        W46745   2.639  21.214   9.700  0.1066 -0.2609 -0.0487
    1W        W46746   6.765  12.768   6.169 -0.0110  0.1030 -0.1969
    1W        W46747   8.002  28.332   7.545  0.2746 -0.0086  0.4727
    1W        W46748   8.772   1.079   1.177  0.1341 -0.0883  0.0424
    1W        W46749   0.493  16.443   0.454 -0.3831 -0.0794  0.2011
    1W        W46750  25.170   6.714   7.684  0.0944  0.4875 -0.0706
    1W        W46751  23.544   8.229   8.220  0.0008 -0.0576 -0.4005
    1W        W46752  15.287  23.283   6.937  0.3506  0.1287 -0.1689
    1W        W46753  10.008   4.857   9.485 -0.1132  0.1692 -0.2689
    1W        W46754  19.697  24.846   1.651  0.0335 -0.1036  0.0842
    1W        W46755   2.691  21.164   6.980  0.0873 -0.2146  0.1121
    1W        W46756  25.914   3.429   2.306 -0.0923  0.4593  0.0172
    1W        W46757  27.664  17.370   9.742 -0.0627 -0.2008  0.1422
    1W        W46758  12.037   5.432   7.423 -0.1029 -0.0498 -0.1371
    1W        W46759   1.565  24.401   1.529 -0.0785 -0.2494 -0.0425
    1W        W46760  12.389  22.942   8.358  0.0122 -0.0505  0.0620
    1W        W46761  14.537  17.105   1.786  0.0732 -0.1235  0.0192
    1W        W46762  24.754  25.142   9.008 -0.1680  0.0806 -0.2325
    1W        W46763  20.517   8.420   9.735  0.0146  0.5580  0.2490
    1W        W46764  21.360   8.236   9.874  0.0224 -0.0367  0.1226
    1W        W46765  27.734  27.048   0.853  0.0593  0.2762 -0.1072
    1W        W46766  15.863   5.184   8.529 -0.3563 -0.0175  0.1589
    1W        W46767  14.393  18.601   2.226  0.1133 -0.1869 -0.3628
    1W        W46768   3.373   3.526   9.144 -0.0475  0.1537  0.0821
    1W        W46769   7.248   3.832   1.169  0.0163 -0.0855  0.2620
    1W        W46770   2.837   0.934   1.113 -0.0623  0.2773 -0.0077
    1W        W46771   2.079  13.013   7.584 -0.1531  0.2737 -0.0066
    1W        W46772   7.727  18.079   9.824 -0.1780  0.0911  0.2277
    1W        W46773   0.299   3.593   1.110 -0.1752 -0.1030  0.0979
    1W        W46774   7.292  23.737   3.078 -0.0040  0.0862 -0.0507
    1W        W46775  18.771  10.087   1.143 -0.1755 -0.3329  0.0194
    1W        W46776   4.662   0.240   2.293 -0.0457 -0.3702 -0.0810
    1W        W46777  15.210  16.943   0.663 -0.0439  0.2757 -0.0743
    1W        W46778  19.373  24.712   6.727 -0.3778  0.2508 -0.0022
    1W        W46779  12.653   9.143   7.929  0.2243  0.0883 -0.0405
    1W        W46780   6.455  10.742   7.452 -0.1927 -0.0735 -0.2457
    1W        W46781  27.683   2.488   3.340 -0.1227  0.0329  0.0545
    1W        W46782  20.407   2.722   9.547 -0.1629  0.3612  0.1999
    1W        W46783   0.742  17.932   8.479 -0.2406  0.2775 -0.7287
    1W        W46784  27.590  16.375   8.652 -0.0025  0.3740  0.1622
    1W        W46785  25.032  26.507   1.837  0.0599 -0.0373 -0.0158
    1W        W46786  10.471  26.408   0.262  0.1627  0.2750  0.2883
    1W        W46787   2.004  26.663   8.464 -0.2807  0.3404 -0.0381
    1W        W46788  18.168   5.656   8.059  0.0578 -0.0822 -0.1376
    1W        W46789   7.967  22.422   1.955  0.0675 -0.1847 -0.0488
    1W        W46790  15.123  18.081   9.378  0.0487  0.1871 -0.1954
    1W        W46791  24.247  16.577   2.488 -0.0305 -0.0881  0.1752
    1W        W46792   0.127   3.176   2.540 -0.1038  0.1650  0.0694
    1W        W46793   9.347  22.011   8.917 -0.3296 -0.1892  0.3778
    1W        W46794  16.133  22.834   9.041 -0.3581 -0.0999 -0.2735
    1W        W46795  15.221  10.225   9.880 -0.1269  0.2634  0.0495
    1W        W46796  18.882  10.593   0.359 -0.1227  0.1720 -0.3555
    1W        W46797  16.536  11.342   2.299 -0.1290 -0.3948  0.0350
    1W        W46798  11.497  16.460   1.111 -0.2448 -0.1445  0.3461
    1W        W46799  25.802  25.438   1.001  0.1489  0.1656 -0.1451
    1W        W46800  28.061  24.216   1.822 -0.1102  0.0245  0.1437
    1W        W46801   5.652  20.393   3.281 -0.1800  0.2342  0.3675
    1W        W46802   5.940  21.060   2.882  0.0894  0.1842  0.2176
    1W        W46803  13.488   5.532   6.451  0.0608 -0.0979  0.1289
    1W        W46804  27.337  22.381   3.121 -0.0223 -0.2297  0.1459
    1W        W46805  15.210  28.427   7.185  0.1545  0.1987 -0.0195
    1W        W46806  21.047  19.717   9.472  0.0619 -0.2137 -0.1473
    1W        W46807  26.762  15.847   3.128  0.0001  0.3613 -0.0359
    1W        W46808   8.479  22.498   1.117 -0.0519 -0.1625 -0.1078
    1W        W46809   6.390   6.981   3.197 -0.1949 -0.0333  0.0383
    1W        W46810  20.167   3.390   2.667 -0.1136 -0.0646 -0.1150
    1W        W46811  20.945  27.783   9.322  0.1738  0.0759 -0.0326
    1W        W46812  21.372   0.502   9.265  0.1724  0.1277 -0.2189
    1W        W46813   5.692  24.189   3.596 -0.1420 -0.0420 -0.0718
    1W        W46814   8.576  10.279   5.996 -0.1150  0.0234  0.1501
    1W        W46815   0.214  19.059   1.293  0.0463 -0.1561  0.0147
    1W        W46816  22.546   9.945   7.356 -0.0816 -0.0984 -0.2707
    1W        W46817   9.500  19.168   8.314  0.0564  0.0631  0.1572
    1W        W46818  24.592  16.157   0.488 -0.0306 -0.0705  0.3779
    1W        W46819  28.089   3.298   3.055  0.2612  0.3171  0.0418
    1W        W46820  14.610  11.521   9.214 -0.1927  0.1559 -0.1044
    1W        W46821   8.054   8.410   9.246  0.0222 -0.1064  0.3076
    1W        W46822   9.615  13.733   7.858 -0.1422  0.0956  0.2370
    1W        W46823   3.318  28.634   0.962 -0.0182  0.2807  0.2179
    1W        W46824  27.554   2.522   9.276  0.0732 -0.1442  0.1275
    1W        W46825  19.932   6.501   8.594 -0.0245 -0.0403  0.0944
    1W        W46826   2.149  15.471   0.543  0.2087 -0.1576  0.0485
    1W        W46827   7.225   0.491   0.397 -0.0028 -0.2640  0.2165
    1W        W46828   9.782  12.510   7.988 -0.2122  0.2436 -0.1096
    1W        W46829  18.080   7.490   9.208  0.2424 -0.2728 -0.0857
    1W        W46830  11.805   5.086   1.747  0.1750  0.2539  0.0401
    1W        W46831   4.257  10.315   9.253 -0.3361  0.2692 -0.1824
    1W        W46832   2.347   5.637   4.078  0.0787 -0.0170  0.2347
    1W        W46833   4.941  21.257   8.842 -0.0512  0.0042  0.2109
    1W        W46834   7.148  14.599   1.321 -0.0402 -0.1292  0.1405
    1W        W46835   7.557   6.399   3.476  0.0620 -0.0044 -0.2323
    1W        W46836  27.143  23.264   9.646 -0.1225  0.1031  0.2074
    1W        W46837   0.135   0.648   8.915  0.3417 -0.0321 -0.1000
    1W        W46838  25.359  23.458   7.718  0.1906 -0.1111  0.1477
    1W        W46839  20.301  19.193   8.555  0.0952  0.1581 -0.1207
    1W        W46840   6.937  11.773   7.726  0.1765 -0.1582  0.2693
    1W        W46841  12.494  15.236   9.992  0.3715  0.1000 -0.2974
    1W        W46842  28.180  12.824   1.564  0.1116  0.2729 -0.2263
    1W        W46843   5.009   4.146   9.385 -0.1767 -0.0344  0.2501
    1W        W46844  26.285  25.980   1.682  0.0067 -0.1443  0.2987
    1W        W46845  13.713  26.758   8.731  0.2092  0.1646  0.3186
    1W        W46846   6.180  20.775   9.108 -0.2176 -0.3930  0.1103
    1W        W46847  10.694  11.963   9.668  0.2840 -0.0779  0.0071
    1W        W46848  19.198  11.877   1.143  0.1044  0.3366  0.2040
    1W        W46849  10.446  25.034   2.415 -0.1922 -0.0639 -0.1360
    1W        W46850  11.321   1.713   9.288 -0.0914  0.0675 -0.0437
    1W        W46851   5.660   0.986   1.219 -0.0798 -0.0100 -0.0917
    1W        W46852  14.796  22.430   1.042 -0.1733  0.1830 -0.0777
    1W        W46853   3.648  16.496   2.367 -0.1058 -0.1575 -0.0472
    1W        W46854  23.599  16.993   0.552  0.0102  0.1542 -0.1746
    1W        W46855   3.205  12.644   7.629 -0.0585 -0.1683  0.1074
    1W        W46856   2.058  14.963   0.507 -0.1505  0.0495 -0.1455
    1W        W46857   0.346  13.431   1.638 -0.1171 -0.2143 -0.1276
    1W        W46858   0.644   2.840   8.465  0.1875 -0.0458 -0.4399
    1W        W46859  17.608  12.631   8.905  0.5337 -0.0599  0.4949
    1W        W46860   6.186  23.314   2.347 -0.0666 -0.1036 -0.0978
    1W        W46861  20.616  12.077   0.646 -0.1042 -0.0976 -0.1398
    1W        W46862   0.371  21.894   2.896  0.0705 -0.1598  0.2292
    1W        W46863  10.159  14.606   5.728  0.0644 -0.1101  0.0477
    1W        W46864  25.573  12.234   9.695 -0.0769 -0.0514 -0.1095
    1W        W46865  23.814   5.996   1.266 -0.1614 -0.0755 -0.0953
    1W        W46866  23.797   3.824   3.431 -0.1658 -0.1262  0.0408
    1W        W46867   0.044   1.482   4.089  0.1012 -0.0137 -0.1256
    1W        W46868  15.984   4.504   6.893 -0.1689 -0.0046 -0.1485
    1W        W46869   2.524   1.684   3.658 -0.1843  0.1222 -0.5357
    1W        W46870   1.793  23.572   1.986  0.1282  0.2276  0.1552
    1W        W46871  17.484  26.738   7.838  0.0927  0.3305  0.0482
    1W        W46872  23.995   9.786   1.930  0.1665 -0.2504 -0.1962
    1W        W46873   0.783   2.454   2.777  0.1370  0.0062  0.1808
    1W        W46874  28.673   8.261   1.630  0.0943 -0.1318  0.2222
    1W        W46875  21.322   3.151   8.559  0.0895  0.2107  0.1083
    1W        W46876  16.831  22.158   0.346 -0.0066  0.2125  0.2601
    1W        W46877  15.674   1.633   0.523  0.1988  0.1269 -0.1885
    1W        W46878  26.354  20.671   2.296 -0.0828  0.0828  0.1368
    1W        W46879  10.851  11.234   0.375 -0.2325 -0.2477 -0.4612
    1W        W46880  12.775   7.334   6.743  0.0519 -0.1171  0.2355
    1W        W46881   7.001   8.028   7.211  0.0123 -0.1584  0.1890
    1W        W46882   5.651  20.263   1.091  0.0825  0.2935  0.1589
    1W        W46883  28.324  13.576   0.198 -0.0613 -0.0262  0.1438
    1W        W46884   9.669   7.274   1.047 -0.1266  0.2728  0.1194
    1W        W46885  27.016  14.555   8.930  0.1465  0.1598  0.2148
    1W        W46886  27.975  13.370   7.440 -0.1676 -0.3225 -0.0577
    1W        W46887  16.364   7.576   6.667  0.0689  0.0074  0.1289
    1W        W46888  11.896  21.498   6.974  0.1702 -0.1090  0.1506
    1W        W46889   5.227   3.766   2.100 -0.0300 -0.1405  0.0210
    1W        W46890  19.217   2.145   9.759 -0.1390  0.2155  0.0764
    1W        W46891  13.519  19.002   9.145 -0.1397 -0.0275  0.2025
    1W        W46892   3.045  27.007   0.221  0.1911  0.1967  0.0663
    1W        W46893  16.466  14.825   0.587  0.1014  0.2602 -0.1044
    1W        W46894  22.504  22.526   9.734 -0.1367  0.0098 -0.0599
    1W        W46895   8.056  23.132   8.801  0.0408  0.3260  0.2921
    1W        W46896  13.242  15.773   1.995  0.0807  0.0962 -0.2417
    1W        W46897  12.350   8.159   1.165 -0.0324  0.1578  0.0637
    1W        W46898  23.270  13.180   7.462  0.1586 -0.3845  0.2107
    1W        W46899   7.947  20.808   7.985  0.2104 -0.0708 -0.4274
    1W        W46900   7.298   1.447   9.000 -0.0984 -0.1385 -0.1092
    1W        W46901   6.468  14.446   0.991 -0.2170 -0.2311 -0.0089
    1W        W46902  15.391   4.235   2.359  0.4238  0.2917  0.0730
    1W        W46903  24.474  13.618   0.704 -0.2201  0.1845  0.0958
    1W        W46904  20.476   4.594   0.991  0.1165  0.0306 -0.0486
    1W        W46905   6.527   7.875   9.938  0.1375  0.3407 -0.2580
    1W        W46906  17.413  28.637   8.492 -0.0151 -0.1844  0.1393
    1W        W46907   0.566  15.731   1.143  0.0207  0.0180 -0.1309
    1W        W46908  17.498  22.170   6.983 -0.3029  0.0399  0.0115
    1W        W46909   8.407   2.421   0.164 -0.0700 -0.2848  0.3393
    1W        W46910  12.859  16.796   8.065  0.1271  0.1146  0.1099
    1W        W46911   3.115   2.040   0.214  0.2266  0.1226  0.0603
    1W        W46912  12.218  18.079   6.947  0.0509  0.0020  0.0172
    1W        W46913  19.503  23.944   2.503 -0.0493  0.1886 -0.3816
    1W        W46914   8.600   5.173   2.892 -0.2125  0.2893 -0.2060
    1W        W46915  17.610  24.101   0.282  0.3850 -0.0494 -0.2363
    1W        W46916  21.743  23.761   2.332  0.0867  0.1085  0.0623
    1W        W46917  12.470  13.698   8.842 -0.2526 -0.0338 -0.1222
    1W        W46918  14.608  17.768   6.592 -0.2179 -0.2443  0.1910
    1W        W46919   4.711  18.884   2.853 -0.0404  0.0901 -0.1726
    1W        W46920  19.877  23.929   1.242  0.4626 -0.0129  0.1704
    1W        W46921  19.105  18.521   6.761 -0.0030 -0.2456 -0.0374
    1W        W46922   0.303   2.210   3.486 -0.0329 -0.2488  0.2363
    1W        W46923   8.197   6.895   8.373 -0.0888  0.0613  0.1414
    1W        W46924  13.309  25.923   0.949  0.0144 -0.2239 -0.1219
    1W        W46925  17.156   7.409   6.493 -0.0949 -0.1942  0.1068
    1W        W46926  22.491  16.877   8.700 -0.1284  0.1670  0.0504
    1W        W46927  27.456  22.790   9.724 -0.0100 -0.0351  0.0480
    1W        W46928  17.634   2.889   1.410 -0.0054 -0.1320  0.1954
    1W        W46929  13.934   6.097   7.056  0.2837 -0.3228  0.2228
    1W        W46930  12.008   9.867   9.871 -0.0016 -0.1054  0.2516
    1W        W46931  13.366   2.227   1.662 -0.3132 -0.4937  0.0010
    1W        W46932   6.750  11.767   1.497 -0.0296 -0.0833 -0.1973
    1W        W46933  19.035   8.033   8.073 -0.2735  0.0131 -0.3408
    1W        W46934   2.381  28.274   2.387 -0.0587  0.0815 -0.1105
    1W        W46935  19.120  25.741   0.792 -0.0213  0.1326  0.1342
    1W        W46936  24.038  11.225   1.847 -0.6192 -0.2049 -0.0962
    1W        W46937  20.806   5.038   7.881  0.2736  0.0084 -0.3341
    1W        W46938   3.139  24.485   8.622  0.1702 -0.1358  0.0691
    1W        W46939  11.568  28.631   3.000  0.0322  0.2171 -0.0232
    1W        W46940   1.505   2.009   9.612  0.2755 -0.0833  0.1338
    1W        W46941  16.884   1.524   1.120 -0.0855  0.0914  0.1359
    1W        W46942  13.037   9.017   8.271  0.0413 -0.0473 -0.2965
    1W        W46943   9.848  25.514   1.444  0.2994 -0.0483 -0.3284
    1W        W46944   3.266   0.735   1.222  0.0106 -0.0796 -0.0562
    1W        W46945  17.038  24.511   3.138 -0.2519  0.1485 -0.2023
    1W        W46946  17.028  20.686   8.144 -0.3038  0.1043 -0.0485
    1W        W46947   8.588  18.353   8.900 -0.1243 -0.2964  0.0563
    1W        W46948   2.617   8.199   0.862  0.1793 -0.2462 -0.1359
    1W        W46949  26.120  15.218   2.640 -0.0214 -0.0849  0.0937
    1W        W46950  25.295  24.540   1.753  0.0074  0.2595 -0.2874
    1W        W46951  20.551   6.996   7.910 -0.1496  0.0851 -0.0565
    1W        W46952   2.028  16.372   8.768  0.0857 -0.2730 -0.3324
    1W        W46953  21.325   9.012   0.814  0.0090  0.0152  0.1150
    1W        W46954  24.847  11.757   9.107  0.1876 -0.0483  0.0161
    1W        W46955  21.611  21.151   2.391 -0.0516 -0.1503 -0.0706
    1W        W46956   2.417  20.367   9.779 -0.0700  0.2599 -0.0581
    1W        W46957   8.995  17.616   1.345  0.2888 -0.1336  0.1131
    1W        W46958  27.255  25.480   1.346  0.1193 -0.2669  0.1491
    1W        W46959   4.990   7.014   3.507 -0.1086  0.1414  0.0063
    1W        W46960   5.615  26.400   7.827 -0.1550  0.0670 -0.0762
    1W        W46961  17.089   7.706   7.882  0.0247 -0.4945  0.0897
    1W        W46962  28.632   2.758   7.869  0.1302 -0.0913 -0.0034
    1W        W46963   5.517  24.130   8.805  0.2236 -0.1738  0.2131
    1W        W46964  20.304  14.559   0.495  0.0816 -0.0629 -0.0082
    1W        W46965   8.270   5.254   8.872 -0.1776 -0.2733 -0.2184
    1W        W46966   0.025  15.641   8.075  0.0350 -0.0046 -0.1065
    1W        W46967   2.101  19.000   8.508  0.2597  0.1424 -0.5055
    1W        W46968  16.921  20.426   7.661 -0.0047 -0.0639  0.1071
    1W        W46969  17.765   8.475   8.915 -0.0565  0.1702 -0.4368
    1W        W46970   5.196   6.004   3.379 -0.1114  0.0182  0.2083
    1W        W46971  19.426  24.428   8.528 -0.2870 -0.2571 -0.1809
    1W        W46972  12.597   9.342   6.617 -0.1553  0.0870  0.0877
    1W        W46973   5.139   9.530   8.618  0.0671 -0.1614  0.0959
    1W        W46974  19.176   0.267   0.221  0.1261 -0.1617  0.0312
    1W        W46975  22.749  20.670   1.999 -0.0645  0.0259  0.0236
    1W        W46976  27.209  12.675   2.952 -0.2286  0.0419  0.0098
    1W        W46977   0.475  23.917   3.417  0.1064  0.0427  0.1001
    1W        W46978  20.572   8.082   6.199  0.2383 -0.2401  0.2008
    1W        W46979  28.719   4.699   2.305 -0.2643  0.0736  0.0828
    1W        W46980  18.982  15.696   9.990 -0.4957  0.4783 -0.1789
    1W        W46981   5.566  17.253   8.977  0.0729 -0.0763 -0.3215
    1W        W46982   1.790  23.594   0.571 -0.1039  0.2034 -0.1694
    1W        W46983   5.200  24.906   0.663  0.0459  0.1057  0.0777
    1W        W46984  19.353   8.226   9.584 -0.0060 -0.1674  0.2121
    1W        W46985   3.521  11.295   7.749 -0.1943 -0.1539 -0.2066
    1W        W46986  15.068   4.061   7.303 -0.1518  0.0067 -0.2392
    1W        W46987   8.984   6.829   1.337  0.2473  0.0097 -0.1174
    1W        W46988  21.490   2.094   1.291 -0.3896  0.1775  0.0888
    1W        W46989   1.885   3.354   3.407  0.2350  0.0279  0.1219
    1W        W46990   9.340   9.821   7.412  0.0831 -0.0779  0.2280
    1W        W46991   2.951   8.664   2.066 -0.0091  0.0323  0.0550
    1W        W46992  25.474  28.310   1.751  0.1168 -0.0942 -0.4563
    1W        W46993  15.697  18.672   8.061  0.0361  0.1800 -0.1135
    1W        W46994  26.904   1.231   9.241  0.2331  0.0772 -0.1342
    1W        W46995  19.778   8.455   1.397 -0.1059 -0.0409 -0.0205
    1W        W46996  14.330  26.673   1.222  0.2207 -0.0157 -0.0434
    1W        W46997  20.119  22.871   2.993 -0.2296  0.1365  0.0614
    1W        W46998   4.914  22.747   8.324  0.1551  0.1026 -0.2591
    1W        W46999   7.505   3.410   0.218  0.0275  0.2423 -0.0569
    1W        W47000  23.288   1.074   8.924 -0.1030 -0.0973 -0.0549
    1W        W47001  19.104   8.707   1.983  0.0697  0.0827 -0.2708
    1W        W47002  28.095   5.007   8.302  0.0469  0.0497 -0.0961
    1W        W47003   1.220   5.806   3.161  0.0722  0.2789  0.1669
    1W        W47004  27.404  14.288   9.583  0.0695 -0.1027 -0.0063
    1W        W47005  18.264  17.768   7.957  0.3883 -0.1495  0.1245
    1W        W47006   0.976   3.598   8.309  0.2621 -0.0317  0.1879
    1W        W47007   9.584  19.123   0.272 -0.1913 -0.1763 -0.0298
    1W        W47008   5.537  18.802   0.923  0.0864 -0.1386 -0.0990
    1W        W47009  24.653   6.321   0.106  0.0555  0.2144 -0.2591
    1W        W47010  17.503  24.115   8.514 -0.1479 -0.1716 -0.1738
    1W        W47011  23.358  12.565   9.178 -0.2212  0.1300  0.1539
    1W        W47012  17.566  10.001   8.541  0.2759 -0.1733  0.1043
    1W        W47013   9.228  21.046   8.022 -0.2324 -0.0072  0.2204
    1W        W47014  28.164   6.111   1.291  0.0149 -0.0481 -0.1116
    1W        W47015  18.001   7.304   9.769 -0.2033  0.1025 -0.1079
    1W        W47016   4.954  23.540   2.078  0.0518 -0.1876  0.0015
    1W        W47017   8.167  25.806   1.567  0.0993 -0.1598 -0.2086
    1W        W47018   8.282   1.766   3.314  0.2216 -0.1889  0.0357
    1W        W47019   7.137   4.261   1.342 -0.0721  0.0237  0.1070
    1W        W47020   9.805  11.151   0.519  0.0570 -0.1733 -0.4720
    1W        W47021   9.399  14.804   6.179 -0.0567 -0.1705 -0.1425
    1W        W47022  14.767  13.353   7.156  0.0606  0.0521 -0.1405
    1W        W47023  24.904  13.042   6.736  0.1083 -0.2162 -0.0884
    1W        W47024  20.987  27.700   1.157  0.1684 -0.1762  0.1229
    1W        W47025  28.384  16.295   9.880  0.1094 -0.1988 -0.1169
    1W        W47026  20.901   0.897   7.755  0.0559  0.2976  0.1759
    1W        W47027   7.193   8.999   7.290 -0.2764  0.0137  0.1897
    1W        W47028   7.196  17.156   7.497  0.2153 -0.0757 -0.0500
    1W        W47029  15.658  16.699   0.625  0.1540  0.1600  0.3427
    1W        W47030  17.358   1.849   6.576  0.1265  0.1126  0.2455
    1W        W47031  19.200  26.715   0.441  0.2858  0.0076 -0.0102
    1W        W47032  24.046  10.033   1.423  0.0204  0.0852 -0.0989
    1W        W47033  12.223  24.221   1.948  0.2034  0.2075 -0.1333
    1W        W47034  23.994  21.332   8.671 -0.0940 -0.0021 -0.0972
    1W        W47035  21.475   6.760   9.759  0.2701  0.0541  0.0326
    1W        W47036  23.920   0.352   8.747  0.3481  0.4618 -0.3656
    1W        W47037  22.213  20.088   1.425  0.1383  0.0653 -0.0597
    1W        W47038  10.299   8.692   8.243  0.1526  0.0586 -0.3394
    1W        W47039   0.320   6.766   0.761 -0.1401 -0.2454 -0.2725
    1W        W47040  22.475  16.724   2.287  0.3278 -0.0528 -0.0466
    1W        W47041   8.798   5.049   7.913  0.2615  0.1667  0.0433
    1W        W47042  26.307  10.221   2.485  0.2018 -0.1070  0.0562
    1W        W47043   5.101  19.220   0.238 -0.2808 -0.0869 -0.3065
    1W        W47044  11.266   4.679   1.348 -0.5265 -0.2135  0.2030
    1W        W47045   1.132  24.738   3.261 -0.2785 -0.3070  0.0958
    1W        W47046  21.994   9.867   6.537 -0.0722 -0.0397 -0.0124
    1W        W47047   7.382  19.462   9.146  0.1278  0.0274 -0.0353
    1W        W47048  10.732  18.199   0.223  0.3614  0.2082  0.0260
    1W        W47049  15.501  19.662   0.434  0.0526 -0.0478  0.2171
    1W        W47050  20.747  22.021   6.990  0.2875 -0.1397  0.0726
    1W        W47051   6.088  13.095   1.892 -0.2589 -0.0872  0.0950
    1W        W47052  27.821  23.822   0.414 -0.2290  0.1057 -0.0408
    1W        W47053  11.750  26.722   9.286  0.2212 -0.0496  0.1481
    1W        W47054  23.306  22.113   2.868 -0.0595  0.2892  0.0192
    1W        W47055  23.369  14.384   9.726  0.0956  0.0249  0.1431
    1W        W47056  17.999   3.230   7.137  0.2460  0.3865  0.0704
    1W        W47057  27.539   3.814   0.309  0.2259 -0.1120 -0.0807
    1W        W47058   9.958   4.023   6.653 -0.1060 -0.2380 -0.1209
    1W        W47059   8.428  11.627   7.701 -0.0510 -0.1398  0.1550
    1W        W47060   2.161  28.750   2.456 -0.0694 -0.4463 -0.2384
    1W        W47061  11.108   9.965   5.461 -0.0766 -0.1411  0.5375
    1W        W47062   9.992  27.201   9.591 -0.3481  0.0025  0.0283
    1W        W47063  20.313   0.538   1.099  0.2173  0.1197  0.0437
    1W        W47064  14.029   9.926   8.331 -0.2305 -0.2523  0.0662
    1W        W47065  14.878  18.283   2.204  0.2319 -0.1835  0.2036
    1W        W47066  20.982  14.103   2.399  0.1341  0.2224  0.3123
    1W        W47067   1.531   6.240   3.191 -0.1744  0.1116  0.0947
    1W        W47068  17.712  22.756   1.961  0.2713  0.1236  0.0953
    1W        W47069  17.383  24.792   1.370  0.1390 -0.1057 -0.0761
    1W        W47070  24.367  15.122   2.298 -0.1210  0.3272  0.2018
    1W        W47071   5.038   5.578   7.505  0.2963  0.2777  0.0465
    1W        W47072   9.478   8.194   8.785  0.1313 -0.0611  0.1557
    1W        W47073   2.921  19.381   0.380 -0.0819  0.0760 -0.0714
    1W        W47074  18.356   9.333   6.204  0.1481 -0.0173 -0.0512
    1W        W47075  23.598  25.292   0.776  0.1995 -0.3426  0.1471
    1W        W47076   4.189  10.615   8.476 -0.3154  0.0760  0.1232
    1W        W47077   4.434  17.139   6.698 -0.1059  0.0448  0.1681
    1W        W47078  11.429  24.596   2.856  0.3069 -0.0090 -0.0151
    1W        W47079  18.989  28.322   1.403  0.1889 -0.3157  0.0068
    1W        W47080  27.526  23.174   1.026  0.0183  0.2199 -0.0009
    1W        W47081  21.226   4.058   7.882  0.0686 -0.4316 -0.1043
    1W        W47082  28.195  19.353   3.962  0.1195  0.0009 -0.1573
    1W        W47083  27.015  15.425   3.285 -0.4297 -0.0197  0.1057
    1W        W47084  27.707  26.328   9.061 -0.0788 -0.0781 -0.1034
    1W        W47085   2.660  23.310   8.052 -0.0839 -0.0572 -0.2814
    1W        W47086  28.237  28.551   9.438 -0.1095  0.1326  0.0719
    1W        W47087   0.456  21.467   7.614 -0.0955 -0.2415  0.2875
    1W        W47088  23.145  10.454   7.242 -0.0595  0.0749 -0.0803
    1W        W47089  25.040  16.390   1.717  0.0647 -0.2971 -0.0386
    1W        W47090   1.137  28.678   0.043  0.0280  0.3037 -0.2088
    1W        W47091  25.750  21.088   7.252  0.0980  0.0812 -0.1860
    1W        W47092  20.514  27.396   2.442 -0.2385  0.1416  0.1670
    1W        W47093  22.341  28.791   1.610  0.2870  0.0200 -0.1303
    1W        W47094   6.899   1.031   7.777  0.2840  0.0226 -0.2246
    1W        W47095   6.263  19.912   8.134  0.2731 -0.0778 -0.0874
    1W        W47096  23.443  24.228   1.782 -0.2308  0.5861  0.0154
    1W        W47097  11.053  27.022   8.566  0.1362  0.3698 -0.0043
    1W        W47098  21.522   4.679   2.263  0.3776 -0.0013 -0.2652
    1W        W47099  22.745   9.876   8.756 -0.0356  0.0745 -0.1367
    1W        W47100   9.496  12.894   6.989 -0.1614 -0.1948 -0.1434
    1W        W47101   2.350  19.865   8.798 -0.2259  0.0438 -0.3456
    1W        W47102  16.465  10.213   1.330 -0.1805 -0.0940  0.2121
    1W        W47103   2.976  18.311   7.381 -0.1251  0.0546  0.0073
    1W        W47104  21.604   6.496   9.347 -0.0510  0.0179 -0.2061
    1W        W47105  16.787  27.091   9.975 -0.2342  0.0963 -0.0830
    1W        W47106  12.477  18.726   8.205  0.0950  0.0488  0.2620
    1W        W47107   9.837  12.677   2.117  0.0354 -0.1016  0.2785
    1W        W47108   7.473   6.689   8.909 -0.0162  0.2132 -0.0699
    1W        W47109  27.631  11.619   6.618 -0.1325 -0.0870 -0.0175
    1W        W47110  19.139  13.250   1.605 -0.0644 -0.1519 -0.1235
    1W        W47111  13.157  12.598   0.387 -0.3513 -0.0711  0.1312
    1W        W47112  13.120  14.100   8.034  0.2268 -0.2302 -0.1778
    1W        W47113   3.327  25.894   0.569  0.1137  0.0020  0.1340
    1W        W47114   9.749   3.200   9.869  0.1402  0.0478 -0.2055
    1W        W47115  11.897   1.997   9.904  0.1783 -0.0717 -0.0035
    1W        W47116   4.755   3.885   4.166 -0.0827  0.3206 -0.0919
    1W        W47117   8.557   1.353   8.761 -0.0118 -0.0679 -0.0595
    1W        W47118  15.734  22.050   6.687 -0.1880  0.0983 -0.0546
    1W        W47119  28.265  21.439   1.898 -0.1917 -0.1619  0.1516
    1W        W47120   5.033  14.179   0.850 -0.1256 -0.0003  0.3845
    1W        W47121   9.980  24.154   8.589  0.0755  0.1933  0.0475
    1W        W47122  13.711  17.583   6.719 -0.0090 -0.1343 -0.3022
    1W        W47123   5.144   1.764   8.583 -0.1424  0.1058  0.0508
    1W        W47124  11.620  10.385   8.024 -0.0669  0.2868  0.0764
    1W        W47125  27.875  11.954   1.054 -0.0599  0.0135  0.2239
    1W        W47126   3.830   6.869   8.089  0.3344  0.1685 -0.0315
    1W        W47127   3.276  11.224   2.356 -0.1246  0.3793  0.0048
    1W        W47128  16.554   4.768   1.066  0.3149 -0.1544 -0.0557
    1W        W47129  19.654  22.127   2.096  0.1847 -0.0217 -0.1769
    1W        W47130  15.647  22.867   9.151  0.1172 -0.1403  0.1137
    1W        W47131  21.528  21.340   1.472  0.0750 -0.3178  0.6818
    1W        W47132  13.968  21.030   2.149 -0.3507  0.1028 -0.1194
    1W        W47133  17.045  28.367   7.509  0.0331 -0.0191 -0.1549
    1W        W47134  11.819  11.340   2.030  0.1690 -0.0475  0.3509
    1W        W47135  17.252  23.314   6.217  0.2595 -0.0275 -0.2761
    1W        W47136  25.021  20.946   0.949  0.0385 -0.1961  0.0063
    1W        W47137  19.108  11.073   8.566 -0.3723 -0.1659 -0.2884
    1W        W47138   2.659  26.574   9.594 -0.1781 -0.0260 -0.0839
    1W        W47139   7.708  13.029   1.810  0.0356  0.0075  0.2124
    1W        W47140  10.069  14.251   0.449 -0.0851 -0.0019 -0.0611
    1W        W47141   1.499  13.273   9.360 -0.0557  0.3458 -0.1519
    1W        W47142  12.856   6.361   9.115 -0.0030  0.1272 -0.3178
    1W        W47143  24.832  22.893   8.217 -0.1272 -0.0369  0.0156
    1W        W47144  26.844   9.498   2.716 -0.0705  0.0690 -0.0151
    1W        W47145  25.666   9.283   1.033 -0.0391  0.1808  0.0671
    1W        W47146  27.972   8.900   8.093 -0.0857  0.3523  0.0884
    1W        W47147  15.835   9.538   9.932 -0.2437 -0.0707  0.0225
    1W        W47148   5.334  13.113   0.367  0.2797  0.0408  0.0813
    1W        W47149   8.822  18.314   7.486 -0.2988 -0.2891  0.2943
    1W        W47150  22.986  23.475   2.412  0.0142  0.1882 -0.0950
    1W        W47151  16.700   9.275   9.344 -0.1553 -0.0067  0.2537
    1W        W47152   3.979  23.333   7.469  0.0461 -0.1424 -0.0848
    1W        W47153  16.040  20.566   8.688  0.2913  0.2811 -0.2219
    1W        W47154  10.922  23.563   8.769  0.2025  0.0597 -0.1946
    1W        W47155   9.972  19.097   0.577 -0.3242  0.1068 -0.2970
    1W        W47156  10.982   6.602   7.166 -0.0529  0.1583  0.1521
    1W        W47157  23.142  16.595   1.575 -0.1505 -0.3479  0.1950
    1W        W47158  13.508   0.809   2.567 -0.0269 -0.0014  0.1554
    1W        W47159   8.138  16.334   0.354  0.1308  0.0504  0.0558
    1W        W47160  22.179   5.230   1.748 -0.0752 -0.0502 -0.0502
    1W        W47161   8.406  10.952   7.528 -0.2483 -0.4987  0.1116
    1W        W47162  22.266   8.859   1.108  0.0390 -0.1212 -0.0598
    1W        W47163  17.811  27.781   2.719 -0.0044 -0.1598 -0.3814
    1W        W47164  22.189  19.486   8.762  0.1063  0.2033 -0.1160
    1W        W47165  19.308  25.220   7.202 -0.0300  0.0867 -0.0162
    1W        W47166  25.915   9.794   9.810  0.0949  0.3180 -0.2307
    1W        W47167   1.791  10.484   9.726  0.1498 -0.1197  0.1290
    1W        W47168   9.190  10.177   8.243 -0.1719 -0.2615  0.2978
    1W        W47169   0.688  15.360   8.935  0.1253 -0.0159  0.0430
    1W        W47170  26.058  17.180   0.535  0.0582  0.2534  0.0607
    1W        W47171  14.801   7.520   0.720 -0.1502 -0.1190  0.0296
    1W        W47172   7.881   7.901   2.608  0.2076 -0.0730 -0.3021
    1W        W47173  10.743  24.625   0.814  0.0369 -0.0036  0.0211
    1W        W47174  25.590   3.606   0.076  0.1509  0.1585  0.4553
    1W        W47175   2.152   1.823   0.370  0.2038 -0.3668 -0.0644
    1W        W47176  28.575  24.284   3.101 -0.2221  0.1135  0.0925
    1W        W47177  18.039  20.393   5.942  0.0257 -0.1599 -0.0943
    1W        W47178  20.949   8.642   8.425 -0.0686 -0.4839 -0.2394
    1W        W47179  26.818   5.763   3.215  0.0235 -0.1043 -0.1644
    1W        W47180  18.026  17.329   2.417  0.2412  0.1767 -0.2634
    1W        W47181  12.907   0.814   9.691  0.0789  0.0690 -0.1360
    1W        W47182   4.844  13.769   2.137  0.1605 -0.1333 -0.1125
    1W        W47183  23.579  18.028   2.326 -0.4223 -0.3293  0.0229
    1W        W47184  18.830   9.996   8.136  0.0697 -0.2301 -0.2738
    1W        W47185   6.823  12.909   1.308 -0.4507  0.1442  0.0001
    1W        W47186  22.829  22.659   8.627 -0.0763  0.0255  0.0930
    1W        W47187   8.129  19.163   7.541 -0.1855  0.2301  0.2090
    1W        W47188  13.877   7.257   6.700 -0.3070  0.1165  0.1239
    1W        W47189   1.215  24.493   0.276  0.1359  0.0037 -0.2307
    1W        W47190  21.847   7.604   2.314 -0.2232  0.0525  0.1096
    1W        W47191  17.537   6.241   5.709 -0.1229  0.1311 -0.0693
    1W        W47192  18.219   6.860   8.757  0.0113  0.0843 -0.1570
    1W        W47193  27.941   2.671   2.244 -0.1051  0.1658  0.0079
    1W        W47194   5.280  24.649   0.248  0.4514  0.1209 -0.3000
    1W        W47195   3.816   4.999   1.298 -0.1184 -0.1156 -0.0510
    1W        W47196  19.455   1.526   8.191  0.1716  0.3146  0.0223
    1W        W47197  13.117   9.756   5.566 -0.1155 -0.2510 -0.2609
    1W        W47198  17.818  26.702   7.473  0.1079  0.0279  0.1255
    1W        W47199  17.747   5.705   6.008 -0.1142  0.1047 -0.4043
    1W        W47200  10.500  15.673   6.685  0.1215 -0.0601 -0.1611
    1W        W47201  18.458  17.406   0.472 -0.1739 -0.0289  0.6186
    1W        W47202  21.280  13.224   0.802  0.1211  0.2179  0.0098
    1W        W47203  27.375  20.483   8.860  0.0246 -0.1717  0.0166
    1W        W47204   2.907  25.014   3.912 -0.3064 -0.1478  0.4217
    1W        W47205  22.886  11.452   7.985 -0.0236 -0.1184 -0.2659
    1W        W47206  23.983   9.782   2.484  0.0565 -0.4534 -0.1732
    1W        W47207   0.304   0.041   3.181 -0.4645 -0.1493 -0.0363
    1W        W47208  18.120  19.067   9.428 -0.2829 -0.2202  0.3875
    1W        W47209  19.171   9.920   6.955 -0.1134  0.1962 -0.1153
    1W        W47210  24.016  14.300   1.633 -0.2694 -0.1763 -0.1285
    1W        W47211   0.328   5.066   0.021  0.1686  0.2318 -0.2061
    1W        W47212   6.170  13.696   1.769 -0.1528 -0.0534  0.1060
    1W        W47213   9.469   4.671   9.086 -0.0506 -0.1137  0.0248
    1W        W47214  11.482   2.675   8.095  0.0948  0.2509  0.3026
    1W        W47215   6.532  21.538   9.588  0.1688  0.1331 -0.2719
    1W        W47216  14.224  11.500   7.440  0.0490 -0.0493 -0.0046
    1W        W47217  11.427  23.135   7.395 -0.0890  0.0025 -0.1257
    1W        W47218   9.464  11.505   7.025  0.2051 -0.0830  0.0319
    1W        W47219  20.550  19.896   7.578  0.0770  0.2306 -0.0056
    1W        W47220  23.828   9.915   0.688 -0.1794 -0.2849  0.2292
    1W        W47221  17.326  21.113   7.060 -0.1296 -0.1875 -0.0751
    1W        W47222   6.684  17.460   6.558 -0.0272  0.2167 -0.3407
    1W        W47223  25.077  17.070   7.181 -0.0070  0.3125 -0.3356
    1W        W47224  16.682  26.098   8.947  0.1564  0.0307  0.1155
    1W        W47225   5.399   7.014   9.605  0.0023  0.2431 -0.0810
    1W        W47226   6.462  16.008   9.285 -0.1315  0.1807  0.0132
    1W        W47227  24.739  11.928   0.373  0.1665 -0.3464 -0.1139
    1W        W47228   0.574  18.400   2.593  0.2548 -0.1070  0.1094
    1W        W47229  19.739  14.882   9.634 -0.3318 -0.2330 -0.1712
    1W        W47230   9.391  11.968   6.784  0.0939 -0.1011 -0.2525
    1W        W47231   5.869  17.758   1.963  0.0590  0.3190  0.0111
    1W        W47232  28.484  16.931   3.216 -0.2192  0.1006  0.1944
    1W        W47233  15.164  24.385   7.025 -0.0738 -0.0391 -0.1979
    1W        W47234  19.690  21.275   1.963  0.2744  0.1723 -0.0070
    1W        W47235  10.427   7.150   1.635 -0.0838  0.1420 -0.2187
    1W        W47236  23.187  13.002   6.819  0.4132  0.4104 -0.2433
    1W        W47237  27.550  15.304   8.870 -0.3185 -0.0378  0.1792
    1W        W47238   7.349  25.196   1.507 -0.1137  0.2212 -0.0618
    1W        W47239   5.517  24.308   8.342  0.2334  0.1051  0.0986
    1W        W47240   9.260  12.520   9.898 -0.1129 -0.0401  0.0204
    1W        W47241   7.412   6.467   1.795 -0.3422  0.1065 -0.0107
    1W        W47242  24.467   9.815   6.745  0.2525 -0.0703  0.2569
    1W        W47243  25.909   5.597   8.482 -0.0855  0.2145 -0.0206
    1W        W47244   8.612  21.310   0.257 -0.0224  0.0562 -0.0167
    1W        W47245  16.762  17.543   8.821  0.2526 -0.0926  0.0267
    1W        W47246  18.263  28.702   1.663 -0.1699 -0.1059 -0.2597
    1W        W47247   2.643  17.660   0.518 -0.2150 -0.0672  0.1130
    1W        W47248  11.280  21.143   2.684  0.0245 -0.3348  0.0667
    1W        W47249  22.392   1.547   0.634  0.0624  0.1489  0.0077
    1W        W47250  28.674   5.699   2.078  0.0298  0.0493  0.1292
    1W        W47251  25.279  13.818   7.424  0.1664  0.1236  0.0271
    1W        W47252   2.795  18.582   7.829  0.1223  0.4176  0.2632
    1W        W47253   2.691  17.469   2.438 -0.2165  0.0112  0.3298
    1W        W47254   0.084  16.736   1.325 -0.1979 -0.1133 -0.0900
    1W        W47255  21.681   1.870   8.101 -0.3618 -0.0169 -0.2832
    1W        W47256  12.065   5.464   6.516  0.2341 -0.0853 -0.1877
    1W        W47257   7.031   9.897   7.474  0.1108  0.1494 -0.1153
    1W        W47258  20.815  15.977   9.661  0.1298  0.2328  0.0234
    1W        W47259  25.454  26.800   9.371  0.1817  0.3275  0.1105
    1W        W47260   9.027  24.306   1.708  0.1024  0.1235  0.2260
    1W        W47261   4.426   2.731   3.489 -0.3603 -0.3141 -0.3830
    1W        W47262  11.430   5.981   8.801 -0.1645 -0.0542  0.2759
    1W        W47263   0.059  15.636   9.444 -0.1212 -0.0371 -0.0962
    1W        W47264  12.101  23.243   7.980 -0.0645  0.1245  0.1897
    1W        W47265   8.174   2.290   0.614 -0.4371  0.0028  0.0379
    1W        W47266  14.619  12.710   2.507  0.0388 -0.1171 -0.1298
    1W        W47267  22.926  24.306   3.043  0.1636 -0.0847  0.2447
    1W        W47268  19.668   1.384   7.157  0.1226  0.1633  0.0960
    1W        W47269  25.542  14.913   9.948 -0.2889 -0.0151  0.1728
    1W        W47270  12.262  28.141   1.805  0.0254  0.0920 -0.0003
    1W        W47271  18.922  27.573   1.798 -0.4804 -0.0405  0.0031
    1W        W47272   6.445   3.857   7.455 -0.0042  0.1792 -0.0489
    1W        W47273  27.141   0.240   2.310 -0.1433 -0.0141 -0.2733
    1W        W47274  24.836  28.473   8.374  0.0174 -0.0272  0.0100
    1W        W47275  21.720  15.688   2.432  0.2136 -0.1841 -0.1106
    1W        W47276   2.265   3.361   9.235  0.1299 -0.2744  0.0623
    1W        W47277  24.920   7.979   0.814  0.2098  0.2084 -0.3332
    1W        W47278   0.494  19.079   3.148  0.3116 -0.0254 -0.0976
    1W        W47279  27.758  17.133   9.239  0.0414 -0.3655 -0.2255
    1W        W47280  19.878   7.015   8.647  0.0372  0.1723  0.1910
    1W        W47281   6.454  21.848   1.783  0.1140  0.2734  0.0608
    1W        W47282  14.415  20.744   3.430  0.1261 -0.3029  0.0746
    1W        W47283   1.452  28.156   2.446  0.2188 -0.0690 -0.2648
    1W        W47284   3.510  19.422   2.662 -0.2358  0.2135 -0.1043
    1W        W47285  11.656  20.238   8.335 -0.2181  0.0238 -0.0997
    1W        W47286  22.276  20.228   7.037  0.1049  0.0368 -0.1175
    1W        W47287  11.297   0.296   9.750  0.0099 -0.0433 -0.0996
    1W        W47288  12.264  20.668   9.015  0.0673  0.1889  0.2585
    1W        W47289  21.961  19.831   0.056  0.0175 -0.0493  0.2519
    1W        W47290   9.104  21.577   3.557 -0.0619 -0.4595 -0.0616
    1W        W47291   2.707   7.805   0.342  0.1209  0.1925  0.0848
    1W        W47292  11.733   2.681   1.741 -0.1772  0.0883 -0.4285
    1W        W47293  20.379  15.793   2.396 -0.3057 -0.2071 -0.0160
    1W        W47294  20.670  22.171   9.135 -0.0815 -0.5295  0.1453
    1W        W47295  20.159  20.149   8.903 -0.0690 -0.1713 -0.3112
    1W        W47296   7.286   0.563   2.151 -0.0940  0.1206 -0.0740
    1W        W47297  12.473  28.279   3.195 -0.0256  0.0436 -0.1747
    1W        W47298   5.205  17.815   8.312  0.0208  0.1040 -0.0211
    1W        W47299  22.994   7.898   8.670 -0.2271  0.3269 -0.1392
    1W        W47300   7.476  21.351   8.455 -0.0152  0.2908  0.1205
    1W        W47301  18.544   7.229   6.805 -0.0740 -0.0191  0.1372
    1W        W47302  14.706  20.103   0.687 -0.1970  0.3375 -0.3505
    1W        W47303  27.896   6.967   2.669 -0.1480  0.3294  0.2065
    1W        W47304  16.105  18.414   8.160  0.2930  0.2332  0.1206
    1W        W47305  21.897  13.772   7.314  0.1570  0.0565  0.0186
    1W        W47306  13.189  16.550   8.295 -0.0584 -0.0790  0.0774
    1W        W47307  15.133  16.245   7.360 -0.0308 -0.1995 -0.0491
    1W        W47308  27.057  22.428   7.607 -0.0890 -0.3617  0.0518
    1W        W47309  25.198  18.278   7.070 -0.1001 -0.1065 -0.0727
    1W        W47310  10.987   2.859   1.037 -0.0826  0.1310 -0.2989
    1W        W47311  13.283   0.752   8.632  0.0331  0.1393  0.3839
    1W        W47312   0.813  16.662   9.004 -0.0648 -0.3315 -0.0623
    1W        W47313   2.809   7.474   8.064  0.1114  0.0136  0.0843
    1W        W47314  16.699  28.661   6.127  0.2823  0.1178  0.1165
    1W        W47315  18.380  10.374   0.213 -0.0721  0.2272  0.0410
    1W        W47316   2.723  13.718   0.113  0.0930 -0.1016  0.3631
    1W        W47317   4.289  15.315   0.423  0.1411 -0.0391 -0.1461
    1W        W47318  18.239  18.337   8.681 -0.1060  0.0862 -0.1782
    1W        W47319  16.835   3.594   0.317  0.2151  0.0027 -0.1033
    1W        W47320   9.082  11.681   5.941  0.1277 -0.0366 -0.1203
    1W        W47321   9.801  25.038   1.470 -0.0063  0.3509 -0.0256
    1W        W47322  22.065  17.584   1.914 -0.2372  0.1234 -0.1969
    1W        W47323  13.549   0.453   2.184  0.1997 -0.0894 -0.1395
    1W        W47324  21.075  22.848   7.758  0.1252 -0.2065 -0.2095
    1W        W47325   7.005  13.313   0.652  0.2235 -0.1301 -0.1165
    1W        W47326   8.235   9.939   9.417 -0.0613  0.0470 -0.2429
    1W        W47327  20.913   3.284   1.536 -0.0159  0.0278  0.3230
    1W        W47328  10.454  27.691   8.116 -0.3696  0.1316  0.1808
    1W        W47329  20.676   4.752   7.367 -0.2074 -0.0670 -0.0083
    1W        W47330  16.402  11.903   6.951 -0.0334 -0.1878  0.3888
    1W        W47331   1.424  18.365   0.934  0.2852  0.1881  0.0419
    1W        W47332  11.174  22.766   7.698  0.3329 -0.1726 -0.2436
    1W        W47333   2.139   0.717   8.601  0.0610  0.1330  0.0728
    1W        W47334  14.727  10.242   8.413  0.2744  0.0875 -0.3974
    1W        W47335   2.791  20.086   2.992 -0.1349 -0.1289  0.2102
    1W        W47336  24.590  16.595   3.331 -0.0715 -0.1190  0.1716
    1W        W47337  22.811  14.092   6.611  0.0800 -0.0083  0.0688
    1W        W47338   1.949  15.319   3.092 -0.1761 -0.0934  0.3170
    1W        W47339   8.688   6.936   8.184  0.0061  0.1049 -0.2688
    1W        W47340  18.648  19.381   9.481 -0.2649 -0.1682 -0.1756
    1W        W47341  23.346   2.634   1.109 -0.1311 -0.0802 -0.0992
    1W        W47342   3.361  19.342   1.491  0.2169  0.0107  0.2975
    1W        W47343   7.782   4.497   8.775  0.0205  0.1561 -0.2222
    1W        W47344  20.380  26.930   9.143  0.2702  0.1289  0.1029
    1W        W47345   8.534   9.015   9.278 -0.0236 -0.0806  0.0509
    1W        W47346  10.452   6.304   7.820 -0.0861  0.0292  0.1920
    1W        W47347  27.688   0.541   9.036  0.0199  0.0199  0.0728
    1W        W47348  16.209  21.477   9.059  0.1731 -0.1300 -0.2316
    1W        W47349  24.354  22.611   1.775  0.0960 -0.1289  0.3171
    1W        W47350  18.590  11.617   7.718 -0.0654 -0.1992 -0.0174
    1W        W47351   5.558  12.812   1.213 -0.1577 -0.0751  0.1258
    1W        W47352   8.447   5.236   1.997 -0.2596 -0.1547 -0.1437
    1W        W47353  22.296  22.671   8.896 -0.0045  0.2754 -0.0272
    1W        W47354  17.854  12.330   0.049  0.1270  0.2023  0.1986
    1W        W47355  26.611   2.511   9.987 -0.1643  0.1006  0.0171
    1W        W47356   8.353  18.527   0.385 -0.1691  0.0319 -0.0352
    1W        W47357   3.058   3.804   1.436  0.1333 -0.1735 -0.2870
    1W        W47358   7.621  10.762   8.854 -0.1691 -0.3095 -0.0319
    1W        W47359  10.265  11.930   9.909  0.0010  0.2064  0.1116
    1W        W47360  28.453   2.827   4.122 -0.0292  0.1243 -0.0016
    1W        W47361   5.455   6.412   9.540 -0.0383 -0.2465  0.1058
    1W        W47362   0.790  25.755   9.067  0.0248 -0.2496 -0.1224
    1W        W47363  24.365   2.595   0.463 -0.1339 -0.0355 -0.0565
    1W        W47364  26.097  11.867   3.522  0.3561  0.1618 -0.1410
    1W        W47365   3.901  19.481   7.663  0.2324  0.0784  0.0752
    1W        W47366  12.774  17.043   8.507 -0.0283  0.1851 -0.0187
    1W        W47367  20.886  16.813   1.869  0.0294  0.2665 -0.2459
    1W        W47368  22.134  19.876   2.111 -0.3974  0.4755  0.0494
    1W        W47369  28.526  11.098   8.640  0.0117  0.0333 -0.0732
    1W        W47370  19.949  22.138   2.542 -0.3185 -0.0548 -0.3624
    1W        W47371  24.561  18.235   9.788  0.1705 -0.1343 -0.0094
    1W        W47372   7.848  15.250   6.629 -0.0862  0.0970 -0.0398
    1W        W47373  19.707  23.039   2.169  0.1251  0.1369  0.0490
    1W        W47374  18.013  23.807   1.122  0.2273  0.1529  0.1227
    1W        W47375  21.332   9.658   9.788  0.0605 -0.0515 -0.1473
    1W        W47376  26.483   2.244   0.844 -0.0459  0.3025 -0.0340
    1W        W47377  10.316  25.740   8.347  0.0981  0.1367  0.0182
    1W        W47378  21.236   7.445   9.267  0.0666 -0.0894 -0.1935
    1W        W47379  28.595  25.256   2.917  0.1784  0.1303 -0.1793
    1W        W47380   1.190   5.455   8.891  0.0458 -0.0107 -0.1161
    1W        W47381  19.693  25.228   9.087  0.1123 -0.0103 -0.0051
    1W        W47382   4.642   7.373   9.238  0.2090 -0.2264 -0.1633
    1W        W47383   9.814  25.778   0.969 -0.1342  0.3098  0.3618
    1W        W47384   9.408  25.297   1.627  0.3141 -0.0719 -0.1577
    1W        W47385   8.222  15.138   6.916 -0.2958  0.2934 -0.0160
    1W        W47386  19.281   0.769   8.556 -0.0031 -0.1056 -0.0195
    1W        W47387  20.423  14.291   0.862  0.1612  0.2508 -0.0941
    1W        W47388  16.128  13.333   5.784  0.0070 -0.1270  0.1082
    1W        W47389  12.480   3.162   0.926  0.0048  0.0120 -0.0009
    1W        W47390   7.712  22.919   2.586 -0.0413 -0.1362 -0.0045
    1W        W47391   5.944  12.638   6.922  0.0243 -0.2169 -0.2291
    1W        W47392  22.528   4.230   1.949 -0.0044 -0.0864  0.0712
    1W        W47393   2.691   4.064   0.293 -0.2440 -0.0008 -0.0884
    1W        W47394   6.472  24.330   1.629 -0.1327 -0.0060  0.3141
    1W        W47395  11.781   7.111   9.329  0.3273 -0.1016  0.1778
    1W        W47396  20.115  12.871   6.848 -0.1582  0.2267 -0.1162
    1W        W47397  20.074   7.874   6.048  0.0419 -0.1633 -0.0672
    1W        W47398   8.758   3.864   0.226 -0.3044 -0.2130  0.1466
    1W        W47399  23.471  13.187   9.846  0.4397  0.3407  0.1978
    1W        W47400  13.156  22.309   8.843 -0.2614  0.1929  0.1724
    1W        W47401   8.868   6.406   2.892 -0.1170  0.3929 -0.3072
    1W        W47402  27.226  10.618   1.387  0.4828  0.1799 -0.3863
    1W        W47403  26.344  15.231   1.609  0.1479 -0.0892  0.0771
    1W        W47404  24.188  13.021   9.631  0.0300  0.2393  0.1022
    1W        W47405  10.610  13.898   9.780  0.1450  0.2097  0.1192
    1W        W47406   4.004  12.846   1.813 -0.0238  0.2468 -0.0913
    1W        W47407  14.364  13.258   7.724  0.3100  0.2113 -0.1168
    1W        W47408  11.901   5.119   9.106 -0.0143  0.0352  0.1831
    1W        W47409  12.837  11.138   2.369  0.1197  0.0030  0.2648
    1W        W47410  22.521  24.093   1.872 -0.3437  0.2838  0.1519
    1W        W47411   0.105   6.415   2.961 -0.2109  0.0248  0.0504
    1W        W47412  22.142   1.873   7.103 -0.0735 -0.2297  0.0544
    1W        W47413  11.924  11.187   1.549 -0.1986 -0.1378 -0.3322
    1W        W47414  16.674  12.234   0.832  0.2129 -0.2039 -0.1131
    1W        W47415  11.652  22.894   3.176 -0.4343 -0.1553  0.0709
    1W        W47416   5.307  18.924   1.401  0.1732  0.0869  0.0132
    1W        W47417   0.659   3.510   0.748 -0.2185  0.1374  0.3682
    1W        W47418  27.907  13.935   0.866 -0.1338 -0.0006  0.0512
    1W        W47419   0.867  27.708   1.414  0.1038 -0.2347  0.0184
    1W        W47420  15.321  15.176   7.095 -0.1342  0.0119  0.1343
    1W        W47421  20.391  15.246   0.147 -0.1747  0.2675  0.1207
    1W        W47422   4.963   0.005   3.861  0.2892 -0.2306 -0.0229
    1W        W47423   3.260   0.072   6.808  0.1082  0.1299  0.0907
    1W        W47424  10.902  19.640   9.588  0.1727 -0.1537 -0.0246
    1W        W47425  24.552   4.651   0.018 -0.1144  0.0316 -0.3793
    1W        W47426   4.110   0.927   8.191  0.3075 -0.0491 -0.0903
    1W        W47427  18.627   3.193   8.060 -0.2801  0.1372  0.2611
    1W        W47428  13.680  14.620   7.655  0.0640 -0.1270  0.0799
    1W        W47429  27.802  11.469   1.170  0.1649  0.0511 -0.1305
    1W        W47430   6.783  12.228   0.507 -0.1197  0.0615 -0.1831
    1W        W47431  21.301  26.881   9.240  0.0253 -0.1064 -0.1871
    1W        W47432   9.261  17.499   7.555 -0.2419  0.1329 -0.1675
    1W        W47433  15.550  19.325   9.908  0.1682 -0.2586  0.0470
    1W        W47434  16.486  18.822   6.474  0.0146  0.0298  0.0736
    1W        W47435   4.043   5.823   0.629 -0.1018  0.2465 -0.1560
    1W        W47436  18.242  16.404   0.807  0.1670 -0.2567  0.0038
    1W        W47437   8.442   9.304   0.946 -0.1133 -0.2333  0.3367
    1W        W47438   7.337  10.752   2.197 -0.1724 -0.2319 -0.2439
    1W        W47439  22.448   7.107   1.698 -0.4047  0.1263  0.3515
    1W        W47440  22.873  17.109   8.497  0.1048  0.1398  0.1509
    1W        W47441  26.693  23.307   9.507  0.1049 -0.1915 -0.3623
    1W        W47442   1.788  20.816   3.721 -0.2279  0.1035 -0.2309
    1W        W47443   6.552  14.746   7.029  0.3815  0.2351 -0.1999
    1W        W47444  28.303  16.508   2.995  0.0629  0.3562 -0.1001
    1W        W47445  16.083  17.253   6.240 -0.0262  0.1277  0.2159
    1W        W47446  10.782  10.920   9.213  0.0489  0.0532  0.0751
    1W        W47447   6.032  24.356   8.194 -0.3053 -0.1530  0.2913
    1W        W47448  10.875  26.826   1.081  0.1980 -0.0468  0.1359
    1W        W47449  21.282  10.479   1.392  0.0127  0.2362 -0.1552
    1W        W47450  16.261  13.830   0.538 -0.1421 -0.3255 -0.0229
    1W        W47451  25.354  12.759   7.561 -0.0009 -0.0243 -0.1507
    1W        W47452   3.457  24.150   8.338  0.0113 -0.0526 -0.2692
    1W        W47453  11.375   3.251   2.767 -0.1141  0.0856  0.0366
    1W        W47454  16.485   3.726   9.998  0.0781  0.1160  0.0948
    1W        W47455  14.065  21.868   2.448 -0.2129  0.5249  0.0894
    1W        W47456  14.179  10.203   9.156 -0.0666 -0.3110  0.1554
    1W        W47457  24.227   3.946   2.331 -0.0730  0.1152 -0.2205
    1W        W47458  20.097  21.303   0.626  0.0624  0.1757  0.1521
    1W        W47459   7.541   8.724   2.665  0.0445 -0.0542 -0.0279
    1W        W47460  22.814  28.052   9.591 -0.1410 -0.4337 -0.0475
    1W        W47461   8.655  11.309   9.473 -0.0516 -0.1031  0.0579
    1W        W47462  26.207  26.282   3.456 -0.1736 -0.1796  0.0194
    1W        W47463  20.676   0.445   2.011  0.3572 -0.2455 -0.3205
    1W        W47464   7.870   3.015   2.647  0.0255  0.2207  0.1257
    1W        W47465   0.312  25.793   8.324 -0.1784 -0.2939 -0.0546
    1W        W47466  19.631  28.516   7.546  0.1728  0.2110 -0.0508
    1W        W47467  24.198  25.471   2.332 -0.1571  0.0319 -0.3272
    1W        W47468  20.324  19.513   0.662  0.2334  0.0207  0.1010
    1W        W47469   5.760  21.665   1.105 -0.0384 -0.4122 -0.1322
    1W        W47470  13.758   7.422   0.893 -0.3118 -0.3335 -0.2938
    1W        W47471   1.452   5.987   9.553 -0.0714 -0.1672 -0.2136
    1W        W47472  22.947   3.774   6.964 -0.1244 -0.1302 -0.0016
    1W        W47473   1.442  16.167   0.841 -0.0287 -0.2623  0.1541
    1W        W47474   0.086   1.419   0.467 -0.0507  0.1696  0.2084
    1W        W47475   6.300  20.699   2.566  0.1554  0.2696  0.0316
    1W        W47476  22.650   7.076   8.864  0.0992  0.0207  0.2088
    1W        W47477  10.753  17.971   9.775 -0.0328 -0.0522 -0.1865
    1W        W47478   3.732   5.214   8.129  0.4479  0.2347  0.0509
    1W        W47479  14.289   5.681   0.883  0.1459 -0.0865 -0.1812
    1W        W47480  16.750   0.122   0.198  0.0851 -0.2641  0.0092
    1W        W47481  16.084  10.994   7.436  0.0114  0.3536  0.3190
    1W        W47482  17.355  23.614   1.619 -0.1131  0.1505 -0.0742
    1W        W47483  14.818  28.406   6.648  0.2320 -0.2998  0.4118
    1W        W47484  12.335  22.065   0.796  0.0252  0.0010 -0.2599
    1W        W47485   8.960   6.368   9.654  0.2142  0.2608 -0.2124
    1W        W47486   9.305  14.124   0.163 -0.1718  0.0065  0.1173
    1W        W47487   3.672  14.884   8.955 -0.1068  0.0174 -0.0729
    1W        W47488  23.746  13.887   1.789  0.0396  0.2295  0.0119
    1W        W47489  18.737   3.312   7.298 -0.1243 -0.1331 -0.1469
    1W        W47490  19.884  15.207   1.080  0.1727 -0.0435 -0.0809
    1W        W47491   3.082   8.612   2.893 -0.0863  0.0703 -0.0766
    1W        W47492   1.535  20.332   2.833  0.3301 -0.1215  0.2298
    1W        W47493  19.099  20.691   6.018  0.1423  0.0720  0.1407
    1W        W47494  21.321  26.051   7.886  0.1778  0.0847  0.1513
    1W        W47495  25.410  23.577   3.332 -0.2820  0.0685 -0.1073
    1W        W47496  17.440  24.606   0.436  0.0044 -0.1030 -0.1595
    1W        W47497  24.896  22.284   9.065  0.0202 -0.4605 -0.1602
    1W        W47498   5.480  18.956   6.754  0.3452  0.1496 -0.1156
    1W        W47499  19.954  18.149   9.356 -0.0322 -0.3182 -0.0962
    1W        W47500   9.429  27.508   2.545 -0.2800 -0.0775 -0.1126
    1W        W47501  12.796  19.462   2.574 -0.4058 -0.0945  0.2394
    1W        W47502  26.722  12.326   7.992 -0.1094  0.1571  0.0482
    1W        W47503  18.218  21.218   9.053  0.0077 -0.0828 -0.1091
    1W        W47504   7.981  21.068   9.791  0.4655 -0.1349  0.0847
    1W        W47505   5.398   2.784   9.687  0.0446  0.1739  0.0858
    1W        W47506  19.693  11.732   0.263 -0.0361 -0.1866 -0.0973
    1W        W47507   8.143  20.802   0.182  0.0743 -0.1230 -0.3893
    1W        W47508  18.660  12.975   1.593  0.1263  0.1629 -0.1927
    1W        W47509  11.929  13.805   8.673 -0.0662  0.1604  0.1620
    1W        W47510  16.402  22.011   0.051 -0.2468  0.2332 -0.2092
    1W        W47511   1.632   0.712   9.153  0.1858  0.1455  0.0675
    1W        W47512  10.975  17.576   9.588  0.0674  0.3929 -0.1144
    1W        W47513  23.240   6.656   1.313 -0.0300  0.2309  0.1288
    1W        W47514   4.293   1.272   0.239  0.0767 -0.0111  0.0651
    1W        W47515  15.980  13.617   6.573  0.5683  0.1444 -0.0499
    1W        W47516  12.918   8.907   1.525 -0.0861  0.1879  0.5119
    1W        W47517   9.335  18.015   0.912  0.2639  0.2647 -0.1661
    1W        W47518  27.069  27.205   9.608  0.1520 -0.2300 -0.0252
    1W        W47519   4.425  21.033   3.296 -0.2472  0.4419 -0.1229
    1W        W47520   5.456  23.221   3.367  0.0244  0.1952  0.2064
    1W        W47521  17.656  18.506   1.941 -0.0307  0.0217  0.1711
    1W        W47522   4.359  21.777   9.361 -0.0624 -0.2347  0.0349
    1W        W47523  26.088   5.513   9.676  0.1107 -0.1665  0.1224
    1W        W47524  13.779   9.181   9.142  0.0213  0.1701 -0.1135
    1W        W47525   3.237   6.527   1.752 -0.0225  0.0692  0.0471
    1W        W47526  15.917   2.058   0.364  0.1058 -0.0245 -0.1221
    1W        W47527  13.472   8.833   8.606  0.3301  0.0797 -0.0728
    1W        W47528   4.742  11.905   0.025  0.1470  0.0683  0.1715
    1W        W47529  21.389   4.613   9.391 -0.2647  0.3102 -0.0839
    1W        W47530  21.490  19.329   2.079 -0.2485  0.0625 -0.1065
    1W        W47531  16.851   6.112   0.550  0.1404  0.0522 -0.2069
    1W        W47532  25.664  17.095   9.659 -0.4021 -0.0795  0.0105
    1W        W47533  19.444   9.678   9.185  0.0813 -0.1326  0.0592
    1W        W47534  23.113  12.394   7.847 -0.1190  0.1347 -0.3240
    1W        W47535  23.563  10.089   7.326  0.1717 -0.2103  0.2676
    1W        W47536  11.876  21.591   7.585  0.1682 -0.1020 -0.2940
    1W        W47537  15.846   4.054   6.922  0.2465  0.4214 -0.2332
    1W        W47538  10.044  27.582   2.063  0.4527 -0.0555 -0.0876
    1W        W47539  25.162   7.073   9.865  0.2204  0.0611 -0.0120
    1W        W47540  27.799   9.956   9.543  0.2895 -0.3538  0.0313
    1W        W47541   8.214  11.716   6.431 -0.0120  0.1405  0.1668
    1W        W47542  21.638  18.405   6.420 -0.1442  0.2556  0.2626
    1W        W47543  23.241  13.090   1.499  0.2318  0.1360  0.2448
    1W        W47544  22.010   1.838   2.007 -0.4153  0.0497  0.1302
    1W        W47545  28.818  20.107   7.788  0.0839 -0.0979  0.1397
    1W        W47546  28.562  19.251   8.844  0.0443  0.0661 -0.0227
    1W        W47547  15.591   0.349   8.368 -0.2273  0.1236  0.1663
    1W        W47548  12.505   7.690   2.455 -0.2276  0.0506  0.0012
    1W        W47549  18.255   4.218   7.645  0.0491  0.0044  0.0648
    1W        W47550   9.534   5.556   8.608 -0.0518  0.2985 -0.1137
    1W        W47551  11.063  26.975   3.090  0.1596  0.2679 -0.2203
    1W        W47552   2.626  16.612   1.765  0.1591  0.1213  0.1070
    1W        W47553  23.905   3.677   2.591 -0.0733  0.2987 -0.1455
    1W        W47554  17.505  26.907   0.881  0.1750 -0.0888 -0.1146
    1W        W47555  24.866  19.826   1.242 -0.1326 -0.2293  0.0170
    1W        W47556  28.800  14.970   3.997 -0.1124 -0.1831 -0.1631
    1W        W47557   9.253  24.372   1.271 -0.1122 -0.2713 -0.1519
    1W        W47558   0.363  12.697   0.750 -0.1295  0.1263  0.2540
    1W        W47559  24.829  19.142   8.880  0.1506  0.1075 -0.3042
    1W        W47560   7.272  21.057   9.363  0.2123  0.1305  0.2454
    1W        W47561  23.112  19.301   2.513 -0.2950 -0.1115  0.0260
    1W        W47562   9.740  20.176   7.772 -0.1781 -0.0090 -0.2907
    1W        W47563   0.221  13.824   1.348 -0.0238  0.2955  0.2868
    1W        W47564   8.055  12.185   6.380 -0.0972  0.0180 -0.2412
    1W        W47565  13.281  21.104   9.068 -0.2384  0.3210  0.1546
    1W        W47566   5.433   4.174   3.430  0.2209 -0.0923 -0.0003
    1W        W47567   1.995   4.751   2.475 -0.1576 -0.3563  0.0511
    1W        W47568  23.704  25.433   2.621 -0.0137 -0.1655  0.0852
    1W        W47569  27.520  15.927   1.755 -0.0515 -0.1625 -0.1008
    1W        W47570  10.658   6.178   8.335 -0.0956  0.0621  0.2686
    1W        W47571   7.715  27.988   2.633 -0.1850  0.2143  0.0119
    1W        W47572  19.435   0.150   9.277  0.0865  0.0454  0.2082
    1W        W47573   4.956   2.807   7.985  0.0060  0.0847  0.3530
    1W        W47574   7.617  23.282   3.044 -0.0263 -0.0390  0.0975
    1W        W47575   1.432   9.682   8.739  0.2148  0.0020  0.1876
    1W        W47576   7.222   9.602   9.953 -0.1409 -0.2927  0.0723
    1W        W47577  14.503  17.829   9.767  0.2895 -0.1712 -0.1649
    1W        W47578  19.006  23.958   1.458  0.6141 -0.2013  0.0038
    1W        W47579  22.986  13.861   0.059 -0.1226 -0.1117  0.1607
    1W        W47580   3.885   2.742   4.676 -0.0269  0.0553 -0.3120
    1W        W47581   5.339  11.430   3.061 -0.0647 -0.0971  0.0550
    1W        W47582  25.931  12.008   6.667 -0.4202  0.0694  0.0135
    1W        W47583  14.277   7.294   6.418 -0.1527 -0.0676  0.1050
    1W        W47584  27.884  22.873   1.994 -0.1995  0.0061  0.1529
    1W        W47585   3.719   0.334   2.060 -0.1026  0.1431 -0.0451
    1W        W47586  28.764   3.002   3.275 -0.0936  0.1517 -0.1556
    1W        W47587  25.349  23.850   2.330  0.1570  0.0003 -0.0996
    1W        W47588  15.863  28.256   1.896  0.3154 -0.0179  0.2584
    1W        W47589  13.315  28.137   9.780 -0.0951  0.0789  0.0035
    1W        W47590  18.060  23.893   2.352  0.2928  0.1464 -0.0811
    1W        W47591  25.520   0.263   3.397  0.0960 -0.2092  0.0521
    1W        W47592   7.405   0.246   1.419  0.0377  0.2720 -0.0814
    1W        W47593  12.686  18.369   2.465 -0.1470  0.1860  0.1640
    1W        W47594   7.478   7.221   9.091  0.0413 -0.1531 -0.0434
    1W        W47595  16.215   6.523   6.901 -0.0855 -0.0103 -0.1806
    1W        W47596  13.519  12.724   8.531 -0.1793  0.0096 -0.2123
    1W        W47597  11.554   7.633   7.544  0.2283 -0.2411 -0.1014
    1W        W47598  23.953   1.685   8.408 -0.1077  0.0834 -0.2836
    1W        W47599   8.147   0.254   8.327  0.2690 -0.1688  0.5290
    1W        W47600   1.399  27.799   7.963 -0.1210 -0.0600  0.2488
    1W        W47601  25.465   1.968   0.913 -0.1351  0.0110 -0.3775
    1W        W47602   2.949  14.842   0.209  0.0346  0.0915  0.0264
    1W        W47603  10.320  21.225   9.792 -0.1106 -0.0571  0.0312
    1W        W47604  19.699  15.487   8.061 -0.0576 -0.2245 -0.0484
    1W        W47605  28.257   8.138   7.569  0.1252 -0.0446 -0.0233
    1W        W47606  16.896  21.102   1.573 -0.0369  0.3771 -0.3344
    1W        W47607  21.864   5.699   1.552  0.0752  0.1146  0.1401
    1W        W47608  18.210  20.529   2.937  0.1031 -0.0423  0.1709
    1W        W47609   7.137  10.215   0.613  0.2494 -0.3048  0.1472
    1W        W47610  18.200   5.624   8.979  0.1251  0.1026  0.1261
    1W        W47611  28.159  19.983   8.578 -0.0331 -0.1062 -0.2682
    1W        W47612   2.057  17.608   0.825 -0.3345 -0.1102 -0.0389
    1W        W47613   0.113  11.142   7.749  0.2661 -0.0173 -0.2000
    1W        W47614  11.834  13.882   1.050 -0.2304 -0.3021 -0.1880
    1W        W47615  28.695  19.947   2.349  0.1215  0.0987  0.0021
    1W        W47616  16.885  26.653   1.475  0.2777 -0.0374 -0.0620
    1W        W47617  17.635  10.036   6.820  0.0508  0.4062 -0.1772
    1W        W47618   1.456  28.535   3.667 -0.0630  0.3171 -0.1063
    1W        W47619  16.995   3.137   7.497 -0.0910  0.1456 -0.1432
    1W        W47620  18.056   0.931   0.758 -0.1433  0.1132  0.3588
    1W        W47621  22.001  28.385   1.431 -0.1744 -0.0714  0.1599
    1W        W47622   3.690   7.931   2.723 -0.1105  0.0391 -0.2177
    1W        W47623  17.824   2.953   8.946  0.0496 -0.1576  0.1313
    1W        W47624  17.736   3.918   0.789  0.1206  0.1405 -0.0534
    1W        W47625   1.742   1.208   1.162 -0.0347 -0.0509  0.1214
    1W        W47626  10.309   2.840   8.552 -0.1613 -0.2709 -0.0387
    1W        W47627  26.397  10.795   7.963 -0.0219  0.0498  0.3426
    1W        W47628  20.005   9.466   5.859 -0.1839  0.2467 -0.2461
    1W        W47629  25.671  25.645   3.354 -0.1026  0.0863 -0.0176
    1W        W47630   8.658  10.438   2.035  0.2274 -0.0043  0.2130
    1W        W47631   9.305   5.386   1.553 -0.0320  0.1202  0.2351
    1W        W47632  21.660  19.387   6.489  0.0100 -0.0784  0.1448
    1W        W47633  18.871  11.186   8.002 -0.0095 -0.0037  0.0998
    1W        W47634  22.060  15.970   6.983  0.1180  0.3661 -0.0973
    1W        W47635  17.023   5.356   8.316  0.0854  0.1962 -0.2602
    1W        W47636  23.891   9.336   2.164 -0.0506  0.0240  0.0945
    1W        W47637  15.204  23.673   8.821  0.0970  0.1560 -0.2400
    1W        W47638  26.037  15.022   9.252 -0.2174  0.1287 -0.0247
    1W        W47639  20.549  15.006   1.191 -0.1038  0.0344  0.1886
    1W        W47640  14.945  26.120   2.406  0.0563  0.0746  0.0037
    1W        W47641   4.400  26.000   9.633  0.3185 -0.2008  0.0594
    1W        W47642  16.639  18.353   9.610  0.1582  0.3371 -0.1915
    1W        W47643   4.108   0.748   8.686  0.0813  0.3920 -0.0754
    1W        W47644  21.687  12.609   8.899  0.0366  0.0674  0.0113
    1W        W47645  23.244  19.572   0.809 -0.1541  0.0931  0.0680
    1W        W47646  23.034  27.766   1.791 -0.0938  0.1612 -0.3813
    1W        W47647   0.684  12.036   3.291 -0.2034  0.0706 -0.1308
    1W        W47648  26.974  12.084   8.457 -0.1534  0.1301  0.1224
    1W        W47649  18.433  17.835   1.817 -0.2098 -0.1486  0.0803
    1W        W47650   5.246  16.896   9.340 -0.0255 -0.0293 -0.0115
    1W        W47651  14.841   6.587   0.770 -0.1395  0.2556  0.0739
    1W        W47652   7.341  22.687   8.874 -0.0734  0.0797 -0.1667
    1W        W47653  12.729  20.809   6.911  0.1713 -0.0747 -0.3993
    1W        W47654  24.943  28.776   0.878  0.2077 -0.3582 -0.0849
    1W        W47655   7.463  26.297   2.479 -0.1995 -0.0594  0.2325
    1W        W47656   3.175  26.353   0.639 -0.1037 -0.0226  0.0540
    1W        W47657  16.594   1.962   8.830 -0.1439  0.0106  0.1227
    1W        W47658   9.190   3.667   0.431  0.2316  0.1099  0.1279
    1W        W47659  13.019  19.778   9.611  0.0469  0.1508 -0.1577
    1W        W47660  13.109  10.774   2.083 -0.1456 -0.0802  0.1146
    1W        W47661  27.760  10.076   0.960  0.2944 -0.1598  0.1341
    1W        W47662   1.658   9.346   1.215 -0.0853  0.2641 -0.1110
    1W        W47663   9.106  22.501   8.978  0.0888  0.3335  0.3616
    1W        W47664   2.016  22.059   1.085 -0.1432  0.4952 -0.1985
    1W        W47665   7.757  12.262   7.914  0.0318 -0.0701 -0.2548
    1W        W47666  21.764   4.489   1.803  0.2870  0.0042  0.6631
    1W        W47667   4.556   6.522   9.206 -0.0340 -0.2662  0.0677
    1W        W47668   6.124  14.333   1.811 -0.1141  0.0395 -0.0053
    1W        W47669  10.670  13.583   6.184 -0.5118  0.2966 -0.2837
    1W        W47670   9.619  23.330   6.727 -0.2765  0.0662 -0.0077
    1W        W47671   8.189  18.747   8.519  0.0281 -0.3839  0.0261
    1W        W47672  25.918   9.066   7.383  0.3971 -0.1141 -0.0239
    1W        W47673  19.856   4.787   1.584 -0.0699  0.0148  0.0551
    1W        W47674  12.797   4.455   9.361 -0.0228 -0.0558  0.5682
    1W        W47675  18.675   3.724   7.564 -0.4516  0.3062  0.0529
    1W        W47676  28.366  23.833   9.029 -0.0120  0.0132  0.0789
    1W        W47677  21.192   6.519   8.990 -0.0161  0.0380  0.0616
    1W        W47678  27.588  12.570   2.656 -0.1397 -0.0066 -0.2100
    1W        W47679   7.145  24.567   1.864 -0.2460  0.2530  0.0294
    1W        W47680  27.264   5.395   1.194 -0.0656 -0.0617  0.0594
    1W        W47681   3.034   2.476   2.313 -0.0650  0.0514  0.2158
    1W        W47682   0.340  23.886   1.231  0.0220  0.0935  0.1301
    1W        W47683  22.499  13.937   9.005  0.0356 -0.0790 -0.0673
    1W        W47684   1.863  25.912   8.051 -0.2820 -0.2223  0.0909
    1W        W47685  14.086  10.487   1.747 -0.0330  0.0254  0.3533
    1W        W47686   5.317  26.060   2.485  0.3688  0.1179 -0.2898
    1W        W47687   8.775   8.024   7.123 -0.4874 -0.0146  0.1398
    1W        W47688  26.084  22.551   9.720  0.0092  0.0254 -0.4120
    1W        W47689  17.248   9.344   8.644 -0.2571 -0.1562 -0.2627
    1W        W47690   4.215   6.114   1.022  0.3502 -0.2386 -0.0801
    1W        W47691  23.281  19.831   1.723 -0.0074  0.0888 -0.0162
    1W        W47692   8.800  12.966   8.722 -0.3413 -0.1220 -0.1348
    1W        W47693   5.974   2.302   2.270  0.0797  0.1993  0.3058
    1W        W47694  16.964  11.233   1.214  0.2383 -0.0844 -0.0640
    1W        W47695  10.445  22.090   8.656 -0.0545  0.0321 -0.0630
    1W        W47696   5.562  24.948   3.123  0.0571 -0.1825 -0.0210
    1W        W47697  14.921   3.697   9.425 -0.0706 -0.2098  0.0815
    1W        W47698  23.704  27.182   1.430  0.1765  0.0489 -0.3375
    1W        W47699  13.313   4.867   0.105 -0.0696 -0.0133  0.1853
    1W        W47700  25.018  12.967   1.501 -0.0619  0.1170  0.2987
    1W        W47701  17.597  18.450   7.526  0.2427  0.1422  0.3544
    1W        W47702   8.087  18.663   7.629 -0.1040  0.0617  0.3333
    1W        W47703   3.138   4.842   0.665 -0.3537 -0.3437  0.1911
    1W        W47704  16.240  16.830   7.447 -0.2519  0.1175  0.0198
    1W        W47705  18.194  21.430   6.794  0.3351  0.1093 -0.0903
    1W        W47706  21.244  26.712   7.627  0.2894  0.2914  0.1708
    1W        W47707  12.969   1.867   6.902  0.0662  0.2062 -0.1148
    1W        W47708   1.870  23.222   0.883 -0.0985 -0.1693  0.1773
    1W        W47709  18.972  15.902   1.056  0.3041  0.2090  0.0886
    1W        W47710  19.164  23.561   2.513  0.1227  0.0393  0.1392
    1W        W47711   5.226  28.284   0.277  0.0827  0.0765  0.0594
    1W        W47712  22.410   8.600   8.414  0.2763 -0.1195  0.0557
    1W        W47713  23.730  11.865   1.299 -0.1211 -0.1193 -0.2555
    1W        W47714  26.378  26.388   8.396 -0.0896 -0.1632  0.0959
    1W        W47715  20.683  14.516   8.039 -0.0631 -0.0656 -0.1285
    1W        W47716   3.703  20.897   2.551  0.1078  0.0280 -0.1369
    1W        W47717  24.704  23.581   9.606 -0.2582 -0.0698 -0.1396
    1W        W47718  10.545  21.231   1.230  0.3192 -0.0870 -0.0334
    1W        W47719  17.398  22.713   1.593  0.0428  0.1474 -0.3230
    1W        W47720  27.753   9.942   7.090 -0.2445  0.1700  0.2857
    1W        W47721  15.362  18.551   0.292 -0.2499 -0.1223  0.2685
    1W        W47722  14.453  24.912   9.380  0.0283 -0.0079  0.0240
    1W        W47723   8.388  26.009   7.238 -0.2694  0.0241 -0.2483
    1W        W47724  23.575  27.322   0.978  0.2004  0.0903  0.1806
    1W        W47725   5.118  23.887   0.919 -0.3529 -0.0833 -0.0408
    1W        W47726   6.911   2.672   3.454  0.0609  0.3847 -0.0494
    1W        W47727  19.834  16.430   8.527  0.0180  0.1216  0.3243
    1W        W47728   1.142   6.519   1.436  0.0281 -0.0061 -0.0907
    1W        W47729   7.879  11.769   8.772 -0.0126  0.0175  0.0283
    1W        W47730  23.310  12.798   2.587 -0.1130 -0.0630  0.3201
    1W        W47731  10.685   5.865   1.599  0.3124  0.0049 -0.0193
    1W        W47732  13.524  28.372   0.245  0.1842  0.3517 -0.3167
    1W        W47733   8.289  24.879   3.045 -0.0561  0.0646 -0.0846
    1W        W47734  21.878   4.994   2.133  0.2380  0.0784 -0.0728
    1W        W47735   4.161  22.570   1.685 -0.1335  0.2901 -0.2267
    1W        W47736  26.847  27.596   9.355  0.1011  0.0706 -0.1550
    1W        W47737  21.063  20.601   7.950 -0.0166 -0.0445 -0.1569
    1W        W47738  17.575  12.702   0.175  0.1038  0.0964 -0.0380
    1W        W47739   0.291  10.660   7.680 -0.1671 -0.2939 -0.0959
    1W        W47740  17.148  26.095   9.831  0.0930 -0.0193 -0.2747
    1W        W47741  18.435  23.622   0.848  0.0916  0.3551  0.0837
    1W        W47742  10.169  26.335   8.648 -0.2896  0.2429  0.0212
    1W        W47743  10.386  25.076   0.984  0.0905 -0.1334  0.0592
    1W        W47744  19.387   0.244   1.637 -0.1811  0.2597  0.1355
    1W        W47745  22.264   0.498   8.003  0.2894  0.0561  0.0529
    1W        W47746  15.477   4.763   2.072 -0.1008 -0.2265  0.0078
    1W        W47747  23.786   2.875   7.754 -0.2563  0.0132  0.2863
    1W        W47748  13.888   1.728   0.448  0.0222  0.0141  0.0329
    1W        W47749  12.676   6.731   9.435 -0.3097 -0.2900  0.3610
    1W        W47750  22.448  22.189   9.331  0.0491 -0.3009 -0.1572
    1W        W47751   5.524   8.500   8.156 -0.5525  0.0394  0.2362
    1W        W47752  16.424   1.430   9.640  0.1017 -0.3053  0.0816
    1W        W47753  13.591  16.793   8.157 -0.2325 -0.1059  0.0126
    1W        W47754  20.869   2.532   8.427  0.1869 -0.1324 -0.3043
    1W        W47755  28.352  28.125   2.022 -0.1569  0.2439  0.0555
    1W        W47756  18.781  27.777   8.593  0.0792  0.0015  0.1991
    1W        W47757  13.521   3.253   1.435  0.0329 -0.0279 -0.0224
    1W        W47758   3.486  27.534   2.411  0.3647 -0.0703  0.0099
    1W        W47759  11.514  27.094   8.216  0.0391 -0.0122  0.2850
    1W        W47760  19.331  17.719   8.437 -0.0999  0.2937 -0.3612
    1W        W47761   2.403  28.463   7.475  0.1064  0.2997  0.0982
    1W        W47762  18.893  16.269   1.511  0.0164  0.0445  0.2192
    1W        W47763   4.154  10.299   1.114  0.0118  0.2055 -0.0105
    1W        W47764  19.866  18.628   9.198  0.0590 -0.0724  0.1050
    1W        W47765   0.744  20.791   0.966 -0.1144  0.2110 -0.1220
    1W        W47766  19.230  11.480   0.035 -0.1141  0.0672  0.0811
    1W        W47767  26.339  21.490   3.400  0.1236 -0.0159  0.2680
    1W        W47768  25.333  12.527   7.976 -0.0451 -0.3702  0.1103
    1W        W47769   6.885   1.007   8.315 -0.1127  0.2114  0.0464
    1W        W47770   5.829  20.122   9.621 -0.0575 -0.3269 -0.0873
    1W        W47771  12.605  21.651   8.601 -0.0311  0.0862 -0.1714
    1W        W47772  21.328  21.186   0.638  0.1494 -0.0221  0.2230
    1W        W47773  28.876  15.972   3.949 -0.0471 -0.2009 -0.1895
    1W        W47774  19.948  21.332   8.447  0.2594 -0.0136  0.2881
    1W        W47775  20.707  15.035   9.272 -0.0434  0.0496 -0.0417
    1W        W47776  26.724  26.572   0.345  0.3476 -0.0466  0.3156
    1W        W47777  14.708  15.955   0.314  0.0727 -0.0154  0.1719
    1W        W47778   1.532   1.976   2.318  0.3652 -0.1196 -0.0640
    1W        W47779   0.459  16.479   8.234 -0.2904 -0.2205 -0.0082
    1W        W47780   1.199  10.629   1.055 -0.0501 -0.0654 -0.1418
    1W        W47781  14.505  17.322   1.101 -0.0390 -0.0293 -0.1441
    1W        W47782  17.277  26.114   9.037  0.1501 -0.2500 -0.1471
    1W        W47783  19.452  14.031   8.425  0.0707 -0.4358  0.2941
    1W        W47784  18.051  25.545   9.908 -0.1969 -0.0385  0.1159
    1W        W47785  17.489  18.893   0.161 -0.3013  0.0196  0.1207
    1W        W47786  17.634  22.662   8.860  0.1909 -0.1251 -0.1265
    1W        W47787  18.329  12.738   9.483 -0.1790 -0.0884  0.3042
    1W        W47788  15.803  13.319   2.030  0.0821 -0.2218  0.1682
    1W        W47789  16.857   8.842   6.394 -0.0098 -0.3185  0.2070
    1W        W47790  14.046  16.676   0.032  0.0913  0.0263 -0.2422
    1W        W47791   8.249   5.792   9.646 -0.1451  0.0134  0.2116
    1W        W47792   6.275   2.145   3.843  0.1163 -0.2532 -0.1723
    1W        W47793  10.463  28.642   7.980  0.2929  0.1723 -0.1621
    1W        W47794  12.323   0.388   7.539  0.0195  0.0356  0.0369
    1W        W47795  15.604  24.879   8.998 -0.1734 -0.1065 -0.1319
    1W        W47796   5.849  13.238   6.791  0.0090 -0.0778  0.0266
    1W        W47797  21.328  20.031   1.474 -0.1228  0.0407  0.1943
    1W        W47798  28.140   5.160   0.512 -0.0284  0.1018  0.1700
    1W        W47799  28.009  14.436   9.000 -0.0537 -0.3107  0.2163
    1W        W47800   4.700  11.982   7.112 -0.0571  0.1241  0.0323
    1W        W47801  25.474   5.399   8.232  0.1215  0.0748 -0.0851
    1W        W47802   3.169   6.538   8.846 -0.2255 -0.3716 -0.1578
    1W        W47803  10.645  15.172   8.753 -0.2033 -0.2305 -0.0504
    1W        W47804   0.514  22.835   0.375 -0.4276  0.3344 -0.1120
    1W        W47805  12.375   5.297   9.128 -0.2315  0.0826  0.0255
    1W        W47806  25.812  28.326   8.297 -0.3017  0.0575 -0.0180
    1W        W47807   1.306   7.629   0.165  0.2818 -0.2487 -0.0738
    1W        W47808  27.457   5.098   9.879 -0.2345 -0.0869  0.0237
    1W        W47809   5.882   4.580   7.694 -0.2537 -0.0874  0.2503
    1W        W47810  24.689  13.484   3.420  0.5583 -0.1384 -0.0302
    1W        W47811   5.801  23.994   7.916  0.1538 -0.1914 -0.1861
    1W        W47812  18.402  11.253   1.721  0.1091 -0.0963  0.0809
    1W        W47813  14.090  17.367   1.365  0.0805 -0.1116 -0.2469
    1W        W47814  23.036  13.880   8.024 -0.1558  0.1225 -0.1664
    1W        W47815   2.815   8.646   9.628  0.1138 -0.1452 -0.0204
    1W        W47816  24.941  15.688   1.484  0.4807  0.2159  0.1383
    1W        W47817   9.048   1.986   8.306 -0.0678  0.0461  0.2515
    1W        W47818   8.982  14.849   9.847 -0.1787  0.0738  0.0793
    1W        W47819  12.247   4.883   1.289  0.1856 -0.2168  0.0555
    1W        W47820  28.178   3.699   2.720 -0.2021 -0.3555 -0.0887
    1W        W47821   6.194  25.310   8.705 -0.0374  0.1311 -0.0960
    1W        W47822  27.811  10.248   7.486  0.0199 -0.2564 -0.0474
    1W        W47823  16.356   6.210   8.374  0.1917 -0.2490  0.1019
    1W        W47824  18.649  28.604   9.637 -0.1238  0.0293  0.1008
    1W        W47825  18.220   1.190   1.865 -0.1753 -0.3556  0.1699
    1W        W47826  21.775  20.245   0.430 -0.3359  0.0647  0.1316
    1W        W47827  26.415   0.756   1.695  0.0988 -0.1095  0.0323
    1W        W47828   7.004   3.709   8.022  0.3219  0.1561 -0.0883
    1W        W47829  18.193  12.245   8.566 -0.0251 -0.2500  0.0772
    1W        W47830   1.504  19.100   0.530  0.3615 -0.0599 -0.0794
    1W        W47831  21.186   6.915   1.038 -0.0858  0.1270  0.1820
    1W        W47832  23.257   5.245   2.060 -0.0020 -0.0326 -0.1574
    1W        W47833  17.607  10.738   8.234 -0.1048  0.3243 -0.1570
    1W        W47834   8.228  28.139   1.395 -0.1910  0.0082 -0.0076
    1W        W47835  19.358  14.340   7.907 -0.0980 -0.2742 -0.1399
    1W        W47836   6.755  24.086   7.384 -0.0417 -0.2437  0.4708
    1W        W47837  26.895  22.692   0.244  0.0587  0.0936 -0.0438
    1W        W47838  22.960  18.777   9.843 -0.0297  0.0621 -0.1497
    1W        W47839   7.747   6.858   8.508  0.2068 -0.0583 -0.1337
    1W        W47840  13.774   4.022   6.299  0.2750 -0.0886 -0.0195
    1W        W47841   0.963  14.224   2.876  0.2065 -0.1076  0.1682
    1W        W47842  11.036  16.151   0.859 -0.3450  0.0260  0.0906
    1W        W47843  19.317  24.726   0.158  0.0262  0.1239 -0.0350
    1W        W47844   5.141  26.543   1.668 -0.0204 -0.1754 -0.0247
    1W        W47845  10.583   8.106   6.533 -0.0682  0.2728  0.1700
    1W        W47846  20.373   4.327   9.330  0.0563  0.1885  0.1479
    1W        W47847  20.391  14.452   6.597  0.4448 -0.1266  0.0696
    1W        W47848   0.974  13.727   1.139 -0.3268  0.3129 -0.1544
    1W        W47849  11.682  12.883   9.492 -0.2298 -0.2372 -0.2686
    1W        W47850  12.011  27.705   7.041  0.1296 -0.0585 -0.1945
    1W        W47851  18.230   5.795   6.694 -0.2645 -0.1390  0.1569
    1W        W47852  26.957   4.193   1.037 -0.2322  0.1983 -0.2422
    1W        W47853  14.711  21.870   8.163 -0.0197  0.0352 -0.1187
    1W        W47854  24.582   1.352   2.988  0.0495 -0.3096 -0.0949
    1W        W47855  14.867  16.128   7.827 -0.2135 -0.1193  0.2445
    1W        W47856   0.039  19.829   2.742  0.0751 -0.4267  0.1231
    1W        W47857  27.447  17.078   2.763  0.1370 -0.2420  0.0969
    1W        W47858  19.944   1.507   9.056  0.0385 -0.1017  0.1223
    1W        W47859   3.423  24.340   0.264 -0.1878  0.1050  0.1303
    1W        W47860  11.996  28.814   2.397  0.2134 -0.1327 -0.0006
    1W        W47861  10.484  26.069   2.232 -0.1660  0.0193  0.1263
    1W        W47862  19.243   5.174   7.722 -0.0364  0.0114 -0.1269
    1W        W47863   5.804   9.584   0.374  0.2264  0.0058 -0.2276
    1W        W47864   0.566  14.527   9.920  0.0263  0.0525 -0.1634
    1W        W47865  19.141  22.812   7.785 -0.2150 -0.0110 -0.0540
    1W        W47866  18.269   6.172   8.044  0.1476  0.2363  0.2274
    1W        W47867  10.671   8.897   0.227 -0.2015 -0.2031  0.2290
    1W        W47868   8.758   2.431   0.963 -0.0454  0.2952 -0.2070
    1W        W47869  11.123  20.505   7.229 -0.2315  0.0133  0.2039
    1W        W47870  24.630   7.180   1.048 -0.0540 -0.1761 -0.3199
    1W        W47871   4.388   2.649   1.204 -0.1281 -0.1893  0.0940
    1W        W47872   6.979  21.843   7.260 -0.0050  0.1958  0.0815
    1W        W47873  28.143  24.190   2.322 -0.3607  0.0582 -0.0143
    1W        W47874  28.619  26.716   0.642  0.2433  0.1146 -0.0269
    1W        W47875   9.230  12.647   9.379  0.0268  0.0327 -0.0909
    1W        W47876  20.026   2.797   0.556 -0.2438 -0.1486 -0.1699
    1W        W47877   1.065  18.433   0.014 -0.0819  0.1880 -0.3062
    1W        W47878  21.630   4.226   9.104  0.0912 -0.3060  0.3755
    1W        W47879  23.482  18.521   7.189 -0.2115 -0.3446 -0.1339
    1W        W47880  26.956   8.833   2.057  0.3374  0.1172  0.0420
    1W        W47881  10.662   2.028   0.087 -0.0741 -0.0789  0.2727
    1W        W47882  16.463   5.975   0.132 -0.0267 -0.1822 -0.3012
    1W        W47883  20.006   9.604   6.339  0.2147  0.4251  0.0461
    1W        W47884  12.821   7.851   9.872 -0.2199 -0.3028 -0.1440
    1W        W47885  20.559  19.775   6.990  0.0977  0.3002 -0.2382
    1W        W47886  12.199  28.246   1.311 -0.1478 -0.2688 -0.1383
    1W        W47887  19.265  28.074   0.415 -0.2283 -0.0405  0.3250
    1W        W47888   9.536  28.399   2.266  0.1086 -0.1305  0.1020
    1W        W47889  19.553   8.390   9.089 -0.0827  0.0205  0.0458
    1W        W47890  25.273   0.984   9.151 -0.0064 -0.0614 -0.0386
    1W        W47891   0.853  19.905   8.895  0.1839 -0.0102  0.2860
    1W        W47892  14.641   8.761   0.884 -0.0240 -0.1573 -0.3421
    1W        W47893  19.417  11.543   6.402 -0.1023 -0.1282 -0.1716
    1W        W47894   5.156  27.452   1.257 -0.2128 -0.0367 -0.2969
    1W        W47895   1.576  17.799   9.601  0.1383 -0.0087 -0.0304
    1W        W47896  16.392   6.846   0.373  0.0473 -0.2953  0.1720
    1W        W47897  26.645   4.960   8.764  0.1353  0.0354  0.0856
    1W        W47898   1.231   3.082   3.423 -0.5106  0.2717 -0.1324
    1W        W47899   3.594  26.997   9.965 -0.1208 -0.0365  0.1046
    1W        W47900  17.968  12.776   8.468 -0.0037  0.0969  0.2316
    1W        W47901  28.770  11.810   9.511  0.1108  0.3235 -0.0070
    1W        W47902   2.467   6.832   3.297  0.0748 -0.1330  0.0243
    1W        W47903  25.272  28.699   2.056  0.0117 -0.2091 -0.3305
    1W        W47904   9.348   2.389   8.420 -0.0720 -0.4470  0.2343
    1W        W47905   6.453  26.531   9.358  0.2913 -0.1156 -0.0146
    1W        W47906  28.151   0.145   9.657  0.5861  0.0310  0.1471
    1W        W47907   2.859  26.218   7.483  0.2654 -0.1137 -0.3469
    1W        W47908  17.008   1.123   6.284  0.1836  0.2688 -0.2562
    1W        W47909  28.014  18.546   1.846  0.0533  0.0358 -0.1323
    1W        W47910  20.235  24.345   1.946  0.1120 -0.1181 -0.1499
    1W        W47911   7.347   5.810   0.102 -0.0749  0.2108  0.0313
    1W        W47912   7.196  23.442   9.795  0.1192  0.2270 -0.0370
    1W        W47913  18.048   1.087   6.431  0.2461 -0.1405  0.0713
    1W        W47914  10.531   1.853   7.873  0.2291  0.2539  0.1240
    1W        W47915  12.652  25.264   0.010 -0.0004  0.3639  0.1065
    1W        W47916  13.942  23.083   0.545 -0.0510 -0.1398  0.1194
    1W        W47917   7.858   3.490   1.655 -0.0651 -0.1645  0.2816
    1W        W47918  24.828  17.475   7.900  0.0261  0.0702 -0.0587
    1W        W47919  28.046  10.119   2.416 -0.1519  0.0631 -0.1609
    1W        W47920  26.962   6.464   2.422  0.4127  0.1739 -0.0728
    1W        W47921  10.515  14.484   7.359 -0.0778 -0.1132  0.1384
    1W        W47922   0.167  26.027   1.279 -0.0242 -0.0951 -0.1094
    1W        W47923   4.927   2.616   1.049 -0.1705  0.1472 -0.0473
    1W        W47924  11.330  14.650   0.521 -0.1649 -0.0246 -0.2818
    1W        W47925  21.387  13.973   8.017 -0.0225 -0.0958  0.0716
    1W        W47926  16.203   1.269   2.216  0.1009 -0.0677 -0.2880
    1W        W47927  21.107  11.263   9.325 -0.0390 -0.2009  0.0929
    1W        W47928   1.147  15.946   0.484 -0.0241 -0.2019 -0.1375
    1W        W47929  17.995  21.001   0.436 -0.0305  0.3664  0.0367
    1W        W47930  14.195   5.011   7.435  0.2851 -0.0198  0.7088
    1W        W47931  27.474  20.541   3.361 -0.1102  0.2342 -0.0711
    1W        W47932   9.024  18.760   9.048  0.0391 -0.0839 -0.1370
    1W        W47933  26.254  22.031   3.267  0.0169 -0.1739  0.2576
    1W        W47934  18.522  11.842   9.956  0.0353  0.0688  0.0742
    1W        W47935  23.041  26.756   8.455 -0.0341 -0.0700 -0.2223
    1W        W47936  11.137  16.994   1.795 -0.0256 -0.0609 -0.1290
    1W        W47937  16.835  15.051   0.387 -0.1553  0.1245  0.1089
    1W        W47938  24.227   9.573   7.157 -0.2267 -0.2153  0.1388
    1W        W47939  28.020   9.272   9.025 -0.0138 -0.0135 -0.2377
    1W        W47940  28.728  13.932   2.101 -0.0006 -0.2577 -0.2690
    1W        W47941  23.227  20.906   7.063 -0.0619  0.0607  0.2005
    1W        W47942   0.768   3.566   1.261  0.0591 -0.1157  0.1035
    1W        W47943  11.149  16.025   7.444  0.3106  0.0073  0.3858
    1W        W47944  26.396  11.756   7.874  0.0029  0.0180  0.2471
    1W        W47945   3.522  16.489   8.520 -0.2076  0.1202  0.1057
    1W        W47946  11.655   6.379   8.525  0.2437 -0.0378  0.2883
    1W        W47947   6.777   9.371   7.891  0.2299  0.0889  0.1714
    1W        W47948  28.161   0.035   9.123  0.0848  0.2288  0.2036
    1W        W47949  14.919  26.858   7.285 -0.2690  0.0503 -0.1418
    1W        W47950  25.594   9.420   0.095  0.0574  0.1989 -0.0735
    1W        W47951   2.801  11.901   0.020 -0.1905 -0.1165 -0.0872
    1W        W47952   5.050  19.908   9.775  0.4367 -0.1275 -0.1142
    1W        W47953  25.824  12.236   1.962  0.1656  0.0578 -0.1801
    1W        W47954  25.567  11.291   0.325 -0.1829 -0.3492 -0.1146
    1W        W47955   3.840  14.726   1.038  0.0100 -0.4842 -0.3960
    1W        W47956  27.881   8.719   2.595 -0.0504  0.1060 -0.0692
    1W        W47957  23.487   7.511   9.798  0.0380 -0.1632  0.3609
    1W        W47958  21.974   3.754   6.847 -0.0257  0.1199 -0.0880
    1W        W47959  10.392  14.972   1.450  0.0855  0.1990  0.0375
    1W        W47960  21.801   3.264   2.063 -0.1957 -0.0362 -0.1469
    1W        W47961  27.043   3.534   8.743 -0.2854  0.0236 -0.0312
    1W        W47962  12.651  19.519   6.634  0.1344  0.3143  0.2422
    1W        W47963   4.851  11.649   9.231  0.2622 -0.1726 -0.4163
    1W        W47964  17.279   9.099   6.747 -0.0985 -0.0524 -0.1329
    1W        W47965  16.849  15.924   9.091 -0.2683 -0.0823  0.4746
    1W        W47966  18.216  20.930   6.025  0.1174 -0.1494 -0.0567
    1W        W47967   1.890  25.148   9.560 -0.1825 -0.1618 -0.1745
    1W        W47968  25.792   5.406   8.957 -0.1329  0.2442  0.2423
    1W        W47969  16.406  27.618   2.441  0.3121  0.1069 -0.1143
    1W        W47970  11.230  17.332   7.623  0.1058  0.0217  0.0421
    1W        W47971   2.904  21.170   1.286 -0.0230  0.0604  0.3122
    1W        W47972   4.664  11.416   0.245 -0.3229 -0.1313 -0.2058
    1W        W47973   4.221   8.734   0.375  0.0366 -0.1488 -0.0259
    1W        W47974  10.403  20.150   8.812  0.0057 -0.3714 -0.2750
    1W        W47975  17.643   0.812   0.354  0.1064  0.1296 -0.0449
    1W        W47976  26.583  16.135   0.162 -0.0433  0.0566  0.1874
    1W        W47977  14.339  17.678   9.298 -0.0558 -0.0583 -0.4138
    1W        W47978   9.977  27.686   7.837 -0.0684  0.0516 -0.0886
    1W        W47979   2.735  14.162   0.927  0.0721 -0.2086  0.0256
    1W        W47980   1.006  12.968   2.539  0.1162  0.2122 -0.0556
    1W        W47981  21.145   5.531   8.192  0.2312  0.1627 -0.0769
    1W        W47982   0.380   2.766   2.586 -0.0761 -0.0691 -0.2212
    1W        W47983  19.060  23.659   7.327  0.1046  0.2189  0.0200
    1W        W47984  20.049   7.057   7.641 -0.1871  0.2722 -0.3403
    1W        W47985   4.789   9.168   9.671 -0.1372  0.2977 -0.0864
    1W        W47986  10.899   5.495   1.973 -0.0818 -0.0501  0.0664
    1W        W47987  24.354  19.880   6.586 -0.1353  0.0702  0.1627
    1W        W47988   8.480   4.350   1.118  0.1884 -0.1823  0.0017
    1W        W47989  12.711  21.037   8.045  0.0605 -0.1376 -0.1086
    1W        W47990  16.305   1.139   1.711 -0.1743 -0.0650 -0.0103
    1W        W47991  19.728  28.338   7.042  0.3621 -0.2568 -0.0597
    1W        W47992  23.200  27.552   9.805 -0.1053  0.1281  0.0768
    1W        W47993  23.393  14.182   2.068  0.0455  0.2424  0.2142
    1W        W47994  10.139  20.336   2.479 -0.3786 -0.2818 -0.0358
    1W        W47995  21.571  16.170   1.610  0.3194 -0.2287  0.1600
    1W        W47996   4.595  20.055   0.018 -0.0758 -0.2111 -0.0787
    1W        W47997  14.557  15.414   9.494  0.0490  0.0579  0.2946
    1W        W47998  13.658  19.271   3.057  0.0547 -0.1101 -0.2019
    1W        W47999  19.240   2.882   7.974  0.0022 -0.0762  0.0359
    1W        W48000  21.046  23.029   8.267  0.1719 -0.2063 -0.0841
    1W        W48001   5.729   1.976   9.997  0.1739  0.1250 -0.0267
    1W        W48002  26.997   8.779   7.973  0.0724 -0.0053  0.0346
    1W        W48003  21.752   6.768   6.909 -0.0290  0.2345 -0.3648
    1W        W48004   0.579   6.845   1.227  0.2737  0.1340  0.3963
    1W        W48005   6.061   6.904   8.626 -0.2212  0.0698  0.1608
    1W        W48006   7.433  11.838   7.448 -0.2652 -0.0190 -0.0981
    1W        W48007   7.939  12.799   9.759 -0.0883  0.4361 -0.2744
    1W        W48008  22.775   3.631   0.070  0.1448 -0.0717 -0.0036
    1W        W48009  18.909   9.092   1.682 -0.1915  0.1204  0.2624
    1W        W48010  24.753   8.831   7.362 -0.0770 -0.3209 -0.0312
    1W        W48011   6.794  22.584   2.261 -0.2194  0.4396  0.2940
    1W        W48012  12.851   7.410   1.154  0.3873  0.0865 -0.0007
    1W        W48013  11.368   5.552   1.064  0.0060 -0.0093  0.2513
    1W        W48014  26.343  25.386   1.590 -0.1176  0.2706 -0.2124
    1W        W48015  15.857  24.971   1.498 -0.2317  0.1150 -0.1735
    1W        W48016  19.188  21.041   0.713 -0.2368  0.3966  0.1384
    1W        W48017  15.980   5.557   6.962  0.0999 -0.0753  0.0849
    1W        W48018  20.832  28.405   6.776  0.2440  0.0437  0.2578
    1W        W48019  13.078  24.745   2.040  0.1219  0.1125  0.2451
    1W        W48020  10.006   2.598   8.060 -0.1591  0.2441 -0.0093
    1W        W48021  19.446  22.415   9.926 -0.1955  0.0410  0.1172
    1W        W48022   8.301  15.888   9.045 -0.0686  0.1149 -0.0266
    1W        W48023  11.709   2.264   0.315  0.2565 -0.1406  0.3049
    1W        W48024  22.826   3.593   3.116  0.0020  0.0348  0.4521
    1W        W48025   1.937  25.812   1.677  0.1841  0.1315  0.1019
    1W        W48026  13.146  11.687   6.858  0.0310 -0.0650  0.0104
    1W        W48027  16.644  14.881   2.412  0.1058  0.2314 -0.0502
    1W        W48028  20.683  19.691   6.485 -0.1200  0.0152 -0.1114
    1W        W48029  22.733  12.088   8.735  0.0308 -0.2125 -0.2159
    1W        W48030  15.142   7.977   7.176 -0.1039  0.0268  0.0120
    1W        W48031   3.846   1.383   0.831  0.1389 -0.0740  0.0799
    1W        W48032   0.393  25.120   8.966  0.0622 -0.0281 -0.2189
    1W        W48033  20.176  15.583   8.325 -0.2068  0.3076  0.1203
    1W        W48034   7.176  18.882   1.867  0.3954  0.2555 -0.0625
    1W        W48035  14.604  13.809   8.621 -0.3526  0.0130 -0.1313
    1W        W48036   7.333  21.117   9.916  0.0873  0.0001  0.0094
    1W        W48037  18.712  21.797   0.307 -0.2423 -0.0645  0.1340
    1W        W48038   0.968  22.846   1.454 -0.1648  0.2796  0.1378
    1W        W48039   2.163  11.831   9.037  0.2388 -0.0024 -0.0203
    1W        W48040   9.418  23.633   7.598 -0.1984  0.4723 -0.2882
    1W        W48041  24.916  19.103   1.477 -0.2482 -0.0702 -0.1626
    1W        W48042  17.752   6.774   8.923  0.0991  0.0508 -0.3795
    1W        W48043  19.961   6.976   6.465 -0.3756 -0.1761 -0.0065
    1W        W48044  25.767  10.184   9.496  0.1128  0.0681 -0.2180
    1W        W48045   3.767  25.618   9.669  0.0944 -0.1057 -0.1082
    1W        W48046  24.482   9.630   2.143  0.2389 -0.0541 -0.1796
    1W        W48047  17.252  19.167   1.039  0.2285  0.1039  0.0321
    1W        W48048   9.165  17.679   8.013  0.2919 -0.3595 -0.0039
    1W        W48049  24.499   5.133   2.417  0.0235  0.0869  0.2067
    1W        W48050   4.006   3.238   8.720  0.0286 -0.0652 -0.1039
    1W        W48051  25.089   7.199   8.090 -0.2525 -0.0312  0.1896
    1W        W48052  26.712  19.889   3.352  0.0848 -0.0993 -0.3189
    1W        W48053  15.317  26.609   9.918 -0.3022  0.1375 -0.0084
    1W        W48054  11.054  18.203   8.499 -0.0751 -0.1346 -0.2243
    1W        W48055  20.782  26.630   7.858 -0.0999 -0.0893 -0.0212
    1W        W48056  22.725  24.923   2.371 -0.1531 -0.1628  0.4283
    1W        W48057   2.893  21.135   0.254 -0.3459  0.0710 -0.2508
    1W        W48058   6.628  21.540   7.544  0.0062  0.0459  0.0666
    1W        W48059   2.582  21.256   2.352  0.1506  0.1865  0.1385
    1W        W48060  24.460  16.069   8.468  0.3946  0.0583 -0.1772
    1W        W48061  23.707  27.338   2.242 -0.0401  0.1619  0.0486
    1W        W48062  14.807  20.051   8.874  0.1793  0.0331  0.0318
    1W        W48063  22.015  13.097   9.284  0.1391 -0.2427 -0.1826
    1W        W48064   7.720  21.923   7.175  0.2618 -0.1051  0.0697
    1W        W48065  20.198  27.226   1.398  0.2505  0.1759  0.2619
    1W        W48066   9.169   5.918   2.208 -0.2235  0.0935 -0.2767
    1W        W48067  25.554  10.681   0.137  0.1906  0.0001  0.1770
    1W        W48068  11.629  26.041   1.652  0.1613  0.2295  0.3528
    1W        W48069  22.008   0.726   8.410 -0.1633 -0.2087 -0.1413
    1W        W48070   7.211  21.427   7.463 -0.3013  0.0599  0.0619
    1W        W48071  25.118   1.326   0.168  0.1586  0.2115  0.1699
    1W        W48072   5.243   2.672   4.790 -0.2653  0.0091  0.3242
    1W        W48073   6.407  16.268   7.103 -0.1300  0.2246  0.0891
    1W        W48074  17.130  12.520   8.364  0.1358 -0.4012  0.1286
    1W        W48075  25.045  23.051   1.357 -0.3682 -0.1099 -0.0088
    1W        W48076  18.675  13.223   9.405 -0.3217  0.2487 -0.0455
    1W        W48077  28.589  15.634   0.975 -0.2465 -0.0807 -0.0578
    1W        W48078   2.295  20.008   0.089  0.1002 -0.0016 -0.0379
    1W        W48079  14.602   4.427   1.215  0.0493 -0.0300  0.0506
    1W        W48080   7.227  11.867   6.580 -0.0333  0.1923  0.2937
    1W        W48081  12.836   1.172   7.452  0.1507 -0.0288 -0.0664
    1W        W48082  20.826  18.549   0.116  0.5310 -0.1683 -0.0640
    1W        W48083  14.087  11.940   0.459  0.1602  0.2948 -0.2481
    1W        W48084   6.284  15.413   9.040 -0.1799  0.1514 -0.2239
    1W        W48085   1.377  27.225   2.344  0.2550  0.0037 -0.0674
    1W        W48086  15.498  18.573   6.054  0.1419 -0.1623 -0.0934
    1W        W48087   6.562   2.099   2.931 -0.0105 -0.0278 -0.1596
    1W        W48088   9.063   2.501   8.023  0.0735  0.2392  0.1882
    1W        W48089   9.734  12.473   9.979 -0.1401 -0.2399  0.2143
    1W        W48090   3.932  18.727   2.329 -0.1743  0.1432 -0.1156
    1W        W48091   5.702  11.482   1.925 -0.2664 -0.0371 -0.1003
    1W        W48092   5.162  22.903   3.093  0.0155 -0.1531 -0.0487
    1W        W48093   8.570   7.235   1.388  0.0566 -0.0557 -0.0661
    1W        W48094   2.746   2.009   1.135  0.3081  0.1004 -0.0123
    1W        W48095  12.329  20.090   7.329  0.2892 -0.0228  0.6645
    1W        W48096  10.979   1.454   2.213 -0.2054 -0.1744 -0.1052
    1W        W48097   8.229  14.682   1.465 -0.1775  0.2431  0.0928
    1W        W48098  16.632  28.672   7.444 -0.3498 -0.0180 -0.1702
    1W        W48099  27.712  17.661   1.453  0.0424 -0.1136 -0.0984
    1W        W48100   5.759   1.421   9.135 -0.0874  0.2007  0.1769
    1W        W48101  26.359   4.409   3.535  0.4560  0.2605  0.3200
    1W        W48102  25.573   5.877   8.052 -0.0356 -0.0279 -0.0479
    1W        W48103   6.903  21.287   2.573  0.1787 -0.1759 -0.0849
    1W        W48104  22.734   4.016   9.546 -0.1180  0.1533 -0.2190
    1W        W48105   6.650  22.085   8.702  0.0814 -0.0305  0.0704
    1W        W48106  19.088  22.333   2.673  0.4841  0.3315  0.0122
    1W        W48107  28.079  12.401   0.864  0.1058 -0.0551  0.1667
    1W        W48108   2.327   4.869   1.603  0.0872 -0.3138 -0.0375
    1W        W48109   4.037   0.296   0.958  0.1077  0.1917  0.0569
    1W        W48110   1.797   4.668   9.772  0.1081  0.2339  0.0606
    1W        W48111   1.489   5.902   8.637 -0.2194  0.3034 -0.0801
    1W        W48112   3.167  21.136   2.156 -0.0685 -0.1609  0.2211
    1W        W48113  19.455  16.174   7.535 -0.1754 -0.0136  0.0472
    1W        W48114   2.017  14.868   7.561  0.1585  0.2321 -0.0500
    1W        W48115   6.967   2.345   0.558  0.0865 -0.1505  0.0928
    1W        W48116   2.967  11.413   9.993 -0.0583  0.0149  0.0171
    1W        W48117   5.458  25.317   0.718  0.0823 -0.1330  0.0409
    1W        W48118  23.604   9.963   1.155  0.1958 -0.1783 -0.0745
    1W        W48119   5.936  15.167   7.418 -0.2080  0.0988 -0.4710
    1W        W48120   8.854  21.533   4.078  0.0378 -0.3931 -0.0565
    1W        W48121  17.574   5.119   9.393 -0.0815 -0.1087 -0.2069
    1W        W48122  25.538  16.424   7.766  0.0004 -0.0468 -0.1982
    1W        W48123  21.809  21.895   8.562 -0.2253 -0.0437  0.1302
    1W        W48124   5.470  15.850   2.003 -0.0752  0.1720  0.2571
    1W        W48125   8.617  24.588   9.890 -0.0447  0.1940  0.0357
    1W        W48126  18.222   9.686   9.602 -0.2747  0.1709  0.3518
    1W        W48127  10.192  11.922   1.161 -0.3668  0.4074  0.1044
    1W        W48128   3.092   6.511   7.986  0.0860 -0.0380  0.0781
    1W        W48129  27.789   5.714   2.717 -0.1196 -0.2003  0.2546
    1W        W48130   0.066  28.413   9.989 -0.0592 -0.0791  0.2162
    1W        W48131   3.389  10.068   1.862  0.0177 -0.2379  0.3129
    1W        W48132  24.285  22.326   3.596  0.1062  0.0456  0.0323
    1W        W48133  15.779   6.781   5.600  0.1676  0.2056 -0.0027
    1W        W48134  17.864  28.431   0.546  0.1338 -0.4010  0.1310
    1W        W48135  18.077  11.493   7.767 -0.2785  0.1794 -0.1361
    1W        W48136  12.457   1.463   7.633  0.0459  0.1912 -0.1226
    1W        W48137   4.799   2.384   0.669  0.0803  0.1582 -0.4210
    1W        W48138  11.740   1.403   2.174 -0.1958  0.1836  0.1680
    1W        W48139  26.195  16.554   2.093 -0.0592 -0.2151 -0.2412
    1W        W48140   0.753   4.918   9.682  0.0433 -0.1125 -0.0662
    1W        W48141   9.765   5.843   9.908 -0.0436 -0.0672 -0.0046
    1W        W48142   6.157  25.248   7.671  0.3204  0.3202  0.1447
    1W        W48143  11.600   5.361   9.812 -0.0895 -0.0430 -0.0669
    1W        W48144   8.312  22.931   0.918 -0.1665 -0.0364 -0.1742
    1W        W48145  23.563   2.863   9.219  0.1238  0.0513 -0.0055
    1W        W48146   6.608  25.012   3.996 -0.2118  0.0730  0.2646
    1W        W48147  28.341  15.200   3.415 -0.2482 -0.0282 -0.1927
    1W        W48148  21.046  19.820   2.944 -0.1783 -0.1785 -0.1386
    1W        W48149  26.140  15.758   8.848  0.2248  0.0101  0.2761
    1W        W48150   4.321  19.650   3.238 -0.1275  0.0105 -0.1152
    1W        W48151  24.672   0.544   8.118 -0.0373  0.2547  0.0337
    1W        W48152   5.610  21.347   1.987  0.1341 -0.1018 -0.1124
    1W        W48153  21.177   5.076   8.570  0.2616 -0.4351 -0.1129
    1W        W48154   4.737  23.105   0.640  0.0390  0.0843  0.1515
    1W        W48155   1.169  11.522   8.195 -0.1271 -0.2009  0.1132
    1W        W48156  22.310   8.358   1.126  0.0844 -0.0246  0.1193
    1W        W48157   7.455  18.183   1.405 -0.0305  0.0190  0.1712
    1W        W48158  19.323  12.523   8.790 -0.0175 -0.1376 -0.0801
    1W        W48159   7.521  24.846   0.532  0.0609  0.1687  0.2908
    1W        W48160  27.228   6.033   9.195 -0.0799 -0.0722 -0.1508
    1W        W48161   0.581  10.106   1.213 -0.1232 -0.0821 -0.2001
    1W        W48162   3.993   6.460   0.650  0.0831 -0.0837  0.0984
    1W        W48163   3.515  23.397   9.072  0.2303 -0.0472  0.1100
    1W        W48164   5.907   2.389   2.880  0.1716 -0.1970 -0.3605
    1W        W48165  28.542   8.287   8.517 -0.0590 -0.2777 -0.1187
    1W        W48166   8.101  18.992   1.304 -0.0354  0.1191 -0.2649
    1W        W48167   9.838   0.318   9.074  0.1348  0.3815  0.0487
    1W        W48168  23.140  13.743   2.589 -0.1701 -0.3142  0.0303
    1W        W48169  14.184   0.211   0.608  0.0486  0.0063 -0.0301
    1W        W48170  18.769  23.156   9.138  0.2409 -0.1173 -0.2658
    1W        W48171  23.718  10.884   2.114 -0.3416 -0.0748  0.0388
    1W        W48172   0.180  10.831   8.721  0.2391  0.1341  0.1766
    1W        W48173   0.488   8.077   0.299  0.0980  0.0752  0.2181
    1W        W48174   7.704  23.480   1.543  0.1033 -0.0297  0.3565
    1W        W48175   4.865  24.262   3.710  0.2193  0.0066  0.1579
    1W        W48176  28.560   0.163   9.425  0.2686  0.4187 -0.0863
    1W        W48177  21.508  24.875   0.380  0.4139 -0.0808 -0.3623
    1W        W48178  11.276   0.529   2.302  0.0115  0.1528  0.1643
    1W        W48179  10.298  27.018   2.618 -0.0008 -0.2160 -0.1467
    1W        W48180  11.822  19.342   7.758 -0.0544 -0.1650  0.2688
    1W        W48181   9.759  27.032   8.699 -0.0259  0.0768 -0.5511
    1W        W48182   7.795  25.879   1.913  0.0860  0.0751 -0.1877
    1W        W48183   8.237   2.842   2.340  0.2433  0.3377 -0.2618
    1W        W48184  23.830  16.403   2.262 -0.2249  0.0630  0.1054
    1W        W48185  12.313  23.067   9.827  0.2987 -0.0339  0.1628
    1W        W48186  24.620  15.154   3.615  0.1509  0.2510 -0.0952
    1W        W48187   0.385  20.555   9.716 -0.1012 -0.2076  0.0590
    1W        W48188  13.408  27.823   9.397 -0.1832  0.0042 -0.0499
    1W        W48189   6.348   7.818   6.523 -0.0071 -0.0702  0.2379
    1W        W48190  22.546   4.832   9.119 -0.1945  0.1286 -0.0248
    1W        W48191  22.754  14.062   2.579  0.1102  0.0693 -0.0412
    1W        W48192  20.079  10.673   5.656  0.2710 -0.3429 -0.1558
    1W        W48193   2.627  22.266   0.424  0.1238  0.2193  0.1700
    1W        W48194   9.312  18.548   1.108 -0.0502  0.2643  0.0060
    1W        W48195   0.188  27.417   2.652  0.1298  0.2509 -0.2573
    1W        W48196  25.930   8.606   6.973 -0.0718 -0.1819  0.1012
    1W        W48197  15.613  20.353   8.519  0.1007 -0.0935  0.0950
    1W        W48198  13.864   9.675   9.156 -0.0687  0.4080 -0.0049
    1W        W48199  10.978  11.226   2.337  0.0535 -0.3933  0.0323
    1W        W48200   0.389  16.827   3.541  0.1880 -0.4258  0.1944
    1W        W48201  19.566  15.345   6.890 -0.1616 -0.1302  0.0479
    1W        W48202   3.728  28.269   1.047  0.0967  0.1072 -0.1375
    1W        W48203  13.703  25.778   2.157 -0.0142  0.2876 -0.0859
    1W        W48204   3.723  12.767   2.794  0.2756  0.0823 -0.1035
    1W        W48205  26.332  25.556   1.051 -0.1211 -0.0403 -0.4420
    1W        W48206   5.748  26.376   9.449 -0.0956  0.0388 -0.2580
    1W        W48207   2.462  21.260   1.478 -0.0768 -0.2966 -0.0314
    1W        W48208  18.876   1.181   7.602  0.3467 -0.3831  0.0413
    1W        W48209  19.677   9.711   0.240  0.3686  0.2028 -0.0102
    1W        W48210  24.902   6.451   0.932  0.0730 -0.3172 -0.1829
    1W        W48211  16.998  14.800   9.824 -0.0675  0.0583  0.3402
    1W        W48212  17.055   2.399   1.913  0.1863 -0.1670 -0.2209
    1W        W48213   6.131   3.975   2.291 -0.0204 -0.2161 -0.1538
    1W        W48214   2.731  12.623   2.590  0.1198 -0.1199  0.1165
    1W        W48215  25.281  22.961   2.674  0.0631  0.1718 -0.0792
    1W        W48216  15.050  14.085   7.748  0.0337  0.0697 -0.0323
    1W        W48217   2.278   5.755   1.634  0.2395 -0.0462 -0.2921
    1W        W48218  12.601  25.483   1.740 -0.0131 -0.0042 -0.1424
    1W        W48219  23.001  16.141   9.243 -0.0400  0.1126 -0.0174
    1W        W48220  10.570   0.666   7.408 -0.0893 -0.1934  0.0937
    1W        W48221  28.305  23.463   4.485  0.1705  0.1526 -0.1105
    1W        W48222  14.592  23.899   1.678 -0.2395 -0.0256  0.1580
    1W        W48223   4.826  27.854   8.069  0.2552  0.0463 -0.3082
    1W        W48224   1.999  15.022   2.448 -0.1120 -0.0223  0.2324
    1W        W48225   0.793  24.766   8.675  0.1593  0.1296  0.1045
    1W        W48226  18.181  22.441   9.740  0.2997  0.2162  0.0297
    1W        W48227  18.717  19.203   7.566 -0.1466  0.2373  0.2598
    1W        W48228  25.331  14.131   9.450  0.0190 -0.2573  0.0170
    1W        W48229  17.167  11.879   9.228 -0.0000  0.0469  0.2924
    1W        W48230  25.605  22.018   1.565 -0.2937  0.1362 -0.0954
    1W        W48231   6.400  22.314   9.088  0.3690 -0.3996 -0.0474
    1W        W48232  14.155  20.964   1.637 -0.0719 -0.1025 -0.3753
    1W        W48233   7.493  15.582   1.136 -0.2753 -0.1303 -0.0162
    1W        W48234  19.486  24.652   0.893  0.1411 -0.0062 -0.1425
    1W        W48235  27.204   2.724   4.026  0.0730  0.0483 -0.1205
    1W        W48236  14.869  16.374   8.222 -0.2016  0.0579  0.0836
    1W        W48237  10.789   8.724   1.130  0.1068 -0.0060  0.1816
    1W        W48238   6.080   2.729   1.945  0.0093  0.3573  0.0832
    1W        W48239  20.656  16.125   1.236  0.0716  0.2149 -0.4249
    1W        W48240  16.063  24.884   2.457 -0.1077 -0.1157 -0.1414
    1W        W48241   9.636  24.523   1.512  0.1799  0.0959 -0.2396
    1W        W48242  26.133  19.577   2.497  0.0228  0.0636 -0.1665
    1W        W48243   2.472   5.644   0.888  0.0494  0.3453  0.3230
    1W        W48244  26.601  20.006   8.920 -0.0697  0.1432  0.0368
    1W        W48245   4.434  12.520   9.528  0.0600 -0.2163  0.0938
    1W        W48246  26.041   7.491   2.963 -0.2428  0.3528  0.0509
    1W        W48247   7.407  26.616   9.926 -0.0916 -0.1302  0.4104
    1W        W48248  19.152  20.577   7.316  0.0898 -0.0908 -0.4362
    1W        W48249  11.269  23.794   7.778  0.2371 -0.0783 -0.0820
    1W        W48250   6.243  17.808   9.180 -0.0706 -0.0235  0.0628
    1W        W48251  25.064  19.966   9.569  0.1229 -0.2686 -0.0936
    1W        W48252  20.755  28.445   0.501  0.0096 -0.6023 -0.2203
    1W        W48253  18.568   2.099   6.587 -0.0535 -0.0790 -0.3170
    1W        W48254  22.506  20.782   9.258 -0.3984 -0.2779 -0.4128
    1W        W48255   0.972  16.903   9.809 -0.1825 -0.1653 -0.0146
    1W        W48256  27.084  12.520   8.366 -0.0681 -0.0479  0.2355
    1W        W48257  11.884  15.769   8.852  0.1329 -0.3973  0.3440
    1W        W48258  22.945  17.433   1.003 -0.5508  0.0923  0.2654
    1W        W48259   1.658  20.667   0.722  0.1054  0.0171 -0.0197
    1W        W48260   3.547   7.636   7.880  0.0180 -0.1300  0.2532
    1W        W48261  22.020  10.037   2.513  0.2799 -0.0647 -0.1745
    1W        W48262   7.632   2.656   2.360 -0.3109 -0.2805 -0.2410
    1W        W48263  17.310   0.971   9.386 -0.1284  0.4374 -0.1922
    1W        W48264   7.021   6.925   7.327  0.2202  0.1747  0.1874
    1W        W48265  16.708   7.835   0.659  0.0190  0.0622 -0.1263
    1W        W48266   2.045  18.170   2.492  0.0211  0.1866 -0.1669
    1W        W48267  15.760  14.647   9.951  0.0951  0.0536  0.1360
    1W        W48268   3.822  22.799   3.483  0.4493  0.0050  0.2609
    1W        W48269  18.447  11.000   0.126 -0.0272  0.0282 -0.0835
    1W        W48270  19.865  13.685   9.237  0.0965 -0.4935  0.0977
    1W        W48271  27.047  20.135   8.756  0.3926  0.0080  0.2272
    1W        W48272  19.290  10.896   0.486  0.3554 -0.2780  0.2494
    1W        W48273  11.968  16.687   1.689  0.0405 -0.4871 -0.0085
    1W        W48274  14.136  13.267   6.505 -0.1423 -0.0927  0.0628
    1W        W48275  21.133  20.494   9.337 -0.3217  0.1232  0.1033
    1W        W48276  26.471  16.061   8.670  0.1124  0.1178  0.1769
    1W        W48277  27.252  16.595   8.335  0.1857 -0.1550 -0.0526
    1W        W48278  18.309  22.027   1.969 -0.2837 -0.0652  0.1476
    1W        W48279   5.613  25.518   3.321 -0.0641  0.0964 -0.0841
    1W        W48280  27.279  27.406   9.131  0.0066 -0.2377  0.1406
    1W        W48281   1.262   4.696   3.141 -0.1429  0.2257 -0.1884
    1W        W48282   3.698   0.003   0.695 -0.1194  0.1813  0.0478
    1W        W48283   7.949  16.813   0.191  0.0252  0.0160  0.1060
    1W        W48284  22.788  24.393   8.964 -0.0834  0.2187 -0.1065
    1W        W48285   3.447  25.664   3.474 -0.0524  0.2043  0.2215
    1W        W48286  18.099  17.683   2.942 -0.2551 -0.1212 -0.1315
    1W        W48287   0.403   1.804   1.264 -0.2328  0.2283  0.0695
    1W        W48288  22.294  21.718   0.105  0.0143 -0.0357  0.2695
    1W        W48289  20.873  15.659   8.530  0.0838 -0.0625  0.0399
    1W        W48290  18.352  11.174   8.631  0.1415  0.0788 -0.0369
    1W        W48291  21.354  18.457   7.609  0.2857 -0.3982  0.2711
    1W        W48292  20.275  26.180   1.269  0.0606 -0.0831 -0.0649
    1W        W48293  18.083  20.346   7.493  0.3598  0.2868  0.0107
    1W        W48294  22.831   5.263   1.052  0.0341 -0.0151  0.0819
    1W        W48295  20.077  25.308   0.390 -0.1772  0.0758 -0.1561
    1W        W48296  25.474  11.696   8.332  0.4950  0.0369 -0.1746
    1W        W48297  13.481  15.577   0.104 -0.2149  0.4299 -0.0482
    1W        W48298  27.456  15.288   7.472  0.2256  0.6933 -0.0131
    1W        W48299  17.738  13.468   0.856 -0.0961  0.0439  0.0788
    1W        W48300   2.108  22.254   7.747  0.0138 -0.3376  0.0317
    1W        W48301   4.941  15.758   7.877  0.1483 -0.1251  0.0971
    1W        W48302  15.117  16.952   6.616  0.1843 -0.2165 -0.0625
    1W        W48303  27.145  21.360   3.109 -0.0442  0.1122 -0.2691
    1W        W48304  25.235  17.111   3.033  0.2314  0.0653 -0.0826
    1W        W48305  27.284  13.947   0.772 -0.2237 -0.2127  0.0613
    1W        W48306  14.863   9.098   0.583  0.1241  0.1381 -0.0375
    1W        W48307  15.088  28.185   1.141  0.0318 -0.3243  0.1864
    1W        W48308  20.622  12.644   8.821 -0.1289 -0.0749  0.0469
    1W        W48309   8.226  12.323   8.067 -0.0325  0.2405 -0.1541
    1W        W48310  21.093   0.484   7.404  0.0150 -0.0596  0.0907
    1W        W48311   2.427  13.576   9.681 -0.2708  0.4462  0.1037
    1W        W48312   9.153  25.465   0.059 -0.3032  0.1741 -0.0107
    1W        W48313  17.320  15.944   0.769  0.0522  0.2018 -0.0450
    1W        W48314   3.918  18.567   7.896  0.0082 -0.0730 -0.0255
    1W        W48315   6.432  10.720   2.345 -0.1290  0.1710  0.1216
    1W        W48316   1.406  27.508   9.756 -0.2417  0.2041 -0.1734
    1W        W48317  23.946   2.338   3.449  0.0010 -0.2351  0.2141
    1W        W48318   0.884  25.327   0.853 -0.2525  0.1455  0.2708
    1W        W48319  10.862  14.913   0.723 -0.1008  0.0046 -0.2597
    1W        W48320  24.402   4.052   8.033  0.0986 -0.0129 -0.3126
    1W        W48321   0.707   1.306   1.912  0.0901 -0.2175  0.2937
    1W        W48322   4.195  11.234   8.743 -0.2912  0.2405  0.0349
    1W        W48323   8.994   7.131   1.761  0.2579 -0.1368 -0.1854
    1W        W48324  25.547  13.418   9.077 -0.0568 -0.1993  0.0803
    1W        W48325  24.256  21.159   0.584  0.0154  0.1607  0.0858
    1W        W48326  17.621  27.679   9.994 -0.3561 -0.2460 -0.1523
    1W        W48327  21.739  25.238   1.066  0.0106 -0.1656  0.2783
    1W        W48328  18.503  19.944   8.498  0.1334 -0.0335 -0.2018
    1W        W48329  23.071  10.711   1.597  0.2345  0.3580  0.2416
    1W        W48330   0.392   8.092   8.069 -0.0777 -0.2777  0.0253
    1W        W48331  17.314  11.913   6.426 -0.0586 -0.2042 -0.0377
    1W        W48332   6.042  20.303   7.080  0.0282 -0.1939 -0.3194
    1W        W48333  19.876  11.784   8.795  0.1278  0.0687 -0.0707
    1W        W48334  23.088  15.719   2.725  0.1146 -0.0080  0.0716
    1W        W48335  16.196   0.663   1.674  0.2720 -0.0354  0.0269
    1W        W48336  20.956   0.331   2.886 -0.2364 -0.1970  0.0579
    1W        W48337  16.540  10.049   0.123 -0.2027 -0.1722 -0.1640
    1W        W48338  24.065  11.933   1.735  0.1216  0.2460  0.0405
    1W        W48339  22.487  12.184   0.945  0.1035  0.0443  0.1438
    1W        W48340   5.542  14.134   8.852 -0.2675 -0.3455  0.1463
    1W        W48341   2.872   0.543   1.567  0.2720  0.1481  0.0779
    1W        W48342   4.756   9.687   9.507 -0.2114  0.0466  0.2016
    1W        W48343   3.475  24.180   1.869 -0.0987  0.1657 -0.0822
    1W        W48344   4.722  13.692   8.972 -0.0479 -0.0501  0.2035
    1W        W48345   4.258   7.124   8.029 -0.3465 -0.1035  0.0368
    1W        W48346  26.479  22.133   3.700  0.0786  0.1890  0.0637
    1W        W48347  10.447  10.472   6.617 -0.1535 -0.2785  0.1941
    1W        W48348  28.099   3.290   0.935 -0.2540 -0.0929 -0.2495
    1W        W48349  15.815   2.827   8.840  0.4584 -0.4227  0.0980
    1W        W48350  14.619  18.179   9.410  0.1948 -0.1465  0.0034
    1W        W48351  28.791   0.588   1.901 -0.2726 -0.1965 -0.2012
    1W        W48352  15.884   3.026   9.565  0.1652 -0.0976 -0.0514
    1W        W48353  10.346  19.931   2.114  0.3314  0.0444  0.0801
    1W        W48354  14.593  19.799   9.277 -0.0462  0.0259 -0.1109
    1W        W48355   3.488  28.425   9.821  0.1843 -0.0498  0.1224
    1W        W48356   5.310   5.609   8.941 -0.1625 -0.0109  0.0441
    1W        W48357  17.182  14.670   9.410  0.6066  0.1954  0.2037
    1W        W48358  18.866  18.055   6.666  0.1634  0.1801 -0.0455
    1W        W48359  26.473   7.936   2.287  0.3514  0.0475 -0.1271
    1W        W48360  14.737  22.753   8.628 -0.1859  0.4087  0.0486
    1W        W48361  15.862  22.392   2.086  0.0300  0.0379 -0.2351
    1W        W48362  28.506  21.684   8.018 -0.2198 -0.1700  0.2791
    1W        W48363   7.847   7.801   7.373 -0.0066  0.1187  0.1860
    1W        W48364   9.989   1.494   9.325  0.2667  0.1949  0.1364
    1W        W48365  13.286  15.750   1.071  0.0149  0.2312 -0.0102
    1W        W48366   4.437   0.540   1.310 -0.0238  0.1502 -0.0242
    1W        W48367  22.423  26.809   7.657  0.1968  0.0008  0.0640
    1W        W48368  25.031  10.682   2.786 -0.0105  0.0326  0.0066
    1W        W48369  11.296  16.729   9.755  0.1461  0.2536  0.2482
    1W        W48370  16.042  16.109   2.219  0.1289  0.0846  0.0883
    1W        W48371  15.277  13.948   0.880  0.1290  0.2954  0.1450
    1W        W48372  12.485  22.544   9.495 -0.0945 -0.0584  0.0639
    1W        W48373  23.810  14.100   2.722  0.0737 -0.0509  0.1175
    1W        W48374  23.185  19.607   8.889  0.0657 -0.0617 -0.0198
    1W        W48375   2.716  21.575   3.157 -0.3052 -0.2614 -0.0964
    1W        W48376   4.345   7.001   9.302  0.2281  0.1065  0.1306
    1W        W48377   0.790   0.140   1.216 -0.0778  0.0249 -0.1283
    1W        W48378  16.224   1.580   8.290  0.1747  0.0177  0.0398
    1W        W48379  10.413   1.648   7.385 -0.2590  0.0542 -0.2800
    1W        W48380   5.970  21.053   2.327  0.4807 -0.2734 -0.0188
    1W        W48381  10.734   9.726   9.025  0.2367 -0.3702 -0.2263
    1W        W48382   4.516  12.933   3.093  0.0608 -0.0750  0.1173
    1W        W48383  15.186   7.255   5.840 -0.2682  0.1464  0.3356
    1W        W48384  11.443  18.025   2.149  0.0140  0.3090 -0.0494
    1W        W48385  16.303  14.036   6.723 -0.1925 -0.1856 -0.3206
    1W        W48386   2.905  13.387   9.741 -0.0556 -0.0469  0.0213
    1W        W48387  27.397  22.490   9.230 -0.2264  0.2699  0.1176
    1W        W48388  20.351   3.963   8.839 -0.0017 -0.0900  0.1889
    1W        W48389   7.744   7.434   2.573 -0.0822  0.2412 -0.3739
    1W        W48390  11.882   2.267   2.176 -0.0257 -0.2562  0.0855
    1W        W48391  16.299  13.608   8.536 -0.1294  0.2287 -0.0883
    1W        W48392  18.506  18.151   2.847  0.1582  0.1907 -0.0473
    1W        W48393   8.867  21.969   2.689  0.2645  0.2863 -0.1406
    1W        W48394   2.039   5.351   2.601  0.0708 -0.2570 -0.0666
    1W        W48395   3.894  21.123   0.513  0.0712 -0.1387  0.1763
    1W        W48396   3.583   5.422   2.103 -0.1890 -0.0033 -0.1400
    1W        W48397  24.456  23.675   1.439 -0.3799 -0.0420  0.0678
    1W        W48398   4.528  22.395   8.376  0.0907 -0.2658  0.0424
    1W        W48399  10.146   8.040   8.878 -0.1268 -0.0500  0.3448
    1W        W48400  11.936   9.370   6.223 -0.1283  0.1969  0.0940
    1W        W48401  12.876   8.845   5.818 -0.0757 -0.0092 -0.1160
    1W        W48402  11.789  19.328   8.236 -0.1601 -0.0665  0.1057
    1W        W48403   6.707  13.243   0.285 -0.0841 -0.1365 -0.3324
    1W        W48404   8.682   0.314   0.236  0.1150  0.2008 -0.0684
    1W        W48405  23.460  27.686   2.580 -0.0598  0.0249  0.2647
    1W        W48406  10.470  19.279   0.490 -0.3798 -0.2307 -0.0972
    1W        W48407   0.628   0.830   1.914 -0.0191  0.3386  0.0071
    1W        W48408  14.605   0.001   7.833 -0.0457  0.2213  0.1561
    1W        W48409  20.657  10.207   0.338 -0.0815 -0.0670 -0.0714
    1W        W48410  20.093   7.949   8.966 -0.1921  0.0551 -0.1525
    1W        W48411  12.174  16.142   1.534  0.2870 -0.3860  0.3807
    1W        W48412   1.387   8.726   8.346 -0.1351  0.2028 -0.0095
    1W        W48413  13.015  21.032   9.424  0.2026 -0.0712 -0.0805
    1W        W48414  20.531  21.645   8.327  0.1287 -0.3785 -0.0365
    1W        W48415  25.218   3.723   9.196 -0.2796 -0.1852  0.1319
    1W        W48416   7.221   9.610   9.452 -0.2385 -0.0525  0.2487
    1W        W48417  14.203  11.162   9.606  0.2343 -0.3495 -0.0451
    1W        W48418   1.776   8.045   8.782 -0.1228  0.1769 -0.0550
    1W        W48419  16.993   0.501   2.274 -0.1996  0.1746  0.0783
    1W        W48420  20.057  26.838   0.473  0.2155  0.0014  0.1395
    1W        W48421  19.088  11.006   0.060  0.3675 -0.2504  0.0894
    1W        W48422   4.501   8.979   1.613 -0.0179 -0.1408 -0.3254
    1W        W48423  28.863   6.030   8.348  0.0441 -0.3367 -0.0184
    1W        W48424   0.819  16.379   9.626  0.1763 -0.0276  0.0385
    1W        W48425  14.206  13.180   8.186  0.2530 -0.1707 -0.0051
    1W        W48426  25.596  25.514   8.280  0.1321 -0.2552 -0.1300
    1W        W48427  25.309   9.482   0.583  0.1828  0.0404 -0.1039
    1W        W48428  21.884   8.983   7.978 -0.2392 -0.5777 -0.0163
    1W        W48429  13.537  26.483   7.256 -0.0206  0.0923  0.1657
    1W        W48430  28.869  17.040   7.713 -0.0447  0.1795 -0.0529
    1W        W48431   4.049   1.070   2.112  0.2416 -0.1264  0.1209
    1W        W48432   2.141  26.020   4.715  0.0827 -0.0616  0.1720
    1W        W48433  27.750   1.453   1.522  0.0979 -0.2229 -0.0435
    1W        W48434  13.366  18.155   0.840  0.0056 -0.1405 -0.0068
    1W        W48435  19.393  17.787   0.757  0.2162  0.1223 -0.2504
    1W        W48436  16.050  11.416   6.454  0.0618 -0.0790  0.0495
    1W        W48437  23.228   7.640   1.345 -0.3150  0.0312  0.0932
    1W        W48438  26.552  16.860   7.627 -0.1522  0.0313  0.0404
    1W        W48439  22.549   3.405   1.708  0.0613 -0.0177 -0.0786
    1W        W48440  17.846  19.585   1.657  0.1346  0.0359 -0.0602
    1W        W48441  22.123   5.565   7.028  0.0634  0.1082 -0.0182
    1W        W48442  12.358  10.686   6.871  0.1858  0.3375 -0.0934
    1W        W48443   8.325   4.726   8.058  0.1570 -0.2735 -0.1421
    1W        W48444  22.473  11.264   0.867  0.0033  0.1223  0.1343
    1W        W48445   4.784  25.300   2.082 -0.0575  0.2026  0.0513
    1W        W48446  26.985  28.378   0.428 -0.2831  0.0750  0.4716
    1W        W48447   0.159  14.240   0.999 -0.1310  0.2045  0.1687
    1W        W48448  20.172  25.750   1.772  0.2146 -0.4094  0.0340
    1W        W48449  17.943  11.661   7.207  0.0114 -0.1542  0.1406
    1W        W48450  17.185   3.513   7.279 -0.0506  0.2906  0.2243
    1W        W48451  28.237  19.857   9.767  0.3483 -0.1126 -0.1268
    1W        W48452  24.130  24.639   8.210  0.1139  0.0379  0.0819
    1W        W48453   8.929   8.534   0.274 -0.2006 -0.3167 -0.0196
    1W        W48454  19.390  14.024   7.372  0.1490  0.0503  0.0433
    1W        W48455  27.441  23.767   9.490 -0.0077 -0.2228 -0.0411
    1W        W48456  15.053  27.293   9.855 -0.0008 -0.3018  0.1213
    1W        W48457  15.073   2.795   7.537 -0.2022  0.0152 -0.0482
    1W        W48458  11.392  25.544   2.123  0.0310  0.1506  0.1168
    1W        W48459  22.951  13.980   8.568 -0.0915  0.2608 -0.3047
    1W        W48460   2.222  23.423   9.486 -0.0478  0.1185 -0.2179
    1W        W48461   7.183   1.832   3.865  0.2891  0.3136  0.0712
    1W        W48462   3.017  26.339   8.013  0.0078 -0.0870 -0.0096
    1W        W48463  19.083  18.876   7.803 -0.4798 -0.1648  0.1216
    1W        W48464   5.275  11.994   9.078 -0.1054 -0.1136  0.3953
    1W        W48465  28.333  28.608   2.194  0.0223 -0.3668  0.1020
    1W        W48466  22.336  17.681   9.285  0.0059  0.0495  0.0613
    1W        W48467   2.152  10.221   8.517 -0.0167 -0.2687  0.2871
    1W        W48468  24.642   1.666   9.138 -0.2400 -0.3039  0.2777
    1W        W48469  21.579   6.159   8.949  0.0086  0.0351  0.0189
    1W        W48470  28.875  22.137   0.997  0.0742  0.1744  0.2350
    1W        W48471  19.702   9.698   9.697  0.0098  0.2874  0.0703
    1W        W48472  22.519  23.298   3.069  0.2243 -0.3302 -0.0193
    1W        W48473   9.132   0.250   9.524 -0.3719 -0.3057  0.6645
    1W        W48474   0.502   9.465   8.555 -0.3022  0.0802  0.0185
    1W        W48475  24.391   5.424   9.768 -0.1542  0.1304  0.0538
    1W        W48476   2.604  23.723   3.364 -0.1921  0.1998  0.1176
    1W        W48477   8.707  25.732   7.969 -0.1363 -0.1709 -0.0504
    1W        W48478  14.660   3.074   7.444 -0.0632 -0.0353 -0.2127
    1W        W48479  23.991  14.846   1.641  0.0563  0.2412  0.3055
    1W        W48480  18.604  28.062   1.077 -0.1901 -0.0684  0.1827
    1W        W48481   2.806   7.724   0.885 -0.0522  0.2228  0.1050
    1W        W48482   2.705  28.367   7.934  0.0491 -0.7114  0.2003
    1W        W48483   5.365  10.807   9.487 -0.1818 -0.0398  0.1771
    1W        W48484  18.043  26.603   8.602  0.1432 -0.0284 -0.0718
    1W        W48485  20.192   9.909   7.934  0.0469 -0.1468 -0.0933
    1W        W48486  16.955  14.906   8.268 -0.0526 -0.4382  0.1855
    1W        W48487   1.983   5.012   8.936 -0.1485 -0.0667  0.0679
    1W        W48488   3.432  28.857   1.778  0.0931  0.3902  0.1344
    1W        W48489  11.233  27.805   7.736  0.2572 -0.4012  0.2620
    1W        W48490  27.979  24.846   8.258  0.0788  0.0131  0.0013
    1W        W48491  27.741  13.945   8.236  0.4706 -0.3247 -0.0890
    1W        W48492  11.038  22.916   6.776 -0.0943  0.0075 -0.0434
    1W        W48493   0.852  25.706   3.497 -0.1831 -0.0549 -0.0734
    1W        W48494  12.381   8.412   9.480  0.1377 -0.1554  0.4335
    1W        W48495  21.980  22.374   0.361 -0.1024  0.1032 -0.0223
    1W        W48496  28.048   0.581   0.602 -0.3791  0.1107  0.1195
    1W        W48497  16.567   1.886   1.126 -0.1911 -0.2639 -0.2021
    1W        W48498  18.131   9.531   1.485 -0.3491 -0.1695 -0.0318
    1W        W48499   3.626  11.776   7.687 -0.3274  0.0746 -0.0325
    1W        W48500   7.705  27.636   4.141  0.0219  0.1121  0.2193
    1W        W48501  28.824  10.725   6.627  0.2158 -0.0210  0.0212
    1W        W48502  26.189  18.869   1.542 -0.2548  0.0291  0.1415
    1W        W48503  10.917  20.754   9.648 -0.0351 -0.1311  0.0359
    1W        W48504   1.984  13.630   8.484  0.1886 -0.0959  0.2879
    1W        W48505   1.552   3.553   9.320  0.0985  0.3088  0.0258
    1W        W48506  15.477   9.604   6.430  0.1874 -0.2896  0.3210
    1W        W48507  13.453  28.828   8.067  0.2582 -0.0262 -0.0646
    1W        W48508   9.666   5.941   0.911  0.0211  0.1076  0.0038
    1W        W48509   5.089   7.671   2.739  0.0998 -0.1183 -0.1153
    1W        W48510  24.326  26.870   2.112 -0.1233  0.2795  0.1347
    1W        W48511  28.433  18.890   1.903 -0.0682  0.0227  0.1921
    1W        W48512   3.241  14.190   0.053  0.0643 -0.1969 -0.0759
    1W        W48513  22.048  14.821   6.225  0.1300 -0.0810  0.1385
    1W        W48514  28.172  18.000   4.419 -0.0437 -0.1921  0.0295
    1W        W48515  22.985  14.348   2.953  0.1520  0.1377  0.1479
    1W        W48516  27.057  28.419   9.863  0.3864 -0.0260  0.0128
    1W        W48517  21.620  14.029   9.345  0.1524 -0.0005 -0.0094
    1W        W48518   9.751  21.504   7.389 -0.1793  0.1852 -0.1326
    1W        W48519   2.141   7.963   7.566  0.2478  0.2286 -0.0489
    1W        W48520  20.933  14.064   1.085 -0.2123  0.0421 -0.1881
    1W        W48521  18.498   9.650   8.270  0.1255 -0.0266 -0.1280
    1W        W48522  12.508  27.661   3.128  0.0954  0.3524  0.0442
    1W        W48523   6.925  17.665   7.551 -0.3122  0.1233  0.1469
    1W        W48524   2.096  14.873   3.420 -0.0169 -0.4024  0.1049
    1W        W48525   4.896  27.804   2.056 -0.0847 -0.4093 -0.0516
    1W        W48526  21.723  21.047   8.322  0.1360 -0.0769  0.0404
    1W        W48527  23.529   4.996   6.607 -0.1791 -0.2216  0.4081
    1W        W48528   3.191  23.510   8.676 -0.1574  0.0139  0.1276
    1W        W48529  28.072   6.960   1.742  0.0180 -0.3275  0.1517
    1W        W48530  13.513  13.536   2.079  0.0134  0.0220  0.0649
    1W        W48531  21.455  25.391   2.271 -0.0012 -0.0237  0.2731
    1W        W48532  26.020  12.281   9.977 -0.0873 -0.0914  0.1496
    1W        W48533  12.225  16.148   7.539 -0.4671 -0.2279  0.0105
    1W        W48534   8.065   9.779   2.558 -0.1284  0.3897  0.1448
    1W        W48535  15.065   8.666   9.188 -0.0430  0.1663  0.2155
    1W        W48536   0.673  28.139   1.142 -0.1246 -0.3400 -0.0027
    1W        W48537   0.318   6.491   9.168  0.1529 -0.0636 -0.1540
    1W        W48538  18.157  16.164   2.400 -0.0367  0.4212  0.0126
    1W        W48539   1.728  25.966   0.706  0.2509  0.3792  0.2259
    1W        W48540   7.572  20.271   0.513  0.0139  0.0579  0.3463
    1W        W48541  15.397  12.502   0.155  0.2677 -0.0494  0.2207
    1W        W48542  13.685   4.023   7.684  0.2018 -0.1929  0.0958
    1W        W48543   5.642   1.729   9.499  0.0106  0.2767  0.4170
    1W        W48544  26.550  27.278   3.895 -0.0458  0.0676 -0.1767
    1W        W48545   3.663   7.532   0.684 -0.1335  0.0166  0.1961
    1W        W48546  23.760  27.696   1.332 -0.0036  0.1239  0.1962
    1W        W48547   3.537   0.625   9.294 -0.1444 -0.0458 -0.4169
    1W        W48548  22.264  11.506   7.294 -0.0298 -0.1413 -0.1958
    1W        W48549  13.558  13.239   9.789  0.0656  0.1452  0.0833
    1W        W48550  20.102  21.322   0.069 -0.1933 -0.0051 -0.2637
    1W        W48551  10.691   6.302   0.842  0.1540 -0.1154  0.0526
    1W        W48552   6.351   1.824   3.308 -0.1291  0.1743  0.0827
    1W        W48553  25.430  17.069   1.473 -0.1825 -0.1364 -0.0218
    1W        W48554   8.276   0.989   1.615 -0.1414  0.0212  0.1269
    1W        W48555   8.058   0.760   3.381  0.0478 -0.0250 -0.0981
    1W        W48556   4.012  20.608   1.272 -0.0244 -0.2952  0.5694
    1W        W48557  23.915  23.706   7.527 -0.1929  0.1010 -0.1406
    1W        W48558   5.990   9.052   2.097  0.2372 -0.2987 -0.1711
    1W        W48559  25.101  19.567   9.861 -0.2595  0.1151  0.0855
    1W        W48560  24.662  19.574   0.116 -0.2820  0.0478 -0.1681
    1W        W48561   8.327  14.141   6.907 -0.0599  0.4390 -0.2822
    1W        W48562  21.804  13.793   1.430  0.1012  0.0112 -0.1477
    1W        W48563  25.164  19.259   2.801  0.3489  0.3107  0.0003
    1W        W48564  21.754   1.268   8.318  0.0086  0.0026  0.1069
    1W        W48565  17.557  20.803   6.675  0.2685  0.3196  0.0094
    1W        W48566  27.445   4.119   9.830  0.1215 -0.5128 -0.0392
    1W        W48567  14.204  11.607   6.908  0.0139 -0.0797  0.0648
    1W        W48568   4.903  16.391   9.924  0.0930  0.3457 -0.1689
    1W        W48569  11.513  15.772   2.244 -0.2635 -0.0772 -0.2158
    1W        W48570   5.969  16.379   1.824  0.2868 -0.1664  0.0335
    1W        W48571  13.511   2.843   1.095  0.0519  0.1316 -0.0459
    1W        W48572  11.978  20.990   7.394  0.1514 -0.3278  0.0345
    1W        W48573   8.248  12.274   1.706 -0.0221 -0.2559  0.1181
    1W        W48574  17.570  16.395   7.130  0.0087 -0.1239 -0.3446
    1W        W48575   4.909   6.511   8.698 -0.0561 -0.0856 -0.0195
    1W        W48576  15.408  15.607   9.355 -0.2282  0.1731 -0.2669
    1W        W48577  15.900   6.857   7.085  0.1770 -0.0065  0.1655
    1W        W48578  20.094   3.718   1.154  0.0594 -0.1127  0.0460
    1W        W48579  13.035  14.400   6.491 -0.3546 -0.0977  0.0198
    1W        W48580   8.937   7.847   9.752  0.0009 -0.1051  0.1327
    1W        W48581  14.428  11.260   0.563  0.3255  0.1479  0.0669
    1W        W48582  28.373  21.269   0.165  0.2580 -0.0789 -0.0293
    1W        W48583  26.457   3.213   3.070  0.2881  0.4012 -0.0139
    1W        W48584  13.749  15.518   7.305  0.1452 -0.2058 -0.0149
    1W        W48585   4.516  25.730   2.206 -0.2701 -0.1608 -0.2700
    1W        W48586  14.351  12.045   7.252  0.4792 -0.0947  0.0800
    1W        W48587   4.110   7.571   6.735 -0.0288 -0.3584  0.1648
    1W        W48588  15.973   6.778   9.067 -0.1195 -0.1764 -0.2748
    1W        W48589  19.111   5.938   8.285 -0.0847 -0.0596 -0.3422
    1W        W48590   7.072   1.345   1.054  0.0693  0.1675 -0.0769
    1W        W48591  25.891   4.699   2.191  0.0786 -0.3243  0.0707
    1W        W48592   8.630  18.722   6.405  0.1390  0.0340  0.1670
    1W        W48593   9.042   1.312   2.164 -0.1134  0.1072 -0.0784
    1W        W48594  27.824   8.230   1.049  0.3129 -0.0265 -0.5196
    1W        W48595   5.709  22.554   9.499  0.0498  0.2047 -0.2411
    1W        W48596  18.123   3.982   8.106  0.0924 -0.0668 -0.1318
    1W        W48597   6.231  22.507   1.237  0.2260 -0.2574 -0.0964
    1W        W48598  12.738  19.735   7.064 -0.1347 -0.2312  0.0327
    1W        W48599  14.899   9.266   1.126  0.1561 -0.0801 -0.4851
    1W        W48600  17.855  10.677   6.920 -0.0504 -0.1144  0.2578
    1W        W48601   9.026   6.892   8.592  0.1170  0.3528  0.1711
    1W        W48602   8.989   3.987   2.720  0.0533  0.0484  0.3254
    1W        W48603   9.028  22.813   0.212 -0.0817 -0.0495 -0.0088
    1W        W48604   6.643  19.799   0.575 -0.0129 -0.4066 -0.2803
    1W        W48605  28.176  24.067   2.861 -0.1957 -0.1982  0.1471
    1W        W48606   0.206  19.148   8.830  0.0553  0.0006  0.0349
    1W        W48607  21.768  11.866   9.467 -0.1287 -0.1624  0.1886
    1W        W48608  15.586   1.047   6.415  0.1447 -0.0981 -0.0789
    1W        W48609  10.638  12.519   7.863 -0.0953 -0.3178 -0.0985
    1W        W48610  27.666  20.397   0.764 -0.1603  0.1813  0.0552
    1W        W48611   7.266   6.576   0.232 -0.1356 -0.0793  0.1266
    1W        W48612  15.982  10.893   6.504 -0.0764  0.0954  0.0670
    1W        W48613   9.216  15.751   9.774 -0.1331 -0.1466 -0.2530
    1W        W48614  25.279  14.921   0.378  0.1858  0.0179  0.2427
    1W        W48615   1.868  27.303   3.358 -0.0825  0.1245  0.0669
    1W        W48616  22.996  25.024   3.299 -0.2185  0.2846 -0.0590
    1W        W48617   1.047  24.081   8.058  0.0481 -0.1987  0.3468
    1W        W48618  10.825  28.327   8.072  0.0992 -0.0065 -0.0721
    1W        W48619   4.181  14.928   2.423  0.1288  0.1056  0.1545
    1W        W48620   3.349   6.405   9.291 -0.0182  0.4678  0.1728
    1W        W48621   0.928   4.638   8.000  0.1134 -0.0504 -0.1508
    1W        W48622  19.095   2.976   9.366 -0.1455  0.0641 -0.2598
    1W        W48623  25.024   3.254   0.679  0.0504 -0.1812 -0.3286
    1W        W48624  24.691  27.816   2.846  0.0259  0.3039 -0.3290
    1W        W48625  27.134   2.169   9.144 -0.0442  0.1770 -0.0215
    1W        W48626   4.375  26.325   1.112  0.2178 -0.2350  0.2374
    1W        W48627   2.343   8.233   2.590  0.2217  0.2533  0.3100
    1W        W48628  24.315  14.422   1.261 -0.1041  0.1916  0.2658
    1W        W48629  17.068   2.770   6.462  0.3336 -0.0814  0.2516
    1W        W48630  18.283   1.666   2.086 -0.0501 -0.0536  0.3199
    1W        W48631   6.267  17.253   6.816  0.1048 -0.2678  0.1858
    1W        W48632   8.424  17.124   6.528 -0.0679  0.1902 -0.0245
    1W        W48633   9.389  18.713   7.885 -0.2134 -0.1844  0.0067
    1W        W48634  22.473  20.181   1.812  0.0679 -0.1456  0.3196
    1W        W48635  20.506  26.505   0.810 -0.2282 -0.0393 -0.1679
    1W        W48636   4.563  17.002   7.755  0.1167 -0.0433 -0.1422
    1W        W48637   1.555  25.537   8.315  0.2886  0.2427 -0.1305
    1W        W48638  11.061   1.422   8.098 -0.2239 -0.0976 -0.2038
    1W        W48639  19.481   7.932   8.835  0.0403  0.2063 -0.2221
    1W        W48640  11.263  15.307   5.974 -0.1198 -0.0941  0.0581
    1W        W48641  13.962   7.136   1.349 -0.0519  0.2415  0.2110
    1W        W48642  27.548  25.771   3.031  0.0942  0.1562 -0.0794
    1W        W48643  28.360  14.710   0.857 -0.3098 -0.0022  0.2253
    1W        W48644  24.616   0.275   9.883 -0.1064 -0.0067  0.3088
    1W        W48645  17.869  13.864   7.998 -0.2235  0.0895 -0.0392
    1W        W48646  26.809  21.378   2.618  0.1581 -0.2058 -0.0682
    1W        W48647   4.170   1.546   9.601 -0.2128 -0.2509 -0.2064
    1W        W48648  22.899   8.146   1.676  0.0169 -0.2473 -0.1025
    1W        W48649   3.716  26.225   2.526 -0.4219  0.0916  0.3138
    1W        W48650   5.534  22.032   1.306  0.0481  0.0620 -0.0455
    1W        W48651  24.425   0.828   1.100  0.1130  0.1651  0.1217
    1W        W48652  15.105  13.313   0.073 -0.1877  0.0319  0.1659
    1W        W48653   7.192  15.432   5.997  0.0681 -0.3911  0.2782
    1W        W48654   0.680  14.924   9.193 -0.0401  0.1414  0.0706
    1W        W48655  20.764   6.506   1.649 -0.1349 -0.1872  0.0240
    1W        W48656  14.376  13.482   2.650 -0.2542 -0.0562  0.3966
    1W        W48657   7.960   6.452   8.949  0.1104  0.1546  0.1489
    1W        W48658  25.557   5.393   0.547  0.2279  0.3321  0.1065
    1W        W48659   2.527  15.062   0.652 -0.0674 -0.1390  0.0960
    1W        W48660  24.599  24.464   3.027  0.0807  0.3365  0.0617
    1W        W48661  15.871  12.304   8.109  0.1592  0.1693 -0.0557
    1W        W48662   4.828  25.939   0.458  0.3294  0.3374  0.0620
    1W        W48663  15.854   9.005   1.212  0.0564  0.0075 -0.2141
    1W        W48664   0.684  12.942   0.412  0.0024  0.0677  0.0664
    1W        W48665  25.228  25.856   8.948  0.1807  0.0562 -0.2794
    1W        W48666  20.156   8.326   1.099 -0.1256  0.1804  0.1844
    1W        W48667  15.994   7.297   8.875  0.1075 -0.1437 -0.3583
    1W        W48668  15.130  24.500   1.793 -0.0474 -0.0633 -0.0176
    1W        W48669   0.713  13.878   1.618  0.1736 -0.2016 -0.1721
    1W        W48670  14.363  21.393   3.640 -0.1509 -0.0252 -0.0190
    1W        W48671   1.864   3.851   1.210  0.0416  0.4162 -0.1965
    1W        W48672   2.192  14.705   8.040 -0.0654  0.0323  0.1907
    1W        W48673  24.473   2.177   2.430  0.0047 -0.3690  0.2880
    1W        W48674  27.152  10.639   1.915 -0.1997 -0.0377  0.1262
    1W        W48675  10.674   8.142   7.318  0.0386 -0.0991  0.0105
    1W        W48676  27.669  15.044   2.386  0.4872 -0.3424  0.1046
    1W        W48677  13.803   2.642   0.345 -0.0947 -0.0624  0.2337
    1W        W48678   5.510   5.486   1.587 -0.4200 -0.2955  0.1680
    1W        W48679  20.071   4.994   1.149 -0.0662 -0.0143 -0.0762
    1W        W48680  17.658  17.269   8.078 -0.1434  0.2881 -0.2622
    1W        W48681  23.129  10.614   9.996 -0.0208  0.1700 -0.1237
    1W        W48682  12.524  14.179   6.349 -0.1364 -0.1301  0.2165
    1W        W48683  23.478  22.226   2.345  0.0484  0.1189 -0.1993
    1W        W48684  16.762  17.072   1.862  0.1478  0.0546 -0.1503
    1W        W48685   8.944  24.803   7.937 -0.1019  0.1415 -0.0460
    1W        W48686   4.186   0.224   8.459 -0.2153 -0.1696 -0.3085
    1W        W48687   2.439  19.321   8.843 -0.1613  0.2269 -0.0566
    1W        W48688   7.390  20.809   7.231 -0.1224 -0.0744  0.0301
    1W        W48689  21.764  17.779   1.515  0.1857 -0.0370  0.1864
    1W        W48690  28.465   0.799   9.681  0.0473 -0.0376  0.0267
    1W        W48691   9.833   0.053   9.456 -0.3709 -0.2308 -0.0154
    1W        W48692   1.923  28.700   2.937  0.2440  0.1086  0.0896
    1W        W48693  20.263  13.469   9.324 -0.0250 -0.1935 -0.0505
    1W        W48694  16.174  25.344   1.588 -0.1642  0.0883  0.1423
    1W        W48695  16.746   5.151   9.542 -0.2977  0.1903 -0.2364
    1W        W48696   7.989  24.188   3.413 -0.0105 -0.0299  0.0970
    1W        W48697  24.864  14.188   7.699 -0.1304  0.3343 -0.1716
    1W        W48698  19.135  10.323   6.118 -0.2798  0.1042  0.0569
    1W        W48699  19.132  20.222   6.928 -0.0416 -0.0092 -0.1092
    1W        W48700   4.378   5.805   8.531 -0.0755  0.0638  0.3630
    1W        W48701  12.735  28.007   8.880 -0.0166 -0.0170 -0.4422
    1W        W48702  18.659   9.304   9.550 -0.2147  0.3796 -0.3911
    1W        W48703  20.172  25.468   3.403 -0.0142  0.2368  0.0348
    1W        W48704  17.624   1.866   7.476 -0.3009 -0.4344 -0.1157
    1W        W48705  11.756  19.879   3.370 -0.1859 -0.0259 -0.0159
    1W        W48706   9.868   8.282   9.344  0.0626 -0.1061  0.2551
    1W        W48707  14.394  25.660   6.960  0.0770 -0.1396  0.3140
    1W        W48708  10.315  18.962   8.342  0.0260 -0.0815  0.0133
    1W        W48709  20.555  25.936   7.369 -0.0739  0.0591 -0.0186
    1W        W48710   6.309  23.446   7.939  0.1323 -0.1350  0.2794
    1W        W48711   4.216   7.303   1.882  0.1877  0.1874  0.2825
    1W        W48712   2.076  17.046   8.175 -0.1336  0.0598  0.1895
    1W        W48713   2.595   0.984   8.623  0.1226 -0.1729 -0.0866
    1W        W48714  21.384  13.093   7.739 -0.1748 -0.0841 -0.2748
    1W        W48715  13.929  14.245   7.973  0.2937 -0.0875 -0.0681
    1W        W48716   8.315  19.004   0.775 -0.2871  0.2895  0.1834
    1W        W48717   7.151  13.449   0.090 -0.1826 -0.1258  0.0460
    1W        W48718   4.477  27.877   0.730  0.0052  0.1947 -0.3802
    1W        W48719  26.045   8.023   0.811  0.0759 -0.1634  0.2139
    1W        W48720  14.386  16.504   6.968  0.0695 -0.0512  0.0406
    1W        W48721   4.263   7.237   2.442  0.0928 -0.1606  0.0279
    1W        W48722   5.920   6.999   9.998 -0.0849  0.3769 -0.2135
    1W        W48723   8.487  22.769   3.129  0.0496  0.4642 -0.2218
    1W        W48724   3.936  17.115   7.892 -0.0962  0.0615 -0.1085
    1W        W48725  17.073   9.393   1.632 -0.3914 -0.2267 -0.0820
    1W        W48726  13.848  14.775   2.001  0.5290  0.1200  0.1816
    1W        W48727   3.985  18.217   1.989 -0.2128 -0.1240  0.0091
    1W        W48728  11.247  27.456   8.256  0.3833 -0.1779 -0.1431
    1W        W48729  14.326   0.187   1.126 -0.2194 -0.1870  0.1856
    1W        W48730  14.828   2.350   7.479 -0.1158 -0.0703  0.1387
    1W        W48731  11.655   6.048   1.819  0.0720 -0.3399 -0.1186
    1W        W48732  24.005   5.211   2.391 -0.2991  0.4444  0.0370
    1W        W48733   4.767  15.830   0.444  0.1254 -0.0637  0.1271
    1W        W48734  15.952   6.217   8.924  0.0144 -0.1433  0.0848
    1W        W48735  13.886   2.046   6.432  0.0153 -0.4266 -0.0948
    1W        W48736  17.765  15.155   0.723 -0.4578 -0.1318  0.2489
    1W        W48737  11.130  13.673   7.921  0.1308 -0.0350 -0.1460
    1W        W48738  14.551  27.761   8.773  0.0799 -0.0176  0.3657
    1W        W48739  23.030  17.894   0.731 -0.1022 -0.0132 -0.1858
    1W        W48740  14.092  19.465   0.744 -0.1321 -0.0334 -0.2898
    1W        W48741  18.857  19.130   9.066 -0.3725  0.1093  0.0522
    1W        W48742   7.340   4.622   8.135  0.0728  0.2489  0.0842
    1W        W48743   4.118   3.860   8.160 -0.1919 -0.0325 -0.1326
    1W        W48744   8.228   8.047   0.007 -0.2704  0.2688  0.0166
    1W        W48745  15.814   3.625   6.643  0.1620 -0.0450 -0.0361
    1W        W48746   4.039  10.605   8.012 -0.0648  0.1631  0.0050
    1W        W48747  15.058  19.420   9.929 -0.3360  0.2428 -0.1794
    1W        W48748  19.223  27.158   1.684 -0.0996  0.0439 -0.1115
    1W        W48749   9.554  13.452   9.354 -0.0416  0.3122  0.2432
    1W        W48750  28.396  18.339   1.267 -0.0062 -0.0594 -0.1064
    1W        W48751   3.605  27.295   4.188 -0.0434 -0.0368 -0.3418
    1W        W48752  27.295  17.766   1.110  0.2279 -0.0194  0.1477
    1W        W48753  13.292   8.611   9.610 -0.0977 -0.1312 -0.0047
    1W        W48754  22.482   7.147   7.698  0.0788 -0.3199 -0.0572
    1W        W48755   2.198  18.652   2.616 -0.1326  0.0228  0.1030
    1W        W48756   7.424  14.999   1.032  0.0878  0.0045  0.5138
    1W        W48757  18.131  28.599   2.457  0.0267  0.2418 -0.1714
    1W        W48758  19.969   4.187   1.075  0.0590  0.1795 -0.0173
    1W        W48759   3.504   8.812   2.868 -0.1712 -0.1448  0.0437
    1W        W48760   7.390  19.678   2.311  0.2927 -0.4774 -0.2991
    1W        W48761  11.049  10.225   1.914 -0.1014 -0.0273 -0.2207
    1W        W48762  23.510   6.999   9.705  0.2686  0.0179  0.2006
    1W        W48763  23.722   5.038   2.759  0.0617  0.2825 -0.1226
    1W        W48764  13.085  16.820   9.857 -0.2905  0.1813 -0.1690
    1W        W48765  16.153   5.852   7.431 -0.1994 -0.4203 -0.4300
    1W        W48766  17.016  20.383   0.483  0.0013  0.1358 -0.0348
    1W        W48767  23.151  25.987   3.289  0.0350  0.3728  0.2258
    1W        W48768   2.314  23.014   8.293  0.0317 -0.1744  0.1316
    1W        W48769   8.172  11.123   0.645  0.1227 -0.2730 -0.2150
    1W        W48770  17.150  25.696   0.131  0.0485  0.1936 -0.3538
    1W        W48771  21.337  12.959   0.340  0.1181  0.4595 -0.0385
    1W        W48772  22.807  23.713   7.527 -0.0940 -0.0157  0.3594
    1W        W48773   9.631  24.921   3.760 -0.0034  0.1886  0.0682
    1W        W48774   9.293  23.351   8.606  0.0786  0.2052  0.2294
    1W        W48775  23.880  27.775   9.018  0.0392  0.1134  0.0299
    1W        W48776  24.727   0.464   8.590  0.0676  0.0700 -0.2026
    1W        W48777   9.432   3.031   1.685 -0.1618  0.2587  0.0920
    1W        W48778  10.405  20.908   6.641  0.2357  0.0609 -0.0006
    1W        W48779  18.251   6.316   7.519  0.0089 -0.2985  0.2558
    1W        W48780  14.357  24.267   8.980  0.3821  0.0192  0.1563
    1W        W48781   9.320  28.006   8.799 -0.1772 -0.0561  0.0453
    1W        W48782  21.269   2.450   0.207  0.1120 -0.1867 -0.3162
    1W        W48783   5.719   4.155   1.286  0.2244 -0.1155  0.0408
    1W        W48784   2.252  19.361   7.887 -0.0424 -0.0531  0.0617
    1W        W48785  25.324  27.412   3.248 -0.0363 -0.1452  0.1702
    1W        W48786   6.407  19.919   2.644 -0.2902 -0.3878  0.2184
    1W        W48787  16.672  15.531   2.765 -0.0348  0.2757 -0.2131
    1W        W48788  20.997  24.913   2.882 -0.1895 -0.1326  0.0992
    1W        W48789   5.272   1.051   2.982  0.2375  0.2441 -0.1300
    1W        W48790  11.449  13.644   1.879  0.1906  0.1266  0.1557
    1W        W48791   9.172  19.312   0.578 -0.0765 -0.0861 -0.0367
    1W        W48792  21.191  14.290   6.333  0.0055 -0.1859 -0.1505
    1W        W48793   5.790  12.984   0.154  0.0288  0.1554  0.3408
    1W        W48794   1.532  12.130   2.189 -0.0444  0.0847 -0.0867
    1W        W48795   9.531  24.315   8.808  0.1738  0.1284 -0.0196
    1W        W48796  19.151   9.519   9.554  0.2639  0.3795 -0.0236
    1W        W48797   4.664   9.838   0.460  0.2888  0.0424 -0.0399
    1W        W48798   9.746   3.596   9.578 -0.0319  0.0752  0.2105
    1W        W48799  20.741   0.109   9.481  0.3196 -0.3058  0.2040
    1W        W48800  19.190   6.347   1.273 -0.3574 -0.2638 -0.4297
    1W        W48801  18.744   0.989   2.705  0.1651  0.1259 -0.1258
    1W        W48802  13.078   6.962   6.812  0.0213 -0.0770  0.1515
    1W        W48803   4.574  10.019   6.736 -0.1416  0.3101 -0.1891
    1W        W48804   7.485  18.780   9.907  0.3491  0.1011 -0.1203
    1W        W48805  14.139  17.665   8.059  0.2092 -0.0915 -0.1705
    1W        W48806  19.660   5.967   8.526 -0.0447  0.4119  0.0116
    1W        W48807   1.223  20.072   9.190 -0.2115 -0.0740  0.2199
    1W        W48808  26.370  23.458   2.197 -0.2921 -0.2326  0.0168
    1W        W48809  24.485  26.660   0.274  0.0386 -0.2823  0.0096
    1W        W48810  13.318   9.015   9.189  0.1318  0.2463 -0.0611
    1W        W48811   9.750   4.481   2.641  0.0767 -0.0533 -0.2279
    1W        W48812  13.280  17.031   8.460  0.3182 -0.0505  0.2448
    1W        W48813  27.238   9.851   9.367 -0.1057 -0.0993  0.2170
    1W        W48814  11.589  27.287   6.524 -0.1165  0.1863 -0.1134
    1W        W48815  11.013  28.581   7.169  0.0332  0.2053 -0.0995
    1W        W48816  12.190  23.168   0.870 -0.3340 -0.0236 -0.0559
    1W        W48817  25.554  24.653   8.233 -0.1495 -0.0524  0.0846
    1W        W48818  16.496   7.976   6.057 -0.3329 -0.0732  0.1080
    1W        W48819   2.193   2.157   0.857 -0.4307 -0.2897 -0.2745
    1W        W48820   7.667  21.292   1.441 -0.2465 -0.0146 -0.2306
    1W        W48821  28.402   9.708   9.743 -0.1646 -0.1456 -0.0133
    1W        W48822  13.236  25.263   7.662 -0.0909  0.2373  0.2703
    1W        W48823  24.765  25.433   3.402  0.2771 -0.2295  0.0433
    1W        W48824  18.378  13.992   2.431 -0.5114 -0.0473  0.0689
    1W        W48825  13.634   8.157   1.914 -0.0893  0.0307 -0.1188
    1W        W48826  14.531  16.397   0.950  0.0144  0.2072  0.3301
    1W        W48827  26.483   8.035   1.259  0.1016  0.2752  0.0298
    1W        W48828   0.391   6.973   4.619 -0.0542 -0.1117 -0.1045
    1W        W48829  26.682   4.316   3.154 -0.0629 -0.2020 -0.2011
    1W        W48830   4.598  20.267   7.786  0.0583 -0.1213  0.0482
    1W        W48831  23.189   8.263   1.285  0.0150 -0.0656  0.2444
    1W        W48832  26.464  11.440   9.857  0.2838 -0.0898 -0.0750
    1W        W48833   9.932  17.657   8.572 -0.2061 -0.1721  0.2249
    1W        W48834   9.942   7.336   1.549  0.2755 -0.1246 -0.1540
    1W        W48835  10.971   0.832   0.737 -0.0899  0.0567 -0.1252
    1W        W48836  21.562   5.657   0.173 -0.3425 -0.0794  0.0581
    1W        W48837  23.534   1.937   0.571 -0.2647  0.2294 -0.2643
    1W        W48838  23.173  18.420   2.054  0.0164 -0.0327  0.0858
    1W        W48839   9.515  15.323   9.646  0.0547  0.3226  0.0278
    1W        W48840   4.658  23.662   7.873 -0.2318 -0.0867 -0.0611
    1W        W48841  13.050  27.412   7.225 -0.0951 -0.2460 -0.0785
    1W        W48842  18.221   4.868   6.412  0.1743  0.1760 -0.0473
    1W        W48843   2.365   5.662   9.459  0.0278 -0.1681 -0.1087
    1W        W48844   3.150   6.905   0.933  0.2616 -0.2749  0.1941
    1W        W48845  18.284   0.191   0.159  0.0606 -0.1635 -0.2637
    1W        W48846   9.756  26.826   0.914  0.2564  0.1021 -0.4800
    1W        W48847   8.731  21.556   3.244 -0.0645 -0.0581  0.2151
    1W        W48848  24.310  18.190   0.296 -0.2104  0.0021 -0.0595
    1W        W48849   0.438  12.686   9.837  0.2707 -0.0988  0.0147
    1W        W48850  19.395   3.833   9.936 -0.0331  0.0228 -0.1774
    1W        W48851  17.205   4.338   9.146  0.0360  0.3261 -0.2000
    1W        W48852  14.382   9.175   1.052  0.0991  0.0099  0.0478
    1W        W48853   6.368  27.973   8.586  0.0152 -0.0542 -0.0419
    1W        W48854   4.139  20.925   1.970  0.0676 -0.0556 -0.1019
    1W        W48855  16.943  25.754   1.631  0.0953  0.0856 -0.2060
    1W        W48856  19.600  25.722   9.205 -0.2242  0.0146  0.1360
    1W        W48857  27.410  15.331   1.548 -0.2299 -0.1158 -0.1201
    1W        W48858   5.361  11.452   0.761 -0.0680  0.3021  0.2234
    1W        W48859  21.915  24.439   0.246 -0.3638 -0.1228  0.2450
    1W        W48860  19.229  10.320   2.365 -0.0073  0.1462  0.4189
    1W        W48861  19.467   1.627   2.641 -0.1035 -0.0189 -0.1318
    1W        W48862   1.639  26.769   9.513 -0.0076  0.2227  0.2004
    1W        W48863   5.039   3.221   9.435 -0.0606 -0.0035  0.0316
    1W        W48864  24.772   8.492   0.548  0.0121 -0.0142  0.0293
    1W        W48865  24.662  15.162   9.213  0.1583 -0.0790  0.0583
    1W        W48866  16.470  10.931   5.613 -0.0529 -0.0803 -0.0929
    1W        W48867   4.134   9.100   7.692  0.0832 -0.0892 -0.0937
    1W        W48868  27.764  10.630   7.029 -0.0572  0.3779 -0.2259
    1W        W48869   9.846  25.165   9.028 -0.1858  0.0765  0.0628
    1W        W48870   7.269  22.513   2.509 -0.2338  0.2317  0.2135
    1W        W48871  20.688  18.058   1.855  0.1666  0.0152 -0.1439
    1W        W48872  12.113  18.170   0.397  0.1392 -0.2167 -0.2576
    1W        W48873   3.618   7.993   9.716  0.2362  0.0597 -0.0890
    1W        W48874   9.430   8.367   0.510  0.3413 -0.2409 -0.0961
    1W        W48875  15.211  22.257   3.239 -0.2171 -0.4526 -0.2073
    1W        W48876  17.746  14.204   0.893  0.0412  0.3434  0.0966
    1W        W48877  15.508  27.454   9.008  0.1244 -0.1410 -0.1368
    1W        W48878   3.712  18.304   8.246  0.0795 -0.0718 -0.0452
    1W        W48879   8.951   8.380   1.341  0.1558  0.0795  0.1494
    1W        W48880   0.122   0.946   2.743 -0.0464 -0.0288  0.0880
    1W        W48881   5.763  25.401   8.473  0.0290 -0.4839 -0.0841
    1W        W48882  21.953  22.035   7.285 -0.3447 -0.2351  0.4199
    1W        W48883  13.002  23.149   1.713 -0.2332  0.1988 -0.1320
    1W        W48884  16.880  24.164   2.775  0.0015  0.2480 -0.0973
    1W        W48885   0.733  11.868   2.715 -0.0470 -0.1181 -0.2168
    1W        W48886  12.458   7.669   1.330 -0.0399  0.0416  0.0238
    1W        W48887  18.498  27.376   8.982 -0.0531  0.2765 -0.1088
    1W        W48888   5.093  23.679   3.142 -0.1818  0.1009 -0.1192
    1W        W48889  20.575  18.826   7.053  0.2515 -0.0214  0.1218
    1W        W48890  23.624  12.848   2.229  0.1762 -0.2021  0.2115
    1W        W48891   7.805  22.301   0.457 -0.1320 -0.1524 -0.1098
    1W        W48892  15.961   8.323   6.299  0.3466 -0.3435 -0.0250
    1W        W48893  19.187   5.137   6.022  0.0642  0.0527 -0.1706
    1W        W48894  13.498   4.692   1.592 -0.0065  0.0448  0.1628
    1W        W48895   0.884  15.511   0.790 -0.2765  0.1760  0.0404
    1W        W48896   3.175  24.102   1.060  0.0553  0.1784 -0.0002
    1W        W48897  11.416  15.288   0.542 -0.4027  0.0335 -0.1734
    1W        W48898  14.428  15.962   1.137 -0.0089  0.1212 -0.1631
    1W        W48899  12.993   4.895   9.179 -0.1734 -0.2737 -0.0978
    1W        W48900  18.616  24.358   2.654  0.3508 -0.0805 -0.1902
    1W        W48901   2.792  27.438   0.309 -0.1238  0.2252 -0.0507
    1W        W48902  16.078  13.772   7.055 -0.2034  0.0343 -0.1075
    1W        W48903   8.809   9.338   9.828  0.0041  0.2025  0.1066
    1W        W48904   8.044  24.853   7.763  0.1450 -0.2931 -0.1000
    1W        W48905  22.338  28.075   9.440 -0.0500  0.2291  0.0956
    1W        W48906  22.032  25.009   9.677 -0.2228  0.2146  0.2050
    1W        W48907   9.110  27.855   2.418  0.2044 -0.0240  0.0068
    1W        W48908  21.197  13.490   6.297 -0.0691  0.3150 -0.4863
    1W        W48909   6.540  21.142   0.714  0.1037  0.0213 -0.1145
    1W        W48910   2.238  14.113   2.290  0.0572 -0.2304  0.0629
    1W        W48911  26.460   5.271   2.477 -0.0530  0.1982  0.1069
    1W        W48912   8.027   4.865   9.092 -0.0157 -0.2308  0.2774
    1W        W48913   0.091  10.451   8.140  0.1270 -0.1705 -0.4543
    1W        W48914  22.513  20.153   0.987 -0.0619  0.0739 -0.2711
    1W        W48915   9.305  21.629   2.426  0.1853 -0.2867  0.0593
    1W        W48916   8.469   7.977   9.614  0.2758 -0.1094 -0.2055
    1W        W48917   5.145   1.128   3.874 -0.0340  0.3364 -0.1096
    1W        W48918   2.783  24.998   3.067  0.0054  0.2156  0.1513
    1W        W48919  11.111  27.168   0.035 -0.2528 -0.1364  0.1946
    1W        W48920  14.619  15.482   6.799 -0.0525  0.1714 -0.0796
    1W        W48921  11.138   8.707   0.173  0.4031 -0.1203  0.1741
    1W        W48922  10.911  24.972   9.668  0.1761 -0.1227  0.1803
    1W        W48923  17.248  17.532   8.042 -0.0480  0.0413  0.1360
    1W        W48924  16.645  18.277   0.463 -0.3236  0.0005  0.3324
    1W        W48925  25.880  11.716   3.020 -0.0748 -0.1388 -0.0067
    1W        W48926  26.252  14.209   7.433 -0.2178 -0.2448 -0.0465
    1W        W48927  11.261  14.713   1.033 -0.0226  0.0821 -0.1107
    1W        W48928   8.472  17.920   8.672  0.1177  0.2672  0.2879
    1W        W48929  17.799  13.331   8.152 -0.0419 -0.2087  0.0584
    1W        W48930  28.005  24.695   4.109 -0.2170 -0.3169  0.0008
    1W        W48931  15.535  14.461   1.661 -0.1434  0.1199  0.0924
    1W        W48932   1.486  15.055   7.776  0.1834 -0.1082 -0.1665
    1W        W48933  11.927  21.007   2.409 -0.2975  0.2471 -0.0009
    1W        W48934  19.655  17.818   7.930 -0.1373 -0.1949  0.0607
    1W        W48935  12.740  28.151   2.027 -0.3346 -0.0522  0.0388
    1W        W48936  18.581   8.823   9.322  0.2648 -0.2814  0.0502
    1W        W48937  20.167   0.059   8.666  0.0998  0.0555  0.1865
    1W        W48938   8.357   2.075   2.894  0.0496  0.3092  0.4526
    1W        W48939   9.465  15.274   8.451 -0.0302 -0.1481  0.2617
    1W        W48940  10.226   3.382   7.293  0.0196 -0.0924  0.1869
    1W        W48941  20.095  21.810   9.800  0.0444  0.0928 -0.1133
    1W        W48942  27.274   9.871   7.879  0.0470 -0.2039 -0.1481
    1W        W48943  10.049  18.896   7.279  0.0433 -0.1754  0.0150
    1W        W48944  16.602  21.699   8.665  0.1217 -0.0495  0.1133
    1W        W48945  26.128   9.500   0.201  0.4604 -0.0685 -0.1775
    1W        W48946  10.859   4.394   8.395 -0.1242  0.0165  0.0053
    1W        W48947  26.091  22.435   3.025  0.1576  0.0969  0.0454
    1W        W48948   8.935  18.565   8.008 -0.2950  0.1979 -0.0836
    1W        W48949   2.585  10.540   1.882 -0.0517  0.0030 -0.1291
    1W        W48950  11.357   6.423   1.581 -0.5671 -0.0787 -0.1025
    1W        W48951   5.721   9.563   9.408  0.1242  0.2083 -0.0222
    1W        W48952  18.008  10.727   0.078 -0.2567  0.0303 -0.2077
    1W        W48953  11.304  10.084   0.519 -0.1439 -0.0743  0.3154
    1W        W48954  13.907  10.768   6.134 -0.0144 -0.0022 -0.2290
    1W        W48955  14.936  12.820   7.284  0.0842 -0.1824 -0.2220
    1W        W48956  28.674   4.148   8.238  0.3453 -0.0373 -0.0463
    1W        W48957   4.029   7.996   3.525  0.1400  0.0583  0.0106
    1W        W48958   5.499   1.488   3.811 -0.0466  0.0667 -0.0816
    1W        W48959  16.974  19.381   2.058 -0.0757 -0.0974  0.2689
    1W        W48960   8.039  27.719   8.872 -0.1753  0.0959 -0.2206
    1W        W48961  28.546  13.492   9.027 -0.1666 -0.0237 -0.1666
    1W        W48962   4.135  21.366   8.267 -0.1327 -0.0153 -0.0431
    1W        W48963  21.251   1.226   3.294  0.1902 -0.0523 -0.2353
    1W        W48964   9.304  12.429   6.674 -0.0734 -0.0944  0.1396
    1W        W48965  17.781  21.220   0.858 -0.0885  0.0620  0.3097
    1W        W48966   9.727  11.712   1.254 -0.0282 -0.0218 -0.0665
    1W        W48967  12.762   7.896   7.338 -0.1664 -0.0005 -0.2914
    1W        W48968  28.760   9.557   8.457  0.0371 -0.0517 -0.1420
    1W        W48969   8.745  16.621   7.783  0.0029 -0.0675 -0.1396
    1W        W48970  11.494   1.789   0.538 -0.0750 -0.4068 -0.1038
    1W        W48971  21.946  25.677   8.658 -0.1797 -0.2652 -0.0338
    1W        W48972   7.783  15.392   7.157  0.0207  0.0096  0.0305
    1W        W48973  25.062  26.766   1.320 -0.1384 -0.0950  0.0753
    1W        W48974  27.538   0.671   1.577 -0.0857  0.0201  0.2607
    1W        W48975  11.952  12.255   8.619 -0.0346  0.1035 -0.2472
    1W        W48976  13.691   3.861   8.707 -0.0625  0.0729  0.0046
    1W        W48977   9.839  21.213   1.289  0.3273  0.2991 -0.1721
    1W        W48978  16.318  27.504   1.456  0.0006  0.2699  0.0624
    1W        W48979   4.064   3.148   9.239  0.1943 -0.0266  0.0928
    1W        W48980  19.188   1.074   8.000 -0.1701  0.1015  0.3806
    1W        W48981  23.670  13.854   0.914 -0.0537 -0.0790 -0.2308
    1W        W48982  27.207   1.305   8.811  0.1752 -0.0035 -0.2313
    1W        W48983  24.493   9.609   8.476 -0.0754  0.2284 -0.0852
    1W        W48984  19.080   7.120   7.752  0.0167 -0.0393 -0.1898
    1W        W48985  27.430  26.141   8.646  0.0303 -0.2185  0.2294
    1W        W48986  12.057  26.604   7.613  0.0111  0.0472 -0.1669
    1W        W48987  13.575   6.832   6.740  0.0276  0.2296 -0.0714
    1W        W48988  23.604  26.641   3.182 -0.0336 -0.0444  0.1439
    1W        W48989  11.765  26.582   8.080 -0.0469  0.1833 -0.0987
    1W        W48990   5.203  13.947   2.554  0.4693 -0.1039 -0.0266
    1W        W48991   7.426   0.318   8.998 -0.1376 -0.0066  0.4638
    1W        W48992  12.072  18.497   2.686 -0.0002  0.2221  0.2226
    1W        W48993  11.266  26.853   8.985 -0.0488 -0.0191  0.1043
    1W        W48994  25.093  15.344   9.361  0.1664  0.2114  0.2988
    1W        W48995  14.920   2.067   1.224  0.0615  0.0546 -0.0919
    1W        W48996  13.750  17.763   1.996 -0.3324  0.0684  0.2433
    1W        W48997  13.061  15.140   8.292 -0.0111 -0.0842 -0.3573
    1W        W48998   7.572  10.592   1.629 -0.1770  0.2008  0.3531
    1W        W48999  28.194   1.448   2.817 -0.1387  0.0644 -0.2513
    1W        W49000   9.050   2.878   6.803  0.0563 -0.1695  0.0491
    1W        W49001  13.247  16.532   6.811 -0.2732  0.0880 -0.0282
    1W        W49002  18.147  27.956   3.043  0.2572 -0.0209  0.1669
    1W        W49003   5.706  27.918   1.223  0.1713 -0.0292  0.1009
    1W        W49004  26.538  20.941   2.716 -0.1441 -0.1571  0.1488
    1W        W49005  21.887  20.568   8.536 -0.0270 -0.1740  0.2570
    1W        W49006   4.948  11.211   2.330 -0.0776  0.0659  0.1767
    1W        W49007   8.179  17.128   1.017  0.0882  0.2248 -0.1244
    1W        W49008  28.263  20.792   3.497  0.1831  0.3084 -0.0498
    1W        W49009   6.499  24.638   2.843 -0.0273  0.1079 -0.0650
    1W        W49010  17.905  22.934   7.923  0.1402  0.0682 -0.1125
    1W        W49011   8.967  11.273   8.929 -0.0429  0.2877  0.0204
    1W        W49012  20.285   1.006   1.335  0.1374  0.0426  0.1188
    1W        W49013   5.999  24.488   1.514 -0.0973 -0.2142 -0.1595
    1W        W49014  26.507   3.612   0.179  0.1607 -0.2926 -0.0498
    1W        W49015  28.369  22.962   1.397 -0.0206  0.0480 -0.0826
    1W        W49016  27.294  26.202   2.785 -0.0948 -0.3252  0.2765
    1W        W49017  13.053  13.078   0.446  0.0808 -0.1995  0.1450
    1W        W49018   9.119  23.891   0.333  0.1004 -0.0261 -0.2192
    1W        W49019   6.267   0.225   9.377  0.2068 -0.0798  0.1230
    1W        W49020   5.032   0.550   2.536  0.0669  0.4066  0.0695
    1W        W49021  19.019   8.959   9.713 -0.0523 -0.1145  0.0399
    1W        W49022  14.466  21.734   0.442  0.4508  0.0817  0.1434
    1W        W49023   3.167   7.123   0.177 -0.1264 -0.1559 -0.0396
    1W        W49024   1.679  11.377   7.011  0.1028 -0.2336  0.2105
    1W        W49025  13.930  15.541   1.793 -0.1057 -0.0018  0.0714
    1W        W49026   8.140   7.321   8.764 -0.1727 -0.0133  0.2013
    1W        W49027  26.242   1.422   8.333 -0.0745 -0.1845 -0.1425
    1W        W49028  19.995   7.642   9.502 -0.1019  0.1436 -0.1448
    1W        W49029   8.417   6.749   0.885  0.1662 -0.0308  0.1667
    1W        W49030  17.288  28.848   1.112  0.0568  0.1051  0.1430
    1W        W49031  19.069  17.796   5.851  0.2311  0.2538 -0.2879
    1W        W49032  23.980  20.012   3.426 -0.0761 -0.2093 -0.1897
    1W        W49033  25.185  13.694   2.576 -0.2567 -0.2875 -0.2087
    1W        W49034  15.405   9.764   0.070 -0.1314 -0.0059  0.1147
    1W        W49035  18.701  18.767   6.905 -0.1938 -0.1726  0.1585
    1W        W49036   3.726  23.982   2.939  0.1716  0.1999 -0.0244
    1W        W49037   5.342  13.014   2.060  0.0867  0.0976  0.1976
    1W        W49038   4.887  19.984   9.306 -0.0386 -0.1506  0.0006
    1W        W49039  28.641  20.210   2.735  0.4013 -0.1999 -0.1208
    1W        W49040  19.431  22.649   0.869 -0.0629 -0.0005  0.1311
    1W        W49041  24.023  20.724   9.378 -0.0882  0.0221 -0.1013
    1W        W49042  13.013  22.022   1.421 -0.1575 -0.0980  0.0669
    1W        W49043   9.418  23.212   0.329 -0.0602 -0.3508  0.3022
    1W        W49044   3.296  28.113   3.382  0.1732  0.0384  0.2317
    1W        W49045  11.959  17.957   0.849  0.0649 -0.0566 -0.1264
    1W        W49046  24.746  22.941   2.729 -0.2245  0.1507 -0.2129
    1W        W49047  18.431  24.631   1.856  0.0124  0.0584 -0.1321
    1W        W49048  26.610   2.591   9.354 -0.1108 -0.1214 -0.1574
    1W        W49049  23.675   0.197   2.812  0.0190 -0.2452 -0.1890
    1W        W49050  12.117   0.900   2.285  0.2496  0.3032  0.2123
    1W        W49051   9.158  19.761   0.829  0.3462  0.4515 -0.0972
    1W        W49052   1.564  23.113   7.633 -0.2051 -0.1882 -0.0317
    1W        W49053  26.755   8.077   9.127 -0.1234 -0.0839 -0.1111
    1W        W49054  25.679   1.287   0.200  0.0897  0.1245 -0.1067
    1W        W49055  17.348   0.280   0.630  0.2179 -0.0508 -0.3672
    1W        W49056   7.875  14.218   8.162  0.1780 -0.2542 -0.0583
    1W        W49057  19.476   2.664   2.051  0.0265  0.1873  0.0182
    1W        W49058   7.302  12.488   7.757  0.3614 -0.0775  0.1568
    1W        W49059  19.887  15.664   7.198 -0.0850 -0.2174  0.2887
    1W        W49060  16.848   3.594   7.658  0.0534  0.0335  0.2888
    1W        W49061  20.048  12.397   9.977 -0.4123  0.2470  0.0804
    1W        W49062   2.922  24.186   8.226 -0.0448  0.0372 -0.0796
    1W        W49063  17.013   9.024   8.909 -0.0639 -0.1487  0.1497
    1W        W49064  17.334  28.169   2.080  0.1638 -0.2294 -0.3364
    1W        W49065  23.761   7.313   1.468 -0.0047  0.0206  0.0335
    1W        W49066  19.714   7.975   2.225 -0.0438  0.2239  0.0755
    1W        W49067  15.651  11.497   0.618 -0.3085 -0.1350  0.3723
    1W        W49068   1.714  20.347   9.259  0.1342 -0.1461 -0.2673
    1W        W49069  25.384  12.906   3.263 -0.2839 -0.0066  0.1053
    1W        W49070  16.641   9.415   8.919  0.0569  0.2899  0.1894
    1W        W49071  14.092  24.082   2.494 -0.0242  0.1858  0.3502
    1W        W49072   0.870  17.761   0.394  0.0721  0.1750 -0.0416
    1W        W49073   2.329  22.989   2.271 -0.1414 -0.0658  0.3078
    1W        W49074  26.273   1.949   0.455 -0.0856  0.1289 -0.3434
    1W        W49075  17.989   5.357   5.689 -0.1017 -0.1023 -0.0100
    1W        W49076  16.577  14.236   1.867  0.0732  0.0744 -0.2750
    1W        W49077  14.640  21.184   0.773  0.2108 -0.3315 -0.0701
    1W        W49078  13.778  11.249   8.978 -0.2672 -0.1165  0.1100
    1W        W49079  11.190  23.280   0.243  0.0047  0.1943  0.2060
    1W        W49080  22.869  25.101   7.305  0.2288  0.2240 -0.2414
    1W        W49081  17.686  11.310   1.823  0.0192 -0.2140 -0.5358
    1W        W49082  16.967  17.329   6.579  0.0682  0.0619  0.2851
    1W        W49083   6.912   3.372   0.324  0.0755 -0.1745 -0.0389
    1W        W49084  11.170  22.840   3.310 -0.3884 -0.0933 -0.0502
    1W        W49085   5.170   5.292   3.039 -0.0987 -0.1392 -0.3478
    1W        W49086  18.015   2.476   0.019 -0.0016 -0.0399 -0.4075
    1W        W49087  25.538  10.153   8.935 -0.0215 -0.3232 -0.1694
    1W        W49088   1.600   2.961   9.892 -0.1369 -0.0139 -0.0167
    1W        W49089   2.042  25.917   4.154 -0.0954  0.5641  0.1178
    1W        W49090   2.026   2.595   2.735  0.1128 -0.0520  0.5008
    1W        W49091   8.000  11.831   1.893 -0.2979 -0.0528 -0.0410
    1W        W49092  16.080   4.957   1.198  0.2552  0.0461  0.1467
    1W        W49093  26.260   8.030   9.270 -0.2230 -0.0203  0.1355
    1W        W49094  26.836   0.511   8.480  0.0668  0.1654 -0.2080
    1W        W49095  25.330  13.414   1.669  0.1150  0.2816  0.6492
    1W        W49096  25.966  13.648   2.682  0.0252 -0.0773  0.3063
    1W        W49097  19.946   0.278   9.038 -0.1541  0.1454 -0.0739
    1W        W49098  15.018  13.505   8.059  0.0071 -0.2581 -0.3479
    1W        W49099  14.485   9.013   8.623 -0.0344 -0.2491  0.0582
    1W        W49100   5.874  17.657   7.515 -0.1949  0.0456 -0.1698
    1W        W49101  26.434   9.562   8.103  0.1656 -0.0396 -0.1323
    1W        W49102  28.364   5.745   0.129 -0.1320 -0.2941  0.0858
    1W        W49103   1.912   6.200   9.734 -0.1263 -0.2093  0.2413
    1W        W49104  22.551  13.794   9.755 -0.1309 -0.0264 -0.0729
    1W        W49105  26.615  25.387   0.657  0.2066 -0.1466 -0.0514
    1W        W49106  14.182  25.573   0.201  0.4206  0.2880 -0.0032
    1W        W49107  13.004  18.787   2.588 -0.0250 -0.2588 -0.1333
    1W        W49108  18.585  21.076   8.242 -0.0596  0.1061 -0.1656
    1W        W49109  12.465  21.873   1.289 -0.0142  0.2812  0.0889
    1W        W49110  25.921  24.968   8.748 -0.0077  0.1561 -0.1538
    1W        W49111  18.038  23.270   0.923  0.2151 -0.0987  0.0575
    1W        W49112  20.269   7.362   1.351 -0.0297 -0.1231  0.0454
    1W        W49113   0.746   6.799   1.698 -0.3129  0.1136 -0.0852
    1W        W49114   6.956  22.883   1.364  0.1531 -0.1384  0.1456
    1W        W49115   2.197  27.833   1.476 -0.1052  0.0931  0.0485
    1W        W49116   5.046  11.840   8.012 -0.1292  0.3368 -0.1332
    1W        W49117  15.234  16.690   8.381 -0.0451  0.2917  0.2396
    1W        W49118   8.783  10.017   9.218 -0.0122  0.1286 -0.0228
    1W        W49119  27.978  18.578   4.145 -0.0181 -0.1516  0.1490
    1W        W49120  27.813  14.597   3.225  0.1325  0.3489 -0.0974
    1W        W49121  19.739  24.440   2.029  0.1213 -0.0293 -0.2871
    1W        W49122  12.868  21.389   2.106  0.0072 -0.0496  0.2712
    1W        W49123  19.044   9.653   1.194 -0.1260  0.2978 -0.2731
    1W        W49124  20.156  25.070   7.594 -0.0557  0.1991  0.0263
    1W        W49125  21.833  15.532   9.971  0.0597  0.2654  0.0067
    1W        W49126  10.532   3.356   8.419  0.0354 -0.1813  0.1057
    1W        W49127  13.002  26.950   9.740  0.2099 -0.0436 -0.0991
    1W        W49128  19.741   6.882   9.907 -0.2548  0.0670  0.1743
    1W        W49129   4.970  25.421   0.595 -0.0367 -0.1829 -0.1973
    1W        W49130   8.264   0.241   9.966 -0.0275  0.0600  0.1200
    1W        W49131  21.196  21.969   7.895  0.0169 -0.1402  0.0324
    1W        W49132  23.278  25.214   7.513 -0.0615 -0.2346  0.2646
    1W        W49133   3.605   3.501   8.669 -0.1190 -0.1202  0.0162
    1W        W49134   4.952   1.565   2.681  0.1663  0.2301 -0.3561
    1W        W49135  11.332   2.004   7.339 -0.0053 -0.2807  0.0299
    1W        W49136  27.848  22.151   1.318 -0.2253 -0.2220  0.1839
    1W        W49137   3.959   2.941   1.300  0.0808  0.1409  0.2641
    1W        W49138   3.062  17.698   2.698 -0.1985  0.1518  0.1152
    1W        W49139  17.273  17.702   9.247  0.1608  0.1564 -0.1304
    1W        W49140  20.825  27.432   9.709 -0.4415 -0.1189 -0.2737
    1W        W49141  16.393   5.837   8.727  0.2293 -0.1694  0.3080
    1W        W49142  10.018  19.747   8.905  0.1680 -0.2371  0.1405
    1W        W49143  23.668  22.472   7.202  0.1130  0.1135  0.1944
    1W        W49144  17.372   6.900   0.416 -0.1388 -0.1627  0.3037
    1W        W49145  26.601   7.255   8.850  0.4114 -0.0423 -0.4646
    1W        W49146   9.425  16.368   0.848 -0.1351  0.0738 -0.1596
    1W        W49147  28.783  11.226   1.824  0.2672  0.0851  0.3169
    1W        W49148  17.125  11.840   9.730  0.3809  0.0388  0.0294
    1W        W49149   5.673  27.239   3.306  0.0917 -0.0449  0.1042
    1W        W49150  26.136  14.349   3.284 -0.0589 -0.0556 -0.0702
    1W        W49151   9.016   4.692   8.905 -0.0323 -0.1618  0.2479
    1W        W49152  25.695  17.401   8.520  0.1548 -0.3360 -0.0528
    1W        W49153  12.962  22.624   9.367  0.2628 -0.0098  0.2422
    1W        W49154  17.863  28.611   8.741  0.0102  0.3404 -0.0543
    1W        W49155  16.402  21.138   1.902 -0.0583 -0.1379  0.2188
    1W        W49156  23.665   8.042   6.556 -0.0284  0.0996  0.2419
    1W        W49157   7.128  14.604   9.816 -0.0408 -0.0105  0.2464
    1W        W49158  24.896   7.647   1.194 -0.0812  0.2210 -0.2018
    1W        W49159  22.565   3.842   0.599  0.0653  0.2599  0.0238
    1W        W49160  16.098   5.580   9.899  0.0881  0.3017  0.0680
    1W        W49161  18.146  22.898   8.937  0.0480 -0.2309  0.0133
    1W        W49162   9.504  16.981   1.580 -0.2029 -0.2170  0.1879
    1W        W49163  12.824  20.344   9.403 -0.0899  0.4081  0.1701
    1W        W49164  20.110  14.577   2.222  0.3642  0.0147  0.1047
    1W        W49165   0.861  17.433   3.738  0.0708  0.1788  0.0579
    1W        W49166   4.332  10.808   8.947 -0.3896 -0.1989 -0.1070
    1W        W49167   5.566   6.037   2.959  0.0396  0.0432  0.0092
    1W        W49168  16.286  17.238   2.665  0.0787  0.0689 -0.2932
    1W        W49169  15.640  25.515   0.686 -0.0873 -0.2098  0.0736
    1W        W49170  15.377  13.286   6.034 -0.0447  0.1013 -0.0017
    1W        W49171  15.919   7.859   6.656  0.1747 -0.0204  0.0380
    1W        W49172  10.194   5.915   8.487  0.2208 -0.1714  0.0889
    1W        W49173  28.265   5.969   2.953 -0.0010  0.1631  0.0029
    1W        W49174  18.203  19.339   8.489 -0.3098  0.3125 -0.3047
    1W        W49175   7.968   2.995   1.937  0.0396 -0.2216 -0.1931
    1W        W49176  13.506  12.509   1.989  0.0940  0.2897 -0.2915
    1W        W49177  21.759   0.309   8.081  0.3190  0.1929 -0.2349
    1W        W49178  24.326  10.243   9.236 -0.0823 -0.1634 -0.0177
    1W        W49179  25.662  11.392   8.755 -0.1862 -0.0014  0.0657
    1W        W49180  21.922   9.829   1.749 -0.1513  0.1201  0.0401
    1W        W49181   5.080   0.387   9.966  0.0265 -0.0135  0.2554
    1W        W49182  14.257  16.874   9.624  0.1817 -0.0582  0.2769
    1W        W49183   3.287   5.834   3.142  0.2105  0.0339 -0.0937
    1W        W49184   1.968  28.437   1.568 -0.1216 -0.0371 -0.0266
    1W        W49185  11.488   7.545   8.447  0.1055 -0.0624 -0.2895
    1W        W49186   6.474  23.064   8.446  0.0457  0.1194  0.1989
    1W        W49187  17.593  23.188   1.755  0.1520  0.3543 -0.2571
    1W        W49188  22.935   1.340   7.504  0.2018  0.1293  0.0478
    1W        W49189  23.614  25.118   7.853  0.0526 -0.2500  0.2612
    1W        W49190  17.908   6.761   6.468 -0.0600  0.0543  0.0462
    1W        W49191  19.955  18.055   2.942 -0.4299  0.0339  0.3603
    1W        W49192  14.381   0.812   7.471  0.2946  0.2344 -0.1206
    1W        W49193  16.995   0.477   8.080 -0.1284  0.1020  0.1112
    1W        W49194   5.560   0.104   1.759  0.0620 -0.1088  0.0694
    1W        W49195  23.127  26.420   3.094 -0.3702 -0.1007 -0.0068
    1W        W49196  25.900   5.748   3.441  0.2284 -0.0297  0.0125
    1W        W49197   5.250  18.223   8.635  0.0053  0.2551 -0.0184
    1W        W49198  18.440   9.905   1.528  0.4272  0.0914  0.0166
    1W        W49199   0.659  26.691   9.830 -0.1192  0.4606 -0.0227
    1W        W49200   4.478  24.620   9.968 -0.3033  0.3041  0.3869
    1W        W49201  22.563  13.965   1.143 -0.4106  0.1134 -0.2359
    1W        W49202   0.805   5.929   3.418 -0.1035 -0.0445 -0.0799
    1W        W49203  20.414  27.857   2.602 -0.0831 -0.0985  0.3048
    1W        W49204   0.285  11.283   9.034 -0.0721  0.0124 -0.1026
    1W        W49205  17.738  25.343   8.030 -0.1176  0.0199 -0.0200
    1W        W49206   5.714  26.875   1.734  0.0543  0.0582  0.0460
    1W        W49207   6.541   0.299   9.766  0.0337  0.0433 -0.1100
    1W        W49208  28.488   5.204   9.320  0.0260 -0.2197 -0.0118
    1W        W49209  18.954   1.597   7.882 -0.0973  0.2319  0.0863
    1W        W49210  18.748  18.762   2.205 -0.0323 -0.1291  0.2886
    1W        W49211  13.777  14.053   6.943 -0.0360  0.1380  0.0338
    1W        W49212   6.719   3.860   8.879  0.0336 -0.0107  0.2256
    1W        W49213  28.445  11.866   9.047 -0.3087 -0.2117  0.2975
    1W        W49214  18.729  26.612   7.056 -0.0597 -0.1491 -0.1328
    1W        W49215  23.756   9.121   7.740  0.1923  0.0714 -0.0488
    1W        W49216   3.946  11.048   8.356  0.1179  0.2922 -0.0044
    1W        W49217  17.352  19.888   9.016  0.2752  0.1458  0.3670
    1W        W49218  11.771  17.440   9.872 -0.1042  0.1485 -0.0571
    1W        W49219  16.796  18.807   2.210 -0.0135 -0.4436 -0.0687
    1W        W49220  13.772  24.491   9.735 -0.4666 -0.0924  0.2748
    1W        W49221  16.862   8.303   0.721  0.1133  0.0753 -0.0302
    1W        W49222  12.462  28.177   9.393  0.0330 -0.3425  0.0204
    1W        W49223  13.501  25.533   3.384  0.1946  0.1863 -0.0187
    1W        W49224  22.854   7.379   1.599  0.1179 -0.1108 -0.0239
    1W        W49225  10.974   7.403   8.311 -0.0417 -0.2022  0.1852
    1W        W49226  18.133  13.649   0.012 -0.1762 -0.2394 -0.0390
    1W        W49227  16.661  27.361   8.801  0.0501  0.1534  0.1563
    1W        W49228  12.700  18.005   2.832 -0.2686 -0.1434 -0.0063
    1W        W49229  25.057  18.950   0.259 -0.1714  0.0266  0.1584
    1W        W49230  28.839  25.083   0.781  0.0249  0.0054 -0.0121
    1W        W49231  23.937  13.438   9.748  0.1523 -0.0488  0.0097
    1W        W49232  12.808  26.052   7.647 -0.0788  0.1751 -0.0265
    1W        W49233  26.219   2.771   9.588  0.2719 -0.0338 -0.1298
    1W        W49234  24.879  19.736   0.610  0.0066 -0.4804  0.2636
    1W        W49235  17.232   9.091   9.448  0.0133 -0.1631  0.1633
    1W        W49236  16.596   3.701   0.759 -0.0351  0.0080  0.1578
    1W        W49237  17.262  25.891   8.593  0.2311 -0.0953  0.1874
    1W        W49238  17.045  26.580   9.890 -0.2837  0.0273  0.0421
    1W        W49239   5.464   4.326   3.903 -0.1842  0.4990 -0.2682
    1W        W49240  20.976  26.631   1.213 -0.2223  0.1208  0.3400
    1W        W49241  15.113  23.993   1.729  0.2715 -0.0331  0.0381
    1W        W49242  19.146   2.995   0.757 -0.0297 -0.1185  0.1196
    1W        W49243  11.369  23.820   0.885 -0.4128  0.4354  0.1818
    1W        W49244   7.741   7.866   7.938 -0.1204 -0.1222  0.0106
    1W        W49245   1.539  20.689   2.437  0.0580 -0.0061  0.2394
    1W        W49246   6.263  28.477   3.544 -0.1562 -0.1067 -0.2320
    1W        W49247  14.578   5.745   8.006  0.0255 -0.1954 -0.0666
    1W        W49248  22.247  20.008   8.785  0.2366  0.4924  0.1561
    1W        W49249   4.674   0.164   8.335  0.0483  0.1976  0.1769
    1W        W49250  24.575  10.779   7.966  0.1506 -0.0628 -0.0040
    1W        W49251   7.374  10.261   7.374 -0.1538  0.1732  0.0625
    1W        W49252  17.552  15.807   3.010  0.1298  0.2380 -0.2979
    1W        W49253   7.309  14.670   9.329  0.2546 -0.0073 -0.3191
    1W        W49254  13.361  19.946   3.002  0.2762  0.0926 -0.0411
    1W        W49255   5.149  16.885   9.830  0.2587  0.2913  0.0458
    1W        W49256  14.860   7.666   7.588  0.0428 -0.1511  0.1922
    1W        W49257  13.520  11.679   8.000  0.1437  0.3139  0.1726
    1W        W49258   7.809  23.483   1.046  0.0461 -0.1435  0.2387
    1W        W49259  15.580  17.266   0.690  0.1060 -0.0209  0.0517
    1W        W49260  18.872  17.757   7.229  0.1379  0.0601  0.1431
    1W        W49261   1.520  25.929   9.628  0.0926 -0.3270 -0.0821
    1W        W49262   6.556  16.571   8.258  0.0503 -0.1021 -0.0484
    1W        W49263  11.777  25.307   0.383 -0.0217 -0.2689  0.1167
    1W        W49264  26.197  20.194   2.058 -0.1197 -0.2225  0.0968
    1W        W49265  10.626  12.709   8.336 -0.1202 -0.0980  0.1781
    1W        W49266   0.451  11.115   9.446  0.2406  0.1149  0.0052
    1W        W49267   3.936  15.500   1.738 -0.0219  0.2298 -0.2336
    1W        W49268   1.136   0.826   3.107  0.0314  0.2190  0.0088
    1W        W49269   6.456   0.005   0.186 -0.0037  0.1170  0.0388
    1W        W49270  11.348   5.149   1.413  0.2554  0.1304 -0.2609
    1W        W49271  21.516  25.200   9.398  0.1021  0.2235 -0.3939
    1W        W49272  20.372  18.967   6.158 -0.1706 -0.0139 -0.0017
    1W        W49273   6.813  24.207   1.997  0.1573 -0.2397  0.0755
    1W        W49274   5.130   6.789   9.953  0.1401 -0.1347 -0.2300
    1W        W49275   9.467  13.361   8.842  0.0974  0.2611  0.2385
    1W        W49276  23.217  21.837   9.973 -0.0278  0.1070 -0.0440
    1W        W49277  15.850  15.161   7.059 -0.1566 -0.1577 -0.2051
    1W        W49278  26.430   0.335   0.006 -0.0071  0.1812  0.0555
    1W        W49279  24.248  22.783   2.759 -0.3290  0.5002 -0.2251
    1W        W49280  26.924  15.274   1.708  0.1464  0.1696 -0.0692
    1W        W49281  18.572   0.373   9.023 -0.2525  0.1164 -0.2266
    1W        W49282  13.776   6.641   5.812 -0.0930 -0.0899  0.2663
    1W        W49283   3.827  14.645   2.216 -0.0220  0.0421  0.0434
    1W        W49284  17.761  17.750   8.998 -0.0341  0.1892  0.3291
    1W        W49285  12.323   5.702   7.133 -0.0051 -0.0232  0.3291
    1W        W49286  27.444   1.537   2.721  0.1312  0.3140 -0.1390
    1W        W49287   8.202   4.113   7.916  0.0159 -0.1273  0.3310
    1W        W49288   3.467  25.062   7.785 -0.0999 -0.0468  0.2305
    1W        W49289   8.966   5.549   1.207  0.2868  0.0804  0.2883
    1W        W49290   0.472   2.073   8.197 -0.1393 -0.2577  0.1180
    1W        W49291   0.340  21.818   1.773  0.0579 -0.1378  0.3783
    1W        W49292  11.233  10.376   0.895  0.1825 -0.0279 -0.1094
    1W        W49293   2.448   3.206   8.161 -0.1017 -0.0129 -0.1788
    1W        W49294  19.723  27.658   7.967 -0.0021 -0.0797  0.1160
    1W        W49295  24.749  11.107   8.309  0.3135  0.1504 -0.2129
    1W        W49296   7.226   6.650   2.804  0.2557  0.0132 -0.0422
    1W        W49297  20.543  20.789   9.373 -0.1209 -0.0583 -0.0856
    1W        W49298  24.029  20.421   3.102 -0.2470  0.0661 -0.2060
    1W        W49299  23.399   0.877  10.003 -0.0002  0.0275  0.0830
    1W        W49300  13.155  23.633   7.118  0.0962  0.0037 -0.0386
    1W        W49301  25.038   1.334   2.704  0.2674 -0.2215  0.0388
    1W        W49302  25.803  24.233   8.298 -0.0697 -0.0193 -0.5023
    1W        W49303   7.319   5.720   1.275 -0.2335 -0.0883  0.0264
    1W        W49304  16.401  17.407   1.571 -0.2270  0.0324  0.0156
    1W        W49305  17.636  19.542   0.522 -0.2696  0.0124  0.1752
    1W        W49306  16.113  23.527   6.707 -0.0994 -0.3048  0.2356
    1W        W49307   5.456   6.845   6.817 -0.1852 -0.3229  0.2787
    1W        W49308   2.669   9.951   3.845 -0.1336  0.4466 -0.1855
    1W        W49309  12.250  11.706   7.428 -0.0661 -0.0887 -0.1608
    1W        W49310   6.679  15.339   0.013 -0.2066 -0.0743 -0.0843
    1W        W49311  14.796   5.641   9.579  0.2708 -0.0020 -0.1908
    1W        W49312   6.348  19.033   2.026  0.1389 -0.2117 -0.0120
    1W        W49313  27.003  18.790   4.002 -0.1889 -0.3355  0.1239
    1W        W49314   9.263  24.063   7.439 -0.1913  0.4225  0.2762
    1W        W49315  26.365   3.184   2.385 -0.2536  0.1370 -0.0379
    1W        W49316  12.893  10.933   9.479  0.1653 -0.1389  0.0578
    1W        W49317   5.623   7.154   8.707  0.0594  0.0922 -0.1718
    1W        W49318   5.669  23.090   7.174 -0.0241  0.2842 -0.1082
    1W        W49319   9.920  17.011   7.175  0.1512  0.2527 -0.0398
    1W        W49320  12.210  24.909   7.948 -0.2159 -0.0070 -0.0912
    1W        W49321  25.840  20.595   9.332 -0.2001  0.0842  0.0192
    1W        W49322   2.999   2.252   2.815 -0.2008  0.1110 -0.0662
    1W        W49323  19.626  10.043   8.869  0.1805 -0.1237  0.0590
    1W        W49324  23.139  20.744   1.571  0.0080  0.1240  0.1225
    1W        W49325   3.026   4.650   8.131 -0.3781  0.0826  0.2943
    1W        W49326  24.636   1.516   0.048 -0.2871  0.0271  0.0070
    1W        W49327  16.688  21.017   6.895 -0.1304 -0.0250 -0.2072
    1W        W49328   1.893   7.556   8.692  0.1652  0.1070 -0.1635
    1W        W49329   9.562  11.197   1.159 -0.2400 -0.0508 -0.1838
    1W        W49330   0.019  19.384   3.099  0.2281 -0.2062 -0.3171
    1W        W49331  19.137  21.779   1.535  0.1508  0.2097 -0.1561
    1W        W49332   2.804   3.482   8.394 -0.0436  0.0963 -0.1595
    1W        W49333   6.786  27.041   9.205 -0.0509 -0.2235  0.1090
    1W        W49334   5.416  18.535   2.751 -0.1723 -0.0363 -0.0767
    1W        W49335  20.287  14.726   8.347 -0.0992 -0.1122  0.1638
    1W        W49336  26.459  24.438   3.127 -0.0064  0.0514  0.1374
    1W        W49337  15.386  25.243   9.646  0.2089 -0.2259 -0.1652
    1W        W49338   4.835   3.717   9.226 -0.0417  0.4948 -0.1404
    1W        W49339  27.056  19.504   7.589  0.2105  0.1088  0.0788
    1W        W49340  12.185  25.126   8.456 -0.2206  0.0537 -0.0841
    1W        W49341  12.898  13.172   9.583  0.1679 -0.1392  0.1029
    1W        W49342  18.934  26.383   8.084 -0.1764  0.2011  0.2018
    1W        W49343   7.837  19.940   2.362  0.0602 -0.0191  0.0396
    1W        W49344   1.978  27.870   2.374  0.1506 -0.1720  0.1133
    1W        W49345  13.949  19.203   9.279  0.0451  0.0401 -0.1146
    1W        W49346  21.127  10.889   0.102  0.0466 -0.2369 -0.1506
    1W        W49347   5.295  24.164   1.307 -0.2602 -0.0910 -0.0938
    1W        W49348  26.062   8.162   7.670 -0.0391  0.2660  0.1039
    1W        W49349  25.255  19.695   8.216 -0.0048 -0.0190 -0.0543
    1W        W49350   5.099  13.035   7.587  0.1858 -0.0889  0.0769
    1W        W49351  22.829   8.519   7.783 -0.2195  0.2671  0.1596
    1W        W49352  21.401   4.170   1.595  0.0527 -0.2966  0.0791
    1W        W49353   4.363  23.510   0.657 -0.1587  0.0074 -0.1116
    1W        W49354   6.154   3.793   8.002 -0.1635 -0.0953  0.4950
    1W        W49355   5.869   9.424   0.863  0.2006 -0.3511 -0.1427
    1W        W49356   0.297  28.464   1.021  0.1613 -0.0310 -0.0791
    1W        W49357  19.729  18.067   8.819 -0.0918  0.0925 -0.1231
    1W        W49358   5.261   2.995   4.108 -0.0251  0.0393 -0.0238
    1W        W49359  13.662  25.703   0.564  0.3528 -0.0421 -0.3868
    1W        W49360  20.813   5.227   0.366 -0.1430 -0.1723 -0.3268
    1W        W49361  15.724  19.385   0.900 -0.6673 -0.0917  0.0191
    1W        W49362   4.395  26.640   3.917  0.0833  0.0370 -0.0058
    1W        W49363  19.066  17.484   0.514  0.3733  0.0292  0.3433
    1W        W49364  24.465  18.713   9.520 -0.0759 -0.0001  0.3072
    1W        W49365   6.694  25.721   1.170 -0.1100 -0.1406  0.2770
    1W        W49366  15.554   6.821   1.393  0.3778 -0.0706 -0.0592
    1W        W49367  16.704   0.496   0.613  0.1498  0.1243  0.0968
    1W        W49368   4.079  10.940   2.512 -0.1957  0.0634  0.1008
    1W        W49369  24.406  18.272   7.465  0.0774  0.0932  0.1209
    1W        W49370  26.815   8.841   1.547  0.3645 -0.1930 -0.2313
    1W        W49371   4.737  26.871   2.466  0.2677  0.0928  0.1088
    1W        W49372  12.464   5.710   9.640 -0.1673 -0.0905 -0.0595
    1W        W49373  20.210  10.486   2.592 -0.0492  0.4040  0.1647
    1W        W49374  16.721   3.117   7.919 -0.1185 -0.0796  0.2615
    1W        W49375   3.058  15.371   8.052  0.1819  0.0847  0.3167
    1W        W49376  13.244  13.643   8.190 -0.0032 -0.0290 -0.0687
    1W        W49377   0.790  23.424   2.718 -0.0258  0.1547  0.1027
    1W        W49378   3.824  12.274   2.690 -0.1855 -0.2899  0.1835
    1W        W49379  15.738  25.436   1.245  0.1655  0.1859 -0.0469
    1W        W49380   0.982  19.646   3.466  0.0536 -0.0056 -0.0036
    1W        W49381  19.714  23.125   6.851 -0.1776  0.0902  0.0597
    1W        W49382  17.364  15.247   8.152  0.1418  0.0244 -0.1065
    1W        W49383  20.317  15.912   6.454 -0.3730  0.0071 -0.3166
    1W        W49384   4.455   4.718   1.074 -0.0995  0.1831 -0.4377
    1W        W49385  10.428  19.336   1.319 -0.0371  0.0757  0.0536
    1W        W49386  13.955   0.324   1.400  0.2942  0.1530 -0.1229
    1W        W49387  12.462   6.137   8.178 -0.1075  0.0732 -0.0730
    1W        W49388   1.558   5.289   9.220 -0.2137  0.0977  0.0482
    1W        W49389  18.449  12.745   1.174  0.2068 -0.2103 -0.2847
    1W        W49390   8.220   0.971   7.952 -0.0320 -0.0688 -0.1855
    1W        W49391  17.992  13.366   9.651  0.0509 -0.1290 -0.0392
    1W        W49392   1.017  26.568   0.216 -0.0037  0.0536  0.1326
    1W        W49393  18.924   1.878   0.078 -0.0254 -0.0887 -0.0072
    1W        W49394  16.787   4.606   9.050  0.0474 -0.0454  0.1954
    1W        W49395   0.737   5.036   0.420 -0.2663 -0.3480 -0.0947
    1W        W49396   5.210  24.107   3.391 -0.0841  0.0644 -0.1813
    1W        W49397  28.057  21.694   1.108  0.0274  0.0130  0.3142
    1W        W49398   2.319  26.721   9.166 -0.1562  0.2676 -0.0891
    1W        W49399  14.180   6.280   6.660 -0.1016  0.0575  0.1443
    1W        W49400  27.415   8.705   8.913 -0.0117  0.0716 -0.2380
    1W        W49401  18.857   6.788   6.400 -0.1730  0.0747 -0.0124
    1W        W49402   7.744  11.427   9.280 -0.1598 -0.3576  0.1425
    1W        W49403  13.989  28.599   9.028 -0.0694  0.0233 -0.2847
    1W        W49404  10.849  22.287   8.885 -0.3005  0.2118 -0.1225
    1W        W49405   9.089   7.384   8.855  0.3198  0.1504 -0.1206
    1W        W49406  18.524  17.875   0.161 -0.2543 -0.2402 -0.0361
    1W        W49407   2.544   2.814   2.471 -0.0886  0.1757  0.2339
    1W        W49408  27.774   7.458   8.502 -0.0683  0.2400  0.0502
    1W        W49409   4.407  26.794   1.716 -0.0267 -0.0446  0.0612
    1W        W49410  21.409   0.738   7.726 -0.1892 -0.0283  0.2711
    1W        W49411  11.632  11.497   8.140  0.2077  0.0242  0.0073
    1W        W49412  15.181  22.869   8.905  0.2786 -0.2155  0.1515
    1W        W49413  28.058   9.184   0.610  0.2507 -0.4030  0.4142
    1W        W49414  26.639  15.444   2.877  0.3092 -0.0351  0.0676
    1W        W49415   6.751  18.573   8.841 -0.0238 -0.3136  0.3573
    1W        W49416   1.990  19.539   8.757 -0.1577  0.0603 -0.2532
    1W        W49417  27.372  17.894   7.536 -0.0303  0.1198 -0.2038
    1W        W49418   5.975  11.750   2.373 -0.3749 -0.1069  0.1132
    1W        W49419  24.420  11.862   1.411 -0.1326  0.2932 -0.0850
    1W        W49420   1.902  16.858   1.543 -0.2383 -0.0028 -0.2403
    1W        W49421   1.643  28.668   1.854 -0.2260 -0.1997  0.2061
    1W        W49422  17.764   6.605   0.612  0.2291 -0.1544 -0.2331
    1W        W49423  26.865   8.681   3.007  0.1178  0.0461  0.0423
    1W        W49424   9.610   6.527   3.321 -0.0168  0.1773 -0.0597
    1W        W49425  10.274   3.327   2.593  0.0313 -0.1333 -0.0861
    1W        W49426  23.576  10.160   2.729  0.0899 -0.2934  0.0355
    1W        W49427  21.575  28.019   1.556 -0.0114 -0.0270 -0.0637
    1W        W49428  10.655  14.181   1.524  0.1193  0.2304  0.1711
    1W        W49429  25.441  16.871   3.491  0.2221  0.2457  0.1186
    1W        W49430   0.053  20.356   0.059  0.0373  0.1884  0.0665
    1W        W49431  22.310   5.118   1.185  0.1439  0.2765 -0.2502
    1W        W49432  10.201  10.135   1.688  0.0817  0.1993  0.1327
    1W        W49433   8.007  14.348   9.372 -0.0907  0.0785 -0.1397
    1W        W49434   3.465  15.270   2.879  0.2236 -0.0384  0.1022
    1W        W49435   8.228   0.568   7.574 -0.3740 -0.1745 -0.0459
    1W        W49436   0.901  24.842   0.032  0.4262 -0.1177  0.1964
    1W        W49437   0.349  23.002   0.888 -0.1275 -0.4502  0.3621
    1W        W49438  11.426  22.201   6.957 -0.1628  0.1163 -0.1311
    1W        W49439  25.270   0.448   7.409 -0.2103  0.3533 -0.0494
    1W        W49440   1.590  22.642   8.696  0.0246  0.0528 -0.2045
    1W        W49441   3.868   4.525   0.337 -0.3488  0.1251 -0.0226
    1W        W49442  23.152   4.968   1.320  0.1145 -0.0394 -0.0241
    1W        W49443  10.156  19.731   0.424  0.2389 -0.0663 -0.0568
    1W        W49444  25.606  16.903   7.781 -0.2109 -0.1964  0.0390
    1W        W49445  23.834   6.972   2.056  0.0329 -0.2301  0.0519
    1W        W49446   4.090  21.772   0.464  0.3848  0.0983 -0.1927
    1W        W49447   9.403  14.107   5.538  0.1587 -0.0495  0.3023
    1W        W49448   0.188   8.827   2.839  0.1109 -0.0443 -0.1072
    1W        W49449  10.890   0.766   9.329 -0.0176 -0.2647  0.2060
    1W        W49450  25.173   1.730   3.461  0.1072 -0.0299  0.0898
    1W        W49451   0.284   4.595   2.526 -0.4857  0.2314  0.0456
    1W        W49452  26.532  14.911   9.567 -0.1251 -0.3539 -0.0166
    1W        W49453  23.255  10.930   9.643 -0.2517 -0.3379  0.1392
    1W        W49454   3.976   7.555   7.678 -0.0965 -0.3651  0.2035
    1W        W49455  16.460  11.747   0.409  0.0292 -0.0687 -0.0989
    1W        W49456  23.399  27.985   2.097  0.1798 -0.3709 -0.0332
    1W        W49457  22.278  21.130   9.598 -0.4956 -0.4142  0.2580
    1W        W49458  11.164  18.742   2.962 -0.0700 -0.0546 -0.0136
    1W        W49459  25.816  12.675   7.308  0.1535 -0.1127 -0.0494
    1W        W49460   8.462  18.484   9.360  0.2746 -0.0889  0.1782
    1W        W49461  22.573  28.080   1.739 -0.1980  0.0406 -0.0758
    1W        W49462  24.203  18.789   8.497  0.0991 -0.0380 -0.0999
    1W        W49463  24.083  17.585   1.869 -0.1769 -0.2667 -0.4254
    1W        W49464  16.312  27.998   1.581  0.2023  0.0113 -0.2274
    1W        W49465  20.037   3.358   7.229 -0.0209  0.0473  0.0427
    1W        W49466   4.197   5.515   7.240  0.3227 -0.1613  0.0200
    1W        W49467  23.325   4.151   9.416  0.0907  0.2880 -0.1178
    1W        W49468  21.194  16.007   7.386 -0.4290 -0.1254 -0.3461
    1W        W49469   9.147  16.685   1.138  0.0327 -0.0126 -0.3922
    1W        W49470   6.223   5.310   9.013 -0.1459  0.2002  0.1477
    1W        W49471   7.118  16.854   7.095  0.2563 -0.0518  0.0170
    1W        W49472  27.029  23.408   0.872  0.1739  0.2244 -0.0381
    1W        W49473  25.982  26.927   0.936 -0.0739  0.0172 -0.4336
    1W        W49474   6.434  18.942   7.044  0.5436  0.3127 -0.0785
    1W        W49475  26.700  18.237   2.264 -0.0047 -0.3803 -0.0188
    1W        W49476  19.889  28.065   2.873 -0.0923  0.0696 -0.4587
    1W        W49477  10.228  16.055   0.441 -0.0943  0.0397 -0.2459
    1W        W49478   8.479   7.462   9.413  0.0281 -0.1126 -0.3895
    1W        W49479  28.177   9.761   8.314 -0.0608  0.0289 -0.0778
    1W        W49480   7.144   3.056   8.529 -0.3012  0.0006 -0.0353
    1W        W49481  16.269  15.596   9.848 -0.0730  0.1843 -0.0946
    1W        W49482  23.275  25.227   9.859 -0.0810  0.1060  0.1266
    1W        W49483  10.824  22.402   1.257  0.1476 -0.1181  0.2138
    1W        W49484   7.207  18.929   7.733  0.2297 -0.1006 -0.4292
    1W        W49485  12.000  10.883   0.818 -0.1130  0.1677  0.1118
    1W        W49486  24.180  25.373   2.841  0.0192  0.1872  0.1827
    1W        W49487   7.468  27.865   8.499 -0.0550 -0.1366 -0.2231
    1W        W49488  19.067  14.800   7.991 -0.0264  0.1298 -0.0122
    1W        W49489  21.108   1.693   8.828  0.0726  0.3023  0.3937
    1W        W49490  10.431  11.422   0.040  0.3947  0.0908 -0.1897
    1W        W49491   2.620  10.897   8.916  0.3353  0.0551 -0.2350
    1W        W49492   4.276  22.634   3.269  0.2077 -0.4892 -0.0558
    1W        W49493   8.267  24.878   1.198  0.1251  0.3574 -0.0129
    1W        W49494  10.847  24.723   2.292  0.1216  0.0139 -0.0648
    1W        W49495   5.080  18.072   9.131  0.0606 -0.0559  0.0584
    1W        W49496  20.626   0.821   1.645  0.1445 -0.0568  0.0317
    1W        W49497   7.062  27.368   1.363 -0.4300 -0.0484  0.4724
    1W        W49498  14.163  16.468   5.718 -0.0703 -0.0856 -0.1345
    1W        W49499  26.966  23.576   1.355 -0.3525  0.0180  0.0444
    1W        W49500  13.775  14.499   8.495  0.0165  0.1691  0.0141
    1W        W49501   4.819  13.934   7.764  0.4470 -0.1340  0.0543
    1W        W49502  12.305  17.350   7.752  0.0490  0.0396 -0.1822
    1W        W49503   2.824  28.705   7.544  0.2357  0.0506  0.1894
    1W        W49504  24.223  20.124   0.066 -0.1444 -0.1773  0.0972
    1W        W49505   3.702   7.459   1.896 -0.2091 -0.0415  0.0289
    1W        W49506   9.449   7.913   1.954  0.2384 -0.3151 -0.0529
    1W        W49507   5.319  17.763   8.839  0.0711 -0.0576  0.0565
    1W        W49508   5.730  18.472   1.336  0.3647  0.3484  0.5168
    1W        W49509  18.564  15.057   7.949 -0.3423  0.1341  0.0561
    1W        W49510  15.836   9.850   6.655 -0.1350  0.0223 -0.0904
    1W        W49511  12.275  17.475   0.645 -0.3215  0.2206 -0.0444
    1W        W49512  20.668   8.207   7.164 -0.1485  0.1922 -0.0974
    1W        W49513  18.172  24.232   0.139  0.3552  0.1117  0.0165
    1W        W49514  17.840  28.871   0.271  0.0917 -0.3639  0.1410
    1W        W49515   1.359   9.286   9.440 -0.1094  0.1603 -0.0086
    1W        W49516  24.808  21.319   9.659 -0.4333  0.3388  0.0797
    1W        W49517  18.867   5.522   0.503 -0.3145 -0.0692  0.0232
    1W        W49518  15.650  28.625   9.014  0.2297 -0.1113  0.2030
    1W        W49519   3.937  23.846   0.574 -0.1218  0.0633 -0.0356
    1W        W49520   6.388   8.915   1.810  0.0287  0.0288 -0.1240
    1W        W49521  10.775  23.210   2.004  0.1051 -0.0213  0.2638
    1W        W49522  22.648  18.542   2.809  0.0383 -0.2236  0.2073
    1W        W49523  19.562  14.054   1.047 -0.0988  0.2102 -0.1398
    1W        W49524  10.969   9.398   7.281 -0.2686 -0.1593  0.0028
    1W        W49525  12.190   8.568   6.808 -0.2525  0.1870 -0.1177
    1W        W49526  16.906  24.986   3.020  0.1691  0.0544 -0.0905
    1W        W49527  27.353   6.514   8.973  0.2051  0.0469  0.0725
    1W        W49528  18.415  10.885   1.372  0.2204 -0.1267 -0.0179
    1W        W49529  26.548  15.578   1.382  0.0326 -0.0900 -0.2543
    1W        W49530   4.308   8.219   0.531  0.1174  0.0612  0.0670
    1W        W49531  16.809  10.407   6.129 -0.1931  0.0286 -0.0269
    1W        W49532  11.128  21.479   9.085 -0.1312  0.2638 -0.2432
    1W        W49533  25.016  22.716   0.550  0.2382  0.1876 -0.4862
    1W        W49534  11.622   9.895   8.203 -0.2713  0.1116 -0.3128
    1W        W49535  19.236  12.810   6.397  0.0076  0.0472  0.3714
    1W        W49536   9.568  16.148   2.388 -0.1455  0.1793  0.2385
    1W        W49537   5.708   1.531   4.589  0.1335 -0.1297  0.0209
    1W        W49538  11.040   3.831   9.789 -0.1081 -0.1580  0.3258
    1W        W49539  23.503  10.222   9.082 -0.1892  0.4130  0.0789
    1W        W49540  21.086   2.843   1.314  0.0532 -0.0857 -0.0967
    1W        W49541  15.711  24.391   0.187 -0.0071 -0.3750  0.3601
    1W        W49542  25.537  16.152   8.235  0.0960  0.0744 -0.3560
    1W        W49543  16.816   8.443   8.377  0.1703 -0.0356  0.1310
    1W        W49544   0.152  14.305   3.576 -0.3584 -0.2468  0.1720
    1W        W49545  18.475  22.886   9.401  0.0294 -0.1744  0.1523
    1W        W49546   0.371  20.760   0.175  0.0391  0.1625 -0.1893
    1W        W49547   4.065  21.164   1.140 -0.1638 -0.0220  0.2779
    1W        W49548  18.598   5.461   1.493 -0.0407 -0.1043  0.2996
    1W        W49549  14.505   8.444   6.985  0.3588 -0.1088 -0.1420
    1W        W49550   3.130   5.081   0.004  0.0050  0.3677 -0.1295
    1W        W49551  13.078   8.938   7.594 -0.0468 -0.3102 -0.0069
    1W        W49552   5.255   2.775   9.185  0.1619  0.1040 -0.2265
    1W        W49553  15.628  19.263   8.742 -0.2789 -0.0513 -0.3034
    1W        W49554  23.039  10.478   7.729 -0.0542 -0.1697 -0.1770
    1W        W49555  22.720   9.325   8.285  0.2733 -0.1575  0.1797
    1W        W49556  21.586   2.958   0.126 -0.3451  0.2965  0.0447
    1W        W49557   0.170   3.059   8.578  0.1382 -0.2292  0.0364
    1W        W49558  20.451   8.115   0.227  0.0859  0.0509 -0.1869
    1W        W49559  16.666  16.277   1.222  0.1024  0.0592  0.0362
    1W        W49560  25.524  24.868   3.054 -0.3195 -0.2121 -0.1971
    1W        W49561  13.669  15.022   5.886 -0.2946  0.0518  0.1737
    1W        W49562  19.353   7.346   9.862 -0.1480 -0.0100 -0.1245
    1W        W49563   7.811  25.019   1.323  0.5209 -0.0263 -0.0111
    1W        W49564   1.104  11.715   9.931 -0.1182  0.0267 -0.1161
    1W        W49565  26.199  16.759   0.748 -0.0828  0.1061  0.0762
    1W        W49566  28.290  17.273   2.402 -0.3205  0.0821  0.0663
    1W        W49567   9.672  19.591   8.576 -0.0616 -0.2182 -0.1503
    1W        W49568  19.592  26.668   0.782 -0.2040  0.1616 -0.1428
    1W        W49569   6.678  11.023   6.765  0.2553 -0.1707 -0.0863
    1W        W49570  11.336  19.244   9.590 -0.3242 -0.0412  0.0892
    1W        W49571  13.548  17.307   8.770  0.1640 -0.1235 -0.3620
    1W        W49572  16.564  13.009   1.523 -0.0445 -0.0956  0.1670
    1W        W49573  18.504  19.633   7.227  0.0764  0.1319  0.2346
    1W        W49574  20.133  14.889   7.535 -0.1230 -0.2580  0.0923
    1W        W49575   7.485  16.088   7.174  0.1991 -0.2667  0.1037
    1W        W49576   3.264  27.902   1.001 -0.1272 -0.0155  0.0636
    1W        W49577   8.421  20.861   9.016  0.3537 -0.0451  0.3601
    1W        W49578   6.235  12.933   6.506 -0.0723 -0.0433 -0.2648
    1W        W49579  23.270  26.491   0.590  0.0733  0.2653  0.4491
    1W        W49580  27.898   2.482   2.861 -0.1424  0.3393 -0.0297
    1W        W49581   9.290   0.403   8.277  0.0954 -0.0966  0.0335
    1W        W49582   8.703  28.108   2.113  0.0288  0.1927 -0.1842
    1W        W49583   3.687  11.937   8.173 -0.1201  0.0030 -0.1580
    1W        W49584   5.013  26.740   0.393 -0.3605 -0.0153 -0.0148
    1W        W49585  21.548  10.017   2.269 -0.2828  0.0072 -0.4071
    1W        W49586  24.364  17.720   3.311  0.2402 -0.4191 -0.0752
    1W        W49587  27.259  27.679   9.639 -0.1469 -0.4030 -0.2709
    1W        W49588  17.653  17.087   8.939  0.1706 -0.1308  0.0054
    1W        W49589  18.881  25.214   8.831 -0.2450 -0.2774  0.1623
    1W        W49590   2.565  11.907   2.089  0.4569 -0.1619  0.2060
    1W        W49591   6.600  24.474   3.892 -0.1743 -0.2626  0.0901
    1W        W49592  16.455  24.224   7.882  0.0216 -0.0651 -0.4213
    1W        W49593   2.076  16.352   7.302  0.0588 -0.0639  0.1075
    1W        W49594   4.917   1.095   0.472 -0.1595  0.0644  0.0723
    1W        W49595  23.325   1.429   0.858 -0.2199 -0.0697  0.1393
    1W        W49596   0.760  11.352   2.527 -0.1989  0.1863 -0.0326
    1W        W49597   1.301  20.833   3.204 -0.4491 -0.2048  0.0580
    1W        W49598  25.143  28.753   8.751 -0.0505 -0.0919 -0.2708
    1W        W49599  11.927  19.799   7.524  0.0324  0.0952 -0.2610
    1W        W49600   4.881  22.620   9.620 -0.3887 -0.3229 -0.0089
    1W        W49601  25.164  26.898   3.375 -0.1646 -0.0005  0.2422
    1W        W49602   3.886  23.693   9.225  0.4071  0.1940  0.2227
    1W        W49603  15.713  15.472   6.012  0.0847 -0.1301 -0.1543
    1W        W49604   6.092  10.929   8.412  0.1394 -0.0874 -0.2242
    1W        W49605   6.777   1.682   8.993 -0.2588 -0.1259  0.0360
    1W        W49606  10.674   3.433   7.569  0.0293 -0.0404 -0.3308
    1W        W49607   3.970   2.632   3.243 -0.2265 -0.0378 -0.1091
    1W        W49608  20.604   9.726   0.530  0.0541 -0.0629 -0.2020
    1W        W49609  15.080  14.669   7.568  0.1762  0.1889  0.4170
    1W        W49610  19.661  19.868   0.893  0.0290  0.1337  0.0322
    1W        W49611  25.898  16.101   1.766  0.3864 -0.3252 -0.0755
    1W        W49612   8.993   8.603   7.280  0.0212 -0.1093  0.0658
    1W        W49613  18.106  24.018   0.592  0.0503 -0.0264 -0.1505
    1W        W49614   9.646   4.384   0.487  0.2737  0.0369 -0.2083
    1W        W49615  15.267  11.455   6.219 -0.1281 -0.1068 -0.3254
    1W        W49616   0.870  11.313   6.617 -0.0816  0.0513 -0.3455
    1W        W49617  13.834  24.959   1.037  0.2271 -0.0210 -0.0095
    1W        W49618   3.372  11.207   8.522 -0.1108  0.0526  0.0218
    1W        W49619  10.308   8.155   9.505  0.2036  0.1070 -0.1696
    1W        W49620   4.566  21.164   2.130 -0.0743  0.2846  0.0107
    1W        W49621   1.239  12.142   1.277 -0.1630 -0.1749 -0.1013
    1W        W49622  20.339   5.980   1.712  0.3260  0.0038  0.2103
    1W        W49623  18.227   1.613   1.532  0.0362 -0.1656  0.2938
    1W        W49624  16.190  10.282   0.841  0.1796  0.1444 -0.3807
    1W        W49625  21.707   7.488   9.444 -0.0057 -0.1710  0.0094
    1W        W49626  26.613  23.685   8.665 -0.1052 -0.0310  0.4199
    1W        W49627  22.269  11.836   9.930  0.0484 -0.2219 -0.2570
    1W        W49628  11.984   4.299   8.553  0.3000  0.0447  0.0826
    1W        W49629   0.360  12.286   3.540  0.0183  0.2895 -0.0339
    1W        W49630   0.811  10.500   9.828  0.2812 -0.3535  0.1966
    1W        W49631  11.037   6.173   9.219 -0.0502 -0.0424  0.1897
    1W        W49632  23.951  22.645   8.066 -0.1542  0.2563 -0.1245
    1W        W49633   3.984  27.956   9.420  0.0384  0.2429  0.2016
    1W        W49634  19.736  22.104   8.152 -0.0913  0.2354 -0.4053
    1W        W49635   2.786   2.398   4.309  0.1345  0.0292 -0.2094
    1W        W49636  21.900  15.606   7.415 -0.1498 -0.1441  0.2246
    1W        W49637  24.458  14.542   7.825 -0.2610 -0.3673 -0.0527
    1W        W49638  21.174  20.871   7.319  0.0379 -0.0456  0.1812
    1W        W49639  11.285   3.956   0.628 -0.0259 -0.1584 -0.1737
    1W        W49640   2.034  21.147   1.170  0.1117 -0.1319 -0.2925
    1W        W49641  20.953   4.364   2.492 -0.2335 -0.0763  0.2432
    1W        W49642  10.156  21.589   1.238  0.5455  0.0333 -0.0302
    1W        W49643  20.357  10.468   6.895  0.0230 -0.1731 -0.2426
    1W        W49644  23.168  12.896   7.872  0.1989 -0.0109 -0.2147
    1W        W49645  17.311  26.627   8.300 -0.0061 -0.3416  0.0848
    1W        W49646   9.470   5.407   0.954  0.0201 -0.0056 -0.1870
    1W        W49647  15.858  26.211   2.372 -0.0642 -0.1957  0.1301
    1W        W49648  14.258  17.226   9.204  0.0005  0.0321 -0.1712
    1W        W49649  13.532   5.708   7.820  0.1568  0.1427  0.0372
    1W        W49650   9.069  15.439   2.357 -0.0861 -0.0492  0.0256
    1W        W49651   4.117  23.300   6.959  0.2013 -0.0404  0.0466
    1W        W49652   1.982  15.867   8.902 -0.0255  0.0169 -0.0314
    1W        W49653  28.867   8.285   7.867  0.1728 -0.1789 -0.4787
    1W        W49654  10.895  11.339   8.167  0.0196  0.0743 -0.0209
    1W        W49655  10.634  18.785   7.862 -0.0175 -0.1505  0.0959
    1W        W49656  27.858   1.618   9.992 -0.2206  0.0041  0.0257
    1W        W49657   2.040  18.284   0.787 -0.1229  0.1514  0.1249
    1W        W49658   3.648  12.561   7.420 -0.1512 -0.3355  0.1431
    1W        W49659  13.919  20.007   1.667  0.0556 -0.0685  0.0441
    1W        W49660  12.673  19.718   2.114  0.0599  0.1960 -0.1348
    1W        W49661  19.397  17.240   0.047  0.0391  0.0752  0.1514
    1W        W49662  15.729  19.033   6.224  0.0575 -0.0345 -0.0243
    1W        W49663   6.014   0.548   9.063 -0.0513 -0.2329  0.1106
    1W        W49664  12.354   6.127   0.967  0.1868 -0.0081 -0.0226
    1W        W49665   1.134  12.122   0.199  0.1697 -0.0554  0.0993
    1W        W49666  18.617  27.369   8.023  0.0646  0.0227  0.1943
    1W        W49667  12.656  12.050   8.674 -0.0295  0.0444  0.1839
    1W        W49668  19.303  14.259   9.936 -0.0028  0.0449  0.0372
    1W        W49669  21.281  18.156   6.718 -0.0753  0.1631  0.2907
    1W        W49670  11.051  24.344   7.611 -0.1972 -0.0341 -0.1406
    1W        W49671   6.181  17.383   0.977  0.0936 -0.2323 -0.0132
    1W        W49672  10.131  28.650   3.058  0.0048 -0.0375 -0.0492
    1W        W49673  11.696   9.870   7.254 -0.2011  0.2141 -0.1498
    1W        W49674  22.834  13.154   2.008  0.1033 -0.0345 -0.0425
    1W        W49675   4.702   7.528   2.449  0.1837 -0.0728  0.1623
    1W        W49676   1.899  21.043   1.644  0.1503 -0.1994  0.1050
    1W        W49677   7.695  22.679   0.682  0.3390 -0.2912  0.2215
    1W        W49678  19.548   3.748   1.256  0.1371  0.1741  0.2405
    1W        W49679  22.580  20.508   3.263 -0.2270 -0.3528 -0.0630
    1W        W49680  16.549  16.604   8.872 -0.2927  0.1539 -0.3161
    1W        W49681  28.185   1.860   3.670 -0.1041 -0.0100  0.0658
    1W        W49682   4.253   4.849   4.234 -0.1955 -0.0900  0.1475
    1W        W49683   9.475  21.803   9.922 -0.0604 -0.1804 -0.0188
    1W        W49684  21.806  15.238   0.791  0.1637 -0.1534  0.0088
    1W        W49685  11.825   5.526   2.026  0.0599 -0.1164 -0.0002
    1W        W49686  10.694   3.015   2.342  0.1053  0.1496  0.2896
    1W        W49687   5.478   4.506   3.040  0.1000  0.2164 -0.1559
    1W        W49688  27.154  13.462   0.605  0.0842 -0.1311  0.0360
    1W        W49689   9.316   9.343   7.297 -0.0469  0.2220 -0.0735
    1W        W49690  24.819   2.416   0.223  0.2334 -0.0868 -0.2691
    1W        W49691  15.874  11.270   9.510 -0.0301  0.0538 -0.3225
    1W        W49692  17.868  13.597   6.514 -0.0564  0.3582  0.2011
    1W        W49693   1.310  16.751   7.579  0.2922  0.3449  0.0492
    1W        W49694  22.008   7.388   0.812  0.0134  0.0330 -0.3011
    1W        W49695  12.843  13.503   9.154  0.3773 -0.1645  0.0187
    1W        W49696  23.172  25.175   9.363  0.1852 -0.1453  0.2119
    1W        W49697  12.362  28.554   9.963 -0.0974 -0.1723  0.0271
    1W        W49698  17.901  11.382   8.954  0.1142 -0.0016  0.2425
    1W        W49699  15.094   7.200   8.694 -0.1596  0.1153  0.4323
    1W        W49700   5.788   8.760   2.629  0.1214 -0.2528  0.2005
    1W        W49701  16.808   7.505   8.291  0.2609  0.2335 -0.2291
    1W        W49702  20.452  22.620   9.463  0.0546 -0.1662 -0.2801
    1W        W49703   9.738   4.262   9.454  0.0515 -0.0204  0.1980
    1W        W49704  28.622   9.220   8.967  0.0900  0.0808 -0.1243
    1W        W49705   7.780   6.686   9.429 -0.0497  0.1960  0.3417
    1W        W49706  10.153  16.791   7.895 -0.4662 -0.2289 -0.0875
    1W        W49707   4.899   3.634   8.210  0.0643 -0.3340 -0.1279
    1W        W49708   9.677   0.436   2.117  0.0845  0.2354  0.1565
    1W        W49709  19.023  25.945   7.573  0.0054  0.1643 -0.1445
    1W        W49710   1.738  21.427   2.556 -0.2841  0.1182 -0.1368
    1W        W49711   0.189  17.209   3.087 -0.0505  0.0911  0.0279
    1W        W49712  24.377  17.466   7.624  0.1554  0.2701  0.2726
    1W        W49713  25.973   9.682   2.292 -0.0317 -0.2691 -0.0265
    1W        W49714   3.907  10.229   8.429 -0.1204 -0.0953  0.2988
    1W        W49715   8.329   8.996   2.007 -0.1848 -0.0747 -0.0784
    1W        W49716  14.560  16.099   8.778  0.1337  0.4007 -0.5266
    1W        W49717  22.292  21.983   0.556 -0.0582  0.0475  0.0225
    1W        W49718   7.363  17.809   7.747  0.1726  0.1915  0.0707
    1W        W49719  23.351  20.745   2.107 -0.0750 -0.1245  0.0741
    1W        W49720  25.645  25.290   2.708 -0.2101  0.5776  0.0853
    1W        W49721  15.101  18.299   7.285 -0.0648  0.0423 -0.0662
    1W        W49722  28.348  17.377   1.271  0.3410 -0.1208  0.2493
    1W        W49723  25.951  13.124   9.711 -0.1207  0.1737 -0.0265
    1W        W49724  16.090   5.481   7.785  0.5554 -0.1991  0.1742
    1W        W49725  14.599   4.004   7.513  0.2479  0.2389 -0.0808
    1W        W49726  16.232  12.153   0.608  0.1194  0.0985  0.2968
    1W        W49727   1.199   7.774   0.962  0.2704  0.1853  0.0174
    1W        W49728  14.011  25.085   9.972 -0.0232  0.2640 -0.1180
    1W        W49729   9.018  15.233   9.435  0.0291  0.1034 -0.4601
    1W        W49730   5.542   4.828   0.065  0.0942 -0.0334  0.4617
    1W        W49731   3.243  17.808   8.786 -0.0950 -0.0930  0.1640
    1W        W49732   4.985   9.376   2.176 -0.0013  0.0116 -0.1794
    1W        W49733  20.862  17.067   2.279  0.2234 -0.1658  0.0292
    1W        W49734  17.786  15.786   7.624 -0.0451  0.0878 -0.1734
    1W        W49735  11.223  26.571   2.783  0.0705  0.0152  0.1633
    1W        W49736  25.095   8.143   7.978 -0.1382  0.1185 -0.0176
    1W        W49737  28.063   7.716   0.390 -0.1343  0.0397 -0.0353
    1W        W49738  11.741  26.967   7.753 -0.2245 -0.0580  0.1949
    1W        W49739  12.890   6.770   2.227 -0.0611 -0.0917  0.0529
    1W        W49740  25.366   0.997   2.301 -0.3127 -0.2186  0.0549
    1W        W49741   5.064  25.518   7.553  0.0170  0.0898  0.4735
    1W        W49742  24.556  24.494   0.397 -0.0282  0.1607 -0.1822
    1W        W49743   4.335  17.897   2.868  0.2829 -0.1274 -0.2403
    1W        W49744   1.122  23.383   9.921 -0.0789 -0.2779  0.0269
    1W        W49745   2.444  24.880   2.721 -0.1620  0.1559 -0.0118
    1W        W49746  21.046  21.382   2.359 -0.2976 -0.2031 -0.0319
    1W        W49747   1.314  20.985   9.807  0.3518 -0.0958  0.0763
    1W        W49748  10.883  24.964   2.708 -0.0486  0.1665  0.2683
    1W        W49749  20.503  16.802   9.279 -0.2116  0.1251 -0.1004
    1W        W49750   3.091  23.662   2.129 -0.0698  0.1672 -0.1721
    1W        W49751  16.744   1.768   7.018  0.1598  0.0496  0.1203
    1W        W49752   5.640  13.415   1.972  0.0493 -0.0127 -0.0876
    1W        W49753   5.280  16.688   0.279 -0.0312  0.1509 -0.0432
    1W        W49754   0.025   4.577   0.898  0.0191  0.1287 -0.3984
    1W        W49755   3.501   9.127   8.916  0.0538  0.3166  0.2623
    1W        W49756  19.267  14.246   9.410  0.0992  0.2813  0.2286
    1W        W49757   4.370  24.055   8.815  0.0102  0.2709 -0.3482
    1W        W49758  21.520  19.499   9.286 -0.2741  0.1554  0.1960
    1W        W49759  16.297  23.460   8.024 -0.0038  0.0851 -0.0873
    1W        W49760   3.748  26.136   0.790 -0.0516 -0.1988 -0.4579
    1W        W49761  27.592  10.384   9.732 -0.0210 -0.2269  0.1012
    1W        W49762  14.312  28.357   1.560  0.0856  0.0985 -0.0864
    1W        W49763   2.244  26.513   0.065 -0.2762 -0.0886 -0.1067
    1W        W49764  26.011   1.143   3.451 -0.2183 -0.0588  0.2080
    1W        W49765   4.963  16.930   1.676  0.0723 -0.2434 -0.2265
    1W        W49766  15.186   2.554   0.621 -0.1682 -0.2522  0.0464
    1W        W49767  16.759   8.672   7.551  0.0155 -0.1554 -0.0507
    1W        W49768  22.507  18.998   0.393  0.0023  0.1851 -0.5097
    1W        W49769   6.839   9.005   8.183 -0.3212 -0.0449  0.0763
    1W        W49770  27.615   3.579   0.732 -0.1071 -0.0904  0.0600
    1W        W49771   4.765  25.989   3.006 -0.1944  0.0962 -0.3467
    1W        W49772  18.788   9.090   2.159 -0.2374  0.1137  0.1343
    1W        W49773  27.344   7.988   2.791 -0.0546 -0.0667 -0.1726
    1W        W49774   7.633   7.605   0.452  0.1377 -0.0327 -0.0752
    1W        W49775  10.580  18.716   0.261  0.4169  0.4365 -0.1119
    1W        W49776  26.984  14.666   9.617  0.0892 -0.1584  0.0200
    1W        W49777  14.784  17.267   9.307 -0.0441 -0.1148 -0.1624
    1W        W49778  11.985  17.146   6.975  0.2436 -0.0185 -0.0566
    1W        W49779  11.452  12.508   0.359 -0.0474 -0.0814 -0.1514
    1W        W49780  26.305   4.954   2.090  0.0664  0.1787 -0.1469
    1W        W49781   3.236   8.881   8.319 -0.0446 -0.3088 -0.0254
    1W        W49782  11.149  20.611   0.757  0.1972  0.2262  0.3320
    1W        W49783  18.688  22.875   0.276 -0.2294  0.4122  0.1277
    1W        W49784   4.757   7.367   8.726  0.2238 -0.1525  0.0490
    1W        W49785  15.997   3.619   7.107  0.0439  0.1196 -0.0137
    1W        W49786  21.908  24.261   7.466  0.1172 -0.1600 -0.0506
    1W        W49787  26.424  16.429   7.895  0.0996 -0.2230  0.0869
    1W        W49788   9.825  14.439   9.459  0.1444 -0.0371 -0.0864
    1W        W49789  23.964  15.667   0.815 -0.0860  0.0794  0.2358
    1W        W49790  26.305  21.339   3.911 -0.0258  0.1577 -0.4131
    1W        W49791  17.642   9.021   7.162 -0.0117 -0.1067 -0.0681
    1W        W49792  25.531  14.216   8.384  0.0045  0.2815  0.0901
    1W        W49793  27.666  21.877   8.092  0.0106 -0.0158  0.1874
    1W        W49794  17.405  14.180   1.630 -0.2095 -0.0045 -0.0716
    1W        W49795  22.860   1.285   0.746  0.1973  0.0049 -0.0568
    1W        W49796  11.407  25.889   3.796 -0.1042 -0.2981  0.0231
    1W        W49797  15.979   4.356   0.113 -0.1133  0.0001 -0.0201
    1W        W49798  12.972   0.068   8.855  0.0770 -0.0718 -0.0474
    1W        W49799  22.793  15.368   8.754 -0.3167 -0.2360  0.1593
    1W        W49800  18.861  16.786   7.123  0.1485  0.1955 -0.4541
    1W        W49801  10.304   2.548   1.956 -0.0082  0.0960  0.0568
    1W        W49802  10.693  21.647   1.351  0.1508 -0.3754  0.1903
    1W        W49803  22.769  16.239   0.205  0.0058  0.1279 -0.1934
    1W        W49804  12.207   8.806   8.224  0.1390 -0.0191 -0.0682
    1W        W49805  13.280   9.817   0.327  0.1826 -0.0019 -0.1656
    1W        W49806  18.642  20.519   2.618 -0.0531 -0.1300  0.1913
    1W        W49807   5.485  20.912   2.241 -0.1083  0.2015 -0.1765
    1W        W49808   7.102  20.016   0.658  0.1331  0.2686 -0.0222
    1W        W49809   9.897  13.190   8.441 -0.0380  0.1275  0.2689
    1W        W49810   6.486  15.996   7.971  0.1681  0.0206 -0.1040
    1W        W49811  15.810  13.395   1.469  0.1989 -0.1261 -0.4035
    1W        W49812  24.502  20.534   8.485  0.2514 -0.4877 -0.0112
    1W        W49813  10.102  11.174   1.460  0.0635  0.0685 -0.0036
    1W        W49814  15.128  22.467   9.802  0.0795  0.2284  0.0051
    1W        W49815  18.305  19.383   1.105  0.0901 -0.1014  0.1089
    1W        W49816   8.398  23.370   8.553  0.1813  0.3262  0.0434
    1W        W49817  16.317  24.002   6.958 -0.0355 -0.1452  0.0443
    1W        W49818  11.068  26.982   8.056  0.1506  0.0261  0.1003
    1W        W49819  24.855  16.623   9.301 -0.1533 -0.0662  0.0330
    1W        W49820   1.635  11.414   8.019  0.0985  0.3958  0.1691
    1W        W49821   3.900  28.808   1.858 -0.4540  0.2993 -0.1980
    1W        W49822   1.542  20.349   7.129  0.2433 -0.1740  0.0409
    1W        W49823  17.956   7.255   8.790 -0.0521 -0.0237 -0.1336
    1W        W49824  10.041   5.109   9.964 -0.0704 -0.2042 -0.2168
    1W        W49825   6.164   0.403   3.937  0.0104 -0.3582  0.0916
    1W        W49826  21.519  14.625   7.847 -0.0105 -0.2691  0.0115
    1W        W49827   5.039  11.083   2.880 -0.1728  0.2207 -0.0613
    1W        W49828  19.241   0.181   8.477  0.0654  0.4950 -0.3257
    1W        W49829   7.416   9.268   0.265  0.2461  0.1038  0.0533
    1W        W49830  14.935   0.568   7.188 -0.3823  0.2016  0.0839
    1W        W49831  17.763  26.919   1.603  0.0579 -0.1896  0.1808
    1W        W49832   3.489   7.761   1.095 -0.1350  0.3554  0.0540
    1W        W49833  21.106  10.171   7.135 -0.2438 -0.0098  0.0294
    1W        W49834  14.334  10.953   6.485 -0.0022 -0.1259  0.0220
    1W        W49835   4.338   0.658   0.826 -0.0717 -0.2117  0.2576
    1W        W49836   9.476   0.927   8.302 -0.0611  0.2397 -0.1559
    1W        W49837  11.284  26.514   1.924  0.2234 -0.2341  0.2619
    1W        W49838  14.534  17.584   8.844  0.4236  0.2897 -0.3489
    1W        W49839   8.931  19.883   8.484  0.0070  0.0002 -0.0960
    1W        W49840   4.743  14.321   2.036 -0.0726 -0.3359  0.1710
    1W        W49841   8.295   3.323   8.698  0.0279 -0.0419 -0.0156
    1W        W49842  10.795  22.363   1.733  0.1506 -0.0675 -0.2955
    1W        W49843   7.292   9.030   8.531 -0.1496  0.0335  0.0605
    1W        W49844  28.037  24.271   3.281  0.1169 -0.0037 -0.1356
    1W        W49845   3.633   1.017   8.344  0.0711 -0.0446  0.3857
    1W        W49846   3.640  26.840   8.751 -0.4209  0.1144 -0.1649
    1W        W49847  15.520  19.428   9.204 -0.1857  0.0073  0.1750
    1W        W49848  14.470  11.939   6.562 -0.2348  0.0991  0.0304
    1W        W49849  19.106   6.320   0.140 -0.2201  0.0140 -0.3322
    1W        W49850   7.021  27.207   3.668 -0.1028  0.1526 -0.0820
    1W        W49851  13.387   7.326   6.967  0.0545  0.2247  0.1265
    1W        W49852  14.387   2.049   9.605 -0.0588  0.0815  0.0966
    1W        W49853  18.053  13.458   0.481 -0.0491 -0.0078  0.0874
    1W        W49854   0.695   9.864   8.153  0.1556  0.2967  0.1026
    1W        W49855  23.922   8.820   0.569  0.1581  0.5054  0.0593
    1W        W49856   7.655   4.046   1.635  0.0105 -0.1341  0.1599
    1W        W49857   1.950   3.176   0.719  0.0794 -0.1350 -0.3788
    1W        W49858  21.722   0.628   2.695  0.0752 -0.0087  0.1621
    1W        W49859  16.615  17.056   7.008 -0.0105 -0.1978  0.2519
    1W        W49860  28.765   4.353   2.792  0.2629 -0.0791 -0.3036
    1W        W49861  22.912   8.871   0.703  0.0865 -0.0734 -0.2671
    1W        W49862  13.660  13.785   0.574 -0.2124  0.0919  0.0917
    1W        W49863  23.912   2.735   8.697 -0.1159  0.0874 -0.1135
    1W        W49864   5.362  24.270   9.403  0.2746  0.3288  0.2125
    1W        W49865  14.764  24.328   9.944 -0.2176  0.0995 -0.0919
    1W        W49866   6.976  22.342   3.614 -0.0500 -0.0993 -0.2372
    1W        W49867  18.430  27.367   9.505 -0.1876  0.0883 -0.0834
    1W        W49868  15.014   7.694   8.667 -0.0663  0.0662  0.0474
    1W        W49869  23.382   8.434   9.994 -0.1551  0.2995 -0.1535
    1W        W49870  10.121   5.454   5.950 -0.0868  0.1385  0.3635
    1W        W49871  10.632  17.544   0.056  0.0993 -0.3069 -0.1215
    1W        W49872  25.300  22.964   7.895 -0.1533  0.0093 -0.0353
    1W        W49873  28.676  10.378   7.246  0.2149 -0.2496  0.1760
    1W        W49874   0.973  26.064   0.022  0.0105 -0.0915 -0.2469
    1W        W49875  10.568  21.753   0.056  0.3400 -0.0916  0.1277
    1W        W49876   2.161   3.435   1.127 -0.0235 -0.0748 -0.1554
    1W        W49877  25.768  26.093   1.698 -0.3080  0.1429  0.3166
    1W        W49878   9.649  23.095   9.403 -0.1008  0.3052  0.0419
    1W        W49879  16.241   0.187   1.574  0.0527 -0.1222 -0.0894
    1W        W49880  25.167   6.009   2.977 -0.5382  0.1021  0.0710
    1W        W49881   1.007   6.547   2.075  0.2563  0.0636  0.2677
    1W        W49882   0.724  28.425   9.164  0.0634 -0.1596  0.0436
    1W        W49883  14.499   8.761   7.662 -0.4048 -0.1789  0.0318
    1W        W49884  19.334   4.436   8.704  0.2000  0.1679 -0.0967
    1W        W49885   3.579  25.707   2.623  0.0040  0.0256  0.0388
    1W        W49886   2.726  10.274   7.845  0.1743  0.1588  0.2768
    1W        W49887  12.819  18.710   8.682 -0.1595 -0.0546  0.0399
    1W        W49888  11.805  17.176   1.765  0.0852 -0.1177  0.2238
    1W        W49889   4.845   2.813   0.348  0.0924  0.2795 -0.3641
    1W        W49890  14.884  26.130   6.639 -0.0459  0.1262 -0.0865
    1W        W49891   1.206  11.634   1.055  0.1166  0.0899  0.0507
    1W        W49892  15.819   9.057   8.914 -0.2215  0.0545  0.0788
    1W        W49893   9.016  24.273   8.869  0.0472 -0.0759  0.1991
    1W        W49894  15.540  28.644   7.613  0.0141 -0.2268 -0.0751
    1W        W49895   3.166  10.289   8.362  0.1821  0.1481  0.1458
    1W        W49896   4.088   6.239   8.937 -0.2483  0.0357 -0.0802
    1W        W49897   7.913   3.576   9.838 -0.1237  0.0250  0.1602
    1W        W49898  25.904  22.379   8.833 -0.1800 -0.0028  0.0169
    1W        W49899  19.588  18.361   6.858 -0.1060  0.2754  0.1342
    1W        W49900  27.457  27.359   0.027 -0.3851 -0.1420  0.0088
    1W        W49901  17.568  21.752   2.651  0.1287 -0.1213 -0.1806
    1W        W49902   1.375   3.835   8.107  0.0129  0.2621  0.2604
    1W        W49903  15.091   5.438   7.039  0.0005 -0.0023 -0.1568
    1W        W49904  17.414  23.129   1.306  0.0121 -0.2402  0.1946
    1W        W49905  28.549  23.759   9.489 -0.0577  0.1757 -0.0472
    1W        W49906   1.748  24.364   7.584 -0.0633 -0.2323 -0.0040
    1W        W49907   4.664  23.046   8.659  0.2985 -0.1466  0.2239
    1W        W49908  21.437  10.973   1.390  0.0020  0.0234 -0.1576
    1W        W49909   1.173  20.483   1.890 -0.0783  0.1167  0.1735
    1W        W49910  14.345   2.531   9.335  0.1211  0.2412  0.0696
    1W        W49911   5.030  15.631   6.866 -0.0088 -0.0563 -0.0941
    1W        W49912  20.364  12.998   0.727  0.0429  0.0589  0.0262
    1W        W49913   7.410  11.114   8.550  0.0614  0.0315 -0.3675
    1W        W49914  10.414  19.259   7.489 -0.0793 -0.1804  0.0376
    1W        W49915  22.617  23.719   2.763 -0.1079  0.1369  0.2672
    1W        W49916  26.416   0.116   3.975 -0.1078  0.0978  0.1834
    1W        W49917   7.415  12.524   1.801 -0.0347  0.2597  0.0602
    1W        W49918  22.814   2.271   1.710  0.0949  0.2325  0.3342
    1W        W49919  27.716  26.295   2.562 -0.0168  0.4100  0.0280
    1W        W49920  13.342  10.599   7.148  0.1471  0.2045  0.0266
    1W        W49921   5.653  19.725   1.037  0.3515 -0.5934 -0.2296
    1W        W49922  19.957  28.596   3.144 -0.1711 -0.0385 -0.2067
    1W        W49923  18.110  11.239   0.514  0.1469  0.2203 -0.1391
    1W        W49924   5.612   2.910   0.143 -0.1515  0.1066  0.1045
    1W        W49925  11.941   7.962   6.382  0.1829 -0.0765  0.1304
    1W        W49926  10.065  18.747   0.179 -0.0322  0.1559 -0.1323
    1W        W49927   4.137  14.335   0.985 -0.0614 -0.0437 -0.1053
    1W        W49928  28.863   3.636   1.504  0.3105 -0.0471 -0.0056
    1W        W49929  12.865   0.308   7.655  0.0609 -0.0973 -0.1119
    1W        W49930  20.497   9.702   7.137 -0.0897 -0.3349 -0.0558
    1W        W49931  20.410  15.022   0.633 -0.0899  0.1777  0.0124
    1W        W49932  18.110   2.265   9.322 -0.1207 -0.1228  0.2106
    1W        W49933  26.419   5.112   1.596  0.1471 -0.2336 -0.0414
    1W        W49934  22.363  26.040   9.302 -0.0356  0.0564  0.1741
    1W        W49935   0.955   4.948   3.400  0.0008  0.0619 -0.0982
    1W        W49936  10.869  11.144   8.684  0.1714  0.1900  0.0844
    1W        W49937  19.239  21.167   9.707  0.0921  0.0961  0.0742
    1W        W49938   3.302   1.555   0.490 -0.1535  0.0991  0.1055
    1W        W49939   9.293  22.352   7.574  0.3515 -0.0841  0.0425
    1W        W49940   2.456   5.533   2.813 -0.0285  0.0939  0.0230
    1W        W49941  25.938  25.164   2.267  0.0915  0.3288  0.0068
    1W        W49942  22.367   8.630   7.064 -0.0055 -0.2609 -0.2036
    1W        W49943   5.901   4.937   8.801  0.0307 -0.2394  0.2268
    1W        W49944  20.041  12.859   9.696  0.0174 -0.3040  0.0447
    1W        W49945   3.981  28.044   3.811 -0.0633  0.4575 -0.0598
    1W        W49946   8.756  23.714   9.356  0.0566  0.0820  0.1796
    1W        W49947   8.336  16.227   1.704 -0.1818 -0.0402  0.0378
    1W        W49948  18.703   2.963   7.638 -0.0988 -0.0474  0.3615
    1W        W49949  10.062   9.862   9.985 -0.1497  0.0527 -0.2736
    1W        W49950   0.279   8.472   7.037  0.0840  0.0182  0.1728
    1W        W49951  15.571   2.661   9.687 -0.1256 -0.0534  0.1339
    1W        W49952   0.099  14.409   0.149 -0.4916  0.0174 -0.1816
    1W        W49953  22.129   9.694   7.454  0.0151  0.0934 -0.0480
    1W        W49954   0.407  15.294   9.441  0.1865  0.1482  0.1816
    1W        W49955  12.838  15.255   7.872 -0.1252  0.1680 -0.1579
    1W        W49956   5.358  28.030   3.450 -0.2078 -0.2287  0.1372
    1W        W49957  10.318  15.874   7.563 -0.0854 -0.2257 -0.0192
    1W        W49958   1.611  24.863   3.032 -0.1660 -0.1520  0.4294
    1W        W49959  18.653  21.927   1.416  0.0320  0.0073  0.1930
    1W        W49960  21.190   5.028   7.120 -0.0694 -0.1101  0.3816
    1W        W49961   0.005  26.663   7.740  0.0036  0.1291 -0.1161
    1W        W49962   0.074  22.225   0.294  0.1137 -0.1207 -0.2568
    1W        W49963  27.115   8.615   9.646 -0.0718  0.0632 -0.1644
    1W        W49964  21.525   2.526   2.688  0.2269 -0.0746  0.1016
    1W        W49965   7.846   9.093   0.483  0.2585 -0.2092  0.1408
    1W        W49966  27.654  28.639   3.736 -0.1370 -0.1073  0.2308
    1W        W49967  15.155  22.817   9.426  0.1847  0.1957  0.1141
    1W        W49968  10.031  13.511   9.578  0.0035  0.2218 -0.0863
    1W        W49969  23.034   4.870   1.797 -0.0866  0.0382 -0.2503
    1W        W49970   4.770  13.413   7.729 -0.1015  0.1010 -0.2710
    1W        W49971   3.408  24.992   2.239  0.0596 -0.0196  0.2276
    1W        W49972  15.250   8.491   0.128 -0.0961  0.0323 -0.1736
    1W        W49973   1.959  24.878   8.010  0.1725 -0.3697  0.0465
    1W        W49974   0.840  25.471   1.661  0.4218 -0.1964 -0.0712
    1W        W49975  22.299  25.298   0.319 -0.0221  0.1389 -0.1104
    1W        W49976  25.865   4.077   1.844  0.1709  0.4431  0.2587
    1W        W49977  19.178   3.768   7.824 -0.0281  0.0457  0.0927
    1W        W49978   7.112  11.961   5.991  0.0284 -0.0201 -0.2971
    1W        W49979  11.730  26.776   2.023  0.4100 -0.2234  0.0778
    1W        W49980  11.045  28.049   9.101  0.0767 -0.2982  0.1164
    1W        W49981  13.116   8.154   1.675 -0.3939 -0.2512  0.0323
    1W        W49982  16.289  20.183   1.264 -0.2870 -0.2087  0.3038
    1W        W49983   7.266  26.179   8.426 -0.1900  0.3476  0.0894
    1W        W49984   4.409  25.177   8.429  0.0086  0.4545 -0.0626
    1W        W49985   1.082  27.878   8.494 -0.2723  0.0421  0.2409
    1W        W49986   7.888  15.843   7.519  0.1267 -0.1051  0.0199
    1W        W49987  11.453  20.740   7.628 -0.1301 -0.1123 -0.1792
    1W        W49988  26.981  25.569   3.781  0.1145  0.0666 -0.1646
    1W        W49989  16.065   5.384   6.531 -0.0362  0.0781 -0.1681
    1W        W49990   7.363  24.637   3.346 -0.0181  0.0758  0.3444
    1W        W49991   9.138  26.529   2.199  0.0228  0.1272  0.0941
    1W        W49992  27.273   6.965   9.160 -0.0926 -0.1392 -0.2931
    1W        W49993   5.902  18.663   0.063  0.0220 -0.1305 -0.5307
    1W        W49994  22.038   9.036   8.508 -0.0846  0.1297  0.0037
    1W        W49995  20.412  10.418   7.869  0.1168 -0.1714 -0.4419
    1W        W49996   4.996   7.514   0.898 -0.0418  0.1234  0.1025
    1W        W49997  28.202  13.868   1.242  0.3639  0.0481 -0.0378
    1W        W49998  26.172  26.513   2.291  0.2019  0.1903  0.1829
    1W        W49999  23.488  26.513   8.475  0.2185  0.4315  0.0048
    1W        W50000   6.076   9.699   1.295  0.0649  0.0871 -0.0375
    1W        W50001   9.564   3.621   0.093 -0.3298 -0.1237 -0.2104
    1W        W50002  19.304  27.030   9.108  0.0162 -0.1322  0.1816
    1W        W50003  14.233   4.810   6.433  0.0290  0.0088 -0.0116
    1W        W50004   4.830  27.000   8.841 -0.2540 -0.1492 -0.0911
    1W        W50005  10.911  25.773   2.114  0.0662 -0.2138 -0.0962
    1W        W50006  26.179   8.497   8.557  0.2436 -0.0399  0.3787
    1W        W50007   0.213  19.481   0.592  0.1704  0.2573  0.1249
    1W        W50008  21.149   0.961   1.658 -0.0005 -0.2192  0.2601
    1W        W50009   4.690   6.935   8.957 -0.3120  0.0493  0.0580
    1W        W50010  11.968  25.638   0.030  0.0735  0.0143  0.1379
    1W        W50011  12.768  16.055   8.853  0.1147 -0.1010 -0.2992
    1W        W50012  20.915  10.478   9.780 -0.0948 -0.0408 -0.2397
    1W        W50013   7.753  28.399   8.103 -0.1112 -0.0508 -0.1758
    1W        W50014  21.482  18.857   6.044  0.2407 -0.2546  0.1218
    1W        W50015   3.764  15.587   0.953  0.0479 -0.1155  0.1987
    1W        W50016   0.014  27.244   8.949 -0.0690 -0.2595  0.0573
    1W        W50017  21.402   0.734   9.739  0.1935 -0.0008 -0.2008
    1W        W50018  12.627   5.060   9.560 -0.1790 -0.2814  0.2412
    1W        W50019  24.687  18.158   2.130  0.0350  0.1669 -0.2082
    1W        W50020  26.140  24.141   2.374 -0.4004 -0.0536  0.2213
    1W        W50021  28.233   5.548   8.638  0.0404  0.2383 -0.3610
    1W        W50022   1.425  10.083   7.638  0.2416 -0.3517  0.0338
    1W        W50023  24.956  13.734   7.841 -0.3442 -0.2192 -0.0774
    1W        W50024   4.102   8.199   9.582 -0.0074  0.0119  0.1165
    1W        W50025   4.761  10.883   0.448 -0.0878  0.2077 -0.1191
    1W        W50026   4.680  27.314   2.742 -0.1867  0.0650  0.3726
    1W        W50027  23.450   9.076   0.689 -0.2553 -0.3164 -0.0939
    1W        W50028  27.565  17.015   0.082  0.4403 -0.0735  0.2482
    1W        W50029   0.272  11.101   1.432  0.2211  0.0945  0.1778
    1W        W50030  28.475  16.546   3.487 -0.2261 -0.3190 -0.0254
    1W        W50031  28.430  18.268   9.027 -0.1894  0.0664 -0.0040
    1W        W50032  17.749  10.848   0.579 -0.0490 -0.2959 -0.0851
    1W        W50033   3.054  21.267   9.316 -0.0397  0.0563  0.2058
    1W        W50034  23.649  24.753   0.699 -0.2922  0.0288 -0.1202
    1W        W50035   4.463   5.512   2.329 -0.2072  0.0792 -0.0105
    1W        W50036   5.217  19.159   7.930  0.0028  0.2440 -0.0665
    1W        W50037   6.344   6.490   1.956  0.1255  0.1371 -0.0231
    1W        W50038   9.594  15.045   0.065 -0.3826  0.1122 -0.0248
    1W        W50039   9.479  25.588   2.677 -0.2551 -0.2337  0.2445
    1W        W50040  12.322  20.630   7.174  0.2346  0.0056 -0.2149
    1W        W50041  24.426  12.839   7.487 -0.1787  0.1259 -0.1274
    1W        W50042  12.241  22.923   6.495  0.2869  0.0296 -0.3386
    1W        W50043  12.438   0.646   0.042  0.2345 -0.0675 -0.0419
    1W        W50044  19.575  10.733   8.024 -0.1503  0.2688 -0.2580
    1W        W50045  20.452   7.470   7.739 -0.2521 -0.0254  0.0425
    1W        W50046  18.389   9.833   6.287  0.1395 -0.1063 -0.0395
    1W        W50047   3.537  15.212   8.030  0.0515 -0.2849  0.0835
    1W        W50048  24.242   1.437   1.233  0.1471  0.3165 -0.1726
    1W        W50049  22.613   7.866   7.294 -0.0980 -0.2480  0.1704
    1W        W50050  12.858  19.030   6.935 -0.0779  0.0298  0.4612
    1W        W50051  13.227  12.925   0.863 -0.1594  0.0204 -0.1295
    1W        W50052   0.334  11.713   0.360  0.0539 -0.0651 -0.3275
    1W        W50053   3.025  22.725   0.993 -0.0134 -0.0318 -0.2376
    1W        W50054  26.656  20.873   0.933  0.1293  0.2533 -0.3604
    1W        W50055  24.768  14.720   8.705  0.0235 -0.0294  0.0724
    1W        W50056  12.856  23.980   9.719 -0.2819 -0.0143  0.0610
    1W        W50057  24.526   6.693   1.616  0.2848  0.1359  0.2516
    1W        W50058   2.704  27.945   3.294  0.2642 -0.1567 -0.1447
    1W        W50059   4.382   3.913   2.646  0.0242 -0.3799  0.1319
    1W        W50060  25.804  21.308   0.654 -0.0367  0.2444 -0.0782
    1W        W50061  23.745  14.516   2.486 -0.1864  0.0754 -0.0428
    1W        W50062   3.136   2.578   1.063  0.1534 -0.1480  0.3905
    1W        W50063  24.711  25.809   0.109  0.0942 -0.2655  0.1560
    1W        W50064  17.656   3.404   0.687  0.2238  0.3182  0.0965
    1W        W50065  26.452  25.057   0.272  0.0707 -0.1193 -0.0925
    1W        W50066   8.676  11.647   6.187 -0.1070 -0.1697  0.0654
    1W        W50067  13.942  17.410   9.557 -0.1970 -0.4527 -0.1289
    1W        W50068   4.306   6.843   2.809 -0.1285 -0.4053  0.2378
    1W        W50069  17.125  28.604   1.524  0.2375 -0.0633 -0.2991
    1W        W50070   7.581   6.151   1.443  0.1336  0.1903  0.1176
    1W        W50071  15.277  26.573   0.546 -0.1418  0.2267 -0.1021
    1W        W50072  22.956   3.064   7.585 -0.0715 -0.3292 -0.0065
    1W        W50073   5.935  22.352   9.955  0.2150 -0.0815  0.0504
    1W        W50074  16.890  24.566   2.444  0.1153 -0.1368 -0.2275
    1W        W50075  17.301  16.877   1.582  0.4053  0.1289  0.0791
    1W        W50076  25.713   2.082   9.966  0.2882  0.0931 -0.3260
    1W        W50077   9.661  21.571   8.733  0.1052 -0.1942 -0.1272
    1W        W50078  14.530  19.212   7.709  0.1974 -0.0398 -0.0908
    1W        W50079  18.912   8.928   6.216  0.2800 -0.1516  0.0156
    1W        W50080   3.903   5.884   7.815 -0.0724 -0.1452  0.1908
    1W        W50081   5.102  26.635   9.746  0.2774 -0.0690 -0.3157
    1W        W50082  16.201   3.910   9.632  0.1859 -0.2899  0.2115
    1W        W50083  13.649  13.242   7.150 -0.2311 -0.1971 -0.0009
    1W        W50084  22.301  10.219   9.828 -0.0864 -0.3076 -0.3052
    1W        W50085  18.570  17.809   1.363 -0.0438  0.1454 -0.4616
    1W        W50086   2.846  24.740   8.951 -0.2225  0.1999  0.2407
    1W        W50087  14.131  21.466   6.916  0.4704  0.3092  0.0901
    1W        W50088  24.904   8.000   2.801 -0.1155 -0.3188 -0.0516
    1W        W50089  23.770  27.289   8.931 -0.0368 -0.0133  0.1179
    1W        W50090  20.563  17.728   6.635 -0.0467 -0.1775 -0.0326
    1W        W50091  10.641  16.565   2.330  0.0284  0.3145  0.0954
    1W        W50092  11.021  18.298   9.545  0.2148  0.0087 -0.4621
    1W        W50093  17.183  14.039   0.213  0.2091 -0.0674  0.1143
    1W        W50094  10.188  23.807   9.920 -0.2252 -0.0881  0.1632
    1W        W50095   1.859  27.710   9.554 -0.1949  0.2979 -0.1416
    1W        W50096  14.678   4.894   7.045 -0.1327 -0.3136 -0.1326
    1W        W50097   6.078  21.919   8.791 -0.0413  0.1950  0.0982
    1W        W50098  20.497   7.093   1.710 -0.1760  0.0090  0.2667
    1W        W50099  15.109  13.094   8.347 -0.1187  0.2299 -0.3335
    1W        W50100   5.032   9.683   2.586  0.1052  0.1795  0.2458
    1W        W50101   1.331  15.740   1.989 -0.2456 -0.0180  0.0328
    1W        W50102   2.176  13.289   2.025 -0.2342  0.1227  0.0479
    1W        W50103  13.862   4.772   6.954 -0.1118  0.0940 -0.4781
    1W        W50104   2.375   2.269   8.386  0.3308  0.0490  0.0228
    1W        W50105   1.025  17.468   8.406  0.1807  0.0276 -0.1816
    1W        W50106  19.117  25.710   1.455  0.0602 -0.0305  0.1659
    1W        W50107  10.437   6.315   9.264 -0.0275 -0.1290 -0.0072
    1W        W50108  14.231   6.900   2.106 -0.1787  0.0770  0.0621
    1W        W50109  24.984  19.219   8.332 -0.3190 -0.3669 -0.0187
    1W        W50110  23.006  21.169   1.287 -0.2784 -0.0890 -0.0780
    1W        W50111  22.554   7.226   6.501 -0.1548  0.0470  0.1831
    1W        W50112  23.951   9.406   0.606 -0.2092  0.0554 -0.1021
    1W        W50113   6.787  25.674   8.843 -0.0396  0.0591 -0.0485
    1W        W50114  23.956  10.744   1.720 -0.2200  0.0024 -0.0738
    1W        W50115  14.042  18.731   1.366 -0.3743 -0.0338 -0.0942
    1W        W50116  23.607   2.545   0.042  0.0417 -0.0449  0.0120
    1W        W50117  26.219  26.679   8.857 -0.2526 -0.2724  0.0332
    1W        W50118  25.188   7.719   0.339  0.1338  0.1776 -0.1005
    1W        W50119  18.982  13.195   7.415  0.2233  0.0245  0.1413
    1W        W50120  26.298  12.228   7.688  0.0742 -0.3718 -0.0788
    1W        W50121   1.739  24.996   0.879 -0.0331  0.1262  0.2184
    1W        W50122   1.316  16.273   2.006 -0.1161  0.2260 -0.0139
    1W        W50123  10.503  13.522   8.410 -0.0136 -0.0472  0.2413
    1W        W50124   1.417  21.262   1.695  0.0068 -0.0019  0.1761
    1W        W50125  24.632   2.100   8.868 -0.2813 -0.3565 -0.0482
    1W        W50126  22.868  24.826   9.246 -0.0710 -0.1252 -0.3749
    1W        W50127  16.752  28.767   9.271 -0.0288  0.0066 -0.3410
    1W        W50128  23.728  22.086   9.953 -0.1564 -0.0105  0.1195
    1W        W50129   5.496   3.545   7.474 -0.0310 -0.0078  0.1196
    1W        W50130   4.719  28.044   1.136  0.2297 -0.0672  0.1280
    1W        W50131  17.662   7.756   9.966  0.2273 -0.1438  0.2373
    1W        W50132   9.546   3.815   8.080  0.2455  0.1782 -0.3893
    1W        W50133   0.109  28.697   3.816 -0.0085 -0.3330  0.0806
    1W        W50134  11.997  15.325   0.513  0.1539 -0.0408 -0.2014
    1W        W50135  22.482  28.511   2.935 -0.1452 -0.1900  0.0533
    1W        W50136  23.510  19.335   8.598  0.2020  0.1229  0.0576
    1W        W50137  12.260  21.133   7.766  0.1603 -0.1827  0.0775
    1W        W50138  16.871   1.703   9.600 -0.0258 -0.2224 -0.2391
    1W        W50139  20.101   4.288   6.978  0.0562  0.0196  0.1765
    1W        W50140   4.683  18.635   2.322 -0.0043 -0.0187 -0.0120
    1W        W50141   7.988  10.452   8.670 -0.0026  0.1417  0.1525
    1W        W50142  25.791   6.142   1.611  0.0767 -0.1101 -0.0911
    1W        W50143  17.492  11.283   1.328 -0.2114 -0.1977 -0.2833
    1W        W50144   8.095  13.505   1.595  0.1943  0.1745  0.1122
    1W        W50145   2.133  17.920   1.242  0.3390 -0.0819  0.2711
    1W        W50146  24.997  20.205   0.592 -0.2884 -0.0158 -0.1473
    1W        W50147   7.980   8.525   1.822 -0.1736  0.1663 -0.0069
    1W        W50148  26.491   5.101   0.383  0.1701  0.0822  0.0667
    1W        W50149  11.898  26.472   1.543  0.0184 -0.2865 -0.0588
    1W        W50150  26.003   2.430   0.598  0.0346  0.1667 -0.2307
    1W        W50151  16.976   1.232   6.981 -0.0605 -0.0920  0.1864
    1W        W50152  17.582  25.230   1.177 -0.0444  0.0003  0.0842
    1W        W50153  19.624   4.840   7.563  0.0678 -0.0541 -0.0224
    1W        W50154   2.692   0.043   8.794  0.1285 -0.0361 -0.0883
    1W        W50155   2.310  16.902   0.183  0.0740  0.0525  0.1797
    1W        W50156  24.895  13.586   1.101  0.2113  0.1988 -0.1360
    1W        W50157  17.700   9.504   0.464  0.0880  0.1935  0.1670
    1W        W50158   3.632   2.536   2.091 -0.0062 -0.2196 -0.2813
    1W        W50159  20.872  27.442   8.150 -0.1658 -0.1604 -0.2963
    1W        W50160  21.596  14.387   8.303 -0.0451  0.1348 -0.1439
    1W        W50161   5.435  26.327   2.052 -0.2485 -0.3174 -0.2205
    1W        W50162  27.594  12.057   1.486  0.0533  0.0264 -0.1213
    1W        W50163  24.443  26.225   3.316  0.1959  0.0947  0.2113
    1W        W50164  26.401  18.437   8.213  0.2288 -0.0642  0.2581
    1W        W50165  19.343  23.310   1.379  0.1047  0.2788  0.0944
    1W        W50166  14.025  26.082   6.667  0.0062 -0.0071 -0.1246
    1W        W50167  20.857   4.728   8.431 -0.1638  0.1200 -0.2619
    1W        W50168   1.054  28.164   0.366 -0.0692 -0.0590 -0.0743
    1W        W50169  18.385   3.166   6.848 -0.0672 -0.0691 -0.0883
    1W        W50170  23.854  28.101   9.409 -0.2837  0.1260 -0.1952
    1W        W50171   7.107  22.452   8.546  0.1745 -0.1379  0.1398
    1W        W50172  24.593  14.613   9.249  0.0407 -0.1938  0.3552
    1W        W50173   5.118  16.612   8.503 -0.0063 -0.2400 -0.0754
    1W        W50174  13.283   6.185   0.966 -0.3027 -0.2985  0.2841
    1W        W50175  22.728  14.668   9.437  0.1763  0.0171  0.1922
    1W        W50176  26.067   7.197   9.089  0.0205 -0.0011  0.2272
    1W        W50177  11.784  10.191   0.675  0.2557  0.1302 -0.1237
    1W        W50178   5.575   3.263   1.001  0.0558 -0.0524 -0.0803
    1W        W50179  25.800  13.574   9.483  0.1696  0.2680  0.0723
    1W        W50180  23.353  14.835   9.886 -0.1701  0.0733 -0.1993
    1W        W50181  12.265  15.418   1.924 -0.2130 -0.2610  0.0067
    1W        W50182  10.084  14.874   0.099  0.2378  0.2983 -0.0241
    1W        W50183  17.932   9.889   8.965 -0.2459  0.1683  0.2459
    1W        W50184   5.038  24.363   8.266 -0.0232 -0.0228  0.0485
    1W        W50185  23.538  20.617   2.743 -0.2144 -0.0176 -0.1105
    1W        W50186   5.475  19.874   2.256  0.0914 -0.2890  0.2588
    1W        W50187   6.183  26.298   8.671  0.1794  0.2233  0.0117
    1W        W50188  15.834  27.644   2.574  0.1617  0.1504  0.0885
    1W        W50189   0.007  22.402   2.093 -0.3678 -0.0233 -0.0283
    1W        W50190  17.791   0.104   7.482  0.1255 -0.0385 -0.2579
    1W        W50191  15.274  24.409   7.594  0.1663  0.0031  0.1869
    1W        W50192  20.931  16.349   1.622  0.1956  0.4252 -0.2421
    1W        W50193   6.032   7.425   0.966 -0.0369 -0.0888 -0.1981
    1W        W50194   2.974   9.030   0.988  0.0596  0.1312  0.0434
    1W        W50195  24.511   1.242   2.497 -0.0403 -0.4458  0.1431
    1W        W50196  21.026   9.833   2.098  0.2419 -0.1022  0.3097
    1W        W50197   5.799  11.720   6.807  0.1859 -0.2255 -0.0351
    1W        W50198  24.457   1.903   2.894  0.1779  0.1131 -0.0796
    1W        W50199  19.310   3.360   8.197 -0.0140  0.1730  0.0636
    1W        W50200   5.439  10.595   7.551  0.0725  0.0632 -0.2464
    1W        W50201   4.767   6.101   8.281 -0.2524  0.0179  0.1306
    1W        W50202  12.205   1.386   0.918 -0.0092  0.1753 -0.2793
    1W        W50203  24.343  12.495   2.486  0.3120 -0.1359  0.2311
    1W        W50204  20.585  14.648   7.481  0.0678 -0.0364 -0.1112
    1W        W50205   2.998  26.147   3.197 -0.2230  0.3737 -0.0131
    1W        W50206  14.423   8.333   0.714  0.0152 -0.0497  0.1665
    1W        W50207  28.604  18.923   1.270 -0.5272 -0.1311  0.0490
    1W        W50208  19.959   2.822   9.206 -0.1744 -0.0633  0.3214
    1W        W50209   5.657  13.512   0.405  0.0160  0.2409  0.0694
    1W        W50210   0.126  23.917   2.629  0.0143 -0.1007 -0.0017
    1W        W50211  24.509  23.175   2.404  0.1144  0.3326 -0.1558
    1W        W50212  27.157  15.794   9.533 -0.0116  0.1861  0.0089
    1W        W50213  15.315  14.410   0.741 -0.1998 -0.1590 -0.2456
    1W        W50214  18.907  23.428   1.211 -0.0251  0.1071 -0.0768
    1W        W50215  18.474  15.121   1.797  0.0190 -0.1408 -0.0993
    1W        W50216   7.805  10.934   1.979 -0.1456 -0.0162 -0.0090
    1W        W50217  26.726  18.222   8.963 -0.0684  0.0688  0.2538
    1W        W50218   3.998   4.172   2.388  0.2402 -0.1877  0.1104
    1W        W50219   8.047  24.212   2.742 -0.1006 -0.1711 -0.1264
    1W        W50220  11.635  20.868   0.311  0.2153  0.0626  0.0523
    1W        W50221  25.835  13.376   1.676  0.6045  0.2025 -0.0825
    1W        W50222  24.741   2.258   8.432 -0.0998  0.2032 -0.0685
    1W        W50223  20.667  23.070   9.547 -0.0438  0.1956 -0.1548
    1W        W50224   0.400  16.784   7.831  0.0791  0.2108 -0.0415
    1W        W50225   4.241   1.579   4.478  0.0666  0.3187 -0.0271
    1W        W50226   4.265  28.322   3.453 -0.0709  0.2522 -0.0841
    1W        W50227  22.659  14.208   9.372 -0.0795 -0.1638 -0.1818
    1W        W50228  16.826   9.140   7.744  0.1921 -0.0837  0.1447
    1W        W50229  25.418  15.978   0.702 -0.0726  0.2202  0.0038
    1W        W50230   5.190   6.303   0.031 -0.1604  0.0363 -0.2927
    1W        W50231  19.024  18.731   9.312  0.0072  0.1024  0.0722
    1W        W50232  22.473   0.979   0.620  0.0985 -0.2904 -0.2500
    1W        W50233   3.698  19.308   0.978  0.2351  0.1050 -0.0199
    1W        W50234   3.188  28.361   1.955 -0.3037 -0.0575  0.0214
    1W        W50235   6.436  20.250   0.699 -0.1467 -0.0717 -0.1014
    1W        W50236  10.088  23.956   7.054 -0.0406 -0.1727  0.0532
    1W        W50237  27.150  21.060   9.428 -0.1558  0.0940  0.0576
    1W        W50238  14.149   9.907   6.042 -0.1000  0.1569  0.1835
    1W        W50239  13.380  25.649   9.688 -0.0007 -0.2832 -0.0124
    1W        W50240  26.015   1.608   0.661  0.0720  0.1970 -0.2402
    1W        W50241  22.041  24.584   7.150 -0.0050  0.2008 -0.1869
    1W        W50242  17.058   4.884   0.411 -0.0869 -0.1998  0.2963
    1W        W50243   9.086   0.579   8.743 -0.2512  0.0085  0.0271
    1W        W50244  25.399  18.204   7.918  0.1277  0.0973  0.1232
    1W        W50245   6.697  19.496   0.181  0.1087  0.0503 -0.0556
    1W        W50246   8.604  13.995   9.891 -0.1442 -0.0292 -0.0134
    1W        W50247  14.117  16.336   7.391  0.1234  0.1306 -0.0057
    1W        W50248  20.300  19.895   6.277 -0.3457  0.0541  0.1273
    1W        W50249   1.745  10.748   2.816 -0.1240  0.2004  0.1888
    1W        W50250  28.154  10.023   2.956 -0.2194  0.1209 -0.3867
    1W        W50251  16.622  10.880   1.913  0.1118  0.0304  0.0981
    1W        W50252   9.878   5.448   9.652  0.3350  0.0968  0.0029
    1W        W50253   7.761  19.728   9.275  0.1530 -0.0381  0.1909
    1W        W50254   3.922   7.101   9.669  0.2842  0.3169 -0.0650
    1W        W50255  11.208   1.061   1.537 -0.2609 -0.6702  0.1929
    1W        W50256   8.332   5.512   2.471  0.1151  0.0793 -0.2527
    1W        W50257  28.742  27.153   8.463  0.2849 -0.0942 -0.1782
    1W        W50258  15.972  19.770   1.097  0.1600 -0.0884  0.1974
    1W        W50259  14.529   1.335   1.161 -0.3707  0.1642 -0.1032
    1W        W50260  19.377   0.614   9.506 -0.2265 -0.4403 -0.0672
    1W        W50261  26.091   3.454   2.779  0.1929  0.4369 -0.0001
    1W        W50262  23.241   2.017   8.902 -0.0722 -0.2832 -0.1899
    1W        W50263   8.289   9.976   8.404  0.3652 -0.1619 -0.0820
    1W        W50264  20.396   1.865   1.149 -0.0384 -0.4308  0.0421
    1W        W50265  17.563   0.079   9.687  0.1966 -0.1162  0.1034
    1W        W50266  24.574  18.670   0.076  0.0643 -0.1621 -0.1699
    1W        W50267  22.111   9.460   2.556 -0.0830 -0.1731 -0.2229
    1W        W50268  25.247  17.684   7.811 -0.0528 -0.0098 -0.2095
    1W        W50269   3.381  23.502   0.527 -0.1693 -0.0107  0.2151
    1W        W50270   9.286  21.590   1.905  0.2432 -0.2861 -0.0049
    1W        W50271  10.808  14.641   8.602 -0.1361 -0.2068  0.3224
    1W        W50272   1.327   3.857   1.213  0.0823  0.3586 -0.0143
    1W        W50273   4.496  12.446  10.002  0.0532 -0.1595 -0.0600
    1W        W50274   2.293   5.186   0.886  0.2360  0.0114  0.0190
    1W        W50275  14.776  23.059   9.144 -0.0083  0.0324 -0.0706
    1W        W50276   3.061  17.465   7.124  0.0119  0.0385 -0.2335
    1W        W50277  11.730   1.613   8.869 -0.0825 -0.0041  0.0387
    1W        W50278   3.181  20.834   6.886 -0.2207 -0.1607  0.0210
    1W        W50279  17.681  15.356   9.166  0.0617  0.1101 -0.0506
    1W        W50280  20.262  13.363   6.878  0.3157  0.0206 -0.2443
    1W        W50281   0.993   5.888   8.842 -0.2009 -0.2373  0.1996
    1W        W50282  11.476   4.386   6.881  0.3146  0.0317 -0.2044
    1W        W50283  16.179  20.951   8.254  0.0723 -0.1052 -0.1775
    1W        W50284  22.323   9.103   7.169 -0.1010 -0.0519  0.0857
    1W        W50285  13.684  25.770   8.285 -0.1147  0.0116 -0.0933
    1W        W50286  12.026   2.141   1.652  0.0809 -0.0679 -0.0867
    1W        W50287  22.207  13.942   7.753  0.0750 -0.1974 -0.0538
    1W        W50288  14.382  22.192   9.479 -0.1473 -0.1348 -0.0767
    1W        W50289  14.814  11.698   6.291  0.2166 -0.3263  0.0820
    1W        W50290  12.841   7.378   0.580 -0.6072  0.1807  0.0229
    1W        W50291   9.214   7.357   8.373  0.1868  0.0532  0.0031
    1W        W50292   9.691  20.330   6.873  0.1369  0.3483  0.1195
    1W        W50293  18.014  18.580   0.843  0.0774  0.2188 -0.0052
    1W        W50294  24.071  14.156   3.645 -0.1197 -0.4505 -0.0755
    1W        W50295   9.944   4.702   9.027 -0.0978 -0.1300  0.3247
    1W        W50296  18.515  20.135   8.040 -0.1375 -0.3182 -0.1957
    1W        W50297  14.199   0.389   7.103  0.0050 -0.1363  0.0894
    1W        W50298   4.122  23.208   2.585  0.1905  0.2239  0.0996
    1W        W50299   6.431  12.598   1.282  0.0831  0.1529 -0.1855
    1W        W50300   2.145   5.521   0.521 -0.2981  0.2785  0.1029
    1W        W50301   6.270   8.735   1.340  0.1438 -0.0717  0.0901
    1W        W50302   4.497  23.515   1.791  0.2099 -0.0719  0.2432
    1W        W50303  23.470  26.819   8.058  0.1994 -0.0215  0.0648
    1W        W50304   9.619  14.807   8.659 -0.2625 -0.0400 -0.2935
    1W        W50305   4.867  12.801   0.264 -0.0938  0.2397 -0.2368
    1W        W50306  23.488  14.189   7.062 -0.0949  0.1391  0.1724
    1W        W50307  17.602   4.875   9.014  0.2025  0.2168  0.5503
    1W        W50308  20.118   3.180   8.932  0.0477  0.0346  0.1478
    1W        W50309   6.203  21.616   1.367 -0.1905 -0.1296  0.0343
    1W        W50310  10.350   8.538   6.451 -0.1771  0.1460 -0.0332
    1W        W50311  11.033  26.295   1.104  0.2315  0.1201  0.1617
    1W        W50312  10.238   1.631   0.133  0.0293 -0.0554  0.1413
    1W        W50313   9.907   1.854   9.768  0.2517 -0.1457  0.0691
    1W        W50314  14.136  15.233   0.721  0.0866 -0.1232  0.2140
    1W        W50315   6.392  26.138   1.144  0.2075  0.1913 -0.0924
    1W        W50316   9.055  13.910   0.535  0.0738  0.2726  0.1613
    1W        W50317   5.068  23.337   8.490  0.3164  0.1732  0.0707
    1W        W50318  28.357  18.456   2.225  0.2616  0.0160  0.1066
    1W        W50319  28.708  13.593   2.467  0.1317 -0.1073 -0.0068
    1W        W50320  15.831  10.544   1.267 -0.1388  0.1174 -0.2538
    1W        W50321  21.567  23.006   2.766 -0.0954  0.1103  0.1361
    1W        W50322  11.646  19.729   8.646  0.0890  0.2974 -0.2384
    1W        W50323  10.051   3.178   0.299  0.0641 -0.1141 -0.0263
    1W        W50324   6.646  12.839   9.553  0.2150 -0.0655  0.1212
    1W        W50325   6.669  10.303   1.601  0.0659  0.1084 -0.3360
    1W        W50326   5.703   8.119   1.834 -0.0596  0.3280 -0.0701
    1W        W50327  28.625   7.680   1.450  0.0655  0.0580  0.1148
    1W        W50328   3.270   7.841   3.056  0.1167  0.0834 -0.0041
    1W        W50329  23.311  12.941   8.896 -0.0257  0.1884 -0.3832
    1W        W50330   9.843  10.777   5.927  0.3004  0.1893  0.0449
    1W        W50331  14.659  26.507   8.566 -0.1495 -0.0661  0.1315
    1W        W50332   5.908  25.997   7.760 -0.1061 -0.4173  0.0034
    1W        W50333   7.890   0.956   0.770  0.1369  0.4655  0.2505
    1W        W50334   1.020  20.174   3.298 -0.0918  0.1204  0.0429
    1W        W50335  13.077   0.725   7.398  0.0246 -0.0509 -0.2556
    1W        W50336  15.844  28.268   9.278 -0.1222  0.2088  0.1939
    1W        W50337   4.118  24.544   8.043 -0.1568  0.1344  0.2103
    1W        W50338  10.547  11.619   0.513  0.3442 -0.2019 -0.0277
    1W        W50339  24.476  26.911   7.941 -0.0206  0.1131  0.0990
    1W        W50340  22.829  21.981   2.997 -0.1888  0.2473  0.1792
    1W        W50341   6.383  26.519   4.033  0.1909  0.2181 -0.1957
    1W        W50342  14.225  24.694   1.216  0.1411 -0.2811 -0.0036
    1W        W50343  23.117  17.287   6.506 -0.2711  0.1800 -0.0790
    1W        W50344  14.560  14.911   9.302  0.2824  0.0683  0.3460
    1W        W50345  15.642   7.291   1.684 -0.1732 -0.1972  0.2842
    1W        W50346  14.136   5.550   7.370 -0.0542  0.0918  0.0599
    1W        W50347   2.527  26.340   2.500  0.0465  0.0382 -0.3545
    1W        W50348  22.959  17.526   2.433 -0.2027 -0.0928  0.1169
    1W        W50349  16.980  14.484   0.228  0.3081  0.0419 -0.3069
    1W        W50350   6.029  14.465   0.674  0.2478 -0.2237  0.2596
    1W        W50351  10.717  20.345   2.182  0.0042  0.1257  0.2350
    1W        W50352   9.455  17.564   1.396  0.0310  0.1431  0.0183
    1W        W50353   0.686   5.476   9.083  0.1909 -0.1951 -0.0872
    1W        W50354  20.865  20.767   8.468  0.2542 -0.2904  0.1434
    1W        W50355  11.513  23.351   9.304 -0.0914  0.2689 -0.0045
    1W        W50356   3.658  15.703   7.870  0.1306 -0.0062  0.0459
    1W        W50357  26.537  27.426   1.346 -0.0063 -0.1353 -0.1465
    1W        W50358  27.187   6.743   3.788 -0.1110 -0.0428  0.0575
    1W        W50359  24.924  12.151   9.514  0.0571  0.2381  0.2537
    1W        W50360  17.413  14.562   8.262  0.0965 -0.0057 -0.0302
    1W        W50361  17.329  10.281   6.039  0.1500  0.2962 -0.3416
    1W        W50362  15.941  25.659   7.407  0.1636  0.0282 -0.1220
    1W        W50363  28.673  11.809   2.489  0.1422  0.1971 -0.0991
    1W        W50364  23.807   8.560   9.142 -0.0686 -0.2152  0.0439
    1W        W50365  21.012   8.639   9.766 -0.2286 -0.0866  0.3577
    1W        W50366   0.354  23.536   2.932 -0.1129 -0.0586 -0.3365
    1W        W50367  17.914   7.127   5.994 -0.1732  0.3678 -0.0743
    1W        W50368   7.664  11.672   2.205 -0.0796 -0.0297  0.0787
    1W        W50369   1.933  14.349   0.285  0.1067 -0.0725 -0.0875
    1W        W50370   1.261   6.280   3.806 -0.1391  0.1155  0.2134
    1W        W50371   7.212  28.689   1.228  0.0883  0.1175  0.2456
    1W        W50372   0.790  11.949   7.307 -0.0148 -0.1252 -0.0569
    1W        W50373   1.301  14.637   8.633  0.0041  0.0058 -0.0059
    1W        W50374   4.962  21.603   8.081 -0.0096 -0.1819 -0.2549
    1W        W50375  27.838  26.029   9.557 -0.0451 -0.2512 -0.0739
    1W        W50376  28.492  23.863   1.818  0.3553  0.2090  0.1566
    1W        W50377  28.245  23.934   1.281 -0.0872  0.2687 -0.0165
    1W        W50378   4.350  12.920   2.585  0.3596 -0.3581 -0.1373
    1W        W50379  19.703  11.672   2.023  0.0205 -0.3018  0.1461
    1W        W50380  25.063   7.178   9.242  0.1866 -0.1138  0.1991
    1W        W50381  10.511   2.979   1.010  0.1470  0.3944  0.0404
    1W        W50382   6.668   6.244   7.719  0.2895 -0.2370  0.1253
    1W        W50383  18.662  11.722   1.818 -0.0260 -0.3913  0.1553
    1W        W50384  25.253  15.151   8.424 -0.0402  0.0529  0.0382
    1W        W50385   5.437   5.032   1.600 -0.1825  0.2249  0.1263
    1W        W50386  24.229  16.038   7.833  0.1396 -0.1109 -0.2790
    1W        W50387  19.267  14.848   1.837 -0.1653  0.0465  0.0197
    1W        W50388  23.948  27.837   7.487 -0.2399  0.0406  0.1991
    1W        W50389   6.893  10.471   7.372  0.0951  0.0055  0.0859
    1W        W50390   9.233  17.722   6.267 -0.1386  0.0245 -0.2570
    1W        W50391  10.815   5.023   2.070  0.1087 -0.4342 -0.0143
    1W        W50392   7.641   4.835   2.141  0.1956  0.0579 -0.0291
    1W        W50393  12.856   8.514   5.473  0.1379 -0.0851 -0.1586
    1W        W50394  23.101  20.481   9.180  0.1577  0.1104 -0.1648
    1W        W50395   7.382  24.980   1.064 -0.1092  0.5339 -0.1644
    1W        W50396   7.724   2.411   0.243 -0.0771 -0.2829 -0.2617
    1W        W50397  24.625  15.198   3.101  0.2316 -0.2578 -0.0031
    1W        W50398  19.819  20.034   7.602 -0.0334  0.0551 -0.3708
    1W        W50399   6.068   5.757   8.197  0.4012 -0.1308 -0.0855
    1W        W50400  10.202   3.259   7.799 -0.0666  0.0506  0.0846
    1W        W50401  20.744   5.375   2.404  0.2954  0.1096 -0.0520
    1W        W50402  12.567  19.076   7.871 -0.3405 -0.4537 -0.0249
    1W        W50403  23.529   1.866   2.250  0.2095  0.1668  0.0993
    1W        W50404  14.336  12.984   9.562 -0.3182  0.1511 -0.0094
    1W        W50405   6.879  26.890   8.079  0.1914  0.0028 -0.3024
    1W        W50406  10.972  26.078   2.920  0.0613 -0.0747  0.0540
    1W        W50407  23.094  24.793   0.068  0.0336  0.0282 -0.2308
    1W        W50408  10.739  14.989   7.360  0.2084 -0.0734 -0.0294
    1W        W50409  26.817  11.183   8.398  0.0531  0.1679 -0.1946
    1W        W50410  19.517   0.116   1.042 -0.0393  0.0327 -0.1425
    1W        W50411   5.988   6.523   1.584  0.1886  0.2197 -0.1055
    1W        W50412  16.052   0.951   7.085  0.0227  0.2747  0.3771
    1W        W50413  10.366   7.834   6.134 -0.2297  0.3007  0.1716
    1W        W50414  11.353  26.101   0.206  0.3233  0.0477 -0.0159
    1W        W50415  11.746  14.761   8.406 -0.0862 -0.0512 -0.0786
    1W        W50416  19.703  17.567   8.730  0.0858  0.1074 -0.1230
    1W        W50417   6.613   3.304   1.218  0.0130 -0.0163  0.0648
    1W        W50418   0.015  21.400   9.627 -0.0355  0.1226  0.3271
    1W        W50419  26.525  25.105   1.148  0.0770  0.2243 -0.1209
    1W        W50420   9.296   1.816   2.002  0.1315  0.0919  0.3564
    1W        W50421   4.207  22.943   0.683 -0.0199 -0.0851  0.0714
    1W        W50422  14.124  13.657   7.931  0.2742 -0.3952  0.1276
    1W        W50423   2.185   4.613   0.838  0.1422 -0.1793  0.0577
    1W        W50424  10.878  20.376   2.697  0.2300  0.0117  0.3843
    1W        W50425  21.126  18.592   5.775 -0.3119  0.1677 -0.0327
    1W        W50426  14.346   8.366   7.499 -0.0459 -0.1703 -0.0690
    1W        W50427   6.107  25.096   1.257 -0.3168  0.0316  0.0212
    1W        W50428   0.992   5.676   9.453 -0.0139 -0.1138  0.2107
    1W        W50429  15.395  19.997   1.602  0.1819 -0.2027 -0.1639
    1W        W50430  22.726   8.118   2.270 -0.0595  0.0205  0.1538
    1W        W50431  13.221  17.810   9.786  0.0671 -0.1477  0.0939
    1W        W50432  22.247   2.837   8.371 -0.1476  0.1188  0.1248
    1W        W50433   5.933  13.987   7.662 -0.1917  0.1938 -0.1925
    1W        W50434   0.221  11.559   9.879  0.1977  0.2507 -0.3435
    1W        W50435   2.319   6.881   0.411  0.0782 -0.1201 -0.0440
    1W        W50436  27.309  18.602   2.589  0.0456  0.0819  0.1077
    1W        W50437  28.529  22.208   3.450 -0.0770  0.0096  0.1974
    1W        W50438  23.928  11.363   0.087  0.0694  0.1628  0.3685
    1W        W50439  16.973   4.474   0.152  0.2350  0.2405 -0.0868
    1W        W50440  27.881  21.735   9.453  0.1845 -0.3193  0.2897
    1W        W50441   2.980  25.551   0.500  0.4134 -0.2132 -0.4633
    1W        W50442   5.098  23.445   7.968 -0.1165 -0.1934 -0.1769
    1W        W50443  15.230  26.998   8.993 -0.2501 -0.1460 -0.2633
    1W        W50444  28.520   6.320   8.581  0.2658  0.1031  0.1367
    1W        W50445  10.219  13.664   2.093  0.1831 -0.1517  0.1224
    1W        W50446  16.249  22.072   2.179 -0.0994  0.2772  0.0589
    1W        W50447  13.461  10.462   0.363 -0.1135  0.1925  0.0039
    1W        W50448  16.075  18.005   9.211  0.0173 -0.4253 -0.1878
    1W        W50449  20.416   1.720   0.698 -0.0456  0.2521 -0.0738
    1W        W50450  20.619  14.573   0.108  0.1096 -0.0157  0.2375
    1W        W50451  22.929  16.582   2.391  0.0113  0.1697  0.0085
    1W        W50452   2.704   3.907   7.646  0.1291  0.1319 -0.0249
    1W        W50453  14.101  16.858   6.666  0.1585 -0.0490 -0.0888
    1W        W50454   1.650  25.632   2.306  0.0306 -0.2628 -0.3045
    1W        W50455  20.382   5.454   6.982  0.0726  0.1350 -0.2110
    1W        W50456  23.559  15.806   2.238  0.1160  0.0857 -0.1643
    1W        W50457  13.549  18.041   2.415 -0.1060  0.0713  0.0457
    1W        W50458  15.298  25.738   7.876 -0.2452 -0.0788 -0.3418
    1W        W50459  25.059  17.997   9.712 -0.1929  0.2959  0.0551
    1W        W50460  28.592  12.282   9.679  0.1568 -0.2393  0.0610
    1W        W50461  11.626  26.811   6.727 -0.1372 -0.1945  0.1478
    1W        W50462  16.750  27.379   1.074 -0.5561 -0.1766  0.0661
    1W        W50463   3.353   0.547   1.724  0.1058  0.2930  0.2601
    1W        W50464  28.703  15.650   8.501  0.0312 -0.2506  0.0875
    1W        W50465  26.797   9.064   8.354 -0.2984 -0.1190  0.1867
    1W        W50466  15.737  13.990   0.987  0.2877 -0.0887  0.2398
    1W        W50467   7.666  16.190   0.549 -0.0627  0.2799 -0.2775
    1W        W50468  21.617  16.070   0.051 -0.2902  0.0621 -0.0763
    1W        W50469   5.775  28.396   9.452 -0.0604 -0.0632 -0.0858
    1W        W50470   9.532  14.004   0.590 -0.1133 -0.0564 -0.2792
    1W        W50471  12.434   7.654   6.010 -0.0027  0.3315 -0.0737
    1W        W50472  22.409  16.034   7.483  0.0054  0.1604  0.1301
    1W        W50473   1.613  13.155   3.621  0.0375  0.1634 -0.2544
    1W        W50474  20.468  16.327   6.890 -0.1707 -0.2038  0.1856
    1W        W50475  15.045   4.944   8.594 -0.0396  0.0986  0.0100
    1W        W50476  10.472  11.479   5.863  0.4717  0.1772 -0.2424
    1W        W50477  15.148  14.135   8.654  0.1480 -0.0618 -0.1849
    1W        W50478   1.348  16.923   0.130  0.4340 -0.1066  0.2856
    1W        W50479  19.284   9.605   6.621  0.1666  0.0170  0.0225
    1W        W50480   9.478  28.657   3.262  0.0235  0.1978  0.2242
    1W        W50481  14.239  24.284   1.527 -0.1084  0.0108  0.1422
    1W        W50482  26.761  28.212   7.895  0.0289 -0.1824 -0.2434
    1W        W50483  26.478   2.044   9.966 -0.0235  0.0552 -0.0446
    1W        W50484  24.835   0.952   8.412  0.1904  0.3001  0.1649
    1W        W50485   1.122  13.018   0.601 -0.3557 -0.0429 -0.1993
    1W        W50486   0.202   3.270   0.683  0.2724 -0.0366  0.1563
    1W        W50487  16.947  23.360   7.987  0.2135  0.3418  0.2730
    1W        W50488  28.762   2.302   2.627  0.0497  0.1468  0.0625
    1W        W50489  20.034  20.007   1.159  0.3152  0.0364 -0.4462
    1W        W50490   2.944   8.396   9.196  0.1221 -0.3133 -0.0307
    1W        W50491  13.035  10.199   0.701 -0.0119 -0.0189  0.0372
    1W        W50492  13.428   4.101   0.463 -0.1444 -0.1766  0.1371
    1W        W50493   1.417  24.567   0.954 -0.2359 -0.0371 -0.0852
    1W        W50494   7.490  13.804   9.125 -0.0728  0.1345 -0.0289
    1W        W50495   2.570  16.946   8.269 -0.0044  0.0039  0.1366
    1W        W50496  12.485  21.997   8.259 -0.1080  0.1891  0.3105
    1W        W50497  15.514  23.182   2.634  0.1676  0.2466  0.0273
    1W        W50498  23.061  18.284   7.106 -0.1997  0.2928  0.1534
    1W        W50499  18.429  21.154   0.609 -0.0899 -0.0996 -0.0365
    1W        W50500  23.838   1.764   7.591 -0.0536  0.4205 -0.2954
    1W        W50501   8.898   4.870   9.346  0.1841 -0.1427  0.2557
    1W        W50502  19.362   1.274   1.166  0.1322  0.0169  0.1167
    1W        W50503  22.594   4.127   1.398  0.1469  0.0365 -0.0587
    1W        W50504  13.933  26.749   0.291  0.0816  0.0462  0.2656
    1W        W50505   3.118  27.784   0.574 -0.3175 -0.0988  0.0836
    1W        W50506  17.412   5.630   7.500  0.1019  0.2039  0.0970
    1W        W50507   6.916   3.091   3.207  0.1181  0.0253  0.1623
    1W        W50508   3.893  18.597   2.898  0.0458  0.4594 -0.2286
    1W        W50509  15.127  11.724   8.992 -0.1418  0.0536  0.1460
    1W        W50510  25.907  12.347   3.638 -0.0068 -0.0669  0.0340
    1W        W50511  19.950  14.163   6.453 -0.0385  0.0824 -0.0024
    1W        W50512  11.524   4.117   8.766 -0.0294  0.0675  0.1112
    1W        W50513   9.058  25.756   2.238 -0.1181  0.1487 -0.2636
    1W        W50514   3.010  21.549   7.048  0.0562 -0.2755  0.1120
    1W        W50515  20.898  17.167   6.761  0.0632 -0.0435  0.4253
    1W        W50516  17.239  25.377   9.755  0.0882 -0.0008  0.3228
    1W        W50517   9.115   0.754   9.815 -0.0858  0.0118 -0.0853
    1W        W50518   3.081  12.594   1.437 -0.2479 -0.1083 -0.4292
    1W        W50519   8.561   7.186   3.366  0.3560  0.2312 -0.0689
    1W        W50520  22.991  21.286   6.848  0.0932 -0.2965 -0.0081
    1W        W50521  25.610  27.773   8.614 -0.1471 -0.0198 -0.1232
    1W        W50522  14.684  15.973   1.885 -0.1238  0.2493  0.1617
    1W        W50523   8.904   4.195   6.895 -0.2955 -0.0256  0.0741
    1W        W50524  28.778  28.281   0.742 -0.2084 -0.0694  0.1651
    1W        W50525  21.482  25.140   2.684 -0.0498  0.3482  0.1842
    1W        W50526   4.134   4.416   3.419  0.1402  0.1088 -0.1589
    1W        W50527   2.616  26.957   1.786  0.0575 -0.0441  0.1541
    1W        W50528   5.599  18.317   2.292  0.5529 -0.2879 -0.4700
    1W        W50529  17.585   4.160   8.029 -0.3956  0.1859 -0.1345
    1W        W50530  14.766   4.455   7.512  0.2183  0.1409  0.2311
    1W        W50531  24.416  11.414   7.386  0.0340 -0.1846  0.2237
    1W        W50532   6.869  12.992   7.706 -0.2776 -0.0009  0.0521
    1W        W50533  14.930  16.229   2.809 -0.0324  0.1597 -0.1477
    1W        W50534  10.780  25.097   0.604  0.1185  0.1870  0.0489
    1W        W50535  13.788  17.211   6.427  0.2795  0.0836  0.2287
    1W        W50536  11.189  16.655   0.728 -0.2271 -0.1341 -0.0035
    1W        W50537  23.546  24.315   0.450 -0.2392 -0.0641  0.1271
    1W        W50538  12.801  16.827   2.093  0.0967  0.0764 -0.0965
    1W        W50539   9.488  18.994   7.419  0.0495 -0.0845 -0.2404
    1W        W50540  26.573  21.078   9.415  0.0385  0.0322 -0.2985
    1W        W50541  21.161   0.978   7.319  0.2438  0.2091 -0.2981
    1W        W50542  10.961  11.867   8.602  0.1998  0.2579 -0.0734
    1W        W50543  10.727  20.243   0.437  0.0866 -0.1964  0.0497
    1W        W50544  19.807   5.191   8.737  0.2704 -0.1871 -0.0675
    1W        W50545  10.531  11.474   8.517 -0.2735  0.4702  0.0174
    1W        W50546   9.853  24.913   7.398  0.0363 -0.1457 -0.2839
    1W        W50547   8.454  23.030   1.965 -0.0249 -0.0605 -0.0275
    1W        W50548   7.878   2.720   9.469  0.1478 -0.2542  0.2857
    1W        W50549   0.873  15.275   1.320  0.2081 -0.3562 -0.0000
    1W        W50550  25.674  26.770   8.477  0.1241  0.0930  0.3272
    1W        W50551  12.814   7.306   0.097  0.0307  0.1409  0.0456
    1W        W50552  21.747  26.589   3.081  0.0754  0.2313 -0.0307
    1W        W50553  19.952  11.945   9.790  0.2672 -0.1910  0.1260
    1W        W50554  25.394   5.782   1.737  0.2105 -0.0341 -0.0828
    1W        W50555  11.194  18.729   7.669  0.0538 -0.1201  0.0874
    1W        W50556  19.824  17.275   9.099 -0.0816 -0.1827 -0.0417
    1W        W50557  19.454  25.288   1.527 -0.0312  0.3412 -0.2473
    1W        W50558  17.727   4.173   6.658  0.3297 -0.0527 -0.1829
    1W        W50559  26.119  12.273   8.649 -0.0129 -0.0715 -0.1701
    1W        W50560  18.721  24.324   1.627  0.0935 -0.3822  0.2640
    1W        W50561   8.893   6.316   1.781 -0.2019  0.2213 -0.2164
    1W        W50562  12.261   4.018   0.895 -0.0017 -0.0211  0.0531
    1W        W50563  10.709   4.595   2.914  0.0004 -0.0789 -0.3455
    1W        W50564  10.345  28.120   7.787 -0.2849 -0.2577  0.2402
    1W        W50565   6.371   4.139   9.602  0.0584  0.0365 -0.2177
    1W        W50566  18.288   4.345   0.023  0.1267 -0.0206 -0.0169
    1W        W50567   6.023   8.495   8.372 -0.3742  0.2019  0.0910
    1W        W50568  16.817  26.333   8.113  0.0044  0.3031 -0.2280
    1W        W50569   9.993   3.086   8.221  0.3086  0.1050 -0.0503
    1W        W50570   1.569  20.409   3.800 -0.3839 -0.1427  0.0501
    1W        W50571   4.528  24.704   8.363  0.0758 -0.2053 -0.0837
    1W        W50572  12.260  12.174   2.403 -0.0037  0.1585 -0.0202
    1W        W50573  22.913   4.462   0.460 -0.1636  0.0326 -0.3800
    1W        W50574  24.066  21.893   3.805  0.3561 -0.1438 -0.0872
    1W        W50575  20.564  25.153   8.101 -0.2305 -0.1279  0.0950
    1W        W50576  21.323   5.046   8.003 -0.0979 -0.0164 -0.2941
    1W        W50577   6.885  16.372   7.075  0.3124 -0.1887  0.1744
    1W        W50578  16.007  27.081   6.940 -0.0268 -0.1457 -0.2231
    1W        W50579   8.982  22.017   3.264  0.1862 -0.0585 -0.0706
    1W        W50580   2.270  25.629   7.905 -0.1774  0.0918 -0.1721
    1W        W50581  11.965  17.214   0.382 -0.3405  0.0347  0.0555
    1W        W50582  13.975   0.558   1.829 -0.0251 -0.0613  0.6917
    1W        W50583   0.103   4.875   0.430 -0.4163  0.0674  0.0215
    1W        W50584  15.710  22.312   0.583  0.4019  0.0071 -0.2814
    1W        W50585   8.802  23.275   3.947  0.2471 -0.1460 -0.1217
    1W        W50586   2.007   7.808   2.318 -0.1209  0.1408  0.5517
    1W        W50587  19.475  15.899   1.322  0.0033  0.0575 -0.2905
    1W        W50588  24.730   0.413   3.022  0.2340 -0.0698 -0.4367
    1W        W50589  25.490   8.102   7.590  0.2585 -0.0190 -0.2791
    1W        W50590   4.947   1.050   2.574 -0.0164  0.0990 -0.0154
    1W        W50591   4.824  13.238   1.587 -0.1857 -0.0978  0.2368
    1W        W50592  23.749  23.084   1.211  0.0030  0.0007 -0.4298
    1W        W50593  12.426  21.988   8.873  0.0223 -0.1451  0.0733
    1W        W50594  21.963  12.622   9.457  0.1230 -0.0880 -0.2957
    1W        W50595  12.239  12.218   0.083 -0.2030 -0.0917 -0.0226
    1W        W50596   7.442   8.381   0.167 -0.1500  0.4796 -0.0098
    1W        W50597  13.775  20.330   0.281  0.0316  0.1644 -0.2129
    1W        W50598  10.024  22.920   8.533 -0.0297 -0.1977 -0.1465
    1W        W50599  28.820   9.685   0.188 -0.1446  0.0969 -0.1612
    1W        W50600  14.170  20.425   8.901  0.1475  0.1056 -0.4082
    1W        W50601  11.010  12.337   8.196 -0.1255 -0.0415  0.2254
    1W        W50602   9.767  28.512   0.939  0.4585  0.2078  0.2364
    1W        W50603  12.488  16.181   6.406  0.0929 -0.0936 -0.0729
    1W        W50604   5.145  24.615   7.808 -0.1896  0.0106  0.0204
    1W        W50605   3.417  25.550   0.201 -0.1841 -0.3223  0.0213
    1W        W50606  15.661  16.090   1.647 -0.2895 -0.0175  0.0189
    1W        W50607  16.805  16.776   5.982  0.0667 -0.1525  0.2092
    1W        W50608  22.336   1.108   9.840  0.1328  0.1745 -0.3509
    1W        W50609   9.820   6.606   1.693  0.0240  0.1052 -0.0576
    1W        W50610  27.863   6.145   2.248  0.0672 -0.0332  0.0689
    1W        W50611   2.451  22.676   0.788 -0.4748  0.3477 -0.0073
    1W        W50612   4.404   6.765   7.596 -0.1637 -0.1133 -0.0877
    1W        W50613   7.030  19.743   9.833 -0.1240  0.0327 -0.0248
    1W        W50614  11.994   2.822   9.919  0.0640  0.0547 -0.2116
    1W        W50615  24.317  15.166   1.829  0.0489 -0.0430  0.1367
    1W        W50616   3.512  26.257   9.606 -0.1102  0.1571 -0.1084
    1W        W50617  17.686  27.254   9.582 -0.1620  0.2674 -0.1250
    1W        W50618   0.076  15.963   0.961  0.1015 -0.2578 -0.0651
    1W        W50619  28.666  27.124   0.912  0.0472  0.1127  0.0729
    1W        W50620  27.495  13.209   9.674 -0.2807  0.1295 -0.0004
    1W        W50621  15.067   0.744   6.677 -0.1791  0.0493  0.5052
    1W        W50622   0.602   5.019   3.768 -0.0087 -0.2493  0.0414
    1W        W50623  14.559  13.514   6.260  0.1256  0.1174 -0.1579
    1W        W50624   2.131  11.510   7.913 -0.3658  0.1353  0.0436
    1W        W50625   7.267   9.489   7.319 -0.2505  0.0682  0.1562
    1W        W50626  14.503   0.589   7.978  0.2124  0.1015 -0.4055
    1W        W50627  19.601  21.506   9.833 -0.2126  0.1063  0.0413
    1W        W50628  18.393   9.907   6.760 -0.0170  0.1339  0.0749
    1W        W50629  14.515   3.686   6.777  0.2851 -0.1175  0.0108
    1W        W50630  25.952  27.763   8.986 -0.0047  0.3526 -0.0633
    1W        W50631  22.163  22.959   3.368  0.0603  0.0267 -0.0387
    1W        W50632  16.088   6.670   0.779 -0.0716  0.3891  0.2052
    1W        W50633   6.178  17.948   0.800  0.2913 -0.1766  0.2991
    1W        W50634  20.960  23.975   9.682  0.2554  0.1707  0.2677
    1W        W50635  17.273  28.114   9.875 -0.2800 -0.0339  0.0754
    1W        W50636  14.782  25.875   0.875 -0.1983  0.2419  0.1627
    1W        W50637   1.179   1.610   8.772 -0.2179  0.1735 -0.0436
    1W        W50638   8.416  21.791   1.134 -0.0882  0.1481  0.1892
    1W        W50639  15.375  26.783   7.838 -0.4940  0.2715  0.0101
    1W        W50640  23.598  13.673   2.743 -0.1271  0.0847 -0.1308
    1W        W50641   2.075  13.058   3.682 -0.3313  0.2586  0.0861
    1W        W50642  24.073  21.276   1.037  0.0909  0.0064 -0.3091
    1W        W50643  23.755   1.505   8.822 -0.1789 -0.0502 -0.0340
    1W        W50644  19.732   0.452   8.581 -0.3452 -0.0290 -0.3030
    1W        W50645   2.837   8.308   7.192 -0.2170  0.1913  0.3912
    1W        W50646   5.070  18.532   3.174  0.4251  0.1810  0.1300
    1W        W50647  21.690  11.940   8.216 -0.0558 -0.0163 -0.3673
    1W        W50648  13.162   4.472   1.969 -0.0576 -0.0156 -0.0425
    1W        W50649   7.671  27.858   8.035  0.1453 -0.1783  0.3228
    1W        W50650  27.705  22.923   8.523  0.0746  0.3570 -0.2555
    1W        W50651   3.394  24.592   7.533 -0.0098  0.2642 -0.2114
    1W        W50652  22.543  20.009   0.105  0.3805  0.0093  0.1668
    1W        W50653  26.024   3.678   8.549 -0.1550 -0.3827  0.0819
    1W        W50654   8.758  20.689   2.454  0.1010  0.1519  0.1130
    1W        W50655   1.261  17.383   8.953  0.1652 -0.0410  0.1447
    1W        W50656  21.013  22.128   0.600 -0.0541  0.0166 -0.0659
    1W        W50657  16.413  24.764   7.532  0.0638 -0.1200 -0.2667
    1W        W50658   0.738  20.333   1.716  0.3937 -0.1418 -0.1618
    1W        W50659  10.709  12.922   9.470 -0.2555 -0.1164  0.0737
    1W        W50660   5.866   4.808   2.736 -0.0690  0.0721 -0.0108
    1W        W50661   3.933   0.676   4.041  0.0315 -0.2497 -0.0393
    1W        W50662  19.234   4.183   0.256 -0.0368 -0.4155  0.0601
    1W        W50663  22.011  12.142   2.059 -0.0564 -0.2435 -0.0355
    1W        W50664  19.506  18.666   1.929  0.0184 -0.3848 -0.0364
    1W        W50665  21.967  21.102   6.870 -0.2545 -0.0842 -0.0996
    1W        W50666  22.717  14.826   3.046  0.4416  0.3117 -0.0544
    1W        W50667  18.601  23.976   7.501 -0.0364 -0.1082 -0.0379
    1W        W50668  21.050  18.093   8.849 -0.2870 -0.0593  0.0097
    1W        W50669  17.789  28.488   7.249  0.0124 -0.2249  0.0044
    1W        W50670   0.785  23.747   9.629 -0.4941 -0.0584  0.2374
    1W        W50671  24.473  20.429   1.191 -0.1411 -0.1271 -0.0216
    1W        W50672  15.581  12.575   9.638 -0.0548  0.0715 -0.0534
    1W        W50673  14.148  16.637   7.925 -0.0535 -0.1202  0.0992
    1W        W50674  13.483  26.859   7.635 -0.0024  0.1769 -0.0746
    1W        W50675  19.060   5.982   0.875  0.1801  0.1070 -0.2351
    1W        W50676  16.108   6.998   8.491  0.1364  0.2077  0.3081
    1W        W50677   7.048   8.871   0.961  0.1810 -0.0405 -0.0837
    1W        W50678  15.720   6.918   0.904  0.2818  0.1211  0.1547
    1W        W50679  12.834   1.917   7.708 -0.2099  0.0627 -0.2357
    1W        W50680  12.242   1.122   0.442  0.3237  0.0736  0.2137
    1W        W50681  12.175  16.589   7.198  0.1541  0.2381  0.0364
    1W        W50682  18.559  13.637   7.220  0.4006 -0.2572  0.0854
    1W        W50683   9.803  18.201   9.736 -0.2048  0.1860  0.2616
    1W        W50684  19.913   4.974   9.932 -0.0538  0.2002  0.0148
    1W        W50685   4.570  14.948   8.261  0.1766  0.1759 -0.3259
    1W        W50686  27.748  21.776   2.571 -0.2341 -0.1074 -0.0049
    1W        W50687  28.221  20.168   2.340  0.0970  0.0133 -0.0800
    1W        W50688  15.364  16.830   1.188  0.1470  0.1558 -0.2536
    1W        W50689   8.591   1.392   9.435  0.0383 -0.0715 -0.1264
    1W        W50690   3.318  23.319   2.952 -0.1391  0.0412 -0.0622
    1W        W50691  17.111  24.095   9.121 -0.0398  0.0253 -0.0287
    1W        W50692  22.234  26.703   2.981 -0.3199 -0.2074 -0.0061
    1W        W50693  22.473  18.417   7.073  0.1593  0.0874 -0.1422
    1W        W50694  23.665  17.629   9.495 -0.0735 -0.1048  0.0887
    1W        W50695  28.380  26.817   0.135 -0.0758 -0.1596 -0.0634
    1W        W50696   2.286   3.525   9.687  0.1348  0.3957 -0.2842
    1W        W50697   1.638  23.319   3.505  0.1369 -0.0946  0.1536
    1W        W50698  13.864  17.590   0.428  0.3403  0.1836 -0.0632
    1W        W50699   3.899   0.923   4.458 -0.0928  0.0217  0.0106
    1W        W50700   3.615   3.675   1.651 -0.0946 -0.3836 -0.2380
    1W        W50701   3.040   7.131   2.852  0.2154  0.3917 -0.2342
    1W        W50702  15.690  10.962   8.279  0.0259 -0.0579  0.0139
    1W        W50703   9.827  28.817   2.070 -0.4129 -0.0049  0.2999
    1W        W50704  27.505   6.762   9.721 -0.1084 -0.2409 -0.3182
    1W        W50705   0.371   8.865   2.356  0.0767  0.0717  0.0533
    1W        W50706  12.850  14.475   7.814 -0.0602 -0.3575  0.1738
    1W        W50707   3.000  15.844   0.285  0.0871  0.2492 -0.1240
    1W        W50708   4.831   9.540   0.852  0.5094  0.3102 -0.2062
    1W        W50709   8.562   1.796   9.159  0.1216  0.0345  0.0409
    1W        W50710   3.818  23.192   9.881 -0.0043 -0.0713 -0.0665
    1W        W50711  28.626  13.082   2.296  0.1618 -0.1845 -0.0361
    1W        W50712  24.756   0.345   7.415 -0.0825  0.1906 -0.0940
    1W        W50713  28.246   7.396   0.030 -0.1285  0.1653  0.0177
    1W        W50714   1.081  18.844   8.987  0.2031  0.1554 -0.1899
    1W        W50715  22.782  15.386   7.102 -0.1605  0.2527 -0.0843
    1W        W50716  13.736  22.745   1.452 -0.0961 -0.2021  0.0271
    1W        W50717   3.140   8.034   8.750 -0.0461  0.1279 -0.2316
    1W        W50718   0.685  25.067   8.294 -0.2269 -0.2125  0.1308
    1W        W50719   8.550   1.189   1.985 -0.4102  0.1239  0.0203
    1W        W50720  17.609   9.376   1.483 -0.3528 -0.1589 -0.0647
    1W        W50721  13.732  27.275   0.317  0.1010  0.1264  0.0663
    1W        W50722   8.926  15.276   1.350  0.3156  0.1001 -0.1422
    1W        W50723  15.461  23.982   2.790  0.1347  0.2178  0.2389
    1W        W50724   5.556   8.052   9.832 -0.1844  0.4897 -0.3277
    1W        W50725  25.906  20.281   3.671 -0.3779  0.2712  0.0139
    1W        W50726  26.735  19.538   0.784 -0.0081 -0.2406  0.1610
    1W        W50727  19.540  28.141   9.927 -0.1181  0.1734  0.1267
    1W        W50728  25.491  16.293   9.259 -0.4107 -0.0773 -0.0536
    1W        W50729   8.880   6.210   1.284  0.0458  0.1904 -0.2653
    1W        W50730  21.486  11.967   1.325 -0.1139  0.0998 -0.3437
    1W        W50731  16.987  20.214   6.781 -0.0050  0.0268  0.1438
    1W        W50732  25.327  18.297   1.340 -0.0702 -0.4213 -0.0154
    1W        W50733   2.515  25.671   0.183  0.1391 -0.0072 -0.1025
    1W        W50734  15.041  23.110   0.526 -0.2641  0.1609  0.0854
    1W        W50735  18.522  17.135   8.801  0.0902  0.0364 -0.0860
    1W        W50736   8.437   0.727   9.987 -0.2015 -0.1149 -0.2077
    1W        W50737  16.257  23.269   7.274  0.2155  0.1281  0.0519
    1W        W50738  11.758  22.098   1.399  0.2206 -0.1825 -0.0051
    1W        W50739   5.590   2.031   8.324 -0.0937 -0.0602 -0.0814
    1W        W50740   0.638  19.822   1.565  0.1283 -0.1096  0.2018
    1W        W50741  28.050   6.209   9.590  0.0817 -0.0712 -0.0060
    1W        W50742  12.871  18.291   1.218 -0.2650 -0.2014 -0.1468
    1W        W50743  25.413   3.234   3.444  0.0146 -0.0621 -0.2525
    1W        W50744   8.838   6.878   9.363  0.2323 -0.0565  0.1551
    1W        W50745  27.067  12.996   3.853  0.2618 -0.1240  0.2934
    1W        W50746  11.864  18.427   6.759  0.0753 -0.1117  0.1630
    1W        W50747  11.081  22.730   3.878 -0.0401  0.2004  0.0998
    1W        W50748   1.303  14.565   3.020 -0.0691  0.2823  0.1078
    1W        W50749  21.720  13.303   6.212 -0.6562  0.1345  0.0129
    1W        W50750  28.845  11.302   2.355 -0.0982  0.2367 -0.0682
    1W        W50751   4.306  20.183   7.287  0.1724 -0.0357 -0.2188
    1W        W50752   7.947  14.965   7.385  0.2878 -0.0847  0.2816
    1W        W50753  16.893  22.618   0.486 -0.0094 -0.1411 -0.0244
    1W        W50754   7.751  27.319   1.911  0.0018  0.2759 -0.0738
    1W        W50755   7.038  10.256   7.838 -0.0064  0.0516  0.0451
    1W        W50756   9.779  10.404   1.261 -0.1526 -0.1325 -0.1173
    1W        W50757   4.819  18.826   7.243 -0.0766 -0.0071  0.1214
    1W        W50758   7.117   6.176   0.444  0.0308 -0.1849  0.4402
    1W        W50759  13.114  20.050   8.246 -0.0696 -0.1126  0.0600
    1W        W50760   9.629   7.949   0.363 -0.0676 -0.2983 -0.1209
    1W        W50761   2.597   9.817   9.956  0.1149 -0.0227  0.0548
    1W        W50762  24.286  12.168   0.255  0.0802  0.1065 -0.1609
    1W        W50763  20.909  17.234   1.521 -0.0173  0.0671  0.1626
    1W        W50764  16.184  16.927   6.746 -0.2565  0.0124 -0.1494
    1W        W50765  16.691  26.774   1.923  0.1264  0.3611  0.1937
    1W        W50766   9.533  16.198   7.169 -0.1307  0.0495  0.1983
    1W        W50767  10.347  14.818   7.687  0.0124  0.0814 -0.1924
    1W        W50768  13.302  16.670   7.708 -0.1827 -0.0750  0.0232
    1W        W50769  26.071  17.824   9.511 -0.3234  0.1084 -0.1957
    1W        W50770   1.222   5.421   1.507  0.1122 -0.2559  0.1986
    1W        W50771  21.445   9.033   6.101 -0.1444  0.0698  0.4514
    1W        W50772  23.741   9.304   2.627  0.0123 -0.1128  0.4434
    1W        W50773   6.786  19.627   7.422  0.1520  0.3780 -0.0487
    1W        W50774  15.254   1.450   8.761  0.1513  0.1167 -0.1282
    1W        W50775  23.729  25.307   3.148  0.2043 -0.0884 -0.0343
    1W        W50776   3.207  24.534   0.712  0.0907  0.0663 -0.1446
    1W        W50777   1.954   7.350   8.211 -0.0724 -0.0589 -0.1601
    1W        W50778   8.559   3.166   7.338 -0.0473  0.2569  0.3732
    1W        W50779  11.637  18.762   0.054 -0.0467 -0.1198 -0.0187
    1W        W50780  25.304  12.602   1.280 -0.0277  0.0667  0.0276
    1W        W50781  21.457  14.085   1.202 -0.1114 -0.1999 -0.0096
    1W        W50782   4.945  15.273   7.483  0.0831  0.1735 -0.2238
    1W        W50783  10.154   6.336   8.240  0.1067  0.0115  0.1183
    1W        W50784   0.985   4.462   1.450  0.1129 -0.1050  0.0819
    1W        W50785   9.721   8.383   6.226  0.1918 -0.0067 -0.2813
    1W        W50786   1.253  22.141   8.436 -0.0977  0.0506  0.1386
    1W        W50787  26.989  19.058   1.938 -0.0646  0.0687  0.0391
    1W        W50788   9.685  23.659   1.177  0.0180 -0.3465  0.0772
    1W        W50789   7.263   7.220   0.248 -0.0008 -0.0394 -0.0693
    1W        W50790  19.012  27.229   2.115  0.1354 -0.0244 -0.4027
    1W        W50791  14.710  25.822   9.190 -0.1194  0.2604 -0.1587
    1W        W50792   8.048   8.971   9.482 -0.0025  0.0561  0.0464
    1W        W50793  16.824  25.490   1.080  0.0191  0.1471  0.2836
    1W        W50794   7.807   6.646   0.864  0.0929  0.3079  0.0270
    1W        W50795  11.205   7.231   1.207 -0.0756 -0.2403 -0.0319
    1W        W50796  11.551  26.962   0.060  0.0772 -0.2542  0.2239
    1W        W50797   8.470  20.121   8.509 -0.1604 -0.0092  0.0299
    1W        W50798  16.616   1.124   8.321  0.3497 -0.1429  0.0076
    1W        W50799  28.169   2.264   8.420 -0.0662  0.2498 -0.0089
    1W        W50800  21.309  17.412   0.625 -0.1647  0.1611 -0.2551
    1W        W50801  11.948  13.316   9.511  0.0444  0.0586 -0.0840
    1W        W50802  22.456  14.957   7.593  0.1655 -0.0261 -0.1427
    1W        W50803  10.849  26.054   0.098 -0.2827 -0.1664 -0.1953
    1W        W50804  12.681  18.183   7.270  0.3053  0.0465 -0.0718
    1W        W50805  23.523  16.298   3.102 -0.2909  0.2045  0.1415
    1W        W50806  25.780  18.546   1.289 -0.1690  0.1180  0.0194
    1W        W50807   8.223   6.706   2.170  0.1711 -0.2222 -0.1461
    1W        W50808   4.412  21.578   7.596 -0.0184  0.0469 -0.0720
    1W        W50809  16.620   1.403   8.791  0.0110  0.3011  0.2520
    1W        W50810  22.815  20.533   7.942  0.1114 -0.1265  0.1301
    1W        W50811   6.672   6.536   2.359  0.3300  0.1009 -0.3278
    1W        W50812  18.126   8.616   0.200 -0.0532 -0.0712  0.1843
    1W        W50813  10.532  19.649   8.941 -0.0005  0.0388 -0.0631
    1W        W50814   5.253  19.393   2.189  0.1045  0.1687 -0.0057
    1W        W50815  18.510  14.457   6.639  0.0081 -0.3033  0.0181
    1W        W50816  21.425  25.469   0.759  0.2351  0.1630  0.0864
    1W        W50817   8.855  28.574   1.950 -0.0761  0.0863  0.0004
    1W        W50818  14.943  16.017   1.086 -0.1049 -0.0436  0.1617
    1W        W50819   6.428  25.428   1.499 -0.0391  0.0737 -0.0647
    1W        W50820   7.598  22.989   9.150 -0.1596  0.0579 -0.0561
    1W        W50821   1.849  11.373   8.863  0.0354 -0.1813 -0.0196
    1W        W50822  16.719  10.483   9.900 -0.4251  0.0476  0.1079
    1W        W50823  23.796   5.772   7.760 -0.3507 -0.4009  0.2543
    1W        W50824  14.177   4.294   7.600  0.0560  0.1585  0.3375
    1W        W50825  18.922  15.946   2.791  0.0265  0.0119  0.3413
    1W        W50826   7.700  15.291   0.747 -0.4179  0.4535 -0.0167
    1W        W50827  26.005  26.794   9.448 -0.0320 -0.0165 -0.0484
    1W        W50828  11.868  21.198   0.053  0.0345  0.0346 -0.0906
    1W        W50829   2.886   5.395   9.683 -0.2110  0.2450  0.0288
    1W        W50830  22.597  10.157   0.911 -0.1998  0.1937  0.1785
    1W        W50831  17.811  23.484   7.683 -0.5604  0.2788  0.0546
    1W        W50832  21.943  25.370   7.857 -0.4062 -0.2513  0.0834
    1W        W50833   0.603   4.464   1.064 -0.0948 -0.1151 -0.2876
    1W        W50834  14.215   0.472   6.475 -0.0018  0.3025  0.1616
    1W        W50835  22.379   0.361   9.862  0.1088  0.1109 -0.0003
    1W        W50836   0.707  23.124   3.191 -0.1973  0.0171  0.1766
    1W        W50837  16.401   6.736   6.334 -0.1818  0.2020  0.0231
    1W        W50838  11.347   7.767   9.943  0.1253  0.1024  0.1418
    1W        W50839  15.838  21.377   8.642 -0.1311 -0.2109  0.0396
    1W        W50840   7.716  19.970   6.981 -0.1326 -0.2195 -0.1171
    1W        W50841   8.238  21.011   2.322  0.2134 -0.2342  0.1328
    1W        W50842  11.827  11.919   2.085 -0.0191 -0.1544 -0.1247
    1W        W50843   0.945  25.210   8.940  0.0802  0.2122 -0.1324
    1W        W50844  18.937  21.414   0.627  0.0001  0.0915  0.1825
    1W        W50845   6.260   3.548   0.902  0.1966  0.0685 -0.0387
    1W        W50846  27.680  11.865   2.982 -0.1883  0.0442 -0.1247
    1W        W50847  15.470  22.079   1.975 -0.1448 -0.1301  0.1984
    1W        W50848  13.221  25.227   9.991  0.2332  0.2035  0.0764
    1W        W50849  14.142  19.632   9.110  0.0131  0.1817 -0.1271
    1W        W50850   4.721   8.809   0.266 -0.1435  0.1416 -0.1232
    1W        W50851  22.566  21.448   7.101 -0.2586  0.0529 -0.0008
    1W        W50852   1.889  23.838   9.596 -0.4269 -0.1986  0.0098
    1W        W50853  16.711  27.969   2.744 -0.0105 -0.3907  0.1667
    1W        W50854  24.137  19.775   8.435  0.1620 -0.3325 -0.1472
    1W        W50855   4.554  17.117   1.893  0.1489  0.0517 -0.1901
    1W        W50856  26.833  13.562   1.022 -0.1992 -0.1714 -0.0588
    1W        W50857  11.323   8.340   0.533 -0.1057 -0.0731 -0.0691
    1W        W50858   3.563   2.919   9.859 -0.0718  0.0653  0.0161
    1W        W50859  23.886  10.092   7.825 -0.0165 -0.0926  0.2820
    1W        W50860  11.426   6.519   9.044 -0.0172  0.0371 -0.0051
    1W        W50861  18.134   0.558   7.176 -0.0745 -0.1325  0.0520
    1W        W50862   7.737  25.912   7.813 -0.2318 -0.1823  0.2873
    1W        W50863   6.615  20.158   8.394  0.0605  0.4087  0.1017
    1W        W50864  12.867  13.720   1.029 -0.0147  0.0195 -0.1248
    1W        W50865  20.571  13.912   0.408 -0.1358  0.3165  0.1600
    1W        W50866  28.812  19.209   2.221 -0.0611  0.2453  0.2212
    1W        W50867   2.796  23.994   2.885  0.1264  0.1678  0.0528
    1W        W50868   6.505  18.437   7.026 -0.2309 -0.2362  0.0647
    1W        W50869  15.772   1.684   8.568  0.0659  0.1469 -0.0553
    1W        W50870  12.182   9.795   7.967 -0.0620 -0.2761  0.0088
    1W        W50871  21.801   9.583   0.082  0.0597  0.0196 -0.0920
    1W        W50872  22.942  17.288   0.473  0.0880  0.1426  0.0384
    1W        W50873  11.028  17.564   0.859 -0.1781 -0.1408 -0.0736
    1W        W50874  13.081  18.370   9.734 -0.2332  0.0115 -0.2661
    1W        W50875  17.008  11.425   8.954 -0.0306 -0.1846  0.0194
    1W        W50876  10.576   6.227   9.907 -0.0429  0.0322  0.4160
    1W        W50877  21.144  28.486   9.525  0.0449  0.0995 -0.1012
    1W        W50878  13.407  25.246   9.413  0.1912 -0.0920 -0.2206
    1W        W50879   2.211  15.809   7.900  0.1709 -0.1974 -0.3074
    1W        W50880   3.214   5.331   3.511  0.0146  0.1237  0.0220
    1W        W50881  17.047   8.316   7.960  0.4474 -0.2032 -0.1332
    1W        W50882  10.062  22.454   8.691 -0.0659  0.0224  0.3201
    1W        W50883  23.247  24.624   7.678 -0.0824 -0.1745  0.2776
    1W        W50884  12.622  20.962   7.440  0.2160  0.1255  0.2432
    1W        W50885  18.447  12.743   0.682  0.0362 -0.0657  0.2181
    1W        W50886  26.402   1.751   8.818 -0.1159 -0.0845  0.0431
    1W        W50887   6.269  26.048   8.201  0.0988  0.3135  0.2546
    1W        W50888  13.524  17.661   9.389 -0.0771 -0.1922 -0.2871
    1W        W50889   0.425  17.993   7.703 -0.2104  0.1637 -0.2495
    1W        W50890  28.026   0.546   2.738 -0.1302 -0.1208  0.1196
    1W        W50891  25.465  20.598   8.295 -0.1229 -0.0814  0.0581
    1W        W50892  19.504   9.422   7.077  0.1574  0.0556 -0.0647
    1W        W50893   8.142  26.203   3.494  0.1941  0.1241 -0.0991
    1W        W50894  14.417   2.624   7.334 -0.1469  0.1321  0.4834
    1W        W50895  12.972   6.311   1.786 -0.3181  0.0187  0.3621
    1W        W50896  23.526   5.101   9.266  0.2135 -0.0648  0.0488
    1W        W50897  28.485  12.662   2.988  0.1802  0.1349  0.3821
    1W        W50898   5.025  24.423   0.888  0.0552  0.0132 -0.2419
    1W        W50899  24.576  26.057   7.570  0.0271 -0.1750  0.3442
    1W        W50900   9.687   0.111   2.528 -0.3761 -0.0420  0.0452
    1W        W50901  26.173  14.372   1.780 -0.0858  0.1066 -0.1849
    1W        W50902   9.419  27.009   1.853 -0.0718  0.1148  0.2418
    1W        W50903  11.288   8.124   7.078 -0.4142  0.0394 -0.0971
    1W        W50904   0.198  23.701   9.550 -0.0088  0.0036  0.0477
    1W        W50905   8.218  16.207   0.826  0.0884 -0.0798  0.2075
    1W        W50906  16.702   8.491   8.857  0.0640 -0.2079  0.1947
    1W        W50907  28.094   8.780   2.068 -0.3068  0.2155 -0.2093
    1W        W50908   0.404  24.522   0.261  0.1521 -0.0771  0.1107
    1W        W50909   8.850  21.532   1.114 -0.5440  0.0224 -0.0914
    1W        W50910  11.790  16.816   0.705  0.1247 -0.2420 -0.0253
    1W        W50911   3.562  19.400   0.119 -0.1325  0.1509 -0.1567
    1W        W50912  11.796  21.780   1.820 -0.1327  0.2305 -0.1547
    1W        W50913   5.650   8.703   9.182 -0.1590 -0.1182 -0.1311
    1W        W50914   9.474  12.356   7.098 -0.0152 -0.0591 -0.2259
    1W        W50915  15.419  18.616   9.353 -0.0612 -0.1483  0.1052
    1W        W50916  24.790   3.612   2.332  0.5202  0.0456 -0.0719
    1W        W50917  24.611   8.044   9.688  0.2216  0.1349 -0.0527
    1W        W50918  23.881   0.777   1.321 -0.3243 -0.0277  0.1054
    1W        W50919  10.944   5.468   1.379 -0.1275 -0.1928  0.0733
    1W        W50920  25.233  20.376   2.932  0.0760 -0.0176  0.0057
    1W        W50921  11.398  11.241   6.845 -0.0516  0.2343 -0.1349
    1W        W50922   0.702   0.909   2.841  0.1306 -0.0569  0.2653
    1W        W50923  12.822   3.401   8.517  0.0825  0.1008  0.3596
    1W        W50924  18.706   5.503   7.361 -0.4821 -0.2997 -0.0244
    1W        W50925   9.405   6.634   7.594  0.1341 -0.0021 -0.1231
    1W        W50926   7.569   9.269   9.637 -0.2384 -0.3012 -0.4759
    1W        W50927   1.436   1.654   4.193  0.2357 -0.2409  0.0626
    1W        W50928  11.678   2.024   6.752 -0.0852  0.1188 -0.1503
    1W        W50929  20.037  11.493   0.019  0.1820 -0.0655 -0.1198
    1W        W50930   3.366  20.283   0.270 -0.0140  0.1500 -0.0200
    1W        W50931   6.736  10.440   8.208 -0.1016  0.2205 -0.1729
    1W        W50932   0.217  23.339   8.347  0.2230 -0.1465  0.0309
    1W        W50933  19.182   5.605   7.399 -0.2852 -0.0591 -0.0430
    1W        W50934   4.445   1.826   3.962  0.1339  0.1140  0.1700
    1W        W50935  20.785  26.094   8.000 -0.6378  0.0944  0.2733
    1W        W50936  18.725   0.086   9.974  0.2305 -0.3572 -0.2084
    1W        W50937   8.759  23.968   3.458 -0.4163  0.0029 -0.2523
    1W        W50938  23.367   2.697   7.619  0.1619 -0.2066  0.0349
    1W        W50939  24.885  28.265   0.738 -0.3952  0.0277 -0.0154
    1W        W50940   2.639   4.111   3.533 -0.0519  0.0221  0.0178
    1W        W50941  15.815  10.141   9.299 -0.1625  0.2039  0.1848
    1W        W50942  17.654   4.213   9.424  0.1592  0.2580 -0.3116
    1W        W50943  20.308   4.805   9.207  0.4052 -0.3358 -0.2337
    1W        W50944  28.737  23.149   8.723  0.0230  0.1256 -0.0034
    1W        W50945   2.001  18.282   3.593 -0.0818  0.1280 -0.1646
    1W        W50946   2.726   0.489   3.153  0.1117 -0.1166 -0.1134
    1W        W50947   1.354  22.497   1.468  0.1311 -0.1760  0.1131
    1W        W50948  11.849  22.363   0.130  0.0233  0.2074  0.1644
    1W        W50949  16.954  11.570   6.374 -0.2677  0.1295  0.0455
    1W        W50950  16.566   7.625   9.192 -0.0658  0.1416 -0.1491
    1W        W50951  24.648   8.216   7.041 -0.2359 -0.4043 -0.0008
    1W        W50952  28.267  14.953   0.427  0.1273  0.1342 -0.0449
    1W        W50953  13.249  22.535   7.252  0.1557  0.1677  0.1700
    1W        W50954  22.070   1.121   0.277 -0.2559  0.0245 -0.1390
    1W        W50955  19.799  13.225   0.701  0.0106 -0.1808 -0.0518
    1W        W50956  28.002  20.376   8.858  0.0354 -0.2923 -0.0607
    1W        W50957  27.338  13.593   1.088  0.0812  0.0501  0.0443
    1W        W50958  19.651  14.935   7.113  0.0449  0.0959 -0.0571
    1W        W50959  26.588  16.374   9.225 -0.0576  0.0415  0.1491
    1W        W50960  27.067  18.231   1.225 -0.2090  0.2018  0.0448
    1W        W50961   9.426   1.989   9.810 -0.4343 -0.0677  0.0553
    1W        W50962  12.758  20.428   7.297  0.1475 -0.1529 -0.0361
    1W        W50963   1.057  12.854   8.378 -0.4421 -0.1260  0.2055
    1W        W50964  17.067   6.156   9.851  0.0708  0.2097  0.2610
    1W        W50965  22.033  24.119   1.314  0.2959 -0.2970  0.1619
    1W        W50966   2.617   0.854   9.635  0.1667  0.2167  0.0548
    1W        W50967   6.454   1.904   8.642 -0.3048 -0.2160 -0.0679
    1W        W50968  16.044   1.178   8.602  0.1614 -0.1208 -0.0889
    1W        W50969  22.796  25.592   7.217  0.1667 -0.1505 -0.2147
    1W        W50970  19.165  15.616   8.304 -0.1563  0.2779 -0.0636
    1W        W50971  20.265  26.184   2.761  0.2954  0.1144 -0.2273
    1W        W50972  20.407  20.774   9.879  0.1096  0.0560 -0.0552
    1W        W50973  12.063  20.267   8.025 -0.4257  0.3064  0.2764
    1W        W50974   4.897   8.177   2.751  0.0333 -0.0279 -0.0890
    1W        W50975  26.632  24.351   2.116  0.0353  0.0108  0.3672
    1W        W50976   4.785  10.890   7.488 -0.0527  0.0750  0.0217
    1W        W50977  27.771  27.156   1.843 -0.0298  0.0963  0.1174
    1W        W50978  22.585  19.706   8.457  0.4242 -0.0523 -0.0627
    1W        W50979   4.187  12.551   2.960  0.2055  0.3493 -0.0211
    1W        W50980   5.720   2.979   3.751  0.1161  0.0775  0.1455
    1W        W50981   0.726  25.304   0.338  0.3899 -0.0481  0.3026
    1W        W50982  14.044  10.776   8.219  0.2237  0.0679  0.3474
    1W        W50983  28.737   0.115   3.425 -0.0770  0.2397  0.0564
    1W        W50984  28.848  14.114   8.749 -0.0838 -0.3109  0.1597
    1W        W50985  10.373  22.965   8.217  0.0005 -0.2711 -0.0641
    1W        W50986   5.203  21.316   0.229 -0.1473  0.0475 -0.1362
    1W        W50987  21.271   0.332   8.280  0.1968  0.3704 -0.2549
    1W        W50988   5.599  19.151   8.844  0.0261  0.0646  0.2365
    1W        W50989   2.638  11.627   1.568 -0.1150  0.1295 -0.0073
    1W        W50990   3.361  18.878   1.769 -0.1885 -0.3638 -0.0343
    1W        W50991  25.895  25.897   0.805 -0.1486  0.1237  0.0103
    1W        W50992  13.019  25.697   9.959  0.2257  0.1513 -0.0973
    1W        W50993  24.865   0.758   0.873  0.0720  0.0813 -0.1112
    1W        W50994   9.892   6.241   6.965 -0.0319  0.1546 -0.1284
    1W        W50995   2.984   9.392   1.699 -0.0241 -0.2195  0.0791
    1W        W50996  28.160   8.203   8.832 -0.0228  0.1208 -0.0534
    1W        W50997  14.449   1.980   8.598  0.0944 -0.0819  0.3763
    1W        W50998  24.160  12.651   0.067 -0.1639  0.1833 -0.1542
    1W        W50999   0.321  26.469   2.575  0.1557  0.0470  0.2206
    1W        W51000  17.392  21.738   9.956  0.0128  0.1099 -0.1742
    1W        W51001  26.892   1.629   9.567  0.1544 -0.3239  0.0643
    1W        W51002   1.083  11.073   8.735  0.0692  0.2214 -0.0458
    1W        W51003   8.641  27.684   2.671  0.2980 -0.1785  0.1013
    1W        W51004  28.736   9.088   7.782 -0.3741  0.1402 -0.5722
    1W        W51005  21.756  13.172   8.826 -0.0052  0.1268  0.2906
    1W        W51006  28.285  26.934   3.656 -0.1754  0.0847 -0.0064
    1W        W51007   8.860   2.504   8.560  0.0104 -0.1048 -0.2118
    1W        W51008   5.775  17.299   1.798 -0.0517  0.1732 -0.0006
    1W        W51009   9.779   8.026   7.112  0.0765  0.1755 -0.1435
    1W        W51010  13.359  15.196   0.542 -0.0352  0.1926  0.2520
    1W        W51011   7.028  22.383   0.632 -0.2113 -0.1496  0.0057
    1W        W51012   0.963  10.476   8.838 -0.0065  0.1224  0.1036
    1W        W51013  15.756   9.324   0.837  0.1447 -0.1125 -0.1007
    1W        W51014  15.927  18.772   1.014  0.2667  0.1830  0.0336
    1W        W51015  19.224   2.731   9.787 -0.1359  0.0602  0.1229
    1W        W51016   2.497  13.841   8.360  0.0265  0.4967 -0.1557
    1W        W51017  20.594  24.607   1.619 -0.2943  0.1187  0.2022
    1W        W51018  21.472  28.727   7.793 -0.0811 -0.5070  0.0008
    1W        W51019   5.908  10.499   9.133  0.1119  0.1355  0.1168
    1W        W51020  28.876  14.006   2.824 -0.0112  0.2162  0.3031
    1W        W51021   6.640  12.788   0.064 -0.1141  0.1168 -0.1037
    1W        W51022   4.458  27.152   9.207  0.0912  0.0005 -0.1834
    1W        W51023   1.142  21.247   1.268  0.1010 -0.1420 -0.1225
    1W        W51024   3.522  24.988   3.846  0.1637  0.1249 -0.0669
    1W        W51025  21.474  15.467   6.643 -0.1840  0.0582 -0.2240
    1W        W51026   0.947  16.315   1.198  0.2995  0.1348 -0.2447
    1W        W51027   0.127  19.732   8.120  0.1891  0.2011  0.0309
    1W        W51028  16.279   4.014   2.290 -0.2391 -0.0208  0.3223
    1W        W51029   4.604  27.075   8.412  0.3327  0.1846 -0.2340
    1W        W51030  13.879  25.584   8.692  0.4430 -0.1533  0.0266
    1W        W51031  20.161   7.069   7.110  0.1738  0.1190  0.0235
    1W        W51032  27.189  17.279   1.807 -0.1966 -0.4650  0.1190
    1W        W51033   0.800   4.544   3.732  0.2162  0.0481 -0.0661
    1W        W51034  20.215  19.500   9.466  0.0565 -0.1220  0.1691
    1W        W51035   0.579  14.251   2.555  0.2439 -0.2680 -0.0504
    1W        W51036  24.703  21.296   2.337  0.0681 -0.0193  0.1267
    1W        W51037  26.715  16.885   0.732  0.2786 -0.1161 -0.0022
    1W        W51038  27.871  22.859   7.833  0.1254 -0.0438  0.1931
    1W        W51039  28.623  27.267   2.899  0.0092  0.0712  0.0394
    1W        W51040   6.006  11.967   0.992  0.2613  0.0225 -0.2056
    1W        W51041  25.969  21.052   0.169  0.1081  0.2214  0.0708
    1W        W51042   8.784   8.970   2.196 -0.1134  0.1114  0.0072
    1W        W51043  14.653  12.892   5.539  0.2531 -0.0507  0.3303
    1W        W51044   2.371  15.205   0.046 -0.1646  0.3206  0.1808
    1W        W51045  14.555   2.331   8.269 -0.2342 -0.1339  0.2642
    1W        W51046  14.348  10.671   9.324  0.1624 -0.4900 -0.0050
    1W        W51047  17.362   0.575   9.663  0.0058 -0.0673 -0.1093
    1W        W51048  18.620  19.912   9.339 -0.2826  0.1171 -0.1342
    1W        W51049  13.075  21.433   0.201  0.0290 -0.0291  0.2340
    1W        W51050   2.676  23.174   9.493 -0.1640  0.4019 -0.2907
    1W        W51051  13.555  22.522   1.926  0.0914  0.3253 -0.2178
    1W        W51052  17.691  10.946   9.760  0.0073 -0.0686 -0.2241
    1W        W51053  22.755   3.974   2.666  0.1091 -0.2450 -0.1621
    1W        W51054  11.697   1.195   9.618  0.2231 -0.3734  0.0805
    1W        W51055   7.964  22.888   3.047 -0.0012  0.0784  0.2974
    1W        W51056  22.494   4.968   8.202  0.0360  0.1266 -0.0609
    1W        W51057  19.936  26.790   9.444  0.0423 -0.4343  0.1711
    1W        W51058  26.184   5.250   9.202  0.1444 -0.1859  0.1145
    1W        W51059   5.003   9.991   9.925 -0.2251 -0.3161  0.0542
    1W        W51060   7.157   4.203   0.822  0.2403 -0.1382  0.0074
    1W        W51061   8.147   3.401   2.185  0.2419  0.2520 -0.2519
    1W        W51062   8.011  26.162   0.791  0.3294 -0.1336  0.1337
    1W        W51063  20.241   3.735   0.569  0.0310  0.2442 -0.0084
    1W        W51064  19.851  28.216   9.497  0.0898  0.0216  0.2597
    1W        W51065  10.002  24.892   2.263  0.3040  0.1469  0.1443
    1W        W51066  28.318  11.988   7.588 -0.1707 -0.2260 -0.0286
    1W        W51067   8.049   6.434   0.428 -0.2380 -0.0599 -0.0136
    1W        W51068   3.017   0.537   2.746 -0.3540 -0.0524  0.0644
    1W        W51069  27.381   3.851   4.290  0.2473  0.0047 -0.1414
    1W        W51070  10.771   0.420   8.938 -0.0747 -0.1651 -0.0535
    1W        W51071  24.656  11.841   7.456  0.3266  0.0386  0.2200
    1W        W51072  25.646   7.064   3.677  0.1613 -0.0335 -0.0059
    1W        W51073  20.810  23.439   7.802 -0.1401  0.3602  0.2602
    1W        W51074   2.189   9.824   0.264  0.0182 -0.3829  0.1270
    1W        W51075  18.354  22.552   2.004  0.0703 -0.7456 -0.1485
    1W        W51076  19.718  10.763   7.161 -0.1006  0.0652  0.0375
    1W        W51077  20.094  14.008   1.217  0.1249 -0.2056  0.0501
    1W        W51078   3.371  10.393   1.396  0.1132 -0.1054  0.1036
    1W        W51079  15.197  11.954   6.271 -0.2186 -0.0528 -0.0680
    1W        W51080  13.529  10.081   0.764  0.1483 -0.3108 -0.1653
    1W        W51081  24.569  19.562   2.705  0.0369  0.1287  0.0288
    1W        W51082  19.851  13.951   8.686  0.0803  0.1898  0.1540
    1W        W51083  14.531  10.738   0.523  0.0172  0.1486 -0.0663
    1W        W51084  12.768   2.954   9.770 -0.2841  0.0098  0.0162
    1W        W51085  16.455  15.420   1.687  0.0444 -0.2985 -0.2224
    1W        W51086  21.474  28.731   8.687 -0.1270 -0.0069 -0.3842
    1W        W51087   3.583   1.529   8.235  0.1077  0.1378  0.2680
    1W        W51088  11.621  15.331   9.747 -0.1731 -0.1397  0.2456
    1W        W51089  21.696  19.972   1.868  0.1095  0.1522  0.0541
    1W        W51090  23.985  20.183   9.004  0.0301 -0.1045  0.3786
    1W        W51091   6.526   3.684   8.363  0.0890  0.0017  0.2653
    1W        W51092   2.060  13.429   2.804  0.2085  0.0959 -0.0534
    1W        W51093   3.327   9.533   2.026 -0.1199  0.1193  0.3188
    1W        W51094   3.109  17.223   1.841  0.0291 -0.0503 -0.0698
    1W        W51095  25.578   4.285   2.260 -0.3512 -0.0896  0.0033
    1W        W51096  27.195  26.025   8.146 -0.0909 -0.2214  0.3734
    1W        W51097  21.065  11.776   9.000  0.2295 -0.0886  0.0399
    1W        W51098  27.648   6.174   4.328  0.0812  0.0629  0.2451
    1W        W51099   4.255   5.594   3.679 -0.0412 -0.0658  0.3856
    1W        W51100  28.673  27.728   9.000 -0.1015  0.0254 -0.0905
    1W        W51101   3.285   2.490   9.908  0.0815 -0.0700 -0.0613
    1W        W51102  27.652   4.957   8.152  0.1253 -0.1704 -0.1418
    1W        W51103   8.622  14.936   7.122 -0.2533  0.0310  0.1341
    1W        W51104   3.191  14.932   8.701 -0.4934 -0.0203  0.0819
    1W        W51105  11.510   2.170   7.834 -0.0183 -0.0366  0.1169
    1W        W51106   6.702  25.199   7.773 -0.0423  0.1137  0.2128
    1W        W51107  26.109  13.124   9.261 -0.2046  0.0348 -0.1710
    1W        W51108  20.609  14.361   7.027  0.1756 -0.0697  0.2024
    1W        W51109  16.939   2.865   1.151  0.4898  0.1991 -0.0511
    1W        W51110  25.787  14.018   0.264  0.2043 -0.2659  0.1929
    1W        W51111  16.365  18.392   9.135  0.0033 -0.2399 -0.2039
    1W        W51112  12.075  19.938   1.367  0.2296 -0.0390  0.0926
    1W        W51113  25.971  21.898   9.992 -0.2301  0.2325 -0.2047
    1W        W51114   4.305   3.727   1.060  0.1410 -0.1060 -0.0673
    1W        W51115   1.602   1.983   3.873 -0.1821 -0.4781  0.3320
    1W        W51116  13.010  10.724   9.041  0.0234 -0.1081 -0.2380
    1W        W51117  11.050   1.910   7.905 -0.1033 -0.2029 -0.0151
    1W        W51118  17.238  18.443   2.886 -0.3231 -0.3415 -0.0486
    1W        W51119  12.570  28.309   0.502 -0.1580 -0.3339 -0.2083
    1W        W51120  16.487  25.725   1.757 -0.1852  0.0694  0.1973
    1W        W51121   3.371   3.527   2.683 -0.2853  0.2154  0.1258
    1W        W51122  18.105  27.540   0.126 -0.0906 -0.0230 -0.0188
    1W        W51123  20.727  13.411   0.384 -0.0947  0.2803  0.0582
    1W        W51124  15.267  15.965   8.160 -0.0915  0.1619 -0.0097
    1W        W51125  13.245   5.119   8.741  0.2404 -0.2594  0.1347
    1W        W51126  27.766   2.214   0.709 -0.0190  0.1197 -0.2331
    1W        W51127  22.521  22.225   8.722  0.1608  0.2102  0.0707
    1W        W51128   1.439  12.979   2.251 -0.3994 -0.3343 -0.1840
    1W        W51129  19.110  10.476   1.568 -0.0662 -0.2472 -0.0942
    1W        W51130  26.163  13.937   9.952 -0.3617  0.1165  0.0245
    1W        W51131  12.273   9.530   0.135  0.1551  0.0622 -0.0303
    1W        W51132  25.208  26.299   9.208  0.0082  0.0183  0.1352
    1W        W51133  18.583  24.047   8.104  0.0999 -0.2571 -0.2801
    1W        W51134  19.586  11.254   2.267 -0.3257 -0.2679  0.3454
    1W        W51135  24.012   3.019   9.115 -0.2215 -0.2879 -0.1145
    1W        W51136   8.598  25.450   8.646  0.0867  0.4036  0.2655
    1W        W51137  17.592  17.188   0.625 -0.2674 -0.1582 -0.1244
    1W        W51138  26.074   6.175   3.294  0.0019  0.0786 -0.1827
    1W        W51139  20.086   9.514   6.974  0.0292  0.0833 -0.1621
    1W        W51140   6.871   6.546   0.601  0.2516  0.1323 -0.1236
    1W        W51141   7.764  12.842   0.266 -0.0959 -0.0799  0.1176
    1W        W51142  20.486  11.684   0.390  0.2849  0.0725 -0.0349
    1W        W51143  23.358  23.697   9.374  0.0674 -0.1046 -0.0894
    1W        W51144  15.824   0.389   1.881  0.0406 -0.1363  0.2847
    1W        W51145  28.875  21.230   7.369  0.0865  0.1511 -0.1973
    1W        W51146   8.975  26.547   1.708  0.1822 -0.0208 -0.1992
    1W        W51147  18.939  12.318   6.342  0.0590 -0.2052 -0.0695
    1W        W51148   5.365   9.274   0.416 -0.1253  0.2976  0.0848
    1W        W51149  18.675  16.171   8.901  0.0095 -0.4060  0.0129
    1W        W51150  20.796   6.951   0.032  0.0402  0.3466 -0.0154
    1W        W51151  11.380  16.577   1.689 -0.1462  0.0668 -0.1320
    1W        W51152  22.361  14.173   1.609 -0.1400  0.1348  0.2700
    1W        W51153   4.079   6.471   7.260 -0.0631 -0.1596  0.0436
    1W        W51154  24.691  17.031   7.547 -0.0330  0.6056 -0.0180
    1W        W51155  10.679  27.331   0.329  0.0830 -0.0245 -0.0130
    1W        W51156  20.156   6.016   8.654  0.1429 -0.0525 -0.1091
    1W        W51157  14.622  27.053   9.892 -0.3846  0.2641  0.0797
    1W        W51158  11.877  17.794   0.260 -0.0881 -0.0707 -0.4305
    1W        W51159   3.221  18.137   3.892  0.0704  0.0728  0.1590
    1W        W51160  28.275   1.800   3.167  0.0849 -0.0929 -0.2327
    1W        W51161   9.328   1.447   1.640  0.0634 -0.0467  0.0744
    1W        W51162   9.206   3.782   2.266 -0.2424  0.0886  0.2546
    1W        W51163  15.601   0.024   7.207 -0.3535  0.0574 -0.1504
    1W        W51164  12.102   3.565   0.377 -0.1151  0.0999  0.3109
    1W        W51165  28.675   3.807   2.758 -0.0388 -0.1495 -0.0616
    1W        W51166   5.308  28.725   8.666  0.2435 -0.1424  0.1816
    1W        W51167  24.864  13.036   7.313 -0.0864  0.0501  0.0870
    1W        W51168   1.657  13.564   8.936  0.1098 -0.1278 -0.0033
    1W        W51169   7.598   3.975   3.328  0.1133  0.1069 -0.1956
    1W        W51170  20.516  26.263   9.168 -0.2389 -0.0457 -0.0880
    1W        W51171   5.897  14.718   9.294 -0.2560 -0.0450  0.0043
    1W        W51172  20.324   8.901   0.062  0.0745 -0.0544 -0.0330
    1W        W51173   6.188  28.021   9.106  0.0408  0.4262  0.0768
    1W        W51174  20.592   9.508   9.369 -0.1499 -0.1651 -0.1605
    1W        W51175   5.646  23.851   9.429  0.1358 -0.1769 -0.0595
    1W        W51176  22.807   7.560   7.842  0.0978  0.0623  0.0560
    1W        W51177  10.910  13.248   8.289  0.0301  0.2101 -0.3345
    1W        W51178   9.491  27.507   8.871 -0.1771 -0.0527  0.1346
    1W        W51179  16.071  16.707   9.904  0.0373  0.2270 -0.4324
    1W        W51180   8.410  14.168   8.605 -0.2056 -0.0049  0.1774
    1W        W51181  27.570  10.736   6.383  0.1399  0.1454 -0.0000
    1W        W51182   4.906  25.726   2.602 -0.1815 -0.0815 -0.1049
    1W        W51183  21.279   1.109   8.555 -0.0184  0.1361  0.2445
    1W        W51184   8.254   2.259   9.711  0.0262 -0.1874 -0.1247
    1W        W51185  25.999  10.414   7.834  0.3253 -0.0578  0.3087
    1W        W51186  23.231  14.007   7.494 -0.1330 -0.1250 -0.0371
    1W        W51187  15.385  10.763   9.995  0.0469  0.2448  0.0647
    1W        W51188  23.043  28.074   1.350  0.0036 -0.4385 -0.0339
    1W        W51189  14.896  18.056   8.208 -0.1552 -0.0488  0.2193
    1W        W51190   6.781  18.738   0.647  0.0102  0.1210 -0.1164
    1W        W51191   7.334  17.100   0.653  0.0137 -0.0986  0.0960
    1W        W51192   0.640  24.596   3.387 -0.0662 -0.2554 -0.0027
    1W        W51193   5.524  13.896   0.770  0.4008 -0.1889  0.3039
    1W        W51194  23.425   8.746   1.093 -0.0434 -0.0262 -0.0058
    1W        W51195  14.714   4.631   0.171 -0.3225  0.1163 -0.0363
    1W        W51196   0.920  20.292   2.787  0.2181  0.0862 -0.1320
    1W        W51197  11.696  28.378   7.717 -0.3174  0.1370 -0.2224
    1W        W51198  18.637   1.968   8.395  0.0529  0.2448  0.0218
    1W        W51199   5.622  15.699   0.019 -0.2137  0.0615 -0.1115
    1W        W51200   5.320   5.941   7.583 -0.0316 -0.3730 -0.1662
    1W        W51201  25.430  15.984   8.783  0.1766 -0.1059  0.1942
    1W        W51202   5.589   3.143   3.276 -0.1289  0.0265 -0.0865
    1W        W51203  16.572  25.412   7.514 -0.2476  0.1304 -0.0144
    1W        W51204  24.504  16.318   9.124  0.0258 -0.1896 -0.2350
    1W        W51205   2.354  15.946   2.299  0.1590 -0.0797  0.1555
    1W        W51206  24.751  18.765   8.579 -0.4914  0.0904 -0.0162
    1W        W51207  27.222  17.885   3.968 -0.1365  0.0011  0.0579
    1W        W51208  24.339  10.005   8.799 -0.0128 -0.0932  0.2569
    1W        W51209  16.215   4.867   9.288 -0.0205 -0.1579  0.0241
    1W        W51210   1.943   2.572   0.755  0.2592  0.1897 -0.1609
    1W        W51211   8.691  18.843   8.553  0.0832  0.1173 -0.0107
    1W        W51212   0.491  20.468   9.177  0.0550  0.1531 -0.1578
    1W        W51213  12.418  13.841   5.994 -0.1736 -0.0227 -0.0602
    1W        W51214  27.854  16.148   9.031 -0.1594 -0.1730 -0.2123
    1W        W51215  15.951  25.790   0.456 -0.4250  0.0299 -0.1727
    1W        W51216  12.106   6.003   6.761  0.2645 -0.2539  0.3043
    1W        W51217  18.259  22.302   7.864  0.1167  0.1374  0.0663
    1W        W51218  22.658  18.467   7.617 -0.2280  0.1964  0.1355
    1W        W51219  18.940  20.800   7.803 -0.0009 -0.0828  0.1071
    1W        W51220  17.265  16.202   2.215  0.2507  0.1159 -0.2062
    1W        W51221  10.894  20.319   3.249  0.1150  0.2336 -0.0599
    1W        W51222   7.098   9.687   6.902  0.0699 -0.3551 -0.0604
    1W        W51223  28.809  23.672   8.621 -0.1745 -0.0265 -0.0867
    1W        W51224  22.423  22.194   0.105  0.0658 -0.0707 -0.1198
    1W        W51225  22.598   9.091   1.914  0.1740 -0.1675  0.0848
    1W        W51226  14.952  15.304   9.217  0.1824 -0.2124  0.0621
    1W        W51227  27.475   4.173   3.005 -0.0711  0.0707  0.1983
    1W        W51228  11.339  13.679   2.491 -0.0965  0.1677 -0.0354
    1W        W51229  21.381  10.626   6.709 -0.1944 -0.0434 -0.1249
    1W        W51230  21.263   5.996   6.802 -0.1156 -0.0224 -0.0714
    1W        W51231  12.380   5.578   0.390  0.1117 -0.1775 -0.0629
    1W        W51232  19.700  20.463   9.438  0.0255  0.2616  0.0010
    1W        W51233  16.905  27.734   2.299  0.1585  0.1126  0.0744
    1W        W51234   2.229  28.152   3.054 -0.1846  0.0277 -0.2703
    1W        W51235  10.553  15.011   9.809 -0.2977 -0.0781  0.0096
    1W        W51236  15.112  15.598   6.820 -0.0910 -0.0340 -0.2405
    1W        W51237   0.059  10.747   1.104  0.0426 -0.1111  0.1677
    1W        W51238   6.700   5.048   3.082  0.0543 -0.1651  0.2464
    1W        W51239  15.428   8.797   5.671 -0.0129 -0.1949 -0.0860
    1W        W51240   6.429   8.241   8.574  0.1645  0.0633  0.0944
    1W        W51241   4.415  11.222   7.546 -0.1297 -0.1104  0.1245
    1W        W51242  18.549   8.079   1.654  0.0958 -0.1007 -0.3061
    1W        W51243  20.590  10.752   5.951 -0.1299 -0.1346  0.0951
    1W        W51244  18.302  22.607   3.002 -0.2140 -0.0984  0.0802
    1W        W51245  23.100  22.635   2.231 -0.0706  0.0117  0.1114
    1W        W51246   0.173   3.797   1.965  0.0227  0.0879  0.1687
    1W        W51247  14.152   1.663   1.422 -0.1701 -0.0526 -0.0295
    1W        W51248  24.777  20.390   7.871  0.0617 -0.1810  0.1925
    1W        W51249  22.861  22.299   1.674 -0.0474 -0.0597  0.0645
    1W        W51250   5.493   9.217   8.429  0.3545 -0.1162 -0.1463
    1W        W51251  16.599  22.790   0.931 -0.0221 -0.0245  0.2652
    1W        W51252  15.848  12.215   9.897  0.0344 -0.0485  0.3701
    1W        W51253  19.411  20.305   6.089 -0.0672  0.1290 -0.3488
    1W        W51254   4.148  19.454   1.986  0.0548  0.2892  0.0029
    1W        W51255  12.597  21.511   0.234  0.1029  0.3935 -0.0702
    1W        W51256  22.869   9.081   2.470  0.1611  0.0123 -0.2921
    1W        W51257   9.617  27.287   9.295 -0.1047  0.1525  0.4488
    1W        W51258   3.573  10.583   8.533 -0.0779 -0.2194  0.0990
    1W        W51259  14.564  22.772   2.409  0.3109 -0.0744  0.1132
    1W        W51260  23.577   8.787   9.703  0.1962 -0.0683 -0.2428
    1W        W51261  13.570  18.218   9.631  0.0982  0.3162  0.2268
    1W        W51262  17.036   3.413   9.837  0.2921 -0.0198 -0.1558
    1W        W51263  19.976  28.397   7.870 -0.0546 -0.0698  0.0463
    1W        W51264  18.996  19.354   1.692 -0.0813  0.1532 -0.2045
    1W        W51265  26.529  22.355   8.140  0.1879 -0.3580  0.2126
    1W        W51266  18.363  14.866   8.672  0.0333 -0.0489  0.2822
    1W        W51267  12.039  27.390   1.970 -0.0092  0.1550  0.1842
    1W        W51268   5.208  21.794   7.414  0.2252 -0.3211 -0.1352
    1W        W51269  12.501   4.814   9.013 -0.1497  0.1246  0.0550
    1W        W51270  20.041   7.444   6.236 -0.1033  0.0504 -0.0818
    1W        W51271  12.139  14.810   0.318  0.2807 -0.1923 -0.2302
    1W        W51272  12.573  11.543   9.701 -0.1640 -0.1674 -0.0091
    1W        W51273   9.770  23.821   9.681  0.0115  0.1440  0.0918
    1W        W51274  23.597  16.834   1.345 -0.0003 -0.0161  0.1905
    1W        W51275  16.202   2.462   8.753  0.3759 -0.1234 -0.2566
    1W        W51276   8.188  13.513   9.264 -0.1586  0.0920  0.1096
    1W        W51277  16.088  11.593   1.558 -0.1346  0.0941 -0.2080
    1W        W51278   9.733   1.962   9.125  0.4140 -0.0035 -0.4750
    1W        W51279  18.826  26.521   9.716 -0.1845 -0.1756  0.5855
    1W        W51280   4.928  17.455   1.730  0.1759  0.0378  0.0296
    1W        W51281  20.384   0.294   7.337  0.1282 -0.0604  0.1654
    1W        W51282  15.900   7.579   8.498  0.1069 -0.0685 -0.1738
    1W        W51283  18.921  14.880   8.949  0.2320 -0.2239  0.0633
    1W        W51284  15.369  26.664   7.255 -0.1585  0.0802  0.1211
    1W        W51285   1.139  24.388   2.462  0.0688 -0.1298  0.1511
    1W        W51286   6.669   9.026   7.493  0.1449  0.2552  0.2118
    1W        W51287  26.836  18.835   8.254 -0.3301  0.0847  0.3293
    1W        W51288   1.128  22.020   0.589 -0.2402  0.2820 -0.0144
    1W        W51289   0.137   9.484   9.098 -0.0515 -0.1167 -0.0826
    1W        W51290  24.905  25.005   8.497 -0.3130 -0.1255 -0.2775
    1W        W51291  22.236  18.490   8.580 -0.1003  0.0837  0.0687
    1W        W51292  17.686   1.846   9.342 -0.0960 -0.0528 -0.0554
    1W        W51293  10.322   0.083   1.255  0.0307 -0.1457 -0.0481
    1W        W51294  13.638  28.830   9.310 -0.1727 -0.0132 -0.2425
    1W        W51295   0.447  10.033   3.062 -0.1133 -0.1584  0.0376
    1W        W51296  28.255  20.786   8.966  0.0738 -0.0420  0.1479
    1W        W51297  20.294  15.860   0.290 -0.1248 -0.2097 -0.1016
    1W        W51298   9.935  22.088   1.374 -0.0569 -0.0923 -0.0290
    1W        W51299  25.803   1.245   2.184  0.3416 -0.0869 -0.0631
    1W        W51300  10.258  16.573   1.917  0.3122 -0.2753  0.2842
    1W        W51301   9.781  14.917   7.707 -0.4887 -0.1160  0.1764
    1W        W51302   6.668   6.001   3.097  0.2728  0.2289 -0.2066
    1W        W51303  19.467  15.793   9.218  0.1230  0.0562 -0.1914
    1W        W51304  17.347  21.005   8.671 -0.3081 -0.2804 -0.0969
    1W        W51305  14.438   7.742   6.351  0.2173 -0.0723  0.0195
    1W        W51306   3.332   6.857   2.540  0.1706  0.1859 -0.0925
    1W        W51307  13.033  28.226   9.294 -0.1089  0.0435  0.2197
    1W        W51308  13.554  18.597   9.896  0.4248  0.1529 -0.1993
    1W        W51309  20.516  25.255   0.765 -0.0792 -0.3137  0.4717
    1W        W51310  24.320  11.098   2.267  0.1270 -0.1745 -0.0956
    1W        W51311  12.244  27.990   2.767  0.4220  0.1646 -0.0349
    1W        W51312  28.106  20.351   9.795 -0.1642  0.1497 -0.3885
    1W        W51313   5.858  20.647   0.828 -0.3416  0.2972  0.0068
    1W        W51314   7.897  21.661   9.245  0.0199 -0.2622 -0.0860
    1W        W51315  21.990  18.217   1.519  0.2155 -0.0094  0.0361
    1W        W51316   9.806  25.577   9.359  0.1179  0.2503 -0.3523
    1W        W51317   3.874  21.633   2.726  0.5401 -0.0449 -0.0997
    1W        W51318  15.735   7.877   9.735  0.2082 -0.1676 -0.0110
    1W        W51319  11.753  28.486   0.561  0.1813 -0.1502 -0.0803
    1W        W51320  17.999   2.228   7.342  0.2769 -0.0911  0.1381
    1W        W51321  28.269   6.644   9.565  0.1837 -0.0799 -0.0108
    1W        W51322   1.136   3.411   0.977 -0.5453 -0.3826  0.0782
    1W        W51323   0.858   8.199   1.757 -0.1182  0.1465  0.0536
    1W        W51324  25.332  18.486   2.803 -0.0537  0.0357  0.2533
    1W        W51325  15.177   8.205   8.062 -0.0382 -0.1528  0.0092
    1W        W51326  14.101   1.395   0.775 -0.1883  0.3716  0.3453
    1W        W51327  27.685  21.285   8.707 -0.5888 -0.1140  0.0179
    1W        W51328   8.537  19.610   9.915  0.0359 -0.1081 -0.1036
    1W        W51329  27.072   7.885   1.517 -0.0271 -0.3335  0.0572
    1W        W51330   6.600  14.792   0.041 -0.1556  0.2938 -0.1091
    1W        W51331  11.769   4.223   1.211  0.2976  0.1958 -0.0508
    1W        W51332  21.241  25.092   8.384  0.1643 -0.2692 -0.1464
    1W        W51333  25.597   1.785   8.456  0.0534  0.1637  0.1677
    1W        W51334  16.033   1.689   9.373 -0.1730  0.0484 -0.1351
    1W        W51335  17.190  26.295   7.692 -0.4082  0.1052 -0.0248
    1W        W51336  13.589  21.398   0.186  0.0984  0.1179  0.1251
    1W        W51337  28.729  16.123   3.446 -0.2275  0.2187 -0.2326
    1W        W51338   0.503  22.459   2.154 -0.0248  0.1703  0.1187
    1W        W51339  17.051  20.138   8.056 -0.1454 -0.0784  0.2130
    1W        W51340   0.330   5.098   2.326 -0.0815  0.2868 -0.1506
    1W        W51341  28.845  18.700   8.953  0.0086 -0.2813  0.1483
    1W        W51342   9.491  14.799   8.129  0.0635 -0.1836  0.0108
    1W        W51343   9.912  11.447   6.667 -0.2253 -0.1335  0.0220
    1W        W51344   3.060  18.734   2.172  0.0374  0.0688  0.2006
    1W        W51345  24.934  19.189   2.333 -0.2123  0.0635 -0.0222
    1W        W51346  23.032   0.789   8.564  0.1880 -0.1337 -0.0200
    1W        W51347   5.450  23.166   0.059 -0.0501  0.0341 -0.1602
    1W        W51348   7.200  17.388   2.588  0.0633 -0.0295 -0.1932
    1W        W51349  18.427  19.493   1.699  0.1724 -0.1271 -0.1790
    1W        W51350  16.853  25.710   9.596  0.0912  0.4283  0.0120
    1W        W51351  17.782  13.294   0.130  0.2095  0.1006 -0.2223
    1W        W51352   1.187  22.947   1.975  0.3762 -0.1004  0.0723
    1W        W51353  11.375  22.714   7.122  0.2368 -0.1134 -0.1152
    1W        W51354  17.863  23.341   0.008 -0.3293 -0.1206  0.0275
    1W        W51355   8.790   7.442   7.987  0.0017 -0.1916  0.0572
    1W        W51356  27.099  15.121   8.811  0.1623  0.0606  0.0851
    1W        W51357  21.181  10.136   9.093  0.1330 -0.0201  0.1994
    1W        W51358   7.125  19.827   8.818 -0.1621 -0.0751 -0.1908
    1W        W51359  17.317  15.867   1.306  0.1266 -0.0234  0.0989
    1W        W51360   0.527   8.182   4.049 -0.0192 -0.1225 -0.1038
    1W        W51361   9.560   5.312   3.046  0.0076  0.0410  0.0727
    1W        W51362   9.386  22.724   7.924  0.2651  0.0669  0.0604
    1W        W51363  14.429  24.997   2.181  0.2916 -0.2682 -0.2380
    1W        W51364  25.902  24.495   2.635 -0.0614 -0.1530 -0.0626
    1W        W51365   4.262  23.083   2.102  0.0815 -0.1164 -0.1849
    1W        W51366  23.190  18.655   0.344 -0.0826 -0.0088  0.1800
    1W        W51367  27.419  20.391   1.888  0.4233 -0.1528  0.2571
    1W        W51368  18.527  19.812   6.721 -0.1641  0.0058 -0.0128
    1W        W51369  14.204  20.228   1.005  0.1529  0.1700 -0.1265
    1W        W51370   3.919  23.035   1.158 -0.2090  0.2126 -0.1091
    1W        W51371   5.689   7.594   8.399  0.1209 -0.2900  0.3934
    1W        W51372   8.222  22.803   2.664  0.0312 -0.0060 -0.1925
    1W        W51373  28.353  14.893   2.729  0.3140 -0.2685  0.1195
    1W        W51374  11.161   1.721   0.185 -0.1298  0.1554 -0.0342
    1W        W51375   0.647  27.688   0.921  0.0039  0.0239  0.0309
    1W        W51376   2.907  16.903   1.472  0.2141 -0.0660  0.0103
    1W        W51377   9.995  15.314   1.154 -0.2914 -0.0357 -0.1044
    1W        W51378  12.022  27.946   2.313 -0.2335  0.1579 -0.0399
    1W        W51379   1.288   0.278   1.411 -0.0891  0.1066 -0.1988
    1W        W51380   5.301  11.937   2.160  0.0014 -0.1652 -0.1112
    1W        W51381   6.310  28.226   2.383 -0.2189 -0.0805  0.1695
    1W        W51382   9.945  18.930   9.250  0.4592 -0.1729  0.0617
    1W        W51383  21.098   2.942   0.269  0.1011 -0.1114  0.2624
    1W        W51384  22.536   8.669   1.528  0.4671  0.4555 -0.3617
    1W        W51385  10.389  26.791   9.484  0.2033  0.0335 -0.1356
    1W        W51386  10.063  25.387   9.864 -0.1080  0.0178  0.2622
    1W        W51387  16.142  25.195   7.634  0.1786  0.3428  0.0637
    1W        W51388  21.184  20.132   9.723  0.0295  0.1049  0.0991
    1W        W51389  15.394  13.111   1.355  0.4209  0.0753  0.2139
    1W        W51390  15.839   6.912   6.151 -0.0019 -0.1520 -0.1651
    1W        W51391  17.814  22.116   8.922  0.1506  0.4464 -0.0117
    1W        W51392  19.621   0.892   6.934 -0.0889  0.1745 -0.0460
    1W        W51393  10.158   6.147   0.856  0.0771  0.2515  0.1301
    1W        W51394  16.422   7.317   1.313  0.0275 -0.1620  0.0985
    1W        W51395  28.020  17.208   0.002  0.0086  0.0736  0.0360
    1W        W51396  18.532   1.072   0.067  0.0142 -0.1143 -0.2103
    1W        W51397   0.915  11.567   8.631 -0.2897 -0.0065 -0.0102
    1W        W51398   7.896  26.470   9.958 -0.1714  0.1654 -0.1752
    1W        W51399   8.045  26.311   7.843 -0.2655  0.0063 -0.0747
    1W        W51400  15.370   1.924   8.767  0.0861  0.1247  0.0657
    1W        W51401  28.315   1.734   0.031  0.2565 -0.3472  0.0729
    1W        W51402   1.146   9.356   9.867  0.3633 -0.3263  0.0760
    1W        W51403   7.038   8.406   0.576 -0.0293  0.0798 -0.0276
    1W        W51404   9.327  14.308   9.406  0.1922 -0.3201  0.2424
    1W        W51405  16.849   1.286   9.330 -0.2148  0.3444  0.1639
    1W        W51406  26.014  10.721   8.234  0.2728  0.0287 -0.3109
    1W        W51407   3.708  10.970   8.894  0.1925 -0.4420  0.0192
    1W        W51408   4.209  25.414   3.371  0.0144 -0.0833  0.0301
    1W        W51409   8.615  27.729   8.128 -0.2414 -0.0040  0.0413
    1W        W51410  28.201  17.711   9.869  0.0088 -0.1422  0.1179
    1W        W51411   6.067  24.726   9.003 -0.1124 -0.0199  0.0103
    1W        W51412  14.557  26.906   8.297  0.1855 -0.0928 -0.0750
    1W        W51413  12.956  12.105   9.308 -0.1198 -0.1391 -0.1041
    1W        W51414  16.271  16.626   9.490  0.1005  0.0861 -0.0439
    1W        W51415   1.693   3.963   9.750  0.0552 -0.0803 -0.2527
    1W        W51416  20.424   5.498   1.446  0.0923 -0.1193  0.1143
    1W        W51417   0.717  12.781   1.698  0.0303  0.0842 -0.0093
    1W        W51418  17.020  18.869   2.787  0.0845 -0.1467 -0.1754
    1W        W51419  27.671  18.085   1.096 -0.3022 -0.1126 -0.2674
    1W        W51420   5.015   6.661   2.563 -0.1528 -0.0759 -0.1346
    1W        W51421  23.134  13.462   8.714 -0.2931 -0.0733  0.0141
    1W        W51422   1.072  19.712   7.880 -0.3128 -0.1135 -0.2832
    1W        W51423   8.096   2.163   4.012  0.1269 -0.0957 -0.1332
    1W        W51424  14.121  28.847   1.764  0.0661 -0.2688 -0.0766
    1W        W51425   9.168  25.451   9.522  0.0979 -0.1019 -0.2468
    1W        W51426   1.277  15.533   1.392 -0.1530  0.0510  0.1129
    1W        W51427  21.328  26.085   0.900  0.1687  0.0682 -0.3050
    1W        W51428  11.093  16.839   0.231  0.2373  0.2467  0.0480
    1W        W51429  14.245   5.542   9.400  0.1973  0.0511 -0.1514
    1W        W51430  19.514  11.172   8.252 -0.2473 -0.0559 -0.0561
    1W        W51431   6.854   0.404   9.333  0.0524  0.4040  0.4649
    1W        W51432  15.299  28.250   8.462  0.0559 -0.1965  0.1999
    1W        W51433   0.597  18.767   8.098  0.1664  0.0992  0.1622
    1W        W51434  23.888   6.117   9.231 -0.1029  0.2151 -0.0444
    1W        W51435  27.760   2.250   3.807  0.2151  0.1696 -0.0864
    1W        W51436  11.398   4.972   0.939 -0.1766  0.0840  0.2645
    1W        W51437   2.278   6.575   9.823  0.1661  0.0438  0.3123
    1W        W51438   6.479   0.412   8.869  0.0368 -0.0954 -0.1300
    1W        W51439   2.963  12.295   9.495  0.0454 -0.1175 -0.3549
    1W        W51440  26.310  19.727   2.076 -0.0244 -0.0601  0.0746
    1W        W51441   5.052  15.039   8.562  0.2811 -0.1938  0.1242
    1W        W51442   0.050   9.395   0.636 -0.1435  0.2962  0.3865
    1W        W51443  10.000  10.067   2.715  0.1003  0.1231  0.1420
    1W        W51444   4.200   6.313   1.988 -0.1140  0.0875 -0.2083
    1W        W51445  25.757   3.779   9.011  0.2143  0.3115  0.1283
    1W        W51446  11.761   1.321   0.575 -0.1090  0.0340  0.0255
    1W        W51447   1.732   9.978   3.405  0.2095  0.0107 -0.1542
    1W        W51448  16.728   4.562   0.614 -0.0668  0.2255 -0.0191
    1W        W51449   5.365  24.918   1.881  0.0501  0.0434 -0.0393
    1W        W51450  19.580  21.975   0.133 -0.1792  0.2027  0.1984
    1W        W51451   1.331  23.162   8.148 -0.3410  0.0868  0.1868
    1W        W51452  26.835  10.811   9.256 -0.0133 -0.0434  0.2723
    1W        W51453  15.263  28.669   6.771 -0.2957  0.3422  0.2092
    1W        W51454  12.341  26.598   0.442 -0.1335 -0.0796  0.0929
    1W        W51455  12.829   8.432   1.294  0.0135 -0.0173  0.1644
    1W        W51456   1.042  15.853   1.112  0.0565 -0.3964  0.1188
    1W        W51457  21.220   8.958   5.665 -0.1649  0.2979  0.2414
    1W        W51458   1.333  21.234   6.803 -0.2841 -0.0579 -0.0673
    1W        W51459   5.458   5.511   9.458  0.0353 -0.2484  0.0944
    1W        W51460  18.781  13.053   1.008 -0.0750 -0.0017 -0.0162
    1W        W51461  19.475  25.536   9.688  0.0152 -0.2431 -0.0923
    1W        W51462   2.102  24.625   1.536  0.1184  0.3347  0.0246
    1W        W51463  20.903  20.661   9.788  0.1213 -0.1891 -0.0429
    1W        W51464  15.332  27.779   8.662  0.0091  0.0057  0.0740
    1W        W51465   0.687  16.939   7.464 -0.2495  0.2323  0.4235
    1W        W51466  26.305   0.079   2.708 -0.1550  0.3263  0.1648
    1W        W51467   7.772  26.829   0.248 -0.1017  0.0116 -0.1163
    1W        W51468   9.296   7.127   9.320 -0.1464  0.1426 -0.0896
    1W        W51469  22.945  15.831   1.676 -0.2120  0.1149  0.1579
    1W        W51470   5.580  10.296   9.528  0.0012 -0.0515  0.2318
    1W        W51471  26.677  10.477   9.548  0.0369  0.0249 -0.1641
    1W        W51472  17.794  17.387   9.365 -0.2198  0.2419  0.0366
    1W        W51473   3.565   3.910   8.921  0.0263  0.0401 -0.1041
    1W        W51474  19.525  18.382   7.411 -0.2294 -0.1194  0.1849
    1W        W51475  24.497  21.346   8.123  0.2490  0.0970  0.0516
    1W        W51476   4.576  25.625   0.904  0.1900  0.3739  0.1759
    1W        W51477  11.389  15.979   9.963  0.1723  0.1151 -0.2927
    1W        W51478  12.464   8.700   1.564 -0.0485 -0.0827 -0.3620
    1W        W51479  18.034  11.152   7.360  0.0484 -0.2348 -0.0494
    1W        W51480   7.653   8.907   7.155  0.1662  0.3424 -0.1368
    1W        W51481  25.067  21.479   6.823  0.1475  0.1503 -0.0947
    1W        W51482   6.252   7.471   2.054  0.1495  0.1084  0.0911
    1W        W51483   2.542  14.586   8.364 -0.2020 -0.0231 -0.1036
    1W        W51484  18.587  16.299   7.346  0.1737 -0.1924 -0.1365
    1W        W51485  25.870  22.855   7.986  0.0178 -0.0961  0.1355
    1W        W51486   5.394  15.398   7.153 -0.2503 -0.2312 -0.1380
    1W        W51487  26.112   2.221   9.583 -0.0090 -0.0616  0.3252
    1W        W51488  13.871  10.523   7.511  0.1755  0.0548  0.0636
    1W        W51489  11.656  25.205   7.743 -0.3205 -0.0417  0.1979
    1W        W51490  27.505  25.823   9.022  0.3652 -0.0548 -0.1948
    1W        W51491   0.803   3.035   9.419 -0.2389  0.1296 -0.1135
    1W        W51492   7.746  12.219   7.381 -0.0612 -0.0575  0.1763
    1W        W51493  26.817  28.810   2.782  0.1804  0.0990  0.0009
    1W        W51494   8.717  17.056   0.778 -0.1250 -0.2999  0.0844
    1W        W51495  26.056  28.277   3.310 -0.1434 -0.4566 -0.0260
    1W        W51496  20.611   4.611   0.508 -0.1511  0.2728  0.1137
    1W        W51497   2.219   5.296   9.821 -0.1162 -0.0929 -0.2979
    1W        W51498   8.638  13.772   8.926  0.0561 -0.3480 -0.1787
    1W        W51499  18.689   8.327   9.195 -0.1454  0.0173  0.1760
    1W        W51500  24.989   6.503   1.435  0.1055 -0.0503  0.1329
    1W        W51501  22.832  28.439   2.352  0.1497 -0.2475 -0.0869
    1W        W51502  13.853   6.733   1.841  0.2585 -0.1207  0.2670
    1W        W51503   1.907  14.194   0.945 -0.0163  0.2306 -0.0579
    1W        W51504  28.505  11.730   6.772 -0.0039  0.1203  0.3247
    1W        W51505   0.880  21.744   0.006  0.1746 -0.0559  0.1979
    1W        W51506   9.076  11.536   6.543  0.0716 -0.0916  0.1108
    1W        W51507   6.552  19.987   2.049 -0.2336  0.1197 -0.3377
    1W        W51508  10.529   0.951   8.450  0.0445 -0.2028  0.0774
    1W        W51509  10.737   7.154   0.296 -0.1324  0.2325 -0.1704
    1W        W51510   3.018  13.935   0.498 -0.2745  0.3300  0.1803
    1W        W51511  19.841   6.331   7.079  0.2152  0.1344 -0.0407
    1W        W51512  27.545  27.462   4.166  0.3431 -0.1698  0.3723
    1W        W51513  27.405  17.393   7.589 -0.2564 -0.0651 -0.2502
    1W        W51514  15.760   8.094   8.142 -0.1647  0.1864  0.1385
    1W        W51515   3.993  25.365   8.911  0.2232  0.0319 -0.0394
    1W        W51516  25.634   8.418   3.037 -0.0663 -0.2553  0.1502
    1W        W51517  27.455  11.421   3.045  0.0206  0.3692 -0.0828
    1W        W51518   0.099  26.329   2.991 -0.0906 -0.2587  0.3349
    1W        W51519  26.230   0.984   2.516  0.3385 -0.3661 -0.1100
    1W        W51520   1.636  12.761   9.345  0.2557 -0.0553 -0.2245
    1W        W51521  21.023  12.495   7.924  0.1434 -0.2202  0.2025
    1W        W51522   6.143  16.637   9.654 -0.1336  0.0124  0.3185
    1W        W51523  17.436  17.995   7.142  0.1056  0.0422 -0.0217
    1W        W51524   2.254   0.653   2.810  0.4535  0.3170  0.0167
    1W        W51525  28.871  28.489   3.322 -0.1880 -0.1847 -0.1682
    1W        W51526  13.824  13.296   7.738 -0.0189 -0.0982 -0.2234
    1W        W51527   8.349  16.510   8.073 -0.1293  0.2326  0.1670
    1W        W51528  27.881  12.825   9.363  0.0021 -0.2641  0.1285
    1W        W51529   8.219   8.852   1.451 -0.2895  0.0228 -0.1250
    1W        W51530  13.819  17.402   7.525 -0.1080 -0.0800  0.1526
    1W        W51531  19.981  23.205   8.403  0.1762  0.0888 -0.3003
    1W        W51532   8.959   7.910   8.102  0.0292  0.0904  0.3993
    1W        W51533  18.439  22.747   2.501  0.2410  0.0585 -0.0059
    1W        W51534   3.291  17.617   3.934 -0.0269  0.2160 -0.1568
    1W        W51535  14.595  12.000   9.436 -0.0859 -0.1502  0.1370
    1W        W51536   5.952   8.338   7.553  0.0145 -0.0003 -0.1312
    1W        W51537   9.213   2.788   3.363 -0.2057 -0.0946  0.0684
    1W        W51538  18.320  18.695   1.200 -0.0525 -0.0820  0.1488
    1W        W51539  24.947  18.415   2.418 -0.0465  0.1698 -0.1350
    1W        W51540   2.305   2.088   9.537 -0.0378  0.0295 -0.2113
    1W        W51541  27.935  17.643   9.422  0.3441  0.3874 -0.2479
    1W        W51542  18.200  23.766   7.953  0.0619 -0.1302 -0.0411
    1W        W51543   1.884  12.863   2.796 -0.1257  0.2506  0.2592
    1W        W51544  28.815   1.474   2.022  0.1068  0.1585 -0.0021
    1W        W51545  19.271  22.467   8.101 -0.1986 -0.1846  0.2691
    1W        W51546   2.689  20.034   7.897  0.4328  0.1014 -0.0940
    1W        W51547  10.187  26.083   0.807  0.2325  0.0066 -0.0672
    1W        W51548   4.952  23.618   6.870  0.0998 -0.0190 -0.1790
    1W        W51549  27.885  28.117   9.408 -0.0555  0.2914 -0.3212
    1W        W51550  14.563  28.377   9.880  0.0443  0.2238  0.0489
    1W        W51551  10.994  10.252   2.408  0.1510 -0.0085  0.0314
    1W        W51552  11.172   6.321   0.808 -0.0312  0.2404 -0.1492
    1W        W51553  15.898  22.086   1.658  0.1242 -0.0912 -0.2862
    1W        W51554  11.446  25.600   0.048  0.1971 -0.3693  0.0228
    1W        W51555   1.859  17.686   2.168  0.0158  0.1118 -0.0097
    1W        W51556  25.592  24.266   3.006 -0.3167  0.1295 -0.1774
    1W        W51557  17.603  24.041   7.600  0.0094  0.1872  0.2048
    1W        W51558   5.645  14.232   2.437 -0.2229  0.1109  0.1786
    1W        W51559  21.835   9.659   0.562 -0.0116  0.1301 -0.2156
    1W        W51560   8.631  14.679   7.824  0.1201  0.2234 -0.0800
    1W        W51561  24.416   5.299   1.884  0.3139  0.0030 -0.0244
    1W        W51562  15.915  14.930   6.598 -0.1492  0.2997  0.0082
    1W        W51563   7.036  23.694   8.134 -0.2020 -0.4103 -0.2938
    1W        W51564  19.472   0.724   1.582 -0.2094 -0.1874  0.2228
    1W        W51565  13.416   2.571   8.951 -0.3560  0.1824  0.1263
    1W        W51566  25.391   9.681   9.671 -0.0362 -0.2192 -0.1328
    1W        W51567  10.798  22.032   0.509 -0.1782  0.0456  0.2313
    1W        W51568  14.694   7.233   9.477  0.0953  0.3507  0.1172
    1W        W51569  22.663   9.605   9.158 -0.2549 -0.0817 -0.0096
    1W        W51570  21.206  17.647   1.029 -0.0104  0.1436 -0.0646
    1W        W51571   7.903  13.880   1.278  0.1006 -0.0031 -0.1620
    1W        W51572   2.353   3.976   3.081  0.1742  0.1554 -0.2031
    1W        W51573  21.900   3.969   7.679 -0.0157  0.0937  0.0445
    1W        W51574  11.665  14.918   0.780  0.3084  0.3352 -0.2570
    1W        W51575   0.604   7.011   9.772 -0.2870  0.0082 -0.4220
    1W        W51576  26.024  15.250   2.100 -0.3948  0.3705  0.0537
    1W        W51577  20.185  24.596   7.406 -0.0673 -0.2813  0.2036
    1W        W51578  20.464  13.366   1.187  0.2880  0.0955 -0.0552
    1W        W51579  20.972  13.334   7.540  0.0341  0.1661 -0.0449
    1W        W51580  22.017  26.232   8.610  0.1680 -0.0886  0.1716
    1W        W51581  16.588   5.162   9.071  0.1923  0.0537 -0.1826
    1W        W51582  10.407  17.748   3.093 -0.1549  0.2315 -0.2453
    1W        W51583  28.742  27.623   0.744 -0.1707  0.2060  0.2832
    1W        W51584  13.307  10.642   9.465 -0.0328  0.4778 -0.0706
    1W        W51585   5.684   9.098   9.496 -0.1232 -0.0587 -0.0241
    1W        W51586   2.775   4.032   0.871  0.0082 -0.0695  0.2440
    1W        W51587  10.855   4.254   0.038  0.1679  0.1047 -0.0681
    1W        W51588   2.536  18.498   9.562  0.2972 -0.0180 -0.0470
    1W        W51589  21.696  22.008   1.407  0.0566  0.1878  0.1401
    1W        W51590  25.740   2.008   0.459 -0.1311  0.0250 -0.0807
    1W        W51591   0.335   2.236   2.457 -0.1235  0.1452 -0.4333
    1W        W51592  14.291   4.539   7.161  0.0608  0.1878 -0.0851
    1W        W51593  28.076  27.463   9.591  0.1069  0.0886 -0.3637
    1W        W51594  11.763  27.616   8.940 -0.2035 -0.3075 -0.1569
    1W        W51595   5.613  12.323   1.895 -0.1822  0.1840  0.2161
    1W        W51596   9.380   1.957   6.972  0.1855  0.0309  0.1211
    1W        W51597  20.866   1.312   9.996  0.1431 -0.3750 -0.0977
    1W        W51598  14.337  14.127   6.950  0.2222 -0.3183 -0.0240
    1W        W51599   3.040   0.257   7.254 -0.0741  0.1060  0.1685
    1W        W51600  23.621  11.907   7.763 -0.0503 -0.0358 -0.1872
    1W        W51601  24.208  20.427   7.828 -0.2765 -0.0173  0.1437
    1W        W51602   2.351  24.594   3.519 -0.1943 -0.1994  0.4828
    1W        W51603   3.028   9.834   3.505 -0.3425 -0.0428 -0.0086
    1W        W51604   2.278   8.032   8.562 -0.2933  0.2213 -0.0106
    1W        W51605  19.722   8.329   0.873  0.2059  0.0220 -0.0240
    1W        W51606  23.753  28.384   1.904 -0.0120 -0.3949  0.0631
    1W        W51607  21.685  15.467   8.977  0.1913 -0.0084 -0.0459
    1W        W51608  19.079   4.346   2.230  0.0288  0.0952  0.3309
    1W        W51609  22.462  13.195   2.360  0.1903  0.0726  0.0076
    1W        W51610  11.827  17.610   6.184 -0.1444  0.2858  0.0868
    1W        W51611  13.416  20.125   1.998  0.1014  0.0191 -0.0895
    1W        W51612  18.428  22.213   2.664  0.2723 -0.1292  0.2825
    1W        W51613   6.078  26.083   0.647  0.0390 -0.0749 -0.0631
    1W        W51614  23.613  18.201   0.342 -0.0640  0.0402 -0.1375
    1W        W51615  14.021  24.208   2.982  0.1052  0.3662 -0.2018
    1W        W51616   8.677  25.631   1.433  0.4685  0.0243  0.4186
    1W        W51617  11.267  15.424   0.062 -0.0575 -0.2794 -0.0264
    1W        W51618   9.187  22.832   4.058  0.1447 -0.0202 -0.0756
    1W        W51619  15.708  24.342   7.339 -0.0102 -0.1330  0.0289
    1W        W51620   7.736  13.315   2.503  0.1267  0.1208 -0.1372
    1W        W51621  15.915  13.431   7.365  0.1216 -0.1464  0.0256
    1W        W51622  14.771  25.435   1.120 -0.2147 -0.3847 -0.1368
    1W        W51623  17.367  12.789   9.334  0.3122  0.1404 -0.0533
    1W        W51624  24.262   5.675   2.189  0.0334 -0.1325  0.0596
    1W        W51625  24.363  13.953   2.845 -0.0708 -0.1126 -0.0314
    1W        W51626   5.921   5.673   1.246 -0.0380 -0.2974  0.0687
    1W        W51627  27.552  28.820   3.271  0.1031 -0.2982  0.2263
    1W        W51628  16.502  10.096   5.473 -0.1595 -0.0562 -0.1286
    1W        W51629  12.612   7.117   9.712  0.2888 -0.0238  0.5547
    1W        W51630   9.813  26.577   7.918  0.2113  0.1927 -0.1671
    1W        W51631  20.365   4.265   6.283 -0.1068  0.0759 -0.2208
    1W        W51632   1.711  18.921   6.599  0.0291  0.0341  0.0446
    1W        W51633  19.424  13.782   9.500 -0.2225 -0.0427 -0.2552
    1W        W51634  19.425  27.812   8.678  0.1298  0.0867 -0.0459
    1W        W51635  23.848  11.424   7.923  0.1562  0.4578 -0.0694
    1W        W51636  11.567   9.194   2.081  0.0807 -0.3107 -0.0310
    1W        W51637   6.712  27.767   8.056  0.1386 -0.0872 -0.0255
    1W        W51638  11.891   4.080   7.413  0.0442 -0.0474 -0.3052
    1W        W51639   3.451  17.912   7.906  0.1980  0.0652  0.2640
    1W        W51640  23.287  12.521   9.757 -0.0771 -0.1456 -0.2764
    1W        W51641  11.906  21.909   9.276  0.1687 -0.0433 -0.0848
    1W        W51642  12.751  12.644   6.794  0.0923 -0.1833 -0.1539
    1W        W51643   5.290   5.424   2.080  0.2978 -0.1808  0.0368
    1W        W51644  16.764  22.858   2.583  0.2478  0.1794  0.1325
    1W        W51645  27.375   2.811   8.326 -0.0602 -0.0610 -0.2127
    1W        W51646  26.114  28.070   1.449  0.0317 -0.1598 -0.1141
    1W        W51647  22.971  16.454   6.982  0.0644  0.1171  0.3305
    1W        W51648   5.419   4.102   9.661 -0.0223  0.1429  0.0364
    1W        W51649  17.341  18.524   2.301  0.2313  0.1654 -0.1924
    1W        W51650   3.771  24.261   7.550 -0.2852 -0.1534  0.2131
    1W        W51651  16.942   6.001   7.494  0.1494 -0.2168  0.1390
    1W        W51652   6.607   5.093   1.048 -0.1178 -0.0638 -0.2243
    1W        W51653   4.884  28.606   8.437 -0.3533  0.0493  0.5548
    1W        W51654   7.550  19.680   8.148 -0.1462 -0.0734  0.0923
    1W        W51655  24.922  20.186   1.590 -0.1574 -0.1144  0.0844
    1W        W51656  19.264  19.896   8.777 -0.0661 -0.3464 -0.0451
    1W        W51657  24.829   0.865   1.418 -0.1034  0.3425 -0.0794
    1W        W51658  24.026  14.772   1.108 -0.2900  0.2183  0.1700
    1W        W51659  11.216  26.011   8.352  0.0797 -0.1909 -0.4312
    1W        W51660  15.477   7.283   8.317  0.4686 -0.0333 -0.2373
    1W        W51661  13.527   0.209   1.695  0.0758  0.0499 -0.2262
    1W        W51662   2.072  21.485   2.230  0.0046  0.1780 -0.1504
    1W        W51663  25.667  19.991   8.017 -0.1146  0.2232  0.0248
    1W        W51664  20.025  17.168   6.247 -0.0651  0.2579 -0.1743
    1W        W51665  27.214  13.733   8.336 -0.0654 -0.0525 -0.1387
    1W        W51666  13.581  19.081   6.657 -0.0309  0.0582 -0.0315
    1W        W51667  16.443   8.951   8.970  0.0715  0.0380  0.1281
    1W        W51668   6.176  18.590   2.180 -0.1051 -0.0459  0.1385
    1W        W51669   3.477  10.570   9.109 -0.1141 -0.2528  0.0453
    1W        W51670  18.057   8.881   7.482 -0.1783 -0.0234  0.0246
    1W        W51671   5.685  28.462   0.646  0.2595 -0.0188  0.3847
    1W        W51672  22.168  21.243   2.234  0.0716  0.1173  0.0752
    1W        W51673   4.657  14.694   2.440 -0.1239  0.1262 -0.0829
    1W        W51674   6.852   5.226   2.675  0.0869 -0.1360  0.2735
    1W        W51675   5.959   6.066   1.794  0.1125 -0.1987 -0.0820
    1W        W51676  27.495  16.394   1.145  0.2962 -0.1121  0.1731
    1W        W51677  16.299   2.453   0.600  0.0137  0.0600 -0.0844
    1W        W51678  13.151  22.357   0.253 -0.0701 -0.0544  0.1434
    1W        W51679   5.722  25.496   3.845 -0.1365  0.1132 -0.0909
    1W        W51680  21.281   1.157   2.587  0.0923 -0.1823  0.1600
    1W        W51681  26.943  16.810   2.902 -0.4158  0.2123  0.1763
    1W        W51682  26.184  21.628   0.841  0.1932  0.2048  0.1158
    1W        W51683   4.257  25.318   2.213  0.0652  0.1217 -0.1245
    1W        W51684   2.921  12.747   1.895 -0.0598 -0.0893  0.1260
    1W        W51685  25.288  22.001   9.316  0.0139  0.0073  0.0164
    1W        W51686  16.995   7.328   9.899 -0.0945  0.2232 -0.3711
    1W        W51687   8.251   3.824   1.931 -0.0003  0.0766  0.2565
    1W        W51688  19.074   2.343   8.523  0.0830  0.1341  0.0368
    1W        W51689  15.724  10.149   9.859 -0.0165  0.0611  0.0727
    1W        W51690  23.153   3.517   2.036 -0.1665  0.0533 -0.0100
    1W        W51691   9.474  20.042   8.401  0.3124  0.1076 -0.2849
    1W        W51692   9.994  28.759   1.556 -0.1449  0.1844 -0.2082
    1W        W51693   6.199  18.107   7.259 -0.0027 -0.2631  0.0876
    1W        W51694  14.952  27.794   0.206  0.0861  0.0519  0.1432
    1W        W51695  27.875   0.451   1.188 -0.0201  0.2615  0.0233
    1W        W51696   8.121  17.780   9.942  0.0177 -0.1857 -0.1551
    1W        W51697  21.711   2.190   1.775 -0.0004 -0.1485 -0.0805
    1W        W51698   2.766  10.680   8.146  0.0882 -0.0466 -0.0881
    1W        W51699  24.237  16.527   8.656 -0.3300 -0.2666  0.0559
    1W        W51700  21.734  26.987   8.450  0.0064 -0.3094  0.2013
    1W        W51701   5.930   9.261   2.558 -0.0826  0.0557  0.0763
    1W        W51702  14.350  10.246   1.046 -0.1572 -0.1672 -0.1406
    1W        W51703   5.111  13.431   8.818  0.0213 -0.1523  0.0125
    1W        W51704   4.641  22.834   2.829  0.1610  0.1898  0.4061
    1W        W51705   2.658  25.208   0.323  0.2787  0.1513 -0.2541
    1W        W51706  14.098  25.717   9.249  0.0528 -0.3085 -0.0364
    1W        W51707  16.175  16.226   9.829  0.0730 -0.3087 -0.1013
    1W        W51708  25.244  24.002   0.985 -0.0376 -0.3689  0.0551
    1W        W51709   7.640  17.435   1.702 -0.3474  0.1305 -0.1035
    1W        W51710   9.734   6.350   8.602 -0.0115 -0.1568 -0.1517
    1W        W51711  10.540   1.567   1.116  0.4018 -0.1066 -0.1163
    1W        W51712  13.640  21.829   7.448  0.1541 -0.0322 -0.1191
    1W        W51713  16.437   9.965   8.810 -0.0596  0.0985  0.0881
    1W        W51714   8.158   6.384   8.467  0.1715  0.2172  0.0009
    1W        W51715   7.066  24.319   0.228 -0.3882  0.1482  0.1682
    1W        W51716  27.175   0.949   8.376 -0.1113 -0.1223 -0.0499
    1W        W51717  26.293  23.148   2.569 -0.2124 -0.3416 -0.2248
    1W        W51718  18.746   4.261   6.738 -0.1963 -0.0263 -0.0208
    1W        W51719  12.316   2.445   1.964  0.1437 -0.1889  0.2131
    1W        W51720  15.473  16.553   1.603 -0.1900 -0.1190 -0.3000
    1W        W51721  15.422   4.710   7.752  0.0639 -0.0296  0.0931
    1W        W51722  27.494  28.454   1.955  0.0039 -0.2090  0.0216
    1W        W51723  13.149   2.938   9.315 -0.1456 -0.0842 -0.1659
    1W        W51724  12.717   4.978   7.990  0.1933  0.1898 -0.0122
    1W        W51725  25.179   1.453   9.213 -0.2137 -0.0120  0.0241
    1W        W51726   0.311   4.613   3.865 -0.0115 -0.0169 -0.0708
    1W        W51727   4.083   8.765   8.108 -0.1268 -0.1437  0.0396
    1W        W51728  23.278  14.275   8.845 -0.3034  0.1330  0.2757
    1W        W51729   0.499  24.071   9.321 -0.0087 -0.1245 -0.0906
    1W        W51730  19.971   6.291   8.146  0.0699  0.0940 -0.4157
    1W        W51731  22.111  21.791   9.633  0.1736  0.1510 -0.1510
    1W        W51732   9.255  28.261   3.361  0.1473  0.4786  0.1439
    1W        W51733  11.691  27.057   9.618 -0.0831 -0.3417  0.0230
    1W        W51734  22.722  21.445   8.165 -0.0569  0.0346 -0.1223
    1W        W51735  12.022  24.761   9.395 -0.1083 -0.0701 -0.1149
    1W        W51736  27.150   4.938   0.981 -0.0910 -0.0858 -0.1626
    1W        W51737  27.291  21.902   8.405 -0.0439  0.3164  0.1075
    1W        W51738  12.757  22.291   9.863 -0.1483  0.0217  0.0683
    1W        W51739   4.490  27.603   3.060 -0.3136  0.0299 -0.1087
    1W        W51740   1.706  28.337   3.283 -0.2030  0.2009  0.1675
    1W        W51741  27.795   1.727   0.911  0.1587  0.1097 -0.1135
    1W        W51742  18.284  19.015   2.067 -0.0791 -0.0392  0.0925
    1W        W51743   9.829   5.083   7.691  0.1525  0.1012 -0.0973
    1W        W51744  23.782  14.663   9.681 -0.0742 -0.2131 -0.1521
    1W        W51745  12.665  22.862   7.707 -0.0813  0.0902 -0.1118
    1W        W51746  28.005  24.527   2.860  0.0162  0.3098  0.1716
    1W        W51747  24.096  14.714   2.097 -0.0290  0.1643 -0.2046
    1W        W51748  24.812   3.455   2.907  0.3069 -0.0600  0.2738
    1W        W51749  24.532   7.018   8.034  0.1682 -0.0849 -0.3047
    1W        W51750   7.981   7.075   7.941 -0.0107 -0.1429  0.2324
    1W        W51751  27.339   3.252   3.385 -0.1257  0.3018 -0.2922
    1W        W51752   8.450  14.875   1.898 -0.1884 -0.0059 -0.3422
    1W        W51753   9.394  24.298   7.910 -0.0873 -0.0656  0.0609
    1W        W51754  15.271  17.148   9.316 -0.2178 -0.0783 -0.0433
    1W        W51755  23.336  17.243   9.225  0.0503 -0.1577 -0.0280
    1W        W51756   8.164  25.776   7.630 -0.3211 -0.1012 -0.2211
    1W        W51757   2.108  22.321   2.980 -0.0875 -0.0584  0.0622
    1W        W51758  18.778   0.255   2.199  0.2279 -0.2438 -0.0022
    1W        W51759  22.296   5.709   0.165  0.2251  0.0287 -0.2418
    1W        W51760  11.087   3.379   2.422  0.3704  0.1258  0.3110
    1W        W51761   0.724  18.535   8.734 -0.0660 -0.3799  0.1181
    1W        W51762  12.547  24.644   1.981  0.0598  0.0337  0.1588
    1W        W51763   6.096  19.613   1.290  0.2350 -0.0874  0.1084
    1W        W51764   2.815  21.597   8.087 -0.0817 -0.0626 -0.0910
    1W        W51765  13.470  21.809   0.410 -0.1635 -0.0465 -0.0315
    1W        W51766  15.620  18.325   8.485  0.3188  0.1244 -0.1292
    1W        W51767  25.819   6.730   2.511  0.2911 -0.0170 -0.1751
    1W        W51768  11.337  18.081   1.578 -0.0508  0.2247  0.1533
    1W        W51769   5.976  12.631   2.127  0.0105 -0.1693  0.2419
    1W        W51770  22.323  20.574   1.331 -0.2076 -0.2547 -0.0052
    1W        W51771   7.507   9.610   8.537 -0.0353  0.0595 -0.3609
    1W        W51772  21.702  15.453   8.396  0.2148 -0.0516  0.1628
    1W        W51773  19.381  16.124   1.772  0.2378  0.1397  0.1278
    1W        W51774   8.703   2.197   0.496 -0.2222 -0.4788  0.0723
    1W        W51775   1.883  14.803   0.022 -0.0616 -0.0501 -0.0022
    1W        W51776   2.846   8.026   2.719 -0.0595  0.1739  0.0256
    1W        W51777  15.394  27.475   1.388 -0.0249 -0.4258 -0.1822
    1W        W51778  23.670  23.580   1.272  0.1504  0.2946 -0.2446
    1W        W51779  13.912   0.760   0.347 -0.1394 -0.0655  0.3087
    1W        W51780  20.986   0.951   2.114  0.0192 -0.2026  0.0138
    1W        W51781  28.760  22.642   8.807  0.1974  0.0988  0.1891
    1W        W51782  23.261  22.837   0.427 -0.2566 -0.2129 -0.1490
    1W        W51783  23.983  18.222   0.747 -0.3457  0.0253  0.2771
    1W        W51784  28.542   3.709   7.927 -0.3242  0.1894  0.0161
    1W        W51785   9.791   2.027   1.193 -0.2205  0.5382 -0.1750
    1W        W51786   4.260  26.134   3.634 -0.0805  0.2566  0.3963
    1W        W51787  20.965  17.708   2.034 -0.1934  0.0408 -0.0719
    1W        W51788  28.802  18.369   9.327 -0.1767 -0.0950  0.2111
    1W        W51789  16.128  24.253   1.463 -0.3163 -0.0028 -0.0050
    1W        W51790  14.869  17.052   8.393 -0.1564  0.1026  0.2340
    1W        W51791   9.828  24.161  10.000  0.0023 -0.1650 -0.3753
    1W        W51792  28.776  23.329   2.772  0.3038  0.2489  0.0111
    1W        W51793  28.049   3.263   8.930  0.2760  0.1241  0.3149
    1W        W51794  18.239  27.542   2.396 -0.0179 -0.1982 -0.2983
    1W        W51795  22.923  28.683   0.342  0.2801  0.1175  0.0217
    1W        W51796  20.074   2.882   1.562  0.1204  0.0245 -0.1794
    1W        W51797   7.342   4.012   2.060  0.1028 -0.0848  0.2764
    1W        W51798  12.802  19.866   0.901 -0.2628 -0.1531 -0.1487
    1W        W51799  15.180  18.906   1.081  0.1511 -0.0404 -0.0576
    1W        W51800  14.530  13.005   1.375 -0.3344 -0.0964  0.3005
    1W        W51801   9.779   6.106   9.469 -0.1834  0.0202 -0.1079
    1W        W51802   1.698  13.730   2.592 -0.0975 -0.0084  0.0637
    1W        W51803   5.974   8.366   9.430 -0.1711 -0.1019 -0.0584
    1W        W51804   4.240   1.668   0.642 -0.0531  0.3178 -0.3499
    1W        W51805  22.629   3.497   9.585  0.0926  0.0692 -0.2834
    1W        W51806  20.847  19.957   1.302 -0.0436 -0.0823 -0.2037
    1W        W51807   5.762  25.083   2.342 -0.1004  0.2073 -0.4256
    1W        W51808   4.012  24.998   3.064 -0.2108  0.2255 -0.2111
    1W        W51809  11.920  16.406   6.104 -0.1864  0.0620  0.0573
    1W        W51810   9.883   7.786   1.818  0.1684  0.0978  0.1268
    1W        W51811   9.472   5.021   1.280 -0.5276 -0.4861 -0.0318
    1W        W51812  18.238   9.393   0.520  0.1118  0.0882  0.2529
    1W        W51813  15.851   0.794   9.120  0.0222 -0.5099  0.0239
    1W        W51814  26.340  21.401   1.815  0.3304  0.2394  0.0393
    1W        W51815   6.496  27.045   8.422  0.0776  0.1752 -0.2820
    1W        W51816  17.561  17.061   9.768 -0.0645  0.0379  0.0204
    1W        W51817  26.646   4.171   8.385  0.3803 -0.0203  0.0037
    1W        W51818   7.694   2.856   0.859  0.2533 -0.3450  0.0335
    1W        W51819   9.525  19.802   3.239 -0.3653 -0.0262 -0.0966
    1W        W51820  21.945  11.776   7.567  0.1022  0.1445 -0.2753
    1W        W51821   3.624  23.838   0.196 -0.2363  0.1908 -0.0942
    1W        W51822   1.268   4.861   9.770  0.0818 -0.1341 -0.0187
    1W        W51823  13.595  24.047   0.836 -0.1605 -0.1424 -0.2760
    1W        W51824  18.903  14.328   1.257 -0.0965  0.3250  0.0153
    1W        W51825   6.123  15.119   9.456  0.0057 -0.4207  0.1833
    1W        W51826   9.879  16.771   9.449 -0.1819 -0.1813  0.0554
    1W        W51827   3.132  23.960   0.544  0.1886  0.1115 -0.2040
    1W        W51828  23.763  21.967   1.499  0.2454 -0.0504 -0.2554
    1W        W51829   7.312  14.433   6.086  0.1729 -0.0900  0.1137
    1W        W51830  10.761  15.024   9.343  0.2618  0.1250 -0.2889
    1W        W51831  22.290  14.584   7.160 -0.0340 -0.1359  0.1496
    1W        W51832   1.734  25.493   3.208 -0.1808  0.1700 -0.0233
    1W        W51833  28.571   9.560   7.626  0.0756 -0.2846 -0.1055
    1W        W51834  18.119   8.893   6.882 -0.0251 -0.1716 -0.0710
    1W        W51835   3.382  20.863   2.980 -0.2082  0.3990  0.0165
    1W        W51836  19.285  23.338   7.720  0.0330  0.2329  0.2840
    1W        W51837   5.570   4.226   0.137 -0.1718 -0.2869  0.1136
    1W        W51838  21.492   0.837   2.283  0.1900  0.1293 -0.2015
    1W        W51839  21.354   3.711   8.307  0.0449  0.2774  0.0912
    1W        W51840   1.130  17.184   2.258  0.2598  0.0341  0.2595
    1W        W51841  17.390  18.220   1.604  0.0880 -0.1124  0.1230
    1W        W51842  22.690   2.514   3.419  0.0178 -0.3190 -0.0143
    1W        W51843  24.348   6.169   8.404 -0.0212  0.3147  0.4634
    1W        W51844  14.310  23.084   2.147 -0.0430  0.4250  0.2076
    1W        W51845  10.444   3.646   8.007 -0.0672  0.2180  0.0949
    1W        W51846  12.215   9.899   1.964 -0.0364  0.0130 -0.1721
    1W        W51847  12.512  19.454   1.741 -0.1716  0.0942  0.3805
    1W        W51848  26.427   0.355   1.361 -0.1990 -0.1513 -0.0391
    1W        W51849  21.423  12.951   1.190 -0.1815  0.1593 -0.0096
    1W        W51850  26.758  21.705   2.061 -0.0594  0.0637  0.1260
    1W        W51851  13.867  15.771   0.335 -0.0139  0.1604 -0.0139
    1W        W51852   8.629  11.222   0.416  0.0369 -0.1828 -0.2778
    1W        W51853   1.539  12.748   8.370 -0.0219  0.1126  0.1013
    1W        W51854  26.561  27.237   2.841  0.4910  0.1180  0.0118
    1W        W51855  20.817   2.579   0.519 -0.3489  0.1893  0.0485
    1W        W51856   4.187  24.923   2.561 -0.1948 -0.3814 -0.0883
    1W        W51857   8.610  14.664   0.587 -0.0406 -0.3360 -0.2729
    1W        W51858  20.443  22.165   7.353 -0.0129 -0.3720 -0.0459
    1W        W51859   2.433  26.851   3.776  0.0105 -0.2234 -0.1603
    1W        W51860  19.500  21.110   2.411 -0.1227  0.1178  0.0397
    1W        W51861  16.652   0.961   6.643  0.1612  0.0070  0.2158
    1W        W51862   5.622   1.550   8.631  0.4161  0.6177  0.1765
    1W        W51863  13.301  22.859   8.216 -0.1583 -0.2307  0.0096
    1W        W51864  14.158   4.794   9.991  0.0650  0.2405  0.1528
    1W        W51865   6.068  19.162   8.062 -0.2303  0.0865  0.1244
    1W        W51866   1.001  19.962   1.973  0.1598 -0.0364 -0.0420
    1W        W51867  15.676  13.885   7.378  0.0584 -0.2924  0.1738
    1W        W51868  28.448  10.523   3.345  0.2246  0.2666  0.1143
    1W        W51869  18.080   1.587   2.551  0.0285  0.0929  0.0537
    1W        W51870   6.523  18.083   0.418  0.1371  0.0612  0.2784
    1W        W51871  22.018  15.041   9.113 -0.0488 -0.0816  0.0348
    1W        W51872  28.780  17.607   1.016  0.1431  0.1908 -0.2033
    1W        W51873   7.041   2.566   1.565  0.0255  0.0700 -0.0096
    1W        W51874  12.333  19.954   1.819 -0.0675  0.1027  0.3500
    1W        W51875   5.741  27.556   8.194 -0.0875 -0.1909  0.0466
    1W        W51876  23.255  26.950   2.275  0.0446  0.3412 -0.0223
    1W        W51877  27.204  25.885   2.397 -0.1583 -0.1115  0.1179
    1W        W51878  10.817   7.085   7.240 -0.0955  0.2287  0.2315
    1W        W51879   7.531  27.461   1.108  0.3591  0.1851 -0.1845
    1W        W51880  28.421  22.199   7.802 -0.0795  0.0232  0.3569
    1W        W51881  16.643  15.830   1.949 -0.0943  0.1471  0.2729
    1W        W51882  13.392   9.506   6.156  0.1279 -0.2750 -0.1361
    1W        W51883   0.583  16.836   9.481  0.2772  0.0994 -0.2210
    1W        W51884   3.734   3.360   9.699 -0.1706 -0.0119 -0.0125
    1W        W51885  20.779  17.709   1.325 -0.1154  0.0589 -0.1940
    1W        W51886   7.092  20.310   9.223  0.2866  0.0820 -0.1257
    1W        W51887   8.605  27.610   4.139  0.1209 -0.1981  0.1269
    1W        W51888  21.128  27.670   8.888 -0.0163  0.2844 -0.0569
    1W        W51889  26.878  17.330   9.306 -0.0775 -0.0094  0.1209
    1W        W51890  16.772  23.808   7.938 -0.0201 -0.0376 -0.2217
    1W        W51891   0.551  26.341   0.153  0.1288 -0.1225 -0.1400
    1W        W51892   1.680  23.845   1.547 -0.0050  0.0974  0.0760
    1W        W51893   7.375  25.465   1.949  0.1601  0.1502 -0.0480
    1W        W51894   3.678   6.828   0.035  0.1950 -0.0878  0.1213
    1W        W51895   9.655  22.711   0.005 -0.2532  0.1094  0.1159
    1W        W51896   9.137  17.754   9.038 -0.3100 -0.0881 -0.0119
    1W        W51897   0.251  25.859   3.087 -0.1555 -0.2403 -0.0307
    1W        W51898   7.349   8.962   6.720  0.1117 -0.1431  0.2265
    1W        W51899   0.230   9.918   8.251 -0.0042 -0.2552  0.1956
    1W        W51900   0.022   8.861   9.848 -0.2427 -0.1330  0.1875
    1W        W51901   2.070   7.515   9.781 -0.0598  0.0429  0.1170
    1W        W51902   4.870  15.006   0.131 -0.0468  0.0410 -0.0737
    1W        W51903  21.175  16.750   9.893 -0.1022  0.1016  0.0250
    1W        W51904   3.526  17.456   9.658  0.1064 -0.1771  0.1757
    1W        W51905  28.725  10.806   0.480 -0.1535  0.0616 -0.1658
    1W        W51906  17.396   8.286   0.010  0.1516 -0.1504  0.0928
    1W        W51907   6.497  23.937   3.719  0.1827  0.1101  0.0815
    1W        W51908  14.547  11.993   9.927 -0.1375  0.0871  0.1219
    1W        W51909  21.876  15.070   1.318 -0.0444 -0.0630  0.3168
    1W        W51910  14.273  23.126   9.343  0.1559  0.0127 -0.1859
    1W        W51911  12.789  23.901   8.605  0.3411  0.2357 -0.2856
    1W        W51912   1.074  12.856   6.999  0.0838  0.0753  0.1439
    1W        W51913  18.451   3.498   0.291  0.0455  0.2644 -0.3342
    1W        W51914   7.194  12.115   0.804  0.0160  0.0671  0.1503
    1W        W51915  14.730   8.111   7.768  0.1723 -0.2812 -0.3532
    1W        W51916  13.391   3.977   8.087  0.2800 -0.1743 -0.1285
    1W        W51917  28.441   0.367   2.300  0.1416  0.1486 -0.2033
    1W        W51918  24.039   6.700   7.507 -0.1033 -0.0525  0.0078
    1W        W51919  16.366  12.661   0.658  0.1467  0.2466  0.0181
    1W        W51920  16.669   4.972   8.221  0.1403 -0.1003  0.0299
    1W        W51921  25.775   4.431   7.875  0.2311  0.0977 -0.2688
    1W        W51922  10.042  21.269   8.365  0.1987  0.0882 -0.1402
    1W        W51923  21.654  12.068   0.341  0.0082  0.1695  0.4208
    1W        W51924  28.490  17.426   4.308  0.0511  0.0536 -0.1112
    1W        W51925  18.156  16.917   8.548  0.1559 -0.0598 -0.4001
    1W        W51926   2.796   1.588   0.281 -0.2768  0.2128 -0.2808
    1W        W51927  13.098  13.351   0.018  0.0046  0.1390 -0.2875
    1W        W51928  22.629  22.064   2.492  0.3345 -0.0289  0.0753
    1W        W51929  18.761  26.195   2.159  0.0105  0.0486 -0.2933
    1W        W51930  16.308  13.450   1.480  0.0089 -0.0745 -0.0795
    1W        W51931  28.053  14.080   3.202 -0.1112  0.1020  0.2550
    1W        W51932  18.552  12.630   5.788  0.5038 -0.1320  0.1094
    1W        W51933  21.808  21.919   0.001  0.1295  0.0393  0.2299
    1W        W51934   4.141  26.424   7.985 -0.1584 -0.2282  0.0088
    1W        W51935   2.052  26.925   2.276 -0.1061 -0.1024  0.0422
    1W        W51936  17.133   9.726   8.282 -0.5169 -0.0210  0.2342
    1W        W51937  18.823  17.906   0.745  0.2768  0.1272 -0.0193
    1W        W51938  15.028  27.801   1.533 -0.1402 -0.1838 -0.0459
    1W        W51939  23.932  24.451   1.753 -0.0678 -0.1801  0.3637
    1W        W51940  17.420   1.238   1.066 -0.1053  0.0648  0.1042
    1W        W51941   6.313  12.093   1.392 -0.0417  0.2124  0.0936
    1W        W51942   0.702   5.169   8.732  0.2139  0.2015 -0.0644
    1W        W51943  18.814   4.394   0.105 -0.0022 -0.0463 -0.4311
    1W        W51944  10.130   7.321   7.873 -0.2718  0.3625  0.2271
    1W        W51945   3.291  12.569   7.087 -0.2651  0.2449  0.1397
    1W        W51946  12.117   9.642   0.688 -0.1881 -0.2324 -0.3780
    1W        W51947  15.215  25.566   9.173 -0.1942 -0.0866 -0.1618
    1W        W51948  23.357   9.166   7.991  0.1754  0.0041 -0.0400
    1W        W51949  27.829  25.501   0.402 -0.0282  0.1261  0.1370
    1W        W51950   4.555   1.731   9.945 -0.0227 -0.0852 -0.1400
    1W        W51951  25.870  22.726   9.292  0.1289  0.1584  0.1951
    1W        W51952  22.220   1.709   3.341 -0.0796 -0.0192  0.2964
    1W        W51953   8.334  21.902   9.145 -0.3812 -0.0198 -0.3321
    1W        W51954  24.219  22.252   1.400 -0.1184  0.1024 -0.3006
    1W        W51955  16.786  14.642   2.014  0.1404  0.0213 -0.1326
    1W        W51956  10.869  15.145   8.322 -0.0692 -0.0420 -0.0985
    1W        W51957   8.078   7.845   9.176  0.1088 -0.1362 -0.0281
    1W        W51958  18.856  20.534   1.077 -0.1245 -0.1455 -0.0868
    1W        W51959  21.514  19.156   1.153  0.2075 -0.1860 -0.1374
    1W        W51960   1.657  18.261   1.593 -0.3848 -0.1726  0.0180
    1W        W51961  28.138   9.221   1.103  0.0471 -0.0422  0.0802
    1W        W51962   7.248  28.007   3.512 -0.1629 -0.0307 -0.0458
    1W        W51963  13.385  16.122   8.132  0.0902  0.0495 -0.1563
    1W        W51964  28.359  25.023   1.569 -0.1484  0.0898 -0.2236
    1W        W51965   5.857   2.160   9.499 -0.1063  0.0738  0.1225
    1W        W51966  17.317  14.744   7.201  0.0756  0.0151 -0.1868
    1W        W51967   1.015   0.012   2.710  0.2952  0.1813 -0.0733
    1W        W51968  22.829  11.993   0.501 -0.1004 -0.0228 -0.0186
    1W        W51969  24.350   8.601   0.928  0.0631 -0.0073 -0.0775
    1W        W51970  19.219   9.379   0.078 -0.5352 -0.1163 -0.2189
    1W        W51971  11.258   2.864   6.498  0.1918 -0.0784  0.2301
    1W        W51972  27.561  24.605   8.335 -0.2112  0.3174  0.1726
    1W        W51973  22.264   2.464   9.294 -0.0243 -0.3683 -0.1941
    1W        W51974  16.365  12.046   9.968  0.0927 -0.0896  0.0385
    1W        W51975  17.099  13.464   0.222  0.1870  0.1829 -0.1053
    1W        W51976   5.715  10.668   8.057  0.2010  0.1249  0.1012
    1W        W51977  15.624  20.681   8.013 -0.4694  0.1671  0.0134
    1W        W51978  28.441  20.163   0.220  0.3392  0.3678  0.0592
    1W        W51979   1.851   2.396   2.238 -0.0807 -0.0205 -0.0509
    1W        W51980  12.062  17.075   8.727 -0.0556 -0.0891  0.2955
    1W        W51981  26.052   0.254   8.632  0.1473  0.0594 -0.0620
    1W        W51982   6.154  28.475   8.519  0.1097 -0.0617 -0.0195
    1W        W51983  18.700  22.253   2.219  0.3687 -0.0125  0.1147
    1W        W51984  12.859   7.933   1.181  0.0197 -0.1698 -0.0565
    1W        W51985  16.887  23.861   0.924 -0.0055 -0.0186  0.0424
    1W        W51986   1.763  20.661   9.635  0.0304 -0.0453 -0.2678
    1W        W51987   9.993  26.173   2.371  0.2613  0.0549  0.1017
    1W        W51988   2.144  16.696   9.701  0.0327  0.1969  0.0379
    1W        W51989  20.673  13.633   7.917 -0.3118 -0.1747 -0.0089
    1W        W51990  19.261  16.737   6.795 -0.0500  0.1397 -0.1009
    1W        W51991  17.476  22.179   7.506  0.0001 -0.2121 -0.2204
    1W        W51992  12.515  20.719   8.586 -0.1979  0.0724 -0.0349
    1W        W51993   3.394   1.312   1.974  0.0397  0.2616 -0.3026
    1W        W51994  18.070   3.720   9.453 -0.0043  0.0454  0.3746
    1W        W51995  25.869  12.209   3.160  0.2432  0.2736  0.2576
    1W        W51996  28.169  19.893   3.918  0.1319  0.2121 -0.1220
    1W        W51997  16.546   1.669   9.210  0.1988 -0.0357  0.0555
    1W        W51998  15.845  24.989   6.808  0.1721  0.0149  0.0065
    1W        W51999  15.987   1.350   1.298  0.0872 -0.0408 -0.1558
    1W        W52000  22.316  27.281   9.911 -0.0591 -0.2519  0.1826
    1W        W52001  23.984  23.272   2.635  0.1087  0.1781  0.0526
    1W        W52002   9.231  17.034   0.656 -0.0742 -0.2367  0.0589
    1W        W52003  18.780  15.175   9.870 -0.0939  0.1579  0.0242
    1W        W52004   1.564   2.417   3.251 -0.1935  0.3117 -0.2125
    1W        W52005   9.020  17.890   0.522  0.0242  0.1626 -0.1194
    1W        W52006  15.139   4.982   6.834 -0.3793 -0.0007  0.0010
    1W        W52007   2.194   8.759   8.858 -0.0033 -0.1354  0.0011
    1W        W52008  12.633  13.492   9.836 -0.1796 -0.0395  0.2220
    1W        W52009   5.945  21.572   0.290 -0.1898  0.1800  0.0984
    1W        W52010   2.494  11.559   9.665  0.5376 -0.1897  0.2649
    1W        W52011  10.734  16.552   6.765  0.0328  0.1950 -0.0317
    1W        W52012  24.937   3.034   8.011  0.5095  0.3357  0.1105
    1W        W52013   2.603   4.421   7.635 -0.0058 -0.1648 -0.2058
    1W        W52014   3.239  18.144   8.318 -0.0652  0.3000  0.1536
    1W        W52015  27.245  23.479   2.205 -0.1422 -0.0822 -0.1826
    1W        W52016  13.635   4.855   9.249 -0.0982  0.0088  0.3153
    1W        W52017   9.025   3.074   8.149 -0.2623  0.0106  0.1109
    1W        W52018  22.869  24.613   1.239  0.2147 -0.1598  0.2680
    1W        W52019   3.223  28.024   2.461  0.2506  0.5330  0.0451
    1W        W52020  27.068  22.540   6.701 -0.0820  0.0615 -0.0424
    1W        W52021  17.623   3.389   1.577  0.2227 -0.2067 -0.0726
    1W        W52022  27.759  25.752   2.500 -0.3881 -0.2154  0.2084
    1W        W52023   3.911  27.318   2.307  0.0786 -0.0684 -0.0761
    1W        W52024  22.340   4.764   8.664 -0.1561 -0.0230 -0.2034
    1W        W52025  25.902  18.506   8.514 -0.0936 -0.0478 -0.0195
    1W        W52026  12.233  21.874   7.812  0.1944 -0.2981 -0.1202
    1W        W52027  27.839  13.932   8.743  0.1947 -0.1235 -0.1071
    1W        W52028  11.226  20.406   8.229 -0.1124  0.1080  0.0446
    1W        W52029   8.415   3.201   7.946 -0.2307  0.5992 -0.1432
    1W        W52030   3.018  18.594   9.625  0.0972 -0.2518  0.0948
    1W        W52031  15.922   1.491   0.026  0.1848  0.0648  0.2490
    1W        W52032  11.397  19.611   7.190 -0.1762  0.1621 -0.4727
    1W        W52033  18.946  18.229   9.256 -0.0561  0.1292  0.2438
    1W        W52034  18.851   6.296   9.350  0.1406 -0.1730 -0.1609
    1W        W52035  22.285  20.658   2.864 -0.1095  0.0307  0.1198
    1W        W52036  19.115   4.662   0.459 -0.0650 -0.1294 -0.0091
    1W        W52037  10.618  15.231   7.899 -0.1360  0.0349  0.1490
    1W        W52038   1.011  25.685   7.853  0.2080  0.0321  0.1619
    1W        W52039  25.759  26.547   8.958  0.2121 -0.0687  0.0349
    1W        W52040  27.126  23.215   7.864  0.2122 -0.0961  0.2177
    1W        W52041  22.983   4.351   8.273 -0.0053  0.1158  0.2274
    1W        W52042  23.157  10.696   8.277  0.1077  0.3587 -0.1441
    1W        W52043  27.765  20.707   8.615 -0.1014 -0.0285 -0.0349
    1W        W52044   8.953  24.264   8.134  0.0755  0.2798 -0.0349
    1W        W52045   7.951  26.953   9.805  0.3416 -0.1351  0.0004
    1W        W52046  10.165  19.857   8.365  0.1984 -0.1373 -0.3020
    1W        W52047   2.051   7.939   7.120 -0.0121 -0.0618  0.1932
    1W        W52048   2.224  24.046   0.791  0.0455 -0.0484  0.0680
    1W        W52049  26.027  12.141   0.466  0.2193 -0.2900 -0.0949
    1W        W52050  10.387  11.107   8.964  0.0197  0.0417 -0.4105
    1W        W52051  21.108   3.187   9.856 -0.0432  0.1320 -0.2457
    1W        W52052   1.890  27.322   8.654  0.1193 -0.0859 -0.0204
    1W        W52053  28.624  10.031   8.533  0.0477 -0.1421  0.0993
    1W        W52054  26.236  17.342   2.240 -0.3490  0.4507 -0.0637
    1W        W52055  14.506  23.125   0.631  0.0532  0.1330 -0.0683
    1W        W52056  15.561  17.091   6.285 -0.1504 -0.0244 -0.2341
    1W        W52057  15.434  21.395   0.372  0.0316 -0.1530 -0.1267
    1W        W52058  23.778  17.287   1.056 -0.0435 -0.1929 -0.0166
    1W        W52059  17.055  11.389   7.490 -0.0020 -0.0285  0.0228
    1W        W52060  28.083  14.537   1.691 -0.2265  0.1789 -0.1552
    1W        W52061  15.980  14.630   8.455 -0.3295  0.0973 -0.3116
    1W        W52062  15.433  28.468   8.055 -0.0380 -0.1437 -0.1005
    1W        W52063  26.804   5.985   0.686  0.1135  0.2704 -0.1806
    1W        W52064   9.405   2.234   2.443  0.1727 -0.2357 -0.3144
    1W        W52065  10.671  24.997   9.216  0.2131  0.2929  0.0366
    1W        W52066  23.418  26.881   7.221 -0.0186  0.0489  0.1640
    1W        W52067   8.440   5.740   1.113 -0.3313  0.0537 -0.2890
    1W        W52068  28.282   9.121   6.822 -0.0002 -0.0816 -0.3460
    1W        W52069  10.564   5.233   5.672  0.0470 -0.0811  0.2040
    1W        W52070  27.194  14.807   1.593 -0.0232 -0.3006  0.0808
    1W        W52071  18.006  22.416   2.403  0.2342 -0.1099 -0.1282
    1W        W52072  12.739   7.350   8.009  0.1318  0.2646  0.2493
    1W        W52073  10.877  22.891   8.110  0.0082 -0.0266 -0.1529
    1W        W52074  28.296  15.712   3.551 -0.1649  0.2552 -0.0312
    1W        W52075   3.211  15.322   0.227  0.0183  0.2098 -0.2260
    1W        W52076  21.794   1.727   1.484 -0.2187 -0.1823 -0.0626
    1W        W52077  26.431  13.849   1.158  0.1713 -0.1295 -0.1088
    1W        W52078  16.110  17.135   7.854 -0.0287 -0.0371 -0.0479
    1W        W52079  19.948  16.058   2.583 -0.2924 -0.0431  0.2294
    1W        W52080   4.730   6.532   2.996  0.0104  0.0267  0.0032
    1W        W52081  23.731   3.248   8.204 -0.4191 -0.1629 -0.0030
    1W        W52082  19.920   2.674   9.691 -0.0039  0.1012  0.1437
    1W        W52083   0.794  26.677   8.444  0.0274 -0.1024  0.1894
    1W        W52084   3.276  16.111   8.319  0.0147  0.1813  0.0245
    1W        W52085   9.518  12.088   1.454  0.2569 -0.1505  0.1259
    1W        W52086  26.857  26.453   8.128  0.0750  0.3228 -0.0387
    1W        W52087   7.926  21.245   7.115 -0.2306 -0.2188  0.1102
    1W        W52088  18.767  13.793   6.686 -0.0986  0.1024  0.0455
    1W        W52089  21.502   2.817   1.558 -0.1897  0.0162  0.1329
    1W        W52090  24.269  14.587   9.917 -0.1945  0.1404 -0.0216
    1W        W52091  10.123   8.989   7.280  0.1572  0.0868 -0.1767
    1W        W52092  15.802  25.939   1.065  0.2126  0.0071 -0.0190
    1W        W52093  24.693  13.224   7.709  0.0704  0.0542 -0.0129
    1W        W52094   2.427   6.260   3.406  0.1773 -0.2294  0.0967
    1W        W52095  14.144   5.559   8.808 -0.1639 -0.1252 -0.0491
    1W        W52096   0.921  12.628   9.770  0.3238 -0.1794  0.0810
    1W        W52097  11.741  18.697   7.402  0.1263  0.0997  0.4482
    1W        W52098   5.872  17.619   3.764 -0.1328 -0.0231  0.0959
    1W        W52099  17.532  21.451   0.365 -0.1586  0.0611  0.1497
    1W        W52100   4.185   4.395   8.092 -0.3366 -0.2144 -0.0182
    1W        W52101   9.922  11.601   9.802  0.1677  0.0872 -0.3014
    1W        W52102  11.863  25.669   7.755  0.0683  0.1265  0.3845
    1W        W52103  28.094  10.551   2.909  0.0677  0.0524 -0.0643
    1W        W52104   3.581   7.879   0.253  0.1343 -0.0329 -0.1932
    1W        W52105  10.151  12.199   9.525  0.1491  0.2558  0.2241
    1W        W52106  14.898   1.886   8.893  0.3465 -0.1415  0.1931
    1W        W52107  26.724   8.651   9.963 -0.1504  0.1334  0.0420
    1W        W52108   6.411  12.276   0.139 -0.3039  0.3711 -0.2260
    1W        W52109  22.552   9.917   8.297  0.0699 -0.3982  0.1896
    1W        W52110  15.367  23.278   8.518 -0.1038 -0.2456 -0.0022
    1W        W52111  21.425  10.513   0.006  0.1603  0.2985 -0.1059
    1W        W52112  25.436  16.219   1.986  0.0727 -0.1399  0.0238
    1W        W52113  24.190  14.009   0.863  0.1328  0.2176 -0.3665
    1W        W52114   4.095  14.450   8.071 -0.1229  0.1642 -0.1325
    1W        W52115  14.314  15.703   8.506  0.7319  0.1819 -0.1108
    1W        W52116   0.128  14.291   6.988 -0.1813 -0.3079 -0.1683
    1W        W52117  26.383  12.036   3.131  0.0844 -0.0471  0.1377
    1W        W52118   3.329  23.786   3.144 -0.2295 -0.0182 -0.1107
    1W        W52119   7.388  28.660   9.862  0.0232  0.0342 -0.0150
    1W        W52120   2.338   9.066   8.115  0.0718 -0.1798  0.1040
    1W        W52121   9.673   1.241   0.876  0.2762  0.1352 -0.1225
    1W        W52122   4.185  16.765   3.325  0.2336  0.1252 -0.0759
    1W        W52123   8.465  28.523   8.479 -0.2672  0.1153 -0.2876
    1W        W52124  21.304   7.720   9.696  0.0243 -0.2200 -0.2079
    1W        W52125  27.660  10.701   7.602  0.0768 -0.0435 -0.0869
    1W        W52126  16.310  28.081   1.077  0.0451 -0.1075 -0.3756
    1W        W52127  22.226  16.348   7.831  0.1229 -0.0537  0.0197
    1W        W52128  23.929  14.517   7.982  0.0089 -0.1392 -0.1048
    1W        W52129  22.472  23.036   7.971 -0.0989 -0.0554  0.1410
    1W        W52130  17.550  17.611   7.659 -0.1368 -0.3738  0.2321
    1W        W52131   8.854  18.076   8.072 -0.1483 -0.0549 -0.2007
    1W        W52132  10.422   5.681   2.019  0.2967  0.1176  0.0574
    1W        W52133   0.838  19.387   2.660 -0.2036  0.0507  0.1499
    1W        W52134   9.919   8.438   8.583 -0.1104 -0.1276  0.3448
    1W        W52135  21.787  13.239   3.200 -0.2003  0.4261 -0.0590
    1W        W52136   4.388   8.743   2.951  0.0793 -0.0241 -0.2047
    1W        W52137   9.818   7.316   9.480 -0.3356  0.1907  0.0891
    1W        W52138  21.064  11.211   7.214  0.1057  0.2712 -0.0618
    1W        W52139  17.998  12.817   9.888 -0.3776 -0.0572 -0.1271
    1W        W52140   5.715   5.720   7.701  0.0986 -0.1896 -0.0618
    1W        W52141  19.811   5.726   0.607 -0.3686  0.1084 -0.2666
    1W        W52142   3.183  13.280   2.090  0.2261  0.1347 -0.0427
    1W        W52143   3.135  11.086   1.802 -0.1909  0.1560 -0.4562
    1W        W52144  22.567  25.726   2.190  0.0360  0.0701 -0.0426
    1W        W52145  19.819  28.167   1.561  0.0281 -0.1204 -0.0303
    1W        W52146  11.519  19.263   2.567  0.0969 -0.3044  0.1716
    1W        W52147  14.349  21.348   7.376  0.1499 -0.0119  0.0919
    1W        W52148  13.790   6.029   8.565 -0.0004  0.0421 -0.0436
    1W        W52149  12.197  19.595   2.116  0.0661  0.0266  0.2736
    1W        W52150  14.459  12.835   7.456  0.2416  0.1137 -0.1317
    1W        W52151   9.887  15.011   9.581  0.1402  0.3504  0.2836
    1W        W52152  26.409  10.454   0.087  0.1742 -0.1510  0.2951
    1W        W52153   7.609  18.652   1.192  0.2467 -0.0560 -0.3478
    1W        W52154   7.805   0.092   2.570 -0.1530  0.2194 -0.2541
    1W        W52155   5.749  15.505   9.244  0.4382 -0.3390  0.0181
    1W        W52156  24.890  16.982   7.989  0.0879 -0.0579 -0.1472
    1W        W52157   8.146   1.887   8.099  0.1753  0.0755 -0.2057
    1W        W52158   8.109  17.434   8.127  0.1596  0.1448  0.0370
    1W        W52159  28.568  23.278   3.249 -0.1883 -0.1689 -0.1576
    1W        W52160  12.078  14.577   7.532  0.0330 -0.0258 -0.2227
    1W        W52161   3.976   0.919   0.617  0.0062 -0.0856  0.2053
    1W        W52162   2.175  12.307   0.295 -0.1451  0.1891  0.0091
    1W        W52163  28.143  10.883   7.772  0.0875 -0.1227 -0.2924
    1W        W52164  11.288  19.296   7.971  0.0744 -0.1163 -0.1533
    1W        W52165  27.330   1.536   9.279 -0.0223 -0.0012 -0.1151
    1W        W52166  25.802   6.487   2.028 -0.0320 -0.0945  0.1718
    1W        W52167  27.178  12.967   0.520  0.0743  0.1044 -0.0114
    1W        W52168  19.289   8.581   1.050 -0.2686  0.1227  0.0531
    1W        W52169  23.300  17.818   9.093 -0.2719 -0.0500 -0.0320
    1W        W52170  28.048  21.635   9.001 -0.0909  0.2256  0.2662
    1W        W52171  10.738   3.768   3.279 -0.3713 -0.1591 -0.1188
    1W        W52172  13.665  26.036   7.530  0.1091  0.0950  0.1842
    1W        W52173   4.300  20.428   9.955 -0.0288 -0.1857  0.0836
    1W        W52174   9.303   7.832   8.484  0.0967 -0.1460  0.0223
    1W        W52175   1.613   9.307   9.016 -0.0530  0.3371  0.2517
    1W        W52176   9.712   9.496   8.264  0.1943  0.1079  0.0589
    1W        W52177   7.712  28.468   2.788 -0.3511 -0.1148 -0.2660
    1W        W52178  18.088  23.108   2.817  0.0668 -0.0982  0.0315
    1W        W52179   7.802  20.811   1.276 -0.2126  0.0341 -0.2832
    1W        W52180  28.734  17.068   0.456  0.0554 -0.4965 -0.1881
    1W        W52181  16.452  21.443   6.588 -0.1504 -0.0660 -0.1519
    1W        W52182   2.577   0.110   3.414  0.0210 -0.1542  0.1250
    1W        W52183  24.139   3.275   8.682  0.3478  0.2437 -0.1340
    1W        W52184   1.100  12.251   7.062 -0.0236 -0.0961 -0.0139
    1W        W52185   4.145  18.169   1.513 -0.1000  0.2389  0.1570
    1W        W52186  26.282   0.961   3.044  0.1979  0.3586 -0.2579
    1W        W52187  25.954  17.661   1.981 -0.1902  0.2045 -0.0628
    1W        W52188   2.591  12.606   9.443  0.1455 -0.1822  0.1213
    1W        W52189  22.191  25.541   3.467  0.0457 -0.1886  0.3026
    1W        W52190   8.425  10.423   7.011  0.0158 -0.3273  0.2251
    1W        W52191   2.126  27.188   9.286  0.1992  0.0860  0.0517
    1W        W52192  16.382  19.348   9.671  0.2268  0.1885  0.0613
    1W        W52193  13.166  25.803   0.490 -0.0386 -0.0056  0.0075
    1W        W52194  14.636   5.359   7.337 -0.0347 -0.2189 -0.1279
    1W        W52195  22.796  16.186   1.328 -0.2744 -0.0293 -0.1831
    1W        W52196   1.805   1.174   2.067 -0.3408 -0.2450  0.3073
    1W        W52197  10.953   4.435   0.719  0.0577 -0.1934  0.1931
    1W        W52198  19.291  26.684   9.503 -0.0028 -0.3810 -0.0388
    1W        W52199  11.904   2.642   9.421  0.1937 -0.1739 -0.1486
    1W        W52200   5.003  20.610   2.632 -0.0655  0.1704  0.1413
    1W        W52201  22.363  10.908   9.834  0.0767  0.2425 -0.0611
    1W        W52202  26.310   2.340   9.070  0.1463  0.2858  0.2522
    1W        W52203   9.709  26.297   7.150 -0.2442  0.0175  0.0968
    1W        W52204  21.650   9.993   8.504  0.2377  0.0284 -0.0730
    1W        W52205  26.780  18.324   8.461 -0.0511 -0.0382  0.1248
    1W        W52206  24.308   4.122   1.225  0.1349  0.2509 -0.0708
    1W        W52207   8.185  16.609   8.982 -0.0686  0.1056 -0.1847
    1W        W52208   2.786  11.875   9.280  0.0725  0.2688 -0.0818
    1W        W52209  18.720  13.279   8.873  0.2529 -0.1758  0.1505
    1W        W52210  15.379  22.560   1.981  0.1548 -0.3995 -0.0803
    1W        W52211  15.131  19.093   8.892  0.2048 -0.5908 -0.1061
    1W        W52212  18.276  19.658   8.088 -0.1462  0.2070  0.1812
    1W        W52213  16.164  23.747   8.988 -0.2666  0.1025 -0.1237
    1W        W52214   8.404  14.519   7.472 -0.3953  0.3675 -0.0002
    1W        W52215  14.363  15.948   6.944  0.0159  0.1258 -0.0922
    1W        W52216  20.701  11.440   9.690  0.2463 -0.1736  0.2140
    1W        W52217  28.231  15.890   9.434 -0.1951 -0.0331  0.0827
    1W        W52218  14.635   5.816   8.551 -0.4150 -0.1598 -0.0318
    1W        W52219   8.219  13.609   9.766  0.1918 -0.1324 -0.0165
    1W        W52220  22.996   7.664   0.106  0.0090 -0.1154  0.1507
    1W        W52221  18.251  23.308   9.214  0.2357  0.0351 -0.2236
    1W        W52222  21.904  12.206   9.141  0.0397  0.2258  0.0257
    1W        W52223  21.679  11.609   9.952  0.1175 -0.2869  0.0813
    1W        W52224  25.907   6.000   0.084 -0.3444  0.0143 -0.0694
    1W        W52225  14.580  22.725   8.057 -0.1302  0.2201 -0.2172
    1W        W52226  12.064   8.625   5.902 -0.2043  0.1646  0.0493
    1W        W52227  21.920  17.345   6.927 -0.0145  0.2569 -0.1270
    1W        W52228  26.830   6.499   3.343  0.3472  0.0486 -0.3623
    1W        W52229   4.495   2.775   7.659 -0.3183  0.0415 -0.0137
    1W        W52230   8.938  27.632   8.658  0.0667 -0.0788  0.1106
    1W        W52231  26.283   3.244   0.478 -0.6167 -0.1262 -0.1531
    1W        W52232  26.351  25.852   8.462 -0.0995  0.1108  0.3013
    1W        W52233   2.528  21.996   2.917  0.0006 -0.1762 -0.0996
    1W        W52234  19.053  12.221   7.616  0.0370  0.2633 -0.1263
    1W        W52235  19.129   7.205   6.689 -0.0384 -0.0662 -0.3403
    1W        W52236  15.407  25.004   7.617 -0.1573 -0.0886 -0.0666
    1W        W52237  19.451  13.676   6.983  0.0828 -0.4369  0.1075
    1W        W52238  13.363   1.745   0.370  0.3118  0.0783 -0.0876
    1W        W52239  17.808  12.508   9.555 -0.2477 -0.2223  0.2036
    1W        W52240  15.589  23.049   1.150  0.2439  0.1254  0.2221
    1W        W52241   3.675   0.783   2.974  0.0976 -0.2500  0.0020
    1W        W52242  14.443  23.509   1.912  0.0471  0.1080  0.1566
    1W        W52243  11.200  12.340   8.817 -0.1784 -0.1665 -0.2788
    1W        W52244  23.413  17.507   2.384 -0.3095 -0.0223 -0.0680
    1W        W52245   4.511   0.816   3.832  0.3401 -0.0598  0.2661
    1W        W52246  26.430  23.113   4.250  0.1046  0.1041 -0.1003
    1W        W52247  11.894  23.268   9.661  0.0842 -0.1777  0.1544
    1W        W52248   2.891   1.891   4.495 -0.1332  0.0811  0.0874
    1W        W52249   6.491  19.397   8.214  0.1333 -0.0110  0.2924
    1W        W52250  11.396   9.424   0.356  0.1704  0.3994  0.2260
    1W        W52251  14.314  22.010   1.430  0.0800 -0.0180  0.0115
    1W        W52252   0.741   9.353   8.144  0.0042 -0.0043 -0.0408
    1W        W52253  14.163   3.819   6.491 -0.0192  0.2009 -0.1625
    1W        W52254  12.426   5.254   7.752 -0.3140  0.0244  0.0446
    1W        W52255  13.643  24.776   1.487 -0.2547  0.1374 -0.2006
    1W        W52256  15.548   6.091   1.131 -0.2004 -0.0708 -0.0528
    1W        W52257  23.667  16.534   8.562  0.1291 -0.1423  0.0244
    1W        W52258   4.453   2.079   0.944 -0.0084  0.1674  0.2387
    1W        W52259   0.890  13.520   1.919 -0.0521 -0.1343 -0.0433
    1W        W52260   0.264  17.740   9.787  0.1005 -0.0772 -0.1366
    1W        W52261  12.452  27.182   1.716  0.0102  0.3184 -0.3048
    1W        W52262  24.173  10.629   2.258 -0.2623  0.1515  0.0667
    1W        W52263   2.620   4.541   8.554  0.0860  0.0726  0.2057
    1W        W52264  19.266   3.246   1.400 -0.0600  0.1170  0.3737
    1W        W52265  12.214  25.954   7.883  0.0973  0.0443 -0.1913
    1W        W52266  24.567   2.406   2.928 -0.0808 -0.0088 -0.2219
    1W        W52267   0.109   2.179   1.120 -0.2021  0.6725 -0.1423
    1W        W52268   9.103   3.540   7.974  0.1343 -0.3067 -0.2976
    1W        W52269  23.628  26.653   1.090  0.1216  0.0205  0.0325
    1W        W52270  22.812   8.479   9.039 -0.1244 -0.1354 -0.0441
    1W        W52271  24.145   1.468   9.162 -0.0629 -0.2101 -0.1327
    1W        W52272  27.309   5.419   2.162  0.1567 -0.2408 -0.0379
    1W        W52273  18.810  11.641   0.943  0.0458  0.1955  0.1397
    1W        W52274  14.308   7.417   0.205 -0.0297  0.0183 -0.2160
    1W        W52275  14.210  28.110   8.969  0.0935  0.0386  0.2223
    1W        W52276  17.824  25.252   9.058  0.1885 -0.0124 -0.1520
    1W        W52277  24.087  25.874   0.989 -0.1053  0.1070  0.0458
    1W        W52278  16.023  16.904   8.266 -0.1784 -0.0315  0.1560
    1W        W52279  10.672  26.658   2.871  0.0189  0.1182 -0.1919
    1W        W52280  19.187  11.556   8.200 -0.1468  0.0128 -0.0336
    1W        W52281   1.041   5.155   9.313  0.1232 -0.0304 -0.0421
    1W        W52282   2.275  10.670   8.086 -0.2842 -0.2571 -0.2541
    1W        W52283  21.638  23.513   0.169  0.2005 -0.1053 -0.1136
    1W        W52284   4.251  22.340   0.171  0.2514 -0.0787 -0.4607
    1W        W52285  25.569  11.655   7.828 -0.1301 -0.1186  0.2606
    1W        W52286  20.220  17.329   1.000  0.1533 -0.0989  0.0775
    1W        W52287   9.487   1.257   7.860  0.1028 -0.2792  0.1264
    1W        W52288  11.250   1.025   1.059 -0.1391 -0.1739  0.1790
    1W        W52289   2.148  11.507   0.049  0.1476  0.0521  0.0062
    1W        W52290  10.369  20.094   0.755 -0.0202  0.4009 -0.5439
    1W        W52291  11.383   9.931   1.635  0.2629 -0.1440 -0.2290
    1W        W52292  24.277   3.079   0.393  0.2760 -0.0033  0.1425
    1W        W52293  10.176  19.799   1.309 -0.3040  0.2783 -0.0107
    1W        W52294   7.672  19.319   9.565  0.0318 -0.1136  0.0326
    1W        W52295   6.510   4.934   7.954  0.3243  0.1827 -0.0163
    1W        W52296  23.180  17.806   6.879 -0.0945  0.0653  0.0802
    1W        W52297  16.672  12.196   0.336  0.1412 -0.0360 -0.0096
    1W        W52298  22.470   2.583   7.764  0.2669 -0.4003 -0.1335
    1W        W52299   6.278   3.821   9.145  0.1658 -0.1249  0.0811
    1W        W52300   9.645  12.529   8.856  0.1465  0.1464 -0.1165
    1W        W52301  11.858  18.379   9.144  0.3255 -0.0933 -0.0311
    1W        W52302  16.206   0.197   6.633  0.1724 -0.0823 -0.0705
    1W        W52303   5.093  26.542   7.795  0.2222 -0.0298 -0.2415
    1W        W52304  27.792  22.113   9.137  0.2663  0.2880  0.2695
    1W        W52305  19.973  22.990   1.762  0.0961  0.1872  0.0497
    1W        W52306   9.366   3.156   7.726  0.0901  0.1304 -0.0163
    1W        W52307   1.686  21.855   0.671  0.2302 -0.1116  0.1629
    1W        W52308  17.266  20.575   2.715 -0.1550 -0.0253 -0.4043
    1W        W52309   5.535  14.914   7.156 -0.0915 -0.1444  0.0461
    1W        W52310  16.095  10.507   5.504 -0.1244  0.0512  0.1041
    1W        W52311   1.660  25.574   8.823 -0.1173  0.1189 -0.0304
    1W        W52312  17.766  17.184   7.357 -0.0215  0.2066  0.1037
    1W        W52313   5.827  22.040   0.773  0.2982  0.2176 -0.2108
    1W        W52314  15.592   3.950   7.330  0.0346 -0.0765  0.1001
    1W        W52315  19.768   3.808   0.293 -0.1366 -0.1236 -0.0961
    1W        W52316  26.795   3.012   1.951 -0.2176  0.0659 -0.1561
    1W        W52317  21.845   6.573   7.896  0.1930 -0.1121  0.1169
    1W        W52318  17.755   8.297   6.615  0.1749 -0.0144 -0.3565
    1W        W52319  14.019  23.336   8.977  0.0358  0.1954 -0.0735
    1W        W52320  17.917  10.443   1.889 -0.0604  0.0735  0.0239
    1W        W52321  18.700   5.786   8.645 -0.1605  0.1795 -0.2964
    1W        W52322  26.532  19.046   1.057 -0.0869 -0.1491 -0.1638
    1W        W52323  28.322   5.316   1.017 -0.2302 -0.0983  0.3425
    1W        W52324  16.978   5.288   6.729  0.2125 -0.0029  0.2480
    1W        W52325   4.780   8.027   1.807 -0.3451  0.2514 -0.1685
    1W        W52326  18.968   3.912   8.911  0.1099 -0.5446 -0.1988
    1W        W52327   2.881   8.720   3.368 -0.2532  0.1816  0.1375
    1W        W52328  23.121   9.445   0.594  0.0626 -0.1148  0.0366
    1W        W52329   7.608   9.887   9.697  0.0128 -0.3538  0.1334
    1W        W52330  26.527  15.541   7.950  0.3006 -0.0787  0.0128
    1W        W52331   3.801  28.045   3.336  0.1826 -0.0041  0.0472
    1W        W52332   8.536   6.675   8.659  0.1732 -0.4283 -0.1772
    1W        W52333   8.509  10.686   2.491  0.0988 -0.3778  0.0599
    1W        W52334  25.273  17.325   1.030 -0.2925 -0.2444 -0.3763
    1W        W52335   6.955  11.919   8.944  0.0742  0.1883 -0.1589
    1W        W52336   3.200  11.667   3.281 -0.3590  0.0301 -0.2224
    1W        W52337   1.393  12.291   9.200  0.1921 -0.1078  0.1004
    1W        W52338  24.079  19.685   7.454 -0.0942  0.1711  0.1052
    1W        W52339  12.649  15.690   0.233 -0.1583  0.1070  0.0525
    1W        W52340  16.671  10.149   8.338  0.3219 -0.4096  0.1921
    1W        W52341  21.658   1.104   2.956  0.0328 -0.0179 -0.1372
    1W        W52342   0.982  12.177   9.597 -0.3142 -0.0325  0.0211
    1W        W52343  12.101  12.222   7.717 -0.1944 -0.2781  0.0784
    1W        W52344   9.987  23.237   1.181 -0.2100  0.0235  0.0576
    1W        W52345   3.340   4.782   1.152 -0.2692  0.0342 -0.0524
    1W        W52346   9.334  16.608   0.442 -0.1419  0.1195  0.0734
    1W        W52347   3.872  10.406   0.650  0.4882  0.2902 -0.3640
    1W        W52348  12.660  27.030   1.070  0.1205 -0.1530  0.0550
    1W        W52349  20.912  14.946   2.812  0.0707  0.0420 -0.0063
    1W        W52350   0.905  26.190   8.638  0.0597 -0.0227 -0.1738
    1W        W52351  18.121  20.544   7.029  0.0407 -0.0534  0.2792
    1W        W52352   2.660  16.179   1.568 -0.1128 -0.3588 -0.0531
    1W        W52353  16.036   6.442   6.230  0.2199  0.2130 -0.1989
    1W        W52354   8.590  27.765   9.514  0.0209 -0.0648 -0.1885
    1W        W52355  10.035   0.887   0.694  0.1129  0.0318  0.0549
    1W        W52356   4.871  15.331   0.577  0.0012  0.2938  0.0783
    1W        W52357  13.619  25.627   9.238  0.0811 -0.2903 -0.1217
    1W        W52358  24.557   3.250   8.380  0.0515 -0.0783 -0.2180
    1W        W52359  25.299   1.448   8.271 -0.4116 -0.1402  0.4763
    1W        W52360   3.600  28.557   0.358  0.4033 -0.1384 -0.1495
    1W        W52361  12.479  21.544   3.505 -0.1395  0.0174  0.0866
    1W        W52362  15.488  24.732   7.192 -0.0815 -0.4308  0.1127
    1W        W52363   7.170  15.223   8.451  0.1077 -0.0218 -0.0073
    1W        W52364   5.600  27.570   9.017 -0.0918  0.2408  0.0168
    1W        W52365  26.856  16.843   8.014 -0.2811 -0.1785 -0.3336
    1W        W52366  28.769  21.290   3.272 -0.0780 -0.2230 -0.0727
    1W        W52367   5.960   3.265   2.917  0.4592  0.1247 -0.0457
    1W        W52368  14.206  24.151   8.145  0.2171  0.0967  0.0285
    1W        W52369  15.409   4.477   8.291  0.1525  0.1929  0.1971
    1W        W52370  24.993   4.982   9.310 -0.1087 -0.1261 -0.0774
    1W        W52371  10.225  25.199   9.355 -0.0133  0.2282  0.2164
    1W        W52372   5.305  23.393   1.730 -0.2963  0.1078  0.1338
    1W        W52373  21.102  20.473   1.433  0.3529 -0.0302  0.1993
    1W        W52374   2.216   2.787   7.991  0.1406  0.0794 -0.0775
    1W        W52375  15.446   5.322   8.846  0.1115  0.0663  0.1261
    1W        W52376   9.344  26.186   8.507  0.4200 -0.0012  0.1506
    1W        W52377  20.955   8.541   6.994 -0.2322 -0.0301 -0.0904
    1W        W52378  23.287   1.178   8.391  0.0895 -0.2360 -0.0224
    1W        W52379  22.101  28.094   1.851  0.3581 -0.0935 -0.1438
    1W        W52380  17.319  25.767   9.474  0.0806  0.0315 -0.3996
    1W        W52381   8.925  22.820   1.101  0.2574 -0.0075  0.0863
    1W        W52382   4.023   3.622   9.055 -0.1671 -0.0117  0.2713
    1W        W52383  28.365  12.597   7.788  0.0707  0.1161 -0.2740
    1W        W52384  22.770  27.073   2.265  0.0290  0.0489  0.0333
    1W        W52385   4.833  18.751   1.255  0.0671 -0.1236  0.0522
    1W        W52386  22.748   9.103   9.150 -0.3584  0.1921 -0.0839
    1W        W52387  25.247  18.775   8.576 -0.0610  0.0622 -0.0802
    1W        W52388   6.026  13.387   7.830  0.0946 -0.2089  0.1884
    1W        W52389  12.500  11.801   0.274  0.2135  0.0057  0.2433
    1W        W52390   9.945  19.226   8.124  0.0691  0.1208  0.1881
    1W        W52391  19.026  12.928   6.827  0.0378 -0.4840  0.1250
    1W        W52392   4.204  14.898   8.564 -0.0770 -0.1279 -0.2176
    1W        W52393   9.657  11.215   5.818 -0.1822  0.4021  0.0703
    1W        W52394   4.972  26.427   9.287  0.1296  0.0014 -0.0528
    1W        W52395   7.546   9.403   6.915 -0.0799  0.0896 -0.0752
    1W        W52396  26.067  25.516   9.503 -0.1418 -0.4334  0.0289
    1W        W52397  12.486  27.828   7.406  0.0003  0.0804  0.0335
    1W        W52398   9.488  22.638   9.399  0.1580  0.3486 -0.1767
    1W        W52399  17.783  26.929   8.851 -0.2800  0.2083 -0.0624
    1W        W52400  19.307   8.122   0.153 -0.1181 -0.0607  0.0683
    1W        W52401  16.625  22.464   1.317  0.4901 -0.1317  0.1159
    1W        W52402  24.507   3.229   9.098 -0.0568  0.5516 -0.1863
    1W        W52403  20.615  24.613   0.016 -0.0298  0.0507  0.4364
    1W        W52404  11.920   2.917   0.953 -0.0439  0.2714 -0.2392
    1W        W52405  10.538  15.095   5.944 -0.0325 -0.1914  0.0287
    1W        W52406  10.854   8.308   0.258 -0.2197 -0.1652  0.1102
    1W        W52407  25.532   5.122   2.595 -0.0688 -0.0471  0.3002
    1W        W52408  20.285  16.268   8.306 -0.0342 -0.2680 -0.2482
    1W        W52409   0.828  27.632   8.868 -0.1351 -0.2910 -0.1646
    1W        W52410  13.386  13.750   7.081 -0.0057  0.1045 -0.3598
    1W        W52411  18.991  11.444   9.625 -0.0236  0.1002  0.1612
    1W        W52412  21.969   2.460   7.802  0.0548 -0.0444  0.1241
    1W        W52413  23.741   9.015   8.814 -0.3573  0.2896 -0.2349
    1W        W52414   4.379  19.861   7.650  0.0929 -0.0264  0.1025
    1W        W52415  19.668  20.135   8.974  0.0848 -0.3588  0.2511
    1W        W52416   5.556  12.713   7.204 -0.4733 -0.0252  0.1347
    1W        W52417   5.270  20.424   6.975 -0.0327  0.0606 -0.0247
    1W        W52418  15.693   4.403   7.273 -0.0891  0.0839 -0.0622
    1W        W52419   9.913  28.021   1.028  0.2381  0.0187 -0.1235
    1W        W52420   8.162  28.079   8.100 -0.0723  0.0987  0.1113
    1W        W52421  10.146  12.554   7.664  0.0764  0.1002  0.0142
    1W        W52422  16.111   2.433   1.971 -0.2500  0.1659 -0.0455
    1W        W52423  19.134   1.916   9.252 -0.0533 -0.1209  0.0056
    1W        W52424  17.511  23.741   9.916 -0.1499 -0.1067  0.1976
    1W        W52425   8.170   3.179   9.153  0.2702  0.2316 -0.0944
    1W        W52426  13.753  24.349   8.326 -0.1445  0.1707 -0.2433
    1W        W52427  21.255  19.870   1.995 -0.1727  0.2071  0.0244
    1W        W52428   4.312  10.156   8.750 -0.0578 -0.3672 -0.1186
    1W        W52429  10.380   3.041   1.937  0.2255  0.1320 -0.1707
    1W        W52430   3.604  21.401   1.340 -0.0949 -0.1654  0.1489
    1W        W52431  28.168  18.981   3.666  0.1897  0.1309  0.3994
    1W        W52432  12.720  23.081   0.776 -0.1454 -0.2566  0.2248
    1W        W52433  13.987  17.111   7.953 -0.0592  0.3517 -0.0819
    1W        W52434  14.495  26.744   0.295 -0.1250 -0.2222 -0.3275
    1W        W52435   0.972  14.289   7.768 -0.0844 -0.0081 -0.0581
    1W        W52436   2.197  16.878   1.980  0.1008  0.1227 -0.1586
    1W        W52437   9.026  13.767   6.209 -0.2085 -0.0309 -0.2618
    1W        W52438  21.891   8.092   0.983 -0.0182  0.0222  0.0498
    1W        W52439  12.218  23.456   0.062  0.0629  0.1083  0.0104
    1W        W52440  27.715  27.616   9.221 -0.2978 -0.0974 -0.0308
    1W        W52441   2.137   5.866   2.506 -0.0236  0.4475  0.0003
    1W        W52442   6.107   6.027   3.112  0.0653  0.1655  0.4561
    1W        W52443  22.211  26.006   1.123  0.0240  0.2826  0.2589
    1W        W52444   0.359  28.871   8.191  0.2909  0.2033  0.2698
    1W        W52445  13.955  17.756   6.223  0.0502 -0.2176 -0.0832
    1W        W52446  19.859  10.136   9.771 -0.3341  0.0713 -0.2362
    1W        W52447   4.998   6.550   0.839  0.3765  0.0035 -0.0733
    1W        W52448  24.311  21.714   8.492 -0.3719 -0.2624 -0.1817
    1W        W52449   8.866  18.543   2.274  0.0461 -0.1163 -0.3051
    1W        W52450  23.236  15.854   6.298 -0.0566  0.0246  0.0706
    1W        W52451   7.051  19.594   8.284 -0.0343  0.1251  0.1650
    1W        W52452   5.998  28.843   3.706 -0.2604  0.0267 -0.0676
    1W        W52453   3.457   3.438   0.703 -0.1599 -0.1963  0.2373
    1W        W52454  17.326  17.314   0.156  0.0366 -0.0042  0.0035
    1W        W52455  16.737  11.336   8.472  0.1394  0.0822 -0.3026
    1W        W52456  19.627  14.710   0.993 -0.1506  0.0941  0.0697
    1W        W52457   9.501   4.634   7.678  0.1418 -0.2798  0.0419
    1W        W52458  11.005   6.824   9.246  0.0807 -0.3730 -0.1639
    1W        W52459  14.297  21.074   9.699 -0.1001  0.2280 -0.0863
    1W        W52460   8.580  15.061   9.621  0.0282  0.0190  0.2500
    1W        W52461   7.982   1.409   1.606  0.2599 -0.0542 -0.1161
    1W        W52462   9.433  16.002   1.179  0.1215 -0.0488  0.0836
    1W        W52463   0.201  15.715   2.438 -0.0904  0.1228  0.2285
    1W        W52464  26.999  26.971   0.073  0.0961  0.2488 -0.1106
    1W        W52465  15.783  23.516   8.340 -0.2284 -0.1682  0.0788
    1W        W52466  26.398  26.852   2.548  0.0352  0.0832 -0.4395
    1W        W52467   1.728  19.778   9.181  0.0601 -0.0333 -0.0509
    1W        W52468   1.858   7.406   1.516 -0.0901 -0.0880  0.0371
    1W        W52469  17.488   7.468   9.579 -0.1202 -0.0178 -0.0021
    1W        W52470   0.553   7.207   8.271 -0.1870 -0.1925 -0.3259
    1W        W52471   7.783  12.567   1.485  0.2086 -0.1509  0.0830
    1W        W52472  28.097  20.903   9.916 -0.0475  0.0889 -0.0524
    1W        W52473  15.029  28.087   8.049  0.0396  0.0568  0.0364
    1W        W52474  21.009   2.891   1.863  0.2715  0.2309  0.1009
    1W        W52475  23.022  15.806   0.239 -0.2303  0.1624 -0.1397
    1W        W52476   9.339  14.202   1.434 -0.2621 -0.0334  0.1599
    1W        W52477  16.185  26.678   8.299 -0.0062  0.2124  0.2808
    1W        W52478   8.453   7.859   8.059  0.2088 -0.2034 -0.3576
    1W        W52479   9.096  27.544   7.515 -0.1461  0.4396  0.2251
    1W        W52480   3.915  12.353   1.839  0.1725  0.0359  0.0745
    1W        W52481  12.127   0.108   7.964  0.0359 -0.1228  0.1307
    1W        W52482  15.409   9.057   7.904 -0.0395 -0.2711  0.0450
    1W        W52483  10.004  19.190   1.136 -0.0597 -0.1250 -0.0830
    1W        W52484   6.633  23.173   9.464  0.0534 -0.0763 -0.1001
    1W        W52485  27.509  13.860   9.365  0.0366  0.0129  0.0780
    1W        W52486  20.972  19.550   0.012 -0.1644  0.1909  0.0802
    1W        W52487  22.347  13.682   0.607  0.0207  0.3858 -0.1634
    1W        W52488  25.339  22.112   2.399  0.1389  0.0600 -0.3086
    1W        W52489  19.170  10.705   2.046  0.2550  0.3029  0.4216
    1W        W52490   4.334  18.420   0.322 -0.3629 -0.0048  0.2198
    1W        W52491  25.559  16.508   3.912  0.0724  0.0072 -0.0774
    1W        W52492  25.665   9.895   7.234  0.0912 -0.0053 -0.2417
    1W        W52493  23.509  20.583   7.295 -0.0485  0.0425 -0.0144
    1W        W52494  28.481  22.552   9.252 -0.1730 -0.1425  0.0113
    1W        W52495  17.006  16.208   7.222  0.1089  0.0499  0.0431
    1W        W52496   6.749  16.125   7.507  0.0125  0.0861 -0.3739
    1W        W52497  19.265  18.060   7.100 -0.3457 -0.3022 -0.1668
    1W        W52498   7.571   6.967   2.577 -0.2611 -0.1460  0.2031
    1W        W52499   8.141  26.946   2.053  0.0007 -0.2105  0.0075
    1W        W52500  20.707  22.797   0.477  0.0231 -0.2272 -0.3484
    1W        W52501  26.855  26.321   9.163 -0.0132  0.0355  0.1601
    1W        W52502  25.899   0.712   2.235 -0.0714 -0.1400 -0.2899
    1W        W52503  25.108  24.648   9.757 -0.5030 -0.0106 -0.1433
    1W        W52504   0.222  17.740   8.725  0.1202 -0.1844 -0.0208
    1W        W52505  26.197  27.317   1.760 -0.0261  0.2000 -0.1747
    1W        W52506   6.417   0.800   3.018 -0.2841 -0.1684 -0.2048
    1W        W52507   7.593  12.798   2.249  0.1010 -0.0998  0.0892
    1W        W52508  26.739  26.920   8.244  0.0973  0.2004 -0.1041
    1W        W52509  12.183  10.677   5.919  0.3195 -0.1687 -0.0006
    1W        W52510  14.789  15.862   6.535  0.0045 -0.0405  0.1151
    1W        W52511  28.758  23.354   9.677  0.1475  0.2943  0.0515
    1W        W52512  15.797  11.951   0.723  0.1141  0.1086 -0.2165
    1W        W52513  23.043  28.476   2.847 -0.2280 -0.0363  0.2387
    1W        W52514  15.503  15.820   7.112 -0.0367  0.2377 -0.1515
    1W        W52515   2.990  28.540   3.872  0.1911 -0.2854 -0.3939
    1W        W52516  20.289  11.145   9.728 -0.1891 -0.1471  0.0049
    1W        W52517  18.808  15.961   8.393  0.2546  0.3911 -0.0138
    1W        W52518  14.273  18.623   0.663  0.2009 -0.1997  0.0479
    1W        W52519  14.892  18.572   9.455 -0.0829  0.1809 -0.0836
    1W        W52520   4.353  13.500   7.019  0.0075 -0.2881  0.2702
    1W        W52521  27.817   6.144   3.094  0.1780 -0.2597  0.0123
    1W        W52522  19.505   2.376   9.460  0.0865  0.1439  0.1480
    1W        W52523  10.023   3.608   8.286  0.1852 -0.0530 -0.1970
    1W        W52524  15.939   9.577   5.619  0.2155  0.2619  0.3558
    1W        W52525  16.630   7.088   1.703  0.6299  0.1195 -0.1117
    1W        W52526  12.371   6.359   9.385 -0.2671 -0.0522 -0.0619
    1W        W52527   1.075  28.838   3.729 -0.1727 -0.1822 -0.1635
    1W        W52528  14.166  25.110   2.737  0.0272  0.4989  0.1182
    1W        W52529  14.107  25.933   7.247  0.0607  0.1629 -0.2542
    1W        W52530  11.473  13.068   9.051  0.1073  0.2236  0.1673
    1W        W52531   6.879  25.565   3.346 -0.4876  0.2527  0.1759
    1W        W52532   6.150   7.640   9.105 -0.0148 -0.1502  0.1143
    1W        W52533  27.122  18.956   9.123 -0.3173  0.2521 -0.0078
    1W        W52534  25.544  21.455   8.595 -0.3068  0.1071  0.1521
    1W        W52535  22.165  23.804   0.940 -0.0802 -0.1314 -0.0835
    1W        W52536  18.032   8.474   1.551  0.0041  0.3955  0.0461
    1W        W52537   3.287  24.168   7.282  0.3957  0.0614 -0.1744
    1W        W52538  20.544   1.865   1.688 -0.0776  0.0921  0.2541
    1W        W52539  12.727   5.537   1.286  0.0891  0.2311  0.2105
    1W        W52540   2.320  28.271   8.443 -0.2886  0.0572 -0.2334
    1W        W52541  26.847   0.471   9.026 -0.1218  0.1062  0.0299
    1W        W52542  11.018   0.563   1.492  0.0058  0.0533 -0.1634
    1W        W52543  16.801   9.524   7.430 -0.3073 -0.0093 -0.0064
    1W        W52544  15.401  28.733   0.128  0.0826  0.1324 -0.1796
    1W        W52545  10.419  11.391   7.989  0.2263  0.3009  0.0395
    1W        W52546   6.797  21.150   9.544  0.0942  0.2490 -0.3154
    1W        W52547  26.951  15.643   8.223 -0.0756 -0.0886  0.1109
    1W        W52548   2.761  18.050   7.787  0.2987 -0.1316 -0.0890
    1W        W52549  28.073  15.346   9.597 -0.3587  0.2293 -0.1266
    1W        W52550  17.582  10.373   9.968  0.3237  0.0485  0.4169
    1W        W52551  12.829  21.582   2.613  0.2203 -0.0334 -0.1640
    1W        W52552   3.722   8.792   8.509  0.0160 -0.2214  0.0344
    1W        W52553  15.720  24.487   9.384  0.2623  0.0649  0.0576
    1W        W52554  10.559  15.803   0.712 -0.4142 -0.3648  0.1979
    1W        W52555  19.344  17.326   9.051 -0.4118 -0.4258  0.0772
    1W        W52556  10.910  23.448   1.242  0.0823  0.0041  0.0705
    1W        W52557   4.484  23.531   3.243  0.0012  0.5877  0.1315
    1W        W52558  14.198  20.582   0.213 -0.0232  0.1440  0.2034
    1W        W52559  26.910   6.019   4.029  0.1180  0.1100 -0.2284
    1W        W52560  25.643  24.059   3.469  0.1984 -0.0818 -0.0560
    1W        W52561   7.798  27.785   3.089 -0.1171  0.0943 -0.2295
    1W        W52562   5.613  10.570   7.067  0.1075 -0.0260  0.1135
    1W        W52563  18.607   1.343   1.563  0.1903  0.1079  0.0351
    1W        W52564   8.612   2.696   0.562 -0.1887  0.3264  0.0552
    1W        W52565  14.104  23.335   2.829  0.2113  0.2204 -0.1129
    1W        W52566  22.114  23.286   0.224 -0.0322  0.0739  0.0481
    1W        W52567  13.161   6.739   9.247  0.3916  0.0148 -0.3766
    1W        W52568  24.238   8.608   7.056 -0.0380 -0.0160 -0.0801
    1W        W52569   3.076  15.124   9.653 -0.1492  0.0381 -0.1356
    1W        W52570  27.447  24.955   8.017  0.0071 -0.1259  0.0319
    1W        W52571  26.258   5.565   8.823  0.0843  0.2394  0.0768
    1W        W52572   9.278  28.807   2.186 -0.0432 -0.1546  0.0934
    1W        W52573  17.469  13.738   9.325 -0.3099 -0.0309  0.1755
    1W        W52574  12.774   6.049   0.629 -0.1811  0.0607  0.0998
    1W        W52575   4.034  19.869   8.102  0.1519  0.0115  0.1491
    1W        W52576   3.568  23.270   8.450 -0.0040 -0.2214 -0.1468
    1W        W52577   4.108   8.060   7.636 -0.0416  0.0224 -0.1643
    1W        W52578  12.317  19.050   1.924 -0.0512  0.1034  0.0470
    1W        W52579  17.769  14.597   1.797 -0.0287 -0.0032  0.2449
    1W        W52580  24.802   5.712   1.911  0.3124  0.0921  0.0192
    1W        W52581  24.901  20.273   8.548 -0.2328  0.1527 -0.1939
    1W        W52582   9.861  26.052   9.007  0.0936  0.2758 -0.1281
    1W        W52583   8.618   8.534   9.393  0.2249 -0.1565 -0.0798
    1W        W52584  20.415  18.667   0.978 -0.1424  0.2751 -0.0500
    1W        W52585  28.388   8.302   3.453  0.1796 -0.0637  0.0825
    1W        W52586  25.426  18.718   7.211  0.0826  0.0510  0.1285
    1W        W52587   6.202   7.110   7.599 -0.2884 -0.2407 -0.0768
    1W        W52588   3.078   9.929   7.818  0.2164  0.2610 -0.3529
    1W        W52589  12.504  21.205   3.018 -0.0835  0.1837  0.1213
    1W        W52590   8.108   3.279   0.262 -0.0846  0.0297  0.0812
    1W        W52591  10.292  14.687   9.504 -0.2131  0.0953  0.6862
    1W        W52592   8.488   0.125   2.898  0.2088 -0.1437  0.0629
    1W        W52593  25.245  16.375   0.414  0.1469 -0.0797  0.1331
    1W        W52594   0.667  24.674   2.376  0.0263  0.1622 -0.1850
    1W        W52595   4.133  17.173   8.649 -0.3712  0.0051  0.1300
    1W        W52596   9.117  23.827   9.033  0.1044 -0.0894  0.2178
    1W        W52597  16.688   4.010   6.576  0.1967 -0.1221  0.1867
    1W        W52598   1.792  26.097   8.578  0.0052  0.1897  0.3470
    1W        W52599   6.233  15.174   8.249  0.3493 -0.3154  0.0370
    1W        W52600   1.069  26.827   2.798  0.0285 -0.0356 -0.0344
    1W        W52601   4.816   7.321   1.300 -0.0332  0.1878  0.1464
    1W        W52602   7.071  23.463   8.585  0.1609 -0.1733 -0.0834
    1W        W52603  25.232   7.913   9.052  0.0932  0.2007 -0.2571
    1W        W52604  16.101  24.676   9.099 -0.3463 -0.2654  0.3036
    1W        W52605  23.369  20.393   1.317  0.0074 -0.0256  0.3242
    1W        W52606  28.544   9.071   7.246 -0.0498 -0.1494 -0.0806
    1W        W52607   5.351  10.860   0.111 -0.0820  0.1500  0.0864
    1W        W52608  22.060  16.612   6.678  0.1079 -0.3350 -0.2171
    1W        W52609  22.623   3.922   8.112  0.0289  0.1246  0.0426
    1W        W52610   3.336  18.724   9.227  0.0327  0.1069 -0.1848
    1W        W52611  10.785   5.223   9.332  0.2031  0.0965  0.0147
    1W        W52612  14.032   9.856   6.891 -0.0792 -0.0313 -0.0962
    1W        W52613  16.219  28.528   7.884  0.0116 -0.1652 -0.0200
    1W        W52614  22.536  15.858   1.031  0.1262  0.1979  0.4957
    1W        W52615  16.436   1.504   1.375 -0.0986 -0.1744  0.0431
    1W        W52616  20.252  24.227   9.997 -0.0162  0.0104 -0.2923
    1W        W52617  12.187  22.498   0.491  0.2655 -0.1823 -0.3194
    1W        W52618  21.823  18.102   8.523  0.1810 -0.1292 -0.0153
    1W        W52619  13.946   2.862   8.613  0.0993  0.1592  0.2496
    1W        W52620  17.799  17.748   8.110  0.1120 -0.2029  0.1005
    1W        W52621  14.421  11.778   7.820 -0.2116 -0.2035  0.1415
    1W        W52622  22.602  26.247   1.320  0.2188  0.2821 -0.1991
    1W        W52623  24.718  24.668   8.786  0.1974  0.0638 -0.2073
    1W        W52624  13.108   1.595   6.029  0.1469 -0.1505 -0.2128
    1W        W52625   5.500   0.256   3.826  0.0947 -0.0506  0.0527
    1W        W52626  21.803   0.408   2.225  0.2261  0.5783  0.0837
    1W        W52627   4.218  16.293   6.705 -0.0302 -0.0788  0.1330
    1W        W52628  11.361  13.422   8.324 -0.4513 -0.0919 -0.0414
    1W        W52629   3.710  25.840   9.177 -0.1746 -0.0500 -0.2062
    1W        W52630  15.819  17.681   8.853  0.0384 -0.1448  0.0712
    1W        W52631   6.605  13.365   7.537 -0.0325 -0.1160  0.1375
    1W        W52632   9.562  28.247   1.358  0.1883 -0.0516 -0.2220
    1W        W52633  21.684  12.733   7.850 -0.2434 -0.2889  0.3233
    1W        W52634  18.982  27.295   1.259  0.1306  0.1307 -0.2187
    1W        W52635  28.286  26.751   4.160 -0.1248 -0.2281 -0.1161
    1W        W52636  15.482   0.769   0.610 -0.1176 -0.2028  0.2111
    1W        W52637  22.203  15.555   8.958  0.0615 -0.0484  0.0591
    1W        W52638  21.524  16.484   6.574 -0.3462 -0.2710 -0.0209
    1W        W52639  13.894  14.217   8.943 -0.1760  0.0441 -0.1109
    1W        W52640   3.058  20.701   1.251  0.2581 -0.1253  0.0589
    1W        W52641  25.136   3.988   2.254  0.2154  0.0514 -0.0197
    1W        W52642  16.342   3.810   8.291 -0.3214 -0.0262 -0.1034
    1W        W52643   3.485  27.337   8.398  0.0572  0.1323  0.0810
    1W        W52644  24.531  20.334   7.395 -0.1361  0.0868 -0.0096
    1W        W52645  24.221  19.740   9.673 -0.0666 -0.0593  0.0594
    1W        W52646   5.114  19.022   0.765  0.0758 -0.0893  0.1619
    1W        W52647   4.244  24.530   2.958  0.1655 -0.1576 -0.1618
    1W        W52648   9.944  10.843   1.026 -0.1157  0.2375 -0.0470
    1W        W52649  14.484  26.184   6.912  0.1867  0.3214  0.1921
    1W        W52650  25.307  23.995   0.499  0.4394 -0.1913 -0.2137
    1W        W52651  20.827   2.662   2.347  0.3059 -0.2063 -0.1549
    1W        W52652   6.848  27.412   8.411  0.0607  0.2363 -0.3021
    1W        W52653  27.979   0.502   9.975 -0.2144 -0.0872  0.0497
    1W        W52654   8.238  12.897   7.036 -0.1625  0.0094 -0.1817
    1W        W52655  25.513  14.566   3.036  0.2070  0.1138 -0.0962
    1W        W52656  10.619  12.669   0.944 -0.0473  0.2329  0.2888
    1W        W52657  19.269  11.010   9.590 -0.1600 -0.0702  0.0929
    1W        W52658  19.826  25.881   8.185 -0.0747 -0.1573  0.0164
    1W        W52659  25.951   0.178   3.097  0.3837 -0.1905 -0.1543
    1W        W52660   7.583   6.201   0.402 -0.1829 -0.0833 -0.0623
    1W        W52661   5.030   1.607   4.046  0.1208  0.1898  0.1722
    1W        W52662   6.938  17.109   3.363 -0.3364 -0.0557  0.2960
    1W        W52663  24.015  26.918   0.113 -0.1200  0.1639 -0.0588
    1W        W52664  26.026   7.732   2.033 -0.2444 -0.2018 -0.0110
    1W        W52665  20.950   3.777   8.963  0.0321  0.0336 -0.1151
    1W        W52666   9.253  19.584   8.284 -0.3015  0.0896  0.0469
    1W        W52667   5.963   4.994   9.320  0.0063  0.0392 -0.0015
    1W        W52668  26.237   8.644   0.233  0.2321 -0.0787  0.1744
    1W        W52669  13.032   0.451   8.115  0.2091 -0.0976 -0.2185
    1W        W52670  12.119  11.748   9.331 -0.4088 -0.1498 -0.1520
    1W        W52671  24.603  13.965   1.128 -0.0101 -0.2899 -0.0662
    1W        W52672   3.870  11.368   0.437  0.0325 -0.1448 -0.0534
    1W        W52673  28.640  16.136   1.290  0.0249  0.1212  0.0548
    1W        W52674  18.672  21.395   1.487 -0.0103  0.4369  0.0745
    1W        W52675  19.313   8.294   1.479 -0.0452 -0.0379  0.2576
    1W        W52676  13.070   2.398   6.855  0.3211  0.1775 -0.1889
    1W        W52677   8.247   0.306   3.328  0.0428  0.2578  0.1023
    1W        W52678   2.020  17.296   8.924 -0.2722 -0.0612 -0.2848
    1W        W52679  26.396  10.283   8.126  0.1771 -0.1172  0.1141
    1W        W52680  25.348  24.191   8.173 -0.2005 -0.0591 -0.3061
    1W        W52681  23.456  26.489   2.207  0.1968  0.2824 -0.0440
    1W        W52682  16.164  11.249   1.981 -0.1717 -0.0508  0.1837
    1W        W52683   8.208  12.279   9.846  0.0217 -0.3227  0.1361
    1W        W52684  18.479  26.382   8.939 -0.0475  0.1134 -0.2105
    1W        W52685  17.977  16.751   9.812 -0.2714  0.1487 -0.0594
    1W        W52686  20.610   4.350   7.042 -0.0725 -0.0001  0.1064
    1W        W52687  10.660  24.750   3.644  0.2684 -0.0297 -0.1342
    1W        W52688  20.665  26.364   1.558 -0.0024 -0.1078  0.3269
    1W        W52689  15.867  19.178   1.694  0.0243  0.2664  0.2855
    1W        W52690   3.024  22.087   2.901  0.1473  0.3665  0.2061
    1W        W52691  15.901  22.314   0.112  0.2965 -0.0802 -0.1499
    1W        W52692   5.516  16.124   7.994  0.0058  0.0838  0.0149
    1W        W52693   2.690   4.671   4.177  0.0581 -0.0192 -0.1148
    1W        W52694  16.059  20.752   2.216  0.0076 -0.3402  0.0533
    1W        W52695   2.262  23.973   1.896  0.0322 -0.4473  0.0349
    1W        W52696  25.464   1.902   8.962  0.0403 -0.0608  0.0084
    1W        W52697  13.767   1.143   6.869  0.1480  0.0497  0.0605
    1W        W52698  17.476   7.143   8.658 -0.1229 -0.0464 -0.0605
    1W        W52699   0.656   8.569   3.075 -0.1991 -0.0154  0.2269
    1W        W52700  15.522  21.619   8.329  0.2222  0.0552 -0.1887
    1W        W52701  17.995  10.118   9.988 -0.1696 -0.1308  0.3196
    1W        W52702  21.842  15.177   6.517 -0.2754 -0.0107 -0.2441
    1W        W52703  20.868  25.372   3.466  0.2014 -0.1190  0.0445
    1W        W52704   8.219  23.654   0.247  0.1484  0.1246  0.2518
    1W        W52705   5.089   6.906   1.632  0.1468  0.4097  0.1881
    1W        W52706  13.261  20.556   1.305  0.0592 -0.2731 -0.0105
    1W        W52707  23.969  17.711   0.388  0.0334  0.0510 -0.1795
    1W        W52708  27.297  10.697   6.782  0.3524  0.1409 -0.1590
    1W        W52709  26.567  26.029   8.042  0.0959 -0.0682 -0.2050
    1W        W52710  17.646  11.893   8.928 -0.3518  0.1748 -0.3467
    1W        W52711   1.155  23.679   0.877 -0.1238  0.1229  0.0309
    1W        W52712  12.410   2.323   1.219 -0.0460 -0.0239  0.4443
    1W        W52713  18.020  17.230   6.921 -0.0683 -0.0639 -0.0232
    1W        W52714   2.198  25.203   8.304  0.1419  0.0174 -0.0205
    1W        W52715   3.503  19.834   1.397 -0.3271  0.0457  0.1117
    1W        W52716   7.445  16.359   8.217 -0.0530 -0.0980  0.0899
    1W        W52717   0.331  24.559   8.992  0.0405 -0.1615  0.1084
    1W        W52718   4.451  24.461   3.402 -0.0179 -0.0257 -0.4012
    1W        W52719  26.558  18.617   7.477  0.4416 -0.1028  0.0843
    1W        W52720  12.021   5.663   9.180  0.1148  0.2529  0.0280
    1W        W52721   4.151  13.228   7.829 -0.2847 -0.0031  0.2849
    1W        W52722  21.256  17.603   2.836 -0.1390  0.0644  0.0478
    1W        W52723   9.199   9.673   8.296  0.0925 -0.1454 -0.3234
    1W        W52724   7.057  26.719   9.535 -0.0199 -0.0004  0.2544
    1W        W52725   6.253   9.859   7.544  0.0169 -0.0016  0.2952
    1W        W52726  10.594  25.506   0.670  0.1405  0.0129 -0.1966
    1W        W52727  25.176  10.064   1.370  0.0479  0.3029  0.0994
    1W        W52728  23.068   9.683   0.161  0.1032 -0.1212 -0.0050
    1W        W52729  14.000  16.420   0.927  0.0525 -0.1077 -0.0417
    1W        W52730  16.266  25.681   7.840 -0.3771  0.0810 -0.0462
    1W        W52731  20.631   8.088   8.842 -0.0466 -0.2176  0.1814
    1W        W52732  27.726   6.884   3.555 -0.4223  0.0504 -0.1803
    1W        W52733  23.019  24.661   0.597  0.2059  0.1445 -0.0462
    1W        W52734   1.829  18.429   2.068 -0.1984  0.2947 -0.1263
    1W        W52735  13.313  13.477   0.745 -0.0779  0.3702  0.1704
    1W        W52736   0.445  17.152   8.989  0.2238  0.0445 -0.2745
    1W        W52737  19.143  21.730   9.855 -0.1180 -0.2586 -0.1619
    1W        W52738   2.390  12.807   0.293  0.1370 -0.2288  0.2518
    1W        W52739   9.803  21.007   3.186 -0.0678  0.0701  0.2365
    1W        W52740  13.556  15.052   8.792 -0.2355  0.0945 -0.0465
    1W        W52741  22.121  11.607   2.629 -0.1847 -0.0215  0.0761
    1W        W52742   4.791   5.103   8.152  0.0984 -0.1863 -0.3455
    1W        W52743  24.362  24.128   0.779  0.3552 -0.1806 -0.1136
    1W        W52744   8.472  26.965   2.397  0.3747 -0.0100 -0.1227
    1W        W52745   3.781  20.420   0.089 -0.0442  0.0931  0.0967
    1W        W52746  28.624  17.061   9.431  0.1210  0.3399  0.3249
    1W        W52747  11.167  25.145   7.994  0.0645 -0.1725  0.0526
    1W        W52748  21.121  12.722   2.787 -0.2852  0.0357  0.1822
    1W        W52749  26.178  15.161   8.064  0.2744  0.2095 -0.0057
    1W        W52750  15.058   3.193   7.120  0.1638 -0.0021 -0.2494
    1W        W52751  23.984  27.040   1.042 -0.1228 -0.2847 -0.0736
    1W        W52752   0.885   4.128   4.452  0.0401 -0.1045 -0.0022
    1W        W52753  26.442  24.834   9.058  0.1035  0.0931  0.0882
    1W        W52754  16.860   8.264   7.222  0.3026 -0.1055 -0.0525
    1W        W52755  25.256  10.424   1.796 -0.1148  0.2960  0.0540
    1W        W52756   9.027  22.051   9.890 -0.0551  0.0260  0.1846
    1W        W52757   4.423  10.578   2.613 -0.0458  0.2242  0.1210
    1W        W52758  12.089  25.679   3.286 -0.1866 -0.2011  0.2150
    1W        W52759   8.936  19.554   3.276  0.2193 -0.1315 -0.0114
    1W        W52760  23.971  13.453   1.034 -0.1869 -0.0210  0.0402
    1W        W52761  28.208  20.704   1.371  0.1270  0.1110 -0.0559
    1W        W52762  21.816   6.550   7.406  0.2751  0.2762  0.1056
    1W        W52763   4.004   5.536   2.569  0.1845 -0.0413  0.3582
    1W        W52764  19.030  12.521   8.228  0.1633 -0.1521 -0.1345
    1W        W52765  18.190  17.319   8.278  0.2126  0.0378 -0.1458
    1W        W52766  10.357  24.925   9.780  0.0295  0.2190 -0.2254
    1W        W52767   0.172  24.488   2.668  0.0124 -0.0676 -0.1189
    1W        W52768  28.384  27.890   8.205  0.0129 -0.1592  0.0834
    1W        W52769  13.366   8.662   0.672  0.1028 -0.1323  0.3007
    1W        W52770   4.997  25.678   1.193  0.1905 -0.1734  0.0856
    1W        W52771  18.968  25.196   1.285 -0.0858 -0.2651  0.0411
    1W        W52772   9.002  23.788   3.878  0.1218 -0.0376  0.1142
    1W        W52773  23.627  24.020   2.765  0.0874  0.1119  0.2373
    1W        W52774   9.061  10.101   8.812 -0.1021  0.2958 -0.2073
    1W        W52775  14.580   9.473   0.329  0.2792 -0.0073 -0.0458
    1W        W52776  11.578  24.937   3.431 -0.1062 -0.3530 -0.4363
    1W        W52777  17.054  21.906   8.664 -0.2148 -0.1171 -0.0920
    1W        W52778   3.547  15.470   9.130 -0.1199 -0.1478 -0.2480
    1W        W52779  21.731  24.740   0.875  0.0537 -0.0877 -0.2271
    1W        W52780  10.304   2.930   7.473  0.0362 -0.0075 -0.0433
    1W        W52781   8.427  22.760   9.553  0.2104 -0.2310  0.2682
    1W        W52782   5.712  22.795   2.279 -0.0143  0.1227  0.1368
    1W        W52783  10.502  25.420   2.701  0.0987 -0.0139 -0.3865
    1W        W52784  23.981   6.864   9.798 -0.0909 -0.0514 -0.1008
    1W        W52785  19.781   0.453   1.879  0.1002  0.0203 -0.0508
    1W        W52786  18.014   6.216   6.585  0.1895 -0.1235  0.2413
    1W        W52787  27.098  22.945   9.278 -0.3737 -0.3257 -0.2154
    1W        W52788  28.404  22.580   8.439  0.2913 -0.2426 -0.1437
    1W        W52789   7.753   7.291   2.089 -0.1634 -0.3057  0.0058
    1W        W52790   0.393  23.618   0.067  0.1603  0.1651  0.2580
    1W        W52791  21.013  15.882   1.727  0.0996 -0.1115  0.1882
    1W        W52792  24.763   9.867   0.813 -0.1004 -0.0820  0.3415
    1W        W52793   8.059  21.508   2.550 -0.0655 -0.3144 -0.1299
    1W        W52794  10.021   5.455   8.189  0.1588  0.2926 -0.1246
    1W        W52795  17.224  22.746   2.811  0.0622  0.3190 -0.1631
    1W        W52796  12.927  13.374   8.620 -0.0126  0.3884 -0.1123
    1W        W52797  19.936  24.097   7.867  0.0049 -0.0071 -0.0415
    1W        W52798   2.811  14.328   0.286 -0.2312 -0.2251 -0.1350
    1W        W52799   7.295   9.777   0.456  0.0389  0.0677 -0.1902
    1W        W52800  23.504  16.380   1.334 -0.2848 -0.0213  0.3563
    1W        W52801  16.434  17.200   8.193  0.0568 -0.1592  0.0856
    1W        W52802  24.828   6.061   0.522  0.4627  0.2413  0.1477
    1W        W52803  25.099  16.180   1.240  0.2309  0.0417  0.2273
    1W        W52804  21.016  14.755   7.099  0.1114 -0.2095 -0.1338
    1W        W52805  17.389  11.755   7.172  0.1011  0.0867  0.1302
    1W        W52806  10.819  27.047   2.565  0.0310  0.1026  0.1746
    1W        W52807  21.005  19.093   7.109 -0.3891  0.2065 -0.3523
    1W        W52808  19.102  21.963   8.392 -0.3049 -0.0218 -0.3247
    1W        W52809  13.335  26.348   8.835 -0.2428 -0.0124 -0.0150
    1W        W52810  20.294   2.399   1.319  0.0845  0.5273 -0.1915
    1W        W52811  18.777  16.027   6.926 -0.0956 -0.1093 -0.0652
    1W        W52812  13.181  15.986   1.530  0.1832 -0.2145  0.1103
    1W        W52813  24.142   7.045   8.373 -0.3374 -0.1203 -0.0832
    1W        W52814  21.573   7.042   9.321  0.1655  0.0736  0.2482
    1W        W52815   2.091   9.490   3.488  0.2274  0.1577 -0.1354
    1W        W52816  22.222   4.124   1.101  0.1241  0.3220  0.1255
    1W        W52817  22.620   3.511   8.816  0.0884  0.1122 -0.2511
    1W        W52818  18.888  10.767   6.951 -0.0081  0.0207 -0.0635
    1W        W52819  26.813   1.779   3.949  0.0938 -0.0314  0.0035
    1W        W52820  19.915  13.314   8.849  0.1099 -0.0114  0.1009
    1W        W52821   7.561  19.657   8.696 -0.1426  0.2347 -0.2777
    1W        W52822   6.543   2.814   1.057  0.1470  0.0635 -0.2787
    1W        W52823  12.847  17.139   7.258 -0.1520 -0.0064 -0.1517
    1W        W52824  25.625  14.223   3.398 -0.0657  0.3059 -0.1593
    1W        W52825  16.444  23.519   1.398 -0.3715 -0.2826  0.0441
    1W        W52826   2.084   0.733   9.490 -0.4630 -0.1174 -0.2853
    1W        W52827  23.183   5.686   9.215  0.3365 -0.3473  0.1276
    1W        W52828  18.495   4.289   2.187 -0.2578  0.0301 -0.0970
    1W        W52829   5.021   2.905   7.443 -0.4415  0.0888 -0.1102
    1W        W52830  16.208  28.833   2.705  0.0325  0.1577 -0.0726
    1W        W52831   3.258  21.947   3.899 -0.1894 -0.1177  0.2112
    1W        W52832   6.123   5.366   0.850 -0.3974 -0.2155 -0.0787
    1W        W52833  13.504  10.838   9.033  0.2518  0.1093  0.1633
    1W        W52834  28.433  19.957   1.924  0.0911  0.1013 -0.3522
    1W        W52835  24.419   8.969   1.371  0.1655 -0.2045 -0.3325
    1W        W52836  27.845  28.075   2.784  0.1477 -0.2291  0.1405
    1W        W52837  20.021  26.783   9.903 -0.3149 -0.1232 -0.5415
    1W        W52838   7.957  19.247   0.495  0.2119  0.0856  0.0359
    1W        W52839  15.190  18.418   0.830  0.3004  0.1078 -0.1432
    1W        W52840   7.193  23.672   1.551  0.3065  0.0624  0.0583
    1W        W52841   0.305  19.813   7.623  0.1216 -0.0979  0.2615
    1W        W52842   3.860  13.862   0.076  0.2167 -0.1013  0.0929
    1W        W52843  17.739  16.107   1.038 -0.0795  0.2473 -0.0605
    1W        W52844   2.832  26.601   8.368 -0.0454 -0.1448 -0.1123
    1W        W52845  20.365  22.814   7.142 -0.0683 -0.1951  0.2344
    1W        W52846  25.380   2.341   9.251  0.1766  0.1746 -0.2700
    1W        W52847   6.638  20.722   0.486  0.0240  0.3328  0.2022
    1W        W52848  21.588  15.228   0.349  0.1551  0.1322 -0.2282
    1W        W52849   6.997   1.826   0.317  0.3148 -0.1409 -0.1105
    1W        W52850  21.639   5.306   8.290  0.0662 -0.0868  0.1054
    1W        W52851   7.607  23.303   7.848 -0.2466 -0.0234  0.2329
    1W        W52852  20.167  19.847   6.730 -0.0941  0.1578 -0.2047
    1W        W52853  23.294  11.407   8.680  0.2925 -0.1267  0.3330
    1W        W52854  20.280   4.565   1.496  0.2153  0.0132  0.0583
    1W        W52855  23.373  17.393   1.416 -0.1516  0.2098 -0.0982
    1W        W52856  28.072   7.904   3.413 -0.0086  0.0181 -0.1930
    1W        W52857  14.878  21.765   2.504 -0.0925 -0.0951  0.2650
    1W        W52858   8.310   0.489   8.988  0.1537  0.1085 -0.4583
    1W        W52859   7.731  26.351   2.035 -0.0494  0.0368  0.0455
    1W        W52860  14.273  20.210   2.015 -0.0083  0.1147 -0.0853
    1W        W52861  21.979   8.226   8.525  0.3480 -0.0580 -0.3878
    1W        W52862  25.564  27.239   9.506 -0.1228 -0.2044  0.0631
    1W        W52863  24.734   4.309   2.817 -0.1451  0.1083  0.0329
    1W        W52864  10.182   3.342   0.749  0.2699  0.0369 -0.0693
    1W        W52865  11.798   0.150   0.692  0.3525  0.1112 -0.0081
    1W        W52866  10.589  26.963   7.815 -0.0352  0.1064 -0.1573
    1W        W52867   0.194  15.354   9.020 -0.1338 -0.2356 -0.0912
    1W        W52868  12.419  12.983   9.791 -0.0461 -0.0963 -0.2589
    1W        W52869   9.540   5.609   9.324 -0.0013 -0.2135  0.1900
    1W        W52870   8.253   1.140   9.764 -0.2785  0.1811 -0.0744
    1W        W52871  21.184  28.826   1.951 -0.2353 -0.2202  0.1250
    1W        W52872   6.080   4.465   8.897  0.1095  0.2221  0.0356
    1W        W52873  28.643   0.457   7.425  0.1379  0.2418 -0.0811
    1W        W52874  26.727  27.785   2.990  0.0481  0.1587  0.0796
    1W        W52875   9.510  22.167   1.603 -0.2350  0.0147  0.5064
    1W        W52876  17.552  27.625   6.295 -0.1270 -0.0660  0.0982
    1W        W52877  13.677  20.721   7.171 -0.2257 -0.0817  0.1758
    1W        W52878  12.703   9.954   1.110 -0.1634  0.1594 -0.1464
    1W        W52879   3.436  19.103   8.961  0.3137  0.1740  0.0632
    1W        W52880  20.897   9.779   6.343  0.1212 -0.1372 -0.1463
    1W        W52881   6.138  16.454   0.855 -0.1051 -0.0267  0.1452
    1W        W52882  22.981   2.559   8.027 -0.0251  0.1547  0.1768
    1W        W52883  14.997   8.005   0.202  0.0235 -0.1215  0.5054
    1W        W52884  17.780   1.875   1.647  0.0390 -0.3917 -0.2323
    1W        W52885  13.608  12.558   6.497 -0.4800  0.0765  0.1824
    1W        W52886   1.768  14.682   0.797  0.0194  0.1069 -0.0076
    1W        W52887   6.078   5.895   0.382 -0.1076  0.1142  0.0005
    1W        W52888  15.541  13.580   7.015 -0.0077  0.0605 -0.1765
    1W        W52889  13.274  12.090   7.076  0.1100  0.2512 -0.0720
    1W        W52890   5.409   3.498   1.434 -0.0715  0.0978 -0.1200
    1W        W52891  23.843  25.611   8.123  0.3017 -0.1069  0.1666
    1W        W52892  18.498   5.849   7.641 -0.0108  0.0074 -0.1933
    1W        W52893  10.929   2.108   0.481  0.2003  0.1773 -0.1168
    1W        W52894  15.918  23.040   8.119  0.2295  0.3089 -0.0186
    1W        W52895   2.324  25.196   0.787 -0.0510  0.2362  0.0821
    1W        W52896  14.684  14.444   1.710  0.2273  0.2919  0.1494
    1W        W52897   7.259   8.717   6.262 -0.0037  0.2828 -0.0567
    1W        W52898  15.402   0.121   2.008 -0.1004  0.2126  0.2958
    1W        W52899  11.313  10.804   8.672 -0.0207  0.1268 -0.1376
    1W        W52900  23.503  26.773   8.898 -0.2963 -0.0128  0.1541
    1W        W52901  16.929   8.710   9.287  0.2358  0.1335 -0.0720
    1W        W52902   3.180  16.936   8.405  0.0535  0.2136  0.1169
    1W        W52903  22.778  11.970   6.587  0.2648 -0.2386 -0.1281
    1W        W52904  13.295  18.915   7.057 -0.1161 -0.7041  0.0216
    1W        W52905  18.400  16.747   3.189 -0.0645 -0.0248  0.0114
    1W        W52906   4.321  24.089   7.844 -0.1263  0.0022 -0.3440
    1W        W52907   9.210   8.868   0.532  0.0545  0.0834 -0.3826
    1W        W52908  24.201   7.673   9.235 -0.0831 -0.3309  0.0415
    1W        W52909  23.365  14.268   6.550 -0.1191 -0.1409 -0.0518
    1W        W52910  17.664   9.100   9.737 -0.4869 -0.0963  0.0927
    1W        W52911  21.694   4.050   9.674  0.2094 -0.3303 -0.1677
    1W        W52912  15.383  13.063   8.990  0.0902  0.3620  0.0423
    1W        W52913   2.151  20.960   9.477  0.3103 -0.0323  0.1707
    1W        W52914  11.783   9.907   6.604 -0.3963 -0.3769 -0.0396
    1W        W52915  13.816  27.252   7.787 -0.0303 -0.1312 -0.1032
    1W        W52916  17.935  16.720   7.065  0.2409  0.1195 -0.1289
    1W        W52917  18.181  10.655   7.505 -0.1905 -0.2159  0.2841
    1W        W52918   5.012  28.411   3.553  0.2923 -0.5171 -0.0728
    1W        W52919   4.000   2.875   1.868 -0.1580  0.0566  0.3709
    1W        W52920  25.181   0.727   8.704  0.2303 -0.0568  0.0950
    1W        W52921  11.021  21.040   7.814  0.1803  0.0754  0.0979
    1W        W52922  26.991  28.873   9.009  0.1905  0.0823 -0.1068
    1W        W52923   2.788   0.971   2.986  0.0722 -0.0258  0.2161
    1W        W52924  13.624  24.566   0.734 -0.0144 -0.2719  0.0600
    1W        W52925   2.096  28.829   0.523 -0.0797  0.0536 -0.1966
    1W        W52926   9.727   5.100   1.721  0.0607 -0.1385 -0.3629
    1W        W52927  26.134   3.396   8.923  0.3352 -0.1635 -0.0795
    1W        W52928   7.863  24.592   3.121  0.3252  0.2543  0.0558
    1W        W52929  27.626  23.076   9.374  0.0289 -0.1874 -0.0864
    1W        W52930  17.376  12.338   9.806 -0.0923  0.1580  0.2050
    1W        W52931  14.647   4.442   8.515  0.3027 -0.2727  0.1512
    1W        W52932   9.879   7.062   1.982  0.0786  0.1480 -0.1639
    1W        W52933  21.622  16.774   8.776 -0.3584  0.0969 -0.1284
    1W        W52934  22.279  15.032   0.704  0.3449  0.0294  0.2638
    1W        W52935  13.444   6.506   8.435  0.1252  0.1652 -0.0800
    1W        W52936  14.797  24.468   9.415  0.1741  0.0900  0.3181
    1W        W52937  24.162  21.967   0.127  0.0017  0.1040  0.0768
    1W        W52938  18.804   8.779   1.219 -0.0263 -0.1596  0.1705
    1W        W52939  19.627  17.746   9.197 -0.2994  0.0006  0.1767
    1W        W52940  26.246  15.849   0.441  0.2477  0.0666 -0.1683
    1W        W52941   4.220  18.880   0.227 -0.0625  0.1659  0.0019
    1W        W52942  25.636   0.157   8.183 -0.0590 -0.1503  0.1227
    1W        W52943  14.927   6.087   7.870  0.1545  0.2441 -0.1493
    1W        W52944  24.458  11.544   9.549  0.0237 -0.2582  0.0958
    1W        W52945  16.042  24.798   9.638 -0.2223 -0.0903 -0.1785
    1W        W52946   4.774  17.602   9.913  0.3411 -0.3651  0.0504
    1W        W52947  11.019  25.425   9.879 -0.0411  0.1310 -0.1234
    1W        W52948  21.070   7.888   7.095  0.0794 -0.1353  0.1000
    1W        W52949  15.935   3.962   9.136 -0.0878 -0.0557  0.1548
    1W        W52950  22.632   5.108   1.565 -0.2506  0.3921 -0.3225
    1W        W52951   2.710   4.285   8.137  0.0632  0.2811 -0.0272
    1W        W52952  27.563  21.902   0.024 -0.3399 -0.0183  0.1438
    1W        W52953   8.280   0.729   0.998  0.1278  0.3138 -0.2279
    1W        W52954  21.065   2.176   8.911  0.1125  0.5122 -0.0886
    1W        W52955  20.316   6.928   9.919  0.0170  0.3065 -0.4034
    1W        W52956   4.485   6.504   3.821  0.2079  0.1748  0.0176
    1W        W52957   8.701  24.787   3.741 -0.1321  0.0898 -0.0603
    1W        W52958  25.687  23.156   3.550  0.1165  0.2149 -0.1935
    1W        W52959  21.902  23.496   0.664 -0.0902  0.0558  0.1300
    1W        W52960   1.755  14.019   9.249  0.1464 -0.1968  0.0695
    1W        W52961  26.031  26.025   9.639  0.1846  0.0069 -0.2430
    1W        W52962  18.049   0.720   1.644  0.0222 -0.0935  0.0430
    1W        W52963  22.530   8.096   8.596 -0.2649 -0.0275  0.1548
    1W        W52964   9.823   0.822   1.842 -0.2099 -0.0884  0.0196
    1W        W52965   4.793  23.100   9.558  0.0027  0.1659 -0.2252
    1W        W52966   6.236  28.182   9.591 -0.0358  0.1687 -0.0535
    1W        W52967  24.935  10.115   2.775  0.0444  0.2617  0.3007
    1W        W52968  22.628   0.735   9.572 -0.2555  0.1529 -0.0478
    1W        W52969   4.498  13.060   8.834  0.1747 -0.2322  0.2439
    1W        W52970  25.894   0.126   9.114  0.0058 -0.5008  0.0667
    1W        W52971  24.576  28.850   9.513 -0.0715 -0.1688 -0.0463
    1W        W52972  11.993   2.807   8.553 -0.1408 -0.3860 -0.2318
    1W        W52973  13.406  11.719   6.422  0.2903  0.0463  0.0959
    1W        W52974  15.574  23.924   0.309  0.1122  0.3089 -0.0088
    1W        W52975  10.658  25.930   1.054  0.1622 -0.0392  0.1758
    1W        W52976   9.340  24.147   9.957  0.0435 -0.3089 -0.0549
    1W        W52977  11.329  19.756   2.707  0.1483  0.0419 -0.0551
    1W        W52978  15.136  22.083   7.466  0.1854 -0.0298  0.0321
    1W        W52979   9.421  12.218   8.194 -0.1979 -0.1425 -0.1513
    1W        W52980  15.907  26.813   1.157 -0.0959  0.2534  0.1421
    1W        W52981   9.741  18.282   7.995  0.1866  0.3292 -0.0504
    1W        W52982  18.243  22.044   8.299 -0.1189 -0.2156  0.1555
    1W        W52983   9.111  25.055   0.801 -0.1778  0.1323 -0.0399
    1W        W52984  19.267   1.796   6.913  0.1227  0.1049  0.2010
    1W        W52985  22.449  18.664   8.021 -0.0792  0.0859 -0.4309
    1W        W52986  20.593   7.052   6.140 -0.1379 -0.1605 -0.1554
    1W        W52987  18.821  24.868   9.963 -0.0585 -0.2926 -0.3102
    1W        W52988  18.061  17.825   2.200  0.1872  0.2243  0.0131
    1W        W52989   3.213   7.729   2.569 -0.1185  0.1347  0.2788
    1W        W52990  13.351   1.997   7.541  0.1727 -0.1591  0.1557
    1W        W52991  15.408   9.449   8.182 -0.0331  0.0373 -0.2340
    1W        W52992  23.327  11.443   7.737  0.2398 -0.0043  0.2023
    1W        W52993  16.557  10.493   7.971 -0.1072 -0.0273  0.0741
    1W        W52994  25.608   2.725   8.355  0.0863  0.0526  0.1311
    1W        W52995  23.108   6.468   1.773  0.0506  0.0823  0.1141
    1W        W52996   9.222  24.005   8.493  0.0232 -0.2699  0.0101
    1W        W52997  13.984  18.150   7.607  0.3861  0.3064 -0.0528
    1W        W52998  12.322   6.599   8.808  0.0798  0.0612 -0.0476
    1W        W52999  17.291  24.063   7.135  0.0446 -0.4310 -0.1097
    1W        W53000   6.608  28.324   2.012 -0.3319 -0.0128 -0.0923
    1W        W53001  19.205  18.278   0.686  0.0282 -0.1017 -0.1000
    1W        W53002  28.075  15.540   2.344  0.1622  0.1773  0.0568
    1W        W53003  14.157  10.966   7.716 -0.1651  0.2456  0.1379
    1W        W53004  27.500  13.507   7.581  0.2278  0.1419  0.0572
    1W        W53005  24.580  17.734   1.589 -0.1793  0.1634  0.5424
    1W        W53006   4.818  20.229   2.134 -0.2224  0.1686 -0.0171
    1W        W53007  15.627  21.180   2.827 -0.1382  0.0942 -0.0944
    1W        W53008  22.662   4.133   8.906 -0.1195 -0.0747  0.0146
    1W        W53009  15.948  27.864   8.914  0.1304  0.0260 -0.1449
    1W        W53010   4.480  16.299   9.607 -0.0385  0.2795  0.0932
    1W        W53011  19.142  21.537   8.863  0.2004 -0.1452  0.1895
    1W        W53012  11.880   9.879   2.342 -0.0098  0.1646  0.1396
    1W        W53013   3.509   6.786   2.085 -0.2008  0.1170 -0.2297
    1W        W53014  11.767  27.649   9.621  0.2296 -0.2269 -0.0121
    1W        W53015   7.128  12.187   7.384 -0.1661  0.1704 -0.0546
    1W        W53016  25.567  11.900   7.396 -0.1392  0.0438 -0.0884
    1W        W53017   6.597   8.143   7.508 -0.0308 -0.1152 -0.3060
    1W        W53018  28.688   7.881   7.655  0.0623  0.0315  0.1307
    1W        W53019   7.771  10.426   2.084  0.3386  0.0970  0.0755
    1W        W53020  18.574  24.807   7.277  0.1137  0.1171 -0.0201
    1W        W53021   6.399   4.639   2.840  0.0388  0.1577 -0.0239
    1W        W53022   6.415  15.717   0.624  0.1473  0.1778  0.1938
    1W        W53023  16.223  14.888   8.857 -0.0472 -0.1606 -0.0690
    1W        W53024   9.331  26.715   8.665  0.2592  0.1870 -0.0111
    1W        W53025  17.109  18.251   0.762 -0.0151  0.2024 -0.5928
    1W        W53026  14.141  15.339   6.084  0.1887 -0.0037  0.0229
    1W        W53027   9.297   6.481   1.228 -0.2138 -0.4351 -0.0109
    1W        W53028  21.279  21.677   0.631  0.1659  0.1403 -0.0484
    1W        W53029  18.433   1.529   8.572 -0.1221 -0.1308 -0.2569
    1W        W53030  22.386  12.990   7.399  0.0958  0.2129 -0.1493
    1W        W53031  25.570   4.858   1.396  0.0452  0.0626 -0.1025
    1W        W53032   0.593   0.534   2.384 -0.1974 -0.4326 -0.2658
    1W        W53033  12.245  24.848   2.563  0.2376 -0.0399  0.1580
    1W        W53034   3.710  20.725   7.736  0.0036 -0.1734 -0.3412
    1W        W53035  20.380   1.406   9.242  0.1174  0.0905 -0.1190
    1W        W53036  16.809  11.754   7.208 -0.2174  0.0473 -0.0396
    1W        W53037   1.568  26.869   2.959  0.0071  0.0177 -0.0621
    1W        W53038  15.882   0.478   7.251  0.0409  0.1236 -0.1440
    1W        W53039  16.038   5.445   1.325 -0.0125  0.1379 -0.4217
    1W        W53040  22.970  25.809   8.078 -0.0452 -0.0607 -0.3079
    1W        W53041  23.209   2.371   9.753 -0.0977  0.0135 -0.0825
    1W        W53042  19.232  26.790   8.380 -0.0505 -0.5089  0.1684
    1W        W53043  25.094  17.998   2.749  0.0070  0.1453 -0.0910
    1W        W53044  12.987  23.209   8.663 -0.1502  0.0838 -0.1066
    1W        W53045  14.661   7.117   2.106  0.0539 -0.3821  0.2367
    1W        W53046  15.809   8.017   7.623 -0.1485 -0.0065  0.1388
    1W        W53047  27.108   3.104   9.784  0.2156 -0.1883  0.1448
    1W        W53048  27.262  10.415   7.816  0.0052  0.3201 -0.0869
    1W        W53049  27.382  11.644   8.859 -0.0966  0.0989  0.2219
    1W        W53050   5.997  10.969   9.322  0.0291 -0.0490  0.2994
    1W        W53051   8.883  11.004   7.369 -0.0209 -0.2475 -0.0293
    1W        W53052  13.836  20.317   0.771  0.1756 -0.0787 -0.0582
    1W        W53053  22.960  21.659   1.081 -0.1822 -0.0318 -0.0986
    1W        W53054   3.667  23.759   6.991 -0.1799 -0.0303  0.2080
    1W        W53055  26.098  28.854   0.833 -0.0366  0.2053 -0.0812
    1W        W53056   9.644  25.475   8.536  0.0740  0.1781 -0.3256
    1W        W53057  19.233  12.462   6.726  0.2119 -0.0117 -0.1440
    1W        W53058  13.847  24.241   7.264  0.3393  0.3554  0.0799
    1W        W53059  14.028  21.670   0.176  0.0931 -0.0552  0.2017
    1W        W53060  20.379  26.233   3.245  0.0813 -0.1589  0.1886
    1W        W53061  25.641  17.869   9.173  0.2242  0.0804  0.2659
    1W        W53062  18.632   5.493   9.844  0.0840 -0.2794 -0.0917
    1W        W53063   7.453  26.623   8.594  0.1462 -0.2527  0.0221
    1W        W53064   7.597  11.091   7.951 -0.0879  0.1783  0.2601
    1W        W53065  24.785   2.964   2.804  0.1964 -0.3890 -0.0422
    1W        W53066  24.449  22.537   9.347 -0.2059 -0.2483 -0.0697
    1W        W53067  23.203  18.676   1.126 -0.0648  0.3004  0.1070
    1W        W53068   4.557  11.126   2.641 -0.1121  0.0191 -0.1436
    1W        W53069  26.344  23.674   9.529 -0.0424 -0.3020  0.0016
    1W        W53070   5.875  26.000   1.748 -0.3075 -0.0836 -0.0953
    1W        W53071  27.705  16.787   7.388 -0.0847 -0.2408  0.3968
    1W        W53072  16.282   2.633   1.476 -0.0110 -0.1932  0.0669
    1W        W53073   5.218  13.517   7.616 -0.2561 -0.4889  0.1164
    1W        W53074   1.775  14.679   6.975  0.1284  0.4141  0.2395
    1W        W53075  24.250  25.545   4.176  0.3482  0.2276  0.2980
    1W        W53076  27.931   2.921   1.244 -0.0705 -0.1231  0.1064
    1W        W53077  25.586  21.055   2.369  0.0016  0.0483  0.2591
    1W        W53078  23.444  23.255   0.859 -0.0585  0.0262 -0.4377
    1W        W53079  20.744   0.033   0.795  0.3732  0.0948  0.0832
    1W        W53080  22.233  27.181   2.250  0.2662 -0.1761  0.0259
    1W        W53081   0.559  25.457   8.593  0.4251  0.1864  0.0373
    1W        W53082  25.006   0.816   3.797 -0.2218  0.0609 -0.0483
    1W        W53083  10.871  18.433   7.556  0.1386 -0.0372 -0.0226
    1W        W53084   9.986  11.793   9.272 -0.0916  0.2268  0.0730
    1W        W53085  14.501   1.261   7.453 -0.3925 -0.0024 -0.0023
    1W        W53086  20.366  14.985   9.627  0.3694 -0.1116  0.2516
    1W        W53087  28.231  21.919   2.692  0.3804  0.4613  0.3251
    1W        W53088  15.709   6.461   0.475  0.1444 -0.3873  0.4679
    1W        W53089   1.566   4.126   4.266 -0.0194  0.2905  0.0652
    1W        W53090   5.003  10.807   8.952  0.2050  0.0712 -0.0842
    1W        W53091  19.501  20.674   0.992 -0.0902  0.0634  0.3674
    1W        W53092  18.543  15.267   8.935 -0.1112  0.0793 -0.1127
    1W        W53093   6.565  23.200   0.546 -0.1155  0.2663 -0.1351
    1W        W53094  26.878   7.778   0.998 -0.2913  0.0041 -0.2571
    1W        W53095  28.878   4.041   3.195  0.2816 -0.1567  0.0941
    1W        W53096   4.174  15.839   0.415  0.0987 -0.0868  0.0474
    1W        W53097   7.100  13.337   1.193  0.2460 -0.0092  0.2356
    1W        W53098  23.732  12.978   1.398 -0.3979  0.2314  0.0386
    1W        W53099  14.698  12.563   9.503  0.2770  0.0844  0.1949
    1W        W53100  10.640   8.727   9.252  0.0807 -0.0844  0.1567
    1W        W53101   4.944  15.020   9.155  0.1445 -0.0773 -0.0639
    1W        W53102   7.480  13.448   8.294 -0.1143  0.0787 -0.4191
    1W        W53103  15.044  19.181   1.784  0.2480 -0.0906  0.2543
    1W        W53104  26.470  26.177   8.798  0.0665 -0.3381  0.0413
    1W        W53105  19.170  17.602   6.369 -0.1575  0.0635  0.2608
    1W        W53106   8.079   5.907   2.198 -0.0805  0.2191 -0.1911
    1W        W53107  16.524  10.862   0.641  0.2618  0.2147 -0.1980
    1W        W53108  23.506  13.768   9.791 -0.0056 -0.0457  0.1180
    1W        W53109   2.275  17.171   3.256 -0.4247  0.2288 -0.2875
    1W        W53110   9.732  26.524   8.927  0.1550  0.2054  0.0539
    1W        W53111  16.327  26.580   1.593  0.1188 -0.3021 -0.0346
    1W        W53112  14.284   5.422   8.268  0.1213 -0.2041 -0.0654
    1W        W53113  12.595  16.041   9.293  0.1430 -0.1897  0.0869
    1W        W53114   2.756  25.891   2.739 -0.1921  0.1252 -0.0191
    1W        W53115  13.152   3.469   1.664  0.3008 -0.0077 -0.0765
    1W        W53116   0.533  10.417   2.094 -0.1365 -0.5366 -0.1450
    1W        W53117   3.038  14.417   1.296 -0.3273 -0.0170  0.2499
    1W        W53118   0.148  19.541   0.080  0.1369  0.2093  0.0095
    1W        W53119  27.879  18.897   9.609 -0.1966 -0.0236 -0.2093
    1W        W53120   5.279  16.376   9.511  0.0875  0.1388  0.1395
    1W        W53121  12.015  18.886   2.371 -0.2287  0.0451 -0.0343
    1W        W53122   4.234   4.599   1.641  0.1423 -0.1246  0.0984
    1W        W53123   0.660  13.835   0.690  0.2331  0.0975  0.1574
    1W        W53124  13.257  12.827   6.962  0.0532 -0.0593 -0.0545
    1W        W53125  16.965   6.227   9.317  0.1923  0.2589 -0.1488
    1W        W53126   1.227   3.950   8.642 -0.0940 -0.0551 -0.1044
    1W        W53127  17.239  27.559   1.223  0.0537 -0.0177  0.1115
    1W        W53128   7.754  25.104   2.234 -0.0618 -0.2023 -0.1925
    1W        W53129  19.063  23.873   0.127  0.2138 -0.2009  0.0404
    1W        W53130  26.665  16.521   2.453  0.2178  0.2654 -0.0574
    1W        W53131  26.066   6.903   8.657 -0.2185  0.2638  0.0532
    1W        W53132   4.503   1.534   3.501 -0.1953  0.0048 -0.1455
    1W        W53133  13.290   4.388   6.363  0.0277  0.1064 -0.1212
    1W        W53134  23.614   3.195   8.792 -0.0259  0.1020  0.1406
    1W        W53135   8.336   2.880   2.818  0.0985  0.0414  0.0867
    1W        W53136   9.922  11.289   7.162  0.0490  0.1644 -0.2543
    1W        W53137  19.337   5.639   0.583  0.2835  0.2942 -0.1610
    1W        W53138  24.480  23.863   9.235 -0.2069 -0.0412 -0.1112
    1W        W53139   9.620  20.338   2.526  0.3870  0.0689  0.0051
    1W        W53140   8.869  26.607   3.845 -0.0921  0.2463  0.1279
    1W        W53141  25.641  24.870   9.133 -0.0634 -0.0341 -0.1423
    1W        W53142   6.728  26.849   0.586 -0.1454  0.0784 -0.0780
    1W        W53143   4.016   7.092   0.825  0.3406 -0.1431 -0.1648
    1W        W53144  18.049  28.209   1.281  0.1005 -0.1704 -0.2290
    1W        W53145  12.427  13.866   0.753 -0.3983 -0.1199  0.1354
    1W        W53146   4.530  22.029   8.078 -0.3536 -0.0088  0.0413
    1W        W53147  18.890   8.989   0.219  0.1097 -0.3153  0.0885
    1W        W53148   4.590   1.106   9.889 -0.0979 -0.2017 -0.0742
    1W        W53149  13.957   1.088   9.273  0.1553 -0.4085 -0.3187
    1W        W53150  14.092   5.041   8.543  0.2845  0.1018  0.2290
    1W        W53151  16.345   9.548   7.599 -0.0640 -0.0909 -0.1680
    1W        W53152   1.916  10.261   0.200 -0.0576 -0.1173  0.0897
    1W        W53153   7.276  16.007   0.948  0.0871 -0.0445 -0.0366
    1W        W53154  10.214  11.625   8.868  0.0361 -0.0296  0.0190
    1W        W53155  16.933   0.808   9.698  0.1423 -0.6516  0.0291
    1W        W53156  23.469  16.569   6.985 -0.2229  0.1239  0.3526
    1W        W53157  26.603  28.043   0.719 -0.1854  0.1448 -0.0755
    1W        W53158  22.160  18.595   1.229  0.0195  0.0022  0.1419
    1W        W53159  20.525   1.772   7.538 -0.2897 -0.0001 -0.0412
    1W        W53160  19.971  15.127   8.520  0.3014 -0.0136 -0.1783
    1W        W53161  18.395  24.795   0.157 -0.0699  0.0488  0.2928
    1W        W53162   6.677  20.302   2.443 -0.0373  0.3257  0.0249
    1W        W53163  16.328   3.662   9.209  0.1685  0.2790 -0.1950
    1W        W53164  12.519  13.892   7.217  0.2179 -0.2088 -0.0499
    1W        W53165  15.939  17.503   0.963  0.0022 -0.0738  0.0050
    1W        W53166  19.035  17.014   8.748 -0.0852  0.1546 -0.0503
    1W        W53167  12.629  16.126   1.596 -0.1659  0.4579 -0.0360
    1W        W53168  22.518  11.910   7.355  0.1832 -0.2430  0.0018
    1W        W53169   3.754  19.807   2.794  0.0027 -0.0643  0.0377
    1W        W53170  14.129  17.385   1.852 -0.1371  0.0992  0.1708
    1W        W53171  12.340   7.308   1.016  0.0107  0.0979 -0.0044
    1W        W53172  28.392  17.429   0.773 -0.1199 -0.0675  0.3945
    1W        W53173  18.746   2.879   7.098 -0.1246  0.3615 -0.0305
    1W        W53174  21.101  17.941   7.315 -0.0800  0.4728  0.2175
    1W        W53175  17.155  19.227   7.937  0.2572 -0.0299 -0.1884
    1W        W53176   4.277  22.634   8.696 -0.1175  0.0495 -0.1544
    1W        W53177   1.131  13.374   8.342 -0.1738  0.2305 -0.4331
    1W        W53178   8.151   5.901   8.251  0.1833 -0.1459  0.1596
    1W        W53179   3.523  22.905   8.097  0.0002 -0.3558  0.1071
    1W        W53180   3.408  18.131   2.886 -0.2163 -0.2375  0.0700
    1W        W53181  15.146  21.981   9.738 -0.3982  0.0256  0.3227
    1W        W53182  28.320   9.964   0.219  0.0734 -0.3172  0.0206
    1W        W53183   1.907  22.770   0.656 -0.4003  0.0881 -0.0482
    1W        W53184   6.935  14.759   0.858  0.0311  0.1521 -0.1072
    1W        W53185  18.795  16.965   2.876 -0.0888  0.2054  0.1361
    1W        W53186  19.852  17.962   7.452  0.2530  0.0813 -0.0643
    1W        W53187  18.986  20.325   1.901  0.1304  0.0168  0.1021
    1W        W53188  23.970  26.414   2.066  0.0936  0.1157 -0.2770
    1W        W53189   6.568  10.132   6.783 -0.1418  0.1646 -0.0042
    1W        W53190  12.079   3.422   0.821  0.3909 -0.0786  0.1498
    1W        W53191  24.761   4.021   0.293 -0.0497  0.0670 -0.1220
    1W        W53192   4.127  28.687   1.009  0.1621  0.0893 -0.3286
    1W        W53193   1.775  16.452   1.184 -0.0178  0.1705  0.0692
    1W        W53194  21.815   0.666   9.378 -0.1288 -0.1150  0.2339
    1W        W53195  12.024  16.649   9.084 -0.0015 -0.1725  0.2220
    1W        W53196  12.219   8.389   6.371  0.1875  0.0915 -0.0003
    1W        W53197  17.377  11.566   8.063  0.1255 -0.0824 -0.0685
    1W        W53198  24.470   5.589   3.171  0.0310 -0.0014 -0.0114
    1W        W53199  19.466  25.631   1.102 -0.0200  0.1092  0.0009
    1W        W53200  17.346   4.350   8.418 -0.0757 -0.3589 -0.5344
    1W        W53201  21.954   9.174   0.836  0.0452 -0.0352  0.0603
    1W        W53202  28.773   1.550   9.889  0.1735 -0.3058 -0.1952
    1W        W53203   0.861   1.660   8.342 -0.0582  0.1729  0.1036
    1W        W53204   6.675  21.526   1.047  0.0261 -0.2047  0.0722
    1W        W53205   9.551   4.199   8.539  0.0738  0.2503 -0.0898
    1W        W53206  23.897  24.316   0.913  0.3625 -0.0463  0.1331
    1W        W53207  14.695  15.672   6.035  0.1886 -0.0914 -0.3503
    1W        W53208   3.071   4.018   9.930  0.0773  0.0472  0.2188
    1W        W53209  13.642   9.054   7.569 -0.1287 -0.1676  0.1605
    1W        W53210  27.983  15.608   9.048 -0.2773 -0.3860  0.0985
    1W        W53211   6.920   9.579   8.612  0.1313 -0.3743  0.1770
    1W        W53212  17.214   8.906   8.429  0.5372  0.1147  0.0245
    1W        W53213   0.979   8.947   9.375 -0.2274 -0.0064  0.0793
    1W        W53214   7.236  15.793   7.456 -0.1683 -0.1909 -0.2949
    1W        W53215  28.808  20.944   8.254  0.1623 -0.1992 -0.0030
    1W        W53216   9.721  23.680   0.633  0.0344 -0.2806  0.2188
    1W        W53217  21.988  23.272   9.338  0.0894 -0.0311 -0.1358
    1W        W53218   0.055   6.539   8.119 -0.0358  0.0323  0.4213
    1W        W53219  19.858  18.719   0.999  0.0860 -0.0437 -0.1244
    1W        W53220   0.795   8.158   1.269  0.2413  0.1680 -0.0983
    1W        W53221  23.232   9.078   8.460  0.0675  0.1361 -0.2768
    1W        W53222  25.699  20.975   7.746  0.4019 -0.1285  0.0914
    1W        W53223   9.151   3.774   6.781 -0.2214  0.0127  0.0079
    1W        W53224  13.424   7.317   0.039  0.0016  0.3343 -0.0974
    1W        W53225   0.320  18.644   0.002  0.1176 -0.2297 -0.1963
    1W        W53226  26.802  17.270   0.222 -0.1293 -0.2279  0.0279
    1W        W53227  12.061   1.095   1.841  0.2684 -0.0510  0.0181
    1W        W53228  27.537  14.835   8.185 -0.1996  0.1828  0.0873
    1W        W53229   9.224  12.353   7.622  0.4502  0.0352 -0.0355
    1W        W53230  14.755  17.334   6.774 -0.1858 -0.1734  0.1931
    1W        W53231  11.593   5.165   8.436 -0.0874  0.0657 -0.0864
    1W        W53232  23.752  20.878   0.868 -0.2313 -0.0419 -0.0644
    1W        W53233  24.748  16.224   9.695  0.1338 -0.2467  0.1066
    1W        W53234  27.730  21.825   3.558 -0.3713  0.1006  0.2749
    1W        W53235  14.186  17.787   1.150  0.0660 -0.3033  0.0405
    1W        W53236   5.378  14.875   8.115  0.3283 -0.0120  0.1626
    1W        W53237  17.266  28.853   0.166  0.0474  0.1176 -0.0693
    1W        W53238  15.362  12.484   1.574 -0.3450  0.0024  0.3413
    1W        W53239  26.313  10.691   2.300  0.3727 -0.0122  0.1948
    1W        W53240  17.726  16.658   7.588  0.0863 -0.2920  0.1398
    1W        W53241   5.642  17.532   0.155 -0.2767 -0.0134  0.0587
    1W        W53242   9.787  24.043   7.487 -0.0594 -0.2704  0.1700
    1W        W53243  16.796  15.848   8.579  0.0791  0.2913 -0.1034
    1W        W53244  25.631   1.988   9.464 -0.2690  0.3787  0.0950
    1W        W53245   9.219  26.164   1.514 -0.3080 -0.0817 -0.0318
    1W        W53246  22.630  24.979   2.872  0.1586  0.1918  0.1617
    1W        W53247   0.163   7.733   0.204 -0.2674 -0.1093  0.2547
    1W        W53248  12.074  11.130   6.119 -0.1513  0.1596 -0.0395
    1W        W53249   8.565  22.407   2.669  0.2050 -0.1808  0.0039
    1W        W53250  22.955  26.458   0.974  0.1459  0.3636 -0.1403
    1W        W53251  19.828  14.372   7.586 -0.0040 -0.0522 -0.0676
    1W        W53252  14.353  15.655   1.506 -0.0152 -0.1478 -0.2871
    1W        W53253   7.925  21.944   1.775  0.1952 -0.0664  0.0439
    1W        W53254  11.145  18.215   2.849 -0.3111  0.1189  0.1891
    1W        W53255   2.702  26.472   1.904 -0.0252 -0.1658 -0.2403
    1W        W53256   9.735  20.819   8.291  0.1401 -0.0670  0.0082
    1W        W53257  27.433  19.666   7.953 -0.4140 -0.1677 -0.1584
    1W        W53258  22.225  13.251   8.518 -0.0398 -0.3447 -0.2073
    1W        W53259   2.046  25.668   8.448  0.2805 -0.1534 -0.0079
    1W        W53260  14.287  16.113   0.563 -0.0809 -0.1369 -0.0650
    1W        W53261  18.811   6.769   0.101 -0.1795  0.1878 -0.0696
    1W        W53262   8.977  22.542   9.800 -0.0011 -0.0113 -0.2455
    1W        W53263   5.328  27.697   1.708  0.3535 -0.0318 -0.1987
    1W        W53264  26.788  16.343   8.268  0.4732  0.2018 -0.0452
    1W        W53265  12.593   1.492   6.278  0.0354 -0.2793  0.0261
    1W        W53266  13.594   3.010   6.286 -0.1166  0.2636 -0.0116
    1W        W53267   6.789  26.412   2.358  0.0530 -0.1112 -0.1667
    1W        W53268  20.555  27.603   1.537  0.0373 -0.0495  0.3051
    1W        W53269   8.754  28.723   9.807  0.2898  0.2169  0.0582
    1W        W53270   9.785  17.781   2.402 -0.2496  0.0335  0.1353
    1W        W53271  14.822  27.485   9.454 -0.0847 -0.2073  0.0804
    1W        W53272   3.543   4.148   1.695  0.0777 -0.0727  0.2447
    1W        W53273  25.892  28.514   9.228  0.0141  0.1311 -0.2107
    1W        W53274  23.759   1.220   1.088  0.0989 -0.0228 -0.0151
    1W        W53275   2.370  10.752   1.409  0.4212  0.1825 -0.0531
    1W        W53276   3.220  19.576   8.231  0.1347 -0.1237  0.1347
    1W        W53277   1.236  14.962   8.191  0.0612  0.1561 -0.0467
    1W        W53278  27.811   7.120   0.183 -0.3980  0.0218 -0.1713
    1W        W53279  15.339   7.252   0.665  0.2798 -0.3297 -0.0645
    1W        W53280   9.602  24.555   0.261  0.0066  0.0379  0.0553
    1W        W53281   3.136   7.989   8.025 -0.1824  0.2451  0.2109
    1W        W53282   1.340   3.677   3.127  0.2823 -0.4713 -0.1918
    1W        W53283   0.944   1.905   4.099  0.0176 -0.0046 -0.0588
    1W        W53284  15.354   0.297   2.702  0.0470 -0.0394  0.0670
    1W        W53285   9.022  14.653   6.695  0.0072 -0.1743 -0.1720
    1W        W53286  27.866  21.376   9.786 -0.1332 -0.0605  0.1143
    1W        W53287  15.673   8.227   1.291  0.1526  0.2381  0.3345
    1W        W53288   3.172  20.093   8.104 -0.4842 -0.1339 -0.0596
    1W        W53289   3.818  21.546   0.892 -0.2185  0.1968 -0.0750
    1W        W53290   6.228  11.954   7.051  0.2026  0.0635  0.6219
    1W        W53291  18.832  10.689   6.394  0.1961 -0.2345  0.0334
    1W        W53292   1.787  28.852   9.994 -0.3510  0.0250 -0.3774
    1W        W53293   9.860  15.409   7.442  0.1353 -0.1872  0.2702
    1W        W53294  24.144   3.000   8.268 -0.0528 -0.0134  0.1528
    1W        W53295  17.905  18.952   7.581 -0.4087  0.3325 -0.0378
    1W        W53296  23.851  20.491   9.907 -0.0611 -0.0245 -0.2339
    1W        W53297   6.266   2.382   8.661  0.0745 -0.0176 -0.0029
    1W        W53298   2.624   1.418   3.237 -0.3857  0.2727  0.1031
    1W        W53299  16.129  26.581   7.603  0.1346  0.2653 -0.0232
    1W        W53300  16.760  17.341   0.339 -0.0894  0.0818  0.2343
    1W        W53301   1.484  21.579   8.210  0.3872  0.0427 -0.0502
    1W        W53302  16.404   7.015   8.922  0.1235 -0.1910 -0.0170
    1W        W53303   3.213  10.159   3.127 -0.0659  0.2423  0.0816
    1W        W53304  17.444   0.223   7.987  0.0085  0.0646  0.1270
    1W        W53305  24.305   2.826   2.278 -0.1400 -0.0200  0.0478
    1W        W53306  24.878  26.092   2.155  0.1587  0.0421  0.2766
    1W        W53307  13.628  28.382   0.975  0.3144 -0.1738 -0.2826
    1W        W53308   9.227   6.780   9.753 -0.2320  0.1238 -0.0226
    1W        W53309   4.118  21.362   0.126  0.0249 -0.0044 -0.1348
    1W        W53310   7.722  19.272   2.219  0.2010  0.2940 -0.0565
    1W        W53311  24.022   3.212   9.921  0.0630 -0.0644  0.2213
    1W        W53312  27.434  13.285   2.034 -0.0498  0.2322 -0.0338
    1W        W53313   6.275  20.739   7.123 -0.3991 -0.0887 -0.1518
    1W        W53314  27.964   8.763   1.038 -0.0126  0.1767 -0.0494
    1W        W53315   0.150  13.119   0.884 -0.0704  0.0678  0.0370
    1W        W53316   2.033  12.093   7.813  0.3082 -0.0428 -0.1849
    1W        W53317   7.907   7.971   1.449  0.2665  0.0914 -0.1318
    1W        W53318  27.305   7.450   9.274  0.1188  0.0112  0.0370
    1W        W53319   1.309  12.888   9.728 -0.0833  0.0317 -0.1458
    1W        W53320  19.513  22.353   1.276  0.1358 -0.0940 -0.1281
    1W        W53321  27.023   3.133   3.852  0.2579  0.1206 -0.1631
    1W        W53322  13.367   3.885   6.564  0.1717 -0.3032  0.0736
    1W        W53323  25.148   5.880   8.395 -0.2514  0.1833  0.0712
    1W        W53324   5.285  18.019   0.827  0.3454 -0.0994  0.1273
    1W        W53325  17.259  27.182   7.600  0.0907  0.1187 -0.0487
    1W        W53326   8.185  15.372   2.318  0.2414  0.2687  0.1218
    1W        W53327  26.748  15.130   0.474  0.1285 -0.5267 -0.1347
    1W        W53328  20.332   0.260   2.433 -0.0034 -0.0264 -0.1190
    1W        W53329  14.827   0.385   7.643  0.1671 -0.1681 -0.0698
    1W        W53330  17.129  15.000   1.165 -0.0675 -0.0360  0.0100
    1W        W53331  23.183   4.207   2.559 -0.1542 -0.0198 -0.0423
    1W        W53332  11.950  14.985   9.871  0.0459  0.4533  0.1426
    1W        W53333  12.266  18.068   6.447 -0.1302 -0.0854 -0.0439
    1W        W53334  13.382   6.231   1.479  0.1043  0.0514 -0.2469
    1W        W53335  20.965   7.160   6.437 -0.1378  0.1643 -0.0933
    1W        W53336   8.943  18.551   1.581 -0.3924  0.0401 -0.4093
    1W        W53337  28.553  12.221   6.636 -0.1513  0.1406  0.3378
    1W        W53338  25.250   4.978   8.511 -0.2315 -0.5000 -0.0386
    1W        W53339   8.583   8.740   7.684  0.2102  0.0307  0.1717
    1W        W53340  22.401  24.680   9.419 -0.2253 -0.2230  0.1520
    1W        W53341   1.075  19.310   8.805  0.0575  0.2275  0.3576
    1W        W53342   0.730   6.887   2.864 -0.2664 -0.0578  0.0387
    1W        W53343  28.364  13.287   1.915  0.0964  0.2541  0.0625
    1W        W53344  17.754  21.324   8.561 -0.1083  0.0675  0.1678
    1W        W53345  18.329   6.544   9.254 -0.0489 -0.1134  0.3928
    1W        W53346  24.568  23.149   1.557  0.3076 -0.3399  0.3927
    1W        W53347  16.944  22.055   1.260  0.0369  0.1151 -0.0865
    1W        W53348  11.039   1.701   0.834 -0.0842 -0.5842 -0.0491
    1W        W53349   9.013  18.305   6.295  0.0468 -0.0042 -0.0530
    1W        W53350  13.416  21.035   3.367  0.0363  0.0488  0.3240
    1W        W53351   6.080  16.455   2.272  0.2339 -0.2220  0.3366
    1W        W53352  20.988  25.344   7.977  0.2315 -0.1459 -0.1827
    1W        W53353  20.845  23.825   8.110 -0.1462  0.4718 -0.1287
    1W        W53354  20.194   0.171   1.959 -0.1076  0.0430  0.0378
    1W        W53355  11.998  12.230   9.549 -0.1201  0.0513 -0.3222
    1W        W53356  18.675  12.756   7.498  0.0193 -0.1028  0.4023
    1W        W53357   3.211   2.731   8.474  0.2546  0.0441 -0.3814
    1W        W53358  21.065   1.443   9.243 -0.0244 -0.0330  0.0319
    1W        W53359  16.942  23.674   0.029  0.0801  0.0772  0.1009
    1W        W53360  13.343  14.703   2.783  0.1088 -0.0869  0.1902
    1W        W53361   8.652   0.809   7.083 -0.0585 -0.1688 -0.3320
    1W        W53362   3.738  12.482   8.918  0.0509 -0.0130  0.1168
    1W        W53363  14.110  28.398   9.444 -0.0454 -0.2349  0.0935
    1W        W53364  20.059  21.791   0.323  0.1421 -0.1622 -0.1353
    1W        W53365  19.562   9.730   1.754  0.3298 -0.1561  0.1137
    1W        W53366   7.364  22.426   0.219  0.2386  0.1566  0.0731
    1W        W53367  10.807  25.192   7.671  0.1273  0.0353  0.1151
    1W        W53368   2.781  25.441   2.908  0.1645 -0.3005 -0.0480
    1W        W53369  20.172  24.802   1.820  0.1312  0.0558 -0.1425
    1W        W53370  10.962  17.420   9.105 -0.2176 -0.4514  0.1492
    1W        W53371   4.723   1.536   0.370 -0.1171 -0.1124 -0.2038
    1W        W53372  28.635   1.974   9.683 -0.1251  0.0303  0.0253
    1W        W53373  10.708   1.490   0.112  0.0602 -0.3524  0.1458
    1W        W53374  15.391  12.233   8.861  0.1857  0.1111  0.1492
    1W        W53375  23.057  11.583   0.260  0.3684  0.0618  0.0744
    1W        W53376  20.305   9.823   1.598  0.0668  0.0107  0.1148
    1W        W53377   4.594  10.858   1.461 -0.0155 -0.1957  0.1050
    1W        W53378  12.405  23.748   8.230  0.0727  0.0421  0.1217
    1W        W53379  20.417   8.603   1.974 -0.1920  0.1896  0.1263
    1W        W53380  17.402  21.150   2.721  0.0237 -0.2293  0.0411
    1W        W53381  21.988  19.084   7.017 -0.2475 -0.2774  0.2135
    1W        W53382  25.335  17.583   1.851 -0.1180  0.1144  0.0281
    1W        W53383  15.309  11.258   0.955  0.1742 -0.1244  0.2332
    1W        W53384   2.312  15.391   2.712  0.0191  0.0642 -0.3779
    1W        W53385  10.512   4.884   3.289 -0.3666  0.0990  0.1207
    1W        W53386  26.606  13.073   0.771  0.3468  0.1753 -0.3851
    1W        W53387  19.052  11.447   6.083 -0.2911  0.0317  0.2192
    1W        W53388   9.960  12.200   6.154  0.3355 -0.1792  0.0438
    1W        W53389   5.104   8.908   0.006  0.1025 -0.2485  0.1343
    1W        W53390  27.884  16.384   9.797 -0.0694  0.0690 -0.2932
    1W        W53391  17.814  23.623   9.069 -0.2658 -0.2453 -0.3061
    1W        W53392  11.623  16.397   0.053  0.4315  0.0871  0.1270
    1W        W53393  12.099  21.600   6.516 -0.0176  0.0888  0.1218
    1W        W53394  28.233  12.078   2.288  0.0428  0.0392 -0.0960
    1W        W53395  21.099  14.506   9.989  0.0390 -0.0846 -0.1573
    1W        W53396  13.332  22.235   7.662  0.0100  0.2557 -0.1576
    1W        W53397  28.520  25.512   1.816 -0.0201 -0.1666  0.2429
    1W        W53398   3.048   0.535   8.986  0.1596  0.0443 -0.1286
    1W        W53399  26.546   6.136   2.989  0.0730  0.2490  0.0017
    1W        W53400  24.150   7.937   2.217  0.2245 -0.2126  0.2692
    1W        W53401   8.832   9.573   1.376  0.2701 -0.0357  0.0190
    1W        W53402  15.258   8.802   6.497  0.1067 -0.1327 -0.0556
    1W        W53403  27.972   6.537   8.615 -0.1091  0.1238 -0.0593
    1W        W53404  15.026   6.201   1.054  0.4169 -0.2132 -0.2046
    1W        W53405  16.930  28.834   7.055  0.3626  0.3585 -0.0340
    1W        W53406   7.179  27.287   7.671 -0.3698  0.1352 -0.0704
    1W        W53407  13.830   4.229   7.234  0.3895 -0.0783 -0.4000
    1W        W53408  12.285   7.410   0.506 -0.0484  0.2313 -0.3270
    1W        W53409   5.089  11.215   9.213  0.0281 -0.2151  0.0326
    1W        W53410  26.811  21.301   9.073  0.0774 -0.1035 -0.3562
    1W        W53411   5.657   6.916   1.829 -0.1200  0.0210 -0.2484
    1W        W53412   2.068  27.655   3.808  0.1146  0.1340 -0.0476
    1W        W53413  19.886  25.078   9.860 -0.1231  0.0764  0.0686
    1W        W53414   3.506   6.264   1.443  0.0679  0.0311 -0.1773
    1W        W53415   8.097   1.268   2.049  0.1196 -0.1279 -0.2135
    1W        W53416  25.145   0.583   9.617 -0.1186  0.1381 -0.0697
    1W        W53417   1.325  13.733   8.554 -0.3692  0.0206 -0.0496
    1W        W53418  13.374  10.096   9.524  0.1301  0.2967  0.0284
    1W        W53419   8.579   9.339   7.015 -0.1509  0.0192 -0.0253
    1W        W53420  16.769   4.575   7.902  0.0018 -0.2403 -0.2231
    1W        W53421   3.808  13.718   0.853 -0.1018 -0.0026 -0.4191
    1W        W53422   8.443  16.748   8.472  0.0737 -0.2056  0.0064
    1W        W53423  15.974  27.729   1.183 -0.1450 -0.0591 -0.2181
    1W        W53424  15.173  26.096   9.316 -0.0870  0.0596  0.0067
    1W        W53425  13.665  17.268   8.277 -0.0048 -0.2284  0.1470
    1W        W53426   6.263  11.368   0.741 -0.0524 -0.0598 -0.1647
    1W        W53427  13.410   2.557   0.657  0.0527 -0.0525 -0.0999
    1W        W53428   7.621  11.118   7.043 -0.1880  0.0261 -0.0016
    1W        W53429  27.938  22.543   8.293 -0.0733  0.1859 -0.2029
    1W        W53430   1.035  14.754   2.072 -0.0700 -0.0260 -0.1594
    1W        W53431   6.644   3.832   1.108  0.1552  0.2593 -0.0702
    1W        W53432   0.871  12.322   9.141 -0.2084 -0.3240 -0.2663
    1W        W53433   2.017  13.902   7.453  0.1237  0.1753 -0.0816
    1W        W53434  16.601   7.309   0.624  0.0014  0.1177  0.1418
    1W        W53435  24.544   1.515   7.031 -0.0562 -0.1796 -0.0042
    1W        W53436  24.981  25.226   9.805  0.2710 -0.4203 -0.2730
    1W        W53437  27.017   6.951   9.735  0.5240 -0.2185 -0.1765
    1W        W53438  23.550  21.052   1.324  0.0267 -0.0466 -0.0075
    1W        W53439  10.688  16.872   0.805 -0.0578 -0.2137  0.3585
    1W        W53440  22.592  24.923   8.281  0.0668  0.1039  0.1296
    1W        W53441  27.382  14.481   3.570  0.0503  0.0230 -0.0213
    1W        W53442   7.306   4.446   3.101  0.1978 -0.0650  0.2608
    1W        W53443  20.396  24.664   7.818  0.0269 -0.2085 -0.1450
    1W        W53444   0.053  15.652   1.786 -0.1405  0.1132  0.2543
    1W        W53445   9.324   0.016   2.848 -0.2443  0.1242  0.1321
    1W        W53446   3.984  26.639   2.639 -0.3892 -0.2181  0.0886
    1W        W53447   2.012   9.997   0.665 -0.0660  0.2111 -0.1862
    1W        W53448  25.060   4.961   3.380  0.2441  0.1098  0.2513
    1W        W53449  24.665  20.896   1.338  0.0640 -0.1508 -0.3368
    1W        W53450   9.401   1.715   8.111  0.0202 -0.0767  0.0555
    1W        W53451  12.539   3.573   0.675  0.2118 -0.1139  0.0345
    1W        W53452   1.130   3.957   3.462  0.0456  0.0065 -0.0789
    1W        W53453  17.686  10.696   6.038  0.0693 -0.0074  0.0735
    1W        W53454  16.966  10.522   7.142 -0.2449  0.1393  0.1492
    1W        W53455   1.165  18.176   0.499 -0.2502 -0.3663  0.1478
    1W        W53456  25.397  26.606   7.684  0.0971 -0.2897  0.0912
    1W        W53457  10.242  24.984   6.661  0.0147  0.2671 -0.1622
    1W        W53458  16.014  22.405   2.693 -0.0368 -0.0877 -0.2705
    1W        W53459  14.467  28.461   7.527  0.1208  0.1323 -0.0898
    1W        W53460  13.815  15.589   6.832  0.3031  0.1602 -0.2833
    1W        W53461   4.610  13.477   0.242  0.1020 -0.1046 -0.0003
    1W        W53462  13.548  18.794   8.721  0.4077  0.3513 -0.1679
    1W        W53463  17.174  22.054   6.170  0.1219  0.0565 -0.0528
    1W        W53464   0.845  10.969   9.656 -0.2105 -0.3298 -0.1661
    1W        W53465  22.245  22.871   1.395  0.0640  0.1922  0.3687
    1W        W53466  15.165  18.904   9.837  0.0118  0.0047 -0.2288
    1W        W53467  16.421   4.512   6.626  0.0792 -0.2655 -0.2323
    1W        W53468   4.581  11.555   9.651 -0.0034 -0.0091  0.1663
    1W        W53469  22.587  20.812   9.758  0.0426 -0.0978  0.1426
    1W        W53470  21.834  25.787   9.099 -0.4275  0.1636 -0.2219
    1W        W53471   6.918  13.712   7.707 -0.1211  0.0840  0.2494
    1W        W53472   6.497  20.315   7.942  0.0581 -0.1566 -0.0184
    1W        W53473  28.696  14.445   7.382  0.0260 -0.0812 -0.2665
    1W        W53474  13.696  11.589   6.858 -0.0020  0.1672 -0.0048
    1W        W53475  22.662  10.223   0.222 -0.0262  0.2182  0.0120
    1W        W53476  19.760  26.182   2.681  0.1290 -0.2163 -0.0721
    1W        W53477  11.467  12.435   9.230  0.1779 -0.0110  0.0505
    1W        W53478   7.464  22.456   3.837  0.1774 -0.1131 -0.0985
    1W        W53479   5.204  16.075   1.453 -0.1508 -0.2864  0.1496
    1W        W53480  17.767  23.125   9.096  0.2321 -0.0839 -0.1309
    1W        W53481   7.176  21.277   1.727 -0.0071  0.1038  0.0009
    1W        W53482  20.759  28.019   0.862 -0.1706 -0.3425  0.0914
    1W        W53483   8.993  13.410   8.765  0.1285 -0.2468 -0.0805
    1W        W53484  21.124  28.010   7.381  0.0806  0.2076 -0.1135
    1W        W53485   1.643  24.838   1.342  0.1974 -0.1262  0.4815
    1W        W53486  22.778  10.932   8.504  0.2228 -0.1708  0.0644
    1W        W53487  22.445  17.024   9.753 -0.0646  0.1290  0.0804
    1W        W53488  19.739   8.450   0.386  0.1214  0.1289  0.2925
    1W        W53489  15.040   2.557   1.807  0.0755 -0.0168 -0.0904
    1W        W53490  28.671   7.901   2.695 -0.1139 -0.0629  0.1823
    1W        W53491   7.711  19.789   0.620 -0.0130  0.0340 -0.1699
    1W        W53492   7.099  25.741   9.890 -0.0751 -0.2329  0.0726
    1W        W53493   4.442  19.854   1.636  0.0414  0.0091  0.1367
    1W        W53494  13.859  15.381   1.124  0.1600  0.0148 -0.1080
    1W        W53495  11.593  16.144   7.002  0.0861 -0.1253 -0.0280
    1W        W53496  24.679   8.701   1.719 -0.2763  0.0691 -0.0636
    1W        W53497  20.578  26.668   3.415  0.1543  0.3787  0.3062
    1W        W53498   4.225   3.514   0.579  0.0979 -0.1214 -0.0348
    1W        W53499  27.185   1.953   2.555  0.1534 -0.0970 -0.3218
    1W        W53500   6.244   6.067   1.368  0.1435  0.0873 -0.0368
    1W        W53501  14.190  20.100   0.500 -0.0502  0.1824 -0.2471
    1W        W53502  21.666  19.071   9.803 -0.3596 -0.1238  0.5405
    1W        W53503   2.862  10.720   9.858  0.0227  0.3635 -0.1584
    1W        W53504  15.110  18.134   2.684  0.2767 -0.1665 -0.3093
    1W        W53505  16.992   4.853   6.886 -0.2326  0.2910  0.0270
    1W        W53506   9.299  11.871   1.066  0.2822  0.0232  0.3943
    1W        W53507  10.912   7.759   6.214 -0.1185 -0.2994 -0.0131
    1W        W53508  10.545   7.202   8.496 -0.1896 -0.2030 -0.0363
    1W        W53509  22.325  10.515   9.453  0.3565 -0.5329 -0.2232
    1W        W53510   2.435   8.792   0.239 -0.2007  0.0707 -0.1428
    1W        W53511   3.079   4.156   1.916 -0.3652 -0.0654  0.0647
    1W        W53512  25.221  19.366   7.794  0.0435  0.1397 -0.0598
    1W        W53513  11.028   4.060   1.052  0.1959  0.0465  0.1585
    1W        W53514  25.940  18.020   2.314  0.1787 -0.1150  0.2265
    1W        W53515   8.876   8.357   0.782 -0.1256 -0.2152  0.1924
    1W        W53516  19.842  23.697   6.963  0.1819  0.0756 -0.1513
    1W        W53517  27.126  17.627   8.000 -0.0603 -0.2111 -0.0316
    1W        W53518  23.938  13.291   2.191 -0.0776 -0.0717  0.0388
    1W        W53519  22.713   7.885   0.652  0.0404 -0.1325 -0.2745
    1W        W53520   0.888  12.586   0.758 -0.0070 -0.3138  0.0236
    1W        W53521  19.591  28.404   2.200  0.2253 -0.1411  0.0086
    1W        W53522  26.202   7.086   3.693 -0.2426 -0.0280 -0.2125
    1W        W53523  21.560  18.021   7.568  0.1329  0.0184  0.0223
    1W        W53524  14.559  13.604   6.789 -0.0093 -0.0557  0.0430
    1W        W53525  18.699  19.279   2.169  0.2403  0.0948  0.0852
    1W        W53526   7.882  25.970   0.228  0.1126  0.1368  0.3212
    1W        W53527  10.282  18.214   9.891 -0.0679  0.0314  0.1261
    1W        W53528   0.605   6.713   8.820  0.3390 -0.0588 -0.1354
    1W        W53529  17.391  13.635   7.874 -0.1567 -0.0844  0.0992
    1W        W53530   6.406  19.010   2.890 -0.1016  0.0206 -0.4662
    1W        W53531  25.792  18.000   8.686  0.0741 -0.1472 -0.2405
    1W        W53532   8.643   3.041   8.442  0.0888  0.1897  0.1821
    1W        W53533  14.737  14.415   8.537 -0.1617  0.4854 -0.2289
    1W        W53534  26.482  12.920   0.264  0.2299  0.2511  0.4075
    1W        W53535   7.525  12.126   6.936  0.1425 -0.2750  0.2141
    1W        W53536   8.794   1.327   1.602 -0.2667  0.0310  0.2197
    1W        W53537   3.647  17.147   9.054  0.1508  0.0899 -0.0120
    1W        W53538  21.118  18.081   5.709  0.3010 -0.0151  0.0326
    1W        W53539  18.871   2.777   1.113  0.0183  0.1365  0.0434
    1W        W53540  27.835  11.080   8.125 -0.3581 -0.1625  0.2356
    1W        W53541   2.892   6.141   7.734  0.0391  0.2277  0.2239
    1W        W53542  20.274  22.867   9.835 -0.0471 -0.1510 -0.5167
    1W        W53543  21.726  16.376   0.443 -0.0344  0.1142  0.2367
    1W        W53544  20.523  21.605   0.072  0.1337  0.2471 -0.1934
    1W        W53545   9.575  13.566   8.322  0.0674 -0.1495  0.0249
    1W        W53546   8.341   2.187   1.121 -0.0294 -0.0991  0.0228
    1W        W53547  15.409  19.115   7.143 -0.0863  0.1242  0.0582
    1W        W53548  14.564   1.787   7.615 -0.0451  0.0351 -0.1957
    1W        W53549   4.955  19.779   0.227  0.2817  0.0434  0.1382
    1W        W53550  22.434   8.854   0.638 -0.0705 -0.1227  0.3036
    1W        W53551  10.399   9.330   7.054  0.0977 -0.1686  0.0963
    1W        W53552   3.412   4.004   0.780  0.2747 -0.0537  0.1003
    1W        W53553  21.995  21.423   8.562 -0.0725 -0.0857 -0.1177
    1W        W53554  19.327  24.685   3.239 -0.0913  0.3201  0.1612
    1W        W53555  13.103  27.195   0.920  0.0281 -0.1036  0.3029
    1W        W53556  13.666  17.679   7.886  0.3988 -0.3456 -0.1281
    1W        W53557  15.511  13.393   8.280 -0.3703  0.1003  0.2564
    1W        W53558   6.488  22.471   2.721  0.0188  0.0381 -0.0517
    1W        W53559  15.110   3.728   7.927  0.0267 -0.0630  0.2255
    1W        W53560  26.896  20.748   7.487 -0.1715  0.3049 -0.2524
    1W        W53561   6.517   0.893   8.669 -0.0121  0.2625 -0.1024
    1W        W53562  10.745  11.028   5.919  0.0097  0.0326  0.2946
    1W        W53563   6.464   9.792   8.845  0.0954 -0.3621 -0.1498
    1W        W53564  18.193  21.934   1.145  0.0075  0.1029  0.3140
    1W        W53565  18.800  14.009   9.501 -0.0636 -0.0819 -0.0933
    1W        W53566  12.701   2.326   9.663  0.2387  0.1981 -0.1695
    1W        W53567  12.029  17.726   3.373  0.0083 -0.4224 -0.1208
    1W        W53568  24.312  20.848   0.967  0.3066 -0.0363  0.1306
    1W        W53569  13.035   2.888   1.986  0.0008 -0.0674 -0.2571
    1W        W53570  24.381   8.679   8.222  0.1563 -0.0733  0.1701
    1W        W53571   8.790   5.051   6.829  0.1909 -0.0072  0.4388
    1W        W53572   8.097   5.970   0.729  0.0732  0.1783 -0.0151
    1W        W53573  18.119  19.930   7.048  0.0630  0.0239 -0.2302
    1W        W53574  24.450  27.839   0.062  0.0829  0.0973 -0.0124
    1W        W53575   8.080  19.863   9.711 -0.0490  0.2718 -0.2688
    1W        W53576  20.889  14.991   8.311  0.0253 -0.1197  0.4490
    1W        W53577   9.247  20.599   2.210  0.1139  0.0686  0.1441
    1W        W53578   9.531   6.366   2.238  0.5951  0.0424 -0.0991
    1W        W53579  22.639  13.135   0.555  0.0136 -0.1668  0.1181
    1W        W53580   8.886   3.035   1.530  0.0308 -0.3989  0.1914
    1W        W53581   9.655  13.299   6.735 -0.0162  0.0740  0.1739
    1W        W53582   5.737  21.119   0.174  0.0085  0.1259 -0.2133
    1W        W53583   6.610  27.047   7.437  0.2150  0.1504 -0.1888
    1W        W53584  28.060  13.922   0.393  0.0299 -0.2089  0.0805
    1W        W53585  27.025  13.489   7.803 -0.2893  0.1571 -0.1645
    1W        W53586   8.508   5.626   9.232 -0.2085 -0.4049 -0.2130
    1W        W53587   7.630  20.155   7.524 -0.0773  0.0184  0.5718
    1W        W53588  17.058  22.402   8.379  0.2343 -0.4100 -0.1971
    1W        W53589  13.429  15.579   1.580 -0.0594 -0.0809  0.4401
    1W        W53590  19.094  16.414   2.907  0.1642 -0.2140 -0.0213
    1W        W53591   8.769  28.820   1.183 -0.0364  0.0302  0.0554
    1W        W53592  13.949  18.000   9.395 -0.0697 -0.0738 -0.2830
    1W        W53593  15.000  10.283   6.770 -0.1811  0.3749  0.0005
    1W        W53594  13.613  15.132   6.898 -0.0385  0.1138  0.0705
    1W        W53595  10.454   7.626   1.520  0.0757  0.2422 -0.2638
    1W        W53596  16.118   2.437   9.612 -0.0929  0.1868  0.2521
    1W        W53597  23.221  11.099   0.120 -0.0287  0.2867  0.2418
    1W        W53598  26.202   9.876   8.474 -0.0845 -0.2038 -0.1998
    1W        W53599   4.093  16.177   7.639  0.2175  0.0050  0.2239
    1W        W53600  18.291  13.149   9.073  0.2015  0.1675  0.3297
    1W        W53601  23.352  22.066   7.735  0.3791 -0.2173 -0.0858
    1W        W53602  25.031  15.980   8.354  0.0059  0.2871 -0.2856
    1W        W53603  26.373  17.246   7.918 -0.1704  0.2314 -0.0368
    1W        W53604  27.987  18.106   1.475  0.0925 -0.2162 -0.0899
    1W        W53605   3.201  27.475   1.864 -0.1739 -0.1173 -0.2429
    1W        W53606  23.272  27.405   8.907  0.0671  0.0154  0.0887
    1W        W53607  26.101   8.030   8.700  0.0181  0.3134  0.2773
    1W        W53608  20.238  20.013   9.380 -0.1012 -0.2436 -0.2188
    1W        W53609  21.447   5.674   9.267 -0.0083  0.2626  0.1520
    1W        W53610   2.450  14.847   8.790 -0.2724 -0.0318  0.2424
    1W        W53611  12.015  27.399   9.306 -0.1816  0.1618  0.3429
    1W        W53612   1.651   2.451   9.804 -0.1604  0.0396  0.0975
    1W        W53613  18.342  10.427   1.000  0.1858  0.1384  0.1112
    1W        W53614  25.358  15.700   7.203 -0.2392 -0.2069 -0.0151
    1W        W53615  25.513  23.343   2.900 -0.2486 -0.2414 -0.1855
    1W        W53616   8.692   5.520   7.802 -0.1991 -0.3083  0.3770
    1W        W53617   2.461   0.306   9.608  0.2781 -0.0073 -0.0920
    1W        W53618  10.662   2.215   2.792  0.1105 -0.0861 -0.1775
    1W        W53619  12.674  25.052   8.722  0.0368  0.0987 -0.1059
    1W        W53620   2.620  10.958   0.812  0.4011  0.1117  0.1807
    1W        W53621  21.959  11.645   2.150 -0.1675  0.4145  0.3516
    1W        W53622   8.227   0.641   0.490 -0.2902 -0.0789  0.3520
    1W        W53623   5.349  27.125   0.495 -0.0332 -0.0755 -0.1388
    1W        W53624   4.343  15.163   1.456 -0.1206  0.1336  0.0649
    1W        W53625  12.980  15.455   9.969 -0.1274  0.0004  0.2114
    1W        W53626   5.074  12.442   9.152  0.0791 -0.1889  0.0349
    1W        W53627  16.426   3.559   6.742  0.1271 -0.0124 -0.2636
    1W        W53628  24.056  27.887   3.666 -0.0194  0.1362 -0.7599
    1W        W53629  24.818  20.699   8.850  0.0796 -0.1115  0.0079
    1W        W53630  16.300   9.250   0.931  0.2710 -0.1235  0.1418
    1W        W53631  18.752  23.164   2.598  0.5427 -0.0245  0.0584
    1W        W53632  11.640   2.424   9.847  0.0985  0.2401 -0.0778
    1W        W53633   0.710  13.053   0.880 -0.0252 -0.0976 -0.1120
    1W        W53634   5.670   4.552   9.163 -0.2557 -0.2078 -0.0787
    1W        W53635  14.918  21.224   0.372  0.2881  0.0008 -0.0050
    1W        W53636   4.897   8.394   2.191 -0.0085  0.1567  0.0663
    1W        W53637  20.904   6.523   8.582  0.3707  0.0599 -0.0916
    1W        W53638  10.417   5.854   7.369  0.1554 -0.2733  0.1376
    1W        W53639  17.120  21.506   7.998  0.3767  0.1808  0.1487
    1W        W53640   1.398  15.600   0.851  0.1298 -0.2142  0.4309
    1W        W53641   5.233   4.435   2.603 -0.0966 -0.1143  0.1382
    1W        W53642  20.461  23.996   7.117 -0.2258 -0.1296  0.1612
    1W        W53643  22.319   8.914   8.946 -0.0361 -0.1773  0.0697
    1W        W53644   8.465  27.982   8.522  0.1770 -0.2058 -0.0768
    1W        W53645   4.161  27.224   0.470 -0.2393 -0.1236 -0.1126
    1W        W53646  24.453  19.970   7.702 -0.1702 -0.1614  0.2645
    1W        W53647   2.871   8.514   1.173  0.0675  0.3390  0.2927
    1W        W53648  19.850   5.983   6.674 -0.1717  0.4702  0.1310
    1W        W53649   6.977  16.588   0.496 -0.0543  0.0620  0.1173
    1W        W53650   5.312  23.577   0.428  0.0154  0.0788  0.0723
    1W        W53651  27.458  26.375   1.109 -0.0626  0.2318 -0.1343
    1W        W53652  23.164  17.029   6.981  0.3082  0.1083  0.1451
    1W        W53653  17.851  28.651   1.994 -0.0188 -0.0762  0.2628
    1W        W53654   7.981  24.637   1.547 -0.0137 -0.1714  0.1156
    1W        W53655   3.881  27.378   0.078  0.4337  0.2646 -0.1260
    1W        W53656  10.694  15.637   8.470 -0.0575  0.1551  0.1437
    1W        W53657  17.593  20.030   7.300  0.0145 -0.0535  0.0406
    1W        W53658   5.446  23.689   1.273 -0.2040 -0.0407 -0.0906
    1W        W53659   0.400  16.346   1.326  0.0678  0.0622  0.3552
    1W        W53660   3.058  14.354   3.306  0.1601 -0.0462  0.2671
    1W        W53661  27.552  17.687   8.801 -0.3619 -0.2449  0.0122
    1W        W53662  10.888  22.976   2.426  0.0578  0.4647 -0.1390
    1W        W53663   2.538   6.994   2.837  0.1596 -0.3486  0.2233
    1W        W53664  27.197  24.592   8.820 -0.1291  0.0107 -0.1911
    1W        W53665  10.957  12.637   9.167  0.0842 -0.2463  0.1038
    1W        W53666  13.714   9.577   0.712 -0.2846 -0.0579 -0.0862
    1W        W53667  15.999   1.183   9.546 -0.0307  0.2141  0.0624
    1W        W53668  26.704  15.614   0.484  0.0705 -0.3519 -0.1656
    1W        W53669  27.074   9.812   2.421 -0.1763  0.3267 -0.0435
    1W        W53670  20.993  18.411   7.071 -0.1677 -0.3215  0.3429
    1W        W53671  18.148  13.077   1.555 -0.2443  0.0653 -0.1238
    1W        W53672   6.425  13.324   8.893  0.0314  0.0294 -0.1148
    1W        W53673  24.793   6.335   8.381  0.0698  0.2132  0.1590
    1W        W53674  16.238  19.269   0.799  0.3331 -0.0149 -0.1588
    1W        W53675  12.168  12.703   9.482  0.2052  0.0113  0.2181
    1W        W53676  10.326  11.209   0.606 -0.2141  0.0054  0.3274
    1W        W53677   9.330  20.915   9.068 -0.3635  0.2857 -0.1661
    1W        W53678  25.189   7.569   9.539  0.0794  0.4249 -0.2441
    1W        W53679   8.769   3.727   9.381 -0.2289  0.1123 -0.0014
    1W        W53680  26.818   2.343   7.894 -0.1770  0.1650 -0.1974
    1W        W53681   2.372   8.411   7.799 -0.0360  0.2427  0.0832
    1W        W53682   0.708  24.278   8.889  0.0833 -0.3502  0.0959
    1W        W53683  11.578  28.463   1.666  0.0378  0.0858  0.0965
    1W        W53684  24.528  27.491   9.678  0.4753 -0.3379 -0.0290
    1W        W53685  12.773   2.653   9.206  0.0312  0.2961  0.1917
    1W        W53686  13.827  25.255   6.456 -0.3551 -0.0132  0.0704
    1W        W53687   2.825  22.002   7.796 -0.2329  0.0755 -0.0808
    1W        W53688  15.040  28.814   9.740  0.2586 -0.1307 -0.2180
    1W        W53689   6.100  16.258   1.372  0.2923 -0.1030  0.0338
    1W        W53690  17.992   5.833   7.499  0.2918  0.1038  0.2243
    1W        W53691   4.925  12.496   9.755  0.0721  0.2725  0.0008
    1W        W53692  24.716   1.647   1.283  0.3259  0.2485 -0.0351
    1W        W53693   8.224  28.399   8.929 -0.1447 -0.0615  0.1837
    1W        W53694  26.433  20.197   3.056 -0.0201 -0.3861 -0.0963
    1W        W53695   3.418  26.178   8.561 -0.2659 -0.1033  0.1465
    1W        W53696   1.745  25.121   8.532 -0.3966  0.2880  0.2478
    1W        W53697  28.114   4.010   8.205  0.0546  0.1178  0.0442
    1W        W53698   8.931   4.096   3.294  0.0377 -0.0400 -0.0807
    1W        W53699  21.255  14.446   0.884  0.0998 -0.0896 -0.3885
    1W        W53700   5.892  19.327   6.858  0.0795  0.1523  0.0943
    1W        W53701  14.899   4.472   6.778 -0.3014 -0.1606  0.2382
    1W        W53702  25.256  16.076   9.707 -0.0308 -0.3863 -0.2543
    1W        W53703  10.251   4.359   0.569 -0.1232 -0.0509 -0.1439
    1W        W53704  20.789   6.617   8.108 -0.0601  0.1204 -0.0284
    1W        W53705  20.682  12.509   0.900  0.3340 -0.0025 -0.2543
    1W        W53706   2.460   0.004   7.923 -0.1068 -0.2065  0.0181
    1W        W53707  13.552  22.862   7.371 -0.2284  0.1082 -0.0450
    1W        W53708  25.296   0.364   0.943 -0.0919  0.2705 -0.2233
    1W        W53709  19.593   3.712   8.385 -0.2521  0.2991  0.1180
    1W        W53710  10.436   9.828   2.499  0.1259  0.5474  0.0231
    1W        W53711   9.012  21.553   0.092 -0.0247  0.0197 -0.0456
    1W        W53712  21.744  17.066   8.297  0.1380 -0.2474  0.0484
    1W        W53713  24.428   5.961   9.812  0.3274 -0.0217 -0.2110
    1W        W53714  25.885  21.653   3.194 -0.1658  0.4302 -0.1973
    1W        W53715  18.674  22.332   8.606 -0.0013  0.2469 -0.2111
    1W        W53716  14.174   3.486   0.961 -0.1088 -0.1772 -0.0098
    1W        W53717  18.068  23.052   2.114 -0.1388  0.2425 -0.0670
    1W        W53718   7.249   0.944   2.989 -0.1201 -0.2114  0.1311
    1W        W53719   3.213  25.223   3.004 -0.1425 -0.1028  0.3409
    1W        W53720  24.809  26.079   1.569 -0.1438  0.0696 -0.1445
    1W        W53721  20.884   7.439   7.283  0.0458 -0.1758  0.2095
    1W        W53722  16.545  11.130   1.491  0.4986 -0.1609 -0.1312
    1W        W53723   9.807  10.230   0.236  0.0235 -0.1051 -0.1670
    1W        W53724  15.128  12.214   1.899  0.0238 -0.0155  0.1826
    1W        W53725  16.239   3.347   1.868  0.0568 -0.1549  0.1772
    1W        W53726  25.235   3.923   9.998 -0.1628  0.0356 -0.0876
    1W        W53727   0.974  24.182   9.427 -0.1752  0.1155  0.0434
    1W        W53728  26.895  22.093   7.941  0.3025 -0.0617 -0.4410
    1W        W53729   9.451  26.482   1.209 -0.0006 -0.2062  0.2845
    1W        W53730  23.446  17.853   9.916 -0.2438  0.1938  0.0405
    1W        W53731   0.660  26.110   2.886  0.0216 -0.1567 -0.0073
    1W        W53732  23.029  13.077   0.149  0.1008  0.2036 -0.1810
    1W        W53733   7.982  13.680   0.367 -0.1746 -0.2751 -0.1745
    1W        W53734  27.465   3.904   1.121 -0.0124 -0.1710  0.1129
    1W        W53735   5.860  17.381   0.589 -0.1323 -0.1982 -0.1925
    1W        W53736  16.178  20.383   8.186 -0.3979  0.0260  0.2194
    1W        W53737  21.343  27.264   8.389  0.1685 -0.2258  0.0088
    1W        W53738  22.130   6.810   1.345 -0.0458 -0.0031  0.2222
    1W        W53739  15.389   6.847   1.883  0.1116  0.1406  0.1088
    1W        W53740   9.158   8.176   7.648  0.2535 -0.3699 -0.0573
    1W        W53741  28.206  26.845   3.060 -0.0284  0.1826 -0.1985
    1W        W53742  27.355   4.199   2.429  0.1618 -0.2228 -0.1306
    1W        W53743   0.196   6.860   9.546 -0.1750 -0.2807  0.3416
    1W        W53744   4.538   8.995   8.089  0.3835  0.0042 -0.1219
    1W        W53745  18.081  28.552   6.813 -0.2665 -0.1756 -0.0386
    1W        W53746  22.684   6.008   9.957 -0.3556 -0.2576  0.0496
    1W        W53747  25.659  19.433   1.688  0.4495  0.3771  0.4695
    1W        W53748  18.375  20.682   0.222  0.1739 -0.0107  0.5853
    1W        W53749  11.634  22.491   0.605 -0.0180  0.2168 -0.0349
    1W        W53750  15.342   5.671   8.412 -0.0648  0.2458  0.2595
    1W        W53751   6.006  25.331   0.791  0.2657 -0.0521 -0.0019
    1W        W53752  10.797  16.453   0.484  0.0295 -0.3712 -0.2445
    1W        W53753   6.050  14.504   8.210 -0.1174  0.0806 -0.0351
    1W        W53754  16.499   7.531   9.790  0.0783 -0.2745  0.1548
    1W        W53755  26.966   1.789   7.932  0.0152 -0.1113 -0.0275
    1W        W53756   4.924  19.693   1.527 -0.2960 -0.2212  0.3754
    1W        W53757  16.693   7.435   7.796 -0.0525  0.2438  0.1045
    1W        W53758   8.366  27.485   8.496  0.1340  0.1018  0.2206
    1W        W53759  23.570  26.436   1.671  0.1620  0.1124 -0.0157
    1W        W53760   5.546   3.737   2.486  0.2301  0.0153  0.0700
    1W        W53761   0.348   8.364   2.770  0.0529  0.1131  0.0967
    1W        W53762   3.431   2.573   2.998 -0.1474  0.1047  0.1957
    1W        W53763  26.177  10.041   2.959 -0.2147  0.1465 -0.1013
    1W        W53764  16.390   9.718   9.253  0.1996 -0.2356  0.1056
    1W        W53765   4.573   7.806   2.855 -0.0428  0.3713 -0.2389
    1W        W53766   3.868  16.736   8.824  0.1914  0.0331 -0.3649
    1W        W53767   7.848  27.699   0.795  0.1057 -0.1808 -0.1935
    1W        W53768   1.187   2.360   2.454  0.1146 -0.2462 -0.0294
    1W        W53769   1.467   3.597   3.592  0.2392  0.1728  0.2547
    1W        W53770  27.608  15.765   7.322 -0.2998  0.3864  0.2343
    1W        W53771  10.081  20.020   6.771 -0.0194 -0.2483  0.0882
    1W        W53772  23.620   8.029   2.200  0.2045 -0.0372 -0.0145
    1W        W53773  20.156   0.034   1.036  0.0627  0.5505  0.1467
    1W        W53774   6.401   8.570   7.726  0.0895  0.3247 -0.2273
    1W        W53775  13.710   7.273   5.453  0.1244  0.1471  0.3246
    1W        W53776   7.788   4.548   3.031  0.0707 -0.0273  0.0614
    1W        W53777  13.707   5.249   8.913  0.0929 -0.0944  0.0498
    1W        W53778  19.079  17.757   1.157 -0.2643 -0.1042 -0.0562
    1W        W53779   3.885   0.032   8.139 -0.0944 -0.1432 -0.1335
    1W        W53780  25.813  15.285   8.386 -0.0856  0.0467  0.2110
    1W        W53781  26.811   7.872   3.469 -0.0917  0.1961  0.2812
    1W        W53782   1.005  15.599   2.363  0.0416  0.2244 -0.0298
    1W        W53783  13.355   0.460   0.061 -0.4168 -0.0858  0.0966
    1W        W53784  20.522   6.157   0.137  0.0309 -0.0395 -0.2243
    1W        W53785   2.990  21.207   2.900 -0.0008 -0.2099  0.0118
    1W        W53786   1.678   2.865   1.053  0.0595 -0.3227 -0.0944
    1W        W53787  26.521  26.820   9.922 -0.1626  0.3782 -0.2997
    1W        W53788  14.494  15.319   1.892 -0.1180  0.0936 -0.0115
    1W        W53789  13.411  14.919   2.279 -0.2240  0.1657 -0.0560
    1W        W53790   6.636  15.601   1.153  0.3389  0.0368 -0.2128
    1W        W53791  24.487   3.812   2.720  0.0675 -0.3270  0.0386
    1W        W53792  11.213  19.104   0.962  0.0191 -0.1007  0.3455
    1W        W53793  23.420  15.018   7.276 -0.1477 -0.1508 -0.2280
    1W        W53794   6.444  21.758   9.096 -0.0333  0.1167  0.0142
    1W        W53795   7.853  21.861   2.254 -0.1038  0.1538 -0.0971
    1W        W53796   8.961  17.420   0.410 -0.0108  0.0574  0.1256
    1W        W53797  25.820  15.749   9.876  0.0587 -0.0249  0.0328
    1W        W53798  14.846  13.986   8.240 -0.0354  0.2384 -0.0307
    1W        W53799  10.060   7.949   0.173 -0.1653  0.3138 -0.2981
    1W        W53800  12.368   9.772   1.395 -0.0948  0.0810 -0.1485
    1W        W53801   3.014   4.470   0.961  0.1591 -0.1098  0.0604
    1W        W53802  14.080  13.227   1.233 -0.1903  0.2086 -0.0398
    1W        W53803  17.272  24.529   8.766  0.2202 -0.3001  0.0140
    1W        W53804   4.438   5.275   0.395 -0.1073 -0.0839  0.0905
    1W        W53805  25.695   1.591   9.764 -0.0596  0.1558  0.0110
    1W        W53806  14.595   5.658   9.034 -0.1520  0.2760 -0.0604
    1W        W53807  17.558  28.621   7.721 -0.1289  0.1219  0.0147
    1W        W53808   3.175   8.121   2.188  0.1612  0.0218 -0.0313
    1W        W53809  24.343  10.083   0.792  0.1348 -0.2750 -0.1617
    1W        W53810  27.435  16.855   0.626  0.1408  0.0116 -0.1784
    1W        W53811  17.268  17.722   1.812 -0.0654  0.0354  0.0318
    1W        W53812  28.134   2.301   3.381 -0.2465 -0.2123 -0.2691
    1W        W53813   6.326   9.781   0.345  0.0873 -0.2188  0.4458
    1W        W53814   3.024  11.749   1.905  0.2850  0.3331 -0.4357
    1W        W53815  17.659  19.457   1.088  0.1438  0.0765  0.1814
    1W        W53816  26.593  20.269   0.206  0.1671  0.1223 -0.0486
    1W        W53817   0.361   9.652   2.745 -0.2549 -0.2491 -0.1077
    1W        W53818  24.220  27.792   2.698  0.2115 -0.2023  0.0078
    1W        W53819  27.348  11.292   1.295 -0.0456 -0.2795  0.0899
    1W        W53820  16.366  19.705   9.367 -0.1006  0.2669 -0.1254
    1W        W53821  12.566   8.790   0.479 -0.3717  0.1499 -0.1670
    1W        W53822  20.955  17.856   0.463  0.0150  0.0278  0.2404
    1W        W53823  11.140   1.263   9.871  0.1012  0.2144  0.0954
    1W        W53824  25.635  17.333   2.650  0.1519  0.2286  0.0846
    1W        W53825  23.086   5.538   2.502  0.1164 -0.0909  0.0166
    1W        W53826   0.648   7.258   1.465 -0.3314 -0.2321 -0.2848
    1W        W53827  13.320  28.120   8.747 -0.0876 -0.0529  0.0133
    1W        W53828  27.868   9.406   8.576  0.0425 -0.2253  0.3333
    1W        W53829   8.995   0.754   0.320 -0.1066  0.1667 -0.1068
    1W        W53830  16.353  19.393   7.864 -0.1099 -0.0018 -0.3781
    1W        W53831   4.862   3.077   4.319 -0.1184 -0.2302 -0.0701
    1W        W53832  14.028   7.893   9.566  0.0421  0.0940 -0.0086
    1W        W53833   4.775   6.975   2.310  0.5401 -0.0396 -0.0412
    1W        W53834  11.736  24.252   2.805  0.3718 -0.0106  0.0461
    1W        W53835  26.101   9.316   9.750 -0.1596  0.2310  0.2506
    1W        W53836  17.973   2.510   1.535  0.4283 -0.1263  0.0243
    1W        W53837  12.900  13.887   6.911 -0.1084 -0.1292  0.0809
    1W        W53838  23.308  25.684   0.622 -0.3783 -0.1011  0.0031
    1W        W53839  17.514  19.883   1.287 -0.2954  0.0159  0.0034
    1W        W53840   2.195   1.482   2.139 -0.0826  0.0176 -0.1744
    1W        W53841  27.976   8.070   0.017  0.2114  0.0293  0.2247
    1W        W53842   6.664   6.894   0.991 -0.1529 -0.1865  0.4205
    1W        W53843  16.353   4.321   1.754 -0.0445  0.0341  0.4238
    1W        W53844  18.015   5.313   0.869 -0.0340 -0.1389  0.1703
    1W        W53845   7.017  19.571   1.012  0.4208 -0.1661  0.2648
    1W        W53846  10.582  27.632   6.558 -0.0153  0.0084  0.1879
    1W        W53847  16.715   9.474   0.523  0.2147 -0.1833  0.0158
    1W        W53848   4.879   5.602   1.949 -0.1370 -0.1933  0.1506
    1W        W53849  12.935  17.055   1.678 -0.0475  0.0901  0.1546
    1W        W53850  27.930  26.816   2.575  0.3625  0.2487 -0.0941
    1W        W53851  13.743  20.844   0.044 -0.0778 -0.2518  0.1527
    1W        W53852  22.676  22.624   1.269 -0.1806 -0.0129 -0.4038
    1W        W53853  22.143   9.872   0.209 -0.0036 -0.1483 -0.1330
    1W        W53854  14.362  17.320   7.764  0.1314 -0.0836  0.0951
    1W        W53855  27.178   8.345   9.243 -0.1442 -0.1124  0.0030
    1W        W53856  14.716  13.675   7.674 -0.0102 -0.0084  0.0959
    1W        W53857  15.344   1.998   6.815  0.0034 -0.3297 -0.0934
    1W        W53858  21.346  15.810   8.691 -0.2512 -0.1078 -0.2363
    1W        W53859   4.160  26.749   7.609  0.3429  0.0308  0.0967
    1W        W53860  17.427  25.473   7.103 -0.2105 -0.0195  0.2082
    1W        W53861  19.969  17.271   9.915 -0.0501  0.0180 -0.0689
    1W        W53862  27.510   5.183   0.791 -0.0921  0.0345 -0.0282
    1W        W53863  10.908   9.303   0.114  0.0985  0.0225  0.0980
    1W        W53864  26.735   6.902   3.023  0.0096  0.0092  0.0365
    1W        W53865  15.432  12.948   6.424 -0.0266  0.0861  0.2207
    1W        W53866   9.438   9.518   0.767  0.0314  0.0384  0.0320
    1W        W53867  18.997   0.905   0.315 -0.3011 -0.0134 -0.3213
    1W        W53868  17.262  24.612   8.228 -0.1756 -0.0415 -0.1025
    1W        W53869  10.677  26.352   7.966 -0.4288 -0.2229 -0.1460
    1W        W53870  14.917   4.171   7.892 -0.1569  0.1368 -0.2634
    1W        W53871  17.622  19.380   0.059  0.1767  0.3843  0.1543
    1W        W53872  12.949  11.303   9.830  0.0465  0.1414  0.1975
    1W        W53873   5.071  10.707   1.428  0.0690  0.1313  0.0482
    1W        W53874   8.883  13.418   6.580 -0.0645 -0.0411 -0.1694
    1W        W53875  27.818   6.246   0.947 -0.3079  0.0388  0.3040
    1W        W53876  22.226  20.786   1.888 -0.2439  0.0124 -0.0460
    1W        W53877   5.168  14.183   1.709 -0.1837 -0.3795  0.0570
    1W        W53878  24.927  18.967   1.005 -0.1099 -0.0924 -0.2804
    1W        W53879  21.411  24.373   2.177 -0.0375  0.0574  0.3470
    1W        W53880   3.557  15.989   1.116  0.0258  0.4376  0.0640
    1W        W53881   2.660   2.443   0.915 -0.0739  0.1442  0.0506
    1W        W53882  23.039  27.597   2.314 -0.3503  0.3223 -0.0245
    1W        W53883   7.121   1.545   1.918  0.0129 -0.1549 -0.0889
    1W        W53884  21.092   2.340   1.061  0.0344 -0.1249 -0.1105
    1W        W53885   0.309   3.063   3.010 -0.2050  0.0249 -0.0283
    1W        W53886  24.009  16.923   8.310  0.2738 -0.0888 -0.0174
    1W        W53887   1.145  13.112   1.862  0.2284 -0.3424  0.1317
    1W        W53888  11.310   4.969   7.543  0.0230 -0.1543 -0.0072
    1W        W53889  15.130  21.200   6.977  0.2851 -0.0926  0.1987
    1W        W53890  12.673  26.531   7.681 -0.1880 -0.1244 -0.0727
    1W        W53891   2.915  18.133   9.852 -0.0618  0.0068  0.2153
    1W        W53892  22.621  26.234   2.592 -0.3496  0.1706 -0.1188
    1W        W53893   8.419   2.407   8.404  0.1136 -0.0726  0.0760
    1W        W53894   3.422   9.629   8.905 -0.2790  0.0738  0.0310
    1W        W53895  16.189   0.799   8.291  0.1105 -0.2452 -0.2672
    1W        W53896  20.285  19.878   2.412  0.1330 -0.1135 -0.1025
    1W        W53897   3.467  27.965   7.439 -0.3647 -0.3019 -0.1419
    1W        W53898   6.361  26.257   1.981  0.0582  0.3495 -0.0208
    1W        W53899   0.652  13.643   8.246 -0.2485  0.0504 -0.3527
    1W        W53900   6.186  11.184   9.802 -0.2681  0.1470 -0.1929
    1W        W53901  22.935  25.760   3.647 -0.0510 -0.0186  0.0189
    1W        W53902  21.910  24.569   7.842  0.3935 -0.1488 -0.1697
    1W        W53903   3.930   8.207   1.242 -0.0367 -0.2475  0.2893
    1W        W53904  14.538  25.846   2.515 -0.1029  0.1345  0.0789
    1W        W53905  20.615  15.514   0.480 -0.2892  0.1942 -0.0729
    1W        W53906  16.013  26.385   8.789  0.2786  0.0321 -0.1031
    1W        W53907  10.000  21.092   7.486 -0.3379 -0.1316 -0.0846
    1W        W53908  17.039  10.041   0.632  0.1288  0.0711 -0.1106
    1W        W53909   1.456  18.166   3.853  0.1177  0.3362 -0.1112
    1W        W53910  21.817  19.803   1.324 -0.0525  0.1567 -0.1869
    1W        W53911  15.387  27.826   2.779  0.0356  0.1244  0.1172
    1W        W53912   9.900   0.066   7.672 -0.0270  0.0146 -0.0773
    1W        W53913   6.944   7.996   8.938 -0.2408  0.0945 -0.0941
    1W        W53914   8.099  26.524   8.383  0.1020  0.2248  0.2885
    1W        W53915   5.260   8.588   2.747  0.0007 -0.0386  0.1943
    1W        W53916  20.087   3.379   7.738  0.0070  0.0621  0.0613
    1W        W53917   3.562  20.533   1.058 -0.0117 -0.0104 -0.2140
    1W        W53918  14.204  25.444   2.291  0.1045  0.0639  0.1560
    1W        W53919   5.174   2.390   3.674  0.3566 -0.3078 -0.2735
    1W        W53920  19.085  12.556   7.221  0.0085 -0.1114  0.4291
    1W        W53921  26.018   8.405   1.116  0.0057 -0.1948 -0.1017
    1W        W53922  26.095   5.773   8.020  0.2193  0.5094 -0.1719
    1W        W53923  19.980  18.478   7.257 -0.3423  0.0431  0.2877
    1W        W53924   5.102  13.725   0.472  0.0703 -0.0136  0.0339
    1W        W53925  21.612  23.410   9.648 -0.2040 -0.1391  0.0205
    1W        W53926  24.311   1.403   8.685  0.0407  0.1471 -0.0657
    1W        W53927  12.354  10.629   8.373 -0.0222 -0.2706 -0.1066
    1W        W53928  20.542  11.634   8.885 -0.3273 -0.0679 -0.1060
    1W        W53929  24.111  18.036   2.213  0.0681  0.0996  0.1058
    1W        W53930  26.207   3.037   1.871 -0.0094  0.1068  0.1329
    1W        W53931  12.520   6.625   8.307  0.1619  0.0489  0.2120
    1W        W53932  28.355  26.843   8.527  0.1716 -0.0382 -0.0119
    1W        W53933  11.573  12.777   7.875 -0.1012 -0.2781  0.2047
    1W        W53934   2.425   0.272   0.757  0.0788 -0.3775  0.1190
    1W        W53935  11.262  25.523   8.604 -0.0392 -0.1381  0.1465
    1W        W53936  17.282  16.203   9.285 -0.1940 -0.0706  0.0847
    1W        W53937   1.941   8.640   8.007  0.0320  0.0238  0.0482
    1W        W53938  18.374   2.354   6.986 -0.0379  0.0421  0.3818
    1W        W53939  14.230  23.620   1.484 -0.2269  0.3340 -0.0022
    1W        W53940  14.642   7.234   8.929  0.1214  0.0892  0.1204
    1W        W53941   4.540  28.707   3.703  0.0901 -0.1254  0.0508
    1W        W53942  15.371   5.253   7.762  0.0189  0.0285 -0.1462
    1W        W53943  27.576  26.607   0.678  0.0682 -0.1186 -0.2008
    1W        W53944  11.185  26.439   8.049  0.0562 -0.1261  0.1383
    1W        W53945   0.918   0.412   3.626 -0.0633 -0.1480  0.2887
    1W        W53946  16.457   8.910   1.241  0.2024  0.2993 -0.0635
    1W        W53947   4.723  19.998   1.163 -0.1249 -0.0873 -0.1167
    1W        W53948  16.552   8.737   0.782  0.0661  0.0417  0.1023
    1W        W53949  15.010   3.718   1.869 -0.3900  0.0446  0.0852
    1W        W53950  27.993   7.021   3.163 -0.1540  0.2589 -0.0801
    1W        W53951  17.433   4.615   9.674 -0.0351  0.0649  0.2126
    1W        W53952  15.544  21.506   7.787  0.0075  0.0781  0.1783
    1W        W53953  26.493  12.013   7.261 -0.0831  0.2593 -0.0572
    1W        W53954   6.646  10.143   0.595  0.0968 -0.1792 -0.2410
    1W        W53955  27.931   2.942   2.739  0.0116  0.1640  0.1765
    1W        W53956  19.731  21.195   7.239  0.1820 -0.0143  0.1331
    1W        W53957  27.698   8.866   8.498  0.0832  0.1036 -0.1472
    1W        W53958  19.949   6.038   0.201  0.0344 -0.0851  0.0343
    1W        W53959  24.619  15.764   8.087  0.0032  0.1525 -0.0811
    1W        W53960   0.944  14.298   0.815 -0.3683  0.2335  0.0427
    1W        W53961  15.384  14.244   1.254  0.2644 -0.1622 -0.0098
    1W        W53962   6.513   5.478   2.434 -0.3411  0.0115 -0.2945
    1W        W53963  11.793  25.818   2.850 -0.2888  0.0712  0.2477
    1W        W53964  10.759  27.209   1.517 -0.3880 -0.1795 -0.4621
    1W        W53965   9.545  19.662   2.033  0.3661  0.2781  0.1262
    1W        W53966   8.297   0.077   2.406  0.1342 -0.2665  0.1455
    1W        W53967  26.664  22.210   2.263 -0.0902  0.0628 -0.2839
    1W        W53968  18.532  17.772   5.803  0.1354 -0.0617 -0.0058
    1W        W53969   2.799  13.577   0.774 -0.3498 -0.1149  0.2619
    1W        W53970   2.381   7.914   9.948  0.0098  0.1971  0.0109
    1W        W53971  28.001  19.115   8.604 -0.1489  0.3050 -0.0018
    1W        W53972  28.265  13.813   2.165 -0.1876 -0.3713 -0.1153
    1W        W53973  17.973  23.518   0.490  0.3180  0.0536  0.2066
    1W        W53974  28.488  22.910   0.882 -0.0888  0.1218 -0.0641
    1W        W53975  22.438  22.887   0.898 -0.0729 -0.0278  0.1523
    1W        W53976  17.176  24.958   7.161 -0.4452  0.1702 -0.0347
    1W        W53977  10.892   9.263   8.606 -0.2741 -0.1825 -0.1331
    1W        W53978  16.302   4.912   7.036 -0.2010 -0.7185  0.0633
    1W        W53979  22.951  13.966   1.978 -0.0688  0.2337  0.0396
    1W        W53980   0.058  22.536   8.309 -0.0269  0.2591  0.2175
    1W        W53981  14.198   6.806   8.157  0.0619 -0.2739 -0.0141
    1W        W53982  22.905  19.086   6.379  0.1071  0.3631  0.2261
    1W        W53983   4.381   0.982   7.742 -0.0605  0.3667 -0.0516
    1W        W53984  12.221  14.653   1.278  0.2116  0.0079  0.1831
    1W        W53985  16.525   0.509   9.887  0.0796 -0.0013  0.1367
    1W        W53986   5.564  18.609   8.758  0.1380 -0.3642  0.0923
    1W        W53987  13.597  11.390   8.494  0.0680 -0.0416 -0.0515
    1W        W53988  19.038  19.137   2.577 -0.2720 -0.3772 -0.0452
    1W        W53989   1.635  19.138   8.714 -0.1669 -0.0381  0.2586
    1W        W53990   5.908  10.149   1.970  0.3222  0.0954 -0.2515
    1W        W53991  22.995  22.931   8.201  0.2798  0.3548 -0.0867
    1W        W53992   0.251  27.332   1.007 -0.0998 -0.0389  0.2726
    1W        W53993   5.182   1.368   2.259 -0.3863 -0.1830 -0.3141
    1W        W53994  28.790  17.941   8.347 -0.4546 -0.0025 -0.1638
    1W        W53995  28.318  21.234   8.107 -0.1449 -0.1647 -0.1822
    1W        W53996  25.728  17.201   0.129 -0.2085 -0.1588 -0.1123
    1W        W53997   4.012   4.281   3.973  0.0573  0.3037 -0.1298
    1W        W53998  23.594   7.942   0.132 -0.0465  0.1077  0.1566
    1W        W53999  26.775   6.923   9.177 -0.0374  0.4653 -0.2414
    1W        W54000  21.309  14.306   2.101 -0.0197  0.0205 -0.1248
    1W        W54001   3.902   8.293   8.218  0.0350  0.0990 -0.1202
    1W        W54002   7.601  17.599   9.829  0.3096 -0.0348 -0.0868
    1W        W54003  10.209  25.971   9.349 -0.0315  0.2400  0.2518
    1W        W54004  15.986  28.788   1.953  0.2279  0.1014  0.0610
    1W        W54005   2.496   2.393   2.878  0.1318 -0.0125  0.2715
    1W        W54006  14.565   6.456   9.760  0.0147 -0.0780 -0.1086
    1W        W54007   1.193   1.078   0.313  0.0495  0.0461  0.2912
    1W        W54008  21.821   3.108   8.540 -0.2759 -0.0611 -0.0907
    1W        W54009  24.006  28.368   0.451  0.3682 -0.2656 -0.1433
    1W        W54010  21.583  25.634   9.583  0.0133 -0.0287 -0.4001
    1W        W54011  10.956  16.958   7.987  0.1981  0.0188  0.1576
    1W        W54012   5.218  16.581   7.418 -0.1211  0.1796 -0.1124
    1W        W54013  10.199  15.732   7.074 -0.0886 -0.1487 -0.0801
    1W        W54014   3.788   7.590   3.191 -0.1667  0.0514  0.0646
    1W        W54015  18.535  15.406   9.504  0.2904  0.3716  0.1673
    1W        W54016  23.046  20.317   0.921 -0.4500  0.1819  0.1887
    1W        W54017   3.608   1.560   9.538 -0.0772  0.0321  0.0546
    1W        W54018  25.120  21.180   1.435  0.1509 -0.1565 -0.2659
    1W        W54019   1.867  19.471   3.619  0.4292  0.0680  0.2440
    1W        W54020  17.687  17.730   2.561 -0.3942 -0.1895  0.1161
    1W        W54021  25.704   9.790   8.603  0.0283  0.1790  0.3407
    1W        W54022   5.767   5.357   1.998  0.1787  0.1212  0.0573
    1W        W54023  23.008   2.736   0.019 -0.2220  0.1017 -0.2166
    1W        W54024  12.446  13.148   9.283  0.2680  0.1207  0.2104
    1W        W54025  18.788  23.895   8.554  0.0848  0.1761  0.3132
    1W        W54026  25.508   3.306   8.855 -0.3590 -0.0798 -0.0639
    1W        W54027  20.936   1.787   1.115  0.3175 -0.0307 -0.1609
    1W        W54028  18.662  28.041   1.644  0.0541  0.1175  0.2694
    1W        W54029  24.459   9.754   9.476 -0.2499  0.0832  0.0768
    1W        W54030  15.107  20.482   0.721  0.2922  0.0238  0.2678
    1W        W54031  25.358  11.496   7.121  0.0726 -0.1577  0.0282
    1W        W54032  28.746  19.102   0.837  0.1461  0.4053 -0.0390
    1W        W54033   6.937   5.841   6.929  0.2691 -0.1325 -0.1946
    1W        W54034   7.185   1.857   3.356  0.3298  0.1967  0.1467
    1W        W54035  18.457  24.019   1.154 -0.0867 -0.1031 -0.0057
    1W        W54036   3.584   4.704   8.183  0.0228  0.0636  0.0452
    1W        W54037  23.718  20.501   8.060 -0.2368  0.1090  0.3128
    1W        W54038  11.255   3.196   1.452 -0.4834  0.0218 -0.1208
    1W        W54039   9.051  10.189   6.019  0.1253  0.1259 -0.1693
    1W        W54040  13.587   6.349   6.742 -0.1954  0.0385  0.1160
    1W        W54041  24.371  13.154   0.804  0.4273  0.3201 -0.0841
    1W        W54042  25.982  27.265   9.776  0.1095  0.5341 -0.0600
    1W        W54043   9.023   6.354   2.417  0.0401 -0.1284  0.3705
    1W        W54044   3.272   8.537   8.792 -0.0835  0.0223 -0.0409
    1W        W54045  25.666  25.261   9.474  0.0739 -0.1742  0.0951
    1W        W54046   2.714   9.207   9.445 -0.0993  0.2540 -0.2848
    1W        W54047   9.848  16.257   9.478 -0.3566  0.0526  0.5053
    1W        W54048   5.176   6.166   1.145 -0.1918 -0.1992 -0.2157
    1W        W54049  14.570   9.328   7.514  0.3026  0.2579  0.1007
    1W        W54050  22.034  21.165   7.877  0.0015  0.1512  0.2237
    1W        W54051  19.647  16.401   9.838  0.1295 -0.3220  0.0220
    1W        W54052  15.795   3.406   9.891  0.1128 -0.0796 -0.0348
    1W        W54053   4.680   4.788   0.472  0.2278 -0.3340 -0.1312
    1W        W54054  28.403  15.110   2.262 -0.0065  0.1701  0.2143
    1W        W54055  10.831   5.480   0.922 -0.1480 -0.2858 -0.0393
    1W        W54056  21.437  24.537   8.015 -0.1345  0.1769 -0.3401
    1W        W54057  11.310   6.447   7.539  0.0045 -0.0610 -0.1886
    1W        W54058  11.097   3.889   2.349  0.0953 -0.1830  0.0548
    1W        W54059  13.956   9.319   6.694 -0.1084 -0.1498 -0.0426
    1W        W54060  19.966  22.532   1.591 -0.1399 -0.3576  0.1324
    1W        W54061   5.142  20.563   3.491  0.0073 -0.3951  0.1701
    1W        W54062  16.738  24.259   1.196  0.2763  0.5848 -0.1187
    1W        W54063   2.101  25.610   9.791 -0.0363 -0.0452  0.4980
    1W        W54064   6.707  13.805   8.635 -0.0177  0.0566 -0.1270
    1W        W54065  26.269  11.821   0.178  0.1142  0.0669 -0.0836
    1W        W54066  14.753  16.824   2.231 -0.0856 -0.1207  0.0124
    1W        W54067   1.544  20.129   1.131 -0.1680 -0.0015  0.1950
    1W        W54068   0.606  10.609   8.509  0.0082  0.1752  0.0151
    1W        W54069   7.943  17.075   9.670  0.0630 -0.1776 -0.0489
    1W        W54070  10.342  16.613   0.398  0.1135  0.0182 -0.2488
    1W        W54071  18.062  25.235   0.954 -0.0141 -0.0228  0.1750
    1W        W54072  26.680  25.501   3.335  0.2670 -0.0999  0.0219
    1W        W54073  22.831  13.768   0.597 -0.1442  0.0756  0.1685
    1W        W54074  26.586  18.493   0.232 -0.1902 -0.3298  0.0284
    1W        W54075   1.744   8.744   2.728 -0.0027  0.1093  0.0782
    1W        W54076  17.742   6.643   6.020 -0.1014  0.0608  0.2696
    1W        W54077  22.767  15.797   3.344 -0.2656  0.0544  0.4506
    1W        W54078   4.169   7.727   2.541  0.0807  0.1907 -0.1613
    1W        W54079   7.248   1.936   2.259 -0.0554  0.1116  0.1673
    1W        W54080  26.946  11.811   2.247  0.0836 -0.0976  0.0875
    1W        W54081  12.954  16.165   7.004 -0.4760  0.0026 -0.1264
    1W        W54082  21.889   3.896   8.724 -0.1695  0.2434 -0.0870
    1W        W54083  20.803  25.381   9.094 -0.1823  0.3707 -0.3365
    1W        W54084  20.746  20.752   7.588 -0.0965  0.2079  0.0796
    1W        W54085   3.846  26.109   8.252  0.2780  0.0980 -0.0056
    1W        W54086  18.069   1.007   6.952  0.2849 -0.0085 -0.0997
    1W        W54087  14.457   9.390   6.686  0.2569 -0.0584 -0.3543
    1W        W54088  10.536   3.667   8.858  0.0890  0.1335  0.3629
    1W        W54089  12.612  28.482   1.588  0.0988  0.0338  0.0698
    1W        W54090   7.123  19.122   6.747 -0.2930 -0.1236 -0.1474
    1W        W54091   6.430  12.379   2.703  0.1507 -0.3760 -0.2578
    1W        W54092   2.234  14.022   9.551 -0.0125  0.0595 -0.2769
    1W        W54093  10.884  15.988   9.809  0.1812  0.0397 -0.0862
    1W        W54094  18.659  16.652   8.874 -0.0488  0.2008 -0.0027
    1W        W54095  20.498   0.926   8.063  0.1267  0.1474 -0.2185
    1W        W54096  11.550  18.195   8.655  0.1840 -0.0841 -0.2405
    1W        W54097   1.892   6.813   0.222  0.0624  0.1332 -0.4216
    1W        W54098  21.028  28.528   2.346  0.1699 -0.0524  0.0755
    1W        W54099  13.756  20.196   7.073 -0.1962  0.1492  0.0796
    1W        W54100  25.724   4.092   0.142 -0.0192  0.4858 -0.2330
    1W        W54101  18.284   1.365   7.228  0.1670 -0.0555  0.1540
    1W        W54102  26.012  20.640   1.063 -0.1277 -0.2985  0.4333
    1W        W54103   3.761   9.864   7.273  0.0513  0.2414 -0.1288
    1W        W54104  27.586  20.968   9.583 -0.0429 -0.0246 -0.1365
    1W        W54105   1.305  16.419   0.281 -0.2795  0.0079  0.1755
    1W        W54106  10.918  15.396   0.694  0.1840  0.0501 -0.0633
    1W        W54107  28.075   8.150   3.871 -0.0354 -0.1009  0.0936
    1W        W54108   0.884  16.584   7.910 -0.0346 -0.0906 -0.0142
    1W        W54109  12.063   8.892   8.728  0.1546 -0.1428 -0.1334
    1W        W54110  19.429  17.657   7.331  0.1119  0.1706 -0.2415
    1W        W54111  12.928   8.058   0.714  0.2319  0.2193  0.0294
    1W        W54112   6.780  19.039   1.088  0.1211 -0.2001 -0.2154
    1W        W54113  19.000  17.573   9.957 -0.0899 -0.1735 -0.3621
    1W        W54114   6.154  12.962   9.385 -0.0802  0.0707  0.0024
    1W        W54115  18.885   9.550   9.103 -0.1536 -0.1615  0.1154
    1W        W54116   2.420  19.032   0.240 -0.0893 -0.1412  0.0243
    1W        W54117  10.587   7.598   7.238 -0.3829 -0.0045  0.0362
    1W        W54118  27.757   9.772   1.952 -0.0772  0.0253 -0.0293
    1W        W54119  26.052  11.789   7.496  0.1089  0.1439  0.1163
    1W        W54120  18.626   5.768   1.067  0.0954 -0.0416 -0.2095
    1W        W54121  24.613   4.792   1.739 -0.2395 -0.0296 -0.1710
    1W        W54122   5.781  21.274   1.430 -0.3858 -0.1335  0.0541
    1W        W54123  20.402  20.349   7.590 -0.1849 -0.0902 -0.2534
    1W        W54124  21.625  28.456   9.139 -0.2627  0.1803  0.3520
    1W        W54125  27.549   9.686   2.374  0.2352  0.0515  0.2286
    1W        W54126  19.453  10.232   1.876 -0.0275 -0.0836  0.3204
    1W        W54127   2.945   3.087   2.285  0.0885  0.3578  0.1328
    1W        W54128   7.143  17.399   7.933 -0.0087 -0.0907  0.0987
    1W        W54129   4.795   8.582   9.794 -0.0479 -0.3845  0.1420
    1W        W54130  10.398  19.068   9.852  0.1640 -0.2909 -0.0875
    1W        W54131  26.724  27.985   8.429 -0.0751 -0.1564 -0.0021
    1W        W54132  15.490   0.398   8.912  0.1275 -0.0937 -0.0599
    1W        W54133  17.640  16.500   2.380 -0.0695  0.1231  0.1216
    1W        W54134  26.857  24.972   9.432 -0.2638  0.1649  0.1308
    1W        W54135   8.107  13.188   0.482  0.0092 -0.0846 -0.0514
    1W        W54136  11.454   6.124   6.253 -0.1926 -0.1836 -0.4332
    1W        W54137  26.749   5.820   9.189 -0.0374 -0.0505 -0.1152
    1W        W54138  17.697   1.247   7.745  0.1518  0.2129  0.1403
    1W        W54139  11.133  19.487   0.603  0.0461 -0.1749  0.0767
    1W        W54140   6.696  28.347   9.330  0.3460  0.0863  0.1110
    1W        W54141  16.979  27.098   8.451 -0.1503  0.2868 -0.1016
    1W        W54142  14.664  26.974   1.588  0.1385  0.0089  0.1054
    1W        W54143   4.599  13.234   1.119 -0.0791  0.1882  0.0392
    1W        W54144  25.568  13.394   2.453  0.1256  0.0888 -0.0614
    1W        W54145  22.182   7.261   9.847  0.1201  0.1342 -0.0357
    1W        W54146   1.682  17.311   9.990 -0.3596 -0.0308 -0.0537
    1W        W54147  15.588   4.030   8.203  0.0546  0.0267 -0.1483
    1W        W54148  28.869  14.325   1.901 -0.0341 -0.1185 -0.1514
    1W        W54149  23.297  24.040   3.129  0.1047 -0.0122 -0.1505
    1W        W54150  20.334  28.560   0.674 -0.2733 -0.1257  0.0410
    1W        W54151   3.364   7.133   8.050  0.3124 -0.1426 -0.0325
    1W        W54152  26.032  20.921   2.521 -0.0951  0.1144  0.0064
    1W        W54153   7.111  24.195   3.234 -0.2787 -0.1603 -0.1586
    1W        W54154   8.510   1.930   3.742  0.2312  0.1723  0.0434
    1W        W54155  12.080  14.370   0.108  0.1042 -0.1010 -0.0335
    1W        W54156  19.882   1.323   0.055  0.1732  0.1742  0.5161
    1W        W54157  28.008  11.892   0.203  0.1761  0.0611  0.0983
    1W        W54158   1.927  12.971   8.140 -0.0820  0.0425 -0.4585
    1W        W54159   9.410  25.311   7.741  0.0876  0.2485 -0.2261
    1W        W54160  11.124  27.024   1.901 -0.1183 -0.0231 -0.0249
    1W        W54161   6.796  20.574   2.063  0.1680 -0.2116 -0.3793
    1W        W54162  13.996   9.868   0.980  0.2902 -0.1612 -0.0962
    1W        W54163  22.847  24.474   8.404 -0.0817  0.0487 -0.0637
    1W        W54164  20.536   8.561   6.068 -0.4424 -0.1601  0.2192
    1W        W54165  15.070  12.869   2.044  0.0211  0.3793  0.0194
    1W        W54166  18.053  17.550   1.770  0.1430  0.2348  0.1863
    1W        W54167   5.531  26.611   0.209 -0.1596  0.0204 -0.1105
    1W        W54168  23.134  16.540   0.999 -0.1069  0.1756  0.0092
    1W        W54169  20.441  17.538   9.832 -0.2462 -0.1890  0.0586
    1W        W54170   5.192  19.397   8.481 -0.1725 -0.0400  0.0369
    1W        W54171   0.717   1.782   1.707 -0.3661  0.4292  0.0502
    1W        W54172  28.339   4.105   2.994  0.1568 -0.0108 -0.0910
    1W        W54173  13.506   9.174   7.068  0.1924  0.0040 -0.2990
    1W        W54174  17.366  20.371   0.896 -0.0487 -0.0762 -0.1169
    1W        W54175   2.707  25.841   1.228 -0.0291  0.2289 -0.0238
    1W        W54176   1.060   8.651   3.350 -0.1942 -0.1947  0.0576
    1W        W54177   3.864   4.176   0.707 -0.1016  0.1443 -0.1027
    1W        W54178   2.310  14.219   1.226 -0.2022 -0.3331  0.0458
    1W        W54179   6.134   7.934   7.295 -0.0480  0.2730  0.0468
    1W        W54180  10.285   5.750   6.301 -0.2294 -0.0623  0.3199
    1W        W54181  27.372  10.386   7.279  0.1243 -0.0844 -0.1476
    1W        W54182   7.353  21.990   0.554 -0.2711 -0.1407 -0.0369
    1W        W54183  14.873  13.974   9.048  0.0309 -0.0699 -0.1070
    1W        W54184   8.925  13.070   6.243 -0.0787 -0.1905  0.2485
    1W        W54185  21.906  21.404   1.014  0.1773  0.1178  0.1138
    1W        W54186   7.184  16.717   1.300 -0.2273  0.0768 -0.0288
    1W        W54187  13.183   8.354   6.023 -0.3281  0.2052 -0.1044
    1W        W54188   3.387  22.181   9.683 -0.1335 -0.0044 -0.0392
    1W        W54189  22.549  14.945   7.045  0.0311 -0.0465 -0.1830
    1W        W54190  25.108  25.513   2.527 -0.0764 -0.2384  0.0824
    1W        W54191  27.057  17.721   9.023 -0.1022 -0.2987 -0.1042
    1W        W54192   1.561  21.750   8.667  0.0877  0.2507  0.2064
    1W        W54193   6.355  18.456   0.800 -0.0173  0.1477  0.2185
    1W        W54194   3.985  15.687   7.524 -0.3529 -0.2925  0.1540
    1W        W54195  16.070   5.493   8.903  0.2268 -0.1288 -0.0634
    1W        W54196  16.696   3.469   7.157 -0.2715 -0.1984  0.0000
    1W        W54197  14.474  17.582   7.084 -0.1962  0.2102 -0.2268
    1W        W54198   0.437   2.672   1.321 -0.0657 -0.1986 -0.0159
    1W        W54199  13.198  28.755   7.597 -0.2886 -0.0713  0.0549
    1W        W54200  24.080  25.391   0.939 -0.0521 -0.0320 -0.0952
    1W        W54201   8.271  28.014   2.881 -0.0798 -0.0279 -0.1963
    1W        W54202  16.940  12.108   8.048 -0.0202 -0.3650 -0.1048
    1W        W54203   8.707  12.465   9.981  0.0322  0.1874  0.1572
    1W        W54204  23.745  10.976   9.821 -0.0288  0.0538  0.0350
    1W        W54205  22.331   2.055   9.562 -0.0037  0.1194  0.1703
    1W        W54206   5.383   3.136   2.773 -0.0147  0.0422 -0.1241
    1W        W54207  17.829  12.813   1.839 -0.1389  0.0119  0.1754
    1W        W54208   6.983  16.902   8.162 -0.0336 -0.0234 -0.0736
    1W        W54209  13.558   2.776   1.610  0.2029  0.1251  0.3755
    1W        W54210  15.378  22.919   1.618  0.1560  0.1420 -0.0297
    1W        W54211  21.218   2.103   8.384 -0.1300 -0.2333  0.0497
    1W        W54212  13.949   3.343   0.420  0.2323 -0.4812 -0.4846
    1W        W54213   6.271  25.672   1.963 -0.0396 -0.0305  0.2336
    1W        W54214  13.282   6.672   1.797 -0.1278  0.0046  0.0090
    1W        W54215  28.148  11.707   7.937 -0.1930  0.1178 -0.0392
    1W        W54216  11.342   1.544   1.813 -0.1189  0.1905  0.1474
    1W        W54217  19.526  24.362   7.501 -0.2406  0.3099 -0.1759
    1W        W54218   3.444  17.484   0.764 -0.2582  0.3676  0.2983
    1W        W54219  22.021  19.419   9.746  0.2403  0.0812 -0.2060
    1W        W54220  28.262  22.488   1.164 -0.3928  0.4295 -0.2941
    1W        W54221  18.073  25.415   8.554 -0.0217  0.1411  0.1916
    1W        W54222  19.141  11.455   6.845  0.3218 -0.0508  0.0304
    1W        W54223   7.806  19.897   1.379 -0.0813 -0.1801 -0.0117
    1W        W54224  16.012  17.967   8.364  0.2933 -0.2538 -0.1146
    1W        W54225  20.211  15.814   1.372 -0.0594  0.1248  0.1523
    1W        W54226  25.818  20.623   1.961 -0.0906 -0.4133 -0.2277
    1W        W54227  28.057  15.523   7.696  0.1503 -0.0152  0.2562
    1W        W54228   8.660  13.497   0.777  0.1053 -0.1029 -0.0189
    1W        W54229  22.170  24.968   1.730  0.1906 -0.1599  0.1608
    1W        W54230   1.513  25.077   8.075 -0.0439  0.0596  0.0270
    1W        W54231   7.115  13.976   6.243 -0.0469 -0.1328  0.1322
    1W        W54232  19.375  19.933   1.825  0.1808 -0.0218 -0.2004
    1W        W54233   1.418  15.137  10.003 -0.0523 -0.2679 -0.1004
    1W        W54234  15.033   1.571   1.216 -0.1066  0.0812  0.0563
    1W        W54235   0.924  10.042   9.081  0.3067 -0.0070  0.2969
    1W        W54236   3.168  15.757   2.667  0.3024  0.1405  0.1732
    1W        W54237   1.885  15.191   8.049 -0.0457  0.2114 -0.0727
    1W        W54238  22.928   3.829   8.581  0.1356  0.0174  0.2584
    1W        W54239  27.844  11.024   0.871 -0.1622 -0.1284 -0.3452
    1W        W54240  21.988   0.732   0.563  0.1871 -0.2942  0.0137
    1W        W54241  23.162  12.109   9.458 -0.0408 -0.1521 -0.1339
    1W        W54242  17.766  27.140   7.819 -0.0665  0.3904  0.1475
    1W        W54243  14.659  27.862   1.216  0.3186 -0.1163 -0.0284
    1W        W54244   2.139   8.677   2.446 -0.0220  0.2576  0.2404
    1W        W54245   0.427   7.301   0.857 -0.2223  0.0076  0.0026
    1W        W54246  26.493  12.812   2.055 -0.2320  0.0401  0.2133
    1W        W54247  16.366  16.973   0.252  0.3036 -0.1133  0.1875
    1W        W54248  25.421   7.119   1.600  0.0266 -0.0632 -0.1339
    1W        W54249  12.229  22.146   2.129 -0.3181  0.1661  0.2215
    1W        W54250   7.517  28.642   1.679  0.3213  0.1812 -0.0230
    1W        W54251  13.031  18.945   9.215 -0.3992  0.1165  0.0086
    1W        W54252   5.851   0.346   2.152  0.1015 -0.0549  0.1363
    1W        W54253  20.090  16.866   8.937  0.0366 -0.1879  0.0125
    1W        W54254  22.706  19.224   2.821 -0.1483 -0.3111 -0.2029
    1W        W54255  10.381  15.339   7.486  0.1132 -0.0931  0.2001
    1W        W54256  12.094  15.107   7.562 -0.5602  0.2013 -0.0831
    1W        W54257  26.328  14.815   0.730  0.1163  0.1032  0.0489
    1W        W54258  25.112  21.573   9.029 -0.2402 -0.2113 -0.2146
    1W        W54259  13.058  11.799   9.932 -0.1145 -0.0618 -0.1657
    1W        W54260  15.122  26.173   9.849  0.2124  0.0496 -0.2317
    1W        W54261   5.581  16.394   1.382  0.0655  0.0631 -0.1551
    1W        W54262  15.659  16.222   7.321 -0.2692  0.2548 -0.0062
    1W        W54263  19.336  25.770   0.302 -0.0635  0.2144  0.2579
    1W        W54264  16.110  16.079   7.009 -0.0537  0.2623  0.3238
    1W        W54265   3.734   1.293   2.972 -0.1570  0.1170 -0.2688
    1W        W54266  26.052  27.396   8.584  0.2290  0.0657  0.1851
    1W        W54267   8.710  13.980   0.874 -0.0432  0.1441  0.0961
    1W        W54268   3.840   6.682   1.697 -0.5126 -0.1127  0.0589
    1W        W54269   6.363  14.133   8.311  0.1520 -0.0054  0.0315
    1W        W54270   4.158  10.006   0.105 -0.0302 -0.1356 -0.0703
    1W        W54271   9.911  12.981   7.926 -0.3901 -0.0142 -0.2238
    1W        W54272   1.691  11.928   1.728 -0.4098 -0.1545 -0.0930
    1W        W54273   2.232  27.304   2.963 -0.0190  0.0713 -0.0486
    1W        W54274   7.242   0.627   1.691 -0.1105 -0.2008  0.3266
    1W        W54275  22.527   1.681   2.437 -0.0292  0.2322 -0.1159
    1W        W54276  18.367   0.436   8.203 -0.3721 -0.1643  0.1617
    1W        W54277   8.092  14.735   9.787 -0.0198  0.1165  0.0148
    1W        W54278   8.109  18.104   2.568 -0.0597 -0.2235  0.2312
    1W        W54279   6.582  14.559   7.563 -0.0650 -0.2774 -0.1211
    1W        W54280   4.942  19.045   8.710 -0.1196 -0.0574  0.1091
    1W        W54281   8.849   3.432   1.237  0.0383 -0.0090 -0.1403
    1W        W54282  17.242   2.040   9.538 -0.2387  0.0855 -0.2168
    1W        W54283  11.745  20.285   9.390 -0.0034  0.0108  0.0404
    1W        W54284  11.477  27.288   8.694  0.1650  0.1925  0.3776
    1W        W54285   7.685   1.304   0.435  0.0242 -0.0790 -0.3022
    1W        W54286   2.860   0.118   9.956 -0.3281  0.3260  0.2912
    1W        W54287  26.850  20.572   2.707  0.2477  0.0596 -0.2573
    1W        W54288  19.185   0.536   8.105 -0.1481  0.3324 -0.3598
    1W        W54289  20.623  20.024   8.052  0.0412 -0.0042  0.1045
    1W        W54290  13.321  27.374   7.612  0.2033 -0.1439  0.0067
    1W        W54291  15.680  14.573   8.026  0.0814 -0.1038 -0.0167
    1W        W54292   3.086   8.846   1.601 -0.5887 -0.1807  0.4956
    1W        W54293   4.835   9.034   8.695  0.2289 -0.2041 -0.0749
    1W        W54294  12.354   7.951   8.808 -0.0032  0.1230 -0.0501
    1W        W54295  19.271  22.921   9.913  0.1425  0.0660  0.0282
    1W        W54296   5.554  22.856   9.056  0.0542  0.2278  0.2982
    1W        W54297  11.608  15.221   7.431 -0.1690  0.1364 -0.0907
    1W        W54298  21.515  19.187   6.933  0.1646  0.2924  0.0733
    1W        W54299   0.728   1.419   0.426 -0.1051 -0.1187 -0.1719
    1W        W54300   4.483  23.176   1.071 -0.3071  0.3091  0.2797
    1W        W54301   7.439  18.842   2.247 -0.4096 -0.1639 -0.0352
    1W        W54302  21.862   6.493   0.924 -0.0167  0.1794  0.0669
    1W        W54303   1.676  18.614   3.768  0.1534 -0.2439  0.0558
    1W        W54304  19.309   5.158   0.497  0.1393  0.2327 -0.2510
    1W        W54305  27.348  21.491   2.638  0.0887  0.3663  0.1955
    1W        W54306  19.018   0.265   0.856 -0.0966 -0.0496 -0.0366
    1W        W54307  18.302  25.431   9.029 -0.0078 -0.2714 -0.1701
    1W        W54308   8.780   0.313   0.755 -0.2498 -0.0014  0.0810
    1W        W54309   5.862  26.212   0.154 -0.3011 -0.0432  0.0734
    1W        W54310   8.355  17.852   1.967  0.1461 -0.1118  0.0142
    1W        W54311  25.678  28.420   1.279 -0.1143 -0.3779 -0.2298
    1W        W54312  18.190   8.196   6.953 -0.1746 -0.1086 -0.0944
    1W        W54313   0.538  14.677   7.845 -0.2787 -0.0917  0.0588
    1W        W54314   4.224   0.367   9.452 -0.0481 -0.0042  0.1044
    1W        W54315  23.846   2.192   8.096 -0.0004  0.1496 -0.1865
    1W        W54316  17.155  16.532   7.609  0.0255  0.1268  0.3372
    1W        W54317  17.224   5.375   9.156 -0.2849 -0.0989 -0.0883
    1W        W54318   3.485   2.504   8.900 -0.1467  0.4538  0.1070
    1W        W54319  25.399  15.581   9.762 -0.0087 -0.1587  0.0315
    1W        W54320   2.593  16.824   9.563  0.1774 -0.2095 -0.0409
    1W        W54321   9.288  13.982   8.090  0.0115 -0.0131  0.0645
    1W        W54322   1.419   0.425   0.813  0.1456  0.1550 -0.5150
    1W        W54323  26.050  28.143   9.593  0.0092 -0.1357  0.1510
    1W        W54324   8.788   7.431   0.442  0.0252  0.3245  0.1470
    1W        W54325  19.520   4.921   7.070  0.0231  0.3010 -0.0769
    1W        W54326  20.811  17.999   2.986  0.1752  0.0050  0.2218
    1W        W54327  20.955  24.768   1.312  0.2483  0.1215 -0.0006
    1W        W54328  14.883   5.191   9.832 -0.1787  0.0760  0.2031
    1W        W54329  15.797   8.519   8.450 -0.0082  0.1837  0.2151
    1W        W54330  19.715  16.881   7.009 -0.0529 -0.2662 -0.0477
    1W        W54331  27.445   9.000   8.033 -0.0898  0.3514 -0.0552
    1W        W54332  13.288  19.095   2.286 -0.1076  0.0800 -0.0285
    1W        W54333  27.805  28.227   9.856  0.1463  0.4063 -0.0130
    1W        W54334  25.094   0.224   0.081 -0.0062  0.4540  0.1121
    1W        W54335  23.446   9.456   8.678  0.1346 -0.0323  0.0203
    1W        W54336  28.765  11.596   7.543 -0.4238 -0.1039 -0.2518
    1W        W54337  25.952   6.933   0.410 -0.3184  0.1550 -0.1514
    1W        W54338  27.765  10.576   2.543  0.0193  0.0447 -0.0986
    1W        W54339   6.651  19.251   2.518  0.1755  0.0585  0.0077
    1W        W54340   6.719   3.785   3.161 -0.1566 -0.0188  0.1495
    1W        W54341  10.453  27.439   7.698 -0.0866 -0.0298 -0.0406
    1W        W54342  18.343  10.170   1.958  0.3245 -0.2423  0.2724
    1W        W54343   0.515  10.107   7.682  0.0275  0.2244 -0.0318
    1W        W54344   6.832   4.833   0.101  0.2744  0.0124  0.1367
    1W        W54345  20.811  18.166   6.558  0.1929 -0.3333  0.0595
    1W        W54346  15.126  22.083   2.773 -0.0346 -0.1181 -0.0992
    1W        W54347  25.839   5.633   1.804  0.1672  0.0101 -0.0169
    1W        W54348   1.375  14.415   6.750  0.0861 -0.1102  0.1520
    1W        W54349  18.877   8.115   1.206  0.1050 -0.1605 -0.0927
    1W        W54350  19.548   1.271   7.718 -0.3140 -0.1031  0.1602
    1W        W54351   2.353  24.156   9.444 -0.1090 -0.0855  0.3475
    1W        W54352  22.322   1.408   7.738 -0.0157 -0.1798 -0.3894
    1W        W54353  15.091  24.144   3.233 -0.1767  0.1301 -0.0594
    1W        W54354  25.560  13.490   8.384 -0.0679  0.2397 -0.1251
    1W        W54355  11.689  21.171   9.310  0.0076  0.1347 -0.1030
    1W        W54356  25.069  26.096   2.663 -0.0943  0.0859  0.0471
    1W        W54357  23.756   4.164   2.570 -0.2091 -0.1938 -0.1295
    1W        W54358   0.684  13.087   2.156  0.1787 -0.0892 -0.0101
    1W        W54359  18.900  15.627   2.361 -0.2338  0.1872  0.0202
    1W        W54360   3.956  19.975   1.999 -0.0607 -0.0297 -0.0334
    1W        W54361  17.490  13.640   6.119 -0.1177  0.1583 -0.0445
    1W        W54362  22.918  13.049   1.120 -0.4607 -0.1595  0.4356
    1W        W54363   5.466  20.449   8.920  0.0302 -0.0743 -0.2600
    1W        W54364  18.249  15.339   9.967 -0.0921 -0.1149 -0.1345
    1W        W54365  15.486  16.669   9.156  0.0332 -0.0784 -0.1665
    1W        W54366  19.332  26.430   2.997  0.1585 -0.0536  0.0713
    1W        W54367   3.088  23.593   0.896 -0.0834 -0.0048  0.1817
    1W        W54368  22.627  21.271   2.030 -0.0524  0.2597 -0.0547
    1W        W54369  17.407   1.618   6.977  0.0459  0.3254  0.1527
    1W        W54370  15.693  11.959   7.184  0.3311 -0.0866 -0.2836
    1W        W54371  24.644   3.424   1.882  0.0040  0.2315 -0.2964
    1W        W54372   7.326   5.498   8.641  0.1004  0.0658 -0.0754
    1W        W54373   8.841  11.760   1.278 -0.0030  0.0037  0.1173
    1W        W54374   7.781  27.850   1.348  0.1502 -0.0128  0.1481
    1W        W54375   6.679   7.723   9.309 -0.5186 -0.2671 -0.0914
    1W        W54376  14.333  20.705   2.047  0.0464  0.1228 -0.0936
    1W        W54377  14.400  20.704   6.751 -0.2742  0.0716  0.3868
    1W        W54378   6.073  21.749   8.339 -0.0116  0.0421 -0.1643
    1W        W54379   4.506   8.983   6.903 -0.1262 -0.2960  0.0346
    1W        W54380   5.147  27.356   3.050  0.0606 -0.0695  0.2480
    1W        W54381  20.021   0.580   7.696 -0.2156  0.0285 -0.3821
    1W        W54382  23.802  21.396   0.625  0.1653  0.0773 -0.0924
    1W        W54383  27.834   8.190   2.593  0.2127 -0.0856  0.0845
    1W        W54384  24.051  27.413   9.316  0.2891 -0.1750 -0.1544
    1W        W54385  27.156   0.509   1.898 -0.2027 -0.1348 -0.2527
    1W        W54386   5.149   0.272   2.013 -0.0361 -0.4989  0.0805
    1W        W54387   6.121  26.525   3.033  0.1950 -0.1023  0.1472
    1W        W54388  28.294  22.894   8.849  0.3648  0.1144  0.0726
    1W        W54389  22.598   4.523   7.380  0.0578  0.1401  0.0865
    1W        W54390   9.952  18.219   0.331  0.0043  0.0327  0.1265
    1W        W54391  21.791  14.578   8.951  0.1854 -0.3109 -0.1364
    1W        W54392   2.720  14.455   2.907  0.3366  0.0927  0.2308
    1W        W54393  10.357   4.982   2.630 -0.0439  0.1031 -0.2829
    1W        W54394  23.557  28.562   1.438 -0.2520 -0.2329  0.0927
    1W        W54395  28.218  14.931   8.136  0.1062 -0.0043 -0.0491
    1W        W54396  22.232   4.830   9.543 -0.0372  0.0871  0.1097
    1W        W54397   5.727  22.427   0.448 -0.1720  0.1505  0.0553
    1W        W54398  16.953  14.367   1.611 -0.1621 -0.0507 -0.0869
    1W        W54399  16.298   7.021   9.848  0.1947  0.1894  0.0476
    1W        W54400  14.164   8.069   1.115 -0.0135  0.0937  0.2424
    1W        W54401  15.868  27.253   1.345 -0.2989 -0.1984  0.2728
    1W        W54402  11.944  23.231   8.502  0.1423  0.0261 -0.0016
    1W        W54403  20.895   5.895   0.958 -0.2054 -0.2019  0.0274
    1W        W54404   6.159  17.571   1.599  0.1320 -0.0266  0.2672
    1W        W54405   2.727  21.464   8.550 -0.1653  0.1528 -0.4472
    1W        W54406  17.896  27.906   7.336 -0.1057  0.3141  0.1439
    1W        W54407  11.452  28.022   2.550 -0.3527  0.0833 -0.1064
    1W        W54408  16.734   3.090   0.198  0.0055 -0.1337  0.1416
    1W        W54409  16.095   7.190   9.359  0.3003 -0.2584 -0.1693
    1W        W54410   1.849   2.130   1.604  0.4335 -0.2853  0.0692
    1W        W54411  18.966  20.116   1.337  0.0803 -0.1878 -0.0462
    1W        W54412   7.810  20.755   1.792 -0.0603 -0.3251 -0.1692
    1W        W54413  16.298  25.178   2.048 -0.1288  0.1874  0.0053
    1W        W54414  10.477  16.063   2.315  0.1482  0.0558  0.1592
    1W        W54415  15.063   9.558   1.511 -0.1047 -0.0443 -0.0410
    1W        W54416  24.247  22.217   8.398  0.1594  0.0547  0.0883
    1W        W54417  28.541  17.166   8.147  0.1995  0.0335  0.1125
    1W        W54418  23.819  24.595   1.296 -0.0242 -0.0723  0.0754
    1W        W54419  21.352  17.460   8.203 -0.0564  0.2921  0.2013
    1W        W54420  15.329  13.191   7.371  0.1971 -0.1019  0.0790
    1W        W54421  13.396   1.046   1.252 -0.2240 -0.2529 -0.0072
    1W        W54422   6.202  15.842   7.493 -0.2154 -0.1334 -0.0055
    1W        W54423   6.803  12.177   2.247  0.1246  0.0115 -0.2453
    1W        W54424  28.419  24.707   8.420  0.0143 -0.1614  0.1253
    1W        W54425   6.012  27.733   1.654  0.2056 -0.1961  0.1229
    1W        W54426  11.050   5.958   9.740  0.1652  0.0674 -0.0529
    1W        W54427  20.889  13.086   0.062  0.2679 -0.2866  0.2803
    1W        W54428  11.001   4.340   9.521  0.0128  0.0384  0.0597
    1W        W54429  26.694  26.659   1.590  0.4169  0.0608  0.1038
    1W        W54430  16.451  20.555   3.120  0.0628  0.1106 -0.0130
    1W        W54431   2.735   7.302   0.370 -0.2148 -0.0422 -0.0425
    1W        W54432   9.126  24.853   1.572 -0.3018 -0.1882  0.0395
    1W        W54433  10.709  25.615   8.596  0.0030  0.0737  0.1471
    1W        W54434  28.130  10.687   2.193 -0.2406  0.1602  0.2707
    1W        W54435  26.718   1.385   8.721 -0.1651 -0.0051 -0.1524
    1W        W54436  24.248  21.622   0.703  0.1756  0.0531 -0.0541
    1W        W54437   4.247   3.009   0.369  0.3698  0.0510 -0.0506
    1W        W54438   2.858  13.663   2.606  0.1489  0.0370  0.1954
    1W        W54439  13.868  21.230   8.605  0.0141  0.1298  0.0685
    1W        W54440  12.194  11.413   8.299  0.0604 -0.1309  0.1792
    1W        W54441  16.353  18.181   7.620  0.2237 -0.2903 -0.3139
    1W        W54442   0.794  20.821   9.925  0.0131 -0.1954  0.1637
    1W        W54443  15.985  11.974   6.026  0.0662  0.2597 -0.1715
    1W        W54444   2.823   8.854   8.025  0.0629 -0.2485  0.2069
    1W        W54445   8.311  17.532   6.903  0.0215 -0.0044  0.1056
    1W        W54446  21.466   3.535   8.843  0.0060  0.0057  0.0738
    1W        W54447   6.938  24.095   1.472  0.1737 -0.1326  0.0210
    1W        W54448  16.716   0.312   7.369 -0.0761  0.2421  0.2227
    1W        W54449   2.289  13.154   9.372  0.0982  0.2017 -0.0039
    1W        W54450   6.702   4.834   1.984  0.1696  0.0352 -0.0582
    1W        W54451  21.307  18.732   0.857  0.4392  0.0480  0.2884
    1W        W54452   7.945   3.820   0.380  0.1277 -0.0944  0.2556
    1W        W54453  15.357  25.149   6.843  0.0162  0.1241  0.1085
    1W        W54454   6.249   9.553   7.969 -0.2020  0.0995 -0.2595
    1W        W54455   8.829  26.195   0.589  0.1274  0.0265 -0.1415
    1W        W54456  14.964  12.242   6.617 -0.1094  0.0574  0.3632
    1W        W54457  10.446  28.161   8.312 -0.3042  0.1073  0.1425
    1W        W54458  12.652   9.814   0.625  0.0821 -0.0604  0.0293
    1W        W54459   9.352   1.057   0.088  0.0170 -0.2459 -0.2943
    1W        W54460   9.373  15.340   0.479  0.0087  0.1590 -0.2944
    1W        W54461   6.568  10.111   7.302  0.0129  0.2949 -0.0095
    1W        W54462   3.406  10.193   8.791 -0.1602 -0.0490  0.1884
    1W        W54463   5.714  23.858   0.239  0.3595 -0.2834 -0.1946
    1W        W54464  23.288  20.596   7.863  0.1437 -0.2857  0.1540
    1W        W54465   4.261  15.682   8.967  0.1273 -0.1444 -0.0600
    1W        W54466  20.760  25.079   2.471  0.0146 -0.1667  0.1614
    1W        W54467   8.021  11.305   6.751  0.0611 -0.0876 -0.1909
    1W        W54468  23.290  20.769   0.997 -0.1776 -0.1664 -0.1822
    1W        W54469  20.195  19.659   8.868  0.1711  0.0382 -0.0573
    1W        W54470   1.242   2.985   0.773  0.2514 -0.0023 -0.0586
    1W        W54471   3.025  26.531   4.340  0.2567 -0.2774  0.2719
    1W        W54472  19.045   0.511   8.906  0.0139  0.1188  0.2043
    1W        W54473  28.674  21.670   0.912 -0.0249 -0.2542 -0.0074
    1W        W54474  13.674  18.284   2.911 -0.2746 -0.0805 -0.1647
    1W        W54475  22.576  17.644   0.652  0.3080  0.0761 -0.4011
    1W        W54476   0.156   6.855   3.406 -0.1551 -0.0826  0.0446
    1W        W54477  19.831  11.034   0.524 -0.2382 -0.0559  0.0323
    1W        W54478  26.532   9.156   9.929 -0.2375 -0.0308  0.1461
    1W        W54479  26.139  26.904   0.349 -0.0241 -0.2654  0.2033
    1W        W54480  27.824  13.643   3.011 -0.0668 -0.2193 -0.1614
    1W        W54481  26.372  25.318   3.029 -0.0429  0.1172  0.0347
    1W        W54482  19.093  27.140   7.635 -0.0785  0.1131 -0.1943
    1W        W54483   6.675  14.314   7.072 -0.2236 -0.1317  0.0590
    1W        W54484   0.441   5.925   1.690 -0.2191 -0.0866  0.0044
    1W        W54485   5.741  15.963   1.577  0.1605  0.1344 -0.0534
    1W        W54486  13.488  11.274   6.272  0.3830  0.1069 -0.0728
    1W        W54487   0.188   7.313   3.087  0.2214  0.0727 -0.0132
    1W        W54488   5.155  18.949   9.167  0.0040  0.1933  0.0227
    1W        W54489  13.920   3.778   5.857  0.1567  0.3455  0.2028
    1W        W54490  12.167  22.888   1.364 -0.0980 -0.0576  0.1836
    1W        W54491  25.614  13.861   1.757 -0.0482  0.0198  0.0782
    1W        W54492  21.361   9.300   9.237 -0.2096 -0.3140 -0.1228
    1W        W54493   8.028  17.684   0.544 -0.1090 -0.0653  0.0595
    1W        W54494  16.861  17.429   9.292  0.3788  0.2022 -0.3422
    1W        W54495  20.005  11.173   8.559 -0.0427  0.3698  0.1248
    1W        W54496  24.605   7.759   2.322 -0.0931 -0.0462  0.2304
    1W        W54497   2.805  15.065   8.279  0.0659  0.2665  0.0433
    1W        W54498  16.507  16.838   7.863  0.1366 -0.1250  0.3601
    1W        W54499  14.711   7.380   6.644 -0.0692 -0.1027 -0.1478
    1W        W54500  23.238  22.494   7.415  0.0273 -0.0945 -0.4467
    1W        W54501   5.731  15.368   9.724  0.0009  0.3776 -0.1691
    1W        W54502  16.569  15.225   9.138  0.2730  0.1308  0.0145
    1W        W54503   6.597   5.383   7.729 -0.0606  0.1402 -0.0002
    1W        W54504  18.698   0.085   8.619  0.4373 -0.1256 -0.0285
    1W        W54505  20.554   8.893   6.785  0.0883 -0.2349  0.0452
    1W        W54506   5.150  24.482   2.154 -0.2102  0.2177  0.2127
    1W        W54507  23.175   2.202   8.354 -0.1187  0.0688 -0.1312
    1W        W54508   8.255  24.297   1.285  0.1409 -0.0228 -0.3175
    1W        W54509  20.848  14.308   0.450 -0.2884 -0.1589  0.1307
    1W        W54510  24.469   6.462   0.571  0.1214  0.3934  0.3799
    1W        W54511  22.515  28.416   1.347  0.0497  0.0407  0.0803
    1W        W54512  25.677   7.770   9.513  0.2387  0.1994 -0.3366
    1W        W54513  21.718  22.548   8.417  0.0024  0.1255  0.0371
    1W        W54514   5.476  13.451   8.450  0.0658 -0.4256 -0.2869
    1W        W54515   4.487  28.640   4.260 -0.0492  0.0107  0.0700
    1W        W54516   7.356  13.474   1.734  0.0546 -0.0215 -0.0085
    1W        W54517   8.922   9.391   0.801 -0.2347  0.1695  0.1099
    1W        W54518   0.351  21.829   9.253 -0.3226  0.3071 -0.0259
    1W        W54519  23.247  25.653   2.508  0.2509  0.1321  0.2107
    1W        W54520  25.527  19.091   8.286  0.0278  0.1731  0.1046
    1W        W54521  11.738  24.522   2.371 -0.1227 -0.3465  0.0977
    1W        W54522  12.611  11.026   0.892 -0.0830  0.2277 -0.2712
    1W        W54523  12.537  27.888   7.908 -0.1698  0.2867  0.0014
    1W        W54524   6.550   1.665   0.011 -0.1883  0.0145  0.3881
    1W        W54525   1.980  28.253   1.034 -0.1106 -0.0872 -0.1618
    1W        W54526   5.716  24.066   1.504  0.1501 -0.0013 -0.0785
    1W        W54527  16.650  25.844   0.027 -0.1751 -0.3364  0.0313
    1W        W54528  17.300   2.080   1.625  0.2037 -0.3267 -0.3013
    1W        W54529  18.193   4.297   9.485 -0.1203  0.0184 -0.0227
    1W        W54530   0.727  22.036   2.022  0.1318 -0.2494 -0.4969
    1W        W54531  12.200  15.173   1.418  0.1529  0.2515  0.0633
    1W        W54532  22.845  17.512   9.191  0.1470  0.0330 -0.0889
    1W        W54533   8.353  26.225   0.173  0.1294  0.2152 -0.0834
    1W        W54534  10.465  23.204   7.324 -0.0836  0.0724 -0.0626
    1W        W54535  12.407   3.369   8.927 -0.1649  0.1216  0.1214
    1W        W54536  12.585  26.445   0.872 -0.0266  0.3754 -0.2146
    1W        W54537  16.996   7.567   9.416 -0.1224  0.2792 -0.0802
    1W        W54538  14.385   3.280   1.496  0.0034 -0.1115 -0.3765
    1W        W54539  17.190   9.386   0.695  0.0079 -0.1009 -0.0211
    1W        W54540  25.889  20.257   8.358 -0.1967  0.1309 -0.1861
    1W        W54541  23.333  16.879   0.149 -0.0922 -0.0100 -0.2043
    1W        W54542   5.215  19.038   2.821  0.0319  0.2027  0.2305
    1W        W54543   2.131  13.907   8.930  0.1957  0.1358 -0.3069
    1W        W54544  20.310  15.765   8.793 -0.1611 -0.2665  0.2441
    1W        W54545   7.505   1.725   0.163  0.1303  0.0317 -0.0271
    1W        W54546   3.665  17.958   1.727  0.0505  0.0550  0.1615
    1W        W54547  24.349   9.177   0.824  0.0330 -0.0832 -0.0251
    1W        W54548  25.874   2.076   2.753 -0.0737  0.0066  0.4411
    1W        W54549   0.784  20.177   0.556 -0.0403 -0.2419  0.0865
    1W        W54550  17.931   2.744   8.477  0.3774  0.1678  0.0194
    1W        W54551  22.888   8.535   0.313 -0.0160 -0.1070 -0.3866
    1W        W54552  24.835   1.711   7.922  0.5595  0.1271 -0.0810
    1W        W54553   9.300  20.443   8.161 -0.1278 -0.0600 -0.1674
    1W        W54554   7.395   7.808   8.701 -0.0716 -0.0102  0.1328
    1W        W54555   5.397  28.596   2.665  0.2210 -0.2460  0.0408
    1W        W54556  13.020   1.315   0.268  0.0654 -0.0568 -0.0371
    1W        W54557  16.400   6.346   0.494 -0.2868 -0.0836  0.0425
    1W        W54558   8.152  18.621   9.035 -0.1646  0.5916  0.0462
    1W        W54559  18.202   9.538   8.652 -0.0535  0.1746  0.0569
    1W        W54560  27.295  20.490   2.846 -0.2197  0.1011 -0.0688
    1W        W54561   2.652  23.800   0.660 -0.1833  0.1370 -0.1595
    1W        W54562  24.765   4.706   2.295 -0.0429  0.1164 -0.1726
    1W        W54563  26.216   8.813   9.719 -0.0529 -0.2497 -0.0945
    1W        W54564  27.895  14.510   8.094  0.0147 -0.0185 -0.1163
    1W        W54565  18.929  13.018   1.999  0.0881 -0.2128  0.0891
    1W        W54566  19.836  21.854   9.054  0.0647 -0.1614 -0.0733
    1W        W54567  22.890  22.915   9.601 -0.0612 -0.1825 -0.1804
    1W        W54568  27.867   1.502   2.432 -0.1457 -0.3664 -0.0154
    1W        W54569  19.883  14.989   2.086  0.1135  0.2237 -0.0486
    1W        W54570  12.989  10.236   9.254  0.1112  0.1012 -0.1511
    1W        W54571   7.222  23.152   8.179 -0.1639 -0.0849 -0.0974
    1W        W54572  15.287   3.157   1.018  0.2625 -0.2934 -0.4643
    1W        W54573   9.587   0.514   0.963  0.1335  0.2611 -0.0428
    1W        W54574   0.613  21.364   0.164 -0.1305 -0.0741 -0.1343
    1W        W54575  28.800  26.410   0.049  0.0308  0.0513  0.1651
    1W        W54576   0.168  26.836   2.950 -0.0638  0.0818  0.2853
    1W        W54577   5.809   2.488   9.930 -0.0297  0.1639 -0.0279
    1W        W54578  25.047  18.452   8.255  0.2148  0.3693 -0.1817
    1W        W54579   5.298  25.321   8.616 -0.3889  0.0945 -0.1730
    1W        W54580  21.562  18.354   5.951  0.2789 -0.3429 -0.2767
    1W        W54581   7.072  12.835   9.802 -0.0165  0.0221  0.0904
    1W        W54582  16.738   2.329   0.376  0.2588  0.1996 -0.4890
    1W        W54583  14.664  25.744   0.327  0.5474 -0.1188 -0.0855
    1W        W54584  16.179  21.036   6.149 -0.2077 -0.1465 -0.0867
    1W        W54585  14.268  10.440   6.101  0.0880  0.6142 -0.0858
    1W        W54586  26.753  10.528   1.558 -0.0794 -0.2559  0.0497
    1W        W54587   6.539  11.599   9.052  0.0696  0.1443 -0.2632
    1W        W54588  13.115  18.831   1.796 -0.0772 -0.2432 -0.0192
    1W        W54589   9.569   1.089   9.639  0.0546  0.1063 -0.2240
    1W        W54590  14.515  13.501   1.502  0.1873 -0.0665 -0.0260
    1W        W54591  16.741   7.223   7.285 -0.1341  0.0759 -0.0215
    1W        W54592  22.684  14.808   8.552  0.2095 -0.0546  0.2194
    1W        W54593  11.478   3.271   7.297  0.0644  0.2076  0.1005
    1W        W54594  19.577  20.253   7.189  0.3207 -0.2796 -0.1559
    1W        W54595   3.416  13.564   1.659 -0.0377  0.0252  0.1449
    1W        W54596  22.900  21.755   7.357  0.1499 -0.0602 -0.1700
    1W        W54597   9.723  13.495   1.722  0.1164 -0.0312 -0.3955
    1W        W54598   1.793  10.159   1.527 -0.0812  0.1905  0.0302
    1W        W54599  18.625   3.664   0.788 -0.0605 -0.0377  0.0707
    1W        W54600  18.791  22.093   9.814  0.1831 -0.2054 -0.0340
    1W        W54601  21.671  17.912   5.778 -0.0062  0.1070  0.3098
    1W        W54602  20.330  21.576   8.780 -0.0811  0.2567 -0.3247
    1W        W54603   4.456   4.521   8.572  0.1306 -0.1547  0.0528
    1W        W54604   0.561   9.715   8.987 -0.5550 -0.3592  0.0583
    1W        W54605  14.421  17.846   8.415 -0.0747 -0.1782  0.0769
    1W        W54606  13.012  21.430   8.015  0.1671 -0.3403 -0.0545
    1W        W54607  22.428  26.265   8.880  0.2709 -0.2670 -0.1229
    1W        W54608  14.281   6.849   1.115 -0.0761  0.0839 -0.1602
    1W        W54609  24.873   6.666   9.843 -0.2080 -0.0684  0.2487
    1W        W54610  26.452   3.994   1.134 -0.0214 -0.0830 -0.3389
    1W        W54611  14.468   9.416   5.736 -0.1585  0.1713  0.0117
    1W        W54612  12.832   6.646   7.406 -0.1935 -0.0702  0.0909
    1W        W54613  23.890   7.830   8.239 -0.3125 -0.1845 -0.2125
    1W        W54614  16.939  18.993   7.277  0.1831 -0.0021 -0.1156
    1W        W54615   4.339  16.994   8.238 -0.2707 -0.2614  0.3278
    1W        W54616   0.367  27.665   0.028 -0.0133 -0.3189 -0.1939
    1W        W54617  23.962  23.823   0.499  0.0499 -0.2439  0.1692
    1W        W54618  28.765   2.366   4.007 -0.1391  0.2267 -0.0949
    1W        W54619   8.110  14.727   7.821 -0.3501  0.1204 -0.1504
    1W        W54620  17.926  17.760   7.218  0.0429 -0.1785 -0.1211
    1W        W54621  19.802  10.828   9.644 -0.0952  0.0632  0.2258
    1W        W54622  21.562  20.881   7.829  0.0153 -0.2349 -0.0261
    1W        W54623  20.801  22.682   1.512 -0.2396  0.0289 -0.0464
    1W        W54624  21.191  21.091   8.768  0.0948 -0.2527  0.1186
    1W        W54625  19.303  19.268   0.953 -0.0908 -0.0034 -0.2596
    1W        W54626  12.003  26.969   1.634 -0.1395  0.2584 -0.1536
    1W        W54627  14.686  15.227   0.574  0.1355 -0.1524  0.0670
    1W        W54628  14.480   3.660   9.581  0.0444  0.0605  0.2235
    1W        W54629  15.916  10.935   5.743 -0.1063  0.3240 -0.1704
    1W        W54630   1.585  22.279   0.963  0.0171  0.0987 -0.1328
    1W        W54631  12.031   4.094   2.481  0.0610  0.1082 -0.1168
    1W        W54632  10.608   9.352   2.129  0.0411 -0.2862 -0.2715
    1W        W54633  27.960  20.225   1.718 -0.0488 -0.3285  0.1074
    1W        W54634   1.169   2.202   1.052  0.3048  0.1159 -0.0802
    1W        W54635   9.001  17.146   1.166 -0.1938  0.0605 -0.2927
    1W        W54636   2.509  26.842   1.307 -0.0707  0.2071 -0.0037
    1W        W54637  19.536   4.205   8.342 -0.0663 -0.1916  0.2568
    1W        W54638   2.106   4.103   3.502 -0.0323  0.0772  0.2780
    1W        W54639   1.790   7.684   7.862 -0.2038 -0.1292  0.2684
    1W        W54640   2.194   9.073   2.733  0.1301  0.0202  0.0273
    1W        W54641  26.330  12.572   7.330 -0.0045  0.1619  0.2728
    1W        W54642   7.373  18.936   0.427 -0.2939  0.1228 -0.0820
    1W        W54643  15.504  17.170   1.688  0.0279  0.1947 -0.1749
    1W        W54644   4.831   1.896   8.955  0.0216 -0.1976 -0.1626
    1W        W54645  14.249   1.522   9.665  0.3344  0.2007 -0.0794
    1W        W54646   5.857  15.656   7.822 -0.1496 -0.2896  0.1645
    1W        W54647   9.211  16.553   7.906  0.0695  0.1032 -0.1230
    1W        W54648   7.994  16.867   8.103 -0.2365  0.1007 -0.1551
    1W        W54649   9.011  15.043   1.792  0.2549  0.1476  0.2072
    1W        W54650  12.029  16.462   1.091  0.0366 -0.1644 -0.3113
    1W        W54651   1.951   6.544   8.553 -0.0737  0.1438  0.1131
    1W        W54652  15.976  24.750   0.642 -0.0636 -0.0397  0.1958
    1W        W54653   0.119   6.709   1.316 -0.0963  0.1577  0.0763
    1W        W54654  18.596  13.670   0.225  0.3437  0.0890 -0.1838
    1W        W54655  24.352   1.987   1.089  0.0773  0.2615  0.4297
    1W        W54656   3.335  26.642   8.354 -0.0206  0.1786  0.0638
    1W        W54657  24.346  25.471   0.296 -0.1958  0.1583 -0.5538
    1W        W54658   1.400  18.692   7.051  0.0952  0.1911  0.0660
    1W        W54659   6.875  10.220   1.100  0.1874 -0.1001  0.2362
    1W        W54660  27.818  27.180   8.508  0.1363 -0.2668 -0.2344
    1W        W54661  27.336  28.395   2.927  0.0398  0.2002 -0.1579
    1W        W54662   1.622  15.649   4.148  0.1457  0.0566 -0.0429
    1W        W54663  25.416  21.499   3.574 -0.1761 -0.2729  0.1285
    1W        W54664  16.471   5.187   6.064  0.0416 -0.0384 -0.2026
    1W        W54665  20.378   3.148   9.350  0.3045  0.4551  0.2452
    1W        W54666   1.499  10.982   8.211  0.4088  0.1563  0.0424
    1W        W54667  27.597  28.276   1.096 -0.0993 -0.0014  0.2227
    1W        W54668  10.661  11.713   1.380 -0.0687 -0.0353 -0.0670
    1W        W54669   0.709  18.331   1.628 -0.1053  0.2636 -0.0626
    1W        W54670   7.918  24.643   2.169 -0.1962 -0.0514 -0.3296
    1W        W54671  24.955  24.347   0.112  0.0188 -0.2485  0.0731
    1W        W54672  25.357  25.871   2.310 -0.1170  0.0640 -0.2552
    1W        W54673  13.422   0.381   0.849  0.0541  0.0132  0.0681
    1W        W54674  23.678   4.901   0.265  0.0139 -0.1265 -0.1268
    1W        W54675  18.377  22.134   6.932  0.0995 -0.0747  0.0859
    1W        W54676  28.125  27.616   0.137  0.0318  0.1066 -0.0923
    1W        W54677  24.648  27.921   1.105 -0.1966 -0.0423 -0.0888
    1W        W54678   4.391  21.599   0.815  0.0670  0.0201  0.0415
    1W        W54679   5.508  24.439   1.732 -0.1108  0.3265  0.0912
    1W        W54680   5.925   8.621   0.242  0.2068 -0.1033  0.1524
    1W        W54681  21.025   9.661   7.966  0.1503 -0.0513  0.0308
    1W        W54682  11.619  11.355   6.417 -0.1463  0.2450  0.0279
    1W        W54683   9.614   1.313   3.316  0.1863 -0.1301 -0.0842
    1W        W54684  13.695   6.754   5.359 -0.2770 -0.2023 -0.1564
    1W        W54685  12.231  18.999   7.360 -0.0125 -0.4034 -0.0482
    1W        W54686  12.310  14.091   8.181 -0.2511 -0.5121  0.2965
    1W        W54687  13.022  22.315   1.874  0.0621  0.1567  0.0014
    1W        W54688   7.993   2.486   2.661 -0.0880 -0.1343  0.0283
    1W        W54689   5.167  18.690   2.264 -0.0070 -0.2745 -0.4865
    1W        W54690   2.372  10.741   3.507 -0.0294 -0.0586 -0.0578
    1W        W54691   7.204  28.121   8.837 -0.3537 -0.1052 -0.0359
    1W        W54692   4.247  17.692   9.765  0.0620 -0.1024  0.0389
    1W        W54693  25.437   8.943   7.176  0.0641 -0.1171  0.2680
    1W        W54694  22.331  27.192   1.771 -0.0546  0.1318 -0.1053
    1W        W54695  10.020   9.961   9.448 -0.1413 -0.1528 -0.1278
    1W        W54696  10.426   8.333   2.238  0.3173  0.0896  0.0425
    1W        W54697  16.370  19.127   8.545 -0.1041 -0.1185  0.1842
    1W        W54698   8.621  18.868   1.282 -0.1347  0.3056 -0.2930
    1W        W54699  13.873  21.501   0.635  0.0106  0.1191 -0.3806
    1W        W54700  28.685  17.866   0.033 -0.3381 -0.1506  0.0194
    1W        W54701   5.000  25.296   9.094  0.1322 -0.0601  0.3469
    1W        W54702  25.790  26.352   1.012  0.0248 -0.1387  0.0692
    1W        W54703  19.233  25.323   9.157 -0.0773 -0.2443 -0.3757
    1W        W54704   7.706  10.135   0.728  0.0620  0.2368 -0.2478
    1W        W54705  24.333  19.095   0.264 -0.0634 -0.0888  0.1195
    1W        W54706  13.011  23.436   0.512 -0.0557 -0.1085 -0.1546
    1W        W54707  22.473  13.027   3.449 -0.0962 -0.0318  0.0208
    1W        W54708  24.085  24.083   7.262  0.1707 -0.3351 -0.0037
    1W        W54709  21.653   0.300   8.610  0.0140 -0.2566 -0.0702
    1W        W54710   3.090  23.989   8.623 -0.1503  0.0918  0.1585
    1W        W54711   8.552  21.762   2.400 -0.0848 -0.0425  0.0455
    1W        W54712  18.658  11.348   2.219  0.0367 -0.2045 -0.1320
    1W        W54713   1.176   3.035   9.052  0.1651  0.0159  0.0616
    1W        W54714  13.478  24.583   7.095  0.1408  0.0408 -0.3159
    1W        W54715   0.712  17.156   3.289 -0.1160 -0.1198 -0.1434
    1W        W54716  13.248  12.546   6.108  0.1198  0.0758 -0.1030
    1W        W54717  17.586  23.902   2.218  0.2268  0.0617 -0.3553
    1W        W54718  18.513  25.560   1.509 -0.0386 -0.0622  0.1653
    1W        W54719  18.629  28.797   2.651  0.0638 -0.1865  0.3360
    1W        W54720   4.305  23.298   9.458  0.1448 -0.1056  0.0560
    1W        W54721  15.381  18.929   8.446 -0.1758 -0.0535 -0.2922
    1W        W54722  19.168  13.283   9.623  0.0114 -0.1281  0.1801
    1W        W54723   9.498  15.761   8.247  0.0004 -0.1071 -0.2376
    1W        W54724   2.998  24.096   2.372  0.0784 -0.0493  0.2497
    1W        W54725  23.811  11.361   8.464  0.2269  0.0735  0.1748
    1W        W54726   9.472  11.497   0.726  0.0613 -0.1415 -0.0191
    1W        W54727  20.187  19.429   2.636 -0.1474  0.1628 -0.0739
    1W        W54728  11.145  28.063   1.981  0.1398 -0.3226  0.0370
    1W        W54729  13.589   1.544   0.900 -0.0908  0.1287 -0.0914
    1W        W54730  15.735  22.761   2.395  0.1371 -0.0888  0.1201
    1W        W54731   9.134   7.205   7.225 -0.4350  0.1001  0.2454
    1W        W54732   3.463  16.899   1.637  0.0972  0.0679  0.1034
    1W        W54733   9.438   8.443   7.131 -0.1424  0.4490  0.0235
    1W        W54734   1.164   4.026   0.163 -0.0056 -0.1177  0.0875
    1W        W54735  14.844  17.557   8.426 -0.2126 -0.1164  0.3482
    1W        W54736   6.746  23.352   3.680 -0.1957  0.1324  0.0403
    1W        W54737  16.393  22.477   9.317  0.0030  0.0571 -0.0862
    1W        W54738  14.920   3.502   0.032 -0.3087  0.1715 -0.1009
    1W        W54739   2.129  13.921   6.963 -0.1693 -0.1035  0.2421
    1W        W54740  27.242   3.665   9.706 -0.1770  0.0394 -0.3146
    1W        W54741   2.184  28.618   1.997 -0.0157 -0.0883 -0.1373
    1W        W54742  27.064  25.148   0.944  0.1058 -0.1972 -0.1668
    1W        W54743   4.188  17.873   2.378  0.1646 -0.0189 -0.3110
    1W        W54744  24.016   9.493   6.565  0.1499  0.1614  0.1841
    1W        W54745  18.040   0.457   9.755 -0.0434  0.0414 -0.0716
    1W        W54746   3.797   6.158   9.345  0.0531  0.3487  0.0662
    1W        W54747  11.465  22.746   6.606  0.1405  0.2926 -0.2273
    1W        W54748  20.775   1.312   8.877  0.2146 -0.0263  0.0510
    1W        W54749   0.724  19.902   2.468  0.1598  0.0737 -0.3347
    1W        W54750  20.408  12.740   9.320 -0.0686 -0.0477  0.1540
    1W        W54751  11.443  11.061   1.646 -0.0022  0.1121 -0.2213
    1W        W54752  27.001   5.038   1.504  0.0534  0.0964  0.0641
    1W        W54753  21.281  17.389   2.389 -0.0161 -0.0255 -0.0702
    1W        W54754  28.664  21.035   7.777  0.1566  0.1535  0.3105
    1W        W54755  27.545   9.800   8.680  0.3853  0.1299  0.0743
    1W        W54756  11.457  13.903   8.618 -0.0746  0.1482 -0.0411
    1W        W54757   8.640   7.053   6.991  0.1479 -0.2164 -0.1086
    1W        W54758   6.226  28.097   0.677 -0.1477 -0.0132  0.0973
    1W        W54759  16.036  15.295   1.910 -0.3136  0.0116 -0.3237
    1W        W54760  25.430  21.055   8.190 -0.3260 -0.3806 -0.1084
    1W        W54761  26.082  13.998   0.842 -0.1736  0.2580  0.3054
    1W        W54762  25.152  15.447   0.602 -0.0716 -0.2298  0.1266
    1W        W54763   9.599  17.467   7.920 -0.0330  0.0493 -0.0297
    1W        W54764   4.277   6.127   8.131 -0.0517  0.4614 -0.0549
    1W        W54765  19.999  13.943   0.689 -0.0324 -0.0259  0.0270
    1W        W54766  13.885  25.220   9.076  0.1997  0.1130 -0.1564
    1W        W54767  14.917  17.248   2.072 -0.2188 -0.0654 -0.3182
    1W        W54768   2.048  26.849   3.079 -0.1413 -0.0735 -0.0827
    1W        W54769  20.480   6.249   8.323 -0.0149 -0.2318 -0.0578
    1W        W54770  15.760  18.146   6.116  0.0012 -0.0462  0.1716
    1W        W54771   3.213  15.995   9.860 -0.0529 -0.2755  0.1084
    1W        W54772  13.354  13.717   1.597  0.2796  0.1976 -0.1552
    1W        W54773  23.531  27.339   7.967 -0.0072  0.0399 -0.0393
    1W        W54774   4.035   7.625   0.996 -0.4067  0.0145  0.2283
    1W        W54775   8.723  26.477   2.528 -0.0220 -0.0875 -0.2457
    1W        W54776   1.714   2.856   3.072  0.0497  0.4027 -0.1100
    1W        W54777  15.784  11.134   0.870  0.0619 -0.0589 -0.1971
    1W        W54778  26.432  12.042   1.406 -0.5447  0.4546 -0.4835
    1W        W54779  11.122  23.933   2.083  0.0423 -0.1067 -0.1532
    1W        W54780  14.790   8.560   8.081  0.0599 -0.4136  0.3210
    1W        W54781  28.626  23.358   1.731  0.0384 -0.2487  0.2390
    1W        W54782  16.244   2.567   7.421 -0.0303  0.1230 -0.1005
    1W        W54783   0.943  19.105   0.460 -0.3997  0.0257 -0.3585
    1W        W54784  10.651  22.298   8.052  0.1384  0.1295 -0.3762
    1W        W54785   2.416  20.470   3.040  0.1384 -0.0727 -0.2053
    1W        W54786  20.860  26.935   9.601 -0.0538 -0.0105 -0.0148
    1W        W54787  23.864   0.613   1.813 -0.0383 -0.1374  0.1841
    1W        W54788  10.824  13.746   7.133  0.2206 -0.0202 -0.2979
    1W        W54789   4.986   5.856   9.741  0.3671  0.2558  0.2121
    1W        W54790  19.275   9.467   8.741 -0.0292 -0.0033 -0.2183
    1W        W54791  19.758  28.747   9.519  0.0103 -0.0285 -0.0264
    1W        W54792   7.111   4.609   8.625  0.1720  0.0084  0.1108
    1W        W54793   7.986  26.903   9.262  0.1241  0.3368 -0.1511
    1W        W54794  15.559  25.661   8.692 -0.0167  0.0942  0.0576
    1W        W54795  14.188   9.475   0.739 -0.0631  0.2688  0.5222
    1W        W54796   8.297  11.471   8.631 -0.0707 -0.1811 -0.1249
    1W        W54797  16.290  21.186   7.808  0.1676  0.2382 -0.0052
    1W        W54798  22.739  20.276   1.406 -0.0368 -0.0435  0.0882
    1W        W54799   2.884   1.998   3.644  0.1699  0.1210 -0.1166
    1W        W54800  27.669  17.822   3.619  0.0462  0.2054 -0.1502
    1W        W54801   2.842  14.184   2.451 -0.1338  0.1897 -0.0492
    1W        W54802  24.361   9.675   9.952  0.2580 -0.1694  0.1242
    1W        W54803   6.991  16.417   8.030  0.3675 -0.4073  0.0962
    1W        W54804  22.417   8.547   6.305  0.1594 -0.1769 -0.1993
    1W        W54805  18.857  21.142   1.032 -0.0016 -0.0142 -0.3371
    1W        W54806  13.657  12.997   1.081 -0.1955  0.0376 -0.2111
    1W        W54807   2.437  23.963   8.621  0.1517  0.0024 -0.1437
    1W        W54808   9.422  16.983   7.611 -0.0759  0.1123 -0.2331
    1W        W54809  25.338  11.358   1.781 -0.0589  0.1700 -0.1814
    1W        W54810  28.833  17.401   9.006 -0.0808  0.0795 -0.1434
    1W        W54811  10.436   8.442   8.680  0.2718  0.1160  0.2343
    1W        W54812  15.464  11.937   0.304  0.3259 -0.4638  0.1482
    1W        W54813  12.003  15.635   2.264  0.0120 -0.1029 -0.1575
    1W        W54814   0.450   6.278   2.607 -0.0318 -0.0733  0.2051
    1W        W54815   1.231   9.521   0.518 -0.0455 -0.0756  0.0135
    1W        W54816   7.868  22.677   8.756 -0.0703 -0.0488  0.1648
    1W        W54817  18.366   0.928   8.340 -0.1624 -0.0927 -0.1525
    1W        W54818  18.983   3.273   1.834 -0.0013  0.2858 -0.1051
    1W        W54819  26.904   0.947   1.880 -0.2122  0.0643 -0.1848
    1W        W54820  23.534   4.590   2.573  0.1057 -0.2069  0.2033
    1W        W54821   4.641  28.145   3.202 -0.2362 -0.0304 -0.0182
    1W        W54822  27.379  17.213   8.094 -0.0181  0.0124 -0.2788
    1W        W54823   7.410  14.309   6.552  0.0691  0.2283  0.0540
    1W        W54824  10.792   6.142   6.955 -0.0601  0.1084 -0.1860
    1W        W54825  10.077   1.250   8.199 -0.2071 -0.1326  0.0748
    1W        W54826  24.854   1.306   8.860  0.1592  0.2137 -0.2345
    1W        W54827  22.685  20.252   9.715 -0.1717 -0.0218 -0.2031
    1W        W54828  14.097  12.504   0.731  0.0967 -0.0310  0.0371
    1W        W54829  27.615   7.113   8.182 -0.1134 -0.0914 -0.1357
    1W        W54830  23.335  19.483   2.131  0.0694  0.1338 -0.1088
    1W        W54831   7.499  26.219   1.571  0.1235 -0.0661  0.2337
    1W        W54832  27.712  19.943   9.645  0.1393  0.1398  0.0589
    1W        W54833   0.663   6.817   2.339  0.0209  0.1870  0.1022
    1W        W54834  18.150   7.075   8.061 -0.0601 -0.2352  0.0039
    1W        W54835   3.389   7.720   1.610 -0.0623  0.0370  0.1573
    1W        W54836  16.569  24.857   9.467 -0.0295  0.2824  0.3148
    1W        W54837  22.747   4.090   7.298 -0.3853  0.1351  0.2481
    1W        W54838   7.129   0.894   2.502  0.0871 -0.1636 -0.1036
    1W        W54839   2.818  12.404   3.060  0.0568  0.1720  0.1175
    1W        W54840  13.765   9.583   7.869  0.1373 -0.0553 -0.1353
    1W        W54841   5.153  27.167   2.563 -0.2765  0.2688 -0.3432
    1W        W54842   3.620   4.508   4.176  0.1524 -0.2085 -0.0952
    1W        W54843  12.192  13.520   6.598 -0.0588 -0.0421  0.0485
    1W        W54844  15.096  16.439   2.010  0.0459  0.1771 -0.1341
    1W        W54845  27.118  25.990   1.196 -0.1211 -0.3676 -0.0863
    1W        W54846  23.214  10.237   1.362 -0.0275  0.1394 -0.0033
    1W        W54847  19.388   5.020   1.654 -0.1598  0.1908 -0.1003
    1W        W54848  15.736  11.103   7.772 -0.1661 -0.0503  0.0492
    1W        W54849  24.589   1.292   1.731  0.1106  0.0979 -0.1691
    1W        W54850   5.909  10.474   0.935  0.2469  0.2594 -0.0633
    1W        W54851  24.853  15.538   2.356 -0.1332 -0.2222 -0.1650
    1W        W54852   2.556  12.386   2.204  0.2411  0.3879  0.2911
    1W        W54853   4.799  15.492   8.352  0.1040  0.2410  0.2606
    1W        W54854   6.083  17.749   0.283  0.1152 -0.1872 -0.0888
    1W        W54855   8.745  19.277   0.135 -0.0901  0.2861  0.2220
    1W        W54856   4.608  26.609   8.162 -0.2914  0.1707 -0.2269
    1W        W54857  12.409   4.608   8.467  0.4510  0.0149 -0.1419
    1W        W54858  20.312  14.867   8.844 -0.0025  0.1065  0.4306
    1W        W54859  27.424   8.652   2.107  0.0410  0.0142  0.0077
    1W        W54860  10.659  26.816   9.940 -0.0205  0.3399  0.1716
    1W        W54861  27.314   6.799   2.683  0.0812  0.1128 -0.1594
    1W        W54862  11.281  13.375   0.619 -0.0747 -0.1232 -0.0662
    1W        W54863  11.147   5.561   0.004 -0.1052  0.1446 -0.1331
    1W        W54864  17.406  21.626   8.937 -0.0610 -0.0466  0.0508
    1W        W54865   4.758   2.363   8.127 -0.1747 -0.2977  0.1974
    1W        W54866  26.952  26.273   8.655  0.0810 -0.0684  0.0068
    1W        W54867   7.668   4.228   7.523  0.1167 -0.0092 -0.0432
    1W        W54868  14.473   0.276   9.808 -0.3458  0.0881  0.1099
    1W        W54869  26.682  24.549   0.946 -0.1764  0.0070 -0.1754
    1W        W54870   1.707   5.517   4.410  0.0065 -0.1790 -0.0515
    1W        W54871  19.436  26.241   7.479  0.1963 -0.0941  0.0626
    1W        W54872  25.989  22.368   1.630  0.0955  0.0526  0.1976
    1W        W54873  16.076   4.726   7.426 -0.1853 -0.0273 -0.3077
    1W        W54874  11.663  12.641   8.809 -0.0431  0.1106 -0.1897
    1W        W54875  23.435   3.690   8.905  0.1270  0.1083 -0.0620
    1W        W54876   2.101  13.154   0.557 -0.2251 -0.0643  0.0021
    1W        W54877   2.351  23.426   1.995  0.0023  0.2477  0.0086
    1W        W54878   0.965   1.167   8.542  0.0034 -0.1802  0.2818
    1W        W54879  25.327   6.187   1.246  0.1326 -0.0518 -0.0385
    1W        W54880   4.492  19.959   8.169 -0.0097  0.0786 -0.0159
    1W        W54881  27.063  15.452   9.180  0.0650 -0.2693 -0.1742
    1W        W54882  24.620  17.373   1.920 -0.0230 -0.2233 -0.0646
    1W        W54883  17.205  13.172   0.798  0.3176  0.0704  0.2952
    1W        W54884   8.086  12.249   1.245 -0.3388 -0.1515  0.0872
    1W        W54885  16.603  26.469   7.629 -0.1065  0.2287 -0.1760
    1W        W54886  18.451  16.594   2.271  0.3950 -0.2156  0.1683
    1W        W54887  19.317   9.781   7.903 -0.0595  0.0069  0.0287
    1W        W54888  15.674   3.261   6.257 -0.4205 -0.1141  0.0169
    1W        W54889  24.440  24.299   7.958  0.5754  0.2044  0.1989
    1W        W54890  27.447  25.675   3.574 -0.0413  0.0507 -0.0224
    1W        W54891  18.625  20.636   6.796  0.0465  0.0673  0.2216
    1W        W54892  21.259   5.743   7.234 -0.0251  0.1561  0.1383
    1W        W54893   0.392   0.394   1.952 -0.1983  0.1308  0.1134
    1W        W54894   7.934  28.086   8.529 -0.2284  0.0594  0.1867
    1W        W54895  17.034  15.430   8.767  0.1623 -0.0049 -0.2595
    1W        W54896  27.818  17.342   3.644 -0.0851  0.1784 -0.0174
    1W        W54897   6.705   7.129   7.670  0.0440  0.0859  0.0966
    1W        W54898  24.455   6.102   7.839  0.0165  0.1046  0.0482
    1W        W54899  27.189  24.019   3.009 -0.0174  0.0804  0.2192
    1W        W54900  28.856  13.361   9.412  0.1152  0.1749  0.1876
    1W        W54901  26.106  22.147   1.125 -0.3131  0.2512  0.0290
    1W        W54902  10.732  28.167   9.870 -0.0509  0.3962 -0.3243
    1W        W54903  26.413   0.314   8.267 -0.0337  0.0966  0.2823
    1W        W54904   2.581  28.742   0.273  0.1750  0.2042 -0.2129
    1W        W54905   6.508  27.799   2.658 -0.2933  0.0969 -0.0678
    1W        W54906  28.636  13.500   8.120  0.2266  0.1286  0.1503
    1W        W54907  15.954   7.106   1.321 -0.0154  0.2812  0.0421
    1W        W54908  13.376  18.611   9.409  0.1442 -0.3719 -0.1097
    1W        W54909  27.480   3.312   1.250 -0.0361 -0.1066 -0.0215
    1W        W54910  14.626  17.405   2.582  0.0830 -0.1109 -0.0331
    1W        W54911  20.576  24.140   2.261 -0.0507  0.1724 -0.1687
    1W        W54912  18.204  11.898   8.073  0.1796 -0.1913 -0.0249
    1W        W54913  16.895  23.261   2.359  0.2666 -0.0973  0.0463
    1W        W54914  16.332   7.404   0.263  0.0854 -0.1249  0.1019
    1W        W54915   9.612  22.476   8.283 -0.0850 -0.0891  0.0517
    1W        W54916  19.671  26.329   9.174 -0.1086  0.2889 -0.1786
    1W        W54917  27.685   0.963   9.271  0.1086 -0.1189  0.0281
    1W        W54918  22.249   0.888   1.140  0.1862  0.3199  0.1743
    1W        W54919   8.460  13.618   1.284 -0.3183 -0.0762 -0.0413
    1W        W54920  16.204   8.916   6.862 -0.1405 -0.0741  0.0621
    1W        W54921  10.394   0.084   1.934  0.2970  0.1996  0.1244
    1W        W54922  28.804   5.220   2.053  0.2109 -0.0943 -0.1727
    1W        W54923  24.537  20.504   2.270  0.0302 -0.0318 -0.0063
    1W        W54924  20.126  16.539   7.108  0.1348 -0.1364 -0.0852
    1W        W54925  23.407  16.115   1.826 -0.2899 -0.1260  0.2572
    1W        W54926  12.728   4.754   7.482  0.2370  0.1449 -0.3773
    1W        W54927  26.590   1.740   8.350  0.0302 -0.0145 -0.1686
    1W        W54928  22.069  16.557   8.541  0.0551 -0.6643  0.0894
    1W        W54929   8.577   9.766   0.986  0.1511  0.0334  0.0091
    1W        W54930  17.035  26.232   0.367  0.0604  0.0967  0.0268
    1W        W54931  16.983  26.426   8.620 -0.0868  0.0605 -0.0373
    1W        W54932  17.135   4.832   9.358 -0.1137 -0.0934  0.3471
    1W        W54933  28.167   5.256   2.906 -0.4533 -0.1078  0.0153
    1W        W54934  20.806   2.894   7.961  0.0792 -0.1113 -0.1083
    1W        W54935  23.844  23.264   2.167 -0.2487  0.0007  0.2926
    1W        W54936  21.073  15.653   7.744 -0.2950 -0.0517 -0.1130
    1W        W54937   2.072  24.470   0.298  0.2468 -0.1293  0.0527
    1W        W54938  23.412   9.992   0.379  0.1321 -0.0389 -0.2506
    1W        W54939  28.388   3.746   1.308  0.1257 -0.2070  0.1381
    1W        W54940   8.146   6.333   9.568  0.3745 -0.2503  0.2589
    1W        W54941  25.900  19.846   1.760 -0.0107  0.0059 -0.0196
    1W        W54942  28.414  22.397   0.259  0.0222  0.1702 -0.0467
    1W        W54943  12.691   2.050   9.183 -0.0590  0.1359  0.1383
    1W        W54944  23.158   7.825   2.400 -0.0135  0.0197 -0.2505
    1W        W54945   2.350   2.374   2.346  0.2749  0.0182 -0.0852
    1W        W54946  13.737   7.591   7.078 -0.1338 -0.2269 -0.2058
    1W        W54947  17.548  21.402   1.267  0.1099  0.2154  0.2508
    1W        W54948  23.147  26.936   1.164  0.0575  0.4001  0.1764
    1W        W54949  23.327  26.364   9.895  0.0231  0.5440 -0.0707
    1W        W54950  12.608  17.499   8.294  0.3111 -0.0060 -0.0099
    1W        W54951  10.376   1.346   2.952  0.1034 -0.3757  0.2630
    1W        W54952   9.560  26.102   7.973  0.0447 -0.2133  0.2515
    1W        W54953  19.525   2.081   0.961  0.1037  0.0819 -0.0308
    1W        W54954   1.248  20.628   9.397 -0.3429 -0.0869  0.0436
    1W        W54955  25.468   7.497   9.958  0.0016 -0.0838 -0.2487
    1W        W54956  12.268  19.883   0.837 -0.2926 -0.1802 -0.0906
    1W        W54957  13.681  23.004   7.821 -0.0066  0.2684 -0.0625
    1W        W54958  25.183   9.050   2.617 -0.0283  0.0776  0.0067
    1W        W54959  16.629  25.367   0.657  0.0445  0.0118  0.3161
    1W        W54960  26.347  27.764   1.040 -0.2188  0.2020 -0.0977
    1W        W54961  24.459  27.530   0.418 -0.1883 -0.3642  0.2450
    1W        W54962  23.210  23.354   7.769  0.2091  0.0528  0.0694
    1W        W54963  26.688  12.514   6.995  0.0627 -0.1931  0.0427
    1W        W54964   4.615  14.449   7.877  0.4612 -0.1131 -0.1889
    1W        W54965   9.539  23.237   0.833  0.2614  0.1296 -0.2118
    1W        W54966  24.358   4.255   3.321 -0.0610 -0.0500  0.0715
    1W        W54967  20.150  20.344   9.767 -0.0317 -0.2490  0.0404
    1W        W54968  28.458  13.312   7.259  0.1598 -0.0639 -0.1428
    1W        W54969  18.025  16.933   8.029  0.2513 -0.1211  0.0406
    1W        W54970   4.832  11.958   8.765 -0.3411  0.3555  0.1493
    1W        W54971  25.736  10.954   9.762 -0.2402 -0.0581  0.1144
    1W        W54972   9.078  11.300   8.370 -0.0964  0.1497 -0.3630
    1W        W54973  16.134  21.590   1.601  0.1838 -0.2488 -0.0056
    1W        W54974  24.992  16.074   9.284 -0.0614 -0.0456  0.0212
    1W        W54975   8.436  18.117   0.046  0.2902  0.2618  0.1968
    1W        W54976  27.370  10.703   9.436  0.2366 -0.1912 -0.1520
    1W        W54977  16.365  22.544   2.283 -0.0524  0.0286  0.2703
    1W        W54978  28.333   8.277   4.345 -0.1516  0.0948  0.0812
    1W        W54979   8.244  10.316   9.700  0.0141 -0.1085  0.0462
    1W        W54980   7.996   4.431   1.841  0.3834  0.0851  0.0439
    1W        W54981   0.538  13.146   9.992  0.0975 -0.0249 -0.1205
    1W        W54982   5.875  24.256   9.185  0.1461 -0.2424 -0.0187
    1W        W54983  17.257  27.407   2.097 -0.2438 -0.1630 -0.2267
    1W        W54984  19.115  25.556   1.899  0.0124  0.1056 -0.0600
    1W        W54985  26.207  20.053   2.622 -0.3106 -0.0716 -0.2358
    1W        W54986  16.485   1.581   1.885 -0.0157 -0.2174  0.2019
    1W        W54987   6.448  13.247   8.007 -0.1552 -0.0160 -0.0388
    1W        W54988  12.043   7.346   1.602  0.3638 -0.1708  0.0121
    1W        W54989  11.545  21.534   3.308  0.2332 -0.1969  0.2027
    1W        W54990   1.798  23.287   8.425  0.0528  0.0494  0.1044
    1W        W54991  13.871  23.425   1.973  0.2491 -0.1712  0.1467
    1W        W54992   4.845   9.775   7.135  0.2284  0.2787 -0.3633
    1W        W54993   7.194  11.852   1.283  0.0915 -0.1949  0.0676
    1W        W54994  26.332  12.763   7.870  0.4213 -0.1895 -0.2212
    1W        W54995  23.660  17.128   2.200  0.2778 -0.0348 -0.1483
    1W        W54996  20.207   0.580   1.643  0.2187  0.0444  0.0761
    1W        W54997  15.757   4.313   8.633 -0.3057 -0.2168 -0.0014
    1W        W54998  14.482   7.967   1.927 -0.0904 -0.2614  0.0658
    1W        W54999   8.216  28.493   2.708 -0.1397  0.3168 -0.3586
    1W        W55000  18.835  10.301   8.603 -0.1850 -0.1989  0.1119
    1W        W55001  24.804   1.404   8.301 -0.1214 -0.0870  0.1675
    1W        W55002  24.660  11.374   7.856 -0.1665 -0.1028 -0.1481
    1W        W55003  24.270  15.094   0.716  0.1018  0.0486  0.3218
    1W        W55004   9.091  28.283   9.222 -0.1149 -0.3953  0.0266
    1W        W55005   1.342  16.543   1.596  0.0643 -0.0876  0.1713
    1W        W55006  26.407  17.056   3.091 -0.3109  0.1598 -0.2928
    1W        W55007  17.734   9.461   5.611 -0.0813  0.2381 -0.2421
    1W        W55008   0.759  20.930   2.478  0.0842 -0.1073  0.1516
    1W        W55009   4.224   5.501   8.127  0.0424  0.0848 -0.0275
    1W        W55010  23.132  19.759   1.286  0.1665 -0.0919 -0.1049
    1W        W55011  28.268  24.513   0.350  0.0096 -0.1966  0.2428
    1W        W55012   4.319  10.149   8.138  0.0781  0.2317  0.3523
    1W        W55013  21.586  15.699   7.809  0.0432 -0.0576 -0.0742
    1W        W55014  26.191  22.180   2.359  0.1467  0.1032 -0.0318
    1W        W55015   1.355  16.011   9.613  0.1775  0.1199  0.2409
    1W        W55016  15.415   6.185   6.545 -0.1045  0.1288  0.0600
    1W        W55017  16.850  21.734   0.834  0.1063  0.1476  0.1786
    1W        W55018   0.363  11.499   7.418  0.1566 -0.1106 -0.1512
    1W        W55019   9.122   7.733   0.214 -0.0660 -0.1067  0.0594
    1W        W55020   0.675  11.425   9.773  0.3483  0.0641 -0.2036
    1W        W55021   9.371  27.661   8.433  0.0457 -0.0634 -0.0575
    1W        W55022  28.816   9.854   2.862  0.0991  0.1818 -0.0503
    1W        W55023  23.889  26.763   2.835  0.0250  0.0103 -0.0778
    1W        W55024  20.403   7.113   6.676 -0.2318 -0.0900 -0.0522
    1W        W55025   2.116  16.316   9.268 -0.0685  0.0006 -0.0586
    1W        W55026  28.412  26.362   1.005  0.1910 -0.2747 -0.0062
    1W        W55027  27.733  23.178   3.286  0.2389 -0.2304 -0.0200
    1W        W55028  10.779  24.804   7.333  0.0648 -0.2778 -0.1736
    1W        W55029  17.770  12.328   1.710  0.0367  0.2423  0.0963
    1W        W55030   3.350   7.923   4.015 -0.0247 -0.0364 -0.2431
    1W        W55031   9.330   0.988   1.777  0.0042 -0.0878  0.2451
    1W        W55032   5.054   5.010   1.885 -0.0714 -0.0994  0.3158
    1W        W55033  21.786  13.353   0.616 -0.2484 -0.2136 -0.3669
    1W        W55034  23.252  22.704   6.926  0.0499 -0.0609  0.1002
    1W        W55035   2.144  26.932   4.188 -0.1085  0.2606  0.1460
    1W        W55036   9.456  18.058   9.359 -0.1108  0.1876  0.3659
    1W        W55037  16.346  23.757   7.648  0.0015  0.0633  0.2545
    1W        W55038  11.837  16.916   8.229  0.0779  0.5690 -0.2506
    1W        W55039  20.393   3.236   1.418  0.0527  0.0331  0.0010
    1W        W55040   4.169   8.383   9.053 -0.0255  0.2189 -0.0244
    1W        W55041  23.716  17.249   8.062  0.1407 -0.1049  0.3370
    1W        W55042   7.947  20.491   2.245  0.1636  0.1161 -0.1297
    1W        W55043  13.930  15.126   7.716 -0.0742  0.2343 -0.0987
    1W        W55044  22.060  11.705   8.396  0.0629 -0.0712  0.0895
    1W        W55045  16.215   2.644   6.926  0.0115 -0.0835 -0.0739
    1W        W55046  20.805   2.426   1.905  0.1615 -0.1770  0.3076
    1W        W55047  17.442  14.018   8.145  0.1967 -0.2520  0.0941
    1W        W55048  17.839  24.321   7.281 -0.4023 -0.1217 -0.1425
    1W        W55049  25.945  17.471   3.605 -0.0507  0.1017 -0.0956
    1W        W55050  28.689   8.796   3.473 -0.1323 -0.1019 -0.0019
    1W        W55051  26.930  15.838   1.665  0.2720  0.0018 -0.0379
    1W        W55052   5.718  23.268   9.314  0.1959 -0.0612 -0.2144
    1W        W55053  19.737  27.406   6.715 -0.1433  0.1454 -0.1472
    1W        W55054  21.008  25.799   7.583 -0.3785  0.1612 -0.1051
    1W        W55055   0.561  10.138   9.482 -0.1923  0.0320 -0.1972
    1W        W55056  19.342  26.133   9.475  0.1211 -0.0965 -0.0492
    1W        W55057  15.142   9.590   9.028  0.1538  0.1961 -0.2586
    1W        W55058   5.954  19.641   7.835  0.1847  0.3803  0.0591
    1W        W55059  26.521  25.841   2.878 -0.2548  0.0356  0.0149
    1W        W55060  11.274   9.396   7.929  0.2364 -0.3596  0.1155
    1W        W55061  16.299  23.200   6.288  0.1754 -0.0398 -0.1815
    1W        W55062  24.013  21.881   6.413  0.1448  0.1373 -0.1982
    1W        W55063  16.307  18.726   2.028  0.0459 -0.2582 -0.1546
    1W        W55064   7.048   0.547   4.252 -0.1335  0.0221  0.1137
    1W        W55065   9.421  22.756   1.005 -0.2474 -0.2528  0.1351
    1W        W55066   4.688  13.087   8.140 -0.2098  0.1640  0.3032
    1W        W55067  23.469  12.669   8.277 -0.1288  0.0787  0.2368
    1W        W55068   5.019   5.206   3.677  0.0626  0.0482  0.1221
    1W        W55069  10.049   6.552   2.171  0.1032 -0.2868  0.0093
    1W        W55070   5.643   6.037   1.425  0.1504  0.3321  0.1018
    1W        W55071   4.811  11.782   2.007 -0.0848 -0.1134 -0.2456
    1W        W55072   8.881  11.101   6.312  0.1070 -0.1452 -0.1759
    1W        W55073   8.966  19.942   7.460  0.1857 -0.2196 -0.0973
    1W        W55074   9.176  19.703   1.370  0.2436  0.2685 -0.3562
    1W        W55075  17.421  10.288   2.146 -0.1421 -0.0728  0.1091
    1W        W55076   4.497  24.933   3.154  0.0777  0.0305  0.0655
    1W        W55077  14.229  18.202   7.127 -0.0758  0.2896 -0.1477
    1W        W55078  12.974   4.734   8.382 -0.2851  0.3601 -0.2235
    1W        W55079   7.187  10.671   1.218  0.0269  0.1403  0.0051
    1W        W55080  10.528  27.745   0.032 -0.4373  0.0458 -0.0617
    1W        W55081   3.202  22.221   0.355  0.0517  0.3100  0.0639
    1W        W55082  20.077  12.011   0.247 -0.0064  0.1113 -0.0108
    1W        W55083  18.093  28.586   7.649  0.1240  0.1587  0.1308
    1W        W55084  13.141  24.317   0.616 -0.1795 -0.0454  0.1108
    1W        W55085   4.709  22.319   0.050 -0.2149 -0.1955  0.0244
    1W        W55086  28.453   7.307   1.774 -0.2692 -0.0360 -0.0240
    1W        W55087  16.523   3.342   8.358 -0.1113 -0.1780  0.1273
    1W        W55088  26.918  21.360   9.787  0.1184  0.2652 -0.2488
    1W        W55089   6.911   0.574   2.836 -0.1681 -0.6308  0.1921
    1W        W55090  20.690   6.234   9.372 -0.0173  0.0976  0.0247
    1W        W55091   9.065  12.155   8.577 -0.4407 -0.0259  0.2224
    1W        W55092   3.674  17.392   2.490  0.0149  0.0850  0.3090
    1W        W55093   3.045  13.359   2.991 -0.0708 -0.2138 -0.0569
    1W        W55094  10.006   5.477   8.705 -0.3357  0.1260 -0.0106
    1W        W55095   7.432   2.406   8.647  0.4094  0.2181  0.3299
    1W        W55096   2.381  19.117   2.735  0.2834  0.0254 -0.2040
    1W        W55097  19.259  26.126   2.595 -0.2051 -0.0407  0.2328
    1W        W55098  21.664  25.447   8.333  0.1042  0.0347  0.2506
    1W        W55099  14.148  10.013   2.040 -0.1929  0.1994  0.4076
    1W        W55100  18.503  22.322   0.333  0.0531 -0.0357  0.2674
    1W        W55101   1.797   5.320   0.190 -0.2895 -0.2303  0.0800
    1W        W55102  10.400   9.162   8.393  0.0356 -0.1763 -0.5052
    1W        W55103   0.387  17.683   9.324  0.0633  0.1633  0.1219
    1W        W55104  15.047  18.325   1.364  0.1173 -0.0817  0.2408
    1W        W55105   3.152   6.127   7.208  0.2336 -0.1663  0.0090
    1W        W55106   2.258  18.716   2.112  0.2372  0.0541  0.0883
    1W        W55107   0.666  11.567   3.459  0.1519  0.0528 -0.1409
    1W        W55108   8.216  10.276   7.944 -0.1461  0.1924  0.0687
    1W        W55109  12.459   9.481   0.993 -0.1473  0.4167  0.1470
    1W        W55110   2.154   2.665   7.543  0.0210 -0.0404  0.1388
    1W        W55111  16.873   5.552   8.806  0.2263  0.0465  0.0250
    1W        W55112  11.229   7.119   6.839  0.0672 -0.1959 -0.0368
    1W        W55113   9.138  15.319   0.030  0.0144 -0.0554 -0.1217
    1W        W55114  26.711  19.301   9.545  0.0724 -0.3450  0.0495
    1W        W55115   5.817  23.198   1.946 -0.0751  0.3573 -0.1001
    1W        W55116   4.510  15.223   8.755 -0.0597 -0.0060 -0.0098
    1W        W55117  14.078  13.527   2.234  0.1603  0.0794  0.0048
    1W        W55118   8.445  18.348   7.803 -0.0086 -0.2349  0.1093
    1W        W55119   7.569  28.143   7.249  0.0406 -0.0616  0.1729
    1W        W55120  22.923  19.553   7.128 -0.0295  0.1548  0.3081
    1W        W55121  27.651  20.763   0.008 -0.0100 -0.1142  0.1086
    1W        W55122   7.590  18.271   8.339 -0.0498 -0.0453 -0.3378
    1W        W55123   8.139   7.554   1.705  0.1993 -0.1797  0.0776
    1W        W55124   2.234  18.556   8.490  0.1282  0.1251 -0.2917
    1W        W55125  21.729  22.530   1.559 -0.0983  0.0897  0.0473
    1W        W55126  28.826   1.811   1.491  0.4523  0.3184 -0.0069
    1W        W55127  16.988  13.007   5.952  0.1990 -0.0963  0.0602
    1W        W55128  13.352   8.680   2.515  0.1304 -0.1166 -0.0398
    1W        W55129  26.146  26.858   8.362 -0.3232 -0.1324  0.1693
    1W        W55130  27.346  22.225   1.110 -0.1212  0.0149 -0.0746
    1W        W55131   3.306  18.035   2.417 -0.3075  0.1804 -0.1896
    1W        W55132  17.439  12.754   1.493 -0.1048 -0.1490 -0.0227
    1W        W55133   2.276  27.491   0.508 -0.3606 -0.0246 -0.2859
    1W        W55134  13.191   8.783   7.041  0.0099  0.1099 -0.2089
    1W        W55135   2.160  10.250   1.219 -0.1383  0.0066  0.1003
    1W        W55136  27.288   8.832   0.121 -0.1886 -0.0922 -0.5259
    1W        W55137  28.158  13.573   8.658  0.1042  0.0088 -0.0842
    1W        W55138  17.754   5.817   1.160  0.1307 -0.2419 -0.0532
    1W        W55139  20.237  10.843   7.178  0.1862  0.3120  0.1932
    1W        W55140  20.781   8.474   6.481 -0.0365  0.2578 -0.1984
    1W        W55141   9.834  15.721   7.837  0.1027 -0.0891  0.0082
    1W        W55142  26.138   0.848   0.716  0.0138 -0.0138 -0.1807
    1W        W55143  23.974  19.984   8.010  0.0818  0.3174  0.1045
    1W        W55144  18.291   5.484   0.363  0.2250 -0.1915 -0.0867
    1W        W55145  13.841  20.516   1.995 -0.0846 -0.0032  0.3673
    1W        W55146   3.630  22.231   8.218  0.1196  0.1980 -0.0807
    1W        W55147  15.387   7.789   8.378 -0.0395 -0.1146  0.1756
    1W        W55148  25.043   9.951   1.866 -0.1773  0.1416  0.0717
    1W        W55149   7.119   9.390   6.435 -0.0277 -0.2205  0.3478
    1W        W55150  23.829  12.060   0.812 -0.1505 -0.2521  0.0383
    1W        W55151   5.694  27.392   1.421 -0.3496 -0.1777  0.0195
    1W        W55152  11.449  20.104   7.407 -0.5265 -0.0465 -0.0662
    1W        W55153  16.898  23.139   7.096  0.0378 -0.1342 -0.4887
    1W        W55154   7.137  13.985   1.912  0.4834 -0.1734  0.2612
    1W        W55155  22.156   0.143   0.724  0.2240  0.0957 -0.0836
    1W        W55156  17.234  10.146   1.156  0.0582 -0.3467 -0.2804
    1W        W55157  22.096  20.497   9.608 -0.0080  0.2947  0.5583
    1W        W55158  14.789  22.304   7.741  0.4992 -0.1806 -0.0932
    1W        W55159  24.381  18.665   1.975  0.3595 -0.0849  0.0497
    1W        W55160   6.250  19.446   1.728 -0.2066  0.1128 -0.2276
    1W        W55161  28.755  19.817   0.468  0.0315 -0.2721 -0.3105
    1W        W55162  15.658  21.789   6.233  0.0682  0.1210  0.4078
    1W        W55163  20.251   6.847   1.322 -0.1118 -0.2213  0.2875
    1W        W55164   7.726  20.699   0.658 -0.1225  0.3415  0.1820
    1W        W55165   5.002  14.733   7.711 -0.2604  0.1095 -0.1542
    1W        W55166   2.039  19.391   7.008  0.0111 -0.1195  0.0129
    1W        W55167  20.935  23.926   8.610  0.1378  0.0470  0.2614
    1W        W55168   9.316  26.562   8.033  0.0383 -0.2030 -0.2000
    1W        W55169  22.927  18.059   9.828  0.3691  0.1394 -0.2518
    1W        W55170  20.448  12.577   8.368  0.0317  0.0673  0.0514
    1W        W55171  15.416  17.669   9.216 -0.0400 -0.1858  0.2067
    1W        W55172   3.145   0.098   3.984 -0.1193 -0.4104 -0.0395
    1W        W55173  11.512  13.635   6.587  0.0838 -0.2135  0.0607
    1W        W55174  17.081  26.187   1.399 -0.1217 -0.2338  0.1956
    1W        W55175  16.184   1.631   8.822 -0.0643  0.2367  0.0721
    1W        W55176  27.016   9.290   1.209  0.0197  0.1688  0.5299
    1W        W55177  11.940   4.712   6.956 -0.2089  0.0706 -0.1747
    1W        W55178  27.318  28.711   9.380 -0.1051  0.0041 -0.0073
    1W        W55179  16.285  12.609   1.681 -0.0963 -0.0771 -0.0028
    1W        W55180  10.549  12.408   9.994  0.2080 -0.0891 -0.0177
    1W        W55181   6.407  19.226   6.631 -0.1644  0.1895  0.1238
    1W        W55182  13.148   6.455   9.651  0.1446  0.0436  0.2338
    1W        W55183  14.766   8.552   0.381  0.0748 -0.0052  0.0320
    1W        W55184   5.126   6.543   7.036  0.2500 -0.2136  0.1139
    1W        W55185   6.732  10.047   9.690  0.1136 -0.1279 -0.1255
    1W        W55186   0.928   9.934   0.599 -0.1688  0.1346 -0.1369
    1W        W55187  12.808  19.515   7.704 -0.2453  0.1690  0.1692
    1W        W55188   1.760  11.438   9.441  0.1212 -0.3626 -0.1345
    1W        W55189  20.595  17.967   0.112  0.0109 -0.1651 -0.0769
    1W        W55190  24.694  28.830   0.299 -0.1779 -0.2727 -0.0955
    1W        W55191   2.952  12.899   9.361  0.0935 -0.0161 -0.1160
    1W        W55192  24.864  13.400   9.638  0.0855  0.0403  0.0606
    1W        W55193  12.277  21.125   0.404  0.0547 -0.2084  0.3311
    1W        W55194   6.099   8.570   0.732  0.0538  0.1043  0.0636
    1W        W55195  20.520   3.491   9.086  0.0928 -0.1968  0.0087
    1W        W55196   4.833   9.265   0.345  0.0484 -0.3046  0.1143
    1W        W55197  20.279   6.032   0.546  0.1037 -0.0246  0.1455
    1W        W55198   4.603  21.277   7.939 -0.2626  0.2300  0.1216
    1W        W55199   6.967  10.688   1.744  0.3166 -0.1905 -0.0540
    1W        W55200   2.552  25.769   9.711 -0.2506  0.3425 -0.2314
    1W        W55201  11.537   8.644   7.932  0.3693  0.0255  0.1535
    1W        W55202  17.531  28.155   7.522  0.2168 -0.1934 -0.0899
    1W        W55203  22.296   9.191   9.468 -0.1847  0.0894  0.1294
    1W        W55204  17.078  10.112   0.093 -0.1355  0.1274  0.1501
    1W        W55205   6.552  21.979   1.270  0.1334 -0.1926 -0.2853
    1W        W55206  17.578  23.159   0.761  0.2048  0.1054  0.2919
    1W        W55207  15.561  11.045   1.295 -0.1571 -0.0711 -0.0503
    1W        W55208   5.871   3.583   9.098  0.1028  0.0509  0.4919
    1W        W55209  19.224  22.802   6.985  0.0310 -0.0575  0.0326
    1W        W55210   0.738  20.737   2.005 -0.2168  0.3494  0.3217
    1W        W55211   0.227   9.034   8.895  0.0420 -0.0093 -0.0162
    1W        W55212   5.039   5.692   2.404  0.1903 -0.0528  0.2034
    1W        W55213   6.948   7.473   9.010  0.1092 -0.0203  0.1800
    1W        W55214  16.230   4.411   1.248  0.2161 -0.2127  0.1639
    1W        W55215   8.888   0.744   8.228 -0.1685 -0.0046  0.0879
    1W        W55216  20.717  13.745   2.240  0.0557  0.1707 -0.1100
    1W        W55217   0.425  17.849   1.069 -0.3802 -0.2524 -0.2253
    1W        W55218  25.394  27.280   8.490 -0.2251 -0.1440 -0.1400
    1W        W55219  27.906   2.824   1.776 -0.1642 -0.0884  0.0709
    1W        W55220  18.363  21.151   0.142  0.1945 -0.0427  0.0783
    1W        W55221   7.810  25.414   1.740 -0.5075  0.3780 -0.1917
    1W        W55222   9.922   1.699   8.737  0.0953 -0.1807 -0.1650
    1W        W55223  26.572   9.208   1.285  0.2160  0.1594  0.0262
    1W        W55224  17.028  13.254   8.470 -0.0137  0.3457  0.0927
    1W        W55225  10.800  26.767   9.165  0.1560 -0.1522 -0.0255
    1W        W55226  16.517   7.939   6.934  0.2584  0.3829 -0.1852
    1W        W55227   8.255   1.234   3.286  0.1020 -0.1268  0.0237
    1W        W55228   2.414   0.653   0.013  0.0885 -0.2780  0.3215
    1W        W55229  19.409  24.850   2.511 -0.1390 -0.1701  0.1383
    1W        W55230   7.548   4.110   4.057 -0.2148  0.1225 -0.0420
    1W        W55231  20.942  25.524   1.803  0.1120 -0.0886  0.1343
    1W        W55232   5.346  15.597   2.836 -0.2363 -0.3697  0.0362
    1W        W55233  15.976  14.974   6.090  0.1521 -0.2887  0.0216
    1W        W55234  19.863  16.920   8.362  0.0994  0.3789 -0.1797
    1W        W55235  24.822   5.208   1.534  0.0294  0.1470 -0.0500
    1W        W55236   6.481  20.613   1.512  0.2190  0.4088  0.0276
    1W        W55237   6.718  18.033   9.097  0.0515  0.4159  0.0689
    1W        W55238   1.388  26.836   7.266  0.0865 -0.1411  0.1090
    1W        W55239  10.236   7.176   1.206  0.1752 -0.2018 -0.1394
    1W        W55240  27.878  25.493   7.459  0.0463 -0.5212  0.0810
    1W        W55241  18.558  15.283   6.427 -0.2969  0.0943  0.1591
    1W        W55242   5.592   4.162   2.132 -0.0668 -0.0513 -0.0380
    1W        W55243  15.374  21.172   8.810  0.0915  0.0076 -0.1367
    1W        W55244  26.381   2.729   1.521 -0.1316 -0.1776  0.2848
    1W        W55245  27.750   4.906   3.850 -0.0503  0.0674 -0.3730
    1W        W55246  13.202  18.678   8.372  0.1165 -0.2094  0.2041
    1W        W55247  18.126  10.808   8.329 -0.0839 -0.1799  0.2930
    1W        W55248  27.161  26.799   1.561  0.1079 -0.0596 -0.0672
    1W        W55249  17.184   6.295   6.121 -0.1397 -0.2282  0.4296
    1W        W55250  11.296  12.108   6.675 -0.2452  0.1348 -0.6257
    1W        W55251  10.735  25.059   0.108 -0.2505 -0.1386  0.1327
    1W        W55252   5.212  14.347   2.236  0.3374  0.0614 -0.1960
    1W        W55253  26.970  17.338   2.778 -0.3376  0.3742 -0.2144
    1W        W55254  14.606  16.893   0.834  0.1564  0.0931  0.0402
    1W        W55255  13.180  17.461   8.103 -0.0915  0.1763  0.1035
    1W        W55256  28.462  12.514   7.241  0.2344 -0.0434 -0.0662
    1W        W55257  22.293   6.550   7.241 -0.2659 -0.3321 -0.0696
    1W        W55258   4.063   1.214   7.438  0.3076 -0.2203 -0.0942
    1W        W55259   6.953   0.624   9.939 -0.1251  0.0306  0.2031
    1W        W55260  10.500   9.606   8.638  0.0323 -0.0255 -0.0393
    1W        W55261  17.638  10.964   6.509  0.0252  0.0720  0.0048
    1W        W55262  10.855  18.683   9.208  0.2353 -0.0078 -0.1665
    1W        W55263  22.426  12.778   9.370  0.2500 -0.0414 -0.2333
    1W        W55264  17.454   8.253   0.782 -0.2854  0.1605 -0.1107
    1W        W55265   3.504  14.002   1.896 -0.0951  0.1888  0.0699
    1W        W55266  27.564  27.140   1.353  0.0560  0.1361  0.0535
    1W        W55267  11.160  12.784   8.125 -0.0669 -0.1023  0.0924
    1W        W55268  23.974  18.131   2.690  0.0540 -0.3679 -0.1034
    1W        W55269   7.970  16.271   1.308 -0.0235 -0.3646  0.1954
    1W        W55270  20.092   3.143   9.754  0.2340  0.1560  0.0623
    1W        W55271   7.079   3.312   2.366 -0.1344 -0.0264 -0.1366
    1W        W55272  12.071  12.982   0.301 -0.2969  0.0532 -0.0362
    1W        W55273  18.730   9.715   0.793 -0.1185  0.2864 -0.2678
    1W        W55274   4.069  15.559   2.279  0.1945 -0.2042 -0.0440
    1W        W55275  22.567  25.205   8.728  0.1663 -0.0555  0.0684
    1W        W55276  25.487  20.123   0.362 -0.1135 -0.0357  0.0731
    1W        W55277  11.221   3.288   0.024 -0.0482  0.2193  0.1159
    1W        W55278   3.981   0.042   7.587 -0.1454 -0.0508  0.0153
    1W        W55279   1.975   8.750   9.974  0.1910 -0.2529  0.3484
    1W        W55280   3.934  18.183   3.084  0.0450 -0.2886 -0.0471
    1W        W55281  16.022  19.217   1.251  0.1214 -0.0537  0.0142
    1W        W55282   0.877  10.669   7.780  0.2797 -0.1506 -0.0685
    1W        W55283  27.197  11.697   1.589  0.2521 -0.1912 -0.0979
    1W        W55284  16.984  22.128   7.376 -0.0106  0.0790  0.0030
    1W        W55285   1.137   6.352   4.447  0.0676 -0.3758 -0.0578
    1W        W55286  24.514  26.342   8.502 -0.0258  0.0814 -0.1929
    1W        W55287  18.642  17.551   9.490  0.0898 -0.2774 -0.0925
    1W        W55288  17.563   3.078   7.872 -0.2369 -0.1981 -0.0517
    1W        W55289   4.187   7.466   2.965 -0.2619  0.0609  0.0647
    1W        W55290   1.871   0.673   3.190 -0.0211  0.2224 -0.1416
    1W        W55291  26.768   6.949   0.212 -0.1654  0.3000  0.2508
    1W        W55292  21.630  18.406   8.073 -0.0764 -0.0226 -0.0294
    1W        W55293   2.410  24.321   2.713 -0.1419  0.0751  0.2110
    1W        W55294   0.895  10.842   3.117 -0.2046 -0.1234 -0.3047
    1W        W55295  13.107  21.763   8.455 -0.0980 -0.1969 -0.0002
    1W        W55296   4.436  25.167   0.162  0.1809  0.1046  0.1047
    1W        W55297  14.840  26.388   0.815  0.2225 -0.0335 -0.0855
    1W        W55298   1.138  26.877   8.149 -0.0483  0.0836  0.0138
    1W        W55299   8.339  11.683   9.618 -0.1082  0.0049  0.0205
    1W        W55300  13.986  24.644   0.209  0.0778 -0.0435 -0.0123
    1W        W55301   1.127  13.865   8.061  0.3256  0.0009  0.0145
    1W        W55302  18.233   3.651   7.325  0.0009  0.1060 -0.0149
    1W        W55303  25.183   1.832   2.332 -0.2270  0.1135  0.1142
    1W        W55304   3.917  28.391   8.221 -0.0051  0.2614 -0.2023
    1W        W55305  14.132  11.449   0.143 -0.0792  0.4176  0.0063
    1W        W55306  10.151  19.235   2.589 -0.2267 -0.2414  0.2831
    1W        W55307   7.193  10.628   9.159 -0.3007 -0.0115  0.0642
    1W        W55308  22.799  13.200   8.242 -0.0406 -0.0410 -0.0083
    1W        W55309   3.711   0.815   1.140 -0.1337 -0.0557  0.1754
    1W        W55310  11.024  21.097   8.675 -0.0139 -0.1025 -0.1416
    1W        W55311   1.744   8.323   6.964 -0.1495  0.3001 -0.1984
    1W        W55312   1.724  15.278   1.152  0.1446  0.0503 -0.1301
    1W        W55313  23.792   3.408   0.331 -0.0095 -0.0068 -0.0275
    1W        W55314   6.131  24.227   2.725 -0.0800  0.0021  0.1057
    1W        W55315  24.831   5.313   8.363  0.1602  0.0378 -0.0752
    1W        W55316  10.076  20.717   7.858 -0.0301  0.1846 -0.1539
    1W        W55317   7.778  21.620   9.856 -0.1958 -0.1969 -0.0910
    1W        W55318  13.008  26.322   9.220  0.1503 -0.1921  0.0059
    1W        W55319   1.200  18.709   0.561 -0.1982 -0.3111 -0.0277
    1W        W55320   5.841   9.963   0.939 -0.1089 -0.1674  0.1800
    1W        W55321  18.076   7.634   6.006  0.0972  0.2609  0.1744
    1W        W55322   2.194  13.012   3.168 -0.2267  0.1542  0.1989
    1W        W55323  10.907  14.104   7.486  0.2466  0.2207 -0.0615
    1W        W55324  27.394  22.808   7.960  0.0028 -0.2587  0.0806
    1W        W55325  11.827   4.662   1.499 -0.2307  0.0509  0.1892
    1W        W55326   9.695  19.555   9.799  0.0009 -0.1277  0.0990
    1W        W55327  16.875  14.070   6.761 -0.1150  0.1616  0.1537
    1W        W55328   7.888  27.232   8.901  0.0861  0.2301 -0.0498
    1W        W55329  26.309  15.862   9.774  0.1129  0.0683  0.0865
    1W        W55330  21.865  25.078   0.133  0.2102 -0.0067  0.0073
    1W        W55331  12.818  16.269   2.085  0.2719  0.1462 -0.1994
    1W        W55332   1.725  16.408   9.549  0.1908 -0.0112 -0.5487
    1W        W55333  21.609  20.758   0.605  0.0509  0.3504 -0.1012
    1W        W55334   1.477  28.273   7.796 -0.1833  0.1139  0.2758
    1W        W55335  10.476  22.173   7.263 -0.0889 -0.1971  0.0459
    1W        W55336  27.877  13.621   9.822 -0.0551  0.3214 -0.3534
    1W        W55337   2.943   5.941   0.834 -0.1436  0.0719  0.0122
    1W        W55338  12.993   2.181   8.299 -0.0404 -0.2234 -0.1221
    1W        W55339  28.213  26.500   9.732  0.4208  0.0539 -0.0673
    1W        W55340   1.036  13.133   0.096  0.0238  0.2356  0.1309
    1W        W55341   1.643  17.943   8.000  0.0517  0.1856 -0.0084
    1W        W55342  18.066  24.221   6.696 -0.3210 -0.0920  0.0064
    1W        W55343  18.179  13.626   2.748  0.1625 -0.1756 -0.2979
    1W        W55344  11.439   7.248   1.749  0.0419 -0.1524 -0.0330
    1W        W55345  17.285  23.615   8.256 -0.2058 -0.1499 -0.1148
    1W        W55346   5.573  16.464   2.121 -0.0643  0.2444 -0.1471
    1W        W55347   5.562  18.466   3.533 -0.0446  0.1399  0.0856
    1W        W55348   5.884  28.179   3.700 -0.0478  0.2112  0.3697
    1W        W55349  27.566   0.857   3.934 -0.0232  0.0713  0.3711
    1W        W55350  17.721   7.172   7.739 -0.0247 -0.0436 -0.3175
    1W        W55351  20.986  16.847   8.092 -0.0691  0.1951 -0.0208
    1W        W55352  11.522   5.249   9.314 -0.0375  0.1352 -0.0573
    1W        W55353   4.610  21.170   1.175 -0.0603  0.1085  0.3425
    1W        W55354   1.224  28.576   0.504  0.1264 -0.0545  0.1949
    1W        W55355  10.543  25.393   9.715 -0.0647  0.2522 -0.2333
    1W        W55356  24.431   7.506   9.847 -0.0111  0.1453 -0.3399
    1W        W55357  21.024  22.196   7.398 -0.1300 -0.2076  0.3971
    1W        W55358  12.494  27.436   0.749 -0.0125  0.1015  0.2169
    1W        W55359   5.074  11.511   9.748  0.3957 -0.2114  0.0592
    1W        W55360  26.505  26.880   0.765 -0.2208  0.2729  0.0575
    1W        W55361  10.321  25.085   7.544 -0.1942  0.0690 -0.0065
    1W        W55362  26.104   1.270   9.888 -0.1676 -0.1851 -0.1383
    1W        W55363  16.893  15.739   6.956 -0.3984  0.0333 -0.1742
    1W        W55364  24.329  15.721   0.439  0.1719 -0.3352  0.0466
    1W        W55365  19.943  23.574   9.567 -0.1264  0.2699 -0.1335
    1W        W55366  14.508  11.097   0.049  0.1595 -0.1786  0.1550
    1W        W55367  24.947  27.684   8.420  0.0235 -0.2864 -0.3047
    1W        W55368  19.780  25.665   8.695 -0.0552  0.1032  0.3525
    1W        W55369   9.267  10.820   7.676 -0.1565 -0.1363 -0.1235
    1W        W55370  19.333  14.398   1.509 -0.1985 -0.2119 -0.4060
    1W        W55371  18.001  16.864   6.572 -0.0003  0.0084  0.1532
    1W        W55372  16.144  25.784   1.410 -0.0853  0.3906 -0.2088
    1W        W55373  12.021  23.198   1.937  0.1169 -0.0815 -0.3200
    1W        W55374   6.759  17.671   2.601  0.3273  0.0358 -0.2785
    1W        W55375  16.848  16.208   6.778  0.2666 -0.0516  0.1226
    1W        W55376  17.353  16.399   1.680  0.0847  0.0704 -0.1040
    1W        W55377   2.443  15.769   8.715 -0.2157  0.0093 -0.1310
    1W        W55378   6.499  25.943   2.487 -0.2734 -0.1706  0.1256
    1W        W55379  22.460  15.427   5.834 -0.2658 -0.0713 -0.1562
    1W        W55380  23.928  23.401   0.790 -0.0441  0.3684 -0.2641
    1W        W55381  15.303  20.803   2.829 -0.2079  0.0929 -0.0734
    1W        W55382  16.819  27.221   1.581  0.1803  0.3207 -0.1008
    1W        W55383  27.545   9.560   8.145  0.0595 -0.2113 -0.0047
    1W        W55384   7.598  24.873   1.786 -0.1507  0.2552 -0.2495
    1W        W55385  22.173   1.952   7.797  0.0340  0.0178  0.0903
    1W        W55386  24.739  16.541   2.670  0.0439 -0.0385 -0.1978
    1W        W55387   2.609   2.407   1.406  0.0555 -0.1557 -0.0447
    1W        W55388  18.766  10.297   6.743  0.0351 -0.4024  0.0616
    1W        W55389   5.597  16.681   6.534  0.0052 -0.0296  0.3728
    1W        W55390   6.340   9.252   1.382  0.0537 -0.1739  0.0392
    1W        W55391   3.615   1.202   0.272 -0.0614 -0.1827  0.1126
    1W        W55392   0.777   3.793   3.825  0.2622 -0.3546  0.3223
    1W        W55393  14.981  26.477   7.615 -0.0724 -0.0203 -0.1371
    1W        W55394   2.430  17.983   0.797 -0.4746  0.1381  0.1523
    1W        W55395  17.335  28.106   6.392 -0.1369  0.0822 -0.2027
    1W        W55396  14.068   5.752   7.862  0.0845 -0.3091 -0.1993
    1W        W55397  21.990   8.671   7.383  0.1540 -0.2170 -0.0877
    1W        W55398   3.233  18.333   7.828 -0.1373 -0.0340  0.1070
    1W        W55399  12.890  27.000   2.772 -0.1533  0.0030 -0.0735
    1W        W55400  24.920  23.404   1.766 -0.2535  0.0982  0.3516
    1W        W55401  22.199  13.313   0.333 -0.0506 -0.0579  0.2151
    1W        W55402  27.150  24.960   2.358 -0.0593  0.0543  0.3522
    1W        W55403  26.817  19.680   3.862  0.5716  0.0280  0.2031
    1W        W55404  18.335  28.493   0.816  0.2461 -0.0978  0.1807
    1W        W55405   8.801  23.406   7.689  0.2143 -0.1229  0.3293
    1W        W55406   7.461  25.803   0.380 -0.0949  0.3603 -0.0630
    1W        W55407  12.550  12.321   7.526 -0.2220 -0.1495  0.1651
    1W        W55408  27.936   5.576   3.823 -0.1191 -0.2810 -0.0824
    1W        W55409  14.298  22.526   1.405 -0.3515 -0.3341  0.2999
    1W        W55410   7.623  17.182   1.110  0.1462  0.0965 -0.2580
    1W        W55411   3.068  14.543   7.529 -0.0848  0.3689  0.0026
    1W        W55412   1.740  10.863   9.213  0.3483  0.1857  0.2291
    1W        W55413   1.418  16.032   3.046 -0.1930  0.0581 -0.2345
    1W        W55414  24.669   3.486   0.422 -0.0513  0.0615 -0.1324
    1W        W55415  16.186   7.746   9.452  0.3253 -0.2011 -0.0797
    1W        W55416  15.504   9.570   7.740  0.0191  0.0413  0.1690
    1W        W55417   8.011   8.692   7.468  0.2944  0.2841 -0.0802
    1W        W55418   3.069   0.755   8.513 -0.0609  0.1463 -0.2248
    1W        W55419   2.764  25.983   1.717  0.0141 -0.0691 -0.0308
    1W        W55420  19.723   8.922   1.245  0.0731 -0.5679  0.0979
    1W        W55421  15.215  26.230   1.111  0.0347  0.2058 -0.1148
    1W        W55422  12.917   7.211   9.293 -0.2201 -0.1790  0.0774
    1W        W55423  14.574  27.955   6.588 -0.0072  0.0045  0.1500
    1W        W55424   4.058  22.884   0.219  0.2321  0.1027  0.1869
    1W        W55425   3.708  28.788   1.347 -0.1389  0.3072 -0.0344
    1W        W55426   2.937   9.570   0.190 -0.2581 -0.0727 -0.3088
    1W        W55427  14.461  26.647   7.199  0.0295  0.0063  0.1065
    1W        W55428   3.836  18.580   1.143 -0.1342  0.0546 -0.0157
    1W        W55429  19.218  10.623   8.332 -0.0018 -0.2644 -0.1673
    1W        W55430   6.516  10.820   1.863  0.2136  0.0807  0.1036
    1W        W55431   3.789  22.565   0.497 -0.1017 -0.1213 -0.0621
    1W        W55432   2.365  15.589   1.398  0.1071  0.1417 -0.1871
    1W        W55433   7.856  21.590   7.516  0.0341  0.2418  0.0960
    1W        W55434  24.683   0.498   1.771  0.0611 -0.1437  0.2306
    1W        W55435   2.354  19.594   9.265  0.0551 -0.2820 -0.0680
    1W        W55436   5.630  18.906   9.302  0.1567  0.0326 -0.1607
    1W        W55437  22.270  19.916   9.625 -0.1200  0.1914  0.1560
    1W        W55438  13.796   5.569   0.772 -0.2441 -0.1448  0.0484
    1W        W55439   6.606  16.050   6.656 -0.0215  0.0743  0.2068
    1W        W55440  27.117   8.743   2.538 -0.1099  0.1396 -0.1054
    1W        W55441   4.595   7.489   7.971 -0.0075  0.0942  0.3386
    1W        W55442   6.433  10.166   0.078 -0.1281  0.0144 -0.2450
    1W        W55443   6.064   3.134   1.141 -0.0705  0.0799 -0.3666
    1W        W55444   9.142  22.307   8.546  0.3210 -0.1719  0.2289
    1W        W55445  22.444   1.328   1.104 -0.1768  0.0961 -0.2519
    1W        W55446  18.146  25.061   7.686 -0.1301  0.2332  0.2921
    1W        W55447   9.437  21.061   2.066  0.1829  0.2377  0.0915
    1W        W55448  22.783  11.677   1.331  0.0867  0.1302 -0.2426
    1W        W55449   5.269  23.344   9.485  0.0690 -0.1494 -0.2160
    1W        W55450  18.436   2.844   0.222 -0.0443 -0.1828  0.2967
    1W        W55451  17.497   2.549   8.126 -0.0847 -0.1068  0.0670
    1W        W55452  22.931  11.939   2.302  0.1079 -0.1137  0.3148
    1W        W55453   2.735   5.893   1.315  0.1831 -0.3813  0.0719
    1W        W55454   6.398  13.756   7.841  0.1102 -0.0005  0.2402
    1W        W55455   2.859  15.150   1.972  0.0135 -0.3684  0.1690
    1W        W55456   4.093   1.069   2.636 -0.0461  0.0089 -0.1837
    1W        W55457  10.002  26.966   9.149 -0.1683 -0.2005 -0.0329
    1W        W55458  21.921  26.712   1.135  0.0699 -0.0035 -0.1402
    1W        W55459  14.341  26.722   9.420  0.2069  0.0539  0.0052
    1W        W55460  16.672  19.882   6.997  0.1997  0.1616  0.0542
    1W        W55461   9.111   5.792   7.567  0.1886 -0.0123 -0.1654
    1W        W55462   9.496   6.607   6.917 -0.1167 -0.0948 -0.1727
    1W        W55463  28.797  27.747   2.881  0.2046 -0.1719  0.0241
    1W        W55464  15.188  10.970   6.105 -0.2067 -0.1794 -0.3252
    1W        W55465  28.392   8.301   8.032  0.0267  0.1867  0.2015
    1W        W55466   0.252  15.577   2.908  0.4418  0.3836 -0.2899
    1W        W55467   7.477  10.417   0.311  0.0946  0.0192 -0.0739
    1W        W55468  19.258  27.560   9.990  0.1511 -0.0056 -0.1069
    1W        W55469   9.775   2.258   7.086 -0.2554  0.4163  0.0172
    1W        W55470  27.315  18.571   8.839 -0.0902 -0.3439 -0.0924
    1W        W55471  23.044  18.541   8.956  0.0229  0.2111  0.2165
    1W        W55472  23.592  21.700   8.004 -0.0845  0.0689  0.1780
    1W        W55473  15.700   9.401   1.661 -0.2199  0.3065  0.0310
    1W        W55474  24.808  25.586   1.417 -0.0844 -0.2442  0.0558
    1W        W55475  10.924  27.226   8.997 -0.0094 -0.1726  0.1284
    1W        W55476   3.432   9.197   0.027 -0.6023  0.0797  0.1697
    1W        W55477  11.384  13.334   7.037  0.2564  0.0406 -0.0710
    1W        W55478  12.064  15.943   7.140  0.0957 -0.0822 -0.0085
    1W        W55479  11.298  17.242   8.092 -0.0493  0.2808 -0.1455
    1W        W55480  14.998   2.027   1.806 -0.1602  0.1199 -0.1609
    1W        W55481  23.347  16.571   2.080  0.1167 -0.1749 -0.1426
    1W        W55482  19.491   4.307   7.750 -0.1508  0.0564 -0.1380
    1W        W55483  25.041  13.848   3.293 -0.1289  0.0996 -0.5152
    1W        W55484  20.757  26.118   1.067 -0.0873 -0.0297 -0.0318
    1W        W55485  22.986  12.595   0.169  0.4318  0.1599 -0.1571
    1W        W55486   9.767  27.483   2.972  0.0119 -0.1400  0.3480
    1W        W55487  21.959  12.371   8.220  0.0090  0.0755 -0.1846
    1W        W55488  12.081  25.090   0.069 -0.2147  0.1450 -0.0858
    1W        W55489  18.152  24.308   1.496  0.0966  0.1292 -0.2950
    1W        W55490  19.643  22.630   0.360 -0.4702 -0.1888 -0.0436
    1W        W55491  19.689  26.133   8.747  0.0800 -0.1209 -0.1518
    1W        W55492   5.830  28.463   8.085 -0.0709 -0.1949 -0.1193
    1W        W55493  15.793  18.246   2.588  0.0908 -0.1061 -0.0949
    1W        W55494  23.407  17.519   0.699  0.0511 -0.0884 -0.0151
    1W        W55495  10.334   0.759   2.115  0.2729 -0.0273 -0.3945
    1W        W55496  23.595   9.608   8.176  0.0444  0.3222 -0.1840
    1W        W55497  12.885  14.979   7.407 -0.0113 -0.0384 -0.1078
    1W        W55498  26.276  13.148   7.491  0.0550 -0.1801  0.1110
    1W        W55499  28.729  28.121   4.537  0.1970  0.0575  0.2222
    1W        W55500  12.797  28.329   7.610  0.0531 -0.2095  0.0456
    1W        W55501  16.745  16.357   9.394 -0.0317 -0.0904  0.3084
    1W        W55502  10.834   1.003   0.169  0.0707 -0.0094  0.0232
    1W        W55503  26.175  15.357   7.533 -0.2437 -0.0031 -0.1012
    1W        W55504  26.642   7.339   2.142  0.0184  0.0145  0.2721
    1W        W55505  16.110   5.897   9.281 -0.0967  0.3275 -0.2916
    1W        W55506  23.169  12.329   0.674 -0.0277  0.3563  0.2705
    1W        W55507  16.141  16.867   8.966  0.0603 -0.0260  0.3142
    1W        W55508  13.029   7.852   5.942  0.1499  0.2103 -0.5004
    1W        W55509  27.197  21.681   1.660 -0.0016 -0.1249  0.1186
    1W        W55510   6.571   8.293   3.072  0.0262  0.0524  0.0671
    1W        W55511  23.044   1.781   2.163 -0.0374  0.0540 -0.1326
    1W        W55512   2.863   9.853   2.953 -0.0038  0.2551 -0.0581
    1W        W55513  15.017  12.469   0.827  0.0193 -0.0430 -0.2153
    1W        W55514   1.282   4.446   3.580 -0.1038 -0.0743 -0.0079
    1W        W55515  21.670  22.958   1.999  0.2399 -0.0804  0.0484
    1W        W55516  28.333   5.100   1.930 -0.2175  0.1487 -0.0849
    1W        W55517  18.366  18.929   7.352 -0.3970  0.1156  0.1638
    1W        W55518  19.733  28.857   8.321  0.1696  0.1664  0.0417
    1W        W55519   2.481  27.737   2.224  0.2077  0.0477  0.0246
    1W        W55520  20.806  21.114   1.963  0.2355  0.0867  0.2424
    1W        W55521  19.424  16.369   9.379  0.0881 -0.2472 -0.2202
    1W        W55522   8.661   7.319   6.562 -0.1171 -0.0823 -0.1053
    1W        W55523   3.420  28.541   8.229  0.0397  0.0901 -0.1816
    1W        W55524  25.750   1.921   1.405 -0.1226  0.0247 -0.5922
    1W        W55525  17.599  20.281   9.367 -0.1145  0.1307 -0.1388
    1W        W55526  25.476  23.493   0.776  0.0853 -0.0471 -0.4069
    1W        W55527   2.653  16.174   7.961  0.0362 -0.2087  0.0340
    1W        W55528   3.719  28.705   2.320  0.0623  0.1870  0.2490
    1W        W55529  11.227  10.226   8.611  0.2186 -0.0865  0.0878
    1W        W55530  25.072  16.675   7.666 -0.1432  0.3848 -0.1835
    1W        W55531  28.667  28.649   2.916 -0.1012 -0.0595 -0.0256
    1W        W55532  10.395  18.946   9.351  0.1398 -0.0481  0.1532
    1W        W55533  13.514  21.890   2.579 -0.0730 -0.0352  0.2195
    1W        W55534  22.104  14.657   1.048 -0.0265  0.0075  0.0210
    1W        W55535  23.088  24.954   8.004 -0.1208  0.2159 -0.1454
    1W        W55536   0.516   3.833   4.350 -0.1911  0.2511  0.1977
    1W        W55537  20.203   0.140   6.761 -0.2776  0.1624 -0.0727
    1W        W55538   8.696   7.775   7.599  0.1830 -0.2053  0.2270
    1W        W55539  22.723  17.007   6.715 -0.1649 -0.1623  0.1598
    1W        W55540  20.890   2.666   8.888  0.1646 -0.3177  0.0096
    1W        W55541   4.380   1.384   1.895 -0.1905  0.2100 -0.4247
    1W        W55542   9.343  20.093   2.160  0.0414 -0.1603 -0.2795
    1W        W55543  17.535   0.109   8.792  0.5275  0.2246 -0.0828
    1W        W55544   6.591  27.757   9.424 -0.4657 -0.1103 -0.1838
    1W        W55545   4.960  12.033   9.497  0.2245 -0.0845 -0.1061
    1W        W55546  16.121  24.947   0.176  0.1373  0.2126  0.0392
    1W        W55547   8.113  15.300   9.049  0.0575 -0.0917 -0.3468
    1W        W55548   7.165  27.675   3.833 -0.1556 -0.1640 -0.0892
    1W        W55549  10.091  28.464   7.435 -0.0907 -0.2703  0.0868
    1W        W55550  18.444  18.750   7.968  0.1488 -0.2771  0.1422
    1W        W55551   8.800  25.143   7.639 -0.0758  0.0325  0.2294
    1W        W55552  13.981  16.451   9.626 -0.0607 -0.1244 -0.0094
    1W        W55553  20.720  10.121   6.820  0.1127 -0.1962 -0.0903
    1W        W55554  25.203  21.991   0.996  0.3665  0.2416 -0.1312
    1W        W55555  11.068  16.516   8.957  0.2264  0.1302 -0.0240
    1W        W55556  18.778  26.023   1.030 -0.0241  0.0750 -0.0132
    1W        W55557  24.682  21.867   0.966  0.1083 -0.1625  0.1297
    1W        W55558   6.634   4.252   1.425 -0.1627 -0.4925 -0.1796
    1W        W55559  15.163  26.174   1.734 -0.1772  0.0565  0.1549
    1W        W55560   9.269  21.500   9.040  0.0052  0.2191 -0.0610
    1W        W55561  22.426   8.219   6.667  0.1707 -0.1451  0.0304
    1W        W55562  26.211   6.007   1.925 -0.1207  0.3685  0.2185
    1W        W55563  21.013  23.177   1.354 -0.0775  0.1541  0.2392
    1W        W55564  11.431  15.660   7.644  0.0009  0.2533 -0.0632
    1W        W55565  11.333   2.844   7.621  0.3509  0.1119  0.1155
    1W        W55566   6.969  23.217   7.163 -0.1690  0.3129  0.0547
    1W        W55567   6.857   8.104   0.215  0.0934  0.0278 -0.0122
    1W        W55568  24.031   5.180   9.074  0.1629 -0.0063  0.1313
    1W        W55569   3.454  18.736   8.018 -0.0885  0.1268 -0.4673
    1W        W55570  21.195   6.839   1.544 -0.3738  0.1544 -0.2225
    1W        W55571   5.490  14.459   9.277 -0.1461  0.1360  0.0643
    1W        W55572  16.166  14.964   9.337 -0.0956 -0.0028 -0.2425
    1W        W55573  27.125  14.567   2.045  0.1039  0.0912  0.3248
    1W        W55574   7.555  12.990   8.517  0.0023  0.2158  0.1350
    1W        W55575  25.144   2.723   1.406 -0.4441 -0.0258 -0.2060
    1W        W55576  15.756   6.284   5.347  0.1419 -0.1009  0.2899
    1W        W55577  28.314  19.753   2.969 -0.3406 -0.3188 -0.2810
    1W        W55578   9.475  23.995   1.556  0.0523  0.2284  0.0575
    1W        W55579   3.523   0.391   3.865 -0.0865  0.2701  0.1175
    1W        W55580  15.439  27.312   9.563  0.0359 -0.0857  0.1722
    1W        W55581   2.246   9.066   0.593 -0.1109  0.3273  0.0823
    1W        W55582  20.824  15.792   6.171 -0.0452  0.1411  0.4489
    1W        W55583  20.050   6.150   7.554  0.0119  0.0005  0.2464
    1W        W55584  24.737   5.576   0.468  0.0637  0.1609  0.1588
    1W        W55585  10.632   8.791   1.573  0.1250  0.1131  0.0553
    1W        W55586   5.936   4.118   3.649  0.3616  0.2685 -0.0714
    1W        W55587   8.080  15.644   8.664  0.1213  0.0403 -0.0611
    1W        W55588  26.004  23.399   1.147 -0.0320 -0.2301  0.1639
    1W        W55589   8.501  19.076   9.730 -0.5116 -0.2295 -0.1133
    1W        W55590  18.323  28.417   8.096 -0.0754 -0.1433 -0.3124
    1W        W55591  11.905  19.602   2.517  0.3259 -0.0837 -0.1718
    1W        W55592  16.156  25.811   6.941  0.3481  0.0578  0.1326
    1W        W55593  11.532  19.938   0.260 -0.1654  0.3492 -0.1680
    1W        W55594   8.610  23.952   8.985 -0.1166  0.0499  0.0809
    1W        W55595   5.348  27.881   2.169  0.0607 -0.2174 -0.2225
    1W        W55596  28.542  19.788   8.866  0.1028  0.0744 -0.1633
    1W        W55597  12.194   5.218   7.008 -0.0755  0.3854 -0.0918
    1W        W55598   3.526   2.287   7.740  0.1584  0.0930  0.0628
    1W        W55599  25.418  10.285   7.605 -0.0571  0.0396  0.4422
    1W        W55600  21.823   6.027   9.950 -0.2451  0.1188  0.0621
    1W        W55601   3.086  14.838   6.688  0.0044 -0.2403  0.3487
    1W        W55602   9.565  23.958   9.231 -0.2013 -0.0252  0.2600
    1W        W55603  17.395   8.460   6.963 -0.0316  0.1557  0.1032
    1W        W55604   4.713   3.536   9.727  0.0258 -0.5424 -0.0619
    1W        W55605  25.243   2.173   0.467  0.0766  0.2343 -0.1291
    1W        W55606  15.022  24.873   7.310  0.1372 -0.1962  0.0764
    1W        W55607  15.224   3.600   7.442  0.1138  0.0266 -0.1755
    1W        W55608  14.041  23.197   8.487 -0.0433  0.0685  0.0647
    1W        W55609   3.505  17.527   3.036 -0.2287  0.0595  0.0968
    1W        W55610  14.379   9.001   0.381 -0.0651 -0.0650  0.3481
    1W        W55611  13.366  13.752   0.136  0.3590  0.0657  0.0685
    1W        W55612  21.375  11.634   0.313 -0.1726  0.0722 -0.0079
    1W        W55613  13.958   8.211   9.175 -0.0952  0.1341  0.2026
    1W        W55614   7.808   8.990   1.950 -0.0728 -0.1603  0.3856
    1W        W55615   6.216  27.038   2.268 -0.2367 -0.0648 -0.1000
    1W        W55616  22.527   6.268   9.231 -0.0305 -0.1180  0.0761
    1W        W55617   0.537  27.068   2.535 -0.3054  0.1210 -0.0757
    1W        W55618   9.130   8.185   2.618 -0.0813  0.0751 -0.0354
    1W        W55619  11.459  12.377   1.390  0.0151  0.4650 -0.1145
    1W        W55620  10.484  19.770   0.076  0.0415 -0.0361 -0.2000
    1W        W55621  26.112  22.383   7.900 -0.3870 -0.1094  0.2582
    1W        W55622   1.898   4.526   3.644 -0.1482  0.1112  0.2807
    1W        W55623   1.725  22.899   1.265 -0.2256  0.1319 -0.2405
    1W        W55624   1.287   9.041   1.355 -0.0074 -0.3285 -0.1914
    1W        W55625  27.769   2.985   3.350 -0.0158  0.1344 -0.2720
    1W        W55626   2.703   2.069   8.082  0.0671 -0.0694  0.0836
    1W        W55627  12.611  24.748   0.132 -0.1256  0.1125  0.0996
    1W        W55628  28.314  12.024   0.690 -0.0878 -0.0086 -0.2945
    1W        W55629   5.438  26.757   4.172  0.0341  0.2507 -0.1489
    1W        W55630  16.596  27.457   7.533  0.3187 -0.3491 -0.2171
    1W        W55631   1.695  11.786   3.849  0.3544  0.3849 -0.2937
    1W        W55632   7.808   5.951   6.815  0.2393 -0.4413  0.1556
    1W        W55633  24.943  23.646   0.741  0.1009  0.2179  0.0624
    1W        W55634  16.734   2.747   9.287  0.2125  0.1917  0.0606
    1W        W55635   9.599  27.445   0.332 -0.0057 -0.1297  0.0150
    1W        W55636   2.962  12.309   7.379  0.1386  0.1657 -0.2219
    1W        W55637  18.513   6.825   9.643 -0.0597 -0.1650  0.0386
    1W        W55638  17.322  10.852   0.217  0.2033  0.0164  0.1652
    1W        W55639   1.339  12.715   3.656 -0.1022 -0.1014  0.0307
    1W        W55640   3.410  15.224   1.907  0.0816  0.0023 -0.0399
    1W        W55641  12.137   7.728   9.186  0.0759  0.0534 -0.0887
    1W        W55642   2.596  14.657   1.246  0.0047  0.0699 -0.0313
    1W        W55643  23.954  27.965   1.783  0.0693  0.0048  0.3311
    1W        W55644   4.527  16.206   0.150  0.0649 -0.0216 -0.2328
    1W        W55645  11.729  17.561   3.067 -0.2726 -0.0069  0.1326
    1W        W55646  13.709   3.615   8.048 -0.2239  0.2417 -0.0503
    1W        W55647   5.384  14.138   1.222  0.1948 -0.2540 -0.1279
    1W        W55648   1.751  22.577   3.255 -0.0914 -0.0181  0.1705
    1W        W55649  28.641   8.958   1.237 -0.2537  0.1317  0.0810
    1W        W55650   0.325   2.310   0.527 -0.4812  0.0674 -0.0538
    1W        W55651  25.316   9.549   1.599 -0.0081 -0.0396 -0.0524
    1W        W55652  20.943   5.990   9.787  0.2277 -0.4656  0.2376
    1W        W55653  12.985  12.100   7.755 -0.0988 -0.0141 -0.1815
    1W        W55654  25.037  18.969   7.472 -0.5026  0.0235  0.1136
    1W        W55655   7.030  26.640   8.982 -0.0141  0.4178  0.0441
    1W        W55656  21.348  24.480   1.483 -0.2676  0.0021 -0.1246
    1W        W55657  10.356  20.353   8.347  0.1270  0.0781  0.0339
    1W        W55658  28.521  25.845   7.334  0.4227 -0.0210  0.0880
    1W        W55659   3.250  14.102   1.004 -0.3939  0.1211  0.0084
    1W        W55660   2.331  28.201   1.813  0.2419 -0.0189 -0.1008
    1W        W55661  11.978   7.276   8.332 -0.0426 -0.1716 -0.0437
    1W        W55662   3.145  12.109   7.887  0.1828 -0.0228 -0.1636
    1W        W55663  25.633  14.199   0.795  0.0368 -0.4338  0.2886
    1W        W55664  23.306  13.114   8.359  0.0323  0.0734 -0.0702
    1W        W55665  10.770  25.990   7.606 -0.0583 -0.0516 -0.0541
    1W        W55666  16.726  28.554   7.919  0.0874 -0.0138  0.1186
    1W        W55667  18.504  16.548   1.725  0.1368 -0.2210  0.0571
    1W        W55668  21.363  15.105   9.140 -0.1232  0.0562  0.1411
    1W        W55669   1.327   3.530   8.859 -0.1248  0.1523 -0.0289
    1W        W55670  24.796  25.917   9.191 -0.0950  0.0519  0.1528
    1W        W55671   9.285   0.417   0.548 -0.4106 -0.1007  0.1097
    1W        W55672  16.295  28.160   9.329  0.0575  0.1064  0.3604
    1W        W55673  19.866  14.155   8.166  0.1687 -0.0549  0.0288
    1W        W55674  27.137  10.963   0.362  0.0610 -0.1162  0.0708
    1W        W55675  19.238  24.313   0.622  0.0208  0.1192 -0.0956
    1W        W55676  25.225  20.684   7.802  0.0707 -0.0330 -0.0825
    1W        W55677  18.495  27.187   1.048  0.0001  0.0648 -0.1818
    1W        W55678   2.723   6.911   0.041  0.0494 -0.0732  0.0585
    1W        W55679  19.520   0.578   2.653 -0.0160 -0.2597  0.0863
    1W        W55680  17.645  18.603   9.681 -0.1423  0.0407 -0.0170
    1W        W55681  19.457  14.721   9.996 -0.2269 -0.2023 -0.2240
    1W        W55682  11.543  26.560   9.739 -0.0112  0.3129  0.0764
    1W        W55683  28.351   5.774   3.947 -0.1350 -0.0289 -0.0872
    1W        W55684  19.332  25.742   7.240 -0.0641 -0.0076 -0.1212
    1W        W55685  21.748  27.195   2.452 -0.1196  0.0448  0.0907
    1W        W55686   3.239   7.851   0.668  0.1413  0.0833 -0.0332
    1W        W55687   0.538   3.436   0.206 -0.0985 -0.2294  0.2536
    1W        W55688   7.854  19.445   3.129  0.2100  0.1162  0.4724
    1W        W55689  24.572  24.885   9.683  0.1417  0.0285 -0.2034
    1W        W55690  19.986   7.478   9.035  0.0379 -0.3532  0.0010
    1W        W55691   2.153  11.182   9.258 -0.2026  0.0772 -0.0735
    1W        W55692   3.505  15.903   0.528  0.0535  0.1942  0.0044
    1W        W55693  22.906  20.570   0.124 -0.3161  0.0440  0.1137
    1W        W55694  10.428  19.411   7.993 -0.0147 -0.2683  0.2011
    1W        W55695  17.973  17.862   6.709 -0.1200  0.3794 -0.2526
    1W        W55696   8.911  23.788   8.091 -0.1070 -0.0340 -0.0963
    1W        W55697  21.294   8.325   8.070  0.0691  0.2228 -0.3013
    1W        W55698  27.636   5.908   1.830 -0.3606 -0.0049  0.3009
    1W        W55699  24.008  16.054   0.266  0.0339 -0.0292 -0.2207
    1W        W55700   1.343  15.934   2.500  0.0497 -0.0845 -0.2421
    1W        W55701   8.360   5.386   7.307  0.0585  0.0608  0.0952
    1W        W55702   9.727  25.089   9.506 -0.1996 -0.1850 -0.4837
    1W        W55703  23.956  27.345   2.737 -0.0926  0.1368 -0.1297
    1W        W55704  20.594  19.055   7.513 -0.0985 -0.0638  0.3839
    1W        W55705   5.476  18.515   9.744  0.0961  0.2132 -0.0016
    1W        W55706  24.707  22.065   1.554  0.0206  0.2858  0.2034
    1W        W55707  15.999  10.356   8.894 -0.1586  0.0326  0.0534
    1W        W55708   9.849  17.690   0.011 -0.1760 -0.2812 -0.1801
    1W        W55709   2.645   0.519   8.673  0.2832 -0.2430 -0.0095
    1W        W55710   0.298  24.145   9.975  0.0877  0.0887 -0.0648
    1W        W55711   3.263  10.167   2.581 -0.0714 -0.1023  0.0940
    1W        W55712  14.590   0.201   8.274 -0.0542  0.2062  0.0575
    1W        W55713   4.531  24.505   0.772 -0.0400 -0.2957 -0.2928
    1W        W55714   7.209  12.419   9.479 -0.1644  0.2050 -0.3713
    1W        W55715   1.814  16.697   2.767 -0.0725 -0.0363 -0.4193
    1W        W55716  27.111  27.647   1.750 -0.0022  0.0322 -0.2972
    1W        W55717  26.374   6.624   0.511  0.2325  0.0224 -0.1688
    1W        W55718  24.265   3.752   8.762 -0.0406 -0.1064  0.0931
    1W        W55719   6.985  12.236   6.417 -0.2874 -0.1546  0.2885
    1W        W55720  19.855   4.549   8.954  0.0403  0.1542  0.1279
    1W        W55721  24.119  13.258   8.434  0.0643 -0.1533 -0.1372
    1W        W55722   2.259  22.190   1.468 -0.0747 -0.0405 -0.0713
    1W        W55723  27.681  16.865   8.245 -0.3362  0.0887  0.1427
    1W        W55724  17.813  26.476   2.372 -0.0380  0.0488 -0.2326
    1W        W55725   1.452   4.787   1.359  0.0457 -0.1023 -0.0585
    1W        W55726  15.047  28.622   1.888 -0.0221 -0.0737  0.1083
    1W        W55727  21.691  16.999   9.746  0.2119 -0.3814  0.0761
    1W        W55728  12.501  13.256   7.456 -0.1098 -0.0416  0.2309
    1W        W55729   1.906   1.612   1.683 -0.0459  0.1122 -0.2041
    1W        W55730  21.661  24.618   3.496 -0.1054 -0.0896  0.0647
    1W        W55731  11.109  11.123   9.515 -0.1756 -0.1770 -0.2535
    1W        W55732   5.369  21.366   9.017 -0.2094  0.0154 -0.4728
    1W        W55733  28.432   4.515   8.844 -0.3193  0.1092 -0.3456
    1W        W55734   4.432  12.054   0.967  0.3176 -0.1790 -0.0219
    1W        W55735  20.759   8.175   1.902  0.2477  0.1375 -0.0075
    1W        W55736   0.759  16.819   2.692  0.2975  0.0557  0.0991
    1W        W55737  27.652   2.541   0.274  0.2422 -0.0675 -0.0122
    1W        W55738  15.276  21.534   7.353  0.0966 -0.1282 -0.0488
    1W        W55739   3.006  18.947   2.654  0.0170 -0.0201 -0.2288
    1W        W55740  28.674  19.653   7.657  0.0412  0.1300 -0.4485
    1W        W55741   0.489  23.756   8.213  0.0089 -0.1972 -0.1166
    1W        W55742   7.121  19.234   7.328 -0.1098  0.1080 -0.2607
    1W        W55743  17.589   2.864   0.871 -0.0933 -0.1011  0.1047
    1W        W55744  11.223  12.843   0.648 -0.0370  0.2348  0.0248
    1W        W55745  24.554  25.306   1.726  0.4242  0.2543  0.2811
    1W        W55746  18.291  28.042   6.882 -0.0581 -0.0097  0.1655
    1W        W55747  11.784  11.553   5.973 -0.1395  0.3356 -0.0069
    1W        W55748  25.534  21.138   1.078 -0.1366  0.1141  0.1724
    1W        W55749   6.077  26.794   8.562 -0.0009  0.1967 -0.2483
    1W        W55750  20.108  20.001   8.125  0.1102 -0.2025 -0.0581
    1W        W55751  23.539   2.290   9.214  0.0294  0.2552 -0.0880
    1W        W55752  21.403  11.087   0.587  0.1166 -0.1406  0.2073
    1W        W55753  12.987  26.937   7.628  0.1825 -0.2348 -0.1338
    1W        W55754  11.762   7.694   9.672 -0.1368  0.2233 -0.0017
    1W        W55755   7.027  20.959   0.801 -0.1471  0.1024 -0.0268
    1W        W55756  18.444  27.649   1.847 -0.1195 -0.0462 -0.1308
    1W        W55757  15.766   1.425   8.109 -0.0257  0.0969  0.0349
    1W        W55758  10.999   5.018   0.567 -0.1099  0.2487 -0.1196
    1W        W55759  25.643  22.158   2.989 -0.3920 -0.0036 -0.1048
    1W        W55760  12.032  23.862   7.729  0.0245  0.0073  0.0080
    1W        W55761  20.663  10.031   7.995  0.2837 -0.1050  0.1512
    1W        W55762   8.779   2.437   7.622 -0.2259 -0.0565 -0.1411
    1W        W55763  10.780   0.217   9.380  0.3185  0.2897 -0.1008
    1W        W55764  25.913  15.961   0.817  0.1433 -0.2264 -0.4262
    1W        W55765   2.712   4.999   8.378 -0.1496  0.3565 -0.1863
    1W        W55766   4.741  24.409   0.328 -0.3173 -0.3752 -0.2577
    1W        W55767   7.925  25.247   8.724  0.0044 -0.2022 -0.2080
    1W        W55768   3.424   4.184   9.312 -0.0251  0.0145  0.2212
    1W        W55769   3.258  14.388   0.525  0.2685  0.2112  0.1134
    1W        W55770   1.087   5.978   8.369 -0.1136  0.1197 -0.0570
    1W        W55771  14.906  28.506   0.748 -0.1367 -0.1767 -0.0917
    1W        W55772  17.505  27.318   9.071  0.0225  0.0519 -0.0446
    1W        W55773   5.984  26.093   2.269 -0.0777 -0.2284  0.1154
    1W        W55774  21.343   3.229   1.825 -0.1350 -0.1651  0.0794
    1W        W55775   0.461   9.730   0.419  0.2919 -0.1848 -0.1264
    1W        W55776   1.648  16.886   9.643  0.0216  0.0831 -0.0825
    1W        W55777  22.471  12.313   8.369 -0.0252  0.0779 -0.4479
    1W        W55778  13.570   8.811   6.659 -0.1566  0.0496  0.0147
    1W        W55779   4.870  17.814   1.276 -0.0167 -0.1582  0.0782
    1W        W55780   7.386  28.081   3.026 -0.1568 -0.1037 -0.1693
    1W        W55781  21.978  18.676   0.440  0.2663 -0.1592  0.0703
    1W        W55782  11.553   3.555   9.699 -0.0035 -0.0793  0.1678
    1W        W55783  22.410  12.528   1.396 -0.0502 -0.1169  0.1449
    1W        W55784  24.112  18.801   7.981  0.2556  0.0630 -0.2552
    1W        W55785   5.856  11.779   1.471 -0.0310 -0.1009 -0.4549
    1W        W55786  16.331  19.488   2.506  0.0044 -0.3367  0.0909
    1W        W55787   7.341  25.074   2.711  0.2976 -0.1427  0.0788
    1W        W55788  20.213  27.465   8.837  0.1632 -0.1844 -0.3715
    1W        W55789  16.126  23.487   2.580 -0.1840 -0.3870  0.1060
    1W        W55790  25.645  11.964   0.745  0.0418 -0.0649 -0.0392
    1W        W55791   1.506  21.676   4.200  0.1266  0.1973 -0.1461
    1W        W55792  10.007   8.890   1.498  0.2005 -0.1154  0.0485
    1W        W55793   1.760  11.834   6.915 -0.1157 -0.0657 -0.0291
    1W        W55794  27.311  21.814   3.228  0.2485  0.2351 -0.1083
    1W        W55795   1.839  28.317   2.201  0.2709 -0.1312  0.3755
    1W        W55796  11.744  10.817   1.249 -0.0553 -0.1101  0.1855
    1W        W55797   8.396  21.749   0.586  0.2340 -0.2085  0.0433
    1W        W55798  23.436  26.958   0.683 -0.2423  0.2713 -0.1790
    1W        W55799  10.974   4.694   6.723 -0.0413  0.2868 -0.0732
    1W        W55800  12.434  19.690   0.442 -0.1536  0.1273  0.1608
    1W        W55801  16.627  20.671   1.628  0.1663  0.2432 -0.1468
    1W        W55802  10.851  27.754   9.636  0.2333 -0.1082  0.1552
    1W        W55803  17.527  17.337   1.602  0.0844 -0.1215  0.1088
    1W        W55804  16.649  20.382   8.381 -0.2213 -0.2983  0.1186
    1W        W55805  26.814  28.247   2.313 -0.1326  0.1364  0.0777
    1W        W55806  12.581  23.775   0.084 -0.0776 -0.3872 -0.1548
    1W        W55807   6.874  16.122   8.904  0.0516 -0.0071 -0.0521
    1W        W55808  23.371   4.613   9.083 -0.1101  0.2931 -0.0826
    1W        W55809  11.955  25.353   9.227  0.1235  0.0478  0.1918
    1W        W55810  19.278   0.662   0.652  0.0800 -0.1089  0.0514
    1W        W55811  18.175   8.541   6.501 -0.0771  0.1391 -0.2067
    1W        W55812  21.322   1.639   7.753  0.2548  0.3182  0.3968
    1W        W55813   3.566   4.063   2.646 -0.1160  0.3638  0.0960
    1W        W55814  15.895   1.926   1.933 -0.1680 -0.2003 -0.1046
    1W        W55815  16.459  23.833   0.211  0.0039  0.1333 -0.1060
    1W        W55816   5.590   2.922   2.154 -0.4413 -0.0306  0.3254
    1W        W55817   1.026  11.192   2.021 -0.2221  0.0391 -0.0233
    1W        W55818  28.153   4.667   4.046 -0.1523 -0.2109 -0.2273
    1W        W55819  16.517  10.532   8.730  0.0299  0.1523  0.0839
    1W        W55820   3.548  27.828   9.111 -0.1154  0.0193  0.0640
    1W        W55821  18.713  16.978   2.136 -0.1561 -0.0717 -0.0311
    1W        W55822  20.757  10.224   8.400  0.3084 -0.1614  0.0074
    1W        W55823   8.482  27.684   1.008  0.2288 -0.3403  0.0645
    1W        W55824  10.950  12.829   2.866  0.0928 -0.2562  0.0429
    1W        W55825  18.943   8.060   6.378  0.2828 -0.2950  0.2709
    1W        W55826  11.155  10.151   9.798  0.1481 -0.2741 -0.0408
    1W        W55827  22.086   6.393   9.486 -0.3498  0.0914  0.0965
    1W        W55828  11.387   2.198   9.487 -0.1546 -0.0766  0.2884
    1W        W55829  21.050  15.584   2.349 -0.1402  0.2795 -0.2063
    1W        W55830  10.227   3.816   2.491  0.0928  0.2650 -0.2035
    1W        W55831  16.669   7.927   7.811  0.2604 -0.2206  0.2257
    1W        W55832   6.980  14.366   8.389 -0.3239 -0.1042  0.0091
    1W        W55833  24.731  16.090   7.699 -0.0861  0.0166  0.2152
    1W        W55834  15.882   4.732   8.259 -0.1390 -0.1516  0.0399
    1W        W55835  18.320  22.717   6.695  0.0699  0.1091 -0.0166
    1W        W55836  25.004   3.833   8.294 -0.1193  0.1347 -0.1400
    1W        W55837   8.683   8.284   7.565  0.4544 -0.0207 -0.3625
    1W        W55838  18.742   0.621   8.474 -0.2187  0.1848 -0.1128
    1W        W55839  23.460   7.713   2.899  0.0611  0.1726 -0.2294
    1W        W55840  23.247  18.871   2.047 -0.2163  0.0485  0.0960
    1W        W55841  25.094  27.082   9.674  0.0065  0.0760 -0.1430
    1W        W55842   2.920   3.026   0.927  0.3629  0.1358  0.0492
    1W        W55843   5.447  27.525   0.907  0.0271  0.3142 -0.0198
    1W        W55844  23.254  10.707   2.114  0.0044 -0.0100 -0.3094
    1W        W55845  13.938   8.517   8.322  0.2966  0.3333  0.0891
    1W        W55846   7.479  15.722   1.843 -0.2970 -0.2358 -0.0910
    1W        W55847   9.282  19.127   8.821 -0.0602 -0.1672  0.0226
    1W        W55848  13.042  11.848   8.870  0.1734  0.1956  0.2154
    1W        W55849  24.427   9.669   0.534  0.0517 -0.0655  0.0786
    1W        W55850   2.478  17.738   9.460  0.1167 -0.3286  0.3704
    1W        W55851   4.630   1.944   9.456  0.2546 -0.1123 -0.0428
    1W        W55852   8.784  16.587   0.697  0.3899  0.2763 -0.2245
    1W        W55853  11.102   6.823   0.407  0.3474  0.2686  0.2778
    1W        W55854  28.771  27.586   0.230  0.2682 -0.3979 -0.1247
    1W        W55855  10.365   6.339   7.244  0.4671  0.2764 -0.0215
    1W        W55856  14.292   5.717   6.922  0.1341 -0.2749  0.1370
    1W        W55857  17.398  17.451   7.199 -0.1270  0.0735  0.3785
    1W        W55858  22.174  27.095   1.253  0.0715  0.0547  0.0997
    1W        W55859  21.327  10.255   0.961  0.1245  0.3665 -0.0358
    1W        W55860  11.261  26.466   6.748  0.0942 -0.1640 -0.0297
    1W        W55861  23.744  18.903   8.865 -0.2877  0.1287 -0.0568
    1W        W55862   8.488  15.115   1.493 -0.0739 -0.2705  0.1332
    1W        W55863  28.334  27.399   8.423 -0.1274  0.4289  0.3945
    1W        W55864   3.066   7.409   1.128 -0.1067 -0.0454 -0.0605
    1W        W55865  16.433   3.950   1.380  0.2079  0.1308 -0.1081
    1W        W55866   6.290  23.365   1.801 -0.1118 -0.0735  0.0856
    1W        W55867  25.526   9.221   7.633  0.2465 -0.4059  0.0925
    1W        W55868   5.374  10.479   9.083  0.1521  0.0021  0.1678
    1W        W55869  16.790  18.685   9.298  0.0867  0.0142 -0.0332
    1W        W55870  12.210  15.162   2.426 -0.0090  0.2627 -0.0822
    1W        W55871   8.717  17.604   8.275 -0.0423  0.0387  0.1939
    1W        W55872  25.846   3.216   8.453  0.1294 -0.0590 -0.0348
    1W        W55873  10.271  22.566   7.742  0.0740  0.1929  0.2833
    1W        W55874  23.064  21.582   7.787 -0.1532 -0.0678  0.0816
    1W        W55875  19.186  23.836   0.972 -0.0601  0.1735 -0.0983
    1W        W55876  26.737   9.988   0.048  0.2081  0.2828 -0.1108
    1W        W55877   3.982   3.295   4.029  0.3294 -0.0311 -0.2339
    1W        W55878   1.935  25.533   0.856 -0.0982 -0.0393 -0.1837
    1W        W55879  11.932   1.590   7.479  0.1962  0.4564  0.2879
    1W        W55880  19.276  26.299   8.448 -0.0146  0.2867  0.1263
    1W        W55881  10.814  17.040   9.817 -0.1173 -0.0820  0.0844
    1W        W55882  10.999   7.966   5.745  0.1434  0.1931 -0.1490
    1W        W55883  12.407  24.977   3.017  0.2580  0.0828  0.1420
    1W        W55884   6.640   8.619   2.766 -0.0207  0.0896  0.4184
    1W        W55885   9.789   9.715   0.421 -0.0679  0.1621 -0.0007
    1W        W55886   6.943   7.566   8.440  0.0082  0.0835  0.3380
    1W        W55887  20.649   5.774   8.326 -0.0467  0.0388  0.1055
    1W        W55888  22.351  15.433   7.328  0.2685  0.1852 -0.1199
    1W        W55889   3.085  28.475   9.537  0.0812  0.5923 -0.3070
    1W        W55890  20.538  18.159   7.966 -0.0629 -0.2493 -0.0927
    1W        W55891  28.778  25.702   2.769  0.0716  0.3078  0.0027
    1W        W55892   8.227   1.454   8.352  0.2211  0.3169 -0.0339
    1W        W55893   0.109   4.021   3.711 -0.1952  0.0535 -0.2991
    1W        W55894   5.347  28.532   1.582  0.1621  0.0169 -0.1404
    1W        W55895  16.972   2.230   2.388 -0.0637  0.0429  0.1504
    1W        W55896  22.910  19.749   0.261  0.0118  0.2478 -0.1232
    1W        W55897  26.037  23.347   7.934  0.2846  0.4685  0.2774
    1W        W55898   2.876   6.292   8.423 -0.1003  0.2463 -0.1039
    1W        W55899  13.860  26.114   1.807  0.0859  0.0471  0.0136
    1W        W55900  15.710  26.016   9.231  0.0205 -0.1804 -0.5223
    1W        W55901   7.200  25.102   3.293 -0.2198 -0.4130  0.3613
    1W        W55902  28.227   3.112   3.504 -0.1134  0.3170 -0.1703
    1W        W55903   9.551  17.506   2.009 -0.3938 -0.0783 -0.1576
    1W        W55904  21.177   0.507   1.884 -0.0093 -0.0296  0.1962
    1W        W55905  25.276  25.619   1.527 -0.2334  0.2186  0.1473
    1W        W55906  27.293  26.549   8.926  0.4216  0.3485  0.2505
    1W        W55907   7.061  14.220   7.501  0.4785  0.0974 -0.0944
    1W        W55908  27.126   6.773   2.066  0.0495  0.0641  0.0729
    1W        W55909  25.482  13.657   7.844  0.0105 -0.1176  0.0704
    1W        W55910  10.764  22.507   7.641  0.1031 -0.2142 -0.0693
    1W        W55911   8.632   7.139   2.313 -0.0568  0.0225  0.0308
    1W        W55912  14.352   7.604   7.456  0.0783 -0.2405  0.2079
    1W        W55913   9.154  26.190   2.556  0.2959  0.0591  0.3171
    1W        W55914  18.198  16.371   1.337  0.3285 -0.2047 -0.0816
    1W        W55915  18.989  13.660   6.214  0.2086  0.0984 -0.2672
    1W        W55916  10.527  27.620   1.174 -0.0644  0.0528 -0.0427
    1W        W55917  15.830  19.475   7.603 -0.1007  0.0763  0.0126
    1W        W55918  12.120  26.975   8.133 -0.2113 -0.1456 -0.0265
    1W        W55919  14.966   0.178   8.641 -0.0102  0.2391  0.2383
    1W        W55920   0.979  10.293   0.258  0.4159 -0.1250 -0.0584
    1W        W55921  28.243   1.265   9.830  0.0081 -0.0382  0.0423
    1W        W55922   1.107  25.635   1.231 -0.1140 -0.1937 -0.2632
    1W        W55923  22.108  24.302   0.784  0.2484 -0.2786  0.1505
    1W        W55924  21.695  16.978   0.327  0.3699 -0.2151 -0.1921
    1W        W55925   8.038  27.704   1.734 -0.1110  0.0590  0.1217
    1W        W55926   8.256   3.557   9.433 -0.1911 -0.4458  0.2792
    1W        W55927  28.497  16.670   0.672 -0.0530  0.0621  0.2319
    1W        W55928  19.067   8.646   7.135  0.1980  0.0609  0.0234
    1W        W55929  19.247   5.682   8.789  0.0961 -0.1064  0.1853
    1W        W55930  26.651  21.602   9.416 -0.1014  0.0824 -0.0727
    1W        W55931   5.671  17.981   0.485 -0.0564  0.1906 -0.0155
    1W        W55932  19.818   4.202   0.574 -0.3533 -0.0219 -0.3027
    1W        W55933   0.032  10.787   2.956 -0.0139 -0.0857 -0.1690
    1W        W55934  15.370   8.371   5.413  0.0533 -0.1787 -0.3135
    1W        W55935   9.228  22.423   3.698  0.0603  0.0086  0.1344
    1W        W55936   5.495  16.011   9.139  0.3359 -0.2963  0.1681
    1W        W55937   6.565  14.578   8.160  0.0656 -0.0467 -0.1366
    1W        W55938  21.018  26.459   0.718 -0.2225  0.2463  0.1764
    1W        W55939   7.538  13.935   8.533  0.1762 -0.0963 -0.1707
    1W        W55940   7.751  11.804   6.572  0.3405  0.0149  0.1497
    1W        W55941   3.517  16.982   2.173  0.1178 -0.5618  0.0169
    1W        W55942  15.468  13.391   6.510 -0.2364  0.2827 -0.0047
    1W        W55943   3.373   7.305   3.249 -0.1161  0.1828  0.1354
    1W        W55944  24.475  20.036   1.991 -0.1142  0.2184 -0.4280
    1W        W55945  20.381  14.958   1.871  0.2720  0.1923 -0.0692
    1W        W55946  16.423  28.513   8.369  0.0311  0.1686  0.0692
    1W        W55947  11.541   8.143   8.219  0.0578  0.0350 -0.0274
    1W        W55948  10.876   8.576   6.456  0.1187  0.0625 -0.1553
    1W        W55949  12.981   5.856   1.563 -0.0411 -0.0843  0.0826
    1W        W55950  12.186  14.127   2.250  0.0233  0.1031 -0.0710
    1W        W55951  17.016   0.077   8.858 -0.1402  0.1938  0.1068
    1W        W55952  18.818  20.900   1.617 -0.1467 -0.0285  0.1615
    1W        W55953   3.933  20.254   7.762  0.0468 -0.0674 -0.0957
    1W        W55954  13.207  19.449   9.988  0.0366 -0.1321  0.1800
    1W        W55955  24.450   2.133   8.014 -0.5248  0.2136 -0.2004
    1W        W55956   6.207  12.756   0.376  0.0844  0.1042 -0.1448
    1W        W55957  10.242   9.774   9.067 -0.3283  0.1110 -0.2058
    1W        W55958   7.800  27.056   1.471  0.0063 -0.0847  0.0907
    1W        W55959   5.760  12.489   0.051 -0.0392  0.1772 -0.4746
    1W        W55960  16.493  18.141   8.193 -0.0129 -0.0478 -0.2971
    1W        W55961  25.114   9.335   7.317 -0.1278  0.0033  0.0063
    1W        W55962  10.796  11.600   7.687 -0.2618 -0.2108 -0.0155
    1W        W55963   6.513  25.664  10.000  0.2861  0.0069  0.0760
    1W        W55964   7.448  17.715   8.536  0.1343 -0.0414  0.4457
    1W        W55965  25.778  12.248   9.131  0.0392 -0.3736 -0.0112
    1W        W55966   1.604  22.332   2.101 -0.1005  0.4260 -0.0899
    1W        W55967   1.371   8.029   7.834 -0.0451  0.0076 -0.0752
    1W        W55968  10.657   2.511   1.262 -0.1351  0.1265 -0.1850
    1W        W55969   4.748   4.223   8.130 -0.0538  0.0187  0.2623
    1W        W55970  17.630  19.998   7.954 -0.1003  0.2121 -0.1022
    1W        W55971  27.857  27.875   1.381 -0.1210  0.0619 -0.2372
    1W        W55972  15.448  14.251   9.840  0.1045 -0.2034  0.0613
    1W        W55973   6.464  10.361   7.735  0.0024  0.2762  0.0339
    1W        W55974  28.247  11.625   0.959 -0.1197  0.1727 -0.0472
    1W        W55975  10.633  19.012   2.895 -0.2976 -0.2192  0.1799
    1W        W55976   8.255  24.486   0.808  0.0065 -0.1989 -0.2413
    1W        W55977  20.620  22.936   3.264 -0.0491 -0.1180 -0.2133
    1W        W55978   7.898   8.805   8.967  0.2275 -0.2183  0.1330
    1W        W55979   2.801   7.818   8.502  0.3555 -0.1383  0.3043
    1W        W55980   7.396  21.039   0.464 -0.1517  0.3184  0.0483
    1W        W55981  12.647  13.663   6.471 -0.0165  0.1992 -0.2065
    1W        W55982   6.672  16.518   9.982 -0.0122  0.1006 -0.1008
    1W        W55983  18.894  20.489   6.430 -0.0517  0.0271  0.1739
    1W        W55984  14.005   7.857   1.737 -0.2626  0.0523 -0.0486
    1W        W55985   5.113  17.482   7.080  0.2111  0.0518  0.2613
    1W        W55986  24.278  23.553   8.584 -0.4616  0.0764  0.3979
    1W        W55987  17.613  11.267   7.098  0.0973  0.2125  0.0220
    1W        W55988   7.309  11.227   0.117  0.0590  0.1067 -0.0665
    1W        W55989  16.280  16.884   1.752 -0.0801 -0.1743 -0.3917
    1W        W55990  19.341  26.523   8.890 -0.1004 -0.0967 -0.2467
    1W        W55991   9.522   7.207   2.593  0.1543  0.0688  0.0824
    1W        W55992   0.137  27.319   3.165 -0.1948  0.2468  0.1999
    1W        W55993  23.898   9.146   1.677 -0.0617  0.0063  0.0976
    1W        W55994   2.578  11.203   1.236  0.1559  0.0307 -0.4272
    1W        W55995   8.616  14.950   8.283 -0.0597  0.1823 -0.3274
    1W        W55996   1.598   5.240   1.121  0.0700  0.1221 -0.2000
    1W        W55997  17.361   1.217   7.339 -0.1882  0.1506 -0.3573
    1W        W55998  25.312  13.675   2.090  0.0537  0.2330  0.0468
    1W        W55999  14.910  15.645   1.547  0.0397  0.1448  0.1201
    1W        W56000  13.569  22.695   0.341  0.0091 -0.1746 -0.0347
    1W        W56001   2.418  18.321   3.400  0.3207  0.0092 -0.0653
    1W        W56002   6.388  22.266   2.210 -0.3386  0.2571 -0.1198
    1W        W56003  16.342   6.067   6.074 -0.3849  0.2917  0.0951
    1W        W56004  13.023   9.828   9.754  0.1518  0.1380  0.0095
    1W        W56005  14.683  26.256   8.973  0.1068  0.3141  0.1840
    1W        W56006  21.721  24.212   2.541 -0.0172  0.0015 -0.0377
    1W        W56007   6.205  28.852   3.170 -0.0312 -0.0866 -0.0835
    1W        W56008   7.768  21.627   2.908  0.2986 -0.2163 -0.0386
    1W        W56009   4.424   9.267   9.140  0.2046  0.0261  0.0455
    1W        W56010   9.351   1.482   7.176 -0.1490  0.1865 -0.0961
    1W        W56011   4.715   6.054   0.164 -0.2106  0.0550 -0.2435
    1W        W56012   2.288  19.088   7.340  0.0088  0.1036  0.0780
    1W        W56013  22.381  28.718   3.382  0.0782  0.0365 -0.4184
    1W        W56014  13.188  13.950   0.608 -0.0420 -0.0160  0.0733
    1W        W56015  26.642  17.068   9.815 -0.2335  0.1491  0.1013
    1W        W56016   0.376  19.094   0.835  0.3419 -0.1876  0.0202
    1W        W56017  24.712   7.604   9.422 -0.0439 -0.4410 -0.0008
    1W        W56018  19.665  26.730   8.566  0.0080  0.0839  0.1607
    1W        W56019  13.220   5.580   2.395 -0.1797 -0.0821 -0.1708
    1W        W56020   4.790  20.548   9.897 -0.2275  0.1189  0.0267
    1W        W56021   5.026   4.040   9.985 -0.3076 -0.0469 -0.5127
    1W        W56022   1.222  18.775   9.557  0.2781 -0.1032 -0.4268
    1W        W56023   3.800  20.180   0.506  0.1470 -0.2068  0.3649
    1W        W56024  23.704   2.278   0.979 -0.1524  0.1768  0.1114
    1W        W56025   5.408  13.152   1.547 -0.2279  0.1333  0.1099
    1W        W56026  27.893   7.552   9.409  0.1684  0.0195  0.1977
    1W        W56027   1.261  11.282   9.572  0.1121 -0.0869 -0.0833
    1W        W56028   6.894  26.719   3.510  0.2269 -0.1471  0.0215
    1W        W56029  23.861  20.475   1.246  0.0314  0.0748 -0.3753
    1W        W56030   0.173  26.411   0.464 -0.1763 -0.2652 -0.3867
    1W        W56031  22.737  12.168   1.493  0.0691 -0.1191  0.0719
    1W        W56032  14.231   8.885   8.183 -0.2565 -0.2159 -0.0887
    1W        W56033  14.151  14.975   1.157 -0.0817 -0.1124  0.0854
    1W        W56034  21.996  23.185   1.004 -0.1315 -0.0056 -0.2259
    1W        W56035  14.551  14.449   7.350  0.0249  0.1243  0.0686
    1W        W56036  15.181   3.076   1.777  0.0837 -0.0192 -0.1255
    1W        W56037   5.426  14.802   8.956  0.1452  0.1438  0.1582
    1W        W56038  16.813   1.993   1.533 -0.1200 -0.2922  0.0117
    1W        W56039   3.888   5.767   8.961  0.2392 -0.1334  0.1259
    1W        W56040  22.580   6.486   7.781 -0.0684  0.0857  0.2073
    1W        W56041  15.455  25.720   9.643 -0.0294 -0.3647  0.1656
    1W        W56042  15.582  15.432   6.756  0.0481  0.2259  0.2152
    1W        W56043  20.053  24.416   0.858  0.2136  0.0939  0.1144
    1W        W56044  16.418   7.579   7.377 -0.0746  0.2159 -0.2437
    1W        W56045  20.394  26.363   7.596 -0.1596  0.4107 -0.1975
    1W        W56046  18.871   7.615   8.297  0.1730  0.0029 -0.1815
    1W        W56047   6.642  17.618   1.742  0.1173  0.0467 -0.2286
    1W        W56048   8.867  22.289   0.293  0.2276  0.1208  0.1303
    1W        W56049  15.019  17.478   9.670 -0.3264 -0.1319 -0.0839
    1W        W56050  20.334   8.717   7.232  0.0208 -0.2146 -0.0367
    1W        W56051   7.461  25.164   6.980  0.0385 -0.0485  0.1859
    1W        W56052   9.761  10.048   7.616  0.0117 -0.0149  0.1095
    1W        W56053   9.388  14.778   1.500 -0.1207  0.0330  0.1853
    1W        W56054  23.345  24.084   2.287 -0.1423  0.2818  0.1117
    1W        W56055  16.344  14.412   0.274 -0.1095 -0.1301  0.1474
    1W        W56056   1.012   7.608   1.495 -0.2771  0.0706 -0.0299
    1W        W56057  13.795  24.376   2.209 -0.2751 -0.0706  0.1978
    1W        W56058  19.228  17.136   7.063  0.3048 -0.5482  0.2835
    1W        W56059  19.318   7.582   7.990 -0.0858  0.3622  0.1777
    1W        W56060  13.534   3.521   9.043  0.0415  0.1880  0.1687
    1W        W56061  14.708  24.556   0.726 -0.0030  0.2631 -0.2174
    1W        W56062  26.312  25.811   3.330  0.1035 -0.0796 -0.1290
    1W        W56063   6.313  26.543   2.360 -0.0399  0.2862  0.0692
    1W        W56064   5.583   5.031   3.099  0.1054 -0.0074  0.0090
    1W        W56065   4.645  23.657   1.117 -0.1012 -0.0370  0.5608
    1W        W56066   6.755   6.892   3.623  0.0334 -0.0227  0.0501
    1W        W56067  16.779  18.848   8.819  0.0468  0.1554 -0.0971
    1W        W56068  14.440   3.277   9.997 -0.1100 -0.1081  0.0654
    1W        W56069   6.634   9.849   7.879 -0.2348 -0.1249  0.3199
    1W        W56070  12.027   6.706   8.405 -0.1042 -0.2052 -0.1911
    1W        W56071  25.741  14.982   0.406  0.0662 -0.1117  0.1365
    1W        W56072  27.872  16.330   3.655 -0.2431 -0.1008  0.0915
    1W        W56073  11.968  11.769   8.581  0.0735 -0.0524  0.1496
    1W        W56074  27.950   2.893   9.495 -0.2278  0.1190  0.1318
    1W        W56075   7.075   9.129   9.332  0.1322  0.0433  0.3140
    1W        W56076  20.266  13.124   1.665 -0.4641  0.2909 -0.2229
    1W        W56077   2.003  19.910   1.369 -0.2383 -0.1303  0.0224
    1W        W56078  21.132  25.849   9.098 -0.1958  0.0580 -0.2181
    1W        W56079   1.310  28.805   3.301  0.2022 -0.0984  0.0049
    1W        W56080  22.434   6.746   9.253  0.0540  0.0254 -0.0395
    1W        W56081  23.933  19.126   0.525  0.0082  0.0106  0.0574
    1W        W56082  19.568  20.751   7.088  0.0959 -0.2467  0.1891
    1W        W56083  10.947  27.824   8.215  0.3087 -0.0964  0.1404
    1W        W56084  19.361  27.306   2.960  0.0457 -0.0647  0.3153
    1W        W56085  12.867   1.206   7.934 -0.0461 -0.6052  0.5389
    1W        W56086   4.679   5.021   9.056 -0.1148 -0.0346  0.0649
    1W        W56087   2.486  22.763   3.503  0.0300  0.1093 -0.1568
    1W        W56088  23.150   8.086   0.418 -0.0945  0.2596  0.0162
    1W        W56089  25.846  28.220   8.811 -0.0730  0.0087  0.0665
    1W        W56090   0.041  18.128   4.108 -0.3420 -0.1703 -0.1255
    1W        W56091  13.824   5.921   1.097  0.1339 -0.0172  0.0885
    1W        W56092  10.089   6.935   7.565  0.1443  0.0249 -0.0046
    1W        W56093  20.024  19.812   9.795  0.3515 -0.1451  0.0243
    1W        W56094  16.136   8.761   8.084  0.2307 -0.0704  0.0508
    1W        W56095  16.375  14.306   8.281 -0.2427  0.1278 -0.0043
    1W        W56096   3.239   9.390   8.058  0.0563  0.1607 -0.0052
    1W        W56097  15.613  26.270   9.609 -0.0773  0.0722  0.0979
    1W        W56098  19.906  23.245   1.304 -0.2131  0.0259  0.1977
    1W        W56099  12.938  23.688   1.433 -0.1712  0.0317  0.0437
    1W        W56100  19.595  14.842   7.944  0.0157 -0.1215  0.1276
    1W        W56101  19.894  28.162   0.955 -0.0370  0.0799 -0.0821
    1W        W56102  19.913  16.665   1.812 -0.0077  0.2870  0.0234
    1W        W56103  28.473  20.601   0.089  0.1474 -0.1895 -0.2600
    1W        W56104  21.166  14.852   1.968 -0.3240  0.0586 -0.2497
    1W        W56105  19.080  28.665   7.709 -0.1296 -0.1111  0.3885
    1W        W56106  12.285  14.376   1.818  0.0798  0.0429 -0.3140
    1W        W56107   3.376   3.506   0.174 -0.1090 -0.2425  0.0106
    1W        W56108   8.088  10.089   7.105  0.2116  0.0104 -0.0871
    1W        W56109  15.023  17.431   1.528  0.0786  0.4598  0.0035
    1W        W56110  23.675  25.315   3.642  0.0608  0.0412 -0.1391
    1W        W56111  28.389  26.916   2.418 -0.0011 -0.2034 -0.2811
    1W        W56112  19.050  13.648   7.380  0.0785 -0.2017 -0.1683
    1W        W56113  15.587  11.432   1.648 -0.2857  0.2747  0.0898
    1W        W56114   7.896  27.847   7.551  0.0475 -0.2815  0.0934
    1W        W56115  21.146  10.151   8.113  0.0878 -0.3239  0.2432
    1W        W56116  20.952  12.687   1.349 -0.2731  0.0487  0.1318
    1W        W56117  27.655   8.331   8.707  0.1753  0.0588 -0.2008
    1W        W56118  18.096   5.283   1.509  0.1648 -0.0587  0.0617
    1W        W56119   5.150  20.292   1.054 -0.1700  0.0388 -0.0616
    1W        W56120  16.744   4.436   7.011  0.1888 -0.0376 -0.1562
    1W        W56121   8.487   0.525   8.020 -0.1897  0.0870 -0.1802
    1W        W56122   7.691   0.692   3.089 -0.0775 -0.0629  0.1541
    1W        W56123  16.562  22.260   6.854 -0.1491  0.1494  0.0328
    1W        W56124  23.495   4.282   2.125 -0.1310 -0.3723 -0.1477
    1W        W56125  12.765   2.608   6.482  0.0166  0.2539 -0.0118
    1W        W56126  12.783  26.825   1.908 -0.0305 -0.0970  0.2460
    1W        W56127   8.952   4.928   2.214  0.2579  0.0936 -0.2313
    1W        W56128  27.150  15.910   0.286 -0.0427  0.1458 -0.0156
    1W        W56129  11.436  27.694   6.980 -0.2504  0.1531 -0.1777
    1W        W56130   0.364  19.097   0.288  0.0663 -0.1435 -0.1471
    1W        W56131  12.875  19.203   0.302  0.1818 -0.2493 -0.0880
    1W        W56132  10.020  19.523   2.153 -0.0474  0.0101  0.3066
    1W        W56133   1.330   8.897   2.498 -0.0605 -0.1360 -0.0721
    1W        W56134   6.981  22.706   8.150 -0.1692 -0.0673 -0.1870
    1W        W56135   3.407  17.312   1.394 -0.1224  0.2021 -0.0990
    1W        W56136  20.078   3.443   0.155 -0.2786  0.0705  0.3101
    1W        W56137  13.742  22.195   0.206 -0.2407  0.0652  0.2041
    1W        W56138  27.545  13.995   1.315  0.0698  0.0974  0.0441
    1W        W56139   0.761  25.889   3.978  0.3291  0.1891 -0.0492
    1W        W56140  25.383  11.871   9.441 -0.1190  0.0943 -0.2287
    1W        W56141  20.016  22.872   8.030  0.1503  0.2596 -0.0610
    1W        W56142  23.711  24.651   0.152  0.1252 -0.0625  0.2255
    1W        W56143  27.670  25.963   1.348  0.3982 -0.0885  0.0274
    1W        W56144  19.884  19.193   7.627  0.0503  0.0488 -0.3093
    1W        W56145  12.905  13.049   9.112  0.0502  0.3759  0.2585
    1W        W56146  27.651  17.941   3.039  0.1782  0.1015 -0.3866
    1W        W56147  11.943  12.653   2.695  0.0266 -0.1205 -0.0338
    1W        W56148   5.985   6.188   2.298  0.0469 -0.3015 -0.0790
    1W        W56149  20.367   1.262   8.388 -0.0375  0.3762 -0.1298
    1W        W56150  13.630  24.831   7.845  0.0043  0.0947  0.2182
    1W        W56151  27.747  14.775   2.775  0.1273  0.2815  0.1499
    1W        W56152   0.799   9.868   2.707 -0.0239  0.0789 -0.2978
    1W        W56153  26.876  20.724   3.567  0.1629 -0.0701 -0.0256
    1W        W56154  20.241  14.088   9.309  0.1108  0.2125 -0.2017
    1W        W56155   0.372   9.662   0.906 -0.0589 -0.0674  0.1859
    1W        W56156   5.971   1.577   2.460 -0.0384 -0.1500 -0.1200
    1W        W56157  15.788  27.964   7.335  0.3131  0.1042 -0.2144
    1W        W56158   8.516   2.678   8.041  0.2006 -0.1972 -0.0419
    1W        W56159  17.253  19.402   7.430  0.2160  0.0417  0.0516
    1W        W56160  18.246   4.010   6.761 -0.0531 -0.1980  0.2169
    1W        W56161   9.360  14.814   9.474  0.1048  0.0645 -0.0658
    1W        W56162   4.295  27.631   4.037 -0.2236 -0.0035  0.2093
    1W        W56163  23.609   7.866   0.676 -0.0518  0.1056 -0.0580
    1W        W56164   8.827  20.212   8.058 -0.1867 -0.0864 -0.0702
    1W        W56165  22.851  25.977   9.021  0.1775  0.2865  0.0062
    1W        W56166  28.244   0.211   0.876  0.0592 -0.0083  0.0074
    1W        W56167  14.366  17.320   8.411 -0.1388 -0.1954 -0.3003
    1W        W56168   5.179  19.813   1.083  0.0141  0.1824 -0.0278
    1W        W56169  25.167  28.172   1.336  0.0441  0.4842  0.0965
    1W        W56170  13.430  10.304   8.977 -0.0688 -0.1055 -0.0026
    1W        W56171   4.487   9.506   6.699  0.2629  0.1646  0.2582
    1W        W56172   2.331   8.955   9.682 -0.3584  0.1928 -0.0061
    1W        W56173  24.671  26.809   3.317 -0.1726 -0.2381  0.0799
    1W        W56174   8.769   3.494   7.604 -0.2624 -0.2074  0.0243
    1W        W56175  14.747  11.181   9.533 -0.0618 -0.1664 -0.0968
    1W        W56176  11.613  17.454   6.705  0.2875 -0.1553 -0.3184
    1W        W56177  20.854  21.547   7.908 -0.1463  0.1923  0.0503
    1W        W56178  13.254  23.165   0.086 -0.0014  0.0234  0.1730
    1W        W56179  21.285  17.631   1.527  0.0677  0.0452 -0.1409
    1W        W56180  16.398  20.388   7.509 -0.1052 -0.1713  0.2862
    1W        W56181  19.280  24.282   1.189  0.0401  0.0320 -0.0010
    1W        W56182  23.180  17.028   2.361 -0.0650  0.0589  0.1510
    1W        W56183   4.890  22.522   3.106  0.0881  0.0162 -0.2660
    1W        W56184   2.705  11.402   3.353  0.1172 -0.1231 -0.0620
    1W        W56185   9.777  22.102   3.103  0.0012  0.0068  0.0133
    1W        W56186   9.078  15.375   8.814  0.1021  0.2523 -0.4071
    1W        W56187  28.153   2.086   9.065  0.0272 -0.2219 -0.0528
    1W        W56188  21.225  16.306   8.725 -0.0169 -0.1273  0.1931
    1W        W56189   4.784  25.692   9.369  0.1888 -0.1763 -0.2006
    1W        W56190  12.374  15.924   1.954  0.0562  0.1317  0.0517
    1W        W56191   8.183   9.895   1.616 -0.3922  0.1380  0.3610
    1W        W56192   6.217   5.918   7.667  0.3010 -0.1796  0.0061
    1W        W56193   2.650  20.080   9.220 -0.0437 -0.2168 -0.2696
    1W        W56194  25.032   1.380   1.584 -0.1717 -0.3184 -0.1681
    1W        W56195  21.917  16.140   7.449  0.2044  0.0716  0.1237
    1W        W56196   8.003   7.051   9.906 -0.0213  0.0042  0.0334
    1W        W56197  10.978  13.288   9.712 -0.1666 -0.0515 -0.0199
    1W        W56198  28.865   7.224   2.632  0.0413 -0.0329 -0.2437
    1W        W56199  27.075  16.243   9.923  0.0502 -0.2539  0.2377
    1W        W56200   3.464  18.550   2.454  0.1437  0.1760 -0.1976
    1W        W56201   6.806  23.652   4.078 -0.0614 -0.1249 -0.0173
    1W        W56202   4.835  21.396   7.475 -0.3300 -0.0612 -0.2748
    1W        W56203   1.729  18.560   2.752  0.2755 -0.0323 -0.2538
    1W        W56204   7.640  11.578   8.405 -0.1097 -0.3631  0.0934
    1W        W56205  12.159  24.659   0.458 -0.0571 -0.1177 -0.0129
    1W        W56206  12.016   8.376   7.796  0.0622 -0.2479 -0.0715
    1W        W56207  18.872   0.781   0.894 -0.2643 -0.1649  0.1486
    1W        W56208  19.159  28.504   9.588  0.0560  0.1008  0.1173
    1W        W56209  19.046  19.837   9.694  0.0488 -0.0541  0.2004
    1W        W56210  13.179  10.636   1.568 -0.1810  0.0362 -0.1840
    1W        W56211  23.609   8.584   8.594  0.2548  0.0249  0.1411
    1W        W56212  15.213  20.952   0.691 -0.1479 -0.2483 -0.2247
    1W        W56213  10.138  24.821   1.762 -0.2918 -0.0256  0.0612
    1W        W56214  28.030  14.311   7.619  0.2452  0.1204  0.0112
    1W        W56215   7.311   4.758   1.348  0.2162 -0.2729 -0.0593
    1W        W56216  17.486  26.879   6.912 -0.2049 -0.1349  0.0253
    1W        W56217  12.593   7.578   9.488  0.2679  0.1262 -0.1544
    1W        W56218  12.368   9.277   8.794  0.2065 -0.0883 -0.1300
    1W        W56219  28.625  18.905   8.392 -0.0610  0.0249 -0.2486
    1W        W56220  22.955  12.557   1.122 -0.0012  0.0905  0.3534
    1W        W56221  28.657  13.873   1.146  0.0229 -0.3468  0.1670
    1W        W56222   2.671  27.171   8.418 -0.0691 -0.0270 -0.1744
    1W        W56223  17.153   7.926   6.944  0.1087 -0.3657 -0.0195
    1W        W56224   5.117  20.367   8.612  0.0293 -0.0986  0.1329
    1W        W56225  28.005  14.254   2.117 -0.1302  0.0573 -0.0086
    1W        W56226   0.302   5.889   0.482 -0.1542 -0.0627  0.1982
    1W        W56227   8.440  11.825   7.178  0.1233  0.0484 -0.1915
    1W        W56228  22.617  10.068   9.475 -0.0283  0.2692 -0.0535
    1W        W56229   0.483   7.298   0.251  0.2338 -0.2152  0.0693
    1W        W56230   7.726  18.465   2.440  0.1023  0.1326 -0.1693
    1W        W56231   3.916  24.367   2.640 -0.1255  0.2037  0.0406
    1W        W56232   7.379  22.460   9.634 -0.0278 -0.1809 -0.2563
    1W        W56233   4.997  22.908   0.018  0.0691  0.0635  0.4082
    1W        W56234  23.478  22.942   7.475 -0.1780 -0.0714 -0.1209
    1W        W56235  28.010   4.557   0.487  0.1314  0.0454 -0.0384
    1W        W56236   8.062  22.909   2.216 -0.0403 -0.0749  0.0274
    1W        W56237   4.885  18.570   8.445  0.1781  0.2904 -0.1800
    1W        W56238   7.684  28.164   8.954  0.4596  0.1630  0.0662
    1W        W56239  25.980  24.391   9.691  0.2812 -0.0218 -0.2333
    1W        W56240   6.216  21.670   0.814  0.1510  0.0982  0.2639
    1W        W56241  27.070  23.393   7.416  0.0335 -0.1770 -0.3039
    1W        W56242   8.739  13.604   2.339 -0.0815  0.0831 -0.0700
    1W        W56243  14.490  22.291   0.485 -0.1164  0.0961 -0.2854
    1W        W56244  28.356  10.953   0.165 -0.0910  0.1619  0.1665
    1W        W56245  25.358  16.786   9.430  0.1206 -0.1104 -0.1606
    1W        W56246  12.566   7.507   8.488  0.3385  0.4968 -0.0363
    1W        W56247   8.165   7.567   7.758 -0.0424  0.3273 -0.0200
    1W        W56248  27.559  16.926   1.159  0.1056 -0.4043  0.2165
    1W        W56249   3.619  15.078   8.487 -0.0606  0.0233  0.1881
    1W        W56250   5.704  13.970   9.306  0.2105  0.1335  0.2695
    1W        W56251  27.574  14.474   1.416  0.5669 -0.1065 -0.1869
    1W        W56252   7.252  18.241   2.397 -0.1970  0.2567 -0.2733
    1W        W56253  17.034  11.943   6.813  0.0265  0.2790  0.4083
    1W        W56254  20.927  27.796   8.489 -0.1519  0.0488  0.0890
    1W        W56255  10.745  15.565   0.203 -0.0889  0.0582  0.2862
    1W        W56256   8.055  16.136   8.015  0.3046 -0.0471 -0.0720
    1W        W56257  14.621   2.725   7.833  0.0393  0.0002 -0.1401
    1W        W56258  20.819  15.737   7.187 -0.0048  0.2313  0.0761
    1W        W56259  19.081  18.925   8.683  0.0195  0.0555  0.0553
    1W        W56260  11.282  25.691   2.963 -0.0723  0.2264 -0.1675
    1W        W56261  18.119  17.509   6.002 -0.1664  0.4464  0.1675
    1W        W56262  18.903   3.337   1.063  0.0487  0.2604  0.1288
    1W        W56263  23.914   1.533   1.635  0.1784 -0.0850  0.0927
    1W        W56264  17.566  17.045   1.177 -0.3185  0.0903  0.2625
    1W        W56265  19.940   5.356   1.583 -0.4775  0.2267 -0.0827
    1W        W56266   0.408  20.498   0.619 -0.0504  0.2524  0.1552
    1W        W56267  19.140  15.191   2.385 -0.1745  0.0004  0.0849
    1W        W56268  11.443  19.660   7.680  0.0601  0.0364 -0.1004
    1W        W56269  16.251  25.338   2.561 -0.1670 -0.3813 -0.2952
    1W        W56270  18.075   6.445   8.486  0.1282 -0.0214  0.3704
    1W        W56271  25.196  13.311   7.592  0.2394 -0.1621 -0.2826
    1W        W56272  16.460  20.253   2.281  0.1234  0.0324  0.0364
    1W        W56273  27.302  11.155   0.756 -0.0939  0.2966 -0.0098
    1W        W56274   7.430  15.258   1.553 -0.2203  0.2170  0.4958
    1W        W56275  26.666  22.092   7.467 -0.2761 -0.2679 -0.1951
    1W        W56276  18.700  10.801   8.380 -0.2975  0.2011  0.0666
    1W        W56277   6.078  26.860   9.460 -0.1473  0.0105 -0.2941
    1W        W56278  16.524  20.919   9.720  0.2421 -0.2478  0.2109
    1W        W56279  14.386   5.140   1.473  0.0243  0.0998 -0.0488
    1W        W56280   9.463   7.956   7.982 -0.1543 -0.0020  0.1690
    1W        W56281  19.292  16.521   0.114  0.1638  0.3170  0.1465
    1W        W56282   0.966  21.611   7.437 -0.2435  0.0782  0.3488
    1W        W56283  26.881   7.595   2.532  0.0367  0.1943  0.0557
    1W        W56284  21.185  24.269   7.421 -0.0572 -0.0240  0.1276
    1W        W56285  19.378  21.647   2.072  0.1072 -0.0591 -0.2530
    1W        W56286  15.981  25.956   8.437  0.0170 -0.2664 -0.0952
    1W        W56287  11.396   5.286   1.900  0.1107 -0.0009  0.2622
    1W        W56288  22.341  16.163   9.393  0.0884  0.0155  0.0931
    1W        W56289  12.569  26.825   9.980  0.1770  0.2200 -0.4105
    1W        W56290   2.871   6.899   1.361  0.1408  0.2313 -0.0245
    1W        W56291   8.568  13.481   6.971 -0.1232 -0.2028 -0.1399
    1W        W56292   7.402   5.254   8.192 -0.0437  0.1650  0.1869
    1W        W56293  11.791  26.110   7.543 -0.1066 -0.0800  0.1268
    1W        W56294  10.675   0.410   2.185 -0.3900 -0.1492 -0.1073
    1W        W56295   6.756  12.915   7.104 -0.1743 -0.0193 -0.0216
    1W        W56296   3.724   9.367   8.497 -0.0550  0.0822 -0.1043
    1W        W56297   6.577  14.452   9.619 -0.0936 -0.1014 -0.0799
    1W        W56298  24.294  10.115   2.311  0.2129 -0.0297 -0.0504
    1W        W56299  17.258  19.654   8.167 -0.0253 -0.0499 -0.1234
    1W        W56300  15.849   1.754   1.455 -0.1065  0.0121 -0.0396
    1W        W56301  26.043   0.326   7.978  0.2552 -0.1687 -0.1594
    1W        W56302  12.128  11.462   0.758  0.1583 -0.3528 -0.0184
    1W        W56303  26.147  11.389   3.755 -0.2282 -0.2237  0.1916
    1W        W56304  12.783  22.107   8.611  0.2290 -0.0911  0.5510
    1W        W56305  20.979   7.756   1.409 -0.0805 -0.0269 -0.3820
    1W        W56306  19.800  17.062   7.891 -0.0140  0.0387 -0.1924
    1W        W56307   0.418   5.804   4.251  0.2024  0.1691 -0.2287
    1W        W56308   9.234  22.749   1.488 -0.3407 -0.1703  0.0801
    1W        W56309  13.988  15.507   9.903 -0.0127 -0.0172 -0.0515
    1W        W56310  15.905  24.740   7.663  0.1384  0.1158  0.3323
    1W        W56311  10.307   0.090   3.492 -0.1957  0.3433 -0.3004
    1W        W56312   6.680  25.708   2.903 -0.3703  0.0027  0.0600
    1W        W56313  12.678   1.739   2.026  0.2937 -0.0118  0.0063
    1W        W56314  19.061   7.844   1.567  0.0755 -0.1599  0.0943
    1W        W56315  15.901  26.769   1.639  0.0389 -0.1441 -0.1745
    1W        W56316  26.458   9.671   9.729  0.0135 -0.1940 -0.1436
    1W        W56317   5.177   0.640   9.292 -0.1779 -0.0635 -0.0739
    1W        W56318  11.991   2.719   0.474  0.1942  0.2301 -0.0360
    1W        W56319  12.604  14.883   8.206  0.0501  0.0254 -0.0929
    1W        W56320  20.828  11.468   3.173 -0.0872  0.0091  0.2657
    1W        W56321  22.844  19.259   1.060  0.0059 -0.2143  0.1822
    1W        W56322  10.530  25.155   7.042  0.3195  0.1961  0.2892
    1W        W56323  11.627  26.139   8.004  0.1660 -0.1396 -0.4049
    1W        W56324  10.455  14.799   8.301  0.1718 -0.0758 -0.4426
    1W        W56325  11.715  15.282   8.579  0.0316  0.0788  0.0379
    1W        W56326   5.381  22.280   8.654 -0.0149  0.3821  0.0472
    1W        W56327   3.845  26.108   1.843 -0.0681 -0.0140  0.1549
    1W        W56328   1.500  19.416   6.956  0.1751 -0.1894  0.1831
    1W        W56329   8.796   0.208   3.351  0.2919 -0.1017 -0.2385
    1W        W56330  16.214   3.161   6.983  0.0247 -0.0992 -0.0359
    1W        W56331   3.490   5.759   9.381  0.0049  0.0560  0.4586
    1W        W56332  16.102   7.644   6.196  0.0035 -0.1677 -0.1718
    1W        W56333  15.605  16.420   9.566 -0.2002  0.2938  0.0521
    1W        W56334   8.096  10.872   7.090  0.2400  0.2812  0.2334
    1W        W56335  11.506   8.223   1.427 -0.0973 -0.0988 -0.0403
    1W        W56336   6.322  27.047   9.017  0.0530 -0.1013 -0.1024
    1W        W56337  19.680  14.242   9.627 -0.0517  0.0810 -0.2504
    1W        W56338   1.668  13.313   3.115 -0.3474  0.0570  0.2698
    1W        W56339  21.427  24.016   8.808  0.0467 -0.1429  0.1867
    1W        W56340  23.546  13.730   2.258 -0.0089  0.0266  0.1721
    1W        W56341   2.595   2.936   7.718 -0.3456  0.0405  0.0870
    1W        W56342   1.098  27.839   3.359  0.1179  0.0059 -0.1420
    1W        W56343   8.381  17.874   1.143 -0.1312  0.0266 -0.0804
    1W        W56344   7.624  21.641   7.977  0.0088  0.0923  0.1738
    1W        W56345  23.286   1.369   6.476 -0.1815 -0.0219 -0.0316
    1W        W56346   0.433  23.257   9.592  0.0147  0.0907 -0.0862
    1W        W56347  28.782   1.965   0.677  0.0901  0.0405 -0.1134
    1W        W56348  16.114  18.165   0.328  0.1368  0.2179  0.0729
    1W        W56349  28.194   6.837   0.023 -0.1532  0.0413 -0.1711
    1W        W56350  20.669  18.452   8.779  0.1595 -0.1078  0.1003
    1W        W56351   1.646  28.465   0.236  0.0381 -0.0115 -0.2747
    1W        W56352   5.517  22.667   1.797  0.3109  0.1255  0.1942
    1W        W56353  22.566  28.212   7.381 -0.2722 -0.1925  0.0314
    1W        W56354   8.309  16.279   7.545  0.0227 -0.1756  0.0282
    1W        W56355  24.375  21.262   6.322 -0.3353  0.0983  0.1602
    1W        W56356  26.733  12.124   8.896  0.1724  0.1215 -0.0639
    1W        W56357  13.819   6.184   7.958  0.0998  0.0128 -0.3120
    1W        W56358  19.032  12.875   2.453  0.2648 -0.0523 -0.2656
    1W        W56359  15.403  10.800   7.897 -0.1243  0.4753 -0.0192
    1W        W56360  25.889  25.968   8.242  0.1335 -0.0286 -0.0246
    1W        W56361  19.720  17.869   6.746 -0.3926 -0.0988  0.3719
    1W        W56362  17.741  15.885   9.228  0.1402 -0.1063 -0.1995
    1W        W56363  16.224  12.528   8.398 -0.1636  0.0822 -0.0505
    1W        W56364   6.775   8.567   7.243 -0.4279 -0.1478  0.0940
    1W        W56365  13.644  14.622   9.027  0.2970 -0.0343 -0.0934
    1W        W56366  20.823  12.794   7.511 -0.1111 -0.1158 -0.0525
    1W        W56367   9.008   5.372   1.973  0.0315 -0.3886 -0.1571
    1W        W56368  28.866   1.981   3.201  0.0706 -0.3710 -0.1089
    1W        W56369  24.366   2.973   9.502  0.1943 -0.3273 -0.1418
    1W        W56370  19.708  11.009   5.726 -0.1534  0.1820 -0.2128
    1W        W56371  22.659   8.395   9.850 -0.2082 -0.1928  0.3039
    1W        W56372   6.125  23.545   0.698  0.0655 -0.2302 -0.0654
    1W        W56373  22.902  25.314   2.099 -0.2213  0.0637 -0.0141
    1W        W56374  28.329   2.902   8.615  0.0303 -0.1471 -0.1698
    1W        W56375  15.453  15.447   1.671 -0.1905  0.0164  0.0957
    1W        W56376  21.940  14.307   1.983 -0.0477 -0.2692 -0.0237
    1W        W56377  23.517  16.022   2.706  0.0022 -0.3839  0.3410
    1W        W56378  26.341   2.427   2.868 -0.0303  0.1009  0.5424
    1W        W56379  27.018  27.647   8.722  0.2642  0.1626 -0.3813
    1W        W56380   1.304   3.244   0.190 -0.2754  0.2751  0.2848
    1W        W56381  25.590  27.900   1.357  0.2944  0.0556 -0.1394
    1W        W56382  10.201  13.063   9.414  0.2802 -0.2442 -0.2840
    1W        W56383   2.713   3.311   2.784 -0.0035  0.1976  0.0309
    1W        W56384  10.075  12.937   6.799  0.1100 -0.1722  0.2339
    1W        W56385  22.798   1.224   2.278  0.1246 -0.0437  0.2135
    1W        W56386  18.606   6.263   8.462 -0.1555  0.1547 -0.0262
    1W        W56387  13.487   7.130   6.343 -0.1048  0.2989  0.0308
    1W        W56388   8.514   7.994   2.345  0.0179 -0.0987  0.2048
    1W        W56389   0.827  19.084   9.478  0.2176  0.2524  0.0584
    1W        W56390   1.338  25.277   1.601  0.0943  0.1215 -0.0348
    1W        W56391   9.128  23.524   0.694 -0.0845  0.3363 -0.0635
    1W        W56392  17.247   0.147   9.316 -0.0787 -0.0139 -0.1298
    1W        W56393   9.656  11.778   8.260  0.1876  0.1043  0.3815
    1W        W56394  28.155   1.217   9.286 -0.2215  0.1033  0.0694
    1W        W56395   6.729  21.021   1.210  0.2094 -0.0977 -0.0506
    1W        W56396   9.985   0.446   9.836 -0.2138  0.1364 -0.0079
    1W        W56397  23.107   0.959   2.575 -0.0631  0.1829 -0.2063
    1W        W56398   8.465   7.164   0.081 -0.2214 -0.0737 -0.0555
    1W        W56399  24.403  16.911   0.486 -0.0666  0.3225 -0.0389
    1W        W56400   7.872  27.914   2.167 -0.0743 -0.0711 -0.0170
    1W        W56401   1.008   4.796   8.874 -0.0216 -0.2280  0.0545
    1W        W56402   7.386  27.816   1.961 -0.2897  0.0786  0.1772
    1W        W56403   4.937   1.050   9.423  0.3690  0.1174  0.0987
    1W        W56404   0.419  18.351   2.040  0.3337  0.0032  0.1133
    1W        W56405  18.246  20.947   8.592 -0.0450  0.0167 -0.0714
    1W        W56406   3.377   2.101   4.468 -0.1173  0.4036 -0.2303
    1W        W56407  15.594  27.331   8.083  0.0466  0.0573 -0.0512
    1W        W56408  25.679   2.026   3.236  0.1887  0.0138 -0.1553
    1W        W56409  15.290   1.222   0.831 -0.1727 -0.2568  0.1619
    1W        W56410  24.996  14.849   7.153 -0.0606  0.1251  0.1088
    1W        W56411  20.213  19.065   1.266  0.0477  0.1062 -0.1760
    1W        W56412  19.671   3.431   9.857  0.2834 -0.0813 -0.2654
    1W        W56413  10.870   6.313   0.384  0.2876  0.1278  0.1625
    1W        W56414  22.882   9.183   7.839 -0.4215 -0.2169  0.2125
    1W        W56415   6.074  19.973   1.906 -0.1044  0.1521  0.0327
    1W        W56416  10.754  24.239   2.228 -0.1509 -0.2966  0.0271
    1W        W56417  23.050   3.926   0.606 -0.1452 -0.3551 -0.1846
    1W        W56418  17.052  15.492   0.936  0.0212 -0.0592 -0.0568
    1W        W56419  10.959  25.268   8.951 -0.1975 -0.2674  0.2507
    1W        W56420   2.852  10.307   0.156 -0.1925  0.3081  0.0525
    1W        W56421  26.425  28.418   2.061 -0.2434  0.0528 -0.0917
    1W        W56422  15.608   5.215   1.009 -0.1148  0.3137 -0.2677
    1W        W56423   9.065   7.404   2.213 -0.3519 -0.3110  0.0482
    1W        W56424   6.433  19.925   1.513 -0.3321  0.0281 -0.0874
    1W        W56425  25.152   7.418   8.747  0.1004 -0.3481  0.0406
    1W        W56426  16.722  18.549   6.889  0.0751  0.0266  0.0391
    1W        W56427   3.221   2.910   1.896 -0.0237  0.4803  0.3485
    1W        W56428  14.823  15.782   9.162 -0.1511 -0.0196  0.1849
    1W        W56429   8.370  25.733   9.993  0.0009  0.0135 -0.1420
    1W        W56430  16.173  16.454   8.542  0.2158 -0.1455  0.0715
    1W        W56431  10.711  21.504   9.448 -0.1688 -0.2823 -0.1632
    1W        W56432   2.690   1.348   9.749  0.1239  0.1236 -0.0905
    1W        W56433  19.100   5.408   1.728  0.3700  0.0362 -0.3022
    1W        W56434  13.426   7.121   9.012 -0.1700 -0.0228  0.2085
    1W        W56435  23.176  16.751   7.396 -0.3167 -0.2124 -0.0682
    1W        W56436  28.154   0.813   8.040 -0.1882 -0.1957 -0.0273
    1W        W56437   9.975  27.446   8.517  0.3193 -0.1776  0.1058
    1W        W56438   2.608  16.581   2.281 -0.0046  0.2622 -0.0959
    1W        W56439  25.728  21.862   2.561  0.4442 -0.0838 -0.0330
    1W        W56440   5.715  19.650   0.512 -0.1881 -0.0154 -0.1016
    1W        W56441  26.463   3.795   3.792  0.2046  0.1798  0.2924
    1W        W56442  20.132  12.576   1.567  0.3251  0.5607 -0.0011
    1W        W56443  23.011  20.266   1.794  0.0265 -0.1954  0.1496
    1W        W56444  10.542  28.001   8.780  0.2091  0.0440 -0.0100
    1W        W56445   2.565   6.446   0.222  0.1510  0.0797  0.3318
    1W        W56446   8.098  15.695   6.762  0.2636  0.0750 -0.0694
    1W        W56447  19.497   0.603   9.037  0.1105 -0.0229 -0.0252
    1W        W56448  19.028   9.117   9.255 -0.0091 -0.0469 -0.0061
    1W        W56449  21.211  10.444   2.298  0.0614 -0.3053  0.0017
    1W        W56450   1.173  11.728   9.029  0.2741  0.0042  0.3526
    1W        W56451   6.151  13.755   0.457 -0.0743 -0.1624 -0.1589
    1W        W56452  27.217   0.016   1.913  0.0651  0.0156  0.2584
    1W        W56453  14.659  14.930   1.574  0.0747 -0.1311 -0.3501
    1W        W56454  18.145  18.533   7.632 -0.1029  0.0579 -0.0094
    1W        W56455  17.610   9.950   0.249  0.3116  0.0014 -0.1151
    1W        W56456  23.690  26.518   0.236  0.0859 -0.3878  0.2128
    1W        W56457  14.632  21.834   1.762 -0.2602 -0.1622  0.0133
    1W        W56458  12.315   0.302   0.543 -0.2252 -0.0093 -0.0382
    1W        W56459  14.568  19.380   0.063  0.0190 -0.1232 -0.2051
    1W        W56460  26.449   7.176   9.427 -0.1189 -0.0172  0.1860
    1W        W56461  24.085  23.533   0.040 -0.0787  0.4289  0.0377
    1W        W56462  18.508  16.712   7.620  0.2916  0.0370 -0.2622
    1W        W56463  22.808  23.389   8.046 -0.1434 -0.0455 -0.0871
    1W        W56464  16.325  17.311   2.090  0.4076  0.4194  0.3080
    1W        W56465  17.348  10.820   6.915 -0.3620 -0.0278 -0.0428
    1W        W56466   8.703  26.121   1.552  0.1558 -0.5651 -0.3442
    1W        W56467  14.611   2.312   1.571  0.1254  0.0726  0.0827
    1W        W56468   5.835   3.698   2.049 -0.1811  0.2857  0.1023
    1W        W56469   7.783  19.395   1.500 -0.0559 -0.1287  0.1181
    1W        W56470  27.113  18.624   2.122  0.0071 -0.0335 -0.1899
    1W        W56471  21.432  16.705   0.800 -0.0912  0.0100 -0.2268
    1W        W56472  12.345  19.203   8.331  0.2042 -0.0583  0.0910
    1W        W56473  28.210  18.635   2.745 -0.2275  0.2742 -0.0471
    1W        W56474  20.513  26.097   1.974 -0.2498  0.1218 -0.1891
    1W        W56475   1.972  15.518   3.766  0.0036 -0.0852  0.1072
    1W        W56476   0.779   8.385   9.986 -0.0939  0.4603 -0.0124
    1W        W56477   9.770  21.129   7.918 -0.2655 -0.2252 -0.1962
    1W        W56478  11.088  23.040   9.449 -0.3539 -0.0793  0.0557
    1W        W56479   1.240   0.849   8.848  0.1140 -0.1797  0.0115
    1W        W56480  15.350  21.796   2.337  0.2209 -0.0695  0.1104
    1W        W56481  13.819  27.655   7.450 -0.0069 -0.1116  0.0460
    1W        W56482  27.379   9.777   0.820  0.2100  0.0004 -0.2291
    1W        W56483   1.549  15.068   2.729  0.0507 -0.0872 -0.0557
    1W        W56484  23.866   4.193   3.107 -0.1076 -0.0364 -0.1541
    1W        W56485  12.997  12.665   1.798  0.2504 -0.1782 -0.2175
    1W        W56486   4.912  26.454   2.918  0.0747  0.0843 -0.1020
    1W        W56487  13.502  17.208   0.584 -0.1832  0.0441 -0.0643
    1W        W56488  12.647   5.195   8.563  0.0101  0.3192 -0.0657
    1W        W56489  24.444   6.652   8.553 -0.4287 -0.0916 -0.0485
    1W        W56490  10.082  15.314   7.900 -0.3119 -0.0821  0.1141
    1W        W56491  20.935  25.699   2.809 -0.3964 -0.0408 -0.3030
    1W        W56492  16.880  24.972   7.627 -0.0478 -0.0525  0.0193
    1W        W56493   9.698  21.749   2.787 -0.0043 -0.2096 -0.1850
    1W        W56494   8.526  21.098   3.384 -0.1269  0.2341 -0.0391
    1W        W56495   7.555  20.425   1.496 -0.2381  0.0331 -0.1426
    1W        W56496  20.819  12.969   8.520 -0.4098  0.0073  0.0795
    1W        W56497  27.994  15.457   1.427 -0.0954 -0.0055 -0.0783
    1W        W56498   1.818  19.620   3.040 -0.0153  0.0550 -0.2355
    1W        W56499  17.410   2.313   9.952  0.0481 -0.0220 -0.0149
    1W        W56500  28.644  17.456   3.299  0.0618  0.0210  0.2145
    1W        W56501  10.509  19.993   7.076  0.0794  0.2233  0.1276
    1W        W56502  21.717  14.995   9.512  0.1288  0.0525  0.2270
    1W        W56503  10.759  28.596   0.657  0.0736  0.2165 -0.1220
    1W        W56504   7.913  18.016   1.467 -0.0787  0.2089  0.2144
    1W        W56505  25.522   1.522   1.606 -0.0828  0.2962  0.0291
    1W        W56506  14.456  19.995   2.887  0.3628  0.0591 -0.2771
    1W        W56507  16.622  18.122   0.960  0.0911 -0.1687 -0.0029
    1W        W56508  14.824  22.213   6.739  0.1829  0.0111 -0.2789
    1W        W56509   9.208  11.918   0.526  0.0425  0.1794  0.0944
    1W        W56510  24.412   9.136   7.030 -0.1300  0.2339 -0.0808
    1W        W56511  28.096  17.708   0.470 -0.0399 -0.0413  0.0435
    1W        W56512   0.985  11.225   0.073  0.2491  0.0417  0.1740
    1W        W56513  19.869  25.550   0.010  0.0394 -0.2524  0.2030
    1W        W56514   5.549  12.618   2.320 -0.0577  0.0003  0.0586
    1W        W56515   9.806   9.720   2.391 -0.2505 -0.1220  0.0808
    1W        W56516   4.949  14.326   7.453  0.1512 -0.0746 -0.0329
    1W        W56517   2.672   1.420   8.375 -0.0986  0.3110  0.0901
    1W        W56518  16.173   1.144   7.987  0.0727 -0.1228 -0.0349
    1W        W56519  26.341  22.151   8.589  0.1292 -0.0433  0.3996
    1W        W56520  27.752  28.571   9.147 -0.0083  0.0276 -0.0960
    1W        W56521  16.426   3.510   7.856  0.0704  0.2535 -0.1135
    1W        W56522  13.426  13.829   1.086  0.0121 -0.0786 -0.0245
    1W        W56523  19.644  26.876   1.262 -0.1168  0.0877 -0.1674
    1W        W56524   8.394  25.893   0.516  0.1163 -0.1362  0.0239
    1W        W56525  13.510  25.937   3.078 -0.1607  0.0039  0.0278
    1W        W56526   0.566   0.519   0.898 -0.0536 -0.1242  0.3214
    1W        W56527   2.295  27.688   3.294  0.1414  0.1487  0.0407
    1W        W56528   3.138  15.817   3.522 -0.2208  0.0768 -0.1575
    1W        W56529  23.786   6.769   8.023 -0.1396  0.3077 -0.4088
    1W        W56530   1.086  26.454   9.663 -0.0738 -0.0585  0.0494
    1W        W56531   5.047   6.676   8.229  0.2074  0.0241 -0.0712
    1W        W56532  18.847  28.562   0.935  0.0158  0.0359 -0.2691
    1W        W56533  11.634  20.820   1.764 -0.0698 -0.0952  0.1673
    1W        W56534  16.810   9.617   0.980 -0.1101 -0.2394  0.2282
    1W        W56535  20.863  20.134   1.759 -0.5138 -0.0150 -0.5219
    1W        W56536  18.701  16.159   7.909  0.0139  0.1955 -0.0942
    1W        W56537  24.113  11.758   8.594  0.2559 -0.0500  0.2272
    1W        W56538  22.138  12.780   0.553  0.0566  0.1658  0.2441
    1W        W56539   3.007  19.221   1.946 -0.1876 -0.1070  0.0078
    1W        W56540   3.880  17.263   7.437  0.0157  0.2528  0.1235
    1W        W56541  15.640   8.973   8.395  0.0829  0.0008  0.2854
    1W        W56542   5.761   2.021   3.222 -0.4565  0.1269 -0.0899
    1W        W56543  14.018  21.667   7.710 -0.1380 -0.4583  0.5336
    1W        W56544  22.638  23.574   1.978  0.2503  0.1372  0.0751
    1W        W56545   1.002  21.560   1.922 -0.1280  0.1662  0.2160
    1W        W56546  16.142   3.603   0.667 -0.0757 -0.0029 -0.0258
    1W        W56547  26.621  10.622   0.977  0.0447  0.2347  0.0733
    1W        W56548  20.976   5.045   1.640 -0.1986  0.1475  0.1414
    1W        W56549  20.627  19.386   5.535 -0.2221  0.0919  0.0238
    1W        W56550  12.179  25.143   7.058  0.2262 -0.0922  0.0635
    1W        W56551  25.106   9.608   1.109 -0.0852 -0.0287 -0.0561
    1W        W56552  16.195  13.382   9.522  0.2947  0.0484 -0.0160
    1W        W56553  20.656   5.126   9.311 -0.1507 -0.0128  0.0606
    1W        W56554   7.067   2.249   9.599  0.0061 -0.3090 -0.0666
    1W        W56555   5.287   9.352   9.495  0.1794 -0.0684 -0.1294
    1W        W56556  15.718  20.195   0.239  0.1356  0.1625  0.0780
    1W        W56557   1.880   3.694   7.606 -0.0242  0.0852  0.2137
    1W        W56558   7.260   8.885   0.515 -0.0616  0.0466  0.2951
    1W        W56559  20.732  15.418   8.014  0.0302 -0.3343 -0.0708
    1W        W56560   5.658   9.135   7.598  0.0743 -0.1046  0.0847
    1W        W56561  12.171  14.764   9.285  0.1701 -0.1060 -0.0018
    1W        W56562   3.495   5.034   3.935  0.0566  0.1434 -0.0578
    1W        W56563  10.208   1.400   0.680  0.1517  0.0491  0.1870
    1W        W56564   8.943  21.056   3.684 -0.1785 -0.2865 -0.0355
    1W        W56565   3.375   7.243   2.259  0.1502  0.1101  0.0662
    1W        W56566  26.961  13.741   9.335  0.0120  0.1923  0.0732
    1W        W56567  28.336   7.025   1.270 -0.0100  0.0633 -0.1296
    1W        W56568  22.874  19.881   0.744  0.1041  0.3252  0.0728
    1W        W56569  15.306   3.308   9.559 -0.0068  0.2421 -0.1069
    1W        W56570  11.633  10.292   1.258 -0.0624  0.0683  0.3728
    1W        W56571  21.591  14.619   1.268 -0.0043 -0.0241 -0.0116
    1W        W56572   8.264   4.792   0.361  0.1088  0.0028 -0.2973
    1W        W56573  27.794   1.484   9.518  0.1536  0.2050  0.1332
    1W        W56574   4.128   9.611   7.722  0.1104 -0.0716  0.1051
    1W        W56575  17.967   0.567   1.102 -0.2734 -0.0758  0.1854
    1W        W56576   8.330   9.390   9.566 -0.1823  0.1791  0.1861
    1W        W56577  19.102  17.719   9.361 -0.0198 -0.0610 -0.0201
    1W        W56578  27.102  28.156   1.880 -0.1374  0.0252  0.0144
    1W        W56579   3.992   1.796   3.785 -0.2746  0.0912  0.0001
    1W        W56580   5.592   1.934   2.609 -0.0209 -0.0497 -0.0492
    1W        W56581  10.278   4.072   6.292 -0.0908  0.2123  0.0087
    1W        W56582   1.984   8.416   8.514  0.1531 -0.1340  0.0848
    1W        W56583   8.636   5.477   3.248 -0.2315 -0.1578 -0.0433
    1W        W56584  14.648  20.592   8.831  0.0618  0.1586 -0.2203
    1W        W56585  20.676  20.168   9.855 -0.1622  0.0464 -0.2310
    1W        W56586  10.897  17.780   8.713  0.2558 -0.0035 -0.0882
    1W        W56587  15.125  23.463   9.882  0.2975  0.0216 -0.4571
    1W        W56588  19.126  28.174   0.914 -0.1222 -0.3179 -0.2513
    1W        W56589   3.586  26.308   9.077  0.2278  0.0075  0.1540
    1W        W56590   9.429   7.302   9.851 -0.1656  0.0558 -0.0371
    1W        W56591  13.489  26.402   1.089 -0.1540 -0.1225  0.3463
    1W        W56592  19.877   8.487   7.209 -0.2941 -0.2138 -0.2813
    1W        W56593  15.520  25.732   2.585 -0.1762  0.0936 -0.1810
    1W        W56594  26.608   5.545   0.171  0.2779  0.0637 -0.3257
    1W        W56595  25.973  23.068   3.000  0.0505 -0.1244 -0.1040
    1W        W56596  12.956  26.536   0.190  0.1122  0.0932  0.0459
    1W        W56597   3.405  22.446   2.748  0.2261 -0.2829 -0.1870
    1W        W56598  25.235  17.851   8.775 -0.2214  0.0425 -0.0003
    1W        W56599   7.655  18.963   1.718  0.1772 -0.0148  0.2428
    1W        W56600  13.287  28.828   0.150 -0.1572  0.1402  0.1964
    1W        W56601   7.534   5.078   9.805  0.0722 -0.1300 -0.1234
    1W        W56602  16.342  16.099   9.225  0.0079  0.1741 -0.0591
    1W        W56603   7.370   3.559   9.753  0.1703 -0.1178 -0.3089
    1W        W56604  24.305   3.821   1.635  0.2237  0.2801 -0.1332
    1W        W56605  20.708  22.711   8.478 -0.0148  0.2055 -0.1864
    1W        W56606  15.403   2.805   7.075 -0.1921  0.1073  0.0607
    1W        W56607   7.091  13.308   7.371 -0.1285 -0.2622  0.2495
    1W        W56608  17.540  13.034   9.711  0.2522  0.0845 -0.1254
    1W        W56609   7.152   4.842   3.969  0.0711 -0.2646  0.0196
    1W        W56610   2.845   3.263   9.185  0.0613  0.0862  0.3508
    1W        W56611  15.101  22.560   0.681  0.0053  0.2799 -0.1936
    1W        W56612  10.229  11.568   2.132  0.5194 -0.1449 -0.0797
    1W        W56613   6.275  25.458   3.139  0.4966 -0.0454 -0.0686
    1W        W56614  16.989  24.877   9.091 -0.1514  0.0732 -0.1890
    1W        W56615   6.138  18.743   1.588  0.1712 -0.1136  0.0486
    1W        W56616  13.842  26.314   0.519 -0.1506 -0.2250  0.0931
    1W        W56617  10.745   2.500   0.114  0.0830 -0.0126  0.2876
    1W        W56618  22.723   0.843   7.420 -0.2699  0.2138  0.4269
    1W        W56619  23.073  17.350   1.975  0.2655  0.0302 -0.0888
    1W        W56620  11.694  22.103   7.513 -0.0007  0.1969 -0.0959
    1W        W56621  17.964  12.466   7.001  0.0483  0.0162 -0.1516
    1W        W56622  15.165   6.305   6.086  0.1756 -0.2980  0.1645
    1W        W56623   2.860  22.719   0.435 -0.0527  0.2445 -0.3692
    1W        W56624  26.346  22.976   2.092 -0.1011  0.2474  0.2597
    1W        W56625  25.654   3.877   0.597 -0.0648 -0.1895 -0.0935
    1W        W56626   4.130  26.415   1.539 -0.1364 -0.1875 -0.2437
    1W        W56627   5.671   8.572   9.823 -0.0809 -0.1576 -0.4390
    1W        W56628  14.629   2.807   1.718  0.2436  0.3076  0.0846
    1W        W56629   2.380  19.821   7.061 -0.2505  0.0846 -0.2410
    1W        W56630   3.283  17.420   9.202 -0.1957 -0.0823 -0.2628
    1W        W56631  25.432  13.589   1.211  0.0160  0.3086 -0.4267
    1W        W56632   4.465  12.085   6.605 -0.0739  0.0230  0.0270
    1W        W56633  20.092  25.822   0.467 -0.1457 -0.0338  0.0982
    1W        W56634  18.802  12.787   9.614 -0.1964  0.1443 -0.0613
    1W        W56635   7.501  22.951   1.515 -0.1429 -0.1264 -0.1691
    1W        W56636   4.115  22.421   8.052 -0.2688  0.1181  0.0938
    1W        W56637  18.023   7.346   5.543 -0.0428  0.3546 -0.0850
    1W        W56638   3.862  24.740   2.203  0.0017  0.3069  0.1133
    1W        W56639  19.895   4.357   1.951  0.0279 -0.1284  0.0273
    1W        W56640   4.392   8.595   7.662 -0.1339 -0.0606  0.1727
    1W        W56641  21.415  13.542   7.523 -0.0834 -0.2236 -0.1425
    1W        W56642  26.800  10.034   8.095 -0.0563  0.2264  0.0728
    1W        W56643  22.722   1.701   7.830  0.1238  0.1596 -0.1881
    1W        W56644  22.152  15.253   0.273  0.3364 -0.1143 -0.3327
    1W        W56645  24.015   1.100   1.929 -0.1772 -0.1661  0.0303
    1W        W56646  25.115  10.837   7.307 -0.0319 -0.0094 -0.4797
    1W        W56647   0.159   4.836   1.321 -0.0025  0.1417  0.0374
    1W        W56648  23.409  22.443   0.149 -0.0563 -0.3921 -0.1249
    1W        W56649  11.472   1.707   9.812 -0.0751 -0.0991 -0.2401
    1W        W56650  15.279   1.202   2.646  0.3077 -0.1410 -0.1473
    1W        W56651  28.339   7.722   8.519 -0.1262  0.0744  0.1478
    1W        W56652   0.832  17.810   1.405  0.0452  0.1339 -0.1072
    1W        W56653  11.254  16.443   6.815  0.2614  0.0258 -0.0315
    1W        W56654  26.548  20.508   8.694  0.0416  0.2345  0.1153
    1W        W56655  13.654  18.237   9.123 -0.0378 -0.1854 -0.0935
    1W        W56656   9.617  24.363   9.547 -0.0349 -0.2806  0.0821
    1W        W56657   7.516  17.315   6.796  0.0612  0.0090 -0.1141
    1W        W56658  21.424   7.437   7.673 -0.1182 -0.1038  0.2118
    1W        W56659  26.674  12.691   3.591 -0.2973 -0.2919  0.1055
    1W        W56660   3.476  12.525   9.474  0.1507  0.1037  0.1232
    1W        W56661  13.852  20.072   2.210  0.0445 -0.0342 -0.1808
    1W        W56662  25.225  16.886   2.594 -0.1380 -0.0236  0.0290
    1W        W56663  22.002  19.825   2.735 -0.0444 -0.1876  0.1551
    1W        W56664  23.163   9.290   1.071  0.0411  0.2206 -0.1882
    1W        W56665   0.803  27.206   8.605 -0.0742 -0.1028  0.1433
    1W        W56666  17.080  14.707   2.501 -0.4874 -0.0285  0.0748
    1W        W56667  16.855  18.857   1.254 -0.3799 -0.0403 -0.3149
    1W        W56668  25.684  17.361   7.866 -0.0224 -0.0097  0.0600
    1W        W56669  17.451   0.287   2.762 -0.1560  0.0870 -0.0156
    1W        W56670  21.248   3.704   1.697 -0.1142 -0.1900 -0.2147
    1W        W56671  27.207   0.313   3.159 -0.0307 -0.0713  0.1335
    1W        W56672  17.959   4.517   8.022 -0.0572  0.1412 -0.2717
    1W        W56673   9.351  13.135   8.420 -0.1213  0.0138  0.1648
    1W        W56674  27.703  22.606   2.945 -0.1221 -0.3675  0.2276
    1W        W56675   2.748  17.614   1.956 -0.2257  0.1593  0.0240
    1W        W56676  22.065   4.609   8.215 -0.0361  0.0949  0.0806
    1W        W56677   1.390  12.394   3.293 -0.0976 -0.2076 -0.3188
    1W        W56678   9.586  27.677   1.153 -0.0788 -0.1360  0.1538
    1W        W56679  25.534  18.657   0.081 -0.2152 -0.2065 -0.4982
    1W        W56680  18.600  22.367   1.643  0.1500 -0.1347  0.1288
    1W        W56681  12.292  21.166   2.078  0.2695 -0.0180 -0.2601
    1W        W56682  11.453  22.833   0.315  0.1413  0.2107  0.1697
    1W        W56683  27.619   5.157   2.487  0.1255 -0.0607  0.2224
    1W        W56684  24.070   9.627   1.046 -0.2036 -0.0935  0.1339
    1W        W56685  18.614   2.460   8.562 -0.1667  0.1453 -0.2324
    1W        W56686  22.270   2.296   7.368  0.0646 -0.0823 -0.0910
    1W        W56687  10.841   6.490   1.839 -0.1292 -0.3796  0.1118
    1W        W56688  26.994   6.306   4.687 -0.0106 -0.2938 -0.0427
    1W        W56689   1.303   0.814   3.613 -0.1488 -0.0094 -0.0317
    1W        W56690  25.276  10.583   1.318  0.1335 -0.1376  0.1021
    1W        W56691  10.112  21.527   6.996 -0.1592 -0.1508  0.1993
    1W        W56692  21.013  25.940   2.014  0.1261  0.1915  0.1528
    1W        W56693  17.057  13.998   2.022  0.0072  0.0035  0.1955
    1W        W56694   6.452  17.662   7.602  0.3410  0.1138 -0.4154
    1W        W56695  26.576  14.474   1.339  0.1325  0.2809  0.2779
    1W        W56696   3.820  17.850   2.765 -0.1712  0.0085  0.0151
    1W        W56697  11.105  17.934   7.659  0.1678 -0.1809 -0.0604
    1W        W56698   8.520   1.650   0.642  0.1711  0.0867 -0.0633
    1W        W56699  23.111  23.397   8.466 -0.1272 -0.3777  0.4186
    1W        W56700   9.344  26.339   7.513 -0.0882  0.0264 -0.1956
    1W        W56701  22.045  19.605   9.293 -0.3837 -0.4399 -0.3499
    1W        W56702  17.399  13.138   8.930  0.1405  0.1001  0.1576
    1W        W56703  22.896  25.473   7.686 -0.2002  0.1136  0.0693
    1W        W56704  28.800   2.644   1.224  0.0477  0.2272  0.2994
    1W        W56705   0.304  11.992   7.270  0.0447 -0.0853  0.1182
    1W        W56706   4.439  22.240   9.648  0.2801  0.1933  0.1360
    1W        W56707   0.831   0.206   0.002 -0.0977 -0.1345 -0.0784
    1W        W56708  16.895  15.432   8.236  0.0142 -0.1901 -0.1778
    1W        W56709  12.414  11.134   7.330  0.0592  0.1950 -0.0335
    1W        W56710  16.462  14.867   6.867  0.1751  0.2999 -0.4151
    1W        W56711  20.981  23.714   9.059  0.1301 -0.1625 -0.0057
    1W        W56712  25.597  17.239   2.160 -0.0491  0.3253  0.2549
    1W        W56713  28.516  23.356   1.123  0.1009  0.1255  0.0677
    1W        W56714  13.598   1.550   9.038 -0.0551 -0.2887  0.0652
    1W        W56715   9.685  11.665   7.437  0.0500  0.0527  0.2785
    1W        W56716   3.879  13.977   2.267  0.0749 -0.0706  0.5442
    1W        W56717  20.712  16.903   7.635 -0.2312 -0.1689 -0.3086
    1W        W56718   7.766   6.834   1.906 -0.0856  0.1422  0.0305
    1W        W56719   9.995  17.761   1.813 -0.3650  0.0709 -0.1652
    1W        W56720  26.459  19.993   0.671  0.1214 -0.2899 -0.1437
    1W        W56721  19.023  14.398   7.511  0.0460  0.0614  0.3999
    1W        W56722   7.644  17.346   2.345  0.1402  0.1008 -0.1165
    1W        W56723   1.636   4.110   3.660  0.1549  0.0358  0.0491
    1W        W56724  13.337  25.156   2.270 -0.1561  0.3242 -0.2958
    1W        W56725   9.380   6.771   8.886  0.2276  0.0065 -0.0567
    1W        W56726   5.568  24.421   0.634  0.3950  0.0466  0.1568
    1W        W56727   7.020  15.088   1.318  0.4571  0.0927  0.0373
    1W        W56728  15.479   7.518   8.818  0.3551 -0.1606  0.3133
    1W        W56729  21.697  24.199   9.247  0.0985  0.2419  0.0258
    1W        W56730  27.555   6.341   1.369 -0.0394 -0.0221 -0.0506
    1W        W56731  11.634  14.978   0.237 -0.0894 -0.1985 -0.3626
    1W        W56732  20.349  18.263   2.260  0.2428 -0.1927 -0.0890
    1W        W56733  19.327   1.879   8.580 -0.4021  0.0220 -0.1160
    1W        W56734   3.958  12.883   1.025 -0.0532 -0.0141 -0.0804
    1W        W56735  18.032  22.501   9.239  0.0244 -0.3040  0.0873
    1W        W56736   5.986  10.805   2.125 -0.0634  0.1672  0.3231
    1W        W56737  25.154  11.453   8.088  0.1847  0.2644  0.0080
    1W        W56738   7.481  16.688   0.374  0.2719  0.2783 -0.0480
    1W        W56739  17.176   0.569   9.055  0.2510 -0.1004  0.2580
    1W        W56740   3.430  14.713   1.943 -0.1124 -0.4264  0.0610
    1W        W56741  25.211   1.721   9.650  0.1324 -0.0190 -0.0635
    1W        W56742  19.476  22.606   2.305 -0.1941  0.2295  0.3399
    1W        W56743   5.100  17.350   2.496  0.0818  0.3349  0.1783
    1W        W56744  28.843  24.573   1.790 -0.0699  0.0346  0.2574
    1W        W56745   0.780   2.161   2.145  0.0735 -0.1497  0.1812
    1W        W56746  21.472  21.464   0.160 -0.4141 -0.0223  0.2286
    1W        W56747   9.695  21.336   9.177  0.1084  0.0780 -0.1659
    1W        W56748  17.565  14.681   0.855 -0.1332 -0.1462 -0.0142
    1W        W56749  10.197   2.351   8.928 -0.0877  0.0193 -0.1952
    1W        W56750  25.536  27.447   9.053  0.3489  0.2900  0.2309
    1W        W56751  27.305   2.816   3.559 -0.0783  0.0292 -0.2414
    1W        W56752  27.874  14.113   6.721 -0.0910  0.0165  0.3222
    1W        W56753   0.018  17.411   8.405  0.1307 -0.1002  0.0658
    1W        W56754  12.747  15.768   6.788  0.2464  0.2367 -0.1008
    1W        W56755   6.148  11.761   8.821  0.1862 -0.2109 -0.2675
    1W        W56756  22.444   9.670   7.829 -0.0289  0.1603 -0.2329
    1W        W56757  22.789  14.368   8.835 -0.2438  0.0503 -0.3673
    1W        W56758   2.161  25.041   2.332 -0.1834 -0.0653 -0.0823
    1W        W56759  13.171  22.586   0.657  0.0453 -0.2235  0.0535
    1W        W56760   5.731   8.792   8.703 -0.0618 -0.0511 -0.3594
    1W        W56761   5.360  23.043   8.143  0.0077  0.0351  0.2620
    1W        W56762   6.801   9.332   1.925  0.0886  0.0051 -0.0065
    1W        W56763   7.902  26.768   7.920  0.1518  0.1898 -0.1982
    1W        W56764  15.321   8.331   7.463 -0.0200 -0.0713 -0.0931
    1W        W56765   2.243   0.248   8.419 -0.0728 -0.1041  0.0137
    1W        W56766   6.583   8.376   2.140  0.3008 -0.1514 -0.0547
    1W        W56767  14.512  12.011   2.567  0.2291  0.1147  0.0106
    1W        W56768  24.821   0.105   9.048 -0.0578  0.0113 -0.3653
    1W        W56769  12.123   5.208   0.072  0.1879 -0.1111  0.0244
    1W        W56770   9.255  18.561   5.857 -0.1627 -0.0423 -0.1011
    1W        W56771   7.355  14.602   7.356 -0.0614  0.2590 -0.1090
    1W        W56772  26.727  23.141   0.496 -0.0614  0.0880  0.1332
    1W        W56773   8.396   1.777   1.443 -0.2976 -0.0826 -0.0902
    1W        W56774  25.281  13.197   8.656  0.4047 -0.1657  0.0422
    1W        W56775   6.207  23.501   0.219 -0.0414 -0.2401 -0.0080
    1W        W56776  25.274  26.322   8.710  0.0654 -0.0577 -0.0116
    1W        W56777  11.166  22.312   3.597 -0.0460  0.0547 -0.0783
    1W        W56778  10.090   7.525   7.403 -0.2082 -0.2807 -0.1302
    1W        W56779   3.458  22.326   9.021  0.1038 -0.1806 -0.0505
    1W        W56780  10.644  11.633   2.368 -0.0724  0.2209  0.0665
    1W        W56781  20.072  27.638   7.563  0.1042 -0.1692  0.1221
    1W        W56782  27.565  21.793   1.284 -0.0861 -0.0329  0.0264
    1W        W56783  13.791  24.867   6.791  0.0513 -0.0736  0.3100
    1W        W56784   2.014  24.187   1.446  0.0857 -0.0506 -0.1200
    1W        W56785  26.993   2.211   1.098 -0.0320  0.1533 -0.0416
    1W        W56786   8.171  21.454   6.355 -0.0155 -0.2746 -0.2008
    1W        W56787   2.972  23.971   0.084  0.0076 -0.0139  0.0367
    1W        W56788  10.698  18.164   1.707 -0.1725 -0.1445  0.0381
    1W        W56789  21.491  23.224   7.060 -0.2787  0.2181  0.1776
    1W        W56790   2.852  13.127   2.517  0.1972 -0.2034  0.0757
    1W        W56791   3.459  17.994   0.853 -0.1741 -0.0526 -0.1471
    1W        W56792   8.357   4.801   1.519  0.1604 -0.1576 -0.0790
    1W        W56793   0.127  12.464   1.173  0.2927 -0.0288 -0.1255
    1W        W56794   9.948   6.864   8.815 -0.1743 -0.0381 -0.0790
    1W        W56795   2.706   4.919   9.808  0.2467 -0.0125 -0.0062
    1W        W56796  24.519   6.243   1.819 -0.1624 -0.1814 -0.1412
    1W        W56797  26.736   4.808   3.299 -0.0119 -0.0373  0.1952
    1W        W56798  17.052   9.874   6.190  0.2541 -0.0561  0.2897
    1W        W56799   1.872  12.198   9.297 -0.0900  0.4272  0.1474
    1W        W56800   9.201  10.209   0.040  0.1478 -0.1543  0.2452
    1W        W56801   6.006   9.724   9.046  0.0244 -0.2932 -0.1135
    1W        W56802  23.951  22.359   0.432 -0.0776  0.0678 -0.1096
    1W        W56803  10.718  18.674   9.771 -0.0410 -0.1613  0.1523
    1W        W56804  13.889  22.377   1.082  0.1066  0.2419  0.2178
    1W        W56805  16.953  11.875   1.169  0.2812  0.3912 -0.0020
    1W        W56806  25.232   0.712   3.293 -0.1160 -0.0125  0.1610
    1W        W56807  16.914  19.144   9.402 -0.0484 -0.2147 -0.2364
    1W        W56808   5.062  15.889   2.408  0.0178 -0.1319  0.1252
    1W        W56809  16.483  14.392   6.998 -0.2360  0.1584 -0.0290
    1W        W56810   7.463  22.297   8.089  0.1038  0.2338 -0.0049
    1W        W56811   2.318  27.843   0.998 -0.1399 -0.2081  0.0566
    1W        W56812   8.153   7.099   2.420 -0.1857 -0.0073  0.2605
    1W        W56813  18.683  14.496   8.749 -0.0512 -0.0794  0.1200
    1W        W56814  28.460   2.394   9.341  0.2146  0.1796  0.2332
    1W        W56815  17.581  12.168   7.435  0.3356  0.0348 -0.1823
    1W        W56816  18.501  15.747   0.082 -0.1758  0.0071  0.0435
    1W        W56817   7.744  14.610   6.215 -0.0212  0.1267 -0.3187
    1W        W56818   0.319  27.559   0.511  0.0550 -0.1173 -0.1033
    1W        W56819   1.723  15.574   1.703 -0.1807 -0.1957  0.0659
    1W        W56820  21.853  26.592   2.083 -0.2528 -0.0814 -0.0145
    1W        W56821   9.296  15.318   6.089  0.0698 -0.0084  0.1305
    1W        W56822   0.029   5.702   1.634  0.1415 -0.1873 -0.4305
    1W        W56823  17.688   0.962   1.951  0.0607  0.0152 -0.2551
    1W        W56824  22.274   4.397   2.700  0.2465  0.1406 -0.1929
    1W        W56825   5.178   7.067   7.260 -0.1895  0.2631 -0.2451
    1W        W56826   3.631   7.959   2.000 -0.2069  0.0250  0.0365
    1W        W56827  13.034  26.605   0.916  0.0887 -0.1456  0.0384
    1W        W56828  26.469  10.234   6.847 -0.0667  0.1369  0.3626
    1W        W56829   1.696  16.590   1.961  0.0792  0.1327  0.2696
    1W        W56830   7.491   3.390   8.580 -0.0340 -0.0549  0.2476
    1W        W56831   1.213  22.172   1.867  0.0706  0.1183 -0.0259
    1W        W56832  11.897   8.365   2.529  0.0725 -0.0771  0.3378
    1W        W56833  25.763  15.766   0.407 -0.1297  0.2742  0.1091
    1W        W56834   3.871   5.901   8.411  0.0255  0.0455  0.1083
    1W        W56835  21.258   2.937   2.321 -0.3091 -0.0122 -0.2933
    1W        W56836   2.679  10.735   0.368  0.1434 -0.0004  0.0370
    1W        W56837  11.135  17.860   2.481  0.1842  0.2576 -0.0779
    1W        W56838   3.033  15.278   1.518 -0.2154  0.1288  0.1183
    1W        W56839  22.770  25.066   0.896 -0.0649  0.2581  0.1171
    1W        W56840  16.985  25.702   9.088 -0.0133 -0.0835  0.0296
    1W        W56841   4.863   0.464   1.528 -0.1026  0.0463 -0.2515
    1W        W56842  16.958  16.113   1.629  0.0302  0.2151 -0.0365
    1W        W56843   1.549   0.839   4.066 -0.1369  0.2496  0.2381
    1W        W56844  19.960  15.969   9.086  0.1545  0.1207  0.1396
    1W        W56845  10.587  16.594   8.043  0.0188  0.1497 -0.1685
    1W        W56846  21.291  28.826   2.727 -0.1254 -0.0916 -0.3642
    1W        W56847  19.712  20.740   2.842  0.1043 -0.1541  0.1223
    1W        W56848  11.580  25.603   1.238  0.0482 -0.0544  0.1242
    1W        W56849   9.774   1.950   8.255  0.0983  0.0338 -0.0266
    1W        W56850   2.279  10.077   8.017 -0.1156  0.1391  0.2450
    1W        W56851  12.397   7.677   6.504  0.1669  0.1682 -0.0173
    1W        W56852  27.050   4.534   0.718  0.2519  0.1994  0.4256
    1W        W56853   9.021  18.314   9.243 -0.1558 -0.2180 -0.4106
    1W        W56854  28.725   7.903   8.157  0.0092 -0.1434  0.0773
    1W        W56855   3.646  17.310   8.593  0.0083 -0.0379  0.1095
    1W        W56856   1.815  27.203   2.665 -0.3638  0.0628 -0.2417
    1W        W56857   3.840  22.700   7.756 -0.0883 -0.1522 -0.0932
    1W        W56858  24.078  19.479   6.381  0.1151 -0.2570  0.0325
    1W        W56859  23.284   5.042   3.048  0.1301  0.2970  0.0108
    1W        W56860  17.495  11.272   0.517  0.0112 -0.1935  0.3383
    1W        W56861  11.012  10.279   1.426  0.2829 -0.0265  0.0655
    1W        W56862  26.343  19.168   2.086 -0.0378  0.0076 -0.0195
    1W        W56863   0.472  12.738   2.538  0.0893  0.0028  0.1028
    1W        W56864  17.915  16.012   1.600 -0.0730  0.1011  0.0572
    1W        W56865  13.215  28.598   8.466  0.4559 -0.3612  0.3424
    1W        W56866   6.688   2.898   8.881  0.0310 -0.0043 -0.0404
    1W        W56867  23.980   6.531   8.435 -0.0043  0.0003 -0.1416
    1W        W56868   1.878   0.720   0.795  0.0681 -0.1282 -0.3640
    1W        W56869   2.951  10.305   2.158 -0.0050  0.1118 -0.0394
    1W        W56870  28.577  15.883   0.334 -0.1163 -0.1425 -0.1125
    1W        W56871  23.010   4.293   7.775  0.1180  0.1393 -0.0547
    1W        W56872  14.170  19.196   0.363 -0.0138  0.0666 -0.1225
    1W        W56873  10.542  14.654   9.022  0.0650 -0.3262  0.0210
    1W        W56874  15.572  24.364   2.468  0.1573  0.1378  0.1611
    1W        W56875  24.605  18.668   8.130  0.1219  0.1818  0.1393
    1W        W56876   1.298  13.650   2.921 -0.4001  0.1824  0.0116
    1W        W56877   7.989  11.768   1.392  0.1250  0.1248 -0.1147
    1W        W56878  19.669   1.068   8.237 -0.2111 -0.2327  0.0188
    1W        W56879  28.650  12.720   6.482  0.0346  0.2899 -0.0666
    1W        W56880   3.497   2.811   7.934 -0.0352  0.1656  0.0885
    1W        W56881   8.915   0.279   7.937 -0.0376 -0.1199  0.2585
    1W        W56882  12.011  25.873   1.258 -0.0224 -0.1402 -0.0456
    1W        W56883  22.226  12.067   1.576 -0.0067 -0.0141 -0.3477
    1W        W56884  21.590  22.782   7.985  0.1653 -0.0824  0.3926
    1W        W56885  27.113  14.048   0.288 -0.1827 -0.0292  0.1884
    1W        W56886  17.825  18.484   1.398 -0.0014  0.3007  0.5142
    1W        W56887   5.035   3.788   3.817 -0.1496 -0.0731 -0.1561
    1W        W56888  25.063  27.145   1.006  0.2980 -0.5216 -0.1665
    1W        W56889  13.471  25.409   8.034  0.1087 -0.0827  0.1012
    1W        W56890  14.020  21.789   1.849  0.0957  0.1348  0.1416
    1W        W56891   4.602   5.779   0.588 -0.2630  0.1376  0.0895
    1W        W56892  17.281  22.887   2.353 -0.2121 -0.1068 -0.1182
    1W        W56893   7.397  23.265   1.904  0.1448 -0.0015  0.3877
    1W        W56894   7.782  19.337   8.374  0.0784 -0.0473 -0.0615
    1W        W56895  16.093  25.268   0.627  0.2492 -0.3028  0.0201
    1W        W56896  27.624   3.277   1.756 -0.2475 -0.0502  0.2323
    1W        W56897  21.777  10.712   8.440  0.0567 -0.1795 -0.1366
    1W        W56898  24.046   6.523   1.346  0.2793  0.0432  0.0117
    1W        W56899  12.934  12.800   9.958 -0.1346  0.0070 -0.0067
    1W        W56900  18.181   0.610   8.718 -0.0893  0.3994 -0.1127
    1W        W56901   1.753  11.980   0.325  0.0783  0.1443  0.0097
    1W        W56902   7.094   8.230   9.806 -0.0585 -0.2899 -0.3348
    1W        W56903   3.320  28.002   9.540  0.1453  0.0414 -0.0504
    1W        W56904   0.780  18.906   2.764 -0.2336 -0.0270 -0.0105
    1W        W56905  13.753  15.243   2.664  0.1758 -0.0484  0.2392
    1W        W56906  26.864   9.003   0.279 -0.1811 -0.2348 -0.1147
    1W        W56907  10.457   0.178   7.664  0.3158  0.1297  0.2606
    1W        W56908  14.554   3.540   9.051 -0.1959  0.0799  0.1205
    1W        W56909  12.388   4.345   2.197 -0.0649  0.0204  0.1643
    1W        W56910   7.639   5.724   8.983 -0.0569 -0.1006  0.1450
    1W        W56911   1.973  10.122   9.368  0.0603  0.2119  0.1718
    1W        W56912  26.551  10.961   9.723  0.3371  0.1175 -0.0424
    1W        W56913  21.461  25.694   2.735 -0.0687 -0.0653 -0.0449
    1W        W56914  11.563  16.764   8.731 -0.2102 -0.1492 -0.0027
    1W        W56915   4.061  12.762   9.870 -0.0272 -0.0066 -0.1158
    1W        W56916   7.744  13.026   7.163 -0.2232 -0.0831 -0.1623
    1W        W56917  20.782  28.391   7.305  0.0863  0.2180 -0.0854
    1W        W56918   0.845  20.300   1.254  0.0404  0.1316 -0.0338
    1W        W56919   7.450  25.086   8.426  0.3240 -0.2208 -0.0280
    1W        W56920  19.597  10.843   8.624 -0.0059  0.0013  0.0409
    1W        W56921  25.803  17.221   3.198  0.0466  0.0291 -0.1415
    1W        W56922   5.229   8.177   1.906  0.0195  0.0994 -0.1283
    1W        W56923  14.912   2.908   6.648  0.1733 -0.1721  0.1826
    1W        W56924   0.397  19.097   9.808  0.0289 -0.2167  0.2860
    1W        W56925   5.959   8.739   7.933  0.1482  0.0508 -0.0205
    1W        W56926  22.829   2.167   2.303 -0.0624 -0.2814  0.0788
    1W        W56927  18.016   7.572   7.866  0.0051  0.0090  0.1425
    1W        W56928  21.578   5.285   8.755  0.0585 -0.1063 -0.1990
    1W        W56929  13.235  23.000   9.608 -0.1408 -0.1080 -0.1545
    1W        W56930  19.409  14.812   7.512  0.1303 -0.1406 -0.2346
    1W        W56931   9.128   5.251   0.207 -0.1402  0.0651 -0.1230
    1W        W56932  20.695  16.326   8.077  0.3736 -0.1893  0.1285
    1W        W56933  11.949   2.385   1.205  0.0511 -0.0995  0.0148
    1W        W56934  28.776  18.793   9.676  0.0639 -0.0293  0.0618
    1W        W56935   4.780  14.214   1.303 -0.2238 -0.1868  0.1660
    1W        W56936  26.027  19.061   2.477  0.2457  0.4026  0.2330
    1W        W56937   1.500  26.053   3.791 -0.0876 -0.1790  0.0152
    1W        W56938  13.665  15.125   1.579  0.2788  0.2200 -0.0235
    1W        W56939   6.472   0.321   2.807  0.0589  0.0247 -0.2029
    1W        W56940  12.475  16.567   1.768 -0.0647 -0.2596 -0.1069
    1W        W56941  23.331  24.685   1.428 -0.0300 -0.2133  0.0377
    1W        W56942  10.434  15.179   0.328  0.2767 -0.2724  0.2622
    1W        W56943  20.955  16.553   6.705 -0.1040 -0.0641 -0.1145
    1W        W56944  26.028  18.539   9.941 -0.2412  0.0115  0.0019
    1W        W56945  23.954  16.918   8.815  0.0184 -0.0088 -0.1543
    1W        W56946  11.250  25.619   1.656  0.3477 -0.1580  0.0228
    1W        W56947  28.196  19.020   1.002 -0.2715 -0.1488  0.1462
    1W        W56948  21.245  26.014   6.952 -0.0852  0.1515  0.1160
    1W        W56949  28.066  20.663   0.874 -0.1514  0.0746 -0.2232
    1W        W56950   7.023  17.059   9.234  0.3030 -0.0303  0.2930
    1W        W56951  12.387   9.164   1.386  0.2127 -0.3008  0.0675
    1W        W56952  24.374   0.815   8.715  0.1726 -0.3417 -0.0144
    1W        W56953  20.637  10.736   8.450  0.2971  0.1494 -0.3049
    1W        W56954  10.696  26.366   9.680 -0.3297 -0.0454 -0.0281
    1W        W56955   7.255   7.694   7.474  0.0713  0.0104 -0.0792
    1W        W56956  20.930  24.491   9.009  0.3822  0.0735  0.3978
    1W        W56957   6.914  15.662   6.610  0.3240  0.0144 -0.0256
    1W        W56958   2.697   0.324   4.359 -0.3915  0.0927 -0.1549
    1W        W56959  12.339  20.717   2.327  0.1448 -0.0541  0.2129
    1W        W56960  22.133   4.067   8.149  0.2102 -0.0906  0.0817
    1W        W56961  10.206  15.625   2.054  0.2152 -0.0223  0.0273
    1W        W56962  27.426  21.557   9.642  0.0838  0.2542  0.1964
    1W        W56963  15.237  28.288   0.401  0.2393 -0.1114 -0.1910
    1W        W56964  25.092  19.465   0.934 -0.3252  0.0514  0.0866
    1W        W56965  10.238   4.508   2.696  0.0411  0.0181  0.0288
    1W        W56966  18.667  18.593   8.952 -0.2698  0.0883  0.0286
    1W        W56967   5.927   5.220   1.424  0.1174  0.0036 -0.3746
    1W        W56968  16.133  11.402   1.129 -0.1310  0.1851  0.0003
    1W        W56969  13.369   0.649   3.035 -0.0903 -0.0522 -0.1220
    1W        W56970  26.780   2.145   1.808  0.1453  0.2514 -0.1159
    1W        W56971   7.220  17.227   1.361  0.4608  0.0331 -0.1511
    1W        W56972   2.824  17.942   3.594  0.1902  0.1347 -0.1113
    1W        W56973  20.517   8.382   8.420  0.3208 -0.0372 -0.0271
    1W        W56974  13.833  24.266   8.831 -0.0732  0.1583  0.2494
    1W        W56975  20.238   0.001   9.400  0.1283 -0.3990 -0.3059
    1W        W56976  18.148   0.550   9.291  0.2920 -0.2136  0.3698
    1W        W56977  27.219  23.074   0.623 -0.1783 -0.1640  0.3086
    1W        W56978  26.203  28.161   7.989 -0.0088 -0.1969  0.0120
    1W        W56979  21.913  22.315   6.848  0.1421  0.1425  0.3994
    1W        W56980  11.362   1.787   2.350  0.1537 -0.0105  0.1493
    1W        W56981  21.516   1.108   9.399  0.3029  0.2400 -0.0797
    1W        W56982  18.550  20.011   0.039  0.0134 -0.1011 -0.1431
    1W        W56983  25.658   0.084   1.251 -0.0149 -0.1590  0.1630
    1W        W56984   0.429   5.961   3.772 -0.2627  0.2605 -0.2019
    1W        W56985  25.666  12.295   7.714 -0.1307 -0.0110  0.0155
    1W        W56986  27.323  24.456   1.295 -0.3621  0.4354  0.4480
    1W        W56987  20.787   5.866   7.040  0.1545  0.0009 -0.0840
    1W        W56988   8.094  23.813   2.451  0.0151  0.2126  0.0433
    1W        W56989   1.905  17.455   9.422  0.0822 -0.1205  0.0679
    1W        W56990   3.960   5.325   0.483  0.1819  0.1339  0.0920
    1W        W56991   7.477  28.273   7.736  0.0493  0.1670  0.3101
    1W        W56992   5.749  13.074   2.360  0.0098 -0.0279  0.2040
    1W        W56993   9.477   1.839   3.389  0.2603  0.0605  0.3265
    1W        W56994  25.096   8.116   9.501 -0.0862  0.2341  0.0281
    1W        W56995  26.002  13.559   6.607 -0.2957 -0.0544 -0.0933
    1W        W56996  18.063  23.465   7.208 -0.1960  0.1424  0.1308
    1W        W56997  22.428  18.144   0.601 -0.0206  0.1360  0.1835
    1W        W56998  20.625   3.112   9.783  0.0936  0.6726 -0.2470
    1W        W56999  27.613  23.403   0.248 -0.2825  0.0104 -0.3910
    1W        W57000  26.976  10.719   3.622 -0.0616 -0.0682  0.3333
    1W        W57001  24.987  11.747   2.753  0.0089  0.1429  0.2816
    1W        W57002  26.710   6.965   1.487 -0.2630 -0.1083 -0.0399
    1W        W57003  27.762  18.952   2.653 -0.0048  0.2946  0.2513
    1W        W57004  22.109  12.602   8.633  0.0562 -0.0627  0.1054
    1W        W57005   2.587  20.708   1.073  0.0407 -0.1297  0.1138
    1W        W57006  15.977  17.172   1.515 -0.1409 -0.0647 -0.0410
    1W        W57007  27.870   9.686   2.804 -0.0040  0.1023  0.1437
    1W        W57008  22.583   0.439   0.462 -0.0696  0.1353  0.1317
    1W        W57009  13.283  20.953   0.934  0.2086 -0.1918  0.2106
    1W        W57010  21.880  22.026   0.851 -0.0881 -0.0958  0.0843
    1W        W57011  10.048   5.678   9.283 -0.2567  0.0578 -0.1638
    1W        W57012   0.305   5.874   1.201 -0.2210 -0.0999 -0.3767
    1W        W57013  12.582  14.843   0.585  0.2092  0.1222 -0.3039
    1W        W57014   8.716  21.270   2.514 -0.4235  0.0887 -0.4815
    1W        W57015  26.100  16.249   0.069  0.1368 -0.1443 -0.1782
    1W        W57016   3.570   7.370   9.991 -0.1478  0.1489 -0.0073
    1W        W57017  14.791   2.372   8.882 -0.0974  0.3771 -0.1831
    1W        W57018   9.300  17.108   7.146  0.0935 -0.1594 -0.1820
    1W        W57019  10.453  15.293   0.908  0.3314  0.1843  0.0571
    1W        W57020  23.083  13.913   9.570  0.2571 -0.0785  0.0181
    1W        W57021  22.663  23.647   8.438  0.1719 -0.1355  0.1155
    1W        W57022   2.361  20.204   0.613  0.0339 -0.0102  0.2833
    1W        W57023   9.267   7.713   2.622 -0.1222 -0.2106  0.0571
    1W        W57024  10.732  20.745   8.349 -0.2663 -0.2427  0.4212
    1W        W57025   7.385  13.651   9.576  0.0153 -0.1726 -0.0181
    1W        W57026  19.902  10.587   0.070 -0.0538  0.0018  0.3232
    1W        W57027  28.288  21.973   9.242  0.0279  0.0500 -0.0969
    1W        W57028  14.818   7.546   7.127 -0.1064  0.0667 -0.0405
    1W        W57029  23.361  10.038   7.878 -0.2363 -0.0847 -0.0787
    1W        W57030  26.492  16.707   8.770  0.0678  0.4594 -0.0972
    1W        W57031  27.273   2.301   0.614  0.0503  0.3120 -0.1262
    1W        W57032   4.503  25.477   8.925 -0.2919  0.2642  0.2111
    1W        W57033  27.992   6.661   2.210 -0.3387 -0.2060 -0.1999
    1W        W57034  11.285   0.311   1.816 -0.0734  0.1694 -0.3335
    1W        W57035  15.658   5.224   2.053  0.1292  0.3458  0.0181
    1W        W57036   6.552  17.725   8.108  0.0994 -0.2378 -0.1180
    1W        W57037  23.065  24.798   2.871 -0.0621  0.0724 -0.2703
    1W        W57038   0.987  14.094   8.624 -0.3310 -0.0976 -0.0097
    1W        W57039   2.917  18.019   3.059  0.2241 -0.2442 -0.2563
    1W        W57040   6.940  20.837   9.043 -0.2526  0.3315 -0.0924
    1W        W57041  26.469  22.333   0.814  0.3262 -0.1341  0.0794
    1W        W57042  14.742   5.809   1.023  0.0332  0.2629  0.0336
    1W        W57043  23.400  20.478   0.062 -0.2006 -0.0407  0.2652
    1W        W57044   8.052   3.922   1.367 -0.1134  0.0977  0.0571
    1W        W57045  25.825  16.567   8.287 -0.2291  0.5060  0.3707
    1W        W57046  19.272  16.210   6.668 -0.2001  0.0191  0.0129
    1W        W57047  10.047   9.463   8.660  0.3544  0.1296 -0.0892
    1W        W57048  20.657  14.631   2.203  0.1026 -0.0299  0.1350
    1W        W57049   5.274  27.487   3.610  0.4446  0.0898  0.1574
    1W        W57050   8.618   0.400   8.482  0.1092  0.0444 -0.3725
    1W        W57051   4.284  28.003   9.891  0.3186  0.0287 -0.1963
    1W        W57052   5.392  17.242   3.607  0.0674 -0.0103  0.1485
    1W        W57053  17.911  12.560   1.281  0.2544  0.1678  0.3615
    1W        W57054  27.273  15.085   9.737 -0.1313 -0.0400 -0.0517
    1W        W57055   7.332   8.864   9.000  0.3992 -0.2700 -0.1444
    1W        W57056  19.616  13.873   7.800 -0.0216 -0.5421  0.1546
    1W        W57057  11.327  18.167   8.089  0.0879 -0.0812  0.1984
    1W        W57058   7.332  14.317   8.041 -0.2322 -0.0569 -0.2195
    1W        W57059  22.197  15.568   0.685  0.0801  0.1776 -0.0196
    1W        W57060  11.114  18.577   0.938  0.1109 -0.1086  0.1763
    1W        W57061  21.899  22.529   3.500 -0.1185  0.0780 -0.1646
    1W        W57062  13.208  22.400   9.731  0.2268 -0.2766  0.0118
    1W        W57063  22.573  10.612   1.977 -0.0878  0.2104 -0.2784
    1W        W57064   6.381   1.398   9.001  0.1084 -0.1785 -0.1624
    1W        W57065   1.986  18.447   0.030  0.3531 -0.0250 -0.2727
    1W        W57066  15.421   9.293   9.825 -0.2075 -0.2042 -0.0241
    1W        W57067   1.796   7.542   0.318 -0.0007 -0.1077  0.1858
    1W        W57068  21.157   8.542   0.339 -0.1966 -0.0366 -0.1150
    1W        W57069  13.415  17.081   7.331  0.0174  0.1555 -0.0785
    1W        W57070  22.969  17.653   1.577  0.0624  0.2300  0.4564
    1W        W57071  26.972  16.274   2.763  0.0583  0.1339 -0.3022
    1W        W57072   2.197   3.143   2.730  0.1093  0.0550  0.2525
    1W        W57073  21.708  18.057   1.007  0.1964 -0.0508 -0.5767
    1W        W57074   1.705   5.542   0.791 -0.5003 -0.1805  0.1445
    1W        W57075   0.524  14.509   0.605 -0.4854  0.0478 -0.1625
    1W        W57076  20.914  15.513   6.671  0.0215  0.5258  0.1119
    1W        W57077   5.038  28.189   2.442  0.1735 -0.1996  0.2501
    1W        W57078  23.809  10.311   0.397 -0.1345 -0.3815  0.1806
    1W        W57079   4.543  22.559   0.819  0.1767 -0.2811 -0.1776
    1W        W57080  17.560  25.165   1.697 -0.2089  0.1608 -0.0837
    1W        W57081  23.678   6.566   0.004 -0.0974 -0.1300  0.0915
    1W        W57082   3.019  17.512   7.918 -0.1770  0.0410 -0.1475
    1W        W57083  20.467  16.230   9.948 -0.3185 -0.1602 -0.1477
    1W        W57084  13.639   1.381   8.259 -0.2203  0.0952 -0.3841
    1W        W57085  28.200  18.531   0.854  0.1103 -0.1826  0.2434
    1W        W57086  19.062   7.548   8.748  0.2035 -0.1708  0.1096
    1W        W57087  14.451  16.508   2.702 -0.0007 -0.0988 -0.0755
    1W        W57088  19.476  17.197   7.531  0.0075  0.0147 -0.0543
    1W        W57089  23.352  21.908   8.973  0.1528 -0.0848 -0.2360
    1W        W57090  26.078   9.254   7.939 -0.1871 -0.0161  0.0714
    1W        W57091   6.240  23.897   8.135  0.0346  0.0162  0.3342
    1W        W57092  27.406  10.872   9.915 -0.0708 -0.0084  0.1213
    1W        W57093   4.707  18.456   7.971 -0.0273  0.0544  0.0480
    1W        W57094   2.976  28.740   8.150  0.0373  0.0639  0.0991
    1W        W57095  23.482  14.199   8.384 -0.0454 -0.1470  0.0441
    1W        W57096   2.412  12.908   8.313  0.0663 -0.3709  0.0714
    1W        W57097  18.386   9.405   0.002  0.3887  0.1050 -0.3001
    1W        W57098   1.709  24.707   9.881  0.0267  0.0650  0.0151
    1W        W57099  14.568  11.843   0.386 -0.1020  0.1468  0.0936
    1W        W57100  25.412  21.529   9.549 -0.0307 -0.1572 -0.1635
    1W        W57101  24.141   9.625   7.655  0.2841 -0.1003 -0.0875
    1W        W57102  16.907  17.278   8.388  0.1146 -0.1103  0.6222
    1W        W57103   5.508  15.047   9.393 -0.0402 -0.2661 -0.0672
    1W        W57104  26.212  18.322   7.699  0.0572  0.0195 -0.1915
    1W        W57105  10.214   3.806   7.011  0.3503 -0.1950 -0.1155
    1W        W57106  14.183   4.578   8.397 -0.1977 -0.1815 -0.1382
    1W        W57107  13.721   2.491   7.835 -0.1639 -0.1719  0.4159
    1W        W57108   6.909  13.082   9.135  0.2076 -0.2232 -0.1031
    1W        W57109   8.629  17.913   9.143  0.3157 -0.1238  0.1649
    1W        W57110  10.184  13.526   1.531  0.1354 -0.1721  0.1299
    1W        W57111   6.807  26.322   1.172 -0.2325 -0.0243  0.0101
    1W        W57112  24.659  19.168   7.251 -0.0022 -0.2425 -0.3766
    1W        W57113  26.024  12.372   8.067 -0.3118 -0.2557  0.0721
    1W        W57114  24.725  21.221   7.188  0.2734 -0.2444  0.2313
    1W        W57115  14.600  12.556   7.027  0.1845 -0.0021 -0.1378
    1W        W57116  13.789  14.609   1.517 -0.0580 -0.1254 -0.1066
    1W        W57117   1.928   7.039   8.580 -0.0195  0.3154 -0.0406
    1W        W57118   8.382   9.632   6.595  0.1856  0.2018  0.0958
    1W        W57119   9.676   6.320   6.256 -0.1926  0.1013  0.1135
    1W        W57120  27.916  17.175   1.388 -0.0754 -0.3530 -0.0250
    1W        W57121  15.116   5.298   6.416  0.1246 -0.2057 -0.0056
    1W        W57122   1.064   1.681   9.369 -0.0441  0.0984  0.0312
    1W        W57123  21.516  19.663   3.067  0.1219  0.1401  0.0006
    1W        W57124  23.425   3.084   0.178  0.1816 -0.1156 -0.0380
    1W        W57125  15.163  16.581   9.611  0.0557 -0.1620  0.2549
    1W        W57126  26.750  26.954   1.222 -0.2421  0.1755  0.0968
    1W        W57127  11.459  18.831   0.523  0.0688 -0.0845  0.0851
    1W        W57128  11.656   9.695   0.814  0.2747 -0.3472  0.1156
    1W        W57129  10.076  27.174   1.641  0.1948 -0.0810 -0.2827
    1W        W57130  27.282  10.103   1.211 -0.1431  0.1076 -0.1687
    1W        W57131  28.543   1.832   2.720 -0.0068 -0.1383 -0.1604
    1W        W57132   5.820  26.329   2.686 -0.1724  0.0674 -0.0059
    1W        W57133  27.993  12.884   7.858  0.2514  0.0311 -0.3755
    1W        W57134   8.697  15.416   7.873  0.0532  0.0053  0.1742
    1W        W57135  17.937   0.488   0.538 -0.0984  0.1853  0.0255
    1W        W57136   2.092  15.639   9.322  0.0601 -0.2035 -0.1856
    1W        W57137  10.278   5.419   2.439 -0.1140 -0.0195  0.1732
    1W        W57138   5.626  13.651   6.961 -0.0126  0.1817  0.4638
    1W        W57139  13.628  23.086   9.263  0.1581  0.1907  0.2794
    1W        W57140  20.018  27.007   7.759  0.0755  0.1118  0.0839
    1W        W57141  17.301  18.071   8.897  0.0349 -0.1481 -0.1661
    1W        W57142  27.604   4.948   1.453  0.1837  0.0581  0.0640
    1W        W57143  25.137  21.931   2.866 -0.0519  0.1797  0.4630
    1W        W57144   6.144  24.727   9.521  0.0744  0.0335 -0.1627
    1W        W57145  23.354  24.600   8.260  0.3090 -0.1432 -0.0027
    1W        W57146  23.781   6.257   7.937 -0.1121  0.3667 -0.0792
    1W        W57147   1.789  27.613   8.199 -0.2793 -0.0019 -0.3181
    1W        W57148  18.351  13.060   2.013 -0.2621  0.3725  0.1811
    1W        W57149  24.004   2.233   2.975 -0.0238  0.2320  0.1195
    1W        W57150  26.930  11.462   3.062  0.1100 -0.0952  0.1782
    1W        W57151  21.869  10.449   6.809  0.0032  0.0194 -0.2167
    1W        W57152  26.671  20.223   2.406 -0.0461  0.2136  0.0451
    1W        W57153  16.519  26.019   2.211  0.2511 -0.0821 -0.3463
    1W        W57154  10.268   9.230   1.802 -0.1880 -0.1482 -0.0872
    1W        W57155  28.723   9.395   1.093 -0.3492  0.0497  0.0994
    1W        W57156  26.785  10.144   3.688 -0.0618  0.1384 -0.0428
    1W        W57157  24.826  22.828   9.260 -0.1341 -0.0910  0.1827
    1W        W57158   1.712  11.458   1.288 -0.2352 -0.2612 -0.3012
    1W        W57159  17.116  13.380   6.360  0.0782  0.2573  0.2223
    1W        W57160  25.086  27.667   8.946  0.1898  0.1880  0.1060
    1W        W57161   6.511  17.459   8.879  0.0731  0.2247 -0.0450
    1W        W57162  24.933  12.604   9.268 -0.2744  0.1062 -0.0397
    1W        W57163  19.091   8.609   9.294 -0.1187  0.0912  0.0101
    1W        W57164   7.219  23.261   1.299 -0.1979  0.1893 -0.3203
    1W        W57165  14.869  24.043   0.366 -0.3280  0.1678  0.0957
    1W        W57166  21.335  23.239   7.859  0.2399  0.4641 -0.2239
    1W        W57167   6.264   0.608   1.308 -0.0346 -0.0277 -0.1444
    1W        W57168   9.960  15.599   8.310 -0.1398  0.0087 -0.2896
    1W        W57169   2.492  25.921   3.844  0.0112 -0.0186  0.0225
    1W        W57170   9.062  11.836   8.190  0.0903  0.4065  0.0304
    1W        W57171   4.514   8.737   8.912 -0.3091  0.0623 -0.1089
    1W        W57172  19.019   0.586   9.898 -0.2324 -0.0078 -0.2729
    1W        W57173   7.676   9.186   9.195 -0.0526 -0.0535  0.0819
    1W        W57174  10.908  12.370   0.585 -0.1161 -0.1092 -0.3699
    1W        W57175   4.602  16.581   8.316  0.1243 -0.1384 -0.1824
    1W        W57176   9.108  27.475   3.889 -0.0182 -0.3593 -0.0260
    1W        W57177  25.100   0.099   9.595 -0.1257 -0.1334  0.1892
    1W        W57178  22.210   9.388   8.246 -0.0672  0.3959 -0.0141
    1W        W57179  26.574  25.502   8.825 -0.1294 -0.3357  0.0717
    1W        W57180  14.579  27.167   7.010 -0.1106 -0.0154  0.1041
    1W        W57181  25.241   4.614   7.726 -0.0949 -0.3535  0.0013
    1W        W57182  22.197  22.082   7.821 -0.0597  0.1444  0.0716
    1W        W57183  17.645  25.423   0.191  0.0922 -0.0099  0.0152
    1W        W57184   7.263   2.831   0.589 -0.1806  0.2568  0.0579
    1W        W57185  25.376  20.862   1.931 -0.0331  0.0672 -0.2676
    1W        W57186   2.806  11.730   1.108  0.2812 -0.3751 -0.2328
    1W        W57187  18.211   3.380   1.836  0.1691  0.3194 -0.0404
    1W        W57188  23.697  10.095   8.353  0.0807 -0.0125  0.0435
    1W        W57189  10.930  11.352   5.646 -0.0508 -0.4791  0.0743
    1W        W57190   5.431   1.070   9.630  0.0940  0.0202 -0.1526
    1W        W57191   6.318   3.034   1.541 -0.0912 -0.0902 -0.3065
    1W        W57192  26.112  13.095   0.601 -0.3636 -0.2439  0.2420
    1W        W57193  28.736   2.820   2.778 -0.0713  0.1747 -0.2986
    1W        W57194   1.946  11.004   9.728 -0.0237 -0.0990 -0.1137
    1W        W57195  11.463  12.987   6.566 -0.1307  0.2414 -0.2361
    1W        W57196  21.636  23.847   0.929 -0.1211 -0.0936  0.2009
    1W        W57197   1.083  17.378   0.105 -0.0101 -0.0702  0.1507
    1W        W57198  11.835  25.158   2.175 -0.0783 -0.0601 -0.2267
    1W        W57199  14.489  21.812   2.204  0.0292  0.3333 -0.1920
    1W        W57200  12.481  28.041   9.944  0.1333  0.3009  0.2287
    1W        W57201  21.844   3.983   0.521  0.0849  0.0496 -0.1867
    1W        W57202  17.960   2.611   1.075  0.4083  0.0050 -0.0093
    1W        W57203  22.084   1.706   1.050  0.0601 -0.2179 -0.2601
    1W        W57204  13.337   6.996   8.543  0.1132 -0.0868  0.0162
    1W        W57205  24.287  19.236   9.782 -0.4324  0.0550 -0.0651
    1W        W57206  22.954  28.504   9.883  0.5648 -0.0823 -0.0996
    1W        W57207  24.257  27.325   1.307 -0.0881  0.1291  0.2511
    1W        W57208  25.853  27.306   8.151  0.3509  0.1351 -0.1451
    1W        W57209  18.973  17.016   7.663 -0.0855 -0.2269  0.1208
    1W        W57210  12.013  20.532   0.574  0.1157  0.0687  0.1648
    1W        W57211  14.054   3.437   9.328 -0.1263 -0.0234 -0.0228
    1W        W57212  22.198  16.159   8.833 -0.3142  0.1452  0.2669
    1W        W57213  20.669   8.961   1.266 -0.0771  0.0889  0.0596
    1W        W57214  21.650  16.297   7.048  0.0175  0.0330 -0.0962
    1W        W57215  23.611   0.461   0.140  0.0113 -0.3534  0.1832
    1W        W57216  20.889  17.319   7.900 -0.0646  0.2564 -0.2458
    1W        W57217  10.475  22.936   3.119  0.0823 -0.1114  0.0291
    1W        W57218  14.041  20.232   8.030  0.1265  0.0736 -0.2169
    1W        W57219  19.025  10.278   0.009  0.1042 -0.0225  0.1920
    1W        W57220  16.888  28.354   8.483 -0.4858  0.0396  0.2443
    1W        W57221  15.454   1.716   1.843 -0.0563  0.1251 -0.0348
    1W        W57222  26.281   8.604   0.755 -0.2435 -0.1869 -0.1204
    1W        W57223  26.853   2.517   3.262  0.0948 -0.0372  0.2379
    1W        W57224   4.871  19.573   2.450 -0.0429  0.2399  0.1083
    1W        W57225   1.192  20.642   8.156 -0.0999  0.1159  0.0268
    1W        W57226  11.640   1.509   2.783 -0.0358 -0.0698 -0.1628
    1W        W57227  26.555  17.570   9.746 -0.2278  0.0543 -0.5596
    1W        W57228  14.207   6.001   8.259  0.3237 -0.1710 -0.0703
    1W        W57229   4.018  26.477   8.801 -0.3741 -0.0543  0.2057
    1W        W57230  20.757  19.474   8.683 -0.1072  0.2113  0.0844
    1W        W57231   4.010   1.801   1.076  0.0935 -0.1761 -0.0304
    1W        W57232  17.245   6.511   6.995 -0.2088  0.0226 -0.1540
    1W        W57233   0.261   7.821   2.761  0.2828  0.0526  0.1027
    1W        W57234  10.021  28.696   9.041  0.2069  0.0734 -0.3078
    1W        W57235   5.220  14.782   3.110  0.1594 -0.1840  0.0199
    1W        W57236  17.460  16.941   6.328 -0.0277 -0.3087  0.4241
    1W        W57237   7.105  15.581   8.752  0.1254  0.0422  0.1304
    1W        W57238  22.349   5.424   8.846 -0.1285  0.1923  0.0782
    1W        W57239  11.089  20.013   1.372  0.1192  0.1621  0.0558
    1W        W57240  20.661   5.485   8.882 -0.1434  0.1012  0.3258
    1W        W57241  15.894  19.180   0.393  0.1827 -0.3059 -0.2029
    1W        W57242  24.387  27.465   3.032  0.1314  0.3182  0.1064
    1W        W57243   9.047   2.523   9.711 -0.0323  0.1419  0.0875
    1W        W57244  21.041  17.834   9.281  0.1857  0.1320  0.0745
    1W        W57245  21.572  10.437   1.932  0.0127  0.0730 -0.2265
    1W        W57246  13.827  17.081   2.143 -0.1462 -0.2280  0.1137
    1W        W57247  28.712  22.479   1.532  0.1359  0.2356  0.1456
    1W        W57248  25.691   7.902   0.334 -0.0931  0.1524  0.0949
    1W        W57249  23.882   7.734   8.833 -0.1422  0.0402 -0.0841
    1W        W57250  19.827  16.655   7.491 -0.0316 -0.0017 -0.0013
    1W        W57251  11.983   6.519   6.968  0.2577  0.1788  0.3752
    1W        W57252  13.001  11.324   6.581 -0.2138 -0.1717  0.2315
    1W        W57253  15.789  18.803   7.254 -0.1770  0.0345 -0.1695
    1W        W57254   9.791  18.999   8.730  0.1360 -0.1555 -0.1330
    1W        W57255  26.341  23.791   7.984 -0.2206 -0.2725  0.1318
    1W        W57256   6.016   0.595   8.555  0.0769 -0.0297  0.1623
    1W        W57257  12.133  22.696   1.815 -0.0684 -0.0748 -0.1563
    1W        W57258   9.592  15.513   6.550  0.2669  0.3388  0.2766
    1W        W57259  11.455  22.395   2.375  0.1783 -0.1770 -0.0046
    1W        W57260   9.945  23.753   2.781  0.0376 -0.1337 -0.0237
    1W        W57261   0.590  27.567   2.454  0.0108 -0.0227 -0.0545
    1W        W57262  16.245  17.726   2.599  0.0387 -0.2193  0.3509
    1W        W57263  13.652   7.544   8.432  0.0750 -0.1967 -0.0361
    1W        W57264   4.573  15.377   9.249 -0.1608  0.0264  0.1070
    1W        W57265  15.842  23.963   6.962  0.2296  0.1379 -0.0931
    1W        W57266  17.888  16.658   1.076  0.0602 -0.0441 -0.1011
    1W        W57267   4.857  26.942   1.969 -0.1672  0.1842  0.0564
    1W        W57268   0.908   5.098   1.853  0.4779 -0.1321 -0.0631
    1W        W57269  14.163  28.847   6.270  0.0828  0.3256 -0.0683
    1W        W57270  13.037  24.890   0.426 -0.3263  0.0500 -0.1145
    1W        W57271   2.454   3.886   3.919  0.0351  0.1252  0.1576
    1W        W57272   6.291  22.282   1.731  0.1672  0.0586  0.1290
    1W        W57273   7.841   0.705   9.164  0.0624  0.2210  0.1961
    1W        W57274  23.722  12.843   8.656 -0.1772 -0.1894  0.3079
    1W        W57275   3.521   5.501   7.808  0.0019  0.3558  0.2243
    1W        W57276  19.884  27.550   8.496  0.2162 -0.1200 -0.2243
    1W        W57277  22.686  13.473   0.957  0.0282  0.0771 -0.1449
    1W        W57278  20.349   2.462   0.738  0.2067 -0.0720  0.0587
    1W        W57279   7.989  13.194   0.006  0.0908 -0.1383 -0.0967
    1W        W57280  11.600  13.126   7.461 -0.2430  0.5356 -0.3413
    1W        W57281   9.237   4.431   1.653 -0.3027 -0.0157 -0.2825
    1W        W57282  15.676   1.116   2.400 -0.1951  0.0481  0.0249
    1W        W57283  10.749  22.207   9.810  0.0758  0.0571  0.1910
    1W        W57284   5.006  15.484   0.139 -0.0760 -0.1825 -0.1677
    1W        W57285   5.803   7.845   0.788  0.1358 -0.1773  0.0346
    1W        W57286   1.282  24.459   2.004  0.0268  0.1613  0.1896
    1W        W57287  27.096   8.271   3.122 -0.0715 -0.0534 -0.2213
    1W        W57288   7.521  10.666   6.753 -0.1600  0.0043 -0.0854
    1W        W57289  15.467  11.259   8.594 -0.1562 -0.0618 -0.3121
    1W        W57290  12.370  27.031   2.639 -0.1261  0.1404 -0.1520
    1W        W57291  26.514  28.516   0.626  0.1114  0.0383  0.0359
    1W        W57292   7.348  20.528   0.915  0.1557 -0.1406  0.2657
    1W        W57293  27.165  23.571   8.289  0.0858  0.0552  0.0826
    1W        W57294   6.035  20.158   7.767 -0.0411  0.0791  0.2075
    1W        W57295   3.439  17.879   9.973 -0.0012 -0.1300  0.1028
    1W        W57296  12.364  22.273   7.000 -0.1747 -0.0060  0.1110
    1W        W57297  25.206   0.302   2.951  0.0202  0.0648 -0.1526
    1W        W57298   6.630  11.052   0.768 -0.0332 -0.1432  0.2239
    1W        W57299  23.371  18.718   1.545 -0.1847  0.1142  0.2128
    1W        W57300  18.739  15.314   0.419 -0.1174 -0.2277 -0.0118
    1W        W57301   9.523   1.579   9.517 -0.0225 -0.1928  0.1800
    1W        W57302  20.062  13.613   1.520  0.0005 -0.1175 -0.0211
    1W        W57303  10.044  10.076   2.198  0.1563 -0.0983 -0.2884
    1W        W57304   5.360  25.527   8.015  0.0888  0.4052  0.1974
    1W        W57305  11.600  24.310   0.019 -0.0717 -0.0636  0.1512
    1W        W57306   3.311  15.942   9.237  0.0488  0.3407 -0.3226
    1W        W57307   3.178  21.051   7.783  0.2013 -0.1429 -0.1307
    1W        W57308  21.851  25.911   1.519 -0.0810  0.1739 -0.1241
    1W        W57309  11.211  24.180   2.962  0.0220  0.0554 -0.5138
    1W        W57310  28.694  14.779   3.554  0.0400  0.1212  0.2107
    1W        W57311   5.151   3.283   2.272 -0.2612  0.0770 -0.2606
    1W        W57312  17.114  26.502   2.731 -0.1667 -0.1276 -0.2274
    1W        W57313   5.382  21.794   3.145 -0.2191  0.2884 -0.1803
    1W        W57314  24.128  11.076   7.788 -0.0994  0.1001  0.0029
    1W        W57315  16.197  25.239   8.147  0.0352 -0.0302 -0.1384
    1W        W57316  26.876  28.774   7.659 -0.2689 -0.0378 -0.1757
    1W        W57317  14.418   2.120   7.286  0.1786  0.0610 -0.1268
    1W        W57318  17.364  13.390   1.206  0.0902 -0.1333  0.2560
    1W        W57319  13.307  20.539   0.090 -0.0340 -0.1015  0.0086
    1W        W57320  11.552   4.660   8.574 -0.1301  0.0927 -0.2967
    1W        W57321  10.008  10.688   8.764 -0.1784  0.2532 -0.1461
    1W        W57322  12.302  10.964   1.705  0.0557  0.1429  0.1508
    1W        W57323  26.396  26.285   7.547 -0.1843  0.0354 -0.1444
    1W        W57324   8.260   6.846   3.149  0.0318  0.2156  0.3567
    1W        W57325  22.530  19.772   7.377  0.1732 -0.0438  0.1385
    1W        W57326   2.486   6.080   0.660  0.2265 -0.0932  0.2148
    1W        W57327  14.253   3.851   0.589  0.0365  0.1639 -0.0511
    1W        W57328  11.452  17.694   7.923 -0.0092 -0.2573  0.2249
    1W        W57329  17.652   4.928   6.329  0.1495  0.1103  0.0407
    1W        W57330   6.349  28.365   0.256  0.0639  0.0527  0.0094
    1W        W57331  22.008   0.979   7.284 -0.3088 -0.1178  0.1547
    1W        W57332  12.105  12.335   7.145 -0.0131  0.0111 -0.2156
    1W        W57333  22.469   6.762   6.448 -0.0564 -0.1197  0.1712
    1W        W57334  21.536   1.576   2.811 -0.0753  0.0339 -0.2239
    1W        W57335  27.030  16.946   2.381  0.3407 -0.2161 -0.0484
    1W        W57336  27.766  15.441   1.934 -0.1498 -0.3114  0.0197
    1W        W57337   8.763  17.484   8.747 -0.1338 -0.2093 -0.1551
    1W        W57338  16.026   4.490   6.315 -0.1307  0.2682 -0.1401
    1W        W57339   3.096  20.623   1.964 -0.0534  0.1041 -0.0767
    1W        W57340  21.834  20.167   8.213 -0.2837 -0.1431 -0.2053
    1W        W57341   6.713  16.872   6.854  0.4577 -0.4205 -0.0013
    1W        W57342   0.651   4.800   8.372 -0.0459 -0.0218 -0.1621
    1W        W57343   2.567   4.422   1.154  0.0318  0.1706 -0.0299
    1W        W57344  24.734  26.287   9.500 -0.3253  0.0204 -0.0324
    1W        W57345  12.162   5.412   1.438  0.0271  0.4970 -0.1657
    1W        W57346  23.291  27.167   9.376  0.2444 -0.0759 -0.1330
    1W        W57347   0.567   8.374   2.221 -0.1739  0.0893  0.0508
    1W        W57348  18.268  11.100   9.142 -0.0567  0.2220 -0.1675
    1W        W57349  20.080  11.904   6.941  0.0989  0.0228  0.1436
    1W        W57350  16.189  22.546   6.631 -0.1379 -0.0345  0.0159
    1W        W57351   3.519  26.563   2.906 -0.0994  0.4034  0.1106
    1W        W57352  17.417   5.736   9.893  0.1439  0.0442  0.0926
    1W        W57353  19.534   2.188   2.005  0.0554 -0.1128  0.3170
    1W        W57354   5.074  26.125   1.418 -0.0522 -0.0003 -0.1637
    1W        W57355  22.451   0.010   7.893  0.1628 -0.1067 -0.1031
    1W        W57356  28.485  20.640   8.006 -0.3124  0.0511 -0.1252
    1W        W57357  19.944  25.284   1.051 -0.2413 -0.1229 -0.1574
    1W        W57358  10.724   1.040   1.439 -0.3044 -0.1902  0.3726
    1W        W57359  22.566  25.387   1.733  0.0884 -0.0645 -0.0695
    1W        W57360  10.906  23.275   9.849  0.0513  0.0738 -0.2001
    1W        W57361   2.435  25.240   9.585 -0.4006  0.1392  0.0735
    1W        W57362  22.966  14.331   7.795  0.4652  0.0111 -0.1195
    1W        W57363   6.510   2.603   0.133 -0.0324  0.1852  0.1953
    1W        W57364   1.429   8.626   7.788 -0.0685  0.2473  0.0425
    1W        W57365  15.915  17.939   2.183 -0.1117 -0.3101 -0.0481
    1W        W57366  10.542   4.097   9.667  0.0231 -0.0261  0.0783
    1W        W57367   4.134  26.748   3.528  0.0227  0.2782 -0.0722
    1W        W57368  28.303  22.012   0.819  0.3238  0.1335 -0.3961
    1W        W57369  14.602  20.899   8.407  0.0579  0.1578 -0.1524
    1W        W57370   2.067   5.449   3.135 -0.4049 -0.1490 -0.3556
    1W        W57371   1.457  27.513   3.604  0.1712  0.0627 -0.1708
    1W        W57372   0.240  14.427   9.001  0.2105  0.1897  0.0464
    1W        W57373  18.830   0.483   1.277 -0.2326 -0.1743 -0.1099
    1W        W57374  27.286   0.806   9.997  0.0704  0.0740  0.0502
    1W        W57375  16.538  19.219   9.073 -0.0961 -0.2005  0.3011
    1W        W57376  19.858  12.743   2.501  0.0463 -0.1205 -0.0061
    1W        W57377  20.412  21.524   1.348 -0.2636 -0.0003  0.1919
    1W        W57378   7.616  19.541   7.267 -0.1089  0.3757  0.0785
    1W        W57379  26.604  12.483   8.560 -0.1290  0.0555  0.1677
    1W        W57380   8.980  14.241   8.929 -0.0625 -0.0866  0.0773
    1W        W57381  17.278  21.453   8.458 -0.2851  0.0565 -0.3149
    1W        W57382  16.534   4.231   9.840 -0.1221 -0.1298  0.0853
    1W        W57383  26.819  28.096   8.968 -0.0771 -0.5109 -0.3059
    1W        W57384  27.614   6.881   1.427  0.2252 -0.2556 -0.2029
    1W        W57385  28.314   1.781   8.648 -0.1533  0.1046 -0.0263
    1W        W57386   2.650   4.537   1.853  0.1759 -0.0299  0.0535
    1W        W57387  26.439  14.178   7.896 -0.1455 -0.2925 -0.1922
    1W        W57388   9.994  10.607   9.816 -0.3086  0.1566 -0.1892
    1W        W57389  13.261   6.548   7.029  0.3092  0.1053 -0.3359
    1W        W57390  23.321   6.060   1.178 -0.2022  0.1541 -0.1046
    1W        W57391  12.949  15.669   8.534  0.0909 -0.1540 -0.0173
    1W        W57392   2.525   1.675   1.612  0.0725  0.0945  0.0222
    1W        W57393   7.206  25.563   2.961  0.2373  0.0347 -0.2217
    1W        W57394   8.514   6.295   0.967  0.1039 -0.0773 -0.0838
    1W        W57395   4.257  25.519   9.917  0.0057 -0.3186 -0.1116
    1W        W57396  28.657  10.683   7.742 -0.0950  0.0531 -0.2502
    1W        W57397   7.092   0.049   0.798 -0.1559  0.2396  0.0490
    1W        W57398  10.075  27.013   7.689 -0.1131 -0.0797 -0.0686
    1W        W57399  18.447  17.441   9.944  0.1831  0.1437 -0.0325
    1W        W57400  17.344  28.678   2.978  0.0576 -0.1253  0.0107
    1W        W57401  21.487  17.520   6.190 -0.0237  0.0357 -0.1862
    1W        W57402   7.952   9.798   8.770 -0.3651 -0.2734 -0.2970
    1W        W57403   7.699  20.667   3.020 -0.0332 -0.0065  0.0221
    1W        W57404  14.802  25.909   1.930 -0.0349  0.0913 -0.1780
    1W        W57405  13.488   7.602   9.014 -0.2964  0.0667  0.0104
    1W        W57406  14.939  19.851   9.809  0.0611  0.0184  0.1946
    1W        W57407  10.162  18.665   9.689  0.2275 -0.0772 -0.0626
    1W        W57408   3.929  12.712   0.487  0.1203  0.1904 -0.0900
    1W        W57409  27.032   1.459   8.351 -0.0868 -0.1690 -0.1528
    1W        W57410   4.910   9.396   9.038  0.0152 -0.1237  0.2131
    1W        W57411  11.958   3.766   9.951 -0.0245 -0.2353 -0.1260
    1W        W57412  10.042   7.060   8.346 -0.1976 -0.0075 -0.1706
    1W        W57413  27.483  12.026   9.334  0.1598  0.3619 -0.1412
    1W        W57414   5.357  18.977   7.387 -0.1397  0.0707  0.1247
    1W        W57415  10.017   4.309   2.221  0.1416  0.2504 -0.0658
    1W        W57416  13.025  24.445   2.572 -0.0310  0.2231 -0.0275
    1W        W57417  26.539   2.240   1.375  0.1609 -0.1271  0.1079
    1W        W57418   6.523  10.596   6.974 -0.0807  0.1356 -0.2194
    1W        W57419  26.027  12.672   8.966  0.1419  0.0718 -0.0006
    1W        W57420   0.907  28.768   7.717  0.2316 -0.1844  0.0163
    1W        W57421  26.449  23.890   1.910  0.0616 -0.1299 -0.1046
    1W        W57422  27.113  17.868   3.008 -0.1076  0.0126 -0.2860
    1W        W57423  20.387  16.776   8.454 -0.0669  0.1434 -0.0041
    1W        W57424  28.031  15.925   1.678 -0.1202 -0.1678  0.0275
    1W        W57425   8.940  27.837   9.129 -0.0041 -0.0354 -0.1326
    1W        W57426  22.521  21.432   8.695 -0.2256  0.1535 -0.1063
    1W        W57427   3.897  23.075   8.798 -0.3110  0.0755 -0.1473
    1W        W57428  23.872  20.700   7.631  0.1591 -0.3289  0.1351
    1W        W57429   4.318   5.338   3.103 -0.0996  0.1475  0.0719
    1W        W57430  16.275  19.544   8.806 -0.0617  0.1282 -0.1557
    1W        W57431   0.014  26.413   0.994  0.0486  0.0036 -0.1425
    1W        W57432  27.216  11.862   3.183  0.0412  0.1863  0.0421
    1W        W57433  28.836   1.200   8.571  0.1314 -0.0240 -0.0219
    1W        W57434  10.769  25.829   8.107  0.2878 -0.0302  0.1405
    1W        W57435  18.724  27.825   9.054  0.1771  0.1992 -0.4063
    1W        W57436  15.951   7.434   9.817  0.2224  0.1787  0.2083
    1W        W57437  20.152  16.557   9.679  0.2547  0.1843  0.1507
    1W        W57438  18.637  24.876   8.170  0.1138  0.0838 -0.0870
    1W        W57439  11.834  14.166   6.749  0.1169 -0.1623 -0.2064
    1W        W57440  15.650   5.590   7.447 -0.1746  0.0766 -0.4071
    1W        W57441  10.489  12.071   1.639  0.0632 -0.1214 -0.2452
    1W        W57442   2.245  16.801   7.253  0.3331  0.2084  0.4324
    1W        W57443   3.793  11.475   8.121 -0.0035  0.2021  0.0204
    1W        W57444  14.302   7.015   6.813 -0.1008  0.1085 -0.0741
    1W        W57445   7.131   4.199   7.981  0.1294  0.0150 -0.2523
    1W        W57446   5.602  15.615   6.711  0.1920  0.0764  0.0559
    1W        W57447   7.789   5.766   1.092  0.0681 -0.1645  0.1848
    1W        W57448   6.490  28.526   1.191  0.3961 -0.1942  0.2492
    1W        W57449  18.377   1.763   6.953 -0.0909  0.2417 -0.0704
    1W        W57450   2.802  16.401   9.150  0.0793  0.1103  0.1850
    1W        W57451   0.362  14.295   1.569  0.2305 -0.4086  0.2325
    1W        W57452   4.156   0.088   2.304 -0.0302 -0.2311  0.0388
    1W        W57453  19.917  17.442   8.281 -0.0065  0.2817 -0.1587
    1W        W57454   5.372  24.685   9.740 -0.0315  0.0070 -0.0917
    1W        W57455  24.544  10.046   1.260  0.1671  0.0831  0.1086
    1W        W57456  14.161  18.112   2.205 -0.1313  0.1324 -0.0058
    1W        W57457  13.570  14.290   0.794 -0.1106 -0.0742  0.0081
    1W        W57458   5.832  23.446   9.919 -0.0314 -0.0641  0.0925
    1W        W57459  18.808   7.192   9.846  0.2751  0.0153  0.0351
    1W        W57460   7.040   5.905   8.349 -0.0434  0.3542 -0.3320
    1W        W57461   0.232  14.545   8.463  0.2556 -0.1647 -0.2587
    1W        W57462  28.724   7.200   3.522 -0.1402  0.1946 -0.2137
    1W        W57463  19.223  20.118   0.249  0.0617  0.0595  0.2272
    1W        W57464  20.796   0.508   0.869  0.0234 -0.0794 -0.4072
    1W        W57465  11.459   7.312   9.656 -0.0507  0.0165  0.0535
    1W        W57466   8.267  12.100   7.577  0.0685  0.0952  0.0830
    1W        W57467  19.216   9.707   7.448 -0.1362  0.0033  0.1893
    1W        W57468   4.969   9.146   1.741 -0.0979 -0.0686 -0.1094
    1W        W57469  13.108  11.567   8.463 -0.0077 -0.1335  0.2814
    1W        W57470  11.240   6.525   0.000 -0.0198 -0.0179  0.2916
    1W        W57471   1.484  18.758   0.001  0.0489  0.2063 -0.1952
    1W        W57472  17.907  24.776   1.590  0.0604  0.0400  0.3947
    1W        W57473  14.022  19.806   6.941 -0.2670 -0.6142 -0.2252
    1W        W57474  11.211  14.929   8.674  0.3285 -0.2741 -0.0387
    1W        W57475  11.011  28.059   0.863  0.0500  0.2938  0.0635
    1W        W57476   8.613  15.660   1.676 -0.2676 -0.0168 -0.1276
    1W        W57477   2.123  22.455   8.898  0.3381  0.0957 -0.1642
    1W        W57478   3.309  28.329   7.785  0.2158 -0.0548 -0.0446
    1W        W57479  12.779  27.459   2.649 -0.2455  0.2141 -0.0825
    1W        W57480   8.000  13.849   8.910 -0.0261 -0.0350 -0.0034
    1W        W57481   8.314   4.620   9.351 -0.4153  0.0014 -0.0410
    1W        W57482  12.167   0.819   2.776 -0.1745  0.1559  0.0476
    1W        W57483   9.249  26.324   9.023 -0.0673 -0.1541 -0.1880
    1W        W57484   5.227  12.476   8.655 -0.1394  0.2483 -0.2129
    1W        W57485   4.728   5.574   8.112  0.1753  0.0364 -0.0924
    1W        W57486  14.540   8.841   5.615  0.1305  0.0514 -0.0178
    1W        W57487  17.518  25.741   7.836 -0.1304 -0.1488 -0.2657
    1W        W57488   4.937  10.704   2.527 -0.1326 -0.1387 -0.0299
    1W        W57489  26.135  20.053   0.094 -0.2073  0.3233  0.2342
    1W        W57490   3.538  18.179   7.497  0.0519 -0.2175 -0.1032
    1W        W57491  20.113  24.414   1.431 -0.0410 -0.1082 -0.1130
    1W        W57492  11.554   7.545   6.221 -0.0826  0.1876  0.2715
    1W        W57493   0.097  16.624   0.218 -0.0100  0.1805  0.1382
    1W        W57494   3.406   8.510   7.873 -0.0585 -0.3745  0.2275
    1W        W57495  26.075   1.323   1.581 -0.1880 -0.1340  0.0339
    1W        W57496  14.693  27.276   8.599 -0.0595 -0.2001 -0.0199
    1W        W57497  20.066  26.338   0.609 -0.0950  0.0700 -0.1213
    1W        W57498  25.674  10.501   8.623 -0.0945 -0.1018 -0.0142
    1W        W57499   3.350  22.048   8.588  0.1722  0.0683  0.2475
    1W        W57500  14.575   4.024   9.236  0.2283 -0.3029  0.2301
    1W        W57501   7.170  22.861   9.760 -0.1694  0.2819 -0.2440
    1W        W57502  20.958   9.389   0.621  0.1821  0.0353 -0.0575
    1W        W57503  10.843   5.021   2.615 -0.0448 -0.1356  0.1980
    1W        W57504  10.850  15.916   1.766  0.4358  0.1239  0.2777
    1W        W57505   9.018  16.821   6.298 -0.0812  0.2030  0.2691
    1W        W57506  22.689   2.373   9.655  0.2425 -0.0588  0.3066
    1W        W57507   5.865  14.552   8.821  0.0113  0.0060 -0.1488
    1W        W57508  16.442   0.099   0.614 -0.1428 -0.1128 -0.1158
    1W        W57509   6.976   0.627   8.896 -0.0902  0.1388  0.3642
    1W        W57510   0.871  24.200   3.567  0.0738 -0.0779  0.0988
    1W        W57511   5.538   8.089   7.728  0.0496  0.0936 -0.1147
    1W        W57512  12.752  27.737   6.906 -0.0922 -0.1591  0.0749
    1W        W57513  17.991  19.833   7.570 -0.0985 -0.2002 -0.0402
    1W        W57514   3.494  11.396   0.139  0.0783  0.1578 -0.0714
    1W        W57515  24.450   8.221   2.507 -0.1972 -0.0169  0.1741
    1W        W57516  24.416   3.396   1.414 -0.0394  0.0934  0.1334
    1W        W57517  18.805  26.927   8.082 -0.1195 -0.2184  0.0325
    1W        W57518  24.275   5.319   0.699  0.2524 -0.1339 -0.1811
    1W        W57519  22.029   1.231   0.770  0.0933 -0.2007 -0.1135
    1W        W57520   3.245  11.666   8.106  0.0110 -0.0480  0.3837
    1W        W57521  25.060  26.816   7.370  0.3937 -0.3261 -0.3231
    1W        W57522  17.477  19.500   6.604 -0.0327 -0.1170  0.0913
    1W        W57523  19.549   7.768   9.322  0.0264 -0.2193  0.2604
    1W        W57524   5.396  21.870   3.666 -0.1527  0.2253  0.2061
    1W        W57525  13.606  10.473   9.871 -0.0540  0.0492 -0.0901
    1W        W57526  12.742  14.651   1.523  0.1045  0.0557  0.2313
    1W        W57527   2.718  13.440   8.103  0.4139 -0.0022  0.0061
    1W        W57528  22.713  10.437   9.129  0.0013  0.1731  0.0876
    1W        W57529   4.415  15.762   9.533 -0.0679  0.2265 -0.0547
    1W        W57530  12.756  24.062   2.703 -0.0877  0.1078 -0.4680
    1W        W57531   2.277   2.636   3.268  0.1029 -0.0555  0.2086
    1W        W57532  23.566  13.521   1.336  0.1171  0.2713  0.1509
    1W        W57533   5.855   4.071   3.128  0.2922  0.1577 -0.0328
    1W        W57534  23.248   2.217   1.952 -0.0780  0.1294 -0.1798
    1W        W57535  19.533   6.597   0.989  0.0295 -0.0249 -0.3677
    1W        W57536  13.294  28.320   7.946 -0.1883 -0.1800 -0.2124
    1W        W57537  28.633  15.189   1.759 -0.0363  0.0312  0.1342
    1W        W57538  13.624  17.309   1.676 -0.1018  0.0002 -0.2225
    1W        W57539   5.640  24.398   3.148 -0.2319  0.0179 -0.2764
    1W        W57540  24.520  24.402   7.373  0.0701 -0.2281 -0.0176
    1W        W57541  12.410  13.919   0.248  0.0192 -0.4643 -0.0745
    1W        W57542  25.384  19.874   2.875 -0.0783 -0.2134  0.0443
    1W        W57543  24.859  16.216   8.816  0.0788  0.1820 -0.1490
    1W        W57544  18.093  23.882   7.418 -0.1935  0.1531 -0.0214
    1W        W57545  23.783   9.454   9.045 -0.0445 -0.2062 -0.1418
    1W        W57546  25.506  15.302   8.016  0.0927 -0.2596 -0.1675
    1W        W57547  20.306  12.328   9.547 -0.2273  0.1285 -0.1485
    1W        W57548   1.658  11.855   9.042 -0.3724  0.1457  0.2948
    1W        W57549  22.196  26.770   8.503  0.1405 -0.2231  0.0082
    1W        W57550   4.555  19.788   9.593  0.0340 -0.0940  0.1037
    1W        W57551  21.388  21.201   9.655 -0.2522 -0.4915  0.3459
    1W        W57552   9.261  17.493   0.869 -0.1169  0.0527 -0.0752
    1W        W57553  20.570  11.215   7.277 -0.0233 -0.2692 -0.0573
    1W        W57554  23.677  14.527   1.921 -0.1423 -0.0390  0.0537
    1W        W57555  17.982   2.639   7.980  0.0176  0.2079  0.0885
    1W        W57556   6.524   1.554   2.259  0.3108 -0.2946  0.2055
    1W        W57557  23.477  20.229   6.561 -0.2873 -0.2406 -0.3825
    1W        W57558   3.688   4.961   1.806  0.0492  0.0579  0.0828
    1W        W57559  28.009   1.154   3.827  0.0941 -0.0815 -0.2560
    1W        W57560   0.514   9.765   7.278 -0.2536  0.0819 -0.1563
    1W        W57561  11.226  24.632   9.910 -0.0495  0.1212  0.2073
    1W        W57562   0.176  22.614   3.554  0.1589 -0.1823  0.1292
    1W        W57563  11.977  14.306   8.570 -0.0281 -0.3775 -0.2679
    1W        W57564   3.611  28.752   4.033  0.1942 -0.4535 -0.0134
    1W        W57565   7.222  24.847   0.155 -0.4007  0.0153  0.2095
    1W        W57566  13.596  19.319   0.567 -0.2160  0.1046 -0.0205
    1W        W57567   1.059  24.647   3.748  0.1288 -0.2382 -0.0372
    1W        W57568  10.901  16.116   7.003  0.1345  0.2146  0.0665
    1W        W57569  28.689  26.844   9.742 -0.3119 -0.1173  0.1570
    1W        W57570  17.532  25.705   9.026  0.0178  0.2679 -0.0001
    1W        W57571   5.029  10.042   7.950 -0.0353 -0.2803 -0.0788
    1W        W57572   3.001  13.193   1.024 -0.0967 -0.0031 -0.2240
    1W        W57573   7.588   5.217   9.284  0.3294  0.0441  0.2160
    1W        W57574  23.128  19.055   8.507 -0.0788 -0.1049  0.1839
    1W        W57575  27.534  25.047   1.205 -0.0076 -0.2320  0.0285
    1W        W57576  23.785   4.667   0.731 -0.2648 -0.0066 -0.0922
    1W        W57577  23.798  22.183   8.159  0.0608  0.1109 -0.2497
    1W        W57578   3.917  25.791   3.467 -0.0947 -0.1050 -0.2320
    1W        W57579   3.943  25.931   0.275  0.3075 -0.3153 -0.0438
    1W        W57580  24.627  14.983   9.852  0.0607  0.3192  0.1089
    1W        W57581   2.285   4.860   3.648 -0.1001 -0.0759  0.0513
    1W        W57582   6.652  28.823   9.317  0.0377  0.0239  0.0342
    1W        W57583   1.343  11.674   0.456 -0.0708 -0.0458 -0.2446
    1W        W57584   0.080  21.643   2.527  0.1292 -0.1396 -0.1808
    1W        W57585  18.807  11.115   0.479 -0.0147  0.0666 -0.0043
    1W        W57586   5.522   2.790   7.807 -0.2430 -0.1846 -0.1155
    1W        W57587  12.317   3.439   8.402 -0.1130 -0.2591 -0.0734
    1W        W57588  17.178  25.420   2.921  0.0899 -0.2786  0.3012
    1W        W57589  14.723  15.835   8.216 -0.0249  0.1103 -0.0707
    1W        W57590   9.650  10.244   9.722 -0.0956  0.1762 -0.3300
    1W        W57591  18.181  13.650   7.612 -0.0287 -0.1509 -0.0298
    1W        W57592  13.984  26.932   8.331  0.0594  0.0449  0.1964
    1W        W57593  27.177  15.404   0.203  0.2287 -0.0616 -0.1440
    1W        W57594   7.782  23.446   9.129  0.1636 -0.2464 -0.0238
    1W        W57595   6.640  12.099   7.335 -0.2276  0.0426 -0.0612
    1W        W57596   9.230   8.789   1.049 -0.0179 -0.3857  0.1974
    1W        W57597  20.316  15.327   2.189  0.2083 -0.2057 -0.1717
    1W        W57598  23.373  22.797   1.008  0.2904 -0.1168 -0.1160
    1W        W57599  13.362   4.919   6.384 -0.0368  0.2081  0.0425
    1W        W57600   0.445  15.141   7.695 -0.2392 -0.1872 -0.0979
    1W        W57601  24.230  27.046   9.611 -0.2331  0.0072 -0.1202
    1W        W57602  15.134   4.732   6.378  0.0432  0.0037 -0.2692
    1W        W57603   6.833  27.850   1.191 -0.1342 -0.0588 -0.0051
    1W        W57604   8.112  19.692   8.459  0.0167 -0.0746  0.5923
    1W        W57605   8.331  24.038   7.495  0.0426 -0.0809 -0.1293
    1W        W57606  24.445  20.554   9.801  0.0384 -0.0787 -0.0034
    1W        W57607  11.659  26.113   9.459  0.1614  0.2035  0.1412
    1W        W57608   8.836  24.824   1.181 -0.0289 -0.0647  0.2587
    1W        W57609   2.136   7.410   2.034 -0.0071  0.2408 -0.4361
    1W        W57610  23.246   0.839   7.488  0.1242 -0.3031  0.0618
    1W        W57611  16.132  14.163   2.262  0.0274  0.0899 -0.4141
    1W        W57612  20.696   8.971   6.290  0.2778 -0.5383 -0.0897
    1W        W57613   3.247  20.360   2.968  0.0448 -0.0537  0.0403
    1W        W57614   4.780   9.028   3.127 -0.1920 -0.0631 -0.0708
    1W        W57615  21.921   5.560   9.069 -0.1303  0.0500 -0.1350
    1W        W57616  18.859  24.478   0.312  0.0851  0.0689 -0.1258
    1W        W57617  14.134  19.416   3.172  0.1790 -0.1179 -0.0465
    1W        W57618   5.624   0.978   8.545  0.3983  0.0096 -0.0232
    1W        W57619  16.318  12.874   8.001 -0.1468  0.0388 -0.1435
    1W        W57620  16.458  22.534   1.819 -0.1330 -0.0751 -0.0351
    1W        W57621   4.903  26.932   9.374  0.2926  0.0628  0.0073
    1W        W57622  18.726  14.809   1.486  0.2597 -0.0614  0.0484
    1W        W57623  26.599  13.690   7.992  0.3946 -0.0867  0.1363
    1W        W57624   2.559  22.729   1.249 -0.1213  0.2277  0.0649
    1W        W57625   8.317  10.106   8.961  0.1088  0.0964  0.1304
    1W        W57626  23.937  16.935   0.069 -0.1711 -0.3594 -0.2498
    1W        W57627   3.945  26.038   1.259  0.1895 -0.0392  0.0866
    1W        W57628  10.669   5.582   6.554  0.2859 -0.0563  0.1868
    1W        W57629  21.540  15.794   7.131 -0.0155 -0.5288  0.2908
    1W        W57630  17.837  18.023   7.645  0.0512  0.3618 -0.0940
    1W        W57631  12.339  17.837   7.950 -0.3434 -0.0150 -0.0832
    1W        W57632  20.554  12.106   1.226  0.2961  0.0836 -0.0581
    1W        W57633  27.905  14.035   2.530 -0.0892  0.0989 -0.1415
    1W        W57634   1.354  15.790   7.494 -0.0742 -0.0232  0.1000
    1W        W57635  15.247   0.090   0.951  0.1841  0.3979  0.1537
    1W        W57636  20.388   0.282   0.617 -0.1599  0.0051  0.0329
    1W        W57637   7.516  21.106   0.941 -0.0054  0.0009  0.1550
    1W        W57638   5.953  16.088   7.067  0.0129 -0.0605 -0.0040
    1W        W57639   6.847  26.763   4.033 -0.1493  0.1876 -0.2357
    1W        W57640   6.983   3.445   2.889 -0.1469 -0.0802 -0.0912
    1W        W57641   2.244   2.226   7.933  0.1262 -0.2906 -0.0769
    1W        W57642  19.889  14.468   1.402  0.3896  0.1699  0.0244
    1W        W57643  12.837   1.262   2.121 -0.1636  0.0986 -0.0592
    1W        W57644  20.749   0.490   0.341 -0.2135 -0.1831  0.0625
    1W        W57645  27.673   3.350   9.277  0.4097  0.1844 -0.1048
    1W        W57646  10.965  13.422   7.522 -0.0064  0.2399 -0.2196
    1W        W57647   2.180  28.494   0.025 -0.0118  0.1723 -0.0000
    1W        W57648   5.842  26.597   2.172  0.3354  0.0084  0.0204
    1W        W57649  17.646  13.770   0.398  0.2563 -0.5025 -0.1354
    1W        W57650   3.974  19.554   1.519  0.0764  0.0093  0.1715
    1W        W57651   8.351  22.611   7.796  0.0682 -0.0577  0.2241
    1W        W57652   9.887  22.757   9.099 -0.1321 -0.1053 -0.2532
    1W        W57653  23.462  16.669   9.714  0.1711 -0.3051  0.0192
    1W        W57654  10.321  15.097   9.095 -0.0648 -0.3161  0.1423
    1W        W57655   1.132  17.922   2.799 -0.0905  0.1744  0.0121
    1W        W57656   0.419  13.585   9.274  0.3261  0.0089  0.0330
    1W        W57657   8.646   9.243   8.749  0.0500 -0.0347 -0.0108
    1W        W57658  20.602  24.731   0.889 -0.0884 -0.2827 -0.0138
    1W        W57659  20.304   7.941   8.501 -0.0406 -0.1778  0.1311
    1W        W57660  19.289  15.525   0.358 -0.0844  0.8093  0.0445
    1W        W57661  12.776  16.322   2.571 -0.0001 -0.1600  0.2772
    1W        W57662   6.400   1.601   8.128  0.3379  0.2383 -0.3723
    1W        W57663  17.525   5.255   5.905 -0.0974 -0.1823 -0.1837
    1W        W57664  27.997  18.064   3.331  0.1208 -0.2802 -0.1441
    1W        W57665  26.035  28.693   9.760  0.1448  0.2686  0.2094
    1W        W57666   3.417   5.566   8.370  0.0328 -0.0110  0.0135
    1W        W57667  17.601  25.937   2.475  0.0476 -0.2995  0.1357
    1W        W57668   5.280   0.334   4.238 -0.1155  0.0286 -0.1251
    1W        W57669   9.366  18.701   8.521 -0.1588  0.1102 -0.3324
    1W        W57670   4.210  28.486   7.723  0.1263 -0.0882  0.0085
    1W        W57671   3.725  16.826   7.203 -0.0036  0.0048 -0.1931
    1W        W57672  10.456  15.715   8.041 -0.0922  0.1453 -0.0341
    1W        W57673   6.259  18.667   3.356  0.0904  0.2619 -0.0042
    1W        W57674  11.379   2.251   2.174  0.1055 -0.3378 -0.2150
    1W        W57675  15.756  23.121   3.453 -0.2564 -0.1342  0.0838
    1W        W57676   6.513   3.795   2.706  0.0188  0.1596  0.1021
    1W        W57677  18.914   0.224   9.436 -0.0237 -0.3249  0.0136
    1W        W57678  15.133  22.672   6.804 -0.0266 -0.1770  0.0154
    1W        W57679   7.475  22.051   9.966 -0.2348  0.0519  0.1826
    1W        W57680  14.574  27.101   6.522  0.1607 -0.0361  0.1090
    1W        W57681  22.406  14.089   7.148  0.3636 -0.1091  0.1179
    1W        W57682  11.658  15.677   0.315 -0.0709 -0.1296  0.0299
    1W        W57683  27.960  21.511   8.356  0.2058 -0.1736  0.1500
    1W        W57684  14.849  21.745   3.030 -0.1616  0.3041 -0.1022
    1W        W57685   8.747   7.679   8.510  0.2977  0.1442 -0.2354
    1W        W57686  12.898   3.845   7.171 -0.2875 -0.0047  0.3242
    1W        W57687   0.270   6.220   9.554  0.1579 -0.2343 -0.1192
    1W        W57688  21.194  15.722   9.863  0.1869 -0.1577  0.0945
    1W        W57689   6.797   2.993   2.763 -0.0804 -0.1112 -0.1211
    1W        W57690  19.725  12.095   1.767  0.1051 -0.0953 -0.3260
    1W        W57691   5.119  16.962   8.881  0.0725  0.3162 -0.1201
    1W        W57692  22.819  12.331   9.155 -0.1738  0.0483 -0.3600
    1W        W57693   0.553  18.870   9.049  0.0475 -0.1034  0.0932
    1W        W57694  22.020  22.300   8.830 -0.3505  0.0566  0.2237
    1W        W57695  15.865   2.236   7.677  0.3355  0.2077  0.1368
    1W        W57696   1.204  20.977   0.769 -0.1860 -0.1567 -0.0408
    1W        W57697  25.879  18.195   8.076  0.0848 -0.0401  0.1127
    1W        W57698  16.447  16.255   1.720  0.0009 -0.2762 -0.0820
    1W        W57699   5.103   3.900   1.427 -0.0787 -0.0093 -0.0728
    1W        W57700   8.096   7.085   0.436 -0.0307  0.1778  0.1510
    1W        W57701  14.794   1.591   8.394 -0.1451  0.0825 -0.0843
    1W        W57702  21.307  15.896   2.612 -0.1342 -0.0931  0.0238
    1W        W57703  24.038  11.201   0.562 -0.2998 -0.0397 -0.0258
    1W        W57704  17.428   2.762   9.229  0.0348  0.1542 -0.3388
    1W        W57705  13.437  23.317   8.220 -0.0098 -0.3791  0.2558
    1W        W57706  24.511  11.488   0.470  0.1822 -0.1153  0.0426
    1W        W57707  10.837  28.234   2.948 -0.0312  0.3040 -0.2244
    1W        W57708  20.620   5.076   1.205 -0.2815 -0.2459  0.1224
    1W        W57709   4.078  23.632   3.011  0.0178  0.1313 -0.0978
    1W        W57710  11.461  22.375   1.085  0.3919 -0.0015  0.0071
    1W        W57711  28.400   8.406   9.208 -0.0728 -0.0637 -0.0552
    1W        W57712   4.353  22.191   7.649 -0.0395  0.1475  0.3690
    1W        W57713  12.605  18.305   7.878  0.2603 -0.0440 -0.0057
    1W        W57714   1.556  16.027   0.050  0.3169 -0.0877 -0.0551
    1W        W57715   2.320  18.575   7.535 -0.4477  0.1152  0.0897
    1W        W57716  11.694   3.704   0.755  0.0211 -0.0327 -0.0850
    1W        W57717  10.987  27.875   2.624  0.2402 -0.0794  0.0975
    1W        W57718  28.031  10.911   8.656  0.1924  0.4537 -0.1238
    1W        W57719  25.967  16.928   2.315  0.2308 -0.1732  0.1984
    1W        W57720  18.642  13.560   7.710  0.1720  0.4730 -0.3367
    1W        W57721  11.251  18.762   9.596  0.0336 -0.3687  0.1590
    1W        W57722  15.282  20.978   3.452  0.1123 -0.0479  0.0904
    1W        W57723  21.162   0.233   9.641  0.0758 -0.1428 -0.5942
    1W        W57724  21.677   2.825   7.790 -0.0915  0.0975 -0.0771
    1W        W57725   0.613  19.712   8.122  0.0263 -0.1768  0.1680
    1W        W57726   4.232  18.772   9.684 -0.1024 -0.2183  0.2412
    1W        W57727  19.264  23.124   9.274 -0.1022  0.1979 -0.2522
    1W        W57728   9.240  26.506   0.710  0.2625  0.0111 -0.2309
    1W        W57729  24.703  15.655   3.382  0.2308 -0.2035 -0.0459
    1W        W57730  19.465  16.520   0.600  0.0733  0.1818 -0.3168
    1W        W57731   6.799   7.476   0.120  0.1719 -0.0591 -0.3070
    1W        W57732  20.547  13.868   1.356 -0.2795  0.0310  0.2837
    1W        W57733  18.402   9.180   9.054  0.1349 -0.1398  0.1774
    1W        W57734  27.151  11.840   0.540  0.0057  0.3486 -0.0344
    1W        W57735  19.009  20.924   5.569 -0.1878  0.1051  0.0842
    1W        W57736   3.387   8.373   8.337  0.1767  0.2119  0.2492
    1W        W57737   0.422   1.800   8.716 -0.1733 -0.0375 -0.0510
    1W        W57738   1.907   6.448   4.118 -0.2425  0.1092 -0.0639
    1W        W57739  22.104   3.022   0.097 -0.0688  0.0562 -0.0488
    1W        W57740  23.002   4.838   8.356 -0.0735  0.2396  0.3227
    1W        W57741  19.904  24.418   8.320 -0.4256  0.1473 -0.2337
    1W        W57742  21.845  20.626   1.053  0.0474 -0.1250 -0.1235
    1W        W57743  19.133   8.061   9.171 -0.0343 -0.0504  0.2541
    1W        W57744   0.307   4.959   1.857  0.0879 -0.1836  0.1630
    1W        W57745  20.957  21.547   0.254 -0.1596 -0.1414 -0.1439
    1W        W57746   1.799  10.488   7.839 -0.1430 -0.3365  0.0144
    1W        W57747   8.785   5.300   8.908 -0.0323  0.2291  0.1419
    1W        W57748  14.496  21.398   9.360  0.1784  0.2675  0.0867
    1W        W57749   7.264   5.028   7.334 -0.0380 -0.2143 -0.0318
    1W        W57750  22.422  14.593   0.167 -0.0173  0.1200  0.2339
    1W        W57751  12.535   7.447   8.995  0.1792 -0.0880 -0.1292
    1W        W57752  26.319  20.489   8.217 -0.0073  0.1682  0.1501
    1W        W57753  11.498  10.307   6.948 -0.2684  0.0617 -0.2904
    1W        W57754   8.242  20.694   1.478  0.0320  0.2203 -0.0568
    1W        W57755  21.957  28.815   8.777  0.0553 -0.0227 -0.0348
    1W        W57756  25.126  24.531   8.441  0.1504  0.0094 -0.1542
    1W        W57757  18.254  15.311   0.507  0.0669 -0.1235  0.0023
    1W        W57758  13.671   1.935   1.918  0.2885 -0.2437 -0.0742
    1W        W57759  24.149   3.576   0.726 -0.1149 -0.1306 -0.0027
    1W        W57760   3.543   0.390   0.949  0.1008 -0.1310 -0.3452
    1W        W57761   5.528  20.051   7.761 -0.3618  0.3094 -0.0444
    1W        W57762  20.924   3.861   1.330  0.1265  0.0723 -0.0092
    1W        W57763   7.587   0.668   1.297 -0.1515 -0.0687  0.0323
    1W        W57764  19.824  10.519   6.381  0.0978  0.1109 -0.0443
    1W        W57765  10.736   4.456   9.106  0.1663  0.1401 -0.1826
    1W        W57766  12.053  12.038   0.958  0.1876 -0.1291 -0.2104
    1W        W57767   9.772  26.999   2.814  0.3214  0.1192 -0.1736
    1W        W57768  11.902  22.812   9.893 -0.1137  0.4961  0.0073
    1W        W57769  28.828   9.662   1.536  0.0051  0.3953 -0.0522
    1W        W57770  18.180  13.617   1.780  0.0957  0.1045 -0.1965
    1W        W57771   1.130  13.983   2.422 -0.1483 -0.1973 -0.2873
    1W        W57772  13.413  25.929   1.495  0.1224 -0.2721 -0.1139
    1W        W57773   0.089   8.665   1.995 -0.1078 -0.0788  0.2996
    1W        W57774  12.875  20.015   0.335  0.2115  0.1891  0.0401
    1W        W57775  13.128   5.029   9.694  0.1426  0.1189  0.0162
    1W        W57776  16.427   2.826   1.036  0.1154  0.0791  0.2022
    1W        W57777  22.087  27.479   2.677 -0.1221  0.0668  0.1329
    1W        W57778   7.971  26.768   4.203 -0.0282  0.2955  0.1338
    1W        W57779  26.926  16.318   0.440 -0.2831  0.0974  0.0203
    1W        W57780  18.927  26.982   8.801  0.2207 -0.1647  0.2238
    1W        W57781  11.798  24.495   1.705 -0.0665 -0.0752 -0.0534
    1W        W57782  11.392   7.755   1.542  0.1613  0.0300  0.0663
    1W        W57783  24.644   6.840   0.210 -0.1532  0.1364 -0.0281
    1W        W57784   4.951   4.001   7.769  0.1143  0.4095  0.7270
    1W        W57785  25.850  27.491   2.047  0.1376  0.1632 -0.1459
    1W        W57786   1.236  20.998   2.162  0.0154  0.1866 -0.3394
    1W        W57787  14.184  15.126   9.620 -0.3159 -0.0399 -0.2537
    1W        W57788  28.211  21.876   1.713  0.2446  0.0299  0.0804
    1W        W57789  16.354  17.790   1.954 -0.1305 -0.0005 -0.1307
    1W        W57790  13.040  15.841   9.221  0.0086  0.2341 -0.2010
    1W        W57791   6.884  27.876   8.506 -0.0283  0.2030 -0.2017
    1W        W57792  10.901  18.915   1.716  0.0014  0.1244 -0.1468
    1W        W57793  27.102  21.198   1.316  0.1378 -0.0669 -0.0937
    1W        W57794  16.584  18.550   1.590  0.0800  0.5217  0.1201
    1W        W57795  10.994   4.515   5.996 -0.0281 -0.4601  0.0195
    1W        W57796   4.570  10.374   7.237 -0.1000  0.0315 -0.0716
    1W        W57797   9.900  15.420   9.235 -0.0158  0.0478 -0.0178
    1W        W57798  11.784  16.447   7.822  0.1243 -0.1381  0.0414
    1W        W57799  18.226  15.349   2.747  0.1843 -0.4230 -0.1466
    1W        W57800  21.729  24.735   2.484  0.1848 -0.1030  0.3991
    1W        W57801   6.781  15.590   8.391  0.1187  0.0031 -0.0005
    1W        W57802   1.798  27.983   1.759 -0.0754 -0.0832  0.1219
    1W        W57803  23.670  21.611   0.190 -0.2366 -0.2591 -0.0097
    1W        W57804  27.440  10.298   2.194  0.0877  0.1862  0.2492
    1W        W57805  21.397  22.155   8.465 -0.2307 -0.1133 -0.2843
    1W        W57806   4.016  18.148   7.745  0.1676  0.1725 -0.0827
    1W        W57807  15.933   0.108   6.240  0.2096 -0.2852  0.2114
    1W        W57808  24.506  10.850   1.790  0.0557  0.1361  0.2379
    1W        W57809  19.890  21.388   9.386 -0.0081 -0.1353 -0.3956
    1W        W57810  16.285   1.946   1.609 -0.1142 -0.0623  0.0302
    1W        W57811   0.834  17.316   9.311 -0.1023  0.0209 -0.5450
    1W        W57812  22.679   2.204   7.626  0.1949  0.0529  0.1086
    1W        W57813   8.818  19.272   2.215  0.1041  0.1172  0.0492
    1W        W57814  21.687  19.787   2.320  0.1346 -0.5231 -0.3111
    1W        W57815  22.563   6.590   1.799 -0.0223 -0.0900  0.2965
    1W        W57816  14.735  26.412   9.414 -0.2447  0.1836  0.1159
    1W        W57817  20.950  24.123   1.440  0.0249 -0.4168  0.0403
    1W        W57818  14.337   6.587   5.484  0.0924 -0.0755  0.0178
    1W        W57819   3.083  26.603   2.398  0.0670  0.3048 -0.1102
    1W        W57820  24.776  24.950   0.151 -0.0116  0.0426 -0.1945
    1W        W57821  26.494  14.412   9.284 -0.2591  0.1819  0.1107
    1W        W57822  22.587  27.509   2.446  0.2210 -0.0462  0.2327
    1W        W57823  17.365  15.543   6.808  0.1250  0.2495  0.0051
    1W        W57824  15.717   9.241   0.304  0.3012  0.0932  0.1069
    1W        W57825  18.073   0.712   2.157  0.3571  0.0465 -0.0515
    1W        W57826  22.935   4.404   9.277  0.2385  0.0386  0.2109
    1W        W57827  22.869  28.213   9.160  0.0655  0.0218 -0.1701
    1W        W57828   0.768  13.581   9.673  0.1877 -0.1545  0.2792
    1W        W57829   1.401  22.901   9.128 -0.1386 -0.1269 -0.2463
    1W        W57830   3.076  11.268   1.328 -0.1455 -0.0115  0.1796
    1W        W57831  13.907   4.023   0.318 -0.0977  0.2159 -0.0537
    1W        W57832   7.070   2.618   0.113  0.3745  0.2523  0.0028
    1W        W57833  14.857   8.740   8.645 -0.2852  0.0974 -0.0745
    1W        W57834   2.103   4.205   9.648 -0.4149 -0.4168 -0.0349
    1W        W57835   1.529   6.263   0.008 -0.0147 -0.1390  0.1161
    1W        W57836  13.757  19.933   8.920  0.0153 -0.0387 -0.0909
    1W        W57837  15.067  28.285   9.958 -0.1878 -0.1644  0.2560
    1W        W57838  22.196  12.065   8.739  0.0430 -0.0227  0.2780
    1W        W57839  14.387  14.863   2.451 -0.1007 -0.0437 -0.0208
    1W        W57840  13.180   7.680   0.828  0.1670  0.1403  0.1568
    1W        W57841  15.029  26.873   0.229 -0.0922 -0.0497  0.2941
    1W        W57842   6.487   7.332   1.185  0.0362 -0.1928  0.2976
    1W        W57843  25.293   3.769   8.697 -0.1564 -0.1230  0.0179
    1W        W57844  22.892  24.377   7.905 -0.2229 -0.2281  0.3282
    1W        W57845  22.440  16.409   9.829 -0.1100 -0.0581 -0.4306
    1W        W57846  17.108   6.995   9.473 -0.0976 -0.0935 -0.4172
    1W        W57847  19.147  20.283   5.647  0.1845 -0.4151 -0.1588
    1W        W57848   4.720  14.707   8.732 -0.0685 -0.1729  0.0460
    1W        W57849  27.148  12.793   3.386  0.1356 -0.1384  0.0036
    1W        W57850   7.337  23.826   2.441  0.1609  0.4262 -0.0590
    1W        W57851  20.829  18.843   9.265 -0.0221  0.1007  0.2600
    1W        W57852  11.836   2.395   8.269  0.0496  0.1961  0.0977
    1W        W57853  14.849   8.248   8.801 -0.3497  0.0183  0.1415
    1W        W57854  12.082   3.624   2.614  0.0519  0.0045  0.2033
    1W        W57855  28.378   8.226   0.349  0.2433 -0.3595 -0.0794
    1W        W57856   1.252   5.091   0.623  0.0716  0.0331 -0.1468
    1W        W57857  17.380  23.651   9.344 -0.0120 -0.0484  0.3871
    1W        W57858   7.354  13.766   7.476  0.1146  0.0687 -0.0545
    1W        W57859  25.629   0.973   3.146 -0.0813  0.1593  0.1829
    1W        W57860   9.223  21.396   8.474 -0.1259  0.2784 -0.3100
    1W        W57861   6.120   4.610   3.724 -0.4340  0.2643 -0.0704
    1W        W57862   8.095  19.011   7.049  0.0559 -0.1017  0.2283
    1W        W57863   1.643   6.431   0.450  0.1797 -0.2167 -0.0263
    1W        W57864   1.750  27.856   1.296  0.0549  0.1839 -0.0147
    1W        W57865   3.559   6.713   0.937 -0.3931  0.2716  0.2545
    1W        W57866  19.962   3.840   9.854 -0.0401 -0.1024  0.1031
    1W        W57867   2.554  25.562   8.491  0.2581  0.1279  0.2431
    1W        W57868  22.869  27.162   9.966  0.2443 -0.0661 -0.2801
    1W        W57869  11.230  24.294   0.895  0.1161  0.1200  0.0287
    1W        W57870  28.312   9.867   1.186 -0.1072  0.3494 -0.0789
    1W        W57871  25.099  20.984   6.893 -0.0267 -0.0562  0.1400
    1W        W57872  12.234   9.711   6.821  0.0287  0.1343  0.4417
    1W        W57873   3.344  21.079   0.022 -0.0128 -0.1432  0.1856
    1W        W57874   1.712  12.478   2.500 -0.1626  0.2864 -0.0965
    1W        W57875   4.520  16.070   8.014 -0.3282  0.0312 -0.2141
    1W        W57876  17.083  11.923   0.216 -0.0432 -0.2628  0.0505
    1W        W57877  28.170   1.905   9.519 -0.0465  0.1940  0.0303
    1W        W57878  19.107   4.317   8.061  0.1156 -0.2232  0.0570
    1W        W57879  22.564  17.258   8.125 -0.2847  0.2891 -0.2893
    1W        W57880  15.683  17.086   7.287  0.0233  0.1418 -0.0156
    1W        W57881   6.797   6.898   2.870  0.0147  0.0607 -0.0287
    1W        W57882  26.422   6.257   9.225  0.1528 -0.3835  0.0027
    1W        W57883  15.494  27.849   8.149  0.2524 -0.0405 -0.6999
    1W        W57884  27.474  20.914   2.169  0.0108 -0.2316  0.2602
    1W        W57885  25.880  19.410   2.106 -0.3793  0.0093  0.3842
    1W        W57886   5.650  23.334   8.666 -0.5174 -0.0941 -0.1583
    1W        W57887  19.105  25.280   2.500 -0.2644  0.3828  0.3963
    1W        W57888  26.136  19.360   1.659 -0.0929  0.1388 -0.0978
    1W        W57889  18.089   9.311   7.209 -0.1427 -0.2617  0.1367
    1W        W57890  18.910  22.680   1.842 -0.2491 -0.2049  0.2159
    1W        W57891  19.925  17.293   0.490  0.2430  0.1706 -0.2351
    1W        W57892  26.682  11.084   2.674  0.0133 -0.2464  0.1702
    1W        W57893   1.549  22.287   8.042 -0.2458  0.1479 -0.1950
    1W        W57894   8.261   4.842   0.977 -0.1629 -0.1773 -0.2968
    1W        W57895   0.878  18.778   3.301 -0.0154 -0.2856  0.0384
    1W        W57896   1.171   3.222   9.706 -0.0258  0.2468 -0.0124
    1W        W57897   7.138  12.492   5.963 -0.0893 -0.1530 -0.2289
    1W        W57898  18.283  10.505   9.753 -0.2210 -0.0229  0.1334
    1W        W57899  23.551  27.604   9.361  0.0653 -0.0116 -0.2488
    1W        W57900   3.586  10.997   2.762  0.1516  0.1361 -0.2291
    1W        W57901  13.449  10.003   6.281  0.1302 -0.2519 -0.0335
    1W        W57902  10.370  21.990   2.115 -0.2420  0.2214 -0.2954
    1W        W57903  16.271  21.077   0.196  0.0947 -0.0306  0.1686
    1W        W57904  12.750  11.917   0.680  0.2133  0.2751  0.1079
    1W        W57905   0.065   6.389   0.943 -0.2354 -0.1130  0.1475
    1W        W57906   7.493   4.230   8.474 -0.1525 -0.2108 -0.0376
    1W        W57907  20.233  14.550   9.234  0.0217 -0.1481 -0.1330
    1W        W57908   1.008  27.327   1.616  0.1125 -0.1108 -0.0942
    1W        W57909   1.369  26.342   2.197  0.1408  0.0613 -0.0220
    1W        W57910  21.840  28.065   9.543 -0.0970 -0.0239 -0.2512
    1W        W57911  12.599  15.391   8.314 -0.1100  0.3250 -0.0282
    1W        W57912  25.946  18.825   9.169  0.0364  0.0496 -0.0505
    1W        W57913   9.724  17.495   7.133 -0.3565  0.0597 -0.2679
    1W        W57914  14.858   6.936   7.342  0.0714  0.0700 -0.0930
    1W        W57915  20.060   7.128   9.527 -0.0133 -0.4001  0.0466
    1W        W57916   8.048  10.834   6.539 -0.0870  0.0108 -0.3004
    1W        W57917  13.956  26.675   0.874 -0.1767  0.2221  0.3060
    1W        W57918  15.569   4.619   6.593  0.1505  0.2064  0.0312
    1W        W57919  27.814  28.643   2.921  0.0127 -0.0734  0.0922
    1W        W57920   8.719   9.492   8.261 -0.0228 -0.0222 -0.1138
    1W        W57921  12.951  16.875   2.581  0.4848 -0.2630 -0.4288
    1W        W57922   2.483   6.420   8.663 -0.0536  0.1789 -0.0720
    1W        W57923  27.762  20.721   9.137  0.0318 -0.0133 -0.2458
    1W        W57924   9.194   0.376   2.451 -0.1302  0.1895 -0.0808
    1W        W57925  16.146   5.376   0.825  0.2065 -0.0085 -0.1432
    1W        W57926   1.031  13.483   2.441 -0.2526  0.1179 -0.3586
    1W        W57927  13.407   9.329   6.620  0.1394  0.1959  0.0738
    1W        W57928   0.782  19.648   7.499  0.2740 -0.0608 -0.0909
    1W        W57929  10.328   0.241   9.170  0.2292 -0.2013 -0.1557
    1W        W57930  25.132  20.169   3.335  0.0616  0.0439  0.1794
    1W        W57931   7.545  20.139   8.917  0.2453  0.0430  0.3558
    1W        W57932   3.003  24.123   1.828  0.1623  0.3470  0.2195
    1W        W57933  15.454   0.253   1.499  0.2677  0.0701 -0.5549
    1W        W57934  19.281  20.183   0.906 -0.2527 -0.0165 -0.1547
    1W        W57935   2.379   3.634   3.497  0.3650  0.1615  0.0003
    1W        W57936  10.361  15.307   8.347 -0.1257 -0.1020 -0.2036
    1W        W57937   9.422  13.914   8.637  0.0454 -0.1731  0.3979
    1W        W57938  24.827  11.000   2.443  0.1359 -0.1166 -0.0508
    1W        W57939  11.195  18.637   8.758 -0.0418 -0.0654  0.1857
    1W        W57940  23.854  25.862   8.662 -0.0991 -0.3059 -0.2356
    1W        W57941  19.150   3.723   6.815 -0.0856 -0.1154  0.0059
    1W        W57942   5.139  28.305   7.685  0.3113 -0.2148  0.1594
    1W        W57943   0.796   4.017   9.391 -0.0295 -0.0952  0.4455
    1W        W57944   5.355   9.562   8.056 -0.2046 -0.2827 -0.2927
    1W        W57945  21.920  21.402   9.909 -0.0681  0.0729 -0.1820
    1W        W57946   3.820  12.623   1.399 -0.0077  0.2234  0.2636
    1W        W57947   7.357  23.861   4.029  0.0781  0.0465  0.0395
    1W        W57948   9.179   3.305   0.871 -0.2393 -0.1634 -0.1420
    1W        W57949   5.339   9.335   0.963  0.1356  0.1319  0.0560
    1W        W57950  25.749  16.948   1.116 -0.4242  0.1405 -0.2166
    1W        W57951  22.197  16.982   1.951 -0.2213  0.4331 -0.0727
    1W        W57952   8.176  13.342   8.786 -0.4483  0.1917 -0.1003
    1W        W57953  18.423  10.931   7.144  0.1488  0.0327 -0.1052
    1W        W57954  14.509   5.229   8.717  0.0043 -0.1888  0.2463
    1W        W57955  26.730   2.649   1.036  0.0612  0.2238  0.1804
    1W        W57956   7.308   9.065   2.338  0.0679  0.1629  0.0725
    1W        W57957   5.096  19.206   1.759 -0.2051 -0.2400 -0.1247
    1W        W57958  19.336  24.781   2.009 -0.0976 -0.0941  0.2082
    1W        W57959  13.990  15.952   8.202  0.0776  0.0795 -0.1790
    1W        W57960  25.144   6.311   3.395 -0.1086 -0.0955 -0.0907
    1W        W57961  22.063  13.540   8.969 -0.0634  0.0762  0.2446
    1W        W57962  13.463  10.933   0.622  0.0995  0.0184 -0.1785
    1W        W57963   1.746  27.778   3.329  0.0439 -0.2865  0.1357
    1W        W57964   2.851  13.976   8.691  0.3442  0.2711  0.2363
    1W        W57965  15.302  26.707   9.430 -0.1123 -0.2464  0.2873
    1W        W57966  25.586   3.052   0.052  0.2123  0.1797 -0.0764
    1W        W57967  25.687   1.807   2.305  0.1325 -0.1536  0.0058
    1W        W57968   6.938  22.214   6.883 -0.1320  0.0630 -0.0829
    1W        W57969  12.699  24.991   1.643  0.1918  0.0524 -0.0729
    1W        W57970  18.751  23.612   0.444  0.2052  0.1591 -0.1523
    1W        W57971  20.269   7.964   9.767 -0.2238  0.2526 -0.2643
    1W        W57972  27.914  22.363   7.837  0.0450  0.2698 -0.0585
    1W        W57973  25.802  22.514   7.573 -0.1184  0.1777 -0.0063
    1W        W57974  28.837  12.544   0.095  0.1372 -0.0574 -0.0610
    1W        W57975  14.798  13.991   7.167  0.2324 -0.2548 -0.0412
    1W        W57976  10.142   7.720   9.246 -0.1316  0.0827  0.1809
    1W        W57977   6.098   3.300   3.402 -0.0006 -0.0675 -0.0215
    1W        W57978  18.572  20.591   7.301 -0.0999 -0.0577 -0.1946
    1W        W57979  13.556  18.337   8.612 -0.0478  0.0241  0.3274
    1W        W57980   1.646  27.030   8.238  0.2396  0.1375  0.0726
    1W        W57981  26.672  16.896   7.081  0.0681 -0.2052  0.1232
    1W        W57982  19.285  11.186   7.699  0.0196  0.1984  0.0289
    1W        W57983  16.532  11.305   7.233 -0.1375  0.4136  0.1328
    1W        W57984   5.603   1.393   0.889  0.1150 -0.2001  0.0718
    1W        W57985  21.715  13.974   2.262 -0.1895  0.0455 -0.1912
    1W        W57986  22.304  16.345   1.994  0.0987  0.1860 -0.1611
    1W        W57987  20.889   1.895   7.915 -0.0025  0.0527  0.2628
    1W        W57988  19.745  21.524   6.826 -0.1155  0.3001  0.0886
    1W        W57989  10.551  28.061   9.381 -0.2390 -0.0213 -0.1921
    1W        W57990   0.875   5.613   0.306  0.1013  0.0652  0.0137
    1W        W57991  18.731   4.196   0.875  0.0428 -0.1126 -0.0522
    1W        W57992   1.607  27.755   4.077  0.2599  0.1125 -0.0252
    1W        W57993  21.463  17.762   8.939 -0.1149 -0.0283  0.3979
    1W        W57994  15.578  22.475   8.794  0.2381 -0.3768  0.1911
    1W        W57995  13.809  22.395   3.250 -0.0431 -0.0913  0.3616
    1W        W57996   2.007   2.216   3.163 -0.1886 -0.0360 -0.0190
    1W        W57997   5.979  15.810   9.622 -0.2633 -0.3859  0.0801
    1W        W57998  24.166  20.805   1.428 -0.2444 -0.0843  0.0821
    1W        W57999  22.875  17.115   9.976 -0.0441  0.0903  0.2620
    1W        W58000  13.997  15.400   8.182  0.0975 -0.0480 -0.0652
    1W        W58001   5.453  18.935   3.272 -0.0431  0.1505 -0.0515
    1W        W58002  13.674   0.262   0.386  0.4305 -0.0225 -0.1616
    1W        W58003   0.763  27.961   9.422  0.0839 -0.0743  0.1311
    1W        W58004   9.346   2.511   1.583  0.2107  0.1185 -0.3462
    1W        W58005  12.174  13.594   7.549 -0.1082 -0.3042  0.0331
    1W        W58006  27.655   7.337   1.150 -0.1027  0.3046 -0.1907
    1W        W58007   7.242  20.496   8.011 -0.0622  0.1902 -0.1296
    1W        W58008   4.573   5.855   2.779  0.1321  0.0251  0.1301
    1W        W58009  18.508   4.434   8.792  0.3038  0.3652  0.0325
    1W        W58010  26.439   9.068   7.292  0.0054  0.3543  0.0620
    1W        W58011  11.520  23.334   8.135  0.0401 -0.0207 -0.1224
    1W        W58012  27.041  23.628   2.648  0.3728  0.2584  0.2390
    1W        W58013   6.142  19.817   0.846 -0.2013  0.1483 -0.2298
    1W        W58014  10.484   4.914   6.616 -0.0420 -0.0686  0.1112
    1W        W58015  28.137   7.016   9.197 -0.1807  0.0702  0.1211
    1W        W58016   0.361  12.615   3.192  0.3284  0.3005 -0.0330
    1W        W58017  22.031  16.071   0.719 -0.1793 -0.1201 -0.3529
    1W        W58018   6.286   6.015   0.841 -0.1378  0.0093  0.0461
    1W        W58019  13.956   7.694   8.891  0.0126  0.0408  0.2717
    1W        W58020  28.530  14.413   9.002 -0.0375  0.0761 -0.1229
    1W        W58021   5.751   9.648   7.717  0.1535  0.5375 -0.1301
    1W        W58022   8.189   1.046   9.279  0.1752 -0.1299 -0.0537
    1W        W58023   8.491   4.824   8.912 -0.0477  0.2821 -0.0867
    1W        W58024  19.064   2.009   2.672  0.0532  0.0438 -0.0047
    1W        W58025  22.228  10.381   8.196 -0.2753 -0.1776  0.4814
    1W        W58026   0.783   0.478   1.603 -0.0428  0.0675 -0.0030
    1W        W58027   3.885   7.119   2.761 -0.0367 -0.2226 -0.0844
    1W        W58028  22.918   9.635   6.992 -0.1605  0.1683 -0.2469
    1W        W58029  13.724   2.951   8.179 -0.0601 -0.2682 -0.1145
    1W        W58030   5.629   6.995   0.800  0.4483  0.2842  0.1466
    1W        W58031   4.057   6.558   9.342 -0.1203 -0.3555 -0.1892
    1W        W58032   0.397  22.049   8.239  0.0964 -0.2220  0.1920
    1W        W58033  18.247  12.214   9.590 -0.4545  0.0521 -0.2658
    1W        W58034  23.356   3.538   8.341 -0.2037  0.2311  0.0390
    1W        W58035  14.610  12.119   8.225 -0.0600  0.1396  0.3431
    1W        W58036   1.646  15.885   1.199  0.2810  0.2761  0.0393
    1W        W58037  16.099  27.909   2.209 -0.2179 -0.2164 -0.0983
    1W        W58038   7.981  16.253   6.083 -0.1341  0.1238  0.2092
    1W        W58039  13.893   1.564   2.724 -0.1586 -0.0007  0.0516
    1W        W58040   7.997   5.500   9.323 -0.2811  0.1519  0.0310
    1W        W58041   7.036   5.270   9.821  0.1158  0.0368 -0.1839
    1W        W58042  22.985  22.893   3.090 -0.1153 -0.1582  0.3095
    1W        W58043  10.874   8.642   0.621 -0.1864 -0.0355  0.1008
    1W        W58044  18.769  20.744   3.008  0.0687  0.3409 -0.1036
    1W        W58045   2.088  19.422   1.506 -0.2689  0.2642  0.1538
    1W        W58046   7.777   0.876   1.800  0.2883 -0.1848  0.1417
    1W        W58047  13.785   3.310   7.634  0.0688  0.1455 -0.4202
    1W        W58048  23.265   3.555   0.336 -0.1222 -0.1570 -0.3259
    1W        W58049  27.327  12.782   2.258  0.3201  0.1157 -0.0967
    1W        W58050  22.733  15.295   8.231  0.1291  0.2513  0.0463
    1W        W58051  15.962  15.811   9.050 -0.1111  0.0032 -0.0224
    1W        W58052  23.675  19.006   6.343 -0.0024 -0.2137  0.1231
    1W        W58053   2.283  10.618   0.005  0.1571  0.0913 -0.1243
    1W        W58054  20.193  18.105   6.699  0.1671 -0.0464 -0.1619
    1W        W58055  15.938  18.642   0.458 -0.0190 -0.0245  0.2448
    1W        W58056  13.982  17.630   8.519  0.3844  0.0571 -0.0404
    1W        W58057  28.129   7.999   9.272 -0.0295  0.0768  0.1355
    1W        W58058  21.653  27.057   7.492  0.1609  0.4915 -0.2611
    1W        W58059  17.340   1.710   1.332 -0.0319 -0.0836 -0.0363
    1W        W58060   6.997  27.142   3.174  0.0816  0.1286  0.2943
    1W        W58061   6.347   1.187   9.996 -0.1916  0.1217  0.2626
    1W        W58062  11.090  26.656   0.047  0.0521  0.0024 -0.2618
    1W        W58063   2.180  12.563   2.469  0.1527 -0.3340  0.1654
    1W        W58064   7.409  16.450   1.750  0.1329  0.0855 -0.0427
    1W        W58065  23.160  10.186   8.335  0.2548 -0.0648  0.0638
    1W        W58066  13.143  25.182   8.493  0.0716 -0.0010 -0.1050
    1W        W58067   7.006  17.959   9.534  0.0856  0.3478  0.2555
    1W        W58068  20.017  12.811   7.619 -0.1573 -0.0133  0.0695
    1W        W58069  10.214  14.940   7.234  0.0335 -0.1129  0.0814
    1W        W58070  10.270  20.248   7.875  0.0547  0.1490 -0.0280
    1W        W58071  22.551  15.127   9.185 -0.0293 -0.0966  0.0727
    1W        W58072   1.983  24.964   3.351 -0.3712 -0.1710  0.0476
    1W        W58073   8.404   8.683   8.933  0.1217 -0.2494 -0.4180
    1W        W58074   8.250  14.075   6.298 -0.1864 -0.1232  0.1220
    1W        W58075  18.164  28.117   7.742 -0.1425  0.1667 -0.1439
    1W        W58076   4.810  16.077   2.014 -0.1630 -0.0975 -0.0833
    1W        W58077   7.167   0.047   9.415 -0.0769  0.1675 -0.4170
    1W        W58078  15.856   5.726   8.486 -0.0451  0.2056  0.3322
    1W        W58079  21.179  12.757   8.814 -0.1134  0.1917 -0.0299
    1W        W58080  25.466  24.656   7.630 -0.1661  0.0620 -0.2597
    1W        W58081   4.961   4.935   9.530  0.2034 -0.1240  0.3451
    1W        W58082  27.225  14.764   4.057  0.4220  0.1241  0.0181
    1W        W58083  22.737  25.477   0.655  0.0282  0.0651  0.0343
    1W        W58084  14.157  12.780   5.668  0.1522 -0.0319  0.0204
    1W        W58085   9.572  13.617   0.929 -0.1903  0.0862 -0.5331
    1W        W58086  27.563   2.694   9.817  0.1438 -0.1214 -0.4024
    1W        W58087  21.128  23.058   6.749  0.3815 -0.0637 -0.0868
    1W        W58088   3.811  26.473   9.911 -0.1961  0.0806 -0.3057
    1W        W58089  12.327  16.117   3.052 -0.1411  0.1529  0.1898
    1W        W58090  16.476   8.400   9.966 -0.1808  0.1336 -0.2189
    1W        W58091  26.300   5.205   8.480  0.2226 -0.1148  0.0619
    1W        W58092  10.921  21.856   8.632  0.0094 -0.4508 -0.2693
    1W        W58093  25.593  26.777   2.366  0.1253  0.1660 -0.1762
    1W        W58094   4.820  25.341   8.581 -0.5346  0.1204 -0.0334
    1W        W58095  18.147  25.720   7.595 -0.0425  0.0751 -0.1476
    1W        W58096   8.790  14.737   8.901 -0.2199 -0.2168  0.0568
    1W        W58097   1.406   2.580   1.409  0.1330  0.1503  0.3191
    1W        W58098   3.628  24.213   0.715 -0.2734  0.1834  0.1331
    1W        W58099  18.596  22.337   1.076 -0.1142 -0.1588  0.1897
    1W        W58100   0.499  25.974   8.780  0.0444  0.1275  0.1488
    1W        W58101  19.042  12.688   1.485 -0.2868  0.1413  0.0968
    1W        W58102  16.139  20.205   0.775  0.0381  0.2218 -0.1804
    1W        W58103  16.316   7.229   7.002  0.0751  0.0018  0.0762
    1W        W58104   5.338  27.080   9.054 -0.0966  0.0001 -0.0309
    1W        W58105  23.310   0.111   2.408  0.0818  0.0436  0.2145
    1W        W58106  19.462   8.462   5.704  0.0017  0.1253 -0.2350
    1W        W58107  21.269   2.789   8.122 -0.1934 -0.0228 -0.0543
    1W        W58108   6.589  19.699   8.588  0.3496  0.2337 -0.1966
    1W        W58109  14.792  24.167   8.762  0.0751  0.1246 -0.1806
    1W        W58110  20.614  23.556   9.414 -0.1616 -0.0682  0.1571
    1W        W58111  14.679  14.968   1.033  0.2885 -0.1862  0.0410
    1W        W58112  24.881  20.701   6.612  0.0823 -0.1034 -0.0431
    1W        W58113  28.339   6.410   8.124 -0.1533 -0.2326 -0.1091
    1W        W58114  21.839  13.224   1.184  0.0900  0.0388 -0.0250
    1W        W58115  18.220  28.876   7.229  0.2405  0.2091  0.3221
    1W        W58116  11.957  19.611   9.186  0.0117  0.2941 -0.2086
    1W        W58117  19.163  22.152   2.007  0.0256 -0.1821 -0.2153
    1W        W58118   0.142  10.317   8.601  0.0822 -0.1454  0.1003
    1W        W58119   6.160   2.054   8.265  0.2421 -0.4542 -0.1440
    1W        W58120   7.054  15.311   7.436 -0.1698  0.0550  0.3613
    1W        W58121   5.790   3.933   7.615  0.0286 -0.1018 -0.2355
    1W        W58122   4.166  15.277   9.862  0.2404  0.2771 -0.1580
    1W        W58123   0.574  16.093   3.820 -0.0317  0.1978 -0.1222
    1W        W58124   6.479  11.490   8.572 -0.0258  0.2900 -0.0900
    1W        W58125  12.951   7.924   6.560 -0.1526  0.2007  0.0506
    1W        W58126  27.188   5.394   3.167  0.2020 -0.0717 -0.0354
    1W        W58127   8.541   2.652   9.776 -0.0001 -0.1006 -0.1770
    1W        W58128  14.487   1.214   9.270  0.0233 -0.0135  0.1615
    1W        W58129   2.785  19.736   0.025 -0.1742  0.0312  0.0580
    1W        W58130   6.097  24.766   7.870 -0.1344  0.1478 -0.3085
    1W        W58131   0.274   3.777   9.928  0.0394  0.0845 -0.0306
    1W        W58132  27.090  16.797   0.258  0.2099  0.3102 -0.0064
    1W        W58133   0.566  15.662   2.084  0.1409 -0.0757  0.1533
    1W        W58134   9.009  24.775   8.962 -0.1504 -0.2326  0.0934
    1W        W58135   4.349  11.717   9.094  0.0564 -0.2485  0.1316
    1W        W58136  17.716  24.294   0.763  0.1737 -0.0478 -0.0529
    1W        W58137  12.926  23.572   8.252  0.1578  0.0124  0.4245
    1W        W58138   7.485  25.381   0.710  0.0036  0.0284 -0.0222
    1W        W58139  10.942  14.562   0.163  0.2279  0.1894  0.0209
    1W        W58140   6.726  13.720   0.497  0.1074  0.0468 -0.0354
    1W        W58141  11.267   3.622   8.379 -0.1881  0.3293  0.2344
    1W        W58142   9.714  13.733   6.367 -0.2136  0.1795 -0.2604
    1W        W58143  22.484  14.592   2.641  0.1223  0.0587  0.1082
    1W        W58144  22.193  17.384   0.071 -0.1659 -0.2628  0.0443
    1W        W58145   7.389  20.269   3.105  0.0464 -0.1026 -0.1109
    1W        W58146  11.141   3.521   0.996 -0.0028  0.0753  0.2020
    1W        W58147   6.418  12.232   8.126 -0.1050  0.0300 -0.0765
    1W        W58148   4.170  28.016   2.952  0.1782 -0.1569  0.0350
    1W        W58149   2.259  27.707   8.438  0.1784  0.0618  0.0422
    1W        W58150  17.899  24.092   9.602 -0.2188  0.1312 -0.0759
    1W        W58151  23.349   4.021   8.416  0.2193 -0.1472  0.1869
    1W        W58152  23.069  24.314   0.173  0.0782  0.0682 -0.0876
    1W        W58153  20.753  13.090   7.932 -0.0388 -0.3286  0.1295
    1W        W58154  12.794  14.151   5.929  0.0476 -0.1916 -0.1951
    1W        W58155  22.417  10.821   8.954 -0.0736  0.1398 -0.2130
    1W        W58156   3.363  14.485   2.505 -0.0088 -0.0480 -0.0667
    1W        W58157  11.434   9.537   7.488 -0.0815 -0.0768 -0.2670
    1W        W58158  17.611   2.323   9.501  0.3434 -0.4691  0.1496
    1W        W58159  10.777  27.863   7.601  0.0833 -0.0078 -0.1804
    1W        W58160   2.276  15.651   3.401 -0.0618 -0.2331 -0.2097
    1W        W58161   5.573  28.274   8.473 -0.0295  0.2148  0.1083
    1W        W58162  17.119  12.934   6.670 -0.2785  0.4203 -0.2140
    1W        W58163  16.410  24.523   0.787  0.0516 -0.0241 -0.0082
    1W        W58164  18.976   5.773   9.201  0.0134  0.1166 -0.3314
    1W        W58165   4.729  18.061   9.607  0.0515 -0.0406 -0.0365
    1W        W58166  24.109  27.424   0.137  0.1175  0.1155  0.0130
    1W        W58167  21.348   5.409   1.627 -0.0340  0.1328  0.3782
    1W        W58168  15.688   1.030   1.018 -0.1669 -0.0458  0.2186
    1W        W58169   3.961  27.903   0.801  0.0542  0.1758 -0.0259
    1W        W58170   2.807   9.415   2.254 -0.1283  0.3319  0.0635
    1W        W58171  21.932  23.606   1.375 -0.1313 -0.2293  0.1404
    1W        W58172  18.563  27.338   7.476  0.3422 -0.2126 -0.1699
    1W        W58173  17.951  23.344   8.240 -0.0977 -0.1512  0.2125
    1W        W58174   9.998  23.070   0.152 -0.0182 -0.0672 -0.2077
    1W        W58175   2.424   6.962   8.510 -0.1801 -0.1055 -0.1240
    1W        W58176   3.254  15.563   0.744 -0.1255 -0.3614 -0.1273
    1W        W58177   1.454  21.857   9.320  0.0717 -0.0210  0.4028
    1W        W58178   9.820  24.763   2.844 -0.1137  0.1710  0.0182
    1W        W58179   7.676  26.344   3.203 -0.3120  0.0998 -0.0447
    1W        W58180   0.133  21.659   8.182 -0.3245 -0.2383  0.0130
    1W        W58181  24.926   6.028   1.530  0.1673 -0.3282 -0.0364
    1W        W58182   2.020   5.588   1.211  0.2283 -0.2000  0.1361
    1W        W58183  12.049  10.300   7.103  0.0061  0.1580  0.0001
    1W        W58184   8.584  14.957   6.599 -0.1526  0.1559  0.3825
    1W        W58185  19.195   7.533   0.328  0.0605 -0.0129  0.2171
    1W        W58186  10.419  12.054   8.605 -0.1297 -0.1678 -0.1079
    1W        W58187  25.909   5.278   0.120  0.1938  0.3756  0.1415
    1W        W58188   8.488  21.214   7.257  0.0998 -0.0366  0.0124
    1W        W58189  17.365   5.174   8.639  0.1743  0.0115 -0.2588
    1W        W58190  23.547   1.045   1.558 -0.0552 -0.0058 -0.1386
    1W        W58191  28.870  17.934   9.133  0.0806  0.1183  0.0125
    1W        W58192   6.308  19.648   6.846 -0.1376  0.0387 -0.1477
    1W        W58193   1.825   2.327   0.324  0.0544  0.2568  0.3579
    1W        W58194  18.749  20.216   0.710 -0.0458 -0.0398 -0.1949
    1W        W58195  26.765   8.562   0.473  0.0481 -0.0736 -0.1232
    1W        W58196   5.623   2.773   1.099 -0.0390 -0.2056  0.0780
    1W        W58197  25.664  15.438   7.553 -0.2181 -0.0437  0.1230
    1W        W58198   9.191  27.014   3.743  0.1297  0.0804 -0.1954
    1W        W58199  26.083   0.523   2.774 -0.0189 -0.2013  0.3504
    1W        W58200   4.554  24.243   8.289  0.1313  0.1767  0.2058
    1W        W58201   3.275  19.527   8.726 -0.3758 -0.3900 -0.0178
    1W        W58202  12.450   1.723   8.142 -0.2110  0.0474  0.0504
    1W        W58203   5.414  23.752   9.866  0.1692 -0.1305  0.3940
    1W        W58204  15.615   6.419   5.907  0.0200  0.0535  0.1574
    1W        W58205  19.486  22.659   9.502 -0.1722 -0.2699  0.0018
    1W        W58206   5.642  13.676   2.550 -0.3845  0.1285 -0.0821
    1W        W58207  22.703  13.982   7.556 -0.0677 -0.0141 -0.0487
    1W        W58208  25.509   9.996   1.749  0.2782 -0.0533 -0.0318
    1W        W58209   1.112   2.184   1.587  0.0678  0.1092 -0.0011
    1W        W58210  12.351   5.695   8.532 -0.2364 -0.1824  0.0457
    1W        W58211  12.801  13.680   5.793 -0.1169  0.2057 -0.0025
    1W        W58212  20.451  13.119   9.660 -0.0112  0.0331  0.3442
    1W        W58213  12.480  18.141   1.973 -0.1803  0.2089  0.3228
    1W        W58214   6.035  21.153   0.648  0.1211  0.0201 -0.0340
    1W        W58215   2.537  24.318   2.184  0.0395  0.4226  0.0266
    1W        W58216  11.287   3.965   9.341  0.1971  0.0688  0.3218
    1W        W58217  20.958  19.310   2.049  0.0374  0.0893  0.0922
    1W        W58218   4.279   8.566   1.419 -0.1915 -0.0799  0.0643
    1W        W58219  22.928  22.962   2.584 -0.0443  0.3597  0.1642
    1W        W58220  19.789   8.099   8.470 -0.2899 -0.0069 -0.2604
    1W        W58221  11.398   0.863   9.418  0.1499 -0.2876  0.1091
    1W        W58222  19.548  15.162   0.188 -0.0233 -0.3124 -0.1076
    1W        W58223   9.540  18.578   9.588 -0.1668 -0.0812 -0.0452
    1W        W58224  18.801  26.102   9.354 -0.2526 -0.1108  0.1933
    1W        W58225  20.505   8.417   7.635  0.1110  0.2204 -0.3169
    1W        W58226   1.961   8.958   3.113 -0.0520 -0.2322 -0.0570
    1W        W58227  14.034  26.443   7.060 -0.0208  0.2834  0.1441
    1W        W58228   5.336  15.820   9.552 -0.1963  0.1128  0.0360
    1W        W58229   4.010   1.832   8.289  0.0783  0.2193  0.0219
    1W        W58230  20.795  17.327   1.042  0.2199 -0.0410  0.1900
    1W        W58231  20.406  24.220   8.129  0.1976  0.3179  0.2934
    1W        W58232   1.475  27.389   3.042  0.0827  0.0593 -0.2637
    1W        W58233  11.136  23.476   1.750 -0.0533 -0.0991  0.0744
    1W        W58234   6.051   2.617   1.444 -0.0390 -0.0237 -0.1524
    1W        W58235  10.420  13.192   6.467  0.1096  0.0290  0.2078
    1W        W58236  26.226  22.316   0.111 -0.0428 -0.0654 -0.2774
    1W        W58237  10.258   1.341   7.710  0.2874 -0.0448 -0.2751
    1W        W58238   5.655   7.248   9.238 -0.0813  0.1384  0.2083
    1W        W58239   6.089  10.234   0.539  0.0492  0.4265 -0.0054
    1W        W58240  25.383  22.322   0.668  0.0980  0.1193 -0.1680
    1W        W58241  10.461  25.579   7.768 -0.1305 -0.2502 -0.1295
    1W        W58242  15.013   8.618   9.699  0.0057 -0.1454 -0.1747
    1W        W58243  15.601  24.107   1.963  0.2857 -0.3368 -0.1205
    1W        W58244  12.865  18.005   0.059  0.1216 -0.3955 -0.1486
    1W        W58245  20.825  12.232   9.746 -0.3229  0.0074  0.0573
    1W        W58246   0.611  14.963   9.682 -0.0276  0.0440 -0.2893
    1W        W58247  21.036   5.641   0.127 -0.1159  0.0288 -0.0838
    1W        W58248  13.790  19.251   8.761 -0.0750  0.3953  0.0865
    1W        W58249   9.732   8.632   1.815  0.1638 -0.0661 -0.1030
    1W        W58250  19.217  26.603   2.114 -0.1940  0.0690  0.0198
    1W        W58251  13.505   7.837  10.004  0.0137  0.0283  0.0720
    1W        W58252   8.865   2.646   0.134  0.0138  0.0426 -0.0594
    1W        W58253  27.422  18.108   2.634  0.1359 -0.0026  0.0803
    1W        W58254  22.365  20.358   2.282 -0.0022  0.0158  0.0875
    1W        W58255   8.224  23.936   0.774 -0.0644 -0.1290 -0.0097
    1W        W58256  24.063  15.351   8.981 -0.2846 -0.3955  0.1356
    1W        W58257  15.111  20.622   9.101  0.3413  0.1000  0.1260
    1W        W58258  14.276  14.707   8.807 -0.0998 -0.4096  0.0153
    1W        W58259  11.081  10.126   6.053  0.1373  0.1917 -0.1221
    1W        W58260  13.860  12.927   1.926  0.2662 -0.0263 -0.0579
    1W        W58261   4.607   2.876   0.787  0.1958 -0.0929  0.0916
    1W        W58262  18.385  26.723   0.406  0.1249 -0.1065  0.0346
    1W        W58263  22.910   3.774   9.139  0.1494 -0.0669 -0.2210
    1W        W58264   6.907   8.530   9.061  0.1516  0.1184 -0.0400
    1W        W58265   9.438  25.651   8.145 -0.0913 -0.3703  0.1941
    1W        W58266   1.589  10.269   3.004  0.1495 -0.1012  0.1294
    1W        W58267  23.026  21.727   8.578  0.2467  0.2508 -0.1129
    1W        W58268  14.546  23.118   8.349  0.0743  0.0954  0.2817
    1W        W58269  19.200  15.044   0.677  0.3294 -0.2889 -0.0540
    1W        W58270  15.592   0.220   0.452 -0.0000 -0.3328 -0.0822
    1W        W58271   8.185  10.904   8.574 -0.3038 -0.4720  0.2226
    1W        W58272  20.450   9.783   6.541  0.1592  0.1791 -0.0907
    1W        W58273  23.650  13.327   8.692  0.1718 -0.1634  0.2275
    1W        W58274   4.280   5.238   1.325 -0.4622 -0.1034 -0.0943
    1W        W58275  12.707  26.751   2.390 -0.1276 -0.1240  0.0718
    1W        W58276  13.238  26.033   1.992 -0.0268 -0.1548 -0.1947
    1W        W58277  27.877   9.493   1.524 -0.1383  0.1586  0.3274
    1W        W58278  11.271   0.044   3.496  0.0845 -0.0479 -0.0834
    1W        W58279   6.812   6.975   0.357  0.2086  0.1430  0.3767
    1W        W58280   7.154   0.032   3.168 -0.0547  0.0800  0.1420
    1W        W58281  21.934  23.996   2.964  0.0870  0.0096 -0.2861
    1W        W58282  16.970   4.052   0.623  0.1844 -0.0089  0.0824
    1W        W58283  27.461   8.896   6.944 -0.1918 -0.0897  0.1144
    1W        W58284  19.066  13.610   0.451  0.1656 -0.1645  0.0304
    1W        W58285  19.650   0.856   2.238 -0.0010  0.3935  0.0379
    1W        W58286   2.886  27.068   1.059 -0.3528  0.0212  0.4347
    1W        W58287  26.076  11.281   9.562 -0.0506  0.1459  0.1276
    1W        W58288  18.506  11.564   9.039 -0.1137  0.2264  0.0998
    1W        W58289  17.951  13.429   1.347  0.1513  0.1119 -0.0895
    1W        W58290  12.814  10.275   8.318  0.0164 -0.2987  0.1694
    1W        W58291  21.497  22.448   3.228 -0.2127  0.0570  0.0933
    1W        W58292  24.440  12.040   8.378 -0.0418 -0.1368 -0.0543
    1W        W58293  25.492   2.378   1.589 -0.2626 -0.3684 -0.2560
    1W        W58294  16.980   5.558   7.134 -0.0654  0.1065 -0.2276
    1W        W58295  26.762  17.885   1.483  0.0467  0.1234 -0.0710
    1W        W58296  28.692   4.012   8.780  0.2850 -0.0513 -0.0032
    1W        W58297  23.636  10.499   1.324  0.2609  0.0135 -0.1626
    1W        W58298   7.120   6.088   9.365  0.2914 -0.3085 -0.2701
    1W        W58299   4.363  20.950   1.533 -0.0678 -0.2163 -0.3443
    1W        W58300   1.536  27.852   9.065  0.1492 -0.1673 -0.2000
    1W        W58301  26.781  10.008   9.496 -0.0673 -0.1015  0.1156
    1W        W58302  14.618  10.753   1.072 -0.0910  0.3429 -0.0665
    1W        W58303   1.820   3.699   0.732 -0.2608 -0.1155  0.1468
    1W        W58304  24.291  14.874   8.244  0.2477 -0.0487  0.1370
    1W        W58305  10.007  16.123   6.872  0.0128 -0.1910 -0.0088
    1W        W58306   0.888   8.101   8.783  0.1168 -0.2128 -0.0860
    1W        W58307  15.632  19.990   0.770  0.1561 -0.1667  0.2100
    1W        W58308   7.189  10.868   8.155  0.1302  0.0907  0.0634
    1W        W58309   3.113  16.745   1.937 -0.0047  0.3075  0.0839
    1W        W58310  26.054  26.453   1.791 -0.1082 -0.0642  0.3240
    1W        W58311   8.668  20.883   6.884 -0.4210 -0.1012  0.5772
    1W        W58312  15.639  26.513   9.129  0.0255 -0.0442 -0.1676
    1W        W58313  21.924   6.130   8.419 -0.0506  0.0234  0.0446
    1W        W58314  15.076   5.330   5.794  0.0469 -0.1131 -0.1933
    1W        W58315   5.871  20.926   1.851  0.0408 -0.3409  0.0778
    1W        W58316  26.115  14.558   9.546 -0.1481 -0.1198 -0.0192
    1W        W58317  11.794   3.110   1.489  0.1294 -0.0393 -0.0377
    1W        W58318  23.228   5.902   2.960  0.0643  0.3156  0.0409
    1W        W58319  15.662   3.761   0.692 -0.0558 -0.1944 -0.3504
    1W        W58320  24.904  22.348   1.939 -0.1829 -0.3124 -0.2158
    1W        W58321   1.025  19.299   3.114  0.4100  0.2426  0.1539
    1W        W58322  17.902   8.020   0.839  0.3816  0.1736 -0.2213
    1W        W58323  24.230   4.910   0.446  0.0378  0.0723 -0.1188
    1W        W58324  21.445  13.457   1.384  0.1440 -0.0296  0.0875
    1W        W58325  25.760  21.708   1.150 -0.2539 -0.0357 -0.3262
    1W        W58326   4.241  21.834   9.841  0.0453 -0.0957  0.1848
    1W        W58327   0.344  13.302   2.549 -0.0494  0.0339  0.2652
    1W        W58328   4.616  22.034   0.960  0.2212  0.2718  0.1896
    1W        W58329  24.593  20.745   7.044  0.1650  0.0008  0.0338
    1W        W58330   9.142  20.352   2.600 -0.0422  0.1832  0.2102
    1W        W58331   3.500   4.980   0.388  0.1066  0.1746 -0.0028
    1W        W58332   9.950  16.045   0.919 -0.0343 -0.2115 -0.4715
    1W        W58333  12.887   3.489   9.755 -0.0987  0.1384  0.4326
    1W        W58334  21.299  22.840   1.679 -0.0037 -0.3345 -0.0456
    1W        W58335   5.878   7.933   2.397  0.5445  0.1786  0.1565
    1W        W58336  22.518  20.446   7.396 -0.1094  0.0039  0.2753
    1W        W58337  17.049  23.052   1.926  0.1614 -0.2860  0.0998
    1W        W58338   3.742   3.160   0.256 -0.0632 -0.2299 -0.4145
    1W        W58339   5.291  20.383   2.281 -0.0233  0.0805 -0.0174
    1W        W58340   6.058  12.065   1.880 -0.0641 -0.0125  0.0270
    1W        W58341  28.552   8.047   3.914  0.1234  0.0804 -0.3289
    1W        W58342  24.998   1.690   0.509  0.0066  0.0619 -0.2125
    1W        W58343  25.583  25.335   8.936 -0.0918 -0.3298  0.1111
    1W        W58344   6.101  20.304   0.078 -0.0741  0.0061  0.2033
    1W        W58345  12.792  19.575   8.230 -0.2619  0.1068 -0.0876
    1W        W58346  26.950  14.054   8.060  0.1604 -0.1136 -0.1707
    1W        W58347   4.673  19.555   9.147  0.0206  0.1932  0.1445
    1W        W58348  17.291   0.374   7.549  0.0462  0.2653  0.2430
    1W        W58349   9.271   9.397   9.717 -0.0443 -0.2945  0.1776
    1W        W58350   0.437  28.511   7.762  0.3508 -0.1340 -0.3254
    1W        W58351  18.035   4.656   8.894  0.4575  0.1923 -0.0875
    1W        W58352   3.961  16.953   2.516  0.1106  0.1838  0.1541
    1W        W58353  20.921   2.968   9.305 -0.2792 -0.1548 -0.0695
    1W        W58354  23.097  17.710   7.343  0.1157  0.0456  0.3113
    1W        W58355  18.034   2.218   0.740 -0.2095  0.1970 -0.0599
    1W        W58356  10.095   1.859   0.823 -0.0843  0.1895 -0.1734
    1W        W58357   2.600  26.533   0.832  0.1689 -0.2514  0.0048
    1W        W58358  21.803   2.674   8.285 -0.0903 -0.2544 -0.2660
    1W        W58359  22.992   7.367   9.725  0.1999  0.0475  0.1340
    1W        W58360  26.694   6.005   2.287  0.2376 -0.4218  0.4334
    1W        W58361   4.229  10.597   1.621 -0.0609  0.3170  0.2543
    1W        W58362  18.467  12.138   9.022 -0.0845 -0.2019 -0.0139
    1W        W58363  23.810  14.183  10.000  0.2236  0.3797 -0.1360
    1W        W58364  25.225   8.769   6.619  0.1342 -0.0020  0.2485
    1W        W58365  17.890   2.574   6.945 -0.2314 -0.2446 -0.0694
    1W        W58366  21.195   2.381   1.620  0.3774 -0.1213  0.0597
    1W        W58367  16.852  18.365   8.895 -0.5031 -0.3042  0.0793
    1W        W58368  25.895  19.063   9.939  0.4189 -0.3782 -0.0067
    1W        W58369  11.530  23.467   8.822 -0.3514 -0.3771 -0.1375
    1W        W58370   2.273  27.109   0.804 -0.0230  0.0969  0.1184
    1W        W58371   2.820  19.582   9.508  0.1189  0.0660  0.2611
    1W        W58372  15.431  23.526   7.488  0.0104 -0.0984  0.1418
    1W        W58373  14.625  24.351   8.297 -0.1411 -0.1958  0.2854
    1W        W58374  14.300   2.365   1.093  0.1503 -0.0391 -0.0784
    1W        W58375   9.417  21.884   8.412  0.1033  0.3552 -0.2936
    1W        W58376   5.802  23.496   7.739  0.0185  0.1493 -0.0195
    1W        W58377  21.875   5.737   7.445 -0.1149  0.1058  0.0312
    1W        W58378  26.555  14.358   8.792 -0.0526  0.0633 -0.0662
    1W        W58379  19.563   3.489   7.420  0.1034 -0.0025 -0.2381
    1W        W58380   8.549  25.674   1.933  0.3289  0.1422  0.2194
    1W        W58381  21.337  23.355   1.766 -0.0128  0.0119 -0.3930
    1W        W58382  25.757   8.012   1.286  0.0968 -0.0532  0.2720
    1W        W58383   3.495  17.188   8.085  0.1563  0.1225  0.1794
    1W        W58384   4.203   1.282   3.791  0.0661  0.0030  0.1447
    1W        W58385  16.320   3.466   1.181  0.2056 -0.2021 -0.0064
    1W        W58386   8.526  13.432   7.994  0.4303  0.4213 -0.0701
    1W        W58387  18.203  15.057   7.185 -0.2327 -0.0082 -0.1630
    1W        W58388  14.098   1.586   7.751  0.2753  0.0369 -0.0034
    1W        W58389   0.213   1.825   2.713 -0.2773 -0.1871 -0.0441
    1W        W58390  22.574  27.092   0.336 -0.0638  0.0697  0.2756
    1W        W58391  22.738  21.752   2.043 -0.1702 -0.3147 -0.1642
    1W        W58392  23.377   9.946   9.509  0.1051  0.3299 -0.0711
    1W        W58393  26.265   4.584   3.018  0.0086  0.1763  0.1643
    1W        W58394  22.070   0.416   8.909 -0.4064 -0.1126  0.0580
    1W        W58395   9.421   1.598   1.148 -0.2548  0.1314  0.4240
    1W        W58396   6.408  13.851   9.258  0.0589 -0.1313  0.0515
    1W        W58397   4.451   8.062   1.492  0.0072  0.1194  0.0539
    1W        W58398  17.836  21.644   9.195  0.0772  0.1392  0.2224
    1W        W58399   7.393  22.241   9.167  0.2248 -0.0481 -0.3239
    1W        W58400   0.560   2.633   2.158 -0.0356 -0.0542 -0.2484
    1W        W58401  14.094   0.402   7.642 -0.0582 -0.2324  0.1532
    1W        W58402  13.423  22.596   9.263 -0.2302 -0.2696 -0.1909
    1W        W58403  10.184  23.683   0.747 -0.0557 -0.2423  0.2471
    1W        W58404   6.651  15.735   1.690 -0.2260  0.0952  0.0798
    1W        W58405  24.166  11.020   8.258 -0.0900  0.0078 -0.0504
    1W        W58406  25.740  23.918   2.647  0.1810  0.2940  0.3338
    1W        W58407  27.925   3.854   9.985 -0.0294 -0.0747 -0.2272
    1W        W58408  26.658  11.586   1.411 -0.4157  0.2707 -0.1745
    1W        W58409  22.006  13.854   1.867 -0.2910 -0.2099  0.0188
    1W        W58410  25.416   1.943   1.860 -0.0898  0.3019 -0.0932
    1W        W58411  23.264  22.981   9.974 -0.0241  0.1730  0.5757
    1W        W58412  27.328   1.815   0.705 -0.4764  0.1388 -0.3104
    1W        W58413   2.077  22.954   3.328  0.5288  0.1036  0.1119
    1W        W58414  12.649  16.698   0.743  0.0575  0.5202 -0.0001
    1W        W58415   0.609  22.956   4.205  0.1785 -0.2310 -0.2465
    1W        W58416  22.480  13.204   6.868  0.0929 -0.1176 -0.2113
    1W        W58417   1.796  28.278   9.778 -0.1398  0.2173 -0.0970
    1W        W58418  10.259   0.427   8.132 -0.1757 -0.0561 -0.0781
    1W        W58419   5.593   0.874   8.094 -0.3389  0.1942 -0.1152
    1W        W58420  14.961  13.818   9.969  0.0103 -0.2400 -0.4515
    1W        W58421  26.961  11.800   9.207 -0.1673 -0.1067 -0.0170
    1W        W58422  28.148  22.357   4.210  0.0447  0.4302  0.1527
    1W        W58423  25.575  12.368   6.646 -0.2260  0.0098 -0.0563
    1W        W58424  14.251   5.633   0.358  0.1767 -0.2078  0.0131
    1W        W58425  23.015   8.373   9.524 -0.0758  0.5530  0.2020
    1W        W58426  18.099  15.393   7.765 -0.0841  0.1431 -0.1635
    1W        W58427   0.995   7.096   7.628 -0.2726 -0.2273 -0.0152
    1W        W58428   5.509  28.269   2.999  0.0522  0.1686 -0.3340
    1W        W58429   2.771  23.149   1.101  0.1148  0.1127 -0.0654
    1W        W58430  21.688   5.534   1.078 -0.0828  0.2156  0.1735
    1W        W58431  25.484   7.842   8.167  0.2836  0.3465 -0.1810
    1W        W58432   2.163  16.440   1.712  0.0196  0.1031  0.3263
    1W        W58433   9.573  10.678   8.949  0.1668  0.2227 -0.0820
    1W        W58434  11.070  19.796   0.136  0.3238  0.5080  0.4897
    1W        W58435  22.693  10.037   2.196  0.3246 -0.0295 -0.0797
    1W        W58436   0.204  23.954   0.426  0.0825 -0.1416  0.0501
    1W        W58437  15.048  12.599   8.224 -0.0504  0.1082  0.1319
    1W        W58438  26.142  17.017   9.880  0.1627  0.1047 -0.1972
    1W        W58439  28.592   5.117   8.381 -0.3279  0.1009 -0.0002
    1W        W58440  13.085  18.295   1.683  0.4663 -0.2532 -0.0488
    1W        W58441   5.887  13.831   1.365 -0.1172 -0.2761  0.1050
    1W        W58442   5.454   0.220   2.506 -0.1077 -0.2807 -0.0624
    1W        W58443   5.540  11.015   7.260  0.0225 -0.1261  0.1092
    1W        W58444  21.806  21.659   0.485 -0.0589 -0.1214  0.0484
    1W        W58445  16.178  26.091   7.535 -0.0046 -0.0582 -0.0749
    1W        W58446   1.422  20.564   1.390  0.3766  0.0810 -0.2124
    1W        W58447  20.407  15.548   6.876  0.1282 -0.0390  0.0873
    1W        W58448  23.154  11.517   2.443  0.3489 -0.1070 -0.1940
    1W        W58449   7.099  14.010   8.854  0.1559 -0.2980 -0.1539
    1W        W58450  20.165   7.323   0.870 -0.4224 -0.0702 -0.3502
    1W        W58451  19.466  28.670   0.204  0.1141  0.0131 -0.0169
    1W        W58452  13.846   9.418   9.676 -0.4168  0.0070  0.0462
    1W        W58453  24.062   1.976   0.634 -0.3281  0.0287 -0.0980
    1W        W58454  12.748   4.302   0.211 -0.4006  0.1889 -0.3231
    1W        W58455   4.027  11.506   2.047  0.2455  0.0859  0.0624
    1W        W58456  24.424  14.806   0.325  0.0697 -0.2657 -0.3459
    1W        W58457  23.077   5.324   8.294 -0.2791  0.2184 -0.0400
    1W        W58458  25.128  15.516   1.926  0.1285  0.1392  0.1688
    1W        W58459   7.496  18.345   0.245  0.1586  0.0798  0.0610
    1W        W58460  26.245  17.496   8.484  0.2732  0.4240  0.0293
    1W        W58461  13.645  15.544   0.699  0.2681 -0.0049 -0.1071
    1W        W58462  22.469   0.858   2.328 -0.1981 -0.1165 -0.2207
    1W        W58463  23.410  19.045   7.221  0.2746 -0.1789 -0.1351
    1W        W58464  17.634  13.220   1.637  0.0683 -0.0264 -0.1422
    1W        W58465  14.683  24.835   2.608  0.0720 -0.0103 -0.0439
    1W        W58466  21.464  23.408   1.064  0.2248 -0.2292 -0.2054
    1W        W58467  17.375  22.917   3.270 -0.1656  0.0502  0.1009
    1W        W58468  17.860   8.531   7.130 -0.2601 -0.0835  0.0525
    1W        W58469  27.487  18.952   2.241  0.0996  0.3077  0.0676
    1W        W58470  15.136  16.051   1.728 -0.2958 -0.1314 -0.0857
    1W        W58471  17.375  15.324   1.618 -0.2122 -0.1816  0.0522
    1W        W58472  20.361  17.005   9.772 -0.2728  0.0777  0.0775
    1W        W58473  14.275  24.735   9.824 -0.3692 -0.0388 -0.2512
    1W        W58474  20.167   5.467   0.892  0.1657 -0.2245 -0.3256
    1W        W58475   0.967   9.488   3.483  0.2135  0.0913 -0.1494
    1W        W58476  17.451   9.557   7.014  0.2992 -0.0863  0.2369
    1W        W58477  26.573   6.655   9.520  0.0773  0.1519 -0.2717
    1W        W58478  21.002   1.992   2.127 -0.1602  0.0221 -0.3000
    1W        W58479   6.618   7.406   9.649 -0.0230  0.0076 -0.2086
    1W        W58480  21.061  19.717   8.360 -0.1137  0.1101  0.0065
    1W        W58481  17.553   5.711   5.550 -0.2346 -0.2075 -0.0281
    1W        W58482   9.821  15.955   8.626  0.0231 -0.0888  0.1089
    1W        W58483  17.016  25.350   7.327  0.1921 -0.0621  0.3728
    1W        W58484  19.297  25.787   8.558 -0.1058  0.0311  0.1138
    1W        W58485   7.094  20.904   8.190 -0.1905 -0.1443 -0.2006
    1W        W58486  28.561  28.060   3.609  0.0724 -0.0447 -0.0341
    1W        W58487   0.717  17.565   8.891 -0.3422  0.0226 -0.1273
    1W        W58488   4.716   0.612   9.597  0.0111  0.2871  0.1036
    1W        W58489  12.628   6.921   1.253 -0.1512 -0.0064 -0.1161
    1W        W58490  15.804  20.736   3.048  0.0383 -0.1293 -0.2505
    1W        W58491  13.168  21.715   2.955 -0.1753  0.2658 -0.2209
    1W        W58492  27.159  14.579   1.150 -0.1569 -0.0618 -0.1295
    1W        W58493  15.650  24.844   2.827 -0.3445  0.3157 -0.0418
    1W        W58494  14.670   9.891   6.917  0.1888 -0.2573  0.0415
    1W        W58495   1.035  24.515   1.298 -0.0218 -0.0765 -0.0090
    1W        W58496   2.446  14.339   7.673  0.3012  0.1087  0.1407
    1W        W58497   4.890  23.998   8.830 -0.0194 -0.0608  0.0294
    1W        W58498  19.902   9.048   7.235  0.2275  0.1014  0.0418
    1W        W58499  11.248  12.349   6.029  0.0759  0.1754 -0.2809
    1W        W58500  10.646  25.451   1.200  0.0155  0.0470 -0.0838
    1W        W58501   1.066  14.565   9.489 -0.0437  0.0385 -0.4096
    1W        W58502   6.108  18.588   8.046  0.1300 -0.0502 -0.3331
    1W        W58503   8.791  26.922   3.199  0.2550  0.0879 -0.2925
    1W        W58504   4.266  18.174   9.811 -0.0727 -0.2175 -0.0839
    1W        W58505  11.229  20.130   8.655  0.0046  0.0894  0.2330
    1W        W58506  26.398  18.948   9.943 -0.0072  0.0943  0.2948
    1W        W58507  11.756  22.272   1.931  0.2679 -0.3750 -0.2942
    1W        W58508   6.568  16.095   1.230  0.1450 -0.2185 -0.1699
    1W        W58509  25.747   5.935   9.516 -0.4418  0.0884 -0.1266
    1W        W58510   7.263   1.512   0.626 -0.0057  0.1833 -0.0814
    1W        W58511  24.626   7.132   2.941 -0.0689 -0.0730  0.0583
    1W        W58512  17.583  25.829   9.946  0.1051 -0.2205  0.1617
    1W        W58513  11.134  28.399   2.608  0.1172 -0.0243 -0.0552
    1W        W58514  22.934  12.897   9.666  0.0079 -0.0523 -0.1869
    1W        W58515  17.091  11.063   6.581  0.2611  0.0744 -0.1664
    1W        W58516   1.944  25.750   0.265 -0.0238 -0.1446  0.0282
    1W        W58517  17.401  11.339   9.822  0.1316 -0.0175 -0.1337
    1W        W58518   9.847  21.461   9.661 -0.2305  0.0952 -0.0006
    1W        W58519  25.228  12.100   0.420 -0.2401 -0.0728  0.1204
    1W        W58520   3.008   4.258   8.598 -0.0430 -0.1185 -0.1476
    1W        W58521   5.823  14.036   2.031 -0.3734 -0.0102 -0.0515
    1W        W58522  27.122   9.993   0.381  0.2002 -0.1152 -0.2850
    1W        W58523   1.735   3.422   9.784  0.0175  0.1350 -0.1966
    1W        W58524   4.164  13.606   0.424  0.4217  0.0321  0.0238
    1W        W58525  10.715   9.841   7.170  0.0301  0.4374  0.2355
    1W        W58526  24.395  13.159   3.131  0.0335  0.1434  0.0729
    1W        W58527  27.308   2.916   1.674  0.3539  0.1034  0.0394
    1W        W58528  21.127  14.364   7.751  0.0303 -0.2271  0.1288
    1W        W58529   7.532  14.313   9.077 -0.0078 -0.0857  0.0648
    1W        W58530  27.960   2.743   3.728 -0.0148  0.1247  0.0675
    1W        W58531  13.626  22.002   2.107 -0.0200 -0.3161  0.0679
    1W        W58532  19.317   7.275   8.402  0.3948  0.1327  0.0500
    1W        W58533  23.822   7.312   0.665 -0.0406  0.2778 -0.0424
    1W        W58534  22.767  11.794   9.852  0.2626  0.1321 -0.0284
    1W        W58535  19.503  12.206   0.930 -0.1105  0.1820 -0.1950
    1W        W58536  22.104  18.006   7.182 -0.0023 -0.1987 -0.2940
    1W        W58537   5.146   5.802   1.554 -0.3113 -0.0746  0.0800
    1W        W58538  25.273  21.246   0.640  0.0271  0.1045  0.1806
    1W        W58539   3.856   3.690   2.792 -0.4591 -0.0064 -0.1222
    1W        W58540   1.072  18.491   2.889 -0.2229 -0.1043 -0.2295
    1W        W58541  27.266  11.754   2.676 -0.2883 -0.0319 -0.1755
    1W        W58542  16.649  13.236   8.777 -0.1280 -0.0689  0.0019
    1W        W58543  14.249  15.445   7.217  0.0087 -0.2615 -0.3309
    1W        W58544   1.935  13.724   2.112 -0.1134 -0.0906 -0.3559
    1W        W58545  14.136  21.206   0.897 -0.0432 -0.1113  0.1659
    1W        W58546  25.753  18.599   2.378 -0.0644  0.2462  0.2125
    1W        W58547  19.834  27.642   0.910  0.2752  0.3126  0.0184
    1W        W58548  10.786  23.836   3.180  0.0884 -0.2418  0.1203
    1W        W58549  14.192  28.253   8.368  0.1520 -0.1412 -0.0340
    1W        W58550  27.659   9.207   2.673  0.5023 -0.3143  0.0625
    1W        W58551   5.569  18.830   7.832 -0.4593 -0.2069  0.0149
    1W        W58552   0.925   9.638   9.521 -0.2619 -0.0289 -0.0094
    1W        W58553  23.217  22.559   9.004  0.0290 -0.1103  0.2523
    1W        W58554  23.526  28.571   2.848 -0.0860  0.0571  0.4139
    1W        W58555  18.366  17.602   7.405 -0.1861 -0.0420  0.1929
    1W        W58556  15.933   9.564   1.217  0.0587 -0.3039  0.0120
    1W        W58557  26.279  19.736   8.119 -0.1992 -0.2976 -0.0518
    1W        W58558   8.655   0.907   0.683  0.0831 -0.2681 -0.0313
    1W        W58559   5.680   1.933   0.930 -0.0032  0.1078  0.1838
    1W        W58560  16.628  22.883   8.961 -0.1912 -0.1727 -0.2786
    1W        W58561   2.123  15.825   1.783 -0.0238  0.2063  0.1567
    1W        W58562  18.466  14.127   7.014  0.0190 -0.1034 -0.2570
    1W        W58563  15.671  21.903   7.311  0.1069  0.1736 -0.2516
    1W        W58564  15.681  13.948   1.546 -0.0120  0.2859  0.0774
    1W        W58565  22.627  24.000   8.112  0.2725  0.0889 -0.1124
    1W        W58566  26.009   4.306   8.935 -0.1165  0.0832 -0.3183
    1W        W58567   1.759  20.149   8.800 -0.0386 -0.2949 -0.0925
    1W        W58568  14.069  12.750   6.506 -0.1082 -0.1524 -0.0781
    1W        W58569  12.124  10.733   7.337 -0.3737  0.2101  0.1010
    1W        W58570  24.030  13.599   7.809  0.0612 -0.0089  0.0929
    1W        W58571   4.632   8.582   0.842  0.2041  0.0456 -0.1991
    1W        W58572  16.798   2.871   8.478  0.1768  0.1444  0.0200
    1W        W58573  10.349   9.645   1.460 -0.0569 -0.1058 -0.1663
    1W        W58574  27.597   2.413   1.954 -0.0345  0.0178 -0.1900
    1W        W58575  19.360   0.396   2.155 -0.2199 -0.0186 -0.1344
    1W        W58576  21.483  24.885   3.108 -0.0116  0.0154 -0.2841
    1W        W58577  27.783   0.428   7.923 -0.3851  0.0851  0.1670
    1W        W58578  13.249  22.637   1.567  0.1306 -0.2183  0.0652
    1W        W58579   1.033   3.541   0.428 -0.1258  0.3445 -0.0904
    1W        W58580  17.313  11.561   2.071  0.0263  0.4040  0.3102
    1W        W58581   1.327  19.361   8.279  0.1703 -0.3288 -0.0649
    1W        W58582  25.800  14.882   2.480  0.1798 -0.2380  0.1539
    1W        W58583  28.376  19.443   2.030  0.1560 -0.2027 -0.3463
    1W        W58584  15.014  23.286   2.233 -0.1034  0.2081 -0.1276
    1W        W58585   6.186  28.657   2.164 -0.2641  0.1785 -0.0017
    1W        W58586   7.544  25.928   2.849 -0.2083  0.1479 -0.1277
    1W        W58587   5.177  23.508   2.660 -0.0503 -0.1319 -0.0966
    1W        W58588  23.311  12.333   8.729 -0.1453 -0.0088 -0.2534
    1W        W58589   3.763  13.703   3.357 -0.0251  0.3516 -0.2044
    1W        W58590   0.992   1.395   0.854  0.0563 -0.1071 -0.1394
    1W        W58591  27.938  19.449   8.006 -0.1691 -0.0326  0.5157
    1W        W58592  19.394   8.912   6.878  0.1766 -0.0368  0.0665
    1W        W58593   7.924  17.565   9.471  0.0429 -0.0286  0.0441
    1W        W58594  24.433   5.750   1.441  0.0475  0.1113  0.0932
    1W        W58595   3.726  27.514   1.763 -0.2188 -0.3920 -0.0611
    1W        W58596   1.764  16.663   0.139 -0.2664 -0.0808 -0.0363
    1W        W58597  10.836  19.790   2.015  0.0336 -0.0824 -0.2867
    1W        W58598   5.799  24.377   9.656 -0.0552 -0.3082 -0.0285
    1W        W58599  13.712  14.988   0.850 -0.3477 -0.0523 -0.2056
    1W        W58600  14.163  23.616   2.337  0.2823  0.0244 -0.2981
    1W        W58601   0.643  16.191   7.823  0.0371 -0.1235 -0.0061
    1W        W58602  17.839  27.423   8.208  0.0111 -0.2019  0.2257
    1W        W58603  10.796  21.328   9.938  0.0680  0.1761  0.0749
    1W        W58604   0.545   3.562   9.494  0.1677 -0.1719 -0.0873
    1W        W58605   3.469   6.376   3.149  0.1717 -0.4196  0.0171
    1W        W58606  19.917  10.402   1.742  0.1117  0.1063  0.1608
    1W        W58607   8.522  18.778   1.837  0.0448  0.0157 -0.0614
    1W        W58608   9.768  28.057   0.084  0.0553 -0.1184  0.0540
    1W        W58609  17.138  23.092   8.532 -0.0334  0.2025 -0.3313
    1W        W58610   1.535  20.991   1.151  0.0630 -0.4505 -0.2018
    1W        W58611  14.125   9.851   9.590 -0.1291 -0.0979 -0.0890
    1W        W58612   0.860  22.653   9.264 -0.1950  0.0540  0.1580
    1W        W58613   2.241  23.572   8.017  0.0951 -0.0482 -0.0422
    1W        W58614   0.621  26.149   3.377  0.1298 -0.1837 -0.3927
    1W        W58615   0.558  11.769   8.978  0.1126 -0.0950  0.1864
    1W        W58616   2.630  11.040   1.688  0.0211  0.2302 -0.0422
    1W        W58617  22.586  16.706   9.397  0.0059 -0.0946 -0.1431
    1W        W58618   5.060  23.322   1.009 -0.5507 -0.1926  0.0931
    1W        W58619  16.608   5.755   9.257 -0.2140 -0.0178 -0.0047
    1W        W58620  12.316   8.151   7.317  0.0129 -0.0473 -0.1822
    1W        W58621  17.568  11.853   9.495  0.3498  0.0280 -0.1170
    1W        W58622   7.795  25.566   1.116 -0.2357  0.2808  0.0976
    1W        W58623   3.164   5.571   3.939 -0.0139 -0.0848 -0.3595
    1W        W58624   3.822  16.890   8.339  0.1112 -0.1431 -0.1989
    1W        W58625   5.310  18.113   1.329  0.5247 -0.0653  0.0880
    1W        W58626  22.082  28.819   9.879  0.2220 -0.1016 -0.2915
    1W        W58627   4.768  16.117   8.488  0.2105  0.1653 -0.2890
    1W        W58628  27.098  11.249   6.949  0.0312 -0.0537  0.1754
    1W        W58629   3.596  27.368   8.886  0.0903  0.1421 -0.1360
    1W        W58630   2.292  11.974   9.961  0.0827 -0.0582  0.1241
    1W        W58631  28.019   8.022   8.340 -0.1994  0.1777  0.0813
    1W        W58632   7.367  20.321   9.948  0.1194 -0.0340 -0.2380
    1W        W58633  10.928  15.315   9.701 -0.1665  0.2182 -0.0391
    1W        W58634  10.992   8.785   8.798  0.2328  0.1851 -0.1678
    1W        W58635   9.024  24.535   0.156  0.1472 -0.5894  0.3464
    1W        W58636  27.114  22.903   7.448  0.0834  0.1207  0.1243
    1W        W58637  22.280  22.764   9.371  0.2383 -0.3933 -0.0849
    1W        W58638  19.375  10.110   5.685 -0.1460 -0.0784  0.1075
    1W        W58639  11.509  19.422   9.100 -0.0910  0.1614  0.0025
    1W        W58640   3.725  25.519   3.873  0.2461  0.0931  0.0634
    1W        W58641   3.275  13.574   0.716  0.1153  0.1093 -0.1932
    1W        W58642   0.357  23.584   7.565 -0.1911  0.1879  0.3632
    1W        W58643   6.827   7.654   0.999 -0.0718 -0.0316 -0.1970
    1W        W58644   4.593   3.560   8.808 -0.1664  0.4262  0.2318
    1W        W58645  26.744  21.367   1.033 -0.2415 -0.1543 -0.0455
    1W        W58646  23.881  27.849   2.260  0.0607 -0.1699 -0.0739
    1W        W58647  28.275   2.272   7.942 -0.0710  0.1823 -0.1226
    1W        W58648  19.080   3.820   1.067  0.0817  0.1803  0.1733
    1W        W58649  27.788  22.308   2.513 -0.1247 -0.1965 -0.2293
    1W        W58650   0.635   7.232   8.890 -0.0055 -0.2527 -0.1509
    1W        W58651  15.107  25.948   8.816 -0.3082 -0.1191 -0.1892
    1W        W58652  24.274  10.278   0.231 -0.0832  0.3193 -0.1475
    1W        W58653   6.813   4.849   1.471  0.0373  0.0594 -0.1365
    1W        W58654  22.273  25.544   0.810  0.1450  0.5381 -0.1059
    1W        W58655  14.624  19.508   7.191 -0.1059  0.0499 -0.0127
    1W        W58656  24.834   4.719   8.532  0.1784 -0.2269 -0.1246
    1W        W58657   0.577  10.712   1.247  0.0002 -0.1860  0.1858
    1W        W58658  28.757   3.875   0.936 -0.0220 -0.1590  0.0210
    1W        W58659  15.028   6.272   9.551 -0.3390 -0.0670  0.2631
    1W        W58660  13.392   7.533   5.948  0.1657 -0.1050  0.1368
    1W        W58661  12.610  15.868   0.697 -0.0273 -0.0003 -0.1629
    1W        W58662  15.568  26.164   0.134  0.0040 -0.4216  0.4448
    1W        W58663   4.191  21.358   1.756  0.2388  0.2004  0.2140
    1W        W58664  21.277   7.628   6.680 -0.0106  0.0501  0.0742
    1W        W58665  27.756  16.529   2.874  0.0404  0.1723  0.0231
    1W        W58666   6.835  22.160   2.519 -0.2060 -0.1333  0.1260
    1W        W58667  24.433   8.367   2.030 -0.1967  0.1383  0.0994
    1W        W58668  19.935   5.591   6.384  0.0603 -0.0473 -0.0738
    1W        W58669  14.412  19.733   9.751  0.1129  0.2110 -0.1846
    1W        W58670  26.502   3.199   3.587 -0.2464  0.0183 -0.1852
    1W        W58671  24.121  12.940   6.997 -0.0843  0.0812 -0.0528
    1W        W58672  22.184   2.213   0.014 -0.0939 -0.1281  0.1632
    1W        W58673   4.433  13.900   8.619  0.0089 -0.0085  0.3331
    1W        W58674   3.732   2.244   3.459  0.0700 -0.1735  0.0403
    1W        W58675  10.552  18.186   8.405 -0.0375 -0.0883  0.1123
    1W        W58676  28.405  27.228   9.925 -0.0581 -0.1322 -0.1310
    1W        W58677  17.271  12.209   8.799  0.1499  0.2002  0.1542
    1W        W58678  22.288  12.494   2.917 -0.1775 -0.1379 -0.1939
    1W        W58679  12.180   3.724   7.547  0.1513 -0.0886 -0.1333
    1W        W58680  23.432   1.504   1.372  0.1708 -0.0444  0.1059
    1W        W58681  11.185   5.477   0.512  0.3077 -0.3772  0.0692
    1W        W58682  17.322  15.630   7.839  0.0431  0.1742 -0.3694
    1W        W58683  20.802   9.064   0.180  0.2239 -0.0128 -0.0237
    1W        W58684  15.207   4.495   8.732  0.4095  0.1173  0.0861
    1W        W58685  25.573  16.894   8.567 -0.1277  0.0700  0.0854
    1W        W58686   0.680  14.523   8.792  0.1703  0.1331  0.0397
    1W        W58687   6.978   5.582   7.982 -0.1416  0.2379  0.1890
    1W        W58688  14.363  22.578   9.149  0.0580 -0.3028  0.0028
    1W        W58689   0.129  24.102   1.669 -0.5539 -0.1842  0.0951
    1W        W58690  21.363  28.300   8.007 -0.1505  0.5094  0.2934
    1W        W58691   3.283  10.033   7.353  0.0081  0.3193 -0.1679
    1W        W58692  19.467  25.158   1.017 -0.0833 -0.0438  0.0262
    1W        W58693   1.208   6.133   0.445  0.1952 -0.1752  0.1127
    1W        W58694  22.066   2.584   0.349 -0.0222 -0.0523  0.0367
    1W        W58695   0.591  24.184   2.626 -0.0138  0.2933  0.0951
    1W        W58696   1.697  25.807   1.230 -0.0288 -0.1118  0.1450
    1W        W58697   6.962  10.539   9.663 -0.0329  0.0789  0.1089
    1W        W58698   5.044  19.821   2.082 -0.1434  0.2584 -0.1485
    1W        W58699   7.336  17.677   2.170  0.0843  0.0758 -0.0381
    1W        W58700  13.094  12.756   8.779  0.0248 -0.0109  0.2722
    1W        W58701  21.753  19.855   8.857 -0.2582  0.0986  0.0284
    1W        W58702  26.055  20.532   8.792 -0.0782  0.0464  0.1314
    1W        W58703   8.573   7.631  10.002  0.3320  0.1972 -0.2592
    1W        W58704   3.975  22.260   9.808  0.4174  0.0213  0.0405
    1W        W58705  22.256  10.407   7.288 -0.0056 -0.2621  0.1685
    1W        W58706  10.727   9.339   1.660  0.3388 -0.0628 -0.0410
    1W        W58707  25.633  15.500   8.851 -0.1067 -0.4084 -0.0777
    1W        W58708  14.412   9.898   0.067  0.0325  0.0584 -0.1042
    1W        W58709   6.783   4.528   9.582 -0.0470  0.1999 -0.0067
    1W        W58710   2.277  13.921   9.997 -0.0901  0.1715  0.1277
    1W        W58711   3.462  27.787   8.585  0.0416  0.0309 -0.1334
    1W        W58712   1.925  23.917   7.685 -0.0882  0.2558  0.1847
    1W        W58713  13.040  11.328   1.391  0.0792 -0.0337  0.1502
    1W        W58714  25.094   4.239   8.558  0.2142  0.2368  0.0687
    1W        W58715   8.336  25.669   2.796 -0.0162 -0.1320 -0.0413
    1W        W58716  23.861   2.829   0.293 -0.1459  0.2159  0.1062
    1W        W58717  13.741  21.044   0.540  0.2811 -0.2903 -0.0549
    1W        W58718   5.669   3.090   9.297  0.0663 -0.0179 -0.1204
    1W        W58719  12.885   5.442   7.686  0.2248  0.1334  0.1050
    1W        W58720   4.043   2.476   1.514  0.0723 -0.1501 -0.2369
    1W        W58721  22.802   9.102   1.438 -0.0188 -0.1862  0.2469
    1W        W58722  21.125   5.327   2.070  0.0075  0.0039  0.0511
    1W        W58723   3.921   7.801   1.473 -0.2496  0.0106  0.0487
    1W        W58724   8.622  21.845   0.114  0.0021 -0.2015 -0.0759
    1W        W58725  18.040  16.470   8.462  0.1113  0.4229  0.1613
    1W        W58726  14.733  20.809   9.554  0.0182 -0.1268 -0.1209
    1W        W58727  24.026  13.248   7.456 -0.1246 -0.4571 -0.1800
    1W        W58728  22.026  16.143   9.793  0.0722 -0.3330 -0.4192
    1W        W58729  10.272   5.270   9.434  0.1671  0.2377  0.0601
    1W        W58730  14.541   3.955   8.634 -0.1253  0.2297 -0.1203
    1W        W58731  15.580   1.654   7.712  0.0352  0.0057 -0.0502
    1W        W58732  11.154  23.200   8.449 -0.1410 -0.1183  0.0021
    1W        W58733   8.379  21.026   8.143 -0.1079 -0.2751  0.1967
    1W        W58734  15.637  23.636   2.529 -0.1601  0.1088 -0.0074
    1W        W58735  22.324  16.975   6.977  0.1380 -0.1514  0.1063
    1W        W58736   8.013  21.318   8.001 -0.0980  0.0358  0.0413
    1W        W58737   3.020  16.463   9.627  0.0066 -0.0764  0.2355
    1W        W58738  23.166   5.795   9.952 -0.3807 -0.0985  0.1112
    1W        W58739  20.097  24.811   0.230  0.2499  0.4122  0.0281
    1W        W58740   7.989  18.951   8.048 -0.1675 -0.1267 -0.0306
    1W        W58741   2.815  19.652   8.967 -0.1583 -0.1014 -0.2590
    1W        W58742  27.495  15.475   3.279 -0.0498  0.0821  0.0338
    1W        W58743  18.668   3.720   1.369 -0.1154  0.0922  0.2402
    1W        W58744   5.398  28.243   9.750 -0.0595  0.0745  0.3112
    1W        W58745  19.942   3.430   9.331 -0.1662  0.2858 -0.0685
    1W        W58746  10.777  15.212   1.308  0.2327 -0.2242  0.1481
    1W        W58747   8.725  18.210   9.655 -0.2473  0.0918  0.2389
    1W        W58748   9.259  26.941   3.234 -0.5056 -0.2667 -0.1988
    1W        W58749  12.099  17.053   9.910  0.2920 -0.0827 -0.0489
    1W        W58750  14.584  18.923   2.517  0.1262  0.1801 -0.2415
    1W        W58751   8.860  20.095   6.606  0.1421 -0.1708  0.0681
    1W        W58752  13.664  10.453   8.478  0.1051  0.2076  0.0374
    1W        W58753  10.974   6.734   6.589  0.2878  0.1076  0.1240
    1W        W58754   9.314  25.152   8.223 -0.1209 -0.3406  0.1758
    1W        W58755  11.247  16.130   1.899  0.4840  0.1114  0.0904
    1W        W58756   1.178  18.924   8.508  0.1125 -0.0177  0.1500
    1W        W58757  11.689   0.472   8.077  0.0835 -0.2790 -0.1053
    1W        W58758  15.998  13.660   2.353  0.0915  0.4566 -0.2478
    1W        W58759  26.610  22.572   7.652 -0.2041 -0.0234 -0.0629
    1W        W58760   6.279  16.189   9.787 -0.0111 -0.0502  0.1588
    1W        W58761  21.597   5.415   2.859  0.1319  0.0753 -0.0423
    1W        W58762  24.550  22.222   9.821 -0.2472  0.0876 -0.1127
    1W        W58763  12.845  11.198   9.067 -0.1838 -0.0611 -0.0445
    1W        W58764  19.316  27.901   1.681  0.3281  0.0959 -0.3503
    1W        W58765   3.121   9.745   8.446 -0.0750 -0.1485  0.0137
    1W        W58766   2.921   3.575   2.365  0.2826  0.1724 -0.2423
    1W        W58767  11.382  17.888   9.767 -0.2249  0.1480  0.3025
    1W        W58768  10.538  26.524   7.442  0.2314 -0.1282 -0.2613
    1W        W58769  22.693  21.847   9.012  0.1659 -0.0887 -0.2958
    1W        W58770  10.923  10.957   0.923 -0.0125  0.1774  0.2643
    1W        W58771  26.911  20.208   9.828 -0.0028 -0.0460 -0.0666
    1W        W58772  10.423  28.128   2.734 -0.3307 -0.0610  0.1343
    1W        W58773   3.533  23.672   1.854 -0.0669 -0.2541 -0.1347
    1W        W58774  20.534   9.499   7.886 -0.0621 -0.1163  0.1704
    1W        W58775  15.789   8.597   6.656 -0.2222 -0.0732 -0.2885
    1W        W58776  22.374  27.124   0.776  0.0417 -0.0743 -0.0651
    1W        W58777   5.888   7.841   6.884  0.0892 -0.0930 -0.0880
    1W        W58778  19.501  13.425   7.493  0.2321 -0.1258 -0.0880
    1W        W58779  28.045   4.874   0.957 -0.3338 -0.1792  0.1696
    1W        W58780  14.398  21.887   3.215  0.1317 -0.1490 -0.1166
    1W        W58781  22.098  26.937   9.648  0.1252 -0.4282 -0.1212
    1W        W58782  21.614  13.302   8.120 -0.2564  0.0501  0.0677
    1W        W58783  11.469  19.960   9.075 -0.1494 -0.1817  0.3163
    1W        W58784   1.283  17.323   9.615  0.0434  0.1671 -0.0198
    1W        W58785  15.012   9.897   7.288  0.0761 -0.1859 -0.0820
    1W        W58786   5.157  27.395   2.095 -0.0206  0.1969 -0.1355
    1W        W58787  23.142  14.750   1.311 -0.2158  0.2525 -0.0564
    1W        W58788  22.423   3.360   0.384  0.1560  0.1257  0.0795
    1W        W58789   5.659   8.170   9.086  0.0109  0.2992  0.4410
    1W        W58790  10.787   9.567   8.192  0.0556  0.3382 -0.1042
    1W        W58791   0.273  20.754   2.483  0.0221  0.3460  0.0832
    1W        W58792  20.471  27.608   1.007  0.0746 -0.1043  0.2077
    1W        W58793  17.439  20.382   2.184 -0.1416  0.1354 -0.1808
    1W        W58794   2.380  14.464   9.730  0.1883  0.1725  0.0192
    1W        W58795  14.738  10.314   0.791 -0.0451 -0.2002  0.2809
    1W        W58796  27.405  11.463   2.075 -0.1455  0.1702 -0.3289
    1W        W58797   5.008  25.068   3.160 -0.0627 -0.1220 -0.0445
    1W        W58798   8.602  14.448   0.144 -0.1723 -0.1156 -0.3092
    1W        W58799  17.199  24.215   6.538  0.1010 -0.2403 -0.1750
    1W        W58800  24.972   7.221   1.444 -0.4168 -0.1629  0.2156
    1W        W58801   3.461  15.527   9.614 -0.0395  0.2471  0.0147
    1W        W58802   4.014   5.958   3.915  0.0595  0.2215 -0.0572
    1W        W58803   8.783  20.587   9.555  0.1021  0.1450 -0.0835
    1W        W58804   2.196  26.558   3.470 -0.0938 -0.1422 -0.0436
    1W        W58805   0.318  17.376   1.965  0.0850  0.1902 -0.1026
    1W        W58806  13.655  23.884   2.201  0.1067  0.1472  0.1974
    1W        W58807  26.291  13.510   9.600  0.0076  0.1857  0.2401
    1W        W58808   2.604   1.891   8.538 -0.0464  0.0747 -0.0205
    1W        W58809  16.044  23.314   1.232 -0.2363 -0.0481 -0.0687
    1W        W58810  18.116   3.417   9.910  0.1474  0.1024 -0.2231
    1W        W58811  16.729  25.258   1.679  0.0462 -0.0632  0.0040
    1W        W58812  19.657   2.049   2.465  0.0063  0.1497 -0.1544
    1W        W58813  22.771  19.656   7.919 -0.0373 -0.2478  0.2156
    1W        W58814  18.168  27.101   8.576 -0.1416 -0.0643 -0.0716
    1W        W58815   6.408  12.245   0.905 -0.0550  0.3018  0.0412
    1W        W58816  12.825  13.610   0.436  0.1991 -0.1454  0.4852
    1W        W58817  27.723  11.462   2.578  0.0639  0.0210 -0.0917
    1W        W58818  15.138   4.814   9.977 -0.0197  0.0227 -0.0321
    1W        W58819   2.250  26.164   0.441 -0.2489  0.0806  0.1346
    1W        W58820   9.694  12.757   8.434 -0.0857  0.0713  0.1414
    1W        W58821  10.440  16.112   1.830 -0.0695 -0.1041 -0.0574
    1W        W58822  16.551  18.158   7.145 -0.1734  0.0739 -0.0501
    1W        W58823   6.747   8.159   9.441  0.1158 -0.3634 -0.4166
    1W        W58824  23.327   1.901   9.485  0.0250  0.0405  0.1154
    1W        W58825  18.786  18.280   7.264  0.0578  0.0008  0.2153
    1W        W58826  26.002   1.690   0.140  0.2277 -0.0842 -0.2900
    1W        W58827  16.681   0.630   8.467  0.2041 -0.2474 -0.0346
    1W        W58828  25.936  20.988   9.071  0.0419 -0.2065  0.0294
    1W        W58829  12.560  18.674   7.574  0.1724  0.0932  0.0672
    1W        W58830  13.411   0.758   6.995  0.1956  0.1207 -0.2922
    1W        W58831  14.300   6.006   8.823 -0.2698 -0.1658  0.0669
    1W        W58832  28.197  28.560   1.730  0.2124 -0.1386 -0.3886
    1W        W58833  26.156  28.303   0.067  0.0509 -0.0849  0.3049
    1W        W58834  14.214  19.336   8.454 -0.0642 -0.1106  0.1942
    1W        W58835   5.492   6.637   8.033 -0.0333 -0.2976 -0.4235
    1W        W58836   6.907   6.605   9.045 -0.0490 -0.1954  0.1047
    1W        W58837   5.751  25.749   0.765 -0.2321 -0.2223  0.2670
    1W        W58838   5.490  28.428   1.128  0.1204 -0.1056  0.3107
    1W        W58839  14.468  17.322   9.682  0.1306 -0.0608 -0.2040
    1W        W58840  11.236  17.576   1.625 -0.1734  0.1293 -0.3041
    1W        W58841   6.891   1.327   9.348 -0.0212  0.0451 -0.0459
    1W        W58842  17.859  25.298   7.383  0.1315  0.2530 -0.3535
    1W        W58843  19.914   5.513   9.431 -0.0737  0.2555 -0.1147
    1W        W58844  15.319   3.606   9.089  0.0365 -0.1157  0.0782
    1W        W58845   0.403  23.328   0.484 -0.1086  0.1550 -0.0015
    1W        W58846  21.284   2.495   2.092 -0.0864  0.0542 -0.1288
    1W        W58847  27.703  19.287   9.291 -0.0957 -0.2857  0.0132
    1W        W58848  14.070  13.575   6.905 -0.2488 -0.0795 -0.0882
    1W        W58849  10.963  25.427   9.398  0.1299  0.0390  0.0714
    1W        W58850   6.611   1.376   8.528  0.0529 -0.1418  0.0634
    1W        W58851  12.779  12.705   9.417 -0.1839  0.0274  0.2497
    1W        W58852  20.864   4.316   7.494 -0.2760  0.0533 -0.2727
    1W        W58853  11.594  23.833   8.131 -0.4135 -0.1334 -0.0243
    1W        W58854  11.046  25.920   0.711  0.1550  0.0838  0.1527
    1W        W58855   9.708  10.832   1.511 -0.0480 -0.0336  0.2274
    1W        W58856  19.114  23.903   7.827 -0.1426  0.0278  0.0490
    1W        W58857   3.058   0.907   2.223 -0.0753  0.3904  0.0938
    1W        W58858  21.648  27.627   8.850 -0.0622 -0.3296 -0.1669
    1W        W58859   3.106   9.418   1.188  0.0183 -0.1126  0.0329
    1W        W58860  25.050   9.357   7.825 -0.1193  0.0151  0.0000
    1W        W58861   6.245  19.387   7.234 -0.2546 -0.0935  0.0240
    1W        W58862  25.400  11.926   1.763 -0.0396  0.2899  0.0366
    1W        W58863   0.213   9.684   6.888  0.1397 -0.2636 -0.0964
    1W        W58864   8.616  16.457   0.213  0.0564 -0.0196 -0.0289
    1W        W58865  14.691  28.204   8.434  0.0768 -0.1776  0.2105
    1W        W58866   3.703  16.174   7.950 -0.0962  0.0476  0.1160
    1W        W58867  19.719  24.471   9.946 -0.1369 -0.0545 -0.0651
    1W        W58868  11.945  10.106   7.673 -0.1975  0.0835 -0.1252
    1W        W58869  17.812  26.521   0.729 -0.3141 -0.1533 -0.1108
    1W        W58870   0.442  26.176   9.215 -0.1151 -0.3526  0.1435
    1W        W58871   1.281   2.209   0.073  0.0854  0.0087 -0.2878
    1W        W58872   7.473   2.643   9.803  0.1639  0.4566  0.1216
    1W        W58873  26.099   2.277   0.105  0.0186 -0.1348  0.0447
    1W        W58874   3.791  10.620   1.274  0.1524 -0.2923  0.0958
    1W        W58875   8.321   7.130   1.875  0.1810  0.0228  0.0137
    1W        W58876   6.637  23.662   7.173  0.3357 -0.0270 -0.3113
    1W        W58877  13.688  19.126   1.360  0.1619  0.0137 -0.0163
    1W        W58878   6.412  11.890   7.745  0.1241  0.0512 -0.0712
    1W        W58879   1.530  26.800   2.486  0.0238  0.1251  0.0462
    1W        W58880   7.414  24.320   8.012  0.0312 -0.1258  0.0618
    1W        W58881   5.196   1.475   9.472 -0.0528  0.1573 -0.0344
    1W        W58882   7.713  14.654   6.938  0.2329  0.0963 -0.0377
    1W        W58883  18.135  22.407   8.640  0.1429 -0.0103  0.0615
    1W        W58884   8.625   6.812   6.573 -0.0059  0.0493  0.2118
    1W        W58885  23.304  24.396   2.727 -0.2160  0.0693 -0.1052
    1W        W58886  19.636   8.401   7.722  0.0575 -0.1116  0.0701
    1W        W58887  12.754  24.806   2.400 -0.1190 -0.0473 -0.0070
    1W        W58888  10.292  22.068   0.975 -0.0072 -0.0423  0.0846
    1W        W58889   4.800   5.619   3.251 -0.3264  0.0408  0.1917
    1W        W58890   9.767  10.488   0.714 -0.0048 -0.2217 -0.0914
    1W        W58891  15.165  13.247   1.792 -0.1516  0.0984  0.1731
    1W        W58892  10.434   0.594   0.264 -0.0630 -0.0639 -0.0058
    1W        W58893  23.241  19.129   9.059 -0.0997 -0.1329 -0.0520
    1W        W58894  23.865  21.887   0.533 -0.1803 -0.2929 -0.0686
    1W        W58895   4.500  16.795   1.474 -0.2624 -0.0004  0.0523
    1W        W58896   6.256  21.286   8.731  0.0747  0.1061  0.0557
    1W        W58897   0.142  25.233   0.336 -0.1295 -0.0602 -0.0556
    1W        W58898  11.678   1.328   1.519 -0.2322 -0.2056  0.1133
    1W        W58899  27.093   9.060   9.317  0.0555  0.1174 -0.0561
    1W        W58900  10.698  11.966   0.156  0.1496  0.2350 -0.1866
    1W        W58901  20.734   5.820   0.496  0.1145  0.1219  0.2952
    1W        W58902  24.902   9.253   8.823  0.2291  0.3375 -0.0495
    1W        W58903   0.410   1.375   8.435 -0.3795 -0.0230  0.1022
    1W        W58904  12.283   3.365   7.921  0.0833 -0.0469 -0.0564
    1W        W58905   3.147  27.079   3.320 -0.1002 -0.3888  0.3159
    1W        W58906   9.784  21.401   1.842  0.4370 -0.0344 -0.0026
    1W        W58907   9.220   4.914   1.722  0.1290 -0.0014  0.0273
    1W        W58908  17.630  13.740   9.868 -0.2088 -0.1196 -0.3601
    1W        W58909  12.401   7.023   8.099  0.2212  0.0497  0.3545
    1W        W58910  26.461  17.571   0.560  0.2414  0.0269  0.0230
    1W        W58911  18.720  23.058   7.691  0.0103  0.2640  0.1310
    1W        W58912   2.369  11.980   1.315 -0.1100 -0.0343 -0.3571
    1W        W58913  24.668  24.153   8.689 -0.1544  0.0112  0.0325
    1W        W58914  17.772   4.880   7.240  0.0627 -0.3057  0.2975
    1W        W58915  10.939  12.065   6.318  0.0411  0.0041  0.2396
    1W        W58916  25.258  13.171   1.068  0.0171  0.1384 -0.0973
    1W        W58917  16.414  25.087   9.086 -0.3599  0.0698 -0.0108
    1W        W58918  28.225   4.065   8.701 -0.2169 -0.2801  0.1509
    1W        W58919  22.047  14.800   2.040  0.1773 -0.0270  0.0469
    1W        W58920  14.525  20.408   1.647 -0.1990 -0.0125  0.0369
    1W        W58921  23.729  19.430   0.833 -0.1233  0.0248 -0.0498
    1W        W58922  28.438  26.328   4.379  0.2045 -0.1114  0.4093
    1W        W58923   5.147  18.494   0.996  0.1147  0.0663 -0.1930
    1W        W58924  17.524  15.034   9.702 -0.4529 -0.2752  0.0231
    1W        W58925  16.526   3.133   1.489  0.3275  0.2421  0.0321
    1W        W58926  27.213  18.205   0.773  0.3181  0.2320  0.3441
    1W        W58927  16.658   8.089   0.265 -0.0300 -0.1972  0.1445
    1W        W58928  18.012  27.782   1.551  0.1763 -0.0404 -0.0955
    1W        W58929  26.621  20.282   1.148  0.0466 -0.1658  0.0622
    1W        W58930   1.109  22.178   9.549  0.0630  0.1675  0.0075
    1W        W58931  13.286   7.630   1.312 -0.2678  0.3039 -0.1186
    1W        W58932   1.623  25.953   3.309  0.0335 -0.0261  0.2579
    1W        W58933   3.816  25.554   0.683  0.2619  0.0981  0.1856
    1W        W58934  28.624   3.298   8.701 -0.4398  0.0903  0.0974
    1W        W58935   7.524  14.927   9.746  0.1607  0.0388 -0.3849
    1W        W58936   7.060   3.299   8.971  0.1261 -0.0667  0.2720
    1W        W58937  15.983   4.783   1.667 -0.3532  0.0494  0.0073
    1W        W58938  23.084   0.563   9.696 -0.0957  0.1727 -0.0048
    1W        W58939   8.200  22.158   1.444 -0.0240 -0.1800 -0.1400
    1W        W58940  15.075  17.428   8.855  0.2574 -0.0057 -0.0752
    1W        W58941   4.606  21.625   8.496  0.0630  0.0572 -0.0446
    1W        W58942   5.846  14.775   1.881 -0.1440  0.1847  0.0783
    1W        W58943  20.900  24.715   0.484 -0.0640 -0.1697 -0.1535
    1W        W58944  27.190  22.648   1.501 -0.1451  0.3667 -0.1863
    1W        W58945  12.904  12.655   1.301  0.0805  0.6104  0.0716
    1W        W58946  22.324   8.299   7.454  0.2970  0.3083  0.1439
    1W        W58947   8.251  21.803   9.668  0.1648  0.0791 -0.1315
    1W        W58948   3.098   9.353   9.199 -0.3971  0.2216 -0.1859
    1W        W58949  26.256  20.890   8.519  0.0590 -0.1925  0.0409
    1W        W58950   4.689   6.048   1.713 -0.2918  0.0179  0.1429
    1W        W58951   4.242  13.094   9.438 -0.1637  0.1498 -0.1864
    1W        W58952  15.225  17.460   0.137 -0.1630  0.2118 -0.1127
    1W        W58953   6.988  27.789   1.669  0.2318  0.0910 -0.3565
    1W        W58954   1.112  24.463   8.410 -0.0358  0.0417  0.1655
    1W        W58955   2.478   8.763   9.250  0.0539 -0.0438  0.2912
    1W        W58956  14.998   1.728   6.571 -0.1695  0.1756  0.0841
    1W        W58957   3.627   3.825   8.064  0.0020 -0.1714 -0.2093
    1W        W58958   8.072  16.446   9.827 -0.1422  0.1260  0.0364
    1W        W58959  21.125   4.389   3.039  0.2731 -0.1214  0.0866
    1W        W58960   7.550  24.214   6.801 -0.2104  0.0855  0.3153
    1W        W58961  28.601  18.633   3.596  0.1535 -0.1030 -0.1070
    1W        W58962   0.803  15.758   2.884  0.0985  0.0286  0.2881
    1W        W58963   1.984  26.254   3.050 -0.1188  0.1132 -0.0600
    1W        W58964   8.329   8.330   7.232 -0.0794 -0.1372 -0.1264
    1W        W58965   6.534   5.669   0.579  0.0785 -0.2031  0.1463
    1W        W58966  28.454  15.297   7.976  0.1545 -0.2231  0.1516
    1W        W58967  19.945  20.330   2.736  0.1565  0.1151  0.0926
    1W        W58968  16.724   1.131   1.426 -0.2512 -0.0960 -0.0812
    1W        W58969   2.937  23.180   2.066  0.2328  0.0993  0.2673
    1W        W58970   5.927   4.520   8.448  0.0097  0.1862 -0.1271
    1W        W58971   9.689   8.772   9.414 -0.2530 -0.0684  0.1282
    1W        W58972  18.164  15.531   9.082  0.0474 -0.1160  0.2253
    1W        W58973  25.723  10.358   1.453  0.1283  0.1285 -0.1656
    1W        W58974  14.614   1.774   1.564 -0.2414  0.1447 -0.1089
    1W        W58975   8.782   3.643   0.818  0.2837  0.2262  0.1111
    1W        W58976   1.943  19.017   2.409 -0.1730 -0.0436  0.2413
    1W        W58977   4.633   0.597   8.619  0.0644 -0.1002  0.1898
    1W        W58978  22.218   2.960   8.950 -0.2826  0.1201 -0.3931
    1W        W58979  23.623  15.015   1.275  0.1666 -0.3852 -0.1332
    1W        W58980  26.386  14.524   4.146 -0.1895 -0.0357  0.0205
    1W        W58981  18.086  23.388   8.700 -0.1706 -0.0543 -0.1458
    1W        W58982  18.421   7.285   9.533  0.2173  0.1480  0.1027
    1W        W58983   3.507   0.555   8.713 -0.1507 -0.2690 -0.0670
    1W        W58984  12.665  19.609   9.994  0.0717 -0.1313 -0.2583
    1W        W58985   6.680   3.120   9.983 -0.1458  0.1434  0.2352
    1W        W58986   1.470  17.276   7.640 -0.0018  0.0477 -0.0751
    1W        W58987   8.304  17.969   8.152 -0.1728  0.1682  0.1212
    1W        W58988  27.293   1.137   9.613  0.3917  0.0118  0.1281
    1W        W58989  16.279  20.782   7.033  0.0206  0.0555 -0.1792
    1W        W58990  22.298  23.742   1.630 -0.3933 -0.0237 -0.0722
    1W        W58991   9.963   0.830   8.451 -0.0910 -0.1302  0.3138
    1W        W58992  16.653  10.805   1.106 -0.1494 -0.2029  0.0541
    1W        W58993  23.142  27.152   7.605  0.2453 -0.3454  0.1191
    1W        W58994  28.509  21.343   9.143  0.1525  0.2326  0.0014
    1W        W58995  23.990  18.568   3.186 -0.0102 -0.0999  0.1042
    1W        W58996   1.940   8.325   2.124 -0.3959  0.0229  0.0702
    1W        W58997   3.171  20.537   8.875 -0.0473 -0.2048  0.0150
    1W        W58998  21.233  19.118   2.475  0.1937 -0.4222  0.0553
    1W        W58999  24.203  28.229   7.245  0.0602 -0.3014  0.2284
    1W        W59000  23.395   3.919   1.774 -0.2347  0.1185 -0.3379
    1W        W59001  16.243   0.438   9.345 -0.0600  0.2754  0.2800
    1W        W59002  14.194  16.453   1.373  0.1484  0.0607 -0.1478
    1W        W59003  12.105  28.683   1.528 -0.0601  0.1940  0.3928
    1W        W59004   7.477  12.545   8.252 -0.1871 -0.1240  0.4182
    1W        W59005  14.128  15.142   6.785 -0.0089  0.1663 -0.2310
    1W        W59006  10.752   5.702   5.967  0.0645 -0.2160 -0.0467
    1W        W59007  27.336  25.217   9.574 -0.0374  0.0532  0.0807
    1W        W59008  12.518  27.720   1.929  0.1214 -0.0421  0.4116
    1W        W59009  10.534  22.561   8.529  0.2967  0.1127 -0.2111
    1W        W59010  26.444  24.133   9.300 -0.4020  0.0974  0.1486
    1W        W59011  24.526  12.241   1.771  0.3823  0.2474  0.0663
    1W        W59012  12.880  25.389   9.581 -0.0897  0.1332  0.1182
    1W        W59013  14.951  22.988   7.170  0.2911  0.0148 -0.3058
    1W        W59014   2.156   0.044   3.681  0.0382  0.0123  0.2386
    1W        W59015   1.265  27.761   0.191 -0.1309  0.0593  0.1763
    1W        W59016   3.133  25.821   7.612  0.3378 -0.0033 -0.1203
    1W        W59017  12.691   6.749   1.713  0.1395 -0.1446  0.1933
    1W        W59018   6.138   9.131   0.140 -0.2876 -0.3003  0.2044
    1W        W59019   8.143  18.116   9.548  0.0646  0.0449  0.2235
    1W        W59020  23.415  10.969   8.633 -0.1123 -0.0449 -0.0681
    1W        W59021   1.711   2.023   0.666  0.1682 -0.1595  0.1603
    1W        W59022  17.805   9.890   1.154 -0.1538 -0.0854  0.0434
    1W        W59023  13.686  19.535   2.271  0.1040  0.0267  0.0917
    1W        W59024   2.734   3.386   3.804 -0.1141  0.1048 -0.1413
    1W        W59025  28.517   8.691   8.802 -0.1305  0.1260  0.0621
    1W        W59026  20.609  15.273   3.093 -0.1074 -0.0435  0.2713
    1W        W59027  12.796  18.419   9.326  0.0961  0.2748  0.2589
    1W        W59028  24.888  23.222   3.170 -0.1814 -0.1692  0.3779
    1W        W59029  26.515   1.178   9.598  0.0421  0.1189 -0.0459
    1W        W59030  28.708  17.003   0.991  0.1706  0.2469  0.0691
    1W        W59031  11.386   9.326   1.028  0.0927 -0.0362 -0.1915
    1W        W59032  22.693  15.420   2.007  0.0782 -0.1874 -0.2798
    1W        W59033   2.606  13.072   7.703  0.0916 -0.0431 -0.3032
    1W        W59034  11.178  11.123   6.385 -0.2204  0.2490  0.1609
    1W        W59035  13.314   5.314   6.843 -0.0109 -0.2105 -0.1129
    1W        W59036  28.634   9.871   8.009  0.0775 -0.2149  0.0153
    1W        W59037   4.690  23.311   8.224  0.2258 -0.1730  0.0609
    1W        W59038   8.223  18.069   7.004  0.1167 -0.1349 -0.1696
    1W        W59039  19.721  25.227   2.579 -0.0886  0.2031  0.0870
    1W        W59040  24.703  16.688   8.801 -0.2453 -0.1225  0.3761
    1W        W59041  21.442  20.613   8.317 -0.1528  0.1244  0.2126
    1W        W59042  20.801   5.532   1.768  0.1885  0.1079 -0.1534
    1W        W59043  26.645   3.678   0.712 -0.0771 -0.0019  0.0961
    1W        W59044   7.680   1.535   8.656 -0.0630 -0.3517  0.1108
    1W        W59045  19.351   5.274   9.045 -0.0999 -0.2230 -0.0459
    1W        W59046  22.450  18.552   9.021  0.0696 -0.1031  0.2220
    1W        W59047   0.536  20.698   1.437 -0.1272  0.1323  0.2525
    1W        W59048  17.782  19.873   0.813 -0.4182  0.0262 -0.0940
    1W        W59049  11.248  10.891   8.137  0.0766 -0.3643 -0.0265
    1W        W59050   0.161   9.296   7.392  0.0566  0.2623 -0.1387
    1W        W59051  25.548   3.320   0.499 -0.0441  0.1299 -0.0951
    1W        W59052  26.858  11.650   8.714  0.2001 -0.1907 -0.1057
    1W        W59053  25.381  15.846   2.797 -0.0011  0.0945 -0.3026
    1W        W59054  24.778  10.822   6.608 -0.0589 -0.0541  0.2650
    1W        W59055  27.411  26.558   3.706 -0.0803  0.0181  0.1416
    1W        W59056   1.503   6.817   8.408 -0.0437 -0.2252  0.0627
    1W        W59057  18.130  11.767   9.225  0.2018  0.1492  0.0423
    1W        W59058  12.552  14.512   0.035  0.2160 -0.2027  0.0948
    1W        W59059  10.370   6.826   7.958 -0.2398 -0.1862 -0.0538
    1W        W59060   9.786   3.472   7.809  0.1442  0.3220 -0.2097
    1W        W59061  28.258  25.977   2.520  0.1666  0.2006 -0.1007
    1W        W59062  13.031   4.799   5.594  0.1350  0.1421  0.0124
    1W        W59063  27.758   7.575   0.001 -0.0700  0.0768 -0.2282
    1W        W59064  19.485   7.400   8.924 -0.0754 -0.2325  0.1854
    1W        W59065   4.432  15.650   1.933  0.2000  0.0255  0.1401
    1W        W59066  12.635  14.406   2.164  0.1462 -0.0994  0.3614
    1W        W59067   4.127   9.283   8.192  0.1689  0.0730  0.1228
    1W        W59068  16.161   3.100   8.012 -0.0481  0.2155 -0.0877
    1W        W59069   6.355   2.492   2.610 -0.0659 -0.0977  0.0857
    1W        W59070  25.944  16.425   1.047  0.2948 -0.0288 -0.4634
    1W        W59071  21.584   2.461   7.456  0.1028 -0.3761 -0.0807
    1W        W59072  27.307   7.447   8.751  0.1152 -0.2663 -0.3034
    1W        W59073  19.118   0.228   2.626 -0.1749  0.1410 -0.0686
    1W        W59074  18.449   6.748   7.711  0.0739  0.0574  0.1309
    1W        W59075   6.439   8.532   9.385 -0.0234 -0.0596 -0.2083
    1W        W59076  19.047  18.387   8.743 -0.0140 -0.1803 -0.0587
    1W        W59077  11.425  26.960   2.506 -0.0865  0.0883 -0.0960
    1W        W59078   0.455  25.456   2.756 -0.1254 -0.0068 -0.3352
    1W        W59079   8.505   2.260   8.977  0.1988 -0.0607  0.0030
    1W        W59080  24.897  12.768   7.897  0.2177 -0.1681  0.1385
    1W        W59081   3.131  22.455   3.167  0.1111  0.1654  0.0197
    1W        W59082  27.363   3.687   1.605 -0.1089  0.0200 -0.1494
    1W        W59083   9.610   6.011   7.724 -0.6075 -0.1621  0.0970
    1W        W59084   1.087   7.494   8.027 -0.1462 -0.1431 -0.0850
    1W        W59085   8.000  18.472   8.094  0.0805  0.0738  0.0978
    1W        W59086  18.415  27.326   0.570  0.0285 -0.3494  0.0078
    1W        W59087   8.911  23.215   8.292 -0.2023  0.1763 -0.1432
    1W        W59088  12.918   1.903   0.143 -0.2521  0.1365  0.0927
    1W        W59089   2.073  12.606   9.104 -0.3304 -0.1830  0.2025
    1W        W59090  11.566   7.882   6.723  0.3041  0.1789  0.0338
    1W        W59091  13.216  10.231   9.992  0.1240 -0.4457  0.1454
    1W        W59092  26.077   9.961   6.914  0.3467  0.1408 -0.1385
    1W        W59093  20.143   3.918   9.312  0.5186 -0.1035 -0.0657
    1W        W59094  18.596   2.175   9.285 -0.0920 -0.0982  0.0397
    1W        W59095  25.639  28.790   1.735 -0.2879  0.2153  0.0170
    1W        W59096   2.947  28.080   3.731 -0.2052  0.1211 -0.1040
    1W        W59097  19.023  18.507   1.836 -0.1114  0.2886  0.0371
    1W        W59098  25.907  23.110   8.406 -0.2276  0.2212 -0.1211
    1W        W59099  23.579  23.084   3.424 -0.0456  0.1333  0.0949
    1W        W59100   9.752  26.239   9.583 -0.1874 -0.0012  0.3202
    1W        W59101   2.930   8.404   7.839 -0.2009 -0.1534  0.0771
    1W        W59102   8.115   7.596   0.319 -0.0968  0.2422  0.0412
    1W        W59103  26.786  22.651   2.920  0.0497  0.1018  0.0588
    1W        W59104  22.772  20.683   1.094  0.1998 -0.0714  0.5008
    1W        W59105   8.177  20.824   0.954 -0.3853 -0.0648  0.0793
    1W        W59106  15.257  27.329   2.427  0.0231  0.1175 -0.2827
    1W        W59107   9.406  11.326   7.976 -0.1794 -0.1799 -0.2431
    1W        W59108   4.686  26.159   2.524 -0.0763 -0.3757 -0.0949
    1W        W59109   1.260  14.674   0.773 -0.1301  0.1837 -0.0156
    1W        W59110   6.717  19.808   7.934  0.2673 -0.1998  0.1653
    1W        W59111   2.142  24.937   1.155  0.0303 -0.1928 -0.0998
    1W        W59112   6.575   0.138   0.790 -0.1908  0.3688 -0.0878
    1W        W59113  11.564  14.859   9.533  0.0578 -0.1593 -0.0858
    1W        W59114   7.397   5.649   9.588  0.0167  0.0941 -0.0326
    1W        W59115   8.711   4.195   8.839  0.1146  0.2422 -0.0754
    1W        W59116   8.247  11.826   0.116  0.1751  0.0577 -0.0171
    1W        W59117  27.969   1.619   1.919  0.0698  0.1292  0.1719
    1W        W59118   2.672  14.975   2.767  0.0430 -0.3999 -0.2027
    1W        W59119  17.829  11.664   0.400  0.1325  0.0300 -0.1344
    1W        W59120  18.891  27.372   2.615 -0.2645 -0.1517 -0.2544
    1W        W59121  13.769  16.506   6.758 -0.0821 -0.1112 -0.2847
    1W        W59122   5.822  15.126   7.986 -0.1150  0.0628 -0.1613
    1W        W59123  12.439  12.768   2.492 -0.1595  0.0426 -0.0570
    1W        W59124   5.241  26.518   3.405  0.1243 -0.2022  0.0526
    1W        W59125  16.734   6.693   9.127  0.1348  0.1738 -0.3411
    1W        W59126   3.966   2.878   3.633  0.1407 -0.1106  0.0656
    1W        W59127  18.301   9.999   8.661  0.1508 -0.1315 -0.3481
    1W        W59128  24.551  17.043   4.007  0.1183 -0.3634 -0.1295
    1W        W59129  21.093  25.458   9.499  0.0666 -0.2706 -0.1410
    1W        W59130  12.215   4.879   6.580  0.1946  0.1522 -0.0248
    1W        W59131  28.363  14.217   0.840  0.0246 -0.1069 -0.0298
    1W        W59132   8.930  22.578   2.109 -0.0005 -0.1857 -0.3026
    1W        W59133   8.884  26.616   8.919  0.2818  0.0869  0.1063
    1W        W59134   6.107   1.813   2.086  0.3849 -0.2803  0.3289
    1W        W59135  21.466  11.026   8.115 -0.2356  0.2596  0.1003
    1W        W59136   6.175  27.673   9.678  0.3157  0.0553 -0.0290
    1W        W59137  25.163  28.241   3.552 -0.0495  0.0365  0.0129
    1W        W59138   1.226   9.757   2.258 -0.2285  0.0892  0.0490
    1W        W59139  11.570   1.267   0.118  0.0213  0.0407 -0.1746
    1W        W59140  24.591  28.819   7.667 -0.1069  0.0013 -0.1067
    1W        W59141  21.570  10.452   9.486 -0.1806  0.0339 -0.0771
    1W        W59142  21.086   1.921   1.605 -0.0180 -0.0060 -0.3663
    1W        W59143   7.200  11.738   8.434  0.2835 -0.1433 -0.0742
    1W        W59144   6.350   3.301   4.355 -0.0808  0.0852 -0.0084
    1W        W59145  19.952  22.553   2.068  0.0369 -0.0502  0.1916
    1W        W59146   8.169  11.802   8.284  0.0501  0.1947  0.0921
    1W        W59147   2.592  19.020   7.714  0.0180  0.1282 -0.1846
    1W        W59148  10.420  25.934   8.827 -0.0961  0.0617  0.1422
    1W        W59149   4.363  10.085   1.589  0.5754  0.0289  0.0717
    1W        W59150  17.636   2.198   1.225 -0.1300 -0.1692 -0.0938
    1W        W59151  27.086  14.280   1.568 -0.1899 -0.1901  0.0375
    1W        W59152   0.011   0.593   3.666 -0.0291  0.1573 -0.0325
    1W        W59153   8.547  13.079   1.031  0.1404 -0.1199 -0.1226
    1W        W59154  26.757  20.884   3.995 -0.3523 -0.1716 -0.2061
    1W        W59155  21.716   5.427   1.954 -0.0337  0.2759  0.2130
    1W        W59156  12.765  13.197   6.646  0.2725 -0.1228 -0.1608
    1W        W59157   4.761  26.719   4.342 -0.4225 -0.0021  0.2038
    1W        W59158  15.507   2.983   0.615  0.0882 -0.1554  0.1044
    1W        W59159  15.635  11.591   1.166 -0.2020  0.0174  0.1697
    1W        W59160  27.661  26.291   8.173  0.1854 -0.2220 -0.0995
    1W        W59161  28.356  24.595   1.882 -0.1483 -0.1365  0.3378
    1W        W59162  12.011  20.100   2.348  0.0896 -0.1775 -0.0863
    1W        W59163  10.262   2.769   1.490 -0.0912 -0.0366 -0.1229
    1W        W59164  22.204  17.754   2.383  0.0767  0.0374 -0.3006
    1W        W59165  28.084  20.011   9.275 -0.1488 -0.4447 -0.1057
    1W        W59166   8.622  27.237   2.852 -0.2241 -0.1934 -0.0542
    1W        W59167  27.996  18.460   9.065  0.0897  0.2157  0.1988
    1W        W59168  24.959   9.377   2.319 -0.2952  0.0768  0.1102
    1W        W59169  20.988   0.303   7.835 -0.1520 -0.2272  0.0164
    1W        W59170  23.250  15.103   0.874 -0.0782  0.0333  0.3730
    1W        W59171  25.834   5.030   1.826  0.1014 -0.0921 -0.3438
    1W        W59172   2.766   9.394   8.331  0.1319  0.0324 -0.0461
    1W        W59173   5.631   5.181   7.779  0.3611 -0.1822 -0.1748
    1W        W59174   3.758  19.991   0.964  0.2589  0.1949 -0.1883
    1W        W59175   1.230  27.147   3.879 -0.0048  0.0090 -0.0488
    1W        W59176  20.759  21.028   8.044  0.3120  0.1825 -0.2052
    1W        W59177  24.864   6.869   8.375 -0.2597 -0.0362 -0.2284
    1W        W59178  18.486   6.245   0.883  0.0201 -0.0377  0.0732
    1W        W59179   7.457  16.950   1.646 -0.1993 -0.1768 -0.0260
    1W        W59180  27.256  21.335   2.148  0.2070  0.0312 -0.1131
    1W        W59181  28.441   3.652   3.268  0.4238  0.1161 -0.0156
    1W        W59182  17.386  21.700   7.645 -0.2266 -0.3142  0.0198
    1W        W59183  15.150   4.546   7.193  0.2951  0.1031  0.0157
    1W        W59184  19.886  17.476   7.598 -0.1306  0.0394 -0.2655
    1W        W59185  25.062  12.015   8.201  0.0391 -0.1692  0.0721
    1W        W59186  28.699  24.272   0.245 -0.0684  0.0712  0.3340
    1W        W59187  14.054  20.123   9.911 -0.1163 -0.0507 -0.1976
    1W        W59188   0.396   1.054   8.883 -0.1549 -0.1089  0.0786
    1W        W59189  17.943   5.118   2.103 -0.2174  0.3544 -0.0019
    1W        W59190  10.212   5.673   9.987  0.1129  0.1627 -0.1577
    1W        W59191   4.776   1.573   2.085 -0.1149  0.1090  0.1685
    1W        W59192  10.626  19.941   1.556 -0.2187  0.2820  0.1458
    1W        W59193  28.790  19.081   0.123 -0.0630 -0.2004  0.0225
    1W        W59194   4.886   2.239   4.638 -0.0038  0.0483 -0.0169
    1W        W59195  21.974  25.935   9.586 -0.0043 -0.3098 -0.1543
    1W        W59196  13.326  21.092   9.874  0.1327  0.0808 -0.1398
    1W        W59197  10.792   8.776   8.368  0.4842 -0.0714  0.1029
    1W        W59198  10.169  16.559   2.467 -0.1784 -0.0382 -0.0967
    1W        W59199   0.089   0.140   0.235  0.0972 -0.0886  0.1407
    1W        W59200  11.549   0.831   9.898  0.2305  0.0314 -0.2075
    1W        W59201  20.120  24.953   0.753  0.0195  0.1161  0.2296
    1W        W59202   6.462  26.848   3.700 -0.0950  0.2703 -0.1610
    1W        W59203  20.841  13.012   9.106 -0.3557 -0.0504 -0.0436
    1W        W59204   6.521   7.231   9.177  0.0604  0.0450  0.2442
    1W        W59205  10.268  26.648   8.049  0.0524 -0.1138  0.0658
    1W        W59206   9.306  24.521   0.668 -0.2084 -0.2399 -0.0461
    1W        W59207  22.985   0.218   0.777 -0.0720  0.2400 -0.1571
    1W        W59208   6.688   9.277   0.925  0.0944  0.2439  0.2171
    1W        W59209  10.664  26.699   8.435  0.4407 -0.0336 -0.2095
    1W        W59210   1.779  23.668   2.918 -0.0704  0.4060  0.2182
    1W        W59211  27.878  14.175   9.403  0.0639  0.1775 -0.2491
    1W        W59212  13.121   7.732   0.298 -0.1541 -0.0005  0.2755
    1W        W59213   9.314  10.608   8.537  0.1104 -0.1672 -0.1491
    1W        W59214  24.060   6.206   7.472 -0.0155  0.0714 -0.0843
    1W        W59215  22.961   4.629   8.805 -0.0154 -0.2036  0.1217
    1W        W59216   3.663  13.440   9.801 -0.3287 -0.1455  0.1269
    1W        W59217   9.573  24.976   0.543  0.0292 -0.1364 -0.0215
    1W        W59218  26.874   2.654   1.512  0.0652 -0.1395  0.0844
    1W        W59219  25.196  21.051   3.666 -0.3979  0.0702  0.0068
    1W        W59220   3.952  24.734   0.053 -0.1289 -0.3295  0.1638
    1W        W59221   3.216  13.184   7.642 -0.0091  0.3197 -0.0184
    1W        W59222  19.943  26.387   8.317  0.1857 -0.1113  0.0829
    1W        W59223  25.654  22.225   0.198  0.0605  0.0060  0.2656
    1W        W59224  11.276   3.640   8.873 -0.1631 -0.2636 -0.1049
    1W        W59225  27.162  19.661   2.559  0.2816  0.1197  0.1136
    1W        W59226  21.721  16.148   6.108  0.1047  0.0598  0.1738
    1W        W59227   3.815  11.419   9.148  0.0728  0.1231  0.1120
    1W        W59228   1.660  18.241   8.858 -0.1281 -0.1236  0.1466
    1W        W59229   1.188  23.762   3.442  0.0227 -0.3092 -0.6931
    1W        W59230  20.336  28.345   2.901 -0.2899 -0.0856  0.1179
    1W        W59231  19.163  10.890   9.003  0.1419  0.1272 -0.4414
    1W        W59232  25.550   8.212   0.856  0.1548  0.3200 -0.0949
    1W        W59233  10.871   0.044   1.901 -0.0469 -0.0020 -0.0320
    1W        W59234   1.002   1.317   2.882  0.1255 -0.0132 -0.2326
    1W        W59235  16.432  27.854   0.355  0.1051  0.0372 -0.1029
    1W        W59236   0.212  17.350   3.687  0.1284 -0.1178  0.0192
    1W        W59237  11.304  20.427   9.120 -0.0091 -0.1441  0.1263
    1W        W59238  28.593   5.644   3.193  0.0454  0.0830  0.0824
    1W        W59239   9.960  13.183   6.269  0.0664  0.0767 -0.0298
    1W        W59240  19.646   2.283   8.580  0.2146 -0.0632 -0.1519
    1W        W59241  27.686  18.154   8.689  0.0343 -0.5405  0.1030
    1W        W59242   2.002   5.698   2.074  0.0082 -0.1435 -0.4013
    1W        W59243  28.311   2.620   2.564  0.1836 -0.0420  0.1476
    1W        W59244   6.232  25.711   0.947  0.1074 -0.0652 -0.2165
    1W        W59245   9.659  22.779   0.505  0.1533  0.2279  0.0218
    1W        W59246   5.008  28.727   2.327  0.1864 -0.1080  0.0409
    1W        W59247  11.764  12.955   0.682  0.1193 -0.2420  0.0841
    1W        W59248  12.059  12.644   2.142  0.0966  0.4000 -0.0853
    1W        W59249  22.411  17.150   9.125 -0.2216  0.1629 -0.1143
    1W        W59250  19.563  15.048   1.480 -0.2456 -0.4532 -0.1272
    1W        W59251  20.909  26.484   2.255 -0.1643 -0.0864  0.0979
    1W        W59252  15.333   4.799   9.087 -0.1709 -0.1897  0.2069
    1W        W59253  27.740  16.378   2.207 -0.0591  0.1648  0.3503
    1W        W59254  12.578   8.931   8.529 -0.0870  0.1575 -0.1818
    1W        W59255  28.268  24.685   2.411 -0.0201  0.1084  0.0975
    1W        W59256  20.123   5.555   7.511  0.1810 -0.1090  0.2332
    1W        W59257  20.775  19.370   0.475  0.1767  0.1498  0.3872
    1W        W59258   7.364   3.318   0.748 -0.0911 -0.1821 -0.0112
    1W        W59259  25.626  24.798   9.726 -0.0341 -0.2037 -0.0784
    1W        W59260  28.628   5.149   0.619  0.0888  0.2459 -0.2630
    1W        W59261  10.903  17.862   1.419  0.2282  0.1711 -0.4261
    1W        W59262  25.142  24.506   3.100 -0.2283 -0.0401  0.2416
    1W        W59263  18.191  14.798   6.783 -0.1699  0.2389  0.2676
    1W        W59264   0.312   3.990   2.623  0.1738 -0.0019  0.2980
    1W        W59265  16.297   8.402   8.401 -0.1058 -0.0541  0.0809
    1W        W59266  27.520  24.537   3.084  0.3696  0.3442  0.1715
    1W        W59267  25.605  12.873   8.424 -0.0020 -0.4988 -0.0061
    1W        W59268  25.824  18.956   1.838 -0.0547 -0.1243  0.2837
    1W        W59269   1.185  16.817   9.356  0.1300 -0.1336  0.1509
    1W        W59270   5.742  25.937   4.046 -0.2932  0.0081 -0.0482
    1W        W59271   1.921  16.506   8.156 -0.1057  0.0955 -0.0815
    1W        W59272  21.365   7.498   0.171 -0.0350 -0.2709 -0.1837
    1W        W59273  14.698   7.064   0.047 -0.0119  0.1426  0.0755
    1W        W59274   0.429  28.605   9.509  0.1617 -0.2803 -0.0902
    1W        W59275  14.660  13.149   2.313 -0.1623  0.3126  0.1091
    1W        W59276  14.086   0.182   9.479 -0.2035  0.2164  0.1560
    1W        W59277  27.175  10.386   8.415  0.1163  0.2407  0.0856
    1W        W59278   5.212   8.682   1.138 -0.0225  0.0729  0.1432
    1W        W59279  19.684  11.076   9.100 -0.1587 -0.0435  0.0270
    1W        W59280  14.850   2.008   6.913 -0.2760  0.0129 -0.2752
    1W        W59281  27.023  19.206   1.239 -0.0252  0.2243  0.2095
    1W        W59282  26.130  19.970   3.328  0.0204 -0.1665 -0.1498
    1W        W59283  18.378  16.036   0.464 -0.1874  0.3042  0.2400
    1W        W59284   0.061   8.142   7.359  0.4372 -0.2002 -0.1287
    1W        W59285  25.926  25.608   2.922 -0.0339  0.1313 -0.2337
    1W        W59286   2.954  19.196   8.944  0.0253  0.1258 -0.2168
    1W        W59287  24.777  12.394   0.648  0.1776  0.3248  0.1866
    1W        W59288  14.931  19.871   1.379 -0.1473  0.1469  0.0811
    1W        W59289  24.050  10.990   7.298  0.2267 -0.1512  0.0759
    1W        W59290  28.153   5.895   3.430 -0.3963 -0.0245  0.1654
    1W        W59291  17.749  11.877   7.913  0.1498  0.0747 -0.0982
    1W        W59292  28.869  18.091   1.960  0.0814  0.0689  0.0999
    1W        W59293  20.555   6.367   2.149  0.4318  0.2594 -0.1128
    1W        W59294   6.706  25.227   8.696  0.1022 -0.0818 -0.1296
    1W        W59295   4.735   7.085   0.050  0.1806  0.1749 -0.0074
    1W        W59296  24.662  26.630   7.558 -0.1514  0.1334  0.1177
    1W        W59297  11.661  27.776   7.463 -0.1313 -0.0971  0.0245
    1W        W59298  27.556  14.124   3.093  0.0126 -0.2529 -0.1250
    1W        W59299  22.006   0.320   0.232 -0.0623 -0.0333 -0.0284
    1W        W59300  18.003   5.152   8.714  0.0835 -0.0468 -0.1980
    1W        W59301   8.090   1.125   8.727 -0.0809 -0.0297 -0.2264
    1W        W59302  25.126  25.426   8.777 -0.0147  0.1213  0.2435
    1W        W59303  19.559  20.278   0.553 -0.2688  0.2469  0.1836
    1W        W59304  16.885  15.910   7.586  0.0592  0.2603  0.1143
    1W        W59305  11.579   5.958   6.759 -0.2259  0.3273  0.1470
    1W        W59306  28.846   5.585   0.216 -0.1025  0.0123  0.1088
    1W        W59307  28.688  22.010   2.936 -0.1769 -0.0774 -0.2182
    1W        W59308  26.422  12.631   9.806  0.1274  0.4180  0.0530
    1W        W59309  16.806  21.262   1.019 -0.1765  0.0717 -0.0000
    1W        W59310   4.251   4.952   3.415 -0.3327  0.2706  0.3236
    1W        W59311  26.581   7.819   8.725 -0.2599 -0.1636  0.2986
    1W        W59312  12.123  24.300   9.523 -0.2671 -0.1798 -0.2191
    1W        W59313  10.867  13.082   0.926 -0.2627 -0.0767 -0.0993
    1W        W59314  21.014  11.482   8.118 -0.0067 -0.3621  0.1273
    1W        W59315   6.671  21.788   6.551  0.1656  0.3945  0.0423
    1W        W59316   5.068  11.879   7.497  0.1812  0.2214  0.2400
    1W        W59317  16.618  17.844   6.720  0.1776 -0.2545  0.0276
    1W        W59318  11.747  15.323   7.888  0.2746 -0.0523 -0.0992
    1W        W59319   7.674  10.878   0.341  0.0295  0.1718 -0.0746
    1W        W59320  26.490  12.318   0.240 -0.2065  0.0580 -0.0278
    1W        W59321   5.421   3.699   0.493 -0.2054  0.2348  0.0844
    1W        W59322  10.056   9.809   6.707 -0.0106 -0.0658 -0.0320
    1W        W59323  16.467   8.597   7.172 -0.1840 -0.2140  0.2292
    1W        W59324   8.321  27.133   3.271 -0.0276  0.0051  0.0263
    1W        W59325   9.984  28.328   8.683 -0.0812  0.1657 -0.0823
    1W        W59326  24.870  24.551   3.514  0.2026 -0.3816 -0.0030
    1W        W59327  21.201   4.331   8.352 -0.0297  0.1795  0.1945
    1W        W59328  13.576  14.087   1.773  0.4699  0.0135 -0.0313
    1W        W59329   6.207  11.875   8.384  0.0885  0.0729  0.3249
    1W        W59330  16.810  27.245   2.041 -0.1313 -0.2103 -0.0181
    1W        W59331  13.724  12.648   9.003  0.0915  0.0223  0.1262
    1W        W59332  28.210  25.360   0.729  0.2736  0.2016 -0.0155
    1W        W59333  22.541  12.788   0.923 -0.0574 -0.2662 -0.0709
    1W        W59334  27.290  27.050   8.704  0.0918  0.2513  0.2702
    1W        W59335   9.702  15.806   0.466 -0.2678  0.0219 -0.2081
    1W        W59336  25.815  24.043   0.380 -0.2702  0.2721 -0.0610
    1W        W59337  19.601  23.830   7.421  0.3001  0.0197  0.0818
    1W        W59338  18.962  19.728   0.930  0.1857 -0.1499  0.0262
    1W        W59339  10.099  19.776   7.801  0.0222 -0.0274  0.1525
    1W        W59340  12.180  10.891   9.979  0.0466  0.1275  0.0247
    1W        W59341  18.827  22.652   7.364 -0.2287 -0.0772 -0.1072
    1W        W59342  19.405   4.694   9.156 -0.1848  0.1648 -0.3490
    1W        W59343  24.707   4.770   1.254 -0.3106 -0.0082 -0.0223
    1W        W59344  16.026  14.943   0.299  0.1367 -0.0800 -0.2593
    1W        W59345  13.402   1.937   7.088 -0.1566  0.1590 -0.0132
    1W        W59346   6.074  14.672   9.745  0.0070  0.1715  0.1661
    1W        W59347  26.105   5.677   2.321  0.0536  0.0506  0.1435
    1W        W59348  23.278  21.279   0.892 -0.2038  0.1706 -0.0060
    1W        W59349  20.388  24.684   2.269  0.2430 -0.1389 -0.1940
    1W        W59350  17.326  21.313   1.764  0.2250 -0.0215 -0.0184
    1W        W59351  25.785  27.054   8.932  0.1778 -0.0044  0.0652
    1W        W59352   6.139  24.315   0.119 -0.1332 -0.0016  0.2028
    1W        W59353  14.234   0.946   7.020  0.0576 -0.1600 -0.2106
    1W        W59354   3.568  20.336   2.169 -0.0196 -0.2278  0.0440
    1W        W59355  14.776  26.798   8.979  0.2365  0.0939  0.0239
    1W        W59356  14.146   3.082   7.260 -0.1927  0.3517 -0.0935
    1W        W59357  10.714  27.242   8.270 -0.2486  0.0448  0.1735
    1W        W59358  25.049  16.476   2.244 -0.2281  0.0627  0.1212
    1W        W59359  14.706   7.024   0.521  0.4011  0.0701 -0.2393
    1W        W59360   5.949  23.700   2.691 -0.2532  0.0996 -0.1266
    1W        W59361   2.225   2.867   2.043 -0.1322 -0.0461 -0.0248
    1W        W59362  27.313   2.803   3.095  0.0891  0.2177 -0.0375
    1W        W59363  24.830  27.892   0.388  0.1152  0.2982  0.1735
    1W        W59364   5.814   8.883   6.586 -0.0459 -0.0078  0.4389
    1W        W59365   4.110  22.672   9.502  0.1187 -0.2608 -0.1647
    1W        W59366   2.128  16.057   9.713 -0.0093 -0.0322 -0.0990
    1W        W59367  13.448   7.677   5.406  0.2035 -0.3379  0.0705
    1W        W59368  28.845   6.514   8.876  0.0567 -0.2232  0.3511
    1W        W59369  10.763  21.500   7.819 -0.2998  0.2542  0.2783
    1W        W59370  28.393  14.134   1.819  0.0795 -0.3293 -0.0266
    1W        W59371  11.175  14.682   9.794 -0.3103  0.0254 -0.0659
    1W        W59372  17.710  15.574   8.111 -0.5558  0.0283  0.2551
    1W        W59373  13.740   7.598   6.304 -0.1299  0.0650  0.1128
    1W        W59374   4.859  23.583   0.595 -0.4059  0.0538  0.4075
    1W        W59375  17.689   0.654   8.801 -0.3077 -0.0209  0.4237
    1W        W59376   6.863  22.508   9.005 -0.0720  0.1889 -0.0262
    1W        W59377   5.433  21.356   6.845  0.0200  0.0375 -0.2845
    1W        W59378  26.320  27.201   8.035 -0.0539 -0.2325 -0.3366
    1W        W59379  22.169   7.913   8.921  0.3145 -0.1032  0.2785
    1W        W59380   4.024  25.646   1.861 -0.0862  0.1281  0.1883
    1W        W59381  26.758  20.347   1.859 -0.3031  0.0760  0.3599
    1W        W59382  22.495  25.335   7.927 -0.1630  0.3341  0.1324
    1W        W59383  10.329  20.692   7.424 -0.1151  0.1300 -0.0475
    1W        W59384  24.805  21.167   2.852 -0.0950 -0.0859  0.0320
    1W        W59385  22.165  14.832   6.729  0.0197 -0.1162 -0.2397
    1W        W59386  20.589  21.817   0.510  0.2473 -0.0967  0.4631
    1W        W59387  17.354  22.432   2.035  0.2161  0.2103 -0.0802
    1W        W59388  27.086   0.068   4.193  0.1492 -0.0086 -0.0917
    1W        W59389  10.444  15.603   2.542  0.2052 -0.1620  0.4886
    1W        W59390  14.503   5.841   7.531 -0.2893  0.0505  0.0496
    1W        W59391  11.924  24.723   3.093  0.3074  0.2657  0.0001
    1W        W59392  23.504   9.968   1.772 -0.1236  0.1129  0.1374
    1W        W59393  24.473  11.355   1.540 -0.1186  0.1579  0.1832
    1W        W59394  16.506  25.887   0.513 -0.0372 -0.1033  0.0397
    1W        W59395   7.596   8.201   7.567 -0.2444  0.3669  0.0961
    1W        W59396  10.281  15.586   8.742  0.1751 -0.0925  0.1855
    1W        W59397  17.154  11.059   1.647 -0.1001 -0.1081  0.0514
    1W        W59398  19.783  16.968   2.199  0.0817 -0.1744  0.0087
    1W        W59399  25.226  10.958   0.335  0.1360 -0.2446  0.0724
    1W        W59400   0.759  26.914   1.731  0.0010  0.0465  0.1878
    1W        W59401  17.825  20.935   1.264 -0.5464  0.0367 -0.1784
    1W        W59402  26.024  25.080   1.231 -0.0754  0.2835  0.2010
    1W        W59403  17.325  15.782   7.361 -0.0785 -0.0792  0.1142
    1W        W59404  10.813  26.305   1.900 -0.0771  0.0167 -0.2714
    1W        W59405  12.574  16.503   9.102 -0.1267  0.1615  0.0495
    1W        W59406  12.736  13.906   8.375 -0.0986  0.1140  0.1190
    1W        W59407  17.871   3.944   7.673  0.1715 -0.1810 -0.1587
    1W        W59408  20.650   3.545   2.632  0.2813  0.5149 -0.0942
    1W        W59409   0.890  10.498   9.306 -0.1840 -0.0194  0.1354
    1W        W59410  18.386  18.263   8.092  0.1923  0.0101 -0.1768
    1W        W59411  28.146  26.964   9.483  0.1376 -0.0666 -0.1450
    1W        W59412  24.741  12.524   1.307  0.2125  0.3225 -0.5448
    1W        W59413   0.529   9.176   7.727 -0.5300 -0.3253  0.0775
    1W        W59414  12.890  18.915   9.832 -0.0413  0.1281  0.3333
    1W        W59415  19.083  17.512   7.716  0.3441  0.3052 -0.2483
    1W        W59416  16.523   6.321   7.484  0.0198  0.2174 -0.0515
    1W        W59417  28.694  23.790   1.350 -0.1450  0.1418 -0.0978
    1W        W59418  10.505   4.725   5.992 -0.1913 -0.3880  0.1243
    1W        W59419   7.573  19.771   9.742  0.1031  0.1845  0.0643
    1W        W59420  19.555  19.219   8.635  0.1653 -0.1023  0.1729
    1W        W59421  15.304  27.260   7.568  0.0535 -0.1602  0.1736
    1W        W59422  19.897  25.459   2.046  0.1598  0.0621  0.2038
    1W        W59423   3.630  10.148   9.924 -0.1541  0.3514 -0.1695
    1W        W59424   6.995  14.567   0.328 -0.0698  0.1549 -0.0060
    1W        W59425   6.297  25.203   9.776 -0.0523 -0.1897 -0.2931
    1W        W59426   9.245  18.161   2.287  0.0132  0.0481 -0.2190
    1W        W59427  11.454   1.645   7.699 -0.0060  0.2719 -0.1090
    1W        W59428  23.888   0.975   8.783  0.0357  0.1039  0.1781
    1W        W59429  13.433  14.580   9.590  0.1748  0.1598 -0.0614
    1W        W59430   6.426  11.456   8.048  0.3532 -0.1586 -0.0585
    1W        W59431  27.890  16.625   9.229  0.3440 -0.1073 -0.3737
    1W        W59432   6.542  12.110   9.194 -0.0340 -0.1500 -0.1746
    1W        W59433  21.517   8.436   8.541 -0.1870 -0.0360 -0.1204
    1W        W59434  15.982   8.251   0.174 -0.1456  0.1377  0.1233
    1W        W59435   7.684  26.551   9.446  0.1387  0.1341 -0.3003
    1W        W59436  27.582   6.163   8.658  0.0396 -0.2614  0.0219
    1W        W59437   2.254  22.612   8.005 -0.2932  0.2765 -0.0681
    1W        W59438   5.601   3.576   3.025  0.2290  0.0353  0.1294
    1W        W59439  10.503   9.290   9.275 -0.1289  0.2794 -0.1382
    1W        W59440  24.438   3.932   0.744  0.0370 -0.0578  0.4536
    1W        W59441   5.349  23.124   7.562 -0.1826 -0.0112 -0.0012
    1W        W59442  17.058  12.953   1.247 -0.2763  0.0148 -0.0157
    1W        W59443  27.328  26.325   9.432  0.1193  0.0667 -0.1780
    1W        W59444  27.898  19.446   9.771  0.1116  0.0515 -0.1855
    1W        W59445   0.453  18.792   1.612 -0.1017  0.0538  0.1138
    1W        W59446   4.496   4.157   2.193 -0.1846 -0.0869 -0.1774
    1W        W59447   0.916  21.088   3.014 -0.0653  0.1061 -0.3674
    1W        W59448  25.610   9.807   1.320 -0.0153  0.0398  0.0080
    1W        W59449   8.689  22.215   8.701  0.0114 -0.0365  0.3593
    1W        W59450  11.221  20.923   9.129 -0.0697 -0.0240 -0.1738
    1W        W59451  21.285   2.091   0.685 -0.1040  0.3211  0.4009
    1W        W59452   2.859   5.319   9.192 -0.0583 -0.0526  0.2199
    1W        W59453  14.051  13.405   9.669  0.0230 -0.1075  0.2148
    1W        W59454   7.532  21.481   2.035  0.1678  0.1991  0.0533
    1W        W59455  16.931  23.789   9.478  0.1920  0.1442  0.0032
    1W        W59456  14.315  23.307   9.811  0.1276  0.1140  0.2132
    1W        W59457   1.505  13.821   1.119 -0.2278 -0.1406 -0.1774
    1W        W59458  11.740  13.136   9.897 -0.0589  0.0989 -0.0109
    1W        W59459  27.855   4.211   9.096 -0.1791  0.0306 -0.0157
    1W        W59460  23.261  25.055   0.427 -0.1085  0.0646  0.0023
    1W        W59461   6.233  13.576   8.369 -0.0419  0.0976  0.2583
    1W        W59462   5.337  23.078   2.106  0.3789 -0.0720 -0.2171
    1W        W59463  18.654  11.074   9.698  0.2088 -0.2539 -0.4155
    1W        W59464  24.204  24.068   2.699  0.0370 -0.0421  0.1538
    1W        W59465   3.077  15.440   9.267  0.0477 -0.2174  0.4378
    1W        W59466  14.370  25.771   8.848  0.0765  0.1685  0.3416
    1W        W59467  15.680   9.170   6.429 -0.0940  0.3513 -0.0261
    1W        W59468  27.693  22.174   9.638 -0.2198 -0.1811  0.1132
    1W        W59469   4.091  11.113   6.761  0.1623 -0.1101 -0.1119
    1W        W59470  13.647   0.621   1.163  0.0632  0.0629 -0.0919
    1W        W59471  23.922  15.648   8.548  0.2020 -0.1596 -0.0382
    1W        W59472   3.352   2.928   0.634 -0.0717 -0.0933  0.0512
    1W        W59473  28.683   5.428   3.687 -0.3262 -0.2312 -0.1701
    1W        W59474  24.349  14.518   0.772  0.3982  0.1649  0.0961
    1W        W59475  26.504  10.584   7.194 -0.3191  0.0304 -0.1741
    1W        W59476  10.696   8.290   8.280  0.1153 -0.1275 -0.2679
    1W        W59477  13.736  23.261   9.906 -0.3852 -0.0199 -0.0674
    1W        W59478  28.347   2.169   0.347  0.5260  0.1821 -0.1190
    1W        W59479  17.694  13.832   7.437 -0.0376  0.0738  0.2930
    1W        W59480  11.465  21.610   2.818  0.0597 -0.0120 -0.0580
    1W        W59481  26.196   9.035   0.978  0.0467 -0.0969 -0.2972
    1W        W59482  13.403  14.052   9.261  0.0240  0.1748 -0.0188
    1W        W59483   1.054  24.768   2.774 -0.0576 -0.1260 -0.0246
    1W        W59484   3.113   2.089   4.093 -0.0885 -0.1575  0.3596
    1W        W59485  13.385   1.130   9.974  0.1304 -0.2335 -0.0670
    1W        W59486  24.064  16.082   9.260  0.2440 -0.2718  0.0174
    1W        W59487  23.810   0.116   7.083 -0.0522 -0.0296  0.3568
    1W        W59488   2.708   5.538   3.780  0.2329  0.1013  0.0983
    1W        W59489  13.622   8.303   7.942 -0.1091 -0.0017 -0.3127
    1W        W59490  13.288  19.125   9.573  0.1837  0.1613  0.1437
    1W        W59491  25.589  18.018   1.886 -0.1892 -0.2443 -0.0477
    1W        W59492  13.118   3.870   0.207  0.1947  0.1980  0.0400
    1W        W59493  22.274  24.062   2.519  0.4993 -0.1574 -0.2928
    1W        W59494  11.355   1.354   8.532 -0.0307 -0.1310 -0.0023
    1W        W59495  10.222  16.341   7.731 -0.3268 -0.0759 -0.1412
    1W        W59496  14.451  25.695   1.423  0.0196  0.0025 -0.1774
    1W        W59497  25.580   9.417   7.163 -0.2555  0.1010 -0.1174
    1W        W59498  15.926  20.427   7.382  0.0297  0.0226  0.3212
    1W        W59499  25.401  22.967   9.070  0.0465 -0.0422  0.1587
    1W        W59500  19.184  24.315   1.777 -0.1363 -0.1130  0.0981
    1W        W59501   8.566  20.387   1.560 -0.2926  0.0551 -0.0687
    1W        W59502   1.253  10.422   1.499  0.2896 -0.3737 -0.4557
    1W        W59503  19.727   9.352   6.640  0.4549 -0.2047  0.0431
    1W        W59504  18.081  21.409   1.254  0.4165 -0.1012 -0.1721
    1W        W59505  27.703   4.154   8.553  0.0500  0.1553  0.0279
    1W        W59506   6.073   2.982   4.694  0.1558  0.1708 -0.3669
    1W        W59507  24.622   5.151   0.190  0.0678 -0.0391 -0.0482
    1W        W59508   8.389  23.776   7.873 -0.0081  0.1463 -0.0041
    1W        W59509  26.827   8.351   1.424  0.0500  0.0749 -0.2750
    1W        W59510  14.837  21.213   7.459 -0.0464 -0.0765  0.1147
    1W        W59511  27.630   5.946   3.551 -0.2730  0.0677  0.1016
    1W        W59512   3.907  25.009   8.059 -0.1208  0.2756  0.1793
    1W        W59513   6.437  26.074   0.266  0.2226 -0.0317 -0.1058
    1W        W59514  21.554  15.957   8.279  0.2375  0.2498 -0.1391
    1W        W59515   2.796  16.023   8.418 -0.3528 -0.0899 -0.1069
    1W        W59516  24.351   1.842   9.946  0.2734 -0.2178 -0.1161
    1W        W59517   1.352  26.236   0.508  0.0385 -0.1020  0.2238
    1W        W59518   1.314  23.935   2.963  0.3799  0.3792 -0.3055
    1W        W59519  18.691   9.616   5.917  0.1457 -0.2894 -0.1178
    1W        W59520  13.365  15.253   1.114 -0.2723 -0.1744  0.3727
    1W        W59521  19.752  13.326   6.731 -0.0160  0.1136 -0.0789
    1W        W59522   3.516  14.253   9.620  0.2164  0.5136 -0.0451
    1W        W59523  21.198  22.664   7.284  0.2459 -0.0395 -0.1547
    1W        W59524  19.389  22.024   2.503 -0.1706  0.1164 -0.1014
    1W        W59525  23.970  10.563   9.987  0.1859 -0.1903 -0.0857
    1W        W59526  14.969  12.308   1.282 -0.2546  0.0614  0.1498
    1W        W59527   0.196  16.814   8.658  0.1428  0.3536  0.0669
    1W        W59528  24.380  17.388   0.248  0.0313 -0.3129  0.0441
    1W        W59529  14.291  20.473   6.326 -0.2878 -0.1841 -0.3114
    1W        W59530  14.718  22.275   7.239  0.1291 -0.2993  0.1994
    1W        W59531   9.342   5.123   2.667 -0.0876  0.0329  0.0364
    1W        W59532  26.362  23.512   1.582 -0.1016 -0.0246  0.1107
    1W        W59533  20.089  11.475   0.542 -0.2923  0.1278 -0.3997
    1W        W59534   1.734   6.332   3.696  0.1083  0.1704  0.0204
    1W        W59535  10.625  11.670   6.714 -0.0004  0.1892 -0.0459
    1W        W59536  25.728  15.783   3.148  0.0622 -0.1469  0.0189
    1W        W59537   3.914  28.169   4.729  0.1896  0.1173 -0.0891
    1W        W59538   1.257  19.991   2.618  0.1493  0.0897  0.2852
    1W        W59539  21.791   6.537   1.588 -0.1124 -0.0908 -0.2766
    1W        W59540  14.756  21.741   7.307 -0.0015 -0.2256 -0.1062
    1W        W59541  11.599  19.863   0.811  0.0266  0.2207  0.2560
    1W        W59542  27.578   6.946   2.288  0.0144 -0.2103 -0.1119
    1W        W59543   2.904   5.468   1.047  0.1561  0.1017 -0.1148
    1W        W59544  19.118  25.921   8.087 -0.1693  0.2140 -0.2761
    1W        W59545   5.071  19.919   7.702 -0.0707 -0.1456  0.0237
    1W        W59546  13.976   7.896   6.670 -0.0035  0.0327 -0.2367
    1W        W59547   6.209   4.092   1.123  0.0103  0.1456 -0.0328
    1W        W59548  25.402  16.789   0.220 -0.1737  0.0009  0.0211
    1W        W59549  16.270  19.865   2.014  0.2458 -0.0851 -0.0621
    1W        W59550   9.517  19.304   7.833 -0.0943  0.0458  0.0360
    1W        W59551  18.104  11.947   6.295 -0.1507  0.0610 -0.2133
    1W        W59552   2.892   6.991   7.921  0.1913  0.0065 -0.0939
    1W        W59553  12.875  24.072   8.071 -0.2395 -0.0651  0.0639
    1W        W59554   6.719  25.750   7.514  0.0543 -0.0548 -0.3527
    1W        W59555  20.468  11.381   2.195  0.0088 -0.1361 -0.0127
    1W        W59556  11.187   7.116   6.345 -0.1802  0.0413 -0.0031
    1W        W59557  10.687  27.722   0.684  0.4166 -0.0588  0.1732
    1W        W59558   1.578  21.073   8.156 -0.0104 -0.3993 -0.0002
    1W        W59559  20.495   2.998   2.411  0.2519  0.2184  0.1076
    1W        W59560  23.752   2.729   0.830  0.1244 -0.0164  0.3219
    1W        W59561   2.878  28.568   1.205 -0.0059  0.0217  0.0745
    1W        W59562  16.747  19.771   6.065  0.1573 -0.3691 -0.1151
    1W        W59563   2.836  26.002   2.247 -0.0149 -0.2166 -0.0402
    1W        W59564  24.234  14.917   9.471 -0.1173 -0.2440 -0.2729
    1W        W59565  28.168  24.267   8.226  0.1422 -0.0871  0.1962
    1W        W59566   3.634  20.860   3.517 -0.0576 -0.1259 -0.0225
    1W        W59567   9.346  10.677   1.105 -0.1063  0.0095 -0.3087
    1W        W59568  16.478  14.892   0.072  0.3035 -0.0012  0.1808
    1W        W59569  28.582  18.179   3.569 -0.0162 -0.0256  0.3802
    1W        W59570  20.846  11.574   6.932 -0.0661  0.3662  0.1121
    1W        W59571   1.238   0.196   1.886  0.2060 -0.1634 -0.2253
    1W        W59572  19.913   2.341   9.062  0.0137 -0.0370  0.0210
    1W        W59573   4.191   8.519   8.554 -0.0725 -0.1127  0.1906
    1W        W59574  11.517  21.758   7.197 -0.0824  0.1629 -0.0873
    1W        W59575  20.456  12.688   7.901 -0.0917 -0.2338  0.0649
    1W        W59576  12.855   5.710   8.772  0.1406  0.4152 -0.4474
    1W        W59577  12.060  15.434   2.795 -0.0633 -0.0539  0.1568
    1W        W59578  22.138   6.983   8.009  0.1748  0.2505 -0.0305
    1W        W59579  16.272  11.044   6.107 -0.1125 -0.1516 -0.1347
    1W        W59580  24.567  14.619   2.334  0.1996  0.0627 -0.0322
    1W        W59581  15.895   9.646   7.399  0.2575 -0.1335  0.2035
    1W        W59582  12.428  20.702   3.236  0.0781  0.1023 -0.1818
    1W        W59583  16.701  13.173   0.842 -0.0469 -0.1632  0.0180
    1W        W59584  19.918  14.642   6.343  0.2460  0.0411  0.0253
    1W        W59585   1.210   0.023   8.594 -0.4143  0.0483  0.2910
    1W        W59586   4.057  11.268   2.932  0.2151  0.0925  0.3656
    1W        W59587   9.175   3.834   8.453  0.0949  0.1078  0.1623
    1W        W59588   5.733  11.708   3.024  0.0489  0.0627  0.1422
    1W        W59589  12.476  18.813   2.526 -0.1971  0.0129 -0.1358
    1W        W59590  15.522   5.958   0.568 -0.0845  0.1962  0.1466
    1W        W59591   7.558  16.207   9.600  0.0298  0.0700  0.1387
    1W        W59592  24.990  25.771   3.049 -0.0334  0.0903 -0.1235
    1W        W59593   1.594  27.245   9.364 -0.0226  0.0318  0.1467
    1W        W59594  17.176  25.048   8.024  0.2059  0.0999  0.3035
    1W        W59595  19.532  10.864   0.932  0.1056  0.2140  0.1436
    1W        W59596  25.103  14.048   0.997  0.0437 -0.0979 -0.0366
    1W        W59597  23.743  20.695   1.762 -0.0780  0.0163  0.2143
    1W        W59598  27.121  17.523   8.539  0.1810  0.0845  0.1333
    1W        W59599  10.112   0.341   2.366  0.0305 -0.1866 -0.0979
    1W        W59600  19.842  25.944   9.656 -0.3378 -0.1693  0.3326
    1W        W59601  16.309   6.556   8.731  0.0565 -0.2280  0.0300
    1W        W59602  20.824  10.819   7.939 -0.1589 -0.0712  0.0175
    1W        W59603   7.699  13.434   8.742  0.1294 -0.1235 -0.1236
    1W        W59604   2.762   4.884   8.969 -0.0311  0.2326  0.0056
    1W        W59605  25.508  19.711   2.081  0.2713  0.1333 -0.0147
    1W        W59606  27.275  28.456   8.843  0.2282  0.0312  0.1720
    1W        W59607  18.926   3.558   0.101 -0.0885 -0.2464 -0.1272
    1W        W59608  27.569  12.466   3.198 -0.0325  0.1488  0.2357
    1W        W59609   5.490  21.670   1.654 -0.1535 -0.1011 -0.0384
    1W        W59610  24.406  27.977   0.680 -0.0652  0.0860 -0.1583
    1W        W59611   1.740  25.536   9.317  0.0868 -0.0651  0.3656
    1W        W59612  21.646   0.143   9.150  0.2542  0.1311 -0.0278
    1W        W59613   9.119  11.042   1.412  0.0516 -0.4238 -0.1836
    1W        W59614   5.411   3.413   8.290 -0.3103 -0.1914 -0.0495
    1W        W59615  23.081  15.098   6.881  0.0114 -0.1209 -0.1358
    1W        W59616  20.171  20.902   7.343 -0.2342 -0.2202  0.1833
    1W        W59617   5.919  21.904   1.724  0.3439 -0.3312 -0.0706
    1W        W59618   2.700  24.505   3.160  0.1189 -0.2531 -0.3054
    1W        W59619   8.096   9.356   9.001  0.2395  0.2715  0.1376
    1W        W59620  10.634  26.200   8.463 -0.1975  0.0964  0.2600
    1W        W59621   8.426  12.680   9.631 -0.2328  0.1853  0.2526
    1W        W59622  16.590   4.616   7.443  0.0596 -0.2411 -0.2126
    1W        W59623   7.573   8.976   0.905 -0.3632 -0.2153 -0.2896
    1W        W59624  27.812   4.999   8.732 -0.1050  0.1005 -0.0047
    1W        W59625  26.938   9.131   8.832  0.2131  0.0520 -0.2545
    1W        W59626   6.458  26.422   0.704 -0.3361 -0.0103 -0.1263
    1W        W59627  27.381  11.947   1.959  0.0862  0.3034  0.1444
    1W        W59628  21.104   8.851   6.590  0.1165  0.1062 -0.3303
    1W        W59629  21.668  25.358   7.467 -0.1725  0.1257 -0.1023
    1W        W59630   5.459  11.501   2.518  0.1288  0.0136  0.0916
    1W        W59631  14.076  15.226   2.195 -0.1690 -0.1831  0.1695
    1W        W59632  10.653  23.115   8.595 -0.1062  0.1819  0.1019
    1W        W59633   5.280  14.140   9.573  0.2284 -0.1481  0.3819
    1W        W59634   9.991  15.591   5.160 -0.0682  0.1129 -0.0177
    1W        W59635   5.322  12.879   9.942  0.3436  0.1536  0.1458
    1W        W59636  16.562   2.379   8.338 -0.2413  0.1031 -0.0332
    1W        W59637  27.491  16.372   3.959 -0.0991  0.1695 -0.2620
    1W        W59638  16.117  16.552   0.411 -0.0764 -0.0334 -0.3219
    1W        W59639  18.169  10.999   9.662 -0.0141  0.1822  0.1937
    1W        W59640  12.726   3.721   1.816  0.4267  0.0350 -0.0587
    1W        W59641   5.386   9.539   1.817 -0.3970 -0.2015 -0.2199
    1W        W59642  23.269  17.783   1.162 -0.0045  0.0093 -0.0489
    1W        W59643   4.403   3.973   9.146 -0.2820 -0.1730 -0.2188
    1W        W59644  25.655   6.044   2.713  0.2057 -0.1305  0.1504
    1W        W59645  18.253  27.896   8.791 -0.3438 -0.2199  0.1796
    1W        W59646  20.156  12.196   1.908 -0.0479  0.0646  0.0363
    1W        W59647  27.713   0.222   0.772  0.2878 -0.2127 -0.0161
    1W        W59648   1.312   3.881   0.687  0.2101  0.0354  0.0825
    1W        W59649  21.243  12.238   8.902  0.0944  0.0323  0.0015
    1W        W59650  23.932   2.093   1.417  0.0460 -0.2063 -0.2850
    1W        W59651  11.075  25.236   1.318 -0.2694 -0.2326  0.2525
    1W        W59652  21.051  14.256   7.238  0.0650 -0.0990  0.0169
    1W        W59653  17.046  22.961   0.948  0.0270  0.3275  0.0331
    1W        W59654  12.825   4.472   8.818 -0.2463  0.0004 -0.3723
    1W        W59655   0.918  26.363   1.944  0.0574 -0.1594 -0.1842
    1W        W59656  14.632  20.907   7.134 -0.2597 -0.0418  0.0789
    1W        W59657   8.979  12.039   6.351  0.2766 -0.0609 -0.0836
    1W        W59658  23.084  11.063   9.006  0.2325 -0.0873  0.2653
    1W        W59659  26.977  15.576   7.674  0.0103  0.1256  0.2057
    1W        W59660   0.432   7.235   3.667 -0.1009 -0.0795  0.0976
    1W        W59661  19.467  27.317   1.135  0.2349  0.0674 -0.0930
    1W        W59662  13.234   4.265   8.492 -0.1002  0.0178 -0.2297
    1W        W59663  11.666   3.619   1.632  0.0736 -0.0941 -0.0494
    1W        W59664  25.318   9.164   9.252  0.0952 -0.1233  0.2739
    1W        W59665  16.479  20.211   6.703 -0.0126 -0.0971  0.0559
    1W        W59666   1.576   5.713   2.393  0.0271 -0.0141 -0.0265
    1W        W59667   3.945  24.957   8.582 -0.1325 -0.2123 -0.0647
    1W        W59668  17.548  22.315   6.487 -0.2376  0.2136 -0.0253
    1W        W59669  26.370  19.636   0.351 -0.2723  0.0439 -0.1474
    1W        W59670   6.449  11.750   2.170 -0.3704 -0.0155  0.0860
    1W        W59671  24.441  14.278   1.958 -0.1163  0.1414 -0.1101
    1W        W59672  16.576  15.079   9.629  0.4946 -0.1648  0.1084
    1W        W59673   4.275   6.799   2.047  0.0600 -0.1935  0.0809
    1W        W59674  15.259  13.407   0.935 -0.1440  0.1086  0.0185
    1W        W59675   9.140  27.746   7.050 -0.0939 -0.0875  0.1610
    1W        W59676   9.572   3.463   1.997 -0.1805 -0.1056 -0.0693
    1W        W59677  19.323   1.066   7.326  0.1589 -0.0259 -0.1425
    1W        W59678  24.783  23.653   8.496 -0.1373  0.2296  0.1839
    1W        W59679   8.912  21.472   8.019  0.1788 -0.0810 -0.1230
    1W        W59680   9.146   9.392   2.428 -0.0262 -0.1257  0.2117
    1W        W59681  19.046  25.886   9.932  0.3909 -0.0313 -0.0017
    1W        W59682  23.593  16.573   0.864  0.1122 -0.2257  0.0960
    1W        W59683   9.751   8.975   6.933 -0.0111  0.0627  0.1121
    1W        W59684  18.021  17.416   7.736 -0.1398  0.2246  0.0690
    1W        W59685   4.404  22.890   8.116  0.3975 -0.0494  0.1128
    1W        W59686  15.759   2.519   0.510 -0.1462  0.0264 -0.2103
    1W        W59687  18.791   5.894   0.139 -0.0667 -0.0974 -0.0575
    1W        W59688   1.525   8.914   9.768 -0.3358  0.2168  0.0522
    1W        W59689   1.344  10.639   8.542 -0.0524  0.0773 -0.2420
    1W        W59690  10.017  25.630   8.874  0.0489 -0.0271 -0.4607
    1W        W59691  23.755   1.793   9.265  0.0867 -0.2330  0.0601
    1W        W59692  27.307   0.057   2.751 -0.4321 -0.0047  0.0132
    1W        W59693  11.824  14.307   1.968 -0.2385  0.0271 -0.0851
    1W        W59694  14.528  14.746   6.639 -0.0178 -0.3391  0.3154
    1W        W59695   0.868  27.859   9.885 -0.0154  0.2444  0.1029
    1W        W59696  26.861   0.692   1.458 -0.0625 -0.3924 -0.0901
    1W        W59697  24.518   2.009   0.385  0.2464 -0.0747 -0.1604
    1W        W59698   3.021  26.689   3.781  0.1452  0.3001 -0.1929
    1W        W59699  27.589  25.005   2.747 -0.1132  0.2325 -0.0170
    1W        W59700  27.508   2.964   4.350  0.1626  0.1996 -0.1652
    1W        W59701  26.696   1.118   2.303  0.0825 -0.1183  0.0949
    1W        W59702   0.696  15.173   2.108 -0.0988  0.1469 -0.1132
    1W        W59703  18.636   6.462   7.214  0.1537  0.1249  0.0202
    1W        W59704  25.246  17.630   3.016 -0.0882  0.3528 -0.0668
    1W        W59705  24.931  18.732   9.119 -0.3061 -0.2316 -0.0003
    1W        W59706  26.075   9.449   1.315  0.0966 -0.0311  0.2631
    1W        W59707  12.329   3.073   0.452 -0.1156  0.1500  0.0017
    1W        W59708  27.603  25.939   0.833  0.1414  0.4894  0.0054
    1W        W59709  14.856   6.769   1.520  0.1547  0.3018  0.0119
    1W        W59710  16.695  11.652   9.993  0.0481 -0.0850  0.2463
    1W        W59711  23.407  28.498   9.724 -0.1878  0.3713  0.0900
    1W        W59712   9.278   3.045   2.909  0.1598  0.0804 -0.0483
    1W        W59713   7.447  17.695   1.272 -0.1545  0.1960 -0.0364
    1W        W59714  25.647  21.469   0.019 -0.3940 -0.0146 -0.1751
    1W        W59715  25.639  19.254   9.426  0.0419  0.1587 -0.1217
    1W        W59716  26.724  19.438   2.232  0.0913 -0.0530 -0.1432
    1W        W59717  16.235   3.288   0.207 -0.0938 -0.1838  0.0503
    1W        W59718  13.711  25.828   2.634 -0.1338  0.3010  0.2518
    1W        W59719  17.842  26.061   1.944  0.0783  0.2083 -0.0669
    1W        W59720  18.926   1.567   8.395 -0.0071 -0.0787 -0.0529
    1W        W59721  11.941   7.501   6.579  0.1369 -0.1059  0.0096
    1W        W59722  26.490  15.310   9.196 -0.4241 -0.2263  0.1221
    1W        W59723   9.456  19.035   9.407  0.0855 -0.5003 -0.3726
    1W        W59724  24.139  25.454   8.533  0.1595 -0.0650  0.0151
    1W        W59725   0.702  13.880   7.565 -0.3333 -0.0799  0.0603
    1W        W59726   6.545  21.831   0.024  0.1299  0.0198  0.0980
    1W        W59727   4.022  11.052   7.822  0.1182 -0.4268  0.2122
    1W        W59728  19.252  24.762   1.387  0.0382  0.2897 -0.1167
    1W        W59729  16.078  19.717   0.593 -0.1333  0.1552  0.1117
    1W        W59730   7.978  23.544   8.112 -0.1879 -0.0977  0.2994
    1W        W59731   6.161   0.052   8.808  0.5794  0.2323 -0.1387
    1W        W59732  27.221  12.210   2.364  0.0038 -0.2884  0.1395
    1W        W59733  17.420   6.898   7.387 -0.0722  0.1344  0.1080
    1W        W59734   6.073  12.914   1.416  0.2420 -0.1111  0.0359
    1W        W59735  26.292  27.294   0.882  0.0952 -0.1426  0.0546
    1W        W59736  20.782  17.746   7.716 -0.0705 -0.3754 -0.0274
    1W        W59737  21.301  24.108   8.259  0.0141 -0.0760 -0.1419
    1W        W59738  17.592   7.676   7.476  0.3142  0.0009 -0.0703
    1W        W59739   4.409  13.849   9.966 -0.2538 -0.3084  0.2791
    1W        W59740  20.459  18.465   9.270  0.1412 -0.0498  0.1715
    1W        W59741  15.574  22.246   9.759 -0.1288 -0.3528  0.1023
    1W        W59742  26.715  14.042   4.217 -0.0307  0.0084  0.0803
    1W        W59743  21.544   8.890   7.237 -0.1334 -0.1112 -0.0764
    1W        W59744   3.008  10.606   9.372  0.1129  0.0141  0.1909
    1W        W59745   2.628   4.253   2.298 -0.0131 -0.0820  0.0638
    1W        W59746  19.597   7.759   9.926 -0.0235  0.0953 -0.0469
    1W        W59747   5.521  21.827   9.027  0.0055  0.1269  0.0745
    1W        W59748  28.314   0.578   1.700  0.0570  0.4056  0.2911
    1W        W59749  22.378  28.324   2.453  0.0992 -0.0881 -0.2126
    1W        W59750  24.819  23.603   9.006  0.1774 -0.1971  0.0387
    1W        W59751   0.278   0.807   8.433  0.1394  0.1630 -0.1216
    1W        W59752  15.421  18.982   2.526 -0.0273  0.2037 -0.0416
    1W        W59753   2.963   5.663   7.841 -0.0190 -0.2509 -0.0733
    1W        W59754  25.891  21.266   2.032 -0.1639 -0.0365 -0.0707
    1W        W59755  13.643   7.727   0.498  0.3233 -0.2296 -0.2493
    1W        W59756   8.472  25.709   9.382 -0.0505  0.0060  0.2785
    1W        W59757  15.176  21.258   2.506 -0.0851 -0.0852 -0.0350
    1W        W59758   2.738  23.316   8.536 -0.0726  0.3095 -0.1957
    1W        W59759  24.235   5.630   9.321 -0.1533 -0.0293 -0.1766
    1W        W59760  20.864  11.666   1.941 -0.1822 -0.1201  0.4039
    1W        W59761  25.434  15.839   2.262  0.2505  0.0725 -0.1935
    1W        W59762  16.458  12.687   8.888 -0.0495  0.0908 -0.2779
    1W        W59763  24.637  21.682   2.757 -0.0628  0.0221 -0.0772
    1W        W59764  11.257   7.574   7.127  0.1787 -0.1744  0.1704
    1W        W59765  11.349   8.530   6.347 -0.4296  0.3076  0.0377
    1W        W59766  12.736   5.068   1.178  0.3372 -0.0858 -0.1359
    1W        W59767  26.294  27.841   9.916 -0.1585 -0.0396 -0.1800
    1W        W59768   7.338  28.695   8.078 -0.0254 -0.0197  0.1039
    1W        W59769   6.910   8.673   9.579 -0.0861 -0.0922  0.1648
    1W        W59770  24.636  10.349   8.869 -0.1079 -0.2807  0.1191
    1W        W59771   5.031  23.922   9.658 -0.0826 -0.0768  0.0114
    1W        W59772  13.315   1.115   1.807  0.2127  0.1157  0.0605
    1W        W59773  11.322  14.828   7.359  0.3225 -0.0120  0.0862
    1W        W59774   4.417   7.565   1.428 -0.5071  0.1372 -0.0780
    1W        W59775   6.887  28.020   2.924  0.1487 -0.0256  0.1523
    1W        W59776   5.585  25.935   8.160 -0.0040 -0.0053 -0.0344
    1W        W59777   2.727   3.221   9.689  0.0290  0.2195  0.2556
    1W        W59778   1.572   5.178   2.560  0.0252  0.0742 -0.5394
    1W        W59779  28.407   7.412   2.509  0.1820  0.1490  0.3435
    1W        W59780  27.052   3.956   9.417 -0.0603  0.0442  0.0448
    1W        W59781  27.172   7.244   2.233  0.0701  0.0504  0.2415
    1W        W59782   8.950  17.111   7.746  0.2581  0.0413 -0.3403
    1W        W59783   0.015  20.549   9.199 -0.0738 -0.2610 -0.1882
    1W        W59784  23.361  22.959   8.560 -0.0443 -0.0023  0.3257
    1W        W59785  28.858  13.393   7.590  0.3026  0.0914 -0.1265
    1W        W59786  20.468  27.162   1.800  0.0851 -0.0723 -0.0271
    1W        W59787  24.760  17.167   6.787 -0.0408 -0.2783  0.1117
    1W        W59788  17.878   2.716   7.517  0.2868  0.1316  0.0238
    1W        W59789   9.896  26.800   1.424  0.2608 -0.1096 -0.2301
    1W        W59790  23.389   1.655   8.451  0.1380  0.0562 -0.1567
    1W        W59791  16.654  22.776   6.802 -0.1174 -0.0224 -0.2986
    1W        W59792  16.933  14.915   8.897  0.0746  0.0278 -0.1906
    1W        W59793  21.001   2.393   7.992  0.0113 -0.1086  0.2624
    1W        W59794   3.636   1.331   2.422  0.1822 -0.2782  0.1416
    1W        W59795   0.490   4.462   9.287 -0.3135 -0.1856  0.1188
    1W        W59796   8.543   8.341   6.788  0.3187  0.0526  0.1023
    1W        W59797   9.590   9.760   9.559  0.1539  0.1048  0.0416
    1W        W59798  14.604  28.763   1.648 -0.0940  0.2675  0.0544
    1W        W59799  24.282  19.572   3.253  0.1304  0.0427  0.1531
    1W        W59800   0.514   6.408   1.935  0.1750 -0.1696 -0.1238
    1W        W59801  18.314  16.052   1.907 -0.0478 -0.0066  0.0535
    1W        W59802   9.001  25.128   8.622 -0.0777  0.0467 -0.1692
    1W        W59803  23.550   4.690   7.046 -0.2636  0.1809 -0.0250
    1W        W59804  18.318  11.656   6.643  0.0146 -0.0414 -0.0589
    1W        W59805   0.117  14.798   9.828 -0.0225  0.1776  0.1572
    1W        W59806  19.371  11.464   7.265  0.1421 -0.0586  0.3398
    1W        W59807   4.993   5.991   8.707  0.0459 -0.0080  0.5151
    1W        W59808   8.879   4.133   1.864  0.0713 -0.2127  0.1110
    1W        W59809  26.059   5.862   2.914 -0.1084 -0.2880 -0.0337
    1W        W59810  15.360   0.688   9.970  0.0662  0.1950 -0.1768
    1W        W59811  16.689  22.322   8.928  0.4173  0.0509 -0.0107
    1W        W59812  19.389  14.489   7.120  0.1149  0.2146 -0.0116
    1W        W59813   7.862   3.516   2.633 -0.0463 -0.0055  0.0533
    1W        W59814   2.637  24.454   8.553 -0.2583  0.1148 -0.1145
    1W        W59815   9.321   7.438   7.852 -0.3238 -0.1085  0.4728
    1W        W59816   9.649  16.688   1.184 -0.0253 -0.2660 -0.1419
    1W        W59817  28.430  23.886   8.280  0.0178  0.1070  0.3438
    1W        W59818  25.501   8.467   1.305 -0.4242  0.4518 -0.0421
    1W        W59819  20.208  14.293   6.056 -0.3008 -0.2696 -0.1354
    1W        W59820  16.389  17.614   8.457 -0.0352 -0.0129  0.2294
    1W        W59821  27.853  13.332   1.637 -0.0498  0.0802  0.1510
    1W        W59822  21.687  26.792   9.963  0.1847  0.0672 -0.0097
    1W        W59823  22.504   8.957   9.924  0.1103 -0.1770  0.0315
    1W        W59824  10.360  27.610   9.528 -0.3483  0.0376 -0.1548
    1W        W59825  10.321  25.245   1.526  0.2150 -0.1044 -0.0877
    1W        W59826  21.601  14.783   0.688 -0.3260  0.0701 -0.3346
    1W        W59827  12.306  18.096   2.486  0.1781 -0.1037 -0.0714
    1W        W59828  18.523  13.612   9.717 -0.3719  0.0966  0.0535
    1W        W59829  28.216   6.454   9.112 -0.0359  0.1438  0.1824
    1W        W59830   6.983  28.646   1.663  0.0374 -0.0390  0.1793
    1W        W59831   2.498  21.761   2.302  0.3853 -0.1854 -0.0555
    1W        W59832   8.274  28.667   1.134 -0.3850  0.1997 -0.1879
    1W        W59833   0.806   3.115   1.564  0.0869  0.1450 -0.0992
    1W        W59834   8.660   8.877   0.711 -0.0881  0.0932  0.1211
    1W        W59835  21.972  14.234   7.399 -0.4217 -0.3264 -0.0683
    1W        W59836  24.200  24.765   7.220 -0.0310  0.0541  0.2821
    1W        W59837  23.084  21.818   2.533  0.1511  0.3326  0.1472
    1W        W59838  26.443  12.990   6.974 -0.4043 -0.1730  0.0756
    1W        W59839   7.919  27.294   0.176 -0.0026  0.0863 -0.2854
    1W        W59840  23.452   8.818   0.272  0.0476 -0.1019  0.0515
    1W        W59841   0.950   0.648   0.190 -0.0092 -0.2031  0.0631
    1W        W59842  21.727  22.016   2.297  0.2499  0.3455  0.0938
    1W        W59843  14.767   2.222   9.396  0.0602 -0.0792  0.0753
    1W        W59844  23.056  27.682   2.873  0.2261  0.1223 -0.0912
    1W        W59845  18.583  19.113   0.312  0.0520 -0.1070 -0.0217
    1W        W59846   9.558   5.633   7.383 -0.0788  0.0741 -0.1879
    1W        W59847  10.794   8.441   1.935 -0.0325 -0.0327 -0.1505
    1W        W59848   0.131  13.401   2.113 -0.2209  0.4294 -0.3336
    1W        W59849  24.825  17.923   3.166  0.0634  0.1820  0.0847
    1W        W59850   6.622  23.322   7.543 -0.4257 -0.1280 -0.2313
    1W        W59851  20.974  15.383   9.510  0.0795 -0.2376 -0.0707
    1W        W59852   7.543   9.193   3.138  0.3016 -0.0291 -0.2081
    1W        W59853  20.635   9.789   0.992  0.0977 -0.0030 -0.1625
    1W        W59854   2.049  23.460   2.436 -0.0117  0.0541 -0.1323
    1W        W59855   9.716  19.735   8.122 -0.1414 -0.3610  0.1110
    1W        W59856  21.909  19.151   9.303  0.1432 -0.1367  0.0801
    1W        W59857  10.904  12.464   9.621  0.4496  0.4093 -0.0710
    1W        W59858  27.659  17.330   1.822 -0.0864  0.1779 -0.2561
    1W        W59859  23.247   5.034   8.739  0.1144  0.1524 -0.0962
    1W        W59860   1.085  13.078   7.529 -0.4479 -0.3004 -0.0774
    1W        W59861   9.458  22.272   9.828 -0.1345  0.1226 -0.1745
    1W        W59862   6.429   4.443   0.423 -0.1989  0.1103 -0.1770
    1W        W59863  18.228  21.527   7.389 -0.0496  0.2340 -0.1409
    1W        W59864  17.187  14.204   2.480 -0.2070 -0.1061  0.0391
    1W        W59865  14.471   4.570   7.980  0.3243  0.2300 -0.0879
    1W        W59866   2.816  17.259   9.603  0.2451 -0.2760  0.1056
    1W        W59867  18.136   5.800   0.801  0.0803 -0.0385 -0.1357
    1W        W59868   4.154  24.831   1.047  0.0283 -0.1591  0.1355
    1W        W59869  18.587  27.372   0.021 -0.0952 -0.1514 -0.0510
    1W        W59870  18.469  28.749   9.198  0.1745 -0.1158 -0.0794
    1W        W59871  15.233   0.909   2.224 -0.0782 -0.0381 -0.0072
    1W        W59872  16.883   9.990   9.177  0.0319  0.0548 -0.0512
    1W        W59873  24.429  14.121   7.318  0.1549  0.0669  0.2535
    1W        W59874   9.356  12.619   1.259  0.2228 -0.2019  0.0859
    1W        W59875  25.182  28.801   1.448  0.0798 -0.0683  0.1923
    1W        W59876  10.473  22.086   1.474 -0.1128  0.0693  0.1586
    1W        W59877  22.386  23.376   0.676  0.3107 -0.1105  0.0619
    1W        W59878   5.918   6.679   7.641 -0.0740  0.3204 -0.1939
    1W        W59879   8.511  21.472   3.754  0.0072  0.1878 -0.1031
    1W        W59880  24.424  22.385   0.308 -0.0941  0.1036  0.0969
    1W        W59881  28.206  23.443   8.697 -0.1829 -0.1368 -0.2036
    1W        W59882   8.793  16.082   0.480 -0.3460  0.2335 -0.2455
    1W        W59883   7.064  20.520   8.690 -0.0167  0.3282 -0.3608
    1W        W59884  19.311   4.486   7.318 -0.0497 -0.1045 -0.0009
    1W        W59885  24.293  27.819   1.480 -0.1241 -0.0612 -0.0845
    1W        W59886   1.662  13.535   3.989 -0.3864  0.2620  0.0727
    1W        W59887   4.017  11.538   7.617 -0.0265  0.1192 -0.0460
    1W        W59888  25.135   9.666   2.666 -0.3947 -0.4742 -0.0842
    1W        W59889  25.992   4.350   2.610 -0.1006  0.2994  0.1322
    1W        W59890   9.780   4.621   1.857  0.4348  0.0093  0.1049
    1W        W59891  10.481  12.025   7.755 -0.2317 -0.1869  0.2450
    1W        W59892   0.807  11.396   3.898  0.2548 -0.0295  0.0033
    1W        W59893  12.020  28.847   6.666 -0.1007  0.2250 -0.0480
    1W        W59894  14.287   7.569   6.905  0.1622 -0.3939 -0.0114
    1W        W59895   1.764  12.782   3.260  0.0040 -0.2255 -0.1432
    1W        W59896   9.552   9.918   5.944 -0.1859  0.0189  0.3403
    1W        W59897   8.409  20.253   9.699  0.2337 -0.1306 -0.0816
    1W        W59898  12.049  27.871   7.836 -0.1733  0.1314 -0.2240
    1W        W59899  13.686  20.382   9.765  0.0947 -0.1093  0.1259
    1W        W59900  10.199  13.880   0.067  0.0481 -0.0411  0.1747
    1W        W59901  12.042  18.858   7.793  0.0663 -0.0656 -0.1712
    1W        W59902  24.925   4.372   0.036 -0.3009 -0.3263  0.2223
    1W        W59903   8.128  19.506   7.166 -0.0474 -0.0360  0.0261
    1W        W59904   6.651  11.002   8.304 -0.0336  0.1858  0.1172
    1W        W59905  11.822   4.860   0.226  0.1984  0.2742  0.0912
    1W        W59906   7.608  25.317   9.382  0.2057  0.1382 -0.0635
    1W        W59907  11.393   2.885   0.755  0.3791 -0.1259 -0.3288
    1W        W59908   5.337  20.183   9.336 -0.0673 -0.1414 -0.1688
    1W        W59909  20.923  26.980   2.601 -0.0052  0.0999 -0.0453
    1W        W59910  15.131  19.627   8.018  0.1227  0.0320  0.3146
    1W        W59911  20.067  21.283   1.587  0.0255  0.0967 -0.1033
    1W        W59912   8.927   1.307   2.631 -0.3359  0.0013 -0.0656
    1W        W59913  15.873  15.126   1.255  0.2658  0.3089  0.3018
    1W        W59914  21.522  16.545   1.294 -0.1828 -0.1333 -0.0275
    1W        W59915  28.489   6.502   1.484  0.0524 -0.2351 -0.2554
    1W        W59916  24.069  10.395   8.288 -0.1190  0.1710 -0.0198
    1W        W59917   8.919  21.959   9.065  0.1802  0.0343  0.0531
    1W        W59918  24.231   1.901   9.411  0.2245 -0.0997  0.1250
    1W        W59919  15.834   5.019   7.783 -0.0196  0.1763  0.2434
    1W        W59920  15.803  18.448   2.082  0.2582  0.1352  0.1826
    1W        W59921  13.956   6.844   6.437 -0.0438  0.2755  0.0436
    1W        W59922   5.594  21.581   9.949 -0.0076  0.1043  0.2891
    1W        W59923  14.088  12.759   8.482  0.2112 -0.0292  0.0986
    1W        W59924   4.390  19.731   7.064  0.0602 -0.0695 -0.1365
    1W        W59925  13.791  27.395   8.273 -0.0427 -0.1754  0.0141
    1W        W59926   7.701  26.805   2.283  0.2669  0.2600  0.1294
    1W        W59927   9.677  13.850   1.359  0.4190 -0.2246 -0.0662
    1W        W59928   1.257   8.909   8.881 -0.0761 -0.2466 -0.3329
    1W        W59929  24.001  16.129   8.712 -0.0504  0.5333  0.0018
    1W        W59930   7.893  23.109   1.793 -0.1657  0.1863 -0.0517
    1W        W59931   3.874  15.109   0.697 -0.0475 -0.0611 -0.0801
    1W        W59932  19.391   5.449   6.926  0.4241 -0.0136 -0.2887
    1W        W59933   1.950   8.351   1.141  0.0302  0.0355 -0.2203
    1W        W59934  25.311  19.040   1.735 -0.3682  0.0111  0.2657
    1W        W59935   0.015   7.546   3.848  0.0201 -0.2165  0.1616
    1W        W59936   2.895   0.473   1.021 -0.0518  0.0648  0.1537
    1W        W59937  21.555  17.274   8.760 -0.0055  0.2471  0.2990
    1W        W59938   7.724  25.279   7.955  0.0667 -0.0524 -0.4256
    1W        W59939  26.591  19.319   8.191  0.1796 -0.1108  0.1214
    1W        W59940  12.471   8.276   0.647 -0.1202 -0.4260  0.0295
    1W        W59941  12.023  10.254   8.279 -0.0070 -0.0037  0.3400
    1W        W59942  19.992  13.570   1.030 -0.1888 -0.1532  0.0443
    1W        W59943   8.698  19.253   7.986 -0.0590  0.1223  0.4162
    1W        W59944   3.876  17.076   9.667 -0.0469 -0.0215  0.0354
    1W        W59945  12.923  10.597   1.155  0.3202 -0.0882  0.0116
    1W        W59946   0.645   7.465   7.760 -0.1253 -0.3682  0.2778
    1W        W59947  21.248  22.354   1.459  0.2095 -0.2883 -0.0908
    1W        W59948  20.176   5.945   7.094  0.2109 -0.0324  0.2873
    1W        W59949  18.891  11.339   1.372 -0.0191  0.1087  0.2468
    1W        W59950   3.506  19.171   7.717 -0.0127 -0.3315  0.1713
    1W        W59951  11.150  13.350   8.752 -0.1465 -0.0097  0.2292
    1W        W59952   5.649  26.730   3.102 -0.1770 -0.3605 -0.0575
    1W        W59953  12.546   7.271   1.637 -0.0462 -0.1264 -0.1250
    1W        W59954   3.738   1.819   0.564  0.1987  0.1055  0.0427
    1W        W59955   4.150  21.158   7.798  0.0020  0.2238 -0.1077
    1W        W59956  11.091  23.657   8.243 -0.1895  0.3167  0.0483
    1W        W59957  16.095   2.370   8.162  0.1225  0.0738  0.0229
    1W        W59958   6.429  17.248   2.506  0.1809  0.0877 -0.0645
    1W        W59959  26.005   6.451   7.492  0.0850 -0.0431 -0.2266
    1W        W59960  19.746  28.028   7.601 -0.0674 -0.2363 -0.0558
    1W        W59961  25.089   4.796   9.828  0.0752  0.2420  0.0081
    1W        W59962   0.728   3.090   1.034 -0.2195 -0.0540 -0.2749
    1W        W59963   0.275  14.121   0.530 -0.1420  0.2076 -0.0615
    1W        W59964  12.557   1.569   9.878  0.0200  0.2168  0.2389
    1W        W59965  25.192  26.224   0.196 -0.0119  0.0470 -0.2531
    1W        W59966   9.861   7.467   0.102 -0.0621  0.0122 -0.0652
    1W        W59967   1.463   7.317   1.234 -0.0477  0.1487  0.0465
    1W        W59968  21.159   4.829   7.568 -0.0402  0.0606 -0.1595
    1W        W59969   0.046  23.315   7.871 -0.1136 -0.1269  0.4001
    1W        W59970   0.922  25.043   1.944  0.2125  0.2321 -0.2931
    1W        W59971   5.432  19.452   7.147 -0.1078  0.3565 -0.0752
    1W        W59972   6.835   9.070   8.734 -0.0922  0.2919 -0.3344
    1W        W59973  10.819  14.711   1.293  0.1281 -0.1362  0.0127
    1W        W59974   4.159   5.828   1.630  0.1985  0.0730 -0.2020
    1W        W59975   3.838  17.737   7.528  0.1449  0.0393 -0.1644
    1W        W59976   4.198  22.210   0.697  0.1871  0.2869 -0.0045
    1W        W59977  22.937  26.009   2.272 -0.0845 -0.0052  0.0142
    1W        W59978  14.174   5.028   9.114 -0.4474 -0.0886 -0.0114
    1W        W59979   1.401   7.731   8.732 -0.1483  0.2274 -0.0043
    1W        W59980  25.127  11.726   7.669 -0.1615 -0.0144 -0.0546
    1W        W59981   5.071  18.878   9.896  0.1501 -0.2120 -0.0683
    1W        W59982  24.784  10.386   2.024 -0.4405 -0.0017 -0.0281
    1W        W59983  28.070   9.661   3.351  0.3915  0.0734 -0.1239
    1W        W59984  17.730  18.834   9.131  0.0295  0.0326  0.2446
    1W        W59985  24.161  12.192   9.786 -0.0449 -0.1323  0.1407
    1W        W59986  19.400  27.189   7.240  0.1975 -0.1800  0.1565
    1W        W59987   4.552  11.710   0.621 -0.0869 -0.0059  0.1677
    1W        W59988   3.392   5.552   8.934  0.0282 -0.0151  0.0051
    1W        W59989  28.148   0.446   8.755 -0.1127 -0.1827 -0.0296
    1W        W59990   2.208  17.193   9.766  0.0800 -0.2876  0.0067
    1W        W59991  26.492  28.301   9.744  0.1254 -0.2152  0.0676
    1W        W59992   4.962  21.971   1.346  0.2590  0.4826 -0.1194
    1W        W59993  27.938   6.955   0.996  0.1238  0.4789  0.0388
    1W        W59994  28.268  15.931   8.781  0.0396 -0.2923  0.1240
    1W        W59995  27.725   8.749   3.108  0.0887  0.1547 -0.0643
    1W        W59996  17.077  25.694   6.814 -0.4355 -0.2656  0.2199
    1W        W59997   1.885  21.879   8.327  0.2778  0.2204  0.2296
    1W        W59998   0.082   3.551   3.286 -0.0927  0.2320  0.1455
    1W        W59999   4.154  17.363   2.217 -0.2704  0.3774  0.2053
    1W        W60000  18.242   5.904   1.274  0.2086  0.1597  0.1880
    1W        W60001  28.525  14.924   9.245  0.0523  0.1425  0.1225
    1W        W60002  23.494   3.957   9.980 -0.3109 -0.2344  0.1498
    1W        W60003   7.216  25.018   2.066 -0.1403 -0.0340 -0.2645
    1W        W60004  25.434   7.007   8.439 -0.0946  0.0095  0.0703
    1W        W60005  22.724  23.179   1.581  0.0516 -0.2538  0.1769
    1W        W60006  24.036   6.245   9.698  0.1467  0.1742 -0.1597
    1W        W60007  18.392   1.566   9.893 -0.1448 -0.1245 -0.2860
    1W        W60008  23.350  12.148   1.207  0.0781 -0.1167  0.2276
    1W        W60009  18.853   9.516   7.807  0.5581 -0.1313  0.3541
    1W        W60010  21.805  27.338   9.853 -0.0929  0.4001  0.0224
    1W        W60011  16.993  17.182   6.105 -0.4154 -0.0017 -0.0976
    1W        W60012  20.939  19.608   1.663  0.0784  0.0273 -0.0412
    1W        W60013   6.877  10.429   2.193  0.2497 -0.1813 -0.1387
    1W        W60014  24.466  13.343   9.970  0.1138 -0.2074  0.1956
    1W        W60015  15.015   3.958   6.790 -0.1427 -0.1074 -0.3314
    1W        W60016   8.293   7.249   0.866  0.0144 -0.0679 -0.2132
    1W        W60017  13.233  26.146   9.967 -0.2084 -0.1800 -0.0403
    1W        W60018  17.109   1.714   7.377 -0.0908  0.0110  0.2491
    1W        W60019  16.772  20.832   0.249 -0.3199 -0.0148 -0.0152
    1W        W60020   0.456  18.196   9.392  0.0607 -0.0885  0.0230
    1W        W60021  14.372   7.591   9.743 -0.0240 -0.0063  0.1896
    1W        W60022  24.972  19.857   7.847 -0.0731 -0.0623  0.1982
    1W        W60023   4.420  10.214   2.088  0.1297  0.1866 -0.0193
    1W        W60024   2.886  24.481   7.224  0.1493  0.1198  0.1637
    1W        W60025   3.532  15.449   2.378 -0.3426 -0.2472  0.1023
    1W        W60026  13.040   7.379   8.779  0.0589  0.0926 -0.1084
    1W        W60027   1.333  25.202   3.285  0.2962 -0.2053 -0.1160
    1W        W60028  23.260  20.735   0.460 -0.1519 -0.0275  0.0629
    1W        W60029  20.970   5.525   1.277  0.2266 -0.1480  0.0850
    1W        W60030   5.361  20.803   1.046  0.3287  0.0839  0.1771
    1W        W60031   0.279   5.795   7.912 -0.0724  0.2288 -0.1118
    1W        W60032   3.487  14.946   2.426  0.1237 -0.2196 -0.0341
    1W        W60033  28.810   4.203   0.592 -0.2055 -0.2661  0.2121
    1W        W60034  16.417  10.788   7.099 -0.1141  0.2034  0.0150
    1W        W60035  13.386   7.362   2.450  0.1595  0.0515  0.0326
    1W        W60036   7.009  25.258   9.096 -0.1867  0.0200 -0.5089
    1W        W60037   2.658   4.629   9.378  0.1683 -0.3134 -0.2975
    1W        W60038  10.024   6.238   0.104  0.0826  0.0374  0.0148
    1W        W60039  24.565  13.457   8.124  0.2266 -0.0993  0.1556
    1W        W60040  13.776  10.329   9.440  0.0248  0.1034  0.0857
    1W        W60041  26.775  23.520   1.832  0.0826 -0.0031 -0.0379
    1W        W60042  10.246  18.091   0.701 -0.2056  0.3085  0.0606
    1W        W60043   8.363  19.221   8.477  0.1552 -0.0171 -0.2445
    1W        W60044  25.567   4.601   2.682  0.1181 -0.0745 -0.4776
    1W        W60045   4.441   7.774   9.436 -0.3980  0.1364  0.0954
    1W        W60046   6.215   6.623   2.503  0.2281  0.1311 -0.0280
    1W        W60047  12.970  25.613   7.457  0.1360  0.0219 -0.0193
    1W        W60048  23.051   3.274   1.254 -0.2137 -0.1030  0.3036
    1W        W60049  12.958  16.947   6.807 -0.0144  0.1378  0.1062
    1W        W60050  26.999   5.353   0.780  0.1061  0.3878  0.4958
    1W        W60051  24.146  19.709   2.183  0.0823 -0.1279  0.0576
    1W        W60052   3.499  20.742   0.471 -0.1740 -0.0703 -0.1691
    1W        W60053   3.512  23.092   0.221  0.1991  0.0551 -0.1263
    1W        W60054   8.352  13.972   9.400  0.0383  0.2297  0.2090
    1W        W60055  19.049  13.979   7.853 -0.0662 -0.5231  0.1880
    1W        W60056  21.047  21.636   8.396 -0.2141  0.0309  0.1308
    1W        W60057  20.852  15.030   8.804  0.1465  0.1020 -0.0185
    1W        W60058   3.183  25.686   3.063  0.0181  0.0432  0.0152
    1W        W60059   8.751   1.574   1.136  0.1042 -0.2095 -0.1713
    1W        W60060  25.264  21.608   8.182 -0.2082 -0.0811 -0.1297
    1W        W60061  18.030  19.329   2.932 -0.0019 -0.1958  0.0739
    1W        W60062  18.708  16.163   2.376  0.2983  0.1448  0.2045
    1W        W60063  25.935  26.552   7.523  0.1985 -0.0061 -0.1469
    1W        W60064   9.676   8.187   7.563  0.1847 -0.0023 -0.0335
    1W        W60065  26.035  10.912   8.758 -0.3510 -0.4711 -0.4006
    1W        W60066   2.655  21.321   9.029 -0.0346 -0.0827  0.0377
    1W        W60067  17.468  11.482   9.193 -0.2405  0.1589 -0.1000
    1W        W60068  12.432  26.277   1.369  0.4784 -0.0325 -0.0274
    1W        W60069  16.467  18.020   8.778 -0.2168  0.1533 -0.0485
    1W        W60070   6.471  15.824   8.723 -0.3003 -0.2668 -0.2186
    1W        W60071  11.017  26.227   2.426  0.2174  0.1072  0.0331
    1W        W60072  13.131  10.525   8.606 -0.1481  0.1745  0.1417
    1W        W60073   8.117  11.956   6.831 -0.3882  0.1487 -0.2304
    1W        W60074   9.383  28.751   9.240  0.1739 -0.2423  0.0291
    1W        W60075  27.478  25.167   7.576  0.0076  0.0195  0.0187
    1W        W60076   1.700   8.736   8.861 -0.1432 -0.0401 -0.0381
    1W        W60077   0.427  16.339   9.295  0.1121 -0.0390 -0.0016
    1W        W60078  23.542  25.396   0.260 -0.0922  0.2820  0.3192
    1W        W60079  28.577  21.733   2.209 -0.0165 -0.4476 -0.0496
    1W        W60080  14.004  23.939   9.195  0.0859 -0.1751 -0.1989
    1W        W60081  27.680   9.308   7.053  0.1124  0.2792 -0.2252
    1W        W60082  11.263  14.955   1.533  0.3094  0.1169 -0.0414
    1W        W60083  21.071   5.477   9.602 -0.2944  0.0952 -0.1949
    1W        W60084   7.955  11.499   0.374  0.0658 -0.0881 -0.2781
    1W        W60085   2.213  16.376   0.172  0.1379 -0.1363  0.3056
    1W        W60086  19.682  10.320   8.468 -0.1650  0.0568  0.1564
    1W        W60087  18.182  18.622   1.729 -0.2432 -0.0645  0.1377
    1W        W60088   1.390  11.278   9.077 -0.3276  0.3081 -0.0204
    1W        W60089  27.617  15.395   1.029  0.0559 -0.0386  0.0794
    1W        W60090   3.131  14.176   2.854 -0.1579  0.2889 -0.3437
    1W        W60091   0.386  18.670   9.499  0.2384 -0.2218  0.1141
    1W        W60092  14.218  18.170   0.843  0.0807 -0.3037  0.3104
    1W        W60093  13.141  10.702   0.042  0.0384 -0.0926 -0.0897
    1W        W60094   9.991  22.439   9.732  0.0660  0.0668 -0.2673
    1W        W60095   3.873  18.262   2.545 -0.0622  0.0490  0.1415
    1W        W60096  18.447   0.268   9.545  0.1151  0.1645  0.1202
    1W        W60097   4.736  10.492   1.777  0.2671  0.0627  0.0528
    1W        W60098  25.170  23.251   0.299  0.1028  0.1644  0.1467
    1W        W60099  16.340  22.457   0.337  0.0006  0.0102  0.0180
    1W        W60100  18.800  18.401   0.432 -0.1804  0.3556 -0.0069
    1W        W60101   7.088   0.805   1.252  0.2030 -0.5988 -0.0260
    1W        W60102  24.501  16.773   8.281  0.2412 -0.3211  0.0711
    1W        W60103   8.989  13.134   7.711 -0.1196  0.1144 -0.2547
    1W        W60104  22.374  20.420   7.837 -0.0575  0.1536 -0.2778
    1W        W60105  20.525  16.147   1.881 -0.0206 -0.0234 -0.2883
    1W        W60106   3.704  12.277   7.816  0.0361  0.2866 -0.0515
    1W        W60107  25.221  17.176   7.682  0.1287 -0.1597  0.3013
    1W        W60108  26.767   7.946   4.003 -0.2333 -0.0691  0.1996
    1W        W60109  22.991  25.679   0.217 -0.2666  0.3428  0.3168
    1W        W60110  13.181  24.888   8.028 -0.0337 -0.3431 -0.0538
    1W        W60111   1.246  17.382   3.439  0.1339 -0.3990  0.0404
    1W        W60112   9.393   6.355   8.004  0.1763 -0.2294 -0.0035
    1W        W60113  12.822   8.473   9.800  0.1289  0.0711  0.1661
    1W        W60114   6.990  12.000   9.443 -0.1917  0.0202 -0.0633
    1W        W60115  21.536  14.575   9.727 -0.4467  0.3037 -0.1560
    1W        W60116   3.678   5.734   0.276 -0.0839  0.1342  0.0871
    1W        W60117  17.000  26.757   7.870  0.0502  0.1071  0.0294
    1W        W60118   7.642   1.663   2.597 -0.2747 -0.1223  0.0955
    1W        W60119  19.517  12.582   7.891  0.0997 -0.2650  0.0102
    1W        W60120  28.464   7.218   3.916  0.0652 -0.1224 -0.0345
    1W        W60121   8.332  18.339   1.667 -0.2015  0.0518  0.2021
    1W        W60122  19.491  21.065   9.228 -0.0689 -0.0239  0.1335
    1W        W60123   1.627  24.489   3.978  0.0202  0.0145  0.1941
    1W        W60124  25.544   5.618   9.924  0.0246  0.0533 -0.0818
    1W        W60125  13.232  26.119   7.293  0.0583  0.0934  0.1029
    1W        W60126  15.289  22.299   7.919 -0.1617 -0.0570 -0.0565
    1W        W60127   1.891  17.164   7.248 -0.0051 -0.0436  0.2504
    1W        W60128  21.231  27.365   9.315 -0.1048  0.2784  0.0930
    1W        W60129   8.447  27.962   9.046  0.2014 -0.0238 -0.1019
    1W        W60130  25.270  24.988   0.261 -0.0987 -0.0170 -0.1699
    1W        W60131  18.531   9.404   5.486 -0.0697  0.0006  0.2233
    1W        W60132  19.971  13.005   9.192 -0.0928  0.1005 -0.0709
    1W        W60133   8.774  11.780   0.244  0.1733 -0.2383  0.1678
    1W        W60134  22.728  22.330   8.248 -0.2053 -0.1256  0.1455
    1W        W60135  25.919  19.687   0.592  0.1070 -0.0518  0.2008
    1W        W60136  10.750  16.180   7.703  0.1544  0.0546 -0.2006
    1W        W60137  11.670  12.270   6.924  0.2435  0.3181  0.1315
    1W        W60138   0.141   0.029   8.670 -0.0277 -0.6950  0.2360
    1W        W60139  20.231  13.976   7.878 -0.2207  0.2032  0.0264
    1W        W60140  21.670  27.790   0.012  0.0973  0.2780 -0.1745
    1W        W60141   3.398   4.288   8.230  0.0283 -0.0488  0.4462
    1W        W60142  12.638  19.974   7.790 -0.1725 -0.0444 -0.2455
    1W        W60143  24.839   7.553   2.672  0.3955  0.1395 -0.1389
    1W        W60144  23.534  13.373   6.710  0.0596  0.1716  0.0263
    1W        W60145  23.787  11.787   6.891 -0.0286  0.1728 -0.1597
    1W        W60146  28.042  21.045   3.841  0.0155  0.1584  0.2259
    1W        W60147   9.551  21.798   9.406 -0.0113 -0.1878 -0.2326
    1W        W60148   8.218  20.006   8.019 -0.0334  0.0839  0.0341
    1W        W60149  20.417  18.487   1.841  0.0113 -0.2027  0.2030
    1W        W60150   5.676  16.681   1.028 -0.1290 -0.1233  0.1988
    1W        W60151  26.362  21.457   2.823  0.3829  0.0948 -0.0816
    1W        W60152  15.849  17.529   1.848  0.1138 -0.0283 -0.0433
    1W        W60153   6.112   8.862   7.411 -0.3160  0.0003 -0.0935
    1W        W60154  12.724  10.598   1.762  0.1442  0.0670  0.0684
    1W        W60155  22.071   9.737   8.676  0.3684  0.0611 -0.0862
    1W        W60156   3.778  13.582   7.155 -0.0727 -0.2437 -0.3333
    1W        W60157   6.545   3.640   0.466 -0.1984  0.1116  0.0393
    1W        W60158  25.608  11.852   0.209  0.1873  0.0705  0.1254
    1W        W60159   2.061  24.815   3.867  0.1903 -0.1560  0.1823
    1W        W60160  14.620  16.847   6.766  0.0840 -0.1563  0.2346
    1W        W60161  17.232  23.999   1.917 -0.1859 -0.0867 -0.3514
    1W        W60162  26.431   7.062   8.302  0.2600  0.2203 -0.1999
    1W        W60163  26.682  22.999   8.943 -0.1403 -0.1223  0.0108
    1W        W60164  23.480  11.640   8.227 -0.0322 -0.0828  0.0703
    1W        W60165  21.940  26.754   2.568  0.0546  0.2026  0.2427
    1W        W60166  18.557  12.129   7.806  0.2882  0.1326  0.2563
    1W        W60167   3.232   7.281   1.556  0.1400  0.0084 -0.0801
    1W        W60168   2.051  20.459   3.517  0.0298 -0.0727  0.2186
    1W        W60169  26.031  24.983   2.766 -0.0801  0.1344 -0.2887
    1W        W60170   0.024  13.445   2.922  0.0573  0.0104 -0.0039
    1W        W60171   6.850   9.884   0.191 -0.2820 -0.1349 -0.1085
    1W        W60172  12.999   7.779   2.147 -0.1986 -0.1833  0.3122
    1W        W60173   1.895   5.653   9.629 -0.0374 -0.1920  0.3284
    1W        W60174  11.808   9.473   8.029  0.2290  0.1262  0.0289
    1W        W60175   9.822  17.615   6.628  0.1270 -0.0834  0.0037
    1W        W60176  26.721  19.761   8.567 -0.0420 -0.1389  0.1290
    1W        W60177  25.499  13.755   3.126 -0.3788  0.1098  0.1257
    1W        W60178   4.400  25.820   2.686 -0.2456 -0.1258  0.1308
    1W        W60179  17.131   5.303   0.711  0.5132  0.2627  0.0452
    1W        W60180   2.367   6.192   9.460 -0.1054 -0.1321 -0.0316
    1W        W60181   0.588  15.527   7.993  0.2328 -0.1176  0.0983
    1W        W60182  23.686   8.261   7.495  0.0665 -0.0352 -0.0491
    1W        W60183  22.232  21.111   8.909 -0.1510 -0.1933 -0.0893
    1W        W60184  16.859  14.333   9.098 -0.1490 -0.0236  0.0863
    1W        W60185  17.164  16.725   2.088  0.1004 -0.0907  0.1010
    1W        W60186  18.927  14.019   0.185 -0.1299 -0.2679  0.1059
    1W        W60187  28.544   0.432   0.549 -0.0635  0.0045  0.0770
    1W        W60188   3.240  20.064   8.600  0.0595 -0.0854  0.1376
    1W        W60189   1.393   8.333   8.706  0.0705 -0.3776  0.3577
    1W        W60190  10.024  11.504   0.908  0.1683  0.0568  0.0438
    1W        W60191  16.156  24.663   1.158  0.0202  0.0839 -0.0948
    1W        W60192   7.933  24.693   8.740  0.2145  0.1732 -0.4725
    1W        W60193   2.629   8.470   1.587  0.0617  0.0070  0.0759
    1W        W60194   3.776  27.410   2.838  0.3101 -0.1309 -0.3224
    1W        W60195  12.927  21.082   2.617 -0.2284 -0.4040  0.1617
    1W        W60196   8.092   9.580   6.977  0.1565  0.1949 -0.0632
    1W        W60197  14.217  16.129   1.841 -0.1345  0.2369  0.2745
    1W        W60198  10.373  21.197   2.481 -0.3185 -0.0036  0.0113
    1W        W60199   6.499   1.575   2.734 -0.0113  0.1409 -0.1022
    1W        W60200  24.319  23.351   1.948  0.2392  0.0407 -0.0620
    1W        W60201  14.090   3.266   8.264 -0.0457  0.0753  0.2262
    1W        W60202  12.052  28.831   8.649 -0.2657  0.0650  0.1197
    1W        W60203   7.603  22.361   7.626  0.0965  0.3213  0.1030
    1W        W60204   9.795  23.828   2.031  0.0689 -0.1248 -0.0528
    1W        W60205  28.850   8.516   1.209 -0.3050  0.0344  0.0270
    1W        W60206   0.390  18.207   8.792 -0.3072 -0.0269  0.0619
    1W        W60207  13.303   0.258   8.478 -0.1414  0.1487 -0.4174
    1W        W60208   9.604  24.577   2.344  0.3126 -0.4156 -0.1771
    1W        W60209   0.039   0.558   0.900  0.2591  0.0884  0.0576
    1W        W60210   5.987   8.329   6.841  0.1353  0.0161 -0.1582
    1W        W60211  15.131   1.756   0.711 -0.2353  0.1291  0.1337
    1W        W60212   8.204  14.349   0.678 -0.3784 -0.2356  0.2822
    1W        W60213   2.141  28.417   7.962  0.2901 -0.1882  0.0276
    1W        W60214  27.123   9.583   8.901 -0.1250  0.1123  0.0207
    1W        W60215   8.438   8.521   0.988  0.4470 -0.3781  0.0029
    1W        W60216   2.206  21.609   2.715 -0.2770  0.0923 -0.0413
    1W        W60217  23.485   0.538   8.867  0.0890  0.1751  0.2598
    1W        W60218  18.390  10.789   0.571  0.2886  0.2274  0.0250
    1W        W60219  13.553   4.425   7.936  0.1631  0.2027 -0.1457
    1W        W60220  12.932  23.494   9.719  0.1774  0.1271  0.1010
    1W        W60221   3.464   4.323   1.165  0.1132  0.1708 -0.3550
    1W        W60222   2.649  28.474   9.833  0.2511  0.2233  0.0480
    1W        W60223  13.622  15.071   9.343  0.0412 -0.1264  0.1242
    1W        W60224   0.521   4.217   3.501  0.0700  0.0861  0.1810
    1W        W60225  10.506   8.022   9.965  0.2681 -0.2208 -0.0576
    1W        W60226  19.040  27.855   1.278  0.1717 -0.1279  0.1099
    1W        W60227  24.575   6.547   2.233  0.0652  0.1432 -0.0616
    1W        W60228  25.312  26.889   8.846  0.0384  0.0452  0.0191
    1W        W60229   9.081  24.491   7.577  0.0918 -0.0799  0.0890
    1W        W60230  18.746   9.922   9.441 -0.0759 -0.1269 -0.1295
    1W        W60231  23.255  27.319   1.952  0.0561  0.0672  0.2053
    1W        W60232  27.357  25.385   2.546  0.1653  0.0702 -0.1437
    1W        W60233  28.163   5.749   9.576  0.1495 -0.0106  0.1469
    1W        W60234  20.561   7.085   7.354  0.1247  0.1912 -0.1439
    1W        W60235   7.851  11.737   7.897  0.0935 -0.0054 -0.0925
    1W        W60236   4.609  24.552   7.864  0.0629 -0.2046 -0.1695
    1W        W60237  22.202  19.384   2.729 -0.1689 -0.1922 -0.0216
    1W        W60238   6.306  19.608   9.908 -0.2752 -0.0828  0.1541
    1W        W60239   1.152   8.238   0.830 -0.2983  0.1126 -0.1035
    1W        W60240  20.570   2.096   8.713 -0.0232  0.0002 -0.0991
    1W        W60241  22.354  17.125   7.683 -0.0983  0.1084 -0.4410
    1W        W60242  11.688  12.125   0.023 -0.1817 -0.1691 -0.2239
    1W        W60243  16.365  21.264   8.626  0.0821  0.0143 -0.0944
    1W        W60244  25.303   7.992   9.906 -0.0231 -0.1179 -0.0123
    1W        W60245   7.366  15.263   6.517  0.0688 -0.0387  0.3724
    1W        W60246  10.082  27.489   9.008  0.0516  0.1535 -0.3307
    1W        W60247  23.945  12.789   2.625 -0.1895 -0.0055  0.1019
    1W        W60248   9.564  25.420   7.322  0.2189 -0.1107  0.2052
    1W        W60249  14.840  27.538   2.193 -0.0015 -0.0067  0.2262
    1W        W60250   5.951  19.308   0.851 -0.0086  0.1173 -0.0104
    1W        W60251  28.585  24.317   2.604  0.1032  0.0607 -0.1075
    1W        W60252   0.236  22.328   2.648 -0.0658  0.2048 -0.0168
    1W        W60253  24.043   1.028   0.326 -0.0412  0.0807  0.0313
    1W        W60254  12.570  10.960   6.010  0.1674 -0.0083 -0.1879
    1W        W60255   3.847  15.832   9.307 -0.0154 -0.2023 -0.1418
    1W        W60256  28.039   2.594   9.937  0.2129  0.1199 -0.1022
    1W        W60257  23.933  12.660   7.449 -0.1208 -0.0110  0.3241
    1W        W60258  28.125  16.381   8.542  0.1607 -0.3303  0.0217
    1W        W60259   8.158   1.570   8.976 -0.0294  0.0514  0.1459
    1W        W60260  25.354  13.318   9.849 -0.3146  0.1316 -0.0833
    1W        W60261   6.080   2.926   8.551 -0.0109 -0.0303 -0.0939
    1W        W60262  26.007  11.650   0.703  0.1702  0.0965  0.2310
    1W        W60263  28.053  26.806   2.015 -0.2445  0.0776  0.0014
    1W        W60264   8.486  14.357   1.787 -0.0136 -0.2069 -0.0482
    1W        W60265  13.718   8.471   0.983 -0.3416 -0.0256 -0.2402
    1W        W60266  21.402  28.147   2.424  0.1548  0.0025 -0.5067
    1W        W60267  21.555  10.890   9.158  0.2739  0.0155  0.0907
    1W        W60268  19.952  22.697   9.280 -0.3781  0.1120  0.1534
    1W        W60269  22.878  20.935   8.990  0.0632  0.2803  0.0859
    1W        W60270  19.634   7.228   0.286 -0.0870 -0.1117 -0.1737
    1W        W60271  11.730   9.969   8.695 -0.0648  0.3896  0.3086
    1W        W60272   3.050   1.970   0.717 -0.0584  0.0210 -0.3850
    1W        W60273  25.808   8.460   3.482  0.3609 -0.1071  0.2028
    1W        W60274  24.405  24.981   8.544 -0.0381 -0.2499 -0.2354
    1W        W60275  21.188  25.277   7.529 -0.2838  0.1547 -0.1874
    1W        W60276  20.001  17.925   2.386  0.1390 -0.1112 -0.0755
    1W        W60277   6.568  28.863   8.468  0.1244 -0.1822  0.1793
    1W        W60278  21.265   5.019   1.216 -0.1094 -0.1335 -0.0317
    1W        W60279  18.184   9.179   9.576 -0.0871  0.0765  0.2144
    1W        W60280   2.570  15.638   0.210  0.4279  0.2255 -0.0037
    1W        W60281  26.715  24.645   8.719  0.0679  0.3430  0.1800
    1W        W60282   5.938  13.051   6.115  0.0127 -0.0063 -0.2997
    1W        W60283  12.435   2.958   8.216 -0.1804 -0.0248 -0.0198
    1W        W60284  25.088  21.777   1.448  0.0380  0.3200 -0.0013
    1W        W60285  17.564  26.825   9.837  0.1717 -0.0816 -0.0511
    1W        W60286  20.550  19.450   7.860  0.0694 -0.0346 -0.5978
    1W        W60287   5.776   2.331   7.896 -0.1394 -0.2313 -0.1280
    1W        W60288  19.181  15.840   8.778 -0.0240 -0.0324  0.1681
    1W        W60289   3.146   3.317   8.725 -0.0260  0.0046 -0.0305
    1W        W60290  20.999  11.632   7.526 -0.0172 -0.2404 -0.2911
    1W        W60291  17.292  15.857   8.923 -0.0125 -0.2307  0.2146
    1W        W60292  11.999  28.717   9.710 -0.1281  0.1308  0.3718
    1W        W60293  25.457  22.020   3.447  0.3147  0.1239 -0.2695
    1W        W60294   0.140  15.081   8.230  0.0287  0.0445  0.1774
    1W        W60295  12.423  27.857   1.016 -0.0673  0.1966 -0.1015
    1W        W60296  17.087  17.058   2.489 -0.1134 -0.0198  0.3978
    1W        W60297   0.142  22.181   3.264  0.4685  0.4148 -0.1402
    1W        W60298  13.388  22.271   1.136  0.0599  0.1706  0.1833
    1W        W60299   2.220  18.729   3.123 -0.2302 -0.1525 -0.1337
    1W        W60300   2.968   3.254   0.480 -0.0737  0.2270 -0.2790
    1W        W60301   1.082   8.323   2.238 -0.0206 -0.0464 -0.2710
    1W        W60302  10.607   8.654   2.891  0.1234  0.2809 -0.0868
    1W        W60303  20.671  13.094   6.572 -0.2687  0.0259 -0.2580
    1W        W60304  25.086   4.615   8.972  0.2634  0.0724  0.0191
    1W        W60305  18.574  23.071   2.022  0.4060 -0.1858 -0.0238
    1W        W60306   3.169   3.341   1.377 -0.2088 -0.4671 -0.2867
    1W        W60307  22.023  17.359   9.589 -0.1961 -0.0292  0.0459
    1W        W60308  12.240  14.479   6.657  0.0945  0.3681  0.4357
    1W        W60309   7.498  17.042   9.405  0.0196 -0.0844 -0.1482
    1W        W60310  27.363  14.580   0.488  0.1708  0.1231 -0.0893
    1W        W60311  18.110   1.329   8.248  0.2118  0.1500 -0.1108
    1W        W60312  24.175  26.899   7.547  0.2198 -0.1523 -0.2876
    1W        W60313  18.875  20.080   2.360  0.0598 -0.4214 -0.0615
    1W        W60314  17.631  15.250   7.624  0.1469 -0.0377  0.0942
    1W        W60315  19.342  18.706   8.290 -0.1816 -0.2179 -0.3140
    1W        W60316  12.888  17.297   2.303 -0.0219 -0.0786 -0.0473
    1W        W60317   5.462  28.760   9.608 -0.3241 -0.0464  0.0514
    1W        W60318  22.696  15.017   0.413 -0.1085  0.0173  0.2312
    1W        W60319   4.203   1.992   9.724 -0.1277 -0.3288  0.0376
    1W        W60320  26.921   3.097   9.329  0.1982 -0.1643  0.1688
    1W        W60321  21.850   0.858   7.922  0.3924  0.1900  0.0543
    1W        W60322   7.274  13.798   2.373 -0.1539 -0.0025 -0.0878
    1W        W60323  16.039  16.427   0.906 -0.0501 -0.3063  0.0532
    1W        W60324  26.527  26.258   9.688  0.2142  0.0053 -0.0993
    1W        W60325  15.289  18.358   1.861 -0.1071 -0.1702 -0.2589
    1W        W60326   5.217   1.228   8.589  0.4246 -0.0562 -0.1624
    1W        W60327   5.309   4.044   2.966  0.3669 -0.1392  0.0647
    1W        W60328  21.865  11.721   1.512 -0.1570  0.3686  0.0170
    1W        W60329  17.221   2.176   0.431 -0.1667  0.0388 -0.1157
    1W        W60330  23.789  17.983   9.169  0.1357 -0.0546  0.0990
    1W        W60331  19.548   5.633   1.511  0.0422  0.3632  0.0838
    1W        W60332  26.648   3.170   8.854  0.0067 -0.1022 -0.0639
    1W        W60333  16.294  17.699   7.874 -0.2324 -0.0184 -0.0808
    1W        W60334  23.953  23.114   3.128  0.0282  0.1693  0.0425
    1W        W60335  11.765  20.690   9.094  0.0499  0.1348  0.0927
    1W        W60336  18.037  26.378   1.577  0.1327 -0.2321 -0.0160
    1W        W60337   4.083  14.013   9.618 -0.3227 -0.0425  0.5856
    1W        W60338  27.510   7.936   8.414  0.1488 -0.0804 -0.1040
    1W        W60339  19.815  19.293   5.912  0.1710 -0.0206  0.0500
    1W        W60340  22.303   4.405   9.306 -0.4065  0.1675 -0.2049
    1W        W60341   7.122   1.411   2.381  0.0491  0.0101  0.1778
    1W        W60342  12.014  11.787   0.360  0.0265  0.0123 -0.0912
    1W        W60343  16.769  21.850   8.223 -0.0113 -0.0241  0.1221
    1W        W60344  16.007  22.985   0.783 -0.3657  0.2187 -0.0631
    1W        W60345   2.299  14.577   0.721  0.3588 -0.1622 -0.3269
    1W        W60346  20.776  15.530   0.025 -0.1025  0.2320  0.2459
    1W        W60347  17.239  10.712   9.729  0.3911 -0.0977 -0.0955
    1W        W60348  17.054   0.933   2.045  0.0779 -0.0508  0.0781
    1W        W60349  27.292  18.531   8.313  0.1148  0.1184 -0.0823
    1W        W60350   1.478  19.653   8.745  0.2075  0.1517  0.1781
    1W        W60351   3.980   9.086   0.686 -0.0330 -0.2593  0.2662
    1W        W60352  22.903   8.670   1.212  0.0316  0.0735  0.0379
    1W        W60353  16.799  28.876   1.158 -0.0814  0.1834  0.0261
    1W        W60354  19.601   3.053   9.479 -0.3931 -0.1444  0.0126
    1W        W60355   5.384   0.622   8.819  0.0418  0.0411  0.1455
    1W        W60356  27.090   8.752   1.095 -0.1267  0.0082  0.0656
    1W        W60357   1.056  23.129   7.639  0.1618 -0.1122 -0.0238
    1W        W60358  15.402  25.929   2.091  0.0197  0.2012  0.2890
    1W        W60359  23.547  13.611   7.643 -0.0782 -0.0416 -0.0285
    1W        W60360  23.760  16.440   0.070  0.2607  0.0112 -0.3740
    1W        W60361   8.990   1.568   8.636 -0.3291  0.0111  0.1703
    1W        W60362  27.463  14.272   9.028 -0.0752  0.1712  0.0656
    1W        W60363   9.751  27.080   3.331 -0.3650  0.1435 -0.1354
    1W        W60364  24.466   6.716   1.098 -0.0919  0.1308 -0.1142
    1W        W60365  20.126  24.975   9.334  0.2114 -0.0597 -0.1048
    1W        W60366  25.747  19.694   7.117  0.0154 -0.0726  0.0088
    1W        W60367  23.764   2.170   9.672 -0.0618 -0.1421  0.5400
    1W        W60368  10.836  18.966   0.613  0.1600 -0.0683  0.0378
    1W        W60369  18.632  26.600   1.944  0.0539 -0.1511  0.1188
    1W        W60370   2.935  21.076   0.772  0.2257  0.0161  0.1375
    1W        W60371  18.257  11.477   0.109 -0.0462  0.2939 -0.1293
    1W        W60372  11.656  11.895   9.522  0.1752 -0.2144  0.4217
    1W        W60373   5.447   7.455   0.768 -0.0860 -0.3345  0.4570
    1W        W60374   7.068   2.261   3.091  0.0851 -0.0821  0.0827
    1W        W60375   7.143  16.958   6.604  0.1163  0.0221  0.3105
    1W        W60376   8.710   4.062   9.752 -0.2359 -0.2594  0.2479
    1W        W60377  19.861  24.237   2.485 -0.1526 -0.0446 -0.1029
    1W        W60378   2.579  11.235   2.540  0.1807 -0.0423  0.0862
    1W        W60379   5.701  18.073   7.216 -0.0837  0.1702  0.1355
    1W        W60380  14.236   7.157   0.718  0.1915  0.2203 -0.3147
    1W        W60381  25.175   4.472   9.439 -0.0771  0.4334  0.1438
    1W        W60382  22.894   5.635   1.971 -0.1411 -0.1607  0.1764
    1W        W60383   5.413  23.025   2.693  0.0920 -0.0279 -0.1431
    1W        W60384  19.982  23.762  10.002  0.1287 -0.1869  0.1452
    1W        W60385   3.716  19.021   1.384 -0.0897 -0.0172  0.0686
    1W        W60386  18.011  15.685   0.256 -0.1759 -0.1100 -0.3505
    1W        W60387  28.825   0.464   8.493 -0.1482 -0.0257 -0.0707
    1W        W60388  20.089  26.018   2.235 -0.0277 -0.1233 -0.0145
    1W        W60389  13.491  27.986   2.206  0.1689 -0.0007  0.0202
    1W        W60390   3.447  26.630   0.232  0.0694 -0.2249 -0.2373
    1W        W60391   9.798  25.959   8.508  0.0459  0.3489 -0.2660
    1W        W60392   0.062  11.857   8.994  0.3240  0.4003 -0.2762
    1W        W60393   4.609  12.898   9.796  0.1943  0.0774 -0.0086
    1W        W60394  10.397   5.342   6.923  0.1123  0.0036  0.0193
    1W        W60395  21.581  16.232   0.903  0.0345 -0.2036 -0.1548
    1W        W60396   9.221   9.332   0.191 -0.2610 -0.0877 -0.0680
    1W        W60397  27.799   8.283   2.085 -0.1658 -0.2985  0.3771
    1W        W60398   8.956  13.197   7.193 -0.0047 -0.0035  0.1431
    1W        W60399  24.087  13.664   2.550 -0.0219  0.2358 -0.0269
    1W        W60400  16.633   5.128   0.664 -0.0208 -0.1030 -0.0659
    1W        W60401  28.502  16.896   8.556  0.0565 -0.1540  0.1905
    1W        W60402  21.715   0.304   0.692 -0.0175 -0.1119 -0.0472
    1W        W60403  27.297   1.739   3.626 -0.2701  0.2275  0.3459
    1W        W60404  11.750  16.072   7.525 -0.2716 -0.0037  0.2498
    1W        W60405  13.794  26.134   8.887 -0.0852 -0.0861  0.2105
    1W        W60406   4.465  23.426   3.743 -0.0752  0.0680 -0.0076
    1W        W60407   3.225  19.774   3.008  0.0947 -0.1426 -0.1355
    1W        W60408  18.596  21.709   8.573  0.1074 -0.3445  0.0598
    1W        W60409  17.666   5.396   8.923  0.1780  0.1358 -0.1372
    1W        W60410  10.813  19.155   9.536  0.0240 -0.0017  0.0343
    1W        W60411  15.660   2.197   8.393 -0.2788  0.0653  0.3179
    1W        W60412   3.701  22.031   0.747  0.1326 -0.0618  0.0012
    1W        W60413  12.297   2.775   6.678 -0.2465 -0.1864 -0.1015
    1W        W60414   0.606  28.276   0.131  0.0207  0.0627  0.0723
    1W        W60415  10.703   6.315   8.821 -0.2699 -0.3195  0.0116
    1W        W60416   6.651  28.227   3.448 -0.1926 -0.0310  0.0965
    1W        W60417  20.903  20.220   8.974 -0.0084 -0.1659  0.1144
    1W        W60418  12.228  16.324   2.164 -0.1535  0.2110 -0.1099
    1W        W60419  15.726  11.923   1.552 -0.2209 -0.0623  0.1087
    1W        W60420  23.635  27.854   7.928  0.1478  0.1355  0.1438
    1W        W60421  19.028   4.091   7.127 -0.1518  0.0739  0.0794
    1W        W60422  28.609   0.996   2.371 -0.1902 -0.0897 -0.0671
    1W        W60423  15.559  20.673   8.879  0.2314 -0.1681 -0.1302
    1W        W60424   4.838  27.851   1.560 -0.0582  0.0617 -0.1275
    1W        W60425  12.076  28.257   0.283  0.2373  0.2081  0.3361
    1W        W60426  28.842   2.092   0.181 -0.0494  0.2691 -0.0264
    1W        W60427   5.318  16.178   8.572 -0.1743  0.2801  0.1035
    1W        W60428  15.461  21.088   6.631  0.2744  0.1009 -0.0446
    1W        W60429  27.428  25.276   9.077 -0.2024  0.2712  0.0007
    1W        W60430   4.713  12.086   1.615 -0.0031  0.1777  0.1472
    1W        W60431  18.993  28.765   9.094 -0.0707  0.3911  0.1076
    1W        W60432   3.123   6.081   1.757 -0.0024 -0.0567  0.2671
    1W        W60433  15.905  19.738   0.064 -0.0907 -0.2152  0.1473
    1W        W60434   2.470  15.126   2.310  0.0674  0.2613 -0.2762
    1W        W60435   1.672   4.053   8.901 -0.1449 -0.0042 -0.0710
    1W        W60436   8.083  11.279   7.682 -0.1933 -0.1116 -0.0432
    1W        W60437  27.599  25.636   9.973  0.1446 -0.2185 -0.2425
    1W        W60438   2.729  27.159   2.712 -0.0588  0.0517 -0.4233
    1W        W60439  24.830  28.576   2.327  0.0600 -0.1677 -0.0162
    1W        W60440  21.211  26.118   2.496 -0.2343  0.1420 -0.2490
    1W        W60441  13.148  23.912   2.441  0.3287 -0.1681  0.3141
    1W        W60442  12.934  24.210   1.110  0.1687  0.0823  0.1180
    1W        W60443  28.748  17.002   3.649  0.2309  0.2780  0.2633
    1W        W60444  27.689   5.691   8.886 -0.2141  0.4041  0.3689
    1W        W60445  13.193  10.102   1.314 -0.0080  0.1616  0.0653
    1W        W60446   9.535  14.598   2.066 -0.1733 -0.0230 -0.0053
    1W        W60447  14.107   8.559   8.798  0.1765 -0.1199 -0.1735
    1W        W60448   4.311  25.640   0.422 -0.0629 -0.1197 -0.0597
    1W        W60449  12.330  17.470   8.748 -0.2106 -0.1030  0.0481
    1W        W60450  18.340   4.503   1.117  0.0165  0.0052 -0.0245
    1W        W60451   3.287   8.124   6.958  0.4560  0.2451  0.2357
    1W        W60452   4.303  26.235   8.438  0.1844  0.1101 -0.0198
    1W        W60453  14.001  24.690   8.965  0.0309 -0.2330  0.1891
    1W        W60454  15.242  11.676   6.692  0.1077  0.1813 -0.0528
    1W        W60455  10.713   1.260   0.801  0.0130  0.1482  0.0079
    1W        W60456  12.977  16.331   7.827  0.3260  0.0280  0.1879
    1W        W60457  18.993  11.430   8.911 -0.1226 -0.0823 -0.0076
    1W        W60458   8.960  20.459   0.421 -0.1488  0.1269 -0.1413
    1W        W60459  12.932  17.146   7.745  0.0718 -0.2099  0.1055
    1W        W60460  28.254   0.080   2.659  0.2716  0.0342 -0.0676
    1W        W60461   7.349  13.270   9.168  0.1724  0.1991  0.0855
    1W        W60462  14.130  13.571   0.489 -0.1710  0.3033 -0.1619
    1W        W60463  28.253  11.064   1.210 -0.0164 -0.0528  0.1049
    1W        W60464  13.010  13.709   2.019 -0.2216  0.0354  0.1161
    1W        W60465  28.156   4.082   3.903  0.1091  0.1419  0.0346
    1W        W60466  18.381   2.716   1.268 -0.3560  0.4527  0.1126
    1W        W60467  23.972  17.490   9.881  0.1616  0.2090 -0.0562
    1W        W60468   4.997   2.115   4.124 -0.0932 -0.1043 -0.0440
    1W        W60469   7.289  19.520   7.672 -0.0454  0.0340  0.0526
    1W        W60470  14.842  26.989   9.466  0.1168 -0.1752  0.2175
    1W        W60471   1.657   4.652   2.056  0.0121 -0.2213 -0.1406
    1W        W60472  28.395  24.733   3.159 -0.2295  0.1017  0.1226
    1W        W60473   5.462  17.671   1.622  0.0285  0.0199 -0.2688
    1W        W60474   6.906   5.671   9.578  0.2046 -0.1312  0.1942
    1W        W60475  21.160  21.406   9.112 -0.3295 -0.2945  0.2052
    1W        W60476  18.796  26.863   2.414 -0.1436 -0.0658  0.0136
    1W        W60477  11.513  10.871   7.637  0.0478  0.1660 -0.0029
    1W        W60478  15.930  19.037   3.077 -0.0893 -0.1184 -0.2542
    1W        W60479  14.048  16.814   8.429  0.3223  0.0515 -0.0396
    1W        W60480  21.913  25.403   2.563 -0.0378  0.0877 -0.0104
    1W        W60481   9.553  24.936   8.692 -0.1266 -0.0042  0.2517
    1W        W60482  19.319  14.296   3.009  0.2381 -0.1089 -0.0893
    1W        W60483   5.184   3.238   3.589  0.0028 -0.1549 -0.0419
    1W        W60484   2.469   3.146   0.091  0.1831  0.0723 -0.0437
    1W        W60485   3.447  26.003   7.955 -0.2703  0.0266 -0.1228
    1W        W60486  14.655  15.772   0.757 -0.0921  0.2174 -0.0867
    1W        W60487   5.253  25.325   1.515  0.2538  0.1227  0.0001
    1W        W60488   0.148  23.210   3.236 -0.0499 -0.0541  0.1032
    1W        W60489  15.708   1.595   2.236 -0.2346  0.0105  0.2072
    1W        W60490  17.385   0.837   7.653  0.0552 -0.0500  0.1779
    1W        W60491   5.382  17.674   2.918  0.0829 -0.1136  0.1348
    1W        W60492  15.296   9.162   0.796  0.0807  0.1536 -0.2075
    1W        W60493  21.160  11.912   9.465 -0.3325 -0.1310 -0.2923
    1W        W60494   6.371  28.634   1.676 -0.1589 -0.1656 -0.2065
    1W        W60495  18.142  13.112   0.890 -0.3863  0.0379  0.1426
    1W        W60496  25.958   2.033   7.663  0.0747  0.2193 -0.1137
    1W        W60497   4.604  28.678   1.955  0.2556 -0.0842  0.1179
    1W        W60498  23.989  27.900   0.339  0.2032  0.2029 -0.1107
    1W        W60499   1.411   6.775   9.966 -0.1477  0.1998 -0.1141
    1W        W60500  17.758   0.138   0.920 -0.0918 -0.0516  0.1136
    1W        W60501   4.395  15.178   2.010  0.1044  0.0538  0.0694
    1W        W60502  10.951   7.384   7.677  0.1021  0.0681  0.1027
    1W        W60503  28.258   4.800   2.338 -0.3376 -0.0142 -0.3221
    1W        W60504  21.988  20.160   0.971 -0.1812 -0.0685  0.1328
    1W        W60505   0.464  28.735   9.996 -0.1751  0.0881  0.0042
    1W        W60506   8.383  17.332   0.472  0.0734 -0.2360  0.1745
    1W        W60507  18.796  13.285   6.549  0.2629 -0.2455 -0.1380
    1W        W60508   8.577  15.291   8.736  0.2196 -0.1624  0.1599
    1W        W60509   5.860  13.365   1.529  0.0026 -0.1820  0.0816
    1W        W60510   8.195  10.360   1.784  0.0278 -0.2809  0.2690
    1W        W60511  25.447  23.330   2.420  0.0860 -0.0001 -0.1291
    1W        W60512   5.242  28.759   0.707  0.0422 -0.0222  0.0634
    1W        W60513  18.374  18.384   5.942  0.2151  0.0195  0.0027
    1W        W60514  27.958   6.631   0.544  0.2674  0.0576  0.2509
    1W        W60515  17.999  26.845   9.527 -0.1438 -0.1342 -0.0606
    1W        W60516  18.433  18.075   2.364  0.0622  0.1968 -0.0767
    1W        W60517   7.501  19.314   0.061  0.2563  0.3401  0.0691
    1W        W60518   5.860  24.666   3.587 -0.0352 -0.1322  0.0127
    1W        W60519  12.670  22.328   1.109  0.2855  0.2452 -0.2732
    1W        W60520  22.901  27.631   7.414 -0.3867  0.2986  0.3555
    1W        W60521   5.575   5.864   2.437 -0.0894  0.2860 -0.1424
    1W        W60522   3.348  20.006   2.565  0.0870  0.1274 -0.1842
    1W        W60523   5.046  14.704   0.497  0.1000  0.0882 -0.3718
    1W        W60524  25.005  22.699   2.322  0.1687  0.0433 -0.1547
    1W        W60525   3.005  21.689   8.940 -0.1186 -0.1473 -0.0680
    1W        W60526  24.661   4.441   9.565  0.1644 -0.0059 -0.2844
    1W        W60527  10.320  20.280   1.739 -0.0424 -0.0906 -0.0150
    1W        W60528   6.991  21.900   1.464 -0.3578 -0.1663  0.2373
    1W        W60529  10.912  28.802   7.823 -0.0897 -0.0253 -0.1961
    1W        W60530  20.388  10.265   9.877  0.3972  0.1754  0.1520
    1W        W60531  27.233   4.635   1.359  0.0795  0.2686  0.4892
    1W        W60532   9.749   1.286   7.458 -0.0389 -0.0018 -0.0871
    1W        W60533   6.912  10.390   0.198  0.0881 -0.0826 -0.0374
    1W        W60534   4.918  24.550   3.172 -0.0428 -0.1702 -0.1640
    1W        W60535   8.436  15.605   8.294  0.0261 -0.1127 -0.2347
    1W        W60536   7.764   7.572   6.944  0.1838 -0.0118 -0.0454
    1W        W60537  21.309  24.568   2.651 -0.0509  0.0558 -0.1587
    1W        W60538  15.687  16.509   8.225 -0.3659 -0.1753 -0.1564
    1W        W60539  17.384   5.375   6.405 -0.1493  0.3514  0.0956
    1W        W60540  11.424  23.886   8.591 -0.2815 -0.4246 -0.1370
    1W        W60541  17.382  16.805   7.261 -0.0297 -0.0730 -0.1499
    1W        W60542  28.697  16.625   1.773 -0.2540 -0.2943  0.0533
    1W        W60543   6.360  17.673   2.263 -0.1415 -0.2264  0.0779
    1W        W60544   4.804  27.193   0.533 -0.1156 -0.0123  0.0523
    1W        W60545  27.702   7.282   9.055 -0.4833 -0.0672  0.0298
    1W        W60546  22.419  11.723   0.725 -0.1067 -0.0236  0.1453
    1W        W60547   7.182   7.280   7.742 -0.0144  0.0906  0.1834
    1W        W60548  23.610  12.170   1.725  0.0037  0.0483  0.0874
    1W        W60549  22.461   9.392   8.734 -0.1109  0.3227 -0.2592
    1W        W60550  13.677  16.976   1.101 -0.0124 -0.3345 -0.6928
    1W        W60551  26.354   7.229   0.356 -0.1283 -0.2074  0.0085
    1W        W60552   8.020  18.589   9.957  0.2603  0.0934  0.0320
    1W        W60553   9.199  24.552   2.088  0.0897 -0.0282  0.1361
    1W        W60554  10.157   4.808   8.212  0.0700  0.2799  0.2242
    1W        W60555   1.752  15.459   0.167 -0.2701  0.4898 -0.0699
    1W        W60556  14.965  10.934   0.220  0.2485 -0.3066 -0.2193
    1W        W60557  20.884  27.496   0.695  0.1050 -0.0992 -0.2765
    1W        W60558   0.108  12.181   2.440 -0.4790 -0.0942  0.0334
    1W        W60559   9.615  25.754   1.814 -0.1720 -0.3627  0.0077
    1W        W60560  24.615  21.828   0.280 -0.3246 -0.1863 -0.2138
    1W        W60561   3.654  19.703   0.556 -0.0961  0.1281  0.0008
    1W        W60562  21.670  23.390   7.497 -0.0352 -0.0956 -0.0575
    1W        W60563  12.408   9.379   7.170  0.0220  0.1228  0.1975
    1W        W60564  20.561  11.092   1.762  0.1800 -0.0432 -0.0078
    1W        W60565  15.858   1.354   1.809  0.0061  0.0683  0.1326
    1W        W60566  22.196  11.395   9.723  0.0489  0.0132 -0.1586
    1W        W60567  17.541  24.541   1.778  0.2790 -0.0223  0.0370
    1W        W60568  17.536   9.915   6.306 -0.0882  0.0166 -0.0449
    1W        W60569  14.137  24.318   0.746  0.1217  0.1645  0.0972
    1W        W60570  25.902   6.918   3.142 -0.0328 -0.0484  0.1229
    1W        W60571  19.960   5.498   9.969 -0.1816  0.0514 -0.0020
    1W        W60572   5.375  19.348   1.130 -0.1031  0.0477 -0.1649
    1W        W60573  13.916   0.151   6.687 -0.0891 -0.0196  0.1184
    1W        W60574  19.683  26.466   9.713  0.1001 -0.1895  0.0381
    1W        W60575  19.398  16.804   7.951  0.4180  0.0714  0.1910
    1W        W60576  13.562   6.799   9.954 -0.0745 -0.1246 -0.1896
    1W        W60577  27.013  27.862   0.532 -0.2874 -0.1277 -0.1290
    1W        W60578  19.879  21.710   1.911  0.0278 -0.0203  0.1935
    1W        W60579  27.312  25.380   3.206  0.2790  0.2281  0.1432
    1W        W60580  25.203   8.795   8.867 -0.1575 -0.0739  0.1357
    1W        W60581   6.304  12.490   1.777  0.3308  0.4200  0.1761
    1W        W60582   2.635  18.445   0.782  0.2007  0.0767  0.0303
    1W        W60583  14.317   8.139   5.813  0.3149  0.1418  0.0386
    1W        W60584   0.927  19.820   1.169  0.5273 -0.1012 -0.1414
    1W        W60585   2.907   1.517   0.820 -0.2570  0.0046  0.2223
    1W        W60586  22.104  14.890   2.553  0.4145  0.0297  0.0557
    1W        W60587  12.496   4.465   0.791 -0.0680  0.1130 -0.2594
    1W        W60588  14.154  24.373   9.427  0.0254  0.1849  0.0663
    1W        W60589  27.569  20.564   8.180  0.1602  0.1720  0.0562
    1W        W60590  26.833  22.045   8.517 -0.0384 -0.2900 -0.1419
    1W        W60591   8.429  12.377   7.043  0.0422 -0.0124 -0.1879
    1W        W60592  21.240  16.988   7.522  0.1945  0.3787  0.1042
    1W        W60593   5.520  11.852   1.079 -0.2697 -0.3931  0.0826
    1W        W60594  26.395   7.491   1.294  0.0630 -0.3375 -0.0610
    1W        W60595   3.436  28.296   3.822 -0.1384  0.0813  0.2357
    1W        W60596  17.373  12.005   8.326  0.0800  0.3166 -0.0285
    1W        W60597  20.257  16.168   7.818 -0.2248 -0.0023 -0.0360
    1W        W60598  13.547  12.431   9.584 -0.2866 -0.1523  0.0470
    1W        W60599  10.443  21.904   9.570  0.2932  0.0355  0.4043
    1W        W60600  24.694  11.042   0.379  0.0827  0.0403  0.0760
    1W        W60601   8.319   7.816   7.313  0.1447 -0.0519 -0.2655
    1W        W60602  12.851  12.161   1.127 -0.0698  0.3019  0.1856
    1W        W60603  10.467  13.151   1.711 -0.1525  0.0818 -0.3332
    1W        W60604   6.905  17.711   8.502 -0.0601 -0.0447 -0.1416
    1W        W60605  26.400  15.942   8.176 -0.4179 -0.3356 -0.2079
    1W        W60606   5.961   2.790   2.448 -0.2776  0.0731 -0.0774
    1W        W60607  26.028  14.668   7.386  0.1876  0.1259  0.0527
    1W        W60608   8.247  25.695   0.993 -0.0152 -0.1581 -0.0626
    1W        W60609  10.828  13.678   8.982  0.0762  0.1581 -0.2441
    1W        W60610  12.008  26.745   2.501  0.3333  0.0492 -0.3451
    1W        W60611  17.172  14.005   8.704 -0.0588  0.1782 -0.1362
    1W        W60612  10.753   6.534   6.206  0.0837 -0.0324 -0.1744
    1W        W60613   2.793   2.431   3.249 -0.1980 -0.0102 -0.5210
    1W        W60614  26.900  22.085   1.781 -0.0839  0.3829  0.1356
    1W        W60615   5.781  28.751   2.365  0.1715  0.0015 -0.3224
    1W        W60616  28.700  13.341   0.487  0.3660  0.0128  0.0107
    1W        W60617  18.145   3.587   0.668  0.1076  0.3337  0.2295
    1W        W60618  25.130  11.536   0.136 -0.0255 -0.0602 -0.1342
    1W        W60619  22.986  23.943   1.987  0.0679 -0.0590 -0.0319
    1W        W60620   1.037  11.763   7.757  0.3503  0.1356 -0.3910
    1W        W60621   4.917  17.568   0.850 -0.1548  0.2915 -0.1518
    1W        W60622   8.936  14.014   5.767  0.1776 -0.1631 -0.0835
    1W        W60623  15.825  12.630   0.825 -0.0678 -0.4506  0.0712
    1W        W60624   5.853  17.900   6.510 -0.2655 -0.1686 -0.3105
    1W        W60625  25.835  15.551   9.345 -0.3337 -0.1501 -0.1072
    1W        W60626   7.287  21.762   6.816 -0.1513  0.0772 -0.0283
    1W        W60627   5.427  26.648   9.243 -0.1337  0.1733  0.0059
    1W        W60628  13.123   2.275   9.330  0.1921 -0.1090 -0.1850
    1W        W60629   6.948   7.043   9.295  0.0175 -0.1668 -0.4084
    1W        W60630  13.523   5.743   1.474  0.1930 -0.3011 -0.0671
    1W        W60631  16.563  16.960   9.822  0.3047 -0.0378 -0.1488
    1W        W60632   7.283  20.633   1.830 -0.0709 -0.1386 -0.2240
    1W        W60633   5.645   2.313   1.347 -0.2903  0.0170  0.1278
    1W        W60634  24.429  17.639   9.852  0.2832  0.2715 -0.3483
    1W        W60635   8.351  16.560   6.865  0.1197  0.0124  0.0102
    1W        W60636  14.100   3.426   6.810  0.3038 -0.0276  0.0613
    1W        W60637  20.618  27.355   9.199  0.3520  0.0461  0.2334
    1W        W60638  12.892  20.318   9.924  0.2256 -0.1802 -0.2214
    1W        W60639  27.587  15.474   9.387 -0.0135  0.3583 -0.0234
    1W        W60640  23.117   3.835   8.032  0.3093  0.3660  0.1132
    1W        W60641  25.277  14.965   1.688 -0.1764  0.0315  0.0697
    1W        W60642   6.615   8.994   9.258  0.0368  0.1526 -0.1940
    1W        W60643   8.738  15.816   8.803 -0.1613 -0.0227 -0.2897
    1W        W60644  10.840   6.865   8.171 -0.1767  0.4331 -0.1963
    1W        W60645   3.967  12.003   8.788 -0.1455 -0.1048  0.0273
    1W        W60646   7.725  28.198   0.767 -0.2241 -0.2556 -0.2923
    1W        W60647  16.913  19.509   6.683  0.0422  0.2235  0.4630
    1W        W60648   1.591  14.188   7.166 -0.1276  0.0193 -0.2707
    1W        W60649  14.293   6.959   6.051  0.2305  0.2649  0.0110
    1W        W60650   9.593   8.981   7.465  0.1908  0.2838  0.0928
    1W        W60651   7.099  22.064   8.843  0.0710  0.5497 -0.0259
    1W        W60652  18.522  18.776   9.394 -0.2249  0.2619 -0.2598
    1W        W60653   1.192  14.500   2.490  0.1615 -0.0206  0.1252
    1W        W60654  26.834  17.806   1.982  0.0264 -0.2568  0.0887
    1W        W60655  13.792  16.335   7.851  0.5763  0.1532 -0.1078
    1W        W60656  20.053  21.441   5.868 -0.2177 -0.2847 -0.1369
    1W        W60657   5.860  28.053   2.219  0.2763  0.1215  0.1064
    1W        W60658  25.998   7.320   9.980 -0.1337 -0.0044  0.2363
    1W        W60659  25.823  18.974   7.101  0.1980 -0.4212 -0.1821
    1W        W60660  10.281  23.962   7.624  0.1249 -0.1094  0.0293
    1W        W60661   5.095  16.740   0.801 -0.0883  0.0820  0.0413
    1W        W60662   8.428  13.962   3.635 -0.0337 -0.1774  0.1346
    1W        W60663  27.758  16.821   3.757 -0.1296  0.0595  0.0832
    1W        W60664  15.020  10.394   1.170  0.1622  0.0066 -0.0061
    1W        W60665   2.863  19.210   8.466  0.2046  0.1148 -0.0099
    1W        W60666  22.657  11.568   2.241  0.0349 -0.1970  0.0141
    1W        W60667  14.379  14.805   1.985  0.0701  0.0681  0.0256
    1W        W60668  18.057  20.857   7.410 -0.0365 -0.1048 -0.3916
    1W        W60669  11.286  27.180   1.446  0.0368 -0.2317  0.1048
    1W        W60670   0.809   1.126  10.000 -0.1537  0.0682  0.0842
    1W        W60671   9.043  27.776   9.660 -0.2325 -0.0755 -0.1200
    1W        W60672  18.515   5.344   9.383  0.2464 -0.2777 -0.0537
    1W        W60673   0.393  16.993   0.369  0.2818  0.2765  0.2728
    1W        W60674  24.025  16.035   2.535  0.1338 -0.1511  0.2524
    1W        W60675  19.735  14.528   1.892 -0.0031  0.1503 -0.1178
    1W        W60676  27.339  19.299   9.628  0.1090  0.1877 -0.0838
    1W        W60677  11.964  22.981   7.420 -0.0199  0.2015 -0.1676
    1W        W60678  14.216   5.221   0.685  0.0937 -0.1625 -0.0413
    1W        W60679  15.539  14.058   7.816  0.0006 -0.1963  0.1494
    1W        W60680   5.681  16.911   8.595  0.1486 -0.1597  0.0644
    1W        W60681  21.503  17.778   6.959 -0.2527  0.3546 -0.1084
    1W        W60682  21.791   7.048   0.018  0.0818  0.1224 -0.1882
    1W        W60683  10.251  20.856   8.379  0.1643  0.2081  0.1535
    1W        W60684  25.693  23.819   7.995  0.3464  0.1246  0.4257
    1W        W60685   5.268  21.306   3.062  0.0557  0.1917  0.3785
    1W        W60686  12.890  19.096   8.299  0.0910 -0.4426 -0.2242
    1W        W60687  14.271  15.725   2.093  0.0167  0.3120 -0.3172
    1W        W60688   5.199  23.084   0.466 -0.0721  0.2040  0.1599
    1W        W60689   7.417  17.566   7.277  0.1482 -0.0136 -0.2603
    1W        W60690  28.654   5.271   1.571 -0.0622 -0.0532 -0.0959
    1W        W60691  14.314  15.537   0.366 -0.0680 -0.2060  0.2309
    1W        W60692  12.012  10.045   5.863  0.0040 -0.3235  0.0898
    1W        W60693   2.100  22.260   0.588 -0.1743 -0.0659 -0.0689
    1W        W60694  18.602   5.799   8.176 -0.0000 -0.1265 -0.2432
    1W        W60695  27.980   4.551   8.666 -0.2265  0.1489 -0.0402
    1W        W60696   5.943  26.791   1.309  0.0439 -0.0452  0.0928
    1W        W60697   8.798  12.811   0.400 -0.0850 -0.0244  0.0116
    1W        W60698   6.782  28.794   2.804  0.0529  0.0127  0.1570
    1W        W60699  25.095   6.135   7.981 -0.4862  0.0586 -0.1561
    1W        W60700  18.465  17.229   5.787 -0.3184 -0.0570  0.1823
    1W        W60701  23.274   8.669   8.157 -0.1254  0.1633  0.3405
    1W        W60702  14.231   5.173   6.930 -0.0638  0.0413 -0.3576
    1W        W60703   7.207  11.394   2.151  0.0579  0.1289  0.0701
    1W        W60704  16.279   9.082   8.500 -0.0784 -0.1638  0.0965
    1W        W60705  23.867  24.512   2.779  0.4501  0.1117  0.0038
    1W        W60706   2.236   8.671   1.888 -0.0487 -0.1221  0.2004
    1W        W60707  25.544  10.615   9.164  0.1701  0.2892  0.0612
    1W        W60708  14.975   6.753   9.589  0.1421 -0.2855  0.2018
    1W        W60709  16.500  22.994   9.470  0.1150  0.1244 -0.1751
    1W        W60710   1.615   8.298   8.190  0.1420  0.1241  0.0996
    1W        W60711  19.810  21.671   2.580 -0.0162 -0.0059 -0.2629
    1W        W60712  24.750  17.166   2.433 -0.0383 -0.2094  0.1474
    1W        W60713   0.270  16.887   2.716  0.0289  0.0001  0.0332
    1W        W60714  21.304   8.043   1.103  0.2417 -0.1339 -0.1347
    1W        W60715  27.497  18.984   0.589 -0.2353 -0.1097  0.2676
    1W        W60716  12.428   9.422   9.619  0.1366  0.2505 -0.2221
    1W        W60717   2.824  19.121   3.214  0.2250 -0.0464 -0.2578
    1W        W60718   9.778  25.278   2.981  0.3293  0.1093 -0.0055
    1W        W60719   2.687   4.278   9.002 -0.2356 -0.1079  0.1121
    1W        W60720  23.689  24.122   1.311  0.3996 -0.2140  0.3538
    1W        W60721  27.804   5.618   3.194 -0.4757  0.0396 -0.0868
    1W        W60722  19.125  28.106   3.391  0.2366  0.0377  0.1957
    1W        W60723  20.818  18.957   8.804 -0.0217  0.1660 -0.0648
    1W        W60724  18.043  15.350   6.713  0.1521 -0.0828  0.1435
    1W        W60725   4.962   7.385   8.271 -0.2294  0.1745 -0.0269
    1W        W60726  25.855  24.091   8.833  0.0921 -0.0183  0.2243
    1W        W60727   0.791  28.643   4.087 -0.0794 -0.1511  0.1285
    1W        W60728  26.517   6.752   1.040 -0.0925  0.2783 -0.1254
    1W        W60729   8.694  11.496   5.650  0.0962  0.2648  0.1835
    1W        W60730  11.128  12.590   7.636  0.2836 -0.0073  0.3375
    1W        W60731   5.690  22.613   2.953 -0.3412  0.1841  0.2882
    1W        W60732  10.991  11.171   1.382 -0.2969  0.1876 -0.0101
    1W        W60733  18.237  16.391   8.976  0.1916 -0.2604 -0.0172
    1W        W60734  13.580  16.746   8.695 -0.1873  0.1350 -0.2578
    1W        W60735  23.336  14.623   2.278 -0.0190 -0.3155 -0.2524
    1W        W60736  27.468  13.910   3.632 -0.1228  0.2309  0.2362
    1W        W60737  16.817  25.251   9.365  0.2343 -0.3340  0.1749
    1W        W60738  25.131  27.214   9.194 -0.4299 -0.0636  0.0145
    1W        W60739  14.987  16.573   0.948  0.1936  0.0543 -0.0438
    1W        W60740   6.660  19.977   1.063  0.2183  0.1969 -0.1912
    1W        W60741  27.191  18.067   8.603  0.0795  0.0522 -0.0518
    1W        W60742  14.371  23.011   8.847  0.5068 -0.1742  0.3271
    1W        W60743  26.325  26.485   3.021 -0.0224 -0.1742 -0.0771
    1W        W60744  17.291   0.341   7.013 -0.4523 -0.0211  0.1596
    1W        W60745   2.386   7.730   2.588  0.0754  0.2302 -0.1159
    1W        W60746  21.256  16.343   2.262  0.0213  0.1946  0.0242
    1W        W60747   7.027   1.620   9.839  0.5367  0.1230 -0.5003
    1W        W60748  17.500  12.264   9.252 -0.1581  0.1743  0.0040
    1W        W60749  15.113   4.199   6.378 -0.1677 -0.1910 -0.0679
    1W        W60750  11.523   0.093   8.528  0.1598  0.4250  0.0086
    1W        W60751  24.851  24.109   0.601  0.1114 -0.1818 -0.3979
    1W        W60752  24.513  28.824   2.610  0.2262 -0.1455 -0.0358
    1W        W60753  22.185  25.055   0.943  0.2652 -0.0892 -0.2495
    1W        W60754  27.965  26.881   0.444  0.2010 -0.1852 -0.1973
    1W        W60755  12.358  12.663   6.216 -0.0124 -0.0719  0.1060
    1W        W60756  27.559   0.561   9.652 -0.1666 -0.3879  0.3280
    1W        W60757   4.628  16.448   3.235 -0.4052  0.0924  0.0581
    1W        W60758  14.492  15.737   9.858  0.0538 -0.2156  0.2599
    1W        W60759  20.988   8.287   7.564  0.1807 -0.1951  0.3171
    1W        W60760  13.451   3.143   1.966 -0.2339 -0.0896 -0.0234
    1W        W60761   9.825   1.876   0.288  0.1851  0.1190 -0.0356
    1W        W60762  24.226  11.874   7.201 -0.0961 -0.0396 -0.1826
    1W        W60763   1.498   7.754   1.476  0.1062 -0.2580  0.1887
    1W        W60764   5.815   7.843   9.434  0.1010  0.1761 -0.0725
    1W        W60765  28.018  27.587   1.905 -0.1303  0.1575  0.2718
    1W        W60766  17.083  13.721   9.745 -0.2271 -0.2478 -0.0169
    1W        W60767   1.058  21.153   0.167 -0.0068  0.0638 -0.1926
    1W        W60768  28.054  23.682   9.450  0.0818 -0.2055 -0.0568
    1W        W60769  16.197  25.168   1.103 -0.1143  0.0188 -0.0554
    1W        W60770  25.510  20.173   9.557  0.2143 -0.1718 -0.2059
    1W        W60771   2.244   9.506   9.780  0.1028  0.0618 -0.0386
    1W        W60772   0.027  14.888   7.719  0.1755  0.2034  0.0262
    1W        W60773   0.959  15.804   7.876  0.1127  0.0820  0.0683
    1W        W60774  19.158  18.988   2.033  0.1159 -0.0591  0.2161
    1W        W60775  15.973  24.280   7.794  0.0774  0.0774  0.1416
    1W        W60776  19.451   2.438   1.554 -0.4667 -0.0941 -0.3411
    1W        W60777  14.496  18.307   1.274 -0.1121  0.0332  0.1363
    1W        W60778  11.744  27.331   1.466  0.2550 -0.0054 -0.2293
    1W        W60779   3.609   0.879   2.041  0.1374  0.1082 -0.0750
    1W        W60780  22.327  10.608   0.233  0.2084 -0.0056 -0.0325
    1W        W60781  19.534  20.088   1.332  0.1358  0.0194 -0.0318
    1W        W60782   6.599   0.553   3.851 -0.0573 -0.2771  0.4203
    1W        W60783  20.828   8.901   7.312 -0.3162 -0.2873 -0.0378
    1W        W60784  10.561  24.464   1.698  0.2025 -0.1385 -0.0502
    1W        W60785   6.862  18.590   7.514  0.0536 -0.0351  0.1509
    1W        W60786   5.411  25.180   9.425  0.0788  0.1310 -0.2020
    1W        W60787   9.327  22.868   2.922  0.0063  0.0121  0.0162
    1W        W60788   4.142  20.528   2.707  0.1231 -0.1910 -0.2676
    1W        W60789  16.528   6.495   0.033 -0.0387 -0.1063  0.2291
    1W        W60790  10.229  27.112   1.119 -0.1750  0.0862 -0.0188
    1W        W60791   0.207   6.578   2.335  0.2580  0.4316  0.1836
    1W        W60792  12.536   1.501   0.357 -0.0476  0.0438  0.1517
    1W        W60793  13.519  16.865   0.173  0.4326 -0.2776 -0.0016
    1W        W60794   2.573  19.455   1.862 -0.2210  0.4320 -0.2517
    1W        W60795  21.046  24.028   7.016  0.2810  0.2115  0.2661
    1W        W60796  18.369  23.357   6.816  0.0235  0.0058 -0.0089
    1W        W60797   4.040  28.523   2.638 -0.3819 -0.2594  0.1588
    1W        W60798  12.050  14.266   7.177  0.1129 -0.1971 -0.1646
    1W        W60799  27.793  26.565   0.039  0.0888  0.0239  0.1576
    1W        W60800  20.950  24.748   8.091  0.3003 -0.0693  0.2359
    1W        W60801  21.460  14.196   2.655  0.0558  0.1496  0.1171
    1W        W60802  12.789  22.776   9.842 -0.1165 -0.0123  0.2021
    1W        W60803   1.130   3.309   2.841  0.2728 -0.0670  0.2532
    1W        W60804  17.267  11.442   0.918  0.0319  0.0084 -0.0908
    1W        W60805  28.657  15.140   0.913  0.2525 -0.2328 -0.0057
    1W        W60806  13.932  14.816   8.094  0.2327 -0.0128  0.0500
    1W        W60807  20.397  13.127   8.869 -0.0102 -0.0654  0.0756
    1W        W60808  11.777   2.917   6.609  0.2275  0.1741 -0.0963
    1W        W60809  16.916  11.043   7.885  0.0518 -0.3695 -0.1590
    1W        W60810   8.272   5.161   6.896  0.3867 -0.1114  0.2893
    1W        W60811  16.225   1.163   9.120  0.0308  0.1311  0.0577
    1W        W60812  19.796   3.759   2.040 -0.1070  0.2565 -0.0452
    1W        W60813  26.571  20.118   7.885 -0.1169 -0.0446  0.1513
    1W        W60814  15.643  15.072   7.860  0.0563 -0.2142  0.6306
    1W        W60815  24.972   8.800   8.409 -0.0025 -0.1493  0.0302
    1W        W60816  23.997  16.854   0.949  0.0911 -0.0818 -0.0902
    1W        W60817   2.584  19.110   9.365 -0.1975 -0.2429  0.1833
    1W        W60818  12.321   4.635   7.885  0.0285 -0.0074  0.1830
    1W        W60819   3.681   9.936   2.746  0.0718  0.0540 -0.0226
    1W        W60820  17.353   5.952   0.365  0.0779  0.0685  0.0498
    1W        W60821  20.420  23.793   7.923  0.0508  0.1287  0.2011
    1W        W60822  13.454   5.782   9.496 -0.3397 -0.3921 -0.0403
    1W        W60823  18.045   7.983   1.664  0.3438  0.1068  0.3110
    1W        W60824  15.339  19.097   0.314  0.0592 -0.3558 -0.0108
    1W        W60825  10.293  19.545   0.855 -0.0274 -0.2426  0.0970
    1W        W60826   5.621  27.490   0.390 -0.0601 -0.0476  0.2921
    1W        W60827  17.704  13.056   0.584 -0.1019 -0.1234 -0.0152
    1W        W60828   8.073   3.942   2.343  0.0933  0.2386  0.0269
    1W        W60829  23.628   8.620   7.839  0.2359 -0.0257  0.0240
    1W        W60830  14.239  14.588   7.747 -0.2424  0.2642  0.0658
    1W        W60831   7.029  10.641   6.821  0.2070 -0.2140 -0.2286
    1W        W60832   3.124  15.621   2.119 -0.0075 -0.2438  0.1991
    1W        W60833  25.882  10.215   8.252 -0.1590  0.2892  0.0772
    1W        W60834  22.215   6.298   2.010 -0.0706 -0.0244 -0.2532
    1W        W60835  11.936   2.847   8.031 -0.1438 -0.2733 -0.1553
    1W        W60836  19.651   5.341   7.449  0.2885  0.0475  0.1744
    1W        W60837   9.110  22.036   2.189  0.3067  0.1297  0.0517
    1W        W60838  22.911   6.450   2.221  0.1605  0.2708  0.1350
    1W        W60839  13.092  19.119   7.668 -0.1826 -0.1133 -0.1224
    1W        W60840   3.436  27.957   8.107 -0.0912 -0.1315  0.0852
    1W        W60841   3.657   9.064   8.032 -0.3427 -0.0636 -0.1086
    1W        W60842  22.673  20.956   1.607 -0.1304 -0.2208  0.1384
    1W        W60843  10.293  21.523   7.478  0.0984 -0.3300 -0.1755
    1W        W60844  28.177  26.423   2.801 -0.0947  0.4745 -0.0211
    1W        W60845   5.329   7.900   6.875 -0.0865  0.1766 -0.0756
    1W        W60846   0.346   4.702   4.792  0.0344 -0.2113 -0.1743
    1W        W60847   3.637  10.380   7.207  0.1152 -0.2202 -0.1070
    1W        W60848  22.419  14.420   7.680  0.1452  0.1121 -0.0356
    1W        W60849  17.946  12.306   9.058 -0.0088  0.2075 -0.2977
    1W        W60850  16.889  18.790   0.283 -0.1375  0.1332  0.1742
    1W        W60851  24.310  13.004   2.217  0.0155  0.0502 -0.2240
    1W        W60852  16.699  26.874   8.796  0.0655  0.2557  0.1838
    1W        W60853  14.154  27.747   1.415 -0.2785  0.1784  0.2864
    1W        W60854  17.828  15.110   1.724  0.1084 -0.2129 -0.3473
    1W        W60855  19.451   5.710   9.304 -0.1493  0.0469 -0.1662
    1W        W60856  12.643  16.689   7.610  0.1181 -0.3686  0.1714
    1W        W60857  25.183   1.049   1.128  0.1548  0.1547 -0.2840
    1W        W60858  23.161  27.659   8.438 -0.3882  0.3415 -0.0586
    1W        W60859  26.182   2.898   2.762  0.2306 -0.0230 -0.1766
    1W        W60860   9.590   1.851   2.841 -0.2930  0.0109 -0.0652
    1W        W60861  27.899  14.459   7.121 -0.1413 -0.0292 -0.2335
    1W        W60862  15.180  19.639   8.904  0.1813  0.0761  0.2396
    1W        W60863   4.122  25.179   0.591  0.1531 -0.0806  0.2684
    1W        W60864  27.627   9.940   3.140 -0.0141  0.2689 -0.0115
    1W        W60865  21.125   7.831   8.923  0.0694 -0.1672  0.0036
    1W        W60866  17.932   0.085   7.950  0.2604  0.0870  0.0457
    1W        W60867   6.369  27.106   4.106  0.0442 -0.0174 -0.0483
    1W        W60868   8.689  22.678   0.638  0.0049 -0.1667  0.0707
    1W        W60869  16.013  22.920   1.929  0.4853 -0.1636  0.2057
    1W        W60870  25.794   4.385   0.588  0.1479 -0.0737 -0.1942
    1W        W60871   4.444  26.566   2.775 -0.1120  0.1339 -0.2475
    1W        W60872  20.437  27.094   0.737 -0.1436 -0.0253  0.1207
    1W        W60873  10.602   1.721   0.571 -0.0313  0.2182  0.1280
    1W        W60874   3.450  21.431   9.608 -0.2663  0.2236  0.0819
    1W        W60875  24.018   2.268   9.047  0.2121 -0.4856 -0.1130
    1W        W60876  26.805  23.922   8.277  0.1539  0.1301 -0.2918
    1W        W60877  13.052   1.118   2.556 -0.2286  0.1078 -0.1165
    1W        W60878  21.684  20.953   8.812 -0.2174 -0.0076  0.2711
    1W        W60879  19.374   3.844   0.651 -0.0950  0.3215 -0.1784
    1W        W60880  23.953  12.031   8.139  0.1435 -0.1838  0.0798
    1W        W60881   8.136  14.746   0.284 -0.0076 -0.0310 -0.1940
    1W        W60882  14.750   3.307   1.820  0.1008 -0.2210 -0.1067
    1W        W60883   1.725  21.213   4.003  0.1008  0.0744 -0.2639
    1W        W60884   2.884  17.949   7.000 -0.2451 -0.0533  0.3865
    1W        W60885  25.172   3.483   7.986  0.0230 -0.2674 -0.3946
    1W        W60886   1.346  17.796   1.572  0.1519 -0.1801 -0.1271
    1W        W60887  22.748  16.974   7.297 -0.2078 -0.3161 -0.2311
    1W        W60888  23.597  15.846   7.441  0.0455  0.2333  0.0230
    1W        W60889  14.666  19.565   2.159  0.5477  0.1294  0.2775
    1W        W60890  27.667  24.095   2.768  0.2068 -0.2732 -0.3350
    1W        W60891   4.027   7.072   8.489  0.0804  0.0292 -0.2300
    1W        W60892  24.059  20.150   7.458 -0.0779 -0.0217 -0.1281
    1W        W60893  10.132  17.767   7.059 -0.0912  0.0783 -0.1374
    1W        W60894   7.412  14.220   1.175 -0.3675  0.0094  0.0604
    1W        W60895   2.037  22.631   2.171  0.0844  0.0635  0.1584
    1W        W60896  15.071   3.630   1.148 -0.3917  0.3824  0.4106
    1W        W60897  13.257   5.238   0.913  0.1240  0.1051  0.2590
    1W        W60898   8.754   9.105   2.694 -0.0974  0.0159 -0.3602
    1W        W60899   1.650  26.014   4.428  0.1499  0.1293 -0.1005
    1W        W60900  21.036  20.051   6.680 -0.1959 -0.2700  0.1868
    1W        W60901  20.725   1.879   2.564  0.0186  0.1200 -0.0940
    1W        W60902  11.756  28.410   2.571  0.4035 -0.2181 -0.2710
    1W        W60903   0.134  10.008   9.282  0.3176  0.2191 -0.0901
    1W        W60904  12.834  28.468   8.794  0.1042  0.1048 -0.1750
    1W        W60905  12.394   4.253   6.791 -0.2434  0.1742 -0.0871
    1W        W60906  21.718  14.038   8.708 -0.1056 -0.2439  0.1010
    1W        W60907  17.087   4.219   7.976  0.0710  0.2218 -0.1960
    1W        W60908   3.566  26.552   1.607  0.1151  0.1767  0.0644
    1W        W60909  28.340   7.053   2.205  0.0168 -0.0287 -0.1672
    1W        W60910   2.009  17.751   9.864 -0.2268 -0.4282  0.0775
    1W        W60911   0.854   4.019   1.079 -0.2097 -0.2041  0.0990
    1W        W60912  11.265  23.228   2.675 -0.0828 -0.1185  0.0464
    1W        W60913   4.789   1.114   3.541 -0.0610  0.1143 -0.3939
    1W        W60914  20.543   9.403   9.883  0.2913 -0.1018  0.0871
    1W        W60915   3.694  24.509   8.599 -0.0100 -0.1723  0.1837
    1W        W60916  24.275  19.273   2.363  0.1958 -0.1652 -0.0153
    1W        W60917   8.869   0.802   2.183  0.2762 -0.2044  0.0353
    1W        W60918  13.413   4.837   6.848  0.1716 -0.0087  0.2831
    1W        W60919  14.857  17.016   9.738 -0.2649  0.0319  0.2196
    1W        W60920  23.509   4.930   1.655  0.0089 -0.1259  0.0887
    1W        W60921  11.312  20.713   3.482  0.0038 -0.0806  0.3275
    1W        W60922  14.574  12.924   6.393  0.0306 -0.0008 -0.0509
    1W        W60923   2.736  27.938   9.662  0.0181 -0.0154  0.1527
    1W        W60924  11.058  13.440   1.700  0.0658  0.3374  0.2733
    1W        W60925  22.261  14.227   0.707  0.0763 -0.2079 -0.0939
    1W        W60926  15.099  25.964   0.280 -0.1986  0.1974  0.2308
    1W        W60927  17.798   1.454   7.307  0.3632 -0.0124  0.3090
    1W        W60928   9.695  11.988   0.702  0.4382 -0.1464  0.0751
    1W        W60929  14.695   9.009   6.077  0.0285 -0.0664  0.1598
    1W        W60930   8.584  20.718   8.546 -0.2735  0.1938  0.0265
    1W        W60931  13.302  28.623   9.060 -0.4895  0.1432  0.2566
    1W        W60932  13.698  25.952   0.167  0.0262 -0.0380 -0.1168
    1W        W60933  26.404  13.768   2.860 -0.2574  0.1378 -0.1471
    1W        W60934  25.672  17.865   7.664  0.0879  0.0595  0.0263
    1W        W60935  21.204   1.687   2.497  0.0385 -0.1068 -0.0405
    1W        W60936  23.208  21.624   3.019 -0.2117 -0.2497 -0.0390
    1W        W60937  12.880  25.511   8.797 -0.0711  0.1346  0.1887
    1W        W60938   5.458   9.459   2.547  0.2604  0.2327 -0.1789
    1W        W60939   0.376  19.903   3.466  0.0286 -0.4279 -0.1205
    1W        W60940  20.157   9.881   7.418 -0.1504 -0.2231 -0.0307
    1W        W60941  16.677  11.892   9.546 -0.1488  0.2264 -0.3119
    1W        W60942  23.377   2.687   0.451  0.2047  0.3641 -0.0811
    1W        W60943   6.720  23.109   8.022  0.5010 -0.0094 -0.2594
    1W        W60944  13.307   5.805   0.615 -0.2779  0.2011  0.0462
    1W        W60945   1.477   4.408   9.997 -0.1137  0.1521 -0.1494
    1W        W60946  17.147  10.221   8.442  0.0151  0.2426 -0.1743
    1W        W60947  13.681   4.997   1.964 -0.0520  0.4037 -0.0224
    1W        W60948  24.076  13.562   8.863 -0.0113 -0.0158  0.2256
    1W        W60949  12.827  13.580   1.527  0.1311 -0.0819 -0.1131
    1W        W60950  15.154  19.645   2.353  0.1898 -0.3473 -0.1136
    1W        W60951  25.619  27.531   7.759  0.3180 -0.2587  0.1104
    1W        W60952  10.887  18.429   8.027  0.2507  0.2171  0.0714
    1W        W60953  11.380  17.736   8.425 -0.0026  0.0417  0.1611
    1W        W60954  22.078  25.557   1.994  0.0548  0.0143  0.1985
    1W        W60955  16.220  13.422   7.735 -0.0544  0.1109  0.1243
    1W        W60956  10.870   9.718   7.741 -0.2524 -0.2105  0.1098
    1W        W60957   0.579  12.332   2.846 -0.2338 -0.3128 -0.3524
    1W        W60958  24.381  19.857   9.199  0.1734  0.2507 -0.1228
    1W        W60959  27.620  11.562   7.948  0.1234  0.0426  0.2404
    1W        W60960   7.790   3.532   3.487  0.0122 -0.1035  0.1653
    1W        W60961  18.809  20.341   7.650 -0.4216 -0.1162  0.2538
    1W        W60962  23.425   0.537   1.455  0.0223 -0.1132 -0.0658
    1W        W60963  24.195  28.446   7.717  0.0547  0.2127  0.2249
    1W        W60964  12.086  25.880   9.574 -0.0263 -0.0571  0.1212
    1W        W60965   5.770  23.485   6.724  0.2649  0.1156 -0.1346
    1W        W60966   9.931  24.653   8.799  0.0796 -0.1416 -0.0151
    1W        W60967  22.491  25.868   3.173 -0.1783  0.0215 -0.0294
    1W        W60968  19.469  23.903   9.292  0.1138 -0.3110  0.1599
    1W        W60969  10.939  21.991   0.993  0.0903  0.3376  0.2213
    1W        W60970   9.174   1.718   2.457 -0.3863  0.2006  0.2680
    1W        W60971   9.569   3.868   9.124 -0.1628  0.3346  0.1508
    1W        W60972  22.944  21.201   8.595 -0.1594  0.1054 -0.1328
    1W        W60973  10.459  22.830   2.632  0.1176  0.1660  0.0262
    1W        W60974   4.870   2.692   8.516 -0.0980 -0.0954  0.0790
    1W        W60975  10.692   7.780   8.146  0.0391 -0.3452  0.0799
    1W        W60976  11.814   2.916   7.600 -0.1152  0.2931  0.3297
    1W        W60977  14.901  23.718   2.063 -0.0539 -0.1479 -0.3294
    1W        W60978   1.298  15.080   3.249  0.2218 -0.0111  0.1850
    1W        W60979  27.207  14.046   2.235 -0.1636  0.0437  0.2927
    1W        W60980  23.062   2.947   0.829 -0.0954 -0.3399 -0.1092
    1W        W60981  12.356  19.809   2.596  0.0129  0.0314 -0.1836
    1W        W60982  22.809  12.392   9.660  0.2262 -0.1376 -0.2321
    1W        W60983  14.698  13.981   6.021 -0.3107 -0.0071  0.0552
    1W        W60984   1.847  19.366   8.262 -0.0538 -0.0204 -0.2341
    1W        W60985  26.224  28.087   3.826 -0.1065  0.1427  0.2419
    1W        W60986   2.500  18.359   8.146  0.0500 -0.0828 -0.0705
    1W        W60987   4.093   2.402   2.037  0.1004  0.1763  0.1704
    1W        W60988   7.787   7.596   8.842  0.1499  0.0478  0.0472
    1W        W60989   2.724   2.215   2.011  0.1669 -0.0678 -0.2201
    1W        W60990  16.448   5.082   7.643  0.1414  0.2376 -0.2487
    1W        W60991  27.444   2.289   2.917  0.0504  0.3194  0.2192
    1W        W60992  15.071   8.802   1.168 -0.1873  0.0876 -0.0710
    1W        W60993   3.435  24.482   2.306 -0.1263 -0.0941  0.0463
    1W        W60994  19.622   4.783   0.333 -0.0872  0.4859 -0.1275
    1W        W60995  27.167   2.180   1.581  0.0277 -0.0448 -0.1733
    1W        W60996  14.308  15.695   7.922  0.0649 -0.2534 -0.1852
    1W        W60997  25.987  26.418   8.025 -0.1939  0.0556 -0.0507
    1W        W60998  26.617   5.232   1.169 -0.0455 -0.3197 -0.0914
    1W        W60999  25.899  23.590   3.045  0.1282  0.0081  0.0222
    1W        W61000   7.501  25.673   1.500  0.0941  0.2992  0.0794
    1W        W61001  12.916  22.298   6.882  0.1435 -0.2129  0.3496
    1W        W61002  13.117   3.889   0.898  0.0636 -0.1750  0.0039
    1W        W61003  25.273  17.453   9.307 -0.1455  0.0023 -0.0344
    1W        W61004   1.879  26.953   4.641  0.1069 -0.2883  0.0864
    1W        W61005  17.288  24.084   8.042  0.0330  0.0546  0.2551
    1W        W61006  16.021  15.589   2.381  0.0896 -0.0789 -0.3139
    1W        W61007  22.752   5.308   9.151  0.1412 -0.2031  0.0327
    1W        W61008  15.255   8.024   8.969 -0.1062  0.0120  0.3535
    1W        W61009   6.895  25.212   2.871 -0.2497  0.0124 -0.1919
    1W        W61010  16.776   5.525   1.517 -0.0417  0.1175 -0.1564
    1W        W61011  13.271   8.982   6.069 -0.0241 -0.0107 -0.0399
    1W        W61012   5.294  18.514   1.672  0.0377 -0.1249  0.2319
    1W        W61013   8.478   5.153   9.376  0.0237  0.0715  0.2422
    1W        W61014   2.040   6.546   9.322  0.2587 -0.1446  0.0588
    1W        W61015   4.208  25.448   7.996  0.0555 -0.0962 -0.1908
    1W        W61016   4.589   6.917   8.458  0.5467  0.3858 -0.0952
    1W        W61017  23.606   3.754   7.876 -0.0767  0.2978 -0.0288
    1W        W61018   1.375   0.683   1.726 -0.0370 -0.3507 -0.0399
    1W        W61019  15.677   0.257   9.387  0.2627 -0.0161 -0.2198
    1W        W61020  10.883  22.796   2.907  0.2224  0.0640 -0.0594
    1W        W61021   0.128  21.588   7.057  0.0961 -0.0038  0.2750
    1W        W61022  23.852   0.268   0.508  0.0893 -0.1436 -0.0792
    1W        W61023  23.802  17.657   1.430 -0.1351 -0.2494 -0.1047
    1W        W61024   3.491   6.034   0.678 -0.0448 -0.2790  0.0733
    1W        W61025  18.852  18.745   1.146 -0.0908  0.3843 -0.0169
    1W        W61026   4.594  10.812   2.212  0.0275 -0.4577 -0.0209
    1W        W61027  17.028  25.589   7.760 -0.3171 -0.1595  0.1853
    1W        W61028  21.155  17.204   1.936 -0.1045  0.0633  0.1277
    1W        W61029  21.583  24.993   7.899 -0.1448 -0.1030  0.1206
    1W        W61030   9.888  13.375   7.617 -0.0371 -0.3743  0.0523
    1W        W61031  17.940   6.342   8.928 -0.2513 -0.2126 -0.0574
    1W        W61032  23.661  14.565   1.403  0.0715  0.0240 -0.1052
    1W        W61033  17.084   6.955   6.794  0.0841  0.2388  0.0393
    1W        W61034  21.290  13.334   8.562  0.2743  0.0536  0.0796
    1W        W61035  28.289  19.394   9.431  0.1531  0.1117 -0.2601
    1W        W61036  21.017  26.603   7.057 -0.0449  0.0658  0.1660
    1W        W61037  28.001  15.590   3.134  0.0232 -0.0805  0.1180
    1W        W61038  23.407  25.813   9.871  0.1365  0.1055  0.2043
    1W        W61039  20.122   3.297   0.908  0.3315  0.3115  0.0369
    1W        W61040   8.941  26.920   9.330 -0.1733  0.0797 -0.0630
    1W        W61041   8.994  25.186   1.975 -0.1388  0.0595 -0.2449
    1W        W61042   6.237  22.792   2.290 -0.1754  0.0975 -0.5986
    1W        W61043   4.005   4.198   2.977  0.1068  0.2067  0.0652
    1W        W61044  13.454  16.466   9.750  0.0486 -0.0797 -0.1295
    1W        W61045  17.811   6.961   0.135  0.1604 -0.2757  0.2732
    1W        W61046   1.277  10.658   9.643  0.1081 -0.1348 -0.2823
    1W        W61047   8.665   9.584   0.424 -0.0107 -0.0152 -0.0711
    1W        W61048  19.958   6.901   0.873 -0.0781  0.0450  0.0449
    1W        W61049  13.003   2.797   8.199  0.3145 -0.2266  0.3543
    1W        W61050  15.109   6.686   6.586  0.0280  0.2007  0.2541
    1W        W61051  26.187   8.811   2.374  0.0456  0.1251  0.3097
    1W        W61052  14.991  27.522   8.957 -0.0249  0.1460  0.0017
    1W        W61053  25.868  23.529   1.629 -0.1649  0.3526  0.2096
    1W        W61054  17.756  21.336   7.258  0.1069  0.2124 -0.0313
    1W        W61055  23.627  16.252   9.583  0.0648  0.1556 -0.2585
    1W        W61056  11.204  15.186   7.733 -0.0326  0.1157 -0.1348
    1W        W61057   1.762  21.841   2.863  0.1869 -0.0591 -0.0015
    1W        W61058   5.371   6.483   0.432 -0.3241 -0.0643  0.0637
    1W        W61059   6.855  15.208   6.314 -0.3153 -0.0587 -0.0564
    1W        W61060  23.114  25.638   8.647  0.0595 -0.0906  0.3172
    1W        W61061  21.117   7.035   7.307 -0.4190  0.0821  0.1854
    1W        W61062  25.112  10.787   8.353  0.1131  0.2908 -0.0045
    1W        W61063  18.574  23.851   2.578  0.0390  0.0422 -0.1051
    1W        W61064  23.348  19.074   0.769 -0.1357 -0.0171  0.2607
    1W        W61065  15.733   0.134   0.915 -0.1373 -0.1729 -0.1550
    1W        W61066  19.090  28.799   1.290  0.3863  0.1143 -0.1710
    1W        W61067  17.958   1.161   8.701 -0.1792 -0.2712  0.0123
    1W        W61068   9.690   8.536   1.230 -0.1077 -0.3070  0.0471
    1W        W61069  16.207  25.966   8.903 -0.0464 -0.1254  0.0195
    1W        W61070   8.459  12.911   8.153 -0.1781  0.0272 -0.0190
    1W        W61071   8.340  14.077   1.405  0.2031 -0.1916  0.1171
    1W        W61072  13.439   1.469   7.798  0.3711  0.2117 -0.2226
    1W        W61073   9.875   5.285   2.123  0.2129  0.0429 -0.1976
    1W        W61074   7.979  15.781   1.507 -0.2407  0.0590  0.1229
    1W        W61075  11.635  28.208   2.134  0.1188  0.0680  0.1556
    1W        W61076  21.814   3.587   8.296 -0.1276  0.1321 -0.1027
    1W        W61077   7.461  16.125   1.373 -0.2033 -0.1435 -0.2674
    1W        W61078  16.305   0.415   6.115 -0.1895  0.1026 -0.0382
    1W        W61079   2.986  13.905   8.111 -0.0092 -0.1795  0.3180
    1W        W61080  26.203   1.484   2.413  0.1311  0.1293  0.0280
    1W        W61081   4.273  24.424   1.294  0.1571 -0.1759  0.0749
    1W        W61082  21.433  17.090   1.529 -0.0221 -0.0768 -0.1002
    1W        W61083   8.229  20.454   8.766  0.0803 -0.4346  0.0552
    1W        W61084  27.047  11.594   3.575  0.0982  0.2899  0.2291
    1W        W61085   7.072   2.831   1.079 -0.0980  0.0846  0.2729
    1W        W61086  15.028   9.126   7.429 -0.0103  0.4694 -0.1232
    1W        W61087   5.766  20.998   8.827  0.1777  0.2527  0.0173
    1W        W61088   1.903   5.079   0.611  0.4274  0.0622  0.0169
    1W        W61089  18.923  18.987   9.709 -0.2153 -0.3498  0.0260
    1W        W61090   1.763   3.399   2.887 -0.2921  0.0878 -0.0935
    1W        W61091  14.682  17.271   0.515 -0.1046  0.1529 -0.2499
    1W        W61092  18.203  12.662   8.987 -0.1196 -0.0424 -0.1035
    1W        W61093  11.906  19.805   8.068 -0.2277  0.0463 -0.2469
    1W        W61094   3.979  17.686   3.184 -0.1765 -0.0818 -0.0690
    1W        W61095   8.580  26.574   2.033 -0.0984 -0.2520  0.0146
    1W        W61096   5.877   3.887   0.348 -0.2697 -0.1080 -0.1464
    1W        W61097   2.366  24.233   7.405  0.2399 -0.0476 -0.1263
    1W        W61098   9.711  27.900   0.527  0.1902  0.0526  0.0488
    1W        W61099  28.229  26.857   0.877  0.2587  0.3829  0.1288
    1W        W61100   5.381  12.597   0.369  0.0295  0.0960 -0.1155
    1W        W61101   6.371  13.179   9.854 -0.1161 -0.0967 -0.1513
    1W        W61102  23.794   8.759   7.378 -0.0552  0.0881  0.0472
    1W        W61103  12.171  21.946   7.295  0.2410 -0.1483 -0.1512
    1W        W61104   7.954  18.752   2.035  0.1182 -0.1748  0.0109
    1W        W61105   2.033  15.132   1.484  0.0546 -0.2134 -0.0724
    1W        W61106  28.446  19.511   3.436 -0.0426  0.0361 -0.1381
    1W        W61107  16.229  21.689   2.482 -0.1820 -0.1970 -0.3023
    1W        W61108  27.927   8.226   0.557  0.0450  0.0393  0.2033
    1W        W61109  26.690  22.469   8.874  0.0169 -0.0181 -0.1103
    1W        W61110   4.421   1.958   8.641 -0.1480 -0.0875  0.0564
    1W        W61111   2.259  23.487   8.547 -0.2395  0.0422 -0.0711
    1W        W61112  20.644  15.071   6.734 -0.1493  0.4364 -0.2379
    1W        W61113   7.839  19.757   7.713 -0.1336  0.3310 -0.1690
    1W        W61114   1.289  10.135   2.640 -0.2576 -0.1134 -0.2335
    1W        W61115  25.759  12.611   1.617 -0.0436  0.0543  0.3615
    1W        W61116   6.821  12.501   9.095  0.0167  0.1887  0.0593
    1W        W61117  16.640   1.901   8.236 -0.0108  0.0788 -0.0584
    1W        W61118  15.189  13.132   6.924  0.2010 -0.0346  0.1410
    1W        W61119   7.526  26.363   7.788  0.3178 -0.0952 -0.1590
    1W        W61120  23.385  18.766   2.473 -0.0059 -0.0175 -0.1925
    1W        W61121   4.782  26.129   0.922  0.0787  0.1009 -0.2293
    1W        W61122  13.037  10.082   7.875  0.1050 -0.0283  0.0389
    1W        W61123   3.116   9.984   9.887 -0.1124 -0.1682  0.1373
    1W        W61124  28.571   7.725   0.319 -0.1719 -0.1260  0.0821
    1W        W61125  15.969   0.471   7.785 -0.0746  0.1500  0.0327
    1W        W61126  18.608  23.513   8.794  0.1601  0.2035  0.1447
    1W        W61127   8.978  14.366   0.662 -0.2671  0.0356 -0.2820
    1W        W61128  13.789  28.041   9.837  0.0682  0.1229 -0.0234
    1W        W61129  11.459  18.728   2.098  0.2217 -0.1639  0.0234
    1W        W61130  16.052   8.158   5.854 -0.0364 -0.0237 -0.2326
    1W        W61131  11.229  11.834   8.091 -0.3020  0.2686 -0.3357
    1W        W61132  17.241  15.725   1.843  0.0972 -0.1518  0.1897
    1W        W61133   5.075   4.797   1.317  0.1495  0.0308 -0.2595
    1W        W61134   0.080   7.678   2.312 -0.2017  0.0401 -0.2321
    1W        W61135  12.942  19.805   8.727 -0.0698 -0.0626  0.2923
    1W        W61136  26.125  26.029   1.231 -0.0309 -0.0672 -0.0032
    1W        W61137   4.969  15.512   1.159  0.0355 -0.1007  0.2414
    1W        W61138   9.276  23.414   2.079 -0.2421  0.1578 -0.2624
    1W        W61139   0.416   9.141   1.905  0.3061  0.2420  0.0174
    1W        W61140  14.454  19.954   7.204 -0.0330  0.0556  0.0167
    1W        W61141  17.869   8.229   9.898  0.0391 -0.1457  0.2825
    1W        W61142  22.740  13.838   3.068 -0.3614 -0.2943 -0.1011
    1W        W61143  25.363  16.642   8.964 -0.1160 -0.0942 -0.1112
    1W        W61144  22.412   0.837   8.823 -0.2573 -0.0285  0.0519
    1W        W61145  23.165   2.928   8.420 -0.2930  0.1031  0.2291
    1W        W61146  19.940  25.836   1.007  0.0291  0.1009 -0.1148
    1W        W61147  16.197  24.209   8.991 -0.0892 -0.3078 -0.0718
    1W        W61148  25.055   2.253   9.703 -0.1439 -0.1204  0.2861
    1W        W61149  16.835   7.518   6.873 -0.2137 -0.2074 -0.1521
    1W        W61150  20.108   1.092   2.259  0.0080  0.2586 -0.0411
    1W        W61151  27.413  21.186   1.693 -0.2931  0.2842  0.0759
    1W        W61152   0.303  13.443   7.941  0.2023  0.2355 -0.0511
    1W        W61153  11.130   7.349   5.863 -0.5413  0.3220 -0.0072
    1W        W61154  20.166  27.396   8.080  0.1763 -0.3276  0.2440
    1W        W61155  22.719   4.244   0.961  0.0297  0.0550  0.0361
    1W        W61156   8.481  27.665   1.517 -0.0612  0.2033  0.1103
    1W        W61157  24.456   7.273   1.489 -0.0699  0.3082 -0.0447
    1W        W61158  13.133   3.839   1.377  0.3506 -0.2163  0.1799
    1W        W61159   2.397   1.479   8.734 -0.0633  0.1048  0.0977
    1W        W61160  15.102  20.777   8.594 -0.0057 -0.0137  0.1866
    1W        W61161   6.605  10.708   1.289  0.0964 -0.2147  0.0052
    1W        W61162  26.765   3.860   1.495 -0.0937  0.1365  0.0484
    1W        W61163  16.768  25.055   2.153 -0.0304 -0.1146 -0.2857
    1W        W61164  20.289   8.643   1.456  0.0269  0.2398  0.1351
    1W        W61165  18.172  14.825   7.655 -0.0319  0.2211 -0.1326
    1W        W61166   1.382   2.537   9.395 -0.1357 -0.0751  0.0010
    1W        W61167  19.720  19.947   0.136  0.1313 -0.2512 -0.1424
    1W        W61168   5.809   9.750   1.696 -0.0802 -0.1119 -0.0657
    1W        W61169   3.387  24.686   6.962  0.0963  0.0057  0.0885
    1W        W61170  10.671  21.279   8.329 -0.1361  0.3725 -0.1297
    1W        W61171  14.458  14.583   1.186 -0.1295 -0.2191  0.1666
    1W        W61172   2.905  13.528   1.723 -0.1361  0.2042 -0.1733
    1W        W61173   2.549  28.688   2.852 -0.0383 -0.1187 -0.0170
    1W        W61174  26.577   1.260   2.745 -0.1378  0.1391  0.3826
    1W        W61175  28.109   9.286   1.898  0.1504 -0.0255  0.2044
    1W        W61176  13.062  15.207   8.800 -0.0494  0.0036  0.0114
    1W        W61177  28.099  19.239   3.214 -0.1884  0.1307  0.2112
    1W        W61178  26.411   0.687   9.638 -0.1290 -0.0600  0.0709
    1W        W61179  17.136   4.837   8.291 -0.1299 -0.1967 -0.1134
    1W        W61180   5.278  15.197   9.836 -0.0174 -0.0818  0.0789
    1W        W61181   7.704   4.962   1.070  0.3016 -0.0390 -0.0882
    1W        W61182  26.264  14.010   8.923  0.2231  0.1848 -0.3321
    1W        W61183  27.971  13.951   1.687 -0.0283 -0.1162 -0.1155
    1W        W61184  20.997   3.283   8.935 -0.1059 -0.0799 -0.0016
    1W        W61185  24.395  22.195   2.065 -0.0791  0.2742  0.3043
    1W        W61186  16.130  18.285   9.679  0.0420  0.0008  0.0063
    1W        W61187  18.348   8.924   0.907  0.1371  0.1515  0.1376
    1W        W61188  19.177  20.593   1.486  0.0862 -0.0471  0.3611
    1W        W61189   7.774  15.949   6.426 -0.0761 -0.1591  0.0484
    1W        W61190  18.144  25.611   8.108 -0.2286 -0.1009  0.2243
    1W        W61191  10.582   1.205   7.225 -0.0125  0.1218 -0.3320
    1W        W61192  23.684  26.926   1.924  0.1636  0.1794 -0.3790
    1W        W61193  13.140  21.766   7.538 -0.1504  0.1343  0.1309
    1W        W61194  12.284  19.193   0.416  0.2895  0.3064  0.0369
    1W        W61195  10.030  26.578   7.478 -0.1969 -0.1542 -0.2538
    1W        W61196  18.852  19.841   1.786 -0.1178 -0.0518  0.2603
    1W        W61197   3.099  11.146   8.053 -0.1325 -0.1046 -0.0405
    1W        W61198  21.870  17.609   8.500 -0.2972  0.1996  0.1293
    1W        W61199   1.722  15.793   0.547 -0.4160  0.1404 -0.0955
    1W        W61200  10.506   6.739   9.055  0.2316 -0.3094 -0.0160
    1W        W61201  14.826  20.395   6.619 -0.0335  0.0393  0.0891
    1W        W61202  13.059  19.996   7.403  0.0691 -0.1302 -0.0811
    1W        W61203  20.396  22.284   9.999  0.0149  0.0049  0.1269
    1W        W61204   4.616  17.258   2.488  0.2472 -0.0080  0.0310
    1W        W61205   6.431  25.404   9.128  0.0028  0.0586 -0.0340
    1W        W61206  19.632   3.035   7.214  0.0965 -0.0157 -0.2895
    1W        W61207  10.596  24.547   9.499  0.1575 -0.2195 -0.3118
    1W        W61208  22.823   1.729   8.913 -0.1005  0.1293 -0.0568
    1W        W61209   6.024  26.603   9.060  0.0687 -0.0067 -0.2039
    1W        W61210   3.430  11.658   1.589  0.1636 -0.2529 -0.1507
    1W        W61211  19.591  21.974   1.589 -0.1577 -0.2322 -0.2938
    1W        W61212   6.201  16.903   6.482  0.0060  0.2621  0.1891
    1W        W61213  12.015  12.379   1.336 -0.4477 -0.3268  0.1906
    1W        W61214   4.135  18.076   9.161  0.2569 -0.0245  0.0042
    1W        W61215  27.762   5.370   8.432  0.1037 -0.0073  0.1541
    1W        W61216   9.615  21.103   8.705  0.0831  0.0004 -0.1149
    1W        W61217  21.069   9.524   8.765  0.2359  0.3311 -0.1655
    1W        W61218   2.427  17.109   1.611  0.0310  0.1389  0.0673
    1W        W61219  25.060   4.623   0.793 -0.3117  0.2691 -0.2263
    1W        W61220   6.821  12.568   7.477  0.0028  0.1401  0.1517
    1W        W61221   8.454  24.341   0.330  0.0800  0.0625  0.0483
    1W        W61222  13.672  12.793   7.396  0.0504  0.1103  0.5198
    1W        W61223   4.866  23.819   8.359 -0.0005  0.1650  0.0377
    1W        W61224  11.513   8.309   0.052 -0.4031 -0.1331  0.0055
    1W        W61225   1.427   4.930   3.564  0.1517 -0.0349 -0.2382
    1W        W61226   5.282   7.933   0.937  0.1922 -0.2550  0.3853
    1W        W61227   4.796   8.660   2.609 -0.2764  0.1435 -0.0419
    1W        W61228  17.034  22.001   7.850  0.0103 -0.1347 -0.1721
    1W        W61229  23.784  22.670   2.929  0.0204  0.0489  0.3656
    1W        W61230   5.570   5.929   9.218  0.2309  0.1210 -0.1213
    1W        W61231  27.871  23.797   0.918  0.0285  0.2641  0.0837
    1W        W61232  11.377   9.959   7.759 -0.0237 -0.0161 -0.1475
    1W        W61233   4.764  28.614   0.268  0.1569 -0.0145  0.0757
    1W        W61234   4.141  27.246   4.377 -0.1931  0.2326  0.0323
    1W        W61235   7.412   1.281   9.464 -0.2256  0.3720  0.0893
    1W        W61236   4.137  21.499   2.279 -0.3170  0.3094 -0.0631
    1W        W61237  26.510  15.348   0.028  0.1052  0.0945  0.0590
    1W        W61238  15.036  12.829   0.192  0.0775 -0.1089  0.0631
    1W        W61239  11.802   8.559   8.330  0.0311  0.4903  0.4481
    1W        W61240   8.933   8.181   1.817  0.1105 -0.0908 -0.4037
    1W        W61241  25.061   2.173   2.652  0.0760 -0.2164 -0.2217
    1W        W61242  13.698   1.331   6.426  0.2756  0.0986  0.1798
    1W        W61243   2.107  10.672   1.837  0.0642 -0.0995  0.0578
    1W        W61244  14.532  27.936   7.817  0.0155 -0.0670 -0.3342
    1W        W61245  12.049  26.362   9.509  0.3813 -0.0181 -0.2109
    1W        W61246   4.697  26.452   1.482 -0.1760  0.1542 -0.1586
    1W        W61247  14.356  12.619   6.105  0.0588 -0.3088 -0.1554
    1W        W61248   6.922   1.125   8.893  0.2501 -0.1001 -0.0231
    1W        W61249  14.618  12.576   9.024 -0.1361  0.0288 -0.0139
    1W        W61250   3.721  23.514   2.648  0.0255 -0.3117 -0.0691
    1W        W61251  24.859  27.492   0.011  0.0229  0.1600  0.1390
    1W        W61252   2.617  26.899   9.979 -0.0678 -0.0779  0.1631
    1W        W61253   3.094  16.315   8.757  0.2329 -0.0473  0.0300
    1W        W61254   7.268  15.505   2.275  0.0636  0.1628 -0.0998
    1W        W61255  26.936   3.510   3.102  0.0549  0.0381 -0.2765
    1W        W61256  20.332  14.743   7.047 -0.1344  0.0067 -0.0057
    1W        W61257   4.875   2.225   8.598  0.2186  0.3692  0.2836
    1W        W61258  10.562   5.395   7.397  0.0815  0.1335  0.0226
    1W        W61259  18.940  25.486   8.364 -0.1244 -0.1973 -0.1091
    1W        W61260   2.204  28.732   1.053 -0.2945 -0.1235  0.0656
    1W        W61261  15.039   7.101   6.899 -0.0372  0.1084  0.3374
    1W        W61262   5.969   4.174   1.782  0.0569 -0.1019  0.1117
    1W        W61263   2.643  17.123   2.020 -0.0860  0.2872 -0.0163
    1W        W61264   8.986   4.827   7.158  0.0200  0.1779 -0.2719
    1W        W61265  16.329   9.610   0.122 -0.2641 -0.1755  0.3583
    1W        W61266   7.946   9.971   2.081 -0.3954  0.0720  0.0861
    1W        W61267  20.980  18.724   7.481 -0.3180 -0.0798  0.0500
    1W        W61268  20.863  23.036   7.387 -0.0447  0.0817  0.1381
    1W        W61269   3.878  12.374   8.266  0.2710 -0.0520  0.0198
    1W        W61270   3.641   3.887   7.414 -0.1042  0.1029 -0.1375
    1W        W61271   1.519  20.221   0.567 -0.0751  0.1763  0.0008
    1W        W61272   5.896  19.401   0.134 -0.0104  0.2168  0.0873
    1W        W61273  19.000  13.427   6.970 -0.0880 -0.1708 -0.3904
    1W        W61274  26.705  22.612   7.180  0.2302  0.0651  0.2222
    1W        W61275   1.831  21.865   7.829  0.1731  0.1283 -0.1863
    1W        W61276  26.239  15.382   9.630 -0.0866 -0.0106  0.0885
    1W        W61277   6.021  26.813   3.455  0.0905 -0.1071 -0.2838
    1W        W61278  28.513  27.945   0.432  0.2129  0.2570 -0.2796
    1W        W61279   5.682  16.496   7.067 -0.0075  0.2104  0.0114
    1W        W61280   9.859  25.710   2.220 -0.1166 -0.0706  0.1195
    1W        W61281  18.150  20.582   1.451  0.0310  0.2584 -0.0847
    1W        W61282  25.656  26.239   0.432  0.3391 -0.1477  0.0391
    1W        W61283  18.285   4.803   8.399 -0.1731  0.0163 -0.1477
    1W        W61284   0.917  15.271   2.929 -0.1299  0.0593 -0.0705
    1W        W61285  27.326   5.505   2.688  0.2103  0.1483  0.5659
    1W        W61286  14.075  23.999   6.828 -0.1904 -0.0766 -0.3659
    1W        W61287  14.219   6.153   0.010  0.1877  0.1631  0.0817
    1W        W61288  22.706  11.260   7.428 -0.0220  0.2343  0.2301
    1W        W61289   3.754  22.599   3.044 -0.0444  0.3316 -0.0394
    1W        W61290  13.059   3.963   9.721 -0.4090 -0.0214  0.0426
    1W        W61291  21.908   2.552   1.328 -0.1116  0.3170 -0.2683
    1W        W61292  28.465   0.831   8.646 -0.1476  0.0368 -0.1915
    1W        W61293  13.341  14.090   9.747 -0.2122 -0.0039 -0.0116
    1W        W61294  20.741   1.799   9.162  0.1233 -0.1122  0.2473
    1W        W61295  25.709   8.809   8.470 -0.0851 -0.2522 -0.1319
    1W        W61296  19.889  26.268   7.719  0.2657 -0.0340 -0.0030
    1W        W61297  25.507   0.268   2.108 -0.1956 -0.4422  0.2045
    1W        W61298  12.177  27.658   1.527  0.4620  0.0145  0.1846
    1W        W61299  19.105   3.886   8.354 -0.0389 -0.0276 -0.0912
    1W        W61300   7.673   0.377   7.617 -0.1025  0.0308 -0.3224
    1W        W61301   6.057  11.996   9.246  0.1073 -0.2843  0.1549
    1W        W61302  16.335  26.791   0.239  0.1441  0.0334 -0.0831
    1W        W61303  22.017  26.269   2.469 -0.0629 -0.0491  0.0505
    1W        W61304   1.685   4.296   9.355 -0.1439  0.1970  0.1499
    1W        W61305   0.234  17.201   9.455 -0.0130  0.1096 -0.2228
    1W        W61306  25.831  14.423   7.797 -0.1937  0.0350  0.2611
    1W        W61307  25.586   4.117   8.497 -0.0688  0.1882  0.0436
    1W        W61308   6.391   2.021   2.470  0.1463  0.1370 -0.1652
    1W        W61309   4.776  27.526   3.851  0.1973 -0.0244 -0.0242
    1W        W61310  15.258  19.293   0.768  0.1001  0.1518  0.2453
    1W        W61311   9.869  12.406   6.613  0.0741 -0.2848 -0.1310
    1W        W61312   1.912  20.650   4.199 -0.0444  0.0029 -0.0799
    1W        W61313  28.172  16.147   3.310 -0.1834 -0.1956 -0.0845
    1W        W61314   8.601  11.527   8.240  0.0709 -0.0255  0.2385
    1W        W61315  28.249   2.808   3.123  0.3052  0.1090  0.0474
    1W        W61316  21.437  20.393   1.803  0.3835  0.0726 -0.0878
    1W        W61317  19.007  13.610   9.248  0.3197 -0.0193  0.1330
    1W        W61318  18.367  19.478   6.285 -0.0558 -0.1824  0.0417
    1W        W61319  15.117  21.750   1.754 -0.0696  0.1724  0.0645
    1W        W61320   2.450  25.561   1.679  0.0858 -0.1424  0.1152
    1W        W61321  16.369  17.626   0.198 -0.1475 -0.1299 -0.0452
    1W        W61322   2.203  16.355   7.774  0.0940 -0.0856 -0.2527
    1W        W61323   9.025  11.471   0.601 -0.0295 -0.1879 -0.3709
    1W        W61324   3.903  21.577   9.428 -0.0044  0.2683 -0.2745
    1W        W61325  25.153   7.293   2.360  0.0284 -0.0670 -0.0417
    1W        W61326  13.195  22.751   7.698 -0.1750 -0.1331 -0.1074
    1W        W61327   5.544   5.258   8.698 -0.4385  0.1599  0.0650
    1W        W61328  26.655   5.025   9.393 -0.2020  0.0362 -0.2980
    1W        W61329  15.088  11.985   7.013  0.0479 -0.3766  0.1263
    1W        W61330  28.543  17.450   3.808 -0.0517  0.0066 -0.0405
    1W        W61331   5.983  16.855   1.922 -0.1450 -0.1389 -0.3036
    1W        W61332   7.477   3.787   0.638  0.4724 -0.1650  0.0374
    1W        W61333  12.435  15.619   1.460 -0.5206  0.3424  0.0147
    1W        W61334   2.902   5.732   2.584  0.0387 -0.0495 -0.1086
    1W        W61335   6.230  12.233   2.308 -0.2099  0.0363  0.0356
    1W        W61336   7.786   1.228   9.070  0.1902 -0.3696  0.0493
    1W        W61337   5.750  20.406   2.130 -0.0666 -0.0824  0.3241
    1W        W61338   2.760  27.504   0.805 -0.1889 -0.0576 -0.2778
    1W        W61339  26.748  14.583   3.254  0.2956 -0.6458 -0.1939
    1W        W61340   1.332  28.688   9.053  0.5070  0.2718  0.3259
    1W        W61341   9.993   4.521   8.565  0.0322  0.0157  0.0337
    1W        W61342  19.100  11.236   0.856 -0.0533  0.2646 -0.0878
    1W        W61343   3.846   9.664   0.036 -0.1488  0.2604  0.3470
    1W        W61344  19.349   7.829   8.392  0.4471 -0.2930  0.0737
    1W        W61345  22.438   6.472   1.094 -0.0269  0.3512  0.1215
    1W        W61346   3.861  25.130   1.883  0.1144 -0.0605  0.2006
    1W        W61347  12.182   3.332   1.279  0.2570 -0.1683  0.2212
    1W        W61348  23.080   3.219   9.870 -0.0069 -0.0159  0.2177
    1W        W61349   9.867  12.260   8.416  0.2244  0.3798  0.1817
    1W        W61350  23.781  12.732   9.744 -0.0934 -0.2516  0.3807
    1W        W61351   0.527  26.648   7.971 -0.0458 -0.1002  0.0900
    1W        W61352   6.423  26.540   8.258 -0.1320 -0.0929 -0.0444
    1W        W61353  22.879  20.928   3.653  0.0443  0.2643  0.1057
    1W        W61354  27.373  22.169   1.593  0.0913 -0.0978 -0.1098
    1W        W61355   9.315  25.980   3.018  0.0341  0.1720  0.0251
    1W        W61356  16.971  17.288   9.815  0.0267  0.2833  0.2905
    1W        W61357  19.885  28.618   1.339  0.1379  0.1963  0.0470
    1W        W61358   6.231  28.515   9.205 -0.1060  0.0107 -0.1437
    1W        W61359  26.005   5.602   0.448  0.1488 -0.1843  0.1554
    1W        W61360  14.306  11.212   1.107 -0.0499  0.0843 -0.1249
    1W        W61361  22.195  22.321   8.306  0.2039  0.2593  0.1473
    1W        W61362   0.832  20.765   0.454 -0.1674 -0.0109  0.1085
    1W        W61363  13.229  26.816   9.110  0.1966 -0.0094 -0.0918
    1W        W61364  24.863  12.172   8.724 -0.0644 -0.0987 -0.0246
    1W        W61365  19.291  10.396   8.795  0.2768 -0.1749  0.1698
    1W        W61366   2.282  19.894   2.893 -0.0382 -0.0177 -0.1132
    1W        W61367  16.010  24.027   2.448 -0.4187  0.0111  0.1676
    1W        W61368  25.537  11.362   6.683 -0.1469  0.0515  0.1665
    1W        W61369   1.079  27.423   2.697  0.0982  0.0673  0.3472
    1W        W61370   2.966   0.331   9.479  0.2813 -0.1459  0.0802
    1W        W61371  24.623  25.001   3.694 -0.1146 -0.0273  0.0970
    1W        W61372  18.153  24.388   1.008  0.1024  0.0118 -0.0917
    1W        W61373  24.869  10.342   0.970  0.0054 -0.2661 -0.0996
    1W        W61374  21.684   9.698   2.768  0.0048 -0.0759 -0.1324
    1W        W61375  21.252  27.874   0.781  0.1670  0.3849  0.3815
    1W        W61376   0.846  22.348   1.592 -0.0615 -0.0784 -0.0761
    1W        W61377  28.656  21.721   9.930  0.2623 -0.0178  0.0920
    1W        W61378  24.147  17.858   9.532 -0.1133 -0.2071  0.2228
    1W        W61379   6.659  28.357   4.378 -0.1167 -0.0884  0.0089
    1W        W61380   6.370   4.012   0.108  0.0973  0.2666  0.0997
    1W        W61381  16.180  13.652   9.000  0.2957 -0.1784 -0.1397
    1W        W61382  25.831  11.756   1.209  0.0689  0.0206 -0.1566
    1W        W61383   7.197   5.803   3.176  0.2329 -0.3432 -0.1765
    1W        W61384   6.943  28.874   9.889 -0.1171 -0.0736  0.0457
    1W        W61385  10.155  14.378   7.015 -0.0456 -0.1044  0.3306
    1W        W61386   7.300  11.132   9.097 -0.3914  0.4522  0.0656
    1W        W61387   3.861   3.265   4.625  0.0787 -0.0135 -0.2234
    1W        W61388  23.309  14.302   0.244  0.3516  0.2249  0.0200
    1W        W61389   7.672  27.835   3.618  0.2482 -0.3574  0.0932
    1W        W61390   4.352   2.063   1.404 -0.1331  0.1214 -0.0488
    1W        W61391  23.126  26.742   0.196  0.1325  0.0286 -0.1729
    1W        W61392  12.776   3.141   7.885 -0.0368  0.2078 -0.0465
    1W        W61393  19.313  21.132   5.946  0.1400  0.0486  0.1904
    1W        W61394   6.101   7.666   1.506  0.1453  0.0130  0.1557
    1W        W61395  12.261  12.049   8.300  0.1979 -0.4019  0.2138
    1W        W61396  19.654  10.125   7.672  0.1585 -0.1365  0.2648
    1W        W61397   7.208  18.014   0.947 -0.0937 -0.3595 -0.0564
    1W        W61398   5.685  25.071   8.932 -0.2934 -0.2583 -0.0060
    1W        W61399  16.535  20.465   0.500  0.0196  0.0293 -0.1943
    1W        W61400  25.377   1.443   2.038 -0.0265 -0.1034 -0.1893
    1W        W61401   8.948  26.836   1.229  0.0962  0.1312  0.2543
    1W        W61402  20.777  12.680   0.441 -0.1235  0.0955  0.0058
    1W        W61403   7.401  11.569   6.912  0.0166 -0.0323 -0.0500
    1W        W61404  16.501   9.651   8.396 -0.4378 -0.0590  0.1592
    1W        W61405   1.809  16.012   7.545  0.0609 -0.0932 -0.0489
    1W        W61406  19.187  18.480   6.253  0.2396 -0.1680 -0.2242
    1W        W61407   3.749   5.897   2.878  0.1660  0.2837 -0.1511
    1W        W61408  18.041  15.806   2.950  0.2589  0.1231 -0.0090
    1W        W61409  25.778  28.431   0.708 -0.1911 -0.2940  0.0684
    1W        W61410  19.848  18.363   0.125 -0.1492 -0.0947 -0.2160
    1W        W61411  22.909  27.364   3.246  0.1688 -0.3696  0.0337
    1W        W61412   4.955  27.644   0.842  0.0775  0.0889 -0.2697
    1W        W61413   7.812  24.089   8.826 -0.3190 -0.2901  0.1589
    1W        W61414   2.836  10.344   1.150 -0.1431  0.0893  0.1038
    1W        W61415   6.963   6.049   9.935  0.0504  0.4334  0.3154
    1W        W61416  11.728  20.721   8.072  0.2185 -0.0218  0.0036
    1W        W61417   6.710   5.728   1.531  0.0069  0.0934 -0.0123
    1W        W61418  18.374  13.205   9.943 -0.1830  0.0460  0.1443
    1W        W61419  25.887   6.298   9.191 -0.0737 -0.1489 -0.1471
    1W        W61420   0.779  21.608   8.916  0.0400 -0.3756  0.3439
    1W        W61421  16.127  17.224   9.862 -0.0874  0.0201  0.0591
    1W        W61422   7.529  15.959   7.907  0.3068  0.3148  0.0986
    1W        W61423  26.935   7.352   3.305  0.0192  0.3078 -0.0419
    1W        W61424  18.607  19.240   8.068 -0.0295 -0.2441 -0.3551
    1W        W61425  18.712   9.465   0.398 -0.0968  0.0842  0.3730
    1W        W61426  18.176   6.340   6.985  0.0353 -0.1720  0.0406
    1W        W61427  16.081  11.538   7.429 -0.1757  0.2641 -0.1672
    1W        W61428  12.888  22.860   0.337  0.0793 -0.0267 -0.1534
    1W        W61429  23.974  17.494   7.151 -0.1407 -0.1131 -0.0579
    1W        W61430  28.073  13.199   3.103 -0.0489  0.2645  0.0158
    1W        W61431  23.049  14.443   8.299  0.3866  0.1941  0.0497
    1W        W61432  28.422   1.395   8.415 -0.1048 -0.0241 -0.0538
    1W        W61433  12.174   2.353   9.732  0.2778  0.2370 -0.1803
    1W        W61434   4.501   3.690   7.875 -0.1214  0.2245 -0.0949
    1W        W61435   6.592   2.870   8.409 -0.1751 -0.1429  0.1662
    1W        W61436  11.495  10.305   9.071  0.1205  0.2170  0.3029
    1W        W61437   3.957  12.634   9.328  0.0433 -0.1670 -0.0799
    1W        W61438   8.716  22.841   1.549 -0.1542  0.0196  0.0937
    1W        W61439   9.829  11.967   0.190  0.0550 -0.1323  0.1096
    1W        W61440  25.682  25.597   1.880 -0.1464  0.0694 -0.2320
    1W        W61441  15.858  19.580   9.588  0.0175 -0.1375  0.1082
    1W        W61442  13.166  19.134   2.946 -0.2068 -0.2106  0.1344
    1W        W61443  22.992   4.048   2.156 -0.0290  0.1102 -0.3042
    1W        W61444  17.360  19.811   9.927  0.2949 -0.3013  0.2014
    1W        W61445  24.646  21.368   0.145 -0.2148 -0.1821 -0.1832
    1W        W61446   9.785   1.855   6.676 -0.0885 -0.2644 -0.1479
    1W        W61447  23.492   1.056   7.867  0.1307 -0.1748  0.1505
    1W        W61448  26.636  28.145   0.201 -0.0824 -0.0900  0.1428
    1W        W61449   4.861  18.541   9.019  0.0458 -0.3922 -0.0265
    1W        W61450   3.074   4.902   9.461  0.1717 -0.2583 -0.0039
    1W        W61451  14.859  16.397   1.449 -0.1843  0.0566 -0.1058
    1W        W61452   5.226  24.868   9.007  0.1220 -0.4192 -0.0458
    1W        W61453   3.515   6.874   3.026 -0.2165 -0.2175 -0.2630
    1W        W61454  14.927   1.100   8.226  0.0780  0.1426  0.0250
    1W        W61455  13.432   0.327   7.626 -0.1662 -0.1783 -0.2473
    1W        W61456  21.672   1.852   7.499  0.1554  0.1067 -0.1947
    1W        W61457  17.758  18.657   6.567  0.0475 -0.3555 -0.0441
    1W        W61458  12.058  10.684   9.520 -0.2700  0.3038 -0.1531
    1W        W61459  28.149   8.964   1.535  0.0726  0.0002 -0.0264
    1W        W61460   9.941   8.261   2.071 -0.2157 -0.0441 -0.0582
    1W        W61461   3.196   8.146   7.505 -0.2135 -0.0251 -0.2880
    1W        W61462   5.215   2.726   2.953  0.0651 -0.0925 -0.0007
    1W        W61463  16.762   9.617   7.928 -0.0597 -0.1010 -0.0354
    1W        W61464  16.093  22.099   9.575  0.1389  0.1013 -0.1506
    1W        W61465  18.546   1.911   7.902  0.1826 -0.1110  0.2538
    1W        W61466  14.927  15.661   7.802  0.0450 -0.1433  0.2564
    1W        W61467   5.056   8.379   0.760 -0.1554  0.0263 -0.2253
    1W        W61468   6.046  22.059   1.221 -0.1285 -0.1760 -0.0741
    1W        W61469  12.110  24.544   9.970  0.0112 -0.0835 -0.0817
    1W        W61470  16.259  24.700   1.623  0.0762  0.0262 -0.3164
    1W        W61471  22.168  21.224   7.382  0.0378 -0.0082  0.1195
    1W        W61472  15.297  16.101   9.410 -0.0811 -0.1611  0.2147
    1W        W61473  19.663  18.503   5.874  0.1493  0.0441  0.1153
    1W        W61474  23.000  16.787   0.565  0.0303  0.0706 -0.1631
    1W        W61475  24.315   9.245   2.406 -0.0964  0.1726  0.1156
    1W        W61476   1.384  15.424   8.176 -0.1725 -0.1157  0.0101
    1W        W61477  20.402   4.017   1.393 -0.0431  0.1046 -0.0980
    1W        W61478  22.704  19.443   0.591  0.4095  0.1389 -0.0259
    1W        W61479  23.415  25.832   8.349  0.0308  0.2493  0.1402
    1W        W61480  19.714  27.527   2.298  0.0143 -0.0179  0.1895
    1W        W61481  24.238  11.586   0.998 -0.5406  0.0995  0.0494
    1W        W61482   4.471  19.195   3.145 -0.1940 -0.0920  0.3021
    1W        W61483  27.091  21.692   1.120  0.4063 -0.0247 -0.2452
    1W        W61484   9.020   7.170   2.745  0.1342  0.0958 -0.1755
    1W        W61485  16.603  13.341   8.185  0.0400 -0.1732 -0.0331
    1W        W61486   8.691  10.983   8.491 -0.2633  0.0096  0.0965
    1W        W61487   4.528  22.803   9.259 -0.2011 -0.0456  0.2314
    1W        W61488  23.498  12.171   8.268 -0.0177 -0.0879 -0.0604
    1W        W61489  21.757   2.743   9.344  0.0545 -0.0420 -0.1066
    1W        W61490  21.870  25.117   2.139  0.0953  0.0250  0.2548
    1W        W61491  21.014  17.267   6.160 -0.1184 -0.0208  0.2385
    1W        W61492  20.126   4.654   0.432 -0.0570  0.0066 -0.0921
    1W        W61493  16.589   5.302   1.118  0.0661  0.2143 -0.0493
    1W        W61494   2.243   4.279   8.014  0.0557  0.0807  0.0196
    1W        W61495  17.018  16.343   9.805 -0.1947  0.0088  0.3894
    1W        W61496  10.261   1.996   1.306  0.1308 -0.0820  0.2488
    1W        W61497  11.948  18.847   8.295 -0.1909 -0.0445 -0.1868
    1W        W61498  27.340  12.511   0.471 -0.3248 -0.2846 -0.1539
    1W        W61499   2.851  10.940   3.502 -0.1281  0.2028  0.1488
    1W        W61500   8.385   6.547   9.223 -0.1741  0.0033 -0.1238
    1W        W61501   7.458  22.855   7.859 -0.5382 -0.1461  0.2087
    1W        W61502   0.006   5.636   9.639 -0.0215  0.0577  0.0405
    1W        W61503  11.165  23.187   8.998  0.1435  0.0751 -0.1428
    1W        W61504  28.119  23.449   3.379  0.1908  0.0658 -0.1448
    1W        W61505  10.846   4.998   8.896  0.0288 -0.1933  0.4288
    1W        W61506   9.790  23.329   2.112 -0.1279 -0.4900  0.1079
    1W        W61507  23.152  16.237   9.776  0.1318  0.1711  0.0883
    1W        W61508  16.204  13.351   0.571 -0.0543  0.3456 -0.1804
    1W        W61509  27.341   0.598   1.110 -0.1604 -0.0965  0.0357
    1W        W61510  19.395  10.613   9.940  0.0236  0.0315  0.0966
    1W        W61511   9.219  18.852   1.960  0.1327  0.2134  0.0533
    1W        W61512  20.425  21.104   6.705  0.3820  0.3349  0.1629
    1W        W61513  20.902  22.411   2.505 -0.1257  0.0666 -0.2431
    1W        W61514  11.178   9.031   0.559  0.2049 -0.0976 -0.2037
    1W        W61515  10.874  18.103   6.739 -0.0702 -0.4713 -0.0585
    1W        W61516  11.466  17.288   0.401 -0.0824  0.2083 -0.1425
    1W        W61517  19.983   3.789   7.497 -0.1536  0.1312 -0.2251
    1W        W61518  28.675   7.973   9.401  0.1526 -0.2304  0.0993
    1W        W61519  20.443  11.014   6.764  0.1201 -0.3754 -0.3580
    1W        W61520   8.587   9.703   2.502 -0.3013 -0.0765 -0.0509
    1W        W61521  27.839  28.056   8.878  0.1204  0.3338 -0.1438
    1W        W61522   0.832  15.250   0.037  0.2413 -0.4585 -0.0357
    1W        W61523   2.003  13.591   9.378  0.2799 -0.2111  0.1443
    1W        W61524  22.227  15.570   2.050  0.1597 -0.0214  0.3545
    1W        W61525  27.526   7.934   0.296  0.0718 -0.0783  0.0178
    1W        W61526  24.830  27.236   3.121 -0.2767  0.1249  0.0838
    1W        W61527  14.901  23.490   7.335 -0.1673 -0.2406 -0.1391
    1W        W61528  21.414   6.275   9.824  0.1730  0.2721 -0.0019
    1W        W61529   2.794  19.890   0.533 -0.1314  0.1166 -0.0336
    1W        W61530  21.237   6.167   9.394  0.1028 -0.2332  0.0970
    1W        W61531   6.337  18.523   2.735  0.0486 -0.0103  0.0174
    1W        W61532  13.265   3.595   6.969 -0.1860 -0.0416 -0.1359
    1W        W61533  14.648   8.789   1.429 -0.1894 -0.3219 -0.1409
    1W        W61534  17.104  12.797   9.811 -0.1296 -0.0039 -0.0481
    1W        W61535  16.567   6.116   9.664  0.0340  0.0066 -0.0405
    1W        W61536  27.241  23.791   8.722 -0.2510 -0.0263  0.1345
    1W        W61537   8.600  28.847   8.140 -0.0503 -0.0196 -0.1221
    1W        W61538  16.171   7.244   5.880 -0.1456 -0.0680 -0.3145
    1W        W61539   8.027  11.268   8.208  0.2148  0.1693 -0.1174
    1W        W61540   0.758  21.978   8.582 -0.1083 -0.4962  0.0082
    1W        W61541   8.790  11.996   0.793  0.2127 -0.3021 -0.1022
    1W        W61542  22.146   7.964   1.396  0.0114 -0.1414  0.1486
    1W        W61543  16.450  22.177   2.674  0.1013 -0.0676  0.1234
    1W        W61544  23.245  14.658   1.780  0.0061 -0.1985 -0.2298
    1W        W61545  24.478   5.034   8.165  0.1774  0.2099  0.1849
    1W        W61546  23.819   1.414   2.278  0.0954 -0.0562  0.0727
    1W        W61547  20.734   9.355   6.633 -0.1475 -0.0591  0.0220
    1W        W61548   9.695  23.271   9.843 -0.1738 -0.2133 -0.0499
    1W        W61549   2.284  18.600   0.423  0.0432  0.0852  0.0227
    1W        W61550   9.007  19.577   7.786 -0.4458 -0.0570 -0.0614
    1W        W61551  27.344  18.973   0.105  0.2693 -0.0802  0.0893
    1W        W61552   5.927  18.527   9.471  0.1197  0.0034  0.0410
    1W        W61553  11.313   4.075   7.236  0.1977  0.1009 -0.1146
    1W        W61554  10.156   6.325   6.446 -0.1419 -0.0777 -0.1897
    1W        W61555  24.076  15.348   1.171  0.2610  0.1170  0.0285
    1W        W61556   2.363  23.164   2.935  0.0467 -0.1273 -0.0523
    1W        W61557  18.064  25.170   2.546  0.0501 -0.3761  0.1008
    1W        W61558  25.312  11.275   7.605 -0.1775  0.0195 -0.2863
    1W        W61559  24.626  13.576   2.937  0.1311  0.1649  0.1200
    1W        W61560   2.628  24.385   0.739  0.2752  0.3562  0.2842
    1W        W61561   7.564  19.520   1.073 -0.0011 -0.0633 -0.1187
    1W        W61562  16.089  20.854   1.599 -0.1323  0.0538  0.0030
    1W        W61563   6.101  22.693   7.226  0.2708 -0.0289 -0.1381
    1W        W61564  24.395   8.437   0.038 -0.1119 -0.0426 -0.1599
    1W        W61565  25.492   6.901   2.872  0.2392 -0.0972 -0.0725
    1W        W61566   6.895  27.363   9.576 -0.3472  0.2495 -0.2721
    1W        W61567  24.168   1.588   0.330 -0.1031 -0.0173  0.1677
    1W        W61568  16.663  28.097   7.689 -0.0220 -0.0419  0.0267
    1W        W61569   3.589  13.344   3.019 -0.2711 -0.0608  0.0993
    1W        W61570   0.982  10.774   8.264 -0.1919  0.0688 -0.0479
    1W        W61571  23.429   6.386   8.362  0.2853  0.2354 -0.1071
    1W        W61572  19.967   7.959   0.162  0.0588 -0.2122  0.0199
    1W        W61573  18.436  11.377   8.106  0.1223  0.1199 -0.3705
    1W        W61574  12.005  22.426   0.988  0.1736  0.0151 -0.1125
    1W        W61575   3.567   2.260   0.934  0.1517 -0.3512  0.0884
    1W        W61576  22.066  23.122   2.817  0.1757  0.0603 -0.0672
    1W        W61577  23.750   9.042   8.272 -0.1326  0.0674 -0.0799
    1W        W61578  22.785  23.762   1.536  0.1568 -0.2278  0.1456
    1W        W61579  10.353   4.899   9.114 -0.1413 -0.1657 -0.0259
    1W        W61580   7.648  23.399   2.494 -0.1570  0.1884 -0.1624
    1W        W61581  15.834  12.611   7.736  0.1210  0.0918 -0.1157
    1W        W61582  24.270  13.445   9.368 -0.0696 -0.0446 -0.1721
    1W        W61583   6.886  24.609   1.433  0.2954  0.0509  0.0771
    1W        W61584   7.214  19.888   7.181  0.0176 -0.0661 -0.1590
    1W        W61585  26.211   7.054   0.811  0.2789  0.0081 -0.1175
    1W        W61586  16.456  27.977   9.926 -0.0316 -0.1962  0.0772
    1W        W61587  22.299   0.853   7.672  0.1206 -0.0185 -0.1770
    1W        W61588  24.153  18.644   0.523  0.0206  0.0520  0.0262
    1W        W61589  22.124  28.542   9.270 -0.1578 -0.5154  0.1457
    1W        W61590  15.414  15.887   7.603  0.2078  0.0582  0.0299
    1W        W61591  27.270   2.496   8.689 -0.0598  0.4993 -0.0345
    1W        W61592  20.641  25.337   3.025 -0.0491 -0.0179  0.0844
    1W        W61593  10.513  28.576   1.564 -0.1113 -0.0111 -0.2398
    1W        W61594  20.594  18.060   9.034 -0.1771 -0.3308  0.2216
    1W        W61595  13.466   7.687   1.833 -0.3603 -0.0431  0.1845
    1W        W61596   4.354  26.918   2.171 -0.0093 -0.0367  0.0204
    1W        W61597  28.287  18.619   9.463 -0.3705  0.1318  0.0112
    1W        W61598  23.290  26.224   2.653 -0.1759 -0.1107  0.1942
    1W        W61599  24.759   1.821   9.604  0.0389  0.1717  0.0102
    1W        W61600  12.704   6.212   8.674  0.0274  0.2365  0.1050
    1W        W61601   2.087  14.650   1.212 -0.0270  0.3785  0.1464
    1W        W61602  21.704  16.613   2.261 -0.3300  0.1217 -0.1204
    1W        W61603  14.583   4.095   6.521 -0.1238 -0.0177 -0.1128
    1W        W61604   1.984   0.315   2.613  0.1056  0.2192 -0.0025
    1W        W61605  16.009  27.974   0.638 -0.3017  0.2296 -0.0901
    1W        W61606  16.604  20.777   2.290 -0.0153 -0.5074 -0.1766
    1W        W61607  22.662  18.153   1.861 -0.1850  0.3138 -0.2509
    1W        W61608  13.583  18.220   1.880 -0.2774  0.1776 -0.2661
    1W        W61609   2.849  23.526   2.912  0.0726 -0.1813 -0.2299
    1W        W61610  23.129   1.799   3.094 -0.2092  0.0335 -0.0565
    1W        W61611  21.636   7.060   1.549  0.1442 -0.1948 -0.0740
    1W        W61612  18.054   1.845   0.322 -0.2283 -0.4466  0.1695
    1W        W61613  20.564   3.385   7.871  0.0264 -0.2440 -0.0944
    1W        W61614  20.054  10.810   8.167  0.0791 -0.2839  0.0006
    1W        W61615  12.825  18.722   0.680  0.1357 -0.2930 -0.2255
    1W        W61616  20.776   6.875   1.316 -0.0239  0.0949  0.0010
    1W        W61617  12.478  14.247   8.678  0.3748 -0.1465 -0.0398
    1W        W61618   5.081  27.071   0.924  0.0304 -0.0208  0.0709
    1W        W61619   2.998   2.736   9.018 -0.2373  0.0018 -0.0848
    1W        W61620   7.052   6.242   7.398  0.2364 -0.1939  0.0376
    1W        W61621  10.117  27.612   0.875  0.1291 -0.2372 -0.0588
    1W        W61622   7.569  28.704   0.841  0.0440 -0.3456  0.0884
    1W        W61623   0.991  21.396   0.573 -0.1674 -0.2776  0.0694
    1W        W61624   7.923  15.262   1.361 -0.0582 -0.0574 -0.1555
    1W        W61625  18.442   2.756   8.133  0.0141  0.0521  0.2088
    1W        W61626   6.054  17.845   9.746 -0.0445  0.2351 -0.2035
    1W        W61627  21.485  19.585   1.634  0.0741  0.0762  0.0180
    1W        W61628   9.778   0.478   8.067  0.1025  0.1117  0.2780
    1W        W61629   7.490  16.885   7.823  0.2854 -0.1934 -0.3684
    1W        W61630   4.253  27.141   3.165 -0.3297  0.1212  0.3343
    1W        W61631  27.668   4.894   0.296 -0.2294 -0.0622 -0.1603
    1W        W61632   0.616   0.025   8.813  0.1522  0.3032  0.0218
    1W        W61633  10.048   6.500   9.648 -0.1379 -0.1772 -0.0123
    1W        W61634  18.037  22.161   6.554  0.1190 -0.2656 -0.1886
    1W        W61635  23.289  21.121   9.268 -0.2435 -0.0372 -0.2736
    1W        W61636  21.173  15.420   1.891 -0.0638  0.1681 -0.3037
    1W        W61637   3.857   2.022   2.376 -0.0084 -0.2566  0.0849
    1W        W61638   0.470   4.334   8.186  0.1201 -0.0780 -0.1616
    1W        W61639   6.474  26.605   0.213  0.1151 -0.1211  0.0680
    1W        W61640   9.633   6.204   0.374 -0.0904 -0.1695 -0.3246
    1W        W61641  11.916  21.393   2.729 -0.0783 -0.2892  0.1729
    1W        W61642  27.108  18.795   0.940 -0.1084 -0.1259 -0.1165
    1W        W61643  15.084  21.729   0.494 -0.2378  0.0825  0.5900
    1W        W61644   3.488  14.931   1.504  0.1490  0.0117 -0.0786
    1W        W61645  17.828  12.916   9.226 -0.3188 -0.1846 -0.0038
    1W        W61646  18.975  24.822   2.349  0.0092 -0.2251 -0.0692
    1W        W61647  20.881  10.734   6.331 -0.2476 -0.1028 -0.1682
    1W        W61648   8.854  25.804   6.998 -0.0411  0.0980  0.4275
    1W        W61649  22.741   6.288   7.315  0.0519 -0.2689 -0.0586
    1W        W61650  23.226   7.782   1.899 -0.2550  0.2537  0.0429
    1W        W61651   5.737  21.864   7.726  0.0482 -0.0764 -0.2692
    1W        W61652  11.450  25.695   0.599  0.0244  0.4256  0.0390
    1W        W61653   5.396   3.761   7.948 -0.1362  0.1706  0.0158
    1W        W61654   9.523   7.852   1.463 -0.1606 -0.1317  0.0034
    1W        W61655   1.308  12.162   7.585  0.2643 -0.0382  0.1820
    1W        W61656  19.257  15.263   9.827 -0.0742  0.2257  0.0838
    1W        W61657  22.483   6.431   9.710  0.0415 -0.0314 -0.1119
    1W        W61658   3.440   6.093   8.896 -0.1014  0.0216 -0.0333
    1W        W61659   9.756  13.916   9.431  0.0616 -0.0421  0.3622
    1W        W61660  10.743   7.252   8.961 -0.1679  0.1407  0.1709
    1W        W61661  26.736  11.031   0.767  0.0500 -0.0366  0.0665
    1W        W61662  25.810   6.582   3.485 -0.0666 -0.1316  0.3307
    1W        W61663  19.377   8.950   0.347  0.1160  0.1568  0.2317
    1W        W61664  10.321   8.009   1.820 -0.0292 -0.0555  0.2502
    1W        W61665   4.416   2.817   9.119 -0.2500  0.1771  0.1185
    1W        W61666  13.240   8.415   6.565 -0.0736 -0.4337 -0.1885
    1W        W61667   3.643  19.856   8.961  0.0945  0.2274 -0.0112
    1W        W61668   9.656   4.577   8.183 -0.0335  0.2362 -0.2671
    1W        W61669  25.768  28.665   3.336  0.0991 -0.1132 -0.0811
    1W        W61670  17.122  23.007   6.635  0.4216  0.2330 -0.1992
    1W        W61671  14.186   0.424   2.947  0.0276  0.1383  0.0043
    1W        W61672  17.548  21.626   2.167 -0.1347 -0.0855  0.1511
    1W        W61673   9.224  17.870   1.869 -0.4556  0.1583 -0.4238
    1W        W61674  24.671   7.023   2.407  0.1701 -0.0624 -0.1152
    1W        W61675  13.720  23.307   2.474  0.3712  0.0052 -0.3522
    1W        W61676  18.440  21.048   6.638 -0.3026 -0.1412  0.4082
    1W        W61677  27.269  26.820   9.311 -0.1693  0.2177  0.1308
    1W        W61678   5.402  18.473   9.184  0.1276  0.0591 -0.0843
    1W        W61679  16.922  16.657   6.951  0.0920  0.0723 -0.2714
    1W        W61680  18.727  28.228   9.353  0.0609  0.0593  0.2251
    1W        W61681  17.939  20.273   1.054 -0.1701  0.1245 -0.0936
    1W        W61682  18.624  19.509   8.669 -0.1700  0.1510 -0.0833
    1W        W61683   0.611  15.370   2.555  0.1497 -0.0707 -0.1989
    1W        W61684   9.291   6.738   1.833  0.1863  0.0973  0.2239
    1W        W61685  15.401  23.922   7.235  0.0487  0.1257  0.1584
    1W        W61686  21.255  27.641   9.808  0.4288  0.1374  0.2960
    1W        W61687  27.046  20.848   3.152 -0.1596  0.0844 -0.3303
    1W        W61688   5.447  20.965   0.590 -0.2599 -0.0688  0.1299
    1W        W61689  21.892  13.159   7.679  0.0560 -0.0327  0.0815
    1W        W61690  26.226   6.400   8.798 -0.0041  0.0665  0.0663
    1W        W61691  24.590  12.962   8.261  0.1804  0.0949  0.0698
    1W        W61692   1.580   6.946   1.542  0.0171 -0.1000  0.2456
    1W        W61693  19.349  11.394   9.300 -0.1436 -0.1309 -0.0640
    1W        W61694  23.608  27.624   1.809  0.3500  0.0283  0.0143
    1W        W61695   8.329   1.313   1.059 -0.0112  0.1149  0.1886
    1W        W61696  18.206  16.136   9.838 -0.1241 -0.2582 -0.1232
    1W        W61697   6.861   0.205   0.364  0.1783 -0.0940  0.3732
    1W        W61698   8.564  17.071   8.137 -0.1163 -0.0294  0.1659
    1W        W61699   4.051  16.600   7.941  0.0364 -0.0549 -0.3024
    1W        W61700   0.842  19.223   8.156  0.2055 -0.3529 -0.1946
    1W        W61701   5.907  10.000   0.089 -0.0334 -0.0501 -0.0449
    1W        W61702  27.476  15.794   9.038  0.1367  0.1054 -0.1112
    1W        W61703   5.271   7.472   8.665  0.0201 -0.0484  0.0844
    1W        W61704   3.303  21.945   8.013  0.1124  0.1551  0.3745
    1W        W61705   0.464  23.159   6.726 -0.0056 -0.4954  0.1561
    1W        W61706  24.852  22.228   0.640 -0.0219  0.0202  0.1418
    1W        W61707  14.782  23.766   3.418 -0.0611 -0.3477  0.1374
    1W        W61708   4.455  25.329   2.830 -0.0665  0.1484 -0.1481
    1W        W61709  20.825  27.048   6.962 -0.0906 -0.3535  0.0220
    1W        W61710  10.896   5.187   6.721  0.2118 -0.0364  0.1206
    1W        W61711  15.846   2.773   8.249  0.0198 -0.0722  0.0455
    1W        W61712  20.737   4.116   0.352  0.2071  0.1794  0.1630
    1W        W61713   0.549  22.736   8.769  0.0986 -0.2007 -0.1094
    1W        W61714   0.207   6.922   8.561  0.0023  0.1505  0.0142
    1W        W61715   6.884  26.844   0.037 -0.0446 -0.4234  0.0038
    1W        W61716   7.832  13.023   9.059 -0.2468 -0.0568 -0.0513
    1W        W61717   3.715   2.725   0.969 -0.0799  0.1758 -0.0755
    1W        W61718  22.380   3.853   8.549 -0.1901 -0.0433  0.0755
    1W        W61719   3.652  11.014   9.436  0.1051  0.1534 -0.1267
    1W        W61720  28.491  10.309   2.673  0.1643 -0.0853  0.1766
    1W        W61721   3.650   4.411   3.624 -0.1816  0.1212 -0.0102
    1W        W61722  27.719  10.555   8.309 -0.0368 -0.1928  0.0472
    1W        W61723   9.329  25.221   9.095  0.3112  0.2601  0.0672
    1W        W61724  17.366  11.575   8.649  0.1289 -0.0186  0.1079
    1W        W61725  17.631  12.374   2.193 -0.0208  0.0282 -0.0565
    1W        W61726   0.153  26.952   9.296 -0.0343  0.1401 -0.0027
    1W        W61727  11.442  12.802   6.099 -0.0837  0.1582 -0.1792
    1W        W61728   3.080  19.692   1.675  0.1378  0.3870  0.0107
    1W        W61729  20.982  21.002   9.424  0.0482  0.1519  0.3190
    1W        W61730   7.867   8.492   0.024  0.1762 -0.2693 -0.1560
    1W        W61731  21.173  15.315   7.058  0.0143 -0.0903 -0.0797
    1W        W61732  19.051  21.467   8.349 -0.0227  0.0286  0.0158
    1W        W61733   3.343   6.092   8.407  0.4210 -0.1687  0.1474
    1W        W61734  19.344  22.988   1.797  0.1930 -0.2660 -0.1543
    1W        W61735   9.784  20.746   9.059 -0.2701  0.0301 -0.1571
    1W        W61736   9.083  19.727   1.947  0.0554  0.0823 -0.2272
    1W        W61737  23.544  15.968   8.590  0.0596  0.0876  0.1517
    1W        W61738   7.178  26.588   2.108  0.0249  0.0102 -0.1955
    1W        W61739   1.439   8.793   1.947  0.1109 -0.1853  0.1381
    1W        W61740  20.960  19.755   7.834 -0.0400  0.0438 -0.3182
    1W        W61741  21.458  12.218   0.797  0.1074  0.3857 -0.3189
    1W        W61742   3.188   0.498   0.626  0.2822  0.0598  0.0616
    1W        W61743   0.383  22.911   8.183 -0.0452  0.0118 -0.1284
    1W        W61744  11.029  25.617   7.784 -0.1905  0.0455 -0.0191
    1W        W61745  27.704  24.190   1.185 -0.1196 -0.0720  0.0820
    1W        W61746  27.083   1.141   2.734 -0.3863  0.0100  0.0536
    1W        W61747  20.373  17.780   1.130 -0.0354  0.1036  0.3598
    1W        W61748  10.879   9.847   1.698  0.2150  0.3139  0.0063
    1W        W61749   0.682   3.042   0.507 -0.0174 -0.0931  0.0464
    1W        W61750  15.053  10.394   8.062  0.2486 -0.0228 -0.1006
    1W        W61751  21.686  10.108   9.015 -0.0706  0.2217  0.1294
    1W        W61752  24.632   4.445   0.544  0.0031 -0.0614 -0.1327
    1W        W61753  13.883  13.678   0.089 -0.0034  0.0748  0.0104
    1W        W61754  22.717  12.575   8.754  0.0406 -0.0715  0.2324
    1W        W61755   4.692  20.467   8.257  0.1002 -0.1447  0.4430
    1W        W61756  22.039  10.368   8.677 -0.2460 -0.1449 -0.1994
    1W        W61757   4.963   6.388   9.569  0.0538  0.1114  0.1802
    1W        W61758  18.194  18.854   6.262 -0.0377 -0.1671 -0.2450
    1W        W61759   5.845  11.162   7.993  0.2318  0.1423  0.1683
    1W        W61760   1.454   8.643   9.286 -0.0665 -0.2084 -0.0625
    1W        W61761  21.658  11.859   2.493 -0.0045 -0.0107 -0.1063
    1W        W61762   5.448   0.533   3.121  0.0215 -0.0483 -0.2236
    1W        W61763  26.827  24.135   8.731 -0.2488 -0.0234 -0.2908
    1W        W61764  11.208  10.731   1.274 -0.1407 -0.0458  0.3180
    1W        W61765   6.464   2.882   3.422 -0.1439  0.2001 -0.2702
    1W        W61766  27.931   2.346   9.523 -0.0019  0.2118  0.0612
    1W        W61767   1.793   7.626   3.329 -0.0273 -0.0392  0.1850
    1W        W61768  15.676   7.233   5.780  0.0965  0.1762 -0.0718
    1W        W61769  28.332   3.334   9.338  0.0550 -0.0898 -0.1281
    1W        W61770   4.373  22.086   6.823 -0.0270  0.1354 -0.1478
    1W        W61771   8.468  14.033   0.410  0.0205  0.0331  0.3642
    1W        W61772  26.061  18.206   9.132 -0.1170 -0.0545 -0.1533
    1W        W61773   6.043  14.724   0.243 -0.1115 -0.0837 -0.0565
    1W        W61774   0.197  21.251   3.638 -0.1023 -0.3442  0.4222
    1W        W61775  18.508  20.245   2.029 -0.0565  0.0740  0.1174
    1W        W61776  22.102  22.704   1.855 -0.1037  0.2540  0.0819
    1W        W61777  27.114  19.155   3.230 -0.2319  0.0032 -0.0037
    1W        W61778   8.121  21.138   1.652 -0.2178 -0.0950 -0.4312
    1W        W61779  15.895   5.543   0.418  0.1875  0.0983 -0.1061
    1W        W61780  21.026  15.504   9.022  0.0658 -0.0552  0.0209
    1W        W61781  11.876  21.858   2.998 -0.2415  0.0827 -0.0654
    1W        W61782  11.625   3.295   1.054 -0.1471 -0.3330  0.0898
    1W        W61783   1.801   1.125   9.354  0.5425  0.3156 -0.2754
    1W        W61784   0.707   6.839   0.354 -0.0150  0.1457 -0.0017
    1W        W61785   1.277  10.782   9.061 -0.1487 -0.0500  0.2719
    1W        W61786  25.893   8.896   9.327  0.0349 -0.2487 -0.1186
    1W        W61787  21.431  11.456   1.419 -0.1778 -0.0579 -0.1755
    1W        W61788  26.675  24.633   0.046 -0.0309 -0.1122 -0.1087
    1W        W61789  20.458  24.891   8.972  0.1561 -0.1288 -0.1803
    1W        W61790   6.732  23.444   9.912 -0.2234 -0.0479  0.0014
    1W        W61791   5.426  25.523   9.089 -0.0418  0.0467  0.0100
    1W        W61792  25.409  18.206   2.391  0.1412 -0.3380  0.2459
    1W        W61793   2.892  18.632   3.136 -0.5006  0.0063 -0.0479
    1W        W61794  14.068   3.432   8.782  0.1576 -0.1015 -0.1995
    1W        W61795   5.237  27.200   9.620  0.0391 -0.1052 -0.1580
    1W        W61796  19.893   1.548   0.515 -0.1376  0.4482 -0.0205
    1W        W61797  15.044  15.545   1.004  0.2531  0.0051  0.0475
    1W        W61798   3.403  27.916   2.017 -0.0016  0.0922 -0.2255
    1W        W61799  25.028  15.654   7.603 -0.0413  0.1338  0.1629
    1W        W61800  15.615  23.168   0.517 -0.1703  0.0080 -0.1477
    1W        W61801   0.086  22.623   1.019  0.0204 -0.3320 -0.2283
    1W        W61802   3.347   0.674   7.975  0.4885 -0.0712  0.1143
    1W        W61803  20.806  15.056   1.647 -0.2706  0.0922  0.1828
    1W        W61804   7.375  27.276   8.421 -0.2541 -0.0120  0.0283
    1W        W61805   4.488  27.744   9.374 -0.1501  0.2590  0.1378
    1W        W61806  17.985  19.077   0.137  0.0419 -0.0276  0.0561
    1W        W61807  20.502  10.531   1.748  0.1492 -0.1709 -0.1919
    1W        W61808   3.963  26.778   0.225  0.0371  0.2862  0.0523
    1W        W61809   5.165  11.395   0.290 -0.1147  0.0924  0.0818
    1W        W61810  21.288  23.698   2.661 -0.1417  0.3078 -0.0330
    1W        W61811   6.529  26.679   8.794 -0.0517  0.1076  0.1512
    1W        W61812  14.881  18.729   7.522  0.1241  0.1034  0.1756
    1W        W61813   2.605  23.712   9.410  0.0330  0.1151 -0.1642
    1W        W61814  12.710  17.590   7.603 -0.1905 -0.0716 -0.2845
    1W        W61815  13.299  19.423   1.819  0.1213  0.3086  0.1930
    1W        W61816  13.505  16.773   1.727  0.3342  0.0304  0.4250
    1W        W61817  26.522   3.515   1.889  0.2356 -0.1477 -0.0749
    1W        W61818  10.235  18.507   8.103 -0.0530  0.1414 -0.0558
    1W        W61819   9.277   1.085   1.226 -0.0882  0.0533 -0.1518
    1W        W61820  13.339  18.957   0.183  0.2274 -0.1099 -0.2331
    1W        W61821   0.550  25.483   1.227 -0.1942  0.0362 -0.0771
    1W        W61822  19.599  24.296   1.548  0.2581  0.1493  0.0806
    1W        W61823   2.028   2.884   8.948 -0.1012 -0.1542  0.1616
    1W        W61824   1.850   4.537   8.918  0.1691 -0.0635 -0.1620
    1W        W61825  28.177   9.066   2.800  0.1169  0.0516 -0.0180
    1W        W61826  27.725  12.394   9.167  0.0043 -0.1220  0.3049
    1W        W61827  20.405  17.150   8.008 -0.2624  0.0515 -0.0285
    1W        W61828  16.472   4.265   6.142  0.0173  0.1562 -0.1859
    1W        W61829  26.311  23.995   8.446  0.1117  0.0267 -0.0852
    1W        W61830  27.936   5.575   0.283  0.1158 -0.0553 -0.2157
    1W        W61831  15.232   7.738   0.584 -0.0458 -0.0212 -0.1802
    1W        W61832   5.748  25.096   8.005  0.3500  0.0897 -0.2169
    1W        W61833  17.044   8.489   1.588 -0.0275  0.1464  0.0666
    1W        W61834  21.623   6.995   7.940 -0.0240  0.1225  0.0718
    1W        W61835   8.611   3.958   7.631  0.0198  0.0855  0.0489
    1W        W61836   5.084   9.495   1.394  0.1305 -0.0604  0.3480
    1W        W61837   9.390   2.503   0.110  0.4154 -0.0024  0.1586
    1W        W61838  12.017   7.830   7.601 -0.0635  0.3230  0.0971
    1W        W61839  17.002  27.200   9.118 -0.1238  0.1533 -0.1316
    1W        W61840  11.658  12.021   8.977 -0.1914  0.0815 -0.1094
    1W        W61841   2.706   8.704   0.679 -0.0546  0.1848  0.3285
    1W        W61842   5.296  11.004   0.567  0.0940 -0.1205  0.0560
    1W        W61843   7.458  13.156   9.873 -0.2662  0.0902  0.1545
    1W        W61844  25.726  13.838   8.743 -0.1217 -0.1613 -0.1956
    1W        W61845   5.545  28.081   8.972 -0.1371 -0.0613 -0.1797
    1W        W61846   0.169  25.148   3.002  0.1119  0.5364  0.0722
    1W        W61847   0.385   7.653   3.413 -0.3946  0.1178  0.1482
    1W        W61848   2.991   6.345   3.320 -0.0950  0.1045  0.1539
    1W        W61849  21.946  10.571   9.757  0.2063  0.1589  0.0247
    1W        W61850   2.703  16.928   3.222  0.0092  0.3058  0.1445
    1W        W61851  10.328  24.085   1.978  0.0250  0.1547 -0.1775
    1W        W61852  15.690  11.152   6.151  0.3351 -0.1803  0.2479
    1W        W61853  11.365   5.026   8.909 -0.1099  0.0501 -0.0709
    1W        W61854  21.064   6.634   9.500 -0.1263 -0.0441  0.3648
    1W        W61855   6.814   4.066   0.451 -0.1423 -0.0951  0.2094
    1W        W61856  14.405  10.226   0.434 -0.0461 -0.0900  0.0179
    1W        W61857   5.234   2.557   1.484 -0.0456  0.0403 -0.2025
    1W        W61858   9.118   7.677   7.474 -0.1840  0.2243  0.2594
    1W        W61859   9.724   2.300   9.615 -0.3329  0.0771  0.2182
    1W        W61860  12.704   8.560   6.526 -0.3002 -0.2349 -0.1812
    1W        W61861  24.070  25.162   7.623  0.0335 -0.1616  0.3378
    1W        W61862   7.673  28.482   0.343  0.0310  0.0888 -0.2088
    1W        W61863  28.698  25.139   1.225 -0.2886 -0.1190  0.1001
    1W        W61864  21.906  13.160   2.219 -0.1594  0.0028  0.2405
    1W        W61865   5.359  17.123   1.392  0.0018 -0.1788 -0.0948
    1W        W61866   0.909  14.967   8.608  0.3453 -0.2997  0.1249
    1W        W61867  10.314  21.274   9.240  0.0169 -0.1411 -0.1954
    1W        W61868  17.993   6.581   7.989  0.2228  0.0298  0.0934
    1W        W61869  21.583  14.569   1.778 -0.1949 -0.3076  0.2014
    1W        W61870  26.416  23.711   0.970  0.1621  0.2591  0.1466
    1W        W61871  19.453  17.222   8.556  0.0967 -0.2701 -0.1141
    1W        W61872   4.459  25.700   8.436 -0.2849 -0.1134 -0.2039
    1W        W61873   1.779  28.868   4.023  0.0543  0.1863  0.0759
    1W        W61874  25.029   0.305   0.548 -0.3152  0.2502 -0.2473
    1W        W61875  12.055  11.607   6.422  0.3863  0.0797 -0.6406
    1W        W61876  26.278  11.826   6.336  0.0805 -0.0498 -0.2018
    1W        W61877  20.536  25.522   0.370 -0.2510  0.0224  0.4869
    1W        W61878   0.529   6.926   7.820  0.0629  0.4513  0.2043
    1WF      WF61879  21.654  22.895   0.551  0.1849  0.0697  0.1722
    1WF      WF61880  17.940  22.885   1.389 -0.2785  0.0733 -0.0192
    1WF      WF61881  23.988  26.394   8.130  0.1184 -0.4074  0.0821
    1WF      WF61882  18.941   7.526   9.325  0.1478  0.0416  0.2337
    1WF      WF61883  16.831  20.158   0.971 -0.0581  0.0404 -0.3651
    1WF      WF61884  22.487  24.164   9.968 -0.1336 -0.1019 -0.0250
    1WF      WF61885  20.814  21.624   2.876  0.0912 -0.0115  0.0433
    1WF      WF61886   7.019  14.092   9.483 -0.1338 -0.0028  0.2447
    1WF      WF61887  27.288  19.628   8.534  0.3743  0.2499  0.3590
    1WF      WF61888   3.353  25.013   8.359  0.1142 -0.2108 -0.1068
    1WF      WF61889  15.316  23.594   1.293  0.1090 -0.0437 -0.2700
    1WF      WF61890  17.061  10.300   7.710 -0.1749  0.0225 -0.3449
    1WF      WF61891   2.908  22.306   1.450 -0.2209 -0.0080  0.1011
    1WF      WF61892   3.015  20.222   9.717 -0.0918 -0.1339 -0.1023
    1WF      WF61893  23.290  14.046   1.459 -0.1255  0.1059 -0.0375
    1WF      WF61894   6.496  24.116   1.011  0.1323  0.1334 -0.0859
    1WF      WF61895   5.341  17.905   9.689  0.0718 -0.0163 -0.0536
    1WF      WF61896   1.137  23.500   1.718  0.0662  0.1686 -0.0853
    1WF      WF61897  22.211   1.675   8.357 -0.1018 -0.0411 -0.0725
    1WF      WF61898   9.264   3.361   9.238 -0.0231 -0.2871  0.2835
    1WF      WF61899   0.674   4.162   2.075 -0.0667  0.1282  0.0270
    1WF      WF61900  21.340  12.523   1.831  0.2977 -0.1760 -0.0297
    1WF      WF61901  18.726   1.420   9.203  0.0602 -0.0986  0.2928
    1WF      WF61902   9.647  26.458   1.834  0.1132 -0.1214 -0.3008
    1WF      WF61903   0.495  18.959   2.264 -0.0250 -0.3048 -0.0017
    1WF      WF61904  27.897  14.574   0.069  0.1027 -0.0888 -0.2379
    1WF      WF61905   0.560  21.316   1.549 -0.1836 -0.1805  0.2520
    1WF      WF61906  13.193  12.636   8.031  0.0065 -0.1178 -0.2031
    1WF      WF61907  10.226   4.854   1.551 -0.0463  0.0031 -0.0455
    1WF      WF61908   6.059  27.543   0.954  0.0903  0.0110  0.2370
    1WF      WF61909  19.370  14.874   8.542 -0.0077  0.2287 -0.0595
    1WF      WF61910  24.983  13.139   2.112 -0.0718  0.1545 -0.0762
    1WF      WF61911  14.992   3.413   8.548  0.0059 -0.4063 -0.2574
    1WF      WF61912  25.429  20.529   8.914  0.2470 -0.0948 -0.1125
    1WF      WF61913  21.405  18.794   9.159 -0.1583 -0.2426  0.1233
    1WF      WF61914  22.043  23.816   9.861  0.0129  0.1347  0.1245
    1WF      WF61915  27.325  16.580   3.232  0.0655  0.0419  0.1945
    1WF      WF61916  22.608  11.492   8.741  0.0460  0.4722 -0.1181
    1WF      WF61917  14.734   3.120   9.408  0.0850 -0.0084 -0.0651
    1WF      WF61918   2.304  26.199   8.837 -0.1963  0.0968  0.2916
    1WF      WF61919   4.336   2.114   3.319  0.1632  0.0034  0.0385
    1WF      WF61920   6.178  23.888   3.234 -0.2033  0.1624 -0.1714
    1WF      WF61921  16.980  22.611   9.420 -0.0589 -0.0095  0.1412
    1WF      WF61922  27.076   0.190   9.964 -0.1027  0.1129  0.0149
    1WF      WF61923  27.249   5.600   0.253  0.1004  0.1373  0.2779
    1WF      WF61924  14.672   0.001   9.242 -0.0400  0.0788  0.1436
    1WF      WF61925  20.064  12.156   7.982  0.0188 -0.2644  0.3004
    1WF      WF61926  22.850  15.244   9.832 -0.0740  0.0582 -0.1584
    1WF      WF61927  24.518  21.467   1.635  0.1527  0.1910  0.0168
    1WF      WF61928  14.162   6.802   0.074 -0.0611  0.0490  0.4723
    1WF      WF61929  26.809  22.742   0.958 -0.1615 -0.5996 -0.7290
    1WF      WF61930   7.448  22.345   1.613  0.3205  0.0920  0.2626
    1WF      WF61931  20.687  10.977   0.711  0.4889 -0.0475  0.0256
    1WF      WF61932  16.249  23.978   8.381 -0.1870 -0.1088 -0.1285
    1WF      WF61933   3.158  24.968   1.203 -0.1372  0.2512  0.2316
    1WF      WF61934  17.688   9.545   9.343  0.3663  0.4067 -0.1509
    1WF      WF61935  24.113   1.295   9.720 -0.4595 -0.1791  0.1114
    1WF      WF61936  14.799  14.379   0.154  0.1993  0.1594 -0.0299
    1WF      WF61937  14.194  10.966   7.096  0.0943 -0.3399 -0.1503
    1WF      WF61938  27.799  22.857   0.498 -0.0648  0.1756 -0.2077
    1WF      WF61939   6.196   0.589   0.701  0.0602  0.2140 -0.1597
    1WF      WF61940   8.927   2.286   2.058 -0.1514 -0.0718 -0.1015
    1WF      WF61941  26.733   0.565   2.714 -0.0829 -0.2303  0.1019
    1WF      WF61942  15.510   6.764   9.962 -0.1627 -0.0554 -0.0098
    1WF      WF61943   0.408  15.090   0.891 -0.0493  0.1763  0.1405
    1WF      WF61944  22.587  28.084   0.279 -0.4478 -0.1048 -0.0644
    1WF      WF61945  10.170   4.516   9.972  0.2107  0.3653 -0.5510
    1WF      WF61946  19.756  12.388   9.375 -0.0093 -0.0301  0.0122
    1WF      WF61947   0.100  18.341   1.363  0.0700 -0.3429 -0.0043
    1WF      WF61948   7.334   8.697   1.594  0.1477  0.1385  0.1820
    1WF      WF61949   5.422   2.220   8.911  0.1025  0.0577  0.0234
    1WF      WF61950   6.020  19.319   9.417  0.2715 -0.1282  0.0793
    1WF      WF61951  11.543  23.871   9.575  0.0237  0.0734 -0.0702
    1WF      WF61952  24.139  24.863   2.168 -0.2070 -0.0715  0.1779
    1WF      WF61953   0.304   0.723   1.397 -0.2274 -0.0815 -0.0511
    1WF      WF61954  25.675   4.048   9.524 -0.1449 -0.1287  0.1883
    1WF      WF61955  16.600  10.136   7.485 -0.3503  0.1074 -0.1804
    1WF      WF61956   7.002  20.237   1.472 -0.0477  0.1889  0.1140
    1WF      WF61957  21.562  10.953   2.753  0.1160  0.1940 -0.3082
    1WF      WF61958   3.420  14.211   9.007  0.2099 -0.1074  0.0300
    1WF      WF61959   8.632  13.848   7.489 -0.3292  0.1576 -0.0528
    1WF      WF61960  17.310  16.140   6.341  0.2693  0.0409 -0.3187
    1WF      WF61961  12.777   8.499   8.097  0.1360  0.2952  0.2869
    1WF      WF61962   7.849   9.531   1.025  0.0306  0.1123 -0.0982
    1WF      WF61963  19.048  16.915   1.557 -0.0084 -0.0716 -0.0094
    1WF      WF61964  17.101  19.757   0.849  0.2436 -0.1191 -0.3788
    1WF      WF61965   7.903  21.338   0.467  0.0006  0.0077 -0.0487
    1WF      WF61966   6.782  26.271   9.778 -0.0930 -0.2086 -0.1385
    1WF      WF61967   6.812   9.300   0.298  0.1079  0.1014  0.0276
    1WF      WF61968  18.115  17.150   1.360 -0.1078 -0.0001  0.0300
    1WF      WF61969  26.349  14.684   2.335  0.1723 -0.3583 -0.2703
    1WF      WF61970  10.471  14.094   8.200 -0.0762 -0.1913  0.1769
    1WF      WF61971  27.747  15.821   8.384 -0.1069  0.1640 -0.3032
    1WF      WF61972   4.503  11.387   1.135 -0.2178  0.0101 -0.1903
    1WF      WF61973  26.653  24.115   1.346  0.0190 -0.1020  0.7114
    1WF      WF61974   2.565  21.654   0.058 -0.1529 -0.3165 -0.2007
    1WF      WF61975  15.415   7.448   7.215 -0.0221  0.2690  0.1085
    1WF      WF61976  13.934  10.535   0.730  0.1219 -0.3373  0.1993
    1WF      WF61977   2.707  16.718   7.686  0.0284  0.0932  0.1548
    1WF      WF61978   4.636   2.501   1.757 -0.2320 -0.0415  0.2633
    1WF      WF61979  24.210  17.336   9.193 -0.0530  0.0124 -0.1073
    1WF      WF61980  27.538   1.260   0.428  0.2087  0.3578 -0.2613
    1WF      WF61981   9.101  23.349   1.340 -0.0248  0.0897 -0.2162
    1WF      WF61982   0.834  18.776   1.011 -0.1137  0.1114 -0.0316
    1WF      WF61983  23.070  14.241   1.017  0.0567 -0.0500  0.0350
    1WF      WF61984   1.644   8.254   3.220  0.1120  0.0120 -0.1297
    1WF      WF61985  15.681   5.049   7.154  0.3315 -0.0992 -0.0800
    1WF      WF61986  15.435  22.313   1.386  0.1408 -0.2046 -0.2417
    1WF      WF61987  12.947  17.336   0.152 -0.0423  0.1268 -0.0048
    1WF      WF61988  27.745  13.141   2.593 -0.0374  0.0448  0.0907
    1WF      WF61989   4.156  28.684   0.255  0.1622 -0.1414  0.1900
    1WF      WF61990  12.898  28.347   0.994 -0.1513 -0.1410  0.0829
    1WF      WF61991  26.688  15.094   8.403 -0.1868 -0.1911  0.1776
    1WF      WF61992  24.797  13.080   2.540 -0.1941 -0.0701 -0.0285
    1WF      WF61993   6.822  16.477   2.037 -0.0745  0.1625 -0.1979
    1WF      WF61994  20.388   0.905   0.082 -0.0196  0.2910  0.0908
    1WF      WF61995   3.325   1.118   8.947  0.0092  0.2792  0.2461
    1WF      WF61996  13.378   0.737   9.370  0.0670  0.1693 -0.2709
    1WF      WF61997  17.363  23.579   6.764 -0.0155  0.1353  0.2313
    1WF      WF61998   3.058   0.874   0.045 -0.1640 -0.0913  0.1746
    1WF      WF61999   0.196  11.744   2.968  0.3668  0.1627  0.0021
    1WF      WF62000  15.155  21.186   1.527 -0.1272  0.0560 -0.2046
    1WF      WF62001  10.768  15.632   9.136  0.0560  0.0148 -0.1853
    1WF      WF62002  25.419   6.631   9.453 -0.2296  0.0385  0.0948
    1WF      WF62003   9.103   9.975   1.713 -0.0614  0.1335 -0.2331
    1WF      WF62004  22.417  24.697   0.032 -0.2119  0.0525  0.1394
    1WF      WF62005   3.266  23.002   9.597  0.2500  0.2882 -0.1057
    1WF      WF62006  11.639  21.789   0.155  0.1895 -0.0689  0.0655
    1WF      WF62007  21.582  20.346   7.066  0.0722 -0.0172 -0.1028
    1WF      WF62008  19.939   8.976   8.586  0.0883 -0.1850 -0.1155
    1WF      WF62009   8.638  10.783   9.867 -0.0707 -0.2271 -0.0445
    1WF      WF62010  13.866  27.267   1.119  0.1757  0.1499 -0.0413
    1WF      WF62011  19.174  25.377   7.855 -0.3749  0.1329  0.1496
    1WF      WF62012  14.046   8.083   0.131  0.0984  0.3965  0.3327
    1WF      WF62013   9.201  26.461   9.615  0.1796 -0.2762 -0.0582
    1WF      WF62014  12.405   0.193   9.071 -0.3587 -0.2840 -0.0624
    1WF      WF62015  24.775   2.248   1.494  0.1211  0.0052  0.0086
    1WF      WF62016  21.534  19.827   6.925 -0.2559 -0.0323 -0.0738
    1WF      WF62017  16.538   9.004   9.836  0.1235  0.0607 -0.1006
    1WF      WF62018   7.091   6.138   2.187  0.0900  0.0796  0.0681
    1WF      WF62019  14.251  18.190   8.907 -0.2399  0.1000  0.0272
    1WF      WF62020   6.089   5.899   8.864  0.2257  0.0223 -0.1114
    1WF      WF62021  26.306  18.507   6.877  0.0758  0.1899 -0.0926
    1WF      WF62022  21.589  25.729   3.313 -0.4030  0.2074  0.1157
    1WF      WF62023   6.931  14.001   9.986  0.2099  0.1749  0.2168
    1WF      WF62024  11.663  25.046   1.052  0.0885 -0.1270 -0.1926
    1WF      WF62025  27.907  21.144   7.293 -0.0489  0.1325  0.0906
    1WF      WF62026  18.925  24.910   0.708  0.1737 -0.0809 -0.1377
    1WF      WF62027  12.605  18.847   1.240  0.0952  0.1298 -0.0585
    1WF      WF62028  17.726  13.192   7.548  0.0197 -0.0508 -0.2520
    1WF      WF62029  22.394  28.344   8.781 -0.0835  0.0549  0.1905
    1WF      WF62030  24.889  10.640   9.373 -0.0265  0.2853  0.0647
    1WF      WF62031  23.573  12.839   0.335  0.1269 -0.1942 -0.0941
    1WF      WF62032   4.256   3.385   1.735 -0.3153 -0.4095  0.3842
    1WF      WF62033  27.163   5.682   9.777 -0.0787 -0.1807 -0.0825
    1WF      WF62034  24.444   0.930   9.775  0.0717 -0.2702  0.0312
    1WF      WF62035  17.507  16.605   0.190 -0.0365 -0.1837 -0.1559
    1WF      WF62036   2.426  17.028   0.792  0.1232 -0.1977  0.1835
    1WF      WF62037  22.861  20.147   8.761 -0.2352  0.1822  0.1932
    1WF      WF62038  12.781  26.631   8.676  0.1112  0.3261 -0.0507
    1WF      WF62039   1.326  19.347   9.311  0.2113  0.2194  0.0640
    1WF      WF62040  21.315  15.617   0.984 -0.1326 -0.2849 -0.0349
    1WF      WF62041  14.507  23.860   9.543  0.0240  0.0405  0.0622
    1WF      WF62042  19.598   9.929   0.817  0.0846 -0.0090  0.0149
    1WF      WF62043  19.674  19.631   7.180 -0.2594  0.1521 -0.1210
    1WF      WF62044   5.268   7.633   1.590 -0.1309  0.3323 -0.0859
    1WF      WF62045  17.074  15.083   7.631  0.6993 -0.1197  0.2259
    1WF      WF62046   3.005  13.141   0.404 -0.0848 -0.0039  0.0866
    1WF      WF62047   5.217  11.027   7.939  0.0450  0.0838 -0.0911
    1WF      WF62048  28.849  18.334   0.863 -0.1209  0.4171  0.0807
    1WF      WF62049   4.663   1.998   3.001 -0.1409 -0.1308  0.2512
    1WF      WF62050  18.458   1.407   0.977  0.3772 -0.0050 -0.2805
    1WF      WF62051   8.972   1.726   0.249 -0.1239 -0.1825 -0.3877
    1WF      WF62052  28.252  23.454   0.046  0.1400  0.1864 -0.0113
    1WF      WF62053   4.875  12.221   2.432  0.2652  0.4545  0.0051
    1WF      WF62054   5.055   1.617   0.846 -0.3042 -0.0255 -0.2134
    1WF      WF62055  27.588   8.518   3.759 -0.0217 -0.1100  0.2569
    1WF      WF62056  17.962  20.883   8.121 -0.1098 -0.0792  0.2247
    1WF      WF62057   8.188   1.879   1.981  0.3252 -0.0902 -0.0609
    1WF      WF62058   5.349  12.025   9.971  0.1539 -0.1561 -0.1845
    1WF      WF62059  13.914  16.073   8.895 -0.1142 -0.0099  0.0658
    1WF      WF62060  23.525  11.107   1.428  0.3165 -0.1530 -0.0447
    1WF      WF62061  14.136  27.599   0.823  0.0061  0.0206 -0.1700
    1WF      WF62062  19.985  18.988   9.957 -0.0304 -0.1206  0.3432
    1WF      WF62063   1.760  10.732   1.350 -0.3664 -0.2579 -0.0660
    1WF      WF62064   9.708  13.045   0.692 -0.0086  0.1270 -0.1826
    1WF      WF62065  19.005   7.026   9.284 -0.0181  0.3458 -0.1383
    1WF      WF62066   3.026   6.068   0.237  0.3567  0.3508 -0.1503
    1WF      WF62067   2.338  13.907   0.576  0.0686  0.1845  0.0989
    1WF      WF62068   0.762  24.813   9.386 -0.0426  0.1804  0.1233
    1WF      WF62069  22.702  16.506   8.305 -0.3136  0.0335 -0.2163
    1WF      WF62070  14.862  18.981   3.015  0.0759 -0.2372 -0.1858
    1WF      WF62071  23.587  18.970   0.032 -0.2793  0.2113  0.1154
    1WF      WF62072   1.809  19.516   0.931 -0.0261  0.1257  0.0701
    1WF      WF62073   8.124  23.143   9.949 -0.1731 -0.3419  0.2061
    1WF      WF62074  10.679   1.454   9.270 -0.0842 -0.0995  0.2354
    1WF      WF62075  21.369   9.221   7.737  0.2562  0.1536 -0.3565
    1WF      WF62076  11.788   5.325   0.651  0.1138 -0.2144  0.0889
    1WF      WF62077   0.246  25.643   1.762 -0.1822 -0.2470  0.1570
    1WF      WF62078   1.547  26.337   1.493 -0.2183  0.3571  0.2914
    1WF      WF62079   3.855  25.026   9.579 -0.2563 -0.0979  0.2056
    1WF      WF62080   8.686  23.288   2.531 -0.2430 -0.0465  0.1914
    1WF      WF62081  16.894  24.775   9.934 -0.3379  0.2409  0.1269
    1WF      WF62082   4.876  15.918   9.100 -0.0024 -0.3403 -0.1341
    1WF      WF62083  25.308  28.077   7.958  0.0483  0.0177  0.3239
    1WF      WF62084   8.605  13.443   0.182  0.0204  0.2250 -0.1478
    1WF      WF62085   5.340  18.364   8.065 -0.0245  0.2960 -0.1897
    1WF      WF62086  23.917  28.187   1.061  0.2890  0.0045  0.0358
    1WF      WF62087  27.344   6.832   0.351  0.0980 -0.4657 -0.1305
    1WF      WF62088  26.297  16.040   2.789 -0.1214  0.0548 -0.0424
    1WF      WF62089  18.452  21.635   2.453  0.1487  0.0117 -0.1508
    1WF      WF62090  19.848   2.026   7.217 -0.0601 -0.1261 -0.1859
    1WF      WF62091  25.666   3.842   2.698  0.1457 -0.2147 -0.6081
    1WF      WF62092  18.074  25.742   0.571 -0.0918 -0.1099  0.4057
    1WF      WF62093  12.977   1.623   1.441  0.1970 -0.0540 -0.1743
    1WF      WF62094  13.360  24.673   9.257 -0.0360 -0.2102 -0.1295
    1WF      WF62095  10.021  20.870   2.101  0.1265 -0.1146  0.0186
    1WF      WF62096  26.859  10.486   2.611  0.3596  0.0215 -0.1179
    1WF      WF62097  20.802  18.766   8.099 -0.1460  0.1804 -0.0013
    1WF      WF62098  14.731  18.087   0.424 -0.2033  0.0464  0.1158
    1WF      WF62099   2.935   5.136   2.608  0.0521 -0.2144 -0.2973
    1WF      WF62100  10.999   8.914   7.800  0.1556 -0.0852  0.4124
    1WF      WF62101  23.655  18.257   1.239  0.1539 -0.0983 -0.2870
    1WF      WF62102  25.325   2.747   2.055 -0.3359 -0.0766  0.0703
    1WF      WF62103  17.915  17.762   0.415 -0.2231  0.1607 -0.1996
    1WF      WF62104   1.619  22.999   0.017  0.5166 -0.0173 -0.0659
    1WF      WF62105  23.982  20.921   2.442  0.3588  0.2301 -0.0384
    1WF      WF62106  18.849   5.730   6.800  0.1558  0.1664 -0.1263
    1WF      WF62107   9.545  16.907   8.577 -0.1015  0.1061 -0.0126
    1WF      WF62108  22.979   8.960   7.062  0.1844 -0.4011  0.1247
    1WF      WF62109   3.397   8.321   1.449 -0.1952 -0.4517  0.1306
    1WF      WF62110   8.814  10.537   7.848 -0.0135  0.0716  0.1047
    1WF      WF62111   6.849  23.858   9.487  0.1142  0.0096  0.0544
    1WF      WF62112  10.543  16.189   8.591 -0.3083 -0.5843 -0.0378
    1WF      WF62113   3.107   5.460   0.496 -0.0209 -0.2621  0.1385
    1WF      WF62114  21.397   3.416   1.200  0.1351 -0.4862 -0.0892
    1WF      WF62115   9.666   7.602   6.812 -0.3710  0.3346  0.0135
    1WF      WF62116   7.533   2.895   1.494  0.0721 -0.0451 -0.3162
    1WF      WF62117  12.827   0.154   9.761  0.0747 -0.2670 -0.1265
    1WF      WF62118   9.489  17.166   9.940 -0.0426  0.3673 -0.1896
    1WF      WF62119  18.971   3.806   9.493 -0.1834  0.1041 -0.0631
    1WF      WF62120   2.753  28.705   2.179  0.3599  0.0549  0.1651
    1WF      WF62121  13.069  26.622   8.275 -0.0097  0.0123 -0.0560
    1WF      WF62122   0.522   0.633   9.727  0.1502 -0.0333 -0.0031
    1WF      WF62123  21.643  19.719   0.749 -0.2594  0.1880  0.0994
    1WF      WF62124  19.264   6.721   9.588 -0.1812  0.2082 -0.2518
    1WF      WF62125  26.032  11.223   7.867 -0.0048 -0.0555 -0.0489
    1WF      WF62126  23.775  18.547   2.040  0.2142 -0.0288  0.0240
    1WF      WF62127  26.466  19.682   1.315  0.5177  0.1925 -0.0212
    1WF      WF62128  12.960  11.508   5.198 -0.1525 -0.2288 -0.1129
    1WF      WF62129  20.309  26.263   0.045  0.4276 -0.0568 -0.2642
    1WF      WF62130  23.806   7.482   7.329  0.1122 -0.0438  0.0676
    1WF      WF62131  19.348   4.522   9.780  0.3186  0.2136  0.0720
    1WF      WF62132  10.080  24.626   0.714  0.2725  0.2281  0.1096
    1WF      WF62133   4.206  19.967   9.139 -0.0384  0.1069  0.1584
    1WF      WF62134   5.180   5.622   0.909 -0.0135  0.1453 -0.1138
    1WF      WF62135  20.195   8.919   9.034 -0.0688  0.2267 -0.0134
    1WF      WF62136   2.286   7.051   7.285 -0.1782 -0.3202  0.1048
    1WF      WF62137  13.316  19.582   1.037 -0.1980 -0.0793  0.0175
    1WF      WF62138  22.741  15.411   6.463  0.1251 -0.0499 -0.1433
    1WF      WF62139  26.499  27.794   1.931  0.2623 -0.2714  0.1007
    1WF      WF62140   8.773  13.480   9.661  0.0075  0.0246 -0.2582
    1WF      WF62141  14.985  21.370   8.354  0.2876  0.0644 -0.0315
    1WF      WF62142   1.137  25.709   2.965  0.2168  0.0248 -0.1651
    1WF      WF62143  12.205  17.484   1.329  0.0202  0.2133  0.0389
    1WF      WF62144  11.186  11.699   7.181  0.0475  0.0422 -0.0262
    1WF      WF62145  28.284   3.342   9.910 -0.0089 -0.1586  0.0330
    1WF      WF62146  25.878  25.888   8.966 -0.3389  0.0931  0.1147
    1WF      WF62147  11.440  18.685   1.446 -0.0072  0.2243  0.2067
    1WF      WF62148  22.183  16.319   1.270 -0.1459  0.0101 -0.1001
    1WF      WF62149  26.714  13.700   7.356 -0.2099  0.0318 -0.0143
    1WF      WF62150   5.656  11.854   0.334 -0.2051  0.1353 -0.0572
    1WF      WF62151   0.259  17.541   0.433 -0.0756  0.0713 -0.1581
    1WF      WF62152  10.774   4.169   6.869 -0.2060  0.0814  0.0410
    1WF      WF62153  14.529  15.178   8.178 -0.2168 -0.3046 -0.0194
    1WF      WF62154  11.776  23.926   9.159 -0.1209 -0.1840  0.1643
    1WF      WF62155  15.475  17.255   8.427 -0.0084 -0.1971  0.1852
    1WF      WF62156   1.354   9.687   8.082  0.0759 -0.1654 -0.0191
    1WF      WF62157  14.208  16.695   9.001  0.0475 -0.1090  0.1553
    1WF      WF62158  21.114  26.480   0.144  0.0270 -0.0352  0.2473
    1WF      WF62159   7.817   2.623   3.248  0.1233  0.0983  0.1124
    1WF      WF62160  21.831  18.312   9.988 -0.1487  0.1793 -0.0828
    1WF      WF62161  19.629   8.714   8.276 -0.0471  0.1841 -0.0908
    1WF      WF62162  21.241  19.907   0.505 -0.0598 -0.2699  0.1342
    1WF      WF62163   2.867   5.897   8.968 -0.5590  0.0862 -0.2382
    1WF      WF62164   4.678   0.812   2.107 -0.0967 -0.1534  0.0455
    1WF      WF62165   2.656  25.032   1.396  0.3729 -0.0530  0.2928
    1WF      WF62166  22.660  11.147   1.709 -0.1973  0.1696 -0.0990
    1WF      WF62167  18.533   7.789   8.866  0.5310  0.1405  0.1258
    1WF      WF62168  17.647   6.325   7.519  0.3289  0.2976  0.1399
    1WF      WF62169  26.158  13.313   8.058  0.0032  0.3927 -0.1321
    1WF      WF62170   3.842   6.450   2.620  0.2367  0.0678  0.1697
    1WF      WF62171   5.307  20.600   1.659 -0.1219 -0.2263  0.0901
    1WF      WF62172   1.780  21.952   9.874  0.2051 -0.2254  0.1240
    1WF      WF62173  27.437  18.798   1.599 -0.2696 -0.0328  0.2879
    1WF      WF62174  23.465  21.704   2.011  0.2354 -0.0567 -0.3194
    1WF      WF62175   9.632   7.879   9.741  0.1717 -0.0603  0.3315
    1WF      WF62176  26.472  13.094   8.731 -0.0292 -0.0755 -0.0423
    1WF      WF62177  15.133  16.406   0.189  0.0699 -0.2723  0.2340
    1WF      WF62178  15.750  10.807   2.259 -0.1278 -0.0577  0.1662
    1WF      WF62179  14.771  20.946   1.716  0.1065 -0.0948 -0.0939
    1WF      WF62180  27.819  23.076   2.579 -0.1183 -0.0008  0.1700
    1WF      WF62181  24.606  16.614   1.334 -0.2467  0.0072  0.3246
    1WF      WF62182   7.428   8.243   9.190  0.0317  0.0611 -0.1086
    1WF      WF62183  16.652  13.006   0.266 -0.1112  0.1895 -0.0351
    1WF      WF62184  28.161   3.987   0.769  0.1649  0.1778 -0.0675
    1WF      WF62185  24.010  15.811   6.950 -0.0071 -0.1072  0.2214
    1WF      WF62186  13.921  14.623   0.415 -0.1302  0.0330 -0.1555
    1WF      WF62187   3.973  17.669   8.134  0.2480 -0.2086 -0.0472
    1WF      WF62188   4.896  12.502   8.040 -0.0329 -0.1705 -0.1564
    1WF      WF62189   5.909  10.930   0.467  0.0636 -0.2426 -0.0873
    1WF      WF62190  26.279  11.917   9.235  0.1368  0.0588 -0.0156
    1WF      WF62191   6.869  22.083   9.509 -0.1319  0.0521 -0.0247
    1WF      WF62192   9.561  14.571   0.487 -0.0139  0.3844 -0.0805
    1WF      WF62193   4.199   3.264   2.468  0.2659 -0.1698  0.1937
    1WF      WF62194  11.842  22.104   8.676  0.2170  0.1465  0.1820
    1WF      WF62195  17.063  25.101   0.341 -0.1455 -0.1600  0.2816
    1WF      WF62196  23.865   5.462   0.260 -0.0506  0.1383  0.2098
    1WF      WF62197  16.886  17.312   1.294 -0.1609  0.0624 -0.0434
    1WF      WF62198  26.248  24.396   7.903 -0.0523  0.0928 -0.2404
    1WF      WF62199  18.732   6.613   1.685  0.2492  0.1679  0.1277
    1WF      WF62200  11.234  25.012   1.889 -0.0104  0.1937  0.2327
    1WF      WF62201  26.630   1.520   0.091  0.3023  0.0985 -0.0927
    1WF      WF62202   8.961  13.219   1.683  0.0189 -0.0893 -0.1461
    1WF      WF62203  25.751   8.337   9.398  0.0167 -0.0173 -0.0501
    1WF      WF62204  22.216  24.535   2.147 -0.1176  0.1346 -0.0892
    1WF      WF62205  15.171  27.187   0.694  0.0519 -0.1704  0.4109
    1WF      WF62206  16.114  27.387   9.232 -0.1323 -0.1683 -0.1434
    1WF      WF62207   0.174   2.886   0.198 -0.0265  0.0108 -0.0713
    1WF      WF62208  28.626   6.710   0.425 -0.0987  0.0431 -0.0209
    1WF      WF62209   1.165   1.188   1.446 -0.0859 -0.3354  0.1447
    1WF      WF62210   3.617  12.977   8.550  0.0601 -0.4803  0.1506
    1WF      WF62211   7.593   4.157   9.823  0.2914  0.1451  0.0344
    1WF      WF62212  28.826   2.758   2.132 -0.0621 -0.1390  0.3436
    1WF      WF62213  19.308   9.495   0.663  0.0756 -0.1864  0.1838
    1WF      WF62214   4.891   9.373   7.676  0.0953 -0.0193  0.0703
    1WF      WF62215  16.204  18.238   6.641  0.1166  0.0645 -0.2520
    1WF      WF62216  24.233  22.356   7.610  0.3358 -0.0807  0.0751
    1WF      WF62217  10.605   3.322   0.106 -0.2451 -0.0234 -0.1615
    1WF      WF62218  20.280  18.931   8.005  0.1188  0.0321 -0.0261
    1WF      WF62219  16.947  27.669   8.361  0.0076 -0.1137  0.0804
    1WF      WF62220  16.113  22.456   0.967  0.3461  0.3933 -0.2447
    1WF      WF62221  13.329   2.922   7.681 -0.2038  0.1120 -0.2068
    1WF      WF62222   9.646  14.542   0.990  0.0863 -0.0355 -0.2445
    1WF      WF62223   6.441  10.473   8.709  0.2135  0.0243  0.1427
    1WF      WF62224  27.253  28.751   0.847  0.0495 -0.2693 -0.0944
    1WF      WF62225  23.439  10.963   0.917 -0.0278 -0.2394  0.0694
    1WF      WF62226   0.112   5.919   8.957 -0.0376  0.1994  0.1566
    1WF      WF62227  25.333   8.304   8.577  0.4241  0.0287  0.2554
    1WF      WF62228   7.827  18.132   7.448 -0.4253  0.1909 -0.2078
    1WF      WF62229  11.677   0.673   1.441  0.0153 -0.3843 -0.0621
    1WF      WF62230   2.113   4.222   1.765 -0.4174  0.1494 -0.3885
    1WF      WF62231  21.596  21.556   8.027 -0.0806  0.0887  0.1352
    1WF      WF62232   4.723  18.147   0.718  0.0552  0.0017 -0.0649
    1WF      WF62233   3.848   0.104   9.965  0.2343  0.0086 -0.0719
    1WF      WF62234   0.062  12.725   9.352  0.1148  0.0021  0.0821
    1WF      WF62235  13.300  14.134   8.663  0.1132  0.4071  0.0160
    1WF      WF62236   2.862  23.563   1.552 -0.0359  0.0095  0.0347
    1WF      WF62237  24.837   8.200   8.565  0.4574  0.0359 -0.1200
    1WF      WF62238  11.696  26.315   8.866 -0.1514 -0.0308  0.1544
    1WF      WF62239  25.575   6.588   0.796  0.0024 -0.0065 -0.0988
    1WF      WF62240   4.471   2.459  10.002 -0.0499 -0.1078  0.0109
    1WF      WF62241  27.758   2.401   7.486 -0.0436 -0.2717  0.2054
    1WF      WF62242   9.660  23.766   8.119 -0.0605  0.3602  0.0551
    1WF      WF62243  27.755  11.485   0.552 -0.3467 -0.2328 -0.1127
    1WF      WF62244  23.817  11.712   9.544 -0.2784  0.3216 -0.2023
    1WF      WF62245   5.863   1.990   8.902  0.1607 -0.1641  0.1082
    1WF      WF62246  15.669  12.808   8.340 -0.0343  0.0546  0.4449
    1WF      WF62247  14.305  14.526   9.933 -0.0987  0.0915 -0.2936
    1WF      WF62248   8.730  24.533   2.822  0.0547 -0.1018 -0.0524
    1WF      WF62249  28.758   5.404   2.619 -0.0639  0.2193 -0.1275
    1WF      WF62250  19.614   6.360   9.596 -0.1188 -0.0258 -0.0266
    1WF      WF62251  24.979  24.083   9.458  0.0606  0.0659 -0.0633
    1WF      WF62252  24.137  20.335   0.687  0.2340  0.0889 -0.2839
    1WF      WF62253  27.584   7.362   1.800  0.0751 -0.2686  0.2011
    1WF      WF62254  14.438  14.575   0.516 -0.1063 -0.0059  0.1629
    1WF      WF62255  19.657  14.720   8.958 -0.1042  0.0679  0.0626
    1WF      WF62256  11.689  14.293   8.012  0.0197 -0.1176 -0.0750
    1WF      WF62257  19.820   1.891   1.492 -0.1411 -0.0794 -0.1006
    1WF      WF62258  28.138  23.299   0.584 -0.0351 -0.1318  0.0673
    1WF      WF62259   4.205  19.708   8.667 -0.2240 -0.0770 -0.2693
    1WF      WF62260  28.483   8.506   2.805  0.3293 -0.1549  0.4087
    1WF      WF62261  28.567   4.608   9.709  0.1846 -0.0348  0.1377
    1WF      WF62262  15.924  21.163   9.657  0.0077 -0.1679 -0.0825
    1WF      WF62263  10.284  18.419   1.232  0.1381  0.1281 -0.2827
    1WF      WF62264  22.871  21.553   0.473 -0.0852  0.3798 -0.1275
    1WF      WF62265   6.826   1.853   1.414 -0.0430  0.1690  0.0149
    1WF      WF62266   1.541  10.909   1.748  0.0827  0.1164 -0.0040
    1WF      WF62267  16.724  10.731   9.324  0.3964  0.0576 -0.1196
    1WF      WF62268  17.277  10.726   1.035  0.1832  0.0315 -0.2612
    1WF      WF62269   8.768   5.760   0.591  0.4858  0.0279  0.2359
    1WF      WF62270  27.160  19.557   9.010  0.3278  0.0796  0.1610
    1WF      WF62271   0.527  11.515   8.072  0.0975  0.0148  0.0976
    1WF      WF62272  11.466  21.600   1.128 -0.0813  0.1183 -0.1497
    1WF      WF62273  26.333  22.713   1.248  0.0266 -0.1061  0.0399
    1WF      WF62274  24.380  15.448   7.515  0.1483 -0.3732  0.2280
    1WF      WF62275  16.118   4.754   0.612 -0.0511  0.1651 -0.0146
    1WF      WF62276   7.743  27.788   9.868 -0.0395  0.0728  0.0311
    1WF      WF62277   2.735  18.339   1.789  0.1433 -0.4033  0.0221
    1WF      WF62278   3.158  25.363   7.170 -0.0748  0.0616  0.0998
    1WF      WF62279   9.399   8.299   9.901  0.1660  0.2505 -0.1684
    1WF      WF62280   6.137  22.286   7.722 -0.0997  0.1486 -0.2910
    1WF      WF62281   1.980   4.431   1.358  0.0274  0.0318  0.1339
    1WF      WF62282  12.109  23.607   1.382 -0.3464  0.1166 -0.2569
    1WF      WF62283  19.921  18.672   8.496  0.0547 -0.0786  0.1013
    1WF      WF62284  13.598  12.380   8.054 -0.1709 -0.0108 -0.0063
    1WF      WF62285  11.367  14.014   0.440  0.1302 -0.0048  0.1972
    1WF      WF62286  14.775  13.127   9.163  0.1222  0.1572 -0.1242
    1WF      WF62287  22.961  25.827   1.580 -0.1645  0.0350 -0.1412
    1WF      WF62288   6.015   1.501   1.305 -0.3239 -0.1704 -0.1017
    1WF      WF62289   6.766   0.249   1.370  0.2064 -0.1658  0.2366
    1WF      WF62290   1.640  26.884   0.656  0.1967 -0.3378 -0.1650
    1WF      WF62291   3.345  28.836   9.128 -0.0329  0.1909 -0.3079
    1WF      WF62292  17.509   8.557   9.471  0.0943  0.0743 -0.2290
    1WF      WF62293  20.116   7.981   7.544 -0.2540 -0.0175  0.4390
    1WF      WF62294   0.314  16.258   2.038 -0.4928  0.1201  0.3666
    1WF      WF62295  28.241  18.358   8.442 -0.1380 -0.2251 -0.2201
    1WF      WF62296  17.583  10.003   9.523 -0.1365 -0.0883  0.0700
    1WF      WF62297  20.582  10.163   9.307  0.0202  0.1554  0.2725
    1WF      WF62298   9.410  11.587   9.178 -0.0963 -0.1006 -0.0703
    1WF      WF62299  24.108   7.761   0.312 -0.0710 -0.0396 -0.2152
    1WF      WF62300  26.574   9.724   2.084  0.3669 -0.0886  0.0684
    1WF      WF62301  21.045  18.525   1.714 -0.0275  0.1901 -0.1343
    1WF      WF62302  23.483  22.583   9.558 -0.0761  0.0341  0.0264
    1WF      WF62303   0.472   5.781   8.577 -0.3602  0.1316  0.1149
    1WF      WF62304  19.638  24.452   9.124 -0.1654  0.3499  0.0307
    1WF      WF62305  26.768  14.976   2.359  0.0753  0.1890 -0.2380
    1WF      WF62306   3.762   9.724   0.660  0.0750 -0.3275 -0.2044
    1WF      WF62307   6.497  14.241   0.198 -0.0673 -0.1015 -0.2076
    1WF      WF62308  18.853  12.304   0.912  0.2598 -0.0430  0.1042
    1WF      WF62309  11.759  16.206   0.605 -0.1340  0.2100 -0.0692
    1WF      WF62310  25.955   9.881   0.775  0.1842 -0.1506  0.0716
    1WF      WF62311  10.639   5.229   0.037 -0.0122  0.0310  0.0552
    1WF      WF62312   9.616   8.476   2.689 -0.2322 -0.0773  0.0001
    1WF      WF62313  14.854   0.471   1.212 -0.0127 -0.2310 -0.4078
    1WF      WF62314   4.713  17.482   8.726 -0.2359  0.1541 -0.2485
    1WF      WF62315  13.394   7.937   7.445 -0.5353  0.1959 -0.1771
    1WF      WF62316  16.763   0.080   1.891  0.0282 -0.0574 -0.1157
    1WF      WF62317   4.139   7.335   0.233  0.0101 -0.2885 -0.1183
    1WF      WF62318  17.198  16.425   1.108  0.0573  0.2503  0.1474
    1WF      WF62319  25.513  24.927   0.855 -0.3358  0.1166 -0.3424
    1WF      WF62320  11.221  28.273   0.346  0.0500 -0.4376  0.1554
    1WF      WF62321  11.404   4.374   2.239 -0.4296 -0.0330  0.3297
    1WF      WF62322   4.562   1.973   2.516 -0.1765  0.3606  0.3254
    1WF      WF62323  11.825  10.902   8.321 -0.1032  0.0816  0.1046
    1WF      WF62324  18.625  17.839   8.572 -0.2775  0.2257 -0.1360
    1WF      WF62325   1.220  25.091   9.472  0.0243 -0.2345  0.1356
    1WF      WF62326  19.946   3.122   2.085  0.1320 -0.0128 -0.0569
    1WF      WF62327  18.060   9.785   7.621  0.0319 -0.0379  0.1241
    1WF      WF62328  13.153   4.610   0.666  0.3477 -0.0594 -0.2131
    1WF      WF62329   7.282   0.493   8.356  0.0011  0.0302 -0.0069
    1WF      WF62330  14.720  16.453   9.206  0.2961 -0.3350  0.1680
    1WF      WF62331  11.051   9.557   9.586 -0.0596 -0.2645  0.3608
    1WF      WF62332  21.835  27.894   8.303 -0.0424  0.0142 -0.0491
    1WF      WF62333   8.659  23.592   2.136 -0.0377  0.1804  0.1290
    1WF      WF62334  10.363  10.388   9.166 -0.3424 -0.0180  0.2107
    1WF      WF62335  18.254  14.068   0.546  0.1237 -0.0737 -0.0039
    1WF      WF62336  14.003   4.347   0.881  0.2512 -0.2754 -0.1936
    1WF      WF62337  10.935  28.537   9.479 -0.1329 -0.0408 -0.0447
    1WF      WF62338   5.656  13.320   9.683 -0.0774  0.1402 -0.1678
    1WF      WF62339   3.884   3.834   3.423 -0.0193  0.0690  0.1577
    1WF      WF62340  12.604  28.739   9.404 -0.0222 -0.0126 -0.0487
    1WF      WF62341  20.266   7.738   7.144  0.0475  0.1816 -0.0939
    1WF      WF62342   0.471  24.540   1.309 -0.2983  0.4097 -0.2494
    1WF      WF62343  16.365  11.793   8.382 -0.2725 -0.0907  0.0310
    1WF      WF62344   4.927  11.744   2.667 -0.0705  0.0576 -0.0400
    1WF      WF62345  17.320   3.005   2.005  0.1112  0.0309 -0.0181
    1WF      WF62346  18.818   1.686   1.132 -0.0838 -0.2483 -0.0603
    1WF      WF62347  24.612  25.147   0.740 -0.3588  0.0400 -0.1430
    1WF      WF62348   0.477   4.452   0.353  0.3830  0.0588  0.3344
    1WF      WF62349  11.960  16.362   8.452  0.2389 -0.0917 -0.0082
    1WF      WF62350  16.087  27.028   8.779  0.0091  0.2100 -0.1102
    1WF      WF62351  24.723  17.050   1.151 -0.1088 -0.2910  0.0736
    1WF      WF62352  18.218  28.140   2.071  0.0725  0.1361  0.2714
    1WF      WF62353  17.386   6.489   7.989 -0.0215  0.0188 -0.1235
    1WF      WF62354   1.438  26.588   8.658  0.1054  0.0905  0.0424
    1WF      WF62355  22.344  15.041   9.732  0.2165 -0.0899 -0.1859
    1WF      WF62356  26.455  28.724   9.246  0.0421 -0.0821 -0.0522
    1WF      WF62357  25.883   0.457   1.674 -0.0713  0.2449 -0.1487
    1WF      WF62358   5.785  13.960   8.251 -0.2126  0.0485  0.0859
    1WF      WF62359   7.689  12.575   0.833 -0.1454  0.2835 -0.2258
    1WF      WF62360   4.837  25.083   9.718 -0.2807  0.0876 -0.1983
    1WF      WF62361  24.489   8.985   9.785  0.0907 -0.0123 -0.1876
    1WF      WF62362   1.319   4.179   2.791 -0.0080  0.2307 -0.1425
    1WF      WF62363  21.830  19.009   7.777 -0.1347 -0.2626 -0.1573
    1WF      WF62364  21.317  25.938   0.261  0.4289  0.1273  0.2307
    1WF      WF62365  12.751  17.289   1.113 -0.1170  0.0290 -0.0340
    1WF      WF62366  10.040  22.920   1.682 -0.0836 -0.1961 -0.0445
    1WF      WF62367  21.371  25.399   0.107 -0.2746  0.1188  0.0959
    1WF      WF62368  25.318   5.966   9.048  0.0971  0.0270 -0.0196
    1WF      WF62369   4.314  21.947   1.737  0.0776  0.0933 -0.3000
    1WF      WF62370  14.728  18.868   0.341  0.3822  0.1738 -0.1481
    1WF      WF62371  14.944  20.617   7.582 -0.0294 -0.2618 -0.1958
    1WF      WF62372   0.961   5.057   1.189 -0.2447  0.1457 -0.1803
    1WF      WF62373  10.595  13.128   7.082  0.0758 -0.1148 -0.0259
    1WF      WF62374  22.124  14.527   9.591 -0.0030  0.2551 -0.0332
    1WF      WF62375  15.092   7.711   6.208  0.1643  0.2212 -0.1403
    1WF      WF62376  17.169   1.666   8.904  0.4125 -0.0820 -0.0734
    1WF      WF62377  24.339  28.815   2.015  0.4322 -0.0254 -0.1240
    1WF      WF62378  15.765  19.348   8.180  0.1305 -0.2258 -0.0161
    1WF      WF62379  13.147   1.140   9.178  0.1621 -0.2138  0.0895
    1WF      WF62380   4.342  26.565   9.319 -0.1988 -0.1269  0.2450
    1WF      WF62381   9.928   4.326   7.265  0.2166  0.3068  0.0340
    1WF      WF62382   1.390   0.836   9.745 -0.1911  0.1406  0.0593
    1WF      WF62383   6.406  22.939   9.983  0.1638  0.1500  0.0129
    1WF      WF62384   7.005   7.163   1.457  0.2384 -0.3042  0.0864
    1WF      WF62385  27.057   4.972   2.536 -0.3195  0.3704 -0.0499
    1WF      WF62386  25.742  23.380   9.398  0.1287 -0.0658  0.3281
    1WF      WF62387  25.091  21.814   7.371  0.1650  0.0764 -0.1170
    1WF      WF62388   4.895  25.589   9.992  0.0693  0.2420 -0.0678
    1WF      WF62389  15.681  13.646   0.361  0.1175  0.2755  0.1327
    1WF      WF62390  18.883   8.639   8.707  0.0133  0.1260  0.0049
    1WF      WF62391  13.674   8.417   7.286  0.0549  0.1941 -0.3164
    1WF      WF62392  26.155  13.777   2.099  0.0738  0.2154  0.2673
    1WF      WF62393  12.864  10.768   7.649 -0.0768  0.2946  0.2513
    1WF      WF62394  11.942   6.755   6.088 -0.1701  0.0016  0.3096
    1WF      WF62395  13.141   6.260   0.200  0.1236 -0.0684 -0.0744
    1WF      WF62396   3.217  21.713   0.980 -0.0099 -0.0164  0.1284
    1WF      WF62397  18.488   9.741   7.345 -0.0834  0.0191 -0.1901
    1WF      WF62398   4.218  24.165   9.560 -0.1411  0.1034 -0.2056
    1WF      WF62399  17.680   3.829   8.624 -0.1626 -0.0230 -0.1477
    1WF      WF62400  25.022  15.527   8.790  0.1149 -0.0735  0.0548
    1WF      WF62401  11.603  24.714   0.687 -0.1527 -0.1969  0.0724
    1WF      WF62402   8.796   3.110   2.464  0.2198  0.0485 -0.0048
    1WF      WF62403   4.281  27.685   1.317  0.0929 -0.2667  0.1353
    1WF      WF62404  18.438   7.771   9.934  0.0528  0.0780 -0.0995
    1WF      WF62405  14.650  10.503   9.951 -0.2021  0.2839  0.0859
    1WF      WF62406  10.521  17.329   7.805  0.0200 -0.0844 -0.3740
    1WF      WF62407  23.108  21.248   2.325  0.5605 -0.1514  0.1156
    1WF      WF62408   1.003  18.982   1.932 -0.0619  0.0555 -0.1952
    1WF      WF62409   8.546  24.646   1.811  0.3371 -0.3586  0.0207
    1WF      WF62410  10.476   4.587   1.916  0.0855  0.0711 -0.2225
    1WF      WF62411   8.464  22.481   4.332 -0.4671 -0.1673 -0.1686
    1WF      WF62412   1.232  20.381   0.063  0.0490 -0.2055  0.1260
    1WF      WF62413  24.860   1.172   9.615 -0.6721  0.0988  0.3572
    1WF      WF62414   8.071  17.974   6.049 -0.2399  0.2668  0.2696
    1WF      WF62415   4.854   5.165   0.874 -0.0208  0.2630 -0.0073
    1WF      WF62416   5.184  13.555   9.449 -0.0186 -0.0384 -0.0835
    1WF      WF62417  22.093  11.524   8.972  0.1142 -0.1051 -0.0538
    1WF      WF62418  25.064  24.678   0.683  0.1233  0.2813 -0.1918
    1WF      WF62419  11.679  21.844   8.150  0.3775  0.2559 -0.2111
    1WF      WF62420   1.696  14.601   3.862  0.2799  0.1817  0.3410
    1WF      WF62421  28.233  21.109   3.007 -0.2450  0.0129  0.0577
    1WF      WF62422   1.484  17.461   0.555  0.3149 -0.2197 -0.0466
    1WF      WF62423   1.070  27.011   9.450  0.1594  0.1287  0.1186
    1WF      WF62424  28.455   7.958   0.895 -0.1291 -0.1356  0.0115
    1WF      WF62425  25.508  27.189   1.516  0.0385  0.0152  0.4612
    1WF      WF62426  11.780  13.934   9.477 -0.0140  0.0290 -0.2473
    1WF      WF62427   3.894  14.462   9.254 -0.0532 -0.0173 -0.1344
    1WF      WF62428   7.064   6.528   1.203  0.0245  0.4901 -0.0365
    1WF      WF62429  15.799  10.180   7.179 -0.0953 -0.1410 -0.0813
    1WF      WF62430  27.804  19.298   1.726 -0.3396  0.2566  0.1339
    1WF      WF62431   0.206   3.088   9.722  0.3750  0.2064  0.1485
    1WF      WF62432   3.227  15.563   8.566  0.0284 -0.2954 -0.0691
    1WF      WF62433   5.869  23.085   1.328  0.3797 -0.1326 -0.0487
    1WF      WF62434   3.990   2.501   9.508 -0.0756 -0.0288  0.1204
    1WF      WF62435  24.861  24.103   2.616  0.0079  0.1342 -0.2894
    1WF      WF62436  11.156   2.266   8.393  0.0743  0.0591 -0.0802
    1WF      WF62437  14.414  25.513   7.589 -0.0324  0.2096  0.2650
    1WF      WF62438  21.828   3.722   1.624  0.0233  0.0601  0.0014
    1WF      WF62439  18.441  24.908   1.315  0.0826  0.2932  0.1437
    1WF      WF62440  14.747  14.167   0.720  0.0442  0.2831 -0.2423
    1WF      WF62441  27.705   7.581   2.443 -0.0224 -0.0812 -0.1461
    1WF      WF62442  23.354   8.047   7.039 -0.1434 -0.1868  0.0437
    1WF      WF62443   4.337  17.877   0.931 -0.0541 -0.5027 -0.0369
    1WF      WF62444   2.300   9.987   1.745 -0.1408 -0.3527  0.1167
    1WF      WF62445  22.989  28.801   1.499 -0.0607 -0.4391 -0.1482
    1WF      WF62446  21.760   3.109   1.086 -0.0057 -0.3310 -0.3985
    1WF      WF62447  24.385  23.217   9.171  0.2252  0.0046  0.0551
    1WF      WF62448   5.853   6.401   7.078 -0.0052  0.0810  0.1122
    1WF      WF62449  16.572  19.418   0.340  0.0104 -0.0090 -0.1697
    1WF      WF62450   6.365  23.076   1.191 -0.0704 -0.0369  0.0006
    1WF      WF62451  10.149  21.991   3.616 -0.1380  0.0999  0.1115
    1WF      WF62452  12.773   7.274   7.310 -0.1076  0.2065 -0.0798
    1WF      WF62453  20.996   8.848   7.883 -0.0553 -0.1044  0.0089
    1WF      WF62454  23.185  16.635   8.184 -0.1140  0.1596 -0.1712
    1WF      WF62455  20.434  23.815   0.890 -0.0708  0.0615 -0.0685
    1WF      WF62456   1.321  23.401   2.392 -0.1025  0.1530  0.1584
    1WF      WF62457  17.101  21.187   9.871  0.1268  0.0902 -0.2169
    1WF      WF62458  22.423  11.806   9.304 -0.0274 -0.1431 -0.1865
    1WF      WF62459  24.009  26.459   8.844  0.1808  0.0965 -0.0292
    1WF      WF62460   4.867   1.868   7.682  0.0805 -0.0933 -0.0502
    1WF      WF62461   9.673  20.078   0.922 -0.2640  0.0588  0.1761
    1WF      WF62462   7.568  17.841   6.313 -0.3098 -0.1626 -0.3311
    1WF      WF62463  19.179   8.948   8.304 -0.1817 -0.0645  0.3182
    1WF      WF62464  15.005   4.076   0.471  0.0078 -0.3068 -0.0133
    1WF      WF62465  10.518   9.168   7.744 -0.0774  0.1866  0.1384
    1WF      WF62466   7.970  27.463   9.488  0.1518  0.2126 -0.0567
    1WF      WF62467  24.892  24.657   2.366 -0.0291  0.2719  0.0908
    1WF      WF62468   9.134  16.981   8.312 -0.0264  0.2817  0.1132
    1WF      WF62469   2.670  28.040   0.283 -0.2131 -0.1112  0.1307
    1WF      WF62470  28.461   2.926   0.226 -0.0210 -0.0851  0.1337
    1WF      WF62471  21.578  26.316   0.402 -0.1180  0.3038  0.0294
    1WF      WF62472   0.030  19.666   1.644 -0.0086  0.0461 -0.0232
    1WF      WF62473  20.559  20.495   0.447  0.0331  0.3508 -0.4065
    1WF      WF62474   0.404  25.393   2.155  0.0104  0.2255  0.0806
    1WF      WF62475  12.579   8.798   7.216  0.2953  0.0609  0.0152
    1WF      WF62476  21.974  27.606   1.464  0.2229  0.0016 -0.0385
    1WF      WF62477  24.512   0.531   0.411 -0.0041 -0.5257  0.0109
    1WF      WF62478  16.797  21.602   9.886 -0.1738 -0.0889  0.0161
    1WF      WF62479   9.485   9.710   6.844 -0.1806 -0.1820  0.0469
    1WF      WF62480   9.222  28.147   0.754  0.2752 -0.0316 -0.1707
    1WF      WF62481   6.500  21.661   2.317 -0.2960 -0.1196 -0.1129
    1WF      WF62482  11.393  22.038   8.953 -0.1295 -0.0337  0.2430
    1WF      WF62483   8.748  28.604   0.607  0.1186 -0.1317 -0.3588
    1WF      WF62484  14.654  18.602   8.902  0.0810 -0.0045 -0.0259
    1WF      WF62485   0.644   5.368   3.099 -0.4143  0.0608 -0.0830
    1WF      WF62486  28.546   5.032   0.025 -0.0238 -0.2077  0.1440
    1WF      WF62487   6.388   6.002   9.866  0.4436 -0.3876  0.2643
    1WF      WF62488   4.066   3.613   2.119 -0.1225 -0.0408  0.1592
    1WF      WF62489   3.381   9.392   0.623  0.0957 -0.4631  0.0444
    1WF      WF62490   4.923  22.014   9.301 -0.2314 -0.1829 -0.2793
    1WF      WF62491  12.932   2.010   1.206  0.3203 -0.4971  0.2111
    1WF      WF62492  13.763   4.885   0.871  0.1882  0.2740  0.1604
    1WF      WF62493  14.014  12.562   1.372 -0.2749 -0.1265 -0.1666
    1WF      WF62494   6.679  18.517   1.865  0.0524  0.1182 -0.1098
    1WF      WF62495  27.750  11.114   3.522  0.2978 -0.2084 -0.2334
    1WF      WF62496  23.993  15.909   1.400 -0.3283  0.2858  0.4272
    1WF      WF62497   6.238  23.860   2.188 -0.4798  0.1463  0.0860
    1WF      WF62498  18.068   4.451   1.735  0.2870  0.1720  0.2018
    1WF      WF62499   8.199  10.184   0.513 -0.1581  0.0136  0.1220
    1WF      WF62500  22.504  14.183   8.261  0.0272 -0.1061  0.0959
    1WF      WF62501  23.776   7.456   2.405  0.1327  0.0355 -0.2450
    1WF      WF62502  12.995  24.753   9.631  0.1844  0.0972 -0.2191
    1WF      WF62503  11.265  24.828   8.625  0.0819 -0.1377 -0.0351
    1WF      WF62504  23.371   6.799   0.595  0.0370 -0.0935 -0.2189
    1WF      WF62505  11.794  21.285   8.196 -0.3150  0.2594 -0.0996
    1WF      WF62506  25.303  20.734   0.314  0.0869 -0.1815 -0.0506
    1WF      WF62507  24.519   7.884   1.676 -0.0620 -0.0153 -0.1436
    1WF      WF62508  12.091  17.535   9.337 -0.2501 -0.4519 -0.0186
    1WF      WF62509  16.063   1.188   0.598 -0.0881 -0.0782 -0.3317
    1WF      WF62510  24.378  21.542   9.233  0.2691  0.1312 -0.0076
    1WF      WF62511   0.148  20.522   8.611  0.1178 -0.1178  0.5086
    1WF      WF62512  19.002   5.304   8.339  0.3230  0.2962 -0.1947
    1WF      WF62513  23.980  18.697   9.893  0.1790  0.1227  0.2971
    1WF      WF62514   7.621   3.375   9.227 -0.1447  0.3877 -0.0541
    1WF      WF62515  15.093  17.634   0.711 -0.1823  0.0306  0.0647
    1WF      WF62516   0.220   9.695   2.139  0.0016  0.1371 -0.0261
    1WF      WF62517  22.323   5.764   9.539 -0.1653 -0.1261 -0.0245
    1WF      WF62518  15.025  25.314   0.201  0.0890 -0.0187  0.3821
    1WF      WF62519  19.971   0.701   0.248  0.0253 -0.0860 -0.3130
    1WF      WF62520  22.778  16.770   7.920  0.0750  0.2162 -0.0005
    1WF      WF62521   4.452   6.588   9.804  0.0103  0.0640 -0.0960
    1WF      WF62522   2.031  21.721   0.199 -0.2327  0.5075  0.1230
    1WF      WF62523  15.746  14.124   9.030  0.1222  0.0687  0.2113
    1WF      WF62524  24.993   3.331   1.331 -0.1950 -0.1836  0.0635
    1WF      WF62525   7.184  19.784   1.545  0.0290 -0.0668 -0.0883
    1WF      WF62526   3.185  22.087   1.843 -0.0721  0.2546  0.3517
    1WF      WF62527  12.289  26.482   3.002 -0.3102  0.2380 -0.3103
    1WF      WF62528   0.835   2.908   4.396  0.0372  0.0009  0.2125
    1WF      WF62529   2.691  18.786   1.573 -0.1151  0.1082 -0.0487
    1WF      WF62530  17.509   2.931   9.836  0.2083 -0.3574 -0.1085
    1WF      WF62531  15.153  10.476   5.524  0.1092 -0.3856  0.0640
    1WF      WF62532   0.443   8.681   9.390 -0.0081 -0.3393 -0.0937
    1WF      WF62533   0.604  15.729   0.362 -0.2557  0.1967 -0.1537
    1WF      WF62534   8.238  13.942   7.796 -0.0085 -0.1831 -0.1064
    1WF      WF62535   0.801  18.910   4.121  0.1984 -0.0155 -0.1043
    1WF      WF62536  27.697   8.949   9.501  0.0787 -0.0273  0.2750
    1WF      WF62537  11.941   4.675   0.820  0.4576  0.0899  0.0371
    1WF      WF62538   9.365  26.232   0.034 -0.0760 -0.1821 -0.1821
    1WF      WF62539   9.883   0.308   0.449 -0.0548 -0.0149 -0.0856
    1WF      WF62540   6.583   2.432   2.061 -0.2429  0.1145  0.1469
    1WF      WF62541   8.654  26.757   0.726 -0.3621  0.0198 -0.3713
    1WF      WF62542  14.599  18.867   9.873 -0.2175  0.3074 -0.4252
    1WF      WF62543  17.221  18.454   8.377  0.1034  0.2877 -0.0658
    1WF      WF62544  25.894  21.415   8.066  0.1915 -0.1558  0.0717
    1WF      WF62545  13.223  14.490   5.603 -0.0424 -0.0417  0.2378
    1WF      WF62546   6.192   6.453   9.878  0.1127  0.1039  0.1479
    1WF      WF62547   7.803  26.831   0.893  0.2922 -0.2820 -0.0643
    1WF      WF62548  16.327  24.497   8.470 -0.1452  0.0572 -0.0611
    1WF      WF62549  14.575  16.949   7.342 -0.0870 -0.0292  0.1389
    1WF      WF62550   1.161  15.497   3.716  0.1057  0.0621  0.0759
    1WF      WF62551  12.370  20.633   0.016  0.1999  0.0515  0.0020
    1WF      WF62552   0.343   1.782   9.466  0.2352  0.2053 -0.0179
    1WF      WF62553   1.773   0.177   8.727  0.0237 -0.0528  0.1639
    1WF      WF62554  25.206  11.530   0.727  0.1049  0.0537 -0.2177
    1WF      WF62555   6.968  21.453   9.004  0.3316 -0.1742 -0.5174
    1WF      WF62556  14.320   8.625   9.962  0.0056  0.3575  0.0854
    1WF      WF62557   8.912  19.271   9.366  0.1063  0.0053  0.1366
    1WF      WF62558  15.111   4.240   1.391  0.0175  0.0075  0.0530
    1WF      WF62559  12.939  27.849   0.401 -0.0791  0.0263 -0.0896
    1WF      WF62560  28.862  12.779   8.043  0.2113  0.0147  0.1483
    1WF      WF62561  28.422  10.480   1.099  0.0059  0.0746  0.1548
    1WF      WF62562  14.681  11.593   1.462  0.0823  0.0473  0.2299
    1WF      WF62563   2.592  23.855   1.286  0.0669 -0.0858  0.0138
    1WF      WF62564  12.166   6.631   9.951 -0.0612 -0.2692 -0.3149
    1WF      WF62565  24.634  25.626   0.768  0.1992  0.2547 -0.0506
    1WF      WF62566  22.286   5.823   1.016 -0.0173  0.0147  0.2137
    1WF      WF62567   2.655   5.129   0.379 -0.0982  0.0999  0.2887
    1WF      WF62568  13.700  18.625   2.268 -0.0918  0.1053  0.1562
    1WF      WF62569  10.539  20.826   1.851  0.0332  0.0491 -0.1820
    1WF      WF62570  12.154  23.369   9.120  0.2207  0.3734  0.1533
    1WF      WF62571  25.961  27.524   0.354  0.1660 -0.0250  0.0164
    1WF      WF62572  10.706   3.398   6.375 -0.0968  0.1716 -0.1721
    1WF      WF62573  21.376  13.591   0.205 -0.1186  0.0849 -0.0424
    1WF      WF62574  20.723   7.514   9.849 -0.2965 -0.0542 -0.1367
    1WF      WF62575  22.150  19.167   0.955  0.0419 -0.1233 -0.1625
    1WF      WF62576  10.402   9.487   0.400 -0.4771  0.0846 -0.1024
    1WF      WF62577   4.306  10.910   9.928  0.3000  0.1456  0.1039
    1WF      WF62578  25.379   2.904   9.452  0.4219  0.0045 -0.0952
    1WF      WF62579  14.077  12.085   5.735  0.2798  0.2556 -0.1284
    1WF      WF62580  20.141  24.357   9.131  0.2224 -0.2139 -0.0462
    1WF      WF62581   6.628   8.000   1.422 -0.2027  0.0969 -0.1063
    1WF      WF62582   7.989  21.052   8.608 -0.3458 -0.0782 -0.0882
    1WF      WF62583   0.204  28.688   1.700  0.0269 -0.0120  0.1672
    1WF      WF62584  25.075  11.004   9.768  0.0464 -0.1088  0.1953
    1WF      WF62585   5.207  10.068   1.583 -0.1955 -0.0129 -0.2404
    1WF      WF62586   5.895  15.440   1.926  0.3601 -0.1905 -0.1569
    1WF      WF62587  13.194  27.140   8.155  0.2260  0.1886  0.1814
    1WF      WF62588  20.267  14.155   1.830 -0.1212 -0.0231 -0.0774
    1WF      WF62589  11.878   7.145   7.742 -0.0379 -0.0695 -0.0628
    1WF      WF62590   1.474  10.918   0.629 -0.0184  0.0923 -0.2125
    1WF      WF62591  16.604  25.753   8.374 -0.1100 -0.0322 -0.2616
    1WF      WF62592   2.790  21.823   1.260 -0.2076 -0.0108 -0.1307
    1WF      WF62593   0.213   5.062   2.906 -0.2591  0.1772  0.2643
    1WF      WF62594   6.268  21.247   6.721 -0.2354 -0.1508  0.2752
    1WF      WF62595  16.980  14.574   7.771  0.2027  0.0458  0.1756
    1WF      WF62596  10.290   3.621   9.853  0.2340  0.4335 -0.1066
    1WF      WF62597  13.643   4.193   9.260  0.0466  0.3278  0.1592
    1WF      WF62598   8.513   5.315   0.569 -0.1404 -0.0159 -0.1006
    1WF      WF62599  24.961   9.572   0.119  0.2174 -0.0121  0.1228
    1WF      WF62600  19.880  19.332   6.853  0.0005  0.1719  0.3019
    1WF      WF62601   1.420  15.778   8.619 -0.1459  0.1267 -0.1102
    1WF      WF62602  20.051  22.687   1.018  0.3670  0.0453  0.0889
    1WF      WF62603   2.507   6.986   9.425 -0.0980 -0.0732  0.1526
    1WF      WF62604   2.129   3.449   1.795  0.0094  0.3340  0.1239
    1WF      WF62605  28.664  25.644   8.211  0.0219 -0.3228  0.2713
    1WF      WF62606  26.817   4.631   2.257  0.0520 -0.0350 -0.2806
    1WF      WF62607   9.907  26.191   1.467 -0.0170  0.2219 -0.1979
    1WF      WF62608   7.889  15.764   0.096 -0.1999  0.0273  0.1000
    1WF      WF62609  15.875  13.885   9.502  0.2092  0.3508  0.0244
    1WF      WF62610  23.598  11.863   9.973  0.0958 -0.1062 -0.0444
    1WF      WF62611   6.512   4.842   8.556 -0.1351  0.0403 -0.3789
    1WF      WF62612   8.346  24.450   8.112  0.0310  0.0862  0.1664
    1WF      WF62613  17.674  27.573   0.676  0.1171  0.0042 -0.1682
    1WF      WF62614  22.245  23.911   0.325 -0.0891  0.0633  0.0024
    1WF      WF62615  26.535  24.883   7.922  0.0704  0.2088 -0.0514
    1WF      WF62616   7.323  22.506   1.144  0.1286  0.0430 -0.2238
    1WF      WF62617   6.194   4.683   1.420 -0.0686  0.3124 -0.1182
    1WF      WF62618   1.463  16.298   8.622  0.1536  0.1911  0.1929
    1WF      WF62619   2.435  13.928   2.996  0.0027  0.0121 -0.0151
    1WF      WF62620  13.219   4.016   9.130 -0.0564 -0.0733 -0.1254
    1WF      WF62621  22.170  27.190   8.900  0.2712  0.0897  0.0854
    1WF      WF62622  10.097  15.454   9.957 -0.1359  0.3109 -0.1144
    1WF      WF62623  28.156  22.766   3.379 -0.0629 -0.1790  0.0210
    1WF      WF62624   0.391  21.255   2.084 -0.1930  0.0829  0.0995
    1WF      WF62625  10.797   1.970   8.480  0.0633 -0.1634 -0.3785
    1WF      WF62626   3.494  20.012   9.722 -0.0239  0.1531  0.2197
    1WF      WF62627   0.397  27.193   3.742  0.1374  0.1181 -0.0319
    1WF      WF62628   4.803  24.703   9.372  0.1358 -0.1677 -0.1753
    1WF      WF62629  11.442   7.012   8.000 -0.0287 -0.0796 -0.2021
    1WF      WF62630  24.630  22.043   7.529  0.4037 -0.2311 -0.0038
    1WF      WF62631  23.653  12.325   0.214 -0.1691  0.0527 -0.0606
    1WF      WF62632  18.406   3.057   8.755  0.3515  0.1383 -0.0300
    1WF      WF62633   6.435  17.058   7.933 -0.0328  0.0361  0.1257
    1WF      WF62634  17.171   2.231   8.958  0.3122  0.0911  0.0350
    1WF      WF62635  12.424   2.397   8.048  0.2759 -0.2868 -0.1527
    1WF      WF62636  13.581   6.056   0.044 -0.2836  0.0982 -0.0294
    1WF      WF62637  21.300  16.021   9.306  0.0025 -0.1073  0.3832
    1WF      WF62638  13.762  26.905   9.674  0.2128 -0.5316  0.1288
    1WF      WF62639   7.671   2.922   8.937 -0.2648  0.1429 -0.0634
    1WF      WF62640   1.273  27.341   0.633  0.1244 -0.0854  0.0723
    1WF      WF62641   4.186   4.937   9.529  0.0186 -0.5271 -0.2600
    1WF      WF62642  26.096   4.273   9.637 -0.1956 -0.0216  0.3417
    1WF      WF62643  10.660  16.085   9.098  0.2183  0.0686  0.1863
    1WF      WF62644   2.809   4.366   2.919  0.1593  0.1735 -0.1184
    1WF      WF62645  26.581  16.694   3.869  0.2486  0.0004 -0.1116
    1WF      WF62646   1.018   0.604   9.494  0.1824  0.0444  0.1532
    1WF      WF62647   3.870   1.451   8.775  0.2097  0.0074 -0.0821
    1WF      WF62648  17.506  20.555   7.741  0.1814  0.2056  0.1220
    1WF      WF62649   5.948   4.747   1.855  0.0315 -0.0349 -0.3060
    1WF      WF62650  27.695  28.317   7.997 -0.0709 -0.1134 -0.0778
    1WF      WF62651  27.125  15.432   2.491  0.0097 -0.0283 -0.0559
    1WF      WF62652   1.797  23.323   9.090  0.2280 -0.0403 -0.2825
    1WF      WF62653  15.655  26.834   8.508 -0.0337 -0.0945  0.2032
    1WF      WF62654   7.151  27.212   2.066  0.3080 -0.1668  0.0757
    1WF      WF62655  16.461  24.509   0.025  0.0934  0.1946  0.1122
    1WF      WF62656  20.645  28.203   2.053  0.2255  0.1309 -0.0698
    1WF      WF62657   6.523  21.249   8.107  0.2405  0.1948  0.1077
    1WF      WF62658   5.172  22.564   2.331 -0.0722 -0.2051 -0.0965
    1WF      WF62659  22.141   1.188   9.296  0.1726  0.3026  0.0372
    1WF      WF62660  22.053  19.468   0.568 -0.0350  0.1947 -0.0654
    1WF      WF62661  26.278  17.046   9.306  0.3002  0.2226 -0.2229
    1WF      WF62662  24.258  27.250   8.483 -0.0556 -0.3153 -0.1589
    1WF      WF62663  26.091   3.456   7.978 -0.1339  0.0425 -0.1113
    1WF      WF62664  11.545  23.726   0.098 -0.1401  0.1970 -0.2184
    1WF      WF62665   1.852   6.875   2.086  0.0032 -0.0625  0.0488
    1WF      WF62666  28.849  10.145   1.206 -0.0837 -0.0872  0.1430
    1WF      WF62667  10.951   2.749   8.341  0.0628 -0.0756 -0.2579
    1WF      WF62668  11.210  21.734   9.965 -0.0415 -0.1169  0.2298
    1WF      WF62669  27.746   8.433   9.412  0.0885 -0.0711 -0.0607
    1WF      WF62670  10.012  25.576   0.461 -0.1462  0.0362  0.1894
    1WF      WF62671  27.965  27.892   0.772 -0.2745  0.0582 -0.2830
    1WF      WF62672  25.389  23.714   8.603 -0.2285  0.1003  0.0719
    1WF      WF62673  12.537  14.073   1.340  0.2672  0.0686  0.1646
    1WF      WF62674  18.687  24.225   9.241  0.0030  0.1656 -0.1453
    1WF      WF62675   7.480   6.030   2.556 -0.1193  0.2160  0.1060
    1WF      WF62676  28.154  12.674   2.442  0.3354 -0.2400 -0.3414
    1WF      WF62677  16.859   3.218   2.105  0.1483 -0.0431 -0.1964
    1WF      WF62678  15.518  11.682   9.715  0.0693 -0.0665  0.1463
    1WF      WF62679   3.540   0.081   9.590 -0.0699 -0.0910 -0.2884
    1WF      WF62680   4.731  22.269   1.970  0.3506  0.1403 -0.0601
    1WF      WF62681  10.325  25.108   8.616 -0.1543 -0.1501  0.1606
    1WF      WF62682  26.011  13.811   8.164 -0.0602  0.1795 -0.0991
    1WF      WF62683  25.892  18.394   2.903 -0.0769 -0.0806 -0.2391
    1WF      WF62684  22.272  10.868   7.878 -0.0379  0.0092  0.1803
    1WF      WF62685  17.768  22.628   0.959 -0.0618  0.1108 -0.1786
    1WF      WF62686  16.303   9.020   0.290 -0.0152  0.1146 -0.1508
    1WF      WF62687  20.877   4.480   1.409 -0.0225 -0.0995 -0.3136
    1WF      WF62688  16.218  14.263   9.034 -0.1437 -0.1216  0.0596
    1WF      WF62689  22.423  16.781   1.415  0.4784  0.2213 -0.1199
    1WF      WF62690   1.475  19.538   1.396 -0.0714 -0.2496  0.1595
    1WF      WF62691  14.141   6.856   9.074 -0.0940  0.1172  0.1210
    1WF      WF62692   6.918  24.291   9.284 -0.2319 -0.1506  0.0879
    1WF      WF62693   9.811  22.914   3.315 -0.0283 -0.0712 -0.0021
    1WF      WF62694  14.134  26.017   3.301  0.0449 -0.1604 -0.0179
    1WF      WF62695   1.645  14.232   2.163  0.1904 -0.1972  0.1337
    1WF      WF62696  17.588  18.822   8.131 -0.0380  0.1161  0.2772
    1WF      WF62697   2.306  12.320   8.430 -0.1022  0.1380 -0.1539
    1WF      WF62698   6.465  24.642   8.531 -0.0675  0.2560  0.1869
    1WF      WF62699   9.405   8.783   9.991 -0.0088  0.1096 -0.2469
    1WF      WF62700  12.923  22.000   9.319  0.1356 -0.0158 -0.1487
    1WF      WF62701  26.211  13.294   2.259 -0.0910 -0.0077 -0.0294
    1WF      WF62702  24.847  24.415   1.216 -0.4400  0.1669  0.0549
    1WF      WF62703  24.361  17.427   1.038 -0.1373 -0.2855 -0.2326
    1WF      WF62704  21.001  28.446   8.430 -0.1663 -0.0884  0.0173
    1WF      WF62705  11.027  21.818   3.200  0.2297  0.0715  0.0197
    1WF      WF62706  19.935  18.414   7.904 -0.0110  0.0221 -0.0600
    1WF      WF62707  23.564  20.008   8.480 -0.0346 -0.1342  0.2717
    1WF      WF62708  22.360  10.855   6.867  0.1501  0.1787 -0.0672
    1WF      WF62709  16.552  14.325   7.645 -0.0131 -0.2995  0.2179
    1WF      WF62710   1.186  24.660   9.142  0.1504  0.0110 -0.1050
    1WF      WF62711  27.894  16.474   0.689 -0.0405 -0.2233 -0.0495
    1WF      WF62712  13.863  10.619   6.761 -0.0647 -0.4093  0.1552
    1WF      WF62713  27.273  16.075   3.459 -0.3252  0.0242 -0.1382
    1WF      WF62714   2.299   0.651   1.376 -0.1262  0.0687  0.1248
    1WF      WF62715  14.594   6.490   9.090  0.2470 -0.2085  0.1379
    1WF      WF62716  25.636  22.412   3.924  0.2174 -0.2453  0.1574
    1WF      WF62717  10.526  23.430   2.723 -0.0634  0.3014 -0.2201
    1WF      WF62718  16.527  12.827   9.622  0.0458 -0.0072  0.5187
    1WF      WF62719  17.973  27.752   9.337  0.2494 -0.0119  0.0343
    1WF      WF62720  22.911  23.658   0.898 -0.2946 -0.1725 -0.1292
    1WF      WF62721  20.904  25.373   1.210  0.4839 -0.2088  0.2958
    1WF      WF62722   5.976   7.627   7.846 -0.2898 -0.0807 -0.0843
    1WF      WF62723  17.075  19.407   0.463  0.4747  0.2410  0.2553
    1WF      WF62724  20.215   3.733   8.285  0.0789  0.2410  0.0641
    1WF      WF62725   0.279  11.922   7.918 -0.0190  0.0133  0.2281
    1WF      WF62726  11.950  26.415   0.949 -0.0466 -0.3961  0.1271
    1WF      WF62727  11.177  27.793   0.195  0.1126  0.0466  0.2233
    1WF      WF62728  27.822   0.138   1.884  0.1805  0.3906 -0.1548
    1WF      WF62729   5.151  21.400   1.132  0.1355  0.2448 -0.0037
    1WF      WF62730  10.193   4.370   1.513  0.2711  0.0190 -0.1630
    1WF      WF62731   5.637   7.562   1.912 -0.0800 -0.2267  0.1611
    1WF      WF62732  27.156   1.471   1.717  0.3027  0.2083 -0.1640
    1WF      WF62733  11.642   3.213   2.128  0.1405 -0.1372 -0.1455
    1WF      WF62734  20.886  27.795   2.186  0.0840  0.1702  0.0267
    1WF      WF62735   5.344  14.103   8.021 -0.1651  0.1139 -0.0394
    1WF      WF62736  21.472  15.146   7.559  0.2798 -0.1353  0.4077
    1WF      WF62737  12.922  17.405   0.670  0.1801 -0.1364  0.0878
    1WF      WF62738  15.205  18.000   0.397  0.1346  0.1529  0.1752
    1WF      WF62739   0.341   5.628   2.675  0.0218 -0.0506 -0.1277
    1WF      WF62740   5.942  10.623   0.012 -0.1016 -0.4360 -0.2840
    1WF      WF62741  25.248   9.048   1.893  0.0263  0.3380  0.0425
    1WF      WF62742  12.447   0.342   9.551  0.1009  0.1521  0.2074
    1WF      WF62743  21.466  27.104   1.895 -0.0570  0.0978  0.1057
    1WF      WF62744  24.541  15.727   8.967 -0.2934 -0.0191  0.0992
    1WF      WF62745  25.115  26.910   0.235  0.1518  0.0825 -0.1553
    1WF      WF62746   0.742   8.681   1.021 -0.2577 -0.2372 -0.2257
    1WF      WF62747  12.013   9.727   9.229  0.0932 -0.2034  0.0987
    1WF      WF62748  21.791   4.792   8.970 -0.0411  0.0654 -0.0442
    1WF      WF62749  17.068  20.543   9.683  0.0954 -0.0008 -0.1581
    1WF      WF62750  11.158   8.555   7.440  0.0245  0.1245  0.3311
    1WF      WF62751   1.414  23.116   0.512  0.0810  0.2137  0.1260
    1WF      WF62752  14.791   0.888   9.931 -0.1148  0.4660 -0.3829
    1WF      WF62753   9.653   4.613   9.944 -0.0596 -0.3915  0.2104
    1WF      WF62754  14.544  28.612   8.853 -0.0678 -0.0935  0.0773
    1WF      WF62755   3.763   9.147   9.450 -0.0527 -0.0707 -0.1211
    1WF      WF62756  18.012  26.232   9.687 -0.1573 -0.1490 -0.0729
    1WF      WF62757  13.579  12.092   8.472  0.1069  0.1516 -0.1942
    1WF      WF62758  24.585  26.940   2.686 -0.2268 -0.0097 -0.0968
    1WF      WF62759   8.167  17.761   7.512  0.2968 -0.0564 -0.1956
    1WF      WF62760  10.816  17.190   1.332  0.0291 -0.1470 -0.0795
    1WF      WF62761   0.264  11.702   1.390 -0.2309  0.1840  0.4174
    1WF      WF62762   3.861  19.673   9.548  0.2342 -0.0901 -0.1611
    1WF      WF62763   0.323  12.290   9.394 -0.0987 -0.0993 -0.3144
    1WF      WF62764   1.971  20.602   0.211 -0.1179  0.0042  0.3236
    1WF      WF62765  24.049   4.560   9.297  0.0139 -0.0915 -0.1516
    1WF      WF62766  22.187  24.650   8.765  0.2629  0.1273  0.2695
    1WF      WF62767   4.250  14.826   9.161 -0.4188  0.1360 -0.2385
    1WF      WF62768  17.453   8.087   9.409 -0.1575  0.0306 -0.0323
    1WF      WF62769  11.202   2.280   1.061  0.0615  0.1202  0.0534
    1WF      WF62770  18.787  14.549   9.839 -0.1134 -0.0126 -0.1043
    1WF      WF62771   5.576  12.676   9.469 -0.0443  0.1272 -0.0026
    1WF      WF62772  22.570  13.379   9.290 -0.0218  0.0124  0.4237
    1WF      WF62773  14.578  23.642   9.048 -0.1061 -0.0360 -0.2825
    1WF      WF62774   6.608  17.104   1.381  0.0217  0.1243 -0.0080
    1WF      WF62775  27.896  21.464   3.041  0.0649 -0.0267 -0.1692
    1WF      WF62776   7.675   8.518   1.251 -0.1689 -0.1844 -0.1663
    1WF      WF62777  28.415   7.398   0.839  0.2311 -0.2012  0.1112
    1WF      WF62778  15.793   9.041   7.460  0.1207 -0.0529 -0.2736
    1WF      WF62779  18.894  28.345   8.254 -0.4103  0.2936  0.1176
    1WF      WF62780  12.324   5.036   0.682 -0.0275  0.0817 -0.2126
    1WF      WF62781   5.216  21.092   1.599  0.0072  0.1048  0.0314
    1WF      WF62782  16.520  27.409   9.593 -0.1079 -0.2663 -0.1845
    1WF      WF62783  13.412  16.405   1.140 -0.1157  0.1187 -0.0268
    1WF      WF62784  10.615  13.097   8.881 -0.0785  0.1150  0.2193
    1WF      WF62785  27.400   9.388   0.335 -0.2329  0.1619 -0.2047
    1WF      WF62786  15.782  28.334   2.761 -0.1124 -0.0230  0.0797
    1WF      WF62787  12.464   8.053   1.820  0.0855  0.1209 -0.2007
    1WF      WF62788   1.872  11.513   2.383 -0.3518  0.1387 -0.2021
    1WF      WF62789   3.398   1.564   7.637 -0.1341 -0.0821 -0.2253
    1WF      WF62790  27.924  12.947   2.142  0.2887 -0.1922  0.1634
    1WF      WF62791  15.180  12.059   9.710 -0.2434  0.0871  0.0705
    1WF      WF62792  21.291   0.064   1.156  0.0219  0.2599 -0.0602
    1WF      WF62793  11.198   5.769   7.715  0.0668  0.1313  0.0347
    1WF      WF62794  11.454   6.941   8.505  0.0686  0.2150 -0.0317
    1WF      WF62795  16.800   6.868   8.498 -0.2249 -0.0609  0.0116
    1WF      WF62796   9.486  28.734   8.679 -0.2513 -0.2408 -0.1088
    1WF      WF62797  17.847  11.350   8.367  0.0371  0.0028 -0.0368
    1WF      WF62798  10.179  15.941   9.888  0.3253 -0.0238 -0.2680
    1WF      WF62799  11.691   8.516   7.301  0.2505  0.1296  0.0717
    1WF      WF62800  23.625  18.153   1.749 -0.0131 -0.0866  0.0066
    1WF      WF62801   2.999   7.462   9.031  0.1818  0.2796 -0.0005
    1WF      WF62802  12.125  15.354   6.989  0.1187 -0.3201  0.0331
    1WF      WF62803  20.962  21.769   1.157 -0.2865 -0.0714 -0.0592
    1WF      WF62804  27.309  22.002   2.232 -0.0110  0.0366 -0.1799
    1WF      WF62805   5.579   9.978   8.477  0.2535 -0.3240  0.3030
    1WF      WF62806  19.478  20.501   8.491 -0.3707 -0.0890 -0.0437
    1WF      WF62807   3.458   8.829   0.614  0.1742 -0.1548  0.3010
    1WF      WF62808   9.983   7.201   6.883  0.0036 -0.1493  0.4380
    1WF      WF62809   1.625  20.119   2.200  0.1457  0.1439  0.0438
    1WF      WF62810  21.312   8.976   8.728  0.1895  0.1384  0.1526
    1WF      WF62811   0.922  23.764   8.594  0.0108 -0.2354  0.1779
    1WF      WF62812  27.406  22.883   2.426 -0.1207 -0.0643  0.1293
    1WF      WF62813   2.169  20.873   2.523 -0.0251 -0.0547 -0.4378
    1WF      WF62814   7.837  10.360   9.263 -0.1358 -0.1595  0.2999
    1WF      WF62815   0.611   0.833   7.974 -0.0615 -0.0602 -0.1663
    1WF      WF62816   2.726   5.939   9.877  0.3061 -0.5045  0.0368
    1WF      WF62817   5.597  12.194   9.561 -0.0126 -0.0834  0.1962
    1WF      WF62818  18.742  24.689   8.957  0.2837 -0.0586 -0.2224
    1WF      WF62819   7.140  27.971   9.480 -0.1727  0.3585 -0.2206
    1WF      WF62820  26.713  13.434   3.301 -0.0212  0.0388 -0.2981
    1WF      WF62821  27.042  12.126   1.136  0.0688  0.0623 -0.0726
    1WF      WF62822  24.443   0.272   0.887 -0.0160  0.0771  0.1687
    1WF      WF62823   2.017  18.181   9.454 -0.0326  0.0754  0.2102
    1WF      WF62824  28.149   6.636   4.135  0.1476 -0.2024 -0.1957
    1WF      WF62825   8.093   5.635   1.585 -0.0968  0.2693 -0.2020
    1WF      WF62826  18.756   0.814   9.380  0.2353  0.1420  0.0388
    1WF      WF62827   9.810  17.936   7.501  0.2420 -0.1993  0.1029
    1WF      WF62828  15.270  15.979   0.056 -0.1711  0.5523  0.0858
    1WF      WF62829  18.321  14.583   9.709  0.1813 -0.6819  0.1098
    1WF      WF62830  22.884  20.326   6.630 -0.0072  0.2594  0.0365
    1WF      WF62831   3.375  22.007   1.373 -0.5045 -0.1230  0.0839
    1WF      WF62832  19.626  23.178   2.779  0.1506 -0.1864  0.2455
    1WF      WF62833  13.822   0.726   9.689 -0.2436 -0.1126 -0.2105
    1WF      WF62834   2.220  23.574   1.449 -0.2168  0.2538  0.0698
    1WF      WF62835   7.076  11.164   2.809  0.1613 -0.1144  0.3050
    1WF      WF62836  21.056  14.972   7.720 -0.0468 -0.2455  0.0105
    1WF      WF62837  23.501  23.916   7.144 -0.1301  0.1074  0.2085
    1WF      WF62838  24.223   7.948   1.274  0.3660  0.2717  0.3709
    1WF      WF62839   5.015   7.871   9.007  0.1605  0.0641  0.2071
    1WF      WF62840   3.503  25.677   1.562  0.2146 -0.1532  0.1223
    1WF      WF62841   6.221  13.648   7.188  0.0009  0.1196  0.0253
    1WF      WF62842   9.062   5.316   8.320  0.0963 -0.0531 -0.1533
    1WF      WF62843  25.396  15.018   0.980 -0.1575  0.4829 -0.2312
    1WF      WF62844  28.712  27.213   7.525  0.0781 -0.4952  0.2638
    1WF      WF62845  27.569  12.808   1.648 -0.0758  0.0928  0.0877
    1WF      WF62846  16.247   6.931   7.594 -0.0656  0.0502 -0.0073
    1WF      WF62847   8.076  25.178   0.643 -0.0932  0.0770 -0.2123
    1WF      WF62848  28.007  15.374   8.387  0.0427 -0.0306 -0.0557
    1WF      WF62849   4.595  14.899   9.623  0.1156 -0.1939  0.2618
    1WF      WF62850  17.625  20.590   8.335  0.1022  0.1833  0.0512
    1WF      WF62851  22.103  16.706   0.921  0.0829  0.0449 -0.0398
    1WF      WF62852  12.596  21.249   1.426 -0.0280 -0.1469 -0.2694
    1WF      WF62853   5.470   6.695   1.252  0.1305  0.2816  0.1154
    1WF      WF62854   6.073   0.673   9.734 -0.2413  0.1986 -0.0984
    1WF      WF62855  23.736  13.120   9.272 -0.2701  0.3019 -0.0145
    1WF      WF62856  17.514  12.080   1.178  0.1539  0.1753 -0.2042
    1WF      WF62857   5.755   9.141   1.436 -0.2089  0.0556 -0.0997
    1WF      WF62858   1.551   2.898   2.411  0.0629  0.2464  0.0884
    1WF      WF62859  11.600  10.938   0.079  0.1420  0.0348 -0.1381
    1WF      WF62860  28.175  23.128   9.626  0.0591  0.0556 -0.1807
    1WF      WF62861  26.684  14.618   8.280 -0.0263  0.0293 -0.0363
    1WF      WF62862   3.144  12.408   8.932  0.1509 -0.4206 -0.0688
    1WF      WF62863  14.061  25.225   8.072 -0.1962 -0.0030  0.2131
    1WF      WF62864   1.891   8.146   0.238  0.0737  0.1018  0.3511
    1WF      WF62865  24.101  13.979   8.402  0.1455  0.1257 -0.1221
    1WF      WF62866   2.445  10.300   9.046  0.0089 -0.0323 -0.2362
    1WF      WF62867   4.985  27.589   8.890 -0.0501 -0.0289 -0.0868
    1WF      WF62868  10.897  21.157   1.727 -0.0008  0.0597 -0.3226
    1WF      WF62869   4.050  21.627   8.820 -0.1120 -0.4525  0.1469
    1WF      WF62870   8.023   6.017   2.820 -0.1583 -0.0797 -0.1084
    1WF      WF62871  24.421  24.448   2.223  0.2119  0.4330 -0.0269
    1WF      WF62872  27.268  12.531   1.327 -0.0172  0.1758 -0.2848
    1WF      WF62873   4.238  16.726   9.998 -0.2792 -0.4257  0.0377
    1WF      WF62874   4.943   8.511   7.949 -0.2662  0.0845 -0.2605
    1WF      WF62875  28.000   1.170   0.453  0.1722  0.1833 -0.0459
    1WF      WF62876  11.331   7.172   8.892 -0.0621  0.1517 -0.0506
    1WF      WF62877   1.214   2.937   1.988 -0.0202  0.0309  0.2700
    1WF      WF62878  14.265   0.859   9.764 -0.1843 -0.2651 -0.1407
    1WF      WF62879  24.306  23.091   9.681  0.0468 -0.0815  0.0926
    1WF      WF62880  27.928  23.478   3.983 -0.0485  0.2301  0.2618
    1WF      WF62881  19.284   1.826   1.473  0.0671 -0.0029 -0.3090
    1WF      WF62882  26.524   0.417   3.182 -0.1393  0.1522 -0.1025
    1WF      WF62883  12.487  11.505   6.835  0.1037 -0.0082  0.0832
    1WF      WF62884  15.428  11.398   7.215  0.0621  0.0522  0.2397
    1WF      WF62885   2.672   7.241   2.327 -0.3810  0.0187  0.1427
    1WF      WF62886  26.259  11.227   3.078  0.0058  0.2136 -0.2967
    1WF      WF62887   8.833  17.275   9.324 -0.1606  0.1213 -0.2745
    1WF      WF62888  27.744   3.307   9.922  0.4132  0.0795  0.3543
    1WF      WF62889  27.216  10.956   8.017 -0.1310 -0.1820 -0.0403
    1WF      WF62890   6.948  10.138   8.873 -0.3864 -0.0548 -0.0970
    1WF      WF62891  23.286  21.813   0.558 -0.0905  0.1839  0.1029
    1WF      WF62892   4.339  18.024   7.112  0.0953  0.0031 -0.2364
    1WF      WF62893   0.435   7.836   9.088 -0.1929  0.3273  0.2418
    1WF      WF62894  26.919   4.502   9.726 -0.0031 -0.0748  0.1435
    1WF      WF62895  11.218  28.559   9.908  0.1840  0.0810 -0.2444
    1WF      WF62896   8.086   7.138   7.270  0.0107  0.0473 -0.2351
    1WF      WF62897  20.274  26.978   8.484  0.0027 -0.0178  0.1907
    1WF      WF62898   2.467  26.160   8.229 -0.3540 -0.0581  0.0146
    1WF      WF62899  25.356  18.529   0.776  0.0720 -0.1259 -0.2592
    1WF      WF62900  12.811   4.927   0.449  0.2491  0.0326  0.1324
    1WF      WF62901  28.395   4.337   1.100  0.0864  0.0818  0.1926
    1WF      WF62902  19.208  27.425   8.224 -0.0659 -0.2239 -0.1468
    1WF      WF62903  20.813   9.825   5.723 -0.4329  0.2291 -0.2556
    1WF      WF62904   2.133   6.647   2.517  0.0494  0.1336  0.0216
    1WF      WF62905   5.087  16.423   6.828 -0.0259  0.3045  0.1027
    1WF      WF62906  23.677  25.343   8.854  0.0690 -0.3777 -0.1796
    1WF      WF62907  22.235  27.832   7.980 -0.1288 -0.1249 -0.3307
    1WF      WF62908  15.583  16.145   8.687 -0.1740 -0.1438  0.1242
    1WF      WF62909  14.523  22.741   9.714  0.0364  0.2786 -0.1949
    1WF      WF62910  11.518  27.918   0.595 -0.1283 -0.1230 -0.1021
    1WF      WF62911  14.874   9.749   9.661  0.0625  0.0420 -0.2009
    1WF      WF62912   6.667  26.337   2.949  0.1523 -0.1347 -0.1414
    1WF      WF62913  28.110  22.603   9.785 -0.1790 -0.2053  0.3452
    1WF      WF62914  28.008  16.146   0.374  0.1749  0.0627  0.4654
    1WF      WF62915  22.502  17.564   8.714 -0.1828 -0.0237  0.1766
    1WF      WF62916  10.668  24.275   9.990 -0.1844  0.0866  0.2184
    1WF      WF62917   6.054  24.284   2.118  0.2282  0.2067 -0.0557
    1WF      WF62918   0.718   7.807   2.304  0.0166 -0.0381 -0.1939
    1WF      WF62919  20.167  13.765   9.828  0.2067  0.1843  0.1332
    1WF      WF62920   5.693   1.003   2.438 -0.1434 -0.2655  0.2395
    1WF      WF62921  19.001  20.482   8.720 -0.2788 -0.1235 -0.0535
    1WF      WF62922  13.777  25.278   1.752  0.0774 -0.1467 -0.1149
    1WF      WF62923  19.484  19.150   0.032 -0.0018  0.1545  0.1281
    1WF      WF62924   0.284  14.001   9.674  0.1472 -0.1164  0.0972
    1WF      WF62925   2.435   2.315   0.339  0.1350  0.2643  0.2321
    1WF      WF62926  13.176  24.893   1.098 -0.0938 -0.2058  0.2957
    1WF      WF62927  10.089   0.866   9.357  0.0381  0.0390  0.1867
    1WF      WF62928   0.409  16.309   2.502 -0.2526  0.0508 -0.0505
    1WF      WF62929   2.337   4.964   2.990  0.1840  0.0833 -0.0209
    1WF      WF62930  11.561  27.281   0.914  0.1013  0.1724  0.0262
    1WF      WF62931  27.037  18.428   9.403  0.0879 -0.0942  0.0068
    1WF      WF62932  11.466  14.257   7.559 -0.4484 -0.1404 -0.2350
    1WF      WF62933   0.754  18.407   3.742 -0.0605  0.2719  0.0951
    1WF      WF62934  18.974  17.022   9.484 -0.0409 -0.1090  0.0158
    1WF      WF62935  25.944   3.143   1.360  0.1941  0.0685 -0.2567
    1WF      WF62936  13.858  22.155   9.073 -0.0179 -0.0276 -0.1157
    1WF      WF62937  19.307  19.375   7.452  0.0463 -0.0375 -0.0757
    1WF      WF62938   8.736  26.721   4.570  0.1671 -0.1895 -0.1004
    1WF      WF62939   9.087   3.185   9.930  0.1018  0.1003  0.1610
    1WF      WF62940  24.849   9.275   9.689 -0.1986 -0.4271 -0.2347
    1WF      WF62941  25.185  10.338   0.432 -0.0039 -0.0949  0.3117
    1WF      WF62942  11.814   6.257   0.064  0.1753 -0.0093 -0.1840
    1WF      WF62943  27.394   9.086   0.704  0.0251  0.2758  0.1527
    1WF      WF62944  24.500   9.077   0.251  0.0809  0.1223 -0.2013
    1WF      WF62945   9.331  17.368   8.579 -0.1353  0.1500 -0.0150
    1WF      WF62946   3.507  11.671   0.944  0.0713 -0.0123 -0.1338
    1WF      WF62947   5.139  21.918   0.290 -0.0115 -0.0187  0.3660
    1WF      WF62948   0.562  16.880   0.976 -0.2886 -0.1785 -0.0576
    1WF      WF62949  20.299   8.573   5.429  0.0319 -0.0668  0.0625
    1WF      WF62950  13.846  28.316   7.109  0.1084 -0.0554 -0.0597
    1WF      WF62951  22.987   5.931   0.534  0.1291 -0.1919 -0.1063
    1WF      WF62952  15.733  21.902   9.135  0.3580  0.1504  0.2978
    1WF      WF62953  26.874  20.537   9.233 -0.2712 -0.0583  0.2026
    1WF      WF62954  23.442  14.798   8.637  0.4109 -0.1086 -0.0734
    1WF      WF62955   7.384  27.129   9.240 -0.0760 -0.0403 -0.0006
    1WF      WF62956  12.761  22.221   3.165 -0.0675 -0.1944  0.2216
    1WF      WF62957  25.178  17.893   0.686 -0.1305 -0.1466 -0.0444
    1WF      WF62958   6.568  27.454   0.830 -0.0973  0.0012 -0.0762
    1WF      WF62959  19.490  27.061   0.038 -0.2994 -0.0596 -0.1432
    1WF      WF62960   0.685  27.263   9.617  0.2367  0.1896  0.1785
    1WF      WF62961  11.125  25.778   7.123 -0.1819 -0.2434  0.0663
    1WF      WF62962   2.680  22.225   9.102  0.0339 -0.2206  0.3908
    1WF      WF62963  15.272  16.164   0.601 -0.0469 -0.0708 -0.1206
    1WF      WF62964   8.532  17.512   9.639  0.0731 -0.0021  0.0278
    1WF      WF62965   4.840   9.829   1.834 -0.0749 -0.1640  0.1659
    1WF      WF62966  24.245  21.842   7.880  0.2092  0.0509 -0.0377
    1WF      WF62967  19.824  27.577   9.781 -0.3758  0.5356 -0.1016
    1WF      WF62968  11.333  14.241   9.478 -0.3580  0.1670 -0.0661
    1WF      WF62969  20.228  15.581   7.672 -0.2775 -0.0493 -0.2100
    1WF      WF62970  28.768   5.993   2.611 -0.2419  0.0913 -0.2861
    1WF      WF62971  21.027  16.470   9.279 -0.3080 -0.2586  0.3698
    1WF      WF62972  22.033  10.729   1.509 -0.1745 -0.1377  0.0809
    1WF      WF62973   0.157  21.134   1.188 -0.0214  0.0548 -0.4071
    1WF      WF62974  15.242  20.457   9.783  0.3107 -0.0564 -0.2410
    1WF      WF62975   5.715   3.892   8.609 -0.0491  0.1889 -0.1504
    1WF      WF62976  25.145  27.598   1.960 -0.1875 -0.0659 -0.0618
    1WF      WF62977   9.567  28.739   8.167 -0.0755  0.0600  0.1327
    1WF      WF62978  18.411  23.868   1.871 -0.1130  0.0754 -0.0249
    1WF      WF62979   2.177   9.630   2.430  0.1536  0.1072  0.0979
    1WF      WF62980  19.993   2.055   7.716  0.0604  0.1776  0.1724
    1WF      WF62981  20.502   7.837   1.033 -0.1347 -0.1251 -0.2124
    1WF      WF62982   1.325  25.978   1.702 -0.0657  0.4863  0.2536
    1WF      WF62983   0.516  17.281   1.316 -0.1672  0.1164 -0.2714
    1WF      WF62984   8.488  10.575   0.638 -0.3515  0.0618 -0.0242
    1WF      WF62985  21.594  23.992   9.806 -0.0335 -0.3515 -0.0498
    1WF      WF62986  10.508   7.138   6.738 -0.1178  0.2039 -0.1246
    1WF      WF62987  14.707  15.154   8.605 -0.2255  0.1709 -0.3067
    1WF      WF62988  18.988  13.676   1.150  0.0430  0.3243  0.3085
    1WF      WF62989  26.297  17.139   1.255  0.0802 -0.1283  0.0483
    1WF      WF62990  11.441   4.224   8.181  0.0384 -0.3393  0.3191
    1WF      WF62991   6.607  24.459   8.048 -0.3583  0.1635 -0.1261
    1WF      WF62992   7.737   1.064   2.490  0.4634 -0.0331 -0.1688
    1WF      WF62993   5.240   2.415   0.071 -0.1139  0.0800  0.1127
    1WF      WF62994  13.564   0.782   7.944 -0.4503 -0.0604 -0.7017
    1WF      WF62995  28.697  20.079   1.031 -0.0660 -0.0685  0.1680
    1WF      WF62996  26.765  15.329   7.118 -0.0444 -0.2392  0.1717
    1WF      WF62997   8.117  23.979   9.332  0.1114 -0.3652  0.1120
    1WF      WF62998   9.779  20.402   1.954  0.0294  0.0930  0.0170
    1WF      WF62999  19.605  22.925   7.438 -0.0097 -0.0181 -0.0394
    1WF      WF63000  26.845  16.049   0.998 -0.0573 -0.0229 -0.3123
    1WF      WF63001  25.331   7.044   0.445  0.1514  0.4260  0.0330
    1WF      WF63002   1.993   7.073   0.864 -0.2381  0.0264 -0.3250
    1WF      WF63003  13.869  13.615   9.117  0.0269  0.2220  0.0199
    1WF      WF63004  17.148  23.138   9.236 -0.1241 -0.0654 -0.1211
    1WF      WF63005   1.026  14.354   1.475 -0.0077  0.2245  0.0751
    1WF      WF63006  21.050  28.290   8.916 -0.0455 -0.0423  0.4067
    1WF      WF63007   7.096  16.628   8.695  0.0325  0.0036  0.3460
    1WF      WF63008  18.023   5.557   9.675 -0.3915  0.0378 -0.2206
    1WF      WF63009   2.369  21.076   4.002 -0.1111 -0.0243 -0.0762
    1WF      WF63010  14.189  22.427   8.564  0.1732 -0.1418  0.1339
    1WF      WF63011  25.555  26.978   0.511  0.2843 -0.3789  0.1117
    1WF      WF63012   8.485   3.470   2.653  0.0901  0.0679 -0.0431
    1WF      WF63013   6.893  24.788   8.257 -0.1241  0.1305 -0.1259
    1WF      WF63014   5.959  16.044   0.418  0.2916 -0.0184 -0.0587
    1WF      WF63015   3.174   6.977   7.276 -0.2547 -0.1227  0.1961
    1WF      WF63016  10.618   5.480   8.334 -0.1705 -0.1374 -0.2939
    1WF      WF63017  10.270  10.111   0.633  0.2800 -0.2601 -0.1564
    1WF      WF63018  12.648  10.323   7.293 -0.1798 -0.0928  0.1732
    1WF      WF63019   6.875  21.532   8.481  0.2379  0.1433 -0.2081
    1WF      WF63020   9.766  21.940   2.157  0.2532 -0.1353 -0.1785
    1WF      WF63021  23.546  25.906   2.022  0.1541 -0.0210 -0.1261
    1WF      WF63022  12.327  23.946   9.032  0.1030 -0.1168 -0.2517
    1WF      WF63023  12.265  18.551   0.999 -0.0661 -0.2494 -0.1326
    1WF      WF63024  14.784  14.007   1.237  0.0895 -0.3453 -0.1708
    1WF      WF63025  10.600  22.886   9.152 -0.3566  0.2523 -0.2842
    1WF      WF63026  21.666   7.444   8.761 -0.0749 -0.0892  0.0182
    1WF      WF63027  21.770  15.993   9.239  0.1111  0.0792  0.3954
    1WF      WF63028  14.712   9.561   8.427 -0.1232 -0.0245 -0.1504
    1WF      WF63029  16.329  21.502   9.662 -0.0493 -0.1000  0.0899
    1WF      WF63030  13.301  16.200   0.257 -0.3603  0.0952  0.0383
    1WF      WF63031   8.504  24.026   1.746 -0.0403  0.2218 -0.1546
    1WF      WF63032  25.149   6.368   2.021  0.0610  0.1669 -0.2615
    1WF      WF63033  12.926   0.654   9.115 -0.2551 -0.1169 -0.0257
    1WF      WF63034   2.262  21.821   8.862 -0.0007  0.2610  0.0885
    1WF      WF63035  21.506  20.337   7.597  0.0254 -0.0945 -0.2679
    1WF      WF63036  23.305  28.645   8.158 -0.0400 -0.0541 -0.4640
    1WF      WF63037   0.251  11.861   8.391 -0.0657  0.1804  0.0603
    1WF      WF63038  12.471  21.893   9.581  0.2357  0.1472  0.0311
    1WF      WF63039  19.080  20.293   8.256  0.0164 -0.0189 -0.0604
    1WF      WF63040  20.854  23.095   8.938 -0.0737  0.1533  0.1590
    1WF      WF63041  26.160   4.573   1.631 -0.3051 -0.0786  0.0054
    1WF      WF63042  10.023   7.609   0.678 -0.0171  0.1028 -0.2065
    1WF      WF63043   4.736  19.296   1.105  0.1294 -0.0540  0.0319
    1WF      WF63044  23.665  24.943   9.186 -0.0483  0.1560 -0.0350
    1WF      WF63045  28.519  24.020   3.837 -0.3383  0.1509  0.0674
    1WF      WF63046  11.945   8.547   0.434 -0.1140  0.2382  0.0849
    1WF      WF63047  13.797  24.974   8.463 -0.0247  0.2250  0.0713
    1WF      WF63048   9.568   2.610   9.106  0.1201 -0.0852 -0.1948
    1WF      WF63049  24.231   4.092   9.263 -0.1420 -0.0948 -0.0562
    1WF      WF63050  14.438  18.445   8.491 -0.0946  0.1479 -0.0516
    1WF      WF63051   9.843  24.229   1.004  0.1662  0.0019 -0.0553
    1WF      WF63052  10.180   7.787   2.389 -0.0465  0.0309  0.1568
    1WF      WF63053  27.873  12.360   9.772 -0.2520 -0.2437 -0.1149
    1WF      WF63054   4.388  19.115   1.505 -0.0861  0.1524 -0.0075
    1WF      WF63055   6.758  16.719   7.584  0.0328  0.2003  0.1145
    1WF      WF63056   0.750  25.329   9.545  0.1472 -0.1011  0.0843
    1WF      WF63057  14.327  14.965   0.180 -0.1101 -0.2646  0.0065
    1WF      WF63058  11.887  20.831   6.833  0.1002  0.0605  0.4097
    1WF      WF63059   0.412  24.401   0.842  0.2942  0.0389 -0.0465
    1WF      WF63060  18.125  27.695   0.885  0.1433 -0.0682  0.0272
    1WF      WF63061  15.565  27.516   0.820 -0.1129 -0.0283  0.1469
    1WF      WF63062  25.720   8.454   9.858 -0.0009 -0.0610  0.1880
    1WF      WF63063  11.576  24.462   8.492 -0.0447  0.0632 -0.0034
    1WF      WF63064  21.417  28.649   0.066 -0.1424 -0.1118  0.0580
    1WF      WF63065   6.748  24.733   9.570 -0.2808 -0.0775  0.0995
    1WF      WF63066  13.611  23.600   0.416  0.2453 -0.1104  0.0011
    1WF      WF63067   6.333   3.686   1.758 -0.4070 -0.0570  0.1888
    1WF      WF63068  19.767  27.664   0.327 -0.0611  0.1377  0.1117
    1WF      WF63069  10.265  12.157   0.580 -0.0140 -0.2301 -0.2669
    1WF      WF63070   6.970  17.532   0.331 -0.0012  0.1016 -0.1171
    1WF      WF63071  18.150  21.645   0.417  0.4055  0.5080  0.0591
    1WF      WF63072  12.688   1.096   8.845 -0.4533  0.0491  0.1816
    1WF      WF63073   7.592   5.799   7.993 -0.0018  0.1393 -0.1672
    1WF      WF63074  18.426  14.068   8.232 -0.1627  0.0155 -0.1774
    1WF      WF63075  12.260  13.490   8.291 -0.0497 -0.0072 -0.2131
    1WF      WF63076   3.879  26.844   9.374 -0.1374 -0.1971  0.2112
    1WF      WF63077   6.175   5.673   9.534  0.1072 -0.1701  0.1850
    1WF      WF63078  13.546   8.176   8.652  0.1102  0.1715 -0.1623
    1WF      WF63079   5.273   8.131   8.610 -0.0141 -0.2268 -0.2188
    1WF      WF63080  26.987  24.038   0.935 -0.1303  0.2465  0.1518
    1WF      WF63081  19.899  21.874   6.306  0.3080 -0.3173  0.3190
    1WF      WF63082   3.376   5.341   2.672  0.1386 -0.0162 -0.0754
    1WF      WF63083   5.808  19.295   2.059  0.4087 -0.0515 -0.2511
    1WF      WF63084   4.060  16.241   8.476  0.2262  0.1070 -0.0428
    1WF      WF63085  18.926  10.680   1.010  0.2290  0.3432 -0.1665
    1WF      WF63086  23.434  28.793   8.663 -0.1627 -0.1803 -0.1297
    1WF      WF63087  14.271  26.214   0.045  0.1480  0.1623  0.1947
    1WF      WF63088  24.885  24.081   1.616  0.0206 -0.0658 -0.2615
    1WF      WF63089  14.489  22.394   1.952 -0.0771  0.0252  0.0279
    1WF      WF63090  24.423  12.569   8.793 -0.0016  0.2607  0.0460
    1WF      WF63091  18.672  25.504   7.820 -0.1315 -0.0220 -0.2275
    1WF      WF63092  13.564   9.439   8.542 -0.1179  0.2338  0.1409
    1WF      WF63093  18.328  28.507   0.169 -0.0471 -0.0585  0.2316
    1WF      WF63094  27.432   2.620   1.164 -0.0306 -0.0603  0.1084
    1WF      WF63095   4.120   5.633   9.523 -0.2208  0.1261  0.2096
    1WF      WF63096  24.054   4.336   0.219 -0.2925  0.2161 -0.0411
    1WF      WF63097   4.582  17.625   9.218 -0.1112 -0.3435  0.2107
    1WF      WF63098   8.534  19.132   9.089 -0.2306 -0.1617 -0.1527
    1WF      WF63099   9.744   2.391   0.635 -0.0036  0.1788 -0.0332
    1WF      WF63100  25.036   8.402   2.167 -0.1910  0.2728 -0.0411
    1WF      WF63101  16.785  24.865   1.135  0.0741  0.0860  0.3797
    1WF      WF63102   5.579   5.854   0.709  0.5977 -0.3429 -0.1318
    1WF      WF63103   6.386   3.260   2.446 -0.0699  0.0380  0.3542
    1WF      WF63104   3.545   9.604   9.475  0.0209 -0.1407  0.0956
    1WF      WF63105   8.281  15.259   0.673  0.0620 -0.2078 -0.1324
    1WF      WF63106  16.051   7.862   0.625 -0.0909 -0.0512 -0.1905
    1WF      WF63107   4.472   5.874   9.185  0.0727 -0.1693  0.3407
    1WF      WF63108  26.875  24.066   0.322  0.0415 -0.0254 -0.3665
    1WF      WF63109   2.090  28.764   9.431  0.3602  0.0197  0.3770
    1WF      WF63110  27.052  12.771   9.916 -0.0803  0.0113 -0.0706
    1WF      WF63111   2.026  23.769   3.640 -0.0981  0.3719 -0.1148
    1WF      WF63112  25.764   3.175   9.431  0.1064  0.0320  0.2654
    1WF      WF63113  27.556  14.793   9.261  0.1674 -0.0403 -0.3405
    1WF      WF63114   8.357  19.750   1.508 -0.0025 -0.1803 -0.1924
    1WF      WF63115   3.811  13.906   8.823 -0.0351 -0.3426  0.0810
    1WF      WF63116  15.142  16.300   8.827  0.0446  0.1556 -0.1572
    1WF      WF63117  23.119   7.284   8.300  0.4074 -0.0920  0.2917
    1WF      WF63118  15.021  11.159   8.217 -0.0110 -0.1212 -0.0429
    1WF      WF63119  25.700  17.787   7.026  0.0002 -0.1650 -0.0997
    1WF      WF63120  27.481  18.287   1.714 -0.1466 -0.0922 -0.1741
    1WF      WF63121  19.786  19.415   0.337 -0.0847 -0.0043 -0.0690
    1WF      WF63122  18.278  27.971   0.488 -0.4787  0.3007  0.1550
    1WF      WF63123   6.443  21.219   0.119 -0.0997 -0.3115  0.3860
    1WF      WF63124  21.593  20.420   6.567  0.1390  0.0327 -0.2514
    1WF      WF63125  28.192  26.367   1.627 -0.1201  0.2070 -0.2082
    1WF      WF63126  18.631   7.862   0.763 -0.0572 -0.0124 -0.3172
    1WF      WF63127  25.249   7.012   0.965 -0.4109  0.0329 -0.0331
    1WF      WF63128   4.174   8.803   9.467  0.0460  0.0935 -0.0472
    1WF      WF63129  10.137  24.602   1.180  0.1015 -0.2039  0.4153
    1WF      WF63130  12.940   1.637   0.881  0.1657  0.0240  0.1313
    1WF      WF63131   0.206  13.021   8.925  0.2154  0.2241  0.1738
    1WF      WF63132  12.353  19.744   8.552  0.2733 -0.0957 -0.2320
    1WF      WF63133   8.640  25.271   9.764 -0.0258  0.0294 -0.2410
    1WF      WF63134  21.337  18.567   8.727 -0.1328 -0.0634  0.1561
    1WF      WF63135  23.477  19.472   0.209 -0.0638 -0.0380  0.0238
    1WF      WF63136  10.257  14.652   0.935  0.0372 -0.3251 -0.0211
    1WF      WF63137   3.087  21.666   0.025 -0.3150 -0.0449 -0.1373
    1WF      WF63138  10.497  10.246   0.132  0.1986 -0.3100 -0.2628
    1WF      WF63139   3.665  12.917   3.480  0.2036 -0.0555 -0.2298
    1WF      WF63140  12.306  18.508   1.493  0.1950 -0.2973  0.1877
    1WF      WF63141  13.086  15.546   7.405 -0.0407 -0.1715 -0.1073
    1WF      WF63142  28.418  23.684   7.708 -0.0311  0.1264 -0.1238
    1WF      WF63143   3.010  28.046   8.988  0.2925  0.0614  0.0938
    1WF      WF63144   7.709   5.417   7.157 -0.2648  0.1664 -0.0880
    1WF      WF63145  22.056  14.140   9.937  0.1331 -0.2711  0.0715
    1WF      WF63146   9.045  11.122   9.915  0.0846  0.0132 -0.1062
    1WF      WF63147  24.178  28.318   2.343  0.1244 -0.3085 -0.2191
    1WF      WF63148   6.680   1.073   1.994  0.3075  0.1376  0.0208
    1WF      WF63149  20.928  20.573   2.661  0.2561 -0.0408 -0.1038
    1WF      WF63150   1.578  21.697   2.042  0.0166 -0.0561  0.1976
    1WF      WF63151  11.166   2.902   1.986  0.0672 -0.0042 -0.0739
    1WF      WF63152   5.302  22.187   1.976  0.0883 -0.2622  0.1364
    1WF      WF63153   4.502   4.539   9.420  0.1450 -0.0609 -0.0412
    1WF      WF63154   2.334  19.613   0.951 -0.0060 -0.1669  0.1702
    1WF      WF63155   0.920  15.658   9.455  0.0357 -0.2417  0.0047
    1WF      WF63156   6.973  26.088   0.660  0.1363  0.0244 -0.2265
    1WF      WF63157   1.130  21.437   2.506  0.0237 -0.3260 -0.1148
    1WF      WF63158  10.050  22.441   1.906 -0.2252 -0.0188 -0.1272
    1WF      WF63159   9.775  13.587   5.326  0.0797 -0.2781  0.1341
    1WF      WF63160  21.921  15.186   7.930  0.2844  0.2893 -0.0842
    1WF      WF63161  16.662  13.905   7.334 -0.0147  0.1703  0.1588
    1WF      WF63162  24.839  11.327   1.043 -0.0533 -0.1755 -0.1849
    1WF      WF63163   9.426  11.348   0.132  0.0175 -0.1122 -0.0987
    1WF      WF63164  11.682  27.837   8.326  0.1993  0.2208  0.0579
    1WF      WF63165  19.999  13.387   7.846 -0.0787  0.2585 -0.0729
    1WF      WF63166   9.006  13.859   7.117 -0.1065  0.1967  0.2115
    1WF      WF63167   6.484  18.893   0.154 -0.0083 -0.1262 -0.0383
    1WF      WF63168   8.695  14.032   7.958  0.0776  0.1630  0.1962
    1WF      WF63169   0.032  16.145   2.862  0.3798 -0.0818  0.1003
    1WF      WF63170   1.127  23.658   9.068  0.0843  0.2414 -0.2225
    1WF      WF63171  19.069   1.171   9.681  0.3927  0.0337  0.2652
    1WF      WF63172  13.423   9.872   8.329  0.0733 -0.0704 -0.1672
    1WF      WF63173   5.112   8.104   9.437 -0.2117  0.2090 -0.1455
    1WF      WF63174   4.314  16.355   8.978 -0.0500  0.1321 -0.0270
    1WF      WF63175  25.752  10.415   2.158 -0.2807  0.0804  0.0332
    1WF      WF63176   5.602   7.568   7.368 -0.1503  0.1735  0.2442
    1WF      WF63177  10.867  28.804   8.517  0.1716 -0.2678  0.2596
    1WF      WF63178  15.990  20.158   9.640  0.0709  0.1149  0.0262
    1WF      WF63179  13.444  11.581   7.408 -0.2564  0.0236  0.2328
    1WF      WF63180   1.737  14.175   8.307 -0.0376  0.1891  0.0402
    1WF      WF63181  27.519  19.871   0.600  0.1125  0.2501  0.0426
    1WF      WF63182  19.066  16.539   8.383 -0.0043  0.1533 -0.4011
    1WF      WF63183  11.155   2.439   1.629 -0.0032  0.1450 -0.3944
    1WF      WF63184  21.836  11.018   0.106 -0.1565  0.2043 -0.2624
    1WF      WF63185   6.585  17.075   9.685 -0.1198  0.1161  0.0497
    1WF      WF63186   7.569  13.040   0.840  0.0416  0.0743  0.0889
    1WF      WF63187  15.577  15.006   8.530 -0.0926 -0.3471  0.0649
    1WF      WF63188  12.459  24.365   8.460  0.0496  0.0757 -0.0746
    1WF      WF63189   0.856  26.171   7.543 -0.2192 -0.0267 -0.0877
    1WF      WF63190  26.486  16.478   3.129  0.1924  0.1510  0.2066
    1WF      WF63191   8.302  15.665   0.350  0.0772 -0.1117  0.1351
    1WF      WF63192  19.951  17.903   6.002 -0.1308  0.0147 -0.0930
    1WF      WF63193  26.809   9.341   1.799  0.1801 -0.1133 -0.0683
    1WF      WF63194   2.001  11.846   8.367 -0.2306 -0.0051 -0.0477
    1WF      WF63195   1.652  23.016   2.416  0.1835  0.2539  0.0884
    1WF      WF63196  12.695  13.324   8.043  0.1694 -0.2343 -0.1529
    1WF      WF63197  17.548  19.068   8.540 -0.0087 -0.1448 -0.1609
    1WF      WF63198  26.582   4.618   1.289 -0.0801 -0.2264  0.1229
    1WF      WF63199  23.827  24.921   8.631  0.0952 -0.1205  0.1711
    1WF      WF63200  10.497  22.989   1.532  0.1582 -0.0006  0.0336
    1WF      WF63201  26.986  15.864   2.349 -0.0317 -0.0151 -0.0295
    1WF      WF63202   2.916   1.009   0.501  0.1287  0.0403  0.1880
    1WF      WF63203  23.520  11.327   9.276 -0.0444  0.0163  0.1886
    1WF      WF63204  10.046  23.507   8.496  0.2285 -0.0289  0.0596
    1WF      WF63205  14.832  25.143   6.403  0.1997  0.2422 -0.2104
    1WF      WF63206  23.817  18.806   1.109  0.1280  0.1486 -0.2628
    1WF      WF63207  25.058  18.613   9.710 -0.0674 -0.1592  0.0848
    1WF      WF63208  14.107  25.897   7.903 -0.3115 -0.0722  0.2704
    1WF      WF63209  20.393  28.401   1.690  0.1786 -0.1659 -0.1108
    1WF      WF63210  21.388  13.071   1.881 -0.0711  0.1468 -0.1835
    1WF      WF63211  24.894  11.980   2.157 -0.2502  0.0574  0.0754
    1WF      WF63212  22.785   5.861   0.999  0.0617  0.0262 -0.2613
    1WF      WF63213   8.053  23.967   1.806  0.1368  0.2282  0.0359
    1WF      WF63214   7.324  20.422   2.442 -0.3718 -0.1415  0.1190
    1WF      WF63215  15.661  27.058   0.602 -0.0125  0.2906  0.2593
    1WF      WF63216   8.203  10.644   0.251 -0.0144 -0.1636 -0.0593
    1WF      WF63217   3.755  18.490   0.049  0.2061 -0.2867  0.1550
    1WF      WF63218  24.512   4.302   7.511 -0.0412 -0.0943 -0.2262
    1WF      WF63219  15.344  17.610   7.998  0.1534  0.1053  0.2356
    1WF      WF63220  19.252   6.018   6.923  0.2314 -0.0151  0.0898
    1WF      WF63221   2.402   2.395   8.981  0.3129 -0.2263 -0.0661
    1WF      WF63222  15.511  10.159   7.634  0.1454 -0.0340 -0.0239
    1WF      WF63223  11.692  28.212   8.635 -0.2376  0.0411 -0.0805
    1WF      WF63224  28.108  23.473   2.767 -0.2375 -0.0587  0.1546
    1WF      WF63225   9.107  13.432   0.054  0.0195  0.0593 -0.2402
    1WF      WF63226   0.043   5.427   9.020  0.1957 -0.0064  0.0040
    1WF      WF63227  22.262  19.298   7.743 -0.0272 -0.0108  0.2840
    1WF      WF63228  19.266  24.883   7.874  0.0972  0.2742  0.0025
    1WF      WF63229  20.584   3.142   0.504 -0.1700  0.0551 -0.2719
    1WF      WF63230  22.319  19.551   1.131 -0.0811  0.0708 -0.1134
    1WF      WF63231  19.333  27.897   9.440 -0.2001  0.3353  0.0890
    1WF      WF63232  17.419  12.769   7.517  0.1244 -0.2056 -0.1548
    1WF      WF63233  18.739   6.208   6.674 -0.3423 -0.1310  0.0172
    1WF      WF63234  19.228   6.556   7.550 -0.0444  0.2560 -0.1627
    1WF      WF63235  16.299   4.690   8.662  0.1204  0.0719  0.0689
    1WF      WF63236  10.253  18.656   2.472 -0.1450  0.2178  0.0553
    1WF      WF63237  15.320  21.814   8.881  0.1438 -0.2877 -0.4297
    1WF      WF63238  22.721   0.384   1.633  0.1858 -0.1594  0.0158
    1WF      WF63239  13.282  23.821   0.114 -0.0909 -0.1273 -0.1427
    1WF      WF63240  15.151  14.748   8.763 -0.0301  0.0046 -0.0727
    1WF      WF63241  13.118   8.335   7.629  0.1232  0.0987  0.3794
    1WF      WF63242   8.685  10.144   1.511  0.1684 -0.0645  0.1258
    1WF      WF63243  24.527   8.057   8.142  0.0777  0.0053 -0.1587
    1WF      WF63244  19.559  24.779   9.473  0.0383 -0.1313 -0.0656
    1WF      WF63245  17.746  16.242   0.401  0.0951 -0.1620 -0.1093
    1WF      WF63246   0.904  20.255   9.680  0.2115 -0.0095 -0.1357
    1WF      WF63247  13.459  21.972   9.303  0.0620 -0.0333  0.0308
    1WF      WF63248   2.386   1.105   1.598  0.0139  0.0008 -0.2320
    1WF      WF63249   4.676  21.628   0.251  0.1959  0.3217  0.2929
    1WF      WF63250  18.384  12.084   0.949  0.0528 -0.1331 -0.0986
    1WF      WF63251  13.704  19.659   9.581  0.1573  0.0386 -0.0316
    1WF      WF63252  13.538   2.345   8.416 -0.0226 -0.0174  0.3229
    1WF      WF63253  11.778  11.358   7.231 -0.2759 -0.0329  0.0151
    1WF      WF63254  25.584  21.978   7.411 -0.3197 -0.0469 -0.2070
    1WF      WF63255  27.706  15.612   0.422 -0.0870 -0.2680  0.5497
    1WF      WF63256   6.187  18.308   8.626 -0.1222  0.1270 -0.1217
    1WF      WF63257  15.983  20.680   9.861 -0.0707 -0.1060  0.0234
    1WF      WF63258   2.908   8.071   9.689  0.1961  0.3798  0.1850
    1WF      WF63259  10.255  25.926   1.657 -0.1369  0.1321  0.0797
    1WF      WF63260  28.713  14.354   9.566  0.4458 -0.0448 -0.1960
    1WF      WF63261  10.786   3.134   0.492 -0.1493  0.2196  0.0834
    1WF      WF63262  19.787   0.979   0.649  0.4459 -0.0967 -0.2218
    1WF      WF63263  25.371  10.184   2.367 -0.0749  0.3454  0.2268
    1WF      WF63264  28.273  25.920   0.027 -0.0348 -0.2226 -0.1302
    1WF      WF63265   3.028   7.585   9.551  0.0447  0.1218  0.1370
    1WF      WF63266   3.407   1.615   8.935  0.0815 -0.1590 -0.0564
    1WF      WF63267  23.449  28.318   0.293  0.1079 -0.1086 -0.0832
    1WF      WF63268  13.719   1.970   8.047 -0.2240  0.0112  0.4391
    1WF      WF63269  18.306   7.336   7.394 -0.2795  0.2583 -0.3090
    1WF      WF63270  27.359  21.435   0.672 -0.1674  0.0388 -0.2276
    1WF      WF63271   5.549  14.457   7.716 -0.1306  0.3055 -0.0050
    1WF      WF63272  21.832  24.806   8.445 -0.1193 -0.1059  0.0871
    1WF      WF63273  23.643  15.382   9.726 -0.0714 -0.1102  0.0738
    1WF      WF63274   4.566  12.644   0.838  0.0030  0.3936  0.1752
    1WF      WF63275  12.312   0.028   3.128 -0.0412  0.2721  0.2283
    1WF      WF63276  15.454  11.793   2.250  0.0592 -0.1350 -0.5137
    1WF      WF63277  21.928   4.856   0.404 -0.1022 -0.0181  0.1039
    1WF      WF63278  17.155  13.769   0.783  0.2525 -0.1691  0.0578
    1WF      WF63279  18.602  16.533   9.449 -0.0006  0.0384  0.1553
    1WF      WF63280   4.430  23.386   0.066  0.0375 -0.2792  0.3943
    1WF      WF63281  27.867  12.250   7.950  0.3537  0.1678  0.2455
    1WF      WF63282  28.065  15.731   0.066 -0.0413  0.2993 -0.0409
    1WF      WF63283   4.542   3.878   1.619  0.0365 -0.0251 -0.1103
    1WF      WF63284  11.377   4.243   1.754 -0.2372 -0.0237 -0.1675
    1WF      WF63285  22.210  14.853   8.146 -0.0195 -0.1719  0.0156
    1WF      WF63286   9.528   7.728   9.211  0.2998  0.2786 -0.0228
    1WF      WF63287   0.561   8.509   7.574 -0.0145  0.0586  0.0559
    1WF      WF63288   2.676   2.566   9.882  0.0322 -0.1483 -0.0551
    1WF      WF63289  25.421  28.387   9.695  0.1932  0.0680  0.0585
    1WF      WF63290  26.407  21.283   8.079  0.3074  0.2274  0.0252
    1WF      WF63291  15.257   2.650   8.128 -0.0142  0.1885  0.2206
    1WF      WF63292   3.583   9.308   2.556 -0.2296  0.0125 -0.2021
    1WF      WF63293  25.839  28.777   4.070 -0.2328 -0.2746 -0.4145
    1WF      WF63294   3.327   3.900   4.533 -0.1456  0.0413  0.0556
    1WF      WF63295  26.608  18.068   3.279  0.0651  0.2419 -0.1598
    1WF      WF63296  20.771   2.024   0.279 -0.1934  0.0331 -0.1093
    1WF      WF63297   6.005  21.439   9.302  0.2129 -0.2401 -0.1074
    1WF      WF63298   3.318  11.614   9.490 -0.2429 -0.2988 -0.1127
    1WF      WF63299  22.462   9.429   0.482 -0.2601 -0.0026  0.1199
    1WF      WF63300  21.052   4.274   9.760 -0.0793  0.2429 -0.4272
    1WF      WF63301  26.738   4.489   1.743 -0.0557 -0.3635  0.0132
    1WF      WF63302   7.966  24.267   8.276 -0.0509 -0.2719 -0.1094
    1WF      WF63303  15.637  23.680   0.889 -0.1450  0.1333  0.2624
    1WF      WF63304  20.657  23.357   8.577  0.1057 -0.2729  0.0197
    1WF      WF63305  15.468   6.288   9.936 -0.0217  0.0595  0.0303
    1WF      WF63306  14.933   4.106   9.849  0.3680 -0.1796 -0.0970
    1WF      WF63307  23.749  14.651   3.485 -0.1661 -0.0364  0.1177
    1WF      WF63308  13.690  23.426   0.952 -0.2326 -0.0367 -0.4623
    1WF      WF63309   6.433   5.090   9.708  0.0288 -0.1447 -0.1067
    1WF      WF63310  13.267  25.722   6.175 -0.0719 -0.0402 -0.1062
    1WF      WF63311   9.592  16.522   8.895 -0.4320  0.2910  0.1958
    1WF      WF63312   6.196  12.373   8.761  0.1004 -0.0721 -0.1840
    1WF      WF63313  10.364  21.780   8.156 -0.1113  0.1955  0.0832
    1WF      WF63314   5.748  16.742   7.655 -0.0730  0.0048 -0.1207
    1WF      WF63315  20.061  16.745   0.748 -0.3648  0.0858 -0.0040
    1WF      WF63316  21.965   5.463   9.686 -0.0382  0.1984  0.1667
    1WF      WF63317  24.204   8.239   8.576  0.0240 -0.2626  0.0733
    1WF      WF63318   8.569  24.747   8.451 -0.2821 -0.0011  0.1725
    1WF      WF63319   9.913   8.126   0.880 -0.3869 -0.1656  0.0315
    1WF      WF63320   2.340   6.856   2.123  0.1135 -0.0132 -0.3785
    1WF      WF63321  24.479  27.904   9.196 -0.1659 -0.1772 -0.2974
    1WF      WF63322   9.868  18.346   8.609 -0.2974  0.1927  0.0396
    1WF      WF63323   0.443   6.344   7.684 -0.2518 -0.0651  0.3292
    1WF      WF63324  22.823   1.946   0.020 -0.1202 -0.1587 -0.2491
    1WF      WF63325   7.215  27.547   8.977 -0.1717 -0.1509 -0.4930
    1WF      WF63326  20.823  23.092   1.982 -0.2244 -0.2012  0.0383
    1WF      WF63327   9.737  18.263   1.409 -0.0344  0.2418 -0.3783
    1WF      WF63328   7.723   4.004   9.363  0.0115 -0.0654  0.0668
    1WF      WF63329  18.367  24.860   8.718 -0.0682  0.2658  0.3374
    1WF      WF63330  18.859  16.430   0.605 -0.2074  0.2962  0.0486
    1WF      WF63331  21.959   3.931   2.090 -0.0469  0.0874  0.3340
    1WF      WF63332   8.536  12.638   7.542 -0.0335  0.1934 -0.0426
    1WF      WF63333   1.978  12.750   1.078 -0.2178 -0.0904 -0.2178
    1WF      WF63334   8.265  22.121   7.461  0.1645  0.1163 -0.0609
    1WF      WF63335  25.617  26.847   0.001  0.2495 -0.0292  0.0597
    1WF      WF63336  25.738  15.353   0.895  0.2011  0.1475 -0.1047
    1WF      WF63337  12.004  19.611   9.924  0.1834 -0.1678 -0.1043
    1WF      WF63338   3.476   7.459   9.370  0.0185  0.4089 -0.1425
    1WF      WF63339   0.143  11.384   8.452  0.1487  0.0118  0.1503
    1WF      WF63340  27.143  20.411   0.400  0.1781  0.0404 -0.2782
    1WF      WF63341  14.621  18.742   6.628 -0.4694 -0.0983  0.0206
    1WF      WF63342  14.677  21.340   1.398 -0.1796  0.0573  0.1265
    1WF      WF63343   6.883   3.783   1.665 -0.3250  0.0972 -0.1532
    1WF      WF63344   4.338  17.736   8.497 -0.0030  0.1382  0.1219
    1WF      WF63345  23.954  15.205   0.043  0.1801  0.2576  0.0226
    1WF      WF63346  10.353  22.403   9.228 -0.2221 -0.1767 -0.0295
    1WF      WF63347   5.758   6.365   0.909  0.0339 -0.0891 -0.1719
    1WF      WF63348  14.297  21.182   0.283  0.0575 -0.1581  0.0182
    1WF      WF63349   0.824  14.497   3.481 -0.3516  0.2017 -0.0301
    1WF      WF63350   4.640   9.588   8.065  0.3027 -0.0389  0.1355
    1WF      WF63351  26.306  14.466   2.771  0.1341 -0.0428 -0.2035
    1WF      WF63352  15.471  20.828   1.385  0.4308  0.0661  0.0932
    1WF      WF63353  12.367  14.885   7.081 -0.0541  0.1691  0.2176
    1WF      WF63354   0.669  20.869   3.586  0.3330 -0.0887  0.0150
    1WF      WF63355  26.202   6.023   0.837  0.1238  0.1579  0.0819
    1WF      WF63356  24.269  12.999   8.967 -0.1764  0.0301 -0.1488
    1WF      WF63357  12.061  24.338   8.904  0.2227  0.3300 -0.0340
    1WF      WF63358  14.477   4.356   9.737 -0.0982  0.1548  0.1435
    1WF      WF63359  28.762   1.109   1.361  0.1402 -0.1573 -0.2525
    1WF      WF63360   1.861  27.791   0.162 -0.0006 -0.2583  0.1209
    1WF      WF63361   0.534  12.085   0.895  0.1062  0.4466 -0.1145
    1WF      WF63362   7.753   3.791   8.890  0.2299  0.0626  0.0814
    1WF      WF63363   3.456  17.203   0.227 -0.1831 -0.1453  0.0540
    1WF      WF63364  28.084   2.095   2.262  0.0494  0.1846  0.1784
    1WF      WF63365  24.320  16.878   9.286 -0.2112 -0.1944 -0.2875
    1WF      WF63366   5.641  10.276   1.396  0.3411  0.1593  0.1010
    1WF      WF63367   0.019  28.815   2.273 -0.1878  0.2229 -0.1944
    1WF      WF63368   8.242   6.129   1.617 -0.0585  0.0326 -0.0640
    1WF      WF63369  18.846  13.722   8.395  0.0046 -0.2715  0.0205
    1WF      WF63370  19.040  13.867   1.656 -0.0553 -0.0233  0.3950
    1WF      WF63371   4.096  20.600   9.261  0.0243  0.0668  0.0493
    1WF      WF63372  25.988   3.465   0.931 -0.0921 -0.0186  0.0195
    1WF      WF63373  10.215  17.693   7.675 -0.0721 -0.1022  0.0350
    1WF      WF63374  27.587  19.488   2.963 -0.0564  0.1640 -0.2126
    1WF      WF63375  26.566  16.951   1.821  0.1139 -0.1836 -0.2411
    1WF      WF63376  12.281   4.167   9.096 -0.0900 -0.2264 -0.4969
    1WF      WF63377  26.614  12.055   0.760  0.0933  0.1360  0.3416
    1WF      WF63378  21.764  22.662   0.984 -0.0506 -0.0178 -0.0887
    1WF      WF63379  19.672  23.315   0.248 -0.0149  0.0513  0.1042
    1WF      WF63380   6.501  16.629   1.637  0.0894 -0.0118  0.1525
    1WF      WF63381  23.454   7.535   6.996 -0.1184  0.0056  0.1214
    1WF      WF63382  20.338   7.341   8.463 -0.0007 -0.0432 -0.2554
    1WF      WF63383  18.209  15.397   8.439  0.2317  0.0128  0.3298
    1WF      WF63384  27.849  19.822   3.333 -0.0524  0.0376  0.0992
    1WF      WF63385  10.642  16.478   2.958  0.0982 -0.2864  0.1628
    1WF      WF63386   4.392  26.874   0.963 -0.0115  0.1148  0.1314
    1WF      WF63387   5.470  16.683   8.040  0.2095 -0.1480  0.1067
    1WF      WF63388  19.789  20.711   8.814 -0.1179  0.2737 -0.1405
    1WF      WF63389  15.517  23.817   9.384  0.0375  0.0486 -0.1841
    1WF      WF63390  12.565  17.372   9.557 -0.3571  0.0538 -0.0884
    1WF      WF63391  14.224  16.006   9.340 -0.0132 -0.1686 -0.2112
    1WF      WF63392   8.160  18.454   1.011 -0.1436 -0.3204 -0.2242
    1WF      WF63393  10.683  20.226   9.803 -0.0302 -0.0110  0.0492
    1WF      WF63394  20.874   8.085   9.454  0.2057 -0.0757 -0.2130
    1WF      WF63395   2.629  22.526   2.014 -0.4016 -0.2758 -0.1830
    1WF      WF63396  17.109  15.298   9.366  0.1585 -0.2867 -0.2599
    1WF      WF63397  14.885  24.992   9.849  0.3135  0.5645  0.3072
    1WF      WF63398   9.786  18.848   1.704 -0.1228  0.2936  0.1423
    1WF      WF63399  19.725  13.371   8.263 -0.0656 -0.2222 -0.1019
    1WF      WF63400  14.906  24.835   7.888  0.1477  0.2137 -0.1818
    1WF      WF63401  24.780  14.231   9.786 -0.2007  0.2217  0.0353
    1WF      WF63402   0.565   4.368   9.876 -0.0467 -0.2749 -0.0254
    1WF      WF63403   3.631  18.887   9.765  0.1399  0.1703 -0.1305
    1WF      WF63404  28.871  24.517   1.135  0.3476 -0.0978 -0.2648
    1WF      WF63405  11.473  19.215   1.546  0.0924 -0.1770  0.3033
    1WF      WF63406  28.743  16.242   2.337 -0.2363 -0.1276 -0.2115
    1WF      WF63407  24.335  24.810   2.594 -0.2178  0.0904 -0.1490
    1WF      WF63408  20.545  14.496   1.537  0.2138  0.0211  0.1144
    1WF      WF63409  19.401  28.417   8.155  0.0032  0.2794  0.1829
    1WF      WF63410   6.928  18.625   8.157 -0.0031 -0.0744 -0.1257
    1WF      WF63411   5.620   4.398   0.717  0.2172  0.2256  0.0273
    1WF      WF63412  21.021  22.660   9.175  0.1741 -0.1208 -0.0717
    1WF      WF63413  27.799   1.510   8.846  0.2100 -0.0164 -0.2382
    1WF      WF63414   1.645  17.863   0.335 -0.3597 -0.0427  0.1888
    1WF      WF63415   5.815  11.393   0.331 -0.2324  0.1786 -0.1375
    1WF      WF63416  15.318   7.251   7.703 -0.0260 -0.0321 -0.1229
    1WF      WF63417  18.690  12.158   1.371 -0.0171 -0.0835 -0.2371
    1WF      WF63418  10.065   7.771   1.154 -0.2374  0.0999  0.0131
    1WF      WF63419   2.165   3.752   0.240  0.0947  0.1101  0.1812
    1WF      WF63420   3.775   3.381   3.325 -0.0069 -0.2473 -0.0812
    1WF      WF63421  13.700   6.731   7.775  0.0345  0.2919  0.0539
    1WF      WF63422   8.704  21.027   1.933  0.2650  0.3627 -0.1743
    1WF      WF63423  26.310  11.858   2.181  0.0344  0.2318  0.0764
    1WF      WF63424  12.609  10.397   9.697 -0.0592 -0.0011 -0.3554
    1WF      WF63425  27.327  12.868   9.252 -0.1815  0.0449 -0.0778
    1WF      WF63426  20.260   0.398   9.973  0.0528  0.1431 -0.0307
    1WF      WF63427  23.420  23.830   0.815  0.1271 -0.2087  0.2729
    1WF      WF63428  25.858  17.448   1.431 -0.1805 -0.0454 -0.0480
    1WF      WF63429  15.179  23.938   0.934 -0.2072 -0.0900  0.0123
    1WF      WF63430  26.481  15.927   2.327  0.1583 -0.1700 -0.1130
    1WF      WF63431   9.489   8.764   8.821 -0.0059 -0.3641  0.1014
    1WF      WF63432  13.929  11.749   9.436 -0.1245 -0.1471  0.1351
    1WF      WF63433   0.004  13.136   8.548  0.1587 -0.1011  0.2287
    1WF      WF63434   1.612  19.705   1.823 -0.1794  0.2192 -0.0676
    1WF      WF63435   4.697  14.452   9.924 -0.2138 -0.0993  0.1715
    1WF      WF63436   5.952   3.624   1.482  0.1375 -0.1765  0.0255
    1WF      WF63437  26.243  13.520   8.490  0.1407  0.2028 -0.3519
    1WF      WF63438   3.947  11.614   1.168  0.0641 -0.2116  0.0043
    1WF      WF63439  16.693  19.825   0.552  0.0422 -0.2279  0.3063
    1WF      WF63440  18.905  14.347   6.162 -0.2698  0.1123 -0.1934
    1WF      WF63441  17.850  14.445   9.539  0.1006 -0.0358 -0.3127
    1WF      WF63442  15.338  15.696   0.497 -0.0386  0.3341 -0.2372
    1WF      WF63443   6.756  15.123   9.458 -0.0862  0.0156  0.0189
    1WF      WF63444  25.878  16.374   8.825  0.3828  0.2578 -0.1713
    1WF      WF63445  25.809  24.184   1.806  0.2139 -0.0389 -0.1172
    1WF      WF63446  15.019   4.638   1.620  0.1500 -0.0116  0.0992
    1WF      WF63447   4.305   2.905   9.753 -0.0014  0.0014 -0.1268
    1WF      WF63448  15.012  11.779   0.948  0.0772 -0.0003 -0.1869
    1WF      WF63449  16.353   0.973   0.954  0.1180  0.2351 -0.1557
    1WF      WF63450   6.760   6.479   8.409 -0.4028 -0.0116 -0.3892
    1WF      WF63451  12.442  26.444   8.323 -0.0774  0.0857  0.3221
    1WF      WF63452  22.546  23.650   0.009 -0.1915  0.1267 -0.0601
    1WF      WF63453  13.654   2.543   9.478 -0.0637  0.0706  0.0949
    1WF      WF63454  18.105  26.113   0.205 -0.2599 -0.0605  0.0296
    1WF      WF63455  19.564   6.589   1.832 -0.2171 -0.2489 -0.1299
    1WF      WF63456  19.499   5.222   2.473 -0.3101  0.1065  0.0210
    1WF      WF63457   1.189   9.373   1.847  0.0987  0.1680  0.1219
    1WF      WF63458  13.089  14.577   8.646 -0.1390 -0.0969  0.1028
    1WF      WF63459  17.687   1.757   8.736  0.1295 -0.2082  0.0500
    1WF      WF63460  14.832   0.808   0.843 -0.2950 -0.0642  0.2928
    1WF      WF63461  16.728  20.623   1.072  0.1992 -0.2232  0.2538
    1WF      WF63462  11.463   2.015   1.429 -0.0190 -0.1220  0.1683
    1WF      WF63463  22.384  12.370   6.809 -0.2396  0.0694  0.0038
    1WF      WF63464   4.041  11.313   9.886  0.2913 -0.1076  0.0541
    1WF      WF63465   9.599  13.044   9.792  0.2342 -0.2335  0.2501
    1WF      WF63466   3.374  12.013   9.919 -0.0227 -0.1019  0.1951
    1WF      WF63467   3.570  25.303   1.300  0.2188  0.1148  0.1640
    1WF      WF63468  11.877   8.345   0.878  0.1179  0.0873  0.2136
    1WF      WF63469   8.453   5.637   0.213 -0.1934 -0.2399  0.3152
    1WF      WF63470   0.288  12.460   8.936 -0.2743  0.1451  0.0425
    1WF      WF63471  19.713  14.570   8.498  0.2033  0.1909  0.0218
    1WF      WF63472  14.710  23.760   8.314  0.1418  0.0476  0.1165
    1WF      WF63473  14.866   2.763   8.416 -0.1870  0.1718  0.0573
    1WF      WF63474  12.600   1.638   8.726  0.0841 -0.3820 -0.1228
    1WF      WF63475  25.436  19.433   0.356  0.0155  0.1008  0.0594
    1WF      WF63476  22.441  10.445   6.431  0.0686  0.1452 -0.0288
    1WF      WF63477   3.025  27.515   9.173 -0.2105 -0.0856  0.0602
    1WF      WF63478   5.577  24.827   1.251 -0.0645  0.2127  0.0518
    1WF      WF63479   1.466  24.937   2.330  0.2548  0.1950 -0.2196
    1WF      WF63480  18.810  12.224   0.325 -0.0961 -0.1837 -0.0964
    1WF      WF63481   9.714   7.398   8.870 -0.0592  0.1941  0.4992
    1WF      WF63482   7.148  28.331   0.652 -0.1417 -0.0014  0.0262
    1WF      WF63483  11.369  20.171   2.180 -0.0599  0.0020  0.0615
    1WF      WF63484  23.279  22.170   1.170 -0.0226  0.1127  0.1060
    1WF      WF63485   8.743  28.789   9.204  0.0327 -0.1940 -0.0936
    1WF      WF63486   8.142  25.141   9.709 -0.1771 -0.0410  0.2327
    1WF      WF63487   7.544  11.163   6.404 -0.0341  0.2050  0.2417
    1WF      WF63488   6.991  26.270   0.218  0.1009  0.0428  0.3049
    1WF      WF63489   8.835   3.105   9.480  0.3464 -0.1958 -0.0834
    1WF      WF63490  19.152  27.884   8.144  0.1664 -0.0669 -0.1857
    1WF      WF63491  19.004  17.392   1.714  0.1334 -0.1478 -0.1555
    1WF      WF63492   1.686  14.635   1.832  0.2739  0.0984  0.0265
    1WF      WF63493  23.435  28.505   9.064 -0.4234 -0.2026  0.1241
    1WF      WF63494  21.924  28.199   8.659  0.2542 -0.0824 -0.1332
    1WF      WF63495   5.155  15.523   8.998  0.0186 -0.2963 -0.1256
    1WF      WF63496   9.731   2.876   0.793  0.2697 -0.1717  0.1057
    1WF      WF63497  13.472  21.828   9.779 -0.4386 -0.0737 -0.4586
    1WF      WF63498  15.326  26.832   1.560  0.4366 -0.2360 -0.1143
    1WF      WF63499   1.956  14.437   8.625 -0.2059  0.0074 -0.1015
    1WF      WF63500  19.172   1.425   1.732 -0.0846  0.2307 -0.0010
    1WF      WF63501  24.955   2.342   2.003  0.0399  0.4516  0.4232
    1WF      WF63502  20.258   8.744   0.635  0.3545  0.2468 -0.1485
    1WF      WF63503  20.909  27.072   0.222  0.1092 -0.0965 -0.3442
    1WF      WF63504   6.004  21.837   2.325  0.0349  0.0149  0.1988
    1WF      WF63505  25.427  20.942   9.708  0.0199  0.1357  0.0444
    1WF      WF63506  24.902  24.197   2.103 -0.2372  0.2663  0.0972
    1WF      WF63507  14.024  12.158   9.153  0.0237  0.0340 -0.0322
    1WF      WF63508  21.974  23.791   8.428  0.0717 -0.0497  0.0453
    1WF      WF63509   5.225  22.157   0.795  0.0113 -0.0996 -0.1123
    1WF      WF63510  18.688  21.533   9.340  0.1853 -0.2624  0.0886
    1WF      WF63511  21.404   0.509   1.327  0.1450 -0.0706  0.0706
    1WF      WF63512  26.896  25.538   9.866  0.0077  0.0863 -0.3100
    1WF      WF63513   6.902  24.680   8.789 -0.2350 -0.2017 -0.0213
    1WF      WF63514  15.383  24.399   0.775 -0.0565  0.0493 -0.0411
    1WF      WF63515  16.545  23.389   0.822 -0.0368  0.0739  0.1468
    1WF      WF63516   4.070   2.199   4.513  0.1182  0.2711  0.0151
    1WF      WF63517  14.786  17.855   1.026  0.0165 -0.0949 -0.0869
    1WF      WF63518  27.158  28.821   8.308 -0.1228 -0.2610  0.0635
    1WF      WF63519   2.255  12.501   1.664 -0.2387  0.0326 -0.0639
    1WF      WF63520  19.523   1.874   7.648 -0.0228  0.0819 -0.0923
    1WF      WF63521  17.271   0.075   1.999  0.0362 -0.0743 -0.1428
    1WF      WF63522   5.556  19.913   8.680  0.0885  0.3322  0.0318
    1WF      WF63523   3.869  16.400   0.289 -0.0607  0.3603 -0.0297
    1WF      WF63524  11.182  14.584   9.141  0.1511  0.0626  0.2599
    1WF      WF63525  21.589   8.878   9.884  0.0882 -0.0469 -0.1135
    1WF      WF63526   1.448  16.909   6.911  0.1359 -0.1443 -0.2892
    1WF      WF63527  15.888   6.091   8.007 -0.2270  0.0993 -0.0731
    1WF      WF63528   5.575  17.496   9.579  0.1712 -0.1006  0.0926
    1WF      WF63529  28.524  21.640   8.593  0.2158  0.1800 -0.1616
    1WF      WF63530   8.025  12.724   7.559 -0.0104 -0.0039  0.0940
    1WF      WF63531   5.938  21.660   6.791  0.0467 -0.0517  0.0330
    1WF      WF63532  26.747  14.530   0.365  0.0616  0.2487  0.1987
    1WF      WF63533  13.111   5.788   0.064  0.1335 -0.1156  0.0090
    1WF      WF63534  20.611  23.096   2.658  0.0508 -0.2183  0.1198
    1WF      WF63535   2.364  10.049   2.215  0.1979 -0.3183 -0.3917
    1WF      WF63536   2.036  11.014   0.961 -0.2523  0.1444  0.0110
    1WF      WF63537   3.996  22.055   8.627  0.2393 -0.0293 -0.2709
    1WF      WF63538   3.586  14.465   8.524  0.0468  0.0120  0.0115
    1WF      WF63539  12.349   4.153   9.666 -0.1256 -0.0322 -0.3125
    1WF      WF63540  23.251  13.195   3.510  0.1966 -0.1068 -0.2152
    1WF      WF63541   2.943   3.787   3.070  0.0426 -0.0706 -0.4723
    1WF      WF63542   8.702   1.842   1.942 -0.0585  0.3871 -0.0229
    1WF      WF63543   4.094  14.670   9.645  0.0081 -0.2210 -0.5622
    1WF      WF63544  11.666   2.490   2.667  0.0338  0.0971 -0.2764
    1WF      WF63545  16.183  16.671   6.126 -0.0398 -0.1180 -0.1666
    1WF      WF63546   4.868   8.059   7.692  0.3408  0.2252 -0.0818
    1WF      WF63547   5.496  15.398   8.712 -0.0088 -0.1229 -0.0100
    1WF      WF63548   8.599  22.493   7.261  0.1786 -0.0248  0.1452
    1WF      WF63549   1.949   0.234   1.510  0.1083 -0.0361  0.1802
    1WF      WF63550  20.232   2.372   8.253  0.3555 -0.2001 -0.0638
    1WF      WF63551   1.326  15.595   9.141  0.2481  0.2773 -0.2107
    1WF      WF63552   9.744  15.685   1.567 -0.1091 -0.2415  0.0517
    1WF      WF63553  17.387   4.470   7.055  0.1060  0.0242  0.0943
    1WF      WF63554   6.464  19.021   9.244  0.3117 -0.2387  0.0539
    1WF      WF63555  19.605  19.357   1.949 -0.1048  0.0345  0.0003
    1WF      WF63556  21.357   2.132   9.717 -0.0271 -0.2432  0.2538
    1WF      WF63557  27.559  19.854   9.031 -0.0165 -0.0315  0.0932
    1WF      WF63558   6.317  18.148   1.806  0.0866 -0.0952  0.0042
    1WF      WF63559  28.414  18.110   2.899 -0.3869  0.2492  0.1068
    1WF      WF63560  24.561  26.182   0.609 -0.1823 -0.2796  0.0320
    1WF      WF63561  17.444   4.678   1.222 -0.0474 -0.1742 -0.1020
    1WF      WF63562   3.281   1.928   2.114  0.2058  0.1065  0.1234
    1WF      WF63563  28.836  18.308   2.584 -0.1247 -0.2599  0.0183
    1WF      WF63564  14.946   3.043   8.918  0.0414 -0.0274 -0.0184
    1WF      WF63565  16.386   4.199   8.804 -0.2414  0.0624 -0.1578
    1WF      WF63566   4.130  24.597   9.367  0.1005  0.0002 -0.0257
    1WF      WF63567  14.906  25.586   9.795 -0.1607  0.0202  0.3444
    1WF      WF63568  18.646  20.591   9.063 -0.3853  0.1008 -0.0076
    1WF      WF63569  13.649  13.871   6.059  0.1223 -0.0534 -0.0801
    1WF      WF63570  13.108   9.217   0.525 -0.1590 -0.1576  0.0315
    1WF      WF63571  14.427   0.725   1.444  0.0412 -0.1067  0.0907
    1WF      WF63572  21.464  13.258   9.827 -0.2756 -0.0781 -0.0867
    1WF      WF63573  19.467   5.411   8.266  0.1277 -0.1473  0.1456
    1WF      WF63574  22.290  27.908   8.490  0.0341 -0.3028 -0.1098
    1WF      WF63575  16.730  24.894   8.582  0.0947 -0.0795  0.0464
    1WF      WF63576   1.898  13.232   9.872 -0.0171  0.0406  0.3274
    1WF      WF63577  26.865  21.462   8.167 -0.0231  0.0311  0.4731
    1WF      WF63578  20.768   3.820   8.326 -0.2660  0.2121  0.1299
    1WF      WF63579  26.586  26.869   9.297  0.1668 -0.5136 -0.1460
    1WF      WF63580  20.090   9.219   9.387  0.1682 -0.1338 -0.1962
    1WF      WF63581   9.416   6.046   2.812 -0.4571  0.3760  0.1436
    1WF      WF63582  28.473   2.368   2.060  0.2439  0.1973 -0.1483
    1WF      WF63583   8.415  19.927   1.983  0.3175 -0.0912  0.1175
    1WF      WF63584  16.935  15.222   2.023 -0.0314 -0.2275  0.0195
    1WF      WF63585  18.772   7.975   0.290 -0.1409 -0.2771  0.0664
    1WF      WF63586   9.096  16.643   8.710  0.0963 -0.0349  0.0010
    1WF      WF63587  10.474  14.108   8.733  0.1040 -0.1715  0.1226
    1WF      WF63588   9.559  13.564   9.997  0.2080 -0.1634  0.3574
    1WF      WF63589  24.603   7.898   0.325 -0.0047 -0.1420 -0.2129
    1WF      WF63590  22.746  20.577   8.526 -0.0192  0.1104 -0.0725
    1WF      WF63591   9.053   4.185   1.130  0.1649 -0.1127 -0.0170
    1WF      WF63592   0.464  12.286   0.340  0.1342 -0.0615 -0.1892
    1WF      WF63593   6.204  16.516   7.616 -0.2776  0.0429  0.0846
    1WF      WF63594  12.058  21.800   9.849 -0.5568 -0.0840 -0.1066
    1WF      WF63595  18.750  21.645   6.893  0.0082 -0.4399 -0.0473
    1WF      WF63596  19.715  13.772   0.127  0.3125  0.0166  0.0066
    1WF      WF63597  27.454  20.126   0.176 -0.1623 -0.4501  0.2309
    1WF      WF63598  22.026  18.452   7.588 -0.1226 -0.0479 -0.0312
    1WF      WF63599   1.345   1.342   9.754  0.3038 -0.2959 -0.0919
    1WF      WF63600  25.727   7.816   4.073  0.0642 -0.1954  0.1274
    1WF      WF63601   1.144  15.243   9.478 -0.0190  0.0024  0.0591
    1WF      WF63602  27.136   5.411   9.376  0.0719 -0.1505 -0.0666
    1WF      WF63603   8.725   1.290   0.121 -0.0231  0.1113  0.0273
    1WF      WF63604  20.160  21.013   8.935  0.0439 -0.0615  0.2461
    1WF      WF63605   9.137   6.090   0.722  0.0874  0.1773  0.1029
    1WF      WF63606   6.629   6.387   9.532  0.0652  0.0567  0.1258
    1WF      WF63607  13.065   6.796   0.300  0.3585  0.2783  0.1025
    1WF      WF63608  15.038   0.971   1.342  0.0675 -0.0837  0.0628
    1WF      WF63609   8.798  28.086   0.480  0.2108  0.0582 -0.4191
    1WF      WF63610  28.470  14.115   8.031  0.2505  0.0460  0.0398
    1WF      WF63611  24.764   3.961   3.755  0.2850 -0.2725  0.1015
    1WF      WF63612  20.807  21.331   0.887 -0.2502 -0.0944 -0.0036
    1WF      WF63613  11.277  17.158   1.199 -0.4398  0.4209 -0.0376
    1WF      WF63614   6.131   0.516   0.248  0.2444 -0.0874 -0.1679
    1WF      WF63615   0.902   5.916   1.215 -0.0647 -0.3184  0.2985
    1WF      WF63616   1.698   5.265   7.900 -0.2572 -0.1150  0.1943
    1WF      WF63617  20.717   3.534   0.161  0.0397  0.0781  0.1812
    1WF      WF63618   2.591   9.778   1.406  0.0146  0.0014  0.1577
    1WF      WF63619  20.631  15.235   7.422 -0.2010 -0.1848  0.0468
    1WF      WF63620   7.325   7.722   2.881 -0.0615  0.1831  0.1407
    1WF      WF63621   2.694   5.632   0.285 -0.5626 -0.0583  0.1407
    1WF      WF63622   6.862  23.875   8.992 -0.1934  0.0547 -0.0555
    1WF      WF63623  15.760   7.523   0.374 -0.0794  0.1459  0.3481
    1WF      WF63624   0.395   4.924   7.874 -0.0538  0.0727 -0.0273
    1WF      WF63625  22.308  24.092   8.690 -0.1357 -0.1918 -0.3523
    1WF      WF63626  17.696  18.090  10.002 -0.0701  0.1512 -0.1608
    1WF      WF63627  16.957  16.827   0.994  0.2911 -0.3123 -0.2243
    1WF      WF63628   0.894   4.470   2.634 -0.0782  0.0581  0.0660
    1WF      WF63629  26.878  16.417   3.456  0.3821 -0.1587 -0.0470
    1WF      WF63630   7.466   6.856   1.366  0.1322  0.0915  0.2839
    1WF      WF63631  11.809   9.288   9.881  0.2176  0.2961 -0.0699
    1WF      WF63632  14.773   2.470   0.180 -0.0023 -0.0476 -0.0872
    1WF      WF63633  22.183   0.562   1.752  0.0326 -0.3156  0.0894
    1WF      WF63634   6.370   6.838   9.628 -0.1834  0.2131  0.5074
    1WF      WF63635   9.846  17.102   6.310 -0.1372 -0.0179  0.0605
    1WF      WF63636  20.994  25.097   0.006 -0.0580 -0.2567  0.0402
    1WF      WF63637  21.657   5.141   9.554  0.1612 -0.2177  0.1618
    1WF      WF63638  25.375  23.933   1.718  0.3589 -0.1951 -0.3681
    1WF      WF63639  23.038  27.996   0.155  0.0595 -0.5018  0.2281
    1WF      WF63640   2.841   4.871   3.008  0.0068  0.2805 -0.2931
    1WF      WF63641  24.017  19.981   1.007 -0.3715  0.1475  0.0407
    1WF      WF63642   6.577  18.281   8.339 -0.1505  0.1587  0.2327
    1WF      WF63643   6.845  16.934   1.795  0.1828 -0.0827 -0.0297
    1WF      WF63644  12.126   1.096   7.066  0.2319 -0.1076  0.2122
    1WF      WF63645  13.029  19.218   1.282 -0.1532 -0.1579  0.0081
    1WF      WF63646  27.207   0.933   0.606 -0.0541  0.0649 -0.0477
    1WF      WF63647  12.444  17.224   6.592 -0.1435  0.0323 -0.4334
    1WF      WF63648  19.783   2.898   2.510  0.1177  0.1915 -0.2820
    1WF      WF63649  15.989  25.712   2.086  0.1562  0.0341  0.1950
    1WF      WF63650  26.107  10.977   0.624 -0.3535 -0.1291 -0.1449
    1WF      WF63651  10.241  19.542   9.499  0.0499  0.0011  0.0292
    1WF      WF63652  16.833  12.387   9.263  0.0653 -0.1881  0.1197
    1WF      WF63653  17.307  28.461   9.092  0.0084  0.0280 -0.0522
    1WF      WF63654   6.618  16.784   8.849  0.0002  0.2280 -0.1640
    1WF      WF63655   1.351  22.320   7.460 -0.1035 -0.1327  0.1694
    1WF      WF63656  18.622   3.427   9.511 -0.0232 -0.3311 -0.0205
    1WF      WF63657  20.020  13.685   7.371 -0.1033 -0.1705 -0.2819
    1WF      WF63658   8.167  12.640   0.780 -0.1779 -0.1329  0.2452
    1WF      WF63659  26.769  10.277   2.139  0.0060 -0.1118  0.1603
    1WF      WF63660   9.585  11.717   2.004 -0.1052 -0.1848 -0.1723
    1WF      WF63661   1.711   9.379   0.192  0.1344 -0.0580  0.1381
    1WF      WF63662  10.469   1.861   8.895  0.3182  0.3207  0.0634
    1WF      WF63663   7.678  20.654   8.477  0.3262  0.2055 -0.1439
    1WF      WF63664  16.579   1.296   0.622 -0.3948 -0.0533  0.1368
    1WF      WF63665  13.943   0.740   8.363  0.1806 -0.0877  0.0527
    1WF      WF63666  22.251  25.889   8.008 -0.1821 -0.1290  0.0953
    1WF      WF63667   2.902   2.606   0.384 -0.0639 -0.0648 -0.1744
    1WF      WF63668  22.506  16.454   0.884 -0.0588 -0.1421 -0.1364
    1WF      WF63669   5.448  20.044   1.678 -0.2761  0.1101  0.2677
    1WF      WF63670  13.920  26.992   1.547  0.1588 -0.0118 -0.1316
    1WF      WF63671  22.581  19.151   2.091 -0.2061  0.0398  0.0502
    1WF      WF63672  17.868  10.255   5.613 -0.0619 -0.0541  0.0192
    1WF      WF63673   7.222  15.742   9.999 -0.1227  0.0800  0.0431
    1WF      WF63674  13.288   8.239   9.094  0.2574 -0.1660  0.0908
    1WF      WF63675  12.984  21.436   1.194 -0.3514 -0.4530  0.1417
    1WF      WF63676  14.943  22.440   1.638  0.0606 -0.0335  0.1998
    1WF      WF63677   7.991   7.020   1.326  0.1472 -0.1692  0.3047
    1WF      WF63678  24.843   0.806   0.118  0.1092  0.0729 -0.4046
    1WF      WF63679  23.870  17.066   9.464  0.1986  0.2127 -0.3323
    1WF      WF63680  18.102  21.896   9.980 -0.0567 -0.1121  0.2469
    1WF      WF63681   6.805  18.670   2.354 -0.1986 -0.1000  0.0505
    1WF      WF63682   5.972  10.640   1.567 -0.1688 -0.0587  0.5298
    1WF      WF63683   7.134  15.420   9.612  0.0336  0.0061 -0.1048
    1WF      WF63684   0.764   3.771   3.037 -0.0845 -0.1492 -0.1133
    1WF      WF63685   5.223  12.472   7.664  0.1088  0.1204 -0.4530
    1WF      WF63686  11.493  11.377   0.614 -0.0058  0.1524 -0.1330
    1WF      WF63687  26.931   7.692   0.425  0.0019 -0.0328  0.1061
    1WF      WF63688  17.565  25.993   0.572 -0.1019 -0.0057 -0.0611
    1WF      WF63689  23.828  24.135   9.378 -0.0705 -0.1629 -0.1269
    1WF      WF63690  18.981   7.525   5.809  0.0721 -0.1635 -0.0064
    1WF      WF63691  11.860  13.941   0.438  0.0425 -0.2427 -0.0250
    1WF      WF63692  10.989  19.627   8.541 -0.0793 -0.2937 -0.1991
    1WF      WF63693  26.487  25.707   0.008  0.0022  0.0235  0.3493
    1WF      WF63694   2.728  17.751   8.426 -0.1929 -0.3446  0.1592
    1WF      WF63695  22.734  20.155   2.712 -0.2105  0.0805  0.2531
    1WF      WF63696   5.334   4.157   8.491 -0.2732 -0.1758  0.1071
    1WF      WF63697   0.754  21.881   3.380 -0.0929 -0.1995  0.0613
    1WF      WF63698  21.671   9.655   7.023 -0.2322  0.0843 -0.0002
    1WF      WF63699  11.064  25.944   8.954  0.3359  0.1804  0.1533
    1WF      WF63700  15.001  23.874   9.351  0.0053 -0.0694 -0.0239
    1WF      WF63701  18.325  17.992   9.647 -0.0420 -0.0943 -0.0329
    1WF      WF63702  26.594  15.449   2.255  0.0524  0.0734 -0.3809
    1WF      WF63703  15.197  26.808   1.081 -0.0729 -0.2204 -0.2525
    1WF      WF63704   1.281  21.907   2.475 -0.0990  0.0982  0.0193
    1WF      WF63705  15.531  11.125   6.759 -0.1514 -0.0865 -0.0101
    1WF      WF63706   5.845  15.720   8.530 -0.1749  0.0849 -0.0143
    1WF      WF63707   6.233  10.570   9.644 -0.1135  0.2554 -0.0543
    1WF      WF63708  18.320   4.953   9.801  0.0756  0.2754 -0.2645
    1WF      WF63709   1.380   8.003   9.292 -0.1608 -0.1325 -0.0984
    1WF      WF63710  21.873  10.685   7.743  0.2084  0.0062  0.2128
    1WF      WF63711   1.812  12.666   1.948 -0.4381 -0.2388  0.2849
    1WF      WF63712   7.225   3.444   1.806 -0.2244  0.1742 -0.1031
    1WF      WF63713  17.463  22.613   9.419 -0.0952  0.2713 -0.0793
    1WF      WF63714   5.458   5.256   1.005 -0.2026  0.1865  0.0532
    1WF      WF63715   1.940  21.608   1.660  0.1152 -0.3200  0.1025
    1WF      WF63716   7.773  18.113   0.895  0.0066  0.1098  0.0412
    1WF      WF63717  24.419  24.009   1.982  0.1186  0.1830  0.0401
    1WF      WF63718   4.051  25.426   1.262 -0.3589 -0.0277  0.3752
    1WF      WF63719  22.636  19.690   1.543  0.2096 -0.0366  0.1865
    1WF      WF63720   7.531  27.654   9.393 -0.1334 -0.1341 -0.4640
    1WF      WF63721  17.473  17.877   6.101  0.2597  0.0784 -0.1402
    1WF      WF63722   9.616  11.169   8.599  0.0522  0.1332 -0.0392
    1WF      WF63723  15.822  12.689   8.873 -0.2227 -0.1157 -0.3173
    1WF      WF63724  12.604   0.486   8.686  0.1719  0.1987  0.1552
    1WF      WF63725   1.780   1.341   0.030  0.0256 -0.2249  0.2079
    1WF      WF63726   5.162   1.979   9.819 -0.1413 -0.2115 -0.2465
    1WF      WF63727  19.172   9.934   0.485  0.2260 -0.0196 -0.1300
    1WF      WF63728  28.736  16.225   9.374 -0.6587  0.0854 -0.0593
    1WF      WF63729   7.250  28.061   9.922  0.1272  0.2145 -0.0939
    1WF      WF63730  11.846  25.737   8.416 -0.0362 -0.1703  0.2020
    1WF      WF63731  12.479   3.996   8.663  0.0556 -0.4565  0.2544
    1WF      WF63732   4.319  11.585   1.562 -0.1287 -0.1021  0.0115
    1WF      WF63733   2.832  19.708   3.517  0.4144 -0.0795  0.1962
    1WF      WF63734   0.155  12.316   8.196 -0.0982 -0.0302  0.2044
    1WF      WF63735   5.790  26.200   3.455 -0.1775 -0.0627  0.0093
    1WF      WF63736  14.301   7.482   5.762 -0.1247  0.0140  0.0581
    1WF      WF63737  13.548  20.411   8.537  0.1166  0.0543  0.2151
    1WF      WF63738  10.021   4.045   3.413  0.5291  0.0219 -0.2108
    1WF      WF63739  23.313   2.078   7.785 -0.3957  0.0418  0.0607
    1WF      WF63740   9.512  10.781   0.188  0.1838 -0.0008  0.1648
    1WF      WF63741  15.583  21.436   9.346 -0.1287  0.0839  0.0313
    1WF      WF63742  25.234  10.066   8.305 -0.0810 -0.3624 -0.1183
    1WF      WF63743  16.723  16.541   0.640  0.3718  0.0021 -0.1466
    1WF      WF63744  14.055   1.043   7.946 -0.1328  0.1912  0.0305
    1WF      WF63745  14.340   2.666   0.021 -0.0771 -0.0412  0.0259
    1WF      WF63746  28.537  27.437   2.306  0.0903 -0.0482 -0.1428
    1WF      WF63747   2.896  27.781   4.381 -0.0230  0.0474  0.1023
    1WF      WF63748  16.503  11.137   8.999  0.0721 -0.3399 -0.0709
    1WF      WF63749  23.262   1.844   7.365 -0.2519 -0.1694 -0.0562
    1WF      WF63750  26.940  20.843   0.378 -0.0237  0.1267  0.3509
    1WF      WF63751  15.886  24.203   0.863  0.5569  0.2431 -0.0264
    1WF      WF63752  23.131   6.544   9.764 -0.0173 -0.0398 -0.2011
    1WF      WF63753   4.167   4.533   9.808  0.0351 -0.1983  0.0122
    1WF      WF63754  16.332  26.514   9.241 -0.4070 -0.0506 -0.0473
    1WF      WF63755  21.864  11.245   1.058 -0.6041  0.2154 -0.0404
    1WF      WF63756   6.638  11.020   9.383  0.1205  0.2993 -0.1767
    1WF      WF63757  13.218  27.858   1.689  0.1049 -0.1589 -0.0315
    1WF      WF63758  24.502   2.698   8.814  0.0158  0.1586  0.3541
    1WF      WF63759   3.398   9.880   0.415  0.1692  0.0150 -0.0067
    1WF      WF63760  20.744  10.393   0.929 -0.1260 -0.2519 -0.0367
    1WF      WF63761  27.128  13.117   1.566 -0.2202  0.2041 -0.0533
    1WF      WF63762  13.022   9.415   8.769 -0.0222 -0.3485  0.0024
    1WF      WF63763   3.300  12.494   8.431 -0.0313  0.1492  0.0546
    1WF      WF63764  10.545  27.925   2.135 -0.0542  0.2097  0.0943
    1WF      WF63765  27.706  19.963   2.877 -0.3121  0.0221 -0.0817
    1WF      WF63766  21.797  25.846   0.277 -0.1921  0.0038 -0.2308
    1WF      WF63767  21.103  13.618   6.883 -0.1630 -0.0675 -0.6687
    1WF      WF63768   7.968  25.359   0.188 -0.0429 -0.1506  0.1958
    1WF      WF63769  15.473  15.237   0.438  0.1839 -0.1879 -0.1674
    1WF      WF63770  14.727  28.417   9.316  0.1170 -0.1461 -0.5485
    1WF      WF63771  23.336  13.428   9.300 -0.1381 -0.1125 -0.1690
    1WF      WF63772  21.366  14.010   0.458  0.0187 -0.2222 -0.1021
    1WF      WF63773   6.913  11.623   0.434  0.0664 -0.4111 -0.0687
    1WF      WF63774  13.770   3.924   0.941  0.2479 -0.1598  0.1058
    1WF      WF63775  19.290   8.403   8.478 -0.1161  0.3387  0.3007
    1WF      WF63776  10.490   3.383   9.471  0.3609 -0.1416 -0.1733
    1WF      WF63777   6.481  13.297   0.974  0.2073 -0.0935  0.2160
    1WF      WF63778  10.651  17.025   7.447 -0.1725  0.0825  0.1334
    1WF      WF63779  19.154  11.834   0.506  0.0755 -0.3229 -0.0912
    1WF      WF63780  13.915  11.956   9.887 -0.3255 -0.0285 -0.0441
    1WF      WF63781   4.147  16.193   1.791  0.0933 -0.1046 -0.2239
    1WF      WF63782  24.906  11.832   1.002  0.3412  0.1099  0.0260
    1WF      WF63783   9.917  11.009   2.046  0.0031  0.0076  0.1035
    1WF      WF63784  18.212  24.429   7.780  0.2463 -0.4456  0.0479
    1WF      WF63785   5.660  17.924   9.333  0.1165  0.0582  0.0944
    1WF      WF63786  15.709  21.200   1.180  0.1914  0.1079  0.1115
    1WF      WF63787  24.894  17.811   0.269 -0.0972 -0.4876 -0.1114
    1WF      WF63788  23.984  26.818   8.448  0.1141 -0.2621 -0.4024
    1WF      WF63789  24.149  16.418   1.361  0.0887 -0.0212 -0.0299
    1WF      WF63790  23.320  11.583   9.695 -0.0176 -0.1205  0.0254
    1WF      WF63791   9.143   6.505   0.367  0.0445  0.4066  0.0589
    1WF      WF63792  14.770  28.834   6.193 -0.4061  0.0682  0.0493
    1WF      WF63793  10.941   3.066   8.748 -0.1156  0.0860 -0.0336
    1WF      WF63794  28.036   9.180   9.737 -0.1603 -0.2407  0.2044
    1WF      WF63795  16.149  21.439   0.891 -0.1460 -0.3898  0.1632
    1WF      WF63796  19.257  13.457   8.555 -0.2481  0.0060  0.0782
    1WF      WF63797  28.809  27.823   9.630 -0.1145 -0.1695  0.0927
    1WF      WF63798  27.333  16.368   9.314  0.0197 -0.1824  0.2840
    1WF      WF63799  14.573  15.149   7.691  0.2660  0.0317 -0.1214
    1WF      WF63800  16.983  20.923   9.215  0.2144  0.3039  0.1321
    1WF      WF63801   9.141  28.503   0.312 -0.0522 -0.1033  0.0534
    1WF      WF63802  27.991  13.466   9.238  0.1937  0.0531  0.0296
    1WF      WF63803   5.292   9.814   0.576  0.0382  0.0306 -0.0581
    1WF      WF63804   2.290  25.768   9.126 -0.1055 -0.3661  0.0260
    1WF      WF63805   5.235  25.197   2.585  0.0858  0.2271  0.0895
    1WF      WF63806  26.342   9.301   1.875 -0.0156 -0.2474  0.0840
    1WF      WF63807  26.611  13.239   1.426 -0.3244 -0.1147 -0.1137
    1WF      WF63808  28.501   6.271   2.303 -0.0218 -0.2693  0.1192
    1WF      WF63809  10.373   5.258   1.324 -0.0697 -0.1339  0.0208
    1WF      WF63810   0.348  26.696   3.489  0.0068  0.1231  0.0008
    1WF      WF63811   2.868  12.251   8.516 -0.1500 -0.1784  0.0080
    1WF      WF63812   3.184  14.650   9.290 -0.1421 -0.3493 -0.1496
    1WF      WF63813  25.176  25.299   0.929 -0.0811  0.1095 -0.1454
    1WF      WF63814  22.300  17.111   0.726  0.2317 -0.1078  0.0191
    1WF      WF63815  21.490  15.564   1.435 -0.3941 -0.1117  0.1490
    1WF      WF63816  21.443  28.156   8.601  0.0774 -0.1176 -0.2702
    1WF      WF63817  26.857   0.781   3.165 -0.0206 -0.0817 -0.0566
    1WF      WF63818  14.972  11.499   9.985  0.0891  0.1080 -0.0435
    1WF      WF63819  22.991  23.494   0.073  0.2607  0.0160  0.1466
    1WF      WF63820  15.818  25.413   9.219  0.0405 -0.2676  0.1518
    1WF      WF63821  10.595   9.886   9.617 -0.1852  0.2633 -0.0459
    1WF      WF63822  27.250  26.198   1.802 -0.0169  0.2479  0.3259
    1WF      WF63823  23.980  15.336   7.279  0.2217 -0.0023  0.0743
    1WF      WF63824  14.532  13.201   8.715  0.2532 -0.0412  0.2250
    1WF      WF63825  26.526  25.991   0.656  0.0088 -0.0724  0.1181
    1WF      WF63826  26.670   4.920   3.967  0.0538 -0.1965  0.4095
    1WF      WF63827  15.400   0.567   7.593 -0.0181  0.0728 -0.1962
    1WF      WF63828   2.993  22.615   9.319 -0.2218 -0.0221  0.0385
    1WF      WF63829  21.204   1.812   0.077  0.1018 -0.0682  0.1736
    1WF      WF63830  18.080  14.436   8.169  0.2918  0.2067  0.1919
    1WF      WF63831   3.977  20.163   9.558  0.1045  0.2596  0.2479
    1WF      WF63832  11.908   0.135   9.181  0.1028 -0.1814 -0.2561
    1WF      WF63833  17.044  16.794   0.252 -0.1885 -0.0399 -0.2217
    1WF      WF63834   6.190  20.910   7.942 -0.0072 -0.0864  0.0226
    1WF      WF63835  12.364   3.958   8.164  0.2549  0.2120 -0.2148
    1WF      WF63836   3.430  12.519   0.067 -0.0214  0.0211  0.1603
    1WF      WF63837   8.400  17.258   7.581 -0.2837  0.0045  0.4413
    1WF      WF63838  26.181  11.312   8.343 -0.3342  0.1640 -0.0031
    1WF      WF63839  20.766  21.999   1.589 -0.2345 -0.1393 -0.1566
    1WF      WF63840  15.819   7.038   0.248  0.1733  0.0110  0.2683
    1WF      WF63841  28.169  23.017   2.891 -0.1254  0.3150  0.0413
    1WF      WF63842  22.251   4.375   0.515  0.3795  0.0535 -0.1615
    1WF      WF63843   5.317  10.962   8.448  0.3327 -0.1331  0.1455
    1WF      WF63844   2.184  26.528   7.462 -0.2018 -0.1900  0.0507
    1WF      WF63845  27.977  22.972   0.087 -0.0090  0.3583  0.4068
    1WF      WF63846  11.378  13.951   7.111 -0.1602  0.2995 -0.1702
    1WF      WF63847  23.973  18.592   1.561 -0.0067  0.1488 -0.0718
    1WF      WF63848  21.558  13.462   6.829  0.2007 -0.0908 -0.0111
    1WF      WF63849   4.054  16.706   1.936 -0.0298 -0.1016  0.0510
    1WF      WF63850  23.242   1.643   0.047 -0.1424 -0.2241 -0.0907
    1WF      WF63851  26.134  24.074   1.340  0.2424 -0.2539 -0.1853
    1WF      WF63852  13.191  28.163   1.299 -0.0505  0.3705 -0.1754
    1WF      WF63853  19.814  12.313   8.444  0.1778  0.0067  0.1015
    1WF      WF63854   5.579   0.154   0.309  0.1181 -0.1457 -0.0638
    1WF      WF63855  23.872  19.927   0.534  0.1003  0.0133 -0.1578
    1WF      WF63856  18.863   6.363   7.841 -0.3005 -0.1876 -0.4039
    1WF      WF63857  28.548  10.243   1.651 -0.1235  0.0336 -0.2172
    1WF      WF63858   2.689   1.709   9.267  0.1040  0.0047 -0.1491
    1WF      WF63859  25.177  20.767   9.302 -0.2191 -0.0397 -0.1782
    1WF      WF63860   0.122   2.103   9.159  0.1397 -0.0660 -0.0140
    1WF      WF63861   7.526   8.614   9.544 -0.0155 -0.0290  0.0960
    1WF      WF63862  19.419   6.100   7.686 -0.2718 -0.1052  0.0429
    1WF      WF63863  24.805   1.901   1.870  0.2602  0.1079 -0.2083
    1WF      WF63864  11.357   9.165   9.730  0.2815  0.0944 -0.1988
    1WF      WF63865  23.411  25.673   1.560 -0.3267  0.2937 -0.3535
    1WF      WF63866  21.041  18.422   8.335 -0.2219  0.1713  0.3049
    1WF      WF63867   5.268  11.467   8.738 -0.0598  0.2148  0.1395
    1WF      WF63868  19.056   0.983   2.073  0.0721  0.0441  0.1371
    1WF      WF63869  28.204  17.933   2.116  0.1899 -0.0867  0.1533
    1WF      WF63870  24.471  10.936   1.106 -0.0478 -0.0176 -0.0086
    1WF      WF63871  20.575   3.393   8.515  0.4665 -0.0638  0.3438
    1WF      WF63872   1.147  19.364   1.664  0.2224 -0.2351 -0.1907
    1WF      WF63873   4.986  22.118   2.413  0.0559  0.1692  0.0097
    1WF      WF63874  22.657  27.106   9.387  0.0846 -0.0360  0.1948
    1WF      WF63875   3.509  27.397   9.524 -0.1798 -0.0237 -0.0267
    1WF      WF63876   3.955  19.854   9.992  0.0601 -0.1264  0.0827
    1WF      WF63877  15.498   8.837   7.148  0.3427 -0.3070 -0.0026
    1WF      WF63878   7.883   0.251   1.939  0.0758  0.1520  0.0424
    1WF      WF63879   2.344   8.833   1.164 -0.2335 -0.1745 -0.1011
    1WF      WF63880  14.418  28.422   2.175  0.0388  0.1540  0.0326
    1WF      WF63881  14.677  26.966   0.817 -0.0063  0.0589  0.1934
    1WF      WF63882  26.503  18.601   9.389 -0.0732 -0.1186 -0.0683
    1WF      WF63883   5.859  26.911   8.055  0.1961  0.0108  0.1944
    1WF      WF63884  13.908  26.442   9.777  0.1390  0.0059  0.0024
    1WF      WF63885   5.664   5.948   8.592  0.1594 -0.1289 -0.0562
    1WF      WF63886  24.724  10.023   7.373  0.0583  0.3694 -0.0383
    1WF      WF63887  22.047   7.163   8.933  0.0937  0.0538  0.4195
    1WF      WF63888  25.756  19.659   8.547 -0.2652  0.1107  0.2402
    1WF      WF63889  23.003  19.917   2.340  0.2904  0.0699 -0.0299
    1WF      WF63890   5.242   1.903   0.459  0.0685 -0.0927  0.2694
    1WF      WF63891  12.674   2.092   0.717 -0.0865 -0.2535  0.1030
    1WF      WF63892  24.823  22.058   6.970 -0.3551 -0.2113 -0.1750
    1WF      WF63893  12.690   6.627   0.026 -0.0324  0.0077 -0.3863
    1WF      WF63894   7.685   3.380   7.402  0.1238 -0.1557 -0.1307
    1WF      WF63895  19.511  13.300   0.153  0.1305 -0.2159 -0.0336
    1WF      WF63896  20.584  21.064   0.459 -0.3836 -0.0644 -0.1911
    1WF      WF63897  12.375   3.674   9.479  0.0058 -0.0977 -0.4069
    1WF      WF63898  21.346   9.018   8.209  0.1080 -0.0414 -0.0929
    1WF      WF63899  26.080  23.018   1.605  0.1318 -0.1913 -0.1712
    1WF      WF63900  20.804   1.053   0.606 -0.1133 -0.0053  0.1068
    1WF      WF63901  24.389  12.413   7.908 -0.2886 -0.0501 -0.1325
    1WF      WF63902  26.298  24.296   7.390 -0.2463  0.1697  0.5351
    1WF      WF63903   7.745   0.103   9.514  0.0186 -0.0918 -0.1869
    1WF      WF63904  24.576  21.149   3.524 -0.2378  0.1671 -0.1029
    1WF      WF63905  21.789  21.436   9.247  0.0030  0.1921 -0.0035
    1WF      WF63906   4.855   3.490   0.688  0.1164 -0.0500 -0.1495
    1WF      WF63907  10.585  28.433   2.203 -0.0532  0.0096  0.1491
    1WF      WF63908  15.609  20.562   1.841  0.1880  0.0800  0.0914
    1WF      WF63909   3.239  21.726   2.164  0.1488 -0.0595  0.0926
    1WF      WF63910  19.818  23.578   0.747 -0.3014  0.0875  0.0675
    1WF      WF63911  19.118   7.569   0.899 -0.3360  0.0852  0.0088
    1WF      WF63912   1.356  25.305   2.699 -0.0291 -0.0465  0.0965
    1WF      WF63913  12.298   7.068   2.135 -0.2292 -0.0546  0.3096
    1WF      WF63914  14.223  18.041   0.262 -0.0166  0.8275  0.1867
    1WF      WF63915   6.445   7.433   8.118 -0.1215  0.1169 -0.1075
    1WF      WF63916  20.460   2.120   9.911  0.0235 -0.1149  0.3965
    1WF      WF63917  10.755  24.763   8.533  0.2856 -0.3165 -0.1617
    1WF      WF63918  26.691  28.031   1.437  0.1938 -0.0123  0.0462
    1WF      WF63919  21.883  15.776   1.216 -0.1375  0.0793  0.0181
    1WF      WF63920  19.687  23.599   8.088  0.0223  0.0975 -0.1505
    1WF      WF63921   9.915  16.152   1.514 -0.1781 -0.1728  0.1649
    1WF      WF63922   7.050  26.577   2.880  0.2092 -0.2383  0.1183
    1WF      WF63923  19.120  24.495   9.371 -0.2335 -0.0770 -0.0844
    1WF      WF63924   3.682   4.616   7.353  0.0921 -0.0890 -0.0677
    1WF      WF63925  22.701   6.993   8.280  0.4847 -0.2033 -0.0279
    1WF      WF63926   8.562  19.512   0.641 -0.4025  0.0580 -0.7104
    1WF      WF63927  21.786   0.965   8.867  0.0826 -0.5326 -0.1195
    1WF      WF63928   9.474   1.312   8.966  0.2175 -0.1788  0.1180
    1WF      WF63929  25.723  23.090   9.813  0.4152 -0.1690  0.0635
    1WF      WF63930   6.355  25.355   2.528 -0.0860  0.0404 -0.1234
    1WF      WF63931   2.204  20.422   8.471  0.1204  0.1274  0.1536
    1WF      WF63932  17.104   1.332   0.525  0.1874 -0.0131 -0.1362
    1WF      WF63933   1.551   6.805   0.928  0.1743  0.2008  0.0144
    1WF      WF63934  13.185  23.186   3.158  0.1028 -0.1415  0.1348
    1WF      WF63935   2.255  20.433   7.980  0.0968  0.2734 -0.2802
    1WF      WF63936  27.457  12.343   7.625 -0.3246  0.1701  0.2523
    1WF      WF63937  23.957  23.020   8.741 -0.0453 -0.1605  0.0935
    1WF      WF63938  17.488  23.196   7.057 -0.1500  0.1279  0.0402
    1WF      WF63939  26.577  12.104   9.637  0.1720  0.1749 -0.2656
    1WF      WF63940  15.597   2.248   1.020 -0.3222 -0.0002 -0.0733
    1WF      WF63941  23.151  11.241   1.861  0.0958  0.1882 -0.0869
    1WF      WF63942  11.257   0.626   7.403 -0.0423  0.3295 -0.2565
    1WF      WF63943  22.334  21.070   0.260  0.0987  0.0396 -0.0005
    1WF      WF63944  11.145   9.252   9.166  0.3280  0.1993 -0.0401
    1WF      WF63945  24.175  21.090   1.979  0.3308  0.0897  0.4530
    1WF      WF63946   2.697  27.120   9.350 -0.4591 -0.3078 -0.0943
    1WF      WF63947   3.249  11.879   8.678 -0.0980 -0.0200  0.0703
    1WF      WF63948   5.551   7.320   1.325  0.0192 -0.1811 -0.0909
    1WF      WF63949   0.733   7.708   9.939  0.0778 -0.0266  0.1565
    1WF      WF63950  14.665  24.810   8.750 -0.0365 -0.1408  0.0296
    1WF      WF63951   0.254  12.498   7.763  0.0752  0.3659 -0.1395
    1WF      WF63952  16.235   0.251   8.315 -0.4215 -0.2307  0.0030
    1WF      WF63953  10.330   0.138   0.680 -0.0244  0.0159  0.2056
    1WF      WF63954   1.295  21.239   9.194  0.1021 -0.2773  0.0623
    1WF      WF63955   9.878  28.865   8.475 -0.1783  0.0453  0.0366
    1WF      WF63956   5.615  15.534   1.048 -0.1374  0.0015  0.1079
    1WF      WF63957  26.199   0.146   1.906  0.1253 -0.1600  0.1040
    1WF      WF63958  25.575   0.939   1.671  0.1651  0.2788 -0.2616
    1WF      WF63959   7.112  27.003   2.542  0.1825  0.0514 -0.1268
    1WF      WF63960  14.288   0.773   0.957 -0.1309  0.2148 -0.1097
    1WF      WF63961  23.450  22.248   0.723 -0.0814 -0.0482 -0.0357
    1WF      WF63962  16.358   9.628   6.975 -0.0938  0.1131 -0.3007
    1WF      WF63963  19.455   7.118   1.967  0.1183 -0.1632 -0.2304
    1WF      WF63964  22.567   9.367   0.960  0.0740 -0.1798  0.1456
    1WF      WF63965  15.896  22.601   1.410 -0.0537 -0.0636  0.1490
    1WF      WF63966  27.591  23.959   8.168 -0.0217  0.1283  0.0443
    1WF      WF63967  24.175   4.591   2.382  0.0524  0.0078  0.4375
    1WF      WF63968   4.686   3.175   2.628 -0.0383  0.6390 -0.0985
    1WF      WF63969  27.136  13.641   3.056 -0.1714 -0.1844 -0.0312
    1WF      WF63970  18.537  25.770   0.309  0.3901 -0.1240  0.0624
    1WF      WF63971  25.800   4.368   1.241 -0.1015 -0.4447 -0.1726
    1WF      WF63972  11.788   7.025   2.159 -0.1239  0.2719 -0.2224
    1WF      WF63973   3.194  10.584   7.715 -0.1720 -0.1557  0.0539
    1WF      WF63974   0.653  18.702   7.411 -0.3742 -0.1068  0.2558
    1WF      WF63975   8.704  19.411   1.636 -0.1351 -0.4329 -0.2296
    1WF      WF63976  14.964   3.129   8.108 -0.2339 -0.1817  0.0065
    1WF      WF63977  26.275   3.921   2.334  0.1823  0.0937  0.0055
    1WF      WF63978  23.444  28.334   0.876 -0.1741 -0.3428  0.1825
    1WF      WF63979   2.183  20.872   8.244 -0.2320 -0.0203 -0.2016
    1WF      WF63980   3.885  19.363   8.604 -0.1048 -0.3831 -0.2844
    1WF      WF63981   7.904   0.606   2.304  0.0660 -0.4127  0.0685
    1WF      WF63982  10.328   7.825   3.059 -0.1845  0.1143 -0.0938
    1WF      WF63983   4.387   6.068   9.628  0.1873 -0.1850 -0.3119
    1WF      WF63984  17.047  16.383   8.607 -0.2156 -0.1154 -0.0169
    1WF      WF63985   6.446   1.615   1.595  0.4551  0.0555 -0.0941
    1WF      WF63986   6.998  15.066   9.043 -0.2437 -0.2990 -0.3330
    1WF      WF63987   9.128  23.639   7.036 -0.0163 -0.2556 -0.2150
    1WF      WF63988  11.089  28.661   8.992 -0.2482 -0.0385 -0.1130
    1WF      WF63989  16.965  19.444   8.604  0.2314 -0.2571 -0.0859
    1WF      WF63990  14.801  25.284   7.774  0.1514  0.0123 -0.1168
    1WF      WF63991  25.424  24.109   9.763  0.0514 -0.1033 -0.2492
    1WF      WF63992  12.751   5.277   0.058  0.3884  0.0170 -0.1509
    1WF      WF63993  13.796  21.459   2.805  0.0945  0.2792  0.0844
    1WF      WF63994  19.832  23.068   0.716  0.1360 -0.0782  0.3595
    1WF      WF63995   5.761  28.579   0.058 -0.0965  0.0118 -0.1670
    1WF      WF63996  16.514  26.927   9.407 -0.1376  0.2581 -0.0410
    1WF      WF63997  25.481  20.562   0.798  0.0214  0.2853  0.1093
    1WF      WF63998  14.499   6.158   0.580  0.3300  0.1800 -0.0453
    1WF      WF63999  14.813   5.073   9.206 -0.2007  0.1815  0.2247
    1WF      WF64000   9.070  20.568   7.605 -0.1555 -0.0572 -0.1423
    1WF      WF64001  18.910  24.493   7.713 -0.2723 -0.1641 -0.0702
    1WF      WF64002  24.167  16.538   9.612 -0.0106 -0.2982  0.0777
    1WF      WF64003   6.403  14.329   8.832 -0.3294  0.4610  0.2688
    1WF      WF64004  28.853  24.401   8.252  0.0052 -0.0880 -0.0487
    1WF      WF64005   8.068  20.626   7.130  0.1133 -0.0564  0.1852
    1WF      WF64006  10.804  11.550   9.125  0.0994 -0.1714  0.3911
    1WF      WF64007   0.403  10.800   0.150 -0.0491  0.0546  0.3773
    1WF      WF64008   8.712  24.797   2.397  0.0522  0.1010 -0.0049
    1WF      WF64009  26.076   3.312   9.780 -0.2215 -0.1138 -0.1203
    1WF      WF64010  17.001  17.835   0.204 -0.3480  0.0154 -0.1412
    1WF      WF64011  16.430  24.186   3.172 -0.1602 -0.1939 -0.2340
    1WF      WF64012  19.220  11.970   8.630  0.0976  0.2692  0.1754
    1WF      WF64013  22.094   3.414   1.344 -0.0065 -0.1326 -0.0238
    1WF      WF64014  26.712  19.074   0.428 -0.1473 -0.1247  0.1792
    1WF      WF64015  22.645   9.707   1.310  0.0664  0.0634 -0.0747
    1WF      WF64016  16.240  23.907   0.901 -0.3036 -0.0402  0.2692
    1WF      WF64017   6.442   0.840   9.311 -0.1834  0.0998 -0.1389
    1WF      WF64018  10.405  20.701   0.735 -0.2136 -0.0407 -0.0337
    1WF      WF64019   1.606  23.200   9.555 -0.1983 -0.1311  0.1876
    1WF      WF64020  27.448   3.107   0.249  0.1872 -0.1504 -0.0676
    1WF      WF64021   9.008  17.268   9.822 -0.0138  0.0308 -0.2275
    1WF      WF64022  17.164   4.561   7.462 -0.1027 -0.4945 -0.1503
    1WF      WF64023  21.223  24.393   0.886 -0.2566  0.0546 -0.3030
    1WF      WF64024   2.225   7.542   0.940 -0.2899  0.0489 -0.0707
    1WF      WF64025  23.796   4.019   0.474 -0.0956  0.1532 -0.0857
    1WF      WF64026   3.361   7.122   8.658  0.3175 -0.1601  0.1908
    1WF      WF64027  21.313  23.084   9.226 -0.1523  0.3836  0.0737
    1WF      WF64028  28.351   7.057   0.533 -0.2072 -0.0987  0.1496
    1WF      WF64029   8.358  25.013   2.055  0.0261 -0.2673  0.2545
    1WF      WF64030  14.550  18.419   0.117 -0.1431 -0.0627  0.1172
    1WF      WF64031   6.950  21.703   2.122 -0.0292  0.0466  0.1725
    1WF      WF64032  18.339  12.138   0.464 -0.2236  0.0254 -0.2340
    1WF      WF64033  20.844   4.189   1.867  0.2533  0.1984 -0.0859
    1WF      WF64034  22.535   7.735   9.623 -0.0847  0.2554  0.1694
    1WF      WF64035  28.840  27.724   1.828 -0.2081 -0.4142  0.0653
    1WF      WF64036  24.468  15.993   1.125  0.2460  0.0227 -0.0200
    1WF      WF64037   7.857   9.356   7.591  0.1137 -0.1423  0.1097
    1WF      WF64038   6.129  16.855   1.344  0.0304 -0.0094 -0.1052
    1WF      WF64039  21.352   9.159   0.238  0.3775 -0.0289 -0.2046
    1WF      WF64040  18.929  21.974   6.586 -0.0885  0.1031 -0.2640
    1WF      WF64041  16.081  23.528   0.582  0.1484  0.2464  0.0059
    1WF      WF64042   3.605  26.384   7.508  0.0490  0.0179  0.1711
    1WF      WF64043   4.506  27.357   1.058  0.2310 -0.2142 -0.0371
    1WF      WF64044   0.299  25.565   9.420 -0.1184  0.1438  0.1122
    1WF      WF64045   0.898   8.055   2.768  0.0719  0.0828  0.1666
    1WF      WF64046   2.178  16.571   0.760 -0.0120  0.1858  0.2552
    1WF      WF64047  21.273  22.876   9.684 -0.1961 -0.0070  0.1994
    1WF      WF64048   1.567  12.340   9.825  0.1962 -0.1030 -0.0882
    1WF      WF64049  24.816  10.006   0.241  0.0212  0.0778 -0.1832
    1WF      WF64050  26.950  27.715   2.361 -0.1619 -0.1146  0.0505
    1WF      WF64051  10.608  12.628   7.265  0.2972  0.1767 -0.1125
    1WF      WF64052  26.404   9.346   9.103  0.4035  0.2886  0.1067
    1WF      WF64053   9.441   5.597   6.702  0.0999 -0.1340  0.0689
    1WF      WF64054  15.154  24.729   8.394  0.1825  0.0502 -0.3501
    1WF      WF64055  16.137  28.438   6.296  0.0606 -0.0539 -0.1911
    1WF      WF64056   4.053  19.442   9.066 -0.1345  0.1559 -0.0524
    1WF      WF64057   2.195  28.144   0.516  0.1950  0.1011 -0.2542
    1WF      WF64058   4.220  26.903   9.727 -0.0058  0.2255 -0.2813
    1WF      WF64059  15.270  20.582   7.107 -0.2465 -0.1543 -0.3225
    1WF      WF64060  28.116  17.610   2.887 -0.0517  0.1179  0.1087
    1WF      WF64061  15.989  27.408   0.406  0.0126  0.2243  0.3381
    1WF      WF64062   2.499  20.194   1.931  0.0927 -0.0367 -0.0753
    1WF      WF64063   4.503   7.662   0.239 -0.1299  0.0796 -0.2231
    1WF      WF64064  28.157   4.754   9.939 -0.2526  0.2853 -0.0622
    1WF      WF64065  22.369   1.150   8.287 -0.1540  0.0187 -0.1492
    1WF      WF64066  24.506  10.131   7.809  0.0059 -0.0650 -0.1783
    1WF      WF64067   8.513  16.651   1.192 -0.0261  0.0961 -0.3625
    1WF      WF64068  16.664  14.838   7.491  0.0511 -0.0818  0.0809
    1WF      WF64069  24.444   7.116   8.974 -0.2118 -0.0527 -0.0907
    1WF      WF64070  28.155   2.729   0.612  0.1579 -0.0162 -0.0060
    1WF      WF64071   9.818  22.796   2.418 -0.4545 -0.1987 -0.0338
    1WF      WF64072   6.676   0.605   1.786  0.3877  0.1618  0.1730
    1WF      WF64073   8.355  21.469   8.755  0.2980  0.2601  0.0390
    1WF      WF64074  22.916   1.846   0.531 -0.1186 -0.0701  0.1092
    1WF      WF64075  16.409  28.492   0.232 -0.2039 -0.1065 -0.0464
    1WF      WF64076  10.137  28.565   0.487 -0.3424  0.0386 -0.0284
    1WF      WF64077  15.667  12.076   9.328  0.4728 -0.0140 -0.0295
    1WF      WF64078  22.185  27.414   8.433  0.2122 -0.0641  0.0523
    1WF      WF64079   8.206  28.830   9.402 -0.4424  0.2576  0.2721
    1WF      WF64080   2.067  11.004   0.496  0.0477 -0.1947  0.0682
    1WF      WF64081  27.683  17.918   2.097  0.2749  0.0514  0.0223
    1WF      WF64082  20.397  28.037   6.419 -0.1386  0.1513  0.2787
    1WF      WF64083   4.484  13.820   0.869  0.0582 -0.0429 -0.1315
    1WF      WF64084   9.842  22.298   2.550 -0.0569 -0.0212  0.2625
    1WF      WF64085  13.076   9.497   0.908  0.0346 -0.1765  0.1100
    1WF      WF64086   4.674   1.133   1.460 -0.3796 -0.1545  0.1950
    1WF      WF64087   0.529   5.320   1.393  0.0491 -0.1368 -0.3019
    1WF      WF64088  25.953   1.037   9.266  0.2576 -0.1972 -0.1972
    1WF      WF64089  27.098   3.519   2.133 -0.1928 -0.1796  0.3786
    1WF      WF64090   9.917  17.825   1.150  0.2949 -0.0008  0.2075
    1WF      WF64091  19.173  23.085   8.671 -0.0751 -0.0570  0.0450
    1WF      WF64092  13.168  11.166   7.437  0.2399 -0.0526 -0.4237
    1WF      WF64093  11.754  13.743   8.013 -0.1982 -0.1521  0.3281
    1WF      WF64094  13.442  13.680   8.810 -0.0165 -0.0317 -0.0004
    1WF      WF64095   7.150   2.145   8.161  0.4388  0.0274 -0.1273
    1WF      WF64096  12.165  13.774   1.655 -0.1446  0.0889 -0.3321
    1WF      WF64097  17.935   7.434   1.986 -0.4595 -0.1244 -0.1536
    1WF      WF64098   6.675  24.167   8.477  0.0312  0.0228 -0.1505
    1WF      WF64099  26.875   9.685   6.566  0.0504  0.0048 -0.0204
    1WF      WF64100  24.336   7.817   0.775  0.0812  0.3298 -0.0728
    1WF      WF64101  22.438   1.071   1.713  0.2454 -0.4177 -0.1491
    1WF      WF64102  24.983   8.132   1.762  0.0097  0.0470 -0.0965
    1WF      WF64103  11.300  19.225   8.548 -0.2891  0.2007  0.1337
    1WF      WF64104   4.124  12.875   8.387  0.0389  0.0931  0.2648
    1WF      WF64105  24.145   5.873   0.367 -0.3290  0.2302  0.0968
    1WF      WF64106  19.085  22.642   8.874 -0.0442  0.1422  0.0126
    1WF      WF64107   1.836  28.680   8.425  0.0432 -0.2190  0.1025
    1WF      WF64108  24.656  13.499   2.329 -0.1837  0.1173  0.2217
    1WF      WF64109  28.339  14.664   9.836 -0.1476  0.1034  0.0690
    1WF      WF64110  13.085  13.080   5.774 -0.0085 -0.0659 -0.3013
    1WF      WF64111   6.630  17.505   9.943 -0.0547 -0.2843 -0.0721
    1WF      WF64112  12.764  12.856   7.744  0.3588 -0.2841  0.0430
    1WF      WF64113  28.669  20.182   8.356 -0.5858  0.0320  0.0869
    1WF      WF64114  12.327   9.371   5.478  0.2293  0.1097  0.0872
    1WF      WF64115  14.188  18.803   8.846  0.2663  0.1770  0.1428
    1WF      WF64116   9.084  20.475   7.111 -0.1712 -0.2777  0.0112
    1WF      WF64117  17.263   6.677   8.439  0.2337 -0.0272  0.0050
    1WF      WF64118  18.911  13.112   8.208 -0.1669 -0.1520 -0.2016
    1WF      WF64119  17.150   3.651   1.845  0.1054  0.2024  0.2040
    1WF      WF64120  16.008  14.641   2.648 -0.0150 -0.2156  0.0896
    1WF      WF64121  11.641  14.293   9.079  0.1073 -0.2734 -0.4389
    1WF      WF64122  20.485   4.269   8.260  0.0697 -0.2494  0.1704
    1WF      WF64123  26.737  28.539   3.839 -0.0816 -0.1501 -0.2737
    1WF      WF64124   8.568   6.025   8.756  0.0437  0.0253 -0.0638
    1WF      WF64125  19.604  22.849   8.767  0.2432  0.2425  0.0001
    1WF      WF64126   2.659  19.154   0.844 -0.2106 -0.2407  0.2116
    1WF      WF64127  27.011  28.357   1.096  0.1343  0.1902 -0.2276
    1WF      WF64128   1.676  15.214   9.203  0.3848 -0.0816 -0.3901
    1WF      WF64129  21.861  27.503   1.920  0.3350 -0.0625  0.3846
    1WF      WF64130  15.920   8.584   7.329 -0.0792  0.0152 -0.0342
    1WF      WF64131  12.842  27.458   8.276  0.0096 -0.0081  0.3385
    1WF      WF64132   9.182  17.074   8.982  0.1822 -0.2508 -0.1277
    1WF      WF64133   6.786  15.188   7.949 -0.0502  0.2473 -0.0103
    1WF      WF64134   0.715  23.389   1.214 -0.0768  0.1159  0.0745
    1WF      WF64135  21.552   1.205   6.798 -0.0667 -0.3641  0.0784
    1WF      WF64136  13.767  18.217   0.350  0.0921  0.0907 -0.1600
    1WF      WF64137   2.465  20.489   7.501 -0.1180  0.0015 -0.0015
    1WF      WF64138  10.553  23.363   9.206 -0.2786 -0.0845 -0.1695
    1WF      WF64139  25.395  23.805   9.231 -0.1579  0.0466 -0.1280
    1WF      WF64140  17.939  20.105   9.921 -0.2345 -0.0175 -0.1822
    1WF      WF64141  24.658  25.095   2.277  0.2723  0.0527 -0.1681
    1WF      WF64142   3.841  16.914   0.314 -0.3179  0.3724  0.3081
    1WF      WF64143   1.896  19.647   2.433 -0.0516  0.3041  0.2351
    1WF      WF64144  23.239  20.368   8.496  0.1333 -0.1931 -0.1107
    1WF      WF64145  11.385  22.197   8.514 -0.2375 -0.1905  0.0936
    1WF      WF64146   2.830  17.302   8.681 -0.2659 -0.0750  0.0820
    1WF      WF64147   6.112   2.970   9.684 -0.1886  0.1761  0.0750
    1WF      WF64148  19.044   1.862   0.725  0.3174 -0.1644  0.0700
    1WF      WF64149  18.888  10.570   9.490 -0.1083  0.1459 -0.3865
    1WF      WF64150   7.679  22.966   0.104  0.2634 -0.2763  0.2926
    1WF      WF64151   3.462   5.463   0.883 -0.4459 -0.1891  0.1017
    1WF      WF64152  23.863   5.424   1.689 -0.2703  0.1399  0.0163
    1WF      WF64153   0.670   1.082   1.332  0.1879  0.0994  0.5347
    1WF      WF64154  19.913   5.299   8.020 -0.2603  0.2071  0.4087
    1WF      WF64155  18.754  24.566   1.080 -0.1652  0.0313 -0.0514
    1WF      WF64156  15.941  12.565   2.139  0.1095  0.1283 -0.3329
    1WF      WF64157   5.983  13.391   0.932  0.0677 -0.2050 -0.1774
    1WF      WF64158  28.716  10.023   0.692 -0.3832  0.1936 -0.2301
    1WF      WF64159  21.588   2.725   0.812 -0.0841  0.1511 -0.0740
    1WF      WF64160  11.305  21.405   1.568  0.1024 -0.1055 -0.1179
    1WF      WF64161  17.880   7.848   8.499  0.0299  0.2108  0.0719
    1WF      WF64162  15.755   2.727   1.135 -0.2189 -0.0069 -0.2006
    1WF      WF64163  19.083  22.555   6.341 -0.2903 -0.0276 -0.1586
    1WF      WF64164  18.596  12.315   2.460  0.2752  0.0975  0.1757
    1WF      WF64165   6.299   7.965   8.013 -0.2098 -0.0072 -0.1714
    1WF      WF64166  13.076  16.013   9.837 -0.1488 -0.3060  0.1888
    1WF      WF64167  19.851   4.448   9.532 -0.2662 -0.0145 -0.2618
    1WF      WF64168  16.855   9.338   9.934  0.2814  0.0257 -0.2381
    1WF      WF64169  12.505   9.220   2.429 -0.2036 -0.0744  0.2527
    1WF      WF64170  28.447   7.931   2.072 -0.3679  0.1625 -0.2030
    1WF      WF64171   6.958  26.229   7.925  0.2796  0.1287 -0.0053
    1WF      WF64172   2.073   7.232   9.231  0.3944 -0.0949 -0.0807
    1WF      WF64173  10.376  24.524   0.287  0.0138 -0.2136 -0.0018
    1WF      WF64174  21.449  26.083   8.536  0.1947  0.0370  0.0948
    1WF      WF64175  25.592   3.150   1.848 -0.1137  0.5559  0.0767
    1WF      WF64176  11.049  22.934   1.517 -0.1701 -0.2312 -0.0782
    1WF      WF64177  11.902  13.262   7.963 -0.2295  0.0648  0.1521
    1WF      WF64178  11.197   0.007   0.414  0.1031  0.1791 -0.0291
    1WF      WF64179   9.412  20.750   9.637 -0.0801 -0.2528 -0.2382
    1WF      WF64180  26.268  14.209   2.365 -0.1657 -0.1600 -0.0628
    1WF      WF64181  20.504  16.746   1.031 -0.1075 -0.1699  0.3243
    1WF      WF64182  13.118  14.728   0.822  0.0818  0.2254 -0.0288
    1WF      WF64183   3.001  22.187   2.261 -0.1550 -0.1930 -0.0554
    1WF      WF64184  20.760  14.164   1.809 -0.0576  0.0879 -0.1406
    1WF      WF64185  28.000  18.992   7.485  0.1247  0.2965  0.4161
    1WF      WF64186  10.098  27.160   0.432 -0.2479  0.1019  0.1088
    1WF      WF64187  17.528  22.127   1.296 -0.0973  0.1564 -0.1433
    1WF      WF64188  10.553   4.768   9.695 -0.2844  0.0178 -0.1574
    1WF      WF64189   9.884  21.768   7.910  0.1590  0.1361  0.1458
    1WF      WF64190   4.016  21.958   1.286 -0.0435 -0.1494 -0.1099
    1WF      WF64191  13.276   4.901   7.818  0.0638 -0.4382 -0.0862
    1WF      WF64192  21.736   0.827   1.679 -0.2944 -0.2000  0.0423
    1WF      WF64193  22.758  21.053   0.611 -0.1832 -0.0514 -0.2582
    1WF      WF64194  10.344  10.976   7.452  0.1721 -0.4402 -0.0550
    1WF      WF64195  22.484   5.651   1.421  0.2540  0.0475 -0.0805
    1WF      WF64196  25.993  16.687   9.180 -0.4046 -0.0214  0.1071
    1WF      WF64197   5.343  15.777   0.715 -0.3068 -0.1997  0.0858
    1WF      WF64198  22.413   0.273   2.130  0.1832 -0.0916 -0.1565
    1WF      WF64199  17.689   6.043   7.966  0.3537  0.0634 -0.2771
    1WF      WF64200   4.328   0.966   9.344  0.0101 -0.1541  0.0102
    1WF      WF64201   6.481   5.545   9.970 -0.1198 -0.2760 -0.1370
    1WF      WF64202   8.099  25.770   8.386  0.2191 -0.1398  0.1174
    1WF      WF64203  15.034  11.501   0.476  0.0585  0.0702 -0.1521
    1WF      WF64204  18.379  21.626   9.683  0.0758  0.1970 -0.0900
    1WF      WF64205  13.415  16.030   8.738 -0.1152 -0.1298  0.1736
    1WF      WF64206   8.878  20.657   1.094  0.1403  0.0995  0.2702
    1WF      WF64207  13.316  23.240   1.165  0.1852  0.0188 -0.0507
    1WF      WF64208  25.900  11.219   7.392  0.1594  0.0666  0.3578
    1WF      WF64209  12.990  17.383   9.129  0.1198  0.0485 -0.2138
    1WF      WF64210   3.302  28.471   2.846  0.0195 -0.0854  0.1454
    1WF      WF64211   3.188  11.518   9.009 -0.1994  0.1279 -0.1997
    1WF      WF64212   2.944   1.502   8.953 -0.2408  0.1301 -0.4176
    1WF      WF64213  16.926  28.379   0.245  0.1178 -0.3366 -0.1892
    1WF      WF64214  22.649  18.041   8.774  0.0503  0.0523 -0.1001
    1WF      WF64215  19.974  12.418   8.932 -0.0774 -0.0999  0.3775
    1WF      WF64216  14.726  16.553   0.379  0.1936  0.2835  0.4212
    1WF      WF64217  14.679  19.075   0.757  0.0097  0.0880 -0.0548
    1WF      WF64218  19.761  27.467   1.690  0.0523 -0.1344  0.0615
    1WF      WF64219   1.782  12.460   1.443  0.1890 -0.0431 -0.0596
    1WF      WF64220  23.104   0.194   8.476 -0.0361 -0.2757  0.2319
    1WF      WF64221  21.684  18.606   1.855  0.1223  0.1987 -0.1050
    1WF      WF64222  17.913  24.578   8.640  0.4939 -0.4212 -0.0436
    1WF      WF64223  14.157  12.355   9.718 -0.0891 -0.0322 -0.1084
    1WF      WF64224   6.976   2.413   2.515 -0.0731 -0.3802  0.0107
    1WF      WF64225  16.979  17.938   7.538  0.1289 -0.2074 -0.2456
    1WF      WF64226   7.431   7.724   9.327 -0.0923  0.0232  0.2186
    1WF      WF64227  28.436  16.488   9.056 -0.0670  0.0760  0.3696
    1WF      WF64228   7.876  13.436   7.588 -0.3552 -0.2442  0.2178
    1WF      WF64229  18.576   4.991   0.175 -0.0347 -0.1315  0.1808
    1WF      WF64230   5.125  27.839   9.387 -0.1385  0.2206 -0.1817
    1WF      WF64231  14.784  25.134   8.297  0.0924  0.2251 -0.1115
    1WF      WF64232   2.013  28.693   8.945 -0.2042  0.1578  0.0894
    1WF      WF64233   9.762  21.740   0.703 -0.0712  0.1079 -0.0744
    1WF      WF64234  12.664  22.274   7.533  0.1267  0.0006  0.0516
    1WF      WF64235   0.812   1.883   2.618 -0.2781  0.2777 -0.1015
    1WF      WF64236  17.102  13.015   7.887  0.2350  0.1149  0.2004
    1WF      WF64237  27.352  28.073   2.436 -0.0867  0.0168 -0.2047
    1WF      WF64238  23.411  15.219   8.839 -0.1790 -0.1281  0.0233
    1WF      WF64239  15.600  25.414   1.867 -0.1128  0.2595 -0.2687
    1WF      WF64240   9.306  21.253   9.606 -0.0858  0.3219 -0.0390
    1WF      WF64241  27.243   5.106   8.959  0.3845 -0.3318 -0.0275
    1WF      WF64242  20.215   2.312   7.301 -0.1785 -0.6585 -0.0800
    1WF      WF64243   5.861   1.097   2.907  0.1910  0.0660 -0.2158
    1WF      WF64244  10.273  13.215   0.633 -0.3444 -0.1393 -0.1788
    1WF      WF64245  17.611   4.883   0.751  0.2642 -0.1359 -0.1186
    1WF      WF64246  12.541  12.084   6.875 -0.1052  0.3216  0.2526
    1WF      WF64247   2.590   3.822   1.871  0.1641 -0.2695  0.0012
    1WF      WF64248  24.649   5.756   8.769 -0.0469 -0.1095  0.3548
    1WF      WF64249  13.305  28.371   1.807  0.0332  0.0406  0.3621
    1WF      WF64250   5.655  18.848   1.959  0.0241 -0.1975 -0.2398
    1WF      WF64251  22.912  15.344   1.317  0.1263 -0.0641  0.0606
    1WF      WF64252   1.196   9.800   1.493 -0.0494  0.1242 -0.0292
    1WF      WF64253  27.546   3.410   2.368  0.3871 -0.1869 -0.0265
    1WF      WF64254   4.364  15.482   0.998 -0.4934 -0.0454  0.1339
    1WF      WF64255  27.467  27.587   0.888 -0.0969  0.2528 -0.0374
    1WF      WF64256  11.441  10.837   0.641 -0.2195 -0.1025  0.0314
    1WF      WF64257  11.014  16.128   8.280 -0.2545  0.3080 -0.1595
    1WF      WF64258  26.858  12.695   1.592 -0.1522 -0.2975  0.1712
    1WF      WF64259  20.355  13.336   7.485 -0.0720  0.1824  0.0629
    1WF      WF64260  26.955  14.674   7.013  0.0686 -0.4191 -0.0502
    1WF      WF64261   1.775  11.464   2.871 -0.2020 -0.1346 -0.1627
    1WF      WF64262  16.488  23.038   7.759  0.0294  0.4066  0.1542
    1WF      WF64263  10.068   5.620   1.483  0.1181  0.1483 -0.0494
    1WF      WF64264   9.324  20.286   9.308 -0.2229  0.3083 -0.0902
    1WF      WF64265  25.082  13.749   8.831 -0.0657 -0.0844  0.0839
    1WF      WF64266  19.319   5.748   6.453 -0.3537 -0.3027  0.2629
    1WF      WF64267  28.147   4.723   9.363 -0.0340 -0.2135 -0.0164
    1WF      WF64268  23.937   0.027   2.298 -0.0239  0.2191  0.0701
    1WF      WF64269  27.100  25.236   0.231 -0.1851  0.2055  0.5258
    1WF      WF64270   3.364  25.091   9.789 -0.0619 -0.0759  0.0106
    1WF      WF64271  27.242   0.085   0.404 -0.1587  0.2133  0.2388
    1WF      WF64272  13.639  11.530   9.749  0.1485  0.0709 -0.1471
    1WF      WF64273   0.581  23.538   8.944 -0.0713  0.3450  0.0442
    1WF      WF64274   0.936  20.515   3.815 -0.0853 -0.0365 -0.0216
    1WF      WF64275   5.993  13.695   9.765  0.0205 -0.0835 -0.0226
    1WF      WF64276  19.233  10.326   0.816 -0.2016 -0.1522  0.1763
    1WF      WF64277   2.101  20.471   2.135  0.0952  0.0412 -0.0124
    1WF      WF64278   0.312  19.956   0.918 -0.1365 -0.1277  0.0577
    1WF      WF64279  25.659  27.416   0.814  0.1072  0.0781  0.2167
    1WF      WF64280   5.152   8.027   8.168  0.0624 -0.0589 -0.1407
    1WF      WF64281   5.653   8.753   1.742  0.3741 -0.3990  0.1412
    1WF      WF64282   6.840  25.617   0.523 -0.0784  0.1318  0.0503
    1WF      WF64283   4.852  24.860   2.506  0.2031 -0.1339 -0.0824
    1WF      WF64284   4.621   7.729   7.417  0.2065 -0.0331 -0.1527
    1WF      WF64285  28.293  23.186   2.364 -0.1058  0.3635  0.2335
    1WF      WF64286   6.171  22.661   8.065 -0.2759 -0.0138 -0.0481
    1WF      WF64287   0.219  15.511   0.638 -0.1374  0.3016  0.0746
    1WF      WF64288  27.014  14.511   7.601 -0.1353 -0.0135 -0.1117
    1WF      WF64289   3.512  19.560   2.079 -0.0827  0.0423 -0.0841
    1WF      WF64290  13.104  16.294   0.788  0.1180  0.2259 -0.1132
    1WF      WF64291   2.817  18.061   1.357  0.1930 -0.1243  0.2316
    1WF      WF64292  14.675  11.081   7.373 -0.1960 -0.0818  0.1923
    1WF      WF64293  22.498  12.822   0.055 -0.1773  0.1212  0.1561
    1WF      WF64294   1.714  17.600   3.891  0.3015  0.2835 -0.0426
    1WF      WF64295   0.019  26.895   3.899  0.0264 -0.3648  0.2584
    1WF      WF64296  19.359   4.909   1.071  0.0569  0.2146  0.0821
    1WF      WF64297  25.460  24.325   9.288 -0.0496  0.4034  0.4120
    1WF      WF64298  23.805  22.446   9.224  0.1177  0.0093 -0.1796
    1WF      WF64299   8.093  13.863   7.333  0.1124 -0.3533 -0.0690
    1WF      WF64300   9.869  13.990   7.343 -0.0768  0.1274 -0.0279
    1WF      WF64301  11.684   8.889   0.103  0.1605 -0.0879  0.1529
    1WF      WF64302   2.137   0.316   9.051  0.0990 -0.0402 -0.0204
    1WF      WF64303  13.206   5.348   8.163  0.0449 -0.1176 -0.3076
    1WF      WF64304   0.294  18.078   0.521 -0.0884  0.1864  0.1756
    1WF      WF64305  22.601  26.449   0.435  0.3138 -0.0156  0.1741
    1WF      WF64306   1.004   9.536   1.127  0.0537  0.1770  0.3719
    1WF      WF64307   4.854  21.778   9.729  0.0748 -0.0853  0.0333
    1WF      WF64308   6.550  22.569   7.704 -0.3536  0.3345 -0.3646
    1WF      WF64309   0.145  10.308   0.308 -0.0463 -0.0725  0.3105
    1WF      WF64310   3.932  23.705   3.639 -0.1849  0.1723  0.0432
    1WF      WF64311  28.773  16.352   8.384 -0.0929  0.0877  0.1318
    1WF      WF64312  16.983  10.516   1.567  0.0842 -0.0151 -0.0581
    1WF      WF64313  15.553  27.189   1.885 -0.1979 -0.2988  0.0052
    1WF      WF64314   5.561   4.830   2.175  0.0355 -0.2084 -0.2655
    1WF      WF64315  26.433   4.588   9.830  0.2606 -0.2267  0.1993
    1WF      WF64316  22.573  14.937   1.614 -0.1705  0.2664  0.0992
    1WF      WF64317   0.050  16.244   8.858 -0.1108 -0.2677  0.0518
    1WF      WF64318  23.940   0.862   9.747 -0.0329 -0.0979 -0.0262
    1WF      WF64319   6.135   1.035   0.823 -0.0772 -0.1836 -0.0894
    1WF      WF64320  27.119  16.260   2.147  0.1426 -0.1687  0.2408
    1WF      WF64321  19.527  17.878   9.755 -0.3922 -0.1520  0.1958
    1WF      WF64322  26.099   8.834   1.600  0.1262 -0.0475  0.2382
    1WF      WF64323  13.283  24.108   3.056  0.1378  0.0927 -0.2245
    1WF      WF64324  25.584   6.840   9.044  0.1218 -0.1547  0.2321
    1WF      WF64325   2.943  28.179   8.451  0.0018 -0.0751 -0.4371
    1WF      WF64326  17.318   9.861   7.512  0.1806 -0.3227  0.2949
    1WF      WF64327  28.393   8.341   2.311  0.2765 -0.1614  0.4644
    1WF      WF64328   6.604   5.687   8.702 -0.0496 -0.0210  0.1037
    1WF      WF64329  20.288   0.950   0.601  0.2551 -0.1225 -0.0930
    1WF      WF64330  27.914  14.740   9.600  0.1549 -0.1798 -0.1333
    1WF      WF64331  25.890  19.968   8.942  0.0021  0.1318 -0.0257
    1WF      WF64332   0.906  23.145   0.765 -0.1430 -0.0475 -0.2087
    1WF      WF64333  22.670  10.448   6.861  0.3530 -0.0752 -0.0092
    1WF      WF64334  25.179  12.900   0.309 -0.0031 -0.1348 -0.2984
    1WF      WF64335  10.116  26.413   1.861  0.0413 -0.0696  0.0590
    1WF      WF64336   9.987  18.298   9.146  0.1183  0.2185  0.3672
    1WF      WF64337  10.075  12.671   0.646 -0.0221 -0.0912 -0.2507
    1WF      WF64338  18.423  17.926   9.088  0.1883  0.1968  0.2637
    1WF      WF64339  25.702  19.626   9.973  0.4067 -0.2740  0.1755
    1WF      WF64340   2.975   5.518   1.742  0.2372 -0.2544 -0.4540
    1WF      WF64341  11.564  11.747   7.519 -0.1162 -0.1456  0.2042
    1WF      WF64342  14.651   3.561   8.221 -0.1368  0.0189  0.0002
    1WF      WF64343  11.151  24.440   1.773 -0.1226 -0.2354  0.2937
    1WF      WF64344  14.500  25.574   8.261  0.0084 -0.2999  0.1515
    1WF      WF64345  11.775  11.191   9.678 -0.1115 -0.1880 -0.0786
    1WF      WF64346   9.952  26.780   2.130 -0.0446  0.0305 -0.1653
    1WF      WF64347  15.370  20.920   7.501 -0.0694  0.3361  0.1977
    1WF      WF64348  16.414  10.344   9.338 -0.0270 -0.0640  0.2858
    1WF      WF64349   1.841  10.611   0.735 -0.2288 -0.0724 -0.1679
    1WF      WF64350  23.955  22.946   9.237  0.0792 -0.2150  0.0644
    1WF      WF64351  18.721  13.995   0.775 -0.1677 -0.1652 -0.0232
    1WF      WF64352  20.662  28.768   8.188 -0.0688  0.0052  0.3744
    1WF      WF64353   8.277   8.423   8.188  0.0924  0.1240 -0.0423
    1WF      WF64354   3.450  25.285   9.285  0.0369  0.1199 -0.0473
    1WF      WF64355  13.978   2.305   8.319  0.0577 -0.0454  0.3371
    1WF      WF64356   4.242   6.869   0.271 -0.0564 -0.1125  0.0456
    1WF      WF64357   3.481  11.926   9.146  0.0066 -0.2077  0.1090
    1WF      WF64358   7.606  27.391   2.568  0.0729  0.1878 -0.0389
    1WF      WF64359  11.875  27.504   0.590  0.3997  0.3066  0.2158
    1WF      WF64360  26.045  17.048   1.737  0.1035  0.0505 -0.0887
    1WF      WF64361   3.201  12.932   9.942  0.0878  0.0107  0.2318
    1WF      WF64362   5.278  22.195   9.791  0.4435 -0.0130 -0.2086
    1WF      WF64363   8.368   6.658   1.489  0.0509 -0.2872 -0.0604
    1WF      WF64364  27.267  21.227   0.246  0.3050 -0.0613  0.0279
    1WF      WF64365  18.306  23.404   1.600 -0.1017 -0.1896  0.3452
    1WF      WF64366  27.387  13.634   2.597 -0.0373  0.1454 -0.4000
    1WF      WF64367  14.643  18.952   1.308 -0.0914 -0.2116  0.3369
    1WF      WF64368  12.295  10.469   1.311  0.0819  0.1937  0.0730
    1WF      WF64369   5.839  18.121   8.885  0.2356  0.2179  0.1704
    1WF      WF64370  18.551   3.474   8.968  0.1267  0.0324  0.1230
    1WF      WF64371  12.302  13.494   1.231  0.0932  0.0880  0.0265
    1WF      WF64372  21.040  15.198   0.814  0.1168 -0.1246 -0.3265
    1WF      WF64373   1.129  26.864   0.746  0.0685  0.1182 -0.0245
    1WF      WF64374   6.832  19.450   1.910 -0.0820 -0.0638 -0.2946
    1WF      WF64375  19.139   5.062   2.240  0.2605 -0.0641  0.2761
    1WF      WF64376  25.227  24.101   8.867 -0.0606  0.2458  0.1882
    1WF      WF64377   9.155  20.966   0.055  0.0005  0.1865 -0.3061
    1WF      WF64378  25.814   3.900   1.234  0.0149 -0.1568  0.2177
    1WF      WF64379  17.359   4.118   7.384  0.3135  0.3025  0.2486
    1WF      WF64380  10.554  14.264   0.924  0.1354 -0.0530 -0.2862
    1WF      WF64381  20.353  24.261   8.693 -0.3170 -0.0475  0.0541
    1WF      WF64382  16.358  26.032   9.520 -0.0107  0.0129 -0.0917
    1WF      WF64383   8.780   3.180   9.023 -0.1672  0.0410  0.1798
    1WF      WF64384   5.795  15.240   1.503  0.0309  0.3561  0.0742
    1WF      WF64385   0.237  15.482   0.066  0.1590 -0.4448  0.0173
    1WF      WF64386  28.861  10.795   9.875  0.0066  0.2283  0.0964
    1WF      WF64387   6.596   8.818   0.508 -0.1423  0.2659  0.0978
    1WF      WF64388  22.386  17.313   1.154  0.1012 -0.1500 -0.2396
    1WF      WF64389  16.015  19.719   8.276 -0.1439 -0.1003  0.4145
    1WF      WF64390  24.789   2.586   9.246  0.0769  0.3339  0.1090
    1WF      WF64391  24.096  12.408   1.360 -0.2047  0.3345  0.3192
    1WF      WF64392  24.504  28.005   2.082 -0.0746 -0.1148 -0.2161
    1WF      WF64393   2.736  14.360   7.055  0.1844  0.0602 -0.3610
    1WF      WF64394  19.654  25.983   1.569  0.1685 -0.0101  0.2499
    1WF      WF64395   5.985  10.230   8.574 -0.1041  0.1464  0.0153
    1WF      WF64396  17.123  28.301   6.910  0.1358  0.0352 -0.1136
    1WF      WF64397  16.574  13.448   7.211  0.1862  0.2864  0.3621
    1WF      WF64398   1.735  17.137   2.357 -0.1319  0.2100  0.2657
    1WF      WF64399  16.724  25.261   0.017  0.0318 -0.3550  0.0053
    1WF      WF64400   4.914  11.768   1.155  0.1342 -0.0618 -0.2096
    1WF      WF64401  15.364  15.071   2.222 -0.0342 -0.1699 -0.2037
    1WF      WF64402   0.589  21.551   1.069  0.0983  0.1560  0.0894
    1WF      WF64403  21.212  26.107   1.500 -0.0061 -0.0110  0.1286
    1WF      WF64404  24.166   6.787   9.174  0.2147  0.0088  0.0256
    1WF      WF64405   2.005  13.262   1.199 -0.2753 -0.3659 -0.1408
    1WF      WF64406  11.467  28.616   9.461  0.0578  0.1782  0.0089
    1WF      WF64407  28.016  17.926   2.565  0.2434 -0.0509 -0.0598
    1WF      WF64408  22.418  28.404   0.723 -0.2712 -0.0481 -0.1941
    1WF      WF64409  20.579  18.993   2.767  0.2315  0.0442 -0.1416
    1WF      WF64410  22.499   6.014   0.602  0.0070 -0.0363  0.0346
    1WF      WF64411   6.949  25.114   0.632  0.0708  0.0752  0.1740
    1WF      WF64412  11.658   6.435   0.501  0.0253  0.0543  0.1327
    1WF      WF64413   0.177  12.683   8.506 -0.0846 -0.0367 -0.0963
    1WF      WF64414  16.136  27.243   9.894 -0.3005 -0.3643 -0.1704
    1WF      WF64415  19.351   3.585   9.321 -0.1763  0.0421 -0.0878
    1WF      WF64416  26.921  21.528   0.408 -0.0591  0.2291 -0.2083
    1WF      WF64417  12.006   3.292   9.387  0.1042  0.0653 -0.1631
    1WF      WF64418  25.254  21.810   0.368  0.1073 -0.0468  0.0145
    1WF      WF64419   4.884  27.928   9.839  0.3074  0.0746 -0.0850
    1WF      WF64420   5.096   7.689   7.436 -0.0521  0.1304 -0.0888
    1WF      WF64421  25.766  23.422   8.899  0.0923  0.2620  0.1408
    1WF      WF64422   9.405   5.012   9.691 -0.1954  0.0047  0.0321
    1WF      WF64423  18.613   2.142   0.890  0.0454  0.1650  0.0955
    1WF      WF64424   1.323   1.620   1.855 -0.0281 -0.0123 -0.1549
    1WF      WF64425   7.140   7.981   3.246  0.2724  0.2071  0.1393
    1WF      WF64426  20.603  12.598   1.844 -0.2599  0.2212  0.1080
    1WF      WF64427  28.501  10.661   9.593  0.0680  0.1846 -0.1013
    1WF      WF64428  11.489   3.849   7.834 -0.1748  0.0813  0.3517
    1WF      WF64429   0.181   0.161   1.349 -0.0326 -0.2799 -0.1675
    1WF      WF64430   5.825  18.087   2.937  0.0068  0.0456  0.0629
    1WF      WF64431  25.384   6.296   0.003 -0.1050 -0.0573  0.0195
    1WF      WF64432  19.282  26.258   1.247 -0.3237  0.1264  0.2784
    1WF      WF64433  26.567   9.851   8.959 -0.1776 -0.3923  0.0182
    1WF      WF64434  11.194  20.397   0.077 -0.0222  0.1775 -0.1215
    1WF      WF64435   5.393  10.451   8.489  0.0929 -0.1277 -0.2283
    1WF      WF64436  19.533   4.076   9.389 -0.2911 -0.2648 -0.3694
    1WF      WF64437  16.700  13.242   9.794  0.1435 -0.0657  0.1070
    1WF      WF64438   7.513   0.941   8.671 -0.3100  0.4822 -0.2782
    1WF      WF64439  27.467   1.195   1.977  0.0246  0.1963 -0.2846
    1WF      WF64440   0.019  19.598   1.146  0.0883 -0.0831  0.1524
    1WF      WF64441  14.557  19.130   8.972  0.2572  0.3170  0.0351
    1WF      WF64442  19.580  21.546   7.922  0.3523  0.1974 -0.2139
    1WF      WF64443  10.155  23.622   8.970 -0.1332 -0.0179  0.2189
    1WF      WF64444   5.219   2.165   9.363  0.1634 -0.3253 -0.0418
    1WF      WF64445  11.533   7.647   9.110  0.1367 -0.0287 -0.1372
    1WF      WF64446   7.325   5.123   0.326 -0.2580  0.0577  0.2294
    1WF      WF64447   3.168  28.478   8.842  0.2355 -0.0090  0.1699
    1WF      WF64448  15.088  10.736   8.568 -0.1880 -0.2904  0.1927
    1WF      WF64449  16.758  23.488   9.016 -0.1906 -0.0550 -0.0000
    1WF      WF64450  27.036   1.375   0.306 -0.5472 -0.1546  0.1393
    1WF      WF64451   2.487   2.748   9.376 -0.3939 -0.0110  0.0604
    1WF      WF64452   7.463  16.041   8.729  0.0750  0.4765 -0.1792
    1WF      WF64453   1.275  19.316   9.907 -0.2633 -0.1763 -0.1415
    1WF      WF64454  12.928   3.258   0.330  0.0695  0.3016  0.1573
    1WF      WF64455   9.682  22.196   0.827  0.1392 -0.1499  0.1462
    1WF      WF64456  23.249  21.283   1.848  0.1558  0.0886  0.4734
    1WF      WF64457  22.823   0.998   8.001  0.1366  0.2441 -0.2215
    1WF      WF64458  16.168  11.420   8.646  0.0660 -0.0575  0.1916
    1WF      WF64459  23.148   6.918   0.148  0.0728 -0.0576  0.1535
    1WF      WF64460   0.403   7.947   9.650 -0.1023  0.2176  0.1384
    1WF      WF64461  25.455  20.064   8.683 -0.0464 -0.0600  0.0323
    1WF      WF64462  13.812  19.012   1.935 -0.0294  0.3997 -0.1030
    1WF      WF64463   0.724  14.747   1.112  0.0707  0.2252  0.0037
    1WF      WF64464   5.362   0.835   2.135  0.1516 -0.0202  0.0092
    1WF      WF64465   9.489  13.645   7.214 -0.0429 -0.1456 -0.0190
    1WF      WF64466   7.900   5.017   7.410  0.0137  0.2366 -0.0274
    1WF      WF64467  14.025  11.900   8.343  0.2802 -0.1300 -0.1307
    1WF      WF64468  12.790  28.839   0.880 -0.1108 -0.0092 -0.1842
    1WF      WF64469  28.639  14.481   1.339  0.1226 -0.1358  0.0145
    1WF      WF64470   9.181  10.098   6.847  0.3142  0.0007  0.1410
    1WF      WF64471  11.510   3.081   9.139  0.3865 -0.2275  0.0092
    1WF      WF64472   2.967  21.640   0.531  0.0098 -0.0672  0.0067
    1WF      WF64473   7.522  16.591   8.930 -0.0181  0.1741 -0.1019
    1WF      WF64474  14.759   4.649   9.455  0.0158  0.1682  0.0239
    1WF      WF64475  11.698   5.866   7.740  0.0404  0.0433  0.0935
    1WF      WF64476  15.275  26.054   7.330  0.0756  0.0099  0.2636
    1WF      WF64477   0.535  20.785   8.311 -0.0227 -0.1629  0.0354
    1WF      WF64478   3.821  11.730   9.696 -0.1885 -0.0806  0.1654
    1WF      WF64479   5.590  19.555   9.491 -0.0791  0.2950  0.0276
    1WF      WF64480  19.972  15.962   9.677  0.1028 -0.0447 -0.1540
    1WF      WF64481  17.502  20.414   9.942  0.3058 -0.1350  0.4871
    1WF      WF64482  11.165  24.045   1.481 -0.2048  0.1716  0.2376
    1WF      WF64483   2.912   6.988   1.974 -0.5070  0.0498 -0.1871
    1WF      WF64484   2.040  12.945   1.549 -0.0604 -0.0360  0.2554
    1WF      WF64485  20.285  22.339   8.139  0.0350 -0.0351 -0.1147
    1WF      WF64486  14.246  27.154   0.680  0.3222 -0.2393  0.1146
    1WF      WF64487   3.113   1.470   3.619  0.0042  0.4916 -0.1079
    1WF      WF64488   7.611   6.183   8.487 -0.0841  0.2613 -0.0816
    1WF      WF64489   9.100  24.890   9.684 -0.1844  0.1587  0.1184
    1WF      WF64490   8.673  22.804   8.707  0.0579 -0.3654 -0.4274
    1WF      WF64491  14.875  20.612   0.151  0.1361  0.0325 -0.1362
    1WF      WF64492  24.965  26.513   0.817  0.2008  0.1110  0.3140
    1WF      WF64493  21.072  14.452   1.500  0.0291  0.0450 -0.1901
    1WF      WF64494  22.711  17.832   3.015  0.1580 -0.3413 -0.2848
    1WF      WF64495  21.634   8.525   1.960 -0.1808 -0.3569 -0.0927
    1WF      WF64496  17.621  16.008   9.843  0.0302  0.0110  0.0022
    1WF      WF64497  25.404  19.347   8.791 -0.1987  0.3134 -0.2984
    1WF      WF64498   1.012   1.618   2.307 -0.2625  0.0024  0.2774
    1WF      WF64499   3.636  15.830   6.970 -0.0883 -0.5188  0.0534
    1WF      WF64500  14.958   6.206   8.985  0.2940  0.1597 -0.1601
    1WF      WF64501   3.027   2.083   9.052 -0.0352  0.0293 -0.1547
    1WF      WF64502  18.884   4.787   8.253  0.2598 -0.1549  0.2445
    1WF      WF64503  11.563  26.795   0.986  0.0031 -0.1704 -0.1127
    1WF      WF64504   2.385  18.242   9.034  0.2423 -0.0006 -0.2540
    1WF      WF64505  22.536  26.273   8.263 -0.0252 -0.0854  0.0357
    1WF      WF64506  20.959   0.279   1.386  0.0320 -0.4311  0.2275
    1WF      WF64507   9.733  20.337   1.380 -0.0724 -0.0403  0.3493
    1WF      WF64508  12.381  23.658   9.465  0.1814  0.3153 -0.1348
    1WF      WF64509  13.818  11.841   8.831 -0.2371 -0.0819 -0.0106
    1WF      WF64510  25.672  11.150   8.180  0.3137 -0.1294  0.1961
    1WF      WF64511  20.115  13.464   0.253  0.0523 -0.1603  0.4131
    1WF      WF64512  10.582  26.279   3.447 -0.2256 -0.1014  0.1408
    1WF      WF64513  15.995  25.867   9.798 -0.2230  0.1539  0.1081
    1WF      WF64514   2.478  13.374   8.776 -0.3171 -0.0921 -0.0799
    1WF      WF64515   1.890  21.479   9.108  0.2381 -0.0924  0.1665
    1WF      WF64516   9.869   9.572   7.219 -0.0068 -0.2782 -0.2656
    1WF      WF64517   3.815   8.800   9.781  0.1732  0.1178  0.4025
    1WF      WF64518  21.784   7.940   7.990 -0.2254  0.1212  0.0271
    1WF      WF64519  21.860  13.898   0.348  0.0772 -0.1826 -0.0199
    1WF      WF64520   7.384  22.077   2.034 -0.0023 -0.1049 -0.3336
    1WF      WF64521  18.420  14.337   0.202  0.1110 -0.1260  0.2908
    1WF      WF64522  10.069   4.497   7.704 -0.0577 -0.2531 -0.0824
    1WF      WF64523  22.002  25.097   8.861  0.2695 -0.3246  0.1143
    1WF      WF64524   1.441  15.231   8.710 -0.0639 -0.1371  0.4509
    1WF      WF64525  13.073   1.320   8.708 -0.1349 -0.1787 -0.2944
    1WF      WF64526  28.217  13.420   0.817  0.0809  0.2189 -0.5462
    1WF      WF64527   6.214  16.473   8.983 -0.3076 -0.1318  0.2872
    1WF      WF64528  12.695  26.968   8.195 -0.3175 -0.0581 -0.1176
    1WF      WF64529  26.789   0.955   0.925 -0.0274  0.1413  0.0607
    1WF      WF64530  28.521  15.841   2.922 -0.0345  0.2404  0.1203
    1WF      WF64531   3.284  18.895   0.112  0.3778  0.4914  0.1531
    1WF      WF64532  12.774  10.502   2.488  0.0592  0.1336 -0.0495
    1WF      WF64533   1.259  20.726   4.187 -0.0105  0.2430 -0.2423
    1WF      WF64534  28.422  23.760   0.675 -0.2157  0.0290 -0.1455
    1WF      WF64535  18.822   8.116   8.643  0.3074  0.1336  0.0685
    1WF      WF64536  26.249  16.668   1.513 -0.1552 -0.1637  0.0253
    1WF      WF64537   2.714  21.171   3.642  0.1947  0.2359  0.2529
    1WF      WF64538  17.123  27.785   8.807 -0.1656 -0.1912 -0.2811
    1WF      WF64539  14.354  23.217   7.161 -0.0114  0.0364  0.1086
    1WF      WF64540  16.237   7.872   1.108  0.0516  0.1398  0.2441
    1WF      WF64541  26.880  13.519   6.898  0.2680 -0.0159 -0.0555
    1WF      WF64542  24.293  24.764   0.915  0.0451  0.0719  0.0680
    1WF      WF64543  19.866   3.205   8.361  0.0530 -0.0636 -0.0653
    1WF      WF64544  11.297  27.513   0.607  0.2823  0.1811  0.1911
    1WF      WF64545  21.423  27.146   0.383  0.1152 -0.3299 -0.0630
    1WF      WF64546  28.489   5.861   9.106  0.1826 -0.1556  0.1578
    1WF      WF64547   2.724   1.767   2.618  0.0405 -0.0052  0.0106
    1WF      WF64548  18.005  14.995   8.227  0.4236  0.1080  0.1160
    1WF      WF64549  11.997  15.895   0.992 -0.2005  0.0224  0.3664
    1WF      WF64550   3.740  28.606   3.128  0.0083  0.1762 -0.0564
    1WF      WF64551   3.686   3.227   2.243  0.3128  0.2373  0.1054
    1WF      WF64552  13.772   5.853   2.046 -0.1647 -0.2496 -0.1991
    1WF      WF64553  28.379  26.848   1.534 -0.1833 -0.5189  0.4321
    1WF      WF64554  17.986   4.004   6.131  0.0652  0.0557 -0.1566
    1WF      WF64555  13.423  27.381   9.818  0.0277 -0.0589 -0.1373
    1WF      WF64556  27.008  27.782   1.108 -0.0180  0.1372 -0.0871
    1WF      WF64557  16.670   4.456   8.477  0.1023 -0.1150  0.1623
    1WF      WF64558  19.019  23.387   8.252 -0.0298 -0.0996  0.0070
    1WF      WF64559   0.923   2.029   0.522  0.1903 -0.1262 -0.1765
    1WF      WF64560  26.904  19.412   0.143  0.0657 -0.0557 -0.1352
    1WF      WF64561   9.161   8.958   8.433 -0.3410  0.0104 -0.0710
    1WF      WF64562  20.911  15.546   1.259  0.1979  0.3227 -0.0624
    1WF      WF64563  18.608  17.158   1.494  0.0323 -0.0170 -0.1381
    1WF      WF64564  14.225   8.834   6.560 -0.1920 -0.0647 -0.0467
    1WF      WF64565  26.992   1.638   1.278  0.0261  0.3441  0.0884
    1WF      WF64566   1.660  27.314   0.358  0.3846 -0.0088  0.0919
    1WF      WF64567  19.223   3.547   2.746 -0.1205 -0.1261  0.0612
    1WF      WF64568   0.429  28.576   2.222  0.1725 -0.0107  0.0671
    1WF      WF64569  24.489  16.105   1.611 -0.1426  0.0022  0.0692
    1WF      WF64570  12.432  10.039   9.426  0.0457  0.2164  0.4344
    1WF      WF64571  16.850   3.585   8.889  0.1588  0.0490  0.2773
    1WF      WF64572   4.711   0.731   3.053  0.1176  0.2390  0.0725
    1WF      WF64573  26.220  11.300   2.056  0.1214  0.1678 -0.0656
    1WF      WF64574   7.023  21.470   8.026 -0.0573  0.0827 -0.1805
    1WF      WF64575   1.976  17.715   3.259 -0.2190  0.2401  0.0767
    1WF      WF64576  12.672   7.708   5.411 -0.0859  0.0119  0.1852
    1WF      WF64577  23.255  21.744   1.600 -0.0381  0.2043 -0.0209
    1WF      WF64578   4.464   5.307   9.764 -0.0558  0.0013  0.4148
    1WF      WF64579  23.323   9.276   7.366  0.4330 -0.0566  0.1530
    1WF      WF64580   0.818   9.153   0.894 -0.2206 -0.1708  0.0123
    1WF      WF64581   7.401  14.009   0.228 -0.2527 -0.3927 -0.0724
    1WF      WF64582   8.694  21.050   1.418 -0.0983  0.3287 -0.0368
    1WF      WF64583  11.067  11.586   0.865 -0.2275  0.2576  0.1236
    1WF      WF64584  20.982  17.237   9.516  0.0594  0.1130  0.1122
    1WF      WF64585  14.673  10.211   9.496  0.0857  0.2787 -0.2711
    1WF      WF64586   8.828  23.709   1.630  0.1174  0.0632 -0.1613
    1WF      WF64587  12.160  18.014   1.423 -0.1653  0.2011 -0.2404
    1WF      WF64588   0.750   5.439   0.964 -0.2835  0.2125  0.0609
    1WF      WF64589   0.646   0.521   9.141  0.0852  0.1043  0.1711
    1WF      WF64590  15.491  11.352   0.056  0.3040  0.3350 -0.1974
    1WF      WF64591  24.291  17.122   1.519 -0.0514  0.0721 -0.2646
    1WF      WF64592  17.246   9.651   9.660  0.0856 -0.2017 -0.2121
    1WF      WF64593  18.127  19.720   0.269 -0.1302 -0.1033 -0.0684
    1WF      WF64594  22.435  21.446   0.666  0.2123 -0.2647  0.1329
    1WF      WF64595  28.391  11.019   9.265 -0.2165 -0.1966 -0.1081
    1WF      WF64596  21.493  19.164   8.790 -0.1588  0.2086 -0.0444
    1WF      WF64597  10.151  28.317   1.980  0.0402  0.1662 -0.3557
    1WF      WF64598   7.695   4.479   9.429 -0.0507 -0.0503  0.4306
    1WF      WF64599  28.079   5.187   9.817  0.0189  0.0098 -0.1253
    1WF      WF64600  10.149  22.441   3.898 -0.0093  0.0480  0.0715
    1WF      WF64601  26.578  14.404   9.932 -0.3219 -0.1512  0.0276
    1WF      WF64602  13.511   4.966   8.237  0.0564  0.0909  0.1671
    1WF      WF64603  16.926  21.412   9.471  0.0033 -0.1022 -0.1308
    1WF      WF64604  19.938  11.315   7.122  0.0965  0.3421  0.1870
    1WF      WF64605   0.892   0.088   9.382 -0.3111  0.2012  0.1512
    1WF      WF64606  14.342   0.193   8.826  0.2220  0.0641  0.1055
    1WF      WF64607   2.109  19.855   1.998  0.1027  0.2569 -0.3228
    1WF      WF64608   4.504   4.153   9.755 -0.2385  0.0808 -0.0763
    1WF      WF64609  15.740  27.067   0.049  0.1440 -0.1631  0.1576
    1WF      WF64610   5.299   4.869   0.724  0.0300 -0.1928 -0.0595
    1WF      WF64611  24.665   9.021   9.335  0.0425 -0.0512 -0.3607
    1WF      WF64612  12.077  13.012   1.308  0.3084  0.0208 -0.0566
    1WF      WF64613   8.676  10.690   1.481  0.0280 -0.0592  0.0298
    1WF      WF64614  10.014  25.162   8.195 -0.1909  0.2810 -0.0770
    1WF      WF64615  22.634  11.826   3.305  0.2925 -0.1531  0.0470
    1WF      WF64616  15.110   4.269   9.442  0.1101  0.1391  0.0394
    1WF      WF64617  26.819   4.066   2.086  0.1153 -0.4785  0.1427
    1WF      WF64618  13.363   6.932   7.468  0.0708 -0.1206 -0.1233
    1WF      WF64619  10.731  19.903   8.219  0.1986  0.2841 -0.1290
    1WF      WF64620  15.879  10.337   7.948 -0.1664  0.2670  0.2841
    1WF      WF64621  20.637   1.218   2.557  0.1611 -0.1369  0.1379
    1WF      WF64622  27.615   0.014   9.942 -0.1624 -0.3015  0.0688
    1WF      WF64623   9.077   8.844   9.674  0.2831 -0.1372  0.1339
    1WF      WF64624  20.086   4.123   7.992 -0.0181 -0.2022 -0.0220
    1WF      WF64625  10.959   5.688   8.914  0.1158 -0.3558 -0.0449
    1WF      WF64626  21.467   8.434   6.338  0.3519 -0.2884  0.1619
    1WF      WF64627  26.354  18.109   2.851  0.3772 -0.0968 -0.1458
    1WF      WF64628  15.383   3.878   0.096  0.1452 -0.4775  0.0328
    1WF      WF64629  15.163   1.411   0.192  0.1180 -0.0093 -0.0566
    1WF      WF64630  11.943  21.629   8.506 -0.0297 -0.1988 -0.0533
    1WF      WF64631  19.339  10.256   9.398  0.0453  0.0358 -0.1980
    1WF      WF64632   6.605   5.963   2.101 -0.0527 -0.1385 -0.1769
    1WF      WF64633  15.091   2.760   9.320 -0.1201 -0.1486 -0.0954
    1WF      WF64634   1.596  10.027   8.285 -0.2917  0.1167 -0.2824
    1WF      WF64635  12.917   2.867   0.610 -0.0882 -0.0980  0.0648
    1WF      WF64636  18.939   7.802   9.848  0.3884 -0.2288 -0.0694
    1WF      WF64637  13.849  14.720   9.942 -0.1756 -0.0466  0.0784
    1WF      WF64638   9.874  13.495   0.440 -0.0830  0.3227 -0.2382
    1WF      WF64639   2.804   9.894   8.936 -0.1887 -0.1117  0.0915
    1WF      WF64640   9.024   2.725   9.151  0.2268  0.2783 -0.1317
    1WF      WF64641  15.836   4.933   0.257 -0.5635  0.2719 -0.0849
    1WF      WF64642  11.991   9.128   0.446  0.0173  0.0387 -0.0630
    1WF      WF64643   7.718   4.610   0.108 -0.0568  0.0808 -0.1837
    1WF      WF64644   5.966  17.602   2.729  0.2288 -0.3092 -0.0839
    1WF      WF64645  16.559   0.546   1.215  0.1279 -0.0260 -0.1661
    1WF      WF64646  17.413   7.848   8.985  0.0437  0.1375  0.0080
    1WF      WF64647  24.704  13.423   1.828 -0.2203  0.1674  0.0412
    1WF      WF64648   5.667  16.031   2.559  0.3198 -0.2566  0.0312
    1WF      WF64649   3.039  19.555   1.038  0.0600  0.0632 -0.0252
    1WF      WF64650  22.108   1.379   8.757  0.2869 -0.0018  0.1420
    1WF      WF64651   7.984  21.656   8.484 -0.3215  0.3066  0.1183
    1WF      WF64652  24.804  17.517   0.714 -0.0434 -0.1739 -0.1047
    1WF      WF64653  25.961  17.966   1.367  0.3412 -0.1002 -0.1459
    1WF      WF64654  23.239  15.341   1.642 -0.4073  0.3698 -0.1726
    1WF      WF64655  20.123  20.505   0.860 -0.0341  0.2371 -0.1548
    1WF      WF64656  23.641  10.787   9.182  0.0320  0.0425  0.0083
    1WF      WF64657   7.374  25.574   8.766 -0.1628  0.1699 -0.1860
    1WF      WF64658  10.451  20.004   9.404  0.3133  0.0531  0.2433
    1WF      WF64659  28.015   7.647   2.000 -0.1681  0.1592  0.0154
    1WF      WF64660  18.870  15.734   7.460 -0.2290  0.1588  0.0753
    1WF      WF64661  21.241  15.156   1.273  0.1255  0.2218  0.0939
    1WF      WF64662   4.274  19.650   0.924  0.1665  0.1039 -0.0818
    1WF      WF64663   3.688  15.710   8.485  0.2099 -0.3884  0.0072
    1WF      WF64664  16.021   0.142   8.785  0.3967  0.1068 -0.1095
    1WF      WF64665   8.485  13.161   1.910 -0.1896  0.1498  0.0417
    1WF      WF64666   2.283  10.625   9.373  0.4820 -0.0430 -0.2392
    1WF      WF64667  27.906  11.300   0.062 -0.1516 -0.0345  0.1106
    1WF      WF64668   8.093  23.612   9.630  0.1272  0.0863 -0.2526
    1WF      WF64669  10.287  13.676   7.377  0.3405  0.0698 -0.2866
    1WF      WF64670  13.654   7.473   7.672  0.0689  0.0297 -0.1036
    1WF      WF64671   6.169  16.963   9.010  0.2210 -0.1995  0.2271
    1WF      WF64672   6.555   2.918   7.756 -0.0668  0.1057 -0.0960
    1WF      WF64673   1.193  13.739   9.237 -0.1389 -0.0679  0.0014
    1WF      WF64674  16.353  14.023   9.437 -0.0122 -0.3874 -0.0963
    1WF      WF64675  26.426  18.582   2.923 -0.0559  0.0378 -0.3654
    1WF      WF64676  10.345  17.203   1.155 -0.1749 -0.0079  0.1975
    1WF      WF64677  12.035   6.400   1.463 -0.0661 -0.0200 -0.0028
    1WF      WF64678  13.967   7.131   8.679  0.1677 -0.1314 -0.0152
    1WF      WF64679   2.616  13.553   3.521  0.0841 -0.0789  0.1199
    1WF      WF64680  21.288   5.466   0.657  0.1265 -0.2173 -0.0837
    1WF      WF64681  15.664  22.911   9.730 -0.0958  0.0332  0.1916
    1WF      WF64682  15.605  15.608   8.618  0.1347 -0.0218 -0.0541
    1WF      WF64683  27.191   5.278   8.497 -0.0879  0.1542  0.0380
    1WF      WF64684  15.381   5.781   9.998  0.0404  0.0640  0.1823
    1WF      WF64685   6.480  10.336   9.240  0.2164 -0.0129 -0.0508
    1WF      WF64686   0.660  24.472   7.763 -0.3250 -0.0969  0.2735
    1WF      WF64687  21.298  22.849   8.798 -0.0988 -0.0566 -0.0704
    1WF      WF64688  18.601  28.383   8.707  0.0396 -0.1893  0.0499
    1WF      WF64689   9.841  17.299   1.047 -0.0255 -0.1574  0.1638
    1WF      WF64690   6.172  20.963   9.775 -0.2670  0.0513 -0.0683
    1WF      WF64691   0.189  13.704   0.091 -0.1248  0.0240 -0.0434
    1WF      WF64692  24.649  23.804   3.101  0.3721  0.1999  0.0948
    1WF      WF64693   2.697   0.994   3.677 -0.0792  0.2224  0.1297
    1WF      WF64694  21.306   7.307   8.468 -0.0631 -0.3414 -0.0874
    1WF      WF64695  26.166  16.567   2.756 -0.0991  0.0547  0.1016
    1WF      WF64696  15.860   7.292   7.486  0.0878  0.2584 -0.0447
    1WF      WF64697  11.260  27.951   3.426  0.1967  0.1690 -0.1211
    1WF      WF64698  17.729   8.540   6.028  0.0574 -0.2479 -0.1621
    1WF      WF64699  26.876   6.638   8.381  0.1554  0.1812  0.0395
    1WF      WF64700  26.346  27.262   9.251 -0.2598 -0.0838 -0.1717
    1WF      WF64701  18.258  15.227   1.170 -0.3330 -0.1438  0.1784
    1WF      WF64702   8.381  10.721   1.102  0.0638  0.1378  0.2012
    1WF      WF64703  25.004   6.845   1.932  0.0903  0.0429 -0.2045
    1WF      WF64704   2.945   5.962   9.462  0.0405 -0.1475  0.1275
    1WF      WF64705  22.849  21.304   0.020  0.1545  0.0709  0.1471
    1WF      WF64706  28.860  13.964   7.650 -0.0233 -0.2979 -0.3089
    1WF      WF64707  19.795  13.369   9.757  0.1576 -0.0668 -0.0038
    1WF      WF64708  23.648  21.234   2.206 -0.2354  0.1192 -0.0335
    1WF      WF64709  23.823  24.743   3.558  0.3559 -0.0607 -0.0934
    1WF      WF64710  24.576  12.444   3.690  0.2204 -0.1619 -0.2300
    1WF      WF64711   3.018   0.263   2.161 -0.3975 -0.2982 -0.2909
    1WF      WF64712  26.357   9.574   0.783  0.0796 -0.0324 -0.1984
    1WF      WF64713   3.635   8.491   0.189 -0.0015 -0.1808 -0.0216
    1WF      WF64714  13.442  18.247   7.993  0.0423  0.0370  0.2412
    1WF      WF64715  25.121  23.855   3.894 -0.1562 -0.1963 -0.1046
    1WF      WF64716  17.265  18.098   9.794  0.3228  0.0939 -0.1956
    1WF      WF64717  27.048  21.995   2.744  0.1404 -0.1068 -0.3317
    1WF      WF64718   2.313  18.128   1.951  0.1818  0.4668 -0.2055
    1WF      WF64719  16.639  19.706   8.339 -0.0227  0.1106  0.0192
    1WF      WF64720  19.367   4.388   0.941  0.1270 -0.2276  0.1928
    1WF      WF64721   9.980  23.152   2.763  0.0009  0.4249 -0.1531
    1WF      WF64722   9.028   5.784   2.847 -0.0756 -0.0857  0.1889
    1WF      WF64723  17.658   6.375   0.037 -0.0533 -0.1296 -0.2712
    1WF      WF64724  17.398  20.855   0.170  0.3344 -0.2391  0.2622
    1WF      WF64725  14.028  10.745   0.262  0.0021  0.0393  0.1368
    1WF      WF64726  28.439  23.680   2.418 -0.3589  0.0859  0.1291
    1WF      WF64727  27.628  21.890   0.668 -0.0448 -0.0572 -0.0274
    1WF      WF64728   2.136  19.964   8.173  0.0053 -0.0597  0.0249
    1WF      WF64729  24.543  13.762   8.623 -0.0748 -0.3481  0.1445
    1WF      WF64730  22.660  25.140   9.798 -0.3283  0.0762 -0.1127
    1WF      WF64731  12.700   2.552   0.266  0.1701 -0.2757 -0.0054
    1WF      WF64732  14.700  15.054   7.203 -0.0714 -0.0600 -0.2006
    1WF      WF64733   8.230  27.080   0.716  0.1045  0.2479  0.1578
    1WF      WF64734  15.293   2.979   8.573 -0.1211 -0.3453 -0.3004
    1WF      WF64735  27.890  19.884   0.244 -0.1561 -0.2813  0.1162
    1WF      WF64736   5.598  19.563   1.693 -0.0555 -0.2636 -0.0358
    1WF      WF64737  18.549   3.870   9.779  0.1045 -0.1304 -0.0398
    1WF      WF64738  27.591  13.183   8.966 -0.2986  0.1933  0.0785
    1WF      WF64739  16.135  10.370   7.493  0.1755 -0.0349 -0.0377
    1WF      WF64740  23.027  22.300   9.569 -0.2170 -0.0706 -0.0628
    1WF      WF64741   5.254  27.765   8.525  0.1263 -0.1618 -0.1398
    1WF      WF64742  25.230   6.547   0.349 -0.0546 -0.0612 -0.1932
    1WF      WF64743  26.949  27.385   0.801 -0.1097  0.1131 -0.0441
    1WF      WF64744   2.929  13.855   3.738  0.1683 -0.0934 -0.0695
    1WF      WF64745  15.471  25.027   0.371 -0.2417 -0.1130  0.0365
    1WF      WF64746  17.788   0.789   8.128  0.2811  0.2738 -0.0879
    1WF      WF64747   0.508  21.827   0.583 -0.3338 -0.0867 -0.0960
    1WF      WF64748   8.286   0.499   1.932 -0.0569 -0.2298  0.0976
    1WF      WF64749   1.602  16.886   8.585  0.3040  0.1605 -0.0041
    1WF      WF64750  23.980   9.100   0.023  0.0143  0.1008  0.0921
    1WF      WF64751   3.641   8.625   9.321  0.0454  0.0389 -0.0869
    1WF      WF64752  23.590  15.130   1.954 -0.2578  0.0966 -0.1720
    1WF      WF64753  18.529  14.848   0.875 -0.0998 -0.0291 -0.1383
    1WF      WF64754  22.072  26.333   0.529 -0.4250  0.1612 -0.0045
    1WF      WF64755  26.131  14.222   8.418 -0.2725 -0.2154 -0.3954
    1WF      WF64756   7.726   9.249   8.069 -0.2126  0.1699  0.2593
    1WF      WF64757   4.905  12.717   2.423  0.0271  0.1943  0.2394
    1WF      WF64758  15.151  11.073   7.038 -0.0098  0.2446 -0.0909
    1WF      WF64759  27.394  12.076   8.052 -0.2465  0.1092 -0.0403
    1WF      WF64760  23.504  28.242   8.508 -0.0961 -0.4100 -0.1552
    1WF      WF64761  16.567  19.733   0.999 -0.0004 -0.2914 -0.3438
    1WF      WF64762  24.398  28.219   9.588  0.1426  0.2507  0.0079
    1WF      WF64763   4.813  11.414   1.518 -0.3249 -0.1858  0.0037
    1WF      WF64764  22.733  23.846   0.430  0.2570 -0.1973  0.1411
    1WF      WF64765  25.084  14.617   9.672  0.0332  0.0114  0.0661
    1WF      WF64766  28.145  27.265   1.403  0.0951 -0.1043  0.0180
    1WF      WF64767  28.745  21.117   2.223  0.2953  0.2967  0.2333
    1WF      WF64768   8.106  22.031   7.952  0.1350  0.0233 -0.0831
    1WF      WF64769  18.991  26.659   1.472  0.5046  0.0863  0.3661
    1WF      WF64770  15.158  25.481   1.706  0.0515 -0.1478  0.0009
    1WF      WF64771   1.299  28.233   0.968  0.0746  0.3147  0.2236
    1WF      WF64772  20.801   6.423   5.972 -0.0580  0.1920 -0.0114
    1WF      WF64773   9.165   9.548   9.089  0.2562  0.2883 -0.2471
    1WF      WF64774  26.524   0.529   2.228 -0.0409  0.2479  0.3978
    1WF      WF64775  27.229   7.303   0.209  0.2454 -0.0723 -0.1705
    1WF      WF64776   9.912  14.910   0.701  0.1171 -0.0486 -0.0192
    1WF      WF64777   4.232  15.819   1.310 -0.2816  0.0031  0.1516
    1WF      WF64778  16.150   9.238   9.572  0.0093  0.0112  0.2000
    1WF      WF64779  26.642   1.288   1.460  0.0090 -0.1514 -0.1850
    1WF      WF64780  27.827  11.154   9.511  0.1029 -0.1573  0.0068
    1WF      WF64781   6.720   9.715   1.403 -0.2503 -0.0126 -0.0980
    1WF      WF64782  22.250  11.187   1.458 -0.2946 -0.1250  0.1291
    1WF      WF64783  15.405  17.772   8.456  0.0216 -0.0140 -0.2070
    1WF      WF64784   3.314   4.957   2.946  0.0927  0.0346  0.0444
    1WF      WF64785   3.272  24.992   0.309  0.2768 -0.0661 -0.3085
    1WF      WF64786  26.199  10.777   1.693 -0.1530 -0.1895  0.1030
    1WF      WF64787  10.936   8.193   0.968  0.1836  0.2530  0.1430
    1WF      WF64788  17.457   6.213   8.424 -0.0229 -0.1033 -0.4918
    1WF      WF64789   5.494  12.572   8.091 -0.2507  0.1742 -0.3178
    1WF      WF64790  27.084   7.708   9.969  0.0558 -0.2312 -0.0575
    1WF      WF64791  20.166  23.293   0.404  0.2241  0.1728  0.1247
    1WF      WF64792  18.158  26.516   6.848  0.0496  0.1641 -0.0001
    1WF      WF64793  28.270  14.211   8.449 -0.5508 -0.0099  0.0518
    1WF      WF64794  15.299   2.551   1.263  0.0544  0.1058 -0.0745
    1WF      WF64795  26.571  18.448   0.874 -0.1783 -0.3011  0.0390
    1WF      WF64796  13.914  24.890   3.278 -0.0661  0.1371  0.1478
    1WF      WF64797   2.244  20.616   8.974  0.2078  0.0019 -0.4103
    1WF      WF64798  19.355  18.071   3.044 -0.0752 -0.2338  0.0197
    1WF      WF64799  25.357   0.528   1.555 -0.1432  0.1775 -0.1087
    1WF      WF64800  27.458  11.399   0.151 -0.4200  0.0108  0.1441
    1WF      WF64801  21.329  27.690   2.021 -0.1638 -0.3869  0.3754
    1WF      WF64802  14.066   1.014   1.356  0.1445  0.2883 -0.1522
    1WF      WF64803   9.199  13.774   9.687 -0.1400 -0.0493  0.0589
    1WF      WF64804   1.847  12.268   8.662 -0.0683  0.1696  0.0050
    1WF      WF64805  13.577  18.730   7.711  0.1582 -0.1739  0.2082
    1WF      WF64806   1.683  17.415   8.430 -0.1447 -0.0841 -0.3059
    1WF      WF64807  26.318  15.121   3.903  0.0902  0.2119  0.0046
    1WF      WF64808  20.173   2.905   8.138  0.4043  0.0623 -0.2291
    1WF      WF64809   5.686  16.303   0.060 -0.0240 -0.4522  0.2419
    1WF      WF64810   7.720  15.690   9.207 -0.0131  0.4373  0.0622
    1WF      WF64811  24.561  15.347   8.595 -0.0268 -0.4031  0.0576
    1WF      WF64812  17.677  24.648   9.267 -0.0043  0.0081 -0.2750
    1WF      WF64813  14.076  12.313   8.090 -0.1601  0.2341 -0.0605
    1WF      WF64814   2.184   1.853   2.644  0.0447  0.3028 -0.0404
    1WF      WF64815  27.427   1.832   8.657  0.0523 -0.0891  0.0038
    1WF      WF64816  28.540  11.007   7.292  0.1120 -0.1573  0.1456
    1WF      WF64817  18.851  21.492   6.421 -0.0243  0.3770 -0.0084
    1WF      WF64818  11.271  27.007   0.628 -0.0115 -0.0163 -0.0540
    1WF      WF64819   1.813  14.855   8.882  0.0979  0.2136  0.1040
    1WF      WF64820  21.050  22.240   9.554 -0.1847  0.0369  0.0962
    1WF      WF64821   2.590  16.105   6.955  0.0980  0.0239  0.1971
    1WF      WF64822   9.715   0.910   8.999 -0.2215  0.2654 -0.0476
    1WF      WF64823  13.467  13.313   9.182 -0.1691 -0.2895  0.0354
    1WF      WF64824  27.455  18.146   9.272  0.0696  0.1085 -0.4012
    1WF      WF64825   9.276   3.998   7.576  0.0641 -0.1129 -0.1478
    1WF      WF64826  12.583  23.483   7.722 -0.3327 -0.1308  0.2648
    1WF      WF64827  26.539   6.656   2.064  0.0031 -0.1837 -0.2173
    1WF      WF64828  20.549  11.416   0.934  0.0269 -0.1841  0.0939
    1WF      WF64829   6.923  24.677   0.774  0.1669  0.1597  0.1745
    1WF      WF64830  27.773  26.175   1.956  0.1306 -0.0371  0.1990
    1WF      WF64831   1.003  19.691   9.619  0.2769 -0.1901  0.1080
    1WF      WF64832   0.139  18.811   2.715  0.0989  0.1655  0.0331
    1WF      WF64833  21.397  21.816   9.511 -0.1895 -0.5090 -0.0656
    1WF      WF64834   7.254  21.694   9.466  0.2214  0.1268  0.0044
    1WF      WF64835   5.778  18.110   8.399 -0.2002 -0.0574 -0.1172
    1WF      WF64836  22.760  19.110   7.550 -0.1892 -0.0436 -0.0939
    1WF      WF64837  26.431  13.403   1.844 -0.1121  0.1140  0.0969
    1WF      WF64838  27.487   8.040   9.707  0.0246 -0.2625  0.3564
    1WF      WF64839  25.951  16.799   7.225 -0.1063 -0.1145  0.1095
    1WF      WF64840  11.398   8.687   1.034 -0.2656  0.0898 -0.1727
    1WF      WF64841   2.131   7.952   0.641  0.1580 -0.0961  0.0147
    1WF      WF64842  28.616   8.804   2.417  0.2738  0.0875 -0.0261
    1WF      WF64843  23.795   4.189   8.876 -0.0404  0.0211  0.0445
    1WF      WF64844   3.104  28.796   2.511 -0.2175  0.1267  0.1006
    1WF      WF64845  11.428   7.028   7.464  0.0909 -0.1666 -0.1404
    1WF      WF64846  22.256  12.931   1.805 -0.2125  0.0212  0.1380
    1WF      WF64847   2.776  19.208   1.352  0.2915 -0.3755 -0.1721
    1WF      WF64848  26.400  21.780   8.014 -0.0314  0.0696  0.0464
    1WF      WF64849  24.566  12.531   6.722 -0.0048  0.0404 -0.0002
    1WF      WF64850   0.061  28.343   2.015  0.1532  0.0404 -0.0320
    1WF      WF64851  10.159  25.112   0.398  0.4606  0.1980 -0.1606
    1WF      WF64852  18.635  25.278   0.435 -0.1223 -0.1143 -0.0469
    1WF      WF64853  18.462  26.062   9.842 -0.1538  0.0177 -0.1301
    1WF      WF64854  12.159   5.942   7.706  0.2980  0.1140 -0.0850
    1WF      WF64855  24.091  26.706   1.577 -0.1148  0.1727 -0.0341
    1WF      WF64856  13.377  24.674   8.719  0.0820  0.1896 -0.0932
    1WF      WF64857  18.822  17.462   8.289 -0.1036 -0.0715  0.1139
    1WF      WF64858  14.288  25.098   8.507 -0.0228  0.0035  0.2271
    1WF      WF64859  24.173   5.640   8.730 -0.4262 -0.0221  0.3897
    1WF      WF64860  17.273  15.708   9.636  0.1450  0.3785  0.1312
    1WF      WF64861   4.602   2.971   2.124 -0.0335 -0.1532 -0.3668
    1WF      WF64862   0.201  16.134   9.881 -0.3994  0.1528 -0.2248
    1WF      WF64863  24.669   8.238   1.286  0.1849  0.0645  0.1248
    1WF      WF64864  10.046  21.641   0.270  0.3095  0.0610  0.1231
    1WF      WF64865  18.295   7.758   1.175  0.2557  0.1878  0.1138
    1WF      WF64866  17.715  19.413   8.889 -0.2932 -0.3217  0.0135
    1WF      WF64867  12.487  16.508   8.520 -0.0902  0.1635  0.0462
    1WF      WF64868   3.127  11.718   0.515 -0.2117 -0.0506 -0.3273
    1WF      WF64869   8.061  26.516   1.485  0.0327  0.2360 -0.3392
    1WF      WF64870  28.674  24.159   0.806 -0.1780  0.0105  0.0176
    1WF      WF64871  17.527  12.732   6.249  0.2594  0.2271 -0.1355
    1WF      WF64872  23.477  25.222   8.425 -0.0974  0.3189  0.1289
    1WF      WF64873   7.261  24.302   0.962  0.1112  0.1017  0.0455
    1WF      WF64874   9.923  20.583   0.850 -0.0233  0.2905 -0.2096
    1WF      WF64875   1.859   4.874   3.026 -0.0417 -0.0125 -0.1420
    1WF      WF64876   4.627   3.016   1.583  0.1360  0.0972 -0.3883
    1WF      WF64877   4.691  22.574   2.349 -0.2956  0.4506  0.2341
    1WF      WF64878  25.940  19.968   1.130  0.4356 -0.2202 -0.1848
    1WF      WF64879  17.442  27.899   9.351  0.0688 -0.3174 -0.2360
    1WF      WF64880  27.917   0.922   2.020  0.0984 -0.3846 -0.0438
    1WF      WF64881  27.568   9.399   9.725 -0.0024 -0.2225  0.3728
    1WF      WF64882  16.369  18.255   6.145  0.1266 -0.1486  0.0209
    1WF      WF64883  12.129   8.746   7.375 -0.1519 -0.2195 -0.0571
    1WF      WF64884   5.220  25.198   0.036  0.0824 -0.2545  0.0484
    1WF      WF64885  14.294  19.069   1.794 -0.0795 -0.0933 -0.1812
    1WF      WF64886  24.489  27.542   8.848  0.2810 -0.0463 -0.0913
    1WF      WF64887   1.662   3.267   1.990 -0.3312  0.0587  0.1603
    1WF      WF64888  23.187   3.852   1.178 -0.1596 -0.0061  0.1086
    1WF      WF64889  17.135  25.066   0.834  0.0278 -0.0548 -0.0965
    1WF      WF64890  23.156   6.369   0.328  0.1310 -0.1964  0.0626
    1WF      WF64891   8.651  17.673   7.647  0.2297 -0.2899  0.0399
    1WF      WF64892   1.625  27.918   0.613  0.0304  0.0003  0.3341
    1WF      WF64893   3.675   7.104   9.056 -0.1540 -0.1587  0.3294
    1WF      WF64894   3.942  17.733   1.210  0.3441 -0.0155 -0.4527
    1WF      WF64895  13.942  21.750   9.394  0.2229 -0.1699 -0.1747
    1WF      WF64896   1.907   3.384   4.197  0.0959  0.1489  0.0733
    1WF      WF64897   4.588  19.375   0.536  0.2204 -0.1690 -0.1174
    1WF      WF64898   8.698  18.352   1.007 -0.2231  0.2660  0.3492
    1WF      WF64899  12.388   2.299   8.568 -0.0207 -0.1062 -0.1569
    1WF      WF64900   0.161  14.849   1.301  0.0372 -0.1244  0.2203
    1WF      WF64901   4.017  14.357   8.756  0.0238  0.0424 -0.0803
    1WF      WF64902   6.465  17.081   7.386 -0.0837 -0.1504  0.2295
    1WF      WF64903  12.163  10.692   5.153  0.3710 -0.2299  0.2077
    1WF      WF64904  13.224   3.508   7.670 -0.0210  0.1433 -0.2705
    1WF      WF64905  25.735  21.896   7.927 -0.0004  0.0249  0.2090
    1WF      WF64906   3.552  10.317   7.895 -0.2008  0.0448  0.1284
    1WF      WF64907  19.601  15.738   9.927 -0.1506  0.2491  0.1409
    1WF      WF64908  26.716  28.514   1.506  0.1178  0.3650 -0.2817
    1WF      WF64909  23.935  13.216   0.289 -0.0533  0.1518 -0.1408
    1WF      WF64910  14.009   0.251   8.430 -0.0043 -0.1072  0.2296
    1WF      WF64911   3.507   8.646   1.086  0.0245 -0.0855  0.3596
    1WF      WF64912  16.475  22.700   7.343  0.0993 -0.0321 -0.1743
    1WF      WF64913   3.215  11.317   0.753 -0.0356  0.1793  0.3828
    1WF      WF64914   4.153  23.762   9.831  0.0313 -0.1323  0.0436
    1WF      WF64915  22.199  14.485   8.497 -0.0992  0.0331  0.3260
    1WF      WF64916   7.716  25.032   9.897  0.0429 -0.0703 -0.0541
    1WF      WF64917  19.455  17.570   2.106  0.2297  0.1413 -0.1120
    1WF      WF64918  15.343  17.827   1.092  0.1715 -0.0986  0.0166
    1WF      WF64919   4.517  14.170   0.469  0.2057 -0.0170  0.1133
    1WF      WF64920  11.568   5.396   7.925  0.0872 -0.0530  0.1789
    1WF      WF64921  27.608   5.151   9.306 -0.0642 -0.1206 -0.2667
    1WF      WF64922  27.599  20.669   1.415  0.0694 -0.1690 -0.1165
    1WF      WF64923   6.518  14.818   9.097  0.0479 -0.0789  0.0531
    1WF      WF64924  26.110   2.915   7.940  0.1463 -0.1594 -0.0724
    1WF      WF64925  11.720   8.893   0.733  0.1403  0.2208 -0.0898
    1WF      WF64926  24.784  27.601   7.470  0.1418 -0.0926 -0.3279
    1WF      WF64927   4.617   1.511   1.112  0.1305 -0.0026 -0.0211
    1WF      WF64928   3.072  19.624   7.067  0.3539  0.0857  0.1022
    1WF      WF64929   1.800   1.257   0.506 -0.0505  0.0678 -0.1629
    1WF      WF64930  12.724   3.834   9.165  0.0090 -0.0636  0.0137
    1WF      WF64931  26.957  18.779   9.697  0.0290 -0.2161 -0.0931
    1WF      WF64932   9.099   4.215   0.637  0.0428  0.0413  0.1071
    1WF      WF64933  18.613   5.195   8.014  0.0904  0.0447  0.0427
    1WF      WF64934   8.942   4.757   1.182 -0.1412 -0.0693  0.1701
    1WF      WF64935  26.472   7.266   4.193 -0.2187  0.0025  0.1889
    1WF      WF64936  13.369   9.152   1.101 -0.1738  0.3399 -0.0629
    1WF      WF64937   5.245  14.106   3.184  0.0024 -0.1353  0.0018
    1WF      WF64938  18.174  18.306   9.257 -0.0033 -0.1888 -0.0196
    1WF      WF64939   1.755   4.388   3.119  0.0710  0.0197  0.1022
    1WF      WF64940  21.961   5.139   0.006 -0.0463 -0.1233  0.0788
    1WF      WF64941   1.679  20.941   9.045 -0.2808 -0.2583 -0.0958
    1WF      WF64942   6.421  24.631   1.030 -0.0189  0.1040  0.2830
    1WF      WF64943  11.012   3.932   7.794  0.1512  0.1847 -0.0432
    1WF      WF64944   6.685   1.982   1.886 -0.0974  0.0506 -0.0893
    1WF      WF64945   4.510   9.615   8.570  0.0955  0.1396 -0.1788
    1WF      WF64946  24.670  13.301   8.776  0.1299 -0.2275 -0.2757
    1WF      WF64947  18.621  15.621   1.442 -0.0470  0.1262  0.0026
    1WF      WF64948  28.639  12.599   0.698 -0.2200 -0.0609 -0.1840
    1WF      WF64949   1.516  12.649   1.025  0.0332 -0.2096 -0.0301
    1WF      WF64950   1.705  24.577   2.494  0.1049 -0.4035  0.3305
    1WF      WF64951  16.285  22.157   7.480  0.1538 -0.0578  0.1971
    1WF      WF64952  10.642  18.910   2.251  0.1247  0.3289  0.0095
    1WF      WF64953  12.382  16.384   8.051 -0.1136  0.0020 -0.0300
    1WF      WF64954   3.468  26.290   3.687  0.2790 -0.1231 -0.2487
    1WF      WF64955  21.438   6.043   7.818 -0.0005  0.0766  0.6854
    1WF      WF64956   4.696   2.226   2.149  0.0175  0.2626  0.0943
    1WF      WF64957  26.930  12.432   9.501  0.0448 -0.3823 -0.4563
    1WF      WF64958   8.924   0.009   8.774 -0.1533 -0.1766  0.2083
    1WF      WF64959  20.533  25.190   9.718 -0.1141  0.0510  0.0388
    1WF      WF64960  17.446  14.502   6.609  0.1212  0.1775  0.1774
    1WF      WF64961   3.676   2.056   1.688 -0.1697 -0.1603  0.3294
    1WF      WF64962   2.239  25.252   8.983 -0.5061 -0.2100 -0.2157
    1WF      WF64963  15.066  25.023   0.621  0.4053  0.0876  0.1318
    1WF      WF64964   0.062   4.404   9.963 -0.1112 -0.1135 -0.1544
    1WF      WF64965  25.535  19.014   0.611 -0.2807 -0.4518 -0.1001
    1WF      WF64966  21.005   1.581   0.543 -0.2432  0.2115 -0.1474
    1WF      WF64967  19.380  12.965   8.340  0.1515  0.0197 -0.1764
    1WF      WF64968   3.405  28.806   3.395  0.3013 -0.0335 -0.0201
    1WF      WF64969   9.395   9.271   8.751  0.1746  0.1179 -0.1453
    1WF      WF64970  11.605   4.508   9.211  0.1298 -0.0133 -0.2565
    1WF      WF64971  23.778  15.503   1.681  0.0874  0.3044  0.2217
    1WF      WF64972  18.475  10.115   7.682 -0.2502  0.0108 -0.0559
    1WF      WF64973  18.131  25.339   1.975 -0.0940  0.2334 -0.0799
    1WF      WF64974  13.021  21.080   1.543  0.1756  0.0572 -0.0358
    1WF      WF64975  11.385   0.416   0.362 -0.0102 -0.6264 -0.3973
    1WF      WF64976   1.477  17.759   0.977 -0.4622  0.0415  0.0367
    1WF      WF64977  10.404  16.373   9.701 -0.3181 -0.0654 -0.2500
    1WF      WF64978  21.405  12.991   9.323  0.1080 -0.3811  0.1701
    1WF      WF64979  25.456  28.448   7.567 -0.1350  0.0974 -0.0378
    1WF      WF64980  21.786  12.493   3.588  0.1554 -0.0786  0.2887
    1WF      WF64981  20.853   1.970   9.706 -0.0175  0.1862  0.2019
    1WF      WF64982   1.499  14.263   1.576  0.0466  0.1579 -0.0365
    1WF      WF64983   7.215   3.469   7.435  0.0136  0.2924 -0.3851
    1WF      WF64984   9.402   3.592   1.414  0.0831  0.2978 -0.0122
    1WF      WF64985  26.690  24.294   7.755  0.0230  0.0628 -0.0530
    1WF      WF64986  16.501   0.210   7.888 -0.0360 -0.1959  0.3656
    1WF      WF64987  13.322  19.564   9.181 -0.2859  0.0366 -0.1253
    1WF      WF64988   5.926   0.149   9.930  0.1598  0.2092 -0.1491
    1WF      WF64989   2.235   6.165   1.196 -0.0155  0.0371  0.0262
    1WF      WF64990  26.771   0.054   9.601 -0.0362 -0.0490 -0.1352
    1WF      WF64991  19.896  15.475   9.674 -0.0962  0.0504 -0.3658
    1WF      WF64992  13.533  19.126   8.159 -0.0117 -0.2115 -0.1061
    1WF      WF64993  23.285  23.777   0.368  0.2170  0.2181  0.2101
    1WF      WF64994  16.096  11.379   8.180  0.0585 -0.3307  0.4992
    1WF      WF64995  20.354  23.311   0.888  0.0721  0.1737  0.2385
    1WF      WF64996   2.040   1.544   3.031  0.0937 -0.0259 -0.0441
    1WF      WF64997   0.170   1.033   9.905  0.2198 -0.0963 -0.2132
    1WF      WF64998  16.912  21.318   8.969 -0.0402  0.0429 -0.0139
    1WF      WF64999   5.026  10.653   8.223 -0.1359 -0.0302  0.4172
    1WF      WF65000  22.180  18.105   7.947 -0.2134  0.0197  0.0431
    1WF      WF65001   5.352  25.734   0.153  0.0635 -0.1146  0.1414
    1WF      WF65002  18.653  10.558   2.448  0.0265 -0.0909  0.2127
    1WF      WF65003  26.670   1.577   1.887  0.1837 -0.1943  0.1984
    1WF      WF65004   5.941   9.676   8.453 -0.5137 -0.1141 -0.0216
    1WF      WF65005   7.717   5.414   7.664 -0.1053 -0.0463  0.1642
    1WF      WF65006  15.423  27.402   0.292  0.3403  0.3807 -0.2064
    1WF      WF65007   0.976   8.840   7.228 -0.4108 -0.1615 -0.1334
    1WF      WF65008   2.594  11.929   8.168  0.0268 -0.1592 -0.0710
    1WF      WF65009   4.795  14.128   3.009 -0.0121 -0.1003  0.0570
    1WF      WF65010  25.537   3.498   1.507  0.1720 -0.1542  0.1369
    1WF      WF65011   3.474  14.340   8.024 -0.1363 -0.0868 -0.2391
    1WF      WF65012   2.782  13.613   9.197  0.0857 -0.0835  0.0912
    1WF      WF65013  20.313  19.334   0.042 -0.1527 -0.0130 -0.1839
    1WF      WF65014  28.528  27.262   1.822 -0.0363  0.2932  0.0282
    1WF      WF65015   3.774  19.189   9.419 -0.2382 -0.0188  0.0964
    1WF      WF65016  19.547   6.177   6.127 -0.3134  0.2849 -0.2168
    1WF      WF65017  17.619   7.981   8.086  0.2672  0.1172 -0.0350
    1WF      WF65018  20.536  26.555   8.567  0.0377 -0.0759  0.0341
    1WF      WF65019  11.175   7.775   0.964 -0.0338 -0.2395  0.1981
    1WF      WF65020   3.299  18.425   0.286  0.0066  0.2086 -0.1522
    1WF      WF65021   0.270  26.140   1.945 -0.0918  0.0873  0.0991
    1WF      WF65022  14.243  11.556   8.683  0.4371 -0.0268 -0.0211
    1WF      WF65023   1.625  23.808   8.946 -0.2785 -0.2254  0.1914
    1WF      WF65024  24.654  26.493   2.498  0.1558  0.1511  0.0851
    1WF      WF65025  26.371  23.357   3.365 -0.1675 -0.4867 -0.1465
    1WF      WF65026  26.935  14.955   7.939  0.1870 -0.1380 -0.2197
    1WF      WF65027  25.334  22.058   8.710 -0.0361 -0.0495  0.2239
    1WF      WF65028  27.535   5.356   4.267 -0.0724 -0.0484 -0.0039
    1WF      WF65029   7.749   2.258   1.001  0.2858 -0.0933  0.1650
    1WF      WF65030  13.632  28.130   6.716 -0.2589  0.2109  0.3433
    1WF      WF65031  28.001   3.228   0.369  0.0951  0.1504 -0.0238
    1WF      WF65032  24.744   5.236   7.713  0.1961 -0.0227  0.4996
    1WF      WF65033   3.700  24.828   9.182  0.2617 -0.4034 -0.0882
    1WF      WF65034  21.264  16.908   9.197  0.0629  0.0211 -0.0692
    1WF      WF65035  17.975   1.609   0.931 -0.2995  0.1376  0.1259
    1WF      WF65036  23.099  16.511   8.677  0.1276  0.0549 -0.1183
    1WF      WF65037  27.602   2.952   0.736  0.0466 -0.0541 -0.1352
    1WF      WF65038   4.666  10.774   9.446  0.1007  0.0823  0.1842
    1WF      WF65039  19.016   4.933   9.952  0.0445  0.2729 -0.1505
    1WF      WF65040   9.245   9.178   7.953  0.0806  0.0937 -0.0552
    1WF      WF65041  17.742  24.203   9.057  0.0353 -0.1346  0.2569
    1WF      WF65042   0.358   0.942   0.347  0.1599 -0.2197 -0.2345
    1WF      WF65043  15.669   1.110   7.571 -0.2115  0.2723  0.1254
    1WF      WF65044  26.532  27.421   2.259 -0.1977 -0.0453  0.4806
    1WF      WF65045   6.878  18.182   1.541 -0.2504 -0.0333 -0.0525
    1WF      WF65046   5.824  19.785   9.102  0.1452  0.4088 -0.0921
    1WF      WF65047   8.602  19.994   0.384  0.1726  0.0378  0.0222
    1WF      WF65048   3.368   8.524   9.734  0.2026 -0.1622  0.0873
    1WF      WF65049  25.694   0.618   9.381 -0.0360 -0.3783  0.3546
    1WF      WF65050   8.104  22.200   8.418  0.1426  0.0860  0.0627
    1WF      WF65051   4.798  22.780   1.875  0.0508  0.1223 -0.0259
    1WF      WF65052  10.353  28.835   8.553 -0.2068 -0.0073  0.1592
    1WF      WF65053   1.237  27.741   0.912 -0.1267  0.1600 -0.0754
    1WF      WF65054   4.971  12.317   1.052  0.2016  0.3324  0.1429
    1WF      WF65055   3.491  21.555   0.339 -0.1447  0.2270 -0.1911
    1WF      WF65056   7.796  21.686   0.881 -0.0441  0.0289 -0.1867
    1WF      WF65057   9.768  10.824   8.054  0.0120  0.3194  0.3320
    1WF      WF65058  26.054  13.012   2.644  0.0842 -0.0482  0.1335
    1WF      WF65059  16.634  24.216   1.860  0.0207 -0.1000 -0.4058
    1WF      WF65060   4.466  14.438   9.474 -0.1216 -0.1583  0.2351
    1WF      WF65061  12.127   2.031   0.710 -0.0879 -0.0930  0.2082
    1WF      WF65062  16.046   8.874   9.903 -0.1496 -0.0827 -0.0260
    1WF      WF65063  28.835   7.189   0.436  0.4785  0.1289 -0.0573
    1WF      WF65064   6.770   3.805   2.155  0.1892  0.0897 -0.0649
    1WF      WF65065  24.042  15.996   1.870 -0.1229  0.0864  0.0135
    1WF      WF65066  12.835   4.660   6.590 -0.0075 -0.4499 -0.2791
    1WF      WF65067  27.032   5.991   8.619  0.1127  0.1056  0.1038
    1WF      WF65068  16.777  14.120   0.679 -0.1320 -0.0776  0.0790
    1WF      WF65069  21.400   9.571   7.417 -0.3547 -0.1248 -0.4758
    1WF      WF65070  22.340  23.001   7.133  0.0876 -0.0277 -0.1581
    1WF      WF65071   1.746  22.467   9.817  0.2576  0.0200 -0.1784
    1WF      WF65072  23.571  15.635   9.280 -0.0947 -0.2747 -0.0334
    1WF      WF65073   4.495  26.150   9.038  0.0860  0.1973  0.3653
    1WF      WF65074  14.049  14.546   9.442  0.2244 -0.4233  0.0098
    1WF      WF65075   4.952  21.625   0.741  0.1381  0.0700  0.2753
    1WF      WF65076  17.897  12.027   0.866 -0.0028 -0.2159 -0.0937
    1WF      WF65077  14.489  13.477   9.120 -0.1914  0.0852  0.1230
    1WF      WF65078  10.160  18.967   1.974 -0.1771 -0.0751 -0.3200
    1WF      WF65079  22.511  12.559   2.148  0.1966  0.0061 -0.1450
    1WF      WF65080   9.790  11.216   9.053 -0.3176  0.1441 -0.0993
    1WF      WF65081  22.334   4.744   0.125 -0.0214  0.3635  0.1441
    1WF      WF65082   1.981   4.311   0.320  0.0302 -0.1284 -0.1573
    1WF      WF65083  27.730  24.833   2.057 -0.0058  0.1453  0.1852
    1WF      WF65084  10.956   4.409   1.977  0.3608  0.0799  0.2745
    1WF      WF65085  21.837  28.516   7.263  0.2184 -0.2630 -0.1977
    1WF      WF65086   9.366   3.074   0.321  0.4211  0.1012  0.2808
    1WF      WF65087  15.124  11.289   7.757 -0.0650 -0.2670  0.1475
    1WF      WF65088   0.225  22.468   9.329 -0.1581 -0.2692 -0.2129
    1WF      WF65089  15.229  20.866   1.886 -0.1231  0.0712 -0.3113
    1WF      WF65090  25.036  26.984   2.397  0.1508  0.0886  0.0722
    1WF      WF65091  16.630  28.236   6.968 -0.1276 -0.2102 -0.3501
    1WF      WF65092  28.197  27.495   0.954  0.2526 -0.0465 -0.1291
    1WF      WF65093  11.711  25.140   1.599 -0.2965  0.0371  0.1485
    1WF      WF65094  13.616  11.074   0.050  0.1173  0.2404 -0.1284
    1WF      WF65095   7.931  22.574   9.925  0.0738  0.0147  0.2795
    1WF      WF65096  25.710  20.522   0.001 -0.1150 -0.0511 -0.1060
    1WF      WF65097   7.490  10.130   8.913 -0.1173 -0.1013  0.1494
    1WF      WF65098  19.602  18.769   9.686  0.0475 -0.0516  0.1404
    1WF      WF65099  14.126   7.024   9.604  0.0827  0.2273 -0.0121
    1WF      WF65100  26.084   9.873   9.085 -0.2543 -0.0194  0.5409
    1WF      WF65101  14.831   2.774   9.782  0.1002 -0.0189 -0.0068
    1WF      WF65102  13.923   2.364   9.841 -0.1587 -0.0239 -0.1584
    1WF      WF65103  17.317  16.671   0.697  0.0181 -0.0225  0.1024
    1WF      WF65104   2.429   3.501   0.620 -0.1832  0.0443 -0.2183
    1WF      WF65105  11.204  14.003   9.913 -0.1800  0.0874  0.2342
    1WF      WF65106  10.342  18.620   8.875  0.1166  0.1094 -0.1203
    1WF      WF65107  13.013  27.326   0.289 -0.4561  0.0468 -0.2441
    1WF      WF65108  27.009  19.887   0.358  0.0360 -0.0915  0.1635
    1WF      WF65109   1.078  19.909   0.073 -0.3086 -0.0205  0.1300
    1WF      WF65110  18.563   1.025   8.941  0.0348  0.4833  0.2091
    1WF      WF65111  21.466  18.582   1.430 -0.2142  0.4620  0.1443
    1WF      WF65112  12.707  12.883   8.305 -0.0378  0.3025 -0.1677
    1WF      WF65113   0.100   3.223   9.241 -0.3589 -0.0874  0.0407
    1WF      WF65114  26.310  24.535   1.518  0.0707  0.3386 -0.2264
    1WF      WF65115  20.572  26.689   0.192  0.1570 -0.3660  0.1412
    1WF      WF65116  26.381   4.358   2.138  0.0139  0.3267 -0.1425
    1WF      WF65117   5.692  21.516   2.567  0.0828  0.1671 -0.0383
    1WF      WF65118  11.640  23.829   1.544 -0.1268  0.1227  0.0816
    1WF      WF65119  16.546  21.747   7.644  0.1644  0.0810 -0.2729
    1WF      WF65120  23.830   8.307   1.119 -0.0033  0.0543 -0.2323
    1WF      WF65121   7.614  22.043   1.183  0.1992 -0.3056 -0.1029
    1WF      WF65122   3.294  20.717   8.274 -0.0669  0.2351  0.0226
    1WF      WF65123  28.359   1.415   1.339  0.4957  0.1401 -0.1932
    1WF      WF65124  13.789  15.989   1.316  0.2719  0.1531 -0.0096
    1WF      WF65125  25.613  22.915   0.589  0.1314  0.0670  0.2987
    1WF      WF65126   5.422   4.053   8.957  0.0691 -0.1642 -0.1171
    1WF      WF65127  16.874  24.666   1.751  0.1173 -0.0487  0.1566
    1WF      WF65128  20.296  23.752   8.565 -0.1853 -0.2167  0.0332
    1WF      WF65129   4.224   0.506   3.054  0.0617  0.0443  0.4615
    1WF      WF65130   7.007  13.015   8.314  0.1367 -0.0586  0.3207
    1WF      WF65131  28.311   1.176   1.778  0.1638 -0.0961  0.2133
    1WF      WF65132  23.813  24.535   9.037  0.0197  0.0123 -0.3223
    1WF      WF65133   9.632  27.115   8.134  0.1566 -0.3549  0.0677
    1WF      WF65134   4.809   3.389   1.238 -0.0402  0.0832  0.2174
    1WF      WF65135   6.345  27.280   1.237 -0.2781 -0.1002 -0.1356
    1WF      WF65136   8.647  19.449   1.139 -0.2100 -0.0422 -0.0760
    1WF      WF65137   6.876   6.055   1.020  0.1981 -0.0757  0.5586
    1WF      WF65138   9.040   2.808   2.111 -0.1739 -0.0822  0.0823
    1WF      WF65139  15.997  27.294   2.121 -0.0533 -0.0640  0.2152
    1WF      WF65140   1.250  26.273   2.898 -0.0520 -0.0961 -0.2912
    1WF      WF65141  11.957   4.096   1.787  0.1271 -0.0518  0.1243
    1WF      WF65142   9.711   3.289   1.144  0.1593 -0.0395 -0.3034
    1WF      WF65143   1.428   1.629   0.223 -0.2038 -0.1565  0.2037
    1WF      WF65144   4.019  18.919   9.090 -0.2517 -0.1668 -0.0613
    1WF      WF65145  14.471   8.150   9.831 -0.0319 -0.0379  0.1066
    1WF      WF65146  19.066   5.408   1.091 -0.0326  0.0325 -0.2714
    1WF      WF65147   9.463  27.262   7.131 -0.1519  0.0685 -0.2580
    1WF      WF65148  21.413   5.003   0.538  0.1085  0.1727 -0.0126
    1WF      WF65149  15.325   7.635   6.701 -0.2956 -0.0584  0.2960
    1WF      WF65150  17.436  17.813   0.468  0.0164 -0.0533  0.3117
    1WF      WF65151  23.959  17.880   8.592  0.1438  0.2254 -0.1043
    1WF      WF65152  15.253  20.106   6.919  0.0657 -0.0292  0.2590
    1WF      WF65153  14.258   6.567   0.535 -0.0796 -0.3782 -0.0084
    1WF      WF65154  23.402  18.137   7.985  0.2547  0.0257  0.2220
    1WF      WF65155  26.256  11.036   1.255 -0.1330 -0.1290 -0.1526
    1WF      WF65156  26.118  11.093   6.953 -0.2674 -0.3414 -0.1717
    1WF      WF65157  22.981  19.323   1.694 -0.0874 -0.1159  0.4092
    1WF      WF65158   6.119   3.364   0.043  0.4200 -0.0023  0.0102
    1WF      WF65159  11.561   4.698   9.707 -0.3095  0.1729  0.1662
    1WF      WF65160   6.472  13.730   1.195 -0.0334  0.1055 -0.1876
    1WF      WF65161  20.830  21.917   2.123  0.0777  0.0399  0.1077
    1WF      WF65162   7.091  26.124   3.145 -0.1408  0.1902  0.4653
    1WF      WF65163  25.172   7.146   7.141  0.2954 -0.2507 -0.0156
    1WF      WF65164  26.578  17.927   7.980 -0.1249 -0.3083  0.1280
    1WF      WF65165  12.290   7.149   7.557  0.0427  0.2180  0.0071
    1WF      WF65166  15.622  20.609   9.461 -0.4826 -0.4064  0.0638
    1WF      WF65167  28.463   6.650   2.607 -0.0965  0.0398  0.0661
    1WF      WF65168   5.716  12.479   9.052 -0.1331 -0.0004  0.2399
    1WF      WF65169  11.937  25.531   1.771 -0.1598 -0.2962  0.1158
    1WF      WF65170   8.876   6.335   8.976 -0.2066  0.1695 -0.1332
    1WF      WF65171   5.419  11.445   8.253  0.1760  0.2971 -0.1105
    1WF      WF65172   9.261  28.745   0.755 -0.0163  0.0746  0.0887
    1WF      WF65173  18.704  16.804   9.847 -0.1331 -0.0601  0.1997
    1WF      WF65174  23.947  18.883   9.401 -0.2171 -0.0350 -0.0402
    1WF      WF65175  20.332  15.594   9.487  0.2119 -0.2022 -0.0562
    1WF      WF65176  27.931   4.269   1.067 -0.2574 -0.3012 -0.1405
    1WF      WF65177  21.867  17.139   0.929  0.1879  0.2414 -0.2290
    1WF      WF65178  20.739  26.134   0.287  0.0770 -0.0417  0.2243
    1WF      WF65179   4.273   0.532   1.915  0.1082 -0.3000  0.0798
    1WF      WF65180  15.489  17.092   7.979 -0.1735 -0.0125  0.1689
    1WF      WF65181  24.399  15.276   6.857 -0.0836 -0.0205 -0.1878
    1WF      WF65182   8.561  26.736   7.935  0.0229  0.0533 -0.3734
    1WF      WF65183   4.826   3.170   3.102 -0.1241 -0.0988 -0.1572
    1WF      WF65184   9.817  17.107   0.490  0.1417 -0.0482  0.0080
    1WF      WF65185  15.672  23.361   9.574  0.2428 -0.0073  0.0167
    1WF      WF65186   4.256   0.985   3.264  0.0842  0.1791 -0.0503
    1WF      WF65187  26.284  13.185   3.270 -0.3452  0.0539  0.0011
    1WF      WF65188  18.964  22.801   1.216 -0.2208  0.2567 -0.1290
    1WF      WF65189  11.787  18.374   1.292  0.1938 -0.1106 -0.0385
    1WF      WF65190  12.273   7.504   7.169 -0.1247 -0.2173 -0.0061
    1WF      WF65191  17.496  16.800   8.446 -0.0266  0.2385 -0.0365
    1WF      WF65192  24.269   0.432   2.226 -0.2781  0.2899  0.0845
    1WF      WF65193  10.238  10.656   7.985 -0.1240  0.5123 -0.0514
    1WF      WF65194  28.389  28.006   9.778 -0.1304 -0.2517  0.0630
    1WF      WF65195   2.832  26.071   8.620  0.1669 -0.1489 -0.0750
    1WF      WF65196  22.278   7.382   9.305 -0.0745 -0.1165 -0.3488
    1WF      WF65197   0.483  24.422   8.207  0.0769  0.1547  0.2297
    1WF      WF65198  13.321  15.941   7.501 -0.0394 -0.2475  0.1739
    1WF      WF65199  18.515  22.938   1.337 -0.0532 -0.1141  0.0843
    1WF      WF65200  23.821   4.440   9.755 -0.1508  0.1289  0.1971
    1WF      WF65201   6.756  11.660   0.935 -0.0678 -0.0792 -0.0701
    1WF      WF65202   6.794   7.719   7.875  0.1007 -0.1252 -0.2471
    1WF      WF65203   6.604  23.560   1.195  0.2125 -0.0526  0.0619
    1WF      WF65204  20.999   3.807   9.899 -0.1707 -0.0345  0.2361
    1WF      WF65205  18.717   7.651   7.667  0.2104 -0.0006  0.1258
    1WF      WF65206  24.174   8.246   3.161  0.1463  0.0829  0.3311
    1WF      WF65207  17.775  18.369   8.141 -0.1551 -0.0064  0.0284
    1WF      WF65208  21.834  12.787   1.637 -0.1706 -0.2763 -0.1217
    1WF      WF65209  20.518   0.045   1.486  0.2886  0.4128  0.0299
    1WF      WF65210  23.598  26.185   7.883 -0.0242 -0.0273 -0.5134
    1WF      WF65211   1.873   1.501   8.310  0.3284 -0.0679 -0.0129
    1WF      WF65212  27.864  12.449   7.338  0.0883 -0.0444 -0.0388
    1WF      WF65213  10.352  18.742   1.587 -0.0710  0.1347  0.0711
    1WF      WF65214   6.205   4.644   0.922 -0.1048  0.1764 -0.2252
    1WF      WF65215  10.516   3.051   9.067 -0.0214 -0.0616 -0.1867
    1WF      WF65216  27.416  26.574   2.138  0.1081  0.0112  0.0064
    1WF      WF65217  18.139  24.509   9.104  0.1803  0.1661  0.2107
    1WF      WF65218  21.640   0.943   1.154 -0.0537  0.3204  0.1484
    1WF      WF65219  17.770  26.130   8.321 -0.0378 -0.1690  0.2323
    1WF      WF65220   3.289  13.742   9.041 -0.0922 -0.1120 -0.2097
    1WF      WF65221   0.810   8.073   9.407  0.0889 -0.2090 -0.0878
    1WF      WF65222   9.826  22.955   3.835 -0.2421  0.2320  0.2199
    1WF      WF65223  24.858  27.853   1.689 -0.0343  0.1720 -0.1439
    1WF      WF65224  23.592   3.720   0.881  0.0812  0.0699 -0.1480
    1WF      WF65225  11.522   8.107   8.789 -0.0866  0.1706 -0.1548
    1WF      WF65226   0.067  11.864   0.973  0.0737  0.0289  0.0765
    1WF      WF65227   4.539  23.885   0.185 -0.1835 -0.2233  0.0996
    1WF      WF65228   2.124  21.890   7.252  0.0847  0.0929  0.2310
    1WF      WF65229   5.763  21.061   9.508  0.1674 -0.0483 -0.1297
    1WF      WF65230  11.212  20.136   9.654 -0.1146  0.2947 -0.0725
    1WF      WF65231   1.323  22.759   9.703  0.1155  0.4048  0.0179
    1WF      WF65232   1.625   1.228   3.128  0.1583  0.2879  0.3656
    1WF      WF65233   7.603  14.474   0.166 -0.3758  0.0646 -0.0786
    1WF      WF65234   6.688  12.763   0.746  0.0084 -0.0993  0.1015
    1WF      WF65235  17.945  14.245   0.080  0.0454  0.3296 -0.1253
    1WF      WF65236  23.998  23.827   1.772 -0.2246 -0.0251 -0.0594
    1WF      WF65237  16.186  10.757   9.320  0.3871 -0.0111  0.3297
    1WF      WF65238   5.019   0.995   1.794  0.1130  0.4197 -0.0748
    1WF      WF65239   3.301  25.152   0.770  0.0339 -0.2840  0.6266
    1WF      WF65240   6.252  18.980   9.716  0.0335 -0.1332 -0.2583
    1WF      WF65241  13.737  27.455   1.732 -0.4197  0.0732  0.1721
    1WF      WF65242  14.942  10.624   9.557  0.0071 -0.1383 -0.1588
    1WF      WF65243  19.703   1.162   3.302 -0.1539  0.2512 -0.0562
    1WF      WF65244   8.728  10.348   1.063  0.0015  0.0192  0.0574
    1WF      WF65245  14.608  19.162   9.494 -0.0692  0.0196  0.0027
    1WF      WF65246  16.066  23.156   9.858 -0.1004  0.2648  0.2161
    1WF      WF65247  20.952  26.239   8.579  0.2529  0.2407 -0.0385
    1WF      WF65248  21.289  18.982   8.266 -0.0878  0.1366 -0.1663
    1WF      WF65249  14.804  22.846   1.894  0.1840 -0.0820  0.4430
    1WF      WF65250  23.717   5.742   0.594  0.0307  0.3761  0.0841
    1WF      WF65251   7.440  15.282   9.274  0.0695  0.0395 -0.1788
    1WF      WF65252  25.269  11.225   9.212 -0.0481 -0.0712 -0.0509
    1WF      WF65253   2.966   5.050   1.664 -0.2360  0.1043 -0.0274
    1WF      WF65254  26.231   5.829   1.274  0.0450  0.2800 -0.0604
    1WF      WF65255  11.484  16.142   8.541 -0.0521  0.1064 -0.1478
    1WF      WF65256   9.019  18.880   3.045 -0.4191 -0.1813  0.0575
    1WF      WF65257   9.176  11.568   9.668 -0.1023 -0.2504 -0.1027
    1WF      WF65258   3.382   1.465   4.230  0.0653 -0.2600  0.0836
    1WF      WF65259  20.888  24.061   0.729  0.0676  0.1804  0.2615
    1WF      WF65260  25.810  22.765   1.092 -0.1313 -0.1247  0.1101
    1WF      WF65261  23.095  28.107   0.615 -0.1813 -0.0850 -0.1378
    1WF      WF65262  23.029  28.528   0.993  0.1562 -0.0053  0.0561
    1WF      WF65263  14.290  23.730   8.585  0.1302 -0.0555  0.2147
    1WF      WF65264   0.473  11.563   0.940  0.2519  0.1347 -0.1179
    1WF      WF65265  21.004  21.610   1.696  0.1700  0.0345 -0.1723
    1WF      WF65266  23.801  22.568   8.672 -0.1083  0.1585 -0.3573
    1WF      WF65267   2.333   9.309   1.306  0.0930  0.3587 -0.2363
    1WF      WF65268  16.255  13.139   6.917  0.1266  0.0577  0.1807
    1WF      WF65269  11.093   5.356   7.984 -0.0466 -0.0907 -0.1185
    1WF      WF65270   0.712   4.924   2.789 -0.1583  0.0601 -0.6079
    1WF      WF65271   4.817   2.572   9.645 -0.3468  0.0226  0.0703
    1WF      WF65272  14.538  25.045   0.270 -0.1258  0.1169  0.1622
    1WF      WF65273  20.520  28.424   8.767 -0.1196  0.1847 -0.0186
    1WF      WF65274   1.003  18.911   1.422 -0.0158  0.3935 -0.0013
    1WF      WF65275  16.871   4.068   8.669  0.0469  0.2650 -0.4972
    1WF      WF65276   3.022  24.764   8.041 -0.1433  0.2741 -0.0896
    1WF      WF65277  24.148  17.445   8.526  0.2439 -0.0584  0.2032
    1WF      WF65278  11.566  19.315   0.132 -0.1946 -0.2371  0.0429
    1WF      WF65279  16.578   1.228   2.760  0.0167 -0.0163  0.0986
    1WF      WF65280  17.021  14.211   7.427  0.1606  0.2958  0.0108
    1WF      WF65281   0.490  12.811   7.056  0.0488  0.0620  0.3671
    1WF      WF65282  12.033  26.228   8.506 -0.0041 -0.0034 -0.0376
    1WF      WF65283   5.904  12.570   8.407 -0.1806  0.1522 -0.1807
    1WF      WF65284  28.726  27.749   7.644 -0.1770  0.2033  0.3600
    1WF      WF65285   7.658  24.072   1.184 -0.1906  0.0988  0.0341
    1WF      WF65286  19.517  18.871   0.501 -0.0578 -0.4501 -0.1018
    1WF      WF65287  12.580  10.307   0.249  0.0148 -0.1829 -0.1612
    1WF      WF65288   0.253  20.035   8.718  0.0618  0.0846 -0.0688
    1WF      WF65289   2.763  18.262   8.648 -0.1478 -0.0682 -0.0373
    1WF      WF65290  25.540  12.287   8.482  0.2795  0.0174 -0.0567
    1WF      WF65291   7.981  14.185   0.019  0.1012  0.1018 -0.0175
    1WF      WF65292  25.683   4.918   3.695  0.1412  0.0103  0.1117
    1WF      WF65293  25.019  26.660   2.802  0.1129 -0.4374 -0.2901
    1WF      WF65294   5.988  14.577   7.369 -0.0110 -0.0570 -0.0633
    1WF      WF65295  22.272  18.900   7.474 -0.2169 -0.0204  0.3221
    1WF      WF65296  21.902  24.307   8.464  0.1905  0.1735 -0.0858
    1WF      WF65297   1.696   7.611   9.281 -0.1800  0.1588  0.0073
    1WF      WF65298  25.277  27.050   1.959  0.1695 -0.1386 -0.0827
    1WF      WF65299  25.614  22.814   1.546  0.0188 -0.1278  0.0727
    1WF      WF65300  12.011  26.069   0.616 -0.0817 -0.2012  0.3184
    1WF      WF65301  17.344  24.773   9.616  0.2047 -0.0258  0.2948
    1WF      WF65302   3.795   5.731   1.197  0.1384  0.0399 -0.2108
    1WF      WF65303  10.670   8.752   7.426 -0.1170 -0.1566 -0.1288
    1WF      WF65304  12.141  14.150   9.173  0.1434 -0.2932  0.0105
    1WF      WF65305   8.689  19.909   2.444 -0.1431  0.0714  0.2478
    1WF      WF65306  18.883  16.925   0.395 -0.5060  0.2276  0.0478
    1WF      WF65307  17.932  27.276   1.095  0.3784  0.1299  0.1634
    1WF      WF65308   9.976  12.988   0.232 -0.1235 -0.1010  0.0995
    1WF      WF65309  16.698   6.701   5.519 -0.1945 -0.1296 -0.0196
    1WF      WF65310  17.667   2.293   8.771  0.4814  0.0109 -0.0823
    1WF      WF65311   8.720  10.198   7.524  0.2235 -0.0895 -0.0061
    1WF      WF65312   3.332   5.379   1.427 -0.0147  0.0407  0.0918
    1WF      WF65313   7.861  25.663   7.070 -0.0003 -0.2022  0.3784
    1WF      WF65314  19.634   5.753   7.893  0.1070 -0.1428 -0.0386
    1WF      WF65315   4.509  24.891   8.963  0.0020  0.0399  0.0447
    1WF      WF65316  10.662   4.016   7.350  0.0568  0.0229 -0.1706
    1WF      WF65317  14.952  23.351   1.586  0.1283 -0.2072  0.0175
    1WF      WF65318  16.317  12.393   9.462  0.0608 -0.0110  0.1355
    1WF      WF65319  23.994  25.763   9.902  0.3549  0.0203  0.1850
    1WF      WF65320   6.534   9.558   6.546 -0.0531 -0.0981 -0.2232
    1WF      WF65321  13.134  12.215   8.349 -0.0404 -0.0053 -0.0082
    1WF      WF65322  18.624  14.438   0.648  0.0079 -0.3058  0.2058
    1WF      WF65323  21.553  23.927   1.714 -0.2179  0.0883  0.0238
    1WF      WF65324  22.418  20.912   8.346  0.0712  0.2003  0.1586
    1WF      WF65325   3.645  13.468   8.736  0.0224  0.2293  0.2275
    1WF      WF65326   2.964   5.253   2.168 -0.0611 -0.2319  0.0485
    1WF      WF65327   9.160   9.056   9.235 -0.0058 -0.3508  0.0129
    1WF      WF65328  26.510  18.204   9.663 -0.2041 -0.1737  0.0298
    1WF      WF65329  19.523  27.274   9.567 -0.0505 -0.1695  0.0709
    1WF      WF65330  18.726  15.197   7.402 -0.2760  0.1970  0.0582
    1WF      WF65331  26.457   4.053   9.350  0.1227 -0.0063  0.2440
    1WF      WF65332   9.092   1.349   0.657 -0.0322  0.0728  0.0414
    1WF      WF65333  19.163  15.618   5.958  0.1052 -0.1130 -0.2197
    1WF      WF65334  21.308  25.655   1.295  0.2541  0.2526  0.0301
    1WF      WF65335   0.119  25.929   9.735  0.0643  0.0159 -0.0019
    1WF      WF65336  10.553   1.162   9.598 -0.2380  0.0953 -0.0425
    1WF      WF65337  10.580  10.454   9.640 -0.0786 -0.0736  0.4081
    1WF      WF65338  26.640  16.405   1.276  0.1664 -0.0238 -0.1353
    1WF      WF65339  28.842  10.290   9.803 -0.1005 -0.0574 -0.1439
    1WF      WF65340  21.379  28.250   0.342 -0.2545  0.2188 -0.4144
    1WF      WF65341   8.072   9.667   0.591  0.0113 -0.1737 -0.0853
    1WF      WF65342  11.755  27.812   1.013  0.0874  0.3246 -0.2035
    1WF      WF65343   6.510   6.001   9.107 -0.1062  0.0689 -0.1292
    1WF      WF65344  27.223  13.208   2.708 -0.0007  0.0221 -0.2441
    1WF      WF65345   4.838   4.103   8.749  0.0407 -0.0021  0.1084
    1WF      WF65346  26.100   4.724   1.084  0.1134 -0.0595 -0.0804
    1WF      WF65347  25.988   6.427   1.055 -0.1924 -0.2135  0.2412
    1WF      WF65348  10.159  24.067   1.347  0.2390 -0.2931  0.0199
    1WF      WF65349  25.459  19.967   0.950  0.1865  0.1811  0.1374
    1WF      WF65350   1.938  19.202   9.230  0.2121  0.2852 -0.3355
    1WF      WF65351  12.011  11.162   6.852  0.3267 -0.0646 -0.1894
    1WF      WF65352  25.872  23.209   0.261  0.3974 -0.1540 -0.3665
    1WF      WF65353  10.037   4.021   0.006 -0.4150  0.1207 -0.1011
    1WF      WF65354   5.965  17.099   7.385 -0.3715  0.1989  0.1760
    1WF      WF65355  24.892  10.532   0.038 -0.1224 -0.2002  0.1807
    1WF      WF65356  19.587   5.296   1.010 -0.3585 -0.0039 -0.3969
    1WF      WF65357  16.197  22.617   7.718 -0.1335 -0.1341 -0.0256
    1WF      WF65358  10.297  13.290   0.029  0.0173  0.0493 -0.0583
    1WF      WF65359   9.939  25.993   0.181 -0.1228  0.0740  0.0843
    1WF      WF65360  28.642   9.217   2.116  0.0312  0.0960 -0.1212
    1WF      WF65361  13.470   4.435   0.953  0.0758  0.2152 -0.0510
    1WF      WF65362  10.552  23.956   9.239  0.1579  0.3339 -0.3675
    1WF      WF65363   0.599  15.803   9.812  0.0889  0.0570 -0.3265
    1WF      WF65364  14.950   0.915   0.354 -0.0310  0.1069 -0.2600
    1WF      WF65365  10.255   9.624   7.547  0.1381  0.1321 -0.0262
    1WF      WF65366  10.454  15.598   9.535  0.2241  0.2340 -0.0680
    1WF      WF65367  10.970  14.213   0.660 -0.2197  0.3771  0.2007
    1WF      WF65368   6.539  10.985   8.905  0.0843  0.0153 -0.0570
    1WF      WF65369   8.582  27.500   2.074 -0.0911  0.0031 -0.1714
    1WF      WF65370  11.927   8.315   9.074 -0.2584 -0.2210  0.0457
    1WF      WF65371  19.717  17.759   0.193  0.0097 -0.0270 -0.2101
    1WF      WF65372  17.146   1.185   8.737 -0.5316 -0.1123 -0.3010
    1WF      WF65373  20.660   7.419   8.972 -0.0061  0.1311  0.2247
    1WF      WF65374  11.140  23.967   9.883 -0.1642  0.0617 -0.0727
    1WF      WF65375  18.607  12.474   6.831  0.4210 -0.1848 -0.2448
    1WF      WF65376  11.579  13.725   7.506  0.1060 -0.0188  0.0793
    1WF      WF65377  18.015  25.974   8.713 -0.2765 -0.2103  0.1444
    1WF      WF65378  13.197   7.415   7.547  0.1431  0.0266 -0.1735
    1WF      WF65379  21.304  28.643   0.714  0.0945 -0.0595 -0.2878
    1WF      WF65380   3.396  25.109   8.856 -0.0843 -0.1818  0.1485
    1WF      WF65381  17.457   1.440   8.449 -0.4099  0.0286 -0.1236
    1WF      WF65382  11.898  23.809   0.467  0.0507 -0.0098 -0.0132
    1WF      WF65383  19.229  11.957   9.128 -0.0865  0.2427  0.0695
    1WF      WF65384  20.124  23.832   9.070 -0.0291  0.0718 -0.1753
    1WF      WF65385  10.753  10.881   7.753  0.1531 -0.0436 -0.1090
    1WF      WF65386  27.020  24.205   9.642 -0.0088  0.1603 -0.1496
    1WF      WF65387   8.744   5.696   8.443 -0.0553  0.4406 -0.3343
    1WF      WF65388  10.132  16.429   8.946  0.0014  0.0594 -0.1614
    1WF      WF65389  11.609   5.262   6.098  0.0559  0.1191  0.2791
    1WF      WF65390   1.129  26.840   8.949  0.0321 -0.3874  0.3787
    1WF      WF65391  27.747  22.470   0.177 -0.0631 -0.0324  0.2186
    1WF      WF65392   6.956   8.364   1.681 -0.1178 -0.0034 -0.0413
    1WF      WF65393   4.286  19.764   0.450  0.1850  0.0824  0.2406
    1WF      WF65394  17.853  14.262   6.853  0.0829 -0.0947  0.3546
    1WF      WF65395   7.809  25.939   8.732  0.0736  0.0262 -0.2335
    1WF      WF65396  15.555   5.257   9.855  0.0974 -0.0330  0.1419
    1WF      WF65397  28.855  12.184   0.608  0.1060 -0.1536 -0.1943
    1WF      WF65398  12.791  22.199   2.614  0.0802  0.1376 -0.0867
    1WF      WF65399   0.936   3.900   2.586  0.2492 -0.0676  0.2990
    1WF      WF65400   5.409  13.333   0.946  0.1294  0.0791  0.0348
    1WF      WF65401   3.300  10.742   0.810  0.0713 -0.0812 -0.0922
    1WF      WF65402  15.419   3.898   9.627  0.0431 -0.1208 -0.1715
    1WF      WF65403  13.353  10.603   6.538 -0.0379 -0.0127 -0.1012
    1WF      WF65404  19.425   1.563   9.736  0.0629  0.0385  0.2759
    1WF      WF65405  27.028   6.510   0.515 -0.1038 -0.1562  0.3395
    1WF      WF65406  28.849   2.380   1.761  0.3024  0.2916  0.0397
    1WF      WF65407   2.395  16.612   1.217  0.1905  0.0010  0.1492
    1WF      WF65408   9.340  13.198   1.357  0.1026 -0.0917 -0.0118
    1WF      WF65409  24.032  11.472   9.102 -0.2659 -0.1199 -0.0747
    1WF      WF65410   8.128  16.873   7.472 -0.1227  0.1453 -0.0633
    1WF      WF65411  28.136   1.264   0.918 -0.0540 -0.1321 -0.0705
    1WF      WF65412  20.082  18.826   6.712 -0.3703  0.0857 -0.4541
    1WF      WF65413  13.549  20.921   1.663 -0.5239 -0.0584  0.0366
    1WF      WF65414  15.980  15.264   8.362 -0.1089 -0.1330  0.0313
    1WF      WF65415  11.579  19.785   9.682  0.0681 -0.0409  0.1679
    1WF      WF65416   0.634   7.369   2.082  0.0408  0.1462  0.2312
    1WF      WF65417   5.077  13.661   1.125 -0.1651  0.2479 -0.0795
    1WF      WF65418   3.440   3.783   3.222 -0.0872 -0.1616 -0.2422
    1WF      WF65419  16.326  10.201   7.023  0.2254  0.5389  0.1511
    1WF      WF65420  21.093  25.717   8.463  0.0387  0.2054  0.0633
    1WF      WF65421  25.847  14.751   1.097 -0.2850  0.1389  0.2169
    1WF      WF65422   2.095  18.714   9.124  0.1589  0.2067 -0.0555
    1WF      WF65423  23.754  18.320   8.312 -0.0326  0.3913  0.0248
    1WF      WF65424   3.761   4.674   9.374 -0.2224  0.0072 -0.0115
    1WF      WF65425   2.564   7.477   1.524  0.1256  0.1176  0.2286
    1WF      WF65426   0.998  10.581   6.924  0.1270 -0.0973 -0.0021
    1WF      WF65427   5.108   8.403   9.037  0.0018  0.1520 -0.1830
    1WF      WF65428  11.582  21.353   0.690 -0.0246 -0.0062  0.0569
    1WF      WF65429  20.833   7.130   8.571 -0.1805  0.0749 -0.1069
    1WF      WF65430  28.771   3.315   0.074  0.1018  0.3455 -0.2803
    1WF      WF65431  12.115   8.950   2.306 -0.0057 -0.1619 -0.3855
    1WF      WF65432  11.361   2.977   8.561 -0.0423 -0.1039 -0.0252
    1WF      WF65433  28.391   9.830   1.975 -0.0056 -0.1233 -0.0669
    1WF      WF65434  13.523  25.412   1.246  0.1329 -0.0028 -0.0690
    1WF      WF65435  23.558  16.690   7.890 -0.1029 -0.1438  0.2002
    1WF      WF65436  12.021  24.269   8.244  0.0600 -0.0401  0.0341
    1WF      WF65437  23.928   7.176   9.002  0.2137 -0.2064 -0.0621
    1WF      WF65438  23.997  13.701   0.343 -0.0312  0.1621  0.1894
    1WF      WF65439  13.992  17.503   2.550  0.2133 -0.0334  0.0774
    1WF      WF65440   1.404  24.247   8.959 -0.2749 -0.1410  0.0699
    1WF      WF65441   1.593  16.013   8.203  0.2625 -0.1659 -0.0113
    1WF      WF65442   9.623  28.696   0.298 -0.0075 -0.0609 -0.3275
    1WF      WF65443  13.790  23.760   8.480 -0.3189  0.3184  0.0912
    1WF      WF65444  28.015  15.791   0.734 -0.1732 -0.1434 -0.2544
    1WF      WF65445  15.802  18.752   9.849 -0.0555 -0.0118 -0.1659
    1WF      WF65446  20.994  15.008   0.381 -0.2092  0.2783 -0.1197
    1WF      WF65447  21.934  11.407   0.456 -0.0510 -0.0284  0.1073
    1WF      WF65448   9.031  24.426   9.490  0.1114 -0.1976 -0.1973
    1WF      WF65449  26.136   3.756   9.590 -0.1232 -0.0046  0.0146
    1WF      WF65450  11.857  13.718   9.971  0.2385 -0.1720 -0.0219
    1WF      WF65451  10.352  14.027   7.702  0.2500  0.2888 -0.1087
    1WF      WF65452  28.758  10.240   2.151 -0.0995 -0.0348  0.0021
    1WF      WF65453   0.526   8.608   0.582  0.2089 -0.0137 -0.2315
    1WF      WF65454  16.262   7.914   1.702  0.0186  0.0619  0.1114
    1WF      WF65455  17.853  19.664   9.340  0.1979  0.0821 -0.2049
    1WF      WF65456   1.291   8.305   2.865 -0.0044  0.2598  0.1716
    1WF      WF65457  17.431   4.425   0.763  0.1697  0.2145 -0.0468
    1WF      WF65458  25.701   8.379   8.897 -0.0381  0.4314 -0.1995
    1WF      WF65459  17.527  14.463   9.919  0.1350  0.0282 -0.2410
    1WF      WF65460   2.826  22.609   2.464 -0.1167 -0.2296  0.3949
    1WF      WF65461   0.641  20.380   8.541 -0.0534 -0.2142 -0.2271
    1WF      WF65462  27.922   9.563   0.070 -0.1207 -0.1536 -0.0292
    1WF      WF65463   4.411  25.052   9.496 -0.2328  0.1226  0.0391
    1WF      WF65464  28.207  11.462   9.425 -0.0197 -0.0690  0.1317
    1WF      WF65465  24.857  16.142   6.889 -0.2885 -0.1054 -0.1708
    1WF      WF65466  20.603  28.304   9.284 -0.1024  0.1840 -0.0329
    1WF      WF65467  15.168   4.196   0.954  0.0445  0.3459 -0.2044
    1WF      WF65468  21.513   7.805   8.383 -0.0082  0.1097  0.0961
    1WF      WF65469  20.955  21.627   9.678 -0.0174 -0.0696  0.3385
    1WF      WF65470  14.207  22.176   8.086  0.3201 -0.1463 -0.0654
    1WF      WF65471  27.523  15.459   4.243  0.3528  0.0434 -0.4214
    1WF      WF65472   9.120  28.691   8.341  0.0405  0.2691 -0.1009
    1WF      WF65473  12.848  25.211   3.338 -0.1248  0.0388 -0.2552
    1WF      WF65474  28.039  20.626   7.289 -0.1093  0.2766  0.0387
    1WF      WF65475  11.356   0.414   1.045 -0.0467  0.0694 -0.1736
    1WF      WF65476   1.680  11.328   1.927 -0.2051 -0.0857  0.2425
    1WF      WF65477   9.639   7.259   6.454  0.3119  0.1519 -0.1163
    1WF      WF65478   8.954   5.116   0.753  0.2260  0.0825 -0.1862
    1WF      WF65479  18.172  19.630   9.735  0.0886 -0.0877 -0.1883
    1WF      WF65480  11.782   1.806   1.084 -0.1010 -0.1217 -0.2550
    1WF      WF65481  12.021   5.601   8.051 -0.0815  0.2280 -0.0842
    1WF      WF65482   9.025   5.968   0.236 -0.0931  0.1536 -0.0689
    1WF      WF65483   2.181  14.330   3.144  0.2388 -0.1799 -0.1123
    1WF      WF65484  23.093  24.971   8.666  0.1035  0.2551  0.0911
    1WF      WF65485  12.843   3.747   7.984 -0.0448  0.1726 -0.1789
    1WF      WF65486  22.833  14.436   0.611  0.3615  0.1264  0.1846
    1WF      WF65487  22.399  17.859   8.307  0.1959  0.2161 -0.0213
    1WF      WF65488   2.567  21.161   7.679  0.0998  0.0773 -0.3717
    1WF      WF65489   1.512  26.615   1.076  0.0922  0.0429 -0.0347
    1WF      WF65490  23.526  15.149   2.454 -0.1363  0.1664 -0.0609
    1WF      WF65491   8.994   8.595   8.869  0.4992  0.0634 -0.1971
    1WF      WF65492  20.093   6.056   9.609  0.1406  0.0118  0.4046
    1WF      WF65493   0.622  18.556   0.499  0.2321 -0.0623 -0.0576
    1WF      WF65494  27.722   1.452   7.973  0.0591 -0.2014 -0.0639
    1WF      WF65495  19.926  22.206   0.901  0.0459 -0.3994 -0.1258
    1WF      WF65496   5.133  10.087   0.956 -0.2205 -0.3056  0.0312
    1WF      WF65497  16.948  28.603   2.142 -0.1729  0.2320  0.3582
    1WF      WF65498  22.776  25.584   9.648 -0.0676  0.0482  0.1185
    1WF      WF65499   4.901  16.418   9.046 -0.0545 -0.5179 -0.0033
    1WF      WF65500  16.253  11.840   7.937  0.0623 -0.0714  0.3058
    1WF      WF65501  11.005  12.876   6.987 -0.0410 -0.0431 -0.1574
    1WF      WF65502   2.065  25.127   0.230 -0.0097  0.1576  0.2756
    1WF      WF65503  18.756  16.901   8.244 -0.1609 -0.1013  0.1788
    1WF      WF65504  12.309  12.981   7.985 -0.1126  0.2048  0.1723
    1WF      WF65505   0.385   1.106   0.912 -0.0951  0.0630  0.3854
    1WF      WF65506  15.194  21.074   7.989  0.0704  0.1927  0.0887
    1WF      WF65507   6.596   3.376   2.008  0.4928  0.0263  0.1486
    1WF      WF65508   4.664  24.264   9.347  0.0243 -0.1127  0.0464
    1WF      WF65509  12.459  10.353   0.740  0.2159  0.2014  0.0835
    1WF      WF65510  17.379  27.941   8.425  0.0276 -0.1494 -0.0153
    1WF      WF65511   1.625   9.822   9.869 -0.0405  0.0689  0.2540
    1WF      WF65512  14.721  11.476   8.552 -0.1708  0.0407  0.3159
    1WF      WF65513  21.249  18.644   9.690  0.1709  0.0654  0.0751
    1WF      WF65514  17.252   3.833   8.869 -0.0721  0.0503 -0.0112
    1WF      WF65515  26.301  11.566   2.617 -0.2638  0.1077 -0.0814
    1WF      WF65516   8.543  27.362   9.071  0.1087  0.4686 -0.3168
    1WF      WF65517  19.344   6.335   6.588  0.1719  0.1136 -0.0897
    1WF      WF65518   0.557  12.070   9.941  0.0477  0.0395  0.1541
    1WF      WF65519   7.864   2.502   1.423 -0.1272  0.2633 -0.2507
    1WF      WF65520   5.305  25.506   2.156 -0.3102  0.2280  0.2829
    1WF      WF65521   9.293  20.278   1.108 -0.1317 -0.1510 -0.1018
    1WF      WF65522  15.649  13.623   9.849 -0.1367 -0.3209 -0.2808
    1WF      WF65523  20.805   7.402   0.977 -0.0718  0.1605 -0.0729
    1WF      WF65524  19.368   6.736   8.826 -0.1838 -0.0338  0.0594
    1WF      WF65525  28.164   5.605   1.720 -0.0413 -0.2525 -0.1372
    1WF      WF65526  19.369   8.834   8.723 -0.0541  0.2648  0.0145
    1WF      WF65527  23.998  24.626   9.525 -0.0391 -0.2213 -0.1087
    1WF      WF65528   0.425  18.502   1.052 -0.3549 -0.0697 -0.0071
    1WF      WF65529  10.600  28.613   8.990 -0.0530 -0.2110  0.0924
    1WF      WF65530  11.611  28.561   8.981 -0.5620  0.3918 -0.0564
    1WF      WF65531  17.096   9.622   5.545  0.0814  0.0016 -0.3836
    1WF      WF65532   0.906  21.738   2.907 -0.1004  0.0332  0.2002
    1WF      WF65533   8.116   3.893   8.456  0.0131 -0.1537 -0.0317
    1WF      WF65534  28.075   3.349   2.240 -0.2838 -0.0331 -0.1025
    1WF      WF65535   7.181  12.686   0.820 -0.0277  0.0355 -0.0483
    1WF      WF65536  25.635  17.903   0.889  0.4067  0.1312 -0.0223
    1WF      WF65537  27.658  19.076   1.188 -0.1880 -0.0403  0.0118
    1WF      WF65538   9.267   4.175   0.036 -0.0171 -0.0438 -0.4842
    1WF      WF65539  23.182  15.675   9.658 -0.0616 -0.1785 -0.0116
    1WF      WF65540  11.574  25.119   9.671  0.0617 -0.0476  0.1586
    1WF      WF65541  10.717   5.702   7.906  0.2037 -0.0618  0.1684
    1WF      WF65542  23.640   1.424   9.727  0.0249  0.0272  0.2564
    1WF      WF65543   6.885  12.448   8.468 -0.1328 -0.1507 -0.1437
    1WF      WF65544  27.710   0.512   2.211  0.1257 -0.0486 -0.1684
    1WF      WF65545  26.967  13.280   8.879 -0.3530  0.0063  0.0695
    1WF      WF65546  24.929  14.464   0.172  0.1996 -0.1849  0.1271
    1WF      WF65547   6.406   6.157   8.584 -0.0716  0.1765  0.0234
    1WF      WF65548  21.129  20.405   0.309 -0.1878 -0.0037 -0.0429
    1WF      WF65549  13.728  11.140   7.330 -0.1407 -0.0935  0.0908
    1WF      WF65550   9.149  19.800   9.444 -0.0007 -0.0261  0.1997
    1WF      WF65551   2.982  27.404   9.695 -0.0482 -0.1751  0.0582
    1WF      WF65552  22.556  11.187   6.404 -0.5457 -0.0091  0.0939
    1WF      WF65553   7.209   6.550   8.387 -0.0215 -0.0530  0.1721
    1WF      WF65554  14.662  13.641   0.896  0.1903 -0.0482  0.1215
    1WF      WF65555   8.671   8.335   8.461  0.1463 -0.0303 -0.0189
    1WF      WF65556   7.571   9.758   7.835  0.1395 -0.0453 -0.1070
    1WF      WF65557   9.093   0.905   7.454  0.1479 -0.2107  0.0989
    1WF      WF65558  24.281  19.609   0.665  0.2636  0.4149 -0.0597
    1WF      WF65559   8.633  21.504   1.696  0.0968 -0.1313 -0.1269
    1WF      WF65560   2.500  18.960   4.111 -0.2346 -0.4942 -0.1536
    1WF      WF65561   0.077  11.582   3.637 -0.0679  0.3415 -0.2632
    1WF      WF65562  27.737   0.011   2.333 -0.0041 -0.3772  0.0272
    1WF      WF65563  27.325  24.938   1.780 -0.3755 -0.0685 -0.1154
    1WF      WF65564  27.208  22.443   2.555 -0.1047  0.1162 -0.0702
    1WF      WF65565  18.080  15.012   9.483 -0.2036  0.1938 -0.1525
    1WF      WF65566  21.768  11.725   0.844 -0.1486  0.1898  0.0097
    1WF      WF65567  26.372  18.285   1.346  0.1043 -0.0712  0.1963
    1WF      WF65568   9.560  25.792   0.392  0.0336 -0.0974  0.1977
    1WF      WF65569  23.536  20.154   2.300 -0.0471 -0.0861  0.1468
    1WF      WF65570  28.827  25.531   3.523  0.0116  0.2457  0.3113
    1WF      WF65571  21.574  16.459   9.333  0.0074 -0.0144  0.1386
    1WF      WF65572   4.427  12.638   1.341 -0.0481  0.0567  0.0163
    1WF      WF65573   8.505  17.574   2.811 -0.2913  0.2140  0.0043
    1WF      WF65574   8.239  26.741   1.078  0.0428  0.1661 -0.1993
    1WF      WF65575   0.176  10.934   7.146 -0.2564 -0.1801  0.0442
    1WF      WF65576  22.863   0.076   2.009  0.1558  0.0499 -0.0359
    1WF      WF65577   7.656  15.524   9.705  0.0140 -0.0573 -0.3257
    1WF      WF65578   3.026  18.794   0.504 -0.1315 -0.1952  0.1435
    1WF      WF65579  19.703   6.727   9.177 -0.1522 -0.2312  0.0400
    1WF      WF65580   1.835  20.766   8.576 -0.1311  0.2286 -0.1870
    1WF      WF65581  18.483  12.504   0.034 -0.4660 -0.2009 -0.1226
    1WF      WF65582   0.417  12.911   7.551  0.0257  0.0097 -0.0385
    1WF      WF65583  24.291  17.729   8.921 -0.0396  0.2667 -0.3433
    1WF      WF65584  13.870  26.544   2.578 -0.2107  0.1060 -0.0740
    1WF      WF65585  13.555  12.178   0.154 -0.2353  0.0252 -0.0628
    1WF      WF65586  13.932  25.442   7.588  0.0923 -0.2850 -0.3784
    1WF      WF65587  22.693  19.637   2.071  0.2491  0.1087 -0.1380
    1WF      WF65588  17.474  15.156   2.279 -0.0578  0.1484  0.1400
    1WF      WF65589  10.112   2.529   0.898 -0.0509  0.1408 -0.0120
    1WF      WF65590   0.738   3.412   3.365  0.1979 -0.3140  0.0379
    1WF      WF65591  15.429  27.726   2.027  0.1669 -0.1866  0.1698
    1WF      WF65592   0.726   6.213   0.866 -0.1188  0.0177  0.0202
    1WF      WF65593  16.507  15.960   0.357 -0.1113 -0.3140 -0.1715
    1WF      WF65594  26.364  10.127   1.852 -0.0347 -0.1853 -0.1637
    1WF      WF65595  28.578  22.676   3.116 -0.0840 -0.0472 -0.1140
    1WF      WF65596  26.981  16.665   1.830  0.1025  0.1761  0.3780
    1WF      WF65597   8.003  19.296   8.963 -0.1457  0.0878 -0.1771
    1WF      WF65598  24.186  26.090   0.269 -0.1891  0.2618  0.1379
    1WF      WF65599  17.308   0.946   8.266  0.0009  0.2802 -0.1258
    1WF      WF65600  10.537   4.330   7.802 -0.4517  0.1761  0.1084
    1WF      WF65601   5.391  18.526   0.429 -0.0592  0.3211  0.0973
    1WF      WF65602   0.316  27.559   9.397 -0.2351  0.2040 -0.0552
    1WF      WF65603   0.486  25.644   9.906  0.1129 -0.1119 -0.1698
    1WF      WF65604   3.371   0.432   9.930  0.1199 -0.2879 -0.1239
    1WF      WF65605  14.115   8.898   7.134  0.1854 -0.0623 -0.1327
    1WF      WF65606   3.043  23.695   7.661  0.2009 -0.0039  0.1527
    1WF      WF65607   2.701  26.069   9.093  0.2349  0.2496  0.1005
    1WF      WF65608  16.798  25.355   8.632 -0.1276 -0.2026 -0.0323
    1WF      WF65609  21.003  27.900   1.734 -0.1880  0.0333  0.1141
    1WF      WF65610  27.888  22.405   0.727 -0.1074 -0.1992  0.0132
    1WF      WF65611   5.805   4.851   0.701  0.0122 -0.0171  0.1237
    1WF      WF65612  13.136   0.256   9.403 -0.0219 -0.0339  0.2432
    1WF      WF65613   2.491  16.122   0.957  0.0329  0.0533  0.0586
    1WF      WF65614   2.184  13.669   0.936  0.1066 -0.1365 -0.0034
    1WF      WF65615  15.726  14.732   2.209  0.0386 -0.2184  0.0872
    1WF      WF65616  13.382  11.817   1.840 -0.2193 -0.3270  0.4365
    1WF      WF65617   9.957  22.649   2.869  0.1401 -0.0854  0.1218
    1WF      WF65618   8.069  23.506   7.424 -0.1596 -0.1846 -0.2882
    1WF      WF65619   7.590  25.684   8.341  0.1551 -0.3849  0.0805
    1WF      WF65620   5.443  21.845   2.313  0.0020  0.1366 -0.2640
    1WF      WF65621  14.645  26.008   8.018  0.1546 -0.2366 -0.1749
    1WF      WF65622  27.721  21.109   1.093  0.2170 -0.0547 -0.1710
    1WF      WF65623  10.231  17.322   0.694 -0.0327  0.1072 -0.1200
    1WF      WF65624  13.201  28.756   1.208  0.1637  0.1093 -0.1603
    1WF      WF65625  26.816  19.709   1.695  0.1950 -0.0744 -0.1027
    1WF      WF65626   2.262   4.836   0.254  0.0359 -0.2132 -0.1636
    1WF      WF65627   2.019  12.647   9.780 -0.1808  0.0998 -0.1092
    1WF      WF65628  15.263   7.848   5.766  0.1902  0.0069 -0.1011
    1WF      WF65629  23.938  20.452   2.300  0.1266 -0.0170 -0.1046
    1WF      WF65630   5.794  15.596   0.585 -0.1152  0.1587  0.0290
    1WF      WF65631  18.881  21.627   7.421 -0.0760  0.1642 -0.0214
    1WF      WF65632  24.366   2.351   1.840 -0.1505 -0.2936  0.0471
    1WF      WF65633  12.743  14.361   0.971  0.1944  0.1477 -0.0290
    1WF      WF65634  24.807  21.578   7.668 -0.0467 -0.2328 -0.1479
    1WF      WF65635  17.317   8.776   0.624  0.0775 -0.4143  0.1294
    1WF      WF65636   5.130  19.342   9.554 -0.0783 -0.0174  0.3017
    1WF      WF65637  15.488  10.423   8.491  0.0256  0.0440  0.0727
    1WF      WF65638   1.164  14.199   1.898  0.0198  0.0667 -0.3506
    1WF      WF65639  17.181  18.127   7.946  0.1360 -0.4778 -0.0954
    1WF      WF65640   6.014  17.266   9.435 -0.0094  0.1856 -0.2033
    1WF      WF65641  10.425  28.614   9.537  0.1387 -0.0467  0.1194
    1WF      WF65642  19.752   7.896   7.105 -0.0778 -0.2683 -0.2179
    1WF      WF65643  24.666  10.243   8.266  0.0028  0.0860 -0.0935
    1WF      WF65644  17.573  28.033   8.889  0.0259 -0.0572 -0.1299
    1WF      WF65645   8.950  10.772   0.260  0.2577 -0.0623 -0.2446
    1WF      WF65646  20.579   7.716   9.358 -0.1728 -0.0525  0.1835
    1WF      WF65647  19.600  27.233   0.511  0.0916  0.0776 -0.0872
    1WF      WF65648  12.625  13.128   0.887  0.0866  0.1288  0.0454
    1WF      WF65649  25.507  10.216   0.800  0.2409 -0.0633 -0.0332
    1WF      WF65650   4.527  26.511   9.813 -0.2905 -0.2735 -0.2585
    1WF      WF65651   5.612  23.957   2.127 -0.0523 -0.1211 -0.0456
    1WF      WF65652   6.735  20.161   0.111  0.4593 -0.0030  0.3106
    1WF      WF65653   8.199  24.339   6.895  0.0912 -0.0409  0.2772
    1WF      WF65654   6.614  16.272   2.504 -0.2568 -0.2832  0.0928
    1WF      WF65655  17.392  16.407   8.185 -0.1246  0.2535  0.1505
    1WF      WF65656  19.720   9.098   9.075 -0.1285 -0.0986 -0.0186
    1WF      WF65657   5.842  20.911   3.497  0.0691  0.0305  0.3737
    1WF      WF65658  17.930  22.317   1.556 -0.3224  0.0941 -0.3684
    1WF      WF65659  28.433  13.838   7.579  0.0771 -0.1550  0.1943
    1WF      WF65660   2.637  25.031   1.902  0.3163 -0.3054  0.3325
    1WF      WF65661  17.217  19.215   8.918 -0.4503 -0.1774 -0.2409
    1WF      WF65662  22.133  21.656   6.630  0.2678  0.1765  0.1742
    1WF      WF65663  10.086  11.073   8.326  0.3049  0.0489 -0.2472
    1WF      WF65664  22.476  25.784   8.532 -0.0042 -0.0534  0.0851
    1WF      WF65665   1.040   6.661   0.819  0.1570 -0.1147  0.0554
    1WF      WF65666  13.448   7.128   7.955 -0.0799  0.0133 -0.2785
    1WF      WF65667  27.402  12.514   9.671 -0.3678  0.0998  0.1957
    1WF      WF65668   8.734  12.549   5.867 -0.4076 -0.0052  0.0778
    1WF      WF65669   4.105   2.100   2.893  0.2599  0.3947 -0.0569
    1WF      WF65670  19.510  17.265   1.660 -0.0191  0.0350 -0.0834
    1WF      WF65671  14.777   9.157   8.056 -0.4134  0.0306  0.0582
    1WF      WF65672  11.902   4.138   7.992  0.2062  0.0182  0.1647
    1WF      WF65673   3.864   1.145   9.161  0.3581  0.0238  0.1120
    1WF      WF65674   5.866  28.073   0.067  0.0431  0.5434 -0.4435
    1WF      WF65675  27.382  11.009   8.552  0.1522  0.2306 -0.4327
    1WF      WF65676  25.757   0.823   8.865 -0.0623 -0.0899 -0.2345
    1WF      WF65677  18.312   7.879   0.406  0.3451 -0.1645 -0.0588
    1WF      WF65678  17.768   8.960   0.682 -0.0025  0.0668  0.2403
    1WF      WF65679  23.978  11.012   1.147 -0.2991 -0.3087 -0.1819
    1WF      WF65680  19.133  21.881   7.801  0.2173  0.1252  0.5014
    1WF      WF65681  12.938  28.037   8.297  0.2233  0.1985 -0.1310
    1WF      WF65682  22.349  18.370   9.966 -0.1185  0.0725  0.0916
    1WF      WF65683  14.220  22.769   0.082 -0.0132  0.1885  0.2287
    1WF      WF65684  17.123  27.807   7.939  0.0314 -0.0435  0.1349
    1WF      WF65685  14.509  25.947   9.744 -0.3059  0.2980 -0.2268
    1WF      WF65686  13.010   9.496   1.397  0.1419  0.2261 -0.2210
    1WF      WF65687   3.968   2.539   0.098 -0.2639 -0.0031  0.0637
    1WF      WF65688   2.159   5.633   7.876 -0.0653  0.4089 -0.0926
    1WF      WF65689  11.161  21.544   0.476 -0.1642 -0.1574 -0.1075
    1WF      WF65690   3.010  14.218   9.275  0.0176 -0.5085  0.0165
    1WF      WF65691  20.910  23.664   1.034 -0.2815 -0.3209  0.0542
    1WF      WF65692   2.832   2.325   9.422  0.1248  0.1692 -0.5524
    1WF      WF65693  12.199  16.379   0.524  0.0364 -0.0194  0.1807
    1WF      WF65694   3.616  14.198   7.506  0.1142  0.0590  0.0524
    1WF      WF65695  24.086  12.627   8.236  0.1329  0.0194  0.1178
    1WF      WF65696  21.617  11.554   8.926  0.2777  0.0184  0.1807
    1WF      WF65697  18.807   1.341   2.229 -0.1701 -0.0719  0.1430
    1WF      WF65698  12.570   8.615   7.682 -0.1572 -0.1849 -0.0962
    1WF      WF65699   6.590   2.880   2.210  0.0071  0.0473 -0.0106
    1WF      WF65700   6.449  13.842   9.917  0.2036 -0.0896 -0.2143
    1WF      WF65701   2.460  10.748   7.384  0.0468  0.3543  0.0297
    1WF      WF65702  28.505  13.807   3.657 -0.0142 -0.1650  0.1455
    1WF      WF65703   2.334   9.471   1.868 -0.0361  0.0608  0.0945
    1WF      WF65704  13.167   8.315   8.360 -0.1076  0.1396  0.0010
    1WF      WF65705  12.315   6.079   0.056  0.0920 -0.2218 -0.0597
    1WF      WF65706   6.780  25.479   2.177 -0.2459  0.2596  0.1928
    1WF      WF65707   6.974  26.005   1.906  0.0916 -0.2656 -0.2576
    1WF      WF65708   8.123  27.426   2.399  0.0006  0.0296  0.1697
    1WF      WF65709  27.632  21.148   3.425 -0.2396 -0.0235  0.1708
    1WF      WF65710  21.950  24.137   1.930  0.3718 -0.0332 -0.0527
    1WF      WF65711   6.307   3.446   9.578  0.0548  0.0882  0.0816
    1WF      WF65712   1.623  11.217   0.260  0.0274  0.0370  0.4939
    1WF      WF65713  23.113   2.100   6.935 -0.0228 -0.1031  0.0564
    1ION     NA65714  26.391  18.222   3.688  0.0331 -0.0796  0.0702
    1ION     NA65715  20.296  28.316   1.183  0.0348 -0.2131 -0.0078
    1ION     NA65716  19.232  16.098   9.733  0.1893  0.0232  0.1125
    1ION     NA65717  20.084  11.430   2.578  0.0517  0.3730 -0.1286
    1ION     NA65718  16.937   9.085   0.366  0.0378 -0.1777  0.0531
    1ION     NA65719  17.523  16.499   9.597  0.0341  0.2074 -0.1561
    1ION     NA65720  15.132  25.596   0.638  0.1556  0.2476  0.0525
    1ION     NA65721   0.659  16.635   2.238 -0.0157  0.1422 -0.1468
    1ION     NA65722  14.403  11.457   6.486 -0.0278 -0.0432  0.0992
    1ION     NA65723  28.711  12.302   9.167  0.0875  0.1332  0.2264
    1ION     NA65724   8.005  25.989   9.741 -0.1582 -0.1845 -0.0931
    1ION     NA65725  21.648  25.406   7.002 -0.1976  0.0073 -0.4397
    1ION     NA65726  10.819   0.303   0.540 -0.2583 -0.1144 -0.0871
    1ION     NA65727  17.100   0.217   1.547  0.1938 -0.0996 -0.2739
    1ION     NA65728   0.819  27.405   7.645  0.0028  0.2572  0.0145
    1ION     NA65729   5.086  18.635   6.846  0.2111  0.2682  0.1565
    1ION     NA65730  18.017  25.235   1.464  0.1861 -0.0654  0.1177
    1ION     NA65731  28.059  24.867   9.899  0.1764  0.1359  0.1044
    1ION     NA65732  26.721   8.981   3.402 -0.0504 -0.5973  0.1801
    1ION     NA65733  25.935  19.487   3.401 -0.1459 -0.1352 -0.1758
    1ION     NA65734  28.198  12.249   8.819 -0.0764  0.1755  0.0143
    1ION     NA65735   9.265   3.766   0.977 -0.0764  0.1367  0.0153
    1ION     NA65736  27.304  27.869   2.950  0.0837  0.2223  0.2010
    1ION     NA65737   5.063  10.305   2.051 -0.0822 -0.0502 -0.3028
    1ION     NA65738   9.160  14.849   7.131 -0.3498  0.2982 -0.2140
    1ION     NA65739  11.401  28.235   8.163  0.0125  0.0018 -0.1979
    1ION     NA65740  23.591   2.046   3.245 -0.0874 -0.1535 -0.1795
    1ION     NA65741  19.451   6.094   1.642 -0.1913 -0.0322  0.0221
    1ION     NA65742   6.821  18.239   2.696  0.0232 -0.2002  0.0763
    1ION     NA65743  19.920  17.832   1.881  0.1891  0.1804 -0.1547
    1ION     NA65744  19.303   6.169   9.149  0.2007  0.0288 -0.0539
    1ION     NA65745  12.314  20.375   9.575 -0.4918 -0.2393 -0.3229
    1ION     NA65746  11.407  20.216   1.693  0.1840  0.0311 -0.0128
    1ION     NA65747  18.518   7.921   9.465  0.0359  0.1157 -0.0580
    1ION     NA65748  16.540  21.315   2.403  0.0728  0.0417 -0.1278
    1ION     NA65749  11.068  15.991   8.811  0.1540 -0.0276 -0.0182
    1ION     NA65750  28.215  25.477   2.644 -0.2624 -0.4093 -0.0184
    1ION     NA65751   3.895   9.904   8.825  0.2878 -0.1362 -0.1010
    1ION     NA65752  11.419   2.661   9.373 -0.0057 -0.1413  0.0670
    1ION     NA65753   4.845   4.502   9.792  0.0947 -0.0890  0.1103
    1ION     NA65754  10.153   5.290   3.005  0.1258  0.0829 -0.1678
    1ION     NA65755  14.161  17.473   0.024 -0.0676  0.1019  0.0926
    1ION     NA65756   2.373   8.772   3.377  0.2913  0.1293  0.1096
    1ION     NA65757   8.029  10.769   7.993 -0.1180 -0.1363 -0.0170
    1ION     NA65758   1.512  14.842   2.246  0.0186 -0.2698 -0.3081
    1ION     NA65759  10.085  17.379   8.110  0.2765 -0.0651 -0.1412
    1ION     NA65760   0.402  22.340   0.654 -0.1426  0.2114  0.1243
    1ION     NA65761  27.647  27.957   1.942 -0.2663  0.0453  0.1599
    1ION     NA65762  15.541   5.912   1.744  0.0218  0.0465 -0.3444
    1ION     NA65763  25.323  10.880   3.151 -0.1170 -0.0144  0.2337
    1ION     NA65764  18.484  25.110   3.355  0.2028 -0.0950  0.1258
    1ION     NA65765  10.245   9.549   8.094  0.2739 -0.0056  0.3956
    1ION     NA65766  25.884  17.544   9.844 -0.3083  0.1705 -0.2381
    1ION     NA65767  14.661  10.325   1.458 -0.1991 -0.0590  0.0709
    1ION     NA65768  26.452   0.151   7.803 -0.2213  0.0858 -0.0294
    1ION     NA65769  18.382  14.088   9.733 -0.1391  0.0744  0.3476
    1ION     NA65770  21.487   1.411   8.977 -0.0334  0.0365 -0.0315
    1ION     NA65771  15.049  24.800   6.772  0.0126  0.3049 -0.1075
    1ION     NA65772  16.878  17.769   9.689  0.0307  0.3110 -0.0844
    1ION     NA65773   2.228   0.205   3.045  0.0067 -0.0119  0.1701
    1ION     NA65774   0.557  19.553   3.200 -0.4453  0.2121  0.1662
    1ION     NA65775  15.749  11.839   8.189 -0.1172 -0.1431 -0.4067
    1ION     NA65776  18.610   8.132   7.832 -0.2919  0.0992 -0.0390
    1ION     NA65777  28.335  18.717   8.796  0.1820 -0.1439 -0.1238
    1ION     NA65778  21.839  15.219   2.264 -0.2496 -0.0906 -0.0342
    1ION     NA65779  27.753  20.077   3.763  0.1849 -0.3095  0.1289
    1ION     NA65780   8.806  16.478   8.264  0.0393  0.0194  0.0442
    1ION     NA65781   5.988   9.464   3.004  0.0003 -0.4465 -0.0571
    1ION     NA65782  13.733  12.086   2.115 -0.0090 -0.1069  0.1980
    1ION     NA65783  23.968   3.581   1.207 -0.1901 -0.0591  0.0275
    1ION     NA65784   3.062  16.099   0.971  0.1305 -0.1883  0.1222
    1ION     NA65785  27.078   7.885   9.432 -0.1323  0.1719  0.0017
    1ION     NA65786  18.466  14.807   9.214  0.2252 -0.1395 -0.0112
    1ION     NA65787   1.469  24.403   2.917  0.0039  0.1132 -0.0976
    1ION     NA65788  21.283  26.647   3.229 -0.4943  0.1425 -0.0410
    1ION     NA65789   6.397  13.316   1.473 -0.0956  0.1179 -0.0810
    1ION     NA65790   5.941  26.608   0.479  0.0083  0.1047  0.0476
    1ION     NA65791   4.865  17.593   2.889  0.0432  0.3073  0.0747
    1ION     NA65792  14.184  20.464   7.191  0.2270  0.2251  0.1072
    1ION     NA65793  13.738  13.192   2.377 -0.0223  0.0633  0.1388
    1ION     NA65794  23.788  12.429   7.895  0.0018 -0.2021 -0.0634
    1ION     NA65795  10.763   0.994   2.828 -0.2363 -0.1503 -0.3442
    1ION     NA65796  15.679   2.410   6.673  0.0022  0.2415  0.4515
    1ION     NA65797   2.871   6.850   0.506 -0.1169 -0.1210  0.1455
    1ION     NA65798  24.759  26.893   0.650 -0.1275  0.3060 -0.0415
    1ION     NA65799  26.365  17.627   1.256 -0.3070 -0.3892 -0.4317
    1ION     NA65800  12.579   0.839   2.517 -0.0110 -0.0791 -0.0123
    1ION     NA65801  24.322  21.195   9.778  0.0375  0.0337 -0.2093
    1ION     NA65802  19.376  20.595   9.066 -0.0215 -0.0107 -0.1594
    1ION     NA65803  19.115  12.637   9.224  0.0235 -0.1868 -0.1239
    1ION     NA65804   6.755  19.004   1.622  0.2767  0.0888  0.0251
    1ION     NA65805  26.692   1.079   0.453  0.2239 -0.3423 -0.0856
    1ION     NA65806  21.047   0.008   0.326 -0.0884 -0.0495 -0.1506
    1ION     NA65807  24.879   6.833   3.559  0.1042  0.0963 -0.2351
    1ION     NA65808   6.324   9.952   1.767  0.1489  0.0973  0.0869
    1ION     NA65809   8.769  22.853   2.726 -0.0520  0.1426  0.1303
    1ION     NA65810  22.266   7.129   8.444 -0.1254  0.1403  0.1644
    1ION     NA65811  10.240  23.147   8.917  0.0021  0.2878 -0.0966
    1ION     NA65812   2.744   7.819   2.287 -0.0908  0.0202  0.3011
    1ION     NA65813   5.372  15.249   0.382 -0.0132 -0.0827  0.0858
    1ION     NA65814  14.916  12.215   7.857 -0.1897  0.2604  0.0214
    1ION     NA65815  21.758   8.411   8.077  0.1622 -0.0506  0.1163
    1ION     NA65816   9.753   4.565   6.844 -0.2121 -0.1097 -0.1211
    1ION     NA65817   4.088  28.315   0.572 -0.1275  0.5237  0.2154
    1ION     NA65818  22.717   1.727   1.021  0.1843 -0.1832  0.1783
    1ION     NA65819  24.731  18.025   7.198  0.0913  0.1104  0.4021
    1ION     NA65820  24.686  14.694   3.342  0.1407 -0.0284 -0.0380
    1ION     NA65821   1.742  16.273   0.457  0.0243 -0.1526 -0.2878
    1ION     NA65822   0.470   9.132   0.549 -0.5838 -0.0669 -0.0265
    1ION     NA65823  12.425   7.582   9.983 -0.1957 -0.1687  0.0106
    1ION     NA65824   5.747  20.073   8.237 -0.1451 -0.0870  0.2040
    1ION     NA65825   7.831  24.279   7.259 -0.0985  0.0105  0.5012
    1ION     NA65826   1.678  28.749   1.293  0.1609  0.1817  0.2544
    1ION     NA65827  27.928   2.585   4.197  0.1692 -0.1083  0.5879
    1ION     NA65828  14.364  10.893   1.981  0.0654  0.0348  0.2656
    1ION     NA65829   9.463  27.069   1.320 -0.1189 -0.0651  0.0937
    1ION     NA65830  23.135  26.324   8.151  0.3522  0.1568  0.0791
    1ION     NA65831  13.586   6.867   0.484 -0.0812 -0.0447  0.0219
    1ION     NA65832  16.198   2.234   6.597 -0.0105 -0.0035  0.0033
    1ION     NA65833   2.823   2.454   8.583  0.0996  0.2940 -0.1290
    1ION     NA65834   0.196   9.170   9.476 -0.1440  0.0140  0.0039
    1ION     NA65835  13.629  12.114   6.675  0.0925  0.4908 -0.0266
    1ION     NA65836  14.826  21.546   7.814  0.0935  0.0867  0.3175
    1ION     NA65837  10.443   1.743   9.644 -0.0392  0.1381 -0.2235
    1ION     NA65838   5.136  24.666   1.485  0.0564 -0.1101  0.0464
    1ION     NA65839  13.964  27.986   2.507  0.0495 -0.1034  0.0198
    1ION     NA65840   7.913   9.674   8.231  0.1236 -0.1472  0.2431
    1ION     NA65841  16.244  19.049   0.015  0.2654  0.0335 -0.0025
    1ION     NA65842  19.291   2.213   7.204 -0.1319 -0.1273  0.1026
    1ION     NA65843   2.295  24.779   9.234  0.2296  0.1425  0.2126
    1ION     NA65844  16.722  15.116   0.950  0.0014  0.0906 -0.2913
    1ION     NA65845   1.027  14.276   7.252 -0.0074  0.1794  0.1519
    1ION     NA65846   6.385   3.062   3.908 -0.0318 -0.2387 -0.0600
    1ION     NA65847  25.366   6.413   2.502 -0.0088 -0.3756 -0.0091
    1ION     NA65848   0.449  23.286   1.939 -0.1655  0.2372 -0.0746
    1ION     NA65849  19.523  13.103   7.873 -0.0397 -0.0031  0.1237
    1ION     NA65850  17.441  26.257   1.004  0.0149 -0.0484  0.0201
    1ION     NA65851   3.901   1.450   4.154 -0.0935  0.2295  0.0049
    1ION     NA65852  18.247  24.574   8.281  0.2292 -0.1108  0.2990
    1ION     NA65853  15.765  26.417   8.157  0.0265  0.2274 -0.2095
    1ION     NA65854   4.427   0.588   2.595 -0.2656 -0.0436  0.0313
    1ION     NA65855   4.832  21.329   9.391  0.1360 -0.2557 -0.1539
    1ION     NA65856  16.443   1.957   9.644 -0.1104  0.1540  0.3445
    1ION     NA65857   8.967  18.767   6.820 -0.0692  0.0229  0.5852
    1ION     NA65858  24.675  17.490   2.782 -0.0177 -0.1048 -0.1833
    1ION     NA65859  10.047  14.470   7.569 -0.1416 -0.1424  0.0641
    1ION     NA65860   9.883  15.299   0.370  0.0706 -0.1094 -0.1438
    1ION     NA65861  10.598  27.636   9.104 -0.1036 -0.1057  0.1401
    1ION     NA65862  27.218  18.104   2.128  0.1031  0.3064 -0.0727
    1ION     NA65863  20.121  27.217   2.140  0.1697 -0.0155  0.2260
    1ION     NA65864  15.871   6.838   9.581 -0.1955 -0.0058  0.0371
    1ION     NA65865  25.128   3.246   0.123 -0.0777  0.1602 -0.0598
    1ION     NA65866   9.704  16.009   9.929 -0.0958  0.0292 -0.1467
    1ION     NA65867  28.191  16.440   1.879  0.1955  0.1145  0.0635
    1ION     NA65868  15.789  27.912   6.477  0.0647  0.0666 -0.4288
    1ION     NA65869   6.408   6.824   8.204  0.3291  0.2444  0.2141
    1ION     NA65870  16.781   4.062   1.833 -0.0002  0.1838  0.1359
    1ION     NA65871  10.447  17.574   1.512 -0.1072 -0.0465  0.1466
    1ION     NA65872  27.575  28.556   8.459  0.0389  0.2390  0.1351
    1ION     NA65873   6.246  10.871   6.606  0.1514  0.1386 -0.0573
    1ION     NA65874   8.390  11.626   0.570  0.1508 -0.1242 -0.2703
    1ION     NA65875   3.922  26.318   3.351 -0.2396  0.0416  0.1527
    1ION     NA65876  21.796  27.051   9.246 -0.0067  0.1394 -0.4109
    1ION     NA65877  17.674  23.928   2.785  0.4559 -0.0951 -0.1120
    1ION     NA65878  23.345  17.595   7.830  0.1613  0.0191  0.0164
    1ION     NA65879  11.052  13.637   5.781 -0.2884 -0.0804  0.2038
    1ION     NA65880  19.516  20.930   1.591  0.0038 -0.2630  0.1218
    1ION     NA65881   5.236   9.726   7.577 -0.1630 -0.4218 -0.3898
    1ION     NA65882   4.836  17.058   7.077  0.1483 -0.0317  0.0398
    1ION     NA65883   7.412  17.060   8.871  0.3216  0.0168  0.0674
    1ION     NA65884   0.293  19.130   8.315  0.2053  0.2034 -0.1646
    1ION     NA65885   4.191   6.072   2.451 -0.0157  0.0374  0.1345
    1ION     NA65886   2.764  16.778   2.717 -0.4017  0.2427  0.0759
    1ION     NA65887  17.829  10.507   9.542 -0.0368 -0.0971 -0.2545
    1ION     NA65888   3.331   4.853   7.719  0.2288 -0.2326 -0.0723
    1ION     NA65889  22.937   2.698   1.436  0.0718 -0.0382  0.0178
    1ION     NA65890  21.287  19.651   8.846  0.0294 -0.0166 -0.1413
    1ION     NA65891  18.986   8.442   6.019 -0.0343 -0.0274 -0.1769
    1ION     NA65892  11.094   5.389   8.507  0.2222 -0.2943  0.1578
    1ION     NA65893  20.382   5.765   6.553 -0.2387 -0.1156 -0.1614
    1ION     NA65894   7.401   0.461   0.868 -0.0280  0.1492 -0.1843
    1ION     NA65895   8.656  24.797   9.456 -0.1418  0.0011  0.0044
    1ION     NA65896  20.358   1.013   9.616 -0.1449  0.2790  0.1077
    1ION     NA65897  21.848   8.079   1.871  0.1541 -0.2038  0.0289
    1ION     NA65898  14.675  25.979   8.511 -0.1090  0.1450  0.2802
    1ION     NA65899  19.707   2.386   0.626 -0.1349 -0.2206 -0.0588
    1ION     NA65900   0.373  28.055   7.934  0.0347 -0.2266 -0.0970
    1ION     NA65901  25.833  22.720   0.184 -0.0087  0.3624  0.1711
    1ION     NA65902  25.240  27.760   3.628 -0.4237  0.2091  0.1875
    1ION     NA65903  14.033  23.746   0.725  0.1249 -0.3793  0.2379
    1ION     NA65904   7.698  23.615   2.029  0.0315  0.2306 -0.1544
    1ION     NA65905  12.667   2.295   2.270 -0.2359 -0.1054  0.1220
    1ION     NA65906   3.644   6.756   7.212  0.1126  0.3027 -0.1463
    1ION     NA65907   6.038  28.059   3.224 -0.0821  0.1768 -0.0625
    1ION     NA65908  17.230  15.133   0.663 -0.0926 -0.2167 -0.1640
    1ION     NA65909   7.203  24.713   9.265  0.1894  0.0502  0.0694
    1ION     NA65910  11.233   5.343   2.387 -0.2689 -0.0736  0.0458
    1ION     NA65911  26.169  21.423   9.197 -0.3209 -0.1327  0.1266
    1ION     NA65912  19.216  13.387   2.516  0.2494  0.0195  0.2007
    1ION     NA65913  15.547  27.873   0.339  0.0595 -0.0803 -0.0069
    1ION     NA65914   8.289  22.362   6.897  0.1038 -0.0704 -0.2073
    1ION     NA65915  13.952   8.159   0.623  0.2901  0.0361 -0.1971
    1ION     NA65916  10.004   2.826   8.993 -0.0139 -0.2150 -0.1287
    1ION     NA65917   1.343  19.195   7.782 -0.0080  0.2200  0.3731
    1ION     NA65918   3.749  12.498   3.236 -0.0304 -0.0583  0.3689
    1ION     NA65919  26.039  12.752   0.130  0.1111 -0.1126 -0.0597
    1ION     NA65920   7.794   1.716   3.283 -0.1119  0.1010 -0.0927
    1ION     NA65921   1.931  15.849   2.639  0.1354 -0.1319  0.1101
    1ION     NA65922  28.617   5.400   4.274  0.1425  0.2675  0.2636
    1ION     NA65923   2.729  17.647   7.525  0.1204  0.4833 -0.1011
    1ION     NA65924   5.134   7.040   0.937  0.0580 -0.2072 -0.1645
    1ION     NA65925   2.395  24.236   8.181  0.0903  0.5353 -0.2799
    1ION     NA65926  16.989  21.558   2.887  0.2085  0.1348 -0.0449
    1ION     NA65927   7.388  11.528   7.892  0.3687  0.0629  0.2770
    1ION     NA65928   6.606  26.575   7.746 -0.1178  0.0288  0.2390
    1ION     NA65929   9.099   1.614   9.116  0.2985  0.2431  0.6118
    1ION     NA65930   3.861  26.909   3.006 -0.2436 -0.0119 -0.1289
    1ION     NA65931   1.962   6.802   8.069 -0.1536 -0.0029  0.2195
    1ION     NA65932  14.811  15.669   2.744  0.2756 -0.0189  0.0375
    1ION     NA65933   0.814  22.220   2.992  0.0444  0.1867  0.0123
    1ION     NA65934   8.124   8.863   7.949  0.1393 -0.2451  0.1139
    1ION     NA65935  22.346  13.066   1.322  0.3164  0.1856 -0.0372
    1ION     NA65936  27.387  17.294   0.867 -0.0936  0.0389  0.1399
    1ION     NA65937  19.687  21.904   0.626  0.1193  0.0307  0.0709
    1ION     NA65938  10.932  23.643   3.759  0.0185 -0.0345  0.0321
    1ION     NA65939   2.642  15.352   8.707  0.1555  0.0956  0.3308
    1ION     NA65940  12.503  12.507   8.555  0.0476 -0.2166  0.1090
    1ION     NA65941  13.733  21.484   2.264 -0.2135 -0.0759  0.2037
    1ION     NA65942  23.818  17.178   1.718 -0.0183 -0.0037 -0.2190
    1ION     NA65943  24.486  15.889   9.422  0.3604  0.1681  0.1339
    1ION     NA65944   3.593  23.986   2.410 -0.4312  0.2690  0.0332
    1ION     NA65945   7.579  28.862   2.132  0.0386 -0.1378  0.2251
    1ION     NA65946  20.928  27.372   1.725 -0.2000  0.1121  0.3580
    1ION     NA65947  10.215   0.238   7.210 -0.0835  0.0469 -0.0044
    1ION     NA65948   2.936  13.813   3.223  0.0473  0.2572 -0.0438
    1ION     NA65949  24.474   2.968   0.858  0.2394  0.0517  0.0310
    1ION     NA65950  18.205  15.542   1.681  0.1209  0.0129 -0.0173
    1ION     NA65951   4.967  21.054   0.774 -0.1640 -0.0074  0.2561
    1ION     NA65952  23.064   4.619   2.822  0.0303 -0.3568 -0.0920
    1ION     NA65953   0.152  19.265   4.028 -0.1183  0.2107 -0.1809
    1ION     NA65954   9.142  10.637   9.761  0.1653 -0.3492  0.2098
    1ION     NA65955  18.110  12.584   2.214  0.0887 -0.4920 -0.1697
    1ION     NA65956  22.329   3.837   1.725 -0.2449  0.0610 -0.1611
    1ION     NA65957   1.308   8.687   1.055  0.2296  0.1215 -0.2578
    1ION     NA65958   2.033  14.122   2.712  0.0497 -0.2583 -0.0581
    1ION     NA65959   1.823   6.327   2.653 -0.0144  0.1374 -0.0330
    1ION     NA65960  10.452  16.172   6.592 -0.2631 -0.1753 -0.1067
    1ION     NA65961   3.474  12.826   8.086 -0.0403  0.2202  0.0806
    1ION     NA65962  19.751  28.040   8.390 -0.0004  0.0180 -0.0286
    1ION     NA65963  27.529   3.127   3.842  0.1258 -0.2022 -0.1768
    1ION     NA65964   8.759  12.166   7.389  0.0487  0.4547 -0.0664
    1ION     NA65965  21.087  13.866   1.535 -0.0873  0.1803  0.2940
    1ION     NA65966   8.328   9.215   0.488  0.0159 -0.2036  0.2249
    1ION     NA65967  14.592  12.695   8.543 -0.0370 -0.1321  0.1468
    1ION     NA65968   1.105  11.735   3.632  0.1414 -0.2200  0.1642
    1ION     NA65969   1.881  27.433   1.501  0.0020 -0.1056 -0.1100
    1ION     NA65970   8.844  14.133   6.696 -0.0936  0.0269  0.2994
    1ION     NA65971   3.257  16.969   7.025 -0.3502 -0.1433 -0.2024
    1ION     NA65972  22.976  24.165   0.765 -0.0586 -0.0990 -0.1804
    1ION     NA65973  22.280  20.202   2.997 -0.1517  0.0410  0.3365
    1ION     NA65974  22.438  22.552   3.306 -0.2110  0.1851 -0.0194
    1ION     NA65975  18.938  19.881   5.874 -0.1543 -0.0262  0.1485
    1ION     NA65976  13.502  26.262   2.320  0.0410  0.0194  0.3804
    1ION     NA65977  17.378  14.137   7.007  0.2276 -0.1582 -0.0436
    1ION     NA65978  22.862  26.663   1.454  0.2588  0.0976  0.1962
    1ION     NA65979   1.883  23.200   2.850 -0.3638 -0.2973  0.3422
    1ION     NA65980  12.124  10.144   0.307 -0.4238 -0.1039  0.1916
    1ION     NA65981  10.125  14.305   9.054  0.0402 -0.3176 -0.0874
    1ION     NA65982   7.478   0.527   9.554 -0.0982 -0.2296 -0.0440
    1ION     NA65983   7.050   9.987   2.435  0.1321 -0.1218 -0.1357
    1ION     NA65984  23.647   1.025   0.640 -0.1071  0.0139 -0.0872
    1ION     NA65985  17.698   3.919   1.786 -0.0221  0.1232 -0.1119
    1ION     NA65986  17.217  24.924   1.925 -0.3776  0.0035  0.1385
    1ION     NA65987  12.973  19.643   1.502 -0.1398  0.2407  0.2396
    1ION     NA65988  10.680  19.494   7.165  0.0102  0.2599 -0.1250
    1ION     NA65989   4.036  23.810   7.348  0.1299 -0.0322 -0.2372
    1ION     NA65990  20.602  10.685   9.154  0.1326 -0.1191  0.1857
    1ION     NA65991   5.398  10.422   6.581  0.0277 -0.1599  0.2242
    1ION     NA65992  26.704   5.542   1.565  0.2076 -0.2426 -0.3005
    1ION     NA65993  16.572  13.728   9.723 -0.1307 -0.1986  0.1273
    1ION     NA65994   9.925  25.312   7.683  0.0917  0.0014  0.3813
    1ION     NA65995  23.772  10.459   9.556  0.1311 -0.1227 -0.0581
    1ION     NA65996  16.734  25.347   8.092  0.3005  0.0320  0.0072
    1ION     NA65997  26.299   4.290   7.940  0.1282 -0.0439 -0.3001
    1ION     NA65998  27.354   7.989   7.971  0.0021 -0.1886  0.1151
    1ION     NA65999  13.448  11.401   0.808  0.3063 -0.2310 -0.1990
    1ION     NA66000  18.644  20.535   8.299  0.3221 -0.0558 -0.0552
    1ION     NA66001  15.670  22.493   6.582 -0.1659 -0.0655  0.2952
    1ION     NA66002   6.648   2.994   9.421 -0.0497  0.1968 -0.1401
    1ION     NA66003  10.996   2.418   6.491 -0.0362 -0.2338 -0.0070
    1ION     NA66004  21.151  16.229   1.118 -0.0236 -0.1812  0.1357
    1ION     NA66005  16.683   2.404   0.916  0.0289  0.0274  0.1011
    1ION     NA66006  11.552  27.451   0.183  0.2455 -0.0686 -0.0511
    1ION     NA66007  19.042   5.811   1.431  0.0576  0.1413 -0.1829
    1ION     NA66008  16.690  17.884   2.355  0.1441 -0.1113  0.0114
    1ION     NA66009   9.027  10.819   8.165 -0.0479  0.0090 -0.0731
    1ION     NA66010  11.817   5.721   6.116  0.0539 -0.1404 -0.0039
    1ION     NA66011  19.600   9.961   7.162 -0.1249 -0.0825 -0.2936
    1ION     NA66012   1.067  10.252   8.346 -0.0643  0.0609 -0.3720
    1ION     NA66013  21.360  28.127   9.806  0.1487 -0.0670  0.0815
    1ION     NA66014   4.175  18.487   7.023 -0.0018 -0.0155  0.3063
    1ION     NA66015  12.528  23.808   1.810 -0.0477  0.0337 -0.1330
    1ION     NA66016  24.584  19.518   1.039  0.2061 -0.0318 -0.1660
    1ION     NA66017  12.230  13.449   0.061 -0.0213  0.1242  0.0064
    1ION     NA66018   8.399  28.599   3.288 -0.0483 -0.1138  0.1836
    1ION     NA66019   4.443  16.817   2.294  0.1431 -0.0602 -0.3535
    1ION     NA66020  20.779  17.187   8.425 -0.2494  0.0736 -0.2034
    1ION     NA66021   9.548  20.695   7.747 -0.0431  0.2447  0.0810
    1ION     NA66022  23.101   8.230   2.698 -0.1160 -0.0238  0.1700
    1ION     NA66023  16.058  20.000   6.285 -0.2834 -0.1821 -0.0134
    1ION     NA66024   1.166   7.375   2.250 -0.0042 -0.3538  0.0562
    1ION     NA66025   9.276  26.796   0.015 -0.0379  0.1389 -0.3786
    1ION     NA66026  27.293  13.385   9.273  0.1827  0.0249  0.1531
    1ION     NA66027   0.605  24.971   7.808 -0.0212 -0.0671  0.1634
    1ION     NA66028  24.654   8.136   3.210 -0.2052  0.1698 -0.1402
    1ION     NA66029   2.605   8.884   2.862  0.2293  0.4314 -0.1089
    1ION     NA66030   1.681  13.637   3.484 -0.0249 -0.0350  0.0175
    1ION     NA66031  22.538  12.110   1.960  0.0337  0.0129  0.3213
    1ION     NA66032   1.120  18.742   7.489  0.0141  0.2242 -0.1178
    1ION     NA66033  13.383  20.362   7.437 -0.0494  0.0564 -0.2347
    1ION     NA66034   4.067   4.093   7.696 -0.0052  0.6514  0.1610
    1ION     NA66035  21.559  21.562   8.797 -0.1743  0.0582  0.0108
    1ION     NA66036   7.744  13.547   5.704  0.6428  0.1795  0.2143
    1ION     NA66037  19.736  11.966   6.398  0.0566  0.4593  0.2384
    1ION     NA66038  22.256  22.353   0.900 -0.1081  0.0982 -0.1466
    1ION     NA66039  18.310  22.601   7.174 -0.0834  0.1361 -0.2031
    1ION     NA66040  16.695  28.175   0.611 -0.2802  0.0413 -0.1119
    1ION     NA66041  12.422   8.968   5.786  0.0607  0.0284 -0.2551
    1ION     NA66042  13.606  13.684   9.543 -0.1464 -0.1624  0.1447
    1ION     NA66043  24.812  12.885   9.996 -0.0300 -0.0181  0.1183
    1ION     NA66044  12.954  18.570   0.173 -0.1082 -0.1402  0.0195
    1ION     NA66045   9.278  25.840   3.617 -0.0565  0.2064  0.0181
    1ION     NA66046  22.892  11.168   2.832  0.0523  0.0437  0.2405
    1ION     NA66047  11.782   6.784   1.645 -0.1351 -0.1324 -0.3243
    1ION     NA66048  23.772   0.484   3.275  0.0360 -0.0389 -0.0497
    1ION     NA66049   4.193  14.338   0.045 -0.0667  0.0865  0.0161
    1ION     NA66050  26.503   5.972   8.797 -0.0203  0.2377 -0.1585
    1ION     NA66051  10.242  22.073   0.478  0.1689 -0.1492 -0.1304
    1ION     NA66052  27.210  16.718   3.704 -0.1945  0.0355 -0.0911
    1ION     NA66053  23.513  23.400   7.300  0.0228  0.1020  0.1200
    1ION     NA66054  13.577  26.814   8.136  0.2518 -0.0949 -0.0276
    1ION     NA66055  22.902   7.026   2.473  0.0914  0.0413  0.2494
    1ION     NA66056  11.430   4.393   0.886 -0.0915 -0.0918 -0.2037
    1ION     NA66057  10.909   3.310   1.901 -0.0294 -0.1194 -0.0141
    1ION     NA66058  19.298   8.807   1.518 -0.0466 -0.1756  0.2366
    1ION     NA66059  13.874   1.605   2.224 -0.0427 -0.0001 -0.3450
    1ION     NA66060  25.284   3.237   7.558 -0.2421  0.0624 -0.2583
    1ION     NA66061  15.925  28.667   0.057  0.0837  0.0885  0.1268
    1ION     NA66062   9.484  19.961   8.931 -0.2200 -0.2051 -0.1440
    1ION     NA66063  23.418  12.342   2.124  0.0102  0.0797  0.0013
    1ION     NA66064  15.459   4.177   9.141 -0.2146 -0.1591 -0.1604
    1ION     NA66065  26.348   7.724   0.247 -0.0213  0.0531 -0.2404
    1ION     NA66066   3.373  27.761   4.207 -0.0751  0.2099 -0.1156
    1ION     NA66067  10.385   5.933   8.987  0.1313  0.1849 -0.1505
    1ION     NA66068  27.147   4.907   3.011  0.0783 -0.0072 -0.0408
    1ION     NA66069   5.962  25.554   1.395  0.2405 -0.0895 -0.1077
    1ION     NA66070   6.324  10.983   7.911 -0.0083  0.0768  0.1406
    1ION     NA66071  24.988  21.917   9.903 -0.0380 -0.1963 -0.1464
    1ION     NA66072  10.112  26.842   9.977 -0.2244  0.0173  0.2539
    1ION     NA66073  19.545   4.677   6.535 -0.1609  0.0876 -0.1512
    1ION     NA66074  13.121  17.327   2.797  0.2942  0.2444  0.1442
    1ION     NA66075  15.103   9.148   8.477 -0.2467  0.1109  0.0874
    1ION     NA66076   3.205   8.640   7.288 -0.0945 -0.1617 -0.2251
    1ION     NA66077   9.849  19.483   2.976  0.0351 -0.0066 -0.0513
    1ION     NA66078  10.208  10.589   2.087 -0.0080 -0.1754  0.1567
    1ION     NA66079  23.458  20.288   9.557  0.1912 -0.0783 -0.4195
    1ION     NA66080   1.282   9.060   0.305  0.0796 -0.0413  0.2747
    1ION     NA66081  27.415  24.439   7.754  0.1339 -0.1665  0.2135
    1ION     NA66082  26.663  25.121   3.694 -0.0769 -0.0616  0.0920
    1ION     NA66083   3.167  10.998   9.073 -0.0586  0.0847 -0.2053
    1ION     NA66084   1.034  12.046   2.351 -0.0883 -0.1709  0.0505
    1ION     NA66085   2.327  21.702   1.238 -0.1665  0.3080 -0.0940
    1ION     NA66086  27.755   7.546   3.432  0.0944 -0.0807  0.0047
    1ION     NA66087   8.506  22.532   8.273 -0.0271 -0.1199 -0.1832
    1ION     NA66088   8.165  27.219   3.992  0.0191 -0.1175  0.0643
    1ION     NA66089   6.261  15.634   8.242  0.0073 -0.1890 -0.5640
    1ION     NA66090  17.504  22.401   2.538  0.4845  0.2083 -0.1488
    1ION     NA66091  27.114   1.417   2.253  0.3518  0.1150  0.3397
    1ION     NA66092  28.201  13.683   8.086 -0.0644  0.0871  0.1876
    1ION     NA66093  28.135  23.017   8.289  0.2670  0.1043 -0.1314
    1ION     NA66094  17.459   0.576   1.809  0.1213  0.0453  0.0730
    1ION     NA66095  16.859  11.017   7.007  0.1636  0.5448  0.1390
    1ION     NA66096  28.184  11.412   8.936  0.1513  0.1048 -0.2381
    1ION     NA66097  24.796  19.421   3.120 -0.2287  0.3658  0.0835
    1ION     NA66098   8.383  18.437   2.212  0.1346 -0.2774  0.1370
    1ION     NA66099  26.074  25.310   7.842 -0.0066  0.0528 -0.1110
    1ION     NA66100  11.557  14.317   1.022  0.2105  0.3791 -0.2162
    1ION     NA66101  12.866   2.802   7.534 -0.1583 -0.0349  0.0887
    1ION     NA66102  22.543  20.276   9.219  0.0422 -0.1737  0.0202
    1ION     NA66103  20.454  21.972   6.479 -0.0499 -0.2160  0.1598
    1ION     NA66104  11.749   9.028   8.331  0.0626 -0.2487 -0.1618
    1ION     NA66105  18.521  17.320   7.823 -0.2140 -0.1566  0.1795
    1ION     NA66106  18.036   3.552   8.952  0.0047  0.3415  0.1061
    1ION     NA66107  13.356  15.067   9.974  0.1685  0.0749  0.1381
    1ION     NA66108  25.932  15.161   3.485 -0.0152 -0.2284  0.0230
    1ION     NA66109  11.984   2.417   7.731  0.0446 -0.4689 -0.0973
    1ION     NA66110  21.732  18.167   2.752 -0.1306  0.3136 -0.1293
    1ION     NA66111  14.726  24.264   1.994 -0.0593  0.2240 -0.0184
    1ION     NA66112   5.119  27.230   8.474  0.1850 -0.3889  0.0441
    1ION     NA66113   0.501   2.239   9.483  0.2301 -0.0316 -0.0834
    1ION     NA66114  26.555   4.318   2.603 -0.1087  0.1963 -0.2322
    1ION     NA66115   1.440  19.574   0.361  0.0302  0.3418  0.0345
    1ION     NA66116  24.579  12.158   3.229 -0.0263  0.0090  0.2083
    1ION     NA66117   6.304  13.442   6.699  0.1714  0.0071  0.1416
    1ION     NA66118  11.922  11.244   0.351  0.0626 -0.0504  0.0026
    1ION     NA66119  15.123  18.664   6.453 -0.1512 -0.1575 -0.0514
    1ION     NA66120  11.031  26.476   3.256  0.0994 -0.2431 -0.3800
    1ION     NA66121  27.680   5.560   9.883 -0.1955 -0.1335 -0.0860
    1ION     NA66122   5.360  28.700   4.181  0.0589 -0.5950  0.0872
    1ION     NA66123   5.860  18.364   1.851 -0.1239 -0.2904 -0.1457
    1ION     NA66124  13.387  17.701   0.706 -0.0298 -0.2155  0.2580
    1ION     NA66125  15.800  14.079   2.614 -0.2459  0.3516  0.1713
    1ION     NA66126  15.052  15.127   1.394  0.2728  0.0701 -0.1254
    1ION     NA66127   7.403   6.590   2.318 -0.1268 -0.1328  0.0589
    1ION     NA66128  13.875  21.874   1.063  0.0808 -0.1822 -0.0955
    1ION     NA66129  15.428  25.583   3.064  0.1869  0.1859  0.1388
    1ION     NA66130  11.804  24.295   0.460  0.1768 -0.0856  0.2655
    1ION     NA66131  13.753  27.598   6.699  0.0434  0.0227  0.0267
    1ION     NA66132   7.360  19.979   2.734 -0.3007  0.1542  0.1051
    1ION     NA66133  26.822  27.214   8.981  0.0807  0.0773 -0.2869
    1ION     NA66134   6.860   5.334   7.296  0.0761  0.0462 -0.1759
    1ION     NA66135  17.047   0.624   2.746  0.1085  0.2420  0.0596
    1ION     CL66136  24.742   2.951   0.377 -0.1632  0.0760  0.0527
    1ION     CL66137  28.821   8.773   9.271  0.2881 -0.2350  0.1515
    1ION     CL66138  25.223  10.226   9.314  0.2024 -0.1445 -0.1243
    1ION     CL66139  25.282   2.755   8.953 -0.2753 -0.1653  0.2365
    1ION     CL66140  12.232  19.887   9.624  0.1050  0.2978  0.1167
    1ION     CL66141  13.638   9.098   0.450 -0.2261 -0.2698 -0.1730
    1ION     CL66142  21.662  26.357   1.662  0.0646 -0.0405 -0.1002
    1ION     CL66143   9.928  19.348   1.651  0.3463  0.0755  0.0547
    1ION     CL66144  28.690  25.031   3.451 -0.0820  0.1148  0.1234
    1ION     CL66145  11.307  25.052   2.428 -0.0248 -0.0200  0.0090
    1ION     CL66146  10.253  10.681   7.050 -0.1779  0.1363  0.3515
    1ION     CL66147  18.014   7.649   6.916 -0.1227  0.0700  0.0302
    1ION     CL66148   1.332   6.076   2.735  0.2912  0.0608  0.1348
    1ION     CL66149   5.252   6.219   8.325 -0.0997  0.0037  0.0472
    1ION     CL66150  16.860   4.204   7.496  0.2719  0.3253 -0.0650
    1ION     CL66151   2.051   1.113   8.885 -0.0576 -0.0876 -0.4587
    1ION     CL66152  11.250  16.288   0.407 -0.3479 -0.0397  0.1550
    1ION     CL66153  16.309  20.024   8.527 -0.0202  0.0366  0.0251
    1ION     CL66154  14.644   4.960   0.603  0.0076 -0.1924  0.0814
    1ION     CL66155  20.358  22.289   1.332 -0.0173 -0.1849  0.0039
    1ION     CL66156   3.224   5.855   1.191  0.4262  0.0706 -0.0613
    1ION     CL66157  21.159   4.573   1.792  0.3313  0.2137  0.0803
    1ION     CL66158  27.437   3.973   8.943  0.0883  0.2428  0.6434
    1ION     CL66159   1.662  11.379   0.812  0.0940 -0.0283  0.2346
    1ION     CL66160  11.420  26.608   1.428  0.0661 -0.3488  0.0478
    1ION     CL66161  12.559   2.340   7.528  0.0086 -0.1833  0.0478
    1ION     CL66162   3.326  26.664   1.056  0.2238 -0.3580 -0.2328
    1ION     CL66163  23.046   6.604   7.550 -0.3532 -0.3005  0.0774
    1ION     CL66164  20.812  19.271   8.253 -0.3278  0.0102 -0.2628
    1ION     CL66165  23.005  21.289   7.359 -0.3639  0.3879  0.3653
    1ION     CL66166  13.028   5.560   9.603 -0.4926  0.4575 -0.0653
    1ION     CL66167  15.974  14.138   9.922  0.2406 -0.2242  0.0044
    1ION     CL66168   1.668  22.766   8.184 -0.1757 -0.0103 -0.5623
    1ION     CL66169   0.798  27.422   3.651 -0.0135 -0.0408 -0.2216
    1ION     CL66170   3.117  16.681   7.405 -0.1147 -0.0558 -0.1154
    1ION     CL66171   4.439  16.273   2.291  0.1586 -0.2949 -0.3321
    1ION     CL66172  27.679  25.793   8.368 -0.2256 -0.2499 -0.0154
    1ION     CL66173   3.402  21.852   2.584  0.0414 -0.0305  0.1195
    1ION     CL66174  13.858  20.412   7.602 -0.2355  0.2695  0.5861
    1ION     CL66175   3.786  13.194   8.137  0.0587  0.1076 -0.3463
    1ION     CL66176  17.987   8.744   9.719 -0.1244 -0.1242 -0.2331
    1ION     CL66177  23.498  19.977   0.949 -0.1335 -0.1451  0.2554
    1ION     CL66178   1.641  21.497   1.191  0.2533  0.0434 -0.1336
    1ION     CL66179  18.511   4.109   7.239  0.2472 -0.1107  0.0184
    1ION     CL66180   1.940   6.586   1.143 -0.2158 -0.3692 -0.0133
    1ION     CL66181  17.881  22.529   6.858  0.0198 -0.2044 -0.1491
    1ION     CL66182  10.869  20.380   1.638  0.1107  0.1029  0.0357
    1ION     CL66183  28.734  24.685   2.255  0.1034  0.1164 -0.0080
    1ION     CL66184  23.529   7.362   1.958  0.1533 -0.6313 -0.0234
    1ION     CL66185   1.751  26.696   1.992  0.2282 -0.0462 -0.0020
    1ION     CL66186  20.414   6.424   0.856 -0.2278  0.0014  0.1118
    1ION     CL66187  26.994  25.754   0.733  0.1914  0.5127 -0.2335
    1ION     CL66188  15.405  16.652   7.185 -0.0863  0.1037  0.0562
    1ION     CL66189   6.477  14.192   1.490  0.2181  0.1986  0.3201
    1ION     CL66190  22.697   6.807   1.345 -0.1328 -0.2607 -0.1463
    1ION     CL66191  11.344  13.813   0.924 -0.0196 -0.1380 -0.0987
    1ION     CL66192  12.995  27.750   2.328  0.0782 -0.1081 -0.1433
    1ION     CL66193  22.833  18.741   7.250  0.4700 -0.0177 -0.1891
    1ION     CL66194  17.014  18.118   9.359  0.3336 -0.0879  0.1525
    1ION     CL66195  26.097  16.373   7.399 -0.1712  0.0890  0.1721
    1ION     CL66196  10.659  17.671   7.471 -0.2294 -0.1056  0.0711
    1ION     CL66197   8.430  18.516   7.214  0.0201 -0.0829  0.2281
    1ION     CL66198   0.789  18.459   7.795  0.3164 -0.2452 -0.0205
    1ION     CL66199  18.378  15.805   8.685  0.2188 -0.1194  0.0845
    1ION     CL66200  14.409  12.638   8.078 -0.4680  0.0926  0.1759
    1ION     CL66201   8.922  16.218   1.047  0.0329 -0.2267 -0.0451
    1ION     CL66202  22.264   8.554   7.972  0.1811 -0.0348  0.2930
    1ION     CL66203  12.468   6.238   1.762 -0.2913  0.1440 -0.0649
    1ION     CL66204  24.829   0.405   1.241 -0.0310 -0.1270 -0.1669
    1ION     CL66205  27.354   5.894   3.092 -0.0428 -0.1597 -0.1073
    1ION     CL66206   5.346  18.154   3.112  0.2083 -0.1372  0.3997
    1ION     CL66207  21.701   7.936   8.904 -0.0140  0.1275 -0.1750
    1ION     CL66208   3.117   1.772   8.433  0.1438 -0.0731 -0.1605
    1ION     CL66209   1.581  18.960   8.226 -0.1813  0.0213 -0.0695
    1ION     CL66210  17.079  20.393   1.359  0.0087  0.2176  0.2877
    1ION     CL66211  26.066  10.878   0.132 -0.1458 -0.0384 -0.1541
    1ION     CL66212  28.469  23.491   3.759 -0.1558 -0.1481  0.0312
    1ION     CL66213  22.402   5.190   0.257  0.0213  0.0233  0.3139
    1ION     CL66214  17.376  16.091   7.762 -0.0814  0.1855  0.2341
    1ION     CL66215  18.385  26.447   9.477 -0.0216  0.0038 -0.0711
    1ION     CL66216  14.644   7.797   1.113 -0.0784  0.0330  0.2316
    1ION     CL66217   1.394  12.657   2.854  0.0712  0.1712  0.1853
    1ION     CL66218  10.924  19.405   1.422 -0.1404  0.3070 -0.0605
    1ION     CL66219  17.167   0.442   0.119 -0.0566  0.0161 -0.2537
    1ION     CL66220  27.609  11.232   9.060  0.2156 -0.3208  0.2116
    1ION     CL66221  24.802   5.526   2.355  0.1838  0.0696  0.3767
    1ION     CL66222  11.676  24.809   0.142 -0.0349 -0.1071 -0.5142
    1ION     CL66223   8.066  10.818   9.079  0.1187  0.0896 -0.0795
    1ION     CL66224   9.588  23.060   1.367  0.1210  0.0005 -0.0373
    1ION     CL66225  26.686   4.794   2.771  0.2570  0.1956  0.1262
    1ION     CL66226  12.514   9.906   9.931 -0.0220  0.0014 -0.0114
    1ION     CL66227  20.231  25.193   2.272  0.2019  0.3928  0.0875
    1ION     CL66228   3.021  24.736   1.663 -0.0999 -0.1686 -0.1434
    1ION     CL66229  15.128  16.025   2.421  0.0606  0.2923 -0.0157
    1ION     CL66230  23.807   0.576   2.312 -0.2422  0.1324  0.1399
    1ION     CL66231  10.597  12.720   6.702  0.0684 -0.1648  0.0757
    1ION     CL66232   7.483  28.453   8.566 -0.0064  0.1134 -0.0569
    1ION     CL66233  14.749   8.087   6.237 -0.1871  0.0671 -0.2175
    1ION     CL66234   4.473  21.407   9.836 -0.1521 -0.1100  0.0642
    1ION     CL66235   8.238  12.137   0.766 -0.1114 -0.1168  0.0668
    1ION     CL66236  20.918  27.570   7.628 -0.0206  0.0938 -0.0011
    1ION     CL66237   6.946  21.517   9.846  0.0929  0.0531  0.0762
    1ION     CL66238   2.031  13.844   8.042 -0.0901  0.3094 -0.2185
    1ION     CL66239  26.823  26.747   8.798 -0.0660  0.2058  0.0864
    1ION     CL66240   1.123  18.366   3.366 -0.0539 -0.0812 -0.2541
    1ION     CL66241  17.312  21.930   1.767  0.1794 -0.0884  0.0061
    1ION     CL66242  18.164  19.376   6.890  0.0899  0.0606  0.0172
    1ION     CL66243   1.340  16.521   8.148 -0.0184 -0.3295  0.1327
    1ION     CL66244  28.298  22.616   7.957 -0.0857 -0.0109 -0.0450
    1ION     CL66245  19.560   1.689   1.887  0.0880 -0.3576 -0.2137
    1ION     CL66246   8.456   4.287   2.170  0.2103 -0.1331  0.2054
    1ION     CL66247   3.493   1.612   3.277 -0.0664  0.1532  0.2053
    1ION     CL66248  22.706  16.936   0.992 -0.2418  0.1071  0.1660
    1ION     CL66249   6.564  12.058   8.661 -0.0388  0.3638 -0.2099
    1ION     CL66250  15.100  11.597   9.484  0.4211  0.1563  0.2819
    1ION     CL66251   1.746  10.744   0.207 -0.0131  0.0009  0.1573
    1ION     CL66252   5.794   8.539   1.286 -0.3761 -0.1420  0.0440
    1ION     CL66253  17.989  22.231   7.302 -0.1346 -0.0257  0.2669
    1ION     CL66254  15.320  24.984   1.795 -0.0201  0.1895  0.1040
    1ION     CL66255  24.935   4.330   8.080  0.3361  0.1014  0.0413
    1ION     CL66256  19.780  22.583   8.324  0.1572 -0.1276 -0.0022
    1ION     CL66257   9.112  17.355   1.780 -0.1140 -0.0028  0.0226
    1ION     CL66258   2.067  14.556   2.136 -0.3352 -0.1667 -0.0869
    1ION     CL66259   0.713  19.005   8.598  0.2224 -0.0596 -0.0303
    1ION     CL66260  24.697  11.340   9.966  0.0132 -0.1811  0.0581
    1ION     CL66261  20.379   1.643   8.729  0.1664 -0.0579  0.1238
    1ION     CL66262  24.932  15.281   1.154  0.1488 -0.0456 -0.1385
    1ION     CL66263   6.860   9.909   1.917 -0.0065  0.0366  0.2852
    1ION     CL66264  25.065  20.955   2.413 -0.0042 -0.1123  0.0984
    1ION     CL66265  22.456  13.494   1.925 -0.2507  0.1772  0.0835
    1ION     CL66266   9.461  20.201   7.317 -0.2377 -0.1221 -0.3452
    1ION     CL66267  11.036  21.389   1.136 -0.0438  0.1129 -0.0244
    1ION     CL66268  18.700  23.590   9.323 -0.0932  0.0966  0.0979
    1ION     CL66269  28.166  17.622   3.465 -0.3515  0.0843 -0.0041
    1ION     CL66270  28.142  12.083   9.403  0.0130  0.0333  0.2268
    1ION     CL66271   1.120  15.609   3.224  0.1909  0.1385 -0.2263
    1ION     CL66272  19.233   2.637   7.019  0.3912  0.1427  0.0246
    1ION     CL66273   8.693  26.636   9.711 -0.1797  0.0268 -0.1966
    1ION     CL66274  10.229   6.035   9.603 -0.1657  0.0646  0.1232
    1ION     CL66275  25.130  17.429   2.594  0.3521 -0.3059 -0.5100
    1ION     CL66276   2.461  24.730   8.166 -0.0133  0.0385  0.0168
    1ION     CL66277  15.921  21.702   2.067  0.0196  0.2444 -0.1718
    1ION     CL66278  10.915  23.260   3.163  0.1428 -0.0379 -0.4473
    1ION     CL66279  22.774  21.189   9.515  0.1542 -0.0089 -0.0089
    1ION     CL66280  19.661  11.272   1.713  0.6135  0.1528  0.0954
    1ION     CL66281  14.817   4.387   9.006 -0.0612 -0.4725 -0.0063
    1ION     CL66282   1.072   8.724   0.639  0.3236 -0.0386 -0.1203
    1ION     CL66283  20.710  27.218   1.242 -0.0092 -0.0810  0.0568
    1ION     CL66284  14.306  24.506   2.200 -0.0152  0.2319  0.2087
    1ION     CL66285   7.919  18.235   2.044  0.5415  0.2301  0.1503
    1ION     CL66286   4.361  25.885   3.235 -0.1569 -0.0603  0.0735
    1ION     CL66287  18.005  10.930   7.868 -0.1678 -0.1404  0.0797
    1ION     CL66288  18.018  14.635   9.154 -0.0494 -0.0612 -0.0713
    1ION     CL66289  27.226  17.147   3.248 -0.0937  0.1966 -0.0304
    1ION     CL66290  16.219  12.680   7.031 -0.2730  0.3212 -0.1743
    1ION     CL66291  22.559  22.466   0.545 -0.0892  0.0295 -0.0182
    1ION     CL66292  22.930  17.359   7.740 -0.0519  0.0265  0.0961
    1ION     CL66293   9.226   4.276   8.008  0.0996 -0.1900  0.1521
    1ION     CL66294  21.240   7.217   9.738 -0.1895  0.5840 -0.2384
    1ION     CL66295   8.715   6.684   2.518 -0.4089 -0.1579 -0.2500
    1ION     CL66296   7.821  20.282   2.735 -0.0927 -0.1168  0.1701
    1ION     CL66297   4.542  26.619   8.722 -0.0204 -0.1492 -0.4236
    1ION     CL66298   9.746  26.514   9.985  0.0948  0.0656 -0.4195
    1ION     CL66299  26.664  22.809   8.464 -0.0161  0.0346 -0.3420
    1ION     CL66300   5.814  17.989   1.426 -0.0242  0.0484 -0.0232
    1ION     CL66301   4.275  18.881   2.639 -0.0449  0.0814 -0.0199
    1ION     CL66302  11.862   6.258   0.965 -0.1192 -0.0041 -0.0286
    1ION     CL66303  22.989  12.446   2.302  0.0615  0.1884  0.0153
    1ION     CL66304  14.616  18.580   7.117  0.1762 -0.1768 -0.0492
    1ION     CL66305  14.868  11.653   8.054  0.1071  0.1374 -0.0470
    1ION     CL66306  16.971   1.495   8.392 -0.2111  0.0275  0.0338
    1ION     CL66307  19.797  23.346   7.646 -0.3461  0.1179 -0.0901
    1ION     CL66308   9.995  23.456   9.375 -0.0021 -0.0991 -0.0960
    1ION     CL66309  14.598  11.014   1.503 -0.2259  0.2084 -0.0481
    1ION     CL66310   9.978  21.932   8.432 -0.4301  0.0118 -0.1179
    1ION     CL66311  19.223  19.586   0.090 -0.2861 -0.1204 -0.0616
    1ION     CL66312  15.395   2.109   7.964 -0.2557  0.0800 -0.0696
    1ION     CL66313  21.365   9.662   0.363 -0.0285 -0.1872 -0.1414
    1ION     CL66314  19.264  15.396   7.389  0.0622 -0.1917 -0.0905
    1ION     CL66315   9.481  21.506   8.073  0.1315 -0.1103 -0.0490
    1ION     CL66316   5.859   6.715   9.454 -0.2757  0.0016 -0.3164
    1ION     CL66317  16.556  18.971   7.631  0.1713 -0.0502 -0.2193
    1ION     CL66318   9.524  21.252   2.847 -0.3668  0.0020 -0.1913
    1ION     CL66319  28.532   9.069   0.720  0.1393 -0.1787  0.4313
    1ION     CL66320  27.244  22.347   9.802 -0.0127  0.3292  0.0934
    1ION     CL66321  20.722   0.182   9.955  0.1611  0.2727 -0.2015
    1ION     CL66322   6.384   0.237   2.305  0.1652 -0.3225 -0.1791
    1ION     CL66323  28.429   3.063   2.009 -0.0128  0.0392 -0.0763
    1ION     CL66324   8.642  20.669   7.331  0.0971  0.1639  0.1099
    1ION     CL66325  22.785   9.252   9.627 -0.0195  0.1795 -0.3124
    1ION     CL66326   2.164   4.863   8.500 -0.1295 -0.1389  0.1327
    1ION     CL66327   8.090  27.042   2.721 -0.1086  0.1660  0.0233
    1ION     CL66328  22.495  22.846   2.878 -0.0394  0.2755 -0.1137
    1ION     CL66329   0.607  21.694   2.419  0.3217 -0.1934 -0.2187
    1ION     CL66330   6.572   3.412   9.109  0.0010  0.1533  0.2350
    1ION     CL66331  19.952  10.315   7.300 -0.3992 -0.1933  0.1799
    1ION     CL66332  22.654  27.616   0.102  0.1877  0.3441  0.0970
    1ION     CL66333  25.781  21.195   9.495 -0.3000 -0.2183 -0.1947
    1ION     CL66334   2.998   9.020   0.449 -0.1612 -0.5247 -0.0458
    1ION     CL66335  24.664   3.436   0.946 -0.0373  0.3455 -0.1739
    1ION     CL66336   1.780   8.946   0.413 -0.1439 -0.1633 -0.1533
    1ION     CL66337   4.703  23.986   3.256 -0.1679  0.0133  0.0615
    1ION     CL66338   4.680  11.516   7.282 -0.0394  0.0630  0.2026
    1ION     CL66339   8.475  16.938   1.605  0.1359  0.1915  0.0442
    1ION     CL66340  17.043   0.703   1.465 -0.1041  0.1868 -0.2601
    1ION     CL66341  22.695  27.719   8.258  0.1513 -0.0234  0.0093
    1ION     CL66342   4.949  16.624   7.925  0.3681 -0.0711  0.1372
    1ION     CL66343  26.977   8.202   9.820 -0.2220  0.0699 -0.3190
    1ION     CL66344  17.668   9.357   0.975  0.2105  0.2516  0.1151
    1ION     CL66345   8.478  24.870   8.954  0.0681  0.2363 -0.0195
    1ION     CL66346  10.580  18.833   7.331  0.0555  0.5521 -0.1415
    1ION     CL66347   8.500  24.299   9.327  0.1539 -0.1850  0.3124
    1ION     CL66348  15.008  15.291   1.887 -0.1820 -0.0641  0.3711
    1ION     CL66349  26.347  20.656   9.217  0.0498 -0.2135  0.1974
    1ION     CL66350   9.317   2.111   0.392 -0.1109  0.2260  0.0653
    1ION     CL66351  17.632  18.493   6.992  0.2496  0.0119 -0.0669
    1ION     CL66352  15.383   1.908   1.360 -0.0481  0.3088  0.1563
    1ION     CL66353   6.304  14.777   8.573  0.1920 -0.2848 -0.4123
    1ION     CL66354   1.395  20.804   0.330 -0.2569  0.0450 -0.1029
    1ION     CL66355  20.717   9.919   8.826  0.1647 -0.0991 -0.4286
    1ION     CL66356  18.963  12.866   8.689 -0.2708  0.1076 -0.0258
    1ION     CL66357   4.300   6.252   2.878  0.5291 -0.0686  0.2735
    1ION     CL66358  25.889  23.213   2.035  0.1367  0.1041  0.2462
    1ION     CL66359   0.909  23.421   2.145 -0.1785  0.0921  0.0764
    1ION     CL66360   9.084  21.694   9.509  0.1432  0.2086  0.0261
    1ION     CL66361  27.549  21.779   8.863  0.0140  0.2350  0.2965
    1ION     CL66362   9.553   2.738   2.080  0.0174 -0.0925 -0.2607
    1ION     CL66363  10.718  25.824   1.614 -0.1338  0.1689  0.0693
    1ION     CL66364   4.202  13.245   1.550 -0.0463  0.2463 -0.3352
    1ION     CL66365  14.988   9.582   0.714  0.3453  0.0472  0.1446
    1ION     CL66366  20.400  25.757   3.033  0.0233  0.2407  0.0787
    1ION     CL66367   8.263  27.045   8.165  0.1777  0.1944 -0.1711
    1ION     CL66368  21.711  23.660   8.051  0.2329 -0.1811 -0.1151
    1ION     CL66369  24.185  19.522   7.938  0.1920 -0.0407  0.0025
    1ION     CL66370   1.994   0.611   1.896  0.0891  0.2911  0.0362
    1ION     CL66371   4.080   9.758   8.367  0.2043 -0.1696  0.2487
    1ION     CL66372  21.530  21.871   7.556 -0.1679 -0.1157  0.0978
    1ION     CL66373  12.882   2.897   6.882 -0.0498 -0.0875 -0.3625
    1ION     CL66374   3.982   8.877   8.993  0.0237 -0.2781 -0.1150
    1ION     CL66375  14.202  10.032   1.486  0.1897  0.2322  0.2664
    1ION     CL66376  20.033   2.552   7.808 -0.2959 -0.1843  0.0572
    1ION     CL66377   7.771   6.447   2.647 -0.2752 -0.3592  0.1142
    1ION     CL66378  10.331  14.474   6.509  0.0876 -0.2095 -0.0013
    1ION     CL66379   5.362   2.374   4.408  0.2958  0.0974 -0.2115
    1ION     CL66380   0.509  28.500   3.569 -0.2524 -0.1440  0.0881
    1ION     CL66381   9.636   3.453   0.689 -0.2817 -0.1881  0.3885
    1ION     CL66382  26.557   6.774   8.727 -0.0783 -0.2090  0.3911
    1ION     CL66383   7.198  20.397   7.419 -0.0903  0.0690  0.0795
    1ION     CL66384  13.319  18.159   0.129  0.2250 -0.2944  0.2064
    1ION     CL66385  11.882  23.623   0.933  0.3191 -0.1450  0.4079
    1ION     CL66386   7.598  11.176   0.740 -0.1521  0.4402  0.1041
    1ION     CL66387  24.898   9.878   7.927  0.0146  0.0959  0.2548
    1ION     CL66388   5.855  15.227   0.189 -0.0902 -0.0598  0.0354
    1ION     CL66389   9.593  15.565   0.069  0.2853  0.0554  0.1891
    1ION     CL66390  13.169  18.442   8.932  0.0317 -0.1971  0.1062
    1ION     CL66391  17.200  12.563   7.014  0.1211 -0.4772  0.0494
    1ION     CL66392  25.020  22.338   0.166 -0.0377 -0.1124 -0.0316
    1ION     CL66393   9.563   1.390   8.459 -0.1440 -0.0652 -0.0855
    1ION     CL66394   4.532   4.855   9.925  0.4629 -0.0915 -0.1548
    1ION     CL66395  22.394  26.649   2.399  0.1607  0.0528  0.1702
    1ION     CL66396  24.589  21.676   7.177 -0.0154  0.4401  0.0179
    1ION     CL66397  23.827  22.067   7.667 -0.1263  0.0195  0.3537
    1ION     CL66398   7.873   0.483   0.897 -0.1722  0.1193 -0.1121
    1ION     CL66399   2.437   1.938   3.128  0.1116  0.0365  0.3800
    1ION     CL66400  17.712  16.087   2.069 -0.0705  0.0432  0.1119
    1ION     CL66401   6.690  19.488   1.427 -0.0079  0.3043 -0.2736
    1ION     CL66402   9.714  16.532   1.954 -0.0638 -0.1428  0.1270
    1ION     CL66403  26.211  14.765   1.449  0.0453  0.1981 -0.0315
    1ION     CL66404   5.413  24.809   8.213  0.0812  0.0401 -0.3229
    1ION     CL66405   0.426  24.484   9.543 -0.1549  0.0507 -0.0033
    1ION     CL66406  26.727  10.160   8.578 -0.1285  0.1065  0.2113
    1ION     CL66407  11.119  14.168   6.735  0.0553 -0.2868  0.2117
    1ION     CL66408  19.676  25.149   7.725  0.1210 -0.4033 -0.0153
    1ION     CL66409  13.575  24.252   2.633 -0.1868  0.0000  0.2545
    1ION     CL66410  17.438   3.669   7.715 -0.0242 -0.0011  0.1486
    1ION     CL66411   0.444  20.041   2.897 -0.2209 -0.0045 -0.1086
    1ION     CL66412  11.058   1.924   1.822  0.0122 -0.2372 -0.0129
    1ION     CL66413  27.825  25.406   2.921  0.1419 -0.1048  0.0492
    1ION     CL66414   6.613  24.884   9.139  0.0598 -0.2835 -0.1519
    1ION     CL66415  17.330  15.282   7.225 -0.0960 -0.1924 -0.2410
    1ION     CL66416   4.733  20.772   7.804  0.2265 -0.0597 -0.0319
    1ION     CL66417  25.782  19.931   2.452  0.1059 -0.0014 -0.2627
    1ION     CL66418  14.368  26.643   1.751  0.2229  0.0695  0.2053
    1ION     CL66419  23.041  12.268   1.837  0.1728  0.0553 -0.3795
    1ION     CL66420  20.674  28.033   1.365 -0.2735  0.0868  0.2713
    1ION     CL66421  27.596  25.074   0.207 -0.1088  0.0595  0.2561
    1ION     CL66422  16.018  27.177   8.284 -0.2862 -0.1652  0.3653
    1ION     CL66423  21.993   8.436   1.502 -0.0409 -0.0688  0.1730
    1ION     CL66424  11.153  24.287   9.496 -0.2575 -0.2739 -0.0270
    1ION     CL66425  17.748  26.127   9.283 -0.1475  0.2331 -0.0789
    1ION     CL66426  21.510   8.593   6.807  0.2206  0.0838 -0.0104
    1ION     CL66427  16.836  18.343   2.408  0.0679 -0.0722  0.2313
    1ION     CL66428   7.884  25.697   0.614  0.0734 -0.1335  0.0164
    1ION     CL66429   8.689  10.827   9.386 -0.1614  0.0541  0.3523
    1ION     CL66430  24.353  17.766   0.696 -0.0079 -0.2243 -0.0988
    1ION     CL66431  11.670  16.155   1.463  0.2116 -0.1914  0.1153
    1ION     CL66432  27.175   4.851   9.440 -0.1710  0.2930  0.1849
    1ION     CL66433  26.195  24.932   1.814 -0.1429  0.0720  0.3083
    1ION     CL66434  28.793  20.913   9.973  0.1673  0.1443 -0.2797
    1ION     CL66435  13.678   7.899   0.966 -0.1695 -0.0231  0.1990
    1ION     CL66436  13.805  21.320   1.805 -0.2413 -0.3626  0.1741
    1ION     CL66437  13.425   1.117   7.393  0.1418  0.2111  0.1416
    1ION     CL66438   4.742  13.248   9.229  0.0071  0.1792 -0.1107
    1ION     CL66439  14.178   3.959   7.090  0.0895 -0.0988  0.1550
    1ION     CL66440  24.651  19.543   1.608  0.0616  0.0678  0.1470
    1ION     CL66441   1.000   4.624   9.331 -0.2199  0.2618 -0.0839
    1ION     CL66442  20.267  18.773   8.905 -0.0082  0.0073  0.3083
    1ION     CL66443  13.669  28.083   7.661 -0.2772 -0.1643 -0.2539
    1ION     CL66444  11.618   9.403   9.383  0.2871  0.1035 -0.0205
    1ION     CL66445   3.601  26.697   3.347  0.0154 -0.1678  0.1208
    1ION     CL66446  28.553   9.252   9.463 -0.1204  0.0445  0.0734
    1ION     CL66447  20.332  18.784   2.286 -0.1299 -0.1514  0.0758
    1ION     CL66448  19.065  16.537   9.675  0.0635 -0.0609  0.0152
    1ION     CL66449  13.836  26.877   7.263 -0.1954  0.0975  0.1004
    1ION     CL66450  16.796   2.183   9.319  0.0196  0.1429 -0.4116
    1ION     CL66451  19.144  21.279   1.688 -0.3251  0.0800  0.0577
    1ION     CL66452   0.240   9.620   7.763  0.2666  0.3230 -0.0507
    1ION     CL66453  22.112  18.877   2.059  0.0213  0.2029 -0.0960
    1ION     CL66454  17.114   3.240   1.534  0.2107 -0.3510 -0.1481
    1ION     CL66455   3.001   0.056   3.072 -0.1193  0.1603 -0.2852
    1ION     CL66456  22.223  23.712   2.179  0.1180 -0.0755 -0.3007
    1ION     CL66457  27.964  12.410   8.421  0.2602 -0.0848  0.0767
    1ION     CL66458  12.810   4.158   8.321 -0.0670  0.1133 -0.2597
    1ION     CL66459  18.025   7.809   9.596  0.0734 -0.4081 -0.2231
    1ION     CL66460  19.762   9.117   7.724  0.0459  0.4719 -0.2894
    1ION     CL66461  22.964   3.091   1.714 -0.1656 -0.1312 -0.1073
    1ION     CL66462   1.245  21.836   3.303  0.1067 -0.2090 -0.0845
    1ION     CL66463  15.615  19.789   7.934 -0.0468 -0.5963  0.2424
    1ION     CL66464   6.491  20.677   0.007 -0.0571 -0.2097  0.3204
    1ION     CL66465   4.358  18.846   8.086 -0.0546 -0.2718 -0.4626
    1ION     CL66466   9.059  15.063   7.973  0.0604 -0.0663  0.1011
    1ION     CL66467  17.001  14.713   0.736  0.1840 -0.5699  0.1869
    1ION     CL66468  26.966   1.430   0.860  0.0904  0.2463  0.1789
    1ION     CL66469  26.355  17.743   3.631  0.0254 -0.2033  0.1184
    1ION     CL66470   7.355  19.423   1.862 -0.4256  0.2309 -0.0084
    1ION     CL66471  14.088  13.900   9.485 -0.2040 -0.0478 -0.0715
    1ION     CL66472   3.015   9.025   2.600 -0.3985 -0.0535 -0.0791
    1ION     CL66473  10.996  26.437   8.718 -0.2042 -0.0275 -0.2704
    1ION     CL66474  11.293   0.261   7.735  0.0840 -0.0585  0.0361
    1ION     CL66475  28.626   7.536   3.020  0.0805  0.1441 -0.1056
    1ION     CL66476  16.832   2.650   7.510  0.1036  0.1613  0.1739
    1ION     CL66477  27.414   7.286   9.714 -0.4197  0.0862 -0.2073
    1ION     CL66478  21.794  25.979   8.176 -0.5505  0.1072 -0.1310
    1ION     CL66479  12.411   7.070   0.179  0.0442 -0.3273  0.0599
    1ION     CL66480   8.912  12.284   6.917  0.2545  0.3152 -0.2485
    1ION     CL66481   2.123  23.478   3.219  0.0894 -0.1495 -0.1455
    1ION     CL66482  10.795  17.371   1.858  0.0597  0.1685  0.2193
    1ION     CL66483  24.063  21.409   2.351  0.1792  0.3228 -0.2180
    1ION     CL66484   8.913  24.088   3.004 -0.3371  0.2639  0.0865
    1ION     CL66485  12.177  22.869   9.363 -0.0041  0.0689 -0.1571
    1ION     CL66486  15.995  21.524   7.531  0.3011 -0.0437  0.1395
    1ION     CL66487   4.688  23.576   9.574 -0.0420 -0.2935 -0.1862
    1ION     CL66488  22.211  26.743   9.164  0.2904 -0.2720  0.3281
    1ION     CL66489   4.027  14.179   0.485  0.0368  0.1600 -0.2373
    1ION     CL66490  21.299  14.434   6.797 -0.1147 -0.0791 -0.0173
    1ION     CL66491  12.413  15.448   0.972  0.3977  0.2592  0.1793
    1ION     CL66492  15.166  11.373   1.420  0.1403 -0.3315  0.2733
    1ION     CL66493   1.974  16.132   0.861 -0.0626  0.2502  0.1490
    1ION     CL66494   6.872  19.263   0.619 -0.0361 -0.4193  0.0800
    1ION     CL66495  19.759   9.841   8.163  0.1622 -0.0933 -0.0642
    1ION     CL66496  25.441  25.092   8.526  0.1693 -0.0622 -0.0719
    1ION     CL66497   8.494   8.555   1.787 -0.2187  0.2979  0.3776
    1ION     CL66498   4.758  13.737   2.683 -0.5940 -0.1326 -0.3104
    1ION     CL66499  11.591   5.556   6.512  0.2560  0.0824  0.0708
    1ION     CL66500  25.214  14.194   2.294 -0.1378 -0.1774 -0.0474
    1ION     CL66501  19.996  26.736   2.254 -0.2395 -0.2206  0.2842
    1ION     CL66502  21.228   0.850   0.888 -0.1929  0.1498 -0.1056
    1ION     CL66503  19.697  19.057   1.419 -0.2224 -0.0750 -0.3855
    1ION     CL66504   7.795  16.164   1.783  0.0835  0.1902 -0.1248
    1ION     CL66505  19.398   7.522   6.947  0.3650 -0.0881  0.1957
    1ION     CL66506  16.444  24.695   2.165 -0.0583 -0.2834 -0.1965
    1ION     CL66507  26.434  20.053   1.649  0.1894 -0.0427  0.0228
    1ION     CL66508  25.840  10.155   2.575  0.0729  0.1959  0.1591
    1ION     CL66509  19.534  20.428   1.818 -0.1354  0.1855  0.0265
    1ION     CL66510   1.975   5.890   3.424  0.2935  0.3183 -0.0216
    1ION     CL66511   8.910  22.487   2.972  0.1596  0.1087 -0.2077
    1ION     CL66512  26.052  17.471   0.939  0.0968 -0.1017 -0.0289
    1ION     CL66513   3.513  27.521   3.257  0.0583 -0.0564 -0.1984
    1ION     CL66514  28.371  15.338   2.922  0.3195 -0.1843  0.1873
    1ION     CL66515  14.564  11.202   6.871  0.1566 -0.2140  0.0044
    1ION     CL66516   7.856  16.908   8.728 -0.1853  0.0614  0.2687
    1ION     CL66517  17.617   3.743   9.184  0.0872  0.3120 -0.3710
    1ION     CL66518   0.069   2.671   9.416  0.3727 -0.0091 -0.1132
    1ION     CL66519  18.446   6.591   6.634  0.1725  0.0366  0.2565
    1ION     CL66520   9.420  13.120   7.452 -0.1825  0.0449  0.0136
    1ION     CL66521   5.528  22.270   2.483  0.4178  0.1919  0.0691
    1ION     CL66522  27.558   4.777   3.332  0.2713 -0.0922 -0.0983
    1ION     CL66523   0.597  22.344   3.495 -0.3102 -0.0806  0.0953
    1ION     CL66524  28.025  23.565   8.226 -0.0645 -0.1310  0.0256
    1ION     CL66525  13.327  20.152   8.873  0.1280 -0.1697  0.0446
    1ION     CL66526  13.581  28.747   7.190 -0.0040  0.2209  0.0407
    1ION     CL66527  24.922  13.351   0.223  0.0821  0.1145 -0.0397
    1ION     CL66528  28.157  13.499   2.566  0.0621 -0.2907 -0.3883
    1ION     CL66529  24.122  18.390   9.519  0.1086  0.2544 -0.0585
    1ION     CL66530   5.871  26.034   1.254  0.0939  0.1678 -0.2017
    1ION     CL66531  28.620  12.541   2.454 -0.1410  0.2887  0.2273
    1ION     CL66532  26.740  11.686   8.205  0.1093  0.0529  0.2533
    1ION     CL66533  18.191  11.657   0.868  0.0325  0.0000  0.1645
    1ION     CL66534  25.538  12.804   9.905 -0.2617  0.0351 -0.1020
    1ION     CL66535  27.211  13.718   7.230 -0.0051  0.1554 -0.0572
    1ION     CL66536  10.998   6.843   7.712  0.0422  0.3215  0.2104
    1ION     CL66537   5.076  14.793   9.640  0.1263 -0.0283  0.2501
    1ION     CL66538   2.778   9.902   2.493 -0.0519 -0.1271 -0.0679
    1ION     CL66539  23.626  13.433   0.605  0.0781  0.0123 -0.0768
    1ION     CL66540  10.745  18.607   2.695  0.3535 -0.2416 -0.2533
    1ION     CL66541   9.249   4.228   8.950 -0.0222 -0.0261  0.0615
    1ION     CL66542   0.651   5.466   3.566  0.1031  0.1253 -0.1843
    1ION     CL66543   1.996  18.173   3.039 -0.1321 -0.1964  0.4018
    1ION     CL66544  22.971   2.455   8.810 -0.0651 -0.1415  0.0547
    1ION     CL66545  15.930   8.346   0.770  0.0329 -0.1970 -0.0905
    1ION     CL66546  17.351   2.123   2.123  0.1437 -0.1027  0.1713
    1ION     CL66547  13.511  11.449   1.321  0.2104 -0.1555 -0.1843
    1ION     CL66548   7.667   4.244   0.458 -0.1791 -0.0756 -0.2377
    1ION     CL66549  10.037  17.236   7.655  0.2531 -0.0519 -0.0286
    1ION     CL66550   7.180  18.674   1.423 -0.1496  0.2091  0.0168
    1ION     CL66551   6.570  12.985   1.823  0.0840 -0.0750 -0.2618
    1ION     CL66552  18.179   0.917   7.877 -0.3270  0.2792  0.1055
    1ION     CL66553  14.883  19.809   8.422 -0.1416 -0.0314  0.2372
    1ION     CL66554  12.987  25.956   9.573  0.1020  0.0387  0.0896
    1ION     CL66555  22.498  22.249   2.034 -0.0909  0.0629  0.0242
    1ION     CL66556  22.317   7.996   8.090  0.0750 -0.1778 -0.1406
    1ION     CL66557  21.245  15.932   6.419 -0.3266 -0.2955 -0.1103
    1OPC    NC366558  18.950  12.096   6.824  0.1168  0.0574 -0.3612
    1OPC    PO466559  19.181  11.947   6.577 -0.0966  0.4145 -0.1274
    1OPC    GL166560  19.275  11.996   6.109 -0.0907 -0.1237 -0.0498
    1OPC    GL266561  19.352  12.172   5.925 -0.2032 -0.1673  0.0390
    1OPC    C1B66562  19.383  12.392   5.484 -0.0199 -0.4130 -0.0935
    1OPC    D2B66563  19.501  12.229   5.129  0.1932 -0.1053  0.2318
    1OPC    C3B66564  19.337  12.305   4.705 -0.1432 -0.1513 -0.0716
    1OPC    C4B66565  18.978  12.225   4.506  0.2247 -0.3703  0.2207
    1OPC    NC366566  21.885  26.197   7.200 -0.2030 -0.0242  0.1454
    1OPC    PO466567  22.256  26.134   7.528 -0.0513 -0.1052  0.1836
    1OPC    GL166568  22.565  26.080   7.217 -0.0253  0.4664  0.1038
    1OPC    GL266569  22.737  26.146   6.960  0.1822 -0.1273  0.2005
    1OPC    C1B66570  22.611  26.070   6.576 -0.2520 -0.1299 -0.0974
    1OPC    D2B66571  22.556  25.899   6.171  0.1123 -0.1698 -0.0429
    1OPC    C3B66572  22.769  26.142   5.832 -0.2402  0.1512 -0.2496
    1OPC    C4B66573  23.086  26.357   5.481 -0.0495 -0.1613 -0.0529
    1OPC    NC366574  24.489  26.349   8.007  0.0660 -0.3171  0.1201
    1OPC    PO466575  24.145  26.389   7.608  0.0698  0.4413  0.1744
    1OPC    GL166576  24.292  26.396   7.283  0.0957  0.1107  0.2790
    1OPC    GL266577  24.434  26.138   7.015 -0.2255  0.0507 -0.0183
    1OPC    C1B66578  24.579  26.068   6.578 -0.0261  0.0879 -0.1903
    1OPC    D2B66579  24.711  25.870   6.290 -0.0614  0.0321  0.1424
    1OPC    C3B66580  25.152  25.683   6.113  0.0575 -0.0983  0.0705
    1OPC    C4B66581  25.387  25.589   5.700 -0.1340  0.1248 -0.1649
    1OPC    NC366582  16.836  24.552   7.339  0.0402  0.3776 -0.2197
    1OPC    PO466583  16.960  24.338   6.941  0.0209 -0.0429  0.0238
    1OPC    GL166584  16.693  24.250   6.572  0.0399 -0.1606  0.1034
    1OPC    GL266585  16.725  24.172   6.366  0.2214 -0.0264 -0.3818
    1OPC    C1B66586  16.912  24.277   5.968  0.1897 -0.0695 -0.1763
    1OPC    D2B66587  17.154  24.232   5.582 -0.1670  0.1969 -0.0133
    1OPC    C3B66588  16.906  24.464   5.276  0.0038  0.1361 -0.2713
    1OPC    C4B66589  16.718  24.433   4.906 -0.0305  0.3693 -0.0194
    1OPC    NC366590  26.844   3.350   7.987  0.0471  0.0248 -0.0840
    1OPC    PO466591  26.536   3.136   7.998 -0.1213 -0.2260 -0.1914
    1OPC    GL166592  26.433   3.229   7.579  0.1730 -0.0676  0.2275
    1OPC    GL266593  26.491   3.252   7.249 -0.3171  0.1851 -0.0763
    1OPC    C1B66594  26.522   3.307   6.835 -0.1546 -0.0248  0.0800
    1OPC    D2B66595  26.596   3.168   6.445 -0.2141  0.1416  0.1569
    1OPC    C3B66596  26.736   3.461   6.157  0.0294  0.0738 -0.3744
    1OPC    C4B66597  26.826   3.864   6.115 -0.0698 -0.1928  0.1507
    1OPC    NC366598   9.182  22.278   6.936 -0.5859  0.1521  0.1214
    1OPC    PO466599   9.127  22.667   7.168  0.0556 -0.0125 -0.1321
    1OPC    GL166600   8.781  22.814   6.907 -0.2463 -0.0070 -0.2254
    1OPC    GL266601   8.493  22.790   6.686  0.0831 -0.1538 -0.1458
    1OPC    C1B66602   8.270  22.777   6.343  0.4536 -0.2859 -0.2519
    1OPC    D2B66603   8.194  22.807   5.928 -0.3148 -0.1477 -0.2436
    1OPC    C3B66604   8.148  22.603   5.675 -0.4141  0.2259  0.0272
    1OPC    C4B66605   7.949  22.159   5.633 -0.1710  0.0349 -0.3229
    1OPC    NC366606  19.632   8.769   6.354 -0.0378  0.1880  0.3769
    1OPC    PO466607  19.339   8.812   6.005 -0.1769 -0.3416  0.0185
    1OPC    GL166608  19.031   8.735   5.650  0.0707  0.0714  0.1849
    1OPC    GL266609  18.877   8.858   5.432 -0.0122 -0.2444  0.0048
    1OPC    C1B66610  18.848   9.108   5.090  0.1377 -0.0574 -0.0884
    1OPC    D2B66611  19.094   9.505   4.802 -0.0238  0.0755  0.2049
    1OPC    C3B66612  19.059   9.620   4.331 -0.1654 -0.1487 -0.0142
    1OPC    C4B66613  19.110   9.750   3.952 -0.0636 -0.4624 -0.0081
    1OPC    NC366614  12.817  13.285   6.162  0.0758 -0.0381 -0.2600
    1OPC    PO466615  13.252  13.408   6.383  0.1090  0.4039 -0.1134
    1OPC    GL166616  13.397  13.483   5.844  0.1799  0.0588 -0.0251
    1OPC    GL266617  13.640  13.708   5.613  0.0706  0.0146 -0.1379
    1OPC    C1B66618  13.483  13.833   5.128 -0.0364 -0.3212  0.1304
    1OPC    D2B66619  13.257  13.865   4.720 -0.0500  0.0262  0.1608
    1OPC    C3B66620  13.144  14.189   4.511 -0.1035  0.1509 -0.1214
    1OPC    C4B66621  13.128  14.146   4.039 -0.2705 -0.3354 -0.1153
    1OPC    NC366622  25.215  10.237   7.131  0.3574 -0.2688  0.0152
    1OPC    PO466623  25.170   9.810   7.052 -0.0347  0.2347 -0.1137
    1OPC    GL166624  25.311   9.811   6.767  0.2088 -0.2054 -0.1825
    1OPC    GL266625  25.589   9.736   6.710  0.2069 -0.0401  0.0151
    1OPC    C1B66626  25.809   9.823   6.305  0.1888  0.0140 -0.3929
    1OPC    D2B66627  25.733   9.896   5.864  0.1251  0.1195  0.3155
    1OPC    C3B66628  26.092   9.918   5.513 -0.0554  0.1289  0.1187
    1OPC    C4B66629  26.333  10.023   5.201 -0.2999  0.1028 -0.4776
    1OPC    NC366630  21.998  23.797   7.585 -0.0743 -0.1589  0.3634
    1OPC    PO466631  21.532  23.914   7.318  0.0317  0.0057  0.0270
    1OPC    GL166632  21.958  23.921   7.066  0.1775 -0.0629 -0.1665
    1OPC    GL266633  22.049  24.088   6.724  0.1489 -0.4231  0.0664
    1OPC    C1B66634  22.109  24.240   6.271 -0.0930  0.1236 -0.1015
    1OPC    D2B66635  22.098  24.051   5.889 -0.0995 -0.2582 -0.2550
    1OPC    C3B66636  22.348  23.711   5.987 -0.0139 -0.1523 -0.0767
    1OPC    C4B66637  22.738  23.505   5.762  0.2286  0.0087  0.0992
    1OPC    NC366638  26.958  13.005   6.958  0.4276  0.0205 -0.0183
    1OPC    PO466639  27.151  12.723   6.695 -0.2916 -0.2164 -0.1114
    1OPC    GL166640  27.165  12.751   6.384  0.3240  0.2476 -0.3207
    1OPC    GL266641  27.430  12.901   6.300 -0.2076  0.0630  0.0518
    1OPC    C1B66642  27.470  13.020   5.868  0.0931 -0.0650 -0.1906
    1OPC    D2B66643  27.485  12.968   5.386 -0.2168  0.1041 -0.2116
    1OPC    C3B66644  27.541  13.379   5.276  0.0135 -0.0642 -0.0821
    1OPC    C4B66645  27.505  13.753   5.429  0.1088  0.0419 -0.2027
    1OPC    NC366646  24.544  18.728   7.585 -0.1219 -0.3469 -0.2801
    1OPC    PO466647  24.814  18.509   7.304  0.3206  0.1759  0.2067
    1OPC    GL166648  24.927  18.690   6.979 -0.0325 -0.0987 -0.0989
    1OPC    GL266649  25.120  18.565   6.678 -0.2356  0.1015  0.0104
    1OPC    C1B66650  25.285  18.667   6.380  0.1253 -0.1696  0.0636
    1OPC    D2B66651  25.661  18.549   6.115  0.2044  0.1426 -0.1351
    1OPC    C3B66652  25.506  18.756   5.731  0.1336 -0.1376  0.0963
    1OPC    C4B66653  25.479  19.068   5.430 -0.0148  0.2591 -0.2030
    1OPC    NC366654  19.597   0.773   7.829 -0.0783 -0.3801  0.0981
    1OPC    PO466655  19.815   0.941   7.418  0.0382 -0.1611 -0.3080
    1OPC    GL166656  20.064   1.141   7.009 -0.0165 -0.0535 -0.2226
    1OPC    GL266657  20.350   1.196   6.879 -0.0894  0.2437 -0.1048
    1OPC    C1B66658  20.308   1.238   6.472  0.0982 -0.1135 -0.0553
    1OPC    D2B66659  20.032   1.462   6.154 -0.2724 -0.2122 -0.1239
    1OPC    C3B66660  20.063   1.182   5.835  0.0831 -0.1247  0.0673
    1OPC    C4B66661  20.158   1.017   5.434 -0.0131 -0.0518  0.0709
    1OPC    NC366662   9.368  21.829   7.644 -0.1902 -0.3009 -0.1235
    1OPC    PO466663   9.454  21.911   7.218 -0.4449 -0.0490  0.0665
    1OPC    GL166664   9.135  21.835   6.870  0.2964 -0.0613  0.1094
    1OPC    GL266665   9.180  21.834   6.484 -0.1570  0.3039 -0.3316
    1OPC    C1B66666   9.442  21.882   6.225  0.1092 -0.3078  0.4394
    1OPC    D2B66667   9.870  21.861   5.950  0.0330  0.0486 -0.2019
    1OPC    C3B66668   9.964  22.172   5.572 -0.0566 -0.1176  0.2982
    1OPC    C4B66669   9.807  22.472   5.294 -0.0130  0.2295  0.0690
    1OPC    NC366670  28.798  12.152   7.609 -0.2121  0.0746  0.1643
    1OPC    PO466671  28.952  12.458   7.276 -0.1328  0.0212  0.0551
    1OPC    GL166672  28.976  12.384   6.926  0.3090  0.1040  0.0103
    1OPC    GL266673  29.031  12.410   6.629  0.1025  0.0592 -0.0811
    1OPC    C1B66674  29.045  12.350   6.124 -0.0146  0.0979 -0.1735
    1OPC    D2B66675  29.298  12.114   5.708 -0.0232 -0.1859  0.2187
    1OPC    C3B66676  29.325  11.880   5.484 -0.0761  0.0033 -0.1167
    1OPC    C4B66677  29.229  11.857   5.056  0.1302  0.2654 -0.0191
    1OPC    NC366678  22.103   1.367   6.836 -0.2020  0.2296 -0.0209
    1OPC    PO466679  21.771   1.680   6.839  0.1484  0.0854 -0.1709
    1OPC    GL166680  21.357   1.770   6.620 -0.3992 -0.1461 -0.2655
    1OPC    GL266681  21.191   1.673   6.436  0.1700  0.0209 -0.0030
    1OPC    C1B66682  21.200   1.690   6.044  0.1893  0.2077  0.0594
    1OPC    D2B66683  21.354   1.874   5.685  0.1027  0.2375 -0.3805
    1OPC    C3B66684  21.627   1.739   5.356  0.1615  0.0404  0.0678
    1OPC    C4B66685  21.718   1.391   5.013 -0.0843 -0.3003 -0.3099
    1OPC    NC366686   5.844  23.093   8.072  0.1330  0.1042 -0.0166
    1OPC    PO466687   6.222  22.997   7.670 -0.0990 -0.2104 -0.1041
    1OPC    GL166688   6.167  23.208   7.254 -0.0429 -0.1282 -0.0351
    1OPC    GL266689   6.297  23.380   7.008 -0.2314  0.1938 -0.2190
    1OPC    C1B66690   6.258  23.372   6.566  0.1634  0.4033 -0.0741
    1OPC    D2B66691   6.171  23.523   6.163 -0.1190 -0.3583 -0.0685
    1OPC    C3B66692   6.620  23.558   5.941 -0.0694  0.0205  0.2070
    1OPC    C4B66693   7.077  23.421   5.973  0.1506  0.1456 -0.1716
    1OPC    NC366694  19.906   8.751   5.901  0.2271  0.1792 -0.0208
    1OPC    PO466695  19.873   9.130   6.182  0.0298  0.0200  0.1275
    1OPC    GL166696  19.634   9.103   5.754  0.0204  0.0561 -0.0942
    1OPC    GL266697  19.462   9.182   5.536 -0.1154  0.2422  0.0568
    1OPC    C1B66698  19.316   9.009   5.246  0.0825 -0.2400  0.0477
    1OPC    D2B66699  19.229   9.032   4.790 -0.2665 -0.2128  0.0050
    1OPC    C3B66700  19.527   8.929   4.446  0.0189 -0.2337  0.0094
    1OPC    C4B66701  19.637   9.075   4.157 -0.2108 -0.1737 -0.1241
    1OPC    NC366702  17.421   4.680   5.962 -0.0660 -0.0622  0.0170
    1OPC    PO466703  17.504   4.491   6.412  0.0738 -0.0079 -0.0421
    1OPC    GL166704  17.521   4.231   6.090 -0.1282 -0.0018  0.2045
    1OPC    GL266705  17.482   3.987   5.849  0.0462  0.0476 -0.3573
    1OPC    C1B66706  17.233   3.944   5.472 -0.1968  0.0721 -0.0076
    1OPC    D2B66707  17.262   4.041   5.083 -0.2729  0.3116  0.0463
    1OPC    C3B66708  17.125   3.767   4.821 -0.0047  0.0321  0.1082
    1OPC    C4B66709  17.246   3.546   4.418 -0.0054 -0.1865  0.3172
    1OPC    NC366710  10.520  18.174   7.179  0.0909  0.0630 -0.1927
    1OPC    PO466711  10.089  18.302   7.187 -0.1462  0.1716  0.0821
    1OPC    GL166712  10.317  18.624   6.970  0.0010 -0.3018 -0.0236
    1OPC    GL266713  10.430  18.714   6.713  0.4217  0.3152  0.2239
    1OPC    C1B66714  10.553  18.670   6.257  0.0351  0.0112  0.2899
    1OPC    D2B66715  10.572  18.791   5.850 -0.0641 -0.1329 -0.0024
    1OPC    C3B66716  10.777  18.610   5.556  0.2052 -0.3223 -0.1893
    1OPC    C4B66717  10.567  18.563   5.204 -0.1093 -0.0122 -0.0433
    1OPC    NC366718   1.953  13.314   7.195 -0.0587 -0.0941 -0.0489
    1OPC    PO466719   1.583  13.107   7.507 -0.2322  0.0399  0.0511
    1OPC    GL166720   1.440  13.200   7.090  0.2741  0.2149  0.0076
    1OPC    GL266721   1.634  13.222   6.846 -0.2332 -0.1108 -0.0391
    1OPC    C1B66722   1.831  13.164   6.445 -0.0143  0.2183 -0.2125
    1OPC    D2B66723   2.113  13.015   6.075 -0.1710  0.2531 -0.0205
    1OPC    C3B66724   2.056  12.848   5.632 -0.2831 -0.1308  0.0472
    1OPC    C4B66725   2.199  12.656   5.191  0.2511 -0.1318 -0.1099
    1OPC    NC366726   4.552   4.687   7.911 -0.4519 -0.0963 -0.4901
    1OPC    PO466727   4.552   4.285   7.631  0.0645  0.1182 -0.0518
    1OPC    GL166728   4.729   4.277   7.189  0.1327  0.2661  0.1173
    1OPC    GL266729   4.715   4.265   6.866 -0.2697  0.1745  0.0856
    1OPC    C1B66730   4.793   4.277   6.522  0.0287  0.0182 -0.1679
    1OPC    D2B66731   4.843   4.389   6.113 -0.0297 -0.0521  0.0581
    1OPC    C3B66732   5.266   4.403   6.039  0.2311 -0.0830  0.2450
    1OPC    C4B66733   5.672   4.630   6.057  0.0365 -0.1449  0.1173
    1OPC    NC366734  20.561  27.703   7.920 -0.0410 -0.1119  0.1147
    1OPC    PO466735  20.559  27.922   7.476 -0.0684 -0.2836 -0.0513
    1OPC    GL166736  20.369  27.626   7.045  0.0657 -0.2894  0.3140
    1OPC    GL266737  20.261  27.585   6.617  0.0758 -0.1380 -0.2158
    1OPC    C1B66738  20.309  27.594   6.156  0.3193 -0.1923 -0.0787
    1OPC    D2B66739  20.278  27.508   5.737  0.0442 -0.1829 -0.2155
    1OPC    C3B66740  19.891  27.522   5.401 -0.0812  0.1178  0.0450
    1OPC    C4B66741  19.573  27.431   5.114 -0.3056 -0.2239  0.0745
    1OPC    NC366742  28.837  16.156   7.912 -0.2877  0.0611 -0.1367
    1OPC    PO466743  28.526  15.749   7.753 -0.2148 -0.0979 -0.0593
    1OPC    GL166744  28.790  16.018   7.402  0.0555  0.0047 -0.0630
    1OPC    GL266745  28.819  15.968   7.063 -0.0509 -0.0872 -0.1276
    1OPC    C1B66746  28.913  15.602   6.864 -0.0019  0.0062 -0.1540
    1OPC    D2B66747  29.320  15.475   6.704 -0.0275 -0.2526  0.0551
    1OPC    C3B66748  29.684  15.472   6.502  0.0423  0.0394 -0.0639
    1OPC    C4B66749  29.905  15.144   6.311 -0.2745 -0.0198 -0.0344
    1OPC    NC366750  14.116   8.545   6.091 -0.1365 -0.5995 -0.0332
    1OPC    PO466751  14.220   9.009   5.989  0.2097 -0.2047 -0.0855
    1OPC    GL166752  14.063   9.041   5.491 -0.0885  0.0262 -0.3104
    1OPC    GL266753  14.176   9.290   5.291 -0.0644  0.2699  0.2335
    1OPC    C1B66754  14.421   9.460   4.863 -0.2923  0.0077  0.0366
    1OPC    D2B66755  14.470   9.342   4.463 -0.0230 -0.0950  0.0168
    1OPC    C3B66756  14.098   9.132   4.151 -0.1136 -0.4029  0.1264
    1OPC    C4B66757  13.849   9.039   3.771 -0.5117  0.2264  0.0023
    1OPC    NC366758  18.569  23.474   7.370  0.3565  0.0900  0.3284
    1OPC    PO466759  18.439  23.073   7.258  0.0951 -0.0578  0.0057
    1OPC    GL166760  18.671  23.007   6.946  0.0069  0.0069 -0.0547
    1OPC    GL266761  18.779  22.941   6.670  0.2474  0.1401 -0.0533
    1OPC    C1B66762  18.726  22.894   6.273  0.0673 -0.0563 -0.1277
    1OPC    D2B66763  18.901  22.828   5.757 -0.0199  0.0228  0.0319
    1OPC    C3B66764  18.833  22.863   5.381 -0.0807  0.0946 -0.0939
    1OPC    C4B66765  19.003  22.699   5.061 -0.0823 -0.0700 -0.0385
    1OPC    NC366766  13.125   6.503   6.020 -0.0382  0.2697  0.0418
    1OPC    PO466767  12.944   6.060   6.153 -0.1240  0.2265  0.0013
    1OPC    GL166768  13.083   5.999   5.666  0.1470  0.0169 -0.0136
    1OPC    GL266769  12.923   5.894   5.434 -0.0643 -0.0221 -0.0387
    1OPC    C1B66770  12.826   5.791   4.965 -0.1962 -0.0011 -0.3379
    1OPC    D2B66771  12.513   5.969   4.692  0.1465  0.0545 -0.0803
    1OPC    C3B66772  12.581   6.210   4.282  0.1349  0.1743 -0.0206
    1OPC    C4B66773  12.403   6.011   3.940 -0.1898 -0.1548  0.0685
    1OPC    NC366774  22.054  19.785   7.085 -0.1229  0.1290 -0.0911
    1OPC    PO466775  22.491  19.794   6.828 -0.0774  0.2535 -0.4011
    1OPC    GL166776  22.568  19.918   6.490 -0.3030 -0.1075 -0.1060
    1OPC    GL266777  22.567  20.168   6.165 -0.2714  0.0027  0.0541
    1OPC    C1B66778  22.733  20.218   5.771  0.2979  0.1786  0.2078
    1OPC    D2B66779  22.738  20.302   5.278  0.2000  0.0046  0.2883
    1OPC    C3B66780  22.641  20.595   5.137 -0.2137 -0.0969 -0.1750
    1OPC    C4B66781  22.765  20.943   5.001  0.0770 -0.1610  0.1008
    1OPC    NC366782   7.905   2.420   8.356  0.0741 -0.0846 -0.1119
    1OPC    PO466783   7.590   2.405   8.031 -0.1540  0.2371 -0.0894
    1OPC    GL166784   7.641   2.388   7.623 -0.1304  0.1044 -0.1320
    1OPC    GL266785   7.574   2.274   7.265  0.0540 -0.0346 -0.0243
    1OPC    C1B66786   7.455   2.332   6.751  0.0915 -0.0692  0.1475
    1OPC    D2B66787   7.281   2.400   6.337  0.1258  0.2297 -0.0369
    1OPC    C3B66788   7.566   2.204   6.016  0.1873 -0.0351 -0.2856
    1OPC    C4B66789   8.025   2.181   5.687  0.0024  0.1427 -0.1376
    1OPC    NC366790  24.086   4.419   7.870  0.1695 -0.2522  0.2300
    1OPC    PO466791  23.984   4.076   7.605  0.0848 -0.0493  0.2104
    1OPC    GL166792  23.849   4.163   7.182 -0.2980 -0.1512  0.0870
    1OPC    GL266793  23.852   4.257   6.848 -0.1820  0.4056 -0.1461
    1OPC    C1B66794  23.867   4.039   6.491 -0.2554 -0.0641  0.3227
    1OPC    D2B66795  23.851   3.902   6.017  0.2070 -0.0031  0.0430
    1OPC    C3B66796  24.195   3.735   5.709 -0.0554 -0.2373  0.1634
    1OPC    C4B66797  24.424   4.011   5.489 -0.0517  0.3054  0.0721
    1OPC    NC366798   7.226  19.948   6.691 -0.0540  0.0653  0.2900
    1OPC    PO466799   7.647  20.110   6.505  0.0691 -0.1560  0.1576
    1OPC    GL166800   7.680  20.306   6.128  0.0447 -0.1031 -0.2704
    1OPC    GL266801   7.536  20.606   5.985  0.2100 -0.1205  0.0403
    1OPC    C1B66802   7.307  20.611   5.719 -0.2243  0.2557  0.2459
    1OPC    D2B66803   7.265  20.685   5.376 -0.1216 -0.4662 -0.2200
    1OPC    C3B66804   7.420  21.011   5.164 -0.2188 -0.1842  0.0445
    1OPC    C4B66805   7.357  21.465   5.147 -0.0494  0.1201  0.1139
    1OPC    NC366806  16.742  23.470   7.508 -0.1185 -0.2052  0.1350
    1OPC    PO466807  17.048  23.577   7.215 -0.2543  0.0564 -0.0234
    1OPC    GL166808  16.949  23.858   6.891  0.0628  0.1419  0.3052
    1OPC    GL266809  16.999  23.768   6.430  0.0396 -0.2303 -0.0535
    1OPC    C1B66810  17.043  23.781   5.991  0.0917  0.4183 -0.1224
    1OPC    D2B66811  17.061  23.479   5.684  0.2910 -0.3279 -0.1641
    1OPC    C3B66812  17.254  23.742   5.371  0.1464 -0.0336 -0.2124
    1OPC    C4B66813  17.191  24.039   5.023  0.0077 -0.2167  0.0797
    1OPC    NC366814  17.310   8.042   6.466  0.2034 -0.3739  0.0294
    1OPC    PO466815  17.602   8.048   6.149 -0.1408  0.0714 -0.1337
    1OPC    GL166816  17.783   8.015   5.751  0.0578 -0.1702  0.0688
    1OPC    GL266817  17.855   7.859   5.496 -0.1125 -0.1608  0.0740
    1OPC    C1B66818  17.922   7.636   5.035  0.2005 -0.2872 -0.3393
    1OPC    D2B66819  18.018   7.517   4.703 -0.1142 -0.3691 -0.0004
    1OPC    C3B66820  18.124   7.708   4.347 -0.1598 -0.0238 -0.0247
    1OPC    C4B66821  18.218   7.460   4.051  0.0871 -0.1017 -0.0625
    1OPC    NC366822  22.941   7.627   6.880  0.2161  0.2529  0.0501
    1OPC    PO466823  22.824   8.037   6.905 -0.0675 -0.3376  0.1161
    1OPC    GL166824  23.185   7.903   6.528 -0.1362  0.1517  0.1872
    1OPC    GL266825  23.355   7.673   6.412 -0.4199 -0.1718  0.1447
    1OPC    C1B66826  23.580   7.718   6.145 -0.3859 -0.2332  0.0539
    1OPC    D2B66827  23.828   7.436   5.883 -0.0097  0.1338 -0.0307
    1OPC    C3B66828  24.072   7.592   5.513  0.0118 -0.1081  0.0164
    1OPC    C4B66829  23.884   7.577   5.173  0.1270  0.1591  0.1279
    1OPC    NC366830  25.649  10.979   7.000 -0.0815  0.4345 -0.1501
    1OPC    PO466831  25.328  10.693   6.865 -0.0302 -0.0154  0.2516
    1OPC    GL166832  25.422  10.721   6.460  0.1363 -0.0431 -0.0533
    1OPC    GL266833  25.502  10.972   6.340  0.1642  0.3758 -0.2502
    1OPC    C1B66834  25.671  11.221   6.017 -0.2238  0.0750 -0.0520
    1OPC    D2B66835  25.780  11.268   5.558  0.1203  0.2006  0.0752
    1OPC    C3B66836  25.699  10.866   5.383 -0.1267  0.0885  0.0921
    1OPC    C4B66837  25.929  10.487   5.435 -0.1210 -0.0266 -0.2661
    1OPC    NC366838  10.621   5.208   6.183 -0.2264  0.0904  0.0849
    1OPC    PO466839  10.895   4.909   6.269 -0.1169  0.1187 -0.0626
    1OPC    GL166840  11.126   5.125   5.944 -0.0132 -0.0399 -0.0516
    1OPC    GL266841  11.144   5.331   5.733  0.1041 -0.2441  0.0919
    1OPC    C1B66842  10.990   5.338   5.308 -0.0321  0.0484 -0.1975
    1OPC    D2B66843  10.887   5.486   4.931  0.1364 -0.4372  0.3505
    1OPC    C3B66844  11.217   5.719   4.648  0.0664  0.1835  0.2296
    1OPC    C4B66845  11.263   6.124   4.511  0.1785 -0.1360  0.2140
    1OPC    NC366846  14.447  13.221   5.884 -0.3877 -0.2544 -0.1863
    1OPC    PO466847  14.855  13.105   5.943  0.1992  0.0161  0.1446
    1OPC    GL166848  15.132  13.201   5.632  0.1848  0.1371 -0.0959
    1OPC    GL266849  15.097  13.404   5.353  0.0594  0.2816  0.1541
    1OPC    C1B66850  14.882  13.700   5.058  0.0279 -0.2928  0.0231
    1OPC    D2B66851  14.881  13.685   4.627  0.2553 -0.0623 -0.0249
    1OPC    C3B66852  14.488  13.785   4.421 -0.1723 -0.2193 -0.4910
    1OPC    C4B66853  14.212  14.155   4.360 -0.0308 -0.2800  0.0504
    1OPC    NC366854  28.700   7.312   8.359 -0.1444 -0.0400 -0.2673
    1OPC    PO466855  28.933   7.089   8.083 -0.1821  0.0595  0.2470
    1OPC    GL166856  28.863   6.863   7.724 -0.1862 -0.1657 -0.3246
    1OPC    GL266857  28.878   6.905   7.359 -0.2596  0.1082 -0.2112
    1OPC    C1B66858  28.875   6.948   6.909 -0.2067  0.0991  0.2787
    1OPC    D2B66859  28.523   6.886   6.618  0.1246  0.0454 -0.1266
    1OPC    C3B66860  28.575   7.138   6.219 -0.1047 -0.2394 -0.2944
    1OPC    C4B66861  28.544   7.022   5.804  0.1630  0.0430 -0.0717
    1OPC    NC366862   7.313   0.042   8.597  0.4531 -0.1065 -0.2330
    1OPC    PO466863   6.970   0.109   8.257 -0.1053  0.0804 -0.2869
    1OPC    GL166864   6.657   0.130   7.906 -0.1792  0.1412  0.1058
    1OPC    GL266865   6.618   0.208   7.650 -0.2558  0.2556  0.0445
    1OPC    C1B66866   6.640   0.110   7.245 -0.2399  0.0861 -0.0718
    1OPC    D2B66867   6.763   0.110   6.793  0.0230 -0.0083 -0.2043
    1OPC    C3B66868   6.734   0.493   6.576  0.0868  0.2439 -0.1141
    1OPC    C4B66869   6.917   0.795   6.411 -0.0917  0.1117  0.1296
    1OPC    NC366870   5.330  14.024   7.521 -0.1725 -0.0715  0.3626
    1OPC    PO466871   5.211  13.826   7.147  0.0213  0.0160  0.0144
    1OPC    GL166872   4.938  13.912   6.775 -0.1262 -0.0202  0.1990
    1OPC    GL266873   4.852  13.917   6.419 -0.3305 -0.0896 -0.0826
    1OPC    C1B66874   4.666  13.922   5.980  0.1469 -0.1302  0.3495
    1OPC    D2B66875   4.448  13.911   5.585  0.2057  0.1135 -0.2127
    1OPC    C3B66876   4.185  13.527   5.415 -0.0896  0.1974  0.0662
    1OPC    C4B66877   4.292  13.131   5.689  0.0223  0.2872  0.2221
    1OPC    NC366878  23.496  17.419   6.917  0.4829  0.0065  0.0548
    1OPC    PO466879  23.655  17.926   6.944  0.0322  0.0554 -0.0826
    1OPC    GL166880  23.506  17.932   6.503  0.0820 -0.0452  0.0002
    1OPC    GL266881  23.418  18.069   6.219  0.3855  0.2114  0.2315
    1OPC    C1B66882  23.635  18.065   5.760  0.0267  0.0274  0.0767
    1OPC    D2B66883  24.122  18.065   5.635  0.1229  0.0008 -0.4186
    1OPC    C3B66884  24.377  17.775   5.853  0.0743  0.0807  0.0954
    1OPC    C4B66885  24.753  17.528   6.024  0.2475  0.0988 -0.0265
    1OPC    NC366886  25.585   7.303   8.078 -0.1633  0.0135  0.0824
    1OPC    PO466887  25.900   7.003   8.200 -0.1504  0.0545  0.4799
    1OPC    GL166888  25.774   6.983   7.718  0.1320  0.1070  0.0461
    1OPC    GL266889  25.597   6.876   7.369 -0.0441  0.1275 -0.3536
    1OPC    C1B66890  25.570   6.947   6.852 -0.0570 -0.0058  0.1416
    1OPC    D2B66891  25.406   7.007   6.447 -0.0376  0.1361  0.0224
    1OPC    C3B66892  25.505   6.769   5.985 -0.1725 -0.1885 -0.3108
    1OPC    C4B66893  25.642   6.604   5.580  0.1173  0.4935  0.2144
    1OPC    NC366894  10.704  25.574   7.286 -0.0052  0.2786 -0.1856
    1OPC    PO466895  10.194  25.658   7.355  0.3011 -0.0868 -0.0096
    1OPC    GL166896  10.296  25.695   6.995 -0.2605  0.1907  0.1196
    1OPC    GL266897  10.218  25.952   6.795  0.1903  0.0026 -0.2140
    1OPC    C1B66898  10.142  25.984   6.360  0.1959 -0.0237  0.0864
    1OPC    D2B66899  10.054  25.785   5.979 -0.5438  0.2418  0.3702
    1OPC    C3B66900  10.308  25.766   5.636  0.0341 -0.1705  0.3143
    1OPC    C4B66901  10.419  25.753   5.191  0.0721  0.0371  0.1439
    1OPC    NC366902  26.361   3.837   8.240  0.4527  0.1552  0.0527
    1OPC    PO466903  26.529   3.662   7.743 -0.1029 -0.3300 -0.0022
    1OPC    GL166904  26.653   4.031   7.437  0.0296  0.2285 -0.0408
    1OPC    GL266905  26.682   4.066   7.148 -0.0340  0.2443 -0.1686
    1OPC    C1B66906  26.913   4.166   6.811 -0.1768  0.1716  0.0067
    1OPC    D2B66907  27.066   4.182   6.449 -0.4319 -0.0197 -0.0117
    1OPC    C3B66908  27.353   4.389   6.143  0.1089 -0.0270 -0.0700
    1OPC    C4B66909  27.284   4.571   5.742  0.0081 -0.1409 -0.0024
    1OPC    NC366910  26.678  20.904   8.166  0.1632  0.4652  0.0825
    1OPC    PO466911  27.167  20.986   7.977  0.2025  0.0763  0.0165
    1OPC    GL166912  27.189  21.199   7.602  0.1507  0.0098 -0.0917
    1OPC    GL266913  27.348  21.117   7.299 -0.2862  0.2340  0.4934
    1OPC    C1B66914  27.635  21.098   6.861  0.0733  0.3756 -0.1065
    1OPC    D2B66915  27.452  21.186   6.413 -0.2188  0.1702 -0.3689
    1OPC    C3B66916  27.656  21.412   6.106  0.0677  0.0683  0.1453
    1OPC    C4B66917  27.937  21.214   5.708 -0.1078 -0.0580  0.2949
    1OPC    NC366918   8.593  11.989   6.623 -0.0310 -0.2033  0.1996
    1OPC    PO466919   8.541  12.279   6.257  0.2129  0.2050  0.0776
    1OPC    GL166920   8.572  12.068   5.806  0.0350 -0.3547  0.2305
    1OPC    GL266921   8.411  11.906   5.513 -0.0999 -0.1854  0.1034
    1OPC    C1B66922   8.506  11.738   5.227  0.2686  0.3431  0.2249
    1OPC    D2B66923   8.415  11.481   4.871  0.0592  0.1095 -0.3811
    1OPC    C3B66924   8.036  11.420   4.588  0.3007 -0.1501  0.2108
    1OPC    C4B66925   7.704  11.519   4.430  0.3065  0.0133  0.0916
    1OPC    NC366926   4.076  19.358   7.175 -0.2571  0.0648  0.2158
    1OPC    PO466927   3.728  19.187   7.254  0.0755 -0.2240 -0.1845
    1OPC    GL166928   3.331  19.181   7.073  0.1412 -0.0001 -0.1733
    1OPC    GL266929   3.141  19.123   6.856  0.2282 -0.2422 -0.2328
    1OPC    C1B66930   3.281  19.049   6.426 -0.1821 -0.1212  0.0898
    1OPC    D2B66931   3.332  19.088   5.918 -0.0529  0.1358  0.1422
    1OPC    C3B66932   3.092  19.191   5.649  0.1338  0.0253  0.0658
    1OPC    C4B66933   2.798  19.470   5.707 -0.2911  0.2124  0.5968
    1OPC    NC366934  20.739  19.421   6.085 -0.0403 -0.0354  0.0589
    1OPC    PO466935  20.320  19.439   5.916 -0.0152 -0.2165 -0.1510
    1OPC    GL166936  20.090  19.353   5.482 -0.2254 -0.1721 -0.0953
    1OPC    GL266937  19.975  19.342   5.115 -0.1681  0.0901 -0.3076
    1OPC    C1B66938  19.810  19.520   4.736 -0.3228  0.2759  0.1756
    1OPC    D2B66939  19.341  19.568   4.700 -0.1873  0.0262 -0.1530
    1OPC    C3B66940  19.165  19.693   4.427  0.1759  0.1337  0.1524
    1OPC    C4B66941  19.102  19.595   3.995 -0.1720 -0.1956 -0.1866
    1OPC    NC366942   4.473  21.052   7.367  0.3571 -0.0506 -0.1880
    1OPC    PO466943   4.711  21.038   7.017 -0.1146  0.2656 -0.0608
    1OPC    GL166944   4.314  21.056   6.869  0.4409  0.1413  0.1333
    1OPC    GL266945   4.240  20.990   6.560 -0.1243  0.0299  0.3491
    1OPC    C1B66946   4.024  20.746   6.239  0.1019 -0.2332 -0.2752
    1OPC    D2B66947   3.903  20.407   5.942  0.1692 -0.1656  0.1230
    1OPC    C3B66948   3.518  20.225   5.805  0.1451  0.1095 -0.0947
    1OPC    C4B66949   3.332  20.189   5.316 -0.0906  0.0006 -0.2396
    1OPC    NC366950  17.595  24.407   6.820 -0.0363 -0.0252  0.2419
    1OPC    PO466951  17.353  24.697   6.793 -0.2761  0.1257  0.3193
    1OPC    GL166952  17.498  24.875   6.562  0.0024 -0.0964 -0.0949
    1OPC    GL266953  17.619  24.762   6.222 -0.0869  0.3220 -0.1092
    1OPC    C1B66954  17.780  24.882   5.893 -0.0690 -0.0260  0.1906
    1OPC    D2B66955  17.730  24.976   5.470 -0.2117 -0.1431  0.3376
    1OPC    C3B66956  17.600  24.988   5.051  0.1505 -0.1319  0.0049
    1OPC    C4B66957  17.724  25.051   4.673  0.1422 -0.1931  0.1452
    1OPC    NC366958   2.788   9.646   7.452 -0.0115 -0.2288 -0.1900
    1OPC    PO466959   2.491   9.359   7.410  0.0555  0.0388 -0.0880
    1OPC    GL166960   2.842   9.175   7.154 -0.1226 -0.0171 -0.0811
    1OPC    GL266961   2.873   8.924   6.982 -0.0029 -0.4995 -0.0147
    1OPC    C1B66962   2.956   8.752   6.609  0.0893  0.0057  0.0750
    1OPC    D2B66963   2.797   8.544   6.272 -0.5358 -0.0092 -0.1373
    1OPC    C3B66964   2.986   8.457   5.894 -0.0980  0.2738  0.0183
    1OPC    C4B66965   3.487   8.578   5.612  0.0542  0.0885 -0.0534
    1OPC    NC366966  15.227   5.847   5.792  0.2535  0.0911  0.0316
    1OPC    PO466967  15.461   5.606   6.105 -0.3088 -0.0375  0.0947
    1OPC    GL166968  15.584   5.363   5.787  0.0797 -0.1177  0.2492
    1OPC    GL266969  15.637   5.109   5.592 -0.0750  0.0312 -0.2918
    1OPC    C1B66970  15.558   4.832   5.296  0.0316  0.0947  0.1250
    1OPC    D2B66971  15.570   4.623   4.979 -0.0568  0.1026  0.0467
    1OPC    C3B66972  15.709   4.560   4.518 -0.1471 -0.0820 -0.3181
    1OPC    C4B66973  15.599   4.330   4.325  0.1761 -0.1419  0.2509
    1OPC    NC366974  15.606  16.960   6.839  0.0882 -0.1801 -0.3724
    1OPC    PO466975  15.426  17.346   6.742  0.0623  0.0612  0.1435
    1OPC    GL166976  15.133  17.374   6.293  0.2207 -0.0149 -0.1808
    1OPC    GL266977  15.110  17.440   6.013  0.1899 -0.3829  0.0108
    1OPC    C1B66978  14.966  17.253   5.588  0.2284  0.2562 -0.0044
    1OPC    D2B66979  14.957  17.048   5.063 -0.0198  0.0434 -0.0253
    1OPC    C3B66980  15.409  17.031   4.788  0.1690  0.2127 -0.2418
    1OPC    C4B66981  15.849  17.183   4.674  0.2390  0.0820  0.0728
    1OPC    NC366982  15.632   7.935   6.233  0.3036  0.1285  0.0202
    1OPC    PO466983  15.770   7.709   5.848 -0.1042 -0.3634 -0.0928
    1OPC    GL166984  15.712   7.962   5.453  0.0005  0.0712 -0.0364
    1OPC    GL266985  16.071   8.043   5.306  0.0441  0.0342 -0.1327
    1OPC    C1B66986  16.348   7.993   4.923  0.1668  0.0273  0.0730
    1OPC    D2B66987  16.434   7.981   4.484 -0.1940 -0.3716 -0.1719
    1OPC    C3B66988  16.177   8.286   4.275 -0.1170  0.2825 -0.0322
    1OPC    C4B66989  16.278   8.623   4.063 -0.0063 -0.2644 -0.0905
    1OPC    NC366990  26.669  23.272   8.212  0.1475  0.2526  0.0655
    1OPC    PO466991  26.663  23.132   7.761  0.0632 -0.2531  0.4117
    1OPC    GL166992  26.613  23.095   7.285  0.1185 -0.1606 -0.0458
    1OPC    GL266993  26.621  23.152   7.031 -0.2044  0.0205 -0.0857
    1OPC    C1B66994  26.637  22.831   6.676  0.0817 -0.5070 -0.0492
    1OPC    D2B66995  26.370  22.825   6.371  0.0795  0.0828  0.0158
    1OPC    C3B66996  25.974  22.685   6.456  0.0818 -0.0455 -0.0510
    1OPC    C4B66997  25.661  22.777   6.639  0.0459  0.1884  0.0913
    1OPC    NC366998  21.968  13.987   6.783 -0.2550  0.3478 -0.1299
    1OPC    PO466999  22.088  13.572   6.890 -0.0857 -0.0682 -0.0566
    1OPC    GL167000  22.166  13.697   6.418 -0.2096 -0.4292 -0.2183
    1OPC    GL267001  22.173  13.606   6.073 -0.1106 -0.0749  0.0185
    1OPC    C1B67002  22.388  13.512   5.734  0.0185 -0.1837  0.2432
    1OPC    D2B67003  22.526  13.679   5.411 -0.3869  0.2648  0.0978
    1OPC    C3B67004  22.283  13.652   5.040 -0.0046 -0.2349 -0.0169
    1OPC    C4B67005  21.925  13.713   4.609  0.0758 -0.1531  0.1907
    1OPC    NC367006  12.203  12.508   6.669  0.1427  0.2892 -0.0093
    1OPC    PO467007  11.930  12.915   6.451  0.2796  0.1037  0.1021
    1OPC    GL167008  11.966  12.975   5.979 -0.0512  0.2032 -0.0299
    1OPC    GL267009  11.932  13.015   5.650 -0.1416  0.0897  0.3447
    1OPC    C1B67010  12.204  13.233   5.402 -0.2179 -0.3838  0.0085
    1OPC    D2B67011  12.279  13.403   4.990 -0.1561 -0.1450 -0.1713
    1OPC    C3B67012  12.572  13.523   4.736  0.6200 -0.0725  0.1860
    1OPC    C4B67013  12.921  13.547   4.839 -0.3163 -0.0272  0.1726
    1OPC    NC367014  19.264  27.600   7.728 -0.1530 -0.3447  0.2846
    1OPC    PO467015  19.576  27.649   7.371 -0.3755  0.0648  0.3184
    1OPC    GL167016  19.372  27.968   7.122  0.0807  0.1153 -0.0649
    1OPC    GL267017  19.448  27.982   6.750 -0.2861 -0.1691 -0.0521
    1OPC    C1B67018  19.332  27.764   6.465 -0.0182 -0.2713 -0.2163
    1OPC    D2B67019  19.281  27.550   5.986 -0.1518 -0.0839 -0.0318
    1OPC    C3B67020  18.960  27.755   5.665  0.0251  0.1023  0.2198
    1OPC    C4B67021  18.755  27.507   5.294 -0.1361 -0.3403  0.0744
    1OPC    NC367022   9.694   0.271   7.257  0.1656 -0.0264  0.0207
    1OPC    PO467023   9.833  -0.083   7.169  0.0221 -0.0302  0.0467
    1OPC    GL167024   9.840  -0.302   6.781  0.0100  0.0158 -0.0909
    1OPC    GL267025   9.880  -0.305   6.492 -0.0352  0.0808  0.1067
    1OPC    C1B67026   9.924   0.057   6.206 -0.2477 -0.0587  0.0820
    1OPC    D2B67027   9.862  -0.155   5.816 -0.0483  0.1178 -0.0014
    1OPC    C3B67028  10.216  -0.292   5.561 -0.1260  0.0753 -0.1105
    1OPC    C4B67029  10.609  -0.206   5.467 -0.0917  0.2216 -0.0645
    1OPC    NC367030  12.611   2.445   7.047 -0.2968  0.1002 -0.1581
    1OPC    PO467031  12.564   2.190   6.721  0.0686 -0.2291  0.0277
    1OPC    GL167032  12.386   1.979   6.309 -0.0486  0.1855  0.1044
    1OPC    GL267033  12.253   1.998   5.981 -0.0460  0.3976 -0.0598
    1OPC    C1B67034  12.233   1.973   5.562 -0.0073 -0.0383 -0.1636
    1OPC    D2B67035  12.304   1.916   5.122  0.1559 -0.0238 -0.2830
    1OPC    C3B67036  12.289   1.686   4.841 -0.0269 -0.1207  0.4917
    1OPC    C4B67037  12.215   1.237   4.818 -0.1454  0.2401  0.1094
    1OPC    NC367038  25.009  11.702   6.844 -0.1326 -0.1299  0.2515
    1OPC    PO467039  24.665  11.626   7.007  0.2642  0.1335 -0.1079
    1OPC    GL167040  24.618  11.360   6.668 -0.4723 -0.1164  0.1463
    1OPC    GL267041  24.574  11.332   6.446 -0.1605 -0.0979 -0.0336
    1OPC    C1B67042  24.732  11.201   5.957 -0.1199  0.2237  0.0353
    1OPC    D2B67043  24.970  10.979   5.590 -0.0201  0.1205  0.0039
    1OPC    C3B67044  24.829  10.736   5.162  0.1902  0.0664  0.2608
    1OPC    C4B67045  24.617  10.556   4.846 -0.4328  0.3376 -0.1369
    1OPC    NC367046  24.893  23.536   7.693  0.1487  0.5312  0.3352
    1OPC    PO467047  24.869  23.123   7.739 -0.2128 -0.3046 -0.0462
    1OPC    GL167048  24.884  23.357   7.245  0.3643  0.1234 -0.2116
    1OPC    GL267049  25.088  23.593   6.923  0.1592 -0.0600  0.0184
    1OPC    C1B67050  25.186  23.639   6.502  0.0866 -0.1798 -0.0730
    1OPC    D2B67051  25.191  23.728   6.023 -0.3252 -0.0014  0.0785
    1OPC    C3B67052  24.909  23.825   5.650 -0.1587 -0.1787 -0.3397
    1OPC    C4B67053  24.601  24.174   5.615  0.1658 -0.1718 -0.1645
    1OPC    NC367054   8.686   3.509   8.284 -0.1061 -0.0632 -0.2465
    1OPC    PO467055   8.342   3.659   8.028 -0.1774  0.1103  0.2044
    1OPC    GL167056   8.252   3.585   7.592  0.3623  0.2507 -0.0925
    1OPC    GL267057   8.151   3.452   7.344 -0.2185 -0.4210 -0.1967
    1OPC    C1B67058   8.348   3.258   6.851 -0.0951 -0.0183  0.0490
    1OPC    D2B67059   8.272   3.161   6.405  0.0177 -0.2778  0.3800
    1OPC    C3B67060   7.835   3.131   6.172 -0.1918 -0.0794  0.0304
    1OPC    C4B67061   7.606   3.041   5.802 -0.0801 -0.3168 -0.1304
    1OPC    NC367062   1.559   9.550   7.571 -0.0764  0.0595 -0.3314
    1OPC    PO467063   1.110   9.714   7.422  0.0709  0.0189 -0.0240
    1OPC    GL167064   0.850   9.746   6.915  0.1094  0.0633  0.3590
    1OPC    GL267065   1.032  10.023   6.762  0.1782  0.1651 -0.1235
    1OPC    C1B67066   1.181  10.248   6.505 -0.1377  0.0383 -0.0560
    1OPC    D2B67067   1.225  10.703   6.387 -0.0078 -0.4096 -0.5161
    1OPC    C3B67068   1.203  10.719   5.852 -0.0917 -0.2024 -0.1497
    1OPC    C4B67069   1.324  10.762   5.399 -0.0137  0.2312 -0.1285
    1OPC    NC367070  15.613  10.283   5.553  0.1135 -0.2332  0.1831
    1OPC    PO467071  15.469  10.736   5.795 -0.1921 -0.2496  0.0384
    1OPC    GL167072  15.600  10.779   5.441 -0.2010  0.1713  0.0664
    1OPC    GL267073  15.786  10.809   5.262 -0.0224  0.3986  0.0423
    1OPC    C1B67074  16.202  10.909   5.080 -0.0684 -0.0216 -0.0308
    1OPC    D2B67075  16.659  11.006   5.054  0.3029 -0.1858 -0.1086
    1OPC    C3B67076  16.817  10.636   4.887  0.1119 -0.0792  0.1482
    1OPC    C4B67077  16.959  10.318   4.702  0.0296 -0.0902  0.0854
    1OPC    NC367078  18.686   8.501   6.459  0.2202  0.2860 -0.1426
    1OPC    PO467079  18.464   8.707   6.123  0.0843  0.1945  0.0521
    1OPC    GL167080  18.161   8.548   5.815 -0.3011  0.1455  0.2836
    1OPC    GL267081  18.039   8.420   5.509 -0.1641 -0.1385  0.0317
    1OPC    C1B67082  17.847   8.217   5.119 -0.1067  0.0384  0.1492
    1OPC    D2B67083  17.645   8.506   4.688 -0.1383 -0.0120  0.1054
    1OPC    C3B67084  17.796   8.615   4.275 -0.3807  0.0328 -0.3139
    1OPC    C4B67085  17.745   8.573   3.833  0.1537  0.0290  0.0093
    1OPC    NC367086  27.567  19.232   8.303 -0.0178  0.1105  0.0704
    1OPC    PO467087  27.678  18.817   8.202 -0.0054 -0.0506 -0.1821
    1OPC    GL167088  27.729  18.956   7.877 -0.2174 -0.1109 -0.0181
    1OPC    GL267089  27.534  18.771   7.568 -0.2564 -0.0564 -0.0977
    1OPC    C1B67090  27.420  18.629   7.062 -0.1417 -0.1189  0.1521
    1OPC    D2B67091  27.541  18.710   6.705  0.2583 -0.3112  0.0033
    1OPC    C3B67092  27.863  18.765   6.327  0.1878  0.0343  0.4285
    1OPC    C4B67093  28.339  18.740   6.102  0.0869 -0.3036 -0.1911
    1OPC    NC367094   9.876   1.624   7.897  0.1044 -0.1971  0.0563
    1OPC    PO467095   9.815   1.881   7.556 -0.0217  0.0947  0.1781
    1OPC    GL167096   9.943   1.746   7.189 -0.0205  0.1356 -0.0359
    1OPC    GL267097  10.100   1.534   6.945 -0.3050 -0.1790  0.1631
    1OPC    C1B67098  10.071   1.208   6.588 -0.1032  0.2083 -0.1530
    1OPC    D2B67099  10.149   1.166   6.115 -0.2493  0.0325  0.0822
    1OPC    C3B67100  10.348   0.818   5.859  0.1161  0.1454  0.1885
    1OPC    C4B67101  10.418   0.441   5.534 -0.0090  0.1382 -0.0951
    1OPC    NC367102   0.231   0.510   8.028  0.0006  0.1158  0.0219
    1OPC    PO467103   0.037   0.818   7.694 -0.1192 -0.0762 -0.1129
    1OPC    GL167104  -0.405   0.886   7.666 -0.1295  0.1537 -0.0397
    1OPC    GL267105  -0.620   0.816   7.526 -0.0863  0.0188 -0.1690
    1OPC    C1B67106  -0.657   0.713   7.199 -0.0356  0.2297 -0.1114
    1OPC    D2B67107  -0.520   0.412   6.888  0.2452  0.2988 -0.1904
    1OPC    C3B67108  -0.522   0.360   6.357  0.4214 -0.0272  0.0226
    1OPC    C4B67109  -0.451   0.714   6.033 -0.0430  0.0814 -0.0238
    1OPC    NC367110  18.169  12.870   6.140 -0.2109 -0.3050  0.0873
    1OPC    PO467111  17.802  13.180   6.211 -0.0182 -0.1104  0.1993
    1OPC    GL167112  17.526  13.186   5.911 -0.1964  0.1734  0.2532
    1OPC    GL267113  17.432  13.128   5.560  0.2454  0.1682 -0.1798
    1OPC    C1B67114  17.482  13.345   5.159 -0.2637 -0.3291  0.0784
    1OPC    D2B67115  17.356  13.750   4.926  0.0235  0.3972  0.1440
    1OPC    C3B67116  17.091  13.885   4.564 -0.1197  0.1860 -0.0592
    1OPC    C4B67117  16.723  13.974   4.420  0.2841  0.2056  0.0582
    1OPC    NC367118  23.946   4.993   7.123 -0.0179 -0.2858 -0.1225
    1OPC    PO467119  24.250   5.240   7.140  0.3027  0.0953 -0.0253
    1OPC    GL167120  24.361   5.054   6.700  0.0819 -0.3886  0.4642
    1OPC    GL267121  24.628   4.880   6.518 -0.0981 -0.1463 -0.1038
    1OPC    C1B67122  24.705   4.526   6.317  0.1054 -0.0998  0.2208
    1OPC    D2B67123  25.129   4.348   6.129  0.0080 -0.1034 -0.0075
    1OPC    C3B67124  25.314   4.730   6.100  0.2854  0.1492 -0.0153
    1OPC    C4B67125  25.710   4.595   5.950  0.0942  0.0662  0.2250
    1OPC    NC367126   9.340   2.196   7.450  0.0114 -0.2056  0.0773
    1OPC    PO467127   9.007   2.039   7.811  0.0248  0.2997 -0.0618
    1OPC    GL167128   8.885   1.938   7.398  0.2602  0.0371 -0.0461
    1OPC    GL267129   8.583   1.907   7.141  0.0350  0.1408 -0.1638
    1OPC    C1B67130   8.548   1.627   6.719  0.1178 -0.4515  0.1681
    1OPC    D2B67131   8.725   1.678   6.342 -0.2570  0.0661  0.0132
    1OPC    C3B67132   8.541   1.674   5.974 -0.1155  0.2672 -0.0206
    1OPC    C4B67133   8.114   1.656   5.830  0.3992 -0.0628  0.1279
    1OPC    NC367134  14.296  22.283   6.980  0.0113 -0.2321 -0.1115
    1OPC    PO467135  14.072  22.644   7.143  0.1651 -0.0617 -0.3268
    1OPC    GL167136  14.139  22.870   6.734  0.3024 -0.3487 -0.3031
    1OPC    GL267137  14.418  23.062   6.589 -0.0058 -0.3680 -0.0441
    1OPC    C1B67138  14.568  23.376   6.223 -0.1652  0.1303 -0.0656
    1OPC    D2B67139  14.393  23.341   5.784  0.1174 -0.1218 -0.3551
    1OPC    C3B67140  14.469  23.393   5.312 -0.2038  0.1560 -0.0769
    1OPC    C4B67141  14.349  23.397   4.938 -0.0269  0.3568  0.4806
    1OPC    NC367142  27.479  21.433   8.218  0.1318  0.1922  0.0973
    1OPC    PO467143  27.273  21.653   7.883  0.0484  0.2315  0.0672
    1OPC    GL167144  27.447  21.599   7.448  0.0854  0.0498  0.1259
    1OPC    GL267145  27.699  21.639   7.219 -0.2795 -0.1291  0.1464
    1OPC    C1B67146  27.737  21.923   6.852  0.0552 -0.0895  0.4225
    1OPC    D2B67147  27.446  22.256   6.508  0.1797  0.3190  0.1582
    1OPC    C3B67148  27.319  22.060   6.033  0.0711  0.0094  0.1906
    1OPC    C4B67149  27.436  21.711   5.798  0.1886 -0.1246  0.2137
    1OPC    NC367150   6.159  27.297   7.806  0.2820 -0.1143  0.0875
    1OPC    PO467151   6.336  26.942   7.922 -0.3386 -0.0176  0.1165
    1OPC    GL167152   6.143  26.818   7.547  0.1378  0.0543 -0.0318
    1OPC    GL267153   6.053  27.055   7.304 -0.1121 -0.0639  0.1300
    1OPC    C1B67154   5.928  26.928   6.890  0.0589 -0.2151  0.0859
    1OPC    D2B67155   5.709  27.023   6.457 -0.3294  0.0404  0.2401
    1OPC    C3B67156   5.832  26.810   6.095 -0.0368  0.0043 -0.3681
    1OPC    C4B67157   5.910  26.513   5.772  0.0585 -0.1092 -0.0655
    1OPC    NC367158  15.398   4.244   6.904  0.1842 -0.0103  0.0013
    1OPC    PO467159  15.688   4.123   6.447 -0.1791 -0.0584  0.1299
    1OPC    GL167160  15.629   3.911   6.072 -0.0032  0.1223  0.1250
    1OPC    GL267161  15.672   3.903   5.685  0.0501 -0.0356  0.1646
    1OPC    C1B67162  15.612   3.622   5.391  0.1263  0.2879 -0.0243
    1OPC    D2B67163  16.024   3.510   5.038 -0.0792 -0.0850 -0.2255
    1OPC    C3B67164  16.080   3.797   4.709  0.3574  0.0167  0.3129
    1OPC    C4B67165  16.279   3.700   4.331 -0.1207 -0.0019 -0.2607
    1OPC    NC367166   2.355   6.071   8.179  0.1436  0.0186  0.1552
    1OPC    PO467167   2.121   6.334   8.097 -0.1154  0.2995  0.0439
    1OPC    GL167168   2.358   6.171   7.699  0.0728 -0.1721  0.0071
    1OPC    GL267169   2.237   6.070   7.462  0.0127 -0.0529  0.0804
    1OPC    C1B67170   2.190   5.825   7.006 -0.0028  0.0084 -0.0700
    1OPC    D2B67171   2.165   5.560   6.708  0.1652  0.2323  0.0392
    1OPC    C3B67172   1.914   5.366   6.326  0.1191 -0.1033 -0.0026
    1OPC    C4B67173   1.586   5.169   5.881  0.0859  0.2704  0.1118
    1OPC    NC367174  24.660  28.221   7.885  0.0476  0.0989  0.0079
    1OPC    PO467175  24.401  27.924   7.668  0.0552  0.2817 -0.4067
    1OPC    GL167176  24.364  27.751   7.264  0.1935 -0.1167 -0.0616
    1OPC    GL267177  24.507  27.672   7.053  0.2259 -0.1141 -0.0017
    1OPC    C1B67178  24.582  27.746   6.733 -0.0233 -0.2680  0.3676
    1OPC    D2B67179  24.332  27.802   6.354 -0.3578 -0.1567 -0.1416
    1OPC    C3B67180  24.536  27.976   6.009 -0.1702 -0.2001  0.0886
    1OPC    C4B67181  24.826  27.951   5.702 -0.2526 -0.3339  0.0819
    1OPC    NC367182  17.822  14.051   6.282  0.1105 -0.1126  0.3024
    1OPC    PO467183  17.409  14.015   6.543 -0.1538  0.0654 -0.0935
    1OPC    GL167184  17.392  14.227   6.092 -0.0382  0.0295  0.0287
    1OPC    GL267185  17.213  14.122   5.857  0.3213  0.1793  0.3032
    1OPC    C1B67186  17.071  14.385   5.417 -0.0231  0.2013  0.1766
    1OPC    D2B67187  16.978  14.516   4.990  0.1752  0.1126  0.0997
    1OPC    C3B67188  16.848  14.560   4.577  0.0550  0.2056  0.0510
    1OPC    C4B67189  16.780  14.386   4.205  0.0467 -0.1287  0.1084
    1OPC    NC367190  10.406  12.269   6.374 -0.2120  0.0605 -0.0585
    1OPC    PO467191  10.230  11.839   6.410  0.1919 -0.1162 -0.0186
    1OPC    GL167192  10.395  11.956   5.997 -0.2604  0.0914  0.1316
    1OPC    GL267193  10.401  11.971   5.660 -0.0267  0.3081  0.2051
    1OPC    C1B67194  10.442  11.993   5.109  0.1065 -0.2336  0.1213
    1OPC    D2B67195  10.175  12.271   4.844  0.2084 -0.0782 -0.2727
    1OPC    C3B67196  10.059  12.095   4.405  0.0818 -0.1416  0.0487
    1OPC    C4B67197   9.675  12.124   4.149  0.0868 -0.2002 -0.1654
    1OPC    NC367198  27.106  27.879   8.165  0.2063  0.1281  0.0711
    1OPC    PO467199  27.530  27.842   8.080  0.0014  0.0401 -0.0200
    1OPC    GL167200  27.847  27.849   7.871 -0.1989 -0.0829  0.2109
    1OPC    GL267201  27.997  27.761   7.538  0.0880  0.0489  0.0200
    1OPC    C1B67202  28.342  27.817   7.332  0.0800 -0.3170  0.0866
    1OPC    D2B67203  28.557  27.412   7.113 -0.0258 -0.0922  0.1169
    1OPC    C3B67204  28.369  27.068   7.049  0.2482  0.1812  0.1128
    1OPC    C4B67205  28.275  26.685   6.804 -0.0078  0.1757 -0.0585
    1OPC    NC367206  12.444  25.690   7.525  0.0914  0.1133  0.2779
    1OPC    PO467207  12.559  25.401   7.251 -0.2396 -0.1280 -0.1087
    1OPC    GL167208  12.389  25.570   6.925  0.0706 -0.2845 -0.2633
    1OPC    GL267209  12.170  25.458   6.615  0.3149  0.4360 -0.0232
    1OPC    C1B67210  12.237  25.565   6.266  0.1132 -0.2131 -0.0789
    1OPC    D2B67211  12.222  25.954   6.049 -0.2864  0.4504  0.0243
    1OPC    C3B67212  11.857  26.176   5.929  0.0470  0.4779  0.1816
    1OPC    C4B67213  11.582  26.537   5.840  0.0734 -0.0259 -0.1545
    1OPC    NC367214   1.778  27.291   7.789 -0.0045  0.0272 -0.3312
    1OPC    PO467215   1.294  27.296   7.929  0.1117 -0.1830  0.0436
    1OPC    GL167216   1.355  27.330   7.512  0.0542 -0.1376  0.0516
    1OPC    GL267217   1.161  27.270   7.253 -0.3958 -0.3462 -0.1443
    1OPC    C1B67218   1.188  27.270   6.882 -0.0299  0.0367 -0.0977
    1OPC    D2B67219   1.497  27.537   6.624 -0.1227  0.3440  0.0294
    1OPC    C3B67220   1.469  27.837   6.314 -0.3687 -0.1837 -0.1404
    1OPC    C4B67221   1.229  28.192   6.388  0.0598 -0.3598  0.0755
    1OPC    NC367222  14.579   0.754   6.730  0.0477 -0.0912  0.0927
    1OPC    PO467223  14.678   0.434   6.470  0.3449 -0.1238 -0.2282
    1OPC    GL167224  14.470   0.385   6.048  0.0611  0.0953  0.2645
    1OPC    GL267225  14.491   0.606   5.748 -0.1346  0.0682 -0.1190
    1OPC    C1B67226  14.295   0.510   5.333 -0.0140  0.1426  0.0961
    1OPC    D2B67227  14.052   0.502   4.984  0.2118  0.1986 -0.1122
    1OPC    C3B67228  14.177   0.681   4.570  0.2868  0.1053  0.3507
    1OPC    C4B67229  14.241   0.709   4.106 -0.1099  0.1895 -0.1044
    1OPC    NC367230  25.200   3.321   8.466 -0.4532 -0.0976  0.2054
    1OPC    PO467231  25.539   3.163   8.067  0.0265  0.2294 -0.0885
    1OPC    GL167232  25.813   3.203   7.652  0.1701  0.1144  0.1743
    1OPC    GL267233  25.900   3.332   7.455  0.0198  0.1001 -0.5134
    1OPC    C1B67234  26.044   3.350   6.978 -0.2591  0.0914  0.0746
    1OPC    D2B67235  26.080   3.473   6.498  0.1638  0.3706 -0.3015
    1OPC    C3B67236  26.235   3.319   6.116 -0.4307  0.0956 -0.1075
    1OPC    C4B67237  26.279   2.942   5.817  0.2395 -0.2296  0.1609
    1OPC    NC367238  17.481  12.152   6.912  0.1085 -0.1712 -0.2215
    1OPC    PO467239  17.683  12.262   6.445  0.3366 -0.2704 -0.1834
    1OPC    GL167240  17.445  12.249   6.016  0.2862  0.0273 -0.2457
    1OPC    GL267241  17.419  12.129   5.777 -0.4887  0.1083  0.4247
    1OPC    C1B67242  17.214  11.882   5.413 -0.2479  0.1214  0.0482
    1OPC    D2B67243  17.200  11.821   5.002 -0.2433  0.2345 -0.2100
    1OPC    C3B67244  17.034  12.184   4.746 -0.0331  0.1055 -0.0216
    1OPC    C4B67245  16.710  12.404   4.691  0.0674  0.1271 -0.0635
    1OPC    NC367246   4.836  13.389   7.205 -0.2269 -0.0599 -0.2556
    1OPC    PO467247   4.711  13.835   7.211 -0.3237 -0.0425  0.1913
    1OPC    GL167248   4.470  14.030   6.876  0.1597  0.0166 -0.0270
    1OPC    GL267249   4.418  14.037   6.615 -0.1132 -0.4072  0.2876
    1OPC    C1B67250   4.305  13.744   6.346 -0.4195 -0.0897 -0.0202
    1OPC    D2B67251   4.224  13.662   5.943  0.1899 -0.0866 -0.0427
    1OPC    C3B67252   3.968  13.869   5.745  0.1028 -0.3414  0.0298
    1OPC    C4B67253   3.666  14.121   5.617 -0.0800 -0.0460  0.0673
    1OPC    NC367254   8.903   4.314   7.434  0.0801 -0.0800  0.1101
    1OPC    PO467255   9.345   4.393   7.220  0.1907 -0.0501 -0.0370
    1OPC    GL167256   9.293   4.636   6.825  0.0253 -0.4169  0.1274
    1OPC    GL267257   9.014   4.694   6.590  0.1261  0.3014 -0.1007
    1OPC    C1B67258   9.027   4.775   6.189  0.2162  0.1294  0.2053
    1OPC    D2B67259   8.983   4.725   5.701 -0.0048 -0.0547 -0.1991
    1OPC    C3B67260   9.249   4.802   5.375 -0.3040  0.1382 -0.2054
    1OPC    C4B67261   9.469   4.708   4.962 -0.1473  0.0738 -0.0899
    1OPC    NC367262  15.139   1.221   6.602  0.2027  0.1224 -0.3573
    1OPC    PO467263  15.501   1.536   6.566 -0.1030 -0.2198 -0.1254
    1OPC    GL167264  15.450   1.519   6.118 -0.0963 -0.1973  0.0788
    1OPC    GL267265  15.386   1.574   5.911 -0.1748 -0.1228 -0.1518
    1OPC    C1B67266  15.221   1.585   5.603 -0.1249  0.0651 -0.0257
    1OPC    D2B67267  14.967   1.770   5.339 -0.1431  0.1262  0.2521
    1OPC    C3B67268  15.009   1.624   4.929 -0.2429 -0.2847  0.1711
    1OPC    C4B67269  14.828   1.366   4.624 -0.2904 -0.2671 -0.0783
    1OPC    NC367270  25.975  10.244   7.339  0.0636  0.1091  0.0051
    1OPC    PO467271  25.647  10.516   7.243  0.2640  0.0749 -0.2697
    1OPC    GL167272  25.697  10.291   6.871 -0.0851  0.1645  0.1251
    1OPC    GL267273  25.559  10.201   6.555 -0.1323 -0.0473  0.2612
    1OPC    C1B67274  25.729  10.286   6.192  0.0278 -0.2381 -0.1762
    1OPC    D2B67275  25.608  10.459   5.834 -0.1312 -0.0415 -0.2598
    1OPC    C3B67276  25.467  10.790   5.826  0.0088 -0.2205  0.1003
    1OPC    C4B67277  25.076  10.920   6.138  0.0715 -0.1018 -0.3042
    1OPC    NC367278   5.574  12.202   7.421  0.2780 -0.2651 -0.3729
    1OPC    PO467279   5.703  12.214   7.063  0.1783  0.2720 -0.3372
    1OPC    GL167280   5.508  12.401   6.682 -0.0042  0.0445  0.1044
    1OPC    GL267281   5.397  12.264   6.314  0.4168 -0.1345 -0.0962
    1OPC    C1B67282   5.552  12.128   5.913  0.1578  0.2430  0.1313
    1OPC    D2B67283   5.603  12.000   5.576 -0.0489  0.2120 -0.1552
    1OPC    C3B67284   5.357  11.901   5.264  0.1488 -0.1342 -0.2008
    1OPC    C4B67285   4.954  11.707   5.124 -0.1138 -0.0084 -0.0886
    1OPC    NC367286   1.866   0.626   8.187  0.1837  0.1103  0.0696
    1OPC    PO467287   1.656   0.204   8.188  0.2610  0.3566  0.1739
    1OPC    GL167288   1.513   0.277   7.772  0.2254  0.3100  0.2318
    1OPC    GL267289   1.330   0.379   7.497  0.1892 -0.1035 -0.0024
    1OPC    C1B67290   1.028   0.028   7.260  0.1052  0.3089  0.1451
    1OPC    D2B67291   0.854  -0.129   6.888 -0.1018 -0.2072 -0.0343
    1OPC    C3B67292   0.530   0.123   6.749  0.1465 -0.0851 -0.0864
    1OPC    C4B67293   0.485   0.351   6.283  0.0947  0.0001  0.1640
    1OPC    NC367294  17.793   0.532   7.710 -0.0260  0.1543 -0.0977
    1OPC    PO467295  17.654   0.647   7.228  0.1219 -0.1158 -0.0382
    1OPC    GL167296  17.661   0.632   6.878 -0.2065 -0.0307  0.2033
    1OPC    GL267297  17.928   0.601   6.596  0.0867  0.0038  0.2453
    1OPC    C1B67298  18.041   0.512   6.159  0.2189 -0.0012 -0.0536
    1OPC    D2B67299  18.214   0.170   5.903  0.0523 -0.3153  0.0012
    1OPC    C3B67300  18.640   0.161   5.635  0.0279  0.2451  0.0377
    1OPC    C4B67301  19.091   0.001   5.388 -0.0682 -0.0547  0.0056
    1OPC    NC367302   0.653  27.657   8.428  0.0663 -0.0736  0.0857
    1OPC    PO467303   0.819  27.805   7.973  0.2025  0.2765  0.2908
    1OPC    GL167304   1.049  27.839   7.599 -0.0468 -0.0057 -0.0012
    1OPC    GL267305   1.076  27.794   7.316  0.1187 -0.0071  0.6212
    1OPC    C1B67306   0.980  27.775   6.900  0.1251  0.1388 -0.0908
    1OPC    D2B67307   0.801  28.129   6.702 -0.0160  0.2994  0.1462
    1OPC    C3B67308   0.828  28.503   6.424  0.0710 -0.0894 -0.0303
    1OPC    C4B67309   0.562  28.731   6.251 -0.2270  0.2717  0.0343
    1OPC    NC367310  15.945  22.836   7.260  0.1728 -0.1327 -0.1116
    1OPC    PO467311  15.723  22.884   6.851 -0.1487 -0.0761  0.0374
    1OPC    GL167312  15.688  23.244   6.596 -0.4070  0.0808 -0.0989
    1OPC    GL267313  15.837  23.408   6.260  0.0373 -0.0240 -0.2540
    1OPC    C1B67314  16.028  23.655   5.946  0.1459  0.0416  0.5216
    1OPC    D2B67315  16.024  23.648   5.544  0.0341  0.0886  0.0323
    1OPC    C3B67316  15.702  23.880   5.332  0.3700 -0.1087  0.1894
    1OPC    C4B67317  15.411  24.109   5.130  0.0853  0.0699 -0.1693
    1OPC    NC367318  12.616   6.918   6.526  0.0788 -0.0581  0.1493
    1OPC    PO467319  12.416   7.184   6.264 -0.1742  0.0595  0.0698
    1OPC    GL167320  12.408   6.862   5.870  0.2103 -0.4924 -0.0686
    1OPC    GL267321  12.528   6.819   5.472  0.2152  0.4342  0.0819
    1OPC    C1B67322  12.305   6.942   5.140 -0.3965 -0.0797  0.1511
    1OPC    D2B67323  12.363   6.918   4.703 -0.3480 -0.0197  0.3607
    1OPC    C3B67324  12.123   7.137   4.441 -0.1254 -0.0567 -0.0076
    1OPC    C4B67325  12.209   7.525   4.372  0.2417 -0.2170 -0.3177
    1OPC    NC367326  11.352  24.080   7.211 -0.1675 -0.0678 -0.1918
    1OPC    PO467327  10.918  23.911   7.364  0.2985  0.2363  0.3922
    1OPC    GL167328  10.951  23.883   6.961 -0.0465 -0.0216 -0.0985
    1OPC    GL267329  11.052  23.972   6.726 -0.3202 -0.0723  0.1145
    1OPC    C1B67330  11.408  23.804   6.373 -0.0566 -0.0022  0.0102
    1OPC    D2B67331  11.435  23.920   5.971 -0.0793  0.3825  0.1582
    1OPC    C3B67332  11.546  24.285   5.974  0.2485 -0.0033 -0.0751
    1OPC    C4B67333  11.488  24.606   5.649  0.1033  0.1627 -0.1537
    1OPC    NC367334  17.070   9.063   5.988 -0.0087 -0.0658 -0.0460
    1OPC    PO467335  16.841   9.455   5.931  0.1414  0.2411 -0.1817
    1OPC    GL167336  16.790   9.253   5.641  0.2081  0.1036  0.1296
    1OPC    GL267337  16.702   9.192   5.324 -0.0413  0.2226  0.1695
    1OPC    C1B67338  16.731   9.202   4.851 -0.0816  0.1381  0.1648
    1OPC    D2B67339  16.804   8.951   4.593  0.0525  0.1558  0.0500
    1OPC    C3B67340  16.965   9.077   4.234 -0.0825  0.1113  0.2071
    1OPC    C4B67341  16.977   9.283   3.934  0.3401 -0.0441 -0.3760
    1OPC    NC367342   4.033  17.630   7.045 -0.3258 -0.1888  0.1301
    1OPC    PO467343   3.837  18.083   7.061 -0.2484 -0.0564  0.1463
    1OPC    GL167344   3.763  18.374   6.770  0.1222  0.0792  0.2537
    1OPC    GL267345   3.755  18.565   6.770 -0.2318  0.0138  0.0357
    1OPC    C1B67346   3.701  18.747   6.362  0.0477 -0.1987  0.0355
    1OPC    D2B67347   3.800  18.879   5.996  0.0924  0.0175 -0.3441
    1OPC    C3B67348   4.204  18.988   5.851  0.1422  0.0934 -0.1883
    1OPC    C4B67349   4.485  19.227   5.555  0.0687 -0.0391  0.2648
    1OPC    NC367350  18.854  26.447   7.524  0.0737  0.0977 -0.2426
    1OPC    PO467351  18.725  26.791   7.536 -0.1984  0.1130 -0.3153
    1OPC    GL167352  18.887  27.120   7.100  0.2913 -0.2708 -0.1471
    1OPC    GL267353  18.815  27.155   6.666 -0.2738  0.3090 -0.0972
    1OPC    C1B67354  18.770  27.470   6.325  0.2623 -0.1922 -0.0428
    1OPC    D2B67355  18.580  27.469   5.947 -0.2457 -0.1517 -0.0483
    1OPC    C3B67356  18.508  27.802   5.706  0.0806 -0.0101 -0.0563
    1OPC    C4B67357  18.460  28.000   5.300  0.1065  0.0173  0.2461
    1OPC    NC367358  21.994   8.012   6.566  0.0023 -0.1786 -0.0407
    1OPC    PO467359  22.001   8.293   6.235 -0.1530 -0.0227 -0.0321
    1OPC    GL167360  21.806   8.502   5.844 -0.2033  0.1628  0.1376
    1OPC    GL267361  21.797   8.567   5.672 -0.1730  0.1460  0.0397
    1OPC    C1B67362  21.860   8.381   5.301 -0.0420 -0.0540 -0.2460
    1OPC    D2B67363  22.008   8.324   4.937  0.0860 -0.0747 -0.3311
    1OPC    C3B67364  21.735   8.328   4.570 -0.0653 -0.1234  0.3922
    1OPC    C4B67365  21.503   8.068   4.307 -0.1200 -0.0566 -0.1408
    1OPC    NC367366  27.043   6.948   8.710 -0.4434  0.0781 -0.1754
    1OPC    PO467367  27.136   7.033   8.264  0.2290 -0.1679  0.1144
    1OPC    GL167368  27.296   6.871   7.806 -0.1689 -0.1059 -0.0863
    1OPC    GL267369  27.392   6.914   7.527  0.0216  0.1378 -0.0178
    1OPC    C1B67370  27.599   6.722   7.081  0.0287  0.1199 -0.2688
    1OPC    D2B67371  27.653   6.688   6.620  0.0386 -0.0140 -0.2307
    1OPC    C3B67372  28.113   6.572   6.423 -0.0199  0.0733  0.0271
    1OPC    C4B67373  28.460   6.412   6.393  0.0537  0.1938 -0.0978
    1OPC    NC367374  11.634  10.527   5.914  0.0582 -0.0865  0.1242
    1OPC    PO467375  11.607   9.987   6.151  0.1917  0.2369  0.2413
    1OPC    GL167376  11.515  10.066   5.745 -0.1109 -0.0434  0.5302
    1OPC    GL267377  11.569   9.840   5.369  0.2005  0.0966  0.0700
    1OPC    C1B67378  11.496   9.741   4.998  0.0160  0.0242 -0.1488
    1OPC    D2B67379  11.410   9.944   4.632  0.3236 -0.0639  0.1921
    1OPC    C3B67380  11.811  10.037   4.355 -0.2364 -0.2145  0.2008
    1OPC    C4B67381  12.167  10.182   4.002 -0.1998  0.0989  0.0863
    1OPC    NC367382   0.040  16.848   8.196 -0.4715  0.0532  0.0699
    1OPC    PO467383  -0.228  16.613   7.937 -0.0131 -0.0135 -0.0100
    1OPC    GL167384  -0.523  16.880   7.700 -0.4398 -0.0140 -0.0105
    1OPC    GL267385  -0.713  16.877   7.391 -0.1071  0.1509 -0.0872
    1OPC    C1B67386  -0.756  16.972   7.029  0.1868  0.0891  0.0360
    1OPC    D2B67387  -0.678  17.235   6.669 -0.0452  0.0179 -0.5424
    1OPC    C3B67388  -0.770  17.107   6.354 -0.0296 -0.1731  0.1159
    1OPC    C4B67389  -0.821  17.085   5.863  0.0133 -0.1401 -0.1274
    1OPC    NC367390  20.215  23.015   6.728  0.1174 -0.2907  0.0511
    1OPC    PO467391  19.968  22.641   6.838  0.0493  0.2119  0.1336
    1OPC    GL167392  20.069  22.344   6.507  0.0548  0.0859 -0.1562
    1OPC    GL267393  20.106  22.338   6.207  0.3101 -0.0271  0.4069
    1OPC    C1B67394  20.074  22.628   5.868  0.0612 -0.0289 -0.1525
    1OPC    D2B67395  19.972  22.515   5.431 -0.2091 -0.2776 -0.2709
    1OPC    C3B67396  19.833  22.844   5.271  0.0912  0.1935  0.0433
    1OPC    C4B67397  19.481  23.092   5.161  0.1137  0.0606  0.0056
    1OPC    NC367398  13.181  27.947   6.712 -0.0087 -0.1187 -0.1625
    1OPC    PO467399  12.926  28.125   7.162  0.1707 -0.1456 -0.0839
    1OPC    GL167400  12.782  28.306   6.680 -0.2024 -0.1124  0.2797
    1OPC    GL267401  12.695  28.632   6.452 -0.0113  0.0177 -0.0788
    1OPC    C1B67402  12.450  28.679   6.031 -0.2565 -0.2249  0.0816
    1OPC    D2B67403  12.533  28.608   5.584 -0.1743 -0.3284  0.0111
    1OPC    C3B67404  12.579  28.911   5.207  0.0631  0.1206 -0.4005
    1OPC    C4B67405  12.588  29.208   4.949  0.3496 -0.0657  0.2580
    1OPC    NC367406  22.652  27.086   7.346  0.1057  0.0531  0.0470
    1OPC    PO467407  22.757  27.304   6.983  0.0245 -0.2614  0.1711
    1OPC    GL167408  23.185  27.337   7.017  0.2385  0.0488  0.1781
    1OPC    GL267409  23.433  27.287   6.842 -0.0502  0.3740  0.0009
    1OPC    C1B67410  23.608  27.252   6.439 -0.4277 -0.0832 -0.1647
    1OPC    D2B67411  23.487  27.274   5.993  0.0924  0.1183 -0.1173
    1OPC    C3B67412  23.510  27.581   5.788 -0.0948 -0.0812  0.3391
    1OPC    C4B67413  23.759  27.920   5.665  0.3812 -0.0033  0.0482
    1OPC    NC367414  22.092   6.154   7.100  0.0627  0.0396 -0.0194
    1OPC    PO467415  22.137   6.533   6.740  0.0524 -0.0180 -0.2217
    1OPC    GL167416  21.982   6.464   6.376 -0.0979 -0.1049 -0.1218
    1OPC    GL267417  21.852   6.343   6.111 -0.2248 -0.2354 -0.0212
    1OPC    C1B67418  21.861   6.192   5.704 -0.0889  0.0275 -0.0524
    1OPC    D2B67419  21.918   6.425   5.288 -0.1139  0.0561  0.1195
    1OPC    C3B67420  22.184   6.193   4.857  0.2404 -0.1362  0.1686
    1OPC    C4B67421  22.232   6.038   4.492 -0.0848 -0.0007 -0.3202
    1OPC    NC367422  18.886   2.414   6.803  0.1708 -0.5019 -0.1553
    1OPC    PO467423  19.041   2.078   6.612 -0.0469 -0.0160 -0.2103
    1OPC    GL167424  18.999   2.070   6.277  0.3705  0.1565 -0.1100
    1OPC    GL267425  19.059   2.039   5.961 -0.0335 -0.1380  0.0612
    1OPC    C1B67426  19.122   1.843   5.682  0.2035  0.0637 -0.0885
    1OPC    D2B67427  19.181   1.650   5.248 -0.1942 -0.2140 -0.2447
    1OPC    C3B67428  19.617   1.656   4.955 -0.1498  0.1445 -0.1208
    1OPC    C4B67429  19.974   1.728   4.636 -0.1583  0.1374 -0.2180
    1OPC    NC367430  15.043  14.626   6.592 -0.0513 -0.2162 -0.2271
    1OPC    PO467431  15.409  14.906   6.656 -0.4694 -0.2700  0.0062
    1OPC    GL167432  15.461  15.057   6.149 -0.0423 -0.1122 -0.1249
    1OPC    GL267433  15.470  15.020   5.784  0.3277 -0.3191 -0.0271
    1OPC    C1B67434  15.433  15.176   5.435 -0.1696  0.0617  0.0403
    1OPC    D2B67435  15.401  15.149   4.959 -0.1669  0.1176 -0.2549
    1OPC    C3B67436  15.475  14.876   4.643  0.1762  0.1762  0.4255
    1OPC    C4B67437  15.395  14.527   4.432 -0.1303 -0.1039  0.1841
    1OPC    NC367438  13.589   2.294   6.754 -0.0926 -0.2778 -0.0460
    1OPC    PO467439  13.857   2.547   6.447 -0.1272  0.0178 -0.0611
    1OPC    GL167440  14.226   2.452   6.481 -0.1507  0.1133 -0.0658
    1OPC    GL267441  14.473   2.656   6.370  0.0902 -0.0240 -0.2116
    1OPC    C1B67442  14.895   2.800   6.147 -0.2143 -0.2443 -0.0243
    1OPC    D2B67443  15.268   2.908   5.876  0.1416  0.0433 -0.1106
    1OPC    C3B67444  15.460   2.696   5.470  0.0340 -0.0008 -0.1073
    1OPC    C4B67445  15.514   2.637   5.103  0.5607 -0.1807  0.0467
    1OPC    NC367446   6.002   0.105   8.338  0.1431  0.1471 -0.1260
    1OPC    PO467447   5.683   0.032   8.247 -0.1866  0.2380  0.1294
    1OPC    GL167448   5.941   0.002   7.771 -0.2345 -0.2674  0.2083
    1OPC    GL267449   6.179  -0.002   7.603 -0.1588  0.0953 -0.0938
    1OPC    C1B67450   6.500  -0.333   7.406 -0.0209 -0.2809  0.1798
    1OPC    D2B67451   6.623  -0.327   7.032  0.0581  0.2258  0.1769
    1OPC    C3B67452   6.382  -0.173   6.755 -0.0546 -0.0296 -0.0029
    1OPC    C4B67453   6.149  -0.313   6.407 -0.2114  0.0442  0.2130
    1OPC    NC367454  20.367   4.637   6.616 -0.0503 -0.0867 -0.0149
    1OPC    PO467455  19.980   4.751   6.813  0.0610 -0.1390  0.0531
    1OPC    GL167456  19.929   4.778   6.289  0.2549  0.0039  0.0896
    1OPC    GL267457  19.963   4.676   6.050 -0.0038 -0.1203  0.0221
    1OPC    C1B67458  20.322   4.558   5.805 -0.0502 -0.1719 -0.0978
    1OPC    D2B67459  20.489   4.762   5.485  0.0723 -0.2353  0.1225
    1OPC    C3B67460  20.735   4.646   5.231 -0.1838 -0.1001 -0.3396
    1OPC    C4B67461  20.929   4.678   4.798 -0.0949  0.0932  0.0776
    1OPC    NC367462   8.384  11.236   6.380  0.1760 -0.0320 -0.2498
    1OPC    PO467463   8.474  11.191   5.973 -0.1242 -0.1251  0.2154
    1OPC    GL167464   8.231  11.417   5.757  0.2075 -0.1582  0.1946
    1OPC    GL267465   8.124  11.495   5.509  0.0053 -0.0333  0.1085
    1OPC    C1B67466   7.922  11.586   5.142  0.0362  0.2320 -0.2718
    1OPC    D2B67467   7.602  11.698   4.959 -0.0228  0.2041 -0.1178
    1OPC    C3B67468   7.759  11.974   4.639  0.0252 -0.2946  0.2979
    1OPC    C4B67469   7.552  12.261   4.301  0.1229 -0.2655  0.1641
    1OPC    NC367470   1.005   2.559   8.336  0.4339  0.1416 -0.0880
    1OPC    PO467471   0.744   2.521   8.091 -0.0180 -0.1898  0.2590
    1OPC    GL167472   0.833   2.718   7.774 -0.2601  0.1011  0.1480
    1OPC    GL267473   0.761   2.838   7.376 -0.0083 -0.1551 -0.1103
    1OPC    C1B67474   1.041   2.936   6.974  0.1598 -0.2643  0.0649
    1OPC    D2B67475   1.146   2.761   6.624 -0.0911  0.0190  0.2693
    1OPC    C3B67476   0.899   2.885   6.294  0.2592 -0.0432  0.0053
    1OPC    C4B67477   0.535   3.133   6.081  0.0201 -0.1869  0.1018
    1OPC    NC367478  11.191  24.887   7.598 -0.3055  0.0058  0.1085
    1OPC    PO467479  11.412  24.561   7.367  0.3665  0.1329 -0.0005
    1OPC    GL167480  11.194  24.847   7.032  0.2318  0.1125 -0.0041
    1OPC    GL267481  10.959  24.876   6.888 -0.3216  0.1952 -0.0265
    1OPC    C1B67482  10.970  24.809   6.321  0.2226  0.1213 -0.1170
    1OPC    D2B67483  11.356  24.963   6.108  0.2632 -0.1039  0.0559
    1OPC    C3B67484  11.791  24.794   6.108 -0.1928  0.1110 -0.0694
    1OPC    C4B67485  11.976  24.412   5.836 -0.2831  0.0195 -0.0068
    1OPC    NC367486   2.164   8.400   7.330  0.0028 -0.0535  0.1143
    1OPC    PO467487   1.846   8.759   7.502  0.0315 -0.0530  0.0293
    1OPC    GL167488   1.913   8.758   7.033  0.0097 -0.1621 -0.5620
    1OPC    GL267489   1.902   8.882   6.742 -0.3295  0.0159  0.1809
    1OPC    C1B67490   1.796   8.847   6.325 -0.1385  0.1429 -0.0992
    1OPC    D2B67491   1.673   9.200   6.038 -0.0925  0.0788 -0.0216
    1OPC    C3B67492   1.443   9.162   5.642  0.0059 -0.0369 -0.1510
    1OPC    C4B67493   1.419   9.267   5.259  0.0379  0.0719  0.0583
    1OPC    NC367494  25.403  21.559   7.699  0.1661 -0.3561  0.3219
    1OPC    PO467495  25.803  21.549   7.521  0.0010  0.1134 -0.2214
    1OPC    GL167496  25.863  21.654   7.082 -0.0539 -0.2972  0.0610
    1OPC    GL267497  25.937  21.722   6.828 -0.0665  0.1556  0.1586
    1OPC    C1B67498  25.908  21.805   6.457 -0.0755  0.2862 -0.0100
    1OPC    D2B67499  25.924  21.545   6.073 -0.2205 -0.1386 -0.0577
    1OPC    C3B67500  25.789  21.690   5.775  0.1987  0.0362 -0.1916
    1OPC    C4B67501  26.140  21.860   5.379  0.0456 -0.0794 -0.0894
    1OPC    NC367502   2.548  12.086   7.608 -0.1338 -0.2398 -0.0640
    1OPC    PO467503   2.480  12.543   7.457  0.1205  0.1632 -0.0393
    1OPC    GL167504   2.215  12.483   7.062  0.0321  0.1576 -0.2419
    1OPC    GL267505   2.119  12.236   6.819  0.1500  0.0620 -0.1137
    1OPC    C1B67506   1.912  12.016   6.451 -0.0775  0.0140  0.0405
    1OPC    D2B67507   1.850  11.557   6.320  0.3821  0.2899 -0.1528
    1OPC    C3B67508   1.466  11.515   6.210  0.2412 -0.1230  0.2476
    1OPC    C4B67509   1.165  11.623   5.928 -0.4346 -0.0036 -0.1902
    1OPC    NC367510  18.296  12.054   7.030 -0.2150 -0.0345 -0.2213
    1OPC    PO467511  18.522  12.103   6.563 -0.2654  0.4105 -0.0691
    1OPC    GL167512  18.677  12.012   6.028 -0.1557 -0.0115 -0.1365
    1OPC    GL267513  18.870  12.179   5.732  0.1736  0.1397  0.0212
    1OPC    C1B67514  18.844  12.436   5.372 -0.1935 -0.0754  0.0090
    1OPC    D2B67515  19.123  12.742   5.106 -0.2301 -0.0118 -0.0428
    1OPC    C3B67516  18.950  13.130   4.825  0.0423 -0.1531  0.1376
    1OPC    C4B67517  18.515  13.271   4.682 -0.0909  0.0877 -0.0901
    1OPC    NC367518  11.576  12.016   6.281  0.1834 -0.1381  0.1187
    1OPC    PO467519  11.364  11.774   6.161  0.0320  0.0489  0.0898
    1OPC    GL167520  11.582  12.005   5.782  0.0454  0.2532  0.2382
    1OPC    GL267521  11.862  11.886   5.568 -0.0815 -0.0110  0.1046
    1OPC    C1B67522  11.699  11.824   5.143  0.0735  0.1065  0.0599
    1OPC    D2B67523  11.451  11.772   4.741 -0.4121 -0.0001 -0.1580
    1OPC    C3B67524  11.455  11.745   4.288  0.3471 -0.1044  0.0867
    1OPC    C4B67525  11.503  11.645   3.877 -0.1209  0.1418 -0.4616
    1OPC    NC367526  17.633   3.718   7.243  0.1329 -0.1622 -0.0714
    1OPC    PO467527  17.369   3.904   6.937  0.0578  0.1117  0.1799
    1OPC    GL167528  17.529   3.729   6.472 -0.0941  0.1655  0.0173
    1OPC    GL267529  17.667   3.522   6.248  0.2053 -0.1573 -0.1579
    1OPC    C1B67530  17.738   3.186   5.946 -0.1198 -0.0786  0.2668
    1OPC    D2B67531  17.899   2.841   5.677 -0.2092  0.0868 -0.2958
    1OPC    C3B67532  18.015   2.827   5.289  0.2633 -0.2839 -0.1222
    1OPC    C4B67533  18.144   2.877   4.921  0.0233  0.1066  0.2123
    1OPC    NC367534   1.715  15.610   7.865  0.1700  0.0765 -0.0268
    1OPC    PO467535   1.832  15.335   7.585  0.2382 -0.0635  0.4161
    1OPC    GL167536   1.716  15.193   7.122 -0.0313 -0.1471 -0.4141
    1OPC    GL267537   1.536  15.086   6.939  0.1349  0.0053  0.1762
    1OPC    C1B67538   1.485  15.146   6.534  0.0751 -0.0914 -0.1076
    1OPC    D2B67539   1.489  15.333   6.148  0.3916  0.2140  0.0316
    1OPC    C3B67540   1.480  15.110   5.724  0.2292  0.0867  0.1668
    1OPC    C4B67541   1.259  14.852   5.509  0.1890 -0.2483 -0.3224
    1OPC    NC367542  23.184   8.844   7.587  0.0175  0.0386  0.0187
    1OPC    PO467543  23.340   8.513   7.194  0.1154 -0.0859 -0.2058
    1OPC    GL167544  23.250   8.487   6.758  0.0232  0.3258  0.0335
    1OPC    GL267545  23.362   8.401   6.492  0.2531  0.2401  0.2238
    1OPC    C1B67546  23.693   8.341   6.193 -0.0100 -0.0092 -0.3516
    1OPC    D2B67547  23.838   8.037   5.828  0.1649 -0.2838 -0.0941
    1OPC    C3B67548  23.662   7.986   5.375  0.1961  0.0946 -0.2905
    1OPC    C4B67549  23.367   8.124   5.230  0.0447  0.0744  0.5089
    1OPC    NC367550  28.186  12.880   7.435  0.0125  0.1883  0.0098
    1OPC    PO467551  28.153  12.959   7.057  0.1461  0.3518 -0.1105
    1OPC    GL167552  28.339  13.090   6.742 -0.0946 -0.1425  0.1024
    1OPC    GL267553  28.328  13.316   6.529  0.4048 -0.0611 -0.2269
    1OPC    C1B67554  28.440  13.149   6.132  0.2930 -0.2406  0.1160
    1OPC    D2B67555  28.591  13.317   5.669  0.3041 -0.0313  0.0129
    1OPC    C3B67556  28.753  13.637   5.691 -0.2564 -0.1442 -0.0330
    1OPC    C4B67557  29.023  13.992   5.864 -0.0316 -0.0780 -0.4046
    1OPC    NC367558   5.359  11.911   6.759 -0.1157 -0.0754  0.1523
    1OPC    PO467559   5.169  12.203   7.121 -0.1143 -0.1807  0.0442
    1OPC    GL167560   5.021  12.277   6.763  0.3062  0.0240  0.0813
    1OPC    GL267561   4.897  12.253   6.396  0.0381 -0.1020  0.2766
    1OPC    C1B67562   4.617  12.135   6.026 -0.0254 -0.1354  0.1580
    1OPC    D2B67563   4.478  12.255   5.520  0.0027 -0.0871 -0.1156
    1OPC    C3B67564   4.444  12.608   5.557  0.0690 -0.0378 -0.0719
    1OPC    C4B67565   4.717  12.915   5.769  0.0660  0.1273  0.3856
    1OPC    NC367566  21.608  15.650   6.183 -0.0880  0.3472  0.0049
    1OPC    PO467567  21.219  15.350   6.165  0.0835  0.1788  0.1497
    1OPC    GL167568  21.321  15.413   5.789 -0.1003 -0.1262 -0.1653
    1OPC    GL267569  21.543  15.287   5.766  0.1508 -0.0229  0.0448
    1OPC    C1B67570  21.698  15.080   5.386  0.0314 -0.1956  0.1122
    1OPC    D2B67571  21.784  14.873   5.018 -0.0620 -0.0623 -0.0763
    1OPC    C3B67572  21.508  14.930   4.587 -0.0497 -0.2102  0.0594
    1OPC    C4B67573  21.512  14.980   4.174  0.0135 -0.0985  0.0661
    1OPC    NC367574   9.090  18.003   6.710 -0.0868 -0.1696  0.1676
    1OPC    PO467575   9.182  18.298   6.999 -0.1481 -0.4697  0.3993
    1OPC    GL167576   9.366  18.487   6.646  0.0744  0.2440 -0.0530
    1OPC    GL267577   9.552  18.558   6.329 -0.2770 -0.0837 -0.2564
    1OPC    C1B67578  10.020  18.502   6.157  0.1882 -0.0601  0.1382
    1OPC    D2B67579  10.282  18.357   5.946 -0.0323  0.0798 -0.1522
    1OPC    C3B67580  10.441  18.177   5.634  0.3016 -0.1219 -0.0479
    1OPC    C4B67581  10.408  17.897   5.297 -0.1937  0.0495  0.0709
    1OPC    NC367582  19.646  10.067   6.153  0.0568 -0.0528 -0.2746
    1OPC    PO467583  19.874   9.977   5.896 -0.4473 -0.0321  0.0867
    1OPC    GL167584  19.881  10.270   5.534 -0.1056 -0.0404 -0.0280
    1OPC    GL267585  19.749  10.232   5.223  0.1070  0.0701  0.1385
    1OPC    C1B67586  19.899  10.322   4.807  0.0264  0.2099  0.0031
    1OPC    D2B67587  20.008  10.600   4.628 -0.2395 -0.2384  0.0809
    1OPC    C3B67588  20.330  10.861   4.688  0.2042  0.0290  0.1166
    1OPC    C4B67589  20.570  10.798   5.008  0.0685 -0.1516  0.1142
    1OPC    NC367590   0.923   0.546   8.558 -0.1190 -0.0174  0.1163
    1OPC    PO467591   1.045   0.801   8.215  0.2015  0.0112  0.0182
    1OPC    GL167592   1.003   0.903   7.729  0.3432  0.0226 -0.1699
    1OPC    GL267593   1.123   0.827   7.395 -0.0767  0.0268 -0.2614
    1OPC    C1B67594   1.233   0.772   6.933 -0.1324  0.0705 -0.1030
    1OPC    D2B67595   1.561   0.723   6.544  0.2377 -0.1814  0.0717
    1OPC    C3B67596   1.401   0.949   6.236 -0.0436  0.0470  0.2179
    1OPC    C4B67597   1.390   1.425   6.399 -0.3278 -0.0025  0.3041
    1OPC    NC367598   8.881  16.673   6.824  0.1788  0.4064  0.1896
    1OPC    PO467599   9.310  16.660   6.820  0.1430  0.0909  0.3718
    1OPC    GL167600   9.524  16.773   6.389 -0.1968 -0.1574  0.1214
    1OPC    GL267601   9.435  16.830   6.043  0.3241  0.0981 -0.1128
    1OPC    C1B67602   9.492  16.770   5.589 -0.0361 -0.1098  0.1836
    1OPC    D2B67603   9.460  16.810   5.144  0.0673  0.0226  0.1822
    1OPC    C3B67604   9.651  16.957   4.823 -0.2191  0.2998 -0.1589
    1OPC    C4B67605   9.679  16.796   4.423  0.0202 -0.0849  0.2081
    1OPC    NC367606  26.823  25.637   7.972  0.0666  0.1286  0.0024
    1OPC    PO467607  27.106  25.696   7.726  0.1513 -0.0206  0.2026
    1OPC    GL167608  26.573  25.795   7.581 -0.0199 -0.1295 -0.0188
    1OPC    GL267609  26.391  25.806   7.377 -0.4319 -0.0051 -0.0249
    1OPC    C1B67610  26.553  25.761   6.972  0.1423 -0.3729 -0.1647
    1OPC    D2B67611  26.663  25.640   6.535  0.0692  0.1698 -0.0845
    1OPC    C3B67612  26.216  25.522   6.300  0.1825  0.0748  0.1168
    1OPC    C4B67613  25.932  25.185   6.129  0.1954 -0.1461  0.1013
    1OPC    NC367614  16.630   7.010   5.915 -0.2632  0.1581 -0.0567
    1OPC    PO467615  16.596   7.519   5.982 -0.0678 -0.2815  0.2810
    1OPC    GL167616  16.693   7.829   5.608  0.0816 -0.0498 -0.0081
    1OPC    GL267617  16.673   7.898   5.294 -0.1180 -0.1411  0.1041
    1OPC    C1B67618  16.793   7.797   4.841 -0.3320 -0.1664  0.0939
    1OPC    D2B67619  16.958   7.570   4.543 -0.3221  0.0391 -0.0804
    1OPC    C3B67620  17.223   7.625   4.154 -0.4299 -0.1100 -0.4578
    1OPC    C4B67621  17.336   7.936   3.936  0.2107  0.1101 -0.0188
    1OPC    NC367622  25.393  24.135   7.680  0.1773  0.1518  0.1056
    1OPC    PO467623  25.752  24.333   7.837  0.2678 -0.1682 -0.1310
    1OPC    GL167624  25.807  24.376   7.375  0.1148  0.1428  0.3034
    1OPC    GL267625  25.753  24.410   7.044  0.0668 -0.3351 -0.1287
    1OPC    C1B67626  25.946  24.557   6.692  0.1533  0.1272  0.0050
    1OPC    D2B67627  25.902  24.688   6.272  0.1107  0.1408  0.1181
    1OPC    C3B67628  26.045  24.472   5.939  0.2541 -0.1660 -0.1228
    1OPC    C4B67629  26.129  23.983   5.896  0.0452  0.1414 -0.1210
    1OPC    NC367630  25.344  17.568   7.331  0.2168 -0.0593  0.2201
    1OPC    PO467631  25.148  17.808   6.996  0.1250 -0.2684 -0.0738
    1OPC    GL167632  25.212  18.051   6.653 -0.0514 -0.1886  0.1614
    1OPC    GL267633  25.081  18.175   6.399 -0.3128 -0.0955 -0.2188
    1OPC    C1B67634  25.129  18.425   6.009  0.1469  0.1481 -0.0630
    1OPC    D2B67635  24.975  18.464   5.630  0.2328  0.0936 -0.0142
    1OPC    C3B67636  25.131  18.684   5.163 -0.0704 -0.0300  0.1385
    1OPC    C4B67637  25.144  19.037   4.984  0.0971 -0.0496  0.2190
    1OPC    NC367638   2.561  13.854   7.838  0.0831  0.0169  0.1188
    1OPC    PO467639   2.327  13.574   7.602  0.2177 -0.0413 -0.0214
    1OPC    GL167640   2.418  13.483   7.271  0.4219 -0.0940 -0.0751
    1OPC    GL267641   2.334  13.464   6.922  0.4800 -0.0126  0.2708
    1OPC    C1B67642   2.294  13.324   6.421 -0.2706  0.1673  0.2030
    1OPC    D2B67643   2.463  13.358   5.980  0.1249  0.0032  0.1148
    1OPC    C3B67644   2.380  13.474   5.509 -0.1160  0.2028 -0.1472
    1OPC    C4B67645   2.131  13.182   5.270  0.1959  0.2322  0.0205
    1OPC    NC367646  10.878  10.477   6.397  0.1343  0.1742 -0.0273
    1OPC    PO467647  10.715  10.559   6.002 -0.0405 -0.4000  0.0648
    1OPC    GL167648  10.392  10.573   5.706 -0.0374  0.2219 -0.0922
    1OPC    GL267649  10.305  10.594   5.437  0.0511 -0.4096 -0.0786
    1OPC    C1B67650  10.190  10.555   5.006 -0.1478 -0.3047  0.0321
    1OPC    D2B67651  10.343  10.647   4.583  0.1773  0.0857 -0.0781
    1OPC    C3B67652  10.796  10.567   4.444  0.1770 -0.2729  0.3363
    1OPC    C4B67653  11.303  10.400   4.441  0.2444  0.0670 -0.1020
    1OPC    NC367654   7.207  13.058   6.962  0.3686  0.0990 -0.0160
    1OPC    PO467655   7.204  12.894   6.440  0.0463 -0.0809  0.2760
    1OPC    GL167656   7.208  12.967   6.003 -0.0668 -0.0127 -0.0026
    1OPC    GL267657   7.038  12.963   5.700  0.1927 -0.0686 -0.3318
    1OPC    C1B67658   6.886  12.835   5.293  0.2009 -0.0282  0.4633
    1OPC    D2B67659   6.577  12.821   4.981  0.0427 -0.3696  0.0199
    1OPC    C3B67660   6.530  12.814   4.527  0.0586 -0.0559 -0.0917
    1OPC    C4B67661   6.710  12.712   4.038  0.1858 -0.0316 -0.0885
    1OPC    NC367662   7.819  18.572   7.069 -0.3408 -0.0208 -0.0630
    1OPC    PO467663   7.572  18.237   6.946 -0.0225  0.3050 -0.0593
    1OPC    GL167664   7.488  18.367   6.469  0.3611  0.0175 -0.2091
    1OPC    GL267665   7.620  18.325   6.235 -0.0576 -0.2580  0.0290
    1OPC    C1B67666   7.771  18.496   5.749  0.1499  0.2292 -0.3881
    1OPC    D2B67667   7.867  18.712   5.447 -0.3469 -0.2738 -0.1926
    1OPC    C3B67668   8.043  18.734   5.107  0.1318 -0.0781 -0.0336
    1OPC    C4B67669   8.402  18.679   4.763  0.1528  0.2021  0.1247
    1OPC    NC367670  26.306  17.813   7.599  0.0217  0.1454  0.3141
    1OPC    PO467671  25.971  17.518   7.404 -0.0035 -0.0195 -0.0341
    1OPC    GL167672  26.088  17.231   7.035 -0.1838  0.0574 -0.1274
    1OPC    GL267673  26.306  17.142   6.777  0.0823 -0.2420 -0.0263
    1OPC    C1B67674  26.245  17.132   6.398 -0.3235  0.4158 -0.2307
    1OPC    D2B67675  26.128  16.758   6.052  0.1041  0.2883  0.0709
    1OPC    C3B67676  25.965  16.927   5.671 -0.0160  0.3370  0.1433
    1OPC    C4B67677  25.648  17.180   5.694 -0.1181 -0.1693  0.1495
    1OPC    NC367678  20.369  10.665   6.411 -0.0550 -0.0714  0.3206
    1OPC    PO467679  20.565  10.351   6.413 -0.3488 -0.1725  0.0922
    1OPC    GL167680  20.753  10.289   6.067  0.1940 -0.1201 -0.1076
    1OPC    GL267681  21.003  10.351   5.755 -0.0276 -0.1458 -0.0855
    1OPC    C1B67682  21.356  10.548   5.542 -0.1419 -0.3247 -0.0511
    1OPC    D2B67683  21.799  10.530   5.407  0.1307  0.0546 -0.0978
    1OPC    C3B67684  21.889  10.604   4.983 -0.0802  0.0798  0.3393
    1OPC    C4B67685  21.852  10.761   4.496 -0.1640 -0.0469  0.2590
    1OPC    NC367686  27.723   2.220   8.821 -0.1162  0.1405  0.0289
    1OPC    PO467687  27.679   2.139   8.333 -0.0111 -0.0144 -0.2109
    1OPC    GL167688  27.791   2.024   7.910  0.0167 -0.1447  0.1880
    1OPC    GL267689  27.905   1.855   7.627 -0.1035 -0.2410 -0.3462
    1OPC    C1B67690  28.065   1.705   7.256  0.2945  0.2428  0.0780
    1OPC    D2B67691  28.059   1.608   6.778  0.1538 -0.1596 -0.0916
    1OPC    C3B67692  27.868   1.209   6.630 -0.0522 -0.3594  0.0165
    1OPC    C4B67693  27.682   1.178   6.294  0.2691  0.2445  0.1513
    1OPC    NC367694  15.210   9.246   6.190  0.2271  0.0446  0.1255
    1OPC    PO467695  15.486   9.348   5.994  0.2722  0.0885  0.2154
    1OPC    GL167696  15.468   9.326   5.645 -0.2338 -0.2128 -0.0727
    1OPC    GL267697  15.485   9.356   5.435 -0.2119 -0.3203 -0.1710
    1OPC    C1B67698  15.350   9.537   4.989  0.1365  0.1709 -0.1346
    1OPC    D2B67699  15.435   9.659   4.483  0.0023  0.0480 -0.2058
    1OPC    C3B67700  15.128   9.925   4.213  0.0725 -0.0338 -0.3193
    1OPC    C4B67701  14.918  10.220   3.910 -0.0089 -0.1702 -0.1251
    1OPC    NC367702  16.150  28.518   6.814  0.1456 -0.5210 -0.0494
    1OPC    PO467703  15.726  28.407   6.587  0.3457  0.0999 -0.1151
    1OPC    GL167704  15.698  28.555   6.120 -0.2250  0.1400  0.2606
    1OPC    GL267705  15.682  28.683   5.781  0.0977 -0.3158  0.0212
    1OPC    C1B67706  15.499  28.327   5.583  0.1115  0.3778  0.0523
    1OPC    D2B67707  15.604  28.093   5.189  0.0548  0.2207  0.1253
    1OPC    C3B67708  15.995  28.114   4.872 -0.0011 -0.1832 -0.3898
    1OPC    C4B67709  16.431  28.097   4.871  0.0260  0.1588  0.0638
    1OPC    NC367710  20.806  12.644   6.370  0.0930  0.1526 -0.1889
    1OPC    PO467711  20.913  12.264   6.733 -0.1588 -0.0468  0.1837
    1OPC    GL167712  21.086  12.154   6.248 -0.1293 -0.1578  0.2136
    1OPC    GL267713  21.119  11.941   6.006  0.1115  0.2328 -0.0553
    1OPC    C1B67714  21.091  11.900   5.558 -0.1722  0.1428 -0.0173
    1OPC    D2B67715  21.066  11.732   5.112  0.0223 -0.0174  0.1521
    1OPC    C3B67716  21.363  11.804   4.806 -0.4114 -0.0497  0.0263
    1OPC    C4B67717  21.790  11.644   4.689  0.2723  0.4045 -0.1566
    1OPC    NC367718  11.696  14.957   6.088 -0.1275  0.1113 -0.4797
    1OPC    PO467719  12.039  14.735   5.706 -0.1251 -0.2480 -0.3201
    1OPC    GL167720  11.577  14.959   5.607  0.1569 -0.2748  0.0073
    1OPC    GL267721  11.387  14.974   5.333 -0.3230 -0.2738 -0.0027
    1OPC    C1B67722  11.318  14.977   4.940 -0.2498  0.1010 -0.0462
    1OPC    D2B67723  11.115  15.070   4.598  0.2201 -0.3404 -0.1294
    1OPC    C3B67724  10.803  14.995   4.285  0.0287  0.0155  0.0438
    1OPC    C4B67725  10.305  15.091   4.286 -0.3403 -0.0790  0.0834
    1OPC    NC367726  24.398  10.277   6.927 -0.1013  0.1540 -0.1421
    1OPC    PO467727  24.868  10.135   6.737  0.2865 -0.0456  0.2915
    1OPC    GL167728  25.004  10.359   6.485 -0.1161  0.0263  0.1153
    1OPC    GL267729  24.955  10.431   6.134  0.3470  0.0703 -0.2766
    1OPC    C1B67730  25.058  10.525   5.730 -0.2112 -0.0000  0.0443
    1OPC    D2B67731  25.342  10.507   5.322  0.2207 -0.2541  0.0641
    1OPC    C3B67732  25.631  10.133   5.265 -0.0998  0.0489  0.0590
    1OPC    C4B67733  25.610   9.735   5.416 -0.3049  0.3107 -0.0057
    1OPC    NC367734  19.448   6.638   6.961  0.1298 -0.0808 -0.0361
    1OPC    PO467735  19.830   6.477   6.508 -0.2365  0.0468  0.0537
    1OPC    GL167736  19.895   6.564   6.081 -0.1801  0.0265  0.1659
    1OPC    GL267737  20.138   6.780   5.894 -0.2266 -0.2300  0.2465
    1OPC    C1B67738  20.562   6.748   5.752 -0.2919 -0.0957  0.1133
    1OPC    D2B67739  20.872   6.692   5.473  0.1421  0.2603 -0.0386
    1OPC    C3B67740  20.776   6.544   5.015  0.0291 -0.0537 -0.1061
    1OPC    C4B67741  20.636   6.312   4.779 -0.0315  0.2124 -0.1430
    1OPC    NC367742  14.266   6.432   6.029  0.2120  0.0080  0.1078
    1OPC    PO467743  14.616   6.301   6.046  0.1106 -0.0192  0.1585
    1OPC    GL167744  14.558   6.063   5.680 -0.5573  0.1458 -0.0377
    1OPC    GL267745  14.438   5.938   5.355  0.2581 -0.0817 -0.1110
    1OPC    C1B67746  14.430   5.941   4.914  0.0806  0.1932  0.2210
    1OPC    D2B67747  14.203   6.254   4.638 -0.0777  0.1169  0.0153
    1OPC    C3B67748  13.987   6.155   4.192  0.1379 -0.1060  0.1607
    1OPC    C4B67749  13.714   6.341   3.865 -0.1835  0.2827 -0.3120
    1OPC    NC367750  21.936  18.266   6.749  0.0558 -0.1032 -0.2589
    1OPC    PO467751  22.249  18.512   6.681 -0.1974  0.1321 -0.0098
    1OPC    GL167752  22.137  18.533   6.355 -0.0929  0.4596  0.0308
    1OPC    GL267753  22.037  18.604   5.993 -0.2456 -0.0910  0.1374
    1OPC    C1B67754  22.000  18.797   5.509 -0.0843 -0.0175  0.0868
    1OPC    D2B67755  21.981  18.779   5.149  0.0408  0.1653 -0.0065
    1OPC    C3B67756  21.691  18.881   4.822  0.1106 -0.1250 -0.0445
    1OPC    C4B67757  21.542  18.782   4.481 -0.3529 -0.0321  0.2634
    1OPC    NC367758  18.298  26.581   7.330 -0.0245  0.1611 -0.1315
    1OPC    PO467759  17.990  26.298   7.312 -0.0310 -0.0052  0.0744
    1OPC    GL167760  18.080  26.078   7.006  0.0955 -0.0732  0.2861
    1OPC    GL267761  18.023  26.039   6.693 -0.0858  0.1752  0.1503
    1OPC    C1B67762  17.926  25.811   6.266 -0.1391 -0.1917 -0.1358
    1OPC    D2B67763  17.670  25.896   5.820  0.1943 -0.0230 -0.2623
    1OPC    C3B67764  17.845  25.986   5.499 -0.0453 -0.1251  0.0670
    1OPC    C4B67765  17.627  25.884   5.070  0.3324 -0.2035 -0.1715
    1OPC    NC367766  17.198  26.736   7.385  0.0541  0.1577 -0.2021
    1OPC    PO467767  16.976  26.770   7.006  0.1062  0.0218 -0.1123
    1OPC    GL167768  17.151  26.659   6.630  0.2750 -0.1151 -0.2451
    1OPC    GL267769  17.322  26.649   6.371  0.2435 -0.1049  0.2184
    1OPC    C1B67770  17.505  26.767   5.982  0.1975 -0.0670 -0.1995
    1OPC    D2B67771  17.430  26.832   5.599 -0.0099  0.0697 -0.1384
    1OPC    C3B67772  17.330  27.185   5.367 -0.0625  0.2528 -0.0349
    1OPC    C4B67773  17.427  27.245   5.012  0.0858 -0.0587  0.3000
    1OPC    NC367774  27.511   0.037   8.826 -0.2220 -0.0955 -0.2213
    1OPC    PO467775  27.909  -0.012   8.701 -0.0141 -0.1229  0.0252
    1OPC    GL167776  28.031  -0.117   8.266  0.0051  0.3168  0.0794
    1OPC    GL267777  28.089   0.050   8.004 -0.0453  0.3906  0.0327
    1OPC    C1B67778  28.248   0.335   7.737  0.1095  0.0371  0.1689
    1OPC    D2B67779  27.949   0.394   7.467  0.1891  0.1903 -0.1212
    1OPC    C3B67780  27.842   0.299   7.124 -0.0281  0.0041  0.1326
    1OPC    C4B67781  27.997   0.125   6.673  0.0496 -0.0542  0.2619
    1OPC    NC367782  27.775   2.578   7.968 -0.1040 -0.2063  0.2433
    1OPC    PO467783  28.161   2.742   8.113  0.1611  0.1774 -0.1994
    1OPC    GL167784  28.211   2.633   7.632  0.2187  0.0863  0.1557
    1OPC    GL267785  28.287   2.710   7.536  0.1117  0.1663 -0.0350
    1OPC    C1B67786  28.353   2.674   7.041  0.4484 -0.2928 -0.0822
    1OPC    D2B67787  28.254   2.750   6.625 -0.0195  0.5027  0.1660
    1OPC    C3B67788  28.054   2.393   6.420  0.1648 -0.1701  0.1406
    1OPC    C4B67789  27.911   2.043   6.310  0.0323  0.0356 -0.3484
    1OPC    NC367790  17.646  20.363   6.882  0.0412 -0.3057 -0.1547
    1OPC    PO467791  17.514  20.056   6.742 -0.1131  0.4100  0.0165
    1OPC    GL167792  17.621  19.898   6.183 -0.5392  0.0241 -0.0624
    1OPC    GL267793  17.554  19.804   5.929  0.1128  0.4597  0.3633
    1OPC    C1B67794  17.207  19.678   5.588 -0.1372 -0.0405 -0.0888
    1OPC    D2B67795  16.926  19.496   5.235  0.1586  0.1467 -0.2335
    1OPC    C3B67796  16.526  19.399   5.390 -0.1262 -0.1547  0.1991
    1OPC    C4B67797  16.269  19.151   5.413  0.0928  0.0397 -0.1874
    1OPC    NC367798   5.610  14.905   6.630  0.2464  0.0320 -0.0948
    1OPC    PO467799   5.793  14.462   6.772  0.2985 -0.1192  0.2486
    1OPC    GL167800   5.552  14.495   6.354 -0.0512  0.0160  0.1011
    1OPC    GL267801   5.260  14.334   6.248  0.1433 -0.1305 -0.0893
    1OPC    C1B67802   5.132  14.305   5.837 -0.1920  0.1619 -0.0956
    1OPC    D2B67803   5.052  14.539   5.411  0.0399 -0.3755  0.0054
    1OPC    C3B67804   4.939  14.714   5.045 -0.0981  0.0783 -0.0729
    1OPC    C4B67805   4.897  14.881   4.662  0.1749  0.0772  0.1322
    1OPC    NC367806  25.464  26.380   8.199  0.0849  0.0001  0.0613
    1OPC    PO467807  24.969  26.297   8.128 -0.0249  0.1380 -0.1253
    1OPC    GL167808  25.026  26.257   7.774 -0.0072  0.1771 -0.1175
    1OPC    GL267809  25.122  26.270   7.402 -0.0610  0.0148  0.2090
    1OPC    C1B67810  25.276  26.505   7.022 -0.1236 -0.1716  0.0230
    1OPC    D2B67811  25.001  26.508   6.614  0.0595 -0.1760  0.1353
    1OPC    C3B67812  24.918  26.905   6.360 -0.2706 -0.3816 -0.1193
    1OPC    C4B67813  25.018  26.797   6.012  0.2388  0.2458  0.1047
    1OPC    NC367814  12.181   3.229   6.766 -0.0529  0.3707 -0.0879
    1OPC    PO467815  12.171   3.151   6.279 -0.2814 -0.1016  0.0717
    1OPC    GL167816  12.196   2.990   5.840  0.2299 -0.1771 -0.0487
    1OPC    GL267817  12.201   2.936   5.489 -0.1682  0.0896 -0.0864
    1OPC    C1B67818  12.524   2.922   5.136  0.0383  0.2777 -0.0374
    1OPC    D2B67819  12.747   2.784   4.832  0.2191 -0.2466  0.4384
    1OPC    C3B67820  12.704   2.948   4.361  0.0310 -0.0423 -0.1088
    1OPC    C4B67821  12.789   3.234   3.964 -0.4284 -0.0068  0.1884
    1OPC    NC367822  26.656  28.701   8.189 -0.0318  0.1175  0.3318
    1OPC    PO467823  27.035  28.352   8.403  0.0603 -0.1605 -0.2896
    1OPC    GL167824  27.189  28.403   7.985 -0.1853  0.0893 -0.2626
    1OPC    GL267825  27.271  28.498   7.705 -0.1280  0.0840  0.0185
    1OPC    C1B67826  27.586  28.225   7.477 -0.0618 -0.1999  0.0714
    1OPC    D2B67827  27.736  27.896   7.155 -0.1981  0.0705 -0.1563
    1OPC    C3B67828  27.810  27.878   6.788  0.0290  0.1911 -0.2028
    1OPC    C4B67829  27.872  27.563   6.512  0.1750  0.1615  0.2465
    1OPC    NC367830   3.515  28.800   7.719 -0.0858  0.0311 -0.1977
    1OPC    PO467831   3.543  29.194   7.632  0.4285  0.3675 -0.1021
    1OPC    GL167832   3.814  29.330   7.380  0.2314 -0.3128 -0.2055
    1OPC    GL267833   3.949  29.179   7.107 -0.6922 -0.0489  0.0713
    1OPC    C1B67834   3.954  29.089   6.657  0.2607 -0.0596 -0.2890
    1OPC    D2B67835   3.963  28.958   6.259  0.4027 -0.3444  0.0499
    1OPC    C3B67836   4.176  28.544   6.166 -0.2993 -0.0706  0.1439
    1OPC    C4B67837   4.406  28.463   5.789 -0.1606  0.2845  0.2862
    1OPC    NC367838  16.256  24.298   7.360 -0.0555  0.0490  0.3261
    1OPC    PO467839  16.459  24.496   7.069 -0.0959  0.0478 -0.1725
    1OPC    GL167840  16.366  24.707   6.697  0.0719  0.1221 -0.1802
    1OPC    GL267841  16.472  24.657   6.455  0.0572 -0.6467  0.0889
    1OPC    C1B67842  16.511  24.577   6.074  0.0111 -0.1785  0.1988
    1OPC    D2B67843  16.631  24.585   5.716 -0.0386 -0.1886  0.1067
    1OPC    C3B67844  16.427  24.540   5.350 -0.0002  0.1570 -0.0838
    1OPC    C4B67845  16.274  24.662   4.992 -0.0436  0.1607 -0.0573
    1OPC    NC367846   3.310  24.089   7.765 -0.3991 -0.2638 -0.2415
    1OPC    PO467847   3.583  23.770   7.503  0.1392 -0.0412 -0.1178
    1OPC    GL167848   3.242  23.682   7.153 -0.0818  0.1934  0.2777
    1OPC    GL267849   3.132  23.498   6.883  0.2071  0.1470  0.1259
    1OPC    C1B67850   2.998  23.413   6.435 -0.0280 -0.0146 -0.1015
    1OPC    D2B67851   2.910  23.569   6.079  0.1009 -0.1953 -0.1163
    1OPC    C3B67852   2.578  23.516   5.863 -0.1605 -0.2062 -0.2696
    1OPC    C4B67853   2.274  23.518   5.467 -0.0844 -0.1675 -0.0002
    1OPC    NC367854  12.079  28.746   7.445  0.1019 -0.3869  0.1005
    1OPC    PO467855  11.935  28.567   7.113  0.1244  0.1022  0.2622
    1OPC    GL167856  11.816  28.254   6.926 -0.0416 -0.5117 -0.0243
    1OPC    GL267857  11.715  28.021   6.844  0.0097 -0.1272  0.0512
    1OPC    C1B67858  11.475  27.783   6.495 -0.1219 -0.1027  0.3041
    1OPC    D2B67859  11.570  27.691   6.106 -0.0639  0.4310  0.2534
    1OPC    C3B67860  11.500  27.830   5.572 -0.6136  0.1887 -0.0872
    1OPC    C4B67861  11.569  27.888   5.134 -0.1457  0.2400  0.0541
    1OPC    NC367862  26.380   7.569   8.294  0.3888  0.0176 -0.1229
    1OPC    PO467863  25.951   7.606   8.215  0.0205 -0.0338 -0.3850
    1OPC    GL167864  26.108   7.373   7.825  0.2203 -0.2109  0.0707
    1OPC    GL267865  26.309   7.269   7.591 -0.2480  0.2939 -0.0800
    1OPC    C1B67866  26.430   6.935   7.389 -0.2066  0.0079 -0.2341
    1OPC    D2B67867  26.559   6.529   7.280 -0.2659 -0.0534  0.3091
    1OPC    C3B67868  26.582   6.327   6.981  0.1124  0.2941  0.0817
    1OPC    C4B67869  26.807   6.242   6.622  0.1447 -0.1235 -0.1852
    1OPC    NC367870  26.784  27.120   7.778 -0.2556 -0.1235 -0.1495
    1OPC    PO467871  27.211  27.009   8.051 -0.0374  0.0907 -0.1785
    1OPC    GL167872  27.368  27.053   7.714  0.0422 -0.2257  0.0493
    1OPC    GL267873  27.700  26.988   7.540  0.2381  0.1915  0.1998
    1OPC    C1B67874  27.881  26.917   7.141  0.0656 -0.1507 -0.0477
    1OPC    D2B67875  27.900  27.022   6.740 -0.0872  0.1321  0.1623
    1OPC    C3B67876  28.254  27.202   6.587 -0.3326 -0.1867 -0.3968
    1OPC    C4B67877  28.687  27.129   6.688 -0.1962  0.0362  0.0609
    1OPC    NC367878   3.319   7.314   7.592  0.2491  0.1092  0.0157
    1OPC    PO467879   3.471   7.718   7.347  0.0179  0.2682 -0.1178
    1OPC    GL167880   3.256   7.401   7.002  0.0696 -0.2124  0.1269
    1OPC    GL267881   3.126   7.328   6.776  0.0316  0.1143 -0.0206
    1OPC    C1B67882   3.173   7.310   6.381 -0.0018  0.3122  0.0992
    1OPC    D2B67883   3.219   7.665   6.124 -0.2760  0.1003 -0.0188
    1OPC    C3B67884   2.987   7.776   5.807 -0.0885 -0.1104 -0.0774
    1OPC    C4B67885   2.558   7.826   5.610  0.2419  0.1101 -0.2127
    1OPC    NC367886   5.167   5.293   7.882  0.0096  0.1857  0.0350
    1OPC    PO467887   4.942   5.058   7.624 -0.1542 -0.1748 -0.0773
    1OPC    GL167888   4.700   5.206   7.318 -0.2159  0.0346  0.1957
    1OPC    GL267889   4.748   5.317   6.930  0.1155 -0.1776  0.3432
    1OPC    C1B67890   4.680   5.516   6.642  0.2354  0.1768 -0.1516
    1OPC    D2B67891   4.570   5.646   6.241  0.1686 -0.2436 -0.2052
    1OPC    C3B67892   4.332   5.414   5.807  0.0805  0.0719  0.1924
    1OPC    C4B67893   4.524   5.219   5.441 -0.4116 -0.2969 -0.1531
    1OPC    NC367894  10.505   3.764   6.648 -0.2471  0.1380  0.0855
    1OPC    PO467895  10.276   3.370   6.693  0.0808 -0.1054 -0.1497
    1OPC    GL167896  10.096   3.623   6.350 -0.0856 -0.2095 -0.0010
    1OPC    GL267897   9.930   3.520   6.090 -0.2868 -0.0440  0.2768
    1OPC    C1B67898   9.626   3.309   5.845 -0.1134 -0.0562 -0.1214
    1OPC    D2B67899   9.389   3.063   5.565 -0.2792  0.0242  0.1356
    1OPC    C3B67900   9.097   3.182   5.227  0.2224  0.1505  0.0765
    1OPC    C4B67901   9.112   3.240   4.807  0.1491  0.0413 -0.0389
    1OPC    NC367902  16.024   1.660   6.382 -0.0375  0.1654 -0.2218
    1OPC    PO467903  15.736   1.964   6.447  0.0667  0.0085  0.2416
    1OPC    GL167904  15.360   1.966   6.298  0.0208  0.2797  0.5114
    1OPC    GL267905  15.100   1.952   6.095  0.1603 -0.1341 -0.1005
    1OPC    C1B67906  14.783   2.139   5.818  0.2553  0.0171 -0.1116
    1OPC    D2B67907  14.706   2.198   5.444 -0.0337  0.1287 -0.1184
    1OPC    C3B67908  14.552   1.971   5.070 -0.2275 -0.1153 -0.0458
    1OPC    C4B67909  14.518   1.822   4.648 -0.1021  0.1542 -0.0133
    1OPC    NC367910  20.253  26.261   6.987 -0.0567 -0.0028  0.2435
    1OPC    PO467911  20.036  26.455   7.289 -0.0314  0.0089  0.1721
    1OPC    GL167912  19.707  26.363   6.934 -0.2176 -0.0786 -0.0002
    1OPC    GL267913  19.578  26.521   6.680 -0.1522  0.0330 -0.3478
    1OPC    C1B67914  19.696  26.760   6.263 -0.1799 -0.0049  0.1736
    1OPC    D2B67915  19.605  26.903   5.884 -0.3323 -0.0022  0.2104
    1OPC    C3B67916  19.537  27.213   5.654 -0.2708  0.0153  0.0089
    1OPC    C4B67917  19.186  27.393   5.438  0.1995 -0.1160 -0.2329
    1OPC    NC367918  17.529  18.177   6.584 -0.1672 -0.0230 -0.0834
    1OPC    PO467919  17.929  18.006   6.255  0.2681  0.1130  0.1429
    1OPC    GL167920  17.965  18.081   5.776  0.3228  0.0622 -0.0076
    1OPC    GL267921  17.801  18.136   5.500  0.0690  0.2257 -0.1005
    1OPC    C1B67922  17.562  18.232   5.216 -0.1067 -0.0148 -0.0188
    1OPC    D2B67923  17.268  18.096   5.067  0.2552 -0.3125 -0.3054
    1OPC    C3B67924  17.297  18.283   4.690 -0.1226  0.3303 -0.3108
    1OPC    C4B67925  17.235  18.684   4.760  0.0364  0.0071  0.0115
    1OPC    NC367926  14.169  28.059   7.397 -0.1155 -0.1515 -0.1706
    1OPC    PO467927  14.089  27.865   6.922 -0.1423 -0.0038  0.0906
    1OPC    GL167928  14.052  28.049   6.510 -0.0422  0.0362  0.0438
    1OPC    GL267929  14.311  27.967   6.109 -0.1171 -0.0339  0.0726
    1OPC    C1B67930  14.360  27.905   5.626 -0.4446 -0.0425 -0.1014
    1OPC    D2B67931  14.617  28.158   5.351  0.0729  0.2013 -0.1426
    1OPC    C3B67932  14.794  28.021   4.936  0.1577 -0.0127 -0.0589
    1OPC    C4B67933  14.827  28.217   4.536 -0.1065 -0.0915 -0.1790
    1OPC    NC367934   4.931  25.140   8.133 -0.0184 -0.0083  0.2256
    1OPC    PO467935   4.747  25.482   8.037 -0.1519 -0.2888  0.0126
    1OPC    GL167936   4.555  25.565   7.614 -0.2414 -0.1361  0.0280
    1OPC    GL267937   4.631  25.656   7.298  0.2206 -0.1582 -0.1059
    1OPC    C1B67938   4.769  25.788   6.842 -0.0174 -0.0742  0.3834
    1OPC    D2B67939   4.795  26.104   6.481  0.1100 -0.1485 -0.0796
    1OPC    C3B67940   4.495  26.076   6.145 -0.0667 -0.1718  0.0620
    1OPC    C4B67941   4.212  25.797   5.916  0.1173  0.0608  0.0486
    1OPC    NC367942  12.658   4.384   6.221  0.1955  0.2714 -0.3759
    1OPC    PO467943  12.977   4.693   6.114 -0.0089 -0.3406 -0.0192
    1OPC    GL167944  13.037   4.347   5.790 -0.0041  0.1303 -0.0039
    1OPC    GL267945  13.018   4.273   5.483 -0.2349  0.0584  0.0438
    1OPC    C1B67946  13.270   3.931   5.327 -0.3475 -0.0094  0.2102
    1OPC    D2B67947  13.336   3.678   5.016 -0.2452  0.2826  0.4125
    1OPC    C3B67948  13.038   3.584   4.746  0.0300 -0.0344  0.2728
    1OPC    C4B67949  13.052   3.383   4.380 -0.2247 -0.0610 -0.1232
    1OPC    NC367950   9.688   4.183   7.783  0.1604 -0.0202 -0.0966
    1OPC    PO467951   9.727   3.813   7.428  0.1044 -0.0958 -0.1468
    1OPC    GL167952   9.566   3.973   7.040  0.3117  0.2441  0.0461
    1OPC    GL267953   9.504   4.149   6.773  0.0148  0.2463 -0.0682
    1OPC    C1B67954   9.228   4.234   6.461 -0.0466  0.0480 -0.1966
    1OPC    D2B67955   9.230   4.346   6.031 -0.0795 -0.0649  0.2272
    1OPC    C3B67956   9.270   4.346   5.526 -0.3250  0.4730  0.0775
    1OPC    C4B67957   9.582   4.253   5.169  0.1847 -0.0658  0.1843
    1OPC    NC367958  28.417   4.550   8.363  0.0639 -0.2479  0.1252
    1OPC    PO467959  28.792   4.684   8.210  0.0973 -0.1219 -0.3198
    1OPC    GL167960  28.882   4.478   7.920 -0.0139 -0.2086 -0.2612
    1OPC    GL267961  29.038   4.437   7.623 -0.0542 -0.0456 -0.0214
    1OPC    C1B67962  28.937   4.263   7.180  0.2218 -0.1771  0.0636
    1OPC    D2B67963  28.878   4.327   6.727  0.0811 -0.0436  0.1868
    1OPC    C3B67964  29.184   4.489   6.462  0.1425  0.1098 -0.1198
    1OPC    C4B67965  29.537   4.679   6.135  0.1170  0.0665  0.0323
    1OPC    NC367966  19.144  21.071   6.372  0.0862 -0.2140  0.0840
    1OPC    PO467967  18.699  20.907   6.236 -0.3236  0.1000  0.2323
    1OPC    GL167968  18.787  21.243   5.901  0.0768 -0.1387 -0.1029
    1OPC    GL267969  18.943  21.474   5.721  0.3853 -0.1078 -0.0410
    1OPC    C1B67970  19.254  21.512   5.450 -0.3628  0.2578 -0.1664
    1OPC    D2B67971  19.629  21.556   5.583  0.0279 -0.0358 -0.0431
    1OPC    C3B67972  19.929  21.510   5.282 -0.0083 -0.0792 -0.0265
    1OPC    C4B67973  20.163  21.665   4.931 -0.0077 -0.0932 -0.2354
    1OPC    NC367974  10.217  13.748   6.199  0.1810  0.0337 -0.2532
    1OPC    PO467975   9.936  13.698   5.894 -0.2541  0.1178 -0.2096
    1OPC    GL167976  10.252  13.767   5.563 -0.0038  0.0637  0.1213
    1OPC    GL267977  10.570  13.609   5.558 -0.0221  0.0842 -0.1076
    1OPC    C1B67978  10.656  13.478   5.229 -0.1013 -0.0028 -0.0745
    1OPC    D2B67979  10.614  13.352   4.812  0.0274 -0.1339  0.1682
    1OPC    C3B67980  10.884  13.275   4.511 -0.1863 -0.0181  0.2405
    1OPC    C4B67981  11.026  13.364   4.179  0.3243 -0.0403 -0.1646
    1OPC    NC367982  26.352  27.716   8.151  0.1636 -0.0584 -0.3262
    1OPC    PO467983  26.176  27.697   7.789  0.2276  0.0176  0.1459
    1OPC    GL167984  25.985  27.756   7.428 -0.0836  0.0703 -0.1224
    1OPC    GL267985  25.959  27.814   7.153  0.2490 -0.1527 -0.1051
    1OPC    C1B67986  26.106  28.041   6.812 -0.1590  0.2310 -0.2123
    1OPC    D2B67987  26.076  27.794   6.482 -0.2356  0.0649  0.0302
    1OPC    C3B67988  26.082  28.071   6.185 -0.1907  0.4012 -0.2279
    1OPC    C4B67989  26.128  28.078   5.717 -0.0255 -0.2414  0.2872
    1OPC    NC367990  21.093  11.054   6.688 -0.1902  0.1339 -0.0198
    1OPC    PO467991  20.734  11.264   6.503 -0.0240 -0.2659 -0.0130
    1OPC    GL167992  20.700  11.225   6.051 -0.3612  0.0424 -0.3855
    1OPC    GL267993  20.836  11.245   5.751 -0.0696 -0.1676 -0.0997
    1OPC    C1B67994  21.113  11.373   5.508  0.3324 -0.0042  0.1303
    1OPC    D2B67995  21.297  11.334   5.073 -0.0279  0.1898 -0.2688
    1OPC    C3B67996  21.411  11.337   4.613  0.2065  0.0418  0.1404
    1OPC    C4B67997  21.599  11.524   4.185  0.0792 -0.2313 -0.1208
    1OPC    NC367998  23.165  28.510   7.590  0.1534  0.2884 -0.0448
    1OPC    PO467999  23.003  28.405   7.244  0.1050  0.1082 -0.0958
    1OPC    GL168000  23.062  27.994   7.044 -0.2848 -0.1515 -0.0049
    1OPC    GL268001  23.351  27.792   7.114  0.1799  0.1275  0.1270
    1OPC    C1B68002  23.566  27.787   6.690 -0.0810 -0.2398 -0.3622
    1OPC    D2B68003  23.832  27.704   6.346 -0.1443  0.2508 -0.0118
    1OPC    C3B68004  24.022  28.056   6.054 -0.0366  0.0390  0.4994
    1OPC    C4B68005  24.223  28.148   5.622 -0.1615 -0.0186  0.0404
    1OPC    NC368006   0.546  22.519   7.860 -0.1930  0.0856 -0.0324
    1OPC    PO468007   0.394  22.483   7.435  0.1704 -0.2790  0.0462
    1OPC    GL168008   0.090  22.629   7.121  0.1660  0.0170 -0.0782
    1OPC    GL268009  -0.081  22.433   6.954  0.2067  0.0634 -0.1159
    1OPC    C1B68010  -0.393  22.512   6.631 -0.4644 -0.1486 -0.2459
    1OPC    D2B68011  -0.457  22.372   6.236 -0.0599  0.2645  0.0954
    1OPC    C3B68012  -0.574  22.008   6.043 -0.0908  0.2392  0.0111
    1OPC    C4B68013  -0.916  21.857   5.811  0.2232 -0.1010  0.0955
    1OPC    NC368014  13.628  10.220   6.790  0.1321 -0.0384  0.3505
    1OPC    PO468015  13.966  10.221   6.466 -0.0012  0.0834 -0.0847
    1OPC    GL168016  13.804  10.234   6.032  0.2090 -0.2378 -0.0882
    1OPC    GL268017  13.885  10.388   5.714 -0.1495  0.1569  0.0379
    1OPC    C1B68018  14.088  10.713   5.507 -0.0271 -0.0470  0.0230
    1OPC    D2B68019  14.355  10.936   5.193  0.2056 -0.3449 -0.2002
    1OPC    C3B68020  14.760  11.193   4.991  0.0495 -0.1121 -0.0565
    1OPC    C4B68021  15.114  11.003   4.691  0.0100  0.0176  0.2238
    1OPC    NC368022   7.470   4.975   7.790  0.3744  0.0745  0.0067
    1OPC    PO468023   7.323   4.548   7.657 -0.2036  0.2147  0.3777
    1OPC    GL168024   7.226   4.256   7.244  0.0158  0.1753 -0.2327
    1OPC    GL268025   7.249   4.170   6.947 -0.1543  0.1839  0.2572
    1OPC    C1B68026   7.241   4.303   6.516 -0.0744 -0.2536 -0.3089
    1OPC    D2B68027   6.937   4.247   6.229  0.1876  0.0200  0.0246
    1OPC    C3B68028   6.810   3.831   6.034  0.0507  0.0313  0.0693
    1OPC    C4B68029   6.516   3.481   5.910 -0.1094  0.1147  0.1038
    1OPC    NC368030   8.741   1.548   8.212  0.0988  0.0258  0.0785
    1OPC    PO468031   8.879   1.513   7.863  0.2018  0.0354 -0.3048
    1OPC    GL168032   8.685   1.467   7.443  0.1726 -0.3759 -0.0864
    1OPC    GL268033   8.714   1.346   7.148  0.1460  0.0352  0.0340
    1OPC    C1B68034   8.788   1.146   6.708 -0.1474 -0.0637  0.2671
    1OPC    D2B68035   8.670   1.171   6.339 -0.2615  0.2604 -0.1645
    1OPC    C3B68036   8.926   1.259   6.015 -0.0873  0.3728  0.1436
    1OPC    C4B68037   8.930   1.531   5.683 -0.0882  0.2939  0.1341
    1OPC    NC368038  26.438   5.656   8.372 -0.1327 -0.3717 -0.3206
    1OPC    PO468039  26.765   5.517   8.530  0.0968  0.2868 -0.1024
    1OPC    GL168040  26.918   5.638   8.246 -0.1006  0.1379  0.2020
    1OPC    GL268041  27.019   5.822   8.054  0.0059 -0.3098  0.0103
    1OPC    C1B68042  27.075   5.957   7.610 -0.3523  0.1816  0.0233
    1OPC    D2B68043  27.005   6.184   7.234 -0.1911 -0.1076  0.2437
    1OPC    C3B68044  27.078   6.618   7.058 -0.0493  0.3492 -0.0550
    1OPC    C4B68045  26.693   6.837   6.789 -0.2792 -0.2335 -0.1830
    1OPC    NC368046  18.680   0.833   7.975  0.1454 -0.1642  0.3853
    1OPC    PO468047  19.071   0.722   7.624  0.2715  0.1988  0.2531
    1OPC    GL168048  18.967   0.737   7.256 -0.0138  0.2511 -0.0911
    1OPC    GL268049  19.030   0.826   7.017  0.0587 -0.0705  0.0466
    1OPC    C1B68050  18.992   0.624   6.635  0.2634  0.0398 -0.0702
    1OPC    D2B68051  19.135   0.365   6.317 -0.2312 -0.1901  0.0547
    1OPC    C3B68052  19.074   0.504   5.847 -0.0779  0.2470 -0.0399
    1OPC    C4B68053  18.884   0.549   5.445  0.1396 -0.0976 -0.0682
    1OPC    NC368054  23.234  15.492   7.316 -0.1000  0.0100  0.0373
    1OPC    PO468055  23.537  15.433   7.007 -0.0250  0.0481 -0.3525
    1OPC    GL168056  23.908  15.334   6.752  0.0819 -0.2076  0.0528
    1OPC    GL268057  24.000  15.124   6.452  0.3740  0.0039 -0.1628
    1OPC    C1B68058  24.110  15.206   6.045  0.2405 -0.0493 -0.1601
    1OPC    D2B68059  24.386  15.391   5.660  0.2279  0.1951  0.0756
    1OPC    C3B68060  24.163  15.639   5.312  0.0783 -0.1823 -0.0023
    1OPC    C4B68061  24.101  15.953   5.015 -0.2277  0.1049  0.0950
    1OPC    NC368062   8.678  21.766   6.692 -0.0857  0.0764 -0.2310
    1OPC    PO468063   8.718  22.140   6.961 -0.1135 -0.1359  0.1288
    1OPC    GL168064   8.763  22.275   6.684 -0.0242 -0.2161 -0.2849
    1OPC    GL268065   8.999  22.342   6.477  0.0383  0.0863 -0.1724
    1OPC    C1B68066   9.353  22.331   6.165 -0.1935 -0.0164  0.1133
    1OPC    D2B68067   9.633  22.315   5.899  0.2564 -0.0672 -0.0650
    1OPC    C3B68068   9.424  22.214   5.494  0.0703  0.1229 -0.1757
    1OPC    C4B68069   9.410  22.107   5.166 -0.0013 -0.0703 -0.2130
    1OPC    NC368070  18.627  25.998   7.878  0.0937 -0.0371  0.1015
    1OPC    PO468071  18.527  26.084   7.452 -0.0836 -0.0806 -0.0427
    1OPC    GL168072  18.543  26.158   7.008 -0.1190  0.1394  0.0744
    1OPC    GL268073  18.523  26.193   6.623  0.0926 -0.1635 -0.1074
    1OPC    C1B68074  18.436  26.003   6.207  0.0707  0.0206 -0.0332
    1OPC    D2B68075  18.218  25.946   5.805 -0.0966 -0.0869  0.1208
    1OPC    C3B68076  18.384  26.309   5.446  0.1464  0.0387 -0.0659
    1OPC    C4B68077  18.317  26.761   5.258 -0.0457  0.0014  0.0002
    1OPC    NC368078   1.675  14.604   8.045  0.0138 -0.1659 -0.0014
    1OPC    PO468079   1.462  14.483   7.607  0.2533  0.1453 -0.0970
    1OPC    GL168080   1.370  14.711   7.283  0.0546 -0.1682  0.1539
    1OPC    GL268081   1.158  14.735   6.995  0.1117 -0.1610  0.0564
    1OPC    C1B68082   1.109  14.642   6.474 -0.0677 -0.1988 -0.1997
    1OPC    D2B68083   1.269  14.382   6.146  0.2191  0.0960 -0.1004
    1OPC    C3B68084   1.551  14.503   5.820  0.2312 -0.0576  0.2601
    1OPC    C4B68085   1.787  14.812   5.510  0.0554  0.0581  0.1509
    1OPC    NC368086  10.173   0.995   7.349  0.0451  0.4009 -0.3276
    1OPC    PO468087   9.979   0.663   7.092 -0.1776  0.2154  0.0364
    1OPC    GL168088   9.848   0.724   6.642 -0.3587 -0.0749 -0.1112
    1OPC    GL268089   9.727   0.877   6.446 -0.1194 -0.5400 -0.1717
    1OPC    C1B68090   9.684   1.282   6.217 -0.0880  0.5787  0.1635
    1OPC    D2B68091   9.774   1.414   5.798  0.2510 -0.2528  0.1126
    1OPC    C3B68092  10.069   1.178   5.589  0.0612 -0.1854 -0.2771
    1OPC    C4B68093  10.257   0.834   5.325 -0.1782  0.2735  0.1310
    1OPC    NC368094  18.893  25.187   7.493 -0.1044  0.2097  0.0607
    1OPC    PO468095  18.792  25.617   7.284  0.0233 -0.1427 -0.1683
    1OPC    GL168096  18.897  25.787   6.902 -0.0168 -0.2246 -0.0319
    1OPC    GL268097  18.938  25.950   6.596 -0.2011 -0.4359 -0.0934
    1OPC    C1B68098  18.802  25.575   6.286  0.0511 -0.1460 -0.2777
    1OPC    D2B68099  18.463  25.355   6.082  0.0630 -0.1903 -0.1026
    1OPC    C3B68100  18.476  25.387   5.678 -0.0746 -0.0714  0.0386
    1OPC    C4B68101  18.787  25.568   5.355  0.0654  0.2879  0.1827
    1OPC    NC368102  10.731   8.269   6.086 -0.0582  0.1916 -0.1356
    1OPC    PO468103  10.578   8.683   5.991  0.3708  0.1612  0.2714
    1OPC    GL168104  10.761   8.817   5.644 -0.1162 -0.2851  0.0969
    1OPC    GL268105  10.929   8.935   5.385 -0.0115  0.2376 -0.3792
    1OPC    C1B68106  11.196   8.893   5.025  0.1917 -0.2857 -0.1664
    1OPC    D2B68107  11.484   8.708   4.790  0.1944  0.2091  0.0060
    1OPC    C3B68108  11.763   8.975   4.706 -0.2752 -0.1077  0.0378
    1OPC    C4B68109  11.805   9.412   4.788 -0.2084  0.2221 -0.0289
    1OPC    NC368110  20.066  16.314   6.590 -0.1650  0.0653  0.3205
    1OPC    PO468111  19.730  15.983   6.580 -0.1074  0.3400 -0.0052
    1OPC    GL168112  19.426  16.085   6.209  0.1747 -0.0613  0.0859
    1OPC    GL268113  19.352  16.096   6.004 -0.1913 -0.1510  0.1054
    1OPC    C1B68114  19.589  15.881   5.743  0.1003 -0.0315 -0.0442
    1OPC    D2B68115  19.805  15.880   5.420  0.0004  0.0242  0.0185
    1OPC    C3B68116  19.623  15.961   5.064  0.0588 -0.2989 -0.2218
    1OPC    C4B68117  19.431  16.273   4.925 -0.0452  0.2078  0.0638
    1OPC    NC368118  22.634  23.190   7.500  0.3113 -0.2291  0.3545
    1OPC    PO468119  23.051  23.171   7.206 -0.1560  0.0861  0.2269
    1OPC    GL168120  23.232  23.237   6.903 -0.1804 -0.4418  0.0214
    1OPC    GL268121  23.313  23.217   6.649 -0.0088 -0.3175 -0.2040
    1OPC    C1B68122  23.615  23.091   6.329  0.1571 -0.3779 -0.0666
    1OPC    D2B68123  23.621  22.881   6.028 -0.0377  0.1016  0.0068
    1OPC    C3B68124  23.923  22.981   5.652  0.2837 -0.0967  0.0292
    1OPC    C4B68125  24.093  22.735   5.330  0.2223 -0.0153  0.1313
    1OPC    NC368126  22.815  14.384   7.251  0.1510  0.0328 -0.1824
    1OPC    PO468127  22.800  14.514   6.842  0.1081  0.1138  0.0407
    1OPC    GL168128  23.102  14.715   6.536  0.1542  0.1071  0.0960
    1OPC    GL268129  23.142  14.970   6.260  0.0494  0.1990  0.0857
    1OPC    C1B68130  23.079  15.253   6.032 -0.1144  0.1081  0.0668
    1OPC    D2B68131  22.904  15.281   5.638 -0.3231  0.4030  0.0210
    1OPC    C3B68132  23.180  15.553   5.407  0.2919  0.3655  0.1826
    1OPC    C4B68133  23.072  15.945   5.274 -0.1989  0.0842  0.2245
    1OPC    NC368134  11.502   3.315   6.817  0.0360 -0.1269  0.0998
    1OPC    PO468135  11.821   3.563   6.766  0.2073  0.0368 -0.1741
    1OPC    GL168136  11.671   3.291   6.346 -0.0204 -0.2583  0.0538
    1OPC    GL268137  11.719   3.140   6.057  0.1986  0.1270  0.1960
    1OPC    C1B68138  11.816   3.199   5.631  0.2485  0.1504  0.1994
    1OPC    D2B68139  11.577   3.126   5.272  0.0402 -0.2762 -0.1418
    1OPC    C3B68140  11.873   2.938   4.967  0.0097 -0.0751 -0.1272
    1OPC    C4B68141  12.216   2.956   4.660 -0.2682 -0.0233  0.0088
    1OPC    NC368142   9.944   3.060   7.049 -0.2226 -0.0345  0.0268
    1OPC    PO468143   9.762   3.244   7.345 -0.0036  0.6633 -0.3312
    1OPC    GL168144   9.796   3.558   6.941  0.0460 -0.1980 -0.1999
    1OPC    GL268145   9.691   3.629   6.659  0.3090 -0.1802 -0.1011
    1OPC    C1B68146   9.504   3.791   6.289  0.2399  0.2610  0.0350
    1OPC    D2B68147   9.110   3.810   6.223  0.0367 -0.0494  0.3527
    1OPC    C3B68148   9.026   3.881   5.784 -0.0267  0.4591 -0.1233
    1OPC    C4B68149   8.976   3.957   5.413 -0.0470 -0.0509  0.4025
    1OPC    NC368150  26.464   9.630   6.851  0.0346 -0.0705  0.0577
    1OPC    PO468151  26.758   9.400   7.130 -0.1331 -0.1781 -0.0303
    1OPC    GL168152  26.915   9.739   7.046 -0.1327  0.0275 -0.0552
    1OPC    GL268153  27.220   9.835   6.896  0.1441 -0.0273  0.0207
    1OPC    C1B68154  27.560   9.715   6.633  0.0157  0.0634  0.2304
    1OPC    D2B68155  27.763   9.264   6.434 -0.1837  0.1051 -0.0999
    1OPC    C3B68156  27.829   9.168   6.103 -0.0932  0.2333  0.2053
    1OPC    C4B68157  27.720   9.173   5.738 -0.2374 -0.3238 -0.0051
    1OPC    NC368158  12.675   8.103   5.744 -0.0189 -0.1515 -0.0302
    1OPC    PO468159  12.407   8.180   5.440  0.1239  0.1551 -0.5440
    1OPC    GL168160  12.365   8.605   5.458  0.0296  0.1976  0.0766
    1OPC    GL268161  12.076   8.864   5.452  0.1023  0.1991  0.3123
    1OPC    C1B68162  11.630   9.002   5.272 -0.1306  0.0651  0.2562
    1OPC    D2B68163  11.481   9.337   5.255  0.2840 -0.2592  0.2018
    1OPC    C3B68164  11.275   9.322   4.833 -0.3361  0.0780  0.1225
    1OPC    C4B68165  11.375   9.123   4.403  0.0189 -0.1159  0.1468
    1OPC    NC368166   1.921   2.343   8.717  0.2104  0.1679 -0.0770
    1OPC    PO468167   1.555   2.290   8.532  0.1513 -0.2550 -0.0515
    1OPC    GL168168   1.293   2.195   8.082 -0.1726 -0.1443 -0.1669
    1OPC    GL268169   1.277   2.204   7.810 -0.0303 -0.2405 -0.2140
    1OPC    C1B68170   1.261   2.246   7.295 -0.2563 -0.2730  0.1812
    1OPC    D2B68171   1.391   2.357   6.808  0.1912  0.1014  0.0635
    1OPC    C3B68172   1.589   2.135   6.583 -0.0710 -0.1080  0.1789
    1OPC    C4B68173   1.725   1.977   6.168 -0.2380  0.0453 -0.2373
    1OPC    NC368174  20.725   2.149   7.315 -0.1606 -0.1802  0.0689
    1OPC    PO468175  21.024   1.770   7.340  0.4636  0.0190 -0.1650
    1OPC    GL168176  20.978   1.760   6.905 -0.3741  0.2386  0.2762
    1OPC    GL268177  20.700   1.796   6.582 -0.3261 -0.0327  0.1346
    1OPC    C1B68178  20.631   1.564   6.260 -0.2100 -0.2949  0.3420
    1OPC    D2B68179  20.615   1.563   5.854  0.0887 -0.0271 -0.1043
    1OPC    C3B68180  20.881   1.731   5.535  0.1221 -0.2319  0.4087
    1OPC    C4B68181  20.790   1.761   5.093 -0.1748  0.1489 -0.1086
    1OPC    NC368182  15.638   3.256   7.104  0.1296  0.0322 -0.0312
    1OPC    PO468183  15.347   3.174   6.678 -0.2287  0.3173 -0.0688
    1OPC    GL168184  15.378   2.798   6.445 -0.2241  0.1647 -0.3987
    1OPC    GL268185  15.398   2.464   6.275  0.1264  0.2154 -0.0103
    1OPC    C1B68186  15.168   2.421   5.915  0.0697 -0.2219  0.2175
    1OPC    D2B68187  14.909   2.641   5.547  0.0885 -0.2663  0.2607
    1OPC    C3B68188  15.052   2.611   5.157  0.1809  0.2733 -0.0661
    1OPC    C4B68189  15.285   2.475   4.715 -0.2684 -0.0330 -0.1564
    1OPC    NC368190  16.642  25.529   6.953  0.1998 -0.3792  0.0835
    1OPC    PO468191  16.591  25.892   6.713  0.0390 -0.2501 -0.0914
    1OPC    GL168192  16.341  26.173   6.529  0.1491  0.0377  0.2018
    1OPC    GL268193  16.285  26.488   6.265 -0.0476  0.2994 -0.2463
    1OPC    C1B68194  16.461  26.440   5.959  0.0397 -0.0023  0.3608
    1OPC    D2B68195  16.662  26.455   5.605  0.2055 -0.1482 -0.0991
    1OPC    C3B68196  16.496  26.452   5.319  0.0882  0.0846  0.0087
    1OPC    C4B68197  16.400  26.334   4.904  0.2540  0.2784 -0.2806
    1OPC    NC368198  26.456   4.690   8.376 -0.1640 -0.1000 -0.2828
    1OPC    PO468199  26.712   4.643   7.987 -0.2899 -0.0601 -0.2061
    1OPC    GL168200  26.935   4.470   7.694 -0.2212 -0.1723  0.1493
    1OPC    GL268201  27.110   4.409   7.291  0.1753 -0.1104 -0.1821
    1OPC    C1B68202  27.348   4.347   6.985 -0.4882  0.1114 -0.1203
    1OPC    D2B68203  27.601   4.364   6.606  0.2163 -0.2835  0.1401
    1OPC    C3B68204  27.958   4.481   6.450  0.1234  0.1206 -0.2288
    1OPC    C4B68205  28.055   4.774   6.160  0.2588 -0.0855  0.1428
    1OPC    NC368206   0.859  10.237   7.314 -0.0785  0.5112  0.0195
    1OPC    PO468207   0.646  10.662   7.279 -0.0198  0.1674 -0.2902
    1OPC    GL168208   0.576  10.831   6.768 -0.2774 -0.1102  0.1087
    1OPC    GL268209   0.505  11.013   6.415  0.2251  0.2407  0.0975
    1OPC    C1B68210   0.385  11.272   5.992  0.1306 -0.0092 -0.1757
    1OPC    D2B68211   0.175  11.525   5.800 -0.5391 -0.0694 -0.1911
    1OPC    C3B68212  -0.282  11.521   5.888 -0.1348  0.0023 -0.0645
    1OPC    C4B68213  -0.473  11.867   6.145  0.1506 -0.0537  0.2498
    1OPC    NC368214  18.845  16.452   6.691 -0.0746  0.1805  0.1120
    1OPC    PO468215  18.881  16.880   6.469  0.0053 -0.2615 -0.0577
    1OPC    GL168216  19.140  17.106   6.306 -0.1772  0.1895 -0.2324
    1OPC    GL268217  19.167  17.292   5.960 -0.1134 -0.0164  0.2568
    1OPC    C1B68218  18.999  17.316   5.555 -0.1037 -0.0405  0.0017
    1OPC    D2B68219  19.036  17.250   5.092 -0.1886 -0.3262  0.0105
    1OPC    C3B68220  18.728  17.245   4.887 -0.1110 -0.0341 -0.2685
    1OPC    C4B68221  18.423  16.828   4.769 -0.1810 -0.0922  0.2652
    1OPC    NC368222  22.071   6.012   6.616  0.2359  0.0481 -0.0278
    1OPC    PO468223  22.523   6.177   6.856 -0.1091 -0.2135  0.2129
    1OPC    GL168224  22.491   6.245   6.462 -0.0055  0.0253 -0.1063
    1OPC    GL268225  22.446   6.318   6.180  0.0434  0.1177 -0.0963
    1OPC    C1B68226  22.378   6.315   5.781 -0.0459  0.1733 -0.1263
    1OPC    D2B68227  22.291   6.166   5.347  0.1616  0.1526 -0.0166
    1OPC    C3B68228  22.531   5.975   5.092 -0.1788 -0.0389 -0.3450
    1OPC    C4B68229  22.690   5.873   4.674 -0.1331 -0.1008 -0.0555
    1OPC    NC368230  28.697  27.489   8.046  0.0224 -0.2193 -0.1819
    1OPC    PO468231  28.623  27.007   8.022  0.1071  0.1607 -0.1111
    1OPC    GL168232  28.375  26.832   7.686  0.1840  0.0773  0.1090
    1OPC    GL268233  28.223  27.002   7.521  0.1244  0.1939  0.0388
    1OPC    C1B68234  28.103  27.279   7.450  0.2419 -0.0033  0.1029
    1OPC    D2B68235  28.071  27.460   7.036 -0.0116  0.0097 -0.0326
    1OPC    C3B68236  28.334  27.740   6.836 -0.3571  0.2296  0.2599
    1OPC    C4B68237  28.378  27.820   6.426  0.2302 -0.1913 -0.0045
    1OPC    NC368238  26.882  19.782   8.044 -0.0307  0.2280 -0.2735
    1OPC    PO468239  27.133  20.021   8.215 -0.1270  0.1083 -0.0186
    1OPC    GL168240  27.416  20.215   7.858 -0.0409  0.1290 -0.2786
    1OPC    GL268241  27.490  20.408   7.557 -0.2388  0.0358  0.1382
    1OPC    C1B68242  27.419  20.605   7.082  0.3632 -0.1713 -0.0092
    1OPC    D2B68243  27.353  20.725   6.631  0.0280 -0.0485  0.1622
    1OPC    C3B68244  27.247  20.348   6.399 -0.4221 -0.3943 -0.0821
    1OPC    C4B68245  27.319  20.035   6.100  0.1070  0.0852  0.1969
    1OPC    NC368246   7.049  22.984   7.653 -0.2663 -0.4486  0.0169
    1OPC    PO468247   7.099  23.414   7.728  0.3635 -0.1296  0.0412
    1OPC    GL168248   7.099  23.697   7.423  0.1246  0.0199  0.0916
    1OPC    GL268249   7.103  23.776   7.110  0.1556  0.1992  0.0109
    1OPC    C1B68250   7.180  23.867   6.641 -0.1169 -0.3716  0.0430
    1OPC    D2B68251   7.364  24.066   6.322  0.1288  0.1082  0.2995
    1OPC    C3B68252   7.441  23.794   5.966  0.0091  0.2849  0.0381
    1OPC    C4B68253   7.328  23.642   5.518  0.1256  0.4783  0.1273
    1OPC    NC368254  23.037  26.323   7.286  0.2098  0.3187  0.4279
    1OPC    PO468255  22.926  26.674   7.430  0.1616 -0.1150  0.0142
    1OPC    GL168256  22.981  26.769   7.064 -0.0072  0.0838  0.0208
    1OPC    GL268257  23.106  26.878   6.797 -0.1174  0.0962 -0.0102
    1OPC    C1B68258  23.364  26.844   6.407 -0.2148 -0.2029  0.1294
    1OPC    D2B68259  23.571  26.808   6.008 -0.1094 -0.1602 -0.5112
    1OPC    C3B68260  23.963  27.068   5.957  0.2822  0.2128  0.1350
    1OPC    C4B68261  23.989  27.404   5.934  0.3422 -0.0097 -0.1651
    1OPC    NC368262  18.774   1.258   7.088 -0.0577 -0.0919  0.1893
    1OPC    PO468263  18.399   1.309   6.752  0.0142 -0.2870 -0.1543
    1OPC    GL168264  18.282   1.674   6.460 -0.3606 -0.2596 -0.4834
    1OPC    GL268265  18.296   1.693   6.128  0.2811  0.4829 -0.0890
    1OPC    C1B68266  18.477   1.618   5.718  0.0713 -0.1277  0.3060
    1OPC    D2B68267  18.608   1.565   5.271 -0.3068 -0.3904 -0.0388
    1OPC    C3B68268  18.708   1.406   4.924 -0.1333  0.0044  0.0251
    1OPC    C4B68269  18.984   1.279   4.628 -0.1304  0.2235  0.0198
    1OPC    NC368270   9.397  10.612   6.820  0.0549  0.2118 -0.0052
    1OPC    PO468271   9.277  10.392   6.448 -0.0460 -0.0362  0.0008
    1OPC    GL168272   9.485  10.415   5.995 -0.1695  0.0828 -0.0185
    1OPC    GL268273   9.444  10.228   5.564 -0.0064  0.0070 -0.0882
    1OPC    C1B68274   9.567  10.306   5.057  0.0634  0.0028 -0.1266
    1OPC    D2B68275   9.631  10.051   4.692 -0.0002 -0.0744 -0.1326
    1OPC    C3B68276   9.908  10.345   4.434  0.1759  0.0584 -0.3288
    1OPC    C4B68277  10.300  10.232   4.236  0.1572 -0.3214  0.0822
    1OPC    NC368278   1.693   5.047   8.345  0.0046  0.2246 -0.1182
    1OPC    PO468279   1.390   4.817   8.069  0.2702  0.0900  0.1878
    1OPC    GL168280   1.494   4.855   7.632 -0.1185  0.2530 -0.1830
    1OPC    GL268281   1.464   4.812   7.359  0.1025  0.1664 -0.2256
    1OPC    C1B68282   1.293   4.742   6.899 -0.1427  0.0029 -0.2464
    1OPC    D2B68283   1.480   4.941   6.638  0.3925  0.0248  0.4533
    1OPC    C3B68284   1.891   4.877   6.365 -0.1101  0.0487  0.2586
    1OPC    C4B68285   2.175   5.132   6.041  0.0362  0.0943 -0.0117
    1OPC    NC368286  13.452  21.900   6.477 -0.2007 -0.1851  0.1732
    1OPC    PO468287  13.482  21.454   6.556 -0.1672  0.1554 -0.2851
    1OPC    GL168288  13.241  21.457   6.462 -0.1827 -0.0794  0.3405
    1OPC    GL268289  13.089  21.538   6.242 -0.0399 -0.1234  0.0040
    1OPC    C1B68290  12.958  21.697   5.861 -0.3537 -0.1151 -0.0133
    1OPC    D2B68291  12.864  21.639   5.452 -0.1911 -0.1445 -0.0830
    1OPC    C3B68292  12.450  21.560   5.232 -0.0884 -0.1370  0.0718
    1OPC    C4B68293  12.388  21.311   4.904 -0.1936  0.1177  0.0153
    1OPC    NC368294   7.848   1.125   8.259  0.1128  0.2201 -0.0614
    1OPC    PO468295   7.895   1.307   7.898 -0.0418  0.1647 -0.1456
    1OPC    GL168296   7.987   1.451   7.463  0.1429 -0.0763  0.2735
    1OPC    GL268297   8.194   1.544   7.267  0.0386 -0.0142 -0.0800
    1OPC    C1B68298   8.092   1.723   6.899  0.2394  0.0797 -0.3034
    1OPC    D2B68299   7.840   2.040   6.732  0.0850  0.0457  0.1819
    1OPC    C3B68300   7.940   2.248   6.412  0.0514  0.0780 -0.1412
    1OPC    C4B68301   7.812   2.608   6.092  0.1145 -0.0260 -0.0085
    1OPC    NC368302  17.057   6.365   5.477 -0.1943 -0.0944  0.0247
    1OPC    PO468303  16.560   6.204   5.603  0.1866 -0.1152  0.1406
    1OPC    GL168304  16.654   6.266   5.194 -0.0123 -0.0881 -0.1613
    1OPC    GL268305  16.568   6.222   4.912  0.2014  0.0746  0.0480
    1OPC    C1B68306  16.675   6.048   4.461  0.0951  0.0241 -0.0449
    1OPC    D2B68307  16.706   5.679   4.128 -0.1881  0.2333  0.1550
    1OPC    C3B68308  16.642   5.419   3.810 -0.0554 -0.1505  0.0470
    1OPC    C4B68309  16.822   5.155   3.469 -0.0759 -0.0059  0.0063
    1OPC    NC368310  10.273   6.897   7.104 -0.2302  0.2153 -0.2894
    1OPC    PO468311  10.051   6.656   6.815  0.1983  0.1228  0.1986
    1OPC    GL168312   9.785   6.766   6.543 -0.4342  0.2331 -0.1074
    1OPC    GL268313   9.828   6.810   6.147  0.0018  0.2676  0.2017
    1OPC    C1B68314  10.030   6.870   5.699  0.0850 -0.2819  0.1072
    1OPC    D2B68315  10.262   6.715   5.420 -0.0416  0.2925  0.0900
    1OPC    C3B68316  10.036   6.451   5.086  0.1582 -0.0829  0.1646
    1OPC    C4B68317   9.964   6.393   4.609 -0.1076 -0.1926  0.0925
    1OPC    NC368318  15.186  10.415   6.055 -0.1519 -0.1741  0.0404
    1OPC    PO468319  14.758  10.615   6.217  0.1002  0.0146  0.0054
    1OPC    GL168320  14.739  10.549   5.887  0.2427 -0.0703  0.0931
    1OPC    GL268321  14.673  10.751   5.600 -0.0268 -0.0249 -0.2152
    1OPC    C1B68322  14.679  10.538   5.165  0.0583  0.1455  0.2035
    1OPC    D2B68323  14.666  10.684   4.738  0.0287 -0.2801 -0.1824
    1OPC    C3B68324  14.410  11.016   4.712 -0.1465  0.1036 -0.3492
    1OPC    C4B68325  14.340  11.378   4.978 -0.1815 -0.2516 -0.0128
    1OPC    NC368326  19.305  21.755   6.955  0.1939 -0.1433 -0.2073
    1OPC    PO468327  19.312  21.507   6.580  0.1875  0.2659  0.2381
    1OPC    GL168328  19.454  21.887   6.533 -0.0257 -0.3982  0.2673
    1OPC    GL268329  19.386  22.080   6.240 -0.1202 -0.1401  0.0149
    1OPC    C1B68330  19.216  22.311   5.924  0.0836  0.3493  0.0248
    1OPC    D2B68331  19.176  22.398   5.463  0.2445  0.0517  0.0217
    1OPC    C3B68332  19.456  22.418   5.076  0.0727 -0.0647  0.3482
    1OPC    C4B68333  19.315  22.599   4.630 -0.2351  0.1110  0.1028
    1OPC    NC368334  24.489   6.458   7.507 -0.0532 -0.3140 -0.1239
    1OPC    PO468335  24.570   6.901   7.548 -0.0157 -0.1689 -0.0023
    1OPC    GL168336  24.864   6.704   7.278  0.0105 -0.0655 -0.2408
    1OPC    GL268337  24.993   6.681   7.056  0.4799  0.1233 -0.0251
    1OPC    C1B68338  25.298   6.559   6.663  0.0757 -0.1381  0.3209
    1OPC    D2B68339  25.650   6.543   6.443  0.2598  0.1641  0.1736
    1OPC    C3B68340  25.846   6.290   6.560  0.3151 -0.1935 -0.0411
    1OPC    C4B68341  25.897   5.831   6.754 -0.2233  0.2852 -0.0807
    1OPC    NC368342  13.291  26.979   7.191 -0.1918  0.0930  0.1966
    1OPC    PO468343  13.575  27.372   7.147  0.1138  0.0833 -0.0617
    1OPC    GL168344  13.670  27.039   6.800 -0.0826 -0.0557 -0.1023
    1OPC    GL268345  13.551  27.083   6.445  0.2270  0.1274  0.0373
    1OPC    C1B68346  13.421  27.013   6.013 -0.1495 -0.1170 -0.1120
    1OPC    D2B68347  13.344  26.887   5.651  0.3570 -0.1918 -0.1215
    1OPC    C3B68348  13.280  27.049   5.259  0.0472 -0.0269  0.0147
    1OPC    C4B68349  13.253  27.197   4.814  0.1359 -0.0146  0.0616
    1OPC    NC368350   9.497   7.098   6.932  0.2827 -0.2138  0.1968
    1OPC    PO468351   9.203   7.408   6.709 -0.2583 -0.2600  0.0733
    1OPC    GL168352   9.116   7.211   6.305 -0.2359 -0.1800  0.1488
    1OPC    GL268353   9.259   7.323   6.107  0.0487  0.1734 -0.2790
    1OPC    C1B68354   9.173   7.435   5.707  0.0321 -0.1235 -0.0339
    1OPC    D2B68355   9.249   7.414   5.250 -0.1990  0.1974 -0.1448
    1OPC    C3B68356   9.344   7.249   4.875 -0.5653 -0.0159  0.0359
    1OPC    C4B68357   9.452   7.184   4.492  0.0395  0.1325 -0.2093
    1OPC    NC368358   1.501  12.683   7.254 -0.3513 -0.3327 -0.2567
    1OPC    PO468359   1.878  12.810   7.105 -0.0666  0.1370  0.1811
    1OPC    GL168360   2.123  12.837   6.749  0.1472 -0.0424 -0.1357
    1OPC    GL268361   2.379  12.749   6.642  0.4456  0.0655  0.2941
    1OPC    C1B68362   2.220  12.537   6.325  0.1796  0.0046 -0.2530
    1OPC    D2B68363   2.127  12.277   6.040  0.1074  0.0303 -0.0960
    1OPC    C3B68364   2.089  12.289   5.620  0.1333  0.0624  0.1276
    1OPC    C4B68365   2.264  12.131   5.291 -0.2321  0.1788  0.4853
    1OPC    NC368366  23.971   1.410   7.219  0.2969  0.1603  0.1720
    1OPC    PO468367  23.684   1.650   7.093  0.2983  0.2074 -0.1066
    1OPC    GL168368  23.480   1.799   6.765  0.1982  0.2260 -0.1739
    1OPC    GL268369  23.500   1.852   6.503  0.1383  0.2063  0.2181
    1OPC    C1B68370  23.471   1.773   6.115 -0.0489  0.1931  0.1966
    1OPC    D2B68371  23.475   1.424   5.796  0.2058  0.0956 -0.2051
    1OPC    C3B68372  23.712   1.254   5.449  0.3284  0.2407  0.1351
    1OPC    C4B68373  23.693   1.082   5.056 -0.1920  0.1681 -0.0734
    1OPC    NC368374  15.747  19.128   6.731  0.1552  0.0597 -0.2155
    1OPC    PO468375  15.576  18.729   6.662 -0.1687 -0.1383 -0.2100
    1OPC    GL168376  15.517  18.353   6.548 -0.0656 -0.0479 -0.0741
    1OPC    GL268377  15.331  18.234   6.340 -0.0939  0.2746 -0.1524
    1OPC    C1B68378  15.275  18.194   5.860  0.3870 -0.1560 -0.2545
    1OPC    D2B68379  15.128  18.146   5.480  0.2262 -0.1129  0.2125
    1OPC    C3B68380  15.308  18.250   5.165  0.0558  0.1907 -0.0551
    1OPC    C4B68381  15.498  18.308   4.771  0.0040  0.0216  0.1036
    1OPC    NC368382  26.386  18.908   8.430 -0.4622  0.0748  0.1077
    1OPC    PO468383  26.437  18.855   7.897  0.0879  0.3848  0.0164
    1OPC    GL168384  26.793  19.009   7.724 -0.0883 -0.2109 -0.1464
    1OPC    GL268385  27.010  18.853   7.492 -0.0158 -0.0333  0.0361
    1OPC    C1B68386  27.392  19.109   7.245  0.0284 -0.0611 -0.0027
    1OPC    D2B68387  27.589  19.212   6.934 -0.0466 -0.0513  0.1012
    1OPC    C3B68388  27.505  19.232   6.439  0.3251 -0.0688 -0.0750
    1OPC    C4B68389  27.345  19.431   6.077  0.0740 -0.0462  0.0138
    1OPC    NC368390  10.914  13.041   6.497 -0.3191  0.0542 -0.1293
    1OPC    PO468391  10.961  13.106   5.993 -0.1292  0.0091 -0.1110
    1OPC    GL168392  10.818  13.069   5.545 -0.3781  0.1628 -0.0346
    1OPC    GL268393  10.814  12.950   5.272 -0.0942 -0.1631 -0.1421
    1OPC    C1B68394  10.815  12.850   4.852 -0.0982  0.2506 -0.1424
    1OPC    D2B68395  10.603  12.810   4.478 -0.6820 -0.0104  0.0505
    1OPC    C3B68396  10.222  12.588   4.509 -0.0046 -0.0211  0.0700
    1OPC    C4B68397   9.792  12.617   4.655  0.1287  0.1246  0.3257
    1OPC    NC368398   2.649   7.985   7.969  0.0094 -0.0031  0.2553
    1OPC    PO468399   2.640   8.014   7.517  0.2793  0.1514  0.2657
    1OPC    GL168400   2.435   7.634   7.225 -0.0282  0.4379  0.0758
    1OPC    GL268401   2.290   7.533   6.960 -0.2663 -0.1600  0.1054
    1OPC    C1B68402   2.227   7.234   6.729  0.0602  0.1422 -0.1449
    1OPC    D2B68403   1.975   7.232   6.365  0.1086  0.0122  0.0041
    1OPC    C3B68404   2.069   7.521   5.993  0.1332 -0.2767  0.3672
    1OPC    C4B68405   2.162   7.895   6.077 -0.1738 -0.0260  0.0056
    1OPC    NC368406   7.499  23.034   6.879 -0.0710 -0.0047  0.1740
    1OPC    PO468407   7.889  23.165   7.110 -0.0774 -0.1550 -0.1732
    1OPC    GL168408   7.937  23.475   6.810 -0.0523 -0.0116 -0.3075
    1OPC    GL268409   8.081  23.449   6.596  0.1997 -0.2594 -0.2306
    1OPC    C1B68410   8.370  23.784   6.374  0.0313  0.0287  0.2019
    1OPC    D2B68411   8.826  23.686   6.112 -0.1325 -0.0881  0.1091
    1OPC    C3B68412   9.069  24.041   5.930  0.0830 -0.1246  0.0850
    1OPC    C4B68413   8.955  24.227   5.584  0.1068 -0.3355 -0.0810
    1OPC    NC368414   2.612  20.788   8.031 -0.2664  0.0249  0.0730
    1OPC    PO468415   2.116  20.875   7.760 -0.1612  0.0133 -0.1193
    1OPC    GL168416   2.300  20.878   7.295 -0.1937  0.3561 -0.3934
    1OPC    GL268417   2.237  20.977   6.906  0.3635 -0.0269 -0.0341
    1OPC    C1B68418   2.167  20.831   6.459 -0.0657 -0.1605  0.1333
    1OPC    D2B68419   2.167  20.970   6.103  0.3688 -0.0898  0.0145
    1OPC    C3B68420   1.979  20.685   5.782  0.2275  0.1351  0.1238
    1OPC    C4B68421   1.994  20.481   5.453  0.1155 -0.0535 -0.0580
    1OPC    NC368422   2.482   1.414   7.901  0.0909  0.0022 -0.0592
    1OPC    PO468423   2.284   1.807   8.192  0.0129  0.1271 -0.0918
    1OPC    GL168424   2.031   1.699   7.779  0.1941  0.2187 -0.1712
    1OPC    GL268425   2.146   1.521   7.552  0.0011 -0.0336  0.1597
    1OPC    C1B68426   2.069   1.499   7.108 -0.0727  0.1725  0.3489
    1OPC    D2B68427   2.413   1.457   6.773  0.1981 -0.2220  0.2102
    1OPC    C3B68428   2.475   1.744   6.484  0.2095  0.0512 -0.0656
    1OPC    C4B68429   2.644   1.830   6.109 -0.2423 -0.0762 -0.3208
    1OPC    NC368430  24.678   8.019   7.623  0.2327 -0.0511  0.0887
    1OPC    PO468431  25.007   8.210   7.385  0.0215  0.4742 -0.0796
    1OPC    GL168432  25.099   8.045   6.927 -0.2039  0.1904 -0.2201
    1OPC    GL268433  24.961   8.236   6.656 -0.0413  0.2472 -0.0749
    1OPC    C1B68434  24.933   8.349   6.268  0.2205  0.1919  0.1446
    1OPC    D2B68435  25.078   8.265   5.898 -0.0295 -0.0602 -0.1126
    1OPC    C3B68436  25.339   8.074   5.979 -0.2199 -0.2375  0.1810
    1OPC    C4B68437  25.527   7.678   5.725 -0.0593 -0.0004 -0.0798
    1OPC    NC368438  16.096   8.678   5.834  0.2324  0.1422 -0.1328
    1OPC    PO468439  15.863   8.495   5.439 -0.2765  0.1584  0.0489
    1OPC    GL168440  15.670   8.669   5.178 -0.1410 -0.0525 -0.0565
    1OPC    GL268441  15.611   8.978   4.968  0.0131  0.0070  0.0171
    1OPC    C1B68442  15.415   9.191   4.603  0.0540  0.0631 -0.0060
    1OPC    D2B68443  15.310   9.288   4.201  0.0999 -0.0541  0.0280
    1OPC    C3B68444  15.615   9.298   3.780 -0.0389 -0.0648 -0.3344
    1OPC    C4B68445  15.906   9.355   3.454  0.1208 -0.1424  0.4076
    1OPC    NC368446  19.628  11.582   6.839  0.0885 -0.2973 -0.0244
    1OPC    PO468447  19.860  11.358   6.598  0.2079  0.1123 -0.0771
    1OPC    GL168448  19.828  11.393   6.149 -0.0441 -0.0902  0.3775
    1OPC    GL268449  19.731  11.668   5.974 -0.0948  0.2645  0.1351
    1OPC    C1B68450  19.396  11.573   5.787 -0.1049 -0.1008  0.1971
    1OPC    D2B68451  19.108  11.226   5.567  0.1041 -0.2373 -0.0497
    1OPC    C3B68452  18.887  11.438   5.195 -0.1357  0.1450 -0.0333
    1OPC    C4B68453  18.553  11.500   4.922  0.3114  0.0449 -0.4010
    1OPC    NC368454  10.984   3.100   7.310 -0.0180 -0.1597 -0.0230
    1OPC    PO468455  10.995   3.144   6.819 -0.0341  0.0811  0.0815
    1OPC    GL168456  11.160   3.476   6.482  0.2489 -0.2443 -0.1306
    1OPC    GL268457  11.436   3.710   6.296  0.1111 -0.2103 -0.0797
    1OPC    C1B68458  11.351   4.019   5.967  0.0186  0.2185 -0.0362
    1OPC    D2B68459  11.463   4.074   5.598 -0.2715  0.0086  0.1595
    1OPC    C3B68460  11.301   3.788   5.282  0.0200 -0.3406 -0.0740
    1OPC    C4B68461  11.064   3.476   5.097 -0.0173  0.1993  0.0077
    1OPC    NC368462  22.760   8.625   6.751  0.2150 -0.0670 -0.0654
    1OPC    PO468463  22.394   8.973   6.633 -0.0892 -0.2178  0.0667
    1OPC    GL168464  22.654   8.980   6.283  0.0560 -0.0147 -0.0319
    1OPC    GL268465  22.825   8.764   6.046 -0.0448 -0.0550  0.1709
    1OPC    C1B68466  23.027   8.693   5.720 -0.2911  0.1989 -0.1257
    1OPC    D2B68467  23.449   8.645   5.523 -0.2695  0.0121  0.4403
    1OPC    C3B68468  23.723   8.466   5.601  0.2310  0.2900 -0.0156
    1OPC    C4B68469  24.125   8.120   5.398  0.1922  0.2259  0.0279
    1OPC    NC368470  11.524  14.113   6.368 -0.0130  0.1797  0.0604
    1OPC    PO468471  11.420  14.633   6.194 -0.0567  0.3451  0.1314
    1OPC    GL168472  11.674  14.433   5.794  0.0942 -0.5371 -0.0650
    1OPC    GL268473  11.535  14.456   5.401  0.0601  0.1404  0.2424
    1OPC    C1B68474  11.547  14.497   5.013 -0.0564 -0.0962 -0.0210
    1OPC    D2B68475  11.814  14.319   4.720  0.1753  0.1488  0.2907
    1OPC    C3B68476  11.908  14.536   4.416 -0.0895 -0.1476 -0.4650
    1OPC    C4B68477  11.714  14.611   4.096  0.1590 -0.1404 -0.3351
    1OPC    NC368478   9.327   3.536   7.399 -0.0036  0.0889  0.1262
    1OPC    PO468479   8.916   3.826   7.231  0.0360  0.0669  0.0487
    1OPC    GL168480   8.479   3.688   7.062 -0.2936 -0.1573 -0.1710
    1OPC    GL268481   8.232   3.780   6.975 -0.3152  0.1516  0.0397
    1OPC    C1B68482   7.879   3.602   6.722 -0.0134 -0.3325 -0.0375
    1OPC    D2B68483   7.989   3.574   6.311  0.2345 -0.1349  0.0187
    1OPC    C3B68484   7.694   3.593   5.968 -0.2878  0.0605  0.0278
    1OPC    C4B68485   7.335   3.891   6.087 -0.0679 -0.1263  0.0030
    1OPC    NC368486  23.246  10.942   6.804 -0.0326 -0.2765  0.1069
    1OPC    PO468487  22.874  10.900   6.989 -0.0367  0.0822 -0.1926
    1OPC    GL168488  22.824  10.764   6.510 -0.1550  0.2645 -0.0433
    1OPC    GL268489  22.777  10.782   6.161  0.0694 -0.3308  0.2709
    1OPC    C1B68490  22.472  10.805   5.819 -0.1034 -0.0742 -0.1200
    1OPC    D2B68491  22.157  10.886   5.665 -0.1572 -0.0923  0.0574
    1OPC    C3B68492  22.035  11.061   5.308 -0.3460 -0.0879 -0.2101
    1OPC    C4B68493  21.771  11.193   5.022 -0.2568  0.0329 -0.0832
    1OPC    NC368494  27.069   2.041   8.380 -0.2048 -0.0883 -0.0216
    1OPC    PO468495  26.930   2.526   8.329  0.1444 -0.2144  0.1094
    1OPC    GL168496  27.044   2.773   7.996 -0.0386 -0.2032  0.2151
    1OPC    GL268497  27.119   3.079   7.748 -0.1031 -0.0771  0.0117
    1OPC    C1B68498  27.259   3.084   7.343 -0.2409  0.3039 -0.1637
    1OPC    D2B68499  27.276   2.743   7.128  0.0301  0.0742 -0.2219
    1OPC    C3B68500  27.521   2.660   6.697 -0.0219 -0.1990 -0.1498
    1OPC    C4B68501  27.766   2.785   6.420  0.2739 -0.1238  0.0702
    1OPC    NC368502  14.657   7.022   5.599 -0.0674 -0.1597  0.0501
    1OPC    PO468503  14.667   6.878   5.099 -0.3196 -0.2679 -0.0728
    1OPC    GL168504  14.937   6.998   4.728  0.0917  0.2112 -0.1632
    1OPC    GL268505  15.047   7.068   4.503 -0.6916  0.2419 -0.0776
    1OPC    C1B68506  15.155   7.260   4.113 -0.3551  0.0540  0.0071
    1OPC    D2B68507  15.015   7.570   3.884  0.3677  0.2406 -0.1241
    1OPC    C3B68508  14.918   7.539   3.393 -0.1670  0.1461  0.0852
    1OPC    C4B68509  15.195   7.629   2.988  0.2830  0.0293 -0.2163
    1OPC    NC368510  21.989  17.409   6.392  0.0212 -0.1736 -0.1221
    1OPC    PO468511  22.238  17.036   6.471  0.1124  0.2520  0.3137
    1OPC    GL168512  22.403  16.777   6.102  0.0021  0.0828  0.0553
    1OPC    GL268513  22.668  16.709   5.943 -0.2993  0.3474 -0.0601
    1OPC    C1B68514  22.900  16.779   5.544 -0.1456  0.0555 -0.3466
    1OPC    D2B68515  23.104  16.868   5.104  0.1819  0.0700  0.1150
    1OPC    C3B68516  23.233  16.665   4.716 -0.0638 -0.1635 -0.2775
    1OPC    C4B68517  23.227  16.335   4.389 -0.3050 -0.1795 -0.0029
    1OPC    NC368518  15.949  26.574   7.089  0.0639 -0.1291 -0.1492
    1OPC    PO468519  15.750  26.162   7.212  0.0529 -0.1069  0.3484
    1OPC    GL168520  15.846  26.163   6.771  0.2998  0.1022 -0.0292
    1OPC    GL268521  15.786  26.339   6.533  0.3507 -0.3924 -0.1394
    1OPC    C1B68522  15.810  26.362   5.993  0.0764 -0.0606 -0.0727
    1OPC    D2B68523  15.470  26.324   5.764 -0.0189  0.0643 -0.0014
    1OPC    C3B68524  15.491  26.486   5.363 -0.0044 -0.2612  0.1563
    1OPC    C4B68525  15.457  26.310   4.965  0.6353 -0.1570  0.2444
    1OPC    NC368526  16.795   7.802   6.397 -0.0054  0.1348 -0.1635
    1OPC    PO468527  16.958   8.275   6.163 -0.2351 -0.2615 -0.2592
    1OPC    GL168528  16.862   8.256   5.864  0.0496 -0.2170  0.1561
    1OPC    GL268529  16.968   8.364   5.485  0.0311  0.0281  0.2439
    1OPC    C1B68530  16.989   8.217   4.981  0.2206 -0.1540  0.1991
    1OPC    D2B68531  17.119   8.209   4.525  0.1276  0.1972  0.1649
    1OPC    C3B68532  16.851   8.038   4.218  0.1658 -0.1724 -0.0294
    1OPC    C4B68533  16.533   8.041   3.975  0.1073 -0.0748 -0.2071
    1OPC    NC368534  12.599  24.814   6.961  0.0426  0.0053  0.1399
    1OPC    PO468535  12.667  25.125   6.817 -0.1226  0.2488 -0.3680
    1OPC    GL168536  12.476  24.930   6.503  0.2839  0.3050 -0.1774
    1OPC    GL268537  12.304  24.820   6.248  0.0597 -0.1986 -0.2701
    1OPC    C1B68538  12.316  24.820   5.870  0.3509 -0.0201 -0.1821
    1OPC    D2B68539  11.956  24.902   5.619 -0.0502  0.0949  0.1175
    1OPC    C3B68540  11.928  25.287   5.396  0.3955  0.0624  0.1049
    1OPC    C4B68541  11.663  25.528   5.213  0.4288  0.1870 -0.0713
    1OPC    NC368542  12.116  23.441   7.387  0.1663  0.0838 -0.1639
    1OPC    PO468543  12.436  23.074   7.292 -0.0213  0.1469  0.0505
    1OPC    GL168544  12.645  23.165   6.932  0.1551 -0.3238 -0.0192
    1OPC    GL268545  12.636  23.262   6.582 -0.2394  0.2663 -0.1196
    1OPC    C1B68546  12.423  23.449   6.288  0.1079 -0.0247  0.1639
    1OPC    D2B68547  12.287  23.343   5.819  0.0888  0.1011  0.1964
    1OPC    C3B68548  11.944  23.394   5.525 -0.1753  0.0779  0.0351
    1OPC    C4B68549  11.619  23.448   5.169 -0.1742 -0.1410  0.0423
    1OPC    NC368550  21.411   1.505   7.190 -0.4434  0.0910 -0.0447
    1OPC    PO468551  21.069   1.300   6.872  0.2981 -0.1506  0.1714
    1OPC    GL168552  20.789   1.263   6.630  0.0944 -0.1567 -0.2295
    1OPC    GL268553  20.764   1.009   6.408 -0.0084  0.1879  0.0541
    1OPC    C1B68554  20.513   1.062   5.999  0.3407  0.1477 -0.0876
    1OPC    D2B68555  20.541   0.802   5.653  0.1131  0.1138  0.2273
    1OPC    C3B68556  20.790   0.778   5.254 -0.0067  0.0324 -0.2152
    1OPC    C4B68557  20.862   0.656   4.778 -0.1662  0.0620 -0.1001
    1OPC    NC368558  17.557  23.651   7.269  0.0448  0.1859 -0.2452
    1OPC    PO468559  17.720  23.895   6.970  0.3387 -0.1318  0.0214
    1OPC    GL168560  17.662  23.984   6.522 -0.2798 -0.2367 -0.1170
    1OPC    GL268561  17.648  24.217   6.322 -0.1512  0.0927 -0.1440
    1OPC    C1B68562  17.472  24.351   5.971  0.1378 -0.2174  0.1830
    1OPC    D2B68563  17.532  24.560   5.640 -0.0159 -0.0565  0.1906
    1OPC    C3B68564  17.489  24.461   5.294  0.1566  0.2422  0.3930
    1OPC    C4B68565  17.248  24.529   4.892  0.0760 -0.1819  0.2229
    1OPC    NC368566   1.267   6.162   7.904  0.0377 -0.1001  0.0408
    1OPC    PO468567   1.629   6.301   8.196  0.2420 -0.0219 -0.1559
    1OPC    GL168568   1.756   6.225   7.777  0.2606  0.0752 -0.3165
    1OPC    GL268569   1.600   6.025   7.445  0.1159 -0.1320 -0.1186
    1OPC    C1B68570   1.236   6.052   7.139  0.2877  0.2258 -0.0365
    1OPC    D2B68571   1.236   6.230   6.795 -0.0713  0.2583  0.1776
    1OPC    C3B68572   1.077   5.974   6.473 -0.0686  0.3003 -0.1033
    1OPC    C4B68573   0.779   5.720   6.346  0.0207 -0.0781  0.1629
    1OPC    NC368574  20.219   0.751   7.258 -0.0238  0.0949 -0.3456
    1OPC    PO468575  20.703   0.763   7.238 -0.1127 -0.1280 -0.1821
    1OPC    GL168576  20.558   0.625   6.874  0.1517 -0.0309  0.1375
    1OPC    GL268577  20.486   0.560   6.664 -0.1066  0.2164  0.1942
    1OPC    C1B68578  20.327   0.628   6.165 -0.0618  0.1154  0.3876
    1OPC    D2B68579  20.165   0.521   5.820  0.0757  0.4686 -0.0477
    1OPC    C3B68580  19.757   0.742   5.621  0.0883 -0.0996  0.0488
    1OPC    C4B68581  19.306   0.775   5.377  0.3304  0.0558 -0.2287
    1OPC    NC368582  15.210   2.374   7.182  0.1738  0.2187 -0.1075
    1OPC    PO468583  15.148   2.468   6.744  0.1362 -0.1421  0.0794
    1OPC    GL168584  14.919   2.224   6.467 -0.0617  0.1334  0.3415
    1OPC    GL268585  14.695   2.071   6.372  0.2275 -0.1375  0.0984
    1OPC    C1B68586  14.382   2.321   6.027  0.0223  0.0229 -0.0518
    1OPC    D2B68587  13.928   2.223   5.935 -0.2153 -0.0913 -0.0119
    1OPC    C3B68588  13.760   2.315   5.571 -0.1658  0.0907  0.2178
    1OPC    C4B68589  13.508   2.722   5.463  0.2069 -0.0255 -0.0837
    1OPC    NC368590  22.366  17.438   6.722 -0.0486  0.1750 -0.1360
    1OPC    PO468591  22.109  17.773   6.750 -0.1024  0.0635  0.0233
    1OPC    GL168592  22.180  18.059   6.403 -0.6002  0.0238 -0.0666
    1OPC    GL268593  22.253  17.880   6.054  0.0762 -0.1070 -0.1931
    1OPC    C1B68594  22.157  17.658   5.720  0.0614  0.1371  0.0848
    1OPC    D2B68595  22.173  17.575   5.230  0.0149 -0.2387  0.0396
    1OPC    C3B68596  21.887  17.655   4.921  0.0424 -0.2370  0.1790
    1OPC    C4B68597  21.598  18.019   4.911 -0.2314  0.0510 -0.1710
    1OPC    NC368598  17.867  17.422   6.434  0.0783 -0.0821  0.0935
    1OPC    PO468599  17.385  17.449   6.313  0.3369 -0.3007  0.1437
    1OPC    GL168600  17.506  17.445   5.876  0.1209 -0.1716 -0.0036
    1OPC    GL268601  17.713  17.586   5.807 -0.1601  0.0559  0.1979
    1OPC    C1B68602  18.119  17.638   5.555  0.1427 -0.1301  0.2176
    1OPC    D2B68603  18.615  17.568   5.323  0.2324  0.0239 -0.1099
    1OPC    C3B68604  18.823  17.742   4.919 -0.1166  0.1811  0.1159
    1OPC    C4B68605  18.861  18.041   4.666 -0.0263  0.1597 -0.3198
    1OPC    NC368606  22.413  27.763   7.495 -0.1061 -0.3411 -0.1075
    1OPC    PO468607  22.079  28.087   7.400 -0.0554 -0.0789  0.0903
    1OPC    GL168608  22.230  28.179   7.042 -0.2334 -0.0539  0.0434
    1OPC    GL268609  22.300  28.135   6.779 -0.0340  0.0452  0.0653
    1OPC    C1B68610  22.443  28.070   6.350 -0.1982  0.0626  0.1406
    1OPC    D2B68611  22.580  28.333   6.035  0.0351 -0.1595  0.2218
    1OPC    C3B68612  22.776  28.261   5.657 -0.1096 -0.2554  0.1323
    1OPC    C4B68613  22.846  28.453   5.266 -0.0224 -0.0829  0.5102
    1OPC    NC368614  11.842  13.370   6.219 -0.0702  0.2139  0.0045
    1OPC    PO468615  11.374  13.304   6.185  0.0319  0.1193 -0.0702
    1OPC    GL168616  11.503  13.434   5.794 -0.0237 -0.1926  0.0012
    1OPC    GL268617  11.636  13.419   5.433  0.5168  0.1330 -0.0776
    1OPC    C1B68618  11.741  13.351   5.047 -0.1272  0.2988 -0.0672
    1OPC    D2B68619  11.724  13.771   4.758 -0.1268  0.0204  0.1023
    1OPC    C3B68620  11.711  13.793   4.284  0.2088 -0.1516  0.0350
    1OPC    C4B68621  11.865  13.661   3.921  0.1992 -0.0365 -0.2808
    1OPC    NC368622   9.259  25.004   7.360 -0.0329  0.0314  0.0910
    1OPC    PO468623   9.071  25.433   7.305 -0.3747  0.0192  0.0589
    1OPC    GL168624   9.236  25.418   6.935 -0.1090  0.0151  0.0490
    1OPC    GL268625   9.303  25.674   6.702 -0.1720  0.0499 -0.1394
    1OPC    C1B68626   9.213  25.747   6.259 -0.1595  0.0312 -0.0063
    1OPC    D2B68627   9.242  25.719   5.868 -0.1478 -0.0169  0.0075
    1OPC    C3B68628   8.926  25.620   5.628  0.1012  0.1457 -0.1239
    1OPC    C4B68629   8.829  25.920   5.444  0.0805  0.1798 -0.1371
    1OPC    NC368630  25.978  18.743   8.021 -0.0913 -0.0253  0.0309
    1OPC    PO468631  26.028  18.912   7.597 -0.1586 -0.2113  0.2261
    1OPC    GL168632  26.291  18.977   7.230 -0.2174  0.1068  0.0242
    1OPC    GL268633  26.545  18.901   7.034 -0.3035  0.2237  0.1132
    1OPC    C1B68634  26.614  18.817   6.578  0.1638  0.0294  0.1494
    1OPC    D2B68635  26.718  18.818   6.126  0.0765 -0.0003  0.0979
    1OPC    C3B68636  27.085  18.906   5.926 -0.0471 -0.3473 -0.0388
    1OPC    C4B68637  27.278  19.186   5.562 -0.1165  0.0204 -0.2441
    1OPC    NC368638  14.952  26.392   7.067  0.5404 -0.1543  0.0051
    1OPC    PO468639  15.295  26.308   6.877 -0.2078 -0.2127 -0.3860
    1OPC    GL168640  15.384  26.063   6.592  0.1647 -0.0812  0.1654
    1OPC    GL268641  15.486  25.938   6.290  0.3436 -0.1363 -0.0036
    1OPC    C1B68642  15.552  25.839   5.889 -0.0708 -0.3257 -0.2200
    1OPC    D2B68643  15.616  25.957   5.551  0.0286  0.4566  0.0557
    1OPC    C3B68644  15.543  25.750   5.192 -0.1104 -0.1041  0.1715
    1OPC    C4B68645  15.510  25.793   4.758  0.2631  0.0316 -0.1562
    1OPC    NC368646  27.667  11.061   6.782  0.0124 -0.0470  0.2562
    1OPC    PO468647  28.053  11.406   6.906  0.2993  0.2560  0.4213
    1OPC    GL168648  28.067  11.284   6.539 -0.2093 -0.3069  0.0150
    1OPC    GL268649  27.915  11.234   6.200 -0.1236 -0.2085  0.1062
    1OPC    C1B68650  27.777  11.107   5.799 -0.2192 -0.0165  0.0941
    1OPC    D2B68651  27.426  10.945   5.558 -0.0446 -0.2074  0.0519
    1OPC    C3B68652  27.115  11.046   5.240  0.2048 -0.0454 -0.0232
    1OPC    C4B68653  27.376  11.334   5.100  0.1212  0.1350 -0.1049
    1OPC    NC368654   3.016  27.505   8.651 -0.0471  0.0652  0.2491
    1OPC    PO468655   2.727  27.727   8.337 -0.0476 -0.1385  0.1427
    1OPC    GL168656   3.014  27.687   7.991  0.1040 -0.1282  0.1501
    1OPC    GL268657   3.131  27.754   7.724 -0.2533 -0.2819 -0.0763
    1OPC    C1B68658   3.140  27.716   7.231 -0.1210 -0.0201  0.3589
    1OPC    D2B68659   3.226  27.644   6.840  0.2038  0.2742  0.1704
    1OPC    C3B68660   2.988  27.435   6.546 -0.0296 -0.0049 -0.0419
    1OPC    C4B68661   2.929  27.162   6.208 -0.0159  0.2015  0.1391
    1OPC    NC368662  18.196  14.883   6.320 -0.0647  0.1806 -0.2935
    1OPC    PO468663  17.916  14.559   6.431  0.1523 -0.1497 -0.0508
    1OPC    GL168664  17.757  14.554   5.940  0.2546  0.0009 -0.3042
    1OPC    GL268665  17.585  14.435   5.665  0.2182  0.0157 -0.0422
    1OPC    C1B68666  17.496  14.525   5.243 -0.1882 -0.2504 -0.0708
    1OPC    D2B68667  17.394  14.686   4.810 -0.1917 -0.0165 -0.3022
    1OPC    C3B68668  17.294  14.392   4.489  0.0521  0.0470  0.2042
    1OPC    C4B68669  17.187  14.159   4.150 -0.2616  0.0096 -0.2651
    1OPC    NC368670  24.928   4.840   8.084 -0.0506 -0.0596 -0.1176
    1OPC    PO468671  24.759   4.671   7.769  0.2885 -0.1444  0.0619
    1OPC    GL168672  24.894   4.796   7.374  0.0112 -0.1674 -0.1332
    1OPC    GL268673  24.981   5.091   7.115  0.0900  0.2019 -0.1342
    1OPC    C1B68674  24.874   5.298   6.612  0.1267  0.2396 -0.0518
    1OPC    D2B68675  24.912   5.071   6.175 -0.0618 -0.0311 -0.0467
    1OPC    C3B68676  24.865   4.775   5.907  0.2139  0.0838  0.2783
    1OPC    C4B68677  25.097   4.610   5.599 -0.0438  0.2667  0.1232
    1OPC    NC368678  24.663   7.765   7.071  0.0139 -0.1156  0.0070
    1OPC    PO468679  24.923   7.627   7.380 -0.2860  0.0900 -0.4188
    1OPC    GL168680  25.294   7.711   7.283  0.1917 -0.0445 -0.2262
    1OPC    GL268681  25.531   7.776   7.170 -0.0638  0.1612  0.1622
    1OPC    C1B68682  25.924   7.760   6.901 -0.2972 -0.0039  0.1219
    1OPC    D2B68683  26.238   7.450   6.923 -0.0740 -0.1130  0.3735
    1OPC    C3B68684  26.187   7.135   6.620  0.1231  0.0026  0.1471
    1OPC    C4B68685  25.974   6.955   6.263  0.0671 -0.2111 -0.1392
    1OPC    NC368686   7.016  24.106   7.817 -0.2644  0.0216  0.0984
    1OPC    PO468687   7.281  24.192   7.475  0.2207  0.2147  0.1318
    1OPC    GL168688   7.039  24.332   7.029 -0.0171 -0.1245  0.0808
    1OPC    GL268689   7.085  24.365   6.687  0.0716  0.0283 -0.1980
    1OPC    C1B68690   7.206  24.543   6.366  0.2648 -0.4218  0.0236
    1OPC    D2B68691   7.141  24.631   6.051 -0.2801  0.0840  0.0876
    1OPC    C3B68692   7.286  24.318   5.737  0.0112  0.0260 -0.1192
    1OPC    C4B68693   7.682  24.129   5.541 -0.0519 -0.1191  0.1712
    1OPC    NC368694  16.715  15.393   6.625  0.0068 -0.1600  0.1122
    1OPC    PO468695  16.959  15.763   6.477 -0.3091 -0.3288  0.1149
    1OPC    GL168696  17.183  15.384   6.329 -0.3946  0.1120  0.0306
    1OPC    GL268697  17.387  15.270   5.996 -0.0249  0.0216 -0.4031
    1OPC    C1B68698  17.565  15.389   5.594 -0.0887  0.0895 -0.1582
    1OPC    D2B68699  17.690  15.586   5.211 -0.1757 -0.0768 -0.0720
    1OPC    C3B68700  17.912  15.481   4.883  0.0368  0.0895  0.2064
    1OPC    C4B68701  17.889  15.410   4.405  0.2031 -0.0854 -0.2354
    1OPC    NC368702  23.404   5.510   7.369 -0.1131 -0.2265  0.1130
    1OPC    PO468703  23.466   5.153   7.152 -0.1131  0.2681 -0.0956
    1OPC    GL168704  23.735   5.492   6.910  0.1822 -0.2865  0.1775
    1OPC    GL268705  23.940   5.388   6.755  0.0832 -0.1089  0.3744
    1OPC    C1B68706  23.936   5.198   6.356 -0.0599  0.2372  0.4168
    1OPC    D2B68707  23.678   4.841   6.174 -0.1740 -0.1265  0.0662
    1OPC    C3B68708  23.264   4.742   6.295 -0.1679 -0.4326  0.2234
    1OPC    C4B68709  22.788   4.766   6.273  0.2903  0.0081 -0.2303
    1OPC    NC368710   3.567  23.316   7.193  0.3588  0.3801  0.3067
    1OPC    PO468711   3.057  23.249   7.342 -0.2317  0.2106  0.2703
    1OPC    GL168712   3.267  22.991   7.038  0.4810 -0.2140 -0.1167
    1OPC    GL268713   3.311  22.951   6.783 -0.0951 -0.3189 -0.2426
    1OPC    C1B68714   3.458  22.981   6.357  0.0730 -0.1005 -0.2512
    1OPC    D2B68715   3.411  23.278   6.083 -0.1277 -0.0243 -0.2233
    1OPC    C3B68716   3.273  23.187   5.681  0.1991  0.0332 -0.1924
    1OPC    C4B68717   3.264  23.140   5.327  0.2351 -0.0086 -0.0349
    1OPC    NC368718  28.586   1.997   8.286 -0.1399  0.2660 -0.0321
    1OPC    PO468719  28.804   2.177   7.973  0.0769 -0.2488  0.0987
    1OPC    GL168720  28.639   2.329   7.625  0.0065 -0.0245 -0.1359
    1OPC    GL268721  28.769   2.468   7.418 -0.1445  0.2636  0.0663
    1OPC    C1B68722  29.121   2.343   7.219  0.0161 -0.0837 -0.0678
    1OPC    D2B68723  29.369   2.028   6.913  0.2471 -0.2520 -0.1197
    1OPC    C3B68724  29.398   2.003   6.524 -0.0644  0.1615 -0.1295
    1OPC    C4B68725  29.498   2.045   6.093  0.1776 -0.2127 -0.0156
    1OPC    NC368726  16.473   8.583   6.603  0.2238  0.2145  0.0773
    1OPC    PO468727  16.508   8.490   6.140 -0.3254 -0.1817 -0.0721
    1OPC    GL168728  16.725   8.743   5.856  0.0157  0.1123  0.1447
    1OPC    GL268729  16.637   8.788   5.623 -0.0209  0.1739  0.1345
    1OPC    C1B68730  16.765   8.747   5.130 -0.0806 -0.2144 -0.2307
    1OPC    D2B68731  16.570   8.453   4.824  0.0507 -0.0488 -0.1946
    1OPC    C3B68732  16.675   8.523   4.358  0.2399 -0.3276 -0.0098
    1OPC    C4B68733  16.873   8.490   3.985 -0.1603  0.1872  0.0521
    1OPC    NC368734  10.007  28.412   8.170 -0.0004 -0.0668  0.3661
    1OPC    PO468735   9.802  28.234   7.774 -0.2613  0.2607  0.0737
    1OPC    GL168736   9.648  28.292   7.330  0.1431 -0.0337  0.2052
    1OPC    GL268737   9.446  28.387   7.068 -0.0406 -0.1747  0.0594
    1OPC    C1B68738   9.401  28.404   6.671 -0.0923 -0.0928  0.1970
    1OPC    D2B68739   9.197  28.320   6.259  0.0452  0.3265  0.0699
    1OPC    C3B68740   9.383  27.958   6.063  0.2410  0.1712 -0.0914
    1OPC    C4B68741   9.299  27.641   5.822 -0.0159  0.0131  0.0429
    1OPC    NC368742  15.392   4.941   6.003  0.2680 -0.1860  0.0577
    1OPC    PO468743  15.502   4.472   6.115 -0.0344 -0.2334 -0.4563
    1OPC    GL168744  15.717   4.581   5.759  0.0544 -0.0966 -0.0631
    1OPC    GL268745  15.966   4.455   5.520 -0.0881  0.0935  0.0205
    1OPC    C1B68746  15.997   4.443   5.107  0.0581 -0.2223 -0.1675
    1OPC    D2B68747  16.120   4.298   4.667 -0.0921 -0.6004  0.0443
    1OPC    C3B68748  16.388   4.215   4.471  0.1787 -0.1464 -0.1066
    1OPC    C4B68749  16.865   4.261   4.328 -0.0453 -0.0427 -0.1357
    1OPC    NC368750  20.619  21.513   7.010  0.2164  0.1618  0.0048
    1OPC    PO468751  20.771  21.568   6.644  0.0186 -0.2075 -0.0324
    1OPC    GL168752  20.853  21.805   6.167  0.0738 -0.3865  0.0996
    1OPC    GL268753  20.904  21.977   5.906  0.2540 -0.2749  0.0243
    1OPC    C1B68754  20.857  22.105   5.483  0.4946 -0.0861 -0.2236
    1OPC    D2B68755  20.866  22.162   4.964  0.2982 -0.1004  0.2225
    1OPC    C3B68756  21.183  22.369   4.790 -0.0777 -0.2530  0.1441
    1OPC    C4B68757  21.489  22.424   4.612  0.1882 -0.0143 -0.1552
    1OPC    NC368758   9.789   2.393   7.590  0.0583 -0.2215  0.1269
    1OPC    PO468759   9.698   2.705   7.274  0.3134  0.0475 -0.0723
    1OPC    GL168760   9.281   2.529   7.106 -0.0583  0.2074 -0.0644
    1OPC    GL268761   9.039   2.286   7.063  0.0315  0.2809 -0.1185
    1OPC    C1B68762   8.895   1.959   6.795 -0.0447  0.0818 -0.0749
    1OPC    D2B68763   9.057   1.574   6.741 -0.1718  0.3108 -0.0695
    1OPC    C3B68764   9.295   1.596   6.343 -0.1379 -0.0161 -0.2304
    1OPC    C4B68765   9.330   1.482   5.966 -0.1361  0.1135 -0.1575
    1OPC    NC368766   5.646   6.110   8.001 -0.0236 -0.1497 -0.2005
    1OPC    PO468767   5.773   6.197   7.545  0.2837 -0.0403  0.1660
    1OPC    GL168768   5.980   5.923   7.262 -0.0919 -0.0022 -0.1011
    1OPC    GL268769   6.097   5.870   6.987  0.0445 -0.3738  0.1015
    1OPC    C1B68770   5.912   5.909   6.678 -0.1803  0.1100  0.1849
    1OPC    D2B68771   5.749   6.031   6.228  0.0489 -0.0652 -0.0257
    1OPC    C3B68772   5.831   5.830   5.787 -0.1183  0.1509 -0.0277
    1OPC    C4B68773   6.051   5.516   5.438 -0.0239 -0.2474 -0.1939
    1OPC    NC368774   5.596   1.321   7.692  0.1902  0.2230 -0.2299
    1OPC    PO468775   5.846   1.326   8.202 -0.1483  0.0192  0.0519
    1OPC    GL168776   6.024   1.121   7.832  0.1739  0.2624 -0.0615
    1OPC    GL268777   6.102   1.031   7.483 -0.0134  0.0138  0.1315
    1OPC    C1B68778   5.915   0.795   7.122  0.0817  0.0367  0.3367
    1OPC    D2B68779   5.719   0.440   6.932 -0.1786  0.0645  0.0255
    1OPC    C3B68780   5.862   0.074   6.730  0.2566 -0.3531 -0.0276
    1OPC    C4B68781   5.759  -0.337   6.692  0.1130  0.1243 -0.0349
    1OPC    NC368782  19.124  24.186   7.337  0.2373 -0.3017 -0.1223
    1OPC    PO468783  18.829  24.407   7.176  0.0875 -0.1357 -0.2989
    1OPC    GL168784  19.105  24.340   6.812 -0.1018 -0.0695  0.0339
    1OPC    GL268785  19.091  24.125   6.482 -0.1217 -0.0356 -0.2165
    1OPC    C1B68786  18.888  24.186   6.138 -0.1864  0.1016 -0.0977
    1OPC    D2B68787  18.622  24.093   5.838  0.0471  0.0029  0.1181
    1OPC    C3B68788  18.349  23.879   5.902  0.1971 -0.0659 -0.0781
    1OPC    C4B68789  18.079  23.819   6.208  0.2209  0.0100 -0.0101
    1OPC    NC368790  22.946   0.052   7.073 -0.0403 -0.0798  0.3662
    1OPC    PO468791  23.073   0.416   7.280 -0.0627  0.0184 -0.1216
    1OPC    GL168792  22.937   0.548   6.901  0.1589 -0.1318  0.1613
    1OPC    GL268793  22.849   0.671   6.612  0.1891  0.0556 -0.0116
    1OPC    C1B68794  22.859   0.903   6.173  0.1519 -0.2132 -0.0950
    1OPC    D2B68795  23.072   1.236   5.965 -0.0928 -0.0567 -0.1364
    1OPC    C3B68796  23.056   1.223   5.577  0.0467 -0.1983 -0.1164
    1OPC    C4B68797  23.214   1.146   5.160 -0.3524  0.2685 -0.2485
    1OPC    NC368798   9.139   8.961   6.916 -0.2038  0.1507  0.2144
    1OPC    PO468799   9.385   8.659   6.539 -0.0304  0.0499  0.1237
    1OPC    GL168800   9.225   8.698   6.100 -0.0837  0.0396 -0.2182
    1OPC    GL268801   9.186   8.624   5.769  0.0465  0.3961 -0.0564
    1OPC    C1B68802   9.114   8.791   5.260  0.2467 -0.1268 -0.3997
    1OPC    D2B68803   9.032   8.706   4.868 -0.3698  0.3157 -0.0610
    1OPC    C3B68804   8.521   8.838   4.778  0.0382 -0.2825 -0.2003
    1OPC    C4B68805   8.466   8.979   4.484  0.2396 -0.0370  0.4247
    1OPC    NC368806  12.789  12.325   6.249 -0.3557  0.0233 -0.0708
    1OPC    PO468807  12.405  12.071   6.323 -0.1302  0.0370  0.2270
    1OPC    GL168808  12.383  12.306   5.882 -0.2094  0.0041  0.1898
    1OPC    GL268809  12.334  12.532   5.745  0.1073  0.1781  0.4160
    1OPC    C1B68810  12.143  12.624   5.325  0.4530  0.1411  0.2132
    1OPC    D2B68811  11.792  12.806   5.114 -0.0475 -0.0173 -0.4381
    1OPC    C3B68812  11.577  12.684   4.676 -0.0824 -0.1819  0.0961
    1OPC    C4B68813  11.667  12.892   4.219 -0.7408  0.2793 -0.4705
    1OPC    NC368814   6.184  14.194   7.139  0.1407  0.2793 -0.1027
    1OPC    PO468815   6.338  14.371   6.701  0.0508 -0.0975 -0.0185
    1OPC    GL168816   6.099  14.397   6.340  0.2989 -0.3023  0.1467
    1OPC    GL268817   6.022  14.509   6.032 -0.0656  0.1034 -0.0217
    1OPC    C1B68818   6.019  14.579   5.663  0.1276 -0.3272  0.1001
    1OPC    D2B68819   5.928  14.454   5.244 -0.0553 -0.0069 -0.0593
    1OPC    C3B68820   5.885  14.079   5.060  0.0480 -0.0131 -0.0395
    1OPC    C4B68821   6.002  14.150   4.640 -0.0833 -0.2673  0.2382
    1OPC    NC368822   8.288   5.112   7.703 -0.2700  0.1549  0.2657
    1OPC    PO468823   8.600   4.927   7.479  0.2326 -0.2136  0.1896
    1OPC    GL168824   8.425   4.734   7.142  0.1492  0.1402 -0.0825
    1OPC    GL268825   8.516   4.672   6.919  0.1586  0.0324  0.3044
    1OPC    C1B68826   8.570   4.360   6.606 -0.0234 -0.0049  0.3676
    1OPC    D2B68827   8.768   4.190   6.244 -0.0560 -0.2896 -0.0968
    1OPC    C3B68828   8.582   3.860   6.071  0.0586 -0.1061 -0.2109
    1OPC    C4B68829   8.465   3.407   5.996 -0.1220 -0.1309 -0.1029
    1OPC    NC368830   2.725   0.853   8.126  0.3301 -0.0864 -0.0176
    1OPC    PO468831   2.365   0.633   8.101  0.1692 -0.0979  0.2434
    1OPC    GL168832   2.345   0.934   7.718 -0.1204  0.1267 -0.0018
    1OPC    GL268833   2.381   1.064   7.441 -0.1179  0.1709 -0.2221
    1OPC    C1B68834   2.492   1.092   7.063 -0.0904  0.0255 -0.0218
    1OPC    D2B68835   2.668   0.905   6.753  0.2059  0.1911  0.3035
    1OPC    C3B68836   2.758   1.235   6.398 -0.1466 -0.0859  0.0130
    1OPC    C4B68837   2.984   1.474   6.250 -0.2973 -0.2934 -0.0410
    1OPC    NC368838  22.187  26.421   7.948 -0.0226  0.2482 -0.0250
    1OPC    PO468839  21.965  26.634   7.550  0.2145  0.2813  0.2523
    1OPC    GL168840  22.311  26.506   7.198  0.1303  0.0517  0.2591
    1OPC    GL268841  22.500  26.587   7.025  0.0287  0.0121  0.1442
    1OPC    C1B68842  22.764  26.541   6.686 -0.2009 -0.0567  0.1320
    1OPC    D2B68843  22.895  26.435   6.329  0.1231  0.1599  0.1558
    1OPC    C3B68844  23.088  26.576   5.930 -0.2099 -0.0755  0.0728
    1OPC    C4B68845  23.291  26.843   5.608  0.3589  0.2285 -0.3341
    1OPC    NC368846  12.344  19.220   6.918  0.2299  0.3310  0.1967
    1OPC    PO468847  11.896  19.393   7.158 -0.0904  0.0610  0.0186
    1OPC    GL168848  11.985  19.482   6.685 -0.0568 -0.0043 -0.2477
    1OPC    GL268849  12.035  19.441   6.386  0.1605  0.2936  0.0918
    1OPC    C1B68850  11.804  19.431   6.071 -0.0215 -0.1332 -0.2278
    1OPC    D2B68851  11.430  19.284   5.711  0.0255 -0.1505 -0.2150
    1OPC    C3B68852  11.586  19.133   5.334  0.2376 -0.4121  0.0183
    1OPC    C4B68853  11.375  19.069   4.940  0.0626 -0.1827  0.1287
    1OPC    NC368854   5.721  24.900   7.559  0.1366 -0.4699  0.0685
    1OPC    PO468855   5.458  24.571   7.377  0.2018 -0.0109  0.2027
    1OPC    GL168856   5.543  24.843   7.014 -0.0737  0.2979 -0.0344
    1OPC    GL268857   5.782  24.961   6.843  0.0203  0.1052 -0.0827
    1OPC    C1B68858   5.930  25.055   6.461  0.0152 -0.4989 -0.1037
    1OPC    D2B68859   6.001  24.770   6.153 -0.1649 -0.2741  0.2181
    1OPC    C3B68860   5.852  24.591   5.753  0.0009 -0.2799  0.1315
    1OPC    C4B68861   5.854  24.395   5.363  0.1909 -0.2278 -0.1950
    1OPC    NC368862  23.743  24.827   7.444  0.3425  0.3651  0.2117
    1OPC    PO468863  23.697  25.143   7.187  0.0438 -0.2774 -0.1041
    1OPC    GL168864  23.983  25.369   6.981 -0.0575 -0.1765  0.2101
    1OPC    GL268865  24.079  25.316   6.679  0.1301 -0.1242 -0.1203
    1OPC    C1B68866  24.351  25.202   6.369  0.1469  0.1926 -0.1597
    1OPC    D2B68867  24.688  25.316   6.220 -0.2680  0.0759 -0.0089
    1OPC    C3B68868  24.947  25.091   6.020  0.0261  0.2255  0.1743
    1OPC    C4B68869  25.170  24.762   5.930 -0.4432  0.2432 -0.1791
    1OPC    NC368870   6.839  20.087   7.449  0.2334 -0.2126 -0.0669
    1OPC    PO468871   6.508  20.038   7.034 -0.1399 -0.0319  0.1039
    1OPC    GL168872   6.227  20.114   6.688  0.3388 -0.3330  0.1761
    1OPC    GL268873   6.012  20.288   6.464  0.4770 -0.2833  0.1127
    1OPC    C1B68874   5.847  20.287   6.047 -0.1168  0.1366  0.2080
    1OPC    D2B68875   5.937  20.228   5.640  0.2626  0.1175 -0.1582
    1OPC    C3B68876   5.646  20.378   5.227 -0.1985 -0.5392 -0.2418
    1OPC    C4B68877   5.628  20.472   4.842  0.1181  0.0159  0.0853
    1OPC    NC368878  28.378  28.865   8.598  0.0868 -0.1589 -0.1710
    1OPC    PO468879  28.679  28.849   8.291 -0.0184  0.2807 -0.1623
    1OPC    GL168880  28.856  28.748   7.817  0.0529 -0.0050  0.2674
    1OPC    GL268881  28.901  28.835   7.533  0.1320 -0.0441  0.0637
    1OPC    C1B68882  28.981  28.996   7.129  0.1885 -0.0859 -0.1862
    1OPC    D2B68883  28.885  29.122   6.660  0.1782  0.0871 -0.1139
    1OPC    C3B68884  28.915  28.911   6.301 -0.2148 -0.2078  0.3591
    1OPC    C4B68885  28.953  28.499   5.974 -0.0590 -0.1077 -0.2633
    1OPC    NC368886   1.066  21.334   7.855  0.0306  0.2390  0.0088
    1OPC    PO468887   0.678  21.023   7.932  0.0730  0.1127  0.0411
    1OPC    GL168888   0.751  21.100   7.508  0.1546 -0.1547  0.0996
    1OPC    GL268889   0.541  21.157   7.233  0.1873 -0.3731  0.3381
    1OPC    C1B68890   0.378  21.181   6.855  0.0677  0.0427 -0.1769
    1OPC    D2B68891   0.538  21.146   6.426  0.1090  0.2151 -0.0951
    1OPC    C3B68892   0.356  21.259   6.073  0.0572 -0.2354 -0.3158
    1OPC    C4B68893   0.487  21.664   5.866  0.0425 -0.1607  0.0997
    1OPC    NC368894  21.950  13.124   7.146  0.0932 -0.0347 -0.1505
    1OPC    PO468895  22.172  12.807   6.978  0.1281  0.0068  0.0202
    1OPC    GL168896  22.317  12.797   6.582 -0.0429  0.1797  0.3525
    1OPC    GL268897  22.406  12.609   6.309  0.0930 -0.1516 -0.1854
    1OPC    C1B68898  22.380  12.618   5.942 -0.2294  0.2375  0.1167
    1OPC    D2B68899  22.551  12.550   5.571  0.1483  0.1087 -0.1686
    1OPC    C3B68900  22.456  12.843   5.146 -0.1988  0.2162  0.1132
    1OPC    C4B68901  22.618  12.854   4.656  0.0313  0.0523 -0.1852
    1OPC    NC368902  10.940   0.832   7.067  0.0439  0.1096 -0.0262
    1OPC    PO468903  11.235   0.500   6.895 -0.2212  0.0387 -0.1575
    1OPC    GL168904  11.632   0.281   6.567  0.1183 -0.1772 -0.1944
    1OPC    GL268905  11.878   0.439   6.406 -0.1624  0.1480  0.0444
    1OPC    C1B68906  11.924   0.440   5.919 -0.2507 -0.0397  0.1677
    1OPC    D2B68907  11.999   0.019   5.642 -0.0085 -0.2248  0.0919
    1OPC    C3B68908  12.103  -0.133   5.304 -0.1291 -0.3020 -0.1159
    1OPC    C4B68909  11.887  -0.371   4.979  0.2738 -0.0051 -0.0483
    1OPC    NC368910  22.844  20.098   7.065  0.4599  0.0382  0.1286
    1OPC    PO468911  23.170  20.451   6.971 -0.2935 -0.0406 -0.2516
    1OPC    GL168912  23.216  20.710   6.584  0.1706  0.1767  0.1979
    1OPC    GL268913  23.522  20.745   6.376 -0.0791  0.1494  0.3058
    1OPC    C1B68914  23.594  20.736   5.852  0.1258 -0.0375 -0.2554
    1OPC    D2B68915  23.813  20.768   5.464  0.4407 -0.2285 -0.1148
    1OPC    C3B68916  23.504  20.952   5.234 -0.0975  0.1418 -0.1303
    1OPC    C4B68917  23.266  21.079   5.038 -0.0054  0.1605 -0.0230
    1OPC    NC368918  27.920   1.650   8.380 -0.2049 -0.0302  0.0908
    1OPC    PO468919  28.171   1.769   8.127 -0.2261 -0.0640  0.0422
    1OPC    GL168920  28.431   1.841   7.719 -0.2703 -0.0807  0.0653
    1OPC    GL268921  28.807   1.836   7.614  0.2483  0.2907  0.0782
    1OPC    C1B68922  28.964   1.894   7.131 -0.1039 -0.2670  0.0335
    1OPC    D2B68923  29.093   1.609   6.758 -0.0591 -0.1343  0.0321
    1OPC    C3B68924  28.979   1.829   6.399  0.2581 -0.0839 -0.0479
    1OPC    C4B68925  28.959   1.735   6.020  0.0444  0.0105 -0.0814
    1OPC    NC368926   2.839   3.374   7.917 -0.1220 -0.0959  0.1169
    1OPC    PO468927   3.020   2.954   8.022 -0.0371 -0.1339 -0.0921
    1OPC    GL168928   3.144   3.079   7.616 -0.0757 -0.0903  0.0101
    1OPC    GL268929   3.010   3.030   7.329 -0.3620  0.1908 -0.1619
    1OPC    C1B68930   2.897   2.887   6.936  0.0836 -0.0596 -0.5097
    1OPC    D2B68931   2.517   2.579   6.713  0.4088 -0.2344  0.0150
    1OPC    C3B68932   2.201   2.814   6.420  0.0241 -0.1316  0.0022
    1OPC    C4B68933   2.144   3.030   6.083 -0.3240 -0.0994 -0.0475
    1OPC    NC368934  28.055  21.728   7.738 -0.0438  0.0308  0.0655
    1OPC    PO468935  28.274  21.435   7.627  0.3005 -0.1938  0.1443
    1OPC    GL168936  28.196  21.521   7.265  0.0710  0.0313 -0.0602
    1OPC    GL268937  28.130  21.553   6.867  0.1684  0.2830 -0.0801
    1OPC    C1B68938  27.971  21.289   6.506  0.0997  0.2233 -0.1065
    1OPC    D2B68939  27.984  21.006   6.162  0.2413  0.2152 -0.1305
    1OPC    C3B68940  27.662  20.645   6.261  0.0559 -0.0320 -0.0569
    1OPC    C4B68941  27.377  20.487   5.885 -0.1510 -0.2214  0.3432
    1OPC    NC368942   2.411   7.572   7.702  0.1356 -0.0257 -0.1299
    1OPC    PO468943   2.633   7.274   7.554  0.2862 -0.0667 -0.4969
    1OPC    GL168944   2.783   7.314   7.201 -0.1252  0.2059 -0.0559
    1OPC    GL268945   2.698   7.078   6.936 -0.1056  0.1655 -0.0681
    1OPC    C1B68946   2.918   6.900   6.551  0.0107 -0.1353 -0.1845
    1OPC    D2B68947   2.715   6.716   6.080 -0.2170 -0.2873  0.0005
    1OPC    C3B68948   2.675   6.801   5.670 -0.0247 -0.2141 -0.0115
    1OPC    C4B68949   2.623   6.596   5.183 -0.2807 -0.3218 -0.2966
    1OPC    NC368950  13.685  23.669   6.946 -0.2215 -0.0077 -0.1560
    1OPC    PO468951  13.746  23.166   6.999  0.1498 -0.0287  0.1656
    1OPC    GL168952  13.461  23.325   6.750 -0.0268  0.2815 -0.1585
    1OPC    GL268953  13.144  23.448   6.659 -0.0388  0.1474 -0.3527
    1OPC    C1B68954  12.976  23.570   6.305  0.1734  0.2062 -0.1827
    1OPC    D2B68955  12.633  23.713   5.895 -0.0425 -0.0299  0.0047
    1OPC    C3B68956  12.928  23.758   5.491  0.1797  0.4157 -0.0022
    1OPC    C4B68957  13.254  23.892   5.193  0.4518  0.0843 -0.1790
    1OPC    NC368958  21.422  28.367   7.467 -0.2416 -0.1868 -0.3042
    1OPC    PO468959  21.269  28.672   7.258  0.0191 -0.1170  0.1856
    1OPC    GL168960  21.454  28.362   6.955 -0.0739 -0.1439 -0.2028
    1OPC    GL268961  21.485  28.334   6.663  0.0907  0.5214 -0.2800
    1OPC    C1B68962  21.244  28.471   6.313  0.0991  0.1316  0.1806
    1OPC    D2B68963  21.340  28.538   5.878 -0.0002 -0.1172  0.2144
    1OPC    C3B68964  21.308  28.322   5.496  0.2192  0.3992  0.0487
    1OPC    C4B68965  21.348  28.054   5.209 -0.2117 -0.1162 -0.1752
    1OPC    NC368966   3.570  14.768   7.619 -0.0516 -0.0140 -0.2659
    1OPC    PO468967   3.464  14.585   7.216 -0.0714  0.0795 -0.1610
    1OPC    GL168968   3.446  14.503   6.768 -0.5803 -0.1440  0.1845
    1OPC    GL268969   3.339  14.282   6.476  0.0010  0.0314 -0.0483
    1OPC    C1B68970   3.178  14.176   6.096  0.1739  0.3124 -0.1775
    1OPC    D2B68971   3.147  14.001   5.624  0.0221 -0.2133 -0.0825
    1OPC    C3B68972   3.076  14.321   5.211 -0.0965  0.2099  0.1897
    1OPC    C4B68973   3.092  14.690   4.957  0.3662  0.0735 -0.1427
    1OPC    NC368974  23.253  28.158   8.036  0.1872 -0.0272  0.0581
    1OPC    PO468975  23.278  28.002   7.589 -0.4323  0.3949 -0.0006
    1OPC    GL168976  23.616  28.156   7.311 -0.1100 -0.0502  0.2628
    1OPC    GL268977  23.762  28.129   6.970  0.0629 -0.0745 -0.1030
    1OPC    C1B68978  23.755  28.299   6.529  0.3823  0.0430 -0.1252
    1OPC    D2B68979  23.830  28.483   6.136 -0.0094  0.1256 -0.2211
    1OPC    C3B68980  23.631  28.843   5.992 -0.0103  0.0093  0.1646
    1OPC    C4B68981  23.253  28.950   5.760 -0.0843 -0.0265  0.1442
    1OPC    NC368982  14.935  25.698   7.494  0.0640 -0.0022 -0.1381
    1OPC    PO468983  14.945  25.803   7.026 -0.1286  0.0626 -0.1804
    1OPC    GL168984  15.125  25.585   6.731 -0.1636 -0.1997  0.2388
    1OPC    GL268985  15.184  25.473   6.521 -0.2263 -0.0566 -0.0599
    1OPC    C1B68986  15.382  25.411   6.066 -0.2925 -0.1339 -0.0826
    1OPC    D2B68987  15.454  25.395   5.574  0.0608 -0.1965 -0.4202
    1OPC    C3B68988  15.484  25.234   5.270 -0.1833 -0.1643 -0.0735
    1OPC    C4B68989  15.447  25.303   4.928  0.1286 -0.3077  0.1619
    1OPC    NC368990  25.726  22.469   3.393  0.2375  0.1690 -0.0753
    1OPC    PO468991  26.033  22.374   3.645  0.0606 -0.1779 -0.0761
    1OPC    GL168992  26.179  22.440   4.003  0.3882  0.1650 -0.2804
    1OPC    GL268993  26.205  22.604   4.262 -0.1908 -0.0465 -0.0228
    1OPC    C1B68994  26.086  22.662   4.736 -0.0194  0.1158 -0.0126
    1OPC    D2B68995  25.931  22.841   5.015  0.1139  0.0472  0.1217
    1OPC    C3B68996  26.161  23.077   5.305 -0.2203  0.4034 -0.1726
    1OPC    C4B68997  26.377  23.168   5.657  0.3933 -0.0125  0.1553
    1OPC    NC368998   1.820  11.545   3.422 -0.4057 -0.0857  0.2696
    1OPC    PO468999   2.276  11.226   3.544  0.0821  0.2103 -0.0297
    1OPC    GL169000   2.438  11.066   3.890 -0.1771 -0.4502  0.0959
    1OPC    GL269001   2.415  10.908   4.171  0.0842 -0.2785  0.0018
    1OPC    C1B69002   2.525  10.876   4.603  0.1480 -0.1433 -0.1105
    1OPC    D2B69003   2.722  10.964   5.024 -0.1989  0.0160 -0.0265
    1OPC    C3B69004   3.211  11.031   4.967  0.0408 -0.0047  0.1741
    1OPC    C4B69005   3.574  11.101   5.063  0.1512 -0.0055 -0.0588
    1OPC    NC369006  18.894   4.197   1.319  0.3168 -0.0468 -0.0966
    1OPC    PO469007  18.405   4.115   1.519  0.3140  0.1403  0.1195
    1OPC    GL169008  18.295   3.969   1.902 -0.1000  0.0335 -0.0964
    1OPC    GL269009  18.230   3.823   2.205  0.1398 -0.0187  0.0063
    1OPC    C1B69010  18.264   3.914   2.673 -0.1843 -0.0016 -0.0437
    1OPC    D2B69011  18.369   4.358   2.851 -0.0012 -0.3300  0.1734
    1OPC    C3B69012  18.511   4.328   3.197  0.0017  0.0530 -0.2142
    1OPC    C4B69013  18.558   4.217   3.533  0.1278  0.1284  0.3122
    1OPC    NC369014  22.965  16.284   1.950 -0.0143  0.0440  0.3410
    1OPC    PO469015  23.132  16.162   2.262  0.1698  0.1603 -0.0847
    1OPC    GL169016  23.079  16.237   2.747 -0.0595  0.1482  0.0895
    1OPC    GL269017  22.999  16.124   3.083  0.2148  0.0785 -0.2041
    1OPC    C1B69018  22.854  16.240   3.540 -0.0615 -0.4309 -0.0715
    1OPC    D2B69019  22.803  16.243   3.989 -0.1060  0.1866  0.2623
    1OPC    C3B69020  22.923  15.855   4.280  0.1399 -0.0405  0.2256
    1OPC    C4B69021  23.093  15.818   4.680  0.0242  0.2053 -0.0329
    1OPC    NC369022  15.660  28.117   2.313 -0.0502 -0.1235  0.1867
    1OPC    PO469023  15.298  28.215   2.130 -0.3730 -0.1129 -0.0089
    1OPC    GL169024  15.068  27.926   2.452 -0.3648 -0.3361 -0.1689
    1OPC    GL269025  14.886  27.984   2.756  0.1769 -0.2964  0.0921
    1OPC    C1B69026  14.730  28.108   3.202  0.2917  0.2621 -0.1246
    1OPC    D2B69027  14.691  28.330   3.569 -0.0307 -0.2595 -0.1262
    1OPC    C3B69028  14.874  28.302   4.000 -0.2053  0.2149  0.1395
    1OPC    C4B69029  15.236  28.109   4.255  0.2196 -0.0226 -0.0301
    1OPC    NC369030   5.347   8.220   3.054 -0.3899 -0.0657 -0.0539
    1OPC    PO469031   4.989   8.022   3.209 -0.1258  0.0283  0.2717
    1OPC    GL169032   4.991   8.192   3.624  0.1530 -0.0794  0.3094
    1OPC    GL269033   4.984   8.298   3.971  0.0216 -0.2315 -0.1138
    1OPC    C1B69034   5.015   8.142   4.337 -0.0129  0.0564  0.1997
    1OPC    D2B69035   5.129   8.112   4.770  0.0005  0.2072 -0.2415
    1OPC    C3B69036   5.567   8.373   4.759 -0.0260 -0.1951 -0.0318
    1OPC    C4B69037   5.763   8.701   4.987  0.4817  0.1276 -0.0119
    1OPC    NC369038  16.151  25.826   2.528 -0.1082  0.0095 -0.2402
    1OPC    PO469039  16.215  25.704   2.911  0.0384 -0.0141 -0.1239
    1OPC    GL169040  15.964  25.608   3.221 -0.1021  0.1457 -0.2557
    1OPC    GL269041  15.774  25.532   3.465  0.0518 -0.1643  0.2936
    1OPC    C1B69042  15.837  25.644   3.877 -0.2761  0.1341  0.1261
    1OPC    D2B69043  15.532  25.735   4.258  0.0003  0.3552  0.2164
    1OPC    C3B69044  15.312  25.417   4.450 -0.2207 -0.2255 -0.0161
    1OPC    C4B69045  15.110  25.052   4.569 -0.1533  0.1904  0.0512
    1OPC    NC369046  13.893   3.383   1.725 -0.0001 -0.2169 -0.3035
    1OPC    PO469047  13.969   2.897   1.866 -0.3238  0.1610  0.1257
    1OPC    GL169048  14.310   3.037   2.036  0.2891 -0.3758  0.0757
    1OPC    GL269049  14.362   2.990   2.322  0.2539 -0.1957  0.1326
    1OPC    C1B69050  14.718   3.030   2.685  0.1408 -0.0197  0.1472
    1OPC    D2B69051  14.932   2.769   3.022  0.2827  0.0992  0.0014
    1OPC    C3B69052  14.879   2.350   3.212 -0.0587  0.1955 -0.3864
    1OPC    C4B69053  14.755   2.142   3.481  0.2134  0.0942 -0.0047
    1OPC    NC369054   0.428  24.194   3.822  0.0114 -0.2742 -0.3522
    1OPC    PO469055   0.220  23.872   3.832 -0.0048  0.1975 -0.1118
    1OPC    GL169056   0.385  23.887   4.228  0.2246  0.2442 -0.2290
    1OPC    GL269057   0.479  23.978   4.505  0.1008 -0.1787 -0.0136
    1OPC    C1B69058   0.577  23.874   4.878  0.0701  0.1923 -0.0886
    1OPC    D2B69059   0.836  23.911   5.235 -0.3073  0.0117 -0.0171
    1OPC    C3B69060   1.125  23.937   5.503  0.0899 -0.4196  0.0510
    1OPC    C4B69061   1.397  23.924   5.872  0.1780  0.2623 -0.2333
    1OPC    NC369062  25.139  17.750   3.573  0.2816  0.0965  0.0600
    1OPC    PO469063  25.360  17.453   3.447 -0.1642  0.3247  0.0522
    1OPC    GL169064  25.533  17.284   3.842  0.0195  0.0318 -0.0391
    1OPC    GL269065  25.509  17.207   4.152  0.1122 -0.2600 -0.3113
    1OPC    C1B69066  25.307  17.096   4.607 -0.2830  0.2298 -0.0245
    1OPC    D2B69067  25.200  16.779   4.975 -0.0815 -0.6054 -0.0195
    1OPC    C3B69068  24.771  16.957   5.169  0.3740  0.0036  0.0632
    1OPC    C4B69069  24.529  16.923   5.524  0.0199 -0.0041 -0.3379
    1OPC    NC369070  13.540  24.555   2.988 -0.0865  0.0338  0.1618
    1OPC    PO469071  13.417  25.003   3.207 -0.0742 -0.1067 -0.0361
    1OPC    GL169072  13.514  24.667   3.494  0.1475  0.0000  0.1754
    1OPC    GL269073  13.375  24.596   3.803 -0.0479  0.1691 -0.1143
    1OPC    C1B69074  13.571  24.507   4.228  0.2912 -0.1206 -0.0477
    1OPC    D2B69075  13.773  24.481   4.537 -0.2428 -0.0847  0.2978
    1OPC    C3B69076  14.019  24.078   4.632 -0.0503 -0.2776 -0.0083
    1OPC    C4B69077  14.190  23.859   4.967 -0.1318 -0.1648  0.1719
    1OPC    NC369078   9.795   7.631   2.701 -0.0172 -0.3667  0.3982
    1OPC    PO469079   9.708   7.951   2.448 -0.1988 -0.2414 -0.1244
    1OPC    GL169080   9.739   8.064   2.932  0.1788 -0.0674 -0.0489
    1OPC    GL269081   9.633   8.298   3.194  0.1613 -0.1001  0.0261
    1OPC    C1B69082   9.410   8.179   3.580 -0.0775  0.0622 -0.1114
    1OPC    D2B69083   9.323   8.316   3.986  0.1975 -0.1430  0.2126
    1OPC    C3B69084   9.286   8.559   4.346  0.0462  0.1245  0.0470
    1OPC    C4B69085   9.049   8.989   4.332  0.0773 -0.0711  0.0197
    1OPC    NC369086   2.302   7.447   3.113 -0.2106 -0.0292  0.1840
    1OPC    PO469087   2.774   7.245   3.271 -0.1655  0.0090 -0.2465
    1OPC    GL169088   2.524   7.478   3.567 -0.0686  0.0539  0.0692
    1OPC    GL269089   2.219   7.709   3.623 -0.1517  0.4223 -0.2472
    1OPC    C1B69090   1.866   8.001   3.705  0.1010  0.0818 -0.1062
    1OPC    D2B69091   1.579   8.210   3.876  0.0919  0.0716  0.1215
    1OPC    C3B69092   1.758   8.392   4.199 -0.0674  0.1094  0.1217
    1OPC    C4B69093   1.858   8.509   4.608 -0.1777 -0.2065 -0.1670
    1OPC    NC369094  18.820   6.756   1.210 -0.0422  0.3502 -0.0573
    1OPC    PO469095  18.708   6.215   1.329  0.3064 -0.0105 -0.2907
    1OPC    GL169096  18.945   6.177   1.730  0.1271  0.1023 -0.1068
    1OPC    GL269097  19.096   6.213   2.010 -0.0412  0.2989 -0.3356
    1OPC    C1B69098  18.957   6.444   2.395  0.0796  0.1154 -0.0720
    1OPC    D2B69099  18.605   6.652   2.614 -0.3075 -0.1344  0.2217
    1OPC    C3B69100  18.601   6.893   3.000 -0.0731  0.1000  0.1920
    1OPC    C4B69101  18.784   7.331   3.261 -0.0945  0.2552  0.2489
    1OPC    NC369102  19.509   3.909   2.415  0.0403 -0.0742 -0.0888
    1OPC    PO469103  19.621   4.388   2.364 -0.2343  0.0883 -0.5682
    1OPC    GL169104  19.419   4.702   2.436 -0.0005  0.1950 -0.1345
    1OPC    GL269105  19.182   4.705   2.651 -0.2270  0.0474 -0.2269
    1OPC    C1B69106  18.950   4.652   3.123 -0.0973 -0.1771  0.0307
    1OPC    D2B69107  18.870   4.567   3.555  0.1155  0.1887 -0.2632
    1OPC    C3B69108  18.957   4.881   3.892 -0.1277  0.3917  0.1954
    1OPC    C4B69109  19.036   5.090   4.242  0.0740 -0.0378 -0.1410
    1OPC    NC369110  21.996   7.327   1.928  0.0591 -0.1411  0.0846
    1OPC    PO469111  22.243   7.646   1.748 -0.2342 -0.0916 -0.1205
    1OPC    GL169112  22.280   7.864   2.182 -0.0303 -0.1298  0.1560
    1OPC    GL269113  22.210   7.893   2.575  0.0276  0.0997 -0.0413
    1OPC    C1B69114  22.137   7.762   2.970  0.0597 -0.0678 -0.0268
    1OPC    D2B69115  22.254   7.982   3.387  0.1625  0.1023 -0.0584
    1OPC    C3B69116  22.290   8.346   3.314  0.1223 -0.3021 -0.1443
    1OPC    C4B69117  22.141   8.675   3.234  0.1362  0.0261  0.2192
    1OPC    NC369118  26.911  18.828   2.903  0.1671 -0.4275 -0.3327
    1OPC    PO469119  26.584  18.973   3.202  0.2834  0.1513  0.0261
    1OPC    GL169120  26.206  19.012   3.535 -0.1296 -0.1304 -0.2013
    1OPC    GL269121  26.007  19.068   3.711  0.0340 -0.1658 -0.1680
    1OPC    C1B69122  25.983  19.283   4.135  0.0604  0.0696  0.0014
    1OPC    D2B69123  25.990  19.651   4.383 -0.1035 -0.2178  0.0016
    1OPC    C3B69124  25.958  19.460   4.888 -0.1243 -0.1230 -0.1378
    1OPC    C4B69125  25.764  19.601   5.250 -0.3941 -0.1860  0.0863
    1OPC    NC369126  27.519   8.180   3.348 -0.4550  0.0060  0.0836
    1OPC    PO469127  27.177   8.165   3.646  0.2292  0.1834  0.4279
    1OPC    GL169128  27.297   8.154   4.001 -0.1877 -0.4190 -0.0767
    1OPC    GL269129  27.595   8.223   4.198  0.0049 -0.2073  0.1095
    1OPC    C1B69130  27.829   8.284   4.446 -0.0795  0.0588 -0.0911
    1OPC    D2B69131  28.054   8.441   4.740  0.2489 -0.2597  0.1069
    1OPC    C3B69132  28.389   8.693   4.602  0.1768 -0.0504 -0.0618
    1OPC    C4B69133  28.329   9.076   4.297 -0.2429  0.2359  0.3028
    1OPC    NC369134  17.627  26.523   1.878  0.2977  0.3756  0.2597
    1OPC    PO469135  17.524  26.877   2.148 -0.0377 -0.0209 -0.0678
    1OPC    GL169136  17.484  26.842   2.589 -0.0461  0.3930  0.0366
    1OPC    GL269137  17.577  26.888   2.940 -0.0063 -0.0867 -0.0433
    1OPC    C1B69138  17.440  26.934   3.330  0.1544  0.0970 -0.2046
    1OPC    D2B69139  17.448  27.009   3.775  0.1259  0.2174  0.0808
    1OPC    C3B69140  17.170  26.898   4.180  0.1648  0.1540 -0.0227
    1OPC    C4B69141  17.230  26.802   4.576  0.5215  0.1797 -0.1992
    1OPC    NC369142   5.668  20.660   2.686  0.0599 -0.0080  0.1838
    1OPC    PO469143   5.511  20.136   2.714 -0.1129  0.3403  0.3204
    1OPC    GL169144   5.414  19.963   3.049 -0.0188 -0.3487  0.1693
    1OPC    GL269145   5.268  19.945   3.393  0.1616  0.1322  0.2935
    1OPC    C1B69146   5.141  19.903   3.814  0.1859  0.0311  0.0073
    1OPC    D2B69147   5.319  19.940   4.152 -0.2517 -0.2624  0.1544
    1OPC    C3B69148   5.532  19.978   4.477  0.1235 -0.2040  0.0293
    1OPC    C4B69149   5.533  19.906   5.009  0.3112 -0.0054  0.0702
    1OPC    NC369150   5.917   1.837   3.672 -0.2195  0.0533 -0.1552
    1OPC    PO469151   5.838   1.701   4.121  0.1066 -0.0280 -0.0984
    1OPC    GL169152   6.257   1.724   4.357  0.0322 -0.0235 -0.0515
    1OPC    GL269153   6.456   1.870   4.696  0.0094  0.1366  0.1910
    1OPC    C1B69154   6.643   1.889   5.115  0.0654  0.0054  0.2265
    1OPC    D2B69155   6.931   1.983   5.372 -0.0711  0.1293  0.0269
    1OPC    C3B69156   7.092   2.230   5.748  0.0216  0.1246  0.0290
    1OPC    C4B69157   7.255   2.696   5.932  0.1125  0.0241  0.1889
    1OPC    NC369158  11.798  28.069   2.973 -0.1266  0.0516 -0.0643
    1OPC    PO469159  12.137  27.921   3.331  0.1187  0.0042  0.0968
    1OPC    GL169160  12.144  27.479   3.536  0.0936  0.0484 -0.2422
    1OPC    GL269161  12.005  27.370   3.786 -0.1780 -0.2547 -0.0328
    1OPC    C1B69162  11.979  26.953   4.019  0.0621  0.0640 -0.1251
    1OPC    D2B69163  12.105  26.778   4.397 -0.1004 -0.2438  0.2131
    1OPC    C3B69164  11.876  27.114   4.717  0.0730 -0.1078 -0.3209
    1OPC    C4B69165  11.779  27.136   5.084  0.1429  0.0459 -0.2855
    1OPC    NC369166   5.927  17.358   2.318 -0.1665  0.1476  0.0137
    1OPC    PO469167   5.593  17.210   2.662  0.0380 -0.1628  0.1887
    1OPC    GL169168   5.595  16.865   2.978 -0.0789 -0.2265 -0.1350
    1OPC    GL269169   5.917  16.787   3.123 -0.2334  0.0552 -0.0612
    1OPC    C1B69170   6.035  16.442   3.335 -0.1154  0.3989  0.2721
    1OPC    D2B69171   6.120  16.309   3.739 -0.0024 -0.1013  0.2320
    1OPC    C3B69172   6.327  16.065   3.950  0.1130  0.1305  0.1743
    1OPC    C4B69173   6.371  15.813   4.275 -0.1016  0.1832 -0.2026
    1OPC    NC369174   4.901  18.448   2.709 -0.0107  0.3410 -0.1969
    1OPC    PO469175   4.833  18.064   3.001  0.0065  0.0046 -0.0591
    1OPC    GL169176   4.941  18.143   3.423  0.0776  0.1187 -0.2082
    1OPC    GL269177   5.101  18.131   3.686  0.1251  0.1445 -0.0887
    1OPC    C1B69178   5.169  18.135   4.094  0.0476  0.2165 -0.0376
    1OPC    D2B69179   5.295  17.875   4.451  0.1364 -0.2713  0.0675
    1OPC    C3B69180   5.444  18.057   4.870  0.4080  0.0525 -0.0476
    1OPC    C4B69181   5.823  18.317   5.064 -0.2979  0.0752 -0.1638
    1OPC    NC369182  20.142  19.338   1.687  0.0393 -0.1033 -0.3349
    1OPC    PO469183  20.044  19.662   2.041 -0.3050 -0.2917 -0.0858
    1OPC    GL169184  19.749  19.597   2.435 -0.0231 -0.1043 -0.1888
    1OPC    GL269185  19.640  19.481   2.782 -0.0554  0.0574 -0.0487
    1OPC    C1B69186  19.527  19.566   3.217  0.1553  0.1394  0.3105
    1OPC    D2B69187  19.746  19.559   3.551  0.2416 -0.0536 -0.5031
    1OPC    C3B69188  19.629  19.593   3.953 -0.1062  0.2493  0.1891
    1OPC    C4B69189  19.561  20.004   4.159  0.2498 -0.0196 -0.1508
    1OPC    NC369190  27.344   0.815   3.169  0.2979  0.0667 -0.0229
    1OPC    PO469191  27.129   0.919   3.627  0.3043 -0.4232 -0.1181
    1OPC    GL169192  26.741   0.872   3.955 -0.0484  0.1339  0.3163
    1OPC    GL269193  26.489   1.036   4.109 -0.0515 -0.0636  0.0798
    1OPC    C1B69194  26.144   1.110   4.356 -0.1767  0.0038  0.2353
    1OPC    D2B69195  25.807   0.837   4.412  0.2907  0.1362 -0.2045
    1OPC    C3B69196  25.597   0.548   4.768 -0.1934  0.0287 -0.1295
    1OPC    C4B69197  25.581   0.331   5.106 -0.1574  0.1679 -0.0273
    1OPC    NC369198  15.373   8.157   1.715  0.3185 -0.1033  0.2406
    1OPC    PO469199  14.973   8.441   1.617 -0.0600 -0.4177 -0.1551
    1OPC    GL169200  15.123   8.550   1.946  0.0070  0.1189  0.0719
    1OPC    GL269201  15.364   8.547   2.119  0.2114 -0.0723 -0.0229
    1OPC    C1B69202  15.579   8.562   2.540 -0.0280  0.0376  0.1293
    1OPC    D2B69203  15.804   8.456   2.906  0.0057 -0.0493  0.3001
    1OPC    C3B69204  15.581   8.330   3.283 -0.1465 -0.1250  0.2168
    1OPC    C4B69205  15.648   8.334   3.767  0.0737 -0.4088  0.0011
    1OPC    NC369206  25.316  10.923   2.450  0.0756  0.1260 -0.1520
    1OPC    PO469207  25.100  11.234   2.811  0.0099  0.0211  0.0172
    1OPC    GL169208  25.030  11.247   3.255  0.1168 -0.1000 -0.1564
    1OPC    GL269209  24.851  11.220   3.513  0.0004 -0.0109  0.1763
    1OPC    C1B69210  24.708  11.199   3.903 -0.1360 -0.0667 -0.1616
    1OPC    D2B69211  24.734  10.924   4.233 -0.2157  0.1445 -0.0835
    1OPC    C3B69212  24.760  11.011   4.636 -0.0484 -0.0445 -0.1143
    1OPC    C4B69213  24.836  11.202   5.100  0.2749  0.1714  0.0575
    1OPC    NC369214  10.200   6.194   2.486 -0.0645  0.0964 -0.0607
    1OPC    PO469215  10.615   6.410   2.418  0.1950 -0.3620  0.1297
    1OPC    GL169216  10.875   6.249   2.701  0.0433  0.3204 -0.0671
    1OPC    GL269217  11.004   6.049   2.883  0.0333  0.2946  0.1604
    1OPC    C1B69218  11.057   5.865   3.278 -0.4854 -0.0220  0.0624
    1OPC    D2B69219  10.867   5.871   3.658 -0.0847 -0.0561  0.1238
    1OPC    C3B69220  10.998   6.161   3.987  0.3475 -0.3943  0.3472
    1OPC    C4B69221  10.872   6.476   4.286  0.0781 -0.2711  0.1686
    1OPC    NC369222  28.201  11.977   3.158 -0.1153  0.0240  0.1406
    1OPC    PO469223  28.152  12.402   3.365 -0.1685 -0.1538 -0.0662
    1OPC    GL169224  28.506  12.376   3.652  0.2298 -0.2330 -0.2663
    1OPC    GL269225  28.550  12.393   3.893 -0.3727  0.1158  0.0845
    1OPC    C1B69226  28.524  12.700   4.220  0.0169  0.0259  0.0392
    1OPC    D2B69227  28.392  12.930   4.488  0.4256  0.3537  0.3815
    1OPC    C3B69228  28.290  12.857   4.932  0.0030 -0.0237  0.0044
    1OPC    C4B69229  28.005  12.905   5.175 -0.1148 -0.0589 -0.0207
    1OPC    NC369230  24.319  17.266   3.064  0.0501 -0.1495 -0.0314
    1OPC    PO469231  24.387  17.014   3.427  0.2142  0.1072 -0.0777
    1OPC    GL169232  24.272  17.357   3.609  0.0213  0.0812 -0.0038
    1OPC    GL269233  24.319  17.487   3.844  0.1497 -0.2855  0.1371
    1OPC    C1B69234  24.260  17.569   4.235  0.1321  0.2162 -0.2539
    1OPC    D2B69235  24.160  17.714   4.687 -0.3147  0.2668  0.0166
    1OPC    C3B69236  24.113  17.601   5.047 -0.0055  0.1188  0.0457
    1OPC    C4B69237  23.964  17.584   5.326  0.2042  0.1718  0.0225
    1OPC    NC369238  17.933  10.921   2.064 -0.0831  0.1102  0.2442
    1OPC    PO469239  18.120  11.271   2.189 -0.2070 -0.1244  0.2245
    1OPC    GL169240  18.158  11.153   2.493  0.3856  0.1329 -0.0184
    1OPC    GL269241  18.164  10.941   2.548  0.0076 -0.0112  0.2635
    1OPC    C1B69242  18.296  10.733   2.852  0.1778  0.1673  0.0653
    1OPC    D2B69243  18.468  10.353   2.970 -0.0134  0.1332  0.2887
    1OPC    C3B69244  18.380  10.302   3.410 -0.0654 -0.2712  0.0041
    1OPC    C4B69245  18.377  10.274   3.915  0.1104 -0.2001 -0.0011
    1OPC    NC369246  22.152  23.605   2.691  0.1669  0.3251 -0.1202
    1OPC    PO469247  21.718  23.459   2.773  0.1916 -0.2133 -0.2330
    1OPC    GL169248  21.880  23.411   3.214 -0.1826  0.1126  0.3399
    1OPC    GL269249  21.955  23.311   3.659  0.0091  0.1124  0.1557
    1OPC    C1B69250  21.603  23.208   4.087 -0.1098  0.0293 -0.0377
    1OPC    D2B69251  21.436  22.819   4.256 -0.0319 -0.0700  0.1687
    1OPC    C3B69252  21.080  22.791   4.465 -0.3079 -0.0395  0.2701
    1OPC    C4B69253  20.782  22.384   4.529 -0.4778  0.2163 -0.1146
    1OPC    NC369254  17.748  22.060   2.062  0.0155  0.1964 -0.0354
    1OPC    PO469255  18.012  21.932   2.431  0.1854  0.0207 -0.3428
    1OPC    GL169256  18.199  21.839   2.860  0.2686  0.0416 -0.1812
    1OPC    GL269257  18.303  21.615   2.938  0.0155 -0.0474 -0.1936
    1OPC    C1B69258  18.051  21.522   3.220 -0.0212 -0.2272  0.1331
    1OPC    D2B69259  18.303  21.539   3.633  0.4077 -0.0490 -0.3314
    1OPC    C3B69260  18.743  21.668   3.704  0.0143 -0.2560 -0.0074
    1OPC    C4B69261  18.999  21.985   3.985  0.2143 -0.1783  0.2223
    1OPC    NC369262   4.901  25.293   3.633  0.1090  0.1428 -0.0869
    1OPC    PO469263   5.380  25.103   3.558  0.0762 -0.0695  0.0882
    1OPC    GL169264   5.232  25.287   3.965 -0.1069 -0.2016 -0.0213
    1OPC    GL269265   5.356  25.463   4.217  0.2611 -0.1938  0.1467
    1OPC    C1B69266   5.303  25.388   4.605  0.0829  0.0648 -0.0051
    1OPC    D2B69267   5.540  25.533   4.934  0.0984  0.1290 -0.0153
    1OPC    C3B69268   5.805  25.374   5.213 -0.2115  0.3305 -0.0668
    1OPC    C4B69269   5.551  25.230   5.381  0.1185 -0.1237  0.0420
    1OPC    NC369270   6.482  18.196   2.279  0.0755  0.2577 -0.0109
    1OPC    PO469271   6.270  18.027   2.728  0.0500 -0.0094 -0.0092
    1OPC    GL169272   6.413  17.687   3.049  0.1023  0.3390  0.1425
    1OPC    GL269273   6.659  17.548   3.350 -0.0931 -0.1060 -0.0730
    1OPC    C1B69274   6.857  17.503   3.806 -0.0918 -0.3698  0.0725
    1OPC    D2B69275   7.196  17.511   4.179 -0.1662  0.3882  0.4325
    1OPC    C3B69276   7.244  17.326   4.568 -0.0128 -0.0969  0.0880
    1OPC    C4B69277   7.165  16.941   4.806  0.0032  0.0059 -0.4355
    1OPC    NC369278  10.157  25.404   3.684  0.4452 -0.1825 -0.1830
    1OPC    PO469279  10.451  25.215   3.459  0.2066  0.4184  0.2892
    1OPC    GL169280  10.583  25.300   3.910 -0.1989  0.1499 -0.2812
    1OPC    GL269281  10.714  25.556   4.079 -0.0144  0.1771  0.1255
    1OPC    C1B69282  10.739  25.718   4.444 -0.1756 -0.1590  0.5616
    1OPC    D2B69283  10.821  25.610   4.806 -0.3721 -0.0259  0.2057
    1OPC    C3B69284  11.247  25.671   4.836  0.2763 -0.0096 -0.2477
    1OPC    C4B69285  11.451  26.022   5.058  0.0520 -0.3883  0.0625
    1OPC    NC369286  15.636   7.835   0.955  0.1331  0.1546 -0.1532
    1OPC    PO469287  15.802   7.739   1.357 -0.3165  0.0520 -0.0733
    1OPC    GL169288  15.743   7.778   1.835 -0.3129  0.1101  0.0877
    1OPC    GL269289  15.698   7.624   2.155 -0.1873  0.2861 -0.0285
    1OPC    C1B69290  15.619   7.385   2.444  0.1349  0.3547  0.1812
    1OPC    D2B69291  15.360   7.254   2.711  0.1279 -0.1490 -0.0966
    1OPC    C3B69292  15.469   6.889   2.997  0.0340  0.1559  0.1865
    1OPC    C4B69293  15.495   6.727   3.412  0.1664 -0.2094 -0.1745
    1OPC    NC369294   3.953  15.925   3.194 -0.1061 -0.1180 -0.0473
    1OPC    PO469295   4.105  16.296   3.197  0.4173 -0.2017  0.2013
    1OPC    GL169296   4.296  16.334   3.555  0.1199  0.1129  0.2470
    1OPC    GL269297   4.494  16.494   3.720 -0.2094 -0.0024  0.0120
    1OPC    C1B69298   4.833  16.605   4.068  0.0950 -0.3163  0.2449
    1OPC    D2B69299   4.980  16.578   4.406 -0.0377 -0.1835  0.0546
    1OPC    C3B69300   4.858  16.328   4.769 -0.0524 -0.0712 -0.1707
    1OPC    C4B69301   5.041  16.412   5.172  0.3560  0.1529 -0.0269
    1OPC    NC369302  24.676  20.012   2.463 -0.2517  0.0440  0.0019
    1OPC    PO469303  24.854  19.925   2.954  0.2134 -0.0630  0.2305
    1OPC    GL169304  24.698  19.838   3.424  0.1402 -0.0743  0.1913
    1OPC    GL269305  24.666  20.066   3.609  0.0925 -0.0605 -0.0263
    1OPC    C1B69306  24.380  20.150   3.960 -0.1405 -0.0990 -0.1631
    1OPC    D2B69307  24.188  19.998   4.361  0.4183 -0.1327  0.0271
    1OPC    C3B69308  24.121  20.303   4.689 -0.1088  0.1065 -0.3839
    1OPC    C4B69309  24.334  20.479   5.023  0.0879 -0.1689  0.0180
    1OPC    NC369310  17.737  27.340   2.310 -0.1838  0.0049  0.0120
    1OPC    PO469311  17.435  27.380   2.598 -0.2736  0.0825 -0.3876
    1OPC    GL169312  17.022  27.323   2.579  0.1430 -0.0505 -0.1613
    1OPC    GL269313  16.750  27.447   2.777  0.1407  0.2095 -0.1855
    1OPC    C1B69314  16.506  27.604   3.107  0.0073  0.0649 -0.2183
    1OPC    D2B69315  16.272  27.663   3.367 -0.2773 -0.2729  0.0827
    1OPC    C3B69316  16.301  27.758   3.812 -0.1096 -0.0339 -0.2576
    1OPC    C4B69317  16.238  27.966   4.101  0.0813 -0.4447  0.1650
    1OPC    NC369318  17.014   4.824   0.925 -0.2669  0.3933  0.1735
    1OPC    PO469319  16.930   4.940   1.331 -0.2371 -0.0022  0.2239
    1OPC    GL169320  16.818   5.091   1.784 -0.1559 -0.2964 -0.0652
    1OPC    GL269321  16.729   5.072   2.121 -0.1047  0.0749  0.2789
    1OPC    C1B69322  16.857   5.228   2.625 -0.2963  0.3278  0.1872
    1OPC    D2B69323  16.698   5.298   2.987 -0.0293  0.3828 -0.1398
    1OPC    C3B69324  16.789   5.585   3.241  0.0994  0.2068  0.0602
    1OPC    C4B69325  16.899   5.938   3.302  0.0851 -0.1126 -0.2372
    1OPC    NC369326  14.422   7.652   1.527 -0.0221  0.0756 -0.0434
    1OPC    PO469327  14.196   7.334   1.725 -0.1334  0.1617  0.0648
    1OPC    GL169328  14.251   7.409   2.150  0.0188 -0.0137  0.1159
    1OPC    GL269329  14.199   7.320   2.403 -0.0631  0.1869  0.0476
    1OPC    C1B69330  14.237   6.998   2.751 -0.3024 -0.2179  0.0736
    1OPC    D2B69331  14.042   6.644   2.760  0.1381  0.2159 -0.1290
    1OPC    C3B69332  14.133   6.500   3.173  0.1048  0.1686  0.2571
    1OPC    C4B69333  13.882   6.465   3.420  0.2100  0.3889 -0.0597
    1OPC    NC369334   9.941   8.849   2.194  0.0593 -0.3200  0.3323
    1OPC    PO469335  10.212   8.762   2.574 -0.1824 -0.1198  0.1157
    1OPC    GL169336  10.063   8.533   3.007  0.2375  0.0984  0.1891
    1OPC    GL269337  10.206   8.373   3.170 -0.2544  0.0861 -0.2956
    1OPC    C1B69338  10.584   8.195   3.497  0.0750 -0.0245 -0.0637
    1OPC    D2B69339  11.048   8.109   3.605 -0.1182  0.3003  0.1787
    1OPC    C3B69340  11.253   8.508   3.914  0.0831  0.1281  0.0536
    1OPC    C4B69341  11.559   8.663   4.283  0.0951  0.0792  0.3127
    1OPC    NC369342  10.011  21.418   2.985  0.0750  0.2156  0.0672
    1OPC    PO469343  10.064  21.577   3.289 -0.0596 -0.1635  0.0319
    1OPC    GL169344  10.297  21.436   3.725  0.0196 -0.2922  0.0394
    1OPC    GL269345  10.482  21.643   3.945  0.2048 -0.0733 -0.1698
    1OPC    C1B69346  10.620  21.649   4.396 -0.2400 -0.1682  0.3118
    1OPC    D2B69347  10.493  21.741   4.822 -0.0215  0.1295 -0.0906
    1OPC    C3B69348  10.694  21.749   5.280 -0.0097 -0.0008 -0.0156
    1OPC    C4B69349  10.687  21.994   5.478 -0.0839 -0.2314  0.1954
    1OPC    NC369350  12.139   4.883   2.245 -0.0119  0.3738 -0.1583
    1OPC    PO469351  11.806   4.573   1.983  0.2287  0.0446 -0.0068
    1OPC    GL169352  11.855   4.520   2.398  0.1537  0.1690  0.0290
    1OPC    GL269353  12.107   4.545   2.724  0.1325  0.0414  0.0100
    1OPC    C1B69354  12.073   4.681   3.127  0.1332  0.1412  0.0861
    1OPC    D2B69355  11.938   4.728   3.548 -0.2087 -0.1631 -0.1388
    1OPC    C3B69356  12.115   5.095   3.833  0.1156  0.0784 -0.1585
    1OPC    C4B69357  12.428   5.217   4.031 -0.0176 -0.1822  0.2391
    1OPC    NC369358  25.580   7.647   3.639 -0.0622  0.0872 -0.1464
    1OPC    PO469359  25.903   7.581   3.556 -0.0489  0.0034 -0.1855
    1OPC    GL169360  25.911   7.975   3.550 -0.0226  0.1452  0.1579
    1OPC    GL269361  26.025   8.214   3.887 -0.0975 -0.0207  0.1978
    1OPC    C1B69362  25.860   8.212   4.328 -0.1715  0.0824 -0.0799
    1OPC    D2B69363  25.931   8.138   4.801 -0.3883 -0.0236 -0.1684
    1OPC    C3B69364  25.585   8.062   5.072 -0.4762 -0.1314  0.0727
    1OPC    C4B69365  25.137   7.827   4.895 -0.0055 -0.3029 -0.0424
    1OPC    NC369366   4.434   8.321   2.646 -0.2705  0.0576  0.1704
    1OPC    PO469367   4.517   8.219   3.105  0.3988  0.0142  0.0479
    1OPC    GL169368   4.577   8.433   3.552  0.1698 -0.0385  0.3108
    1OPC    GL269369   4.564   8.563   3.946 -0.3405  0.2062  0.0047
    1OPC    C1B69370   4.672   8.514   4.411  0.0480 -0.1691 -0.0141
    1OPC    D2B69371   4.774   8.449   4.839  0.0488 -0.1430 -0.1198
    1OPC    C3B69372   5.197   8.646   4.945 -0.0547  0.3006 -0.0851
    1OPC    C4B69373   5.457   8.932   4.668  0.1317 -0.1100  0.0148
    1OPC    NC369374  13.305   8.879   1.899  0.2172  0.0594  0.1154
    1OPC    PO469375  13.398   9.219   1.662  0.0336 -0.0268 -0.2845
    1OPC    GL169376  13.400   9.359   2.151  0.1319 -0.0004 -0.1663
    1OPC    GL269377  13.458   9.158   2.337 -0.1359 -0.0119 -0.1402
    1OPC    C1B69378  13.449   9.130   2.820  0.0214  0.0995  0.0808
    1OPC    D2B69379  13.638   9.102   3.227  0.0570 -0.4020  0.1092
    1OPC    C3B69380  13.462   9.407   3.493  0.0543  0.2151 -0.0164
    1OPC    C4B69381  13.151   9.467   3.770 -0.0148 -0.1204  0.2351
    1OPC    NC369382  12.705   0.341   2.227  0.3537  0.0258  0.0745
    1OPC    PO469383  12.283   0.430   2.381 -0.0429  0.1364 -0.0887
    1OPC    GL169384  12.491   0.376   2.797 -0.1853  0.0527  0.0581
    1OPC    GL269385  12.522   0.581   3.071  0.0652  0.5264 -0.1393
    1OPC    C1B69386  12.370   0.920   3.211 -0.0645 -0.0132 -0.1965
    1OPC    D2B69387  12.305   1.362   3.154 -0.1325  0.0964  0.0314
    1OPC    C3B69388  12.279   1.639   3.523 -0.0800  0.0479  0.1200
    1OPC    C4B69389  12.382   1.947   3.874 -0.0187  0.4334 -0.2099
    1OPC    NC369390   3.814   8.822   2.342  0.3498  0.3137 -0.1546
    1OPC    PO469391   3.999   9.083   2.742  0.0129 -0.0876 -0.0523
    1OPC    GL169392   4.228   9.196   3.156 -0.0581  0.0199 -0.3073
    1OPC    GL269393   4.096   9.339   3.429  0.0844  0.3548 -0.1266
    1OPC    C1B69394   3.874   9.313   3.759 -0.1959  0.1348  0.0046
    1OPC    D2B69395   3.599   9.295   4.169 -0.0875 -0.3093  0.1649
    1OPC    C3B69396   3.596   9.330   4.473  0.2024  0.4022  0.1315
    1OPC    C4B69397   3.587   9.315   4.897 -0.0143 -0.1002 -0.0597
    1OPC    NC369398  17.296   5.895   1.413 -0.3974 -0.1628 -0.3759
    1OPC    PO469399  16.842   5.969   1.245 -0.1558 -0.1836 -0.0684
    1OPC    GL169400  16.784   5.997   1.693  0.0879  0.0164 -0.0182
    1OPC    GL269401  16.616   6.050   1.972  0.0967  0.0780  0.0359
    1OPC    C1B69402  16.362   6.020   2.265  0.0497 -0.1634  0.2333
    1OPC    D2B69403  16.079   5.858   2.541 -0.0137  0.0258 -0.3682
    1OPC    C3B69404  15.891   5.986   2.943  0.0444 -0.0890 -0.1083
    1OPC    C4B69405  15.633   6.323   3.205  0.1776 -0.0748 -0.0451
    1OPC    NC369406  18.604   4.609   1.613  0.0244  0.1372  0.0298
    1OPC    PO469407  18.845   4.753   1.951 -0.2066 -0.2501 -0.3446
    1OPC    GL169408  18.760   4.803   2.420 -0.2026  0.2311 -0.0905
    1OPC    GL269409  18.673   4.777   2.782 -0.2208 -0.3334 -0.0490
    1OPC    C1B69410  18.281   4.803   3.112  0.1231  0.0208 -0.0650
    1OPC    D2B69411  18.143   4.629   3.373 -0.0787  0.1769 -0.1390
    1OPC    C3B69412  17.800   4.356   3.473 -0.0959 -0.0929  0.4705
    1OPC    C4B69413  17.329   4.377   3.599  0.0191 -0.0511 -0.0983
    1OPC    NC369414   8.264  20.150   2.501  0.2445  0.1610 -0.0518
    1OPC    PO469415   8.574  20.324   2.837  0.1325 -0.0322  0.0219
    1OPC    GL169416   8.938  20.263   3.075 -0.1028  0.3166  0.1626
    1OPC    GL269417   8.968  20.118   3.299  0.2264 -0.1728  0.2322
    1OPC    C1B69418   9.120  19.863   3.619 -0.0097  0.0164 -0.1061
    1OPC    D2B69419   8.873  19.471   3.811 -0.0170 -0.1324 -0.1768
    1OPC    C3B69420   8.988  19.302   4.296  0.2627  0.3168  0.0765
    1OPC    C4B69421   9.254  19.463   4.705 -0.0998 -0.0228 -0.1924
    1OPC    NC369422  21.971  13.369   1.703 -0.3006  0.0836 -0.4189
    1OPC    PO469423  21.579  13.532   1.973  0.1044 -0.0607 -0.2453
    1OPC    GL169424  21.579  13.539   2.484 -0.3326 -0.1553  0.3595
    1OPC    GL269425  21.614  13.677   2.860 -0.1812 -0.0124  0.0705
    1OPC    C1B69426  21.423  13.585   3.213  0.0523 -0.1104  0.1497
    1OPC    D2B69427  21.260  13.518   3.575 -0.1405 -0.3300  0.1043
    1OPC    C3B69428  21.399  13.674   3.973  0.0111  0.1094  0.0556
    1OPC    C4B69429  21.623  13.900   4.036 -0.4751 -0.5142 -0.0897
    1OPC    NC369430  20.062  20.527   1.839  0.0188  0.2273  0.1245
    1OPC    PO469431  19.832  20.824   1.986  0.0805 -0.0351 -0.2084
    1OPC    GL169432  20.063  20.720   2.381 -0.2187 -0.1857 -0.2246
    1OPC    GL269433  20.287  20.792   2.691  0.0963 -0.1522 -0.1543
    1OPC    C1B69434  20.598  20.658   2.988  0.1285 -0.1676  0.0657
    1OPC    D2B69435  20.476  20.707   3.506 -0.0594  0.0465 -0.0174
    1OPC    C3B69436  20.358  20.276   3.759 -0.3840 -0.2058  0.0174
    1OPC    C4B69437  20.605  20.035   4.120  0.0116  0.0148  0.1740
    1OPC    NC369438  17.971  25.830   2.841  0.1575  0.0300 -0.3032
    1OPC    PO469439  18.090  26.207   2.684 -0.2511  0.1545 -0.1347
    1OPC    GL169440  18.014  26.654   2.835 -0.1273  0.1094  0.4913
    1OPC    GL269441  18.089  26.891   3.077  0.3524  0.1213 -0.0552
    1OPC    C1B69442  17.930  27.019   3.516  0.2416 -0.0976 -0.0259
    1OPC    D2B69443  17.926  27.028   4.012 -0.1153  0.0596  0.1158
    1OPC    C3B69444  17.666  26.814   4.282  0.2272  0.0785  0.0784
    1OPC    C4B69445  17.696  26.774   4.698 -0.1776  0.0305  0.2406
    1OPC    NC369446  16.848  22.625   2.087 -0.2854 -0.1013 -0.0189
    1OPC    PO469447  17.001  22.395   2.470 -0.0349 -0.0065 -0.1872
    1OPC    GL169448  16.837  22.419   2.854 -0.1212  0.3771  0.1216
    1OPC    GL269449  16.715  22.246   3.114  0.1217  0.0346  0.0041
    1OPC    C1B69450  16.587  22.453   3.580  0.2867  0.1821  0.1456
    1OPC    D2B69451  16.501  22.339   4.030  0.0428 -0.1698  0.2568
    1OPC    C3B69452  16.480  21.991   4.217  0.0960 -0.1549  0.0223
    1OPC    C4B69453  16.574  21.707   4.457 -0.0593  0.1322  0.0035
    1OPC    NC369454  21.250   2.763   3.069 -0.2011 -0.1464  0.0735
    1OPC    PO469455  21.349   3.091   2.903 -0.2065 -0.0638  0.1470
    1OPC    GL169456  21.436   3.325   3.241  0.2764  0.0039  0.2149
    1OPC    GL269457  21.660   3.313   3.502  0.2560  0.2081  0.1078
    1OPC    C1B69458  21.829   3.501   3.873 -0.1057 -0.0968 -0.0094
    1OPC    D2B69459  21.868   3.688   4.329  0.1613  0.1308  0.1933
    1OPC    C3B69460  22.132   3.770   4.635 -0.0560 -0.0486  0.1223
    1OPC    C4B69461  22.519   3.881   4.826 -0.1687 -0.1365 -0.2067
    1OPC    NC369462   8.082  21.997   3.176  0.0562  0.2178  0.2060
    1OPC    PO469463   8.147  22.403   2.981 -0.1088  0.1412 -0.1860
    1OPC    GL169464   8.203  22.440   3.380 -0.3250  0.1609 -0.1394
    1OPC    GL269465   8.268  22.329   3.760 -0.1217 -0.0479 -0.0088
    1OPC    C1B69466   8.086  22.175   4.081 -0.3899 -0.0155 -0.2694
    1OPC    D2B69467   8.098  21.890   4.458 -0.1343 -0.0726 -0.0424
    1OPC    C3B69468   8.391  22.036   4.756 -0.1029  0.4997 -0.0993
    1OPC    C4B69469   8.765  22.173   4.777  0.2320  0.1859  0.1178
    1OPC    NC369470   0.142  16.761   4.042  0.1337  0.2071  0.1272
    1OPC    PO469471  -0.177  16.453   3.998  0.2294  0.0315 -0.0788
    1OPC    GL169472  -0.361  16.223   4.338 -0.0206 -0.0928 -0.0975
    1OPC    GL269473  -0.292  16.124   4.575  0.0755 -0.0408  0.0664
    1OPC    C1B69474  -0.256  16.246   4.993  0.1473  0.1972 -0.1263
    1OPC    D2B69475  -0.359  16.369   5.415 -0.2459 -0.4886 -0.0986
    1OPC    C3B69476   0.006  16.598   5.755 -0.1891  0.3682  0.0156
    1OPC    C4B69477  -0.091  16.496   6.130  0.3913  0.1939 -0.1859
    1OPC    NC369478   5.260  16.092   2.870 -0.1994 -0.1998  0.1533
    1OPC    PO469479   5.182  16.566   3.113  0.0236  0.1791  0.0211
    1OPC    GL169480   5.406  16.724   3.415  0.0344 -0.1790  0.4590
    1OPC    GL269481   5.596  16.667   3.532 -0.1463  0.1514  0.1766
    1OPC    C1B69482   5.683  16.534   3.941 -0.0673  0.0557  0.0363
    1OPC    D2B69483   5.589  16.619   4.289  0.2887  0.0808 -0.3752
    1OPC    C3B69484   5.372  16.883   4.419 -0.1668 -0.1601 -0.1073
    1OPC    C4B69485   5.293  17.325   4.382  0.2102  0.3550  0.5603
    1OPC    NC369486  22.306  21.669   3.172  0.1951  0.1257 -0.0025
    1OPC    PO469487  21.877  21.505   2.932 -0.4303  0.0403  0.0169
    1OPC    GL169488  21.770  21.594   3.383  0.2221  0.0872  0.3668
    1OPC    GL269489  22.017  21.667   3.565 -0.1879  0.3244 -0.0855
    1OPC    C1B69490  22.108  21.629   4.011  0.2375  0.1457  0.0274
    1OPC    D2B69491  22.014  21.725   4.451  0.1982  0.0174  0.0510
    1OPC    C3B69492  21.816  21.429   4.642  0.0689  0.2042  0.0708
    1OPC    C4B69493  21.764  20.969   4.707 -0.0294  0.0142  0.0691
    1OPC    NC369494   7.503  23.994   3.550 -0.1254  0.0888  0.0146
    1OPC    PO469495   7.498  24.308   3.746 -0.2775  0.0849 -0.0833
    1OPC    GL169496   7.246  24.490   4.010 -0.1222  0.1059 -0.2149
    1OPC    GL269497   7.009  24.688   4.161 -0.1931 -0.1361  0.0670
    1OPC    C1B69498   6.967  24.583   4.613  0.0589  0.1383  0.4072
    1OPC    D2B69499   6.977  24.368   4.938  0.0404 -0.0884 -0.1275
    1OPC    C3B69500   6.706  24.276   5.291  0.2155 -0.1143  0.1380
    1OPC    C4B69501   6.272  24.126   5.431 -0.0038 -0.2103  0.1062
    1OPC    NC369502   1.689  24.055   3.297 -0.0121 -0.0776  0.3251
    1OPC    PO469503   1.595  24.020   3.771 -0.3316 -0.1527  0.1688
    1OPC    GL169504   1.579  23.973   4.190  0.3263  0.1488  0.2990
    1OPC    GL269505   1.442  24.218   4.404 -0.0724  0.1133  0.1647
    1OPC    C1B69506   1.353  24.369   4.862  0.0969  0.1419  0.2303
    1OPC    D2B69507   1.448  24.224   5.201 -0.0728  0.2928  0.0470
    1OPC    C3B69508   1.648  23.809   5.289  0.0087 -0.0972 -0.2386
    1OPC    C4B69509   1.750  23.660   5.713 -0.0905  0.4148  0.1224
    1OPC    NC369510   0.262   5.503   3.851 -0.0779 -0.2824  0.0156
    1OPC    PO469511  -0.054   5.815   4.147 -0.1051  0.1190 -0.0264
    1OPC    GL169512  -0.324   5.913   4.463 -0.1241 -0.0713  0.1555
    1OPC    GL269513  -0.586   5.893   4.743  0.0257 -0.0141 -0.1817
    1OPC    C1B69514  -0.650   6.081   5.099 -0.2678 -0.2869  0.1561
    1OPC    D2B69515  -0.673   6.221   5.478 -0.0112  0.0594  0.0407
    1OPC    C3B69516  -0.444   6.331   5.786 -0.0453 -0.0771 -0.0382
    1OPC    C4B69517  -0.109   6.177   6.132  0.0685 -0.0561 -0.0261
    1OPC    NC369518  25.828  18.830   3.230 -0.2811  0.1626  0.2240
    1OPC    PO469519  26.141  18.545   3.353 -0.0761  0.0037  0.2751
    1OPC    GL169520  26.058  18.553   3.824  0.1974 -0.0055  0.0115
    1OPC    GL269521  26.174  18.444   4.094 -0.2499 -0.0015 -0.0268
    1OPC    C1B69522  26.313  18.288   4.522 -0.0558 -0.1469  0.1833
    1OPC    D2B69523  26.385  18.386   4.917  0.5565 -0.2583  0.0080
    1OPC    C3B69524  26.087  18.583   4.989  0.0237  0.0295 -0.2043
    1OPC    C4B69525  25.695  18.663   5.236  0.2986  0.1390  0.1429
    1OPC    NC369526  26.061   4.012   3.608  0.1284 -0.0048 -0.0765
    1OPC    PO469527  26.132   4.155   3.950 -0.1116  0.2653  0.1555
    1OPC    GL169528  26.007   3.827   4.131 -0.1466 -0.0688 -0.0146
    1OPC    GL269529  25.941   3.777   4.296  0.1364 -0.0002 -0.0499
    1OPC    C1B69530  25.757   3.909   4.627  0.0927  0.0991 -0.0655
    1OPC    D2B69531  25.658   3.881   5.067  0.0448 -0.1918  0.1025
    1OPC    C3B69532  25.341   3.860   5.366 -0.1692 -0.0171  0.2388
    1OPC    C4B69533  25.018   4.124   5.665 -0.1420  0.1889 -0.0438
    1OPC    NC369534   7.376   0.527   3.842  0.0575  0.0512  0.1003
    1OPC    PO469535   7.769   0.813   3.915 -0.0822  0.1602  0.2220
    1OPC    GL169536   7.917   1.071   4.209 -0.2153  0.0164 -0.0648
    1OPC    GL269537   8.154   1.394   4.194 -0.2791  0.1726 -0.0322
    1OPC    C1B69538   8.496   1.458   4.573 -0.0186  0.0247 -0.1607
    1OPC    D2B69539   8.763   1.263   4.885 -0.0615 -0.0734 -0.0481
    1OPC    C3B69540   9.025   1.320   5.228  0.1713  0.0386 -0.0353
    1OPC    C4B69541   9.277   1.126   5.646  0.2128  0.2437 -0.1427
    1OPC    NC369542   7.417   0.938   3.501  0.1448 -0.0714  0.1744
    1OPC    PO469543   7.527   1.400   3.575  0.0744  0.0784  0.3511
    1OPC    GL169544   7.556   1.389   4.020 -0.0780 -0.3506 -0.0327
    1OPC    GL269545   7.579   1.472   4.263 -0.1139 -0.0335 -0.0319
    1OPC    C1B69546   7.795   1.370   4.634  0.2625  0.0532  0.0062
    1OPC    D2B69547   8.089   1.091   4.852  0.4868 -0.1765  0.1649
    1OPC    C3B69548   8.351   1.368   5.100  0.0342 -0.1173 -0.2543
    1OPC    C4B69549   8.475   1.465   5.516 -0.0305 -0.1404  0.2794
    1OPC    NC369550   2.139   6.080   3.883  0.0005  0.2199  0.1070
    1OPC    PO469551   2.553   6.023   3.783  0.2863 -0.0577  0.2142
    1OPC    GL169552   2.964   6.154   3.991 -0.1071 -0.1626  0.1706
    1OPC    GL269553   2.939   6.149   4.316 -0.2382  0.3192 -0.2182
    1OPC    C1B69554   3.004   5.895   4.741  0.1548  0.1991  0.3000
    1OPC    D2B69555   2.775   5.937   5.123  0.2437  0.0863  0.1453
    1OPC    C3B69556   2.698   5.757   5.513 -0.2372  0.2836 -0.0567
    1OPC    C4B69557   2.780   5.642   5.968  0.2423 -0.0419 -0.0282
    1OPC    NC369558  23.353  19.737   2.770  0.2110 -0.0114  0.1872
    1OPC    PO469559  22.958  19.643   2.836 -0.0111 -0.2017 -0.0010
    1OPC    GL169560  22.864  19.562   3.286 -0.2183 -0.0112 -0.1943
    1OPC    GL269561  22.672  19.469   3.456 -0.1423  0.1597  0.0462
    1OPC    C1B69562  22.601  19.320   3.837 -0.0490  0.2066 -0.5024
    1OPC    D2B69563  22.868  19.187   4.084 -0.1987 -0.0745 -0.1938
    1OPC    C3B69564  23.087  19.183   4.437  0.1070  0.0678 -0.0603
    1OPC    C4B69565  23.239  19.038   4.870  0.1394 -0.1544 -0.1026
    1OPC    NC369566  24.491  20.895   2.521 -0.3217  0.0335  0.0807
    1OPC    PO469567  24.313  20.432   2.687  0.5871 -0.1844  0.2144
    1OPC    GL169568  24.668  20.479   3.020 -0.1538 -0.3493 -0.1514
    1OPC    GL269569  24.653  20.517   3.318 -0.5213  0.0135 -0.3419
    1OPC    C1B69570  24.497  20.559   3.679  0.2327  0.0538 -0.2240
    1OPC    D2B69571  24.410  20.875   3.918  0.3192 -0.2335 -0.1171
    1OPC    C3B69572  24.335  21.148   4.139 -0.1860  0.1417  0.0450
    1OPC    C4B69573  23.928  21.223   4.271 -0.1772 -0.2161 -0.1927
    1OPC    NC369574  17.941   5.807   1.664 -0.1458 -0.0101  0.1559
    1OPC    PO469575  18.243   5.584   1.888  0.2760  0.1186 -0.0337
    1OPC    GL169576  18.206   5.497   2.301 -0.0819  0.1422 -0.0501
    1OPC    GL269577  18.371   5.241   2.430  0.2737 -0.0442 -0.3466
    1OPC    C1B69578  18.570   5.258   2.844  0.2844  0.0798 -0.0572
    1OPC    D2B69579  18.742   5.114   3.123 -0.4653  0.0937 -0.1216
    1OPC    C3B69580  18.580   5.007   3.462  0.2037  0.0900  0.2409
    1OPC    C4B69581  18.454   4.734   3.827 -0.0561  0.0621  0.1548
    1OPC    NC369582  19.670  15.255   2.527 -0.0379  0.2152  0.0389
    1OPC    PO469583  19.880  14.873   2.629  0.2291  0.2046 -0.0800
    1OPC    GL169584  19.808  14.634   3.014 -0.3426  0.2668  0.0814
    1OPC    GL269585  19.699  14.608   3.249 -0.0915  0.1659  0.1658
    1OPC    C1B69586  19.762  14.521   3.621  0.0232  0.0582  0.1328
    1OPC    D2B69587  19.530  14.301   3.860 -0.5393 -0.0205 -0.0362
    1OPC    C3B69588  19.399  14.179   4.246  0.0293  0.1491  0.1637
    1OPC    C4B69589  19.475  14.067   4.647 -0.0445 -0.2074  0.0305
    1OPC    NC369590   7.786  10.208   2.563 -0.3378 -0.2082  0.1272
    1OPC    PO469591   7.545   9.867   2.387  0.1504 -0.2328 -0.1492
    1OPC    GL169592   7.400   9.892   2.857 -0.2354  0.2548 -0.2615
    1OPC    GL269593   7.154   9.959   3.085 -0.2826  0.1867 -0.0041
    1OPC    C1B69594   6.904   9.910   3.439 -0.0144  0.1229 -0.2467
    1OPC    D2B69595   6.740   9.805   3.772 -0.0676  0.1400  0.0229
    1OPC    C3B69596   7.030   9.720   4.062 -0.0271 -0.0821  0.0631
    1OPC    C4B69597   7.410   9.562   4.291 -0.0701  0.0141  0.1003
    1OPC    NC369598  15.989   3.057   1.504  0.0549  0.0695 -0.0356
    1OPC    PO469599  15.630   2.794   1.667 -0.0942 -0.0622 -0.4463
    1OPC    GL169600  15.937   2.958   2.023  0.1722  0.1353  0.3971
    1OPC    GL269601  16.026   2.749   2.335  0.2440  0.0384  0.2037
    1OPC    C1B69602  15.852   2.879   2.806 -0.0595 -0.0346  0.0328
    1OPC    D2B69603  15.914   2.772   3.219 -0.1031 -0.0686  0.1004
    1OPC    C3B69604  15.853   2.986   3.639  0.4167 -0.3525 -0.0955
    1OPC    C4B69605  15.698   3.070   4.062 -0.0206 -0.0777  0.1775
    1OPC    NC369606  19.938   6.297   0.973 -0.0430 -0.0087  0.4120
    1OPC    PO469607  19.803   6.441   1.413 -0.0154 -0.3269 -0.0184
    1OPC    GL169608  19.908   6.276   1.865 -0.0060  0.0945  0.1414
    1OPC    GL269609  19.651   6.125   2.108  0.0786 -0.1917 -0.3411
    1OPC    C1B69610  19.495   6.258   2.474 -0.1468  0.0703  0.1491
    1OPC    D2B69611  19.498   6.275   2.906 -0.0198 -0.2349 -0.1391
    1OPC    C3B69612  19.309   6.266   3.296 -0.1572  0.0667 -0.0370
    1OPC    C4B69613  18.944   6.113   3.384 -0.1187  0.3436 -0.0871
    1OPC    NC369614  16.349  27.133   1.773 -0.4759  0.1783 -0.4403
    1OPC    PO469615  16.164  26.846   1.988  0.0992 -0.0114 -0.3646
    1OPC    GL169616  16.413  27.101   2.344  0.1037  0.0687 -0.1498
    1OPC    GL269617  16.282  27.144   2.680 -0.0501  0.0804 -0.1807
    1OPC    C1B69618  16.035  27.267   3.040  0.1226  0.0706  0.1417
    1OPC    D2B69619  15.750  27.410   3.251 -0.1321 -0.0134  0.1267
    1OPC    C3B69620  15.836  27.685   3.613  0.5343 -0.1065 -0.2314
    1OPC    C4B69621  15.917  28.078   3.735 -0.1717 -0.1617  0.1998
    1OPC    NC369622  11.938  26.244   2.766 -0.0129 -0.1012 -0.1659
    1OPC    PO469623  12.296  25.947   2.828  0.0125 -0.2020  0.4787
    1OPC    GL169624  12.524  26.090   3.210  0.1497  0.0805 -0.1479
    1OPC    GL269625  12.404  26.096   3.530 -0.3945  0.1371  0.1568
    1OPC    C1B69626  12.365  26.000   4.020 -0.0546  0.1346  0.1801
    1OPC    D2B69627  12.508  25.900   4.519  0.3912  0.0560 -0.1563
    1OPC    C3B69628  12.545  25.672   4.866 -0.0167 -0.2232 -0.1099
    1OPC    C4B69629  12.255  25.639   5.203  0.0479  0.1497 -0.2509
    1OPC    NC369630   4.629  12.521   2.762  0.0362  0.0875  0.0042
    1OPC    PO469631   4.864  12.155   2.953 -0.1381 -0.0336  0.0817
    1OPC    GL169632   4.691  11.991   3.376  0.0876  0.3062  0.1188
    1OPC    GL269633   4.469  12.095   3.721 -0.0597 -0.0884  0.0376
    1OPC    C1B69634   4.444  12.259   4.056  0.2489 -0.1363  0.1225
    1OPC    D2B69635   4.482  12.347   4.515  0.2718  0.0080  0.2005
    1OPC    C3B69636   4.713  12.674   4.596 -0.0774 -0.0123  0.0026
    1OPC    C4B69637   4.781  13.119   4.595 -0.1953 -0.1056  0.2345
    1OPC    NC369638   2.317   3.128   3.358  0.1080  0.0121  0.0681
    1OPC    PO469639   2.239   3.274   3.822  0.0983  0.1833  0.0081
    1OPC    GL169640   2.420   3.477   4.148  0.1309  0.2503 -0.2597
    1OPC    GL269641   2.341   3.414   4.522 -0.0893  0.0825 -0.0559
    1OPC    C1B69642   2.575   3.169   4.923 -0.3161  0.0218 -0.0175
    1OPC    D2B69643   2.448   2.865   5.261 -0.0841  0.0981  0.1220
    1OPC    C3B69644   2.324   2.710   5.667 -0.3488  0.0541 -0.4438
    1OPC    C4B69645   2.024   2.502   5.800 -0.0719 -0.4049 -0.0213
    1OPC    NC369646  28.396  14.016   2.625  0.3095 -0.2027  0.1060
    1OPC    PO469647  28.514  14.172   3.194 -0.0174  0.2065  0.1545
    1OPC    GL169648  28.320  14.326   3.598 -0.0229  0.1930  0.0955
    1OPC    GL269649  28.320  14.248   3.862 -0.0268 -0.0637 -0.1689
    1OPC    C1B69650  28.414  14.128   4.229 -0.1189 -0.1684 -0.1953
    1OPC    D2B69651  28.734  14.092   4.446  0.0647  0.0588  0.0232
    1OPC    C3B69652  29.155  14.177   4.560 -0.0743 -0.1257 -0.0132
    1OPC    C4B69653  29.435  14.161   4.863 -0.2318 -0.1414 -0.0484
    1OPC    NC369654   7.704  28.346   3.625  0.1211  0.0438 -0.2022
    1OPC    PO469655   7.451  28.139   3.992  0.1471 -0.1218 -0.2168
    1OPC    GL169656   7.488  27.992   4.389  0.0692 -0.2031  0.0476
    1OPC    GL269657   7.332  27.895   4.680  0.0229 -0.1768  0.0987
    1OPC    C1B69658   7.185  27.792   5.186  0.0359 -0.1104  0.3281
    1OPC    D2B69659   7.517  27.951   5.459  0.0353 -0.0356 -0.2221
    1OPC    C3B69660   7.355  28.157   5.752 -0.2413 -0.1866  0.1307
    1OPC    C4B69661   7.000  28.149   5.954  0.1739 -0.1130  0.3436
    1OPC    NC369662  24.048   3.528   3.035  0.0781  0.0451 -0.0111
    1OPC    PO469663  23.764   3.299   3.015  0.1906  0.2745 -0.2266
    1OPC    GL169664  24.041   3.130   3.356  0.3828  0.0078  0.0713
    1OPC    GL269665  24.111   3.367   3.522 -0.0734 -0.2104 -0.1082
    1OPC    C1B69666  23.843   3.598   3.864 -0.1677 -0.0893 -0.3180
    1OPC    D2B69667  23.741   3.588   4.321  0.0571  0.1718 -0.2391
    1OPC    C3B69668  23.367   3.513   4.501  0.2130 -0.0896  0.1155
    1OPC    C4B69669  23.015   3.618   4.539  0.2274 -0.2515 -0.0506
    1OPC    NC369670  17.854   2.960   1.892 -0.0240  0.0792  0.2058
    1OPC    PO469671  17.724   2.872   2.310 -0.2438 -0.1087  0.2196
    1OPC    GL169672  17.643   2.799   2.605 -0.1455 -0.2356 -0.0628
    1OPC    GL269673  17.688   2.625   2.886  0.1348  0.0791 -0.0123
    1OPC    C1B69674  17.709   2.512   3.371 -0.3290  0.0981 -0.1949
    1OPC    D2B69675  17.599   2.484   3.816  0.0585 -0.0393 -0.3737
    1OPC    C3B69676  17.433   2.649   4.206 -0.0680  0.2406 -0.0848
    1OPC    C4B69677  17.487   3.000   4.411  0.3923 -0.1253  0.2606
    1OPC    NC369678  19.535   7.939   1.738  0.2247  0.1851 -0.1484
    1OPC    PO469679  19.330   7.602   1.931  0.0670  0.1031 -0.0584
    1OPC    GL169680  19.203   7.789   2.287  0.1848 -0.1470  0.3467
    1OPC    GL269681  18.991   7.745   2.440 -0.0624  0.0572  0.0318
    1OPC    C1B69682  19.016   7.554   2.880  0.1891 -0.3685  0.4078
    1OPC    D2B69683  19.319   7.391   3.113  0.1918 -0.5308 -0.0129
    1OPC    C3B69684  19.288   7.355   3.564  0.2923  0.1663 -0.0214
    1OPC    C4B69685  19.280   7.680   3.953  0.4384 -0.0297 -0.1545
    1OPC    NC369686  11.949  23.512   2.420 -0.0479 -0.0315  0.0671
    1OPC    PO469687  11.769  23.328   2.860 -0.2496  0.2004  0.1295
    1OPC    GL169688  12.052  23.363   3.169  0.0029  0.4055  0.1090
    1OPC    GL269689  12.160  23.491   3.437 -0.2125  0.0530 -0.0273
    1OPC    C1B69690  12.286  23.255   3.836  0.0169 -0.0424  0.0309
    1OPC    D2B69691  12.490  22.952   3.999 -0.3723 -0.0973 -0.1480
    1OPC    C3B69692  12.885  22.915   3.884  0.0025  0.0748 -0.0792
    1OPC    C4B69693  13.275  22.952   3.864  0.3239  0.5009  0.0444
    1OPC    NC369694  25.617  24.003   3.960  0.0920  0.2244  0.0839
    1OPC    PO469695  25.307  24.321   3.760  0.2625  0.1874  0.0922
    1OPC    GL169696  25.705  24.495   3.902  0.1126  0.0607 -0.2582
    1OPC    GL269697  25.878  24.398   4.166  0.0402  0.0364  0.1707
    1OPC    C1B69698  25.867  24.228   4.522  0.1054  0.0121  0.0237
    1OPC    D2B69699  25.919  24.173   4.951 -0.1125  0.0591  0.0418
    1OPC    C3B69700  26.230  23.865   4.983 -0.2396 -0.0059 -0.0901
    1OPC    C4B69701  26.292  23.597   5.344  0.1402  0.1259 -0.2226
    1OPC    NC369702  16.601  16.941   2.351 -0.2635  0.1609 -0.1320
    1OPC    PO469703  16.762  16.614   2.564  0.0233  0.1468 -0.3342
    1OPC    GL169704  17.043  16.548   3.086  0.0686  0.0720  0.2961
    1OPC    GL269705  17.147  16.573   3.429 -0.0433 -0.3049  0.0609
    1OPC    C1B69706  17.227  16.711   3.813  0.3161  0.1631  0.1159
    1OPC    D2B69707  17.105  16.621   4.243 -0.2441  0.2747  0.1165
    1OPC    C3B69708  16.995  16.952   4.533 -0.1812  0.1364 -0.0880
    1OPC    C4B69709  16.638  17.057   4.827 -0.0268  0.0034  0.1155
    1OPC    NC369710  24.902  16.973   3.393  0.1851  0.0734 -0.0181
    1OPC    PO469711  24.764  17.407   3.321 -0.2012 -0.0002 -0.1293
    1OPC    GL169712  24.895  17.308   3.759 -0.0652  0.0050  0.2848
    1OPC    GL269713  25.058  17.435   4.082  0.0199  0.0340  0.2092
    1OPC    C1B69714  25.064  17.545   4.495 -0.2894 -0.1172 -0.1353
    1OPC    D2B69715  24.976  17.573   4.848  0.1959  0.0567 -0.0677
    1OPC    C3B69716  25.238  17.278   5.094  0.1669  0.2844 -0.0722
    1OPC    C4B69717  25.663  17.166   5.108 -0.0665  0.0189  0.4549
    1OPC    NC369718   7.617   5.634   2.227  0.2336 -0.1359  0.0827
    1OPC    PO469719   7.778   5.605   2.647  0.0027  0.0695 -0.0369
    1OPC    GL169720   7.748   5.679   3.050  0.0388  0.3592 -0.0853
    1OPC    GL269721   7.675   5.802   3.455 -0.0224  0.0139  0.1789
    1OPC    C1B69722   7.791   5.884   3.851  0.3204  0.2524  0.2103
    1OPC    D2B69723   7.986   6.137   4.216 -0.0430 -0.1396  0.3170
    1OPC    C3B69724   8.473   6.153   4.304 -0.0717 -0.0775 -0.2831
    1OPC    C4B69725   8.806   5.756   4.204 -0.5148 -0.3233 -0.2022
    1OPC    NC369726  23.846  18.576   2.534  0.2924 -0.0313  0.0476
    1OPC    PO469727  24.083  18.902   2.780 -0.0094  0.2810  0.1028
    1OPC    GL169728  23.993  19.101   3.156  0.1049 -0.1002 -0.0490
    1OPC    GL269729  23.813  19.092   3.334  0.2749 -0.3328  0.3926
    1OPC    C1B69730  23.484  18.917   3.514 -0.0723  0.3018 -0.1346
    1OPC    D2B69731  23.047  19.056   3.648  0.2150  0.1134 -0.2403
    1OPC    C3B69732  22.562  18.817   3.776 -0.0080 -0.2147 -0.1721
    1OPC    C4B69733  22.381  18.421   3.729  0.1690  0.1710 -0.1507
    1OPC    NC369734  15.020   5.410   1.337  0.0783 -0.2339  0.0963
    1OPC    PO469735  14.881   5.095   1.476 -0.1445  0.0634  0.1301
    1OPC    GL169736  14.678   5.341   1.805  0.0193 -0.0470  0.0177
    1OPC    GL269737  14.547   5.192   2.099  0.1135  0.3159  0.1256
    1OPC    C1B69738  14.625   5.096   2.533 -0.0263  0.0568  0.2511
    1OPC    D2B69739  14.812   5.220   2.920 -0.0158 -0.0341  0.1390
    1OPC    C3B69740  14.774   4.947   3.262  0.1488 -0.2150 -0.1842
    1OPC    C4B69741  14.632   4.885   3.651 -0.1645 -0.1919 -0.1657
    1OPC    NC369742  17.835   1.918   2.150 -0.0879  0.0259 -0.0595
    1OPC    PO469743  18.208   2.064   2.439 -0.0409 -0.0638  0.0787
    1OPC    GL169744  18.538   2.066   2.774  0.1254  0.1663 -0.1653
    1OPC    GL269745  18.610   2.194   3.096 -0.0249 -0.0894 -0.0566
    1OPC    C1B69746  18.610   2.456   3.481  0.0958  0.1609  0.1640
    1OPC    D2B69747  18.755   2.663   3.815 -0.0484 -0.2040 -0.1686
    1OPC    C3B69748  18.697   3.143   3.902 -0.3563 -0.1192 -0.2525
    1OPC    C4B69749  18.304   3.409   3.868  0.1791  0.1626  0.1135
    1OPC    NC369750  28.686   1.575   3.509  0.1374  0.0535 -0.2510
    1OPC    PO469751  28.461   1.404   3.797  0.2121  0.0530 -0.0355
    1OPC    GL169752  28.421   1.240   4.172  0.1342  0.1916 -0.0082
    1OPC    GL269753  28.247   1.202   4.511  0.0552 -0.1537  0.2200
    1OPC    C1B69754  28.275   1.000   4.902  0.0594  0.0035 -0.0810
    1OPC    D2B69755  28.266   0.860   5.306 -0.1103 -0.2270  0.1970
    1OPC    C3B69756  28.093   0.526   5.553  0.1259  0.1487 -0.0108
    1OPC    C4B69757  28.045   0.353   5.965  0.0226  0.1298  0.0923
    1OPC    NC369758  27.616  23.570   3.609  0.0841  0.6342  0.1639
    1OPC    PO469759  27.275  23.725   3.421 -0.1354 -0.0258 -0.1123
    1OPC    GL169760  27.149  23.932   3.685 -0.2033 -0.1660  0.0394
    1OPC    GL269761  27.122  24.219   3.900  0.1831 -0.2136 -0.0530
    1OPC    C1B69762  27.045  24.270   4.375 -0.2066 -0.0680 -0.0530
    1OPC    D2B69763  27.044  24.268   4.758 -0.2331  0.0117  0.1572
    1OPC    C3B69764  26.893  24.308   5.058 -0.0273  0.1025  0.2224
    1OPC    C4B69765  27.047  24.394   5.481  0.2298  0.0057  0.2528
    1OPC    NC369766  17.395  13.327   2.103  0.1920  0.2794  0.0989
    1OPC    PO469767  17.379  13.734   2.333 -0.0257 -0.2708  0.3591
    1OPC    GL169768  17.369  13.821   2.773  0.0062 -0.4446 -0.0392
    1OPC    GL269769  17.484  13.600   3.014  0.0746 -0.1215  0.2093
    1OPC    C1B69770  17.512  13.416   3.388 -0.1348  0.1215  0.0805
    1OPC    D2B69771  17.447  13.194   3.954 -0.1500  0.1905 -0.1333
    1OPC    C3B69772  17.487  13.383   4.406  0.0976 -0.3450 -0.0101
    1OPC    C4B69773  17.748  13.468   4.761  0.0659  0.1458 -0.0019
    1OPC    NC369774  25.345  25.978   3.296  0.3450 -0.1580  0.1481
    1OPC    PO469775  25.203  25.620   3.510 -0.0643  0.0005 -0.0406
    1OPC    GL169776  24.887  25.510   3.850 -0.0132 -0.1220 -0.0546
    1OPC    GL269777  24.753  25.337   4.033  0.0153 -0.0580 -0.1127
    1OPC    C1B69778  24.700  25.258   4.509 -0.1426  0.0103 -0.2842
    1OPC    D2B69779  24.473  25.039   4.766 -0.1605  0.2597  0.3188
    1OPC    C3B69780  24.343  25.345   5.076 -0.1782 -0.0667 -0.1379
    1OPC    C4B69781  24.358  25.355   5.480 -0.3243  0.0930 -0.2503
    1OPC    NC369782   5.772   9.836   2.658  0.1553 -0.0976  0.0803
    1OPC    PO469783   5.423  10.048   2.776  0.1313 -0.1261  0.0619
    1OPC    GL169784   5.635  10.419   2.904 -0.3885  0.2645  0.1249
    1OPC    GL269785   5.708  10.447   3.280  0.2596  0.0332  0.2008
    1OPC    C1B69786   5.898  10.712   3.681  0.0908  0.1169 -0.1300
    1OPC    D2B69787   5.916  10.724   4.124  0.0703  0.0078 -0.0235
    1OPC    C3B69788   6.029  11.052   4.462  0.2715  0.1302 -0.1437
    1OPC    C4B69789   6.046  11.386   4.635  0.0445  0.1449  0.0562
    1OPC    NC369790  25.063  24.028   3.396 -0.3173 -0.2404  0.1815
    1OPC    PO469791  24.933  23.633   3.436 -0.1374  0.1156  0.0275
    1OPC    GL169792  24.649  23.852   3.736  0.1884 -0.1732  0.1171
    1OPC    GL269793  24.684  23.728   4.090 -0.0257 -0.0571 -0.0181
    1OPC    C1B69794  24.411  23.705   4.481 -0.0414 -0.0549 -0.0641
    1OPC    D2B69795  24.378  23.871   4.969  0.1467  0.0411  0.2546
    1OPC    C3B69796  24.692  23.917   5.171 -0.0817  0.4681  0.3899
    1OPC    C4B69797  25.142  23.812   5.180 -0.1365 -0.3503  0.0061
    1OPC    NC369798  25.345   1.786   2.823 -0.0412  0.0740  0.0581
    1OPC    PO469799  24.929   1.706   2.999 -0.1143 -0.2018 -0.0422
    1OPC    GL169800  24.678   1.672   3.345 -0.1823 -0.1508  0.1859
    1OPC    GL269801  24.661   1.701   3.645 -0.2189 -0.0256  0.2483
    1OPC    C1B69802  24.560   1.729   4.116  0.1500 -0.1178 -0.3589
    1OPC    D2B69803  24.600   1.565   4.534  0.1104  0.1640  0.2778
    1OPC    C3B69804  24.309   1.422   4.767  0.0971  0.1262  0.0335
    1OPC    C4B69805  24.112   1.505   5.142  0.3428  0.1616  0.2148
    1OPC    NC369806  18.366  26.415   3.092 -0.1914 -0.2853 -0.0128
    1OPC    PO469807  18.444  25.980   3.077  0.0355 -0.2665  0.1357
    1OPC    GL169808  18.413  26.194   3.523 -0.1414  0.1203  0.2022
    1OPC    GL269809  18.547  26.405   3.778 -0.0424  0.3063 -0.2411
    1OPC    C1B69810  18.610  26.389   4.267 -0.1978 -0.1455 -0.3255
    1OPC    D2B69811  18.540  26.427   4.631  0.1021 -0.0678 -0.1036
    1OPC    C3B69812  18.678  26.690   4.955 -0.0435  0.0293 -0.0029
    1OPC    C4B69813  18.754  26.981   5.242 -0.0689 -0.1267 -0.0095
    1OPC    NC369814   6.596   8.171   2.593 -0.1140 -0.0935  0.0595
    1OPC    PO469815   6.929   7.801   2.536  0.0905 -0.2530 -0.0449
    1OPC    GL169816   7.021   8.199   2.780  0.0333  0.1322 -0.3394
    1OPC    GL269817   7.177   8.406   3.060  0.2757 -0.0188  0.0159
    1OPC    C1B69818   7.510   8.659   3.164 -0.2056 -0.2564  0.2236
    1OPC    D2B69819   7.891   8.457   3.338 -0.0204 -0.1233  0.1770
    1OPC    C3B69820   7.941   8.276   3.710  0.0373 -0.2134  0.0534
    1OPC    C4B69821   8.017   8.073   4.048 -0.0312  0.1549  0.1406
    1OPC    NC369822  25.004   5.414   3.287  0.1475 -0.1135  0.1736
    1OPC    PO469823  25.162   5.785   3.438 -0.2778 -0.0167 -0.1130
    1OPC    GL169824  24.806   5.919   3.403 -0.1688 -0.2273 -0.3170
    1OPC    GL269825  24.429   5.968   3.509 -0.2802 -0.1385  0.1184
    1OPC    C1B69826  23.986   6.094   3.715  0.0149 -0.2135  0.0423
    1OPC    D2B69827  24.009   6.545   3.877  0.1500 -0.2469  0.3569
    1OPC    C3B69828  23.780   6.560   4.238  0.0268  0.0571  0.1034
    1OPC    C4B69829  23.645   6.169   4.372 -0.1665  0.0681 -0.2403
    1OPC    NC369830   4.453   4.572   3.827  0.2727 -0.0181  0.0037
    1OPC    PO469831   4.645   4.877   3.762  0.2008 -0.0818 -0.0030
    1OPC    GL169832   4.544   5.171   4.086 -0.3812  0.2039 -0.0620
    1OPC    GL269833   4.551   5.226   4.472  0.0478 -0.1205  0.1537
    1OPC    C1B69834   4.207   4.999   4.693 -0.0617  0.3851  0.3349
    1OPC    D2B69835   4.151   4.963   5.152 -0.0035  0.0182  0.1153
    1OPC    C3B69836   4.095   5.406   5.392 -0.1227 -0.0565 -0.0750
    1OPC    C4B69837   4.054   5.887   5.489 -0.2508  0.1963 -0.3849
    1OPC    NC369838  26.850  21.214   3.583  0.2245 -0.1915  0.0421
    1OPC    PO469839  27.244  21.051   3.721 -0.0747 -0.0149 -0.0586
    1OPC    GL169840  27.557  20.975   4.052  0.0770 -0.1696  0.1916
    1OPC    GL269841  27.545  21.142   4.433 -0.1301 -0.0861  0.1161
    1OPC    C1B69842  27.361  21.174   4.794 -0.1631 -0.0054 -0.0796
    1OPC    D2B69843  27.006  21.187   4.883  0.0009  0.2379 -0.0201
    1OPC    C3B69844  26.860  21.134   5.283 -0.0952 -0.3360  0.2575
    1OPC    C4B69845  26.673  20.951   5.687 -0.1651  0.0114  0.2002
    1OPC    NC369846  27.818  26.846   3.406  0.1380 -0.1331 -0.0181
    1OPC    PO469847  27.963  26.574   3.766 -0.1769  0.1188  0.0337
    1OPC    GL169848  27.804  26.590   4.206  0.0075 -0.1637  0.1975
    1OPC    GL269849  27.946  26.532   4.499  0.1388  0.1587  0.2421
    1OPC    C1B69850  27.796  26.622   4.924 -0.4381  0.0020 -0.3287
    1OPC    D2B69851  27.601  26.377   5.218 -0.2085 -0.2607 -0.0238
    1OPC    C3B69852  27.788  26.114   5.515  0.0959 -0.0226 -0.0890
    1OPC    C4B69853  27.998  25.753   5.563  0.0858  0.1180 -0.4814
    1OPC    NC369854   8.543   3.986   2.600 -0.1328  0.0843  0.0706
    1OPC    PO469855   8.533   3.821   3.022  0.0726  0.1673  0.1496
    1OPC    GL169856   8.490   3.857   3.446 -0.1872  0.0370  0.0861
    1OPC    GL269857   8.525   3.820   3.752 -0.2833 -0.0729 -0.2269
    1OPC    C1B69858   8.765   3.810   4.066  0.3836 -0.2054 -0.0336
    1OPC    D2B69859   8.995   3.664   4.462 -0.0143 -0.1649 -0.0732
    1OPC    C3B69860   8.856   3.760   4.803  0.0153  0.2426  0.0340
    1OPC    C4B69861   8.737   3.587   5.129  0.0421 -0.1266 -0.2694
    1OPC    NC369862   8.727   1.968   2.572 -0.2054 -0.0712  0.0910
    1OPC    PO469863   8.599   1.623   2.879 -0.1938 -0.0013  0.0368
    1OPC    GL169864   8.764   1.568   3.363  0.0179  0.0576  0.0345
    1OPC    GL269865   8.963   1.772   3.552  0.0992  0.1790  0.1075
    1OPC    C1B69866   9.228   1.797   3.924 -0.1017 -0.3282  0.0957
    1OPC    D2B69867   9.678   1.715   3.980 -0.1295 -0.0423  0.2329
    1OPC    C3B69868   9.876   1.774   4.341  0.0417  0.0138 -0.1283
    1OPC    C4B69869  10.067   1.516   4.645  0.0634  0.0390  0.0873
    1OPC    NC369870  27.854  27.849   3.833 -0.0080 -0.3350  0.3161
    1OPC    PO469871  27.576  28.148   3.851 -0.0405 -0.1236 -0.0286
    1OPC    GL169872  27.396  27.924   4.180  0.2247 -0.0928  0.2785
    1OPC    GL269873  27.349  27.900   4.436 -0.0645  0.2261  0.1051
    1OPC    C1B69874  27.313  27.958   4.907  0.0354 -0.1738  0.1765
    1OPC    D2B69875  26.901  28.083   5.051 -0.0724 -0.0605 -0.1713
    1OPC    C3B69876  27.083  28.314   5.440  0.0692  0.1737  0.1258
    1OPC    C4B69877  27.237  28.658   5.794  0.1521  0.1540  0.0575
    1OPC    NC369878   0.373  25.771   3.627 -0.0319  0.1664 -0.3929
    1OPC    PO469879   0.614  25.379   3.889  0.2697 -0.1429 -0.0497
    1OPC    GL169880   0.687  25.533   4.333  0.1812  0.0364  0.3647
    1OPC    GL269881   0.866  25.439   4.640  0.0827 -0.0770 -0.1572
    1OPC    C1B69882   0.994  25.244   5.024  0.2014  0.0001 -0.3578
    1OPC    D2B69883   1.247  25.225   5.322 -0.2710 -0.0976 -0.0098
    1OPC    C3B69884   0.930  25.197   5.684 -0.1171 -0.0705  0.0065
    1OPC    C4B69885   0.486  25.135   5.755  0.0123  0.1680 -0.1695
    1OPC    NC369886  16.453  24.273   2.447 -0.1217  0.0049  0.1813
    1OPC    PO469887  16.489  23.832   2.685  0.4594  0.1795 -0.0080
    1OPC    GL169888  16.475  23.675   3.145  0.0007  0.1028  0.1727
    1OPC    GL269889  16.524  23.730   3.448 -0.3018 -0.0155  0.1660
    1OPC    C1B69890  16.788  23.701   3.812  0.2230  0.1214 -0.1814
    1OPC    D2B69891  16.778  24.005   4.161  0.1516  0.0459 -0.0136
    1OPC    C3B69892  16.392  24.158   4.387  0.0484  0.0262  0.3797
    1OPC    C4B69893  16.325  24.213   4.829 -0.1157  0.0050 -0.0655
    1OPC    NC369894  15.804  25.281   2.305 -0.1099  0.1326  0.1207
    1OPC    PO469895  15.742  25.332   2.767  0.1114  0.0313 -0.2067
    1OPC    GL169896  15.698  25.107   3.260  0.1957 -0.1132 -0.1683
    1OPC    GL269897  15.881  24.797   3.363 -0.1293 -0.2058  0.0070
    1OPC    C1B69898  16.040  24.463   3.713  0.3195 -0.0758 -0.0651
    1OPC    D2B69899  16.163  24.516   4.118  0.0702  0.0946 -0.0749
    1OPC    C3B69900  15.973  24.525   4.522 -0.2581 -0.0789 -0.0910
    1OPC    C4B69901  15.819  24.195   4.910 -0.2577  0.3829  0.0065
    1OPC    NC369902  11.481   0.744   1.942 -0.2856 -0.1870  0.0838
    1OPC    PO469903  11.340   1.124   1.997  0.4052  0.1668 -0.2302
    1OPC    GL169904  11.604   0.952   2.403  0.1083 -0.1310 -0.1480
    1OPC    GL269905  11.673   0.995   2.760 -0.2261  0.2270 -0.0502
    1OPC    C1B69906  11.927   1.079   3.239  0.5632  0.1384  0.1682
    1OPC    D2B69907  12.150   1.177   3.607 -0.0719  0.2627  0.1772
    1OPC    C3B69908  12.052   0.945   3.972 -0.0895 -0.1251  0.2013
    1OPC    C4B69909  12.393   0.848   4.358  0.0163 -0.0132 -0.1939
    1OPC    NC369910  11.404   8.099   2.370  0.0897  0.0260 -0.0344
    1OPC    PO469911  11.116   7.804   2.384 -0.1997  0.2598  0.2294
    1OPC    GL169912  11.230   7.919   2.789 -0.0373  0.1401 -0.2456
    1OPC    GL269913  11.248   8.048   3.140  0.1723 -0.3804  0.1315
    1OPC    C1B69914  11.563   7.891   3.390 -0.0383  0.3906  0.0904
    1OPC    D2B69915  11.822   7.688   3.631 -0.1816 -0.0168 -0.1668
    1OPC    C3B69916  11.734   7.864   4.149 -0.0235  0.0665 -0.2856
    1OPC    C4B69917  11.490   8.141   4.369 -0.2934 -0.3596  0.0236
    1OPC    NC369918   9.949   4.061   2.886  0.1639 -0.0565  0.1666
    1OPC    PO469919   9.430   3.924   3.049 -0.0652 -0.2247  0.0962
    1OPC    GL169920   9.461   3.959   3.448  0.0165  0.0349  0.0862
    1OPC    GL269921   9.468   4.105   3.803  0.1943  0.1192 -0.3177
    1OPC    C1B69922   9.306   4.261   4.224 -0.2031  0.0640  0.0427
    1OPC    D2B69923   9.350   4.133   4.620  0.0062  0.0178  0.0498
    1OPC    C3B69924   9.090   4.214   4.941 -0.0766 -0.1438  0.0943
    1OPC    C4B69925   8.805   4.463   5.231 -0.0087  0.5448 -0.1390
    1OPC    NC369926  12.121  16.417   2.744  0.0814 -0.0954  0.0534
    1OPC    PO469927  11.809  16.674   2.539 -0.0667 -0.3976 -0.2178
    1OPC    GL169928  11.856  16.686   3.039  0.0061  0.1605  0.1199
    1OPC    GL269929  11.937  16.543   3.209 -0.1031  0.4334 -0.0736
    1OPC    C1B69930  11.935  16.322   3.536  0.1250 -0.0883 -0.3484
    1OPC    D2B69931  11.896  16.432   3.957 -0.2167  0.1739  0.0358
    1OPC    C3B69932  12.193  16.278   4.196 -0.0718  0.1105  0.0645
    1OPC    C4B69933  12.698  16.270   4.208  0.3736  0.2984  0.1291
    1OPC    NC369934   9.997  28.201   2.515  0.1545  0.0175 -0.1240
    1OPC    PO469935   9.916  28.113   2.989  0.0813  0.1030  0.4177
    1OPC    GL169936   9.810  28.272   3.292  0.2027  0.1633  0.3010
    1OPC    GL269937   9.591  28.101   3.668  0.2932  0.1462 -0.3290
    1OPC    C1B69938   9.472  27.919   4.163  0.4968 -0.0134  0.4366
    1OPC    D2B69939   9.457  27.789   4.555  0.0984  0.1162  0.4186
    1OPC    C3B69940   9.667  27.883   4.860 -0.0009 -0.1186 -0.1696
    1OPC    C4B69941   9.824  28.027   5.289 -0.0904  0.1449 -0.1480
    1OPC    NC369942  13.025  25.964   2.939  0.0961 -0.1531  0.0796
    1OPC    PO469943  13.086  25.648   3.046  0.0408  0.0115 -0.2290
    1OPC    GL169944  12.830  25.752   3.370 -0.4301 -0.1096  0.2541
    1OPC    GL269945  12.701  25.791   3.746  0.1213  0.3150 -0.3782
    1OPC    C1B69946  12.836  25.653   4.144  0.2480 -0.0258  0.0751
    1OPC    D2B69947  13.052  25.705   4.579 -0.1054  0.2522 -0.2269
    1OPC    C3B69948  13.079  25.266   4.664 -0.1198 -0.0251  0.1062
    1OPC    C4B69949  13.300  25.092   4.903 -0.0161 -0.3123 -0.0785
    1OPC    NC369950  26.971  25.870   3.405  0.1359  0.1848 -0.1111
    1OPC    PO469951  27.156  26.105   3.785  0.2087  0.1336 -0.0834
    1OPC    GL169952  27.338  26.048   4.223 -0.1337 -0.0898  0.0589
    1OPC    GL269953  27.600  26.117   4.346  0.2540  0.2491 -0.4055
    1OPC    C1B69954  27.695  26.131   4.778  0.1241  0.0201  0.2604
    1OPC    D2B69955  27.839  25.844   5.098  0.1985  0.0431 -0.1017
    1OPC    C3B69956  27.630  25.521   5.300 -0.0876  0.0760 -0.1699
    1OPC    C4B69957  27.567  25.166   5.553  0.1464 -0.0690 -0.0640
    1OPC    NC369958   9.876  13.290   2.193 -0.2480 -0.3082 -0.0216
    1OPC    PO469959   9.782  13.819   2.231 -0.0591 -0.2334  0.1822
    1OPC    GL169960   9.940  13.524   2.620  0.0116  0.1077 -0.0854
    1OPC    GL269961  10.068  13.307   2.878  0.0086 -0.1573 -0.0747
    1OPC    C1B69962  10.049  13.074   3.204  0.0128 -0.0757 -0.0993
    1OPC    D2B69963  10.140  12.631   3.375 -0.2629  0.1529 -0.1883
    1OPC    C3B69964  10.244  12.263   3.465  0.2262  0.1565  0.0909
    1OPC    C4B69965  10.208  12.116   3.883  0.0038 -0.0816  0.0349
    1OPC    NC369966  20.928   7.682   1.929  0.2135 -0.1733 -0.0626
    1OPC    PO469967  20.530   7.690   1.634 -0.0516 -0.3789 -0.2389
    1OPC    GL169968  20.441   7.464   2.053  0.4045  0.3013  0.0458
    1OPC    GL269969  20.548   7.332   2.429  0.0386 -0.1784 -0.1539
    1OPC    C1B69970  20.503   7.171   2.887 -0.0175 -0.0904  0.0243
    1OPC    D2B69971  20.298   6.854   3.038  0.0725  0.0354 -0.1931
    1OPC    C3B69972  20.068   6.866   3.487  0.0977 -0.0270 -0.0061
    1OPC    C4B69973  19.946   6.832   3.948 -0.0332 -0.2950  0.1501
    1OPC    NC369974  18.469  10.912   2.171 -0.0086  0.0438 -0.0057
    1OPC    PO469975  18.327  10.708   1.849 -0.0708 -0.0237  0.0383
    1OPC    GL169976  18.189  10.516   2.287  0.1713 -0.0600  0.0309
    1OPC    GL269977  18.243  10.326   2.506 -0.0872  0.1783  0.1005
    1OPC    C1B69978  18.178   9.932   2.721 -0.2370 -0.1382  0.0878
    1OPC    D2B69979  17.998   9.777   3.023  0.0192  0.2776  0.0347
    1OPC    C3B69980  18.222   9.777   3.347  0.1363  0.0953 -0.0885
    1OPC    C4B69981  18.266   9.383   3.649 -0.0797  0.2386 -0.0208
    1OPC    NC369982  12.333  21.702   2.824  0.1612 -0.2880  0.0626
    1OPC    PO469983  12.670  21.733   3.105 -0.1495 -0.2180 -0.0033
    1OPC    GL169984  12.266  21.905   3.281  0.1374 -0.2190  0.2751
    1OPC    GL269985  12.193  22.125   3.562 -0.0831  0.1045 -0.4505
    1OPC    C1B69986  12.103  22.009   3.919 -0.0547 -0.0162  0.3510
    1OPC    D2B69987  12.259  22.164   4.244 -0.0177  0.0584 -0.2976
    1OPC    C3B69988  12.408  22.321   4.582  0.1190 -0.3556 -0.0546
    1OPC    C4B69989  12.204  22.601   4.775 -0.3777  0.0663 -0.0214
    1OPC    NC369990   0.391   0.512   3.012 -0.2023 -0.0011  0.2968
    1OPC    PO469991   0.489   0.471   3.399 -0.1928 -0.0157  0.1482
    1OPC    GL169992   0.486   0.696   3.839  0.3275 -0.0308 -0.1270
    1OPC    GL269993   0.403   0.597   4.189 -0.0098  0.3003  0.0420
    1OPC    C1B69994   0.290   0.812   4.706 -0.1003 -0.0666 -0.0460
    1OPC    D2B69995   0.386   0.809   5.110  0.2176  0.0015  0.0801
    1OPC    C3B69996   0.415   1.140   5.357 -0.4733  0.1263  0.3338
    1OPC    C4B69997   0.899   0.980   5.541 -0.0333 -0.0108  0.1650
    1OPC    NC369998  18.111   7.443   1.522 -0.1827 -0.2311  0.0425
    1OPC    PO469999  18.327   7.016   1.508  0.5413  0.3906  0.0664
    1OPC    GL170000  18.242   6.802   1.926  0.0575 -0.0089 -0.0403
    1OPC    GL270001  18.178   6.653   2.206  0.0317 -0.1019  0.3939
    1OPC    C1B70002  17.965   6.404   2.523 -0.0322  0.2718 -0.0920
    1OPC    D2B70003  17.992   6.180   2.954  0.0517  0.0651 -0.0499
    1OPC    C3B70004  17.839   6.123   3.323 -0.1339  0.2217  0.0682
    1OPC    C4B70005  17.571   5.874   3.617  0.0571  0.4960  0.1552
    1OPC    NC370006   3.727  13.893   2.834 -0.0430  0.0215  0.0718
    1OPC    PO470007   3.414  13.790   3.038  0.1292 -0.0564 -0.0360
    1OPC    GL170008   3.390  14.008   3.429  0.1045 -0.0907  0.0931
    1OPC    GL270009   3.420  13.805   3.795  0.3209  0.3531  0.0532
    1OPC    C1B70010   3.243  13.591   4.061  0.1723  0.0560  0.2758
    1OPC    D2B70011   3.213  13.596   4.500  0.3646  0.3422  0.1990
    1OPC    C3B70012   2.909  13.387   4.729 -0.1154  0.1264  0.0181
    1OPC    C4B70013   2.687  13.112   5.051 -0.2501  0.1413 -0.3068
    1OPC    NC370014   2.142  11.100   2.755 -0.0677  0.1433  0.0351
    1OPC    PO470015   2.015  11.018   3.179  0.0290  0.0712  0.2231
    1OPC    GL170016   1.830  10.936   3.636  0.1274 -0.1943 -0.0635
    1OPC    GL270017   1.748  11.057   3.939  0.2069 -0.0464 -0.2887
    1OPC    C1B70018   1.563  11.048   4.307 -0.5455  0.3037  0.0475
    1OPC    D2B70019   1.306  10.994   4.748  0.0047  0.1184 -0.0811
    1OPC    C3B70020   1.096  10.602   4.910 -0.0796  0.3219 -0.0762
    1OPC    C4B70021   1.225  10.249   5.082  0.0030  0.1602 -0.2495
    1OPC    NC370022   7.438   9.400   2.700  0.0453  0.0613  0.2665
    1OPC    PO470023   6.994   9.575   2.711 -0.0503  0.2232  0.2431
    1OPC    GL170024   7.099   9.481   3.106 -0.2058 -0.2217  0.1967
    1OPC    GL270025   7.349   9.576   3.365  0.0209 -0.1749  0.1433
    1OPC    C1B70026   7.567   9.534   3.738  0.0556  0.0291 -0.1486
    1OPC    D2B70027   7.703   9.183   4.043 -0.1957 -0.0059 -0.0071
    1OPC    C3B70028   7.441   8.914   4.225 -0.3358  0.1143  0.2622
    1OPC    C4B70029   7.066   8.802   4.443  0.0909 -0.2470 -0.2095
    1OPC    NC370030   9.925   9.375   1.444 -0.2640 -0.2124  0.0427
    1OPC    PO470031   9.773   9.217   1.870  0.0148  0.2176  0.1081
    1OPC    GL170032   9.620   9.258   2.364  0.1192  0.0755  0.0364
    1OPC    GL270033   9.749   9.038   2.599  0.0019  0.1208  0.1217
    1OPC    C1B70034   9.702   8.857   3.044 -0.1271 -0.0699 -0.0547
    1OPC    D2B70035   9.882   8.813   3.482  0.1117 -0.1252  0.5897
    1OPC    C3B70036   9.614   8.724   3.755 -0.0486  0.0401  0.0015
    1OPC    C4B70037   9.326   8.977   3.893  0.1370  0.0971  0.1061
    1OPC    NC370038   2.986  24.742   3.513 -0.0248  0.0184 -0.2171
    1OPC    PO470039   2.736  24.593   3.826  0.1233 -0.3115 -0.1049
    1OPC    GL170040   3.081  24.276   3.844  0.0019  0.0920  0.0326
    1OPC    GL270041   3.178  24.103   3.990  0.0702 -0.0929 -0.3554
    1OPC    C1B70042   3.294  23.900   4.449 -0.0225  0.0274 -0.3004
    1OPC    D2B70043   3.412  23.919   4.908 -0.0812  0.3308 -0.0955
    1OPC    C3B70044   3.551  24.209   5.180 -0.0018  0.1147 -0.1257
    1OPC    C4B70045   3.490  24.628   5.419  0.2695  0.2562  0.1060
    1OPC    NC370046   5.496   7.584   2.442  0.3140  0.2631 -0.2215
    1OPC    PO470047   5.662   7.779   2.827  0.1695 -0.2353  0.0090
    1OPC    GL170048   5.438   7.796   3.281 -0.0485 -0.2275  0.0180
    1OPC    GL270049   5.227   7.738   3.572  0.1900 -0.0335  0.0061
    1OPC    C1B70050   4.966   7.791   3.978  0.0571  0.2318 -0.1117
    1OPC    D2B70051   4.866   7.569   4.269  0.4189  0.2864 -0.0582
    1OPC    C3B70052   4.830   7.645   4.640 -0.0659  0.0864  0.0217
    1OPC    C4B70053   4.913   7.696   5.088  0.0783  0.2032  0.0635
    1OPC    NC370054  22.671   1.922   3.303 -0.0798 -0.0680 -0.2418
    1OPC    PO470055  22.584   1.560   3.024  0.0033 -0.0823  0.1270
    1OPC    GL170056  22.789   1.374   3.348 -0.3886  0.1003 -0.1313
    1OPC    GL270057  23.036   1.370   3.610  0.3021 -0.0417  0.0391
    1OPC    C1B70058  23.049   1.429   4.056  0.0113  0.3290 -0.0146
    1OPC    D2B70059  22.919   1.301   4.527  0.1536  0.0725 -0.1453
    1OPC    C3B70060  22.570   1.433   4.810 -0.0294 -0.1394  0.0855
    1OPC    C4B70061  22.147   1.634   4.587  0.3326 -0.2412 -0.0224
    1OPC    NC370062  21.631   3.335   2.536 -0.1808 -0.0944 -0.1116
    1OPC    PO470063  21.744   2.948   2.558 -0.0021 -0.1237  0.3106
    1OPC    GL170064  21.792   2.922   3.031 -0.3008  0.3212 -0.0963
    1OPC    GL270065  21.985   2.994   3.395 -0.2039 -0.0274  0.0209
    1OPC    C1B70066  22.010   3.030   3.862 -0.0496 -0.2583  0.4142
    1OPC    D2B70067  22.042   2.773   4.205  0.1345  0.2648 -0.1338
    1OPC    C3B70068  21.875   2.756   4.594 -0.0446  0.1322 -0.2509
    1OPC    C4B70069  21.616   2.424   4.808  0.2495  0.0865  0.0079
    1OPC    NC370070  21.729  27.753   2.496  0.0191 -0.0318  0.2394
    1OPC    PO470071  21.728  27.963   2.881  0.0699 -0.2533  0.0599
    1OPC    GL170072  21.479  27.902   3.181 -0.0470  0.0629 -0.0347
    1OPC    GL270073  21.433  27.953   3.599  0.1390 -0.2912  0.1301
    1OPC    C1B70074  21.270  27.851   4.001  0.2198  0.0743  0.2239
    1OPC    D2B70075  21.200  27.805   4.383 -0.3797 -0.0118  0.2609
    1OPC    C3B70076  20.928  27.829   4.614  0.0031  0.1562  0.0590
    1OPC    C4B70077  20.611  27.541   4.841 -0.4243 -0.1601 -0.1166
    1OPC    NC370078  12.066  17.990   2.918 -0.2934  0.0161  0.2800
    1OPC    PO470079  11.647  18.059   3.043 -0.3703 -0.0454 -0.1248
    1OPC    GL170080  11.343  18.010   3.404  0.1548 -0.1891 -0.1441
    1OPC    GL270081  11.162  17.894   3.583 -0.1388  0.2082 -0.0409
    1OPC    C1B70082  11.013  17.736   4.009  0.1931 -0.0764 -0.1136
    1OPC    D2B70083  10.775  17.540   4.376 -0.0958 -0.1103 -0.1332
    1OPC    C3B70084  10.426  17.443   4.394 -0.1337  0.0717 -0.1913
    1OPC    C4B70085  10.052  17.280   4.590 -0.0094 -0.2545 -0.0838
    1OPC    NC370086  24.262   7.412   2.293  0.0421  0.0649 -0.0669
    1OPC    PO470087  24.209   7.360   2.718 -0.0336  0.1995 -0.0832
    1OPC    GL170088  23.697   7.277   2.857 -0.0046 -0.1877 -0.0435
    1OPC    GL270089  23.533   7.137   3.064 -0.0909 -0.1355 -0.0907
    1OPC    C1B70090  23.409   6.776   3.285  0.0674 -0.0541  0.1471
    1OPC    D2B70091  23.255   6.275   3.306 -0.0924  0.0398  0.0317
    1OPC    C3B70092  22.950   6.003   3.482  0.0564 -0.0619  0.1075
    1OPC    C4B70093  22.639   5.993   3.763 -0.1113  0.2520 -0.3141
    1OPC    NC370094   6.216  22.824   3.027  0.1814  0.1001  0.1511
    1OPC    PO470095   6.466  22.707   3.422  0.4289 -0.1633 -0.4046
    1OPC    GL170096   6.600  22.535   3.922 -0.2525 -0.1210  0.3705
    1OPC    GL270097   6.616  22.370   4.116  0.2276 -0.0423  0.0934
    1OPC    C1B70098   6.719  22.025   4.369 -0.2115 -0.0383  0.1422
    1OPC    D2B70099   6.605  21.569   4.464 -0.2553  0.2012  0.1412
    1OPC    C3B70100   6.795  21.214   4.664 -0.1782  0.1808 -0.0755
    1OPC    C4B70101   6.909  20.874   4.985  0.2924  0.4511  0.2664
    1OPC    NC370102  15.851  17.449   2.384  0.0314 -0.0416 -0.0136
    1OPC    PO470103  15.652  17.796   2.573 -0.0852  0.2255  0.2412
    1OPC    GL170104  15.919  17.842   2.965 -0.0277  0.0222  0.2989
    1OPC    GL270105  16.183  17.877   3.141  0.3126 -0.0071 -0.2174
    1OPC    C1B70106  16.518  17.833   3.291 -0.1089  0.1437 -0.0810
    1OPC    D2B70107  16.834  17.527   3.470  0.0556  0.0271 -0.2080
    1OPC    C3B70108  16.811  17.207   3.741 -0.4694 -0.0172  0.2177
    1OPC    C4B70109  16.925  17.066   4.081 -0.0319  0.2359  0.1088
    1OPC    NC370110  26.917   3.031   3.335  0.0206  0.1464  0.0518
    1OPC    PO470111  26.764   2.747   3.725 -0.0903 -0.0520 -0.1045
    1OPC    GL170112  26.617   2.706   4.130  0.1119 -0.1364  0.2189
    1OPC    GL270113  26.450   2.610   4.335  0.0646  0.6256 -0.0627
    1OPC    C1B70114  26.365   2.328   4.706 -0.0752 -0.1554  0.3464
    1OPC    D2B70115  26.289   2.183   5.130 -0.1064 -0.1625  0.0024
    1OPC    C3B70116  26.234   1.798   5.110 -0.1835  0.0033 -0.1338
    1OPC    C4B70117  26.078   1.424   5.362  0.0604  0.1387 -0.0005
    1OPC    NC370118  20.854   0.225   2.425  0.1485  0.2188  0.1989
    1OPC    PO470119  21.106   0.698   2.584 -0.1348 -0.3793  0.2768
    1OPC    GL170120  21.262   0.802   2.970  0.0402 -0.0204  0.0965
    1OPC    GL270121  21.211   0.626   3.177  0.3975  0.1381 -0.0302
    1OPC    C1B70122  20.937   0.402   3.480  0.1169  0.0504 -0.1740
    1OPC    D2B70123  20.943   0.437   3.913 -0.3329  0.1741 -0.0779
    1OPC    C3B70124  21.026   0.787   4.200  0.1350  0.0005 -0.0261
    1OPC    C4B70125  21.094   0.975   4.510 -0.1069 -0.1302 -0.3076
    1OPC    NC370126  12.115   1.339   2.599  0.2881 -0.4443 -0.0428
    1OPC    PO470127  12.276   1.462   2.197 -0.2135  0.1137  0.0585
    1OPC    GL170128  12.427   1.787   2.492 -0.2607 -0.0969 -0.3106
    1OPC    GL270129  12.555   2.038   2.721 -0.0858 -0.1264  0.0786
    1OPC    C1B70130  12.741   2.259   3.015 -0.0616  0.0026 -0.3002
    1OPC    D2B70131  12.968   2.416   3.338 -0.0299  0.1388  0.1490
    1OPC    C3B70132  12.733   2.266   3.702  0.0849 -0.3945  0.0506
    1OPC    C4B70133  12.745   2.237   4.124  0.0692 -0.0498 -0.0814
    1OPC    NC370134   4.044   8.465   3.301  0.1391 -0.3169 -0.1417
    1OPC    PO470135   3.839   8.838   3.233  0.2348  0.1702 -0.3276
    1OPC    GL170136   3.947   8.860   3.626  0.6123  0.1200 -0.0866
    1OPC    GL270137   4.172   8.960   3.920  0.1435  0.2053  0.2701
    1OPC    C1B70138   4.425   8.985   4.331  0.1050  0.5293  0.0236
    1OPC    D2B70139   4.466   9.287   4.692  0.2982  0.0898 -0.0358
    1OPC    C3B70140   4.767   9.445   4.758 -0.0246 -0.3194 -0.2729
    1OPC    C4B70141   5.047   9.514   5.075 -0.0991 -0.0726 -0.0000
    1OPC    NC370142  10.464  14.278   2.458 -0.0906 -0.2583  0.0567
    1OPC    PO470143  10.154  13.986   2.509 -0.1259 -0.1070  0.2305
    1OPC    GL170144   9.890  14.037   2.800  0.4798 -0.1484 -0.0632
    1OPC    GL270145   9.720  14.076   2.996  0.2624  0.0178 -0.0020
    1OPC    C1B70146   9.864  14.115   3.438  0.2679  0.1257 -0.2275
    1OPC    D2B70147  10.100  14.112   3.719  0.3244 -0.1676 -0.0778
    1OPC    C3B70148  10.069  13.786   4.054  0.1360 -0.4999 -0.1567
    1OPC    C4B70149   9.725  13.506   4.261 -0.2660  0.0579 -0.2346
    1OPC    NC370150  28.668   3.630   3.768 -0.0858  0.1626  0.4163
    1OPC    PO470151  28.271   3.583   3.733 -0.0481 -0.0182  0.1207
    1OPC    GL170152  28.138   3.642   4.197 -0.3322  0.0950  0.0237
    1OPC    GL270153  28.146   3.724   4.518 -0.1090 -0.0906  0.1106
    1OPC    C1B70154  28.066   3.603   4.921 -0.1049 -0.0643  0.0066
    1OPC    D2B70155  28.012   3.707   5.299  0.0031  0.1838  0.0296
    1OPC    C3B70156  27.676   3.800   5.602 -0.2270  0.3846  0.1225
    1OPC    C4B70157  27.429   3.537   5.766  0.0376 -0.2943  0.0844
    1OPC    NC370158  28.678  28.272   4.039  0.2036 -0.2593 -0.0435
    1OPC    PO470159  28.319  28.066   4.065 -0.0057 -0.1264 -0.2175
    1OPC    GL170160  27.996  28.049   4.273 -0.2261 -0.0745 -0.0707
    1OPC    GL270161  27.831  27.848   4.459 -0.0382 -0.0589 -0.1139
    1OPC    C1B70162  27.644  27.528   4.694  0.2530  0.0061  0.1920
    1OPC    D2B70163  27.482  27.490   5.143 -0.0891  0.1468  0.1298
    1OPC    C3B70164  27.111  27.402   5.391 -0.0738  0.3269 -0.0180
    1OPC    C4B70165  26.647  27.303   5.541 -0.5502  0.0637 -0.2304
    1OPC    NC370166  21.721  16.667   2.908 -0.0620  0.3800 -0.0505
    1OPC    PO470167  21.686  16.902   2.623  0.2141  0.1885 -0.0780
    1OPC    GL170168  21.447  17.101   3.018  0.1636  0.0679 -0.1715
    1OPC    GL270169  21.510  17.360   3.247 -0.3731 -0.1880  0.1285
    1OPC    C1B70170  21.326  17.188   3.693  0.0471 -0.1075  0.0566
    1OPC    D2B70171  21.605  17.129   4.100  0.1279  0.2037 -0.1781
    1OPC    C3B70172  21.420  16.839   4.306 -0.1532 -0.0295 -0.2987
    1OPC    C4B70173  21.119  16.524   4.437  0.0971  0.1082 -0.0715
    1OPC    NC370174   8.115  12.717   1.922 -0.1564  0.0121  0.0550
    1OPC    PO470175   7.869  12.365   2.032 -0.1772  0.0887  0.0491
    1OPC    GL170176   7.891  12.083   2.289 -0.1116 -0.3814 -0.0129
    1OPC    GL270177   7.975  12.059   2.545 -0.2866  0.0218  0.0024
    1OPC    C1B70178   7.834  11.849   2.964 -0.0106 -0.1706  0.1217
    1OPC    D2B70179   8.026  11.688   3.364 -0.1603  0.3404 -0.2425
    1OPC    C3B70180   8.032  11.350   3.643  0.1593 -0.1658  0.0430
    1OPC    C4B70181   8.119  11.195   4.129 -0.2580  0.0255  0.1779
    1OPC    NC370182  18.967  25.951   3.044 -0.0015 -0.0398  0.0146
    1OPC    PO470183  19.068  25.614   2.904 -0.2614  0.2032  0.1166
    1OPC    GL170184  19.252  25.518   3.288 -0.1840  0.0042 -0.0516
    1OPC    GL270185  19.193  25.502   3.579  0.0701  0.1322 -0.2267
    1OPC    C1B70186  19.079  25.487   4.034  0.0925  0.0377 -0.0395
    1OPC    D2B70187  18.855  25.316   4.299 -0.2294  0.1038 -0.1862
    1OPC    C3B70188  18.696  25.434   4.624  0.2200 -0.1907 -0.0580
    1OPC    C4B70189  18.638  25.257   5.008  0.2499 -0.0641  0.0909
    1OPC    NC370190  21.296   9.122   1.482 -0.0971  0.1421  0.0864
    1OPC    PO470191  21.266   8.807   1.694 -0.1338  0.0772 -0.3519
    1OPC    GL170192  21.113   8.556   1.970  0.1936 -0.0229 -0.3001
    1OPC    GL270193  21.038   8.471   2.250 -0.0793 -0.1365  0.2567
    1OPC    C1B70194  21.057   8.428   2.747 -0.0276 -0.0965 -0.2406
    1OPC    D2B70195  20.716   8.672   2.899  0.0504  0.1517  0.0704
    1OPC    C3B70196  20.699   8.647   3.297  0.0242  0.0486 -0.3118
    1OPC    C4B70197  20.450   8.828   3.742 -0.0676 -0.0436 -0.1197
    1OPC    NC370198   7.607  22.993   3.565  0.0142 -0.0329 -0.1552
    1OPC    PO470199   7.458  23.433   3.483  0.1558  0.3415 -0.1524
    1OPC    GL170200   7.279  23.355   3.830  0.1148 -0.4170 -0.1160
    1OPC    GL270201   7.273  23.181   4.065  0.2174 -0.4706 -0.1120
    1OPC    C1B70202   7.352  23.061   4.484  0.0707  0.0705 -0.0739
    1OPC    D2B70203   7.390  22.601   4.699  0.2172 -0.1454 -0.2103
    1OPC    C3B70204   7.061  22.428   4.832  0.0041  0.1865  0.1132
    1OPC    C4B70205   6.647  22.317   4.806 -0.0462  0.3059 -0.0257
    1OPC    NC370206   6.650  21.533   2.918 -0.2934  0.2300 -0.3412
    1OPC    PO470207   6.097  21.580   2.953 -0.0208 -0.1265 -0.3456
    1OPC    GL170208   5.838  21.357   3.251 -0.1344  0.2206  0.2882
    1OPC    GL270209   5.573  21.301   3.568 -0.1406  0.3913 -0.3931
    1OPC    C1B70210   5.409  21.505   3.969  0.0527 -0.2690  0.1141
    1OPC    D2B70211   5.265  21.512   4.394 -0.1608  0.2879  0.0923
    1OPC    C3B70212   5.247  21.028   4.492  0.0498 -0.0613  0.1285
    1OPC    C4B70213   5.217  20.775   4.939 -0.4319 -0.4810  0.0123
    1OPC    NC370214   5.055  15.182   2.776 -0.0014 -0.0019 -0.0100
    1OPC    PO470215   5.190  14.934   2.483 -0.0241 -0.0635 -0.1793
    1OPC    GL170216   5.495  14.720   2.745  0.0864 -0.0784 -0.0103
    1OPC    GL270217   5.610  14.532   3.013 -0.0028  0.0310 -0.0227
    1OPC    C1B70218   5.567  14.489   3.471  0.0363 -0.2250  0.1990
    1OPC    D2B70219   5.594  14.628   3.923  0.0201 -0.0186 -0.0107
    1OPC    C3B70220   5.737  14.442   4.289 -0.0102 -0.2460  0.0730
    1OPC    C4B70221   5.806  14.604   4.712  0.2754  0.1485 -0.0521
    1OPC    NC370222  21.264  10.070   1.663 -0.0069  0.1073  0.2701
    1OPC    PO470223  21.434   9.738   1.834 -0.1071  0.0302  0.2042
    1OPC    GL170224  21.294   9.356   1.904 -0.0911  0.0892 -0.0671
    1OPC    GL270225  21.043   9.335   2.191  0.3100 -0.0750 -0.0326
    1OPC    C1B70226  20.856   9.515   2.576 -0.0938 -0.0542  0.0942
    1OPC    D2B70227  20.756   9.470   3.000  0.1995  0.2409  0.1975
    1OPC    C3B70228  20.773   9.110   3.152 -0.1371  0.4759  0.0954
    1OPC    C4B70229  21.129   8.884   3.140 -0.0762  0.2183  0.0775
    1OPC    NC370230  19.842  18.668   2.309  0.2835  0.1949 -0.1188
    1OPC    PO470231  19.700  18.268   2.559 -0.5703 -0.1504  0.0697
    1OPC    GL170232  19.644  18.505   2.979  0.2491 -0.0086  0.0126
    1OPC    GL270233  19.724  18.698   3.140  0.0864 -0.1268 -0.3182
    1OPC    C1B70234  19.840  19.106   3.297  0.2005 -0.2088 -0.1795
    1OPC    D2B70235  19.988  19.462   3.094 -0.0298 -0.1695 -0.0542
    1OPC    C3B70236  20.263  19.749   3.336 -0.3030  0.0275  0.3515
    1OPC    C4B70237  20.629  19.861   3.633 -0.0301 -0.0631  0.0992
    1OPC    NC370238  10.735   3.734   2.652  0.2751  0.2966  0.0386
    1OPC    PO470239  11.089   3.694   2.843  0.0650 -0.3457  0.0997
    1OPC    GL170240  11.131   3.386   3.184 -0.1674 -0.1903 -0.5617
    1OPC    GL270241  11.196   3.102   3.301 -0.0721 -0.0719  0.2234
    1OPC    C1B70242  11.435   2.774   3.524 -0.2061 -0.0175 -0.2428
    1OPC    D2B70243  11.557   2.505   3.779 -0.1761 -0.0588 -0.0749
    1OPC    C3B70244  11.589   2.549   4.195 -0.0832 -0.1813 -0.1661
    1OPC    C4B70245  11.739   2.535   4.622 -0.1585  0.2983  0.1322
    1OPC    NC370246   3.794  27.125   3.512  0.2125  0.1271 -0.0739
    1OPC    PO470247   3.977  27.028   3.966 -0.0578 -0.1581 -0.0395
    1OPC    GL170248   4.036  26.795   4.283  0.0670  0.1970  0.0697
    1OPC    GL270249   4.208  26.636   4.469 -0.0526  0.1334 -0.1228
    1OPC    C1B70250   4.307  26.912   4.810  0.3354  0.4002 -0.0071
    1OPC    D2B70251   4.418  26.822   5.280  0.2695  0.1755  0.1086
    1OPC    C3B70252   4.332  26.481   5.495 -0.3594  0.2724 -0.2133
    1OPC    C4B70253   4.095  26.365   5.870  0.0112 -0.2259 -0.0714
    1OPC    NC370254  20.045  26.599   2.718  0.1179 -0.0904 -0.0652
    1OPC    PO470255  19.892  26.408   3.108  0.2415  0.1598  0.5036
    1OPC    GL170256  20.058  26.486   3.549  0.4767 -0.1690  0.0944
    1OPC    GL270257  20.229  26.536   3.755  0.0324 -0.0825  0.3997
    1OPC    C1B70258  20.289  26.439   4.097  0.2550  0.5077 -0.0434
    1OPC    D2B70259  20.344  26.020   4.258  0.0605 -0.2281  0.0081
    1OPC    C3B70260  20.051  25.799   4.093  0.3433  0.0676  0.2668
    1OPC    C4B70261  20.030  25.432   3.896  0.0933 -0.0908  0.1105
    1OPC    NC370262  27.993  20.310   3.338  0.2211 -0.1308 -0.0050
    1OPC    PO470263  28.309  20.022   3.432 -0.0002 -0.1606 -0.0944
    1OPC    GL170264  28.285  20.351   3.732 -0.2335  0.0221 -0.1508
    1OPC    GL270265  28.178  20.428   4.076 -0.3079  0.0042 -0.0721
    1OPC    C1B70266  28.087  20.378   4.525  0.2795  0.2493  0.1017
    1OPC    D2B70267  28.009  20.488   4.929  0.2396 -0.1586  0.0865
    1OPC    C3B70268  28.016  20.194   5.284 -0.1594  0.0441 -0.1126
    1OPC    C4B70269  27.968  19.878   5.537  0.3084  0.0721  0.0438
    1OPC    NC370270  10.684   4.629   2.372 -0.1059  0.0177 -0.0004
    1OPC    PO470271  10.653   4.172   2.359  0.0928 -0.0440  0.1500
    1OPC    GL170272  11.026   4.367   2.595  0.0562  0.1060 -0.3631
    1OPC    GL270273  11.310   4.218   2.731  0.0917 -0.3146 -0.0858
    1OPC    C1B70274  11.642   4.338   2.866 -0.1147  0.0109  0.3680
    1OPC    D2B70275  12.036   4.196   3.063 -0.4034  0.1378  0.1497
    1OPC    C3B70276  12.116   3.693   3.075 -0.0929 -0.0623  0.1645
    1OPC    C4B70277  12.214   3.293   3.109 -0.1851  0.2079 -0.1150
    1OPC    NC370278   8.907  17.741   2.214 -0.0311 -0.0254 -0.0925
    1OPC    PO470279   8.557  17.924   2.405 -0.3531 -0.0382  0.0329
    1OPC    GL170280   8.731  18.345   2.657 -0.0835  0.4839 -0.1177
    1OPC    GL270281   8.910  18.242   2.911 -0.4428  0.1559 -0.0989
    1OPC    C1B70282   9.086  17.877   2.878  0.1735 -0.2015  0.2577
    1OPC    D2B70283   9.413  17.647   3.063  0.1076  0.0291  0.3017
    1OPC    C3B70284   9.420  17.397   3.474 -0.5333 -0.1931 -0.0013
    1OPC    C4B70285   9.379  17.534   3.900  0.1606  0.1798 -0.2733
    1OPC    NC370286  22.337   3.981   2.400  0.0240  0.1594 -0.1226
    1OPC    PO470287  22.000   3.683   2.517  0.1891  0.0808 -0.0197
    1OPC    GL170288  21.964   3.975   2.908 -0.0429 -0.0278 -0.0451
    1OPC    GL270289  21.955   4.314   3.049 -0.0017 -0.4036 -0.0462
    1OPC    C1B70290  22.150   4.412   3.369 -0.0344  0.0622 -0.3889
    1OPC    D2B70291  22.368   4.367   3.693 -0.0585 -0.0743 -0.1308
    1OPC    C3B70292  22.358   4.387   4.136 -0.1861 -0.2871 -0.1245
    1OPC    C4B70293  22.269   4.203   4.548 -0.0245  0.3567  0.2918
    1OPC    NC370294  10.041  15.325   1.702 -0.2331  0.0766 -0.1172
    1OPC    PO470295  10.403  15.186   2.004  0.1671 -0.1166 -0.1335
    1OPC    GL170296  10.309  15.088   2.456  0.0939 -0.1617  0.0315
    1OPC    GL270297  10.174  14.972   2.733  0.0148 -0.2273  0.0159
    1OPC    C1B70298  10.113  14.860   3.159  0.3001 -0.3154  0.0808
    1OPC    D2B70299  10.074  14.513   3.304 -0.0354  0.1517 -0.1971
    1OPC    C3B70300   9.821  14.579   3.693  0.0423 -0.0660  0.2156
    1OPC    C4B70301   9.787  14.284   4.123  0.0768  0.1192 -0.2058
    1OPC    NC370302  17.621  23.232   2.245 -0.0365  0.0313 -0.4210
    1OPC    PO470303  17.753  23.520   2.476 -0.0864 -0.1145  0.2810
    1OPC    GL170304  18.129  23.668   2.765  0.0397  0.1836 -0.0097
    1OPC    GL270305  18.353  23.521   2.991 -0.0232 -0.0416  0.0161
    1OPC    C1B70306  18.347  23.406   3.412  0.0604  0.0021 -0.1415
    1OPC    D2B70307  18.378  23.442   3.870 -0.3127  0.2539  0.2053
    1OPC    C3B70308  18.128  23.198   4.150 -0.2062  0.2684  0.0122
    1OPC    C4B70309  18.277  22.797   4.403  0.1819  0.1862 -0.1307
    1OPC    NC370310   6.236  22.296   3.577 -0.1399  0.0252 -0.1901
    1OPC    PO470311   6.601  22.169   3.302  0.1295 -0.2229  0.1473
    1OPC    GL170312   6.721  21.920   3.736 -0.0813 -0.0763 -0.0007
    1OPC    GL270313   6.985  21.873   3.970  0.3230  0.0011  0.0907
    1OPC    C1B70314   7.192  21.806   4.383  0.2325  0.0200  0.0617
    1OPC    D2B70315   7.128  21.612   4.741 -0.1383 -0.0227  0.1123
    1OPC    C3B70316   6.778  21.858   4.902 -0.0392 -0.0277  0.0298
    1OPC    C4B70317   6.674  22.085   5.231 -0.3014  0.0072  0.1887
    1OPC    NC370318  19.601   9.587   1.229  0.1136 -0.1570 -0.0585
    1OPC    PO470319  19.528   9.243   1.572 -0.2297  0.1365  0.0967
    1OPC    GL170320  19.757   9.312   1.889  0.1134  0.3342  0.0086
    1OPC    GL270321  19.666   9.430   2.284  0.1291 -0.0711 -0.2061
    1OPC    C1B70322  19.758   9.592   2.645  0.2903  0.0894 -0.1504
    1OPC    D2B70323  19.557   9.558   3.031  0.0480 -0.0454  0.1519
    1OPC    C3B70324  19.231   9.191   3.115 -0.0333  0.0999 -0.0532
    1OPC    C4B70325  19.271   8.840   3.349 -0.3475 -0.1816 -0.0963
    1OPC    NC370326  12.497  22.605   2.712  0.0177 -0.3095  0.5031
    1OPC    PO470327  12.835  22.718   3.057  0.1498 -0.5681  0.1621
    1OPC    GL170328  12.953  22.601   3.372  0.0715 -0.0486  0.1363
    1OPC    GL270329  12.999  22.478   3.680 -0.0019 -0.0323  0.1439
    1OPC    C1B70330  13.245  22.430   3.952  0.1937  0.0065  0.2085
    1OPC    D2B70331  13.261  22.282   4.398 -0.1607 -0.0475  0.1739
    1OPC    C3B70332  13.469  22.038   4.603 -0.2528 -0.4107 -0.0983
    1OPC    C4B70333  13.782  21.821   4.793  0.0503  0.3067  0.1439
    1OPC    NC370334   7.361   3.738   3.721  0.4175 -0.2987  0.2195
    1OPC    PO470335   7.074   3.469   3.400  0.0956  0.2701  0.0238
    1OPC    GL170336   6.931   3.558   3.857 -0.2193 -0.0231  0.1374
    1OPC    GL270337   6.889   3.488   4.110  0.2488 -0.0627 -0.0051
    1OPC    C1B70338   6.902   3.518   4.520 -0.0417 -0.0416 -0.1331
    1OPC    D2B70339   7.030   3.218   4.741 -0.1575  0.0404  0.0896
    1OPC    C3B70340   7.080   3.320   5.239 -0.2314  0.0920 -0.1524
    1OPC    C4B70341   7.369   3.426   5.578 -0.4317  0.0234 -0.2348
    1OPC    NC370342   4.899   4.092   3.451  0.2035  0.0552 -0.1576
    1OPC    PO470343   4.536   4.085   3.760  0.2501  0.1232 -0.2530
    1OPC    GL170344   4.514   4.310   4.244  0.1747  0.0445 -0.1430
    1OPC    GL270345   4.323   4.406   4.500 -0.1048  0.0473 -0.0644
    1OPC    C1B70346   4.377   4.529   4.964 -0.3588 -0.1112 -0.0390
    1OPC    D2B70347   4.600   4.746   5.339  0.1082  0.2468 -0.0260
    1OPC    C3B70348   4.823   4.479   5.553  0.0332  0.3973  0.1486
    1OPC    C4B70349   5.211   4.522   5.560  0.1133  0.0061 -0.3960
    1OPC    NC370350  10.355   4.355   3.178 -0.0014  0.2196  0.5012
    1OPC    PO470351  10.495   4.123   2.850  0.1807 -0.0945 -0.0196
    1OPC    GL170352  10.925   4.156   3.040  0.1024  0.1295  0.0131
    1OPC    GL270353  11.169   4.113   3.225  0.1974  0.0459 -0.1375
    1OPC    C1B70354  11.305   3.662   3.548  0.1015 -0.2453  0.1891
    1OPC    D2B70355  11.588   3.316   3.609  0.0902  0.2505 -0.1544
    1OPC    C3B70356  11.566   3.007   3.951 -0.3529 -0.1875 -0.3231
    1OPC    C4B70357  11.962   2.783   3.930 -0.1836 -0.1117 -0.2769
    1OPC    NC370358  10.729  17.148   2.717 -0.3496  0.1327  0.0843
    1OPC    PO470359  10.360  16.874   2.852  0.0859 -0.2221  0.3656
    1OPC    GL170360  10.018  16.677   2.951 -0.0611  0.1695  0.3266
    1OPC    GL270361   9.728  16.598   2.956  0.2219  0.0975  0.1061
    1OPC    C1B70362   9.270  16.581   3.184  0.0881 -0.3441 -0.3390
    1OPC    D2B70363   8.924  16.711   3.455 -0.0043  0.1187 -0.0995
    1OPC    C3B70364   8.927  16.453   3.850 -0.0651  0.0666 -0.2465
    1OPC    C4B70365   9.147  16.179   4.059  0.2091  0.0566 -0.2467
    1OPC    NC370366  27.959   1.953   4.135 -0.1647 -0.1731  0.0831
    1OPC    PO470367  28.079   1.602   4.190  0.2051  0.0749 -0.1777
    1OPC    GL170368  28.219   1.708   4.523  0.0758 -0.1649 -0.1028
    1OPC    GL270369  28.227   1.692   4.822  0.1281  0.3644  0.3658
    1OPC    C1B70370  28.355   1.468   5.247 -0.1864 -0.1042 -0.2692
    1OPC    D2B70371  28.215   1.374   5.459  0.2536  0.0237  0.0551
    1OPC    C3B70372  28.504   1.201   5.697 -0.0216 -0.2390 -0.2975
    1OPC    C4B70373  28.730   1.045   5.968 -0.0309 -0.2658 -0.1985
    1OPC    NC370374  21.303  12.674   2.309  0.2044  0.1580  0.0320
    1OPC    PO470375  21.406  13.010   2.395 -0.0359 -0.3039  0.1595
    1OPC    GL170376  21.400  13.171   2.768 -0.0746  0.0476 -0.0917
    1OPC    GL270377  21.160  13.247   2.964  0.0485  0.0445  0.0484
    1OPC    C1B70378  20.847  13.544   3.141 -0.0883  0.0298  0.1309
    1OPC    D2B70379  20.759  13.429   3.580  0.0931  0.0906  0.0337
    1OPC    C3B70380  20.889  13.218   3.871  0.0335 -0.1372 -0.0496
    1OPC    C4B70381  20.652  13.350   4.193  0.3182 -0.4720  0.2196
    1OPC    NC370382  25.282  22.878   3.266  0.1274  0.0585 -0.1790
    1OPC    PO470383  25.310  22.719   3.682 -0.1365 -0.0619  0.2772
    1OPC    GL170384  25.137  22.371   3.902 -0.0232  0.1194  0.2077
    1OPC    GL270385  25.191  21.990   3.895  0.0017  0.2589  0.1931
    1OPC    C1B70386  25.525  21.706   3.983  0.1994  0.1070  0.1243
    1OPC    D2B70387  25.710  21.495   4.392 -0.0672 -0.0815  0.3158
    1OPC    C3B70388  25.610  21.384   4.686  0.0841  0.1169  0.2535
    1OPC    C4B70389  25.476  21.269   4.967  0.2101  0.1355  0.1016
    1OPC    NC370390  20.988   3.872   2.315 -0.1226 -0.0346  0.1741
    1OPC    PO470391  21.121   3.462   2.578 -0.4822 -0.1099 -0.1182
    1OPC    GL170392  20.968   3.446   2.992 -0.2263 -0.0256 -0.0130
    1OPC    GL270393  20.857   3.492   3.272  0.2241  0.1486  0.1671
    1OPC    C1B70394  20.849   3.500   3.694 -0.1773  0.1573 -0.3737
    1OPC    D2B70395  20.854   3.280   4.049 -0.1529  0.0274  0.1865
    1OPC    C3B70396  21.158   3.022   4.234  0.3276  0.0703 -0.0520
    1OPC    C4B70397  21.309   2.740   4.569  0.4828 -0.0861  0.2933
    1OPC    NC370398   7.688  23.801   2.824  0.1793 -0.1241 -0.0293
    1OPC    PO470399   7.840  23.756   3.203 -0.2925  0.1788  0.0510
    1OPC    GL170400   7.869  23.663   3.653  0.0191 -0.1401 -0.0504
    1OPC    GL270401   7.772  23.404   3.916  0.0963 -0.1808  0.3190
    1OPC    C1B70402   7.599  23.506   4.222 -0.0156  0.1183 -0.0060
    1OPC    D2B70403   7.205  23.633   4.419 -0.1077  0.1442  0.1307
    1OPC    C3B70404   6.893  23.248   4.510  0.2820 -0.0285  0.1450
    1OPC    C4B70405   6.650  23.030   4.103  0.0047 -0.0491 -0.1857
    1OPC    NC370406  28.452   9.438   3.510  0.1203 -0.2666 -0.2426
    1OPC    PO470407  28.854   9.223   3.584  0.3367 -0.2963 -0.1217
    1OPC    GL170408  29.193   9.156   3.854 -0.2881  0.5169 -0.0627
    1OPC    GL270409  29.376   9.184   4.188  0.0268  0.1444 -0.0801
    1OPC    C1B70410  29.539   9.119   4.483 -0.0943 -0.0275  0.2798
    1OPC    D2B70411  29.518   9.114   4.929  0.1921 -0.2504 -0.1729
    1OPC    C3B70412  29.933   8.950   5.132  0.2330  0.3100  0.1977
    1OPC    C4B70413  30.020   8.749   5.553 -0.1061  0.1484  0.0805
    1OPC    NC370414   6.777  28.059   3.981 -0.1891  0.3428  0.2290
    1OPC    PO470415   6.711  27.592   3.907  0.1999 -0.0043  0.2830
    1OPC    GL170416   6.804  27.314   4.246 -0.0982 -0.0168 -0.0422
    1OPC    GL270417   6.978  27.113   4.374  0.1325 -0.3562 -0.1016
    1OPC    C1B70418   7.235  27.115   4.693  0.0309 -0.2058  0.0798
    1OPC    D2B70419   7.158  27.225   5.247 -0.2178 -0.1702  0.0653
    1OPC    C3B70420   7.594  27.375   5.504  0.0101 -0.0032  0.1129
    1OPC    C4B70421   7.901  27.602   5.763  0.0040  0.1902 -0.1200
    1OPC    NC370422  12.997  20.195   2.280 -0.3899  0.2888 -0.0235
    1OPC    PO470423  13.410  20.106   2.505  0.1470 -0.2657  0.0116
    1OPC    GL170424  13.451  20.482   2.833  0.0071 -0.0878 -0.2428
    1OPC    GL270425  13.477  20.665   3.075 -0.1136  0.2582  0.5196
    1OPC    C1B70426  13.541  20.640   3.554  0.1524 -0.0898  0.2339
    1OPC    D2B70427  13.887  20.459   3.661  0.1275  0.3033 -0.2175
    1OPC    C3B70428  14.084  20.442   4.067  0.1267 -0.2549  0.1872
    1OPC    C4B70429  14.018  20.265   4.503 -0.0024  0.1881 -0.0883
    1OPC    NC370430  24.915  26.377   3.284 -0.0075  0.2085 -0.4400
    1OPC    PO470431  25.183  26.295   3.692  0.3443 -0.0429  0.1216
    1OPC    GL170432  25.028  26.682   3.834  0.1239  0.0737 -0.0516
    1OPC    GL270433  25.103  26.930   3.950 -0.0843  0.0758  0.2224
    1OPC    C1B70434  25.141  27.112   4.268 -0.1836 -0.0850 -0.2161
    1OPC    D2B70435  25.119  27.042   4.758 -0.0271 -0.0764  0.1105
    1OPC    C3B70436  24.930  27.239   5.080  0.0706 -0.2763  0.1544
    1OPC    C4B70437  24.828  27.491   5.462  0.0902  0.1029 -0.1548
    1OPC    NC370438  28.310   0.315   3.062 -0.3144 -0.1557  0.3249
    1OPC    PO470439  28.329   0.399   3.553  0.0415 -0.0232 -0.1769
    1OPC    GL170440  28.045   0.575   3.896 -0.1115 -0.0784 -0.0473
    1OPC    GL270441  28.092   0.549   4.194  0.0275 -0.1584 -0.1391
    1OPC    C1B70442  28.083   0.682   4.523 -0.1714  0.1582  0.1901
    1OPC    D2B70443  27.799   0.754   4.797  0.1361  0.3697  0.1082
    1OPC    C3B70444  27.811   0.630   5.177 -0.0234  0.1000  0.0598
    1OPC    C4B70445  27.603   0.549   5.475 -0.0402  0.0717 -0.2181
    1OPC    NC370446  12.190   3.232   2.303 -0.1894  0.1300 -0.3429
    1OPC    PO470447  12.209   3.755   2.127  0.2718 -0.1520 -0.2109
    1OPC    GL170448  12.473   3.851   2.322 -0.2549  0.0235  0.0918
    1OPC    GL270449  12.463   3.963   2.741 -0.2324 -0.1747  0.3391
    1OPC    C1B70450  12.469   4.027   3.277 -0.0011  0.0670 -0.1441
    1OPC    D2B70451  12.136   4.166   3.572  0.1676 -0.3251 -0.0272
    1OPC    C3B70452  12.079   4.302   3.933  0.0519 -0.0653  0.0493
    1OPC    C4B70453  11.941   4.253   4.256  0.0020 -0.0080  0.1660
    1OPC    NC370454  22.451  13.114   2.982 -0.0910  0.2323 -0.0357
    1OPC    PO470455  22.816  13.288   3.158  0.4152  0.2629 -0.0844
    1OPC    GL170456  22.889  13.491   3.443 -0.0269  0.1559  0.0079
    1OPC    GL270457  22.692  13.705   3.668 -0.2695 -0.1221  0.0930
    1OPC    C1B70458  22.585  13.874   4.075 -0.1216  0.0276 -0.3795
    1OPC    D2B70459  22.303  13.898   4.364 -0.1682  0.1034 -0.0863
    1OPC    C3B70460  21.946  14.145   4.340  0.2767  0.2706 -0.0476
    1OPC    C4B70461  21.542  14.315   4.215 -0.1423 -0.1042 -0.1736
    1OPC    NC370462   9.470  16.003   1.905 -0.2470 -0.1639  0.3059
    1OPC    PO470463   9.534  15.621   2.163  0.1956 -0.1303  0.1410
    1OPC    GL170464   9.496  15.702   2.611 -0.1024 -0.1224  0.1142
    1OPC    GL270465   9.305  15.880   2.750 -0.0113 -0.0560 -0.1241
    1OPC    C1B70466   9.323  16.091   3.107 -0.1140  0.0435 -0.1556
    1OPC    D2B70467   9.298  16.105   3.547  0.0478 -0.1206  0.0884
    1OPC    C3B70468   9.249  15.703   3.815  0.3425 -0.0747 -0.1045
    1OPC    C4B70469   8.986  15.438   4.071  0.1901 -0.0599  0.2213
    1OPC    NC370470  25.745  20.266   2.821  0.2316  0.1566  0.1039
    1OPC    PO470471  25.697  20.122   3.183 -0.0144  0.2009 -0.2733
    1OPC    GL170472  25.587  19.928   3.489 -0.0792  0.1378 -0.3398
    1OPC    GL270473  25.145  19.923   3.773  0.1137  0.0645 -0.2133
    1OPC    C1B70474  24.809  19.882   4.066  0.0356  0.0073 -0.1769
    1OPC    D2B70475  24.598  19.520   4.264 -0.3269  0.0906  0.0459
    1OPC    C3B70476  24.461  19.676   4.643 -0.1065 -0.2155 -0.4321
    1OPC    C4B70477  24.300  19.937   5.024  0.4928  0.1538  0.3302
    1OPC    NC370478  23.318  22.007   3.353  0.2328 -0.0128 -0.1837
    1OPC    PO470479  22.968  21.692   3.475  0.2015 -0.0010 -0.1318
    1OPC    GL170480  23.060  21.394   3.787  0.1819  0.1876  0.5058
    1OPC    GL270481  23.291  21.149   3.841  0.4337 -0.2058 -0.4591
    1OPC    C1B70482  23.383  20.947   4.299  0.1414  0.0410  0.2303
    1OPC    D2B70483  23.678  20.606   4.534  0.2140  0.1930  0.0602
    1OPC    C3B70484  23.761  20.440   4.994  0.1968  0.0676 -0.0381
    1OPC    C4B70485  23.766  20.283   5.408 -0.3202  0.1094 -0.1445
    1OPC    NC370486   8.160  19.793   2.876 -0.0329  0.0018  0.0305
    1OPC    PO470487   8.611  19.832   2.923 -0.0956  0.1353  0.1405
    1OPC    GL170488   8.474  20.047   3.252  0.0792 -0.0801  0.1852
    1OPC    GL270489   8.310  20.124   3.523  0.2406 -0.2627  0.2313
    1OPC    C1B70490   7.910  20.051   3.752  0.0005  0.0196 -0.0063
    1OPC    D2B70491   7.528  19.937   4.034 -0.0925 -0.0542 -0.0218
    1OPC    C3B70492   7.716  19.825   4.473 -0.0932  0.2387  0.3081
    1OPC    C4B70493   7.683  19.583   4.843  0.1466 -0.0841  0.0143
    1OPC    NC370494   0.068  14.469   3.109  0.0946 -0.3749  0.0235
    1OPC    PO470495   0.339  14.767   3.324  0.0153 -0.0831 -0.0021
    1OPC    GL170496   0.311  14.755   3.770 -0.0231  0.1238 -0.2015
    1OPC    GL270497   0.610  14.795   3.912 -0.1917  0.0978 -0.0535
    1OPC    C1B70498   0.797  14.641   4.318  0.0505 -0.1193  0.0344
    1OPC    D2B70499   0.703  14.546   4.625  0.0619  0.1586 -0.3603
    1OPC    C3B70500   0.984  14.439   4.943  0.2371 -0.0718  0.1455
    1OPC    C4B70501   0.946  14.079   5.187 -0.1849 -0.3050 -0.0724
    1OPC    NC370502   7.533   6.145   3.023 -0.3082 -0.0104  0.0433
    1OPC    PO470503   7.137   6.332   3.182 -0.0989  0.0740 -0.1477
    1OPC    GL170504   7.152   6.747   3.281  0.0184  0.0342 -0.5150
    1OPC    GL270505   7.216   6.913   3.478  0.0669  0.0622  0.2573
    1OPC    C1B70506   7.208   6.791   3.896 -0.3258  0.0469  0.2054
    1OPC    D2B70507   7.225   6.687   4.289  0.3171 -0.2282  0.1057
    1OPC    C3B70508   7.030   6.987   4.578  0.1849 -0.1434  0.0660
    1OPC    C4B70509   6.621   7.295   4.526 -0.2801  0.0381 -0.2506
    1OPC    NC370510  20.634   9.577   1.880 -0.0628 -0.0992 -0.0621
    1OPC    PO470511  20.758  10.030   1.554  0.2990 -0.0823  0.1208
    1OPC    GL170512  20.598  10.068   1.973  0.1452 -0.0770  0.1530
    1OPC    GL270513  20.509   9.902   2.251  0.2695  0.1132 -0.2346
    1OPC    C1B70514  20.503   9.811   2.705 -0.1494 -0.1848 -0.0204
    1OPC    D2B70515  20.630  10.029   3.022 -0.0593 -0.0593  0.1049
    1OPC    C3B70516  20.802   9.857   3.395 -0.1463  0.2895  0.0656
    1OPC    C4B70517  20.757   9.820   3.766  0.0972 -0.0512 -0.3136
    1OPC    NC370518   2.913  15.872   3.069 -0.2552 -0.0314  0.1800
    1OPC    PO470519   2.908  15.408   2.983 -0.1142  0.2062 -0.1413
    1OPC    GL170520   2.761  15.540   3.436 -0.1064 -0.0081 -0.0548
    1OPC    GL270521   2.675  15.668   3.668  0.1128  0.0717  0.2153
    1OPC    C1B70522   2.688  15.691   4.079 -0.3417 -0.1921 -0.0095
    1OPC    D2B70523   2.923  15.543   4.431  0.0800  0.0600 -0.0094
    1OPC    C3B70524   3.094  15.823   4.758  0.4530  0.1253  0.0419
    1OPC    C4B70525   3.166  15.691   5.238 -0.0451 -0.1323 -0.0067
    1OPC    NC370526  15.628   2.533   2.113 -0.0794  0.1446  0.3963
    1OPC    PO470527  15.292   2.761   2.248  0.1004 -0.0403  0.2466
    1OPC    GL170528  15.565   3.003   2.402 -0.1152  0.2575 -0.0576
    1OPC    GL270529  15.678   3.223   2.505  0.1848  0.0234  0.1743
    1OPC    C1B70530  15.562   3.415   2.937  0.3259 -0.3016 -0.0944
    1OPC    D2B70531  15.694   3.505   3.352 -0.2963 -0.1074 -0.0853
    1OPC    C3B70532  15.679   3.708   3.729  0.2675 -0.0914 -0.0754
    1OPC    C4B70533  15.332   3.692   4.047  0.2725  0.3686 -0.2445
    1OPC    NC370534   7.490   2.236   3.369  0.1433 -0.2742  0.3173
    1OPC    PO470535   7.186   2.303   3.638  0.1481  0.2877 -0.2850
    1OPC    GL170536   7.282   2.255   4.062  0.4319  0.1404  0.1874
    1OPC    GL270537   7.486   2.356   4.327  0.4269 -0.2858 -0.3133
    1OPC    C1B70538   7.400   2.326   4.770 -0.2898 -0.2617  0.2597
    1OPC    D2B70539   7.370   2.259   5.213 -0.3943  0.0924  0.2669
    1OPC    C3B70540   7.792   2.104   5.235  0.2836  0.0995 -0.2678
    1OPC    C4B70541   8.183   1.942   5.320 -0.3819 -0.2628  0.0917
    1OPC    NC370542  11.711  20.569   2.300 -0.0397 -0.2122 -0.2695
    1OPC    PO470543  11.600  20.669   2.653 -0.2261 -0.0785 -0.2487
    1OPC    GL170544  11.817  20.647   3.116 -0.0578 -0.0580 -0.1140
    1OPC    GL270545  11.967  20.852   3.359  0.2642  0.2346 -0.0252
    1OPC    C1B70546  12.158  21.014   3.663 -0.0216 -0.0707  0.0388
    1OPC    D2B70547  12.372  21.122   4.100  0.0455  0.1370 -0.5354
    1OPC    C3B70548  12.748  21.420   3.975  0.1344 -0.0148 -0.3858
    1OPC    C4B70549  13.108  21.435   3.747  0.2635  0.1057 -0.2553
    1OPC    NC370550  24.445   6.729   3.223  0.0604 -0.0493  0.1035
    1OPC    PO470551  24.164   6.466   3.019 -0.2575  0.0908 -0.1476
    1OPC    GL170552  24.077   6.404   3.342  0.4211  0.2343  0.0519
    1OPC    GL270553  23.736   6.386   3.393 -0.1825 -0.2655 -0.2048
    1OPC    C1B70554  23.548   6.257   3.865 -0.4859  0.1874 -0.4148
    1OPC    D2B70555  23.089   6.262   3.934 -0.1351 -0.1448 -0.0142
    1OPC    C3B70556  23.135   6.163   4.379 -0.0694  0.3100 -0.3286
    1OPC    C4B70557  23.348   5.888   4.742 -0.1622 -0.2616 -0.0043
    1OPC    NC370558   1.909  20.079   3.189 -0.1093  0.1360 -0.2220
    1OPC    PO470559   1.709  19.925   3.530  0.1814 -0.0191 -0.0863
    1OPC    GL170560   1.845  19.848   3.978  0.3163 -0.1150  0.0956
    1OPC    GL270561   1.907  19.802   4.302  0.0238  0.2046 -0.1704
    1OPC    C1B70562   1.865  20.144   4.585  0.3441  0.0817 -0.1964
    1OPC    D2B70563   1.923  20.623   4.763 -0.1921  0.2520 -0.1780
    1OPC    C3B70564   2.275  20.624   5.057  0.3720  0.0497  0.2723
    1OPC    C4B70565   2.622  20.656   5.307 -0.0960  0.0913 -0.3852
    1OPC    NC370566  21.742  12.285   1.665 -0.0216  0.1804  0.1204
    1OPC    PO470567  21.516  12.172   2.135  0.2230  0.1006  0.0125
    1OPC    GL170568  21.337  12.183   2.595  0.0595 -0.1648 -0.2334
    1OPC    GL270569  21.329  12.297   2.910  0.0453 -0.4537 -0.2405
    1OPC    C1B70570  21.257  12.356   3.350  0.0779 -0.1167  0.1414
    1OPC    D2B70571  21.283  12.207   3.728 -0.1006  0.0182  0.1837
    1OPC    C3B70572  21.640  12.432   4.070  0.1856  0.0383  0.0848
    1OPC    C4B70573  21.621  12.700   4.472  0.1737  0.0653  0.1104
    1OPC    NC370574  12.548  27.906   2.416  0.1562 -0.0691 -0.1776
    1OPC    PO470575  12.571  28.371   2.645  0.0010 -0.1700 -0.0719
    1OPC    GL170576  12.766  28.671   3.035 -0.1294  0.2869 -0.0015
    1OPC    GL270577  12.758  28.706   3.319 -0.1256  0.0340  0.2568
    1OPC    C1B70578  13.091  28.822   3.575 -0.0713 -0.1771 -0.2305
    1OPC    D2B70579  13.206  28.716   3.970 -0.1083 -0.1125 -0.2312
    1OPC    C3B70580  12.938  28.761   4.320  0.1172 -0.0319  0.0615
    1OPC    C4B70581  12.537  28.886   4.336  0.1174  0.2139  0.2126
    1OPC    NC370582  20.661   1.906   3.051  0.1471 -0.0440  0.1026
    1OPC    PO470583  20.463   2.218   2.971  0.0461  0.0592  0.1946
    1OPC    GL170584  20.237   2.518   3.112  0.1133 -0.1160  0.0603
    1OPC    GL270585  20.240   2.754   3.317  0.3256  0.2860 -0.1544
    1OPC    C1B70586  19.963   2.910   3.622 -0.0361  0.2495 -0.2863
    1OPC    D2B70587  19.572   3.167   3.896 -0.1037 -0.2406  0.0992
    1OPC    C3B70588  19.582   3.466   4.280  0.0465  0.2018 -0.1613
    1OPC    C4B70589  19.466   3.436   4.733  0.0827  0.0307 -0.0479
    1OPC    NC370590  22.487   7.369   2.102  0.0570  0.0338 -0.0204
    1OPC    PO470591  22.511   6.946   2.197  0.0147 -0.1453 -0.0325
    1OPC    GL170592  22.283   6.623   2.415  0.2682  0.2961  0.1120
    1OPC    GL270593  22.151   6.408   2.702  0.1024  0.0582  0.0290
    1OPC    C1B70594  22.379   6.216   2.875  0.1906  0.1031 -0.1037
    1OPC    D2B70595  22.436   6.204   3.325  0.0481  0.1923 -0.3062
    1OPC    C3B70596  22.236   6.298   3.605 -0.1859 -0.4103 -0.1690
    1OPC    C4B70597  22.182   6.066   3.982  0.2494 -0.1467 -0.0268
    1OPC    NC370598  10.013  14.316   2.152  0.1640  0.0074  0.2229
    1OPC    PO470599  10.038  14.681   2.366  0.2316  0.2476  0.2642
    1OPC    GL170600  10.087  14.485   2.683  0.2804  0.0923 -0.2625
    1OPC    GL270601  10.282  14.298   2.924  0.2632 -0.0338  0.1317
    1OPC    C1B70602  10.434  14.136   3.297 -0.4393  0.0355 -0.2293
    1OPC    D2B70603  10.646  13.858   3.505  0.0136 -0.4242  0.0447
    1OPC    C3B70604  10.432  13.623   3.767  0.1578 -0.0797  0.1279
    1OPC    C4B70605  10.562  13.421   4.171  0.0285  0.0878  0.0056
    1OPC    NC370606  21.061  12.139   1.881 -0.4018 -0.1421  0.0115
    1OPC    PO470607  20.931  12.276   2.169 -0.1028 -0.2516  0.1399
    1OPC    GL170608  20.881  12.271   2.709  0.2314 -0.0808  0.0667
    1OPC    GL270609  20.834  12.317   3.025 -0.2275  0.0728 -0.1929
    1OPC    C1B70610  20.771  12.443   3.371 -0.0596  0.3131 -0.0670
    1OPC    D2B70611  20.602  12.813   3.685  0.0745 -0.0175  0.0523
    1OPC    C3B70612  20.630  12.874   4.119  0.2796  0.1240 -0.2278
    1OPC    C4B70613  20.586  12.915   4.654 -0.0358 -0.2389 -0.0124
    1OPC    NC370614  17.749   4.895   1.710  0.0206 -0.1636 -0.2814
    1OPC    PO470615  17.652   5.397   1.796  0.1091  0.1926  0.3173
    1OPC    GL170616  17.736   5.599   2.093 -0.3258 -0.1333 -0.0259
    1OPC    GL270617  17.575   5.795   2.238 -0.2504 -0.1081  0.1358
    1OPC    C1B70618  17.694   5.838   2.638 -0.1746  0.1280  0.0430
    1OPC    D2B70619  17.667   5.710   3.156 -0.0186  0.2242 -0.1163
    1OPC    C3B70620  18.075   5.708   3.297  0.0423  0.1679 -0.1313
    1OPC    C4B70621  18.425   5.447   3.357  0.0322 -0.0468  0.0074
    1OPC    NC370622  23.564  21.806   2.660 -0.1907  0.3922  0.0942
    1OPC    PO470623  23.670  21.788   3.110  0.1600 -0.1570 -0.0588
    1OPC    GL170624  23.701  21.722   3.492  0.0856  0.0321 -0.3046
    1OPC    GL270625  23.448  21.663   3.711 -0.2126  0.0769 -0.2717
    1OPC    C1B70626  23.546  21.572   4.075 -0.0008  0.0695  0.1232
    1OPC    D2B70627  23.404  21.373   4.492 -0.0046 -0.1900 -0.0042
    1OPC    C3B70628  23.614  21.043   4.696 -0.1200  0.3205  0.0996
    1OPC    C4B70629  23.724  21.263   4.951 -0.1358  0.1322  0.0653
    1OPC    NC370630  17.393   7.355   1.088  0.2460 -0.2100 -0.2105
    1OPC    PO470631  17.763   7.633   1.181  0.0690  0.4003 -0.0334
    1OPC    GL170632  17.616   7.702   1.584  0.0714  0.1643 -0.1472
    1OPC    GL270633  17.644   7.889   1.906 -0.4191 -0.1997 -0.2661
    1OPC    C1B70634  17.401   8.022   2.336 -0.1433 -0.2237  0.0587
    1OPC    D2B70635  17.442   8.125   2.784  0.1626  0.0128 -0.1803
    1OPC    C3B70636  17.300   8.020   3.171 -0.0186  0.1809 -0.0369
    1OPC    C4B70637  17.324   8.317   3.534 -0.1209 -0.2004 -0.2045
    1OPC    NC370638   4.425  23.907   3.636  0.0785 -0.1732 -0.2326
    1OPC    PO470639   4.020  24.203   3.617  0.4840  0.0182 -0.0532
    1OPC    GL170640   3.709  24.016   3.938 -0.0089  0.0970  0.0962
    1OPC    GL270641   3.672  23.915   4.168  0.2293 -0.1394 -0.2243
    1OPC    C1B70642   3.721  23.667   4.514  0.0661  0.2300  0.1488
    1OPC    D2B70643   4.009  23.287   4.694  0.0400  0.0254 -0.1512
    1OPC    C3B70644   4.123  23.169   5.107 -0.1486 -0.0731 -0.3117
    1OPC    C4B70645   4.028  23.418   5.433 -0.0449  0.2030 -0.2637
    1OPC    NC370646   4.824  26.236   3.400 -0.0725 -0.1993 -0.1520
    1OPC    PO470647   4.728  26.266   3.795  0.1873 -0.1528 -0.2381
    1OPC    GL170648   4.421  26.215   4.129 -0.1494 -0.0435 -0.3353
    1OPC    GL270649   4.105  26.133   4.397  0.2560  0.0710  0.2331
    1OPC    C1B70650   3.861  26.343   4.695  0.1922  0.0909 -0.1548
    1OPC    D2B70651   4.031  26.438   5.091  0.1367  0.1314  0.2752
    1OPC    C3B70652   3.877  26.089   5.389 -0.2002 -0.2438 -0.1691
    1OPC    C4B70653   3.487  26.169   5.638  0.2602  0.0168  0.2730
    1OPC    NC370654  18.338  26.577   2.400 -0.1377 -0.1966 -0.1179
    1OPC    PO470655  18.072  26.965   2.473  0.0759  0.0990 -0.0080
    1OPC    GL170656  17.909  27.284   2.748 -0.1518 -0.1262  0.0579
    1OPC    GL270657  17.763  27.347   3.067  0.0877 -0.2690  0.2394
    1OPC    C1B70658  17.493  27.475   3.390 -0.4280 -0.0736 -0.0568
    1OPC    D2B70659  17.287  27.512   3.693 -0.0695  0.1101  0.1393
    1OPC    C3B70660  16.982  27.316   4.032  0.1636  0.0929 -0.0048
    1OPC    C4B70661  16.702  27.075   4.300 -0.0485  0.2131  0.0649
    1OPC    NC370662   9.706  18.568   2.133  0.1547  0.1324 -0.0895
    1OPC    PO470663   9.858  18.354   2.472 -0.1063 -0.0528 -0.2857
    1OPC    GL170664   9.800  18.498   2.928 -0.1330  0.1837  0.1625
    1OPC    GL270665   9.918  18.542   3.263 -0.2257  0.2780  0.0866
    1OPC    C1B70666   9.844  18.568   3.712 -0.0895 -0.1555  0.0311
    1OPC    D2B70667   9.867  18.646   4.219  0.1417 -0.2295  0.0588
    1OPC    C3B70668   9.515  18.575   4.535 -0.0922 -0.1427  0.0221
    1OPC    C4B70669   9.297  18.850   4.885  0.0521 -0.1137  0.3851
    1OPC    NC370670  11.102   6.870   1.556 -0.1394 -0.3001 -0.2419
    1OPC    PO470671  10.815   6.989   1.909  0.1779  0.1568  0.0256
    1OPC    GL170672  10.936   6.814   2.326  0.0513 -0.0109 -0.0521
    1OPC    GL270673  10.793   6.748   2.673 -0.0233  0.1185 -0.4475
    1OPC    C1B70674  10.991   6.566   3.078  0.1390 -0.3952  0.1276
    1OPC    D2B70675  11.045   6.491   3.545  0.0532 -0.1412  0.3326
    1OPC    C3B70676  11.435   6.225   3.602 -0.1889 -0.0819  0.3039
    1OPC    C4B70677  11.538   5.870   3.707 -0.0945 -0.0607 -0.0416
    1OPC    NC370678   4.489  11.870   2.386  0.0982 -0.0794  0.1066
    1OPC    PO470679   4.234  11.654   2.546  0.1124  0.0597 -0.2875
    1OPC    GL170680   4.526  11.575   2.928  0.1412  0.2684  0.1765
    1OPC    GL270681   4.834  11.512   3.199  0.1089  0.2229 -0.1999
    1OPC    C1B70682   4.977  11.460   3.633 -0.1508  0.3313 -0.0879
    1OPC    D2B70683   5.304  11.710   3.901  0.0946 -0.0106 -0.2568
    1OPC    C3B70684   5.225  11.999   4.224 -0.0071  0.0090 -0.3015
    1OPC    C4B70685   4.931  11.881   4.580 -0.1351 -0.1194  0.0131
    1OPC    NC370686   6.933  13.578   2.148  0.1392 -0.0874  0.0198
    1OPC    PO470687   6.511  13.437   2.053 -0.1512  0.1114 -0.3078
    1OPC    GL170688   6.517  13.598   2.490 -0.0145  0.2713  0.0191
    1OPC    GL270689   6.679  13.833   2.786 -0.3922  0.1474  0.0777
    1OPC    C1B70690   6.708  13.719   3.227 -0.1938 -0.0938 -0.0442
    1OPC    D2B70691   7.078  13.703   3.488  0.0821  0.1608  0.1454
    1OPC    C3B70692   7.467  13.708   3.707  0.3850 -0.1087 -0.0049
    1OPC    C4B70693   7.925  13.697   3.666  0.2441  0.0329  0.2961
    1OPC    NC370694  18.403  27.220   2.802 -0.0787 -0.0827  0.0424
    1OPC    PO470695  18.520  26.823   2.812  0.1537  0.0224 -0.4054
    1OPC    GL170696  18.684  26.811   3.209  0.3618  0.1382 -0.1756
    1OPC    GL270697  18.454  26.797   3.416 -0.0279  0.1575 -0.3869
    1OPC    C1B70698  18.421  27.036   3.761  0.0045  0.1758 -0.2352
    1OPC    D2B70699  18.300  27.254   4.146 -0.0934 -0.3243  0.3050
    1OPC    C3B70700  18.036  27.501   4.252  0.0133  0.1415  0.2013
    1OPC    C4B70701  17.847  27.645   4.545  0.4249 -0.0417  0.1359
    1OPC    NC370702   8.789  16.325   1.514  0.0602 -0.0552  0.3320
    1OPC    PO470703   8.993  16.042   1.772  0.0757  0.3209  0.3803
    1OPC    GL170704   8.698  16.046   2.034  0.0388  0.0842 -0.5170
    1OPC    GL270705   8.529  15.768   2.244  0.0689  0.1077 -0.3058
    1OPC    C1B70706   8.694  15.575   2.589  0.1438 -0.3532 -0.0189
    1OPC    D2B70707   8.825  15.855   2.900  0.0403  0.1145 -0.0997
    1OPC    C3B70708   9.102  15.668   3.239  0.0875  0.2164 -0.3112
    1OPC    C4B70709   9.147  15.239   3.422  0.3050  0.0430  0.2611
    1OPC    NC370710  18.542  18.273   1.490  0.3119  0.1800  0.0495
    1OPC    PO470711  18.552  18.364   1.938 -0.1733 -0.0054  0.0569
    1OPC    GL170712  18.924  18.262   2.267  0.0144 -0.0639  0.0188
    1OPC    GL270713  19.089  18.315   2.662 -0.2118  0.1704  0.1931
    1OPC    C1B70714  18.865  18.431   3.178 -0.0856  0.0351  0.0815
    1OPC    D2B70715  18.699  18.120   3.396  0.0198  0.0632 -0.2843
    1OPC    C3B70716  18.600  18.248   3.769 -0.0902 -0.2078  0.0764
    1OPC    C4B70717  18.556  18.520   4.177 -0.1919  0.1881 -0.0515
    1OPC    NC370718  24.513  11.217   2.895  0.2067  0.0321  0.1980
    1OPC    PO470719  24.440  11.683   2.934  0.0848  0.1386  0.1830
    1OPC    GL170720  24.664  11.663   3.351  0.1338  0.0032 -0.1389
    1OPC    GL270721  24.557  11.709   3.622  0.0309  0.1648  0.1710
    1OPC    C1B70722  24.336  11.550   3.825  0.0947 -0.1253 -0.3879
    1OPC    D2B70723  24.332  11.461   4.237  0.0794  0.1833 -0.1316
    1OPC    C3B70724  24.258  11.287   4.617  0.0047 -0.1102  0.1027
    1OPC    C4B70725  24.054  11.449   5.070  0.1337  0.3278  0.1958
    1OPC    NC370726  18.622   0.406   2.712  0.3593  0.0677 -0.0002
    1OPC    PO470727  18.285   0.107   2.943 -0.1807  0.0435  0.1129
    1OPC    GL170728  18.451  -0.083   3.292 -0.1998  0.2948 -0.2038
    1OPC    GL270729  18.361   0.061   3.606  0.2605 -0.3285 -0.0477
    1OPC    C1B70730  18.242   0.127   4.012  0.2683 -0.1166  0.0589
    1OPC    D2B70731  18.297   0.314   4.403 -0.2415  0.2049  0.3320
    1OPC    C3B70732  18.696   0.388   4.644  0.1961 -0.2951  0.0085
    1OPC    C4B70733  18.811   0.207   5.049 -0.1564 -0.1646 -0.0859
    1OPC    NC370734   1.941   3.715   3.817 -0.0361  0.5038 -0.1235
    1OPC    PO470735   2.042   4.138   4.061 -0.0602  0.0423  0.1307
    1OPC    GL170736   1.982   3.805   4.462 -0.0123 -0.0370 -0.0742
    1OPC    GL270737   2.126   3.806   4.866 -0.0640 -0.3243  0.0573
    1OPC    C1B70738   2.284   3.726   5.161 -0.4101 -0.1055 -0.2089
    1OPC    D2B70739   2.266   3.329   5.434 -0.1201 -0.0260  0.1852
    1OPC    C3B70740   2.314   3.429   5.826 -0.0012 -0.3085 -0.0207
    1OPC    C4B70741   2.134   3.693   6.144  0.1204 -0.2350 -0.3067
    1OPC    NC370742   4.127  17.463   2.706  0.0391  0.0292  0.0705
    1OPC    PO470743   3.889  17.229   2.937 -0.0662  0.0310 -0.0414
    1OPC    GL170744   3.979  17.223   3.410 -0.1094  0.1216  0.1908
    1OPC    GL270745   3.805  17.419   3.619  0.1130  0.4145  0.1454
    1OPC    C1B70746   3.744  17.621   4.077  0.3257  0.0763  0.1444
    1OPC    D2B70747   3.518  17.413   4.416  0.0727  0.0631 -0.2166
    1OPC    C3B70748   3.090  17.440   4.657 -0.4241  0.2254  0.1997
    1OPC    C4B70749   2.754  17.634   4.895 -0.0225  0.3290 -0.0923
    1OPC    NC370750  20.166  12.721   2.045  0.2492 -0.1576  0.0924
    1OPC    PO470751  20.006  13.147   2.085 -0.0935 -0.1017  0.0222
    1OPC    GL170752  19.984  13.286   2.517  0.1168 -0.2270  0.1457
    1OPC    GL270753  19.992  13.192   2.819  0.0267  0.2063  0.0714
    1OPC    C1B70754  19.800  13.015   3.224  0.2707 -0.0581 -0.1383
    1OPC    D2B70755  19.899  12.922   3.642 -0.0068  0.1914 -0.0958
    1OPC    C3B70756  19.659  12.510   3.824 -0.1704 -0.0898  0.1257
    1OPC    C4B70757  19.286  12.319   4.042 -0.3243 -0.0005  0.2082
    1OPC    NC370758  15.844  11.611   2.048 -0.3408  0.0360  0.0603
    1OPC    PO470759  15.686  12.151   2.010  0.1073  0.1266 -0.0116
    1OPC    GL170760  15.622  12.286   2.496 -0.1645  0.0061 -0.2098
    1OPC    GL270761  15.426  12.383   2.776 -0.1155 -0.3420  0.3709
    1OPC    C1B70762  15.170  12.223   3.117 -0.2625 -0.0301  0.2915
    1OPC    D2B70763  14.959  11.971   3.395  0.0603 -0.2423 -0.1828
    1OPC    C3B70764  15.031  11.961   3.923 -0.0139 -0.0905  0.2723
    1OPC    C4B70765  15.287  12.235   4.154  0.1362  0.0759 -0.2272
    1OPC    NC370766   4.710  14.161   2.514 -0.0368  0.2270  0.1750
    1OPC    PO470767   4.338  14.062   2.728 -0.0129  0.0469 -0.0977
    1OPC    GL170768   4.130  14.156   3.075 -0.0758  0.0179  0.2338
    1OPC    GL270769   3.923  14.149   3.338 -0.0648  0.0595  0.0369
    1OPC    C1B70770   3.697  14.154   3.756 -0.1086 -0.3339 -0.0705
    1OPC    D2B70771   3.742  14.098   4.144 -0.0886  0.0970  0.2229
    1OPC    C3B70772   3.991  14.302   4.413 -0.2078  0.1882  0.1079
    1OPC    C4B70773   4.065  14.230   4.799 -0.0571  0.3767 -0.0091
    1OPC    NC370774  25.594   3.449   3.055 -0.1870  0.0994  0.1053
    1OPC    PO470775  25.640   2.911   3.072  0.1184  0.0772  0.1936
    1OPC    GL170776  25.606   2.703   3.469  0.1213 -0.2131  0.2862
    1OPC    GL270777  25.616   2.577   3.748  0.2924 -0.0543 -0.5185
    1OPC    C1B70778  25.611   2.654   4.150 -0.0219  0.0356  0.0389
    1OPC    D2B70779  25.539   2.631   4.643 -0.0331  0.1311  0.1775
    1OPC    C3B70780  25.919   2.503   4.957 -0.2540  0.1022 -0.0833
    1OPC    C4B70781  26.076   2.470   5.434 -0.2133 -0.2194 -0.0596
    1OPC    NC370782  27.438  15.211   2.851 -0.1102  0.0946  0.3589
    1OPC    PO470783  27.488  14.975   3.377  0.0012  0.0954  0.3924
    1OPC    GL170784  27.664  14.861   3.692 -0.1856  0.0525  0.1215
    1OPC    GL270785  27.787  14.626   3.946  0.1628 -0.0613  0.2400
    1OPC    C1B70786  27.930  14.614   4.384  0.1630  0.0179  0.0929
    1OPC    D2B70787  27.998  14.701   4.861  0.0379  0.0439 -0.0082
    1OPC    C3B70788  28.235  14.503   5.244 -0.3033 -0.1351  0.0683
    1OPC    C4B70789  28.080  14.264   5.530  0.1845  0.2790 -0.2318
    1OPC    NC370790   9.916   0.570   3.050 -0.0472  0.1393 -0.0893
    1OPC    PO470791   9.718   0.272   3.007  0.1983 -0.1109 -0.0607
    1OPC    GL170792   9.774   0.140   3.310 -0.0442 -0.3396  0.0606
    1OPC    GL270793   9.903   0.299   3.702  0.0078  0.0469 -0.1023
    1OPC    C1B70794   9.768   0.169   4.087  0.0964 -0.0657  0.0541
    1OPC    D2B70795   9.491   0.268   4.347 -0.2584  0.0128  0.0627
    1OPC    C3B70796   9.426   0.398   4.742 -0.0942 -0.0620  0.0700
    1OPC    C4B70797   9.489   0.384   5.306 -0.1873  0.2923 -0.1428
    1OPC    NC370798  10.942  22.316   3.044 -0.0455 -0.0069 -0.2849
    1OPC    PO470799  11.365  22.462   3.157  0.0625 -0.0213  0.0046
    1OPC    GL170800  11.447  22.114   3.194 -0.1771  0.1315  0.0740
    1OPC    GL270801  11.670  22.042   3.466  0.0999  0.0564 -0.0558
    1OPC    C1B70802  11.848  21.642   3.715  0.2651  0.1232 -0.1035
    1OPC    D2B70803  12.165  21.507   3.871 -0.0791  0.0216  0.2070
    1OPC    C3B70804  12.398  21.661   4.253  0.0629  0.0599 -0.0706
    1OPC    C4B70805  12.643  21.391   4.514 -0.0324  0.0493 -0.0478
    1OPC    NC370806  19.561  25.709   2.666  0.1642 -0.2391  0.0053
    1OPC    PO470807  19.767  25.506   3.068  0.0897 -0.1838 -0.0212
    1OPC    GL170808  19.711  25.613   3.531  0.2288  0.2638  0.2659
    1OPC    GL270809  19.604  25.716   3.813 -0.1327 -0.0271 -0.1551
    1OPC    C1B70810  19.600  25.611   4.220 -0.2168 -0.0997  0.0377
    1OPC    D2B70811  19.692  25.756   4.531  0.0623  0.3227  0.0246
    1OPC    C3B70812  20.045  25.892   4.652 -0.0127 -0.3599 -0.1076
    1OPC    C4B70813  20.473  25.887   4.738 -0.0780 -0.1273 -0.2423
    1OPC    NC370814   5.347   6.589   3.605 -0.0472 -0.3637 -0.4175
    1OPC    PO470815   4.915   6.494   3.483 -0.1117 -0.1183  0.3215
    1OPC    GL170816   4.930   6.322   3.856 -0.0028 -0.0527  0.1553
    1OPC    GL270817   4.949   6.071   4.080 -0.0051 -0.1324  0.2476
    1OPC    C1B70818   5.377   6.074   4.249 -0.0480  0.0092 -0.3111
    1OPC    D2B70819   5.578   6.307   4.558 -0.2145 -0.0359  0.0079
    1OPC    C3B70820   5.595   6.396   4.992  0.0775  0.1059  0.0286
    1OPC    C4B70821   5.555   6.509   5.343 -0.2512  0.1640 -0.2083
    1OPC    NC370822  15.084  10.881   1.274  0.3197 -0.1002 -0.0032
    1OPC    PO470823  15.310  10.549   1.544  0.2234 -0.1197  0.1192
    1OPC    GL170824  15.276  10.464   1.949 -0.3328 -0.1519 -0.0308
    1OPC    GL270825  15.328  10.585   2.215 -0.2073  0.1947  0.1350
    1OPC    C1B70826  15.373  10.294   2.472 -0.3865  0.1917  0.1689
    1OPC    D2B70827  15.430  10.460   2.883  0.2562 -0.1160 -0.0175
    1OPC    C3B70828  15.609  10.287   3.240  0.1954  0.0352  0.2790
    1OPC    C4B70829  15.752  10.555   3.565  0.1556  0.2965 -0.1932
    1OPC    NC370830   8.005  15.719   2.025  0.0802 -0.0890  0.0003
    1OPC    PO470831   8.187  15.355   1.849 -0.0035 -0.1939  0.3117
    1OPC    GL170832   7.729  15.370   2.113  0.2658  0.2753  0.2314
    1OPC    GL270833   7.721  15.387   2.466 -0.0365  0.4062  0.3108
    1OPC    C1B70834   7.770  15.200   2.816  0.1551  0.0843  0.2021
    1OPC    D2B70835   7.780  15.371   3.243  0.3220  0.0417  0.0096
    1OPC    C3B70836   7.731  15.520   3.719 -0.1155  0.0039  0.0670
    1OPC    C4B70837   7.915  15.686   4.083 -0.0029 -0.3796 -0.1378
    1OPC    NC370838  15.921   0.883   2.000  0.1690  0.2887  0.3660
    1OPC    PO470839  15.620   0.601   2.335  0.1046  0.3124 -0.0477
    1OPC    GL170840  15.618   0.694   2.686 -0.2208 -0.0058 -0.1023
    1OPC    GL270841  15.612   0.960   2.904  0.1784  0.0002  0.0966
    1OPC    C1B70842  15.686   1.011   3.301  0.0024 -0.1778  0.1916
    1OPC    D2B70843  15.406   0.963   3.602 -0.1445 -0.0460  0.2408
    1OPC    C3B70844  15.466   1.014   3.979 -0.0776  0.1597 -0.0932
    1OPC    C4B70845  15.223   0.601   4.245  0.1112  0.0250  0.1350
    1OPC    NC370846  25.979   2.507   3.169  0.2789  0.0501  0.0408
    1OPC    PO470847  25.972   2.168   3.583 -0.2430 -0.2079 -0.1579
    1OPC    GL170848  25.970   2.208   3.943  0.2258  0.2329 -0.1163
    1OPC    GL270849  26.023   2.309   4.187 -0.1127 -0.0839  0.3045
    1OPC    C1B70850  25.987   2.678   4.437 -0.4262  0.0069 -0.0238
    1OPC    D2B70851  25.863   2.965   4.704 -0.1353  0.1727  0.1134
    1OPC    C3B70852  25.977   3.065   5.125  0.0435  0.2188  0.4047
    1OPC    C4B70853  25.816   2.891   5.455  0.0795 -0.3296 -0.1067
    1OPC    NC370854  17.831  11.679   1.276 -0.0007 -0.0001  0.0447
    1OPC    PO470855  17.659  11.832   1.656 -0.0974  0.0181  0.3059
    1OPC    GL170856  17.701  11.881   2.070  0.2268 -0.2693  0.1160
    1OPC    GL270857  17.761  11.600   2.234 -0.1944 -0.1298 -0.0404
    1OPC    C1B70858  17.628  11.483   2.633 -0.0797  0.0191 -0.0115
    1OPC    D2B70859  17.507  11.330   3.035  0.3730 -0.0774 -0.1260
    1OPC    C3B70860  17.162  11.347   3.348  0.0292  0.0261 -0.1203
    1OPC    C4B70861  16.922  10.989   3.534  0.0798  0.0832 -0.2053
    1OPC    NC370862  16.881   2.852   1.767 -0.0306  0.2248  0.1270
    1OPC    PO470863  16.469   2.830   1.915 -0.2426  0.1960 -0.1684
    1OPC    GL170864  16.418   3.049   2.265  0.0836  0.1244  0.3695
    1OPC    GL270865  16.508   2.986   2.603  0.0557 -0.2545 -0.1235
    1OPC    C1B70866  16.813   3.100   2.935 -0.2959  0.1119  0.1258
    1OPC    D2B70867  17.176   3.364   3.059 -0.1967  0.1587  0.1617
    1OPC    C3B70868  17.209   3.748   3.331 -0.0056  0.1350 -0.1860
    1OPC    C4B70869  17.061   3.952   3.607 -0.1593 -0.2012 -0.1858
    1OPC    NC370870  23.066   9.173   1.880  0.1259 -0.3903 -0.1865
    1OPC    PO470871  23.517   9.060   2.014  0.2491 -0.4949  0.3752
    1OPC    GL170872  23.316   9.271   2.356 -0.1028  0.2691  0.0530
    1OPC    GL270873  23.205   9.294   2.706 -0.1247 -0.1977 -0.0297
    1OPC    C1B70874  23.183   9.476   3.132 -0.1234  0.1353  0.2743
    1OPC    D2B70875  23.282   9.550   3.499  0.2221  0.1682 -0.1584
    1OPC    C3B70876  23.082   9.538   3.913 -0.0383  0.0035  0.2100
    1OPC    C4B70877  22.927   9.660   4.364  0.0943 -0.2295 -0.3850
    1OPC    NC370878   5.881  11.265   2.441  0.2119 -0.1931  0.2342
    1OPC    PO470879   5.803  11.288   2.821 -0.2167 -0.2045 -0.0617
    1OPC    GL170880   6.097  11.153   3.029 -0.1094  0.0905  0.1387
    1OPC    GL270881   6.267  10.945   3.113  0.1062 -0.2516 -0.0480
    1OPC    C1B70882   6.383  10.846   3.540 -0.2323 -0.1556  0.0464
    1OPC    D2B70883   6.339  10.975   4.049  0.2665 -0.2433 -0.1559
    1OPC    C3B70884   6.320  11.390   4.116 -0.1837 -0.0736 -0.0692
    1OPC    C4B70885   6.196  11.765   4.307  0.1435 -0.2426  0.0181
    1OPC    NC370886  18.768   2.792   2.071 -0.0234 -0.0000  0.2364
    1OPC    PO470887  18.352   2.851   1.813 -0.3157  0.1438 -0.0214
    1OPC    GL170888  18.210   3.007   2.215  0.3348  0.1201 -0.4069
    1OPC    GL270889  18.133   3.074   2.598  0.4414 -0.0188 -0.0874
    1OPC    C1B70890  17.979   3.035   3.046 -0.2640  0.5837  0.1284
    1OPC    D2B70891  17.656   3.124   3.194  0.0726  0.0612 -0.1714
    1OPC    C3B70892  17.582   3.319   3.564 -0.1038  0.2294  0.2790
    1OPC    C4B70893  17.426   3.411   3.965 -0.2294 -0.0237 -0.1098
    1OPC    NC370894  20.366   9.070   1.726  0.0632  0.0255 -0.0557
    1OPC    PO470895  20.821   9.145   1.721 -0.2781 -0.0867 -0.0929
    1OPC    GL170896  20.782   8.934   2.011  0.0150  0.0657 -0.2466
    1OPC    GL270897  20.838   8.900   2.314 -0.0094 -0.2155 -0.0128
    1OPC    C1B70898  21.105   9.084   2.638 -0.0664 -0.0050 -0.2402
    1OPC    D2B70899  21.279   9.423   2.941 -0.0721  0.1312 -0.0207
    1OPC    C3B70900  21.083   9.803   2.846  0.4596  0.1150 -0.2500
    1OPC    C4B70901  20.982  10.036   2.536 -0.1722 -0.2612 -0.2255
    1OPC    NC370902   8.348   2.458   3.690 -0.2820 -0.2129 -0.1918
    1OPC    PO470903   7.999   2.169   3.516 -0.3906  0.0348  0.1463
    1OPC    GL170904   7.665   2.005   3.745  0.4418  0.4092 -0.3406
    1OPC    GL270905   7.628   1.910   4.039 -0.0728  0.1097  0.0142
    1OPC    C1B70906   7.903   1.854   4.399 -0.1395  0.1503 -0.1171
    1OPC    D2B70907   8.105   1.870   4.773  0.0690 -0.1258 -0.1843
    1OPC    C3B70908   8.520   2.096   4.952  0.1311 -0.0633  0.2319
    1OPC    C4B70909   8.779   2.264   5.243  0.2371 -0.3264 -0.0923
    1OPC    NC370910  13.585  14.414   2.196 -0.0170 -0.1421 -0.1425
    1OPC    PO470911  13.735  13.953   2.215 -0.0402  0.2287 -0.2560
    1OPC    GL170912  13.636  13.618   2.595 -0.0913  0.0348 -0.2809
    1OPC    GL270913  13.636  13.759   3.009  0.2225 -0.1815  0.0501
    1OPC    C1B70914  13.450  13.673   3.433 -0.0078 -0.2534 -0.0371
    1OPC    D2B70915  13.233  13.776   3.743 -0.3269 -0.1049 -0.3323
    1OPC    C3B70916  13.347  13.679   4.194  0.0051 -0.0075  0.0941
    1OPC    C4B70917  13.570  13.478   4.567  0.0421  0.2686 -0.0126
    1OPC    NC370918  11.666  18.264   2.590 -0.0777  0.0038  0.0050
    1OPC    PO470919  11.554  18.748   2.653 -0.0128 -0.0003  0.0686
    1OPC    GL170920  11.699  18.572   3.069  0.0816  0.1085 -0.3452
    1OPC    GL270921  11.586  18.603   3.359  0.4564 -0.1703  0.1008
    1OPC    C1B70922  11.631  18.917   3.646 -0.0660 -0.2283 -0.2842
    1OPC    D2B70923  11.686  18.783   4.086  0.2675 -0.0016  0.2090
    1OPC    C3B70924  11.524  18.478   4.334  0.2421  0.0513  0.3649
    1OPC    C4B70925  11.262  18.254   4.669  0.0287  0.1287  0.0528
    1OPC    NC370926   9.109  19.843   2.867  0.1073 -0.1864  0.1367
    1OPC    PO470927   9.466  19.862   2.718 -0.0781  0.2912  0.2103
    1OPC    GL170928   9.474  20.235   2.980  0.1436 -0.3299 -0.0995
    1OPC    GL270929   9.475  20.328   3.208  0.0200 -0.1426  0.0127
    1OPC    C1B70930   9.559  20.217   3.609  0.0330 -0.1648  0.1517
    1OPC    D2B70931   9.610  20.253   4.043  0.2314 -0.3213  0.5336
    1OPC    C3B70932   9.412  20.025   4.397  0.0237 -0.0025 -0.2294
    1OPC    C4B70933   9.673  19.746   4.721  0.0724 -0.1295  0.1520
    1OPC    NC370934  22.602  15.669   2.453 -0.0102  0.0594 -0.2798
    1OPC    PO470935  22.192  15.432   2.542 -0.0026  0.2556  0.0511
    1OPC    GL170936  22.238  15.579   2.820 -0.1733 -0.5223  0.0200
    1OPC    GL270937  22.236  15.657   3.192 -0.1043 -0.0754 -0.2426
    1OPC    C1B70938  22.127  15.525   3.610  0.0296  0.1429  0.1187
    1OPC    D2B70939  21.833  15.347   3.900  0.2571  0.2037 -0.2154
    1OPC    C3B70940  21.909  15.222   4.382  0.0021  0.2530  0.0731
    1OPC    C4B70941  22.229  15.192   4.774  0.1985 -0.0714  0.2032
    1OPC    NC370942   4.145   0.598   3.564  0.1072 -0.0177  0.0441
    1OPC    PO470943   4.055   0.265   3.760 -0.3143  0.2573  0.0648
    1OPC    GL170944   3.956   0.218   4.214 -0.3341  0.0306  0.1473
    1OPC    GL270945   4.015   0.266   4.470  0.1199  0.1882  0.1802
    1OPC    C1B70946   3.909   0.156   5.007  0.1589 -0.2511  0.3212
    1OPC    D2B70947   3.665   0.139   5.413 -0.2701 -0.1575 -0.1257
    1OPC    C3B70948   3.541   0.288   5.813  0.2912 -0.0427  0.4063
    1OPC    C4B70949   3.203   0.550   6.021 -0.0640 -0.1160 -0.0535
    1OPC    NC370950   3.955  26.413   3.905 -0.2663  0.3831 -0.0732
    1OPC    PO470951   3.848  26.071   3.929  0.1576  0.0271 -0.1589
    1OPC    GL170952   3.723  25.818   4.330  0.0455  0.1582 -0.1325
    1OPC    GL270953   3.909  25.467   4.329  0.1142 -0.1504 -0.0675
    1OPC    C1B70954   3.886  25.168   4.700  0.2745 -0.0061  0.1531
    1OPC    D2B70955   3.887  25.079   5.175 -0.1939 -0.2917 -0.1298
    1OPC    C3B70956   3.957  24.614   5.335  0.0310 -0.2657 -0.0350
    1OPC    C4B70957   4.341  24.409   5.416  0.1118 -0.0502 -0.0354
    1OPC    NC370958   5.285  16.808   2.559 -0.3024  0.0584  0.0888
    1OPC    PO470959   5.623  16.535   2.577 -0.1537 -0.4855 -0.0008
    1OPC    GL170960   5.688  16.330   3.002  0.0704 -0.0148  0.0078
    1OPC    GL270961   5.558  16.216   3.318 -0.3842  0.0683  0.1018
    1OPC    C1B70962   5.616  16.033   3.781 -0.0647 -0.2446  0.0437
    1OPC    D2B70963   5.904  15.966   4.166 -0.2521  0.0218  0.0949
    1OPC    C3B70964   5.880  15.766   4.606  0.1539  0.1287 -0.1887
    1OPC    C4B70965   5.513  15.501   4.698 -0.0429 -0.0174  0.0024
    1OPC    NC370966   0.197  20.419   2.969 -0.1866  0.1069  0.0058
    1OPC    PO470967   0.027  20.333   3.452  0.0111 -0.0382  0.1583
    1OPC    GL170968   0.375  20.345   3.751 -0.1422  0.1959  0.0503
    1OPC    GL270969   0.436  20.282   4.031 -0.0635 -0.2366 -0.0927
    1OPC    C1B70970   0.493  20.099   4.481 -0.0931 -0.0127  0.2742
    1OPC    D2B70971   0.522  19.943   4.905 -0.1473  0.6147 -0.0765
    1OPC    C3B70972   0.797  19.838   5.245 -0.1296  0.1943  0.2631
    1OPC    C4B70973   1.076  19.880   5.547 -0.1116  0.1560 -0.1044
    1OPC    NC370974  20.340   6.310   1.359 -0.2341  0.2153 -0.2468
    1OPC    PO470975  20.292   6.575   1.758  0.1191  0.4795 -0.0855
    1OPC    GL170976  20.364   6.817   2.105 -0.1127  0.2147 -0.2239
    1OPC    GL270977  20.569   6.807   2.388  0.0892 -0.2418  0.1324
    1OPC    C1B70978  20.666   6.662   2.683 -0.1966  0.2732  0.1416
    1OPC    D2B70979  20.850   6.673   3.014 -0.2072  0.2165 -0.0270
    1OPC    C3B70980  20.741   6.766   3.379  0.2251 -0.0652 -0.1256
    1OPC    C4B70981  20.489   6.722   3.722  0.2954 -0.0567  0.0698
    1OPC    NC370982  24.077  13.614   3.069  0.0539  0.0425  0.2653
    1OPC    PO470983  23.860  13.920   3.170 -0.1598 -0.0291 -0.3034
    1OPC    GL170984  23.551  13.715   3.511 -0.1919  0.1506 -0.1810
    1OPC    GL270985  23.367  13.653   3.660 -0.2250 -0.1346  0.3821
    1OPC    C1B70986  23.103  13.909   3.905 -0.1289 -0.0388  0.1279
    1OPC    D2B70987  23.015  13.893   4.235  0.0642 -0.0776  0.1426
    1OPC    C3B70988  22.795  14.082   4.467  0.5369  0.3085 -0.0924
    1OPC    C4B70989  22.686  14.550   4.578  0.2332  0.1497 -0.2685
    1OPC    NC370990   2.873   3.791   4.216 -0.0028  0.1278  0.0978
    1OPC    PO470991   2.545   3.887   4.445  0.0739 -0.0924 -0.0469
    1OPC    GL170992   2.422   4.275   4.350 -0.0231 -0.0070  0.1455
    1OPC    GL270993   2.400   4.431   4.598  0.4009 -0.1488 -0.0491
    1OPC    C1B70994   2.555   4.557   4.959  0.3690  0.3170  0.1146
    1OPC    D2B70995   2.758   4.827   5.236 -0.0044  0.1948  0.1656
    1OPC    C3B70996   2.808   4.713   5.627 -0.0262 -0.0891 -0.3395
    1OPC    C4B70997   2.521   4.669   5.981 -0.1510 -0.0697 -0.2142
    1OPC    NC370998   7.278  17.176   2.090  0.4371 -0.0430  0.3492
    1OPC    PO470999   7.327  16.764   2.145  0.0175 -0.1460  0.1406
    1OPC    GL171000   7.623  16.473   2.255  0.0185 -0.2071 -0.2817
    1OPC    GL271001   7.752  16.354   2.568 -0.0829  0.0851  0.2139
    1OPC    C1B71002   7.994  16.209   2.985 -0.2409  0.0878 -0.2686
    1OPC    D2B71003   8.119  16.193   3.483 -0.1782 -0.1852  0.2789
    1OPC    C3B71004   8.257  15.739   3.689  0.2611 -0.2807 -0.1677
    1OPC    C4B71005   8.686  15.499   3.511 -0.4040 -0.1080 -0.0231
    1OPC    NC371006  28.320  14.649   3.191 -0.2043 -0.1210 -0.0597
    1OPC    PO471007  28.134  14.773   3.570 -0.4503  0.2610 -0.0654
    1OPC    GL171008  28.313  14.817   3.874  0.2092  0.0346 -0.0421
    1OPC    GL271009  28.317  14.828   4.202 -0.0798  0.1541  0.1440
    1OPC    C1B71010  28.337  14.963   4.560  0.0313  0.0735 -0.0168
    1OPC    D2B71011  28.490  14.968   4.972  0.0546  0.0716  0.2234
    1OPC    C3B71012  28.101  15.006   5.323 -0.0872  0.0013 -0.0232
    1OPC    C4B71013  28.056  15.425   5.629  0.0078 -0.2630  0.0147
    1OPC    NC371014  26.572  28.356   3.431  0.3536  0.2737 -0.3241
    1OPC    PO471015  26.407  28.698   3.164  0.0024  0.0270  0.2610
    1OPC    GL171016  26.204  28.808   3.510 -0.1728 -0.0043  0.1898
    1OPC    GL271017  26.197  28.596   3.700 -0.3603 -0.0086 -0.0526
    1OPC    C1B71018  26.232  28.485   4.223  0.1403 -0.1158 -0.0926
    1OPC    D2B71019  26.396  28.794   4.603 -0.2003  0.0953 -0.1810
    1OPC    C3B71020  26.432  29.111   4.690  0.0017 -0.0410  0.0507
    1OPC    C4B71021  26.111  29.392   4.770 -0.2096 -0.4042 -0.2039
    1OPC    NC371022   7.632  25.478   3.148  0.3058 -0.0426  0.2192
    1OPC    PO471023   7.473  25.796   3.332 -0.1230  0.3344 -0.0642
    1OPC    GL171024   7.196  25.876   3.649 -0.0362  0.0999 -0.0070
    1OPC    GL271025   7.113  25.737   3.916 -0.0840 -0.3232  0.0201
    1OPC    C1B71026   7.315  25.633   4.336 -0.2039 -0.0842  0.1014
    1OPC    D2B71027   7.634  25.296   4.586 -0.0783  0.0801  0.0884
    1OPC    C3B71028   7.852  24.968   4.746  0.1969  0.4984 -0.0186
    1OPC    C4B71029   8.161  24.774   4.994 -0.0565  0.1751  0.4532
    1OPC    NC371030   7.888  14.331   1.597  0.0089 -0.0994 -0.4003
    1OPC    PO471031   8.059  13.997   1.873 -0.2973  0.2987  0.1045
    1OPC    GL171032   8.075  14.342   2.124 -0.1827  0.0001 -0.1891
    1OPC    GL271033   8.220  14.452   2.333  0.0659  0.0632 -0.1274
    1OPC    C1B71034   8.428  14.586   2.666 -0.3041  0.2775  0.0739
    1OPC    D2B71035   8.393  14.739   3.131  0.2598 -0.3980 -0.1356
    1OPC    C3B71036   8.221  14.476   3.476 -0.1910 -0.3896 -0.1092
    1OPC    C4B71037   8.228  14.574   3.999 -0.3073  0.1422 -0.2467
    1OPC    NC371038  17.675   6.557   1.578  0.0396  0.0275  0.1306
    1OPC    PO471039  17.914   6.226   1.504  0.0241 -0.2357  0.4060
    1OPC    GL171040  17.929   6.375   1.910 -0.1843 -0.0890  0.0325
    1OPC    GL271041  17.619   6.426   2.104 -0.0415  0.1670 -0.2102
    1OPC    C1B71042  17.408   6.222   2.459 -0.2491 -0.1949  0.3558
    1OPC    D2B71043  17.188   5.952   2.756 -0.3964 -0.3929  0.0161
    1OPC    C3B71044  17.172   5.555   2.863 -0.0055  0.2296 -0.0610
    1OPC    C4B71045  17.272   5.426   3.301  0.1409  0.1403 -0.4930
    1OPC    NC371046  19.820   0.288   2.347  0.1096 -0.0041  0.0424
    1OPC    PO471047  19.572   0.040   2.432 -0.0044 -0.0808  0.1427
    1OPC    GL171048  19.469  -0.026   2.858 -0.0498  0.1774 -0.0400
    1OPC    GL271049  19.492   0.124   3.178 -0.0901 -0.0511 -0.0051
    1OPC    C1B71050  19.387   0.489   3.367  0.0562 -0.0136  0.0144
    1OPC    D2B71051  19.367   0.919   3.502 -0.0822  0.1007 -0.2020
    1OPC    C3B71052  19.005   1.152   3.758  0.3781  0.1135  0.0937
    1OPC    C4B71053  18.798   1.204   4.166  0.1184  0.0145 -0.2192
    1OPC    NC371054  16.611   9.382   1.356  0.0974  0.0194 -0.0448
    1OPC    PO471055  16.227   9.321   1.559  0.0923 -0.0926  0.2523
    1OPC    GL171056  16.272   9.459   1.972 -0.0967  0.0418 -0.1910
    1OPC    GL271057  16.467   9.443   2.233  0.0060  0.2191  0.0231
    1OPC    C1B71058  16.811   9.412   2.374  0.1732 -0.1627 -0.1906
    1OPC    D2B71059  17.291   9.352   2.453 -0.3142 -0.0763 -0.0100
    1OPC    C3B71060  17.397   8.942   2.596 -0.0701  0.0319  0.2105
    1OPC    C4B71061  17.266   8.542   2.603  0.0148 -0.2986  0.0464
    1OPC    NC371062   6.763  23.624   3.138  0.4607 -0.0440  0.2800
    1OPC    PO471063   7.112  23.301   3.149 -0.0471 -0.0503  0.0778
    1OPC    GL171064   7.058  23.023   3.411 -0.1321 -0.2630 -0.1892
    1OPC    GL271065   7.071  22.894   3.689  0.0606  0.0102  0.2710
    1OPC    C1B71066   7.030  22.669   4.107 -0.0670 -0.0013  0.1398
    1OPC    D2B71067   6.819  22.626   4.456 -0.4478 -0.1219  0.1830
    1OPC    C3B71068   6.865  22.911   4.938  0.1195  0.0191  0.2348
    1OPC    C4B71069   6.933  23.304   5.134  0.3270  0.2914 -0.0987
    1OPC    NC371070   9.364  16.909   2.072 -0.2789  0.2544  0.0039
    1OPC    PO471071   9.001  16.806   2.381  0.0611 -0.0733 -0.1103
    1OPC    GL171072   8.667  16.449   2.452  0.0579  0.1200  0.3097
    1OPC    GL271073   8.563  16.203   2.587  0.1542 -0.2329 -0.0833
    1OPC    C1B71074   8.343  15.980   2.772  0.0294  0.0894  0.0183
    1OPC    D2B71075   8.361  15.831   3.213  0.3151 -0.1298 -0.1915
    1OPC    C3B71076   8.301  15.292   3.300 -0.0523 -0.0793  0.1013
    1OPC    C4B71077   8.015  14.975   3.261  0.2512  0.2541  0.0120
    1OPC    NC371078  25.391   8.861   3.004  0.0803 -0.1926  0.1793
    1OPC    PO471079  25.506   9.312   3.077  0.1856 -0.0416  0.0294
    1OPC    GL171080  25.659   9.182   3.477 -0.2875  0.1571 -0.0881
    1OPC    GL271081  25.633   8.963   3.812 -0.1544  0.1685  0.3235
    1OPC    C1B71082  25.975   9.045   4.105 -0.3031  0.1699  0.0984
    1OPC    D2B71083  26.269   9.102   4.406  0.0261 -0.1047 -0.0961
    1OPC    C3B71084  26.275   9.145   4.761 -0.0302  0.3277  0.2130
    1OPC    C4B71085  25.963   8.954   4.971 -0.2501 -0.0314 -0.1572
    1OPC    NC371086  15.429   4.809   1.244  0.1998 -0.0953  0.0229
    1OPC    PO471087  15.513   4.490   1.585  0.2291 -0.1294 -0.2410
    1OPC    GL171088  15.677   4.340   1.928  0.0360 -0.0916  0.2776
    1OPC    GL271089  15.869   4.397   2.189  0.0488  0.0079 -0.1043
    1OPC    C1B71090  15.793   4.239   2.625  0.3045  0.0895 -0.3058
    1OPC    D2B71091  15.627   4.539   2.973 -0.2987  0.1095  0.1967
    1OPC    C3B71092  15.321   4.494   3.272 -0.3115 -0.1086  0.1256
    1OPC    C4B71093  15.084   4.529   3.677 -0.4955 -0.2906  0.1051
    1OPC    NC371094  13.159  13.274   1.762 -0.2544 -0.2163 -0.0801
    1OPC    PO471095  13.336  12.990   2.058  0.1175  0.0850  0.0448
    1OPC    GL171096  13.437  12.836   2.548 -0.0899  0.1521 -0.0035
    1OPC    GL271097  13.318  12.881   2.885  0.0847  0.1398  0.3373
    1OPC    C1B71098  13.036  12.848   3.184  0.0537  0.3468  0.1349
    1OPC    D2B71099  12.749  12.639   3.527 -0.1485  0.1837 -0.2141
    1OPC    C3B71100  12.826  12.747   3.881  0.0692  0.1995  0.2323
    1OPC    C4B71101  12.798  12.734   4.312 -0.0055 -0.0030  0.1429
    1OPC    NC371102  28.451  16.924   4.112 -0.1731 -0.1088 -0.1084
    1OPC    PO471103  28.226  16.619   3.920  0.1107 -0.1663  0.1330
    1OPC    GL171104  28.130  16.483   4.255  0.1497 -0.0383  0.0421
    1OPC    GL271105  28.245  16.676   4.479  0.2199 -0.1315  0.0645
    1OPC    C1B71106  28.314  16.597   4.856  0.4858 -0.3697  0.0537
    1OPC    D2B71107  28.125  16.248   5.183  0.2589 -0.1203  0.1112
    1OPC    C3B71108  28.369  15.899   5.384  0.1532 -0.0599  0.0200
    1OPC    C4B71109  28.523  15.622   5.700  0.1077 -0.0616 -0.2694
    1OPC    NC371110  26.480  23.025   3.025 -0.0345  0.3042 -0.0364
    1OPC    PO471111  26.742  23.039   3.472  0.1474 -0.2096  0.4330
    1OPC    GL171112  26.912  23.011   3.809  0.0713  0.2611 -0.0570
    1OPC    GL271113  26.953  23.106   4.041  0.1805  0.1144  0.2348
    1OPC    C1B71114  27.234  23.310   4.362 -0.0206 -0.1917 -0.0283
    1OPC    D2B71115  27.630  23.608   4.439 -0.0879 -0.0144  0.3914
    1OPC    C3B71116  27.700  23.749   4.962  0.0646 -0.0583  0.2870
    1OPC    C4B71117  27.956  24.056   5.297 -0.6656  0.1060 -0.1919
    1OPC    NC371118   8.483   6.243   2.600 -0.0881  0.1551  0.0412
    1OPC    PO471119   8.536   5.819   2.832 -0.1207 -0.2050 -0.0350
    1OPC    GL171120   8.250   5.825   3.243  0.1461  0.1192  0.2655
    1OPC    GL271121   8.189   5.943   3.576  0.3530 -0.0734  0.1382
    1OPC    C1B71122   8.260   5.775   3.997  0.0467  0.3861  0.2493
    1OPC    D2B71123   8.320   5.696   4.500 -0.0526  0.0856  0.2603
    1OPC    C3B71124   8.708   6.028   4.708  0.0557  0.2513  0.2592
    1OPC    C4B71125   8.945   6.388   4.581 -0.1839 -0.1975  0.0586
    1OPC    NC371126   4.981  28.000   3.794 -0.2248 -0.1243 -0.0635
    1OPC    PO471127   5.012  28.319   4.082  0.4344 -0.1055  0.0458
    1OPC    GL171128   5.254  28.193   4.412 -0.1428 -0.1329 -0.1601
    1OPC    GL271129   5.536  28.211   4.618 -0.0206  0.2536  0.1559
    1OPC    C1B71130   5.653  28.302   5.013 -0.1353 -0.1517 -0.0793
    1OPC    D2B71131   5.807  28.085   5.343  0.0523 -0.2149 -0.1631
    1OPC    C3B71132   5.786  28.396   5.588  0.2713 -0.1908  0.3818
    1OPC    C4B71133   5.894  28.688   5.748  0.0786 -0.2285 -0.0652
    1OPC    NC371134  17.303   9.081   1.114  0.0158 -0.1784  0.0522
    1OPC    PO471135  16.980   8.965   1.464 -0.1661  0.0752  0.0067
    1OPC    GL171136  17.094   8.879   1.919  0.1960  0.2242  0.1018
    1OPC    GL271137  17.084   8.952   2.184  0.1062 -0.2080  0.0856
    1OPC    C1B71138  16.887   8.915   2.596 -0.0590 -0.1417 -0.2165
    1OPC    D2B71139  16.740   8.780   3.113 -0.1220  0.3228  0.1023
    1OPC    C3B71140  17.055   8.756   3.475  0.1190  0.0175  0.2234
    1OPC    C4B71141  17.305   8.811   3.872 -0.2243  0.0548 -0.1540
    1OPC    NC371142   8.697  17.027   2.034  0.0264 -0.2068 -0.1007
    1OPC    PO471143   8.612  17.303   2.331 -0.1640 -0.2301  0.1938
    1OPC    GL171144   8.545  16.988   2.628 -0.0688  0.1733 -0.0150
    1OPC    GL271145   8.760  16.796   2.851  0.3101  0.3191  0.0427
    1OPC    C1B71146   8.778  16.378   3.113  0.0032  0.0971  0.1287
    1OPC    D2B71147   8.827  16.114   3.465  0.1965 -0.1244  0.2527
    1OPC    C3B71148   8.709  15.856   3.890  0.0969 -0.3215  0.4332
    1OPC    C4B71149   8.554  16.002   4.307  0.0583 -0.1690 -0.0922
    1OPC    NC371150  22.514  19.734   2.575  0.1274  0.1533  0.0470
    1OPC    PO471151  22.455  19.710   3.037  0.4013 -0.2346 -0.2855
    1OPC    GL171152  22.134  19.824   3.246 -0.0929 -0.3267  0.0988
    1OPC    GL271153  21.845  19.774   3.453 -0.1441  0.0659 -0.1600
    1OPC    C1B71154  21.461  19.783   3.584  0.1434 -0.0703  0.0141
    1OPC    D2B71155  21.116  19.946   3.480 -0.1027  0.0285 -0.1345
    1OPC    C3B71156  20.902  20.258   3.740 -0.1086  0.1171  0.0241
    1OPC    C4B71157  20.716  20.543   3.994  0.0498 -0.1313 -0.0172
    1OPC    NC371158  18.596   5.247   1.904  0.0653 -0.3615  0.2096
    1OPC    PO471159  18.312   4.946   1.796  0.1205  0.2085  0.1105
    1OPC    GL171160  18.250   4.735   2.166  0.0319 -0.1585 -0.1994
    1OPC    GL271161  18.243   4.700   2.494  0.1617  0.2194  0.3690
    1OPC    C1B71162  18.031   4.883   2.712 -0.2779 -0.0750 -0.0190
    1OPC    D2B71163  18.067   5.256   2.964  0.0435 -0.2547 -0.1621
    1OPC    C3B71164  18.026   5.164   3.341 -0.1796 -0.0403 -0.0732
    1OPC    C4B71165  18.141   5.116   3.710 -0.1872 -0.2239 -0.0065
    1OPC    NC371166   9.852  19.969   2.303 -0.1482 -0.2212 -0.1605
    1OPC    PO471167  10.066  19.802   2.622 -0.0339 -0.1204 -0.1853
    1OPC    GL171168   9.907  20.008   2.932  0.1779  0.0775  0.0346
    1OPC    GL271169   9.952  20.161   3.260 -0.0998 -0.2279 -0.0331
    1OPC    C1B71170  10.088  20.138   3.668  0.0826  0.1040 -0.1671
    1OPC    D2B71171  10.276  20.296   4.000  0.0516 -0.3803 -0.2629
    1OPC    C3B71172  10.046  20.443   4.222  0.2910  0.0503 -0.3573
    1OPC    C4B71173   9.842  20.276   4.476 -0.1279 -0.1728  0.1996
    1OPC    NC371174  15.130  13.991   2.404 -0.0069 -0.2654 -0.1185
    1OPC    PO471175  14.667  13.998   2.553 -0.3212 -0.0909  0.0255
    1OPC    GL171176  14.543  13.975   2.874 -0.1368 -0.2859 -0.0596
    1OPC    GL271177  14.286  13.763   3.153  0.0098  0.2005  0.0967
    1OPC    C1B71178  14.266  13.614   3.614 -0.3158 -0.2218  0.1692
    1OPC    D2B71179  14.153  13.739   4.049 -0.0132  0.1084 -0.2551
    1OPC    C3B71180  13.821  13.795   4.227  0.4743 -0.2903 -0.0665
    1OPC    C4B71181  13.545  14.137   4.242 -0.0994 -0.1904 -0.1762
    1OPC    NC371182  13.786   8.892   1.379  0.3932  0.0669 -0.0449
    1OPC    PO471183  14.196   9.119   1.567  0.1819 -0.0733  0.0909
    1OPC    GL171184  14.298   9.134   2.084 -0.0081  0.0991 -0.3562
    1OPC    GL271185  14.452   9.121   2.397 -0.0572  0.0195  0.0804
    1OPC    C1B71186  14.720   8.957   2.761 -0.1656  0.1510 -0.0344
    1OPC    D2B71187  14.543   8.867   3.153 -0.1691  0.1937  0.0765
    1OPC    C3B71188  14.482   9.079   3.567  0.3242 -0.1598 -0.2270
    1OPC    C4B71189  14.537   9.253   3.996  0.0899  0.3107 -0.0712
    1OPC    NC371190   3.639  23.458   3.334  0.0237  0.1069 -0.0244
    1OPC    PO471191   3.413  23.666   3.692 -0.1780  0.0572  0.1729
    1OPC    GL171192   3.381  23.525   4.012  0.0716 -0.1587  0.0359
    1OPC    GL271193   3.297  23.391   4.316  0.3758  0.0882 -0.2725
    1OPC    C1B71194   3.241  23.480   4.705  0.1123 -0.0609 -0.1720
    1OPC    D2B71195   3.027  23.556   5.035 -0.2746  0.0462  0.1007
    1OPC    C3B71196   2.966  23.894   5.187  0.3455 -0.1558 -0.1179
    1OPC    C4B71197   2.648  24.287   5.245  0.1560  0.4078  0.1050
    1OPC    NC371198  13.809  16.657   2.697  0.0226  0.1221  0.1994
    1OPC    PO471199  13.563  16.949   2.546  0.1084  0.0994 -0.0407
    1OPC    GL171200  13.656  17.223   2.795 -0.1342  0.0317  0.0461
    1OPC    GL271201  13.651  17.185   3.138  0.3072  0.0473 -0.1478
    1OPC    C1B71202  13.721  16.958   3.494  0.4554 -0.1881  0.4164
    1OPC    D2B71203  13.903  16.747   3.878  0.1557  0.0112 -0.2520
    1OPC    C3B71204  14.098  17.047   4.242  0.2255  0.1152 -0.1134
    1OPC    C4B71205  14.326  17.021   4.740  0.2920  0.0444 -0.0696
    1OPC    NC371206  20.155   1.242   2.769  0.0129 -0.0137  0.2243
    1OPC    PO471207  20.378   1.573   2.793  0.2544 -0.1451  0.2379
    1OPC    GL171208  20.440   1.383   3.126  0.0395 -0.1437  0.0808
    1OPC    GL271209  20.219   1.329   3.352 -0.2448  0.3670 -0.1759
    1OPC    C1B71210  19.964   1.447   3.620 -0.0550  0.3079 -0.3655
    1OPC    D2B71211  19.449   1.376   3.748  0.2040  0.0142  0.0149
    1OPC    C3B71212  19.267   1.295   4.159  0.0584  0.1565 -0.0239
    1OPC    C4B71213  19.314   0.954   4.411  0.0107  0.0953  0.0033
    1OPC    NC371214  23.632   4.670   3.091  0.2093 -0.2630 -0.1623
    1OPC    PO471215  23.384   4.289   3.042  0.2594  0.0846 -0.1817
    1OPC    GL171216  23.506   4.374   3.528  0.1109  0.2717 -0.0402
    1OPC    GL271217  23.528   4.246   3.776  0.0378  0.1033  0.2461
    1OPC    C1B71218  23.476   4.281   4.157  0.0209 -0.1073 -0.0131
    1OPC    D2B71219  23.395   4.010   4.470 -0.0825  0.0355 -0.3198
    1OPC    C3B71220  23.143   4.116   4.816  0.3653 -0.1839 -0.2447
    1OPC    C4B71221  23.071   4.564   4.851  0.1677 -0.2640 -0.3827
    1OPC    NC371222   1.566   3.188   3.841 -0.4844 -0.1023 -0.1793
    1OPC    PO471223   1.409   3.631   4.093 -0.2910 -0.0476  0.3638
    1OPC    GL171224   1.386   3.592   4.482  0.0011 -0.1016  0.1017
    1OPC    GL271225   1.254   3.671   4.797  0.0153  0.1220  0.2739
    1OPC    C1B71226   1.129   3.505   5.175  0.1028  0.2079  0.0947
    1OPC    D2B71227   1.145   3.476   5.627  0.2478  0.2684  0.2490
    1OPC    C3B71228   1.147   3.125   5.853  0.0320  0.0303 -0.1702
    1OPC    C4B71229   0.937   2.714   5.785  0.0285  0.0450  0.2243
    1OPC    NC371230   6.680  14.730   1.328  0.1755 -0.0397 -0.0368
    1OPC    PO471231   6.826  14.879   1.741  0.0058 -0.0965  0.3391
    1OPC    GL171232   6.794  14.918   2.113  0.1864 -0.2452 -0.0105
    1OPC    GL271233   6.700  14.825   2.423  0.1199  0.0731 -0.2566
    1OPC    C1B71234   6.521  14.832   2.874 -0.0820  0.0319  0.0451
    1OPC    D2B71235   6.579  14.830   3.324  0.0389 -0.1629 -0.1467
    1OPC    C3B71236   6.625  14.513   3.642 -0.2740  0.0226 -0.3411
    1OPC    C4B71237   6.855  14.359   3.974  0.2446  0.1829 -0.1510
    1OPC    NC371238  14.412  12.740   2.041  0.0056 -0.3742  0.0403
    1OPC    PO471239  14.198  13.014   2.352  0.1161 -0.0286 -0.1634
    1OPC    GL171240  14.111  12.955   2.697  0.2826  0.0581 -0.0772
    1OPC    GL271241  14.007  13.276   2.873 -0.2316  0.0475 -0.2177
    1OPC    C1B71242  13.538  13.247   3.051 -0.1587 -0.1448 -0.0553
    1OPC    D2B71243  13.538  12.912   3.391  0.0175  0.0137 -0.1844
    1OPC    C3B71244  13.614  12.417   3.425  0.0627 -0.1179 -0.1630
    1OPC    C4B71245  13.660  12.187   3.827  0.1782 -0.2408 -0.2581
    1OPC    NC371246  11.671   3.914   2.102 -0.2471 -0.2282  0.0605
    1OPC    PO471247  11.547   3.627   2.508  0.1817 -0.2836 -0.0441
    1OPC    GL171248  11.647   3.842   2.790 -0.1112 -0.1587 -0.0367
    1OPC    GL271249  11.540   3.849   3.081 -0.1559 -0.2747 -0.0190
    1OPC    C1B71250  11.801   3.839   3.494 -0.1737 -0.0976  0.1550
    1OPC    D2B71251  11.915   3.796   3.952 -0.2324  0.1726 -0.1510
    1OPC    C3B71252  11.994   3.429   4.170  0.0145 -0.0805  0.2156
    1OPC    C4B71253  12.273   3.129   4.137 -0.1570  0.0314 -0.0286
    1OPC    NC371254  23.800  10.196   2.208 -0.3360  0.1113 -0.2016
    1OPC    PO471255  23.295  10.211   2.294 -0.1833  0.0125 -0.3965
    1OPC    GL171256  23.202  10.521   2.692 -0.0447 -0.2714 -0.1200
    1OPC    GL271257  23.220  10.789   2.929 -0.2523 -0.0979 -0.2638
    1OPC    C1B71258  23.241  10.847   3.299 -0.2226  0.2196  0.1814
    1OPC    D2B71259  23.280  10.712   3.686 -0.0109 -0.0381  0.1672
    1OPC    C3B71260  23.209  10.647   4.080  0.3354 -0.0634  0.0324
    1OPC    C4B71261  22.876  10.572   4.371  0.0867 -0.0584 -0.0654
    1OPC    NC371262   5.407   3.893   4.190 -0.3269  0.0211 -0.2923
    1OPC    PO471263   5.432   3.450   3.964  0.1755  0.0720 -0.0365
    1OPC    GL171264   5.143   3.512   4.261  0.1233  0.1155  0.1299
    1OPC    GL271265   4.906   3.565   4.496 -0.0753 -0.0345 -0.1947
    1OPC    C1B71266   4.834   3.660   4.971  0.0209  0.1033 -0.2683
    1OPC    D2B71267   4.786   3.624   5.370 -0.1669  0.0189  0.0243
    1OPC    C3B71268   5.131   3.503   5.726 -0.0562  0.0123  0.0224
    1OPC    C4B71269   5.324   3.705   6.014 -0.0888  0.1951  0.0859
    1OPC    NC371270  16.379   8.293   0.962  0.0668 -0.4297  0.1017
    1OPC    PO471271  16.437   8.290   1.450  0.0682 -0.0769  0.0289
    1OPC    GL171272  16.687   8.170   1.830 -0.2505  0.0533  0.0349
    1OPC    GL271273  16.933   7.986   2.117  0.1108  0.1212 -0.1882
    1OPC    C1B71274  16.993   7.693   2.451  0.2105 -0.0034  0.1450
    1OPC    D2B71275  17.130   7.469   2.787  0.2061 -0.1027  0.1616
    1OPC    C3B71276  17.294   7.442   3.191  0.0421  0.0716  0.1484
    1OPC    C4B71277  17.702   7.306   3.378 -0.2751 -0.3078  0.0773
    1OPC    NC371278  23.398   5.706   1.812 -0.2695 -0.2706  0.0577
    1OPC    PO471279  23.239   6.095   2.044  0.0255  0.2671 -0.2766
    1OPC    GL171280  22.901   5.984   2.367  0.2183 -0.1608  0.0136
    1OPC    GL271281  22.817   5.941   2.614 -0.0939  0.1501  0.0387
    1OPC    C1B71282  22.762   5.928   3.015  0.0578 -0.1291  0.0960
    1OPC    D2B71283  22.603   5.704   3.329 -0.1446  0.1827  0.0494
    1OPC    C3B71284  22.809   5.420   3.458 -0.0245 -0.0696  0.2436
    1OPC    C4B71285  22.973   5.550   3.828 -0.1027  0.1380  0.1078
    1OPC    NC371286  24.517   6.620   2.748  0.0556 -0.1373 -0.0441
    1OPC    PO471287  24.949   6.652   3.099  0.1255  0.0001  0.1657
    1OPC    GL171288  24.667   6.412   3.496 -0.1892 -0.0436  0.1079
    1OPC    GL271289  24.434   6.443   3.729  0.1663  0.0200  0.0877
    1OPC    C1B71290  24.304   6.187   4.083 -0.0926  0.2631 -0.1911
    1OPC    D2B71291  24.162   6.253   4.461  0.2085 -0.0266 -0.1314
    1OPC    C3B71292  24.031   5.870   4.628 -0.0559 -0.0853 -0.2549
    1OPC    C4B71293  23.919   5.548   4.962 -0.2440 -0.1159 -0.0421
    1OPC    NC371294  13.515  15.690   2.459 -0.3809 -0.0901  0.1701
    1OPC    PO471295  13.918  15.709   2.466 -0.3806  0.0878 -0.0659
    1OPC    GL171296  13.843  15.704   2.884  0.2377 -0.3385  0.1490
    1OPC    GL271297  13.608  15.749   3.003 -0.1671 -0.0296 -0.1376
    1OPC    C1B71298  13.528  15.793   3.487  0.0863 -0.3892  0.0820
    1OPC    D2B71299  13.820  15.824   3.874  0.1778  0.3074  0.0649
    1OPC    C3B71300  13.900  16.159   4.153  0.0376  0.0764 -0.2354
    1OPC    C4B71301  13.849  16.242   4.662  0.0728 -0.0569  0.0303
    1OPC    NC371302  23.518  24.861   3.081  0.0523  0.0387 -0.0289
    1OPC    PO471303  23.603  24.461   3.190  0.2561  0.1095  0.0389
    1OPC    GL171304  23.152  24.577   3.416  0.3041  0.0249  0.1159
    1OPC    GL271305  22.876  24.643   3.659 -0.2205  0.0676  0.0272
    1OPC    C1B71306  22.947  24.624   4.109  0.0013  0.1776 -0.1442
    1OPC    D2B71307  23.128  24.785   4.602  0.2226  0.0837 -0.0184
    1OPC    C3B71308  22.982  24.925   4.942 -0.0295 -0.0931 -0.0354
    1OPC    C4B71309  22.815  25.048   5.345  0.0581  0.2532 -0.0306
    1OPC    NC371310  17.255  18.063   2.563 -0.0963 -0.1262  0.1938
    1OPC    PO471311  17.210  17.660   2.333 -0.1257 -0.5315 -0.0861
    1OPC    GL171312  17.223  17.533   2.765 -0.4768 -0.2808  0.3114
    1OPC    GL271313  17.152  17.504   3.077 -0.0226  0.1863  0.2704
    1OPC    C1B71314  17.372  17.746   3.494 -0.0712  0.0862  0.1709
    1OPC    D2B71315  17.511  17.973   3.731  0.1577  0.0705  0.0406
    1OPC    C3B71316  17.839  18.286   3.684 -0.0987  0.2634 -0.1488
    1OPC    C4B71317  18.169  18.422   3.826 -0.0144  0.2368  0.1372
    1OPC    NC371318  23.181  12.034   3.343  0.0177  0.2456  0.3016
    1OPC    PO471319  23.513  12.022   3.109  0.1297  0.0651 -0.0046
    1OPC    GL171320  23.619  11.651   3.295  0.1873  0.2390  0.0496
    1OPC    GL271321  23.764  11.396   3.276 -0.0441  0.0345  0.1500
    1OPC    C1B71322  23.909  11.218   3.692 -0.0924  0.3707 -0.2001
    1OPC    D2B71323  23.924  11.179   4.140  0.1220  0.0478  0.2573
    1OPC    C3B71324  23.909  11.671   4.344  0.0040 -0.1708  0.1881
    1OPC    C4B71325  23.762  11.990   4.660 -0.0463  0.2856 -0.2447
    1OPC    NC371326  18.410   9.200   1.858  0.1118  0.1629  0.1051
    1OPC    PO471327  18.423   8.914   1.458  0.0591  0.0096  0.3050
    1OPC    GL171328  18.519   8.705   1.924  0.1634  0.3053  0.1377
    1OPC    GL271329  18.687   8.491   2.249  0.1948  0.1209 -0.2477
    1OPC    C1B71330  18.752   8.222   2.551 -0.1615 -0.1407 -0.3717
    1OPC    D2B71331  18.774   7.977   2.857 -0.3468  0.1716  0.2145
    1OPC    C3B71332  18.537   7.687   3.097 -0.0001  0.0608 -0.1789
    1OPC    C4B71333  18.537   7.623   3.572  0.3033 -0.1129  0.3272
    1OPC    NC371334  23.515   5.564   2.802  0.0540 -0.0413 -0.1052
    1OPC    PO471335  23.877   5.503   3.004  0.1867  0.1475  0.2206
    1OPC    GL171336  23.724   5.069   3.331 -0.0826 -0.3081  0.2224
    1OPC    GL271337  23.519   4.883   3.582  0.0868  0.0200  0.0223
    1OPC    C1B71338  23.259   4.720   3.971 -0.0202 -0.0918  0.0183
    1OPC    D2B71339  23.136   4.654   4.348 -0.1206 -0.0047 -0.3722
    1OPC    C3B71340  22.970   5.007   4.593 -0.2681  0.0057 -0.0094
    1OPC    C4B71341  22.473   5.053   4.741 -0.2200 -0.2328  0.2301
    1OPC    NC371342  22.454  27.228   3.161  0.1504  0.1065  0.0134
    1OPC    PO471343  22.083  27.585   3.147  0.2177 -0.0255 -0.2702
    1OPC    GL171344  22.062  27.813   3.441  0.0110 -0.1144 -0.0669
    1OPC    GL271345  22.184  28.000   3.688  0.1012 -0.0877  0.1635
    1OPC    C1B71346  22.095  28.071   4.164  0.0432  0.4242  0.0876
    1OPC    D2B71347  21.998  28.152   4.559 -0.0024  0.3596 -0.3188
    1OPC    C3B71348  22.046  27.945   4.986  0.2846  0.0759  0.1130
    1OPC    C4B71349  21.787  28.196   5.354 -0.0835 -0.2576 -0.0859
    1OPC    NC371350  25.517  27.875   2.781  0.1768 -0.0442 -0.0757
    1OPC    PO471351  25.384  27.944   3.170  0.1358 -0.2223 -0.2259
    1OPC    GL171352  25.635  28.178   3.514 -0.0877  0.0217 -0.1634
    1OPC    GL271353  25.780  28.283   3.815  0.3564  0.1020  0.0361
    1OPC    C1B71354  25.670  28.236   4.208  0.1156 -0.1331  0.1427
    1OPC    D2B71355  25.590  28.537   4.505 -0.1689 -0.0821 -0.3153
    1OPC    C3B71356  25.632  28.583   4.947  0.1969  0.0856 -0.0530
    1OPC    C4B71357  25.502  28.532   5.294  0.0993 -0.2219  0.1336
    1OPC    NC371358   8.198  25.024   3.652 -0.2372  0.1783  0.1325
    1OPC    PO471359   8.215  25.356   3.813  0.0923  0.0966  0.0267
    1OPC    GL171360   8.123  25.178   4.167  0.0762 -0.1790  0.0335
    1OPC    GL271361   8.092  25.010   4.364  0.1794  0.0270 -0.3000
    1OPC    C1B71362   8.323  24.760   4.539 -0.1727  0.0459 -0.0042
    1OPC    D2B71363   8.467  24.367   4.706 -0.2381  0.2987 -0.1410
    1OPC    C3B71364   8.361  24.334   5.061 -0.0400 -0.2271  0.4458
    1OPC    C4B71365   8.049  24.319   5.228 -0.3414 -0.0945 -0.0407
    1OPC    NC371366   6.803   0.859   3.368  0.0230 -0.1012 -0.3085
    1OPC    PO471367   7.001   0.845   3.734  0.1379 -0.0864 -0.0320
    1OPC    GL171368   7.247   0.996   4.073  0.1113 -0.0212 -0.0538
    1OPC    GL271369   7.463   0.921   4.297 -0.0155 -0.1005 -0.2592
    1OPC    C1B71370   7.704   0.878   4.658  0.2825  0.1796  0.0960
    1OPC    D2B71371   7.801   0.729   5.066 -0.1490 -0.1754  0.3404
    1OPC    C3B71372   8.133   0.469   5.180 -0.2116 -0.2743 -0.2381
    1OPC    C4B71373   8.433   0.089   5.116  0.1189  0.0522 -0.2790
    1OPC    NC371374  11.239  12.616   1.790  0.1718 -0.1112 -0.1112
    1OPC    PO471375  11.360  12.087   1.819  0.2573 -0.1173  0.2271
    1OPC    GL171376  11.563  12.357   2.101 -0.0497 -0.1561 -0.2505
    1OPC    GL271377  11.739  12.356   2.390 -0.2914 -0.2663  0.0077
    1OPC    C1B71378  11.951  12.074   2.799 -0.1299 -0.0023  0.0747
    1OPC    D2B71379  12.070  12.042   3.233 -0.1253  0.0703  0.1432
    1OPC    C3B71380  12.052  11.672   3.447  0.2136 -0.0190  0.0427
    1OPC    C4B71381  11.979  11.490   3.852  0.2538  0.1503 -0.1151
    1OPC    NC371382  24.393  10.030   2.806  0.0560 -0.1736  0.1026
    1OPC    PO471383  24.073  10.366   2.706  0.1520  0.4902  0.1027
    1OPC    GL171384  24.036  10.319   3.182  0.2742  0.1880 -0.0179
    1OPC    GL271385  24.218  10.398   3.476  0.1394 -0.2220 -0.0875
    1OPC    C1B71386  24.143  10.466   3.898  0.0077  0.0720  0.0108
    1OPC    D2B71387  23.931  10.585   4.320 -0.1076  0.0646  0.0288
    1OPC    C3B71388  23.620  10.854   4.360  0.1453 -0.1411 -0.2872
    1OPC    C4B71389  23.272  10.910   4.614 -0.0027  0.0208  0.1584
    1OPC    NC371390   8.154  14.939   1.060  0.0396 -0.0382 -0.0702
    1OPC    PO471391   7.751  14.700   1.311 -0.1327 -0.0274 -0.1846
    1OPC    GL171392   7.770  14.880   1.747 -0.3004  0.1048 -0.0034
    1OPC    GL271393   7.940  14.902   2.069  0.0878  0.0320 -0.3008
    1OPC    C1B71394   7.961  14.793   2.494 -0.2663 -0.3749  0.1355
    1OPC    D2B71395   7.634  14.714   2.803  0.2534  0.2534 -0.0129
    1OPC    C3B71396   7.586  14.734   3.275 -0.1847  0.1472  0.2731
    1OPC    C4B71397   7.778  14.637   3.680  0.1072 -0.0889 -0.0187
    1OPC    NC371398  21.686  26.074   2.945 -0.0334 -0.0770 -0.0820
    1OPC    PO471399  21.296  26.126   3.011 -0.4659 -0.0617 -0.0804
    1OPC    GL171400  21.054  25.796   3.289 -0.1743 -0.2457 -0.2699
    1OPC    GL271401  21.135  25.854   3.539 -0.0385  0.0252  0.1190
    1OPC    C1B71402  21.083  25.967   4.005  0.0487 -0.0342  0.0156
    1OPC    D2B71403  21.421  26.035   4.331  0.0916  0.2068  0.1791
    1OPC    C3B71404  21.296  25.813   4.657 -0.0688 -0.1494  0.0689
    1OPC    C4B71405  20.939  25.861   4.919 -0.2532 -0.1955  0.0157
    1OPC    NC371406  19.421   4.582   1.948 -0.1716 -0.1314  0.2845
    1OPC    PO471407  19.652   4.930   2.068  0.0093 -0.3606  0.2541
    1OPC    GL171408  19.900   4.822   2.418  0.1160 -0.2142  0.1031
    1OPC    GL271409  19.893   4.776   2.686  0.1085  0.3287  0.2186
    1OPC    C1B71410  19.568   4.721   3.000  0.2152 -0.0728 -0.1392
    1OPC    D2B71411  19.529   4.312   3.294 -0.2457 -0.2748 -0.1280
    1OPC    C3B71412  19.695   4.338   3.752 -0.0847  0.0258 -0.1329
    1OPC    C4B71413  19.946   4.300   4.141 -0.0504  0.2387 -0.0922
    1OPC    NC371414  23.954   1.699   3.084 -0.1300  0.0877  0.1680
    1OPC    PO471415  24.065   1.338   2.798 -0.0581 -0.3304 -0.2030
    1OPC    GL171416  23.873   1.193   3.107 -0.2244 -0.0975 -0.2235
    1OPC    GL271417  23.875   0.954   3.388  0.1672  0.1898 -0.0058
    1OPC    C1B71418  23.928   0.918   3.838 -0.0795 -0.1622 -0.0361
    1OPC    D2B71419  24.077   0.836   4.320  0.1989  0.0447  0.3503
    1OPC    C3B71420  24.059   0.766   4.721 -0.0549  0.2623 -0.0151
    1OPC    C4B71421  24.166   0.992   5.018 -0.2850  0.0686 -0.0432
  28.87829  28.87829  10.00376
